AutoDock-GPU version: v1.6

**********************************************************
**    AutoDock-GPU AUTODOCKTOOLS-COMPATIBLE DLG FILE    **
**********************************************************


    DOCKING PARAMETERS
    ________________________


Ligand file:                               /home/a/REINVENT4/ReinventStudies/pleaseWork/justmol2mol_4/graph-dock/graph-DockGPU/node-autodockgpu/inputs/IGILTACMZNXZQP-ACASAJBENA-M.pdbqt
Grid fld file:                             /home/a/REINVENT4/ReinventStudies/mols/Rad51/maps/rad51_receptor.maps.fld

Random seed:                               42
Number of runs:                            20
Number of energy evaluations:              2542121
Number of generations:                     42000
Size of population:                        150
Rate of crossover:                         80.000000%
Tournament selection probability limit:    60.000000%
Rate of mutation:                          2.000000%
Maximal allowed delta movement:            +/- 6.000000A
Maximal allowed delta angle:               +/- 90.000000

Rate of local search:                      100.000000%
Maximal number of local search iterations: 300
Rho lower bound:                           0.010000
Spread of local search delta movement:     2.000000A
Spread of local search delta angle:        74.999999
Limit of consecutive successes/failures:   4

Handle symmetry during clustering:         YES
RMSD tolerance:                            2.000000A

Program call in command line was:          /home/a/REINVENT4/ReinventStudies/adgpu-v1.6_linux_x64_cuda12_128wi --filelist batch.txt --heuristics 1 --nrun 20 --psize 150 --lsit 300 --seed 42 --heurmax 12000000 


    GRID PARAMETERS
    ________________________


Receptor name:                             rad51_receptor
Number of grid points (x, y, z):           53, 53, 53
Grid center (x, y, z):                     139.950000, 75.640000, 221.970000A
Grid size (x, y, z):                       19.500000, 19.500000, 19.500000A
Grid spacing:                              0.375000A


    LIGAND PARAMETERS
    ________________________


Ligand name:                               /home/a/REINVENT4/ReinventStudies/pleaseWork/justmol2mol_4/graph-dock/graph-DockGPU/node-autodockgpu/inputs/IGILTACMZNXZQP-ACASAJBENA-M
Number of atoms:                           34
Number of rotatable bonds:                 10
Number of atom types:                      8


    DUMMY DATA (only for ADT-compatibility)
    ________________________


DPF> outlev 1
DPF> ga_run 20
DPF> fld /home/a/REINVENT4/ReinventStudies/mols/Rad51/maps/rad51_receptor.maps.fld
DPF> move /home/a/REINVENT4/ReinventStudies/pleaseWork/justmol2mol_4/graph-dock/graph-DockGPU/node-autodockgpu/inputs/IGILTACMZNXZQP-ACASAJBENA-M.pdbqt


    COUNTER STATES
    ________________________


Number of energy evaluations performed:    1332065
Number of generations used:                80


    INPUT LIGAND PDBQT FILE:
    ________________________


INPUT-LIGAND-PDBQT: REMARK SMILES CC(C)c1nc(C[C@@H]2C[C@@H](O)CN2/C(O)=C/[N-]C(=O)c2ccc3cc(F)ccc3n2)cs1
INPUT-LIGAND-PDBQT: REMARK SMILES IDX 14 1 15 2 16 4 17 5 18 6 19 7 20 8 30 9 21 10 29 11 22 12
INPUT-LIGAND-PDBQT: REMARK SMILES IDX 28 13 23 14 27 15 24 16 25 17 26 18 13 19 12 20 8 21 10 22
INPUT-LIGAND-PDBQT: REMARK SMILES IDX 9 23 7 24 6 25 5 26 31 27 4 28 32 29 2 30 1 31 3 32 11 33
INPUT-LIGAND-PDBQT: REMARK H PARENT 15 3 11 34
INPUT-LIGAND-PDBQT: ROOT
INPUT-LIGAND-PDBQT: ATOM      1  C   UNL     1       0.767   0.105   1.536  1.00  0.00     0.164 C 
INPUT-LIGAND-PDBQT: ENDROOT
INPUT-LIGAND-PDBQT: BRANCH   1   2
INPUT-LIGAND-PDBQT: ATOM      2  O   UNL     1       1.499   1.253   1.857  1.00  0.00    -0.496 OA
INPUT-LIGAND-PDBQT: ATOM      3  H   UNL     1       1.573   2.053   1.241  1.00  0.00     0.295 HD
INPUT-LIGAND-PDBQT: ENDBRANCH   1   2
INPUT-LIGAND-PDBQT: BRANCH   1   4
INPUT-LIGAND-PDBQT: ATOM      4  C   UNL     1       0.151   0.008   0.346  1.00  0.00    -0.069 C 
INPUT-LIGAND-PDBQT: BRANCH   4   5
INPUT-LIGAND-PDBQT: ATOM      5  N   UNL     1       0.232   1.061  -0.616  1.00  0.00    -0.623 NA
INPUT-LIGAND-PDBQT: BRANCH   5   6
INPUT-LIGAND-PDBQT: ATOM      6  C   UNL     1      -0.450   1.029  -1.875  1.00  0.00     0.104 C 
INPUT-LIGAND-PDBQT: ATOM      7  O   UNL     1      -1.196   0.054  -2.168  1.00  0.00    -0.313 OA
INPUT-LIGAND-PDBQT: BRANCH   6   8
INPUT-LIGAND-PDBQT: ATOM      8  C   UNL     1      -0.278   2.146  -2.821  1.00  0.00     0.089 A 
INPUT-LIGAND-PDBQT: ATOM      9  N   UNL     1       0.516   3.197  -2.474  1.00  0.00    -0.246 NA
INPUT-LIGAND-PDBQT: ATOM     10  C   UNL     1      -0.922   2.147  -4.070  1.00  0.00     0.031 A 
INPUT-LIGAND-PDBQT: ATOM     11  C   UNL     1       0.711   4.260  -3.300  1.00  0.00     0.071 A 
INPUT-LIGAND-PDBQT: ATOM     12  C   UNL     1      -0.740   3.224  -4.940  1.00  0.00     0.013 A 
INPUT-LIGAND-PDBQT: ATOM     13  C   UNL     1       1.530   5.320  -2.900  1.00  0.00     0.032 A 
INPUT-LIGAND-PDBQT: ATOM     14  C   UNL     1       0.078   4.296  -4.562  1.00  0.00     0.003 A 
INPUT-LIGAND-PDBQT: ATOM     15  C   UNL     1       1.717   6.417  -3.746  1.00  0.00     0.041 A 
INPUT-LIGAND-PDBQT: ATOM     16  C   UNL     1       0.272   5.400  -5.407  1.00  0.00     0.049 A 
INPUT-LIGAND-PDBQT: ATOM     17  C   UNL     1       1.088   6.458  -4.995  1.00  0.00     0.123 A 
INPUT-LIGAND-PDBQT: ATOM     18  F   UNL     1       1.269   7.527  -5.809  1.00  0.00    -0.207 F 
INPUT-LIGAND-PDBQT: ENDBRANCH   6   8
INPUT-LIGAND-PDBQT: ENDBRANCH   5   6
INPUT-LIGAND-PDBQT: ENDBRANCH   4   5
INPUT-LIGAND-PDBQT: ENDBRANCH   1   4
INPUT-LIGAND-PDBQT: BRANCH   1  19
INPUT-LIGAND-PDBQT: ATOM     19  N   UNL     1       0.712  -0.967   2.505  1.00  0.00    -0.339 N 
INPUT-LIGAND-PDBQT: ATOM     20  C   UNL     1       1.676  -1.051   3.589  1.00  0.00     0.151 C 
INPUT-LIGAND-PDBQT: ATOM     21  C   UNL     1      -0.124  -2.163   2.409  1.00  0.00     0.093 C 
INPUT-LIGAND-PDBQT: ATOM     22  C   UNL     1       1.661  -2.506   4.055  1.00  0.00     0.136 C 
INPUT-LIGAND-PDBQT: ATOM     23  C   UNL     1       0.341  -3.085   3.547  1.00  0.00     0.059 C 
INPUT-LIGAND-PDBQT: BRANCH  21  24
INPUT-LIGAND-PDBQT: ATOM     24  C   UNL     1      -1.625  -1.809   2.531  1.00  0.00     0.082 C 
INPUT-LIGAND-PDBQT: BRANCH  24  25
INPUT-LIGAND-PDBQT: ATOM     25  C   UNL     1      -2.469  -2.882   1.915  1.00  0.00     0.054 A 
INPUT-LIGAND-PDBQT: ATOM     26  N   UNL     1      -2.816  -2.838   0.601  1.00  0.00    -0.246 NA
INPUT-LIGAND-PDBQT: ATOM     27  C   UNL     1      -2.865  -4.035   2.594  1.00  0.00     0.090 A 
INPUT-LIGAND-PDBQT: ATOM     28  C   UNL     1      -3.504  -3.936   0.222  1.00  0.00     0.095 A 
INPUT-LIGAND-PDBQT: ATOM     29  S   UNL     1      -3.684  -5.015   1.500  1.00  0.00    -0.127 S 
INPUT-LIGAND-PDBQT: BRANCH  28  30
INPUT-LIGAND-PDBQT: ATOM     30  C   UNL     1      -3.973  -4.180  -1.183  1.00  0.00     0.042 C 
INPUT-LIGAND-PDBQT: ATOM     31  C   UNL     1      -4.900  -3.051  -1.639  1.00  0.00     0.015 C 
INPUT-LIGAND-PDBQT: ATOM     32  C   UNL     1      -2.772  -4.312  -2.126  1.00  0.00     0.015 C 
INPUT-LIGAND-PDBQT: ENDBRANCH  28  30
INPUT-LIGAND-PDBQT: ENDBRANCH  24  25
INPUT-LIGAND-PDBQT: ENDBRANCH  21  24
INPUT-LIGAND-PDBQT: BRANCH  22  33
INPUT-LIGAND-PDBQT: ATOM     33  O   UNL     1       2.733  -3.212   3.484  1.00  0.00    -0.391 OA
INPUT-LIGAND-PDBQT: ATOM     34  H   UNL     1       3.529  -3.012   4.040  1.00  0.00     0.211 HD
INPUT-LIGAND-PDBQT: ENDBRANCH  22  33
INPUT-LIGAND-PDBQT: ENDBRANCH   1  19
INPUT-LIGAND-PDBQT: TORSDOF 10


    FINAL DOCKED STATE:
    ________________________


Run:   1 / 20
Time taken for this run:   0.124s

DOCKED: MODEL        1
DOCKED: USER    Run = 1
DOCKED: USER
DOCKED: USER    Estimated Free Energy of Binding    =  -6.16 kcal/mol  [=(1)+(2)+(3)-(4)]
DOCKED: USER
DOCKED: USER    (1) Final Intermolecular Energy     =  -9.15 kcal/mol
DOCKED: USER        vdW + Hbond + desolv Energy     =  -9.10 kcal/mol
DOCKED: USER        Electrostatic Energy            =  -0.04 kcal/mol
DOCKED: USER        Moving Ligand-Fixed Receptor    =  -9.15 kcal/mol
DOCKED: USER        Moving Ligand-Moving Receptor   =  +0.00 kcal/mol
DOCKED: USER    (2) Final Total Internal Energy     =  -3.47 kcal/mol
DOCKED: USER    (3) Torsional Free Energy           =  +2.98 kcal/mol
DOCKED: USER    (4) Unbound System's Energy         =  -3.47 kcal/mol
DOCKED: USER
DOCKED: USER
DOCKED: REMARK SMILES CC(C)c1nc(C[C@@H]2C[C@@H](O)CN2/C(O)=C/[N-]C(=O)c2ccc3cc(F)ccc3n2)cs1
DOCKED: REMARK SMILES IDX 14 1 15 2 16 4 17 5 18 6 19 7 20 8 30 9 21 10 29 11 22 12
DOCKED: REMARK SMILES IDX 28 13 23 14 27 15 24 16 25 17 26 18 13 19 12 20 8 21 10 22
DOCKED: REMARK SMILES IDX 9 23 7 24 6 25 5 26 31 27 4 28 32 29 2 30 1 31 3 32 11 33
DOCKED: REMARK H PARENT 15 3 11 34
DOCKED: USER                              x       y       z     vdW  Elec       q    Type
DOCKED: USER                           _______ _______ _______ _____ _____    ______ ____
DOCKED: ROOT
DOCKED: ATOM      1  C   UNL     1     140.471  74.761 221.747 -0.18 -0.02    +0.164 C  
DOCKED: ENDROOT
DOCKED: BRANCH   1   2
DOCKED: ATOM      2  O   UNL     1     139.536  74.379 222.715 -0.45 +0.06    -0.496 OA 
DOCKED: ATOM      3  H   UNL     1     138.742  73.784 222.513 -0.33 -0.11    +0.295 HD 
DOCKED: ENDBRANCH   1   2
DOCKED: BRANCH   1   4
DOCKED: ATOM      4  C   UNL     1     141.351  73.867 221.268 -0.24 +0.01    -0.069 C  
DOCKED: BRANCH   4   5
DOCKED: ATOM      5  N   UNL     1     141.173  72.466 221.484 -0.02 +0.06    -0.623 NA 
DOCKED: BRANCH   5   6
DOCKED: ATOM      6  C   UNL     1     139.935  71.889 221.914 -0.22 -0.02    +0.104 C  
DOCKED: ATOM      7  O   UNL     1     138.890  72.040 221.222 -0.05 +0.06    -0.313 OA 
DOCKED: BRANCH   6   8
DOCKED: ATOM      8  C   UNL     1     139.893  71.113 223.166 -0.29 -0.02    +0.089 A  
DOCKED: ATOM      9  N   UNL     1     140.444  71.640 224.295 -0.28 +0.04    -0.246 NA 
DOCKED: ATOM     10  C   UNL     1     139.301  69.839 223.214 -0.23 -0.01    +0.031 A  
DOCKED: ATOM     11  C   UNL     1     140.443  70.972 225.481 -0.51 -0.01    +0.071 A  
DOCKED: ATOM     12  C   UNL     1     139.283  69.130 224.417 -0.33 -0.00    +0.013 A  
DOCKED: ATOM     13  C   UNL     1     141.025  71.549 226.613 -0.70 -0.00    +0.032 A  
DOCKED: ATOM     14  C   UNL     1     139.858  69.689 225.565 -0.45 -0.00    +0.003 A  
DOCKED: ATOM     15  C   UNL     1     141.034  70.854 227.826 -0.66 -0.01    +0.041 A  
DOCKED: ATOM     16  C   UNL     1     139.869  68.998 226.787 -0.53 -0.01    +0.049 A  
DOCKED: ATOM     17  C   UNL     1     140.459  69.581 227.912 -0.52 -0.02    +0.123 A  
DOCKED: ATOM     18  F   UNL     1     140.475  68.910 229.090 -0.11 +0.04    -0.207 F  
DOCKED: ENDBRANCH   6   8
DOCKED: ENDBRANCH   5   6
DOCKED: ENDBRANCH   4   5
DOCKED: ENDBRANCH   1   4
DOCKED: BRANCH   1  19
DOCKED: ATOM     19  N   UNL     1     140.446  76.127 221.271 -0.14 +0.10    -0.339 N  
DOCKED: ATOM     20  C   UNL     1     141.601  76.715 220.614 -0.20 -0.08    +0.151 C  
DOCKED: ATOM     21  C   UNL     1     139.409  77.115 221.565 -0.22 -0.02    +0.093 C  
DOCKED: ATOM     22  C   UNL     1     141.430  78.228 220.737 -0.26 -0.07    +0.136 C  
DOCKED: ATOM     23  C   UNL     1     139.947  78.451 221.030 -0.18 -0.02    +0.059 C  
DOCKED: BRANCH  21  24
DOCKED: ATOM     24  C   UNL     1     138.064  76.729 220.904 -0.10 -0.02    +0.082 C  
DOCKED: BRANCH  24  25
DOCKED: ATOM     25  C   UNL     1     137.202  75.976 221.869 -0.17 -0.01    +0.054 A  
DOCKED: ATOM     26  N   UNL     1     136.913  74.661 221.677 -0.07 +0.06    -0.246 NA 
DOCKED: ATOM     27  C   UNL     1     136.728  76.518 223.064 -0.22 -0.02    +0.090 A  
DOCKED: ATOM     28  C   UNL     1     136.196  74.146 222.698 -0.15 -0.03    +0.095 A  
DOCKED: ATOM     29  S   UNL     1     135.915  75.299 223.890 -0.28 +0.03    -0.127 S  
DOCKED: BRANCH  28  30
DOCKED: ATOM     30  C   UNL     1     135.777  72.706 222.777 -0.13 -0.01    +0.042 C  
DOCKED: ATOM     31  C   UNL     1     135.937  72.029 221.415 -0.05 -0.00    +0.015 C  
DOCKED: ATOM     32  C   UNL     1     136.595  71.976 223.848 -0.15 -0.00    +0.015 C  
DOCKED: ENDBRANCH  28  30
DOCKED: ENDBRANCH  24  25
DOCKED: ENDBRANCH  21  24
DOCKED: BRANCH  22  33
DOCKED: ATOM     33  O   UNL     1     142.198  78.720 221.806 -0.22 +0.25    -0.391 OA 
DOCKED: ATOM     34  H   UNL     1     143.087  78.286 221.736 -0.46 -0.25    +0.211 HD 
DOCKED: ENDBRANCH  22  33
DOCKED: ENDBRANCH   1  19
DOCKED: TORSDOF 10
DOCKED: TER
DOCKED: ENDMDL
________________________________________________________________________________


    FINAL DOCKED STATE:
    ________________________


Run:   2 / 20
Time taken for this run:   0.124s

DOCKED: MODEL        2
DOCKED: USER    Run = 2
DOCKED: USER
DOCKED: USER    Estimated Free Energy of Binding    =  -7.59 kcal/mol  [=(1)+(2)+(3)-(4)]
DOCKED: USER
DOCKED: USER    (1) Final Intermolecular Energy     = -10.58 kcal/mol
DOCKED: USER        vdW + Hbond + desolv Energy     = -10.69 kcal/mol
DOCKED: USER        Electrostatic Energy            =  +0.11 kcal/mol
DOCKED: USER        Moving Ligand-Fixed Receptor    = -10.58 kcal/mol
DOCKED: USER        Moving Ligand-Moving Receptor   =  +0.00 kcal/mol
DOCKED: USER    (2) Final Total Internal Energy     =  -2.47 kcal/mol
DOCKED: USER    (3) Torsional Free Energy           =  +2.98 kcal/mol
DOCKED: USER    (4) Unbound System's Energy         =  -2.47 kcal/mol
DOCKED: USER
DOCKED: USER
DOCKED: REMARK SMILES CC(C)c1nc(C[C@@H]2C[C@@H](O)CN2/C(O)=C/[N-]C(=O)c2ccc3cc(F)ccc3n2)cs1
DOCKED: REMARK SMILES IDX 14 1 15 2 16 4 17 5 18 6 19 7 20 8 30 9 21 10 29 11 22 12
DOCKED: REMARK SMILES IDX 28 13 23 14 27 15 24 16 25 17 26 18 13 19 12 20 8 21 10 22
DOCKED: REMARK SMILES IDX 9 23 7 24 6 25 5 26 31 27 4 28 32 29 2 30 1 31 3 32 11 33
DOCKED: REMARK H PARENT 15 3 11 34
DOCKED: USER                              x       y       z     vdW  Elec       q    Type
DOCKED: USER                           _______ _______ _______ _____ _____    ______ ____
DOCKED: ROOT
DOCKED: ATOM      1  C   UNL     1     141.556  73.319 220.740 -0.19 -0.03    +0.164 C  
DOCKED: ENDROOT
DOCKED: BRANCH   1   2
DOCKED: ATOM      2  O   UNL     1     140.674  72.819 219.777 +0.01 +0.09    -0.496 OA 
DOCKED: ATOM      3  H   UNL     1     139.724  72.540 219.988 +0.05 -0.05    +0.295 HD 
DOCKED: ENDBRANCH   1   2
DOCKED: BRANCH   1   4
DOCKED: ATOM      4  C   UNL     1     141.093  73.716 221.938 -0.03 +0.00    -0.069 C  
DOCKED: BRANCH   4   5
DOCKED: ATOM      5  N   UNL     1     139.802  73.318 222.400 -0.51 +0.08    -0.623 NA 
DOCKED: BRANCH   5   6
DOCKED: ATOM      6  C   UNL     1     139.329  71.967 222.341 -0.23 -0.02    +0.104 C  
DOCKED: ATOM      7  O   UNL     1     138.778  71.533 221.292 -0.05 +0.06    -0.313 OA 
DOCKED: BRANCH   6   8
DOCKED: ATOM      8  C   UNL     1     139.497  71.088 223.513 -0.31 -0.02    +0.089 A  
DOCKED: ATOM      9  N   UNL     1     140.080  71.584 224.639 -0.27 +0.05    -0.246 NA 
DOCKED: ATOM     10  C   UNL     1     139.070  69.750 223.484 -0.25 -0.01    +0.031 A  
DOCKED: ATOM     11  C   UNL     1     140.268  70.823 225.751 -0.51 -0.01    +0.071 A  
DOCKED: ATOM     12  C   UNL     1     139.249  68.944 224.611 -0.36 -0.00    +0.013 A  
DOCKED: ATOM     13  C   UNL     1     140.876  71.372 226.884 -0.69 -0.01    +0.032 A  
DOCKED: ATOM     14  C   UNL     1     139.854  69.473 225.758 -0.47 -0.00    +0.003 A  
DOCKED: ATOM     15  C   UNL     1     141.080  70.583 228.020 -0.61 -0.01    +0.041 A  
DOCKED: ATOM     16  C   UNL     1     140.060  68.687 226.903 -0.57 -0.01    +0.049 A  
DOCKED: ATOM     17  C   UNL     1     140.675  69.244 228.029 -0.52 -0.02    +0.123 A  
DOCKED: ATOM     18  F   UNL     1     140.881  68.482 229.131 -0.14 +0.05    -0.207 F  
DOCKED: ENDBRANCH   6   8
DOCKED: ENDBRANCH   5   6
DOCKED: ENDBRANCH   4   5
DOCKED: ENDBRANCH   1   4
DOCKED: BRANCH   1  19
DOCKED: ATOM     19  N   UNL     1     142.964  73.377 220.417 -0.12 +0.07    -0.339 N  
DOCKED: ATOM     20  C   UNL     1     143.809  72.199 220.525 -0.25 -0.02    +0.151 C  
DOCKED: ATOM     21  C   UNL     1     143.735  74.595 220.172 -0.35 -0.04    +0.093 C  
DOCKED: ATOM     22  C   UNL     1     145.242  72.716 220.636 -0.41 -0.01    +0.136 C  
DOCKED: ATOM     23  C   UNL     1     145.204  74.147 220.100 -0.36 -0.02    +0.059 C  
DOCKED: BRANCH  21  24
DOCKED: ATOM     24  C   UNL     1     143.281  75.292 218.868 -0.26 -0.04    +0.082 C  
DOCKED: BRANCH  24  25
DOCKED: ATOM     25  C   UNL     1     142.706  76.642 219.167 -0.32 -0.03    +0.054 A  
DOCKED: ATOM     26  N   UNL     1     142.220  76.942 220.401 -0.16 +0.16    -0.246 NA 
DOCKED: ATOM     27  C   UNL     1     142.721  77.704 218.262 -0.29 -0.07    +0.090 A  
DOCKED: ATOM     28  C   UNL     1     141.826  78.231 220.490 -0.27 -0.06    +0.095 A  
DOCKED: ATOM     29  S   UNL     1     142.092  79.052 219.046 -0.28 +0.09    -0.127 S  
DOCKED: BRANCH  28  30
DOCKED: ATOM     30  C   UNL     1     141.293  78.852 221.749 -0.38 -0.02    +0.042 C  
DOCKED: ATOM     31  C   UNL     1     140.807  77.769 222.714 -0.44 -0.00    +0.015 C  
DOCKED: ATOM     32  C   UNL     1     142.371  79.722 222.406 -0.55 -0.01    +0.015 C  
DOCKED: ENDBRANCH  28  30
DOCKED: ENDBRANCH  24  25
DOCKED: ENDBRANCH  21  24
DOCKED: BRANCH  22  33
DOCKED: ATOM     33  O   UNL     1     145.652  72.730 221.980 -0.20 +0.14    -0.391 OA 
DOCKED: ATOM     34  H   UNL     1     145.303  71.898 222.389 -0.39 -0.18    +0.211 HD 
DOCKED: ENDBRANCH  22  33
DOCKED: ENDBRANCH   1  19
DOCKED: TORSDOF 10
DOCKED: TER
DOCKED: ENDMDL
________________________________________________________________________________


    FINAL DOCKED STATE:
    ________________________


Run:   3 / 20
Time taken for this run:   0.124s

DOCKED: MODEL        3
DOCKED: USER    Run = 3
DOCKED: USER
DOCKED: USER    Estimated Free Energy of Binding    =  -8.07 kcal/mol  [=(1)+(2)+(3)-(4)]
DOCKED: USER
DOCKED: USER    (1) Final Intermolecular Energy     = -11.05 kcal/mol
DOCKED: USER        vdW + Hbond + desolv Energy     = -11.10 kcal/mol
DOCKED: USER        Electrostatic Energy            =  +0.05 kcal/mol
DOCKED: USER        Moving Ligand-Fixed Receptor    = -11.05 kcal/mol
DOCKED: USER        Moving Ligand-Moving Receptor   =  +0.00 kcal/mol
DOCKED: USER    (2) Final Total Internal Energy     =  -2.48 kcal/mol
DOCKED: USER    (3) Torsional Free Energy           =  +2.98 kcal/mol
DOCKED: USER    (4) Unbound System's Energy         =  -2.48 kcal/mol
DOCKED: USER
DOCKED: USER
DOCKED: REMARK SMILES CC(C)c1nc(C[C@@H]2C[C@@H](O)CN2/C(O)=C/[N-]C(=O)c2ccc3cc(F)ccc3n2)cs1
DOCKED: REMARK SMILES IDX 14 1 15 2 16 4 17 5 18 6 19 7 20 8 30 9 21 10 29 11 22 12
DOCKED: REMARK SMILES IDX 28 13 23 14 27 15 24 16 25 17 26 18 13 19 12 20 8 21 10 22
DOCKED: REMARK SMILES IDX 9 23 7 24 6 25 5 26 31 27 4 28 32 29 2 30 1 31 3 32 11 33
DOCKED: REMARK H PARENT 15 3 11 34
DOCKED: USER                              x       y       z     vdW  Elec       q    Type
DOCKED: USER                           _______ _______ _______ _____ _____    ______ ____
DOCKED: ROOT
DOCKED: ATOM      1  C   UNL     1     140.541  73.607 221.461 -0.23 -0.02    +0.164 C  
DOCKED: ENDROOT
DOCKED: BRANCH   1   2
DOCKED: ATOM      2  O   UNL     1     139.925  73.767 222.707 -0.62 -0.00    -0.496 OA 
DOCKED: ATOM      3  H   UNL     1     139.289  73.085 223.102 -0.37 -0.11    +0.295 HD 
DOCKED: ENDBRANCH   1   2
DOCKED: BRANCH   1   4
DOCKED: ATOM      4  C   UNL     1     140.615  72.391 220.895 -0.18 +0.01    -0.069 C  
DOCKED: BRANCH   4   5
DOCKED: ATOM      5  N   UNL     1     139.577  71.427 221.077 +0.02 +0.11    -0.623 NA 
DOCKED: BRANCH   5   6
DOCKED: ATOM      6  C   UNL     1     138.695  71.425 222.206 -0.16 -0.02    +0.104 C  
DOCKED: ATOM      7  O   UNL     1     137.594  72.040 222.151 -0.08 +0.08    -0.313 OA 
DOCKED: BRANCH   6   8
DOCKED: ATOM      8  C   UNL     1     139.082  70.697 223.427 -0.26 -0.02    +0.089 A  
DOCKED: ATOM      9  N   UNL     1     139.676  71.375 224.448 -0.26 +0.05    -0.246 NA 
DOCKED: ATOM     10  C   UNL     1     138.853  69.316 223.553 -0.26 -0.01    +0.031 A  
DOCKED: ATOM     11  C   UNL     1     140.061  70.759 225.598 -0.47 -0.01    +0.071 A  
DOCKED: ATOM     12  C   UNL     1     139.236  68.656 224.723 -0.38 -0.00    +0.013 A  
DOCKED: ATOM     13  C   UNL     1     140.672  71.494 226.618 -0.66 -0.01    +0.032 A  
DOCKED: ATOM     14  C   UNL     1     139.849  69.372 225.759 -0.47 -0.00    +0.003 A  
DOCKED: ATOM     15  C   UNL     1     141.079  70.855 227.793 -0.65 -0.01    +0.041 A  
DOCKED: ATOM     16  C   UNL     1     140.258  68.737 226.942 -0.58 -0.01    +0.049 A  
DOCKED: ATOM     17  C   UNL     1     140.874  69.480 227.954 -0.51 -0.02    +0.123 A  
DOCKED: ATOM     18  F   UNL     1     141.276  68.865 229.094 -0.12 +0.05    -0.207 F  
DOCKED: ENDBRANCH   6   8
DOCKED: ENDBRANCH   5   6
DOCKED: ENDBRANCH   4   5
DOCKED: ENDBRANCH   1   4
DOCKED: BRANCH   1  19
DOCKED: ATOM     19  N   UNL     1     141.070  74.781 220.802 -0.12 +0.08    -0.339 N  
DOCKED: ATOM     20  C   UNL     1     141.847  74.671 219.580 -0.14 -0.05    +0.151 C  
DOCKED: ATOM     21  C   UNL     1     141.091  76.135 221.355 -0.29 -0.03    +0.093 C  
DOCKED: ATOM     22  C   UNL     1     142.657  75.962 219.476 -0.27 -0.07    +0.136 C  
DOCKED: ATOM     23  C   UNL     1     141.947  76.964 220.386 -0.24 -0.04    +0.059 C  
DOCKED: BRANCH  21  24
DOCKED: ATOM     24  C   UNL     1     139.660  76.705 221.494 -0.25 -0.02    +0.082 C  
DOCKED: BRANCH  24  25
DOCKED: ATOM     25  C   UNL     1     139.663  77.924 222.365 -0.31 -0.01    +0.054 A  
DOCKED: ATOM     26  N   UNL     1     140.761  78.719 222.459 -0.22 +0.08    -0.246 NA 
DOCKED: ATOM     27  C   UNL     1     138.536  78.387 223.044 -0.23 -0.01    +0.090 A  
DOCKED: ATOM     28  C   UNL     1     140.534  79.808 223.225 -0.40 -0.02    +0.095 A  
DOCKED: ATOM     29  S   UNL     1     138.950  79.836 223.791 -0.43 +0.02    -0.127 S  
DOCKED: BRANCH  28  30
DOCKED: ATOM     30  C   UNL     1     141.553  80.884 223.465 -0.56 -0.01    +0.042 C  
DOCKED: ATOM     31  C   UNL     1     142.963  80.288 223.482 -0.65 -0.00    +0.015 C  
DOCKED: ATOM     32  C   UNL     1     141.435  81.973 222.393 -0.40 -0.00    +0.015 C  
DOCKED: ENDBRANCH  28  30
DOCKED: ENDBRANCH  24  25
DOCKED: ENDBRANCH  21  24
DOCKED: BRANCH  22  33
DOCKED: ATOM     33  O   UNL     1     143.967  75.755 219.940 -0.28 +0.26    -0.391 OA 
DOCKED: ATOM     34  H   UNL     1     143.900  75.624 220.921 -0.09 -0.18    +0.211 HD 
DOCKED: ENDBRANCH  22  33
DOCKED: ENDBRANCH   1  19
DOCKED: TORSDOF 10
DOCKED: TER
DOCKED: ENDMDL
________________________________________________________________________________


    FINAL DOCKED STATE:
    ________________________


Run:   4 / 20
Time taken for this run:   0.124s

DOCKED: MODEL        4
DOCKED: USER    Run = 4
DOCKED: USER
DOCKED: USER    Estimated Free Energy of Binding    =  -5.12 kcal/mol  [=(1)+(2)+(3)-(4)]
DOCKED: USER
DOCKED: USER    (1) Final Intermolecular Energy     =  -8.11 kcal/mol
DOCKED: USER        vdW + Hbond + desolv Energy     =  -8.18 kcal/mol
DOCKED: USER        Electrostatic Energy            =  +0.07 kcal/mol
DOCKED: USER        Moving Ligand-Fixed Receptor    =  -8.11 kcal/mol
DOCKED: USER        Moving Ligand-Moving Receptor   =  +0.00 kcal/mol
DOCKED: USER    (2) Final Total Internal Energy     =  -5.34 kcal/mol
DOCKED: USER    (3) Torsional Free Energy           =  +2.98 kcal/mol
DOCKED: USER    (4) Unbound System's Energy         =  -5.34 kcal/mol
DOCKED: USER
DOCKED: USER
DOCKED: REMARK SMILES CC(C)c1nc(C[C@@H]2C[C@@H](O)CN2/C(O)=C/[N-]C(=O)c2ccc3cc(F)ccc3n2)cs1
DOCKED: REMARK SMILES IDX 14 1 15 2 16 4 17 5 18 6 19 7 20 8 30 9 21 10 29 11 22 12
DOCKED: REMARK SMILES IDX 28 13 23 14 27 15 24 16 25 17 26 18 13 19 12 20 8 21 10 22
DOCKED: REMARK SMILES IDX 9 23 7 24 6 25 5 26 31 27 4 28 32 29 2 30 1 31 3 32 11 33
DOCKED: REMARK H PARENT 15 3 11 34
DOCKED: USER                              x       y       z     vdW  Elec       q    Type
DOCKED: USER                           _______ _______ _______ _____ _____    ______ ____
DOCKED: ROOT
DOCKED: ATOM      1  C   UNL     1     139.635  76.596 218.643 -0.02 -0.05    +0.164 C  
DOCKED: ENDROOT
DOCKED: BRANCH   1   2
DOCKED: ATOM      2  O   UNL     1     139.327  77.699 217.840 +0.01 +0.15    -0.496 OA 
DOCKED: ATOM      3  H   UNL     1     139.509  78.655 218.118 +0.03 -0.10    +0.295 HD 
DOCKED: ENDBRANCH   1   2
DOCKED: BRANCH   1   4
DOCKED: ATOM      4  C   UNL     1     138.653  75.826 219.140 -0.03 +0.02    -0.069 C  
DOCKED: BRANCH   4   5
DOCKED: ATOM      5  N   UNL     1     138.412  75.750 220.546 +0.03 +0.14    -0.623 NA 
DOCKED: BRANCH   5   6
DOCKED: ATOM      6  C   UNL     1     139.454  75.820 221.526 -0.25 -0.02    +0.104 C  
DOCKED: ATOM      7  O   UNL     1     140.080  74.777 221.862 -0.65 +0.04    -0.313 OA 
DOCKED: BRANCH   6   8
DOCKED: ATOM      8  C   UNL     1     139.792  77.120 222.132 -0.31 -0.02    +0.089 A  
DOCKED: ATOM      9  N   UNL     1     141.080  77.562 222.087 -0.24 +0.10    -0.246 NA 
DOCKED: ATOM     10  C   UNL     1     138.811  77.907 222.759 -0.28 -0.01    +0.031 A  
DOCKED: ATOM     11  C   UNL     1     141.457  78.749 222.633 -0.46 -0.03    +0.071 A  
DOCKED: ATOM     12  C   UNL     1     139.168  79.132 223.328 -0.36 -0.00    +0.013 A  
DOCKED: ATOM     13  C   UNL     1     142.792  79.160 222.569 -0.33 -0.02    +0.032 A  
DOCKED: ATOM     14  C   UNL     1     140.498  79.566 223.273 -0.47 -0.00    +0.003 A  
DOCKED: ATOM     15  C   UNL     1     143.178  80.375 223.143 -0.61 -0.01    +0.041 A  
DOCKED: ATOM     16  C   UNL     1     140.893  80.785 223.845 -0.41 -0.01    +0.049 A  
DOCKED: ATOM     17  C   UNL     1     142.232  81.184 223.781 -0.54 -0.02    +0.123 A  
DOCKED: ATOM     18  F   UNL     1     142.613  82.359 224.341 -0.08 +0.00    -0.207 F  
DOCKED: ENDBRANCH   6   8
DOCKED: ENDBRANCH   5   6
DOCKED: ENDBRANCH   4   5
DOCKED: ENDBRANCH   1   4
DOCKED: BRANCH   1  19
DOCKED: ATOM     19  N   UNL     1     141.028  76.304 218.902 -0.01 +0.13    -0.339 N  
DOCKED: ATOM     20  C   UNL     1     141.482  74.941 219.122 -0.09 -0.05    +0.151 C  
DOCKED: ATOM     21  C   UNL     1     142.069  77.291 219.185 -0.25 -0.05    +0.093 C  
DOCKED: ATOM     22  C   UNL     1     142.813  75.055 219.864 -0.27 -0.06    +0.136 C  
DOCKED: ATOM     23  C   UNL     1     143.304  76.480 219.608 -0.34 -0.04    +0.059 C  
DOCKED: BRANCH  21  24
DOCKED: ATOM     24  C   UNL     1     142.356  78.173 217.947 -0.26 -0.06    +0.082 C  
DOCKED: BRANCH  24  25
DOCKED: ATOM     25  C   UNL     1     141.998  79.601 218.226 -0.27 -0.04    +0.054 A  
DOCKED: ATOM     26  N   UNL     1     140.935  79.920 219.010 -0.08 +0.11    -0.246 NA 
DOCKED: ATOM     27  C   UNL     1     142.769  80.684 217.803 -0.29 -0.09    +0.090 A  
DOCKED: ATOM     28  C   UNL     1     140.832  81.252 219.207 -0.16 -0.03    +0.095 A  
DOCKED: ATOM     29  S   UNL     1     142.075  82.080 218.434 -0.24 +0.06    -0.127 S  
DOCKED: BRANCH  28  30
DOCKED: ATOM     30  C   UNL     1     139.782  81.887 220.071 -0.14 -0.01    +0.042 C  
DOCKED: ATOM     31  C   UNL     1     138.815  80.825 220.602 -0.10 -0.00    +0.015 C  
DOCKED: ATOM     32  C   UNL     1     140.438  82.651 221.226 -0.29 -0.00    +0.015 C  
DOCKED: ENDBRANCH  28  30
DOCKED: ENDBRANCH  24  25
DOCKED: ENDBRANCH  21  24
DOCKED: BRANCH  22  33
DOCKED: ATOM     33  O   UNL     1     142.621  74.866 221.243 -0.03 +0.16    -0.391 OA 
DOCKED: ATOM     34  H   UNL     1     142.091  75.641 221.561 -0.40 -0.12    +0.211 HD 
DOCKED: ENDBRANCH  22  33
DOCKED: ENDBRANCH   1  19
DOCKED: TORSDOF 10
DOCKED: TER
DOCKED: ENDMDL
________________________________________________________________________________


    FINAL DOCKED STATE:
    ________________________


Run:   5 / 20
Time taken for this run:   0.124s

DOCKED: MODEL        5
DOCKED: USER    Run = 5
DOCKED: USER
DOCKED: USER    Estimated Free Energy of Binding    =  -6.21 kcal/mol  [=(1)+(2)+(3)-(4)]
DOCKED: USER
DOCKED: USER    (1) Final Intermolecular Energy     =  -9.20 kcal/mol
DOCKED: USER        vdW + Hbond + desolv Energy     =  -9.13 kcal/mol
DOCKED: USER        Electrostatic Energy            =  -0.06 kcal/mol
DOCKED: USER        Moving Ligand-Fixed Receptor    =  -9.20 kcal/mol
DOCKED: USER        Moving Ligand-Moving Receptor   =  +0.00 kcal/mol
DOCKED: USER    (2) Final Total Internal Energy     =  -3.40 kcal/mol
DOCKED: USER    (3) Torsional Free Energy           =  +2.98 kcal/mol
DOCKED: USER    (4) Unbound System's Energy         =  -3.40 kcal/mol
DOCKED: USER
DOCKED: USER
DOCKED: REMARK SMILES CC(C)c1nc(C[C@@H]2C[C@@H](O)CN2/C(O)=C/[N-]C(=O)c2ccc3cc(F)ccc3n2)cs1
DOCKED: REMARK SMILES IDX 14 1 15 2 16 4 17 5 18 6 19 7 20 8 30 9 21 10 29 11 22 12
DOCKED: REMARK SMILES IDX 28 13 23 14 27 15 24 16 25 17 26 18 13 19 12 20 8 21 10 22
DOCKED: REMARK SMILES IDX 9 23 7 24 6 25 5 26 31 27 4 28 32 29 2 30 1 31 3 32 11 33
DOCKED: REMARK H PARENT 15 3 11 34
DOCKED: USER                              x       y       z     vdW  Elec       q    Type
DOCKED: USER                           _______ _______ _______ _____ _____    ______ ____
DOCKED: ROOT
DOCKED: ATOM      1  C   UNL     1     138.730  78.017 221.751 -0.16 -0.03    +0.164 C  
DOCKED: ENDROOT
DOCKED: BRANCH   1   2
DOCKED: ATOM      2  O   UNL     1     138.878  79.217 221.048 +0.01 +0.11    -0.496 OA 
DOCKED: ATOM      3  H   UNL     1     139.183  80.079 221.482 +0.10 -0.06    +0.295 HD 
DOCKED: ENDBRANCH   1   2
DOCKED: BRANCH   1   4
DOCKED: ATOM      4  C   UNL     1     137.800  77.910 222.715 -0.22 +0.01    -0.069 C  
DOCKED: BRANCH   4   5
DOCKED: ATOM      5  N   UNL     1     137.221  79.070 223.315 +0.05 +0.08    -0.623 NA 
DOCKED: BRANCH   5   6
DOCKED: ATOM      6  C   UNL     1     137.997  80.146 223.855 -0.30 -0.01    +0.104 C  
DOCKED: ATOM      7  O   UNL     1     139.241  80.196 223.649 -0.25 +0.04    -0.313 OA 
DOCKED: BRANCH   6   8
DOCKED: ATOM      8  C   UNL     1     137.329  81.194 224.647 -0.32 -0.01    +0.089 A  
DOCKED: ATOM      9  N   UNL     1     137.007  80.945 225.947 -0.21 +0.03    -0.246 NA 
DOCKED: ATOM     10  C   UNL     1     137.017  82.443 224.083 -0.19 -0.00    +0.031 A  
DOCKED: ATOM     11  C   UNL     1     136.386  81.868 226.728 -0.43 -0.01    +0.071 A  
DOCKED: ATOM     12  C   UNL     1     136.381  83.412 224.862 -0.20 -0.00    +0.013 A  
DOCKED: ATOM     13  C   UNL     1     136.068  81.566 228.056 -0.44 -0.01    +0.032 A  
DOCKED: ATOM     14  C   UNL     1     136.055  83.133 226.195 -0.30 -0.00    +0.003 A  
DOCKED: ATOM     15  C   UNL     1     135.417  82.514 228.852 -0.37 -0.01    +0.041 A  
DOCKED: ATOM     16  C   UNL     1     135.403  84.080 227.001 -0.23 +0.00    +0.049 A  
DOCKED: ATOM     17  C   UNL     1     135.084  83.766 228.325 -0.25 +0.01    +0.123 A  
DOCKED: ATOM     18  F   UNL     1     134.448  84.679 229.101 -0.04 -0.08    -0.207 F  
DOCKED: ENDBRANCH   6   8
DOCKED: ENDBRANCH   5   6
DOCKED: ENDBRANCH   4   5
DOCKED: ENDBRANCH   1   4
DOCKED: BRANCH   1  19
DOCKED: ATOM     19  N   UNL     1     139.584  76.905 221.399 -0.09 +0.09    -0.339 N  
DOCKED: ATOM     20  C   UNL     1     139.026  75.645 220.936 -0.14 -0.03    +0.151 C  
DOCKED: ATOM     21  C   UNL     1     141.021  76.817 221.655 -0.31 -0.04    +0.093 C  
DOCKED: ATOM     22  C   UNL     1     140.109  74.593 221.171 -0.22 -0.03    +0.136 C  
DOCKED: ATOM     23  C   UNL     1     141.416  75.373 221.307 -0.28 -0.02    +0.059 C  
DOCKED: BRANCH  21  24
DOCKED: ATOM     24  C   UNL     1     141.805  77.848 220.810 -0.27 -0.05    +0.082 C  
DOCKED: BRANCH  24  25
DOCKED: ATOM     25  C   UNL     1     141.862  79.169 221.513 -0.38 -0.03    +0.054 A  
DOCKED: ATOM     26  N   UNL     1     141.294  80.280 220.974 -0.17 +0.09    -0.246 NA 
DOCKED: ATOM     27  C   UNL     1     142.394  79.337 222.792 -0.52 -0.04    +0.090 A  
DOCKED: ATOM     28  C   UNL     1     141.380  81.345 221.799 -0.36 -0.02    +0.095 A  
DOCKED: ATOM     29  S   UNL     1     142.144  80.939 223.242 -0.66 +0.03    -0.127 S  
DOCKED: BRANCH  28  30
DOCKED: ATOM     30  C   UNL     1     140.796  82.691 221.484 -0.30 -0.01    +0.042 C  
DOCKED: ATOM     31  C   UNL     1     141.088  83.072 220.031 -0.20 -0.00    +0.015 C  
DOCKED: ATOM     32  C   UNL     1     139.287  82.689 221.753 -0.17 -0.00    +0.015 C  
DOCKED: ENDBRANCH  28  30
DOCKED: ENDBRANCH  24  25
DOCKED: ENDBRANCH  21  24
DOCKED: BRANCH  22  33
DOCKED: ATOM     33  O   UNL     1     139.856  73.891 222.362 -0.77 +0.03    -0.391 OA 
DOCKED: ATOM     34  H   UNL     1     139.003  74.246 222.721 -0.52 -0.07    +0.211 HD 
DOCKED: ENDBRANCH  22  33
DOCKED: ENDBRANCH   1  19
DOCKED: TORSDOF 10
DOCKED: TER
DOCKED: ENDMDL
________________________________________________________________________________


    FINAL DOCKED STATE:
    ________________________


Run:   6 / 20
Time taken for this run:   0.124s

DOCKED: MODEL        6
DOCKED: USER    Run = 6
DOCKED: USER
DOCKED: USER    Estimated Free Energy of Binding    =  -5.55 kcal/mol  [=(1)+(2)+(3)-(4)]
DOCKED: USER
DOCKED: USER    (1) Final Intermolecular Energy     =  -8.54 kcal/mol
DOCKED: USER        vdW + Hbond + desolv Energy     =  -8.61 kcal/mol
DOCKED: USER        Electrostatic Energy            =  +0.08 kcal/mol
DOCKED: USER        Moving Ligand-Fixed Receptor    =  -8.54 kcal/mol
DOCKED: USER        Moving Ligand-Moving Receptor   =  +0.00 kcal/mol
DOCKED: USER    (2) Final Total Internal Energy     =  -5.32 kcal/mol
DOCKED: USER    (3) Torsional Free Energy           =  +2.98 kcal/mol
DOCKED: USER    (4) Unbound System's Energy         =  -5.32 kcal/mol
DOCKED: USER
DOCKED: USER
DOCKED: REMARK SMILES CC(C)c1nc(C[C@@H]2C[C@@H](O)CN2/C(O)=C/[N-]C(=O)c2ccc3cc(F)ccc3n2)cs1
DOCKED: REMARK SMILES IDX 14 1 15 2 16 4 17 5 18 6 19 7 20 8 30 9 21 10 29 11 22 12
DOCKED: REMARK SMILES IDX 28 13 23 14 27 15 24 16 25 17 26 18 13 19 12 20 8 21 10 22
DOCKED: REMARK SMILES IDX 9 23 7 24 6 25 5 26 31 27 4 28 32 29 2 30 1 31 3 32 11 33
DOCKED: REMARK H PARENT 15 3 11 34
DOCKED: USER                              x       y       z     vdW  Elec       q    Type
DOCKED: USER                           _______ _______ _______ _____ _____    ______ ____
DOCKED: ROOT
DOCKED: ATOM      1  C   UNL     1     139.647  76.996 219.063 -0.03 -0.05    +0.164 C  
DOCKED: ENDROOT
DOCKED: BRANCH   1   2
DOCKED: ATOM      2  O   UNL     1     139.368  78.300 218.639 +0.02 +0.15    -0.496 OA 
DOCKED: ATOM      3  H   UNL     1     139.759  79.122 219.083 +0.06 -0.10    +0.295 HD 
DOCKED: ENDBRANCH   1   2
DOCKED: BRANCH   1   4
DOCKED: ATOM      4  C   UNL     1     138.643  76.163 219.385 -0.03 +0.02    -0.069 C  
DOCKED: BRANCH   4   5
DOCKED: ATOM      5  N   UNL     1     138.583  75.541 220.670 +0.03 +0.14    -0.623 NA 
DOCKED: BRANCH   5   6
DOCKED: ATOM      6  C   UNL     1     139.615  75.671 221.655 -0.27 -0.02    +0.104 C  
DOCKED: ATOM      7  O   UNL     1     140.266  74.656 222.029 -0.75 +0.02    -0.313 OA 
DOCKED: BRANCH   6   8
DOCKED: ATOM      8  C   UNL     1     139.912  76.998 222.222 -0.33 -0.02    +0.089 A  
DOCKED: ATOM      9  N   UNL     1     141.195  77.455 222.209 -0.22 +0.11    -0.246 NA 
DOCKED: ATOM     10  C   UNL     1     138.898  77.796 222.777 -0.27 -0.01    +0.031 A  
DOCKED: ATOM     11  C   UNL     1     141.536  78.669 222.721 -0.47 -0.03    +0.071 A  
DOCKED: ATOM     12  C   UNL     1     139.216  79.047 223.309 -0.36 -0.00    +0.013 A  
DOCKED: ATOM     13  C   UNL     1     142.867  79.095 222.693 -0.29 -0.02    +0.032 A  
DOCKED: ATOM     14  C   UNL     1     140.543  79.497 223.290 -0.47 -0.00    +0.003 A  
DOCKED: ATOM     15  C   UNL     1     143.215  80.337 223.232 -0.60 -0.01    +0.041 A  
DOCKED: ATOM     16  C   UNL     1     140.899  80.743 223.828 -0.42 -0.01    +0.049 A  
DOCKED: ATOM     17  C   UNL     1     142.234  81.158 223.800 -0.54 -0.02    +0.123 A  
DOCKED: ATOM     18  F   UNL     1     142.579  82.359 224.326 -0.09 +0.00    -0.207 F  
DOCKED: ENDBRANCH   6   8
DOCKED: ENDBRANCH   5   6
DOCKED: ENDBRANCH   4   5
DOCKED: ENDBRANCH   1   4
DOCKED: BRANCH   1  19
DOCKED: ATOM     19  N   UNL     1     141.028  76.574 219.124 -0.02 +0.13    -0.339 N  
DOCKED: ATOM     20  C   UNL     1     141.382  75.168 219.220 -0.10 -0.05    +0.151 C  
DOCKED: ATOM     21  C   UNL     1     142.182  77.453 219.313 -0.27 -0.06    +0.093 C  
DOCKED: ATOM     22  C   UNL     1     142.801  75.128 219.785 -0.27 -0.06    +0.136 C  
DOCKED: ATOM     23  C   UNL     1     143.382  76.518 219.533 -0.32 -0.04    +0.059 C  
DOCKED: BRANCH  21  24
DOCKED: ATOM     24  C   UNL     1     142.389  78.378 218.090 -0.27 -0.06    +0.082 C  
DOCKED: BRANCH  24  25
DOCKED: ATOM     25  C   UNL     1     142.060  79.796 218.443 -0.29 -0.04    +0.054 A  
DOCKED: ATOM     26  N   UNL     1     141.346  80.096 219.561 -0.14 +0.11    -0.246 NA 
DOCKED: ATOM     27  C   UNL     1     142.538  80.897 217.732 -0.30 -0.08    +0.090 A  
DOCKED: ATOM     28  C   UNL     1     141.230  81.429 219.744 -0.23 -0.03    +0.095 A  
DOCKED: ATOM     29  S   UNL     1     142.032  82.283 218.538 -0.21 +0.06    -0.127 S  
DOCKED: BRANCH  28  30
DOCKED: ATOM     30  C   UNL     1     140.535  82.049 220.922 -0.27 -0.01    +0.042 C  
DOCKED: ATOM     31  C   UNL     1     140.679  83.572 220.884 -0.27 -0.00    +0.015 C  
DOCKED: ATOM     32  C   UNL     1     139.058  81.642 220.939 -0.14 -0.00    +0.015 C  
DOCKED: ENDBRANCH  28  30
DOCKED: ENDBRANCH  24  25
DOCKED: ENDBRANCH  21  24
DOCKED: BRANCH  22  33
DOCKED: ATOM     33  O   UNL     1     142.768  74.876 221.167 -0.02 +0.17    -0.391 OA 
DOCKED: ATOM     34  H   UNL     1     142.210  75.591 221.569 -0.45 -0.12    +0.211 HD 
DOCKED: ENDBRANCH  22  33
DOCKED: ENDBRANCH   1  19
DOCKED: TORSDOF 10
DOCKED: TER
DOCKED: ENDMDL
________________________________________________________________________________


    FINAL DOCKED STATE:
    ________________________


Run:   7 / 20
Time taken for this run:   0.124s

DOCKED: MODEL        7
DOCKED: USER    Run = 7
DOCKED: USER
DOCKED: USER    Estimated Free Energy of Binding    =  -7.37 kcal/mol  [=(1)+(2)+(3)-(4)]
DOCKED: USER
DOCKED: USER    (1) Final Intermolecular Energy     = -10.36 kcal/mol
DOCKED: USER        vdW + Hbond + desolv Energy     = -10.47 kcal/mol
DOCKED: USER        Electrostatic Energy            =  +0.11 kcal/mol
DOCKED: USER        Moving Ligand-Fixed Receptor    = -10.36 kcal/mol
DOCKED: USER        Moving Ligand-Moving Receptor   =  +0.00 kcal/mol
DOCKED: USER    (2) Final Total Internal Energy     =  -2.42 kcal/mol
DOCKED: USER    (3) Torsional Free Energy           =  +2.98 kcal/mol
DOCKED: USER    (4) Unbound System's Energy         =  -2.42 kcal/mol
DOCKED: USER
DOCKED: USER
DOCKED: REMARK SMILES CC(C)c1nc(C[C@@H]2C[C@@H](O)CN2/C(O)=C/[N-]C(=O)c2ccc3cc(F)ccc3n2)cs1
DOCKED: REMARK SMILES IDX 14 1 15 2 16 4 17 5 18 6 19 7 20 8 30 9 21 10 29 11 22 12
DOCKED: REMARK SMILES IDX 28 13 23 14 27 15 24 16 25 17 26 18 13 19 12 20 8 21 10 22
DOCKED: REMARK SMILES IDX 9 23 7 24 6 25 5 26 31 27 4 28 32 29 2 30 1 31 3 32 11 33
DOCKED: REMARK H PARENT 15 3 11 34
DOCKED: USER                              x       y       z     vdW  Elec       q    Type
DOCKED: USER                           _______ _______ _______ _____ _____    ______ ____
DOCKED: ROOT
DOCKED: ATOM      1  C   UNL     1     141.643  72.876 220.856 -0.19 -0.02    +0.164 C  
DOCKED: ENDROOT
DOCKED: BRANCH   1   2
DOCKED: ATOM      2  O   UNL     1     140.935  71.977 220.051 -0.01 +0.08    -0.496 OA 
DOCKED: ATOM      3  H   UNL     1     140.008  71.640 220.280 +0.06 -0.05    +0.295 HD 
DOCKED: ENDBRANCH   1   2
DOCKED: BRANCH   1   4
DOCKED: ATOM      4  C   UNL     1     141.051  73.437 221.923 -0.15 +0.00    -0.069 C  
DOCKED: BRANCH   4   5
DOCKED: ATOM      5  N   UNL     1     139.754  73.019 222.353 -0.37 +0.10    -0.623 NA 
DOCKED: BRANCH   5   6
DOCKED: ATOM      6  C   UNL     1     139.442  71.669 222.713 -0.26 -0.02    +0.104 C  
DOCKED: ATOM      7  O   UNL     1     138.806  70.929 221.911 -0.07 +0.06    -0.313 OA 
DOCKED: BRANCH   6   8
DOCKED: ATOM      8  C   UNL     1     139.875  71.149 224.022 -0.37 -0.02    +0.089 A  
DOCKED: ATOM      9  N   UNL     1     139.469  69.909 224.414 -0.18 +0.04    -0.246 NA 
DOCKED: ATOM     10  C   UNL     1     140.695  71.911 224.872 -0.32 -0.00    +0.031 A  
DOCKED: ATOM     11  C   UNL     1     139.830  69.375 225.612 -0.41 -0.01    +0.071 A  
DOCKED: ATOM     12  C   UNL     1     141.083  71.389 226.108 -0.66 -0.00    +0.013 A  
DOCKED: ATOM     13  C   UNL     1     139.385  68.101 225.976 -0.54 -0.00    +0.032 A  
DOCKED: ATOM     14  C   UNL     1     140.651  70.113 226.493 -0.56 -0.00    +0.003 A  
DOCKED: ATOM     15  C   UNL     1     139.747  67.561 227.214 -0.41 -0.01    +0.041 A  
DOCKED: ATOM     16  C   UNL     1     141.012  69.564 227.733 -0.55 -0.01    +0.049 A  
DOCKED: ATOM     17  C   UNL     1     140.556  68.291 228.091 -0.54 -0.03    +0.123 A  
DOCKED: ATOM     18  F   UNL     1     140.900  67.765 229.292 -0.16 +0.06    -0.207 F  
DOCKED: ENDBRANCH   6   8
DOCKED: ENDBRANCH   5   6
DOCKED: ENDBRANCH   4   5
DOCKED: ENDBRANCH   1   4
DOCKED: BRANCH   1  19
DOCKED: ATOM     19  N   UNL     1     143.019  73.163 220.517 -0.12 +0.06    -0.339 N  
DOCKED: ATOM     20  C   UNL     1     144.044  72.136 220.598 -0.25 -0.02    +0.151 C  
DOCKED: ATOM     21  C   UNL     1     143.580  74.492 220.279 -0.34 -0.04    +0.093 C  
DOCKED: ATOM     22  C   UNL     1     145.376  72.877 220.700 -0.45 -0.01    +0.136 C  
DOCKED: ATOM     23  C   UNL     1     145.101  74.289 220.184 -0.30 -0.02    +0.059 C  
DOCKED: BRANCH  21  24
DOCKED: ATOM     24  C   UNL     1     143.002  75.123 218.990 -0.24 -0.03    +0.082 C  
DOCKED: BRANCH  24  25
DOCKED: ATOM     25  C   UNL     1     142.547  76.526 219.251 -0.30 -0.03    +0.054 A  
DOCKED: ATOM     26  N   UNL     1     142.209  76.936 220.502 -0.13 +0.17    -0.246 NA 
DOCKED: ATOM     27  C   UNL     1     142.537  77.525 218.277 -0.28 -0.06    +0.090 A  
DOCKED: ATOM     28  C   UNL     1     141.909  78.252 220.540 -0.24 -0.06    +0.095 A  
DOCKED: ATOM     29  S   UNL     1     142.078  78.960 219.024 -0.29 +0.09    -0.127 S  
DOCKED: BRANCH  28  30
DOCKED: ATOM     30  C   UNL     1     141.547  78.987 221.798 -0.41 -0.02    +0.042 C  
DOCKED: ATOM     31  C   UNL     1     140.765  80.259 221.466 -0.31 -0.00    +0.015 C  
DOCKED: ATOM     32  C   UNL     1     140.736  78.077 222.727 -0.45 -0.00    +0.015 C  
DOCKED: ENDBRANCH  28  30
DOCKED: ENDBRANCH  24  25
DOCKED: ENDBRANCH  21  24
DOCKED: BRANCH  22  33
DOCKED: ATOM     33  O   UNL     1     145.797  72.941 222.039 -0.30 +0.12    -0.391 OA 
DOCKED: ATOM     34  H   UNL     1     145.722  72.021 222.401 -0.38 -0.18    +0.211 HD 
DOCKED: ENDBRANCH  22  33
DOCKED: ENDBRANCH   1  19
DOCKED: TORSDOF 10
DOCKED: TER
DOCKED: ENDMDL
________________________________________________________________________________


    FINAL DOCKED STATE:
    ________________________


Run:   8 / 20
Time taken for this run:   0.124s

DOCKED: MODEL        8
DOCKED: USER    Run = 8
DOCKED: USER
DOCKED: USER    Estimated Free Energy of Binding    =  -6.42 kcal/mol  [=(1)+(2)+(3)-(4)]
DOCKED: USER
DOCKED: USER    (1) Final Intermolecular Energy     =  -9.40 kcal/mol
DOCKED: USER        vdW + Hbond + desolv Energy     =  -9.57 kcal/mol
DOCKED: USER        Electrostatic Energy            =  +0.17 kcal/mol
DOCKED: USER        Moving Ligand-Fixed Receptor    =  -9.40 kcal/mol
DOCKED: USER        Moving Ligand-Moving Receptor   =  +0.00 kcal/mol
DOCKED: USER    (2) Final Total Internal Energy     =  -3.25 kcal/mol
DOCKED: USER    (3) Torsional Free Energy           =  +2.98 kcal/mol
DOCKED: USER    (4) Unbound System's Energy         =  -3.25 kcal/mol
DOCKED: USER
DOCKED: USER
DOCKED: REMARK SMILES CC(C)c1nc(C[C@@H]2C[C@@H](O)CN2/C(O)=C/[N-]C(=O)c2ccc3cc(F)ccc3n2)cs1
DOCKED: REMARK SMILES IDX 14 1 15 2 16 4 17 5 18 6 19 7 20 8 30 9 21 10 29 11 22 12
DOCKED: REMARK SMILES IDX 28 13 23 14 27 15 24 16 25 17 26 18 13 19 12 20 8 21 10 22
DOCKED: REMARK SMILES IDX 9 23 7 24 6 25 5 26 31 27 4 28 32 29 2 30 1 31 3 32 11 33
DOCKED: REMARK H PARENT 15 3 11 34
DOCKED: USER                              x       y       z     vdW  Elec       q    Type
DOCKED: USER                           _______ _______ _______ _____ _____    ______ ____
DOCKED: ROOT
DOCKED: ATOM      1  C   UNL     1     136.097  72.407 222.670 -0.11 -0.04    +0.164 C  
DOCKED: ENDROOT
DOCKED: BRANCH   1   2
DOCKED: ATOM      2  O   UNL     1     134.768  72.053 222.414 +0.01 +0.08    -0.496 OA 
DOCKED: ATOM      3  H   UNL     1     134.056  72.016 223.133 +0.05 -0.04    +0.295 HD 
DOCKED: ENDBRANCH   1   2
DOCKED: BRANCH   1   4
DOCKED: ATOM      4  C   UNL     1     136.998  71.462 222.986 -0.16 +0.02    -0.069 C  
DOCKED: BRANCH   4   5
DOCKED: ATOM      5  N   UNL     1     138.265  71.400 222.329 +0.02 +0.14    -0.623 NA 
DOCKED: BRANCH   5   6
DOCKED: ATOM      6  C   UNL     1     139.486  71.843 222.932 -0.27 -0.02    +0.104 C  
DOCKED: ATOM      7  O   UNL     1     140.177  72.743 222.379 -0.49 +0.03    -0.313 OA 
DOCKED: BRANCH   6   8
DOCKED: ATOM      8  C   UNL     1     139.924  71.244 224.205 -0.39 -0.02    +0.089 A  
DOCKED: ATOM      9  N   UNL     1     139.488  69.997 224.541 -0.19 +0.04    -0.246 NA 
DOCKED: ATOM     10  C   UNL     1     140.779  71.937 225.079 -0.23 -0.00    +0.031 A  
DOCKED: ATOM     11  C   UNL     1     139.852  69.392 225.703 -0.41 -0.01    +0.071 A  
DOCKED: ATOM     12  C   UNL     1     141.171  71.341 226.280 -0.66 -0.00    +0.013 A  
DOCKED: ATOM     13  C   UNL     1     139.376  68.114 226.009 -0.54 -0.00    +0.032 A  
DOCKED: ATOM     14  C   UNL     1     140.708  70.060 226.606 -0.57 -0.00    +0.003 A  
DOCKED: ATOM     15  C   UNL     1     139.741  67.500 227.211 -0.37 -0.01    +0.041 A  
DOCKED: ATOM     16  C   UNL     1     141.072  69.437 227.810 -0.56 -0.01    +0.049 A  
DOCKED: ATOM     17  C   UNL     1     140.585  68.161 228.110 -0.54 -0.03    +0.123 A  
DOCKED: ATOM     18  F   UNL     1     140.931  67.563 229.276 -0.04 +0.07    -0.207 F  
DOCKED: ENDBRANCH   6   8
DOCKED: ENDBRANCH   5   6
DOCKED: ENDBRANCH   4   5
DOCKED: ENDBRANCH   1   4
DOCKED: BRANCH   1  19
DOCKED: ATOM     19  N   UNL     1     136.468  73.800 222.566 -0.07 +0.10    -0.339 N  
DOCKED: ATOM     20  C   UNL     1     137.403  74.256 221.551 -0.12 -0.04    +0.151 C  
DOCKED: ATOM     21  C   UNL     1     136.153  74.843 223.542 -0.08 -0.03    +0.093 C  
DOCKED: ATOM     22  C   UNL     1     137.952  75.591 222.052 -0.20 -0.03    +0.136 C  
DOCKED: ATOM     23  C   UNL     1     136.949  76.080 223.097 -0.24 -0.01    +0.059 C  
DOCKED: BRANCH  21  24
DOCKED: ATOM     24  C   UNL     1     134.633  75.124 223.592 -0.17 -0.01    +0.082 C  
DOCKED: BRANCH  24  25
DOCKED: ATOM     25  C   UNL     1     133.998  74.376 224.724 -0.21 -0.00    +0.054 A  
DOCKED: ATOM     26  N   UNL     1     134.218  73.045 224.900 -0.13 +0.02    -0.246 NA 
DOCKED: ATOM     27  C   UNL     1     133.240  74.988 225.723 -0.24 -0.00    +0.090 A  
DOCKED: ATOM     28  C   UNL     1     133.627  72.578 226.021 -0.28 -0.00    +0.095 A  
DOCKED: ATOM     29  S   UNL     1     132.831  73.808 226.849 -0.41 +0.00    -0.127 S  
DOCKED: BRANCH  28  30
DOCKED: ATOM     30  C   UNL     1     133.741  71.157 226.491 -0.37 -0.00    +0.042 C  
DOCKED: ATOM     31  C   UNL     1     134.633  70.352 225.544 -0.26 -0.00    +0.015 C  
DOCKED: ATOM     32  C   UNL     1     134.290  71.116 227.922 -0.41 -0.00    +0.015 C  
DOCKED: ENDBRANCH  28  30
DOCKED: ENDBRANCH  24  25
DOCKED: ENDBRANCH  21  24
DOCKED: BRANCH  22  33
DOCKED: ATOM     33  O   UNL     1     139.206  75.406 222.657 -0.42 +0.08    -0.391 OA 
DOCKED: ATOM     34  H   UNL     1     139.180  74.515 223.092 -0.53 -0.07    +0.211 HD 
DOCKED: ENDBRANCH  22  33
DOCKED: ENDBRANCH   1  19
DOCKED: TORSDOF 10
DOCKED: TER
DOCKED: ENDMDL
________________________________________________________________________________


    FINAL DOCKED STATE:
    ________________________


Run:   9 / 20
Time taken for this run:   0.124s

DOCKED: MODEL        9
DOCKED: USER    Run = 9
DOCKED: USER
DOCKED: USER    Estimated Free Energy of Binding    =  -7.90 kcal/mol  [=(1)+(2)+(3)-(4)]
DOCKED: USER
DOCKED: USER    (1) Final Intermolecular Energy     = -10.89 kcal/mol
DOCKED: USER        vdW + Hbond + desolv Energy     = -11.00 kcal/mol
DOCKED: USER        Electrostatic Energy            =  +0.11 kcal/mol
DOCKED: USER        Moving Ligand-Fixed Receptor    = -10.89 kcal/mol
DOCKED: USER        Moving Ligand-Moving Receptor   =  +0.00 kcal/mol
DOCKED: USER    (2) Final Total Internal Energy     =  -2.29 kcal/mol
DOCKED: USER    (3) Torsional Free Energy           =  +2.98 kcal/mol
DOCKED: USER    (4) Unbound System's Energy         =  -2.29 kcal/mol
DOCKED: USER
DOCKED: USER
DOCKED: REMARK SMILES CC(C)c1nc(C[C@@H]2C[C@@H](O)CN2/C(O)=C/[N-]C(=O)c2ccc3cc(F)ccc3n2)cs1
DOCKED: REMARK SMILES IDX 14 1 15 2 16 4 17 5 18 6 19 7 20 8 30 9 21 10 29 11 22 12
DOCKED: REMARK SMILES IDX 28 13 23 14 27 15 24 16 25 17 26 18 13 19 12 20 8 21 10 22
DOCKED: REMARK SMILES IDX 9 23 7 24 6 25 5 26 31 27 4 28 32 29 2 30 1 31 3 32 11 33
DOCKED: REMARK H PARENT 15 3 11 34
DOCKED: USER                              x       y       z     vdW  Elec       q    Type
DOCKED: USER                           _______ _______ _______ _____ _____    ______ ____
DOCKED: ROOT
DOCKED: ATOM      1  C   UNL     1     142.066  72.924 220.358 -0.16 -0.03    +0.164 C  
DOCKED: ENDROOT
DOCKED: BRANCH   1   2
DOCKED: ATOM      2  O   UNL     1     141.123  73.944 220.189 -0.02 +0.11    -0.496 OA 
DOCKED: ATOM      3  H   UNL     1     140.242  73.971 220.686 +0.08 -0.06    +0.295 HD 
DOCKED: ENDBRANCH   1   2
DOCKED: BRANCH   1   4
DOCKED: ATOM      4  C   UNL     1     141.663  71.655 220.539 -0.16 +0.01    -0.069 C  
DOCKED: BRANCH   4   5
DOCKED: ATOM      5  N   UNL     1     140.461  71.356 221.250 +0.01 +0.09    -0.623 NA 
DOCKED: BRANCH   5   6
DOCKED: ATOM      6  C   UNL     1     140.154  71.900 222.539 -0.28 -0.01    +0.104 C  
DOCKED: ATOM      7  O   UNL     1     139.979  73.142 222.678 -0.69 +0.03    -0.313 OA 
DOCKED: BRANCH   6   8
DOCKED: ATOM      8  C   UNL     1     140.040  70.996 223.698 -0.33 -0.01    +0.089 A  
DOCKED: ATOM      9  N   UNL     1     140.576  71.373 224.892 -0.32 +0.04    -0.246 NA 
DOCKED: ATOM     10  C   UNL     1     139.393  69.754 223.590 -0.25 -0.01    +0.031 A  
DOCKED: ATOM     11  C   UNL     1     140.508  70.583 225.997 -0.52 -0.01    +0.071 A  
DOCKED: ATOM     12  C   UNL     1     139.306  68.921 224.708 -0.37 -0.00    +0.013 A  
DOCKED: ATOM     13  C   UNL     1     141.078  71.008 227.201 -0.66 -0.01    +0.032 A  
DOCKED: ATOM     14  C   UNL     1     139.867  69.327 225.925 -0.48 -0.00    +0.003 A  
DOCKED: ATOM     15  C   UNL     1     141.019  70.187 228.331 -0.53 -0.01    +0.041 A  
DOCKED: ATOM     16  C   UNL     1     139.810  68.508 227.064 -0.58 -0.01    +0.049 A  
DOCKED: ATOM     17  C   UNL     1     140.388  68.940 228.262 -0.54 -0.02    +0.123 A  
DOCKED: ATOM     18  F   UNL     1     140.338  68.146 229.360 -0.12 +0.05    -0.207 F  
DOCKED: ENDBRANCH   6   8
DOCKED: ENDBRANCH   5   6
DOCKED: ENDBRANCH   4   5
DOCKED: ENDBRANCH   1   4
DOCKED: BRANCH   1  19
DOCKED: ATOM     19  N   UNL     1     143.469  73.273 220.313 -0.13 +0.07    -0.339 N  
DOCKED: ATOM     20  C   UNL     1     144.500  72.269 220.516 -0.29 -0.02    +0.151 C  
DOCKED: ATOM     21  C   UNL     1     144.011  74.630 220.285 -0.35 -0.04    +0.093 C  
DOCKED: ATOM     22  C   UNL     1     145.758  73.033 220.927 -0.53 -0.01    +0.136 C  
DOCKED: ATOM     23  C   UNL     1     145.529  74.474 220.471 -0.25 -0.02    +0.059 C  
DOCKED: BRANCH  21  24
DOCKED: ATOM     24  C   UNL     1     143.664  75.345 218.958 -0.25 -0.04    +0.082 C  
DOCKED: BRANCH  24  25
DOCKED: ATOM     25  C   UNL     1     142.922  76.618 219.226 -0.34 -0.03    +0.054 A  
DOCKED: ATOM     26  N   UNL     1     142.315  76.841 220.422 -0.12 +0.17    -0.246 NA 
DOCKED: ATOM     27  C   UNL     1     142.888  77.692 218.335 -0.28 -0.07    +0.090 A  
DOCKED: ATOM     28  C   UNL     1     141.775  78.077 220.493 -0.27 -0.06    +0.095 A  
DOCKED: ATOM     29  S   UNL     1     142.057  78.948 219.082 -0.28 +0.09    -0.127 S  
DOCKED: BRANCH  28  30
DOCKED: ATOM     30  C   UNL     1     141.085  78.614 221.713 -0.36 -0.02    +0.042 C  
DOCKED: ATOM     31  C   UNL     1     140.577  77.465 222.587 -0.40 -0.00    +0.015 C  
DOCKED: ATOM     32  C   UNL     1     142.035  79.520 222.503 -0.56 -0.01    +0.015 C  
DOCKED: ENDBRANCH  28  30
DOCKED: ENDBRANCH  24  25
DOCKED: ENDBRANCH  21  24
DOCKED: BRANCH  22  33
DOCKED: ATOM     33  O   UNL     1     145.913  73.002 222.323 -0.32 +0.13    -0.391 OA 
DOCKED: ATOM     34  H   UNL     1     145.603  72.109 222.620 -0.36 -0.15    +0.211 HD 
DOCKED: ENDBRANCH  22  33
DOCKED: ENDBRANCH   1  19
DOCKED: TORSDOF 10
DOCKED: TER
DOCKED: ENDMDL
________________________________________________________________________________


    FINAL DOCKED STATE:
    ________________________


Run:   10 / 20
Time taken for this run:   0.124s

DOCKED: MODEL        10
DOCKED: USER    Run = 10
DOCKED: USER
DOCKED: USER    Estimated Free Energy of Binding    =  -8.25 kcal/mol  [=(1)+(2)+(3)-(4)]
DOCKED: USER
DOCKED: USER    (1) Final Intermolecular Energy     = -11.24 kcal/mol
DOCKED: USER        vdW + Hbond + desolv Energy     = -11.34 kcal/mol
DOCKED: USER        Electrostatic Energy            =  +0.11 kcal/mol
DOCKED: USER        Moving Ligand-Fixed Receptor    = -11.24 kcal/mol
DOCKED: USER        Moving Ligand-Moving Receptor   =  +0.00 kcal/mol
DOCKED: USER    (2) Final Total Internal Energy     =  -2.33 kcal/mol
DOCKED: USER    (3) Torsional Free Energy           =  +2.98 kcal/mol
DOCKED: USER    (4) Unbound System's Energy         =  -2.33 kcal/mol
DOCKED: USER
DOCKED: USER
DOCKED: REMARK SMILES CC(C)c1nc(C[C@@H]2C[C@@H](O)CN2/C(O)=C/[N-]C(=O)c2ccc3cc(F)ccc3n2)cs1
DOCKED: REMARK SMILES IDX 14 1 15 2 16 4 17 5 18 6 19 7 20 8 30 9 21 10 29 11 22 12
DOCKED: REMARK SMILES IDX 28 13 23 14 27 15 24 16 25 17 26 18 13 19 12 20 8 21 10 22
DOCKED: REMARK SMILES IDX 9 23 7 24 6 25 5 26 31 27 4 28 32 29 2 30 1 31 3 32 11 33
DOCKED: REMARK H PARENT 15 3 11 34
DOCKED: USER                              x       y       z     vdW  Elec       q    Type
DOCKED: USER                           _______ _______ _______ _____ _____    ______ ____
DOCKED: ROOT
DOCKED: ATOM      1  C   UNL     1     140.800  72.694 221.457 -0.21 -0.02    +0.164 C  
DOCKED: ENDROOT
DOCKED: BRANCH   1   2
DOCKED: ATOM      2  O   UNL     1     140.156  73.492 222.408 -0.68 +0.02    -0.496 OA 
DOCKED: ATOM      3  H   UNL     1     139.214  73.314 222.733 -0.32 -0.09    +0.295 HD 
DOCKED: ENDBRANCH   1   2
DOCKED: BRANCH   1   4
DOCKED: ATOM      4  C   UNL     1     140.307  71.484 221.145 -0.16 +0.01    -0.069 C  
DOCKED: BRANCH   4   5
DOCKED: ATOM      5  N   UNL     1     138.996  71.092 221.555 +0.03 +0.11    -0.623 NA 
DOCKED: BRANCH   5   6
DOCKED: ATOM      6  C   UNL     1     138.489  71.309 222.877 -0.20 -0.02    +0.104 C  
DOCKED: ATOM      7  O   UNL     1     137.652  72.229 223.092 -0.09 +0.12    -0.313 OA 
DOCKED: BRANCH   6   8
DOCKED: ATOM      8  C   UNL     1     138.948  70.446 223.980 -0.28 -0.02    +0.089 A  
DOCKED: ATOM      9  N   UNL     1     139.542  71.013 225.067 -0.26 +0.05    -0.246 NA 
DOCKED: ATOM     10  C   UNL     1     138.788  69.051 223.927 -0.29 -0.00    +0.031 A  
DOCKED: ATOM     11  C   UNL     1     139.992  70.272 226.115 -0.47 -0.01    +0.071 A  
DOCKED: ATOM     12  C   UNL     1     139.239  68.264 224.988 -0.42 -0.00    +0.013 A  
DOCKED: ATOM     13  C   UNL     1     140.601  70.896 227.207 -0.65 -0.01    +0.032 A  
DOCKED: ATOM     14  C   UNL     1     139.850  68.867 226.095 -0.52 -0.00    +0.003 A  
DOCKED: ATOM     15  C   UNL     1     141.075  70.129 228.276 -0.53 -0.01    +0.041 A  
DOCKED: ATOM     16  C   UNL     1     140.326  68.104 227.172 -0.63 -0.01    +0.049 A  
DOCKED: ATOM     17  C   UNL     1     140.940  68.737 228.258 -0.54 -0.03    +0.123 A  
DOCKED: ATOM     18  F   UNL     1     141.406  67.998 229.295 -0.16 +0.05    -0.207 F  
DOCKED: ENDBRANCH   6   8
DOCKED: ENDBRANCH   5   6
DOCKED: ENDBRANCH   4   5
DOCKED: ENDBRANCH   1   4
DOCKED: BRANCH   1  19
DOCKED: ATOM     19  N   UNL     1     141.987  73.215 220.815 -0.11 +0.05    -0.339 N  
DOCKED: ATOM     20  C   UNL     1     142.974  72.327 220.225 -0.19 -0.02    +0.151 C  
DOCKED: ATOM     21  C   UNL     1     142.444  74.604 220.862 -0.19 -0.03    +0.093 C  
DOCKED: ATOM     22  C   UNL     1     144.269  73.134 220.138 -0.32 -0.02    +0.136 C  
DOCKED: ATOM     23  C   UNL     1     143.844  74.600 220.230 -0.37 -0.02    +0.059 C  
DOCKED: BRANCH  21  24
DOCKED: ATOM     24  C   UNL     1     141.472  75.540 220.105 -0.21 -0.03    +0.082 C  
DOCKED: BRANCH  24  25
DOCKED: ATOM     25  C   UNL     1     140.911  76.574 221.032 -0.28 -0.02    +0.054 A  
DOCKED: ATOM     26  N   UNL     1     141.550  77.756 221.238 -0.18 +0.14    -0.246 NA 
DOCKED: ATOM     27  C   UNL     1     139.668  76.455 221.656 -0.26 -0.02    +0.090 A  
DOCKED: ATOM     28  C   UNL     1     140.842  78.581 222.038 -0.32 -0.03    +0.095 A  
DOCKED: ATOM     29  S   UNL     1     139.382  77.882 222.497 -0.34 +0.03    -0.127 S  
DOCKED: BRANCH  28  30
DOCKED: ATOM     30  C   UNL     1     141.281  79.971 222.397 -0.45 -0.01    +0.042 C  
DOCKED: ATOM     31  C   UNL     1     140.209  80.669 223.237 -0.43 -0.00    +0.015 C  
DOCKED: ATOM     32  C   UNL     1     142.616  79.926 223.149 -0.65 -0.00    +0.015 C  
DOCKED: ENDBRANCH  28  30
DOCKED: ENDBRANCH  24  25
DOCKED: ENDBRANCH  21  24
DOCKED: BRANCH  22  33
DOCKED: ATOM     33  O   UNL     1     145.112  72.822 221.218 -0.28 +0.09    -0.391 OA 
DOCKED: ATOM     34  H   UNL     1     144.989  71.855 221.400 -0.39 -0.11    +0.211 HD 
DOCKED: ENDBRANCH  22  33
DOCKED: ENDBRANCH   1  19
DOCKED: TORSDOF 10
DOCKED: TER
DOCKED: ENDMDL
________________________________________________________________________________


    FINAL DOCKED STATE:
    ________________________


Run:   11 / 20
Time taken for this run:   0.124s

DOCKED: MODEL        11
DOCKED: USER    Run = 11
DOCKED: USER
DOCKED: USER    Estimated Free Energy of Binding    =  -5.06 kcal/mol  [=(1)+(2)+(3)-(4)]
DOCKED: USER
DOCKED: USER    (1) Final Intermolecular Energy     =  -8.05 kcal/mol
DOCKED: USER        vdW + Hbond + desolv Energy     =  -8.22 kcal/mol
DOCKED: USER        Electrostatic Energy            =  +0.17 kcal/mol
DOCKED: USER        Moving Ligand-Fixed Receptor    =  -8.05 kcal/mol
DOCKED: USER        Moving Ligand-Moving Receptor   =  +0.00 kcal/mol
DOCKED: USER    (2) Final Total Internal Energy     =  -4.12 kcal/mol
DOCKED: USER    (3) Torsional Free Energy           =  +2.98 kcal/mol
DOCKED: USER    (4) Unbound System's Energy         =  -4.12 kcal/mol
DOCKED: USER
DOCKED: USER
DOCKED: REMARK SMILES CC(C)c1nc(C[C@@H]2C[C@@H](O)CN2/C(O)=C/[N-]C(=O)c2ccc3cc(F)ccc3n2)cs1
DOCKED: REMARK SMILES IDX 14 1 15 2 16 4 17 5 18 6 19 7 20 8 30 9 21 10 29 11 22 12
DOCKED: REMARK SMILES IDX 28 13 23 14 27 15 24 16 25 17 26 18 13 19 12 20 8 21 10 22
DOCKED: REMARK SMILES IDX 9 23 7 24 6 25 5 26 31 27 4 28 32 29 2 30 1 31 3 32 11 33
DOCKED: REMARK H PARENT 15 3 11 34
DOCKED: USER                              x       y       z     vdW  Elec       q    Type
DOCKED: USER                           _______ _______ _______ _____ _____    ______ ____
DOCKED: ROOT
DOCKED: ATOM      1  C   UNL     1     140.168  69.909 220.544 -0.08 -0.03    +0.164 C  
DOCKED: ENDROOT
DOCKED: BRANCH   1   2
DOCKED: ATOM      2  O   UNL     1     141.073  68.934 220.113 -0.04 +0.09    -0.496 OA 
DOCKED: ATOM      3  H   UNL     1     141.668  69.050 219.302 +0.06 -0.05    +0.295 HD 
DOCKED: ENDBRANCH   1   2
DOCKED: BRANCH   1   4
DOCKED: ATOM      4  C   UNL     1     138.899  69.573 220.830 -0.10 +0.01    -0.069 C  
DOCKED: BRANCH   4   5
DOCKED: ATOM      5  N   UNL     1     137.936  70.563 221.195 +0.04 +0.11    -0.623 NA 
DOCKED: BRANCH   5   6
DOCKED: ATOM      6  C   UNL     1     137.970  71.271 222.440 -0.14 -0.02    +0.104 C  
DOCKED: ATOM      7  O   UNL     1     137.535  72.453 222.510 -0.10 +0.10    -0.313 OA 
DOCKED: BRANCH   6   8
DOCKED: ATOM      8  C   UNL     1     138.511  70.604 223.638 -0.24 -0.02    +0.089 A  
DOCKED: ATOM      9  N   UNL     1     139.262  71.322 224.519 -0.21 +0.06    -0.246 NA 
DOCKED: ATOM     10  C   UNL     1     138.270  69.241 223.883 -0.28 -0.00    +0.031 A  
DOCKED: ATOM     11  C   UNL     1     139.793  70.764 225.639 -0.42 -0.01    +0.071 A  
DOCKED: ATOM     12  C   UNL     1     138.802  68.641 225.026 -0.40 -0.00    +0.013 A  
DOCKED: ATOM     13  C   UNL     1     140.563  71.538 226.513 -0.63 -0.01    +0.032 A  
DOCKED: ATOM     14  C   UNL     1     139.573  69.397 225.917 -0.47 -0.00    +0.003 A  
DOCKED: ATOM     15  C   UNL     1     141.119  70.958 227.657 -0.63 -0.01    +0.041 A  
DOCKED: ATOM     16  C   UNL     1     140.133  68.821 227.068 -0.58 -0.01    +0.049 A  
DOCKED: ATOM     17  C   UNL     1     140.906  69.603 227.932 -0.50 -0.02    +0.123 A  
DOCKED: ATOM     18  F   UNL     1     141.453  69.044 229.040 -0.10 +0.05    -0.207 F  
DOCKED: ENDBRANCH   6   8
DOCKED: ENDBRANCH   5   6
DOCKED: ENDBRANCH   4   5
DOCKED: ENDBRANCH   1   4
DOCKED: BRANCH   1  19
DOCKED: ATOM     19  N   UNL     1     140.640  71.268 220.688 -0.05 +0.05    -0.339 N  
DOCKED: ATOM     20  C   UNL     1     141.130  71.762 221.964 -0.15 -0.01    +0.151 C  
DOCKED: ATOM     21  C   UNL     1     140.493  72.333 219.698 -0.07 -0.02    +0.093 C  
DOCKED: ATOM     22  C   UNL     1     141.030  73.285 221.893 -0.16 -0.01    +0.136 C  
DOCKED: ATOM     23  C   UNL     1     140.945  73.621 220.404 -0.17 -0.01    +0.059 C  
DOCKED: BRANCH  21  24
DOCKED: ATOM     24  C   UNL     1     141.335  72.044 218.433 -0.03 -0.01    +0.082 C  
DOCKED: BRANCH  24  25
DOCKED: ATOM     25  C   UNL     1     142.646  71.423 218.806 -0.08 -0.01    +0.054 A  
DOCKED: ATOM     26  N   UNL     1     142.890  70.104 218.582 -0.03 +0.03    -0.246 NA 
DOCKED: ATOM     27  C   UNL     1     143.729  72.150 219.301 -0.17 -0.01    +0.090 A  
DOCKED: ATOM     28  C   UNL     1     144.154  69.761 218.909 -0.18 +0.00    +0.095 A  
DOCKED: ATOM     29  S   UNL     1     145.023  71.089 219.466 -0.27 -0.03    -0.127 S  
DOCKED: BRANCH  28  30
DOCKED: ATOM     30  C   UNL     1     144.716  68.382 218.721 -0.29 -0.00    +0.042 C  
DOCKED: ATOM     31  C   UNL     1     145.905  68.158 219.660 -0.47 +0.00    +0.015 C  
DOCKED: ATOM     32  C   UNL     1     143.628  67.329 218.962 -0.28 -0.00    +0.015 C  
DOCKED: ENDBRANCH  28  30
DOCKED: ENDBRANCH  24  25
DOCKED: ENDBRANCH  21  24
DOCKED: BRANCH  22  33
DOCKED: ATOM     33  O   UNL     1     139.864  73.728 222.540 -0.71 +0.02    -0.391 OA 
DOCKED: ATOM     34  H   UNL     1     139.545  72.970 223.094 -0.31 -0.06    +0.211 HD 
DOCKED: ENDBRANCH  22  33
DOCKED: ENDBRANCH   1  19
DOCKED: TORSDOF 10
DOCKED: TER
DOCKED: ENDMDL
________________________________________________________________________________


    FINAL DOCKED STATE:
    ________________________


Run:   12 / 20
Time taken for this run:   0.124s

DOCKED: MODEL        12
DOCKED: USER    Run = 12
DOCKED: USER
DOCKED: USER    Estimated Free Energy of Binding    =  -8.37 kcal/mol  [=(1)+(2)+(3)-(4)]
DOCKED: USER
DOCKED: USER    (1) Final Intermolecular Energy     = -11.36 kcal/mol
DOCKED: USER        vdW + Hbond + desolv Energy     = -11.36 kcal/mol
DOCKED: USER        Electrostatic Energy            =  +0.00 kcal/mol
DOCKED: USER        Moving Ligand-Fixed Receptor    = -11.36 kcal/mol
DOCKED: USER        Moving Ligand-Moving Receptor   =  +0.00 kcal/mol
DOCKED: USER    (2) Final Total Internal Energy     =  -1.96 kcal/mol
DOCKED: USER    (3) Torsional Free Energy           =  +2.98 kcal/mol
DOCKED: USER    (4) Unbound System's Energy         =  -1.96 kcal/mol
DOCKED: USER
DOCKED: USER
DOCKED: REMARK SMILES CC(C)c1nc(C[C@@H]2C[C@@H](O)CN2/C(O)=C/[N-]C(=O)c2ccc3cc(F)ccc3n2)cs1
DOCKED: REMARK SMILES IDX 14 1 15 2 16 4 17 5 18 6 19 7 20 8 30 9 21 10 29 11 22 12
DOCKED: REMARK SMILES IDX 28 13 23 14 27 15 24 16 25 17 26 18 13 19 12 20 8 21 10 22
DOCKED: REMARK SMILES IDX 9 23 7 24 6 25 5 26 31 27 4 28 32 29 2 30 1 31 3 32 11 33
DOCKED: REMARK H PARENT 15 3 11 34
DOCKED: USER                              x       y       z     vdW  Elec       q    Type
DOCKED: USER                           _______ _______ _______ _____ _____    ______ ____
DOCKED: ROOT
DOCKED: ATOM      1  C   UNL     1     141.272  74.170 221.206 -0.22 -0.03    +0.164 C  
DOCKED: ENDROOT
DOCKED: BRANCH   1   2
DOCKED: ATOM      2  O   UNL     1     141.087  75.322 221.978 -0.41 +0.09    -0.496 OA 
DOCKED: ATOM      3  H   UNL     1     141.810  76.018 222.116 -0.44 -0.16    +0.295 HD 
DOCKED: ENDBRANCH   1   2
DOCKED: BRANCH   1   4
DOCKED: ATOM      4  C   UNL     1     140.261  73.301 221.040 -0.20 +0.01    -0.069 C  
DOCKED: BRANCH   4   5
DOCKED: ATOM      5  N   UNL     1     140.307  71.995 221.619 -0.02 +0.09    -0.623 NA 
DOCKED: BRANCH   5   6
DOCKED: ATOM      6  C   UNL     1     139.348  71.526 222.573 -0.24 -0.02    +0.104 C  
DOCKED: ATOM      7  O   UNL     1     138.120  71.502 222.280 -0.08 +0.07    -0.313 OA 
DOCKED: BRANCH   6   8
DOCKED: ATOM      8  C   UNL     1     139.807  71.066 223.896 -0.35 -0.02    +0.089 A  
DOCKED: ATOM      9  N   UNL     1     139.457  69.822 224.328 -0.17 +0.04    -0.246 NA 
DOCKED: ATOM     10  C   UNL     1     140.594  71.889 224.719 -0.35 -0.00    +0.031 A  
DOCKED: ATOM     11  C   UNL     1     139.845  69.342 225.540 -0.40 -0.01    +0.071 A  
DOCKED: ATOM     12  C   UNL     1     141.008  71.423 225.969 -0.64 -0.00    +0.013 A  
DOCKED: ATOM     13  C   UNL     1     139.457  68.061 225.945 -0.55 -0.00    +0.032 A  
DOCKED: ATOM     14  C   UNL     1     140.634  70.142 226.394 -0.56 -0.00    +0.003 A  
DOCKED: ATOM     15  C   UNL     1     139.846  67.576 227.197 -0.43 -0.01    +0.041 A  
DOCKED: ATOM     16  C   UNL     1     141.023  69.647 227.649 -0.55 -0.01    +0.049 A  
DOCKED: ATOM     17  C   UNL     1     140.624  68.368 228.048 -0.55 -0.03    +0.123 A  
DOCKED: ATOM     18  F   UNL     1     140.994  67.894 229.263 -0.16 +0.06    -0.207 F  
DOCKED: ENDBRANCH   6   8
DOCKED: ENDBRANCH   5   6
DOCKED: ENDBRANCH   4   5
DOCKED: ENDBRANCH   1   4
DOCKED: BRANCH   1  19
DOCKED: ATOM     19  N   UNL     1     142.561  73.959 220.586 -0.13 +0.08    -0.339 N  
DOCKED: ATOM     20  C   UNL     1     143.194  72.651 220.594 -0.22 -0.02    +0.151 C  
DOCKED: ATOM     21  C   UNL     1     143.454  75.007 220.095 -0.34 -0.04    +0.093 C  
DOCKED: ATOM     22  C   UNL     1     144.682  72.901 220.359 -0.37 -0.02    +0.136 C  
DOCKED: ATOM     23  C   UNL     1     144.771  74.297 219.743 -0.18 -0.02    +0.059 C  
DOCKED: BRANCH  21  24
DOCKED: ATOM     24  C   UNL     1     142.847  75.734 218.872 -0.26 -0.04    +0.082 C  
DOCKED: BRANCH  24  25
DOCKED: ATOM     25  C   UNL     1     142.388  77.108 219.253 -0.30 -0.03    +0.054 A  
DOCKED: ATOM     26  N   UNL     1     142.121  77.428 220.547 -0.16 +0.17    -0.246 NA 
DOCKED: ATOM     27  C   UNL     1     142.304  78.170 218.351 -0.26 -0.06    +0.090 A  
DOCKED: ATOM     28  C   UNL     1     141.804  78.732 220.692 -0.27 -0.06    +0.095 A  
DOCKED: ATOM     29  S   UNL     1     141.870  79.543 219.219 -0.31 +0.08    -0.127 S  
DOCKED: BRANCH  28  30
DOCKED: ATOM     30  C   UNL     1     141.509  79.375 222.016 -0.43 -0.02    +0.042 C  
DOCKED: ATOM     31  C   UNL     1     141.351  78.310 223.102 -0.53 -0.01    +0.015 C  
DOCKED: ATOM     32  C   UNL     1     142.621  80.365 222.382 -0.56 -0.01    +0.015 C  
DOCKED: ENDBRANCH  28  30
DOCKED: ENDBRANCH  24  25
DOCKED: ENDBRANCH  21  24
DOCKED: BRANCH  22  33
DOCKED: ATOM     33  O   UNL     1     145.378  72.883 221.579 -0.28 +0.11    -0.391 OA 
DOCKED: ATOM     34  H   UNL     1     145.649  71.941 221.733 -0.44 -0.18    +0.211 HD 
DOCKED: ENDBRANCH  22  33
DOCKED: ENDBRANCH   1  19
DOCKED: TORSDOF 10
DOCKED: TER
DOCKED: ENDMDL
________________________________________________________________________________


    FINAL DOCKED STATE:
    ________________________


Run:   13 / 20
Time taken for this run:   0.124s

DOCKED: MODEL        13
DOCKED: USER    Run = 13
DOCKED: USER
DOCKED: USER    Estimated Free Energy of Binding    =  -7.46 kcal/mol  [=(1)+(2)+(3)-(4)]
DOCKED: USER
DOCKED: USER    (1) Final Intermolecular Energy     = -10.45 kcal/mol
DOCKED: USER        vdW + Hbond + desolv Energy     = -10.47 kcal/mol
DOCKED: USER        Electrostatic Energy            =  +0.02 kcal/mol
DOCKED: USER        Moving Ligand-Fixed Receptor    = -10.45 kcal/mol
DOCKED: USER        Moving Ligand-Moving Receptor   =  +0.00 kcal/mol
DOCKED: USER    (2) Final Total Internal Energy     =  -2.35 kcal/mol
DOCKED: USER    (3) Torsional Free Energy           =  +2.98 kcal/mol
DOCKED: USER    (4) Unbound System's Energy         =  -2.35 kcal/mol
DOCKED: USER
DOCKED: USER
DOCKED: REMARK SMILES CC(C)c1nc(C[C@@H]2C[C@@H](O)CN2/C(O)=C/[N-]C(=O)c2ccc3cc(F)ccc3n2)cs1
DOCKED: REMARK SMILES IDX 14 1 15 2 16 4 17 5 18 6 19 7 20 8 30 9 21 10 29 11 22 12
DOCKED: REMARK SMILES IDX 28 13 23 14 27 15 24 16 25 17 26 18 13 19 12 20 8 21 10 22
DOCKED: REMARK SMILES IDX 9 23 7 24 6 25 5 26 31 27 4 28 32 29 2 30 1 31 3 32 11 33
DOCKED: REMARK H PARENT 15 3 11 34
DOCKED: USER                              x       y       z     vdW  Elec       q    Type
DOCKED: USER                           _______ _______ _______ _____ _____    ______ ____
DOCKED: ROOT
DOCKED: ATOM      1  C   UNL     1     140.151  75.040 221.337 -0.24 -0.03    +0.164 C  
DOCKED: ENDROOT
DOCKED: BRANCH   1   2
DOCKED: ATOM      2  O   UNL     1     139.323  75.252 222.444 -0.43 +0.09    -0.496 OA 
DOCKED: ATOM      3  H   UNL     1     139.034  74.511 223.070 -0.49 -0.12    +0.295 HD 
DOCKED: ENDBRANCH   1   2
DOCKED: BRANCH   1   4
DOCKED: ATOM      4  C   UNL     1     141.057  74.048 221.352 -0.26 +0.01    -0.069 C  
DOCKED: BRANCH   4   5
DOCKED: ATOM      5  N   UNL     1     141.018  73.027 222.350 -0.29 -0.01    -0.623 NA 
DOCKED: BRANCH   5   6
DOCKED: ATOM      6  C   UNL     1     139.817  72.342 222.727 -0.26 -0.02    +0.104 C  
DOCKED: ATOM      7  O   UNL     1     138.732  72.591 222.133 -0.14 +0.08    -0.313 OA 
DOCKED: BRANCH   6   8
DOCKED: ATOM      8  C   UNL     1     139.862  71.343 223.810 -0.36 -0.02    +0.089 A  
DOCKED: ATOM      9  N   UNL     1     140.383  71.693 225.019 -0.29 +0.04    -0.246 NA 
DOCKED: ATOM     10  C   UNL     1     139.382  70.037 223.614 -0.27 -0.01    +0.031 A  
DOCKED: ATOM     11  C   UNL     1     140.458  70.816 226.056 -0.53 -0.01    +0.071 A  
DOCKED: ATOM     12  C   UNL     1     139.443  69.115 224.661 -0.35 -0.00    +0.013 A  
DOCKED: ATOM     13  C   UNL     1     141.006  71.217 227.277 -0.70 -0.01    +0.032 A  
DOCKED: ATOM     14  C   UNL     1     139.986  69.494 225.895 -0.48 -0.00    +0.003 A  
DOCKED: ATOM     15  C   UNL     1     141.094  70.309 228.336 -0.52 -0.01    +0.041 A  
DOCKED: ATOM     16  C   UNL     1     140.076  68.588 226.963 -0.59 -0.01    +0.049 A  
DOCKED: ATOM     17  C   UNL     1     140.632  68.997 228.179 -0.54 -0.03    +0.123 A  
DOCKED: ATOM     18  F   UNL     1     140.724  68.120 229.208 -0.15 +0.05    -0.207 F  
DOCKED: ENDBRANCH   6   8
DOCKED: ENDBRANCH   5   6
DOCKED: ENDBRANCH   4   5
DOCKED: ENDBRANCH   1   4
DOCKED: BRANCH   1  19
DOCKED: ATOM     19  N   UNL     1     139.989  75.897 220.184 -0.03 +0.09    -0.339 N  
DOCKED: ATOM     20  C   UNL     1     138.730  76.572 219.920 -0.04 -0.04    +0.151 C  
DOCKED: ATOM     21  C   UNL     1     140.931  76.020 219.072 -0.10 -0.03    +0.093 C  
DOCKED: ATOM     22  C   UNL     1     138.742  76.921 218.432 -0.01 -0.03    +0.136 C  
DOCKED: ATOM     23  C   UNL     1     140.209  76.866 218.010 -0.04 -0.02    +0.059 C  
DOCKED: BRANCH  21  24
DOCKED: ATOM     24  C   UNL     1     142.255  76.677 219.529 -0.28 -0.05    +0.082 C  
DOCKED: BRANCH  24  25
DOCKED: ATOM     25  C   UNL     1     142.010  78.076 220.005 -0.24 -0.04    +0.054 A  
DOCKED: ATOM     26  N   UNL     1     141.837  78.350 221.326 -0.21 +0.15    -0.246 NA 
DOCKED: ATOM     27  C   UNL     1     142.046  79.192 219.168 -0.24 -0.06    +0.090 A  
DOCKED: ATOM     28  C   UNL     1     141.714  79.675 221.556 -0.36 -0.04    +0.095 A  
DOCKED: ATOM     29  S   UNL     1     141.843  80.557 220.129 -0.33 +0.06    -0.127 S  
DOCKED: BRANCH  28  30
DOCKED: ATOM     30  C   UNL     1     141.561  80.271 222.925 -0.53 -0.01    +0.042 C  
DOCKED: ATOM     31  C   UNL     1     140.720  79.352 223.815 -0.50 -0.00    +0.015 C  
DOCKED: ATOM     32  C   UNL     1     142.937  80.523 223.550 -0.67 -0.00    +0.015 C  
DOCKED: ENDBRANCH  28  30
DOCKED: ENDBRANCH  24  25
DOCKED: ENDBRANCH  21  24
DOCKED: BRANCH  22  33
DOCKED: ATOM     33  O   UNL     1     138.008  75.970 217.703 +0.00 +0.08    -0.391 OA 
DOCKED: ATOM     34  H   UNL     1     138.281  75.081 218.046 +0.01 -0.04    +0.211 HD 
DOCKED: ENDBRANCH  22  33
DOCKED: ENDBRANCH   1  19
DOCKED: TORSDOF 10
DOCKED: TER
DOCKED: ENDMDL
________________________________________________________________________________


    FINAL DOCKED STATE:
    ________________________


Run:   14 / 20
Time taken for this run:   0.124s

DOCKED: MODEL        14
DOCKED: USER    Run = 14
DOCKED: USER
DOCKED: USER    Estimated Free Energy of Binding    =  -8.42 kcal/mol  [=(1)+(2)+(3)-(4)]
DOCKED: USER
DOCKED: USER    (1) Final Intermolecular Energy     = -11.40 kcal/mol
DOCKED: USER        vdW + Hbond + desolv Energy     = -11.50 kcal/mol
DOCKED: USER        Electrostatic Energy            =  +0.10 kcal/mol
DOCKED: USER        Moving Ligand-Fixed Receptor    = -11.40 kcal/mol
DOCKED: USER        Moving Ligand-Moving Receptor   =  +0.00 kcal/mol
DOCKED: USER    (2) Final Total Internal Energy     =  -2.28 kcal/mol
DOCKED: USER    (3) Torsional Free Energy           =  +2.98 kcal/mol
DOCKED: USER    (4) Unbound System's Energy         =  -2.28 kcal/mol
DOCKED: USER
DOCKED: USER
DOCKED: REMARK SMILES CC(C)c1nc(C[C@@H]2C[C@@H](O)CN2/C(O)=C/[N-]C(=O)c2ccc3cc(F)ccc3n2)cs1
DOCKED: REMARK SMILES IDX 14 1 15 2 16 4 17 5 18 6 19 7 20 8 30 9 21 10 29 11 22 12
DOCKED: REMARK SMILES IDX 28 13 23 14 27 15 24 16 25 17 26 18 13 19 12 20 8 21 10 22
DOCKED: REMARK SMILES IDX 9 23 7 24 6 25 5 26 31 27 4 28 32 29 2 30 1 31 3 32 11 33
DOCKED: REMARK H PARENT 15 3 11 34
DOCKED: USER                              x       y       z     vdW  Elec       q    Type
DOCKED: USER                           _______ _______ _______ _____ _____    ______ ____
DOCKED: ROOT
DOCKED: ATOM      1  C   UNL     1     140.921  72.878 221.498 -0.22 -0.02    +0.164 C  
DOCKED: ENDROOT
DOCKED: BRANCH   1   2
DOCKED: ATOM      2  O   UNL     1     140.232  73.735 222.362 -0.70 -0.00    -0.496 OA 
DOCKED: ATOM      3  H   UNL     1     139.338  73.502 222.777 -0.33 -0.08    +0.295 HD 
DOCKED: ENDBRANCH   1   2
DOCKED: BRANCH   1   4
DOCKED: ATOM      4  C   UNL     1     140.449  71.645 221.252 -0.18 +0.01    -0.069 C  
DOCKED: BRANCH   4   5
DOCKED: ATOM      5  N   UNL     1     139.092  71.303 221.536 +0.02 +0.12    -0.623 NA 
DOCKED: BRANCH   5   6
DOCKED: ATOM      6  C   UNL     1     138.505  71.431 222.836 -0.20 -0.03    +0.104 C  
DOCKED: ATOM      7  O   UNL     1     137.607  72.293 223.045 -0.08 +0.12    -0.313 OA 
DOCKED: BRANCH   6   8
DOCKED: ATOM      8  C   UNL     1     138.954  70.545 223.925 -0.28 -0.02    +0.089 A  
DOCKED: ATOM      9  N   UNL     1     139.567  71.086 225.015 -0.26 +0.05    -0.246 NA 
DOCKED: ATOM     10  C   UNL     1     138.766  69.155 223.855 -0.29 -0.00    +0.031 A  
DOCKED: ATOM     11  C   UNL     1     140.009  70.322 226.050 -0.47 -0.01    +0.071 A  
DOCKED: ATOM     12  C   UNL     1     139.208  68.344 224.903 -0.41 -0.00    +0.013 A  
DOCKED: ATOM     13  C   UNL     1     140.638  70.920 227.146 -0.65 -0.01    +0.032 A  
DOCKED: ATOM     14  C   UNL     1     139.839  68.921 226.013 -0.51 -0.00    +0.003 A  
DOCKED: ATOM     15  C   UNL     1     141.103  70.130 228.201 -0.53 -0.01    +0.041 A  
DOCKED: ATOM     16  C   UNL     1     140.307  68.134 227.077 -0.63 -0.01    +0.049 A  
DOCKED: ATOM     17  C   UNL     1     140.940  68.741 228.166 -0.53 -0.03    +0.123 A  
DOCKED: ATOM     18  F   UNL     1     141.398  67.980 229.190 -0.18 +0.06    -0.207 F  
DOCKED: ENDBRANCH   6   8
DOCKED: ENDBRANCH   5   6
DOCKED: ENDBRANCH   4   5
DOCKED: ENDBRANCH   1   4
DOCKED: BRANCH   1  19
DOCKED: ATOM     19  N   UNL     1     142.132  73.363 220.873 -0.11 +0.05    -0.339 N  
DOCKED: ATOM     20  C   UNL     1     143.203  72.454 220.502 -0.22 -0.02    +0.151 C  
DOCKED: ATOM     21  C   UNL     1     142.520  74.767 220.738 -0.21 -0.03    +0.093 C  
DOCKED: ATOM     22  C   UNL     1     144.462  73.311 220.387 -0.38 -0.02    +0.136 C  
DOCKED: ATOM     23  C   UNL     1     143.966  74.747 220.219 -0.37 -0.03    +0.059 C  
DOCKED: BRANCH  21  24
DOCKED: ATOM     24  C   UNL     1     141.573  75.521 219.775 -0.19 -0.03    +0.082 C  
DOCKED: BRANCH  24  25
DOCKED: ATOM     25  C   UNL     1     141.560  76.985 220.091 -0.25 -0.03    +0.054 A  
DOCKED: ATOM     26  N   UNL     1     141.513  77.428 221.375 -0.15 +0.14    -0.246 NA 
DOCKED: ATOM     27  C   UNL     1     141.702  77.982 219.125 -0.21 -0.05    +0.090 A  
DOCKED: ATOM     28  C   UNL     1     141.595  78.774 221.450 -0.33 -0.05    +0.095 A  
DOCKED: ATOM     29  S   UNL     1     141.757  79.461 219.923 -0.30 +0.07    -0.127 S  
DOCKED: BRANCH  28  30
DOCKED: ATOM     30  C   UNL     1     141.616  79.535 222.743 -0.52 -0.01    +0.042 C  
DOCKED: ATOM     31  C   UNL     1     141.705  78.571 223.928 -0.50 -0.00    +0.015 C  
DOCKED: ATOM     32  C   UNL     1     142.788  80.523 222.756 -0.60 -0.00    +0.015 C  
DOCKED: ENDBRANCH  28  30
DOCKED: ENDBRANCH  24  25
DOCKED: ENDBRANCH  21  24
DOCKED: BRANCH  22  33
DOCKED: ATOM     33  O   UNL     1     145.228  73.214 221.561 -0.30 +0.10    -0.391 OA 
DOCKED: ATOM     34  H   UNL     1     145.419  72.251 221.692 -0.42 -0.11    +0.211 HD 
DOCKED: ENDBRANCH  22  33
DOCKED: ENDBRANCH   1  19
DOCKED: TORSDOF 10
DOCKED: TER
DOCKED: ENDMDL
________________________________________________________________________________


    FINAL DOCKED STATE:
    ________________________


Run:   15 / 20
Time taken for this run:   0.124s

DOCKED: MODEL        15
DOCKED: USER    Run = 15
DOCKED: USER
DOCKED: USER    Estimated Free Energy of Binding    =  -7.02 kcal/mol  [=(1)+(2)+(3)-(4)]
DOCKED: USER
DOCKED: USER    (1) Final Intermolecular Energy     = -10.00 kcal/mol
DOCKED: USER        vdW + Hbond + desolv Energy     =  -9.96 kcal/mol
DOCKED: USER        Electrostatic Energy            =  -0.04 kcal/mol
DOCKED: USER        Moving Ligand-Fixed Receptor    = -10.00 kcal/mol
DOCKED: USER        Moving Ligand-Moving Receptor   =  +0.00 kcal/mol
DOCKED: USER    (2) Final Total Internal Energy     =  -2.57 kcal/mol
DOCKED: USER    (3) Torsional Free Energy           =  +2.98 kcal/mol
DOCKED: USER    (4) Unbound System's Energy         =  -2.57 kcal/mol
DOCKED: USER
DOCKED: USER
DOCKED: REMARK SMILES CC(C)c1nc(C[C@@H]2C[C@@H](O)CN2/C(O)=C/[N-]C(=O)c2ccc3cc(F)ccc3n2)cs1
DOCKED: REMARK SMILES IDX 14 1 15 2 16 4 17 5 18 6 19 7 20 8 30 9 21 10 29 11 22 12
DOCKED: REMARK SMILES IDX 28 13 23 14 27 15 24 16 25 17 26 18 13 19 12 20 8 21 10 22
DOCKED: REMARK SMILES IDX 9 23 7 24 6 25 5 26 31 27 4 28 32 29 2 30 1 31 3 32 11 33
DOCKED: REMARK H PARENT 15 3 11 34
DOCKED: USER                              x       y       z     vdW  Elec       q    Type
DOCKED: USER                           _______ _______ _______ _____ _____    ______ ____
DOCKED: ROOT
DOCKED: ATOM      1  C   UNL     1     139.827  75.364 221.506 -0.24 -0.03    +0.164 C  
DOCKED: ENDROOT
DOCKED: BRANCH   1   2
DOCKED: ATOM      2  O   UNL     1     138.861  75.309 222.517 -0.24 +0.13    -0.496 OA 
DOCKED: ATOM      3  H   UNL     1     138.693  74.483 223.077 -0.49 -0.17    +0.295 HD 
DOCKED: ENDBRANCH   1   2
DOCKED: BRANCH   1   4
DOCKED: ATOM      4  C   UNL     1     140.735  74.381 221.385 -0.28 +0.01    -0.069 C  
DOCKED: BRANCH   4   5
DOCKED: ATOM      5  N   UNL     1     140.797  73.312 222.332 -0.41 -0.02    -0.623 NA 
DOCKED: BRANCH   5   6
DOCKED: ATOM      6  C   UNL     1     139.676  72.479 222.649 -0.23 -0.02    +0.104 C  
DOCKED: ATOM      7  O   UNL     1     138.595  72.598 222.010 -0.12 +0.08    -0.313 OA 
DOCKED: BRANCH   6   8
DOCKED: ATOM      8  C   UNL     1     139.800  71.478 223.724 -0.35 -0.02    +0.089 A  
DOCKED: ATOM      9  N   UNL     1     140.287  71.859 224.938 -0.24 +0.05    -0.246 NA 
DOCKED: ATOM     10  C   UNL     1     139.428  70.139 223.517 -0.27 -0.01    +0.031 A  
DOCKED: ATOM     11  C   UNL     1     140.430  70.983 225.968 -0.54 -0.01    +0.071 A  
DOCKED: ATOM     12  C   UNL     1     139.562  69.216 224.557 -0.34 -0.00    +0.013 A  
DOCKED: ATOM     13  C   UNL     1     140.941  71.418 227.195 -0.72 -0.01    +0.032 A  
DOCKED: ATOM     14  C   UNL     1     140.069  69.629 225.795 -0.47 -0.00    +0.003 A  
DOCKED: ATOM     15  C   UNL     1     141.099  70.511 228.247 -0.54 -0.01    +0.041 A  
DOCKED: ATOM     16  C   UNL     1     140.229  68.725 226.857 -0.58 -0.01    +0.049 A  
DOCKED: ATOM     17  C   UNL     1     140.746  69.168 228.078 -0.52 -0.03    +0.123 A  
DOCKED: ATOM     18  F   UNL     1     140.907  68.292 229.100 -0.17 +0.05    -0.207 F  
DOCKED: ENDBRANCH   6   8
DOCKED: ENDBRANCH   5   6
DOCKED: ENDBRANCH   4   5
DOCKED: ENDBRANCH   1   4
DOCKED: BRANCH   1  19
DOCKED: ATOM     19  N   UNL     1     139.804  76.487 220.595 -0.04 +0.09    -0.339 N  
DOCKED: ATOM     20  C   UNL     1     138.579  77.227 220.344 -0.05 -0.04    +0.151 C  
DOCKED: ATOM     21  C   UNL     1     140.883  76.872 219.687 -0.14 -0.04    +0.093 C  
DOCKED: ATOM     22  C   UNL     1     138.782  77.939 219.007 -0.02 -0.04    +0.136 C  
DOCKED: ATOM     23  C   UNL     1     140.294  77.969 218.786 -0.08 -0.02    +0.059 C  
DOCKED: BRANCH  21  24
DOCKED: ATOM     24  C   UNL     1     142.122  77.371 220.468 -0.20 -0.06    +0.082 C  
DOCKED: BRANCH  24  25
DOCKED: ATOM     25  C   UNL     1     141.716  78.353 221.523 -0.34 -0.03    +0.054 A  
DOCKED: ATOM     26  N   UNL     1     141.486  79.659 221.220 -0.19 +0.10    -0.246 NA 
DOCKED: ATOM     27  C   UNL     1     141.443  77.995 222.844 -0.39 -0.04    +0.090 A  
DOCKED: ATOM     28  C   UNL     1     141.050  80.358 222.290 -0.35 -0.02    +0.095 A  
DOCKED: ATOM     29  S   UNL     1     140.909  79.373 223.646 -0.57 +0.03    -0.127 S  
DOCKED: BRANCH  28  30
DOCKED: ATOM     30  C   UNL     1     140.672  81.809 222.237 -0.34 -0.01    +0.042 C  
DOCKED: ATOM     31  C   UNL     1     141.349  82.494 221.047 -0.30 -0.00    +0.015 C  
DOCKED: ATOM     32  C   UNL     1     139.148  81.956 222.154 -0.20 -0.00    +0.015 C  
DOCKED: ENDBRANCH  28  30
DOCKED: ENDBRANCH  24  25
DOCKED: ENDBRANCH  21  24
DOCKED: BRANCH  22  33
DOCKED: ATOM     33  O   UNL     1     138.171  77.214 217.971 +0.00 +0.09    -0.391 OA 
DOCKED: ATOM     34  H   UNL     1     138.264  76.256 218.205 +0.01 -0.05    +0.211 HD 
DOCKED: ENDBRANCH  22  33
DOCKED: ENDBRANCH   1  19
DOCKED: TORSDOF 10
DOCKED: TER
DOCKED: ENDMDL
________________________________________________________________________________


    FINAL DOCKED STATE:
    ________________________


Run:   16 / 20
Time taken for this run:   0.124s

DOCKED: MODEL        16
DOCKED: USER    Run = 16
DOCKED: USER
DOCKED: USER    Estimated Free Energy of Binding    =  -7.28 kcal/mol  [=(1)+(2)+(3)-(4)]
DOCKED: USER
DOCKED: USER    (1) Final Intermolecular Energy     = -10.26 kcal/mol
DOCKED: USER        vdW + Hbond + desolv Energy     = -10.29 kcal/mol
DOCKED: USER        Electrostatic Energy            =  +0.03 kcal/mol
DOCKED: USER        Moving Ligand-Fixed Receptor    = -10.26 kcal/mol
DOCKED: USER        Moving Ligand-Moving Receptor   =  +0.00 kcal/mol
DOCKED: USER    (2) Final Total Internal Energy     =  -2.52 kcal/mol
DOCKED: USER    (3) Torsional Free Energy           =  +2.98 kcal/mol
DOCKED: USER    (4) Unbound System's Energy         =  -2.52 kcal/mol
DOCKED: USER
DOCKED: USER
DOCKED: REMARK SMILES CC(C)c1nc(C[C@@H]2C[C@@H](O)CN2/C(O)=C/[N-]C(=O)c2ccc3cc(F)ccc3n2)cs1
DOCKED: REMARK SMILES IDX 14 1 15 2 16 4 17 5 18 6 19 7 20 8 30 9 21 10 29 11 22 12
DOCKED: REMARK SMILES IDX 28 13 23 14 27 15 24 16 25 17 26 18 13 19 12 20 8 21 10 22
DOCKED: REMARK SMILES IDX 9 23 7 24 6 25 5 26 31 27 4 28 32 29 2 30 1 31 3 32 11 33
DOCKED: REMARK H PARENT 15 3 11 34
DOCKED: USER                              x       y       z     vdW  Elec       q    Type
DOCKED: USER                           _______ _______ _______ _____ _____    ______ ____
DOCKED: ROOT
DOCKED: ATOM      1  C   UNL     1     140.734  72.713 221.616 -0.23 -0.02    +0.164 C  
DOCKED: ENDROOT
DOCKED: BRANCH   1   2
DOCKED: ATOM      2  O   UNL     1     140.652  73.007 222.981 -0.34 -0.04    -0.496 OA 
DOCKED: ATOM      3  H   UNL     1     139.833  72.810 223.542 -0.18 -0.07    +0.295 HD 
DOCKED: ENDBRANCH   1   2
DOCKED: BRANCH   1   4
DOCKED: ATOM      4  C   UNL     1     139.730  72.063 221.004 -0.14 +0.01    -0.069 C  
DOCKED: BRANCH   4   5
DOCKED: ATOM      5  N   UNL     1     138.506  71.785 221.686 +0.02 +0.13    -0.623 NA 
DOCKED: BRANCH   5   6
DOCKED: ATOM      6  C   UNL     1     138.155  70.484 222.170 -0.12 -0.02    +0.104 C  
DOCKED: ATOM      7  O   UNL     1     137.352  69.760 221.519 -0.02 +0.05    -0.313 OA 
DOCKED: BRANCH   6   8
DOCKED: ATOM      8  C   UNL     1     138.744  69.996 223.430 -0.22 -0.02    +0.089 A  
DOCKED: ATOM      9  N   UNL     1     139.323  70.885 224.283 -0.22 +0.05    -0.246 NA 
DOCKED: ATOM     10  C   UNL     1     138.721  68.631 223.763 -0.29 -0.00    +0.031 A  
DOCKED: ATOM     11  C   UNL     1     139.889  70.498 225.458 -0.44 -0.01    +0.071 A  
DOCKED: ATOM     12  C   UNL     1     139.293  68.203 224.963 -0.41 -0.00    +0.013 A  
DOCKED: ATOM     13  C   UNL     1     140.478  71.445 226.301 -0.59 -0.01    +0.032 A  
DOCKED: ATOM     14  C   UNL     1     139.887  69.134 225.824 -0.48 -0.00    +0.003 A  
DOCKED: ATOM     15  C   UNL     1     141.070  71.041 227.501 -0.67 -0.01    +0.041 A  
DOCKED: ATOM     16  C   UNL     1     140.481  68.736 227.032 -0.59 -0.01    +0.049 A  
DOCKED: ATOM     17  C   UNL     1     141.074  69.690 227.864 -0.48 -0.02    +0.123 A  
DOCKED: ATOM     18  F   UNL     1     141.654  69.304 229.027 -0.07 +0.05    -0.207 F  
DOCKED: ENDBRANCH   6   8
DOCKED: ENDBRANCH   5   6
DOCKED: ENDBRANCH   4   5
DOCKED: ENDBRANCH   1   4
DOCKED: BRANCH   1  19
DOCKED: ATOM     19  N   UNL     1     141.910  73.141 220.891 -0.11 +0.05    -0.339 N  
DOCKED: ATOM     20  C   UNL     1     142.830  72.176 220.313 -0.18 -0.02    +0.151 C  
DOCKED: ATOM     21  C   UNL     1     142.428  74.508 220.834 -0.22 -0.03    +0.093 C  
DOCKED: ATOM     22  C   UNL     1     144.152  72.918 220.119 -0.30 -0.02    +0.136 C  
DOCKED: ATOM     23  C   UNL     1     143.795  74.403 220.141 -0.38 -0.02    +0.059 C  
DOCKED: BRANCH  21  24
DOCKED: ATOM     24  C   UNL     1     141.462  75.441 220.067 -0.20 -0.03    +0.082 C  
DOCKED: BRANCH  24  25
DOCKED: ATOM     25  C   UNL     1     140.795  76.396 221.009 -0.27 -0.02    +0.054 A  
DOCKED: ATOM     26  N   UNL     1     141.429  77.520 221.439 -0.19 +0.13    -0.246 NA 
DOCKED: ATOM     27  C   UNL     1     139.469  76.268 221.424 -0.22 -0.02    +0.090 A  
DOCKED: ATOM     28  C   UNL     1     140.630  78.287 222.211 -0.33 -0.03    +0.095 A  
DOCKED: ATOM     29  S   UNL     1     139.098  77.610 222.367 -0.33 +0.03    -0.127 S  
DOCKED: BRANCH  28  30
DOCKED: ATOM     30  C   UNL     1     141.049  79.609 222.784 -0.46 -0.01    +0.042 C  
DOCKED: ATOM     31  C   UNL     1     141.833  79.403 224.082 -0.53 -0.00    +0.015 C  
DOCKED: ATOM     32  C   UNL     1     141.885  80.388 221.762 -0.46 -0.01    +0.015 C  
DOCKED: ENDBRANCH  28  30
DOCKED: ENDBRANCH  24  25
DOCKED: ENDBRANCH  21  24
DOCKED: BRANCH  22  33
DOCKED: ATOM     33  O   UNL     1     145.031  72.631 221.176 -0.25 +0.09    -0.391 OA 
DOCKED: ATOM     34  H   UNL     1     144.885  71.679 221.413 -0.37 -0.13    +0.211 HD 
DOCKED: ENDBRANCH  22  33
DOCKED: ENDBRANCH   1  19
DOCKED: TORSDOF 10
DOCKED: TER
DOCKED: ENDMDL
________________________________________________________________________________


    FINAL DOCKED STATE:
    ________________________


Run:   17 / 20
Time taken for this run:   0.124s

DOCKED: MODEL        17
DOCKED: USER    Run = 17
DOCKED: USER
DOCKED: USER    Estimated Free Energy of Binding    =  -5.02 kcal/mol  [=(1)+(2)+(3)-(4)]
DOCKED: USER
DOCKED: USER    (1) Final Intermolecular Energy     =  -8.00 kcal/mol
DOCKED: USER        vdW + Hbond + desolv Energy     =  -8.09 kcal/mol
DOCKED: USER        Electrostatic Energy            =  +0.09 kcal/mol
DOCKED: USER        Moving Ligand-Fixed Receptor    =  -8.00 kcal/mol
DOCKED: USER        Moving Ligand-Moving Receptor   =  +0.00 kcal/mol
DOCKED: USER    (2) Final Total Internal Energy     =  -4.65 kcal/mol
DOCKED: USER    (3) Torsional Free Energy           =  +2.98 kcal/mol
DOCKED: USER    (4) Unbound System's Energy         =  -4.65 kcal/mol
DOCKED: USER
DOCKED: USER
DOCKED: REMARK SMILES CC(C)c1nc(C[C@@H]2C[C@@H](O)CN2/C(O)=C/[N-]C(=O)c2ccc3cc(F)ccc3n2)cs1
DOCKED: REMARK SMILES IDX 14 1 15 2 16 4 17 5 18 6 19 7 20 8 30 9 21 10 29 11 22 12
DOCKED: REMARK SMILES IDX 28 13 23 14 27 15 24 16 25 17 26 18 13 19 12 20 8 21 10 22
DOCKED: REMARK SMILES IDX 9 23 7 24 6 25 5 26 31 27 4 28 32 29 2 30 1 31 3 32 11 33
DOCKED: REMARK H PARENT 15 3 11 34
DOCKED: USER                              x       y       z     vdW  Elec       q    Type
DOCKED: USER                           _______ _______ _______ _____ _____    ______ ____
DOCKED: ROOT
DOCKED: ATOM      1  C   UNL     1     139.468  75.900 218.488 -0.02 -0.04    +0.164 C  
DOCKED: ENDROOT
DOCKED: BRANCH   1   2
DOCKED: ATOM      2  O   UNL     1     139.064  75.452 217.226 +0.01 +0.12    -0.496 OA 
DOCKED: ATOM      3  H   UNL     1     138.096  75.428 216.930 +0.00 -0.06    +0.295 HD 
DOCKED: ENDBRANCH   1   2
DOCKED: BRANCH   1   4
DOCKED: ATOM      4  C   UNL     1     138.554  76.308 219.384 -0.03 +0.02    -0.069 C  
DOCKED: BRANCH   4   5
DOCKED: ATOM      5  N   UNL     1     138.461  75.700 220.673 +0.03 +0.14    -0.623 NA 
DOCKED: BRANCH   5   6
DOCKED: ATOM      6  C   UNL     1     139.498  75.783 221.658 -0.26 -0.02    +0.104 C  
DOCKED: ATOM      7  O   UNL     1     140.120  74.744 222.013 -0.74 +0.03    -0.313 OA 
DOCKED: BRANCH   6   8
DOCKED: ATOM      8  C   UNL     1     139.836  77.091 222.246 -0.32 -0.02    +0.089 A  
DOCKED: ATOM      9  N   UNL     1     141.123  77.532 222.195 -0.24 +0.11    -0.246 NA 
DOCKED: ATOM     10  C   UNL     1     138.855  77.887 222.862 -0.26 -0.01    +0.031 A  
DOCKED: ATOM     11  C   UNL     1     141.500  78.728 222.724 -0.47 -0.03    +0.071 A  
DOCKED: ATOM     12  C   UNL     1     139.211  79.119 223.413 -0.37 -0.00    +0.013 A  
DOCKED: ATOM     13  C   UNL     1     142.835  79.138 222.653 -0.32 -0.02    +0.032 A  
DOCKED: ATOM     14  C   UNL     1     140.541  79.552 223.352 -0.48 -0.00    +0.003 A  
DOCKED: ATOM     15  C   UNL     1     143.220  80.361 223.210 -0.60 -0.01    +0.041 A  
DOCKED: ATOM     16  C   UNL     1     140.936  80.780 223.908 -0.34 -0.01    +0.049 A  
DOCKED: ATOM     17  C   UNL     1     142.274  81.178 223.837 -0.54 -0.02    +0.123 A  
DOCKED: ATOM     18  F   UNL     1     142.655  82.361 224.380 -0.07 +0.00    -0.207 F  
DOCKED: ENDBRANCH   6   8
DOCKED: ENDBRANCH   5   6
DOCKED: ENDBRANCH   4   5
DOCKED: ENDBRANCH   1   4
DOCKED: BRANCH   1  19
DOCKED: ATOM     19  N   UNL     1     140.880  75.892 218.799 -0.01 +0.11    -0.339 N  
DOCKED: ATOM     20  C   UNL     1     141.576  74.653 219.102 -0.08 -0.04    +0.151 C  
DOCKED: ATOM     21  C   UNL     1     141.704  77.071 219.058 -0.20 -0.05    +0.093 C  
DOCKED: ATOM     22  C   UNL     1     142.834  75.052 219.872 -0.27 -0.06    +0.136 C  
DOCKED: ATOM     23  C   UNL     1     143.054  76.531 219.556 -0.34 -0.04    +0.059 C  
DOCKED: BRANCH  21  24
DOCKED: ATOM     24  C   UNL     1     141.864  77.935 217.785 -0.20 -0.05    +0.082 C  
DOCKED: BRANCH  24  25
DOCKED: ATOM     25  C   UNL     1     141.729  79.389 218.117 -0.23 -0.04    +0.054 A  
DOCKED: ATOM     26  N   UNL     1     140.771  79.830 218.975 -0.07 +0.10    -0.246 NA 
DOCKED: ATOM     27  C   UNL     1     142.618  80.367 217.669 -0.26 -0.09    +0.090 A  
DOCKED: ATOM     28  C   UNL     1     140.870  81.157 219.207 -0.16 -0.04    +0.095 A  
DOCKED: ATOM     29  S   UNL     1     142.169  81.826 218.373 -0.26 +0.07    -0.127 S  
DOCKED: BRANCH  28  30
DOCKED: ATOM     30  C   UNL     1     139.975  81.906 220.150 -0.16 -0.01    +0.042 C  
DOCKED: ATOM     31  C   UNL     1     138.959  80.955 220.788 -0.11 -0.00    +0.015 C  
DOCKED: ATOM     32  C   UNL     1     140.810  82.610 221.225 -0.32 -0.00    +0.015 C  
DOCKED: ENDBRANCH  28  30
DOCKED: ENDBRANCH  24  25
DOCKED: ENDBRANCH  21  24
DOCKED: BRANCH  22  33
DOCKED: ATOM     33  O   UNL     1     142.630  74.893 221.253 +0.00 +0.17    -0.391 OA 
DOCKED: ATOM     34  H   UNL     1     142.069  75.657 221.544 -0.39 -0.12    +0.211 HD 
DOCKED: ENDBRANCH  22  33
DOCKED: ENDBRANCH   1  19
DOCKED: TORSDOF 10
DOCKED: TER
DOCKED: ENDMDL
________________________________________________________________________________


    FINAL DOCKED STATE:
    ________________________


Run:   18 / 20
Time taken for this run:   0.124s

DOCKED: MODEL        18
DOCKED: USER    Run = 18
DOCKED: USER
DOCKED: USER    Estimated Free Energy of Binding    =  -8.56 kcal/mol  [=(1)+(2)+(3)-(4)]
DOCKED: USER
DOCKED: USER    (1) Final Intermolecular Energy     = -11.54 kcal/mol
DOCKED: USER        vdW + Hbond + desolv Energy     = -11.58 kcal/mol
DOCKED: USER        Electrostatic Energy            =  +0.04 kcal/mol
DOCKED: USER        Moving Ligand-Fixed Receptor    = -11.54 kcal/mol
DOCKED: USER        Moving Ligand-Moving Receptor   =  +0.00 kcal/mol
DOCKED: USER    (2) Final Total Internal Energy     =  -1.97 kcal/mol
DOCKED: USER    (3) Torsional Free Energy           =  +2.98 kcal/mol
DOCKED: USER    (4) Unbound System's Energy         =  -1.97 kcal/mol
DOCKED: USER
DOCKED: USER
DOCKED: REMARK SMILES CC(C)c1nc(C[C@@H]2C[C@@H](O)CN2/C(O)=C/[N-]C(=O)c2ccc3cc(F)ccc3n2)cs1
DOCKED: REMARK SMILES IDX 14 1 15 2 16 4 17 5 18 6 19 7 20 8 30 9 21 10 29 11 22 12
DOCKED: REMARK SMILES IDX 28 13 23 14 27 15 24 16 25 17 26 18 13 19 12 20 8 21 10 22
DOCKED: REMARK SMILES IDX 9 23 7 24 6 25 5 26 31 27 4 28 32 29 2 30 1 31 3 32 11 33
DOCKED: REMARK H PARENT 15 3 11 34
DOCKED: USER                              x       y       z     vdW  Elec       q    Type
DOCKED: USER                           _______ _______ _______ _____ _____    ______ ____
DOCKED: ROOT
DOCKED: ATOM      1  C   UNL     1     141.112  74.585 221.418 -0.23 -0.03    +0.164 C  
DOCKED: ENDROOT
DOCKED: BRANCH   1   2
DOCKED: ATOM      2  O   UNL     1     141.073  75.775 222.153 -0.28 +0.13    -0.496 OA 
DOCKED: ATOM      3  H   UNL     1     141.860  76.408 222.223 -0.43 -0.20    +0.295 HD 
DOCKED: ENDBRANCH   1   2
DOCKED: BRANCH   1   4
DOCKED: ATOM      4  C   UNL     1     140.048  73.766 221.403 -0.24 +0.01    -0.069 C  
DOCKED: BRANCH   4   5
DOCKED: ATOM      5  N   UNL     1     139.650  73.051 222.574 -0.37 +0.12    -0.623 NA 
DOCKED: BRANCH   5   6
DOCKED: ATOM      6  C   UNL     1     139.868  71.646 222.749 -0.28 -0.02    +0.104 C  
DOCKED: ATOM      7  O   UNL     1     139.784  70.863 221.763 -0.09 +0.05    -0.313 OA 
DOCKED: BRANCH   6   8
DOCKED: ATOM      8  C   UNL     1     140.197  71.125 224.088 -0.38 -0.01    +0.089 A  
DOCKED: ATOM      9  N   UNL     1     139.897  69.832 224.392 -0.17 +0.04    -0.246 NA 
DOCKED: ATOM     10  C   UNL     1     140.807  71.941 225.056 -0.20 -0.00    +0.031 A  
DOCKED: ATOM     11  C   UNL     1     140.170  69.293 225.611 -0.41 -0.01    +0.071 A  
DOCKED: ATOM     12  C   UNL     1     141.101  71.416 226.316 -0.68 -0.00    +0.013 A  
DOCKED: ATOM     13  C   UNL     1     139.840  67.962 225.881 -0.56 -0.00    +0.032 A  
DOCKED: ATOM     14  C   UNL     1     140.782  70.084 226.609 -0.57 -0.00    +0.003 A  
DOCKED: ATOM     15  C   UNL     1     140.110  67.416 227.139 -0.36 -0.01    +0.041 A  
DOCKED: ATOM     16  C   UNL     1     141.051  69.528 227.869 -0.56 -0.01    +0.049 A  
DOCKED: ATOM     17  C   UNL     1     140.712  68.197 228.131 -0.55 -0.03    +0.123 A  
DOCKED: ATOM     18  F   UNL     1     140.966  67.664 229.352 -0.12 +0.06    -0.207 F  
DOCKED: ENDBRANCH   6   8
DOCKED: ENDBRANCH   5   6
DOCKED: ENDBRANCH   4   5
DOCKED: ENDBRANCH   1   4
DOCKED: BRANCH   1  19
DOCKED: ATOM     19  N   UNL     1     142.311  74.281 220.668 -0.13 +0.09    -0.339 N  
DOCKED: ATOM     20  C   UNL     1     142.836  72.927 220.606 -0.21 -0.02    +0.151 C  
DOCKED: ATOM     21  C   UNL     1     143.231  75.261 220.092 -0.31 -0.05    +0.093 C  
DOCKED: ATOM     22  C   UNL     1     144.308  73.062 220.222 -0.33 -0.02    +0.136 C  
DOCKED: ATOM     23  C   UNL     1     144.444  74.454 219.605 -0.26 -0.02    +0.059 C  
DOCKED: BRANCH  21  24
DOCKED: ATOM     24  C   UNL     1     142.562  76.048 218.941 -0.26 -0.04    +0.082 C  
DOCKED: BRANCH  24  25
DOCKED: ATOM     25  C   UNL     1     142.203  77.431 219.389 -0.29 -0.03    +0.054 A  
DOCKED: ATOM     26  N   UNL     1     142.054  77.728 220.708 -0.16 +0.17    -0.246 NA 
DOCKED: ATOM     27  C   UNL     1     142.101  78.520 218.522 -0.25 -0.06    +0.090 A  
DOCKED: ATOM     28  C   UNL     1     141.815  79.042 220.907 -0.29 -0.05    +0.095 A  
DOCKED: ATOM     29  S   UNL     1     141.805  79.888 219.453 -0.32 +0.07    -0.127 S  
DOCKED: BRANCH  28  30
DOCKED: ATOM     30  C   UNL     1     141.657  79.662 222.265 -0.48 -0.02    +0.042 C  
DOCKED: ATOM     31  C   UNL     1     141.055  78.652 223.245 -0.52 -0.00    +0.015 C  
DOCKED: ATOM     32  C   UNL     1     143.010  80.173 222.774 -0.61 -0.01    +0.015 C  
DOCKED: ENDBRANCH  28  30
DOCKED: ENDBRANCH  24  25
DOCKED: ENDBRANCH  21  24
DOCKED: BRANCH  22  33
DOCKED: ATOM     33  O   UNL     1     145.121  72.975 221.365 -0.27 +0.09    -0.391 OA 
DOCKED: ATOM     34  H   UNL     1     145.270  72.009 221.530 -0.41 -0.13    +0.211 HD 
DOCKED: ENDBRANCH  22  33
DOCKED: ENDBRANCH   1  19
DOCKED: TORSDOF 10
DOCKED: TER
DOCKED: ENDMDL
________________________________________________________________________________


    FINAL DOCKED STATE:
    ________________________


Run:   19 / 20
Time taken for this run:   0.124s

DOCKED: MODEL        19
DOCKED: USER    Run = 19
DOCKED: USER
DOCKED: USER    Estimated Free Energy of Binding    =  -8.29 kcal/mol  [=(1)+(2)+(3)-(4)]
DOCKED: USER
DOCKED: USER    (1) Final Intermolecular Energy     = -11.27 kcal/mol
DOCKED: USER        vdW + Hbond + desolv Energy     = -11.32 kcal/mol
DOCKED: USER        Electrostatic Energy            =  +0.05 kcal/mol
DOCKED: USER        Moving Ligand-Fixed Receptor    = -11.27 kcal/mol
DOCKED: USER        Moving Ligand-Moving Receptor   =  +0.00 kcal/mol
DOCKED: USER    (2) Final Total Internal Energy     =  -2.38 kcal/mol
DOCKED: USER    (3) Torsional Free Energy           =  +2.98 kcal/mol
DOCKED: USER    (4) Unbound System's Energy         =  -2.38 kcal/mol
DOCKED: USER
DOCKED: USER
DOCKED: REMARK SMILES CC(C)c1nc(C[C@@H]2C[C@@H](O)CN2/C(O)=C/[N-]C(=O)c2ccc3cc(F)ccc3n2)cs1
DOCKED: REMARK SMILES IDX 14 1 15 2 16 4 17 5 18 6 19 7 20 8 30 9 21 10 29 11 22 12
DOCKED: REMARK SMILES IDX 28 13 23 14 27 15 24 16 25 17 26 18 13 19 12 20 8 21 10 22
DOCKED: REMARK SMILES IDX 9 23 7 24 6 25 5 26 31 27 4 28 32 29 2 30 1 31 3 32 11 33
DOCKED: REMARK H PARENT 15 3 11 34
DOCKED: USER                              x       y       z     vdW  Elec       q    Type
DOCKED: USER                           _______ _______ _______ _____ _____    ______ ____
DOCKED: ROOT
DOCKED: ATOM      1  C   UNL     1     140.977  72.576 221.623 -0.22 -0.02    +0.164 C  
DOCKED: ENDROOT
DOCKED: BRANCH   1   2
DOCKED: ATOM      2  O   UNL     1     140.345  73.380 222.578 -0.63 -0.02    -0.496 OA 
DOCKED: ATOM      3  H   UNL     1     139.497  73.107 223.058 -0.31 -0.08    +0.295 HD 
DOCKED: ENDBRANCH   1   2
DOCKED: BRANCH   1   4
DOCKED: ATOM      4  C   UNL     1     140.502  71.348 221.354 -0.17 +0.01    -0.069 C  
DOCKED: BRANCH   4   5
DOCKED: ATOM      5  N   UNL     1     139.144  71.004 221.631 +0.02 +0.11    -0.623 NA 
DOCKED: BRANCH   5   6
DOCKED: ATOM      6  C   UNL     1     138.541  71.161 222.920 -0.20 -0.02    +0.104 C  
DOCKED: ATOM      7  O   UNL     1     137.646  72.032 223.101 -0.11 +0.11    -0.313 OA 
DOCKED: BRANCH   6   8
DOCKED: ATOM      8  C   UNL     1     138.970  70.292 224.031 -0.28 -0.02    +0.089 A  
DOCKED: ATOM      9  N   UNL     1     139.574  70.849 225.118 -0.26 +0.05    -0.246 NA 
DOCKED: ATOM     10  C   UNL     1     138.771  68.902 223.985 -0.30 -0.00    +0.031 A  
DOCKED: ATOM     11  C   UNL     1     139.998  70.101 226.172 -0.46 -0.01    +0.071 A  
DOCKED: ATOM     12  C   UNL     1     139.195  68.108 225.054 -0.43 -0.00    +0.013 A  
DOCKED: ATOM     13  C   UNL     1     140.618  70.715 227.264 -0.63 -0.01    +0.032 A  
DOCKED: ATOM     14  C   UNL     1     139.816  68.701 226.160 -0.54 -0.00    +0.003 A  
DOCKED: ATOM     15  C   UNL     1     141.064  69.942 228.340 -0.53 -0.01    +0.041 A  
DOCKED: ATOM     16  C   UNL     1     140.265  67.931 227.244 -0.61 -0.01    +0.049 A  
DOCKED: ATOM     17  C   UNL     1     140.891  68.554 228.329 -0.55 -0.03    +0.123 A  
DOCKED: ATOM     18  F   UNL     1     141.330  67.808 229.373 -0.17 +0.06    -0.207 F  
DOCKED: ENDBRANCH   6   8
DOCKED: ENDBRANCH   5   6
DOCKED: ENDBRANCH   4   5
DOCKED: ENDBRANCH   1   4
DOCKED: BRANCH   1  19
DOCKED: ATOM     19  N   UNL     1     142.130  73.109 220.932 -0.11 +0.05    -0.339 N  
DOCKED: ATOM     20  C   UNL     1     143.136  72.230 220.360 -0.21 -0.02    +0.151 C  
DOCKED: ATOM     21  C   UNL     1     142.537  74.513 220.906 -0.14 -0.03    +0.093 C  
DOCKED: ATOM     22  C   UNL     1     144.398  73.078 220.207 -0.34 -0.02    +0.136 C  
DOCKED: ATOM     23  C   UNL     1     143.923  74.530 220.243 -0.39 -0.02    +0.059 C  
DOCKED: BRANCH  21  24
DOCKED: ATOM     24  C   UNL     1     141.516  75.379 220.130 -0.21 -0.03    +0.082 C  
DOCKED: BRANCH  24  25
DOCKED: ATOM     25  C   UNL     1     140.724  76.230 221.075 -0.27 -0.02    +0.054 A  
DOCKED: ATOM     26  N   UNL     1     141.231  77.390 221.570 -0.19 +0.12    -0.246 NA 
DOCKED: ATOM     27  C   UNL     1     139.400  75.963 221.427 -0.23 -0.02    +0.090 A  
DOCKED: ATOM     28  C   UNL     1     140.333  78.050 222.333 -0.34 -0.03    +0.095 A  
DOCKED: ATOM     29  S   UNL     1     138.867  77.228 222.399 -0.32 +0.02    -0.127 S  
DOCKED: BRANCH  28  30
DOCKED: ATOM     30  C   UNL     1     140.602  79.382 222.970 -0.44 -0.01    +0.042 C  
DOCKED: ATOM     31  C   UNL     1     139.400  79.824 223.808 -0.43 -0.00    +0.015 C  
DOCKED: ATOM     32  C   UNL     1     141.869  79.312 223.829 -0.61 -0.00    +0.015 C  
DOCKED: ENDBRANCH  28  30
DOCKED: ENDBRANCH  24  25
DOCKED: ENDBRANCH  21  24
DOCKED: BRANCH  22  33
DOCKED: ATOM     33  O   UNL     1     145.275  72.846 221.280 -0.29 +0.09    -0.391 OA 
DOCKED: ATOM     34  H   UNL     1     145.195  71.884 221.505 -0.41 -0.14    +0.211 HD 
DOCKED: ENDBRANCH  22  33
DOCKED: ENDBRANCH   1  19
DOCKED: TORSDOF 10
DOCKED: TER
DOCKED: ENDMDL
________________________________________________________________________________


    FINAL DOCKED STATE:
    ________________________


Run:   20 / 20
Time taken for this run:   0.124s

DOCKED: MODEL        20
DOCKED: USER    Run = 20
DOCKED: USER
DOCKED: USER    Estimated Free Energy of Binding    =  -8.14 kcal/mol  [=(1)+(2)+(3)-(4)]
DOCKED: USER
DOCKED: USER    (1) Final Intermolecular Energy     = -11.12 kcal/mol
DOCKED: USER        vdW + Hbond + desolv Energy     = -11.29 kcal/mol
DOCKED: USER        Electrostatic Energy            =  +0.17 kcal/mol
DOCKED: USER        Moving Ligand-Fixed Receptor    = -11.12 kcal/mol
DOCKED: USER        Moving Ligand-Moving Receptor   =  +0.00 kcal/mol
DOCKED: USER    (2) Final Total Internal Energy     =  -1.52 kcal/mol
DOCKED: USER    (3) Torsional Free Energy           =  +2.98 kcal/mol
DOCKED: USER    (4) Unbound System's Energy         =  -1.52 kcal/mol
DOCKED: USER
DOCKED: USER
DOCKED: REMARK SMILES CC(C)c1nc(C[C@@H]2C[C@@H](O)CN2/C(O)=C/[N-]C(=O)c2ccc3cc(F)ccc3n2)cs1
DOCKED: REMARK SMILES IDX 14 1 15 2 16 4 17 5 18 6 19 7 20 8 30 9 21 10 29 11 22 12
DOCKED: REMARK SMILES IDX 28 13 23 14 27 15 24 16 25 17 26 18 13 19 12 20 8 21 10 22
DOCKED: REMARK SMILES IDX 9 23 7 24 6 25 5 26 31 27 4 28 32 29 2 30 1 31 3 32 11 33
DOCKED: REMARK H PARENT 15 3 11 34
DOCKED: USER                              x       y       z     vdW  Elec       q    Type
DOCKED: USER                           _______ _______ _______ _____ _____    ______ ____
DOCKED: ROOT
DOCKED: ATOM      1  C   UNL     1     141.024  74.196 221.415 -0.22 -0.02    +0.164 C  
DOCKED: ENDROOT
DOCKED: BRANCH   1   2
DOCKED: ATOM      2  O   UNL     1     140.414  75.271 222.070 -0.51 +0.06    -0.496 OA 
DOCKED: ATOM      3  H   UNL     1     139.704  75.155 222.782 -0.06 -0.01    +0.295 HD 
DOCKED: ENDBRANCH   1   2
DOCKED: BRANCH   1   4
DOCKED: ATOM      4  C   UNL     1     140.681  72.934 221.725 -0.27 +0.01    -0.069 C  
DOCKED: BRANCH   4   5
DOCKED: ATOM      5  N   UNL     1     139.729  72.659 222.754 -0.25 +0.12    -0.623 NA 
DOCKED: BRANCH   5   6
DOCKED: ATOM      6  C   UNL     1     139.020  71.418 222.857 -0.23 -0.02    +0.104 C  
DOCKED: ATOM      7  O   UNL     1     138.156  71.107 221.991 -0.06 +0.06    -0.313 OA 
DOCKED: BRANCH   6   8
DOCKED: ATOM      8  C   UNL     1     139.313  70.508 223.978 -0.30 -0.02    +0.089 A  
DOCKED: ATOM      9  N   UNL     1     139.933  70.996 225.089 -0.29 +0.04    -0.246 NA 
DOCKED: ATOM     10  C   UNL     1     138.970  69.147 223.919 -0.29 -0.00    +0.031 A  
DOCKED: ATOM     11  C   UNL     1     140.235  70.207 226.155 -0.48 -0.01    +0.071 A  
DOCKED: ATOM     12  C   UNL     1     139.267  68.311 224.998 -0.42 -0.00    +0.013 A  
DOCKED: ATOM     13  C   UNL     1     140.877  70.749 227.272 -0.63 -0.01    +0.032 A  
DOCKED: ATOM     14  C   UNL     1     139.907  68.833 226.129 -0.53 -0.00    +0.003 A  
DOCKED: ATOM     15  C   UNL     1     141.199  69.932 228.359 -0.47 -0.01    +0.041 A  
DOCKED: ATOM     16  C   UNL     1     140.231  68.019 227.225 -0.62 -0.01    +0.049 A  
DOCKED: ATOM     17  C   UNL     1     140.879  68.570 228.335 -0.55 -0.03    +0.123 A  
DOCKED: ATOM     18  F   UNL     1     141.198  67.781 229.391 -0.17 +0.06    -0.207 F  
DOCKED: ENDBRANCH   6   8
DOCKED: ENDBRANCH   5   6
DOCKED: ENDBRANCH   4   5
DOCKED: ENDBRANCH   1   4
DOCKED: BRANCH   1  19
DOCKED: ATOM     19  N   UNL     1     142.008  74.482 220.395 -0.11 +0.10    -0.339 N  
DOCKED: ATOM     20  C   UNL     1     142.710  73.413 219.706 -0.16 -0.03    +0.151 C  
DOCKED: ATOM     21  C   UNL     1     142.565  75.800 220.091 -0.27 -0.05    +0.093 C  
DOCKED: ATOM     22  C   UNL     1     143.981  74.041 219.136 -0.23 -0.04    +0.136 C  
DOCKED: ATOM     23  C   UNL     1     143.716  75.546 219.105 -0.26 -0.03    +0.059 C  
DOCKED: BRANCH  21  24
DOCKED: ATOM     24  C   UNL     1     141.490  76.737 219.492 -0.19 -0.04    +0.082 C  
DOCKED: BRANCH  24  25
DOCKED: ATOM     25  C   UNL     1     141.568  78.095 220.121 -0.26 -0.03    +0.054 A  
DOCKED: ATOM     26  N   UNL     1     141.860  78.244 221.440 -0.20 +0.15    -0.246 NA 
DOCKED: ATOM     27  C   UNL     1     141.458  79.284 219.399 -0.22 -0.05    +0.090 A  
DOCKED: ATOM     28  C   UNL     1     141.967  79.544 221.791 -0.39 -0.04    +0.095 A  
DOCKED: ATOM     29  S   UNL     1     141.728  80.555 220.468 -0.35 +0.05    -0.127 S  
DOCKED: BRANCH  28  30
DOCKED: ATOM     30  C   UNL     1     142.329  80.005 223.172 -0.62 -0.01    +0.042 C  
DOCKED: ATOM     31  C   UNL     1     141.777  81.410 223.427 -0.55 -0.00    +0.015 C  
DOCKED: ATOM     32  C   UNL     1     141.799  79.016 224.216 -0.52 -0.00    +0.015 C  
DOCKED: ENDBRANCH  28  30
DOCKED: ENDBRANCH  24  25
DOCKED: ENDBRANCH  21  24
DOCKED: BRANCH  22  33
DOCKED: ATOM     33  O   UNL     1     145.076  73.775 219.976 -0.26 +0.07    -0.391 OA 
DOCKED: ATOM     34  H   UNL     1     145.819  74.348 219.658 -0.34 -0.08    +0.211 HD 
DOCKED: ENDBRANCH  22  33
DOCKED: ENDBRANCH   1  19
DOCKED: TORSDOF 10
DOCKED: TER
DOCKED: ENDMDL
________________________________________________________________________________


    CLUSTERING HISTOGRAM
    ____________________


________________________________________________________________________________
     |           |     |           |     |
Clus | Lowest    | Run | Mean      | Num | Histogram
-ter | Binding   |     | Binding   | in  |
Rank | Energy    |     | Energy    | Clus|    5    10   15   20   25   30   35
_____|___________|_____|___________|_____|____:____|____:____|____:____|____:___
   1 |     -8.56 |  18 |     -8.02 |  10 |##########
   2 |     -8.07 |   3 |     -8.07 |   1 |#
   3 |     -7.46 |  13 |     -7.24 |   2 |##
   4 |     -6.42 |   8 |     -6.42 |   1 |#
   5 |     -6.21 |   5 |     -6.21 |   1 |#
   6 |     -6.16 |   1 |     -6.16 |   1 |#
   7 |     -5.55 |   6 |     -5.23 |   3 |###
   8 |     -5.06 |  11 |     -5.06 |   1 |#
_____|___________|_____|___________|_____|______________________________________


    RMSD TABLE
    __________


_______________________________________________________________________
     |      |      |           |         |                 |
Rank | Sub- | Run  | Binding   | Cluster | Reference       | Grep
     | Rank |      | Energy    | RMSD    | RMSD            | Pattern
_____|______|______|___________|_________|_________________|___________
   1      1     18       -8.56      0.00    272.63           RANKING
   1      2     14       -8.42      1.37    272.46           RANKING
   1      3     12       -8.37      0.58    272.47           RANKING
   1      4     19       -8.29      1.89    272.43           RANKING
   1      5     10       -8.25      1.78    272.42           RANKING
   1      6     20       -8.14      1.26    272.58           RANKING
   1      7      9       -7.90      1.42    272.45           RANKING
   1      8      2       -7.59      1.42    272.26           RANKING
   1      9      7       -7.37      1.29    272.33           RANKING
   1     10     16       -7.28      1.90    272.22           RANKING
   2      1      3       -8.07      0.00    272.52           RANKING
   3      1     13       -7.46      0.00    272.09           RANKING
   3      2     15       -7.02      1.30    272.27           RANKING
   4      1      8       -6.42      0.00    271.63           RANKING
   5      1      5       -6.21      0.00    273.43           RANKING
   6      1      1       -6.16      0.00    271.77           RANKING
   7      1      6       -5.55      0.00    272.08           RANKING
   7      2      4       -5.12      0.47    271.85           RANKING
   7      3     17       -5.02      1.07    271.73           RANKING
   8      1     11       -5.06      0.00    270.98           RANKING

Run time 2.525 sec
Idle time 0.299 sec
