AutoDock-GPU version: v1.6

**********************************************************
**    AutoDock-GPU AUTODOCKTOOLS-COMPATIBLE DLG FILE    **
**********************************************************


    DOCKING PARAMETERS
    ________________________


Ligand file:                               /home/a/REINVENT4/ReinventStudies/pleaseWork/justmol2mol_4/graph-dock/graph-DockGPU/node-autodockgpu/inputs/YVEJUURWTNRCTO-ISWZFFGWNA-N.pdbqt
Grid fld file:                             /home/a/REINVENT4/ReinventStudies/mols/Rad51/maps/rad51_receptor.maps.fld

Random seed:                               42
Number of runs:                            20
Number of energy evaluations:              2542121
Number of generations:                     42000
Size of population:                        150
Rate of crossover:                         80.000000%
Tournament selection probability limit:    60.000000%
Rate of mutation:                          2.000000%
Maximal allowed delta movement:            +/- 6.000000A
Maximal allowed delta angle:               +/- 90.000000

Rate of local search:                      100.000000%
Maximal number of local search iterations: 300
Rho lower bound:                           0.010000
Spread of local search delta movement:     2.000000A
Spread of local search delta angle:        74.999999
Limit of consecutive successes/failures:   4

Handle symmetry during clustering:         YES
RMSD tolerance:                            2.000000A

Program call in command line was:          /home/a/REINVENT4/ReinventStudies/adgpu-v1.6_linux_x64_cuda12_128wi --filelist batch.txt --heuristics 1 --nrun 20 --psize 150 --lsit 300 --seed 42 --heurmax 12000000 


    GRID PARAMETERS
    ________________________


Receptor name:                             rad51_receptor
Number of grid points (x, y, z):           53, 53, 53
Grid center (x, y, z):                     139.950000, 75.640000, 221.970000A
Grid size (x, y, z):                       19.500000, 19.500000, 19.500000A
Grid spacing:                              0.375000A


    LIGAND PARAMETERS
    ________________________


Ligand name:                               /home/a/REINVENT4/ReinventStudies/pleaseWork/justmol2mol_4/graph-dock/graph-DockGPU/node-autodockgpu/inputs/YVEJUURWTNRCTO-ISWZFFGWNA-N
Number of atoms:                           34
Number of rotatable bonds:                 10
Number of atom types:                      8


    DUMMY DATA (only for ADT-compatibility)
    ________________________


DPF> outlev 1
DPF> ga_run 20
DPF> fld /home/a/REINVENT4/ReinventStudies/mols/Rad51/maps/rad51_receptor.maps.fld
DPF> move /home/a/REINVENT4/ReinventStudies/pleaseWork/justmol2mol_4/graph-dock/graph-DockGPU/node-autodockgpu/inputs/YVEJUURWTNRCTO-ISWZFFGWNA-N.pdbqt


    COUNTER STATES
    ________________________


Number of energy evaluations performed:    995770
Number of generations used:                60


    INPUT LIGAND PDBQT FILE:
    ________________________


INPUT-LIGAND-PDBQT: REMARK SMILES CC(C)c1nc(C[C@@H]2C[C@@H](O)CN2C(=O)C/N=C(\O)c2ccc3cc(F)ccc3n2)cs1
INPUT-LIGAND-PDBQT: REMARK SMILES IDX 14 1 15 2 16 3 17 4 18 5 19 6 20 8 30 9 21 10 29 11 22 12
INPUT-LIGAND-PDBQT: REMARK SMILES IDX 28 13 23 14 27 15 24 16 25 17 26 18 13 19 12 20 8 21 10 22
INPUT-LIGAND-PDBQT: REMARK SMILES IDX 9 23 7 24 6 25 5 26 31 27 4 28 32 29 2 30 1 31 3 32 11 33
INPUT-LIGAND-PDBQT: REMARK H PARENT 19 7 11 34
INPUT-LIGAND-PDBQT: ROOT
INPUT-LIGAND-PDBQT: ATOM      1  C   UNL     1       0.449   0.600  -3.672  1.00  0.00     0.244 C 
INPUT-LIGAND-PDBQT: ATOM      2  O   UNL     1       1.059  -0.394  -4.147  1.00  0.00    -0.273 OA
INPUT-LIGAND-PDBQT: ENDROOT
INPUT-LIGAND-PDBQT: BRANCH   1   3
INPUT-LIGAND-PDBQT: ATOM      3  C   UNL     1       1.191   1.584  -2.818  1.00  0.00     0.246 C 
INPUT-LIGAND-PDBQT: BRANCH   3   4
INPUT-LIGAND-PDBQT: ATOM      4  N   UNL     1       0.698   1.538  -1.447  1.00  0.00    -0.240 NA
INPUT-LIGAND-PDBQT: BRANCH   4   5
INPUT-LIGAND-PDBQT: ATOM      5  C   UNL     1       1.176   2.234  -0.456  1.00  0.00     0.233 C 
INPUT-LIGAND-PDBQT: BRANCH   5   6
INPUT-LIGAND-PDBQT: ATOM      6  O   UNL     1       2.264   3.097  -0.626  1.00  0.00    -0.492 OA
INPUT-LIGAND-PDBQT: ATOM      7  H   UNL     1       2.727   3.239  -1.515  1.00  0.00     0.295 HD
INPUT-LIGAND-PDBQT: ENDBRANCH   5   6
INPUT-LIGAND-PDBQT: BRANCH   5   8
INPUT-LIGAND-PDBQT: ATOM      8  C   UNL     1       0.557   2.106   0.875  1.00  0.00     0.125 A 
INPUT-LIGAND-PDBQT: ATOM      9  N   UNL     1      -0.623   1.437   1.010  1.00  0.00    -0.243 NA
INPUT-LIGAND-PDBQT: ATOM     10  C   UNL     1       1.176   2.656   2.010  1.00  0.00     0.035 A 
INPUT-LIGAND-PDBQT: ATOM     11  C   UNL     1      -1.232   1.284   2.217  1.00  0.00     0.071 A 
INPUT-LIGAND-PDBQT: ATOM     12  C   UNL     1       0.578   2.509   3.263  1.00  0.00     0.013 A 
INPUT-LIGAND-PDBQT: ATOM     13  C   UNL     1      -2.452   0.604   2.309  1.00  0.00     0.032 A 
INPUT-LIGAND-PDBQT: ATOM     14  C   UNL     1      -0.636   1.820   3.380  1.00  0.00     0.003 A 
INPUT-LIGAND-PDBQT: ATOM     15  C   UNL     1      -3.072   0.444   3.552  1.00  0.00     0.041 A 
INPUT-LIGAND-PDBQT: ATOM     16  C   UNL     1      -1.265   1.661   4.623  1.00  0.00     0.049 A 
INPUT-LIGAND-PDBQT: ATOM     17  C   UNL     1      -2.482   0.974   4.707  1.00  0.00     0.123 A 
INPUT-LIGAND-PDBQT: ATOM     18  F   UNL     1      -3.090   0.818   5.908  1.00  0.00    -0.207 F 
INPUT-LIGAND-PDBQT: ENDBRANCH   5   8
INPUT-LIGAND-PDBQT: ENDBRANCH   4   5
INPUT-LIGAND-PDBQT: ENDBRANCH   3   4
INPUT-LIGAND-PDBQT: ENDBRANCH   1   3
INPUT-LIGAND-PDBQT: BRANCH   1  19
INPUT-LIGAND-PDBQT: ATOM     19  N   UNL     1      -0.918   0.824  -4.041  1.00  0.00    -0.335 N 
INPUT-LIGAND-PDBQT: ATOM     20  C   UNL     1      -1.270   1.178  -5.407  1.00  0.00     0.151 C 
INPUT-LIGAND-PDBQT: ATOM     21  C   UNL     1      -2.024   1.005  -3.104  1.00  0.00     0.093 C 
INPUT-LIGAND-PDBQT: ATOM     22  C   UNL     1      -2.741   1.577  -5.358  1.00  0.00     0.136 C 
INPUT-LIGAND-PDBQT: ATOM     23  C   UNL     1      -3.023   1.871  -3.882  1.00  0.00     0.059 C 
INPUT-LIGAND-PDBQT: BRANCH  21  24
INPUT-LIGAND-PDBQT: ATOM     24  C   UNL     1      -2.648  -0.363  -2.732  1.00  0.00     0.082 C 
INPUT-LIGAND-PDBQT: BRANCH  24  25
INPUT-LIGAND-PDBQT: ATOM     25  C   UNL     1      -1.941  -1.071  -1.605  1.00  0.00     0.054 A 
INPUT-LIGAND-PDBQT: ATOM     26  N   UNL     1      -0.590  -1.240  -1.572  1.00  0.00    -0.246 NA
INPUT-LIGAND-PDBQT: ATOM     27  C   UNL     1      -2.635  -1.716  -0.581  1.00  0.00     0.090 A 
INPUT-LIGAND-PDBQT: ATOM     28  C   UNL     1      -0.197  -1.992  -0.517  1.00  0.00     0.095 A 
INPUT-LIGAND-PDBQT: ATOM     29  S   UNL     1      -1.514  -2.484   0.406  1.00  0.00    -0.127 S 
INPUT-LIGAND-PDBQT: BRANCH  28  30
INPUT-LIGAND-PDBQT: ATOM     30  C   UNL     1       1.234  -2.336  -0.196  1.00  0.00     0.042 C 
INPUT-LIGAND-PDBQT: ATOM     31  C   UNL     1       2.136  -2.241  -1.431  1.00  0.00     0.015 C 
INPUT-LIGAND-PDBQT: ATOM     32  C   UNL     1       1.760  -1.438   0.927  1.00  0.00     0.015 C 
INPUT-LIGAND-PDBQT: ENDBRANCH  28  30
INPUT-LIGAND-PDBQT: ENDBRANCH  24  25
INPUT-LIGAND-PDBQT: ENDBRANCH  21  24
INPUT-LIGAND-PDBQT: BRANCH  22  33
INPUT-LIGAND-PDBQT: ATOM     33  O   UNL     1      -2.979   2.706  -6.158  1.00  0.00    -0.391 OA
INPUT-LIGAND-PDBQT: ATOM     34  H   UNL     1      -3.965   2.796  -6.227  1.00  0.00     0.211 HD
INPUT-LIGAND-PDBQT: ENDBRANCH  22  33
INPUT-LIGAND-PDBQT: ENDBRANCH   1  19
INPUT-LIGAND-PDBQT: TORSDOF 10


    FINAL DOCKED STATE:
    ________________________


Run:   1 / 20
Time taken for this run:   0.103s

DOCKED: MODEL        1
DOCKED: USER    Run = 1
DOCKED: USER
DOCKED: USER    Estimated Free Energy of Binding    =  -8.64 kcal/mol  [=(1)+(2)+(3)-(4)]
DOCKED: USER
DOCKED: USER    (1) Final Intermolecular Energy     = -11.62 kcal/mol
DOCKED: USER        vdW + Hbond + desolv Energy     = -11.41 kcal/mol
DOCKED: USER        Electrostatic Energy            =  -0.21 kcal/mol
DOCKED: USER        Moving Ligand-Fixed Receptor    = -11.62 kcal/mol
DOCKED: USER        Moving Ligand-Moving Receptor   =  +0.00 kcal/mol
DOCKED: USER    (2) Final Total Internal Energy     =  -1.28 kcal/mol
DOCKED: USER    (3) Torsional Free Energy           =  +2.98 kcal/mol
DOCKED: USER    (4) Unbound System's Energy         =  -1.28 kcal/mol
DOCKED: USER
DOCKED: USER
DOCKED: REMARK SMILES CC(C)c1nc(C[C@@H]2C[C@@H](O)CN2C(=O)C/N=C(\O)c2ccc3cc(F)ccc3n2)cs1
DOCKED: REMARK SMILES IDX 14 1 15 2 16 3 17 4 18 5 19 6 20 8 30 9 21 10 29 11 22 12
DOCKED: REMARK SMILES IDX 28 13 23 14 27 15 24 16 25 17 26 18 13 19 12 20 8 21 10 22
DOCKED: REMARK SMILES IDX 9 23 7 24 6 25 5 26 31 27 4 28 32 29 2 30 1 31 3 32 11 33
DOCKED: REMARK H PARENT 19 7 11 34
DOCKED: USER                              x       y       z     vdW  Elec       q    Type
DOCKED: USER                           _______ _______ _______ _____ _____    ______ ____
DOCKED: ROOT
DOCKED: ATOM      1  C   UNL     1     141.675  72.644 219.382 -0.05 -0.04    +0.244 C  
DOCKED: ATOM      2  O   UNL     1     140.875  73.023 218.487 -0.01 +0.06    -0.273 OA 
DOCKED: ENDROOT
DOCKED: BRANCH   1   3
DOCKED: ATOM      3  C   UNL     1     141.297  71.502 220.276 -0.08 -0.04    +0.246 C  
DOCKED: BRANCH   3   4
DOCKED: ATOM      4  N   UNL     1     140.069  71.809 220.999 -0.08 +0.04    -0.240 NA 
DOCKED: BRANCH   4   5
DOCKED: ATOM      5  C   UNL     1     140.012  72.335 222.188 -0.21 -0.03    +0.233 C  
DOCKED: BRANCH   5   6
DOCKED: ATOM      6  O   UNL     1     139.962  73.721 222.374 -0.74 +0.03    -0.492 OA 
DOCKED: ATOM      7  H   UNL     1     139.386  74.167 223.076 -0.47 -0.07    +0.295 HD 
DOCKED: ENDBRANCH   5   6
DOCKED: BRANCH   5   8
DOCKED: ATOM      8  C   UNL     1     140.002  71.448 223.365 -0.31 -0.02    +0.125 A  
DOCKED: ATOM      9  N   UNL     1     140.491  71.899 224.555 -0.26 +0.04    -0.243 NA 
DOCKED: ATOM     10  C   UNL     1     139.484  70.145 223.278 -0.25 -0.01    +0.035 A  
DOCKED: ATOM     11  C   UNL     1     140.499  71.124 225.673 -0.53 -0.01    +0.071 A  
DOCKED: ATOM     12  C   UNL     1     139.472  69.329 224.410 -0.33 -0.00    +0.013 A  
DOCKED: ATOM     13  C   UNL     1     141.025  71.620 226.871 -0.72 -0.01    +0.032 A  
DOCKED: ATOM     14  C   UNL     1     139.981  69.811 225.623 -0.46 -0.00    +0.003 A  
DOCKED: ATOM     15  C   UNL     1     141.026  70.822 228.019 -0.65 -0.01    +0.041 A  
DOCKED: ATOM     16  C   UNL     1     139.989  69.013 226.776 -0.53 -0.01    +0.049 A  
DOCKED: ATOM     17  C   UNL     1     140.512  69.520 227.972 -0.52 -0.02    +0.123 A  
DOCKED: ATOM     18  F   UNL     1     140.519  68.751 229.088 -0.13 +0.04    -0.207 F  
DOCKED: ENDBRANCH   5   8
DOCKED: ENDBRANCH   4   5
DOCKED: ENDBRANCH   3   4
DOCKED: ENDBRANCH   1   3
DOCKED: BRANCH   1  19
DOCKED: ATOM     19  N   UNL     1     142.973  73.247 219.462 -0.05 +0.07    -0.335 N  
DOCKED: ATOM     20  C   UNL     1     144.176  72.444 219.312 -0.19 -0.00    +0.151 C  
DOCKED: ATOM     21  C   UNL     1     143.247  74.592 219.962 -0.31 -0.04    +0.093 C  
DOCKED: ATOM     22  C   UNL     1     145.330  73.361 219.703 -0.38 +0.00    +0.136 C  
DOCKED: ATOM     23  C   UNL     1     144.681  74.497 220.498 -0.41 -0.02    +0.059 C  
DOCKED: BRANCH  21  24
DOCKED: ATOM     24  C   UNL     1     143.152  75.627 218.813 -0.27 -0.04    +0.082 C  
DOCKED: BRANCH  24  25
DOCKED: ATOM     25  C   UNL     1     142.661  76.983 219.250 -0.32 -0.04    +0.054 A  
DOCKED: ATOM     26  N   UNL     1     142.155  77.219 220.492 -0.16 +0.17    -0.246 NA 
DOCKED: ATOM     27  C   UNL     1     142.572  78.061 218.369 -0.29 -0.07    +0.090 A  
DOCKED: ATOM     28  C   UNL     1     141.686  78.483 220.619 -0.27 -0.05    +0.095 A  
DOCKED: ATOM     29  S   UNL     1     141.873  79.349 219.189 -0.30 +0.08    -0.127 S  
DOCKED: BRANCH  28  30
DOCKED: ATOM     30  C   UNL     1     141.087  79.052 221.878 -0.37 -0.02    +0.042 C  
DOCKED: ATOM     31  C   UNL     1     140.224  78.024 222.617 -0.39 -0.00    +0.015 C  
DOCKED: ATOM     32  C   UNL     1     142.187  79.593 222.795 -0.60 -0.01    +0.015 C  
DOCKED: ENDBRANCH  28  30
DOCKED: ENDBRANCH  24  25
DOCKED: ENDBRANCH  21  24
DOCKED: BRANCH  22  33
DOCKED: ATOM     33  O   UNL     1     146.276  72.671 220.477 -0.37 -0.10    -0.391 OA 
DOCKED: ATOM     34  H   UNL     1     145.775  72.260 221.229 -0.41 -0.07    +0.211 HD 
DOCKED: ENDBRANCH  22  33
DOCKED: ENDBRANCH   1  19
DOCKED: TORSDOF 10
DOCKED: TER
DOCKED: ENDMDL
________________________________________________________________________________


    FINAL DOCKED STATE:
    ________________________


Run:   2 / 20
Time taken for this run:   0.103s

DOCKED: MODEL        2
DOCKED: USER    Run = 2
DOCKED: USER
DOCKED: USER    Estimated Free Energy of Binding    =  -8.57 kcal/mol  [=(1)+(2)+(3)-(4)]
DOCKED: USER
DOCKED: USER    (1) Final Intermolecular Energy     = -11.55 kcal/mol
DOCKED: USER        vdW + Hbond + desolv Energy     = -11.32 kcal/mol
DOCKED: USER        Electrostatic Energy            =  -0.23 kcal/mol
DOCKED: USER        Moving Ligand-Fixed Receptor    = -11.55 kcal/mol
DOCKED: USER        Moving Ligand-Moving Receptor   =  +0.00 kcal/mol
DOCKED: USER    (2) Final Total Internal Energy     =  -1.32 kcal/mol
DOCKED: USER    (3) Torsional Free Energy           =  +2.98 kcal/mol
DOCKED: USER    (4) Unbound System's Energy         =  -1.32 kcal/mol
DOCKED: USER
DOCKED: USER
DOCKED: REMARK SMILES CC(C)c1nc(C[C@@H]2C[C@@H](O)CN2C(=O)C/N=C(\O)c2ccc3cc(F)ccc3n2)cs1
DOCKED: REMARK SMILES IDX 14 1 15 2 16 3 17 4 18 5 19 6 20 8 30 9 21 10 29 11 22 12
DOCKED: REMARK SMILES IDX 28 13 23 14 27 15 24 16 25 17 26 18 13 19 12 20 8 21 10 22
DOCKED: REMARK SMILES IDX 9 23 7 24 6 25 5 26 31 27 4 28 32 29 2 30 1 31 3 32 11 33
DOCKED: REMARK H PARENT 19 7 11 34
DOCKED: USER                              x       y       z     vdW  Elec       q    Type
DOCKED: USER                           _______ _______ _______ _____ _____    ______ ____
DOCKED: ROOT
DOCKED: ATOM      1  C   UNL     1     141.789  72.033 220.457 -0.11 -0.03    +0.244 C  
DOCKED: ATOM      2  O   UNL     1     141.269  71.191 219.678 -0.05 +0.04    -0.273 OA 
DOCKED: ENDROOT
DOCKED: BRANCH   1   3
DOCKED: ATOM      3  C   UNL     1     141.476  71.976 221.922 -0.03 -0.02    +0.246 C  
DOCKED: BRANCH   3   4
DOCKED: ATOM      4  N   UNL     1     140.238  72.693 222.204 -0.38 +0.03    -0.240 NA 
DOCKED: BRANCH   4   5
DOCKED: ATOM      5  C   UNL     1     139.212  72.196 222.832 -0.09 -0.06    +0.233 C  
DOCKED: BRANCH   5   6
DOCKED: ATOM      6  O   UNL     1     137.907  72.612 222.545 -0.04 +0.17    -0.492 OA 
DOCKED: ATOM      7  H   UNL     1     137.356  73.185 223.173 -0.45 -0.16    +0.295 HD 
DOCKED: ENDBRANCH   5   6
DOCKED: BRANCH   5   8
DOCKED: ATOM      8  C   UNL     1     139.432  71.173 223.870 -0.31 -0.03    +0.125 A  
DOCKED: ATOM      9  N   UNL     1     140.011  71.525 225.053 -0.29 +0.05    -0.243 NA 
DOCKED: ATOM     10  C   UNL     1     139.040  69.841 223.659 -0.27 -0.01    +0.035 A  
DOCKED: ATOM     11  C   UNL     1     140.229  70.622 226.047 -0.50 -0.01    +0.071 A  
DOCKED: ATOM     12  C   UNL     1     139.246  68.893 224.663 -0.37 -0.00    +0.013 A  
DOCKED: ATOM     13  C   UNL     1     140.842  71.022 227.240 -0.67 -0.01    +0.032 A  
DOCKED: ATOM     14  C   UNL     1     139.844  69.274 225.871 -0.48 -0.00    +0.003 A  
DOCKED: ATOM     15  C   UNL     1     141.060  70.092 228.261 -0.54 -0.01    +0.041 A  
DOCKED: ATOM     16  C   UNL     1     140.070  68.345 226.896 -0.60 -0.01    +0.049 A  
DOCKED: ATOM     17  C   UNL     1     140.678  68.754 228.089 -0.55 -0.03    +0.123 A  
DOCKED: ATOM     18  F   UNL     1     140.895  67.858 229.081 -0.18 +0.06    -0.207 F  
DOCKED: ENDBRANCH   5   8
DOCKED: ENDBRANCH   4   5
DOCKED: ENDBRANCH   3   4
DOCKED: ENDBRANCH   1   3
DOCKED: BRANCH   1  19
DOCKED: ATOM     19  N   UNL     1     142.748  72.965 219.941 -0.07 +0.06    -0.335 N  
DOCKED: ATOM     20  C   UNL     1     143.780  72.531 219.013 -0.13 -0.01    +0.151 C  
DOCKED: ATOM     21  C   UNL     1     142.984  74.308 220.467 -0.29 -0.03    +0.093 C  
DOCKED: ATOM     22  C   UNL     1     144.740  73.710 218.891 -0.18 -0.02    +0.136 C  
DOCKED: ATOM     23  C   UNL     1     144.451  74.584 220.115 -0.40 -0.02    +0.059 C  
DOCKED: BRANCH  21  24
DOCKED: ATOM     24  C   UNL     1     142.046  75.331 219.779 -0.22 -0.03    +0.082 C  
DOCKED: BRANCH  24  25
DOCKED: ATOM     25  C   UNL     1     141.429  76.327 220.726 -0.27 -0.02    +0.054 A  
DOCKED: ATOM     26  N   UNL     1     141.873  77.610 220.840 -0.17 +0.16    -0.246 NA 
DOCKED: ATOM     27  C   UNL     1     140.444  75.967 221.645 -0.32 -0.02    +0.090 A  
DOCKED: ATOM     28  C   UNL     1     141.233  78.284 221.824 -0.34 -0.04    +0.095 A  
DOCKED: ATOM     29  S   UNL     1     140.101  77.308 222.596 -0.33 +0.03    -0.127 S  
DOCKED: BRANCH  28  30
DOCKED: ATOM     30  C   UNL     1     141.485  79.726 222.178 -0.45 -0.01    +0.042 C  
DOCKED: ATOM     31  C   UNL     1     140.435  80.268 223.153 -0.45 -0.00    +0.015 C  
DOCKED: ATOM     32  C   UNL     1     142.894  79.896 222.754 -0.61 -0.01    +0.015 C  
DOCKED: ENDBRANCH  28  30
DOCKED: ENDBRANCH  24  25
DOCKED: ENDBRANCH  21  24
DOCKED: BRANCH  22  33
DOCKED: ATOM     33  O   UNL     1     146.073  73.270 218.881 -0.70 -0.23    -0.391 OA 
DOCKED: ATOM     34  H   UNL     1     146.637  74.087 218.903 -0.48 +0.02    +0.211 HD 
DOCKED: ENDBRANCH  22  33
DOCKED: ENDBRANCH   1  19
DOCKED: TORSDOF 10
DOCKED: TER
DOCKED: ENDMDL
________________________________________________________________________________


    FINAL DOCKED STATE:
    ________________________


Run:   3 / 20
Time taken for this run:   0.103s

DOCKED: MODEL        3
DOCKED: USER    Run = 3
DOCKED: USER
DOCKED: USER    Estimated Free Energy of Binding    =  -7.18 kcal/mol  [=(1)+(2)+(3)-(4)]
DOCKED: USER
DOCKED: USER    (1) Final Intermolecular Energy     = -10.16 kcal/mol
DOCKED: USER        vdW + Hbond + desolv Energy     = -10.14 kcal/mol
DOCKED: USER        Electrostatic Energy            =  -0.02 kcal/mol
DOCKED: USER        Moving Ligand-Fixed Receptor    = -10.16 kcal/mol
DOCKED: USER        Moving Ligand-Moving Receptor   =  +0.00 kcal/mol
DOCKED: USER    (2) Final Total Internal Energy     =  -2.00 kcal/mol
DOCKED: USER    (3) Torsional Free Energy           =  +2.98 kcal/mol
DOCKED: USER    (4) Unbound System's Energy         =  -2.00 kcal/mol
DOCKED: USER
DOCKED: USER
DOCKED: REMARK SMILES CC(C)c1nc(C[C@@H]2C[C@@H](O)CN2C(=O)C/N=C(\O)c2ccc3cc(F)ccc3n2)cs1
DOCKED: REMARK SMILES IDX 14 1 15 2 16 3 17 4 18 5 19 6 20 8 30 9 21 10 29 11 22 12
DOCKED: REMARK SMILES IDX 28 13 23 14 27 15 24 16 25 17 26 18 13 19 12 20 8 21 10 22
DOCKED: REMARK SMILES IDX 9 23 7 24 6 25 5 26 31 27 4 28 32 29 2 30 1 31 3 32 11 33
DOCKED: REMARK H PARENT 19 7 11 34
DOCKED: USER                              x       y       z     vdW  Elec       q    Type
DOCKED: USER                           _______ _______ _______ _____ _____    ______ ____
DOCKED: ROOT
DOCKED: ATOM      1  C   UNL     1     141.232  74.770 221.134 -0.21 -0.06    +0.244 C  
DOCKED: ATOM      2  O   UNL     1     141.027  75.175 222.308 -0.43 +0.02    -0.273 OA 
DOCKED: ENDROOT
DOCKED: BRANCH   1   3
DOCKED: ATOM      3  C   UNL     1     141.806  73.403 220.913 -0.17 -0.04    +0.246 C  
DOCKED: BRANCH   3   4
DOCKED: ATOM      4  N   UNL     1     140.862  72.381 221.347 -0.15 +0.03    -0.240 NA 
DOCKED: BRANCH   4   5
DOCKED: ATOM      5  C   UNL     1     140.007  72.516 222.320 -0.22 -0.03    +0.233 C  
DOCKED: BRANCH   5   6
DOCKED: ATOM      6  O   UNL     1     139.087  73.570 222.344 -0.34 +0.13    -0.492 OA 
DOCKED: ATOM      7  H   UNL     1     139.144  74.343 222.996 -0.48 -0.11    +0.295 HD 
DOCKED: ENDBRANCH   5   6
DOCKED: BRANCH   5   8
DOCKED: ATOM      8  C   UNL     1     140.013  71.538 223.422 -0.32 -0.02    +0.125 A  
DOCKED: ATOM      9  N   UNL     1     140.485  71.902 224.647 -0.25 +0.04    -0.243 NA 
DOCKED: ATOM     10  C   UNL     1     139.525  70.235 223.226 -0.25 -0.01    +0.035 A  
DOCKED: ATOM     11  C   UNL     1     140.505  71.039 225.699 -0.53 -0.01    +0.071 A  
DOCKED: ATOM     12  C   UNL     1     139.526  69.330 224.289 -0.31 -0.00    +0.013 A  
DOCKED: ATOM     13  C   UNL     1     141.015  71.449 226.937 -0.71 -0.01    +0.032 A  
DOCKED: ATOM     14  C   UNL     1     140.018  69.723 225.540 -0.45 -0.00    +0.003 A  
DOCKED: ATOM     15  C   UNL     1     141.029  70.561 228.017 -0.61 -0.01    +0.041 A  
DOCKED: ATOM     16  C   UNL     1     140.040  68.835 226.625 -0.54 -0.01    +0.049 A  
DOCKED: ATOM     17  C   UNL     1     140.545  69.256 227.861 -0.52 -0.02    +0.123 A  
DOCKED: ATOM     18  F   UNL     1     140.564  68.399 228.911 -0.18 +0.05    -0.207 F  
DOCKED: ENDBRANCH   5   8
DOCKED: ENDBRANCH   4   5
DOCKED: ENDBRANCH   3   4
DOCKED: ENDBRANCH   1   3
DOCKED: BRANCH   1  19
DOCKED: ATOM     19  N   UNL     1     140.819  75.586 220.030 -0.05 +0.10    -0.335 N  
DOCKED: ATOM     20  C   UNL     1     139.506  76.212 220.019 -0.07 -0.04    +0.151 C  
DOCKED: ATOM     21  C   UNL     1     141.490  75.651 218.734 -0.10 -0.03    +0.093 C  
DOCKED: ATOM     22  C   UNL     1     139.333  76.770 218.611 -0.02 -0.04    +0.136 C  
DOCKED: ATOM     23  C   UNL     1     140.367  76.028 217.760 -0.03 -0.02    +0.059 C  
DOCKED: BRANCH  21  24
DOCKED: ATOM     24  C   UNL     1     142.596  76.736 218.751 -0.28 -0.05    +0.082 C  
DOCKED: BRANCH  24  25
DOCKED: ATOM     25  C   UNL     1     142.212  77.989 219.495 -0.26 -0.04    +0.054 A  
DOCKED: ATOM     26  N   UNL     1     142.089  78.033 220.851 -0.16 +0.18    -0.246 NA 
DOCKED: ATOM     27  C   UNL     1     141.829  79.157 218.836 -0.24 -0.06    +0.090 A  
DOCKED: ATOM     28  C   UNL     1     141.636  79.234 221.282 -0.32 -0.05    +0.095 A  
DOCKED: ATOM     29  S   UNL     1     141.362  80.280 219.994 -0.30 +0.05    -0.127 S  
DOCKED: BRANCH  28  30
DOCKED: ATOM     30  C   UNL     1     141.418  79.599 222.727 -0.50 -0.01    +0.042 C  
DOCKED: ATOM     31  C   UNL     1     141.800  78.453 223.670 -0.52 -0.01    +0.015 C  
DOCKED: ATOM     32  C   UNL     1     142.196  80.870 223.080 -0.62 -0.00    +0.015 C  
DOCKED: ENDBRANCH  28  30
DOCKED: ENDBRANCH  24  25
DOCKED: ENDBRANCH  21  24
DOCKED: BRANCH  22  33
DOCKED: ATOM     33  O   UNL     1     138.029  76.545 218.141 +0.00 +0.09    -0.391 OA 
DOCKED: ATOM     34  H   UNL     1     138.063  75.706 217.613 +0.00 -0.05    +0.211 HD 
DOCKED: ENDBRANCH  22  33
DOCKED: ENDBRANCH   1  19
DOCKED: TORSDOF 10
DOCKED: TER
DOCKED: ENDMDL
________________________________________________________________________________


    FINAL DOCKED STATE:
    ________________________


Run:   4 / 20
Time taken for this run:   0.103s

DOCKED: MODEL        4
DOCKED: USER    Run = 4
DOCKED: USER
DOCKED: USER    Estimated Free Energy of Binding    =  -8.96 kcal/mol  [=(1)+(2)+(3)-(4)]
DOCKED: USER
DOCKED: USER    (1) Final Intermolecular Energy     = -11.94 kcal/mol
DOCKED: USER        vdW + Hbond + desolv Energy     = -11.59 kcal/mol
DOCKED: USER        Electrostatic Energy            =  -0.35 kcal/mol
DOCKED: USER        Moving Ligand-Fixed Receptor    = -11.94 kcal/mol
DOCKED: USER        Moving Ligand-Moving Receptor   =  +0.00 kcal/mol
DOCKED: USER    (2) Final Total Internal Energy     =  -1.29 kcal/mol
DOCKED: USER    (3) Torsional Free Energy           =  +2.98 kcal/mol
DOCKED: USER    (4) Unbound System's Energy         =  -1.29 kcal/mol
DOCKED: USER
DOCKED: USER
DOCKED: REMARK SMILES CC(C)c1nc(C[C@@H]2C[C@@H](O)CN2C(=O)C/N=C(\O)c2ccc3cc(F)ccc3n2)cs1
DOCKED: REMARK SMILES IDX 14 1 15 2 16 3 17 4 18 5 19 6 20 8 30 9 21 10 29 11 22 12
DOCKED: REMARK SMILES IDX 28 13 23 14 27 15 24 16 25 17 26 18 13 19 12 20 8 21 10 22
DOCKED: REMARK SMILES IDX 9 23 7 24 6 25 5 26 31 27 4 28 32 29 2 30 1 31 3 32 11 33
DOCKED: REMARK H PARENT 19 7 11 34
DOCKED: USER                              x       y       z     vdW  Elec       q    Type
DOCKED: USER                           _______ _______ _______ _____ _____    ______ ____
DOCKED: ROOT
DOCKED: ATOM      1  C   UNL     1     142.001  72.001 219.945 -0.09 -0.04    +0.244 C  
DOCKED: ATOM      2  O   UNL     1     142.307  70.794 220.135 -0.10 +0.03    -0.273 OA 
DOCKED: ENDROOT
DOCKED: BRANCH   1   3
DOCKED: ATOM      3  C   UNL     1     140.568  72.427 220.053 -0.06 -0.04    +0.246 C  
DOCKED: BRANCH   3   4
DOCKED: ATOM      4  N   UNL     1     139.914  71.730 221.153 -0.08 +0.04    -0.240 NA 
DOCKED: BRANCH   4   5
DOCKED: ATOM      5  C   UNL     1     139.749  72.211 222.352 -0.21 -0.04    +0.233 C  
DOCKED: BRANCH   5   6
DOCKED: ATOM      6  O   UNL     1     139.554  73.579 222.570 -0.57 +0.09    -0.492 OA 
DOCKED: ATOM      7  H   UNL     1     138.766  73.953 223.085 -0.50 -0.19    +0.295 HD 
DOCKED: ENDBRANCH   5   6
DOCKED: BRANCH   5   8
DOCKED: ATOM      8  C   UNL     1     139.773  71.292 223.503 -0.31 -0.02    +0.125 A  
DOCKED: ATOM      9  N   UNL     1     140.361  71.685 224.669 -0.29 +0.04    -0.243 NA 
DOCKED: ATOM     10  C   UNL     1     139.186  70.019 223.418 -0.25 -0.01    +0.035 A  
DOCKED: ATOM     11  C   UNL     1     140.403  70.878 225.764 -0.52 -0.01    +0.071 A  
DOCKED: ATOM     12  C   UNL     1     139.208  69.171 224.527 -0.35 -0.00    +0.013 A  
DOCKED: ATOM     13  C   UNL     1     141.032  71.314 226.936 -0.69 -0.01    +0.032 A  
DOCKED: ATOM     14  C   UNL     1     139.819  69.593 225.715 -0.46 -0.00    +0.003 A  
DOCKED: ATOM     15  C   UNL     1     141.068  70.484 228.060 -0.59 -0.01    +0.041 A  
DOCKED: ATOM     16  C   UNL     1     139.863  68.763 226.844 -0.55 -0.01    +0.049 A  
DOCKED: ATOM     17  C   UNL     1     140.488  69.209 228.014 -0.53 -0.02    +0.123 A  
DOCKED: ATOM     18  F   UNL     1     140.530  68.409 229.107 -0.16 +0.05    -0.207 F  
DOCKED: ENDBRANCH   5   8
DOCKED: ENDBRANCH   4   5
DOCKED: ENDBRANCH   3   4
DOCKED: ENDBRANCH   1   3
DOCKED: BRANCH   1  19
DOCKED: ATOM     19  N   UNL     1     143.044  72.961 219.728 -0.06 +0.06    -0.335 N  
DOCKED: ATOM     20  C   UNL     1     144.234  72.606 218.971 -0.17 -0.00    +0.151 C  
DOCKED: ATOM     21  C   UNL     1     143.178  74.232 220.435 -0.30 -0.03    +0.093 C  
DOCKED: ATOM     22  C   UNL     1     145.202  73.768 219.166 -0.07 -0.02    +0.136 C  
DOCKED: ATOM     23  C   UNL     1     144.686  74.511 220.402 -0.41 -0.02    +0.059 C  
DOCKED: BRANCH  21  24
DOCKED: ATOM     24  C   UNL     1     142.392  75.346 219.699 -0.25 -0.03    +0.082 C  
DOCKED: BRANCH  24  25
DOCKED: ATOM     25  C   UNL     1     141.669  76.295 220.620 -0.25 -0.03    +0.054 A  
DOCKED: ATOM     26  N   UNL     1     142.079  77.577 220.828 -0.12 +0.18    -0.246 NA 
DOCKED: ATOM     27  C   UNL     1     140.605  75.884 221.423 -0.30 -0.03    +0.090 A  
DOCKED: ATOM     28  C   UNL     1     141.335  78.202 221.771 -0.34 -0.05    +0.095 A  
DOCKED: ATOM     29  S   UNL     1     140.150  77.181 222.389 -0.41 +0.03    -0.127 S  
DOCKED: BRANCH  28  30
DOCKED: ATOM     30  C   UNL     1     141.528  79.631 222.206 -0.46 -0.02    +0.042 C  
DOCKED: ATOM     31  C   UNL     1     140.431  80.087 223.174 -0.45 -0.00    +0.015 C  
DOCKED: ATOM     32  C   UNL     1     142.912  79.815 222.835 -0.60 -0.01    +0.015 C  
DOCKED: ENDBRANCH  28  30
DOCKED: ENDBRANCH  24  25
DOCKED: ENDBRANCH  21  24
DOCKED: BRANCH  22  33
DOCKED: ATOM     33  O   UNL     1     146.511  73.300 219.361 -0.63 -0.29    -0.391 OA 
DOCKED: ATOM     34  H   UNL     1     147.098  74.101 219.351 -0.46 +0.06    +0.211 HD 
DOCKED: ENDBRANCH  22  33
DOCKED: ENDBRANCH   1  19
DOCKED: TORSDOF 10
DOCKED: TER
DOCKED: ENDMDL
________________________________________________________________________________


    FINAL DOCKED STATE:
    ________________________


Run:   5 / 20
Time taken for this run:   0.103s

DOCKED: MODEL        5
DOCKED: USER    Run = 5
DOCKED: USER
DOCKED: USER    Estimated Free Energy of Binding    =  -7.37 kcal/mol  [=(1)+(2)+(3)-(4)]
DOCKED: USER
DOCKED: USER    (1) Final Intermolecular Energy     = -10.36 kcal/mol
DOCKED: USER        vdW + Hbond + desolv Energy     = -10.38 kcal/mol
DOCKED: USER        Electrostatic Energy            =  +0.03 kcal/mol
DOCKED: USER        Moving Ligand-Fixed Receptor    = -10.36 kcal/mol
DOCKED: USER        Moving Ligand-Moving Receptor   =  +0.00 kcal/mol
DOCKED: USER    (2) Final Total Internal Energy     =  -2.65 kcal/mol
DOCKED: USER    (3) Torsional Free Energy           =  +2.98 kcal/mol
DOCKED: USER    (4) Unbound System's Energy         =  -2.65 kcal/mol
DOCKED: USER
DOCKED: USER
DOCKED: REMARK SMILES CC(C)c1nc(C[C@@H]2C[C@@H](O)CN2C(=O)C/N=C(\O)c2ccc3cc(F)ccc3n2)cs1
DOCKED: REMARK SMILES IDX 14 1 15 2 16 3 17 4 18 5 19 6 20 8 30 9 21 10 29 11 22 12
DOCKED: REMARK SMILES IDX 28 13 23 14 27 15 24 16 25 17 26 18 13 19 12 20 8 21 10 22
DOCKED: REMARK SMILES IDX 9 23 7 24 6 25 5 26 31 27 4 28 32 29 2 30 1 31 3 32 11 33
DOCKED: REMARK H PARENT 19 7 11 34
DOCKED: USER                              x       y       z     vdW  Elec       q    Type
DOCKED: USER                           _______ _______ _______ _____ _____    ______ ____
DOCKED: ROOT
DOCKED: ATOM      1  C   UNL     1     142.468  74.221 220.668 -0.16 -0.07    +0.244 C  
DOCKED: ATOM      2  O   UNL     1     143.604  74.513 220.210 -0.27 +0.11    -0.273 OA 
DOCKED: ENDROOT
DOCKED: BRANCH   1   3
DOCKED: ATOM      3  C   UNL     1     142.218  72.844 221.206 -0.06 -0.03    +0.246 C  
DOCKED: BRANCH   3   4
DOCKED: ATOM      4  N   UNL     1     140.807  72.500 221.081 -0.13 +0.03    -0.240 NA 
DOCKED: BRANCH   4   5
DOCKED: ATOM      5  C   UNL     1     139.925  72.601 222.033 -0.21 -0.04    +0.233 C  
DOCKED: BRANCH   5   6
DOCKED: ATOM      6  O   UNL     1     138.934  73.588 222.010 -0.19 +0.13    -0.492 OA 
DOCKED: ATOM      7  H   UNL     1     138.605  74.065 222.840 -0.50 -0.16    +0.295 HD 
DOCKED: ENDBRANCH   5   6
DOCKED: BRANCH   5   8
DOCKED: ATOM      8  C   UNL     1     139.975  71.654 223.161 -0.30 -0.02    +0.125 A  
DOCKED: ATOM      9  N   UNL     1     140.448  72.069 224.370 -0.15 +0.04    -0.243 NA 
DOCKED: ATOM     10  C   UNL     1     139.530  70.331 223.008 -0.24 -0.01    +0.035 A  
DOCKED: ATOM     11  C   UNL     1     140.508  71.238 225.445 -0.51 -0.01    +0.071 A  
DOCKED: ATOM     12  C   UNL     1     139.573  69.456 224.095 -0.29 -0.00    +0.013 A  
DOCKED: ATOM     13  C   UNL     1     141.016  71.699 226.665 -0.71 -0.01    +0.032 A  
DOCKED: ATOM     14  C   UNL     1     140.065  69.902 225.329 -0.45 -0.00    +0.003 A  
DOCKED: ATOM     15  C   UNL     1     141.072  70.843 227.769 -0.65 -0.01    +0.041 A  
DOCKED: ATOM     16  C   UNL     1     140.128  69.046 226.438 -0.51 -0.01    +0.049 A  
DOCKED: ATOM     17  C   UNL     1     140.631  69.518 227.656 -0.51 -0.02    +0.123 A  
DOCKED: ATOM     18  F   UNL     1     140.691  68.693 228.730 -0.18 +0.05    -0.207 F  
DOCKED: ENDBRANCH   5   8
DOCKED: ENDBRANCH   4   5
DOCKED: ENDBRANCH   3   4
DOCKED: ENDBRANCH   1   3
DOCKED: BRANCH   1  19
DOCKED: ATOM     19  N   UNL     1     141.467  75.243 220.757 -0.14 +0.11    -0.335 N  
DOCKED: ATOM     20  C   UNL     1     140.898  75.615 222.043 -0.13 -0.03    +0.151 C  
DOCKED: ATOM     21  C   UNL     1     140.726  75.798 219.627 -0.11 -0.03    +0.093 C  
DOCKED: ATOM     22  C   UNL     1     139.717  76.524 221.719 -0.26 -0.03    +0.136 C  
DOCKED: ATOM     23  C   UNL     1     139.397  76.249 220.247 -0.10 -0.02    +0.059 C  
DOCKED: BRANCH  21  24
DOCKED: ATOM     24  C   UNL     1     141.489  77.000 219.016 -0.17 -0.04    +0.082 C  
DOCKED: BRANCH  24  25
DOCKED: ATOM     25  C   UNL     1     141.413  78.256 219.845 -0.23 -0.03    +0.054 A  
DOCKED: ATOM     26  N   UNL     1     141.842  78.316 221.136 -0.21 +0.15    -0.246 NA 
DOCKED: ATOM     27  C   UNL     1     140.779  79.411 219.387 -0.14 -0.04    +0.090 A  
DOCKED: ATOM     28  C   UNL     1     141.579  79.516 221.705 -0.36 -0.04    +0.095 A  
DOCKED: ATOM     29  S   UNL     1     140.794  80.542 220.628 -0.27 +0.04    -0.127 S  
DOCKED: BRANCH  28  30
DOCKED: ATOM     30  C   UNL     1     141.952  79.896 223.114 -0.59 -0.01    +0.042 C  
DOCKED: ATOM     31  C   UNL     1     141.839  78.709 224.076 -0.51 -0.00    +0.015 C  
DOCKED: ATOM     32  C   UNL     1     143.363  80.489 223.152 -0.57 -0.00    +0.015 C  
DOCKED: ENDBRANCH  28  30
DOCKED: ENDBRANCH  24  25
DOCKED: ENDBRANCH  21  24
DOCKED: BRANCH  22  33
DOCKED: ATOM     33  O   UNL     1     138.620  76.231 222.544 -0.20 +0.08    -0.391 OA 
DOCKED: ATOM     34  H   UNL     1     138.889  75.454 223.100 -0.36 -0.06    +0.211 HD 
DOCKED: ENDBRANCH  22  33
DOCKED: ENDBRANCH   1  19
DOCKED: TORSDOF 10
DOCKED: TER
DOCKED: ENDMDL
________________________________________________________________________________


    FINAL DOCKED STATE:
    ________________________


Run:   6 / 20
Time taken for this run:   0.103s

DOCKED: MODEL        6
DOCKED: USER    Run = 6
DOCKED: USER
DOCKED: USER    Estimated Free Energy of Binding    =  -6.72 kcal/mol  [=(1)+(2)+(3)-(4)]
DOCKED: USER
DOCKED: USER    (1) Final Intermolecular Energy     =  -9.70 kcal/mol
DOCKED: USER        vdW + Hbond + desolv Energy     =  -9.64 kcal/mol
DOCKED: USER        Electrostatic Energy            =  -0.06 kcal/mol
DOCKED: USER        Moving Ligand-Fixed Receptor    =  -9.70 kcal/mol
DOCKED: USER        Moving Ligand-Moving Receptor   =  +0.00 kcal/mol
DOCKED: USER    (2) Final Total Internal Energy     =  -3.23 kcal/mol
DOCKED: USER    (3) Torsional Free Energy           =  +2.98 kcal/mol
DOCKED: USER    (4) Unbound System's Energy         =  -3.23 kcal/mol
DOCKED: USER
DOCKED: USER
DOCKED: REMARK SMILES CC(C)c1nc(C[C@@H]2C[C@@H](O)CN2C(=O)C/N=C(\O)c2ccc3cc(F)ccc3n2)cs1
DOCKED: REMARK SMILES IDX 14 1 15 2 16 3 17 4 18 5 19 6 20 8 30 9 21 10 29 11 22 12
DOCKED: REMARK SMILES IDX 28 13 23 14 27 15 24 16 25 17 26 18 13 19 12 20 8 21 10 22
DOCKED: REMARK SMILES IDX 9 23 7 24 6 25 5 26 31 27 4 28 32 29 2 30 1 31 3 32 11 33
DOCKED: REMARK H PARENT 19 7 11 34
DOCKED: USER                              x       y       z     vdW  Elec       q    Type
DOCKED: USER                           _______ _______ _______ _____ _____    ______ ____
DOCKED: ROOT
DOCKED: ATOM      1  C   UNL     1     140.930  71.425 220.601 -0.09 -0.04    +0.244 C  
DOCKED: ATOM      2  O   UNL     1     142.118  71.087 220.847 -0.08 +0.03    -0.273 OA 
DOCKED: ENDROOT
DOCKED: BRANCH   1   3
DOCKED: ATOM      3  C   UNL     1     139.892  70.366 220.375 -0.06 -0.04    +0.246 C  
DOCKED: BRANCH   3   4
DOCKED: ATOM      4  N   UNL     1     138.666  70.698 221.089 -0.04 +0.04    -0.240 NA 
DOCKED: BRANCH   4   5
DOCKED: ATOM      5  C   UNL     1     138.611  71.275 222.254 -0.12 -0.05    +0.233 C  
DOCKED: BRANCH   5   6
DOCKED: ATOM      6  O   UNL     1     138.178  72.597 222.397 -0.06 +0.16    -0.492 OA 
DOCKED: ATOM      7  H   UNL     1     138.577  73.245 223.065 -0.44 -0.18    +0.295 HD 
DOCKED: ENDBRANCH   5   6
DOCKED: BRANCH   5   8
DOCKED: ATOM      8  C   UNL     1     139.018  70.516 223.450 -0.24 -0.02    +0.125 A  
DOCKED: ATOM      9  N   UNL     1     139.607  71.165 224.494 -0.26 +0.05    -0.243 NA 
DOCKED: ATOM     10  C   UNL     1     138.795  69.131 223.531 -0.26 -0.01    +0.035 A  
DOCKED: ATOM     11  C   UNL     1     139.995  70.513 225.624 -0.46 -0.01    +0.071 A  
DOCKED: ATOM     12  C   UNL     1     139.176  68.436 224.681 -0.38 -0.00    +0.013 A  
DOCKED: ATOM     13  C   UNL     1     140.611  71.215 226.666 -0.64 -0.01    +0.032 A  
DOCKED: ATOM     14  C   UNL     1     139.782  69.121 225.742 -0.47 -0.00    +0.003 A  
DOCKED: ATOM     15  C   UNL     1     141.003  70.542 227.827 -0.61 -0.01    +0.041 A  
DOCKED: ATOM     16  C   UNL     1     140.182  68.451 226.906 -0.60 -0.01    +0.049 A  
DOCKED: ATOM     17  C   UNL     1     140.792  69.162 227.947 -0.52 -0.03    +0.123 A  
DOCKED: ATOM     18  F   UNL     1     141.177  68.515 229.074 -0.16 +0.05    -0.207 F  
DOCKED: ENDBRANCH   5   8
DOCKED: ENDBRANCH   4   5
DOCKED: ENDBRANCH   3   4
DOCKED: ENDBRANCH   1   3
DOCKED: BRANCH   1  19
DOCKED: ATOM     19  N   UNL     1     140.574  72.813 220.641 -0.06 +0.06    -0.335 N  
DOCKED: ATOM     20  C   UNL     1     140.722  73.582 221.867 -0.18 -0.01    +0.151 C  
DOCKED: ATOM     21  C   UNL     1     139.796  73.512 219.622 -0.05 -0.02    +0.093 C  
DOCKED: ATOM     22  C   UNL     1     140.021  74.910 221.601 -0.26 -0.02    +0.136 C  
DOCKED: ATOM     23  C   UNL     1     139.111  74.644 220.398 -0.10 -0.01    +0.059 C  
DOCKED: BRANCH  21  24
DOCKED: ATOM     24  C   UNL     1     140.729  74.078 218.523 -0.03 -0.02    +0.082 C  
DOCKED: BRANCH  24  25
DOCKED: ATOM     25  C   UNL     1     142.116  74.410 219.010 -0.12 -0.02    +0.054 A  
DOCKED: ATOM     26  N   UNL     1     143.090  73.471 219.158 -0.07 +0.05    -0.246 NA 
DOCKED: ATOM     27  C   UNL     1     142.458  75.683 219.466 -0.25 -0.04    +0.090 A  
DOCKED: ATOM     28  C   UNL     1     144.216  73.987 219.704 -0.33 -0.03    +0.095 A  
DOCKED: ATOM     29  S   UNL     1     144.038  75.627 220.034 -0.24 +0.08    -0.127 S  
DOCKED: BRANCH  28  30
DOCKED: ATOM     30  C   UNL     1     145.476  73.205 219.971 -0.49 +0.00    +0.042 C  
DOCKED: ATOM     31  C   UNL     1     145.975  73.398 221.407 -0.70 -0.00    +0.015 C  
DOCKED: ATOM     32  C   UNL     1     145.255  71.720 219.671 -0.31 +0.00    +0.015 C  
DOCKED: ENDBRANCH  28  30
DOCKED: ENDBRANCH  24  25
DOCKED: ENDBRANCH  21  24
DOCKED: BRANCH  22  33
DOCKED: ATOM     33  O   UNL     1     139.280  75.316 222.722 -0.44 +0.07    -0.391 OA 
DOCKED: ATOM     34  H   UNL     1     138.515  74.688 222.793 -0.50 -0.10    +0.211 HD 
DOCKED: ENDBRANCH  22  33
DOCKED: ENDBRANCH   1  19
DOCKED: TORSDOF 10
DOCKED: TER
DOCKED: ENDMDL
________________________________________________________________________________


    FINAL DOCKED STATE:
    ________________________


Run:   7 / 20
Time taken for this run:   0.103s

DOCKED: MODEL        7
DOCKED: USER    Run = 7
DOCKED: USER
DOCKED: USER    Estimated Free Energy of Binding    =  -8.71 kcal/mol  [=(1)+(2)+(3)-(4)]
DOCKED: USER
DOCKED: USER    (1) Final Intermolecular Energy     = -11.69 kcal/mol
DOCKED: USER        vdW + Hbond + desolv Energy     = -11.44 kcal/mol
DOCKED: USER        Electrostatic Energy            =  -0.25 kcal/mol
DOCKED: USER        Moving Ligand-Fixed Receptor    = -11.69 kcal/mol
DOCKED: USER        Moving Ligand-Moving Receptor   =  +0.00 kcal/mol
DOCKED: USER    (2) Final Total Internal Energy     =  -1.29 kcal/mol
DOCKED: USER    (3) Torsional Free Energy           =  +2.98 kcal/mol
DOCKED: USER    (4) Unbound System's Energy         =  -1.29 kcal/mol
DOCKED: USER
DOCKED: USER
DOCKED: REMARK SMILES CC(C)c1nc(C[C@@H]2C[C@@H](O)CN2C(=O)C/N=C(\O)c2ccc3cc(F)ccc3n2)cs1
DOCKED: REMARK SMILES IDX 14 1 15 2 16 3 17 4 18 5 19 6 20 8 30 9 21 10 29 11 22 12
DOCKED: REMARK SMILES IDX 28 13 23 14 27 15 24 16 25 17 26 18 13 19 12 20 8 21 10 22
DOCKED: REMARK SMILES IDX 9 23 7 24 6 25 5 26 31 27 4 28 32 29 2 30 1 31 3 32 11 33
DOCKED: REMARK H PARENT 19 7 11 34
DOCKED: USER                              x       y       z     vdW  Elec       q    Type
DOCKED: USER                           _______ _______ _______ _____ _____    ______ ____
DOCKED: ROOT
DOCKED: ATOM      1  C   UNL     1     142.340  71.806 219.482 -0.07 -0.03    +0.244 C  
DOCKED: ATOM      2  O   UNL     1     142.075  71.385 218.325 -0.01 +0.04    -0.273 OA 
DOCKED: ENDROOT
DOCKED: BRANCH   1   3
DOCKED: ATOM      3  C   UNL     1     141.508  71.351 220.643 -0.08 -0.03    +0.246 C  
DOCKED: BRANCH   3   4
DOCKED: ATOM      4  N   UNL     1     141.436  72.397 221.656 -0.17 +0.02    -0.240 NA 
DOCKED: BRANCH   4   5
DOCKED: ATOM      5  C   UNL     1     140.446  72.571 222.483 -0.20 -0.02    +0.233 C  
DOCKED: BRANCH   5   6
DOCKED: ATOM      6  O   UNL     1     139.572  73.656 222.361 -0.68 +0.08    -0.492 OA 
DOCKED: ATOM      7  H   UNL     1     138.868  73.883 223.052 -0.49 -0.17    +0.295 HD 
DOCKED: ENDBRANCH   5   6
DOCKED: BRANCH   5   8
DOCKED: ATOM      8  C   UNL     1     140.245  71.601 223.575 -0.33 -0.02    +0.125 A  
DOCKED: ATOM      9  N   UNL     1     140.709  71.885 224.825 -0.27 +0.03    -0.243 NA 
DOCKED: ATOM     10  C   UNL     1     139.570  70.391 223.344 -0.27 -0.01    +0.035 A  
DOCKED: ATOM     11  C   UNL     1     140.543  71.028 225.868 -0.54 -0.01    +0.071 A  
DOCKED: ATOM     12  C   UNL     1     139.378  69.495 224.397 -0.33 -0.00    +0.013 A  
DOCKED: ATOM     13  C   UNL     1     141.049  71.352 227.132 -0.71 -0.01    +0.032 A  
DOCKED: ATOM     14  C   UNL     1     139.865  69.805 225.674 -0.46 -0.00    +0.003 A  
DOCKED: ATOM     15  C   UNL     1     140.871  70.471 228.204 -0.56 -0.01    +0.041 A  
DOCKED: ATOM     16  C   UNL     1     139.694  68.923 226.751 -0.52 -0.01    +0.049 A  
DOCKED: ATOM     17  C   UNL     1     140.198  69.257 228.013 -0.53 -0.02    +0.123 A  
DOCKED: ATOM     18  F   UNL     1     140.032  68.406 229.055 -0.14 +0.04    -0.207 F  
DOCKED: ENDBRANCH   5   8
DOCKED: ENDBRANCH   4   5
DOCKED: ENDBRANCH   3   4
DOCKED: ENDBRANCH   1   3
DOCKED: BRANCH   1  19
DOCKED: ATOM     19  N   UNL     1     143.494  72.633 219.678 -0.07 +0.04    -0.335 N  
DOCKED: ATOM     20  C   UNL     1     144.824  72.049 219.743 -0.27 +0.01    +0.151 C  
DOCKED: ATOM     21  C   UNL     1     143.466  74.031 220.102 -0.31 -0.03    +0.093 C  
DOCKED: ATOM     22  C   UNL     1     145.742  73.176 220.205 -0.48 +0.01    +0.136 C  
DOCKED: ATOM     23  C   UNL     1     144.808  74.221 220.821 -0.37 -0.02    +0.059 C  
DOCKED: BRANCH  21  24
DOCKED: ATOM     24  C   UNL     1     143.358  74.968 218.874 -0.25 -0.03    +0.082 C  
DOCKED: BRANCH  24  25
DOCKED: ATOM     25  C   UNL     1     142.874  76.356 219.205 -0.33 -0.03    +0.054 A  
DOCKED: ATOM     26  N   UNL     1     142.276  76.667 220.389 -0.13 +0.16    -0.246 NA 
DOCKED: ATOM     27  C   UNL     1     142.889  77.392 218.270 -0.29 -0.06    +0.090 A  
DOCKED: ATOM     28  C   UNL     1     141.837  77.947 220.417 -0.27 -0.06    +0.095 A  
DOCKED: ATOM     29  S   UNL     1     142.165  78.736 218.968 -0.30 +0.09    -0.127 S  
DOCKED: BRANCH  28  30
DOCKED: ATOM     30  C   UNL     1     141.155  78.593 221.594 -0.35 -0.02    +0.042 C  
DOCKED: ATOM     31  C   UNL     1     140.405  77.570 222.453 -0.40 -0.00    +0.015 C  
DOCKED: ATOM     32  C   UNL     1     142.170  79.368 222.440 -0.55 -0.01    +0.015 C  
DOCKED: ENDBRANCH  28  30
DOCKED: ENDBRANCH  24  25
DOCKED: ENDBRANCH  21  24
DOCKED: BRANCH  22  33
DOCKED: ATOM     33  O   UNL     1     146.675  72.708 221.143 -0.25 -0.03    -0.391 OA 
DOCKED: ATOM     34  H   UNL     1     146.259  71.921 221.582 -0.44 -0.15    +0.211 HD 
DOCKED: ENDBRANCH  22  33
DOCKED: ENDBRANCH   1  19
DOCKED: TORSDOF 10
DOCKED: TER
DOCKED: ENDMDL
________________________________________________________________________________


    FINAL DOCKED STATE:
    ________________________


Run:   8 / 20
Time taken for this run:   0.103s

DOCKED: MODEL        8
DOCKED: USER    Run = 8
DOCKED: USER
DOCKED: USER    Estimated Free Energy of Binding    =  -7.87 kcal/mol  [=(1)+(2)+(3)-(4)]
DOCKED: USER
DOCKED: USER    (1) Final Intermolecular Energy     = -10.85 kcal/mol
DOCKED: USER        vdW + Hbond + desolv Energy     = -10.84 kcal/mol
DOCKED: USER        Electrostatic Energy            =  -0.02 kcal/mol
DOCKED: USER        Moving Ligand-Fixed Receptor    = -10.85 kcal/mol
DOCKED: USER        Moving Ligand-Moving Receptor   =  +0.00 kcal/mol
DOCKED: USER    (2) Final Total Internal Energy     =  -2.18 kcal/mol
DOCKED: USER    (3) Torsional Free Energy           =  +2.98 kcal/mol
DOCKED: USER    (4) Unbound System's Energy         =  -2.18 kcal/mol
DOCKED: USER
DOCKED: USER
DOCKED: REMARK SMILES CC(C)c1nc(C[C@@H]2C[C@@H](O)CN2C(=O)C/N=C(\O)c2ccc3cc(F)ccc3n2)cs1
DOCKED: REMARK SMILES IDX 14 1 15 2 16 3 17 4 18 5 19 6 20 8 30 9 21 10 29 11 22 12
DOCKED: REMARK SMILES IDX 28 13 23 14 27 15 24 16 25 17 26 18 13 19 12 20 8 21 10 22
DOCKED: REMARK SMILES IDX 9 23 7 24 6 25 5 26 31 27 4 28 32 29 2 30 1 31 3 32 11 33
DOCKED: REMARK H PARENT 19 7 11 34
DOCKED: USER                              x       y       z     vdW  Elec       q    Type
DOCKED: USER                           _______ _______ _______ _____ _____    ______ ____
DOCKED: ROOT
DOCKED: ATOM      1  C   UNL     1     141.942  74.516 220.504 -0.18 -0.07    +0.244 C  
DOCKED: ATOM      2  O   UNL     1     143.130  74.880 220.303 -0.25 +0.12    -0.273 OA 
DOCKED: ENDROOT
DOCKED: BRANCH   1   3
DOCKED: ATOM      3  C   UNL     1     141.618  73.053 220.574 -0.14 -0.04    +0.246 C  
DOCKED: BRANCH   3   4
DOCKED: ATOM      4  N   UNL     1     141.466  72.634 221.961 -0.15 +0.01    -0.240 NA 
DOCKED: BRANCH   4   5
DOCKED: ATOM      5  C   UNL     1     140.343  72.619 222.620 -0.19 -0.02    +0.233 C  
DOCKED: BRANCH   5   6
DOCKED: ATOM      6  O   UNL     1     139.312  73.518 222.328 -0.46 +0.11    -0.492 OA 
DOCKED: ATOM      7  H   UNL     1     138.943  74.178 223.002 -0.50 -0.15    +0.295 HD 
DOCKED: ENDBRANCH   5   6
DOCKED: BRANCH   5   8
DOCKED: ATOM      8  C   UNL     1     140.157  71.632 223.699 -0.33 -0.02    +0.125 A  
DOCKED: ATOM      9  N   UNL     1     140.643  71.894 224.945 -0.27 +0.03    -0.243 NA 
DOCKED: ATOM     10  C   UNL     1     139.473  70.428 223.460 -0.29 -0.01    +0.035 A  
DOCKED: ATOM     11  C   UNL     1     140.491  71.021 225.977 -0.54 -0.01    +0.071 A  
DOCKED: ATOM     12  C   UNL     1     139.296  69.516 224.501 -0.34 -0.00    +0.013 A  
DOCKED: ATOM     13  C   UNL     1     141.020  71.321 227.238 -0.71 -0.01    +0.032 A  
DOCKED: ATOM     14  C   UNL     1     139.805  69.803 225.775 -0.47 -0.00    +0.003 A  
DOCKED: ATOM     15  C   UNL     1     140.858  70.424 228.297 -0.54 -0.01    +0.041 A  
DOCKED: ATOM     16  C   UNL     1     139.650  68.904 226.839 -0.53 -0.01    +0.049 A  
DOCKED: ATOM     17  C   UNL     1     140.177  69.216 228.099 -0.53 -0.02    +0.123 A  
DOCKED: ATOM     18  F   UNL     1     140.026  68.349 229.129 -0.12 +0.04    -0.207 F  
DOCKED: ENDBRANCH   5   8
DOCKED: ENDBRANCH   4   5
DOCKED: ENDBRANCH   3   4
DOCKED: ENDBRANCH   1   3
DOCKED: BRANCH   1  19
DOCKED: ATOM     19  N   UNL     1     140.940  75.508 220.762 -0.12 +0.10    -0.335 N  
DOCKED: ATOM     20  C   UNL     1     140.559  75.841 222.126 -0.19 -0.03    +0.151 C  
DOCKED: ATOM     21  C   UNL     1     140.026  76.061 219.766 -0.09 -0.03    +0.093 C  
DOCKED: ATOM     22  C   UNL     1     139.322  76.723 221.999 -0.27 -0.03    +0.136 C  
DOCKED: ATOM     23  C   UNL     1     138.794  76.464 220.585 -0.10 -0.01    +0.059 C  
DOCKED: BRANCH  21  24
DOCKED: ATOM     24  C   UNL     1     140.660  77.294 219.075 -0.10 -0.03    +0.082 C  
DOCKED: BRANCH  24  25
DOCKED: ATOM     25  C   UNL     1     140.852  78.476 219.990 -0.18 -0.02    +0.054 A  
DOCKED: ATOM     26  N   UNL     1     141.602  78.417 221.125 -0.19 +0.14    -0.246 NA 
DOCKED: ATOM     27  C   UNL     1     140.167  79.678 219.804 -0.11 -0.03    +0.090 A  
DOCKED: ATOM     28  C   UNL     1     141.543  79.569 221.834 -0.37 -0.04    +0.095 A  
DOCKED: ATOM     29  S   UNL     1     140.548  80.698 221.083 -0.28 +0.03    -0.127 S  
DOCKED: BRANCH  28  30
DOCKED: ATOM     30  C   UNL     1     142.282  79.820 223.122 -0.61 -0.01    +0.042 C  
DOCKED: ATOM     31  C   UNL     1     142.146  81.274 223.586 -0.61 -0.00    +0.015 C  
DOCKED: ATOM     32  C   UNL     1     141.798  78.859 224.212 -0.50 -0.00    +0.015 C  
DOCKED: ENDBRANCH  28  30
DOCKED: ENDBRANCH  24  25
DOCKED: ENDBRANCH  21  24
DOCKED: BRANCH  22  33
DOCKED: ATOM     33  O   UNL     1     138.366  76.386 222.971 -0.19 +0.08    -0.391 OA 
DOCKED: ATOM     34  H   UNL     1     138.434  75.404 223.099 -0.39 -0.08    +0.211 HD 
DOCKED: ENDBRANCH  22  33
DOCKED: ENDBRANCH   1  19
DOCKED: TORSDOF 10
DOCKED: TER
DOCKED: ENDMDL
________________________________________________________________________________


    FINAL DOCKED STATE:
    ________________________


Run:   9 / 20
Time taken for this run:   0.103s

DOCKED: MODEL        9
DOCKED: USER    Run = 9
DOCKED: USER
DOCKED: USER    Estimated Free Energy of Binding    =  -8.77 kcal/mol  [=(1)+(2)+(3)-(4)]
DOCKED: USER
DOCKED: USER    (1) Final Intermolecular Energy     = -11.75 kcal/mol
DOCKED: USER        vdW + Hbond + desolv Energy     = -11.45 kcal/mol
DOCKED: USER        Electrostatic Energy            =  -0.31 kcal/mol
DOCKED: USER        Moving Ligand-Fixed Receptor    = -11.75 kcal/mol
DOCKED: USER        Moving Ligand-Moving Receptor   =  +0.00 kcal/mol
DOCKED: USER    (2) Final Total Internal Energy     =  -1.38 kcal/mol
DOCKED: USER    (3) Torsional Free Energy           =  +2.98 kcal/mol
DOCKED: USER    (4) Unbound System's Energy         =  -1.38 kcal/mol
DOCKED: USER
DOCKED: USER
DOCKED: REMARK SMILES CC(C)c1nc(C[C@@H]2C[C@@H](O)CN2C(=O)C/N=C(\O)c2ccc3cc(F)ccc3n2)cs1
DOCKED: REMARK SMILES IDX 14 1 15 2 16 3 17 4 18 5 19 6 20 8 30 9 21 10 29 11 22 12
DOCKED: REMARK SMILES IDX 28 13 23 14 27 15 24 16 25 17 26 18 13 19 12 20 8 21 10 22
DOCKED: REMARK SMILES IDX 9 23 7 24 6 25 5 26 31 27 4 28 32 29 2 30 1 31 3 32 11 33
DOCKED: REMARK H PARENT 19 7 11 34
DOCKED: USER                              x       y       z     vdW  Elec       q    Type
DOCKED: USER                           _______ _______ _______ _____ _____    ______ ____
DOCKED: ROOT
DOCKED: ATOM      1  C   UNL     1     141.628  72.543 219.137 -0.03 -0.04    +0.244 C  
DOCKED: ATOM      2  O   UNL     1     141.051  72.676 218.026 -0.00 +0.05    -0.273 OA 
DOCKED: ENDROOT
DOCKED: BRANCH   1   3
DOCKED: ATOM      3  C   UNL     1     141.010  71.673 220.191 -0.07 -0.04    +0.246 C  
DOCKED: BRANCH   3   4
DOCKED: ATOM      4  N   UNL     1     141.288  72.209 221.518 -0.16 +0.02    -0.240 NA 
DOCKED: BRANCH   4   5
DOCKED: ATOM      5  C   UNL     1     140.389  72.472 222.422 -0.22 -0.02    +0.233 C  
DOCKED: BRANCH   5   6
DOCKED: ATOM      6  O   UNL     1     139.587  73.615 222.345 -0.68 +0.08    -0.492 OA 
DOCKED: ATOM      7  H   UNL     1     139.249  74.113 223.159 -0.45 -0.12    +0.295 HD 
DOCKED: ENDBRANCH   5   6
DOCKED: BRANCH   5   8
DOCKED: ATOM      8  C   UNL     1     140.217  71.544 223.553 -0.33 -0.02    +0.125 A  
DOCKED: ATOM      9  N   UNL     1     140.699  71.881 224.783 -0.27 +0.03    -0.243 NA 
DOCKED: ATOM     10  C   UNL     1     139.550  70.319 223.382 -0.27 -0.01    +0.035 A  
DOCKED: ATOM     11  C   UNL     1     140.560  71.063 225.862 -0.54 -0.01    +0.071 A  
DOCKED: ATOM     12  C   UNL     1     139.385  69.463 224.472 -0.34 -0.00    +0.013 A  
DOCKED: ATOM     13  C   UNL     1     141.084  71.440 227.104 -0.72 -0.01    +0.032 A  
DOCKED: ATOM     14  C   UNL     1     139.890  69.827 225.727 -0.47 -0.00    +0.003 A  
DOCKED: ATOM     15  C   UNL     1     140.934  70.600 228.211 -0.58 -0.01    +0.041 A  
DOCKED: ATOM     16  C   UNL     1     139.747  68.986 226.840 -0.53 -0.01    +0.049 A  
DOCKED: ATOM     17  C   UNL     1     140.270  69.373 228.080 -0.52 -0.02    +0.123 A  
DOCKED: ATOM     18  F   UNL     1     140.130  68.562 229.157 -0.12 +0.04    -0.207 F  
DOCKED: ENDBRANCH   5   8
DOCKED: ENDBRANCH   4   5
DOCKED: ENDBRANCH   3   4
DOCKED: ENDBRANCH   1   3
DOCKED: BRANCH   1  19
DOCKED: ATOM     19  N   UNL     1     142.913  73.145 219.336 -0.03 +0.06    -0.335 N  
DOCKED: ATOM     20  C   UNL     1     144.110  72.548 218.764 -0.14 -0.00    +0.151 C  
DOCKED: ATOM     21  C   UNL     1     143.211  74.192 220.311 -0.30 -0.03    +0.093 C  
DOCKED: ATOM     22  C   UNL     1     145.279  73.304 219.386 -0.32 +0.01    +0.136 C  
DOCKED: ATOM     23  C   UNL     1     144.697  73.982 220.629 -0.46 -0.02    +0.059 C  
DOCKED: BRANCH  21  24
DOCKED: ATOM     24  C   UNL     1     142.968  75.592 219.694 -0.33 -0.04    +0.082 C  
DOCKED: BRANCH  24  25
DOCKED: ATOM     25  C   UNL     1     142.005  76.446 220.477 -0.23 -0.03    +0.054 A  
DOCKED: ATOM     26  N   UNL     1     142.205  77.776 220.693 -0.14 +0.18    -0.246 NA 
DOCKED: ATOM     27  C   UNL     1     140.905  75.906 221.144 -0.28 -0.03    +0.090 A  
DOCKED: ATOM     28  C   UNL     1     141.262  78.307 221.506 -0.31 -0.04    +0.095 A  
DOCKED: ATOM     29  S   UNL     1     140.151  77.142 221.995 -0.39 +0.04    -0.127 S  
DOCKED: BRANCH  28  30
DOCKED: ATOM     30  C   UNL     1     141.199  79.756 221.913 -0.39 -0.01    +0.042 C  
DOCKED: ATOM     31  C   UNL     1     140.008  80.040 222.834 -0.38 -0.00    +0.015 C  
DOCKED: ATOM     32  C   UNL     1     142.510  80.181 222.579 -0.60 -0.01    +0.015 C  
DOCKED: ENDBRANCH  28  30
DOCKED: ENDBRANCH  24  25
DOCKED: ENDBRANCH  21  24
DOCKED: BRANCH  22  33
DOCKED: ATOM     33  O   UNL     1     146.319  72.423 219.724 -0.57 -0.32    -0.391 OA 
DOCKED: ATOM     34  H   UNL     1     146.027  71.950 220.546 -0.28 +0.02    +0.211 HD 
DOCKED: ENDBRANCH  22  33
DOCKED: ENDBRANCH   1  19
DOCKED: TORSDOF 10
DOCKED: TER
DOCKED: ENDMDL
________________________________________________________________________________


    FINAL DOCKED STATE:
    ________________________


Run:   10 / 20
Time taken for this run:   0.103s

DOCKED: MODEL        10
DOCKED: USER    Run = 10
DOCKED: USER
DOCKED: USER    Estimated Free Energy of Binding    =  -6.80 kcal/mol  [=(1)+(2)+(3)-(4)]
DOCKED: USER
DOCKED: USER    (1) Final Intermolecular Energy     =  -9.78 kcal/mol
DOCKED: USER        vdW + Hbond + desolv Energy     =  -9.67 kcal/mol
DOCKED: USER        Electrostatic Energy            =  -0.11 kcal/mol
DOCKED: USER        Moving Ligand-Fixed Receptor    =  -9.78 kcal/mol
DOCKED: USER        Moving Ligand-Moving Receptor   =  +0.00 kcal/mol
DOCKED: USER    (2) Final Total Internal Energy     =  -2.93 kcal/mol
DOCKED: USER    (3) Torsional Free Energy           =  +2.98 kcal/mol
DOCKED: USER    (4) Unbound System's Energy         =  -2.93 kcal/mol
DOCKED: USER
DOCKED: USER
DOCKED: REMARK SMILES CC(C)c1nc(C[C@@H]2C[C@@H](O)CN2C(=O)C/N=C(\O)c2ccc3cc(F)ccc3n2)cs1
DOCKED: REMARK SMILES IDX 14 1 15 2 16 3 17 4 18 5 19 6 20 8 30 9 21 10 29 11 22 12
DOCKED: REMARK SMILES IDX 28 13 23 14 27 15 24 16 25 17 26 18 13 19 12 20 8 21 10 22
DOCKED: REMARK SMILES IDX 9 23 7 24 6 25 5 26 31 27 4 28 32 29 2 30 1 31 3 32 11 33
DOCKED: REMARK H PARENT 19 7 11 34
DOCKED: USER                              x       y       z     vdW  Elec       q    Type
DOCKED: USER                           _______ _______ _______ _____ _____    ______ ____
DOCKED: ROOT
DOCKED: ATOM      1  C   UNL     1     140.253  71.030 220.436 -0.07 -0.04    +0.244 C  
DOCKED: ATOM      2  O   UNL     1     141.319  70.397 220.656 -0.03 +0.03    -0.273 OA 
DOCKED: ENDROOT
DOCKED: BRANCH   1   3
DOCKED: ATOM      3  C   UNL     1     138.985  70.275 220.175 -0.04 -0.04    +0.246 C  
DOCKED: BRANCH   3   4
DOCKED: ATOM      4  N   UNL     1     138.051  70.456 221.280 -0.03 +0.04    -0.240 NA 
DOCKED: BRANCH   4   5
DOCKED: ATOM      5  C   UNL     1     138.288  71.154 222.353 -0.11 -0.05    +0.233 C  
DOCKED: BRANCH   5   6
DOCKED: ATOM      6  O   UNL     1     138.043  72.530 222.400 -0.06 +0.16    -0.492 OA 
DOCKED: ATOM      7  H   UNL     1     138.501  73.154 223.053 -0.43 -0.18    +0.295 HD 
DOCKED: ENDBRANCH   5   6
DOCKED: BRANCH   5   8
DOCKED: ATOM      8  C   UNL     1     138.829  70.476 223.544 -0.23 -0.02    +0.125 A  
DOCKED: ATOM      9  N   UNL     1     139.422  71.209 224.528 -0.24 +0.05    -0.243 NA 
DOCKED: ATOM     10  C   UNL     1     138.731  69.081 223.682 -0.27 -0.01    +0.035 A  
DOCKED: ATOM     11  C   UNL     1     139.930  70.633 225.651 -0.46 -0.01    +0.071 A  
DOCKED: ATOM     12  C   UNL     1     139.238  68.462 224.827 -0.39 -0.00    +0.013 A  
DOCKED: ATOM     13  C   UNL     1     140.546  71.422 226.630 -0.64 -0.01    +0.032 A  
DOCKED: ATOM     14  C   UNL     1     139.845  69.234 225.826 -0.48 -0.00    +0.003 A  
DOCKED: ATOM     15  C   UNL     1     141.062  70.826 227.785 -0.65 -0.01    +0.041 A  
DOCKED: ATOM     16  C   UNL     1     140.370  68.642 226.984 -0.59 -0.01    +0.049 A  
DOCKED: ATOM     17  C   UNL     1     140.978  69.439 227.961 -0.50 -0.03    +0.123 A  
DOCKED: ATOM     18  F   UNL     1     141.483  68.868 229.081 -0.12 +0.05    -0.207 F  
DOCKED: ENDBRANCH   5   8
DOCKED: ENDBRANCH   4   5
DOCKED: ENDBRANCH   3   4
DOCKED: ENDBRANCH   1   3
DOCKED: BRANCH   1  19
DOCKED: ATOM     19  N   UNL     1     140.255  72.460 220.538 -0.04 +0.06    -0.335 N  
DOCKED: ATOM     20  C   UNL     1     140.556  73.113 221.802 -0.24 -0.01    +0.151 C  
DOCKED: ATOM     21  C   UNL     1     139.706  73.376 219.541 -0.05 -0.02    +0.093 C  
DOCKED: ATOM     22  C   UNL     1     140.218  74.585 221.590 -0.26 -0.02    +0.136 C  
DOCKED: ATOM     23  C   UNL     1     139.305  74.609 220.360 -0.11 -0.01    +0.059 C  
DOCKED: BRANCH  21  24
DOCKED: ATOM     24  C   UNL     1     140.782  73.736 218.487 -0.03 -0.02    +0.082 C  
DOCKED: BRANCH  24  25
DOCKED: ATOM     25  C   UNL     1     142.136  74.039 219.074 -0.12 -0.01    +0.054 A  
DOCKED: ATOM     26  N   UNL     1     142.966  73.072 219.554 -0.08 +0.04    -0.246 NA 
DOCKED: ATOM     27  C   UNL     1     142.579  75.345 219.286 -0.23 -0.04    +0.090 A  
DOCKED: ATOM     28  C   UNL     1     144.079  73.592 220.123 -0.34 -0.02    +0.095 A  
DOCKED: ATOM     29  S   UNL     1     144.067  75.272 220.062 -0.39 +0.07    -0.127 S  
DOCKED: BRANCH  28  30
DOCKED: ATOM     30  C   UNL     1     145.195  72.777 220.723 -0.49 -0.01    +0.042 C  
DOCKED: ATOM     31  C   UNL     1     145.773  71.773 219.720 -0.29 +0.01    +0.015 C  
DOCKED: ATOM     32  C   UNL     1     146.295  73.695 221.263 -0.67 -0.00    +0.015 C  
DOCKED: ENDBRANCH  28  30
DOCKED: ENDBRANCH  24  25
DOCKED: ENDBRANCH  21  24
DOCKED: BRANCH  22  33
DOCKED: ATOM     33  O   UNL     1     139.571  75.116 222.717 -0.49 +0.04    -0.391 OA 
DOCKED: ATOM     34  H   UNL     1     138.793  74.527 222.895 -0.53 -0.10    +0.211 HD 
DOCKED: ENDBRANCH  22  33
DOCKED: ENDBRANCH   1  19
DOCKED: TORSDOF 10
DOCKED: TER
DOCKED: ENDMDL
________________________________________________________________________________


    FINAL DOCKED STATE:
    ________________________


Run:   11 / 20
Time taken for this run:   0.103s

DOCKED: MODEL        11
DOCKED: USER    Run = 11
DOCKED: USER
DOCKED: USER    Estimated Free Energy of Binding    =  -8.88 kcal/mol  [=(1)+(2)+(3)-(4)]
DOCKED: USER
DOCKED: USER    (1) Final Intermolecular Energy     = -11.86 kcal/mol
DOCKED: USER        vdW + Hbond + desolv Energy     = -11.52 kcal/mol
DOCKED: USER        Electrostatic Energy            =  -0.34 kcal/mol
DOCKED: USER        Moving Ligand-Fixed Receptor    = -11.86 kcal/mol
DOCKED: USER        Moving Ligand-Moving Receptor   =  +0.00 kcal/mol
DOCKED: USER    (2) Final Total Internal Energy     =  -1.33 kcal/mol
DOCKED: USER    (3) Torsional Free Energy           =  +2.98 kcal/mol
DOCKED: USER    (4) Unbound System's Energy         =  -1.33 kcal/mol
DOCKED: USER
DOCKED: USER
DOCKED: REMARK SMILES CC(C)c1nc(C[C@@H]2C[C@@H](O)CN2C(=O)C/N=C(\O)c2ccc3cc(F)ccc3n2)cs1
DOCKED: REMARK SMILES IDX 14 1 15 2 16 3 17 4 18 5 19 6 20 8 30 9 21 10 29 11 22 12
DOCKED: REMARK SMILES IDX 28 13 23 14 27 15 24 16 25 17 26 18 13 19 12 20 8 21 10 22
DOCKED: REMARK SMILES IDX 9 23 7 24 6 25 5 26 31 27 4 28 32 29 2 30 1 31 3 32 11 33
DOCKED: REMARK H PARENT 19 7 11 34
DOCKED: USER                              x       y       z     vdW  Elec       q    Type
DOCKED: USER                           _______ _______ _______ _____ _____    ______ ____
DOCKED: ROOT
DOCKED: ATOM      1  C   UNL     1     141.617  72.136 219.428 -0.05 -0.04    +0.244 C  
DOCKED: ATOM      2  O   UNL     1     140.961  72.253 218.359 -0.01 +0.05    -0.273 OA 
DOCKED: ENDROOT
DOCKED: BRANCH   1   3
DOCKED: ATOM      3  C   UNL     1     141.134  71.199 220.494 -0.09 -0.03    +0.246 C  
DOCKED: BRANCH   3   4
DOCKED: ATOM      4  N   UNL     1     139.956  71.748 221.154 -0.08 +0.04    -0.240 NA 
DOCKED: BRANCH   4   5
DOCKED: ATOM      5  C   UNL     1     139.933  72.234 222.362 -0.22 -0.04    +0.233 C  
DOCKED: BRANCH   5   6
DOCKED: ATOM      6  O   UNL     1     139.905  73.613 222.595 -0.66 +0.02    -0.492 OA 
DOCKED: ATOM      7  H   UNL     1     139.158  74.076 223.098 -0.48 -0.13    +0.295 HD 
DOCKED: ENDBRANCH   5   6
DOCKED: BRANCH   5   8
DOCKED: ATOM      8  C   UNL     1     139.941  71.308 223.508 -0.32 -0.02    +0.125 A  
DOCKED: ATOM      9  N   UNL     1     140.446  71.720 224.706 -0.29 +0.04    -0.243 NA 
DOCKED: ATOM     10  C   UNL     1     139.423  70.008 223.384 -0.25 -0.01    +0.035 A  
DOCKED: ATOM     11  C   UNL     1     140.470  70.907 225.797 -0.53 -0.01    +0.071 A  
DOCKED: ATOM     12  C   UNL     1     139.428  69.154 224.488 -0.33 -0.00    +0.013 A  
DOCKED: ATOM     13  C   UNL     1     141.013  71.364 227.003 -0.70 -0.01    +0.032 A  
DOCKED: ATOM     14  C   UNL     1     139.953  69.595 225.710 -0.46 -0.00    +0.003 A  
DOCKED: ATOM     15  C   UNL     1     141.030  70.527 228.124 -0.58 -0.01    +0.041 A  
DOCKED: ATOM     16  C   UNL     1     139.978  68.759 226.835 -0.56 -0.01    +0.049 A  
DOCKED: ATOM     17  C   UNL     1     140.517  69.226 228.040 -0.53 -0.02    +0.123 A  
DOCKED: ATOM     18  F   UNL     1     140.540  68.420 229.129 -0.15 +0.05    -0.207 F  
DOCKED: ENDBRANCH   5   8
DOCKED: ENDBRANCH   4   5
DOCKED: ENDBRANCH   3   4
DOCKED: ENDBRANCH   1   3
DOCKED: BRANCH   1  19
DOCKED: ATOM     19  N   UNL     1     142.867  72.826 219.561 -0.04 +0.06    -0.335 N  
DOCKED: ATOM     20  C   UNL     1     144.094  72.246 219.039 -0.15 -0.00    +0.151 C  
DOCKED: ATOM     21  C   UNL     1     143.106  73.974 220.431 -0.29 -0.03    +0.093 C  
DOCKED: ATOM     22  C   UNL     1     145.220  73.121 219.580 -0.35 +0.01    +0.136 C  
DOCKED: ATOM     23  C   UNL     1     144.602  73.879 220.758 -0.44 -0.02    +0.059 C  
DOCKED: BRANCH  21  24
DOCKED: ATOM     24  C   UNL     1     142.784  75.294 219.687 -0.29 -0.04    +0.082 C  
DOCKED: BRANCH  24  25
DOCKED: ATOM     25  C   UNL     1     141.979  76.274 220.501 -0.22 -0.03    +0.054 A  
DOCKED: ATOM     26  N   UNL     1     142.220  77.614 220.492 -0.17 +0.18    -0.246 NA 
DOCKED: ATOM     27  C   UNL     1     141.014  75.861 221.419 -0.31 -0.03    +0.090 A  
DOCKED: ATOM     28  C   UNL     1     141.439  78.278 221.376 -0.32 -0.05    +0.095 A  
DOCKED: ATOM     29  S   UNL     1     140.428  77.222 222.209 -0.43 +0.04    -0.127 S  
DOCKED: BRANCH  28  30
DOCKED: ATOM     30  C   UNL     1     141.455  79.770 221.584 -0.39 -0.02    +0.042 C  
DOCKED: ATOM     31  C   UNL     1     142.413  80.181 222.707 -0.61 -0.01    +0.015 C  
DOCKED: ATOM     32  C   UNL     1     141.815  80.486 220.279 -0.33 -0.01    +0.015 C  
DOCKED: ENDBRANCH  28  30
DOCKED: ENDBRANCH  24  25
DOCKED: ENDBRANCH  21  24
DOCKED: BRANCH  22  33
DOCKED: ATOM     33  O   UNL     1     146.308  72.336 219.993 -0.49 -0.24    -0.391 OA 
DOCKED: ATOM     34  H   UNL     1     146.014  71.861 220.813 -0.42 -0.04    +0.211 HD 
DOCKED: ENDBRANCH  22  33
DOCKED: ENDBRANCH   1  19
DOCKED: TORSDOF 10
DOCKED: TER
DOCKED: ENDMDL
________________________________________________________________________________


    FINAL DOCKED STATE:
    ________________________


Run:   12 / 20
Time taken for this run:   0.103s

DOCKED: MODEL        12
DOCKED: USER    Run = 12
DOCKED: USER
DOCKED: USER    Estimated Free Energy of Binding    =  -8.63 kcal/mol  [=(1)+(2)+(3)-(4)]
DOCKED: USER
DOCKED: USER    (1) Final Intermolecular Energy     = -11.61 kcal/mol
DOCKED: USER        vdW + Hbond + desolv Energy     = -11.38 kcal/mol
DOCKED: USER        Electrostatic Energy            =  -0.23 kcal/mol
DOCKED: USER        Moving Ligand-Fixed Receptor    = -11.61 kcal/mol
DOCKED: USER        Moving Ligand-Moving Receptor   =  +0.00 kcal/mol
DOCKED: USER    (2) Final Total Internal Energy     =  -1.43 kcal/mol
DOCKED: USER    (3) Torsional Free Energy           =  +2.98 kcal/mol
DOCKED: USER    (4) Unbound System's Energy         =  -1.43 kcal/mol
DOCKED: USER
DOCKED: USER
DOCKED: REMARK SMILES CC(C)c1nc(C[C@@H]2C[C@@H](O)CN2C(=O)C/N=C(\O)c2ccc3cc(F)ccc3n2)cs1
DOCKED: REMARK SMILES IDX 14 1 15 2 16 3 17 4 18 5 19 6 20 8 30 9 21 10 29 11 22 12
DOCKED: REMARK SMILES IDX 28 13 23 14 27 15 24 16 25 17 26 18 13 19 12 20 8 21 10 22
DOCKED: REMARK SMILES IDX 9 23 7 24 6 25 5 26 31 27 4 28 32 29 2 30 1 31 3 32 11 33
DOCKED: REMARK H PARENT 19 7 11 34
DOCKED: USER                              x       y       z     vdW  Elec       q    Type
DOCKED: USER                           _______ _______ _______ _____ _____    ______ ____
DOCKED: ROOT
DOCKED: ATOM      1  C   UNL     1     141.206  72.877 219.245 -0.03 -0.05    +0.244 C  
DOCKED: ATOM      2  O   UNL     1     140.318  73.163 218.398 -0.01 +0.06    -0.273 OA 
DOCKED: ENDROOT
DOCKED: BRANCH   1   3
DOCKED: ATOM      3  C   UNL     1     140.985  71.734 220.190 -0.07 -0.04    +0.246 C  
DOCKED: BRANCH   3   4
DOCKED: ATOM      4  N   UNL     1     141.295  72.139 221.555 -0.16 +0.02    -0.240 NA 
DOCKED: BRANCH   4   5
DOCKED: ATOM      5  C   UNL     1     140.413  72.426 222.469 -0.21 -0.02    +0.233 C  
DOCKED: BRANCH   5   6
DOCKED: ATOM      6  O   UNL     1     139.638  73.589 222.398 -0.66 +0.08    -0.492 OA 
DOCKED: ATOM      7  H   UNL     1     138.923  73.822 223.076 -0.49 -0.17    +0.295 HD 
DOCKED: ENDBRANCH   5   6
DOCKED: BRANCH   5   8
DOCKED: ATOM      8  C   UNL     1     140.231  71.505 223.605 -0.33 -0.02    +0.125 A  
DOCKED: ATOM      9  N   UNL     1     140.709  71.847 224.835 -0.28 +0.03    -0.243 NA 
DOCKED: ATOM     10  C   UNL     1     139.558  70.283 223.437 -0.27 -0.01    +0.035 A  
DOCKED: ATOM     11  C   UNL     1     140.561  71.036 225.918 -0.55 -0.01    +0.071 A  
DOCKED: ATOM     12  C   UNL     1     139.385  69.434 224.531 -0.35 -0.00    +0.013 A  
DOCKED: ATOM     13  C   UNL     1     141.082  71.417 227.160 -0.72 -0.01    +0.032 A  
DOCKED: ATOM     14  C   UNL     1     139.886  69.802 225.787 -0.47 -0.00    +0.003 A  
DOCKED: ATOM     15  C   UNL     1     140.922  70.584 228.271 -0.56 -0.01    +0.041 A  
DOCKED: ATOM     16  C   UNL     1     139.734  68.968 226.903 -0.53 -0.01    +0.049 A  
DOCKED: ATOM     17  C   UNL     1     140.252  69.360 228.143 -0.52 -0.02    +0.123 A  
DOCKED: ATOM     18  F   UNL     1     140.104  68.556 229.224 -0.09 +0.04    -0.207 F  
DOCKED: ENDBRANCH   5   8
DOCKED: ENDBRANCH   4   5
DOCKED: ENDBRANCH   3   4
DOCKED: ENDBRANCH   1   3
DOCKED: BRANCH   1  19
DOCKED: ATOM     19  N   UNL     1     142.451  73.587 219.220 -0.02 +0.08    -0.335 N  
DOCKED: ATOM     20  C   UNL     1     143.551  73.126 218.388 -0.09 -0.02    +0.151 C  
DOCKED: ATOM     21  C   UNL     1     142.853  74.615 220.176 -0.29 -0.03    +0.093 C  
DOCKED: ATOM     22  C   UNL     1     144.757  73.960 218.809 +0.04 -0.03    +0.136 C  
DOCKED: ATOM     23  C   UNL     1     144.385  74.529 220.181 -0.41 -0.02    +0.059 C  
DOCKED: BRANCH  21  24
DOCKED: ATOM     24  C   UNL     1     142.377  76.011 219.703 -0.28 -0.04    +0.082 C  
DOCKED: BRANCH  24  25
DOCKED: ATOM     25  C   UNL     1     141.496  76.725 220.695 -0.27 -0.03    +0.054 A  
DOCKED: ATOM     26  N   UNL     1     141.855  77.895 221.292 -0.15 +0.16    -0.246 NA 
DOCKED: ATOM     27  C   UNL     1     140.307  76.169 221.167 -0.24 -0.03    +0.090 A  
DOCKED: ATOM     28  C   UNL     1     140.950  78.291 222.219 -0.36 -0.04    +0.095 A  
DOCKED: ATOM     29  S   UNL     1     139.678  77.197 222.337 -0.38 +0.03    -0.127 S  
DOCKED: BRANCH  28  30
DOCKED: ATOM     30  C   UNL     1     141.055  79.555 223.032 -0.49 -0.01    +0.042 C  
DOCKED: ATOM     31  C   UNL     1     142.504  80.034 223.161 -0.65 -0.00    +0.015 C  
DOCKED: ATOM     32  C   UNL     1     140.175  80.653 222.427 -0.34 -0.00    +0.015 C  
DOCKED: ENDBRANCH  28  30
DOCKED: ENDBRANCH  24  25
DOCKED: ENDBRANCH  21  24
DOCKED: BRANCH  22  33
DOCKED: ATOM     33  O   UNL     1     145.912  73.165 218.882 -0.70 -0.21    -0.391 OA 
DOCKED: ATOM     34  H   UNL     1     146.682  73.792 218.882 -0.42 +0.10    +0.211 HD 
DOCKED: ENDBRANCH  22  33
DOCKED: ENDBRANCH   1  19
DOCKED: TORSDOF 10
DOCKED: TER
DOCKED: ENDMDL
________________________________________________________________________________


    FINAL DOCKED STATE:
    ________________________


Run:   13 / 20
Time taken for this run:   0.103s

DOCKED: MODEL        13
DOCKED: USER    Run = 13
DOCKED: USER
DOCKED: USER    Estimated Free Energy of Binding    =  -8.73 kcal/mol  [=(1)+(2)+(3)-(4)]
DOCKED: USER
DOCKED: USER    (1) Final Intermolecular Energy     = -11.71 kcal/mol
DOCKED: USER        vdW + Hbond + desolv Energy     = -11.50 kcal/mol
DOCKED: USER        Electrostatic Energy            =  -0.22 kcal/mol
DOCKED: USER        Moving Ligand-Fixed Receptor    = -11.71 kcal/mol
DOCKED: USER        Moving Ligand-Moving Receptor   =  +0.00 kcal/mol
DOCKED: USER    (2) Final Total Internal Energy     =  -1.16 kcal/mol
DOCKED: USER    (3) Torsional Free Energy           =  +2.98 kcal/mol
DOCKED: USER    (4) Unbound System's Energy         =  -1.16 kcal/mol
DOCKED: USER
DOCKED: USER
DOCKED: REMARK SMILES CC(C)c1nc(C[C@@H]2C[C@@H](O)CN2C(=O)C/N=C(\O)c2ccc3cc(F)ccc3n2)cs1
DOCKED: REMARK SMILES IDX 14 1 15 2 16 3 17 4 18 5 19 6 20 8 30 9 21 10 29 11 22 12
DOCKED: REMARK SMILES IDX 28 13 23 14 27 15 24 16 25 17 26 18 13 19 12 20 8 21 10 22
DOCKED: REMARK SMILES IDX 9 23 7 24 6 25 5 26 31 27 4 28 32 29 2 30 1 31 3 32 11 33
DOCKED: REMARK H PARENT 19 7 11 34
DOCKED: USER                              x       y       z     vdW  Elec       q    Type
DOCKED: USER                           _______ _______ _______ _____ _____    ______ ____
DOCKED: ROOT
DOCKED: ATOM      1  C   UNL     1     141.082  73.759 221.191 -0.19 -0.04    +0.244 C  
DOCKED: ATOM      2  O   UNL     1     140.806  74.713 221.965 -0.69 +0.02    -0.273 OA 
DOCKED: ENDROOT
DOCKED: BRANCH   1   3
DOCKED: ATOM      3  C   UNL     1     140.043  72.717 220.902 -0.11 -0.04    +0.246 C  
DOCKED: BRANCH   3   4
DOCKED: ATOM      4  N   UNL     1     140.055  71.689 221.935 -0.15 +0.04    -0.240 NA 
DOCKED: BRANCH   4   5
DOCKED: ATOM      5  C   UNL     1     139.137  71.529 222.843 -0.20 -0.05    +0.233 C  
DOCKED: BRANCH   5   6
DOCKED: ATOM      6  O   UNL     1     137.918  72.214 222.780 -0.06 +0.16    -0.492 OA 
DOCKED: ATOM      7  H   UNL     1     137.626  72.895 223.470 -0.45 -0.20    +0.295 HD 
DOCKED: ENDBRANCH   5   6
DOCKED: BRANCH   5   8
DOCKED: ATOM      8  C   UNL     1     139.390  70.608 223.965 -0.29 -0.02    +0.125 A  
DOCKED: ATOM      9  N   UNL     1     140.021  71.064 225.084 -0.30 +0.04    -0.243 NA 
DOCKED: ATOM     10  C   UNL     1     138.976  69.267 223.900 -0.29 -0.01    +0.035 A  
DOCKED: ATOM     11  C   UNL     1     140.272  70.257 226.151 -0.49 -0.01    +0.071 A  
DOCKED: ATOM     12  C   UNL     1     139.213  68.417 224.982 -0.42 -0.00    +0.013 A  
DOCKED: ATOM     13  C   UNL     1     140.938  70.760 227.274 -0.63 -0.01    +0.032 A  
DOCKED: ATOM     14  C   UNL     1     139.866  68.904 226.121 -0.52 -0.00    +0.003 A  
DOCKED: ATOM     15  C   UNL     1     141.189  69.929 228.370 -0.46 -0.01    +0.041 A  
DOCKED: ATOM     16  C   UNL     1     140.125  68.074 227.221 -0.62 -0.01    +0.049 A  
DOCKED: ATOM     17  C   UNL     1     140.786  68.588 228.343 -0.55 -0.03    +0.123 A  
DOCKED: ATOM     18  F   UNL     1     141.035  67.787 229.408 -0.16 +0.06    -0.207 F  
DOCKED: ENDBRANCH   5   8
DOCKED: ENDBRANCH   4   5
DOCKED: ENDBRANCH   3   4
DOCKED: ENDBRANCH   1   3
DOCKED: BRANCH   1  19
DOCKED: ATOM     19  N   UNL     1     142.350  73.745 220.523 -0.12 +0.07    -0.335 N  
DOCKED: ATOM     20  C   UNL     1     142.961  72.489 220.117 -0.18 -0.02    +0.151 C  
DOCKED: ATOM     21  C   UNL     1     143.267  74.878 220.432 -0.26 -0.04    +0.093 C  
DOCKED: ATOM     22  C   UNL     1     144.378  72.847 219.683 -0.27 -0.01    +0.136 C  
DOCKED: ATOM     23  C   UNL     1     144.647  74.221 220.302 -0.45 -0.02    +0.059 C  
DOCKED: BRANCH  21  24
DOCKED: ATOM     24  C   UNL     1     142.943  75.739 219.186 -0.29 -0.04    +0.082 C  
DOCKED: BRANCH  24  25
DOCKED: ATOM     25  C   UNL     1     142.548  77.157 219.508 -0.32 -0.04    +0.054 A  
DOCKED: ATOM     26  N   UNL     1     142.157  77.549 220.752 -0.12 +0.18    -0.246 NA 
DOCKED: ATOM     27  C   UNL     1     142.431  78.138 218.523 -0.28 -0.07    +0.090 A  
DOCKED: ATOM     28  C   UNL     1     141.754  78.842 220.775 -0.28 -0.05    +0.095 A  
DOCKED: ATOM     29  S   UNL     1     141.857  79.540 219.249 -0.31 +0.08    -0.127 S  
DOCKED: BRANCH  28  30
DOCKED: ATOM     30  C   UNL     1     141.287  79.572 222.007 -0.41 -0.01    +0.042 C  
DOCKED: ATOM     31  C   UNL     1     140.728  78.612 223.063 -0.48 -0.00    +0.015 C  
DOCKED: ATOM     32  C   UNL     1     142.423  80.415 222.591 -0.59 -0.00    +0.015 C  
DOCKED: ENDBRANCH  28  30
DOCKED: ENDBRANCH  24  25
DOCKED: ENDBRANCH  21  24
DOCKED: BRANCH  22  33
DOCKED: ATOM     33  O   UNL     1     145.298  71.891 220.142 -0.18 -0.03    -0.391 OA 
DOCKED: ATOM     34  H   UNL     1     145.208  71.870 221.130 -0.39 -0.10    +0.211 HD 
DOCKED: ENDBRANCH  22  33
DOCKED: ENDBRANCH   1  19
DOCKED: TORSDOF 10
DOCKED: TER
DOCKED: ENDMDL
________________________________________________________________________________


    FINAL DOCKED STATE:
    ________________________


Run:   14 / 20
Time taken for this run:   0.103s

DOCKED: MODEL        14
DOCKED: USER    Run = 14
DOCKED: USER
DOCKED: USER    Estimated Free Energy of Binding    =  -7.30 kcal/mol  [=(1)+(2)+(3)-(4)]
DOCKED: USER
DOCKED: USER    (1) Final Intermolecular Energy     = -10.29 kcal/mol
DOCKED: USER        vdW + Hbond + desolv Energy     = -10.24 kcal/mol
DOCKED: USER        Electrostatic Energy            =  -0.05 kcal/mol
DOCKED: USER        Moving Ligand-Fixed Receptor    = -10.29 kcal/mol
DOCKED: USER        Moving Ligand-Moving Receptor   =  +0.00 kcal/mol
DOCKED: USER    (2) Final Total Internal Energy     =  -2.42 kcal/mol
DOCKED: USER    (3) Torsional Free Energy           =  +2.98 kcal/mol
DOCKED: USER    (4) Unbound System's Energy         =  -2.42 kcal/mol
DOCKED: USER
DOCKED: USER
DOCKED: REMARK SMILES CC(C)c1nc(C[C@@H]2C[C@@H](O)CN2C(=O)C/N=C(\O)c2ccc3cc(F)ccc3n2)cs1
DOCKED: REMARK SMILES IDX 14 1 15 2 16 3 17 4 18 5 19 6 20 8 30 9 21 10 29 11 22 12
DOCKED: REMARK SMILES IDX 28 13 23 14 27 15 24 16 25 17 26 18 13 19 12 20 8 21 10 22
DOCKED: REMARK SMILES IDX 9 23 7 24 6 25 5 26 31 27 4 28 32 29 2 30 1 31 3 32 11 33
DOCKED: REMARK H PARENT 19 7 11 34
DOCKED: USER                              x       y       z     vdW  Elec       q    Type
DOCKED: USER                           _______ _______ _______ _____ _____    ______ ____
DOCKED: ROOT
DOCKED: ATOM      1  C   UNL     1     137.551  74.484 221.178 -0.08 -0.06    +0.244 C  
DOCKED: ATOM      2  O   UNL     1     136.589  74.734 220.404 -0.02 +0.05    -0.273 OA 
DOCKED: ENDROOT
DOCKED: BRANCH   1   3
DOCKED: ATOM      3  C   UNL     1     137.551  73.209 221.968 -0.09 -0.07    +0.246 C  
DOCKED: BRANCH   3   4
DOCKED: ATOM      4  N   UNL     1     138.790  72.474 221.743 -0.10 +0.05    -0.240 NA 
DOCKED: BRANCH   4   5
DOCKED: ATOM      5  C   UNL     1     139.826  72.494 222.530 -0.20 -0.04    +0.233 C  
DOCKED: BRANCH   5   6
DOCKED: ATOM      6  O   UNL     1     140.857  73.424 222.358 -0.54 -0.03    -0.492 OA 
DOCKED: ATOM      7  H   UNL     1     141.335  73.567 221.477 +0.11 -0.03    +0.295 HD 
DOCKED: ENDBRANCH   5   6
DOCKED: BRANCH   5   8
DOCKED: ATOM      8  C   UNL     1     139.914  71.513 223.626 -0.33 -0.02    +0.125 A  
DOCKED: ATOM      9  N   UNL     1     140.398  71.898 224.841 -0.25 +0.04    -0.243 NA 
DOCKED: ATOM     10  C   UNL     1     139.494  70.186 223.436 -0.27 -0.01    +0.035 A  
DOCKED: ATOM     11  C   UNL     1     140.493  71.033 225.887 -0.54 -0.01    +0.071 A  
DOCKED: ATOM     12  C   UNL     1     139.574  69.278 224.493 -0.33 -0.00    +0.013 A  
DOCKED: ATOM     13  C   UNL     1     141.010  71.466 227.113 -0.73 -0.01    +0.032 A  
DOCKED: ATOM     14  C   UNL     1     140.075  69.693 225.733 -0.47 -0.00    +0.003 A  
DOCKED: ATOM     15  C   UNL     1     141.101  70.576 228.188 -0.56 -0.01    +0.041 A  
DOCKED: ATOM     16  C   UNL     1     140.174  68.803 226.813 -0.56 -0.01    +0.049 A  
DOCKED: ATOM     17  C   UNL     1     140.687  69.246 228.038 -0.52 -0.02    +0.123 A  
DOCKED: ATOM     18  F   UNL     1     140.781  68.388 229.082 -0.17 +0.05    -0.207 F  
DOCKED: ENDBRANCH   5   8
DOCKED: ENDBRANCH   4   5
DOCKED: ENDBRANCH   3   4
DOCKED: ENDBRANCH   1   3
DOCKED: BRANCH   1  19
DOCKED: ATOM     19  N   UNL     1     138.673  75.375 221.210 -0.08 +0.08    -0.335 N  
DOCKED: ATOM     20  C   UNL     1     139.853  75.112 220.401 -0.12 -0.04    +0.151 C  
DOCKED: ATOM     21  C   UNL     1     138.888  76.422 222.205 -0.28 -0.02    +0.093 C  
DOCKED: ATOM     22  C   UNL     1     140.905  76.106 220.881 -0.24 -0.05    +0.136 C  
DOCKED: ATOM     23  C   UNL     1     140.414  76.570 222.255 -0.36 -0.02    +0.059 C  
DOCKED: BRANCH  21  24
DOCKED: ATOM     24  C   UNL     1     138.217  77.743 221.754 -0.17 -0.02    +0.082 C  
DOCKED: BRANCH  24  25
DOCKED: ATOM     25  C   UNL     1     138.686  78.957 222.515 -0.24 -0.01    +0.054 A  
DOCKED: ATOM     26  N   UNL     1     139.953  79.446 222.417 -0.15 +0.06    -0.246 NA 
DOCKED: ATOM     27  C   UNL     1     137.889  79.588 223.472 -0.23 -0.01    +0.090 A  
DOCKED: ATOM     28  C   UNL     1     140.168  80.477 223.268 -0.37 -0.02    +0.095 A  
DOCKED: ATOM     29  S   UNL     1     138.796  80.811 224.181 -0.37 +0.01    -0.127 S  
DOCKED: BRANCH  28  30
DOCKED: ATOM     30  C   UNL     1     141.461  81.241 223.378 -0.52 -0.01    +0.042 C  
DOCKED: ATOM     31  C   UNL     1     142.639  80.324 223.727 -0.66 -0.00    +0.015 C  
DOCKED: ATOM     32  C   UNL     1     141.740  82.009 222.083 -0.34 -0.00    +0.015 C  
DOCKED: ENDBRANCH  28  30
DOCKED: ENDBRANCH  24  25
DOCKED: ENDBRANCH  21  24
DOCKED: BRANCH  22  33
DOCKED: ATOM     33  O   UNL     1     142.166  75.495 220.969 -0.12 +0.19    -0.391 OA 
DOCKED: ATOM     34  H   UNL     1     142.239  75.138 221.893 -0.35 -0.08    +0.211 HD 
DOCKED: ENDBRANCH  22  33
DOCKED: ENDBRANCH   1  19
DOCKED: TORSDOF 10
DOCKED: TER
DOCKED: ENDMDL
________________________________________________________________________________


    FINAL DOCKED STATE:
    ________________________


Run:   15 / 20
Time taken for this run:   0.103s

DOCKED: MODEL        15
DOCKED: USER    Run = 15
DOCKED: USER
DOCKED: USER    Estimated Free Energy of Binding    =  -8.52 kcal/mol  [=(1)+(2)+(3)-(4)]
DOCKED: USER
DOCKED: USER    (1) Final Intermolecular Energy     = -11.50 kcal/mol
DOCKED: USER        vdW + Hbond + desolv Energy     = -11.20 kcal/mol
DOCKED: USER        Electrostatic Energy            =  -0.31 kcal/mol
DOCKED: USER        Moving Ligand-Fixed Receptor    = -11.50 kcal/mol
DOCKED: USER        Moving Ligand-Moving Receptor   =  +0.00 kcal/mol
DOCKED: USER    (2) Final Total Internal Energy     =  -1.36 kcal/mol
DOCKED: USER    (3) Torsional Free Energy           =  +2.98 kcal/mol
DOCKED: USER    (4) Unbound System's Energy         =  -1.36 kcal/mol
DOCKED: USER
DOCKED: USER
DOCKED: REMARK SMILES CC(C)c1nc(C[C@@H]2C[C@@H](O)CN2C(=O)C/N=C(\O)c2ccc3cc(F)ccc3n2)cs1
DOCKED: REMARK SMILES IDX 14 1 15 2 16 3 17 4 18 5 19 6 20 8 30 9 21 10 29 11 22 12
DOCKED: REMARK SMILES IDX 28 13 23 14 27 15 24 16 25 17 26 18 13 19 12 20 8 21 10 22
DOCKED: REMARK SMILES IDX 9 23 7 24 6 25 5 26 31 27 4 28 32 29 2 30 1 31 3 32 11 33
DOCKED: REMARK H PARENT 19 7 11 34
DOCKED: USER                              x       y       z     vdW  Elec       q    Type
DOCKED: USER                           _______ _______ _______ _____ _____    ______ ____
DOCKED: ROOT
DOCKED: ATOM      1  C   UNL     1     141.848  71.836 219.548 -0.06 -0.04    +0.244 C  
DOCKED: ATOM      2  O   UNL     1     141.356  71.273 218.535 -0.02 +0.05    -0.273 OA 
DOCKED: ENDROOT
DOCKED: BRANCH   1   3
DOCKED: ATOM      3  C   UNL     1     141.440  71.384 220.918 -0.07 -0.03    +0.246 C  
DOCKED: BRANCH   3   4
DOCKED: ATOM      4  N   UNL     1     141.033  72.525 221.728 -0.21 +0.02    -0.240 NA 
DOCKED: BRANCH   4   5
DOCKED: ATOM      5  C   UNL     1     139.999  72.551 222.519 -0.21 -0.03    +0.233 C  
DOCKED: BRANCH   5   6
DOCKED: ATOM      6  O   UNL     1     138.967  73.480 222.344 -0.25 +0.15    -0.492 OA 
DOCKED: ATOM      7  H   UNL     1     138.723  74.177 223.036 -0.50 -0.18    +0.295 HD 
DOCKED: ENDBRANCH   5   6
DOCKED: BRANCH   5   8
DOCKED: ATOM      8  C   UNL     1     139.917  71.581 223.625 -0.32 -0.02    +0.125 A  
DOCKED: ATOM      9  N   UNL     1     140.499  71.871 224.823 -0.27 +0.04    -0.243 NA 
DOCKED: ATOM     10  C   UNL     1     139.234  70.364 223.462 -0.28 -0.01    +0.035 A  
DOCKED: ATOM     11  C   UNL     1     140.445  71.013 225.877 -0.53 -0.01    +0.071 A  
DOCKED: ATOM     12  C   UNL     1     139.157  69.466 224.529 -0.35 -0.00    +0.013 A  
DOCKED: ATOM     13  C   UNL     1     141.071  71.342 227.085 -0.71 -0.01    +0.032 A  
DOCKED: ATOM     14  C   UNL     1     139.764  69.782 225.751 -0.46 -0.00    +0.003 A  
DOCKED: ATOM     15  C   UNL     1     141.009  70.461 228.169 -0.57 -0.01    +0.041 A  
DOCKED: ATOM     16  C   UNL     1     139.710  68.900 226.839 -0.53 -0.01    +0.049 A  
DOCKED: ATOM     17  C   UNL     1     140.333  69.240 228.046 -0.53 -0.02    +0.123 A  
DOCKED: ATOM     18  F   UNL     1     140.280  68.389 229.099 -0.16 +0.04    -0.207 F  
DOCKED: ENDBRANCH   5   8
DOCKED: ENDBRANCH   4   5
DOCKED: ENDBRANCH   3   4
DOCKED: ENDBRANCH   1   3
DOCKED: BRANCH   1  19
DOCKED: ATOM     19  N   UNL     1     142.865  72.831 219.370 -0.03 +0.06    -0.335 N  
DOCKED: ATOM     20  C   UNL     1     144.053  72.545 218.581 -0.12 -0.00    +0.151 C  
DOCKED: ATOM     21  C   UNL     1     142.980  74.065 220.143 -0.27 -0.03    +0.093 C  
DOCKED: ATOM     22  C   UNL     1     144.996  73.718 218.826 -0.08 -0.02    +0.136 C  
DOCKED: ATOM     23  C   UNL     1     144.481  74.381 220.106 -0.42 -0.02    +0.059 C  
DOCKED: BRANCH  21  24
DOCKED: ATOM     24  C   UNL     1     142.159  75.198 219.478 -0.20 -0.03    +0.082 C  
DOCKED: BRANCH  24  25
DOCKED: ATOM     25  C   UNL     1     141.604  76.204 220.453 -0.26 -0.02    +0.054 A  
DOCKED: ATOM     26  N   UNL     1     142.013  77.503 220.486 -0.18 +0.16    -0.246 NA 
DOCKED: ATOM     27  C   UNL     1     140.726  75.843 221.475 -0.31 -0.03    +0.090 A  
DOCKED: ATOM     28  C   UNL     1     141.451  78.188 221.510 -0.32 -0.05    +0.095 A  
DOCKED: ATOM     29  S   UNL     1     140.434  77.202 222.417 -0.43 +0.04    -0.127 S  
DOCKED: BRANCH  28  30
DOCKED: ATOM     30  C   UNL     1     141.688  79.647 221.797 -0.43 -0.02    +0.042 C  
DOCKED: ATOM     31  C   UNL     1     140.435  80.332 222.352 -0.36 -0.00    +0.015 C  
DOCKED: ATOM     32  C   UNL     1     142.867  79.817 222.758 -0.60 -0.01    +0.015 C  
DOCKED: ENDBRANCH  28  30
DOCKED: ENDBRANCH  24  25
DOCKED: ENDBRANCH  21  24
DOCKED: BRANCH  22  33
DOCKED: ATOM     33  O   UNL     1     146.319  73.271 218.979 -0.69 -0.31    -0.391 OA 
DOCKED: ATOM     34  H   UNL     1     146.887  74.085 219.005 -0.47 +0.05    +0.211 HD 
DOCKED: ENDBRANCH  22  33
DOCKED: ENDBRANCH   1  19
DOCKED: TORSDOF 10
DOCKED: TER
DOCKED: ENDMDL
________________________________________________________________________________


    FINAL DOCKED STATE:
    ________________________


Run:   16 / 20
Time taken for this run:   0.103s

DOCKED: MODEL        16
DOCKED: USER    Run = 16
DOCKED: USER
DOCKED: USER    Estimated Free Energy of Binding    =  -6.47 kcal/mol  [=(1)+(2)+(3)-(4)]
DOCKED: USER
DOCKED: USER    (1) Final Intermolecular Energy     =  -9.45 kcal/mol
DOCKED: USER        vdW + Hbond + desolv Energy     =  -9.31 kcal/mol
DOCKED: USER        Electrostatic Energy            =  -0.14 kcal/mol
DOCKED: USER        Moving Ligand-Fixed Receptor    =  -9.45 kcal/mol
DOCKED: USER        Moving Ligand-Moving Receptor   =  +0.00 kcal/mol
DOCKED: USER    (2) Final Total Internal Energy     =  -2.59 kcal/mol
DOCKED: USER    (3) Torsional Free Energy           =  +2.98 kcal/mol
DOCKED: USER    (4) Unbound System's Energy         =  -2.59 kcal/mol
DOCKED: USER
DOCKED: USER
DOCKED: REMARK SMILES CC(C)c1nc(C[C@@H]2C[C@@H](O)CN2C(=O)C/N=C(\O)c2ccc3cc(F)ccc3n2)cs1
DOCKED: REMARK SMILES IDX 14 1 15 2 16 3 17 4 18 5 19 6 20 8 30 9 21 10 29 11 22 12
DOCKED: REMARK SMILES IDX 28 13 23 14 27 15 24 16 25 17 26 18 13 19 12 20 8 21 10 22
DOCKED: REMARK SMILES IDX 9 23 7 24 6 25 5 26 31 27 4 28 32 29 2 30 1 31 3 32 11 33
DOCKED: REMARK H PARENT 19 7 11 34
DOCKED: USER                              x       y       z     vdW  Elec       q    Type
DOCKED: USER                           _______ _______ _______ _____ _____    ______ ____
DOCKED: ROOT
DOCKED: ATOM      1  C   UNL     1     140.501  74.628 220.270 -0.10 -0.06    +0.244 C  
DOCKED: ATOM      2  O   UNL     1     140.025  74.409 219.125 -0.02 +0.06    -0.273 OA 
DOCKED: ENDROOT
DOCKED: BRANCH   1   3
DOCKED: ATOM      3  C   UNL     1     141.277  73.550 220.966 -0.17 -0.04    +0.246 C  
DOCKED: BRANCH   3   4
DOCKED: ATOM      4  N   UNL     1     140.817  73.402 222.341 -0.59 -0.01    -0.240 NA 
DOCKED: BRANCH   4   5
DOCKED: ATOM      5  C   UNL     1     139.742  72.765 222.706 -0.07 -0.04    +0.233 C  
DOCKED: BRANCH   5   6
DOCKED: ATOM      6  O   UNL     1     138.481  73.116 222.213 -0.08 +0.16    -0.492 OA 
DOCKED: ATOM      7  H   UNL     1     137.822  73.687 222.727 -0.46 -0.15    +0.295 HD 
DOCKED: ENDBRANCH   5   6
DOCKED: BRANCH   5   8
DOCKED: ATOM      8  C   UNL     1     139.858  71.650 223.663 -0.31 -0.03    +0.125 A  
DOCKED: ATOM      9  N   UNL     1     140.341  71.883 224.916 -0.26 +0.04    -0.243 NA 
DOCKED: ATOM     10  C   UNL     1     139.465  70.351 223.301 -0.26 -0.01    +0.035 A  
DOCKED: ATOM     11  C   UNL     1     140.461  70.891 225.839 -0.53 -0.01    +0.071 A  
DOCKED: ATOM     12  C   UNL     1     139.571  69.313 224.230 -0.29 -0.00    +0.013 A  
DOCKED: ATOM     13  C   UNL     1     140.977  71.170 227.110 -0.68 -0.01    +0.032 A  
DOCKED: ATOM     14  C   UNL     1     140.071  69.573 225.512 -0.45 -0.00    +0.003 A  
DOCKED: ATOM     15  C   UNL     1     141.094  70.149 228.058 -0.56 -0.01    +0.041 A  
DOCKED: ATOM     16  C   UNL     1     140.196  68.552 226.465 -0.56 -0.01    +0.049 A  
DOCKED: ATOM     17  C   UNL     1     140.707  68.841 227.736 -0.54 -0.03    +0.123 A  
DOCKED: ATOM     18  F   UNL     1     140.826  67.855 228.658 -0.17 +0.06    -0.207 F  
DOCKED: ENDBRANCH   5   8
DOCKED: ENDBRANCH   4   5
DOCKED: ENDBRANCH   3   4
DOCKED: ENDBRANCH   1   3
DOCKED: BRANCH   1  19
DOCKED: ATOM     19  N   UNL     1     140.378  75.937 220.841 -0.09 +0.10    -0.335 N  
DOCKED: ATOM     20  C   UNL     1     141.376  76.960 220.576 -0.23 -0.07    +0.151 C  
DOCKED: ATOM     21  C   UNL     1     139.464  76.301 221.921 -0.29 -0.02    +0.093 C  
DOCKED: ATOM     22  C   UNL     1     141.053  78.103 221.532 -0.29 -0.06    +0.136 C  
DOCKED: ATOM     23  C   UNL     1     140.167  77.477 222.612 -0.31 -0.01    +0.059 C  
DOCKED: BRANCH  21  24
DOCKED: ATOM     24  C   UNL     1     138.092  76.735 221.347 -0.15 -0.02    +0.082 C  
DOCKED: BRANCH  24  25
DOCKED: ATOM     25  C   UNL     1     137.000  75.714 221.535 -0.13 -0.01    +0.054 A  
DOCKED: ATOM     26  N   UNL     1     136.613  75.265 222.761 -0.14 +0.07    -0.246 NA 
DOCKED: ATOM     27  C   UNL     1     136.399  75.062 220.458 -0.03 -0.02    +0.090 A  
DOCKED: ATOM     28  C   UNL     1     135.690  74.279 222.674 -0.14 -0.02    +0.095 A  
DOCKED: ATOM     29  S   UNL     1     135.329  73.921 221.070 -0.04 +0.02    -0.127 S  
DOCKED: BRANCH  28  30
DOCKED: ATOM     30  C   UNL     1     135.052  73.595 223.855 -0.20 -0.01    +0.042 C  
DOCKED: ATOM     31  C   UNL     1     135.744  72.271 224.192 -0.20 -0.00    +0.015 C  
DOCKED: ATOM     32  C   UNL     1     135.045  74.526 225.071 -0.32 -0.00    +0.015 C  
DOCKED: ENDBRANCH  28  30
DOCKED: ENDBRANCH  24  25
DOCKED: ENDBRANCH  21  24
DOCKED: BRANCH  22  33
DOCKED: ATOM     33  O   UNL     1     142.227  78.641 222.083 -0.22 +0.25    -0.391 OA 
DOCKED: ATOM     34  H   UNL     1     142.937  77.962 221.942 -0.43 -0.27    +0.211 HD 
DOCKED: ENDBRANCH  22  33
DOCKED: ENDBRANCH   1  19
DOCKED: TORSDOF 10
DOCKED: TER
DOCKED: ENDMDL
________________________________________________________________________________


    FINAL DOCKED STATE:
    ________________________


Run:   17 / 20
Time taken for this run:   0.103s

DOCKED: MODEL        17
DOCKED: USER    Run = 17
DOCKED: USER
DOCKED: USER    Estimated Free Energy of Binding    =  -6.65 kcal/mol  [=(1)+(2)+(3)-(4)]
DOCKED: USER
DOCKED: USER    (1) Final Intermolecular Energy     =  -9.64 kcal/mol
DOCKED: USER        vdW + Hbond + desolv Energy     =  -9.59 kcal/mol
DOCKED: USER        Electrostatic Energy            =  -0.05 kcal/mol
DOCKED: USER        Moving Ligand-Fixed Receptor    =  -9.64 kcal/mol
DOCKED: USER        Moving Ligand-Moving Receptor   =  +0.00 kcal/mol
DOCKED: USER    (2) Final Total Internal Energy     =  -1.84 kcal/mol
DOCKED: USER    (3) Torsional Free Energy           =  +2.98 kcal/mol
DOCKED: USER    (4) Unbound System's Energy         =  -1.84 kcal/mol
DOCKED: USER
DOCKED: USER
DOCKED: REMARK SMILES CC(C)c1nc(C[C@@H]2C[C@@H](O)CN2C(=O)C/N=C(\O)c2ccc3cc(F)ccc3n2)cs1
DOCKED: REMARK SMILES IDX 14 1 15 2 16 3 17 4 18 5 19 6 20 8 30 9 21 10 29 11 22 12
DOCKED: REMARK SMILES IDX 28 13 23 14 27 15 24 16 25 17 26 18 13 19 12 20 8 21 10 22
DOCKED: REMARK SMILES IDX 9 23 7 24 6 25 5 26 31 27 4 28 32 29 2 30 1 31 3 32 11 33
DOCKED: REMARK H PARENT 19 7 11 34
DOCKED: USER                              x       y       z     vdW  Elec       q    Type
DOCKED: USER                           _______ _______ _______ _____ _____    ______ ____
DOCKED: ROOT
DOCKED: ATOM      1  C   UNL     1     140.959  75.336 221.025 -0.21 -0.07    +0.244 C  
DOCKED: ATOM      2  O   UNL     1     141.792  75.298 221.968 -0.12 +0.09    -0.273 OA 
DOCKED: ENDROOT
DOCKED: BRANCH   1   3
DOCKED: ATOM      3  C   UNL     1     139.572  74.810 221.243 -0.17 -0.05    +0.246 C  
DOCKED: BRANCH   3   4
DOCKED: ATOM      4  N   UNL     1     139.574  73.790 222.284 -0.71 +0.04    -0.240 NA 
DOCKED: BRANCH   4   5
DOCKED: ATOM      5  C   UNL     1     140.369  72.759 222.320 -0.20 -0.02    +0.233 C  
DOCKED: BRANCH   5   6
DOCKED: ATOM      6  O   UNL     1     141.376  72.578 221.365 -0.10 +0.05    -0.492 OA 
DOCKED: ATOM      7  H   UNL     1     142.083  73.275 221.165 +0.12 -0.04    +0.295 HD 
DOCKED: ENDBRANCH   5   6
DOCKED: BRANCH   5   8
DOCKED: ATOM      8  C   UNL     1     140.199  71.759 223.389 -0.32 -0.02    +0.125 A  
DOCKED: ATOM      9  N   UNL     1     140.681  72.017 224.638 -0.15 +0.03    -0.243 NA 
DOCKED: ATOM     10  C   UNL     1     139.535  70.547 223.139 -0.26 -0.01    +0.035 A  
DOCKED: ATOM     11  C   UNL     1     140.545  71.131 225.661 -0.53 -0.01    +0.071 A  
DOCKED: ATOM     12  C   UNL     1     139.374  69.621 224.171 -0.32 -0.00    +0.013 A  
DOCKED: ATOM     13  C   UNL     1     141.069  71.429 226.924 -0.71 -0.01    +0.032 A  
DOCKED: ATOM     14  C   UNL     1     139.879  69.904 225.447 -0.45 -0.00    +0.003 A  
DOCKED: ATOM     15  C   UNL     1     140.922  70.518 227.975 -0.62 -0.01    +0.041 A  
DOCKED: ATOM     16  C   UNL     1     139.738  68.993 226.503 -0.51 -0.01    +0.049 A  
DOCKED: ATOM     17  C   UNL     1     140.261  69.301 227.765 -0.52 -0.02    +0.123 A  
DOCKED: ATOM     18  F   UNL     1     140.124  68.422 228.787 -0.17 +0.04    -0.207 F  
DOCKED: ENDBRANCH   5   8
DOCKED: ENDBRANCH   4   5
DOCKED: ENDBRANCH   3   4
DOCKED: ENDBRANCH   1   3
DOCKED: BRANCH   1  19
DOCKED: ATOM     19  N   UNL     1     141.323  75.975 219.795 -0.06 +0.13    -0.335 N  
DOCKED: ATOM     20  C   UNL     1     140.901  75.421 218.518 -0.05 -0.05    +0.151 C  
DOCKED: ATOM     21  C   UNL     1     142.336  77.018 219.655 -0.29 -0.06    +0.093 C  
DOCKED: ATOM     22  C   UNL     1     141.672  76.203 217.460 -0.08 -0.06    +0.136 C  
DOCKED: ATOM     23  C   UNL     1     142.838  76.848 218.215 -0.28 -0.04    +0.059 C  
DOCKED: BRANCH  21  24
DOCKED: ATOM     24  C   UNL     1     141.705  78.417 219.861 -0.25 -0.05    +0.082 C  
DOCKED: BRANCH  24  25
DOCKED: ATOM     25  C   UNL     1     141.350  78.722 221.294 -0.32 -0.03    +0.054 A  
DOCKED: ATOM     26  N   UNL     1     140.065  78.854 221.723 -0.11 +0.07    -0.246 NA 
DOCKED: ATOM     27  C   UNL     1     142.319  79.018 222.253 -0.39 -0.05    +0.090 A  
DOCKED: ATOM     28  C   UNL     1     139.998  79.228 223.023 -0.35 -0.02    +0.095 A  
DOCKED: ATOM     29  S   UNL     1     141.534  79.419 223.682 -0.64 +0.03    -0.127 S  
DOCKED: BRANCH  28  30
DOCKED: ATOM     30  C   UNL     1     138.719  79.434 223.791 -0.25 -0.01    +0.042 C  
DOCKED: ATOM     31  C   UNL     1     138.521  80.900 224.190 -0.38 -0.00    +0.015 C  
DOCKED: ATOM     32  C   UNL     1     137.522  78.930 222.979 -0.20 -0.00    +0.015 C  
DOCKED: ENDBRANCH  28  30
DOCKED: ENDBRANCH  24  25
DOCKED: ENDBRANCH  21  24
DOCKED: BRANCH  22  33
DOCKED: ATOM     33  O   UNL     1     142.132  75.350 216.444 -0.01 +0.15    -0.391 OA 
DOCKED: ATOM     34  H   UNL     1     141.332  74.878 216.093 +0.02 -0.06    +0.211 HD 
DOCKED: ENDBRANCH  22  33
DOCKED: ENDBRANCH   1  19
DOCKED: TORSDOF 10
DOCKED: TER
DOCKED: ENDMDL
________________________________________________________________________________


    FINAL DOCKED STATE:
    ________________________


Run:   18 / 20
Time taken for this run:   0.103s

DOCKED: MODEL        18
DOCKED: USER    Run = 18
DOCKED: USER
DOCKED: USER    Estimated Free Energy of Binding    =  -6.00 kcal/mol  [=(1)+(2)+(3)-(4)]
DOCKED: USER
DOCKED: USER    (1) Final Intermolecular Energy     =  -8.98 kcal/mol
DOCKED: USER        vdW + Hbond + desolv Energy     =  -8.85 kcal/mol
DOCKED: USER        Electrostatic Energy            =  -0.13 kcal/mol
DOCKED: USER        Moving Ligand-Fixed Receptor    =  -8.98 kcal/mol
DOCKED: USER        Moving Ligand-Moving Receptor   =  +0.00 kcal/mol
DOCKED: USER    (2) Final Total Internal Energy     =  -3.81 kcal/mol
DOCKED: USER    (3) Torsional Free Energy           =  +2.98 kcal/mol
DOCKED: USER    (4) Unbound System's Energy         =  -3.81 kcal/mol
DOCKED: USER
DOCKED: USER
DOCKED: REMARK SMILES CC(C)c1nc(C[C@@H]2C[C@@H](O)CN2C(=O)C/N=C(\O)c2ccc3cc(F)ccc3n2)cs1
DOCKED: REMARK SMILES IDX 14 1 15 2 16 3 17 4 18 5 19 6 20 8 30 9 21 10 29 11 22 12
DOCKED: REMARK SMILES IDX 28 13 23 14 27 15 24 16 25 17 26 18 13 19 12 20 8 21 10 22
DOCKED: REMARK SMILES IDX 9 23 7 24 6 25 5 26 31 27 4 28 32 29 2 30 1 31 3 32 11 33
DOCKED: REMARK H PARENT 19 7 11 34
DOCKED: USER                              x       y       z     vdW  Elec       q    Type
DOCKED: USER                           _______ _______ _______ _____ _____    ______ ____
DOCKED: ROOT
DOCKED: ATOM      1  C   UNL     1     141.256  73.534 220.143 -0.10 -0.05    +0.244 C  
DOCKED: ATOM      2  O   UNL     1     140.467  73.567 219.163 -0.02 +0.06    -0.273 OA 
DOCKED: ENDROOT
DOCKED: BRANCH   1   3
DOCKED: ATOM      3  C   UNL     1     140.733  73.179 221.502 -0.20 -0.03    +0.246 C  
DOCKED: BRANCH   3   4
DOCKED: ATOM      4  N   UNL     1     140.337  74.382 222.223 -0.71 -0.01    -0.240 NA 
DOCKED: BRANCH   4   5
DOCKED: ATOM      5  C   UNL     1     139.658  75.370 221.715 -0.22 -0.05    +0.233 C  
DOCKED: BRANCH   5   6
DOCKED: ATOM      6  O   UNL     1     138.727  75.167 220.691 -0.02 +0.11    -0.492 OA 
DOCKED: ATOM      7  H   UNL     1     138.969  74.770 219.791 +0.05 -0.06    +0.295 HD 
DOCKED: ENDBRANCH   5   6
DOCKED: BRANCH   5   8
DOCKED: ATOM      8  C   UNL     1     139.878  76.732 222.231 -0.31 -0.03    +0.125 A  
DOCKED: ATOM      9  N   UNL     1     141.133  77.264 222.221 -0.23 +0.11    -0.243 NA 
DOCKED: ATOM     10  C   UNL     1     138.806  77.495 222.723 -0.29 -0.01    +0.035 A  
DOCKED: ATOM     11  C   UNL     1     141.389  78.520 222.679 -0.46 -0.03    +0.071 A  
DOCKED: ATOM     12  C   UNL     1     139.036  78.790 223.193 -0.32 -0.00    +0.013 A  
DOCKED: ATOM     13  C   UNL     1     142.695  79.021 222.666 -0.35 -0.02    +0.032 A  
DOCKED: ATOM     14  C   UNL     1     140.334  79.317 223.176 -0.45 -0.00    +0.003 A  
DOCKED: ATOM     15  C   UNL     1     142.953  80.314 223.132 -0.63 -0.01    +0.041 A  
DOCKED: ATOM     16  C   UNL     1     140.599  80.611 223.647 -0.42 -0.01    +0.049 A  
DOCKED: ATOM     17  C   UNL     1     141.908  81.107 223.625 -0.51 -0.02    +0.123 A  
DOCKED: ATOM     18  F   UNL     1     142.166  82.358 224.078 +0.05 +0.00    -0.207 F  
DOCKED: ENDBRANCH   5   8
DOCKED: ENDBRANCH   4   5
DOCKED: ENDBRANCH   3   4
DOCKED: ENDBRANCH   1   3
DOCKED: BRANCH   1  19
DOCKED: ATOM     19  N   UNL     1     142.658  73.737 219.921 -0.08 +0.08    -0.335 N  
DOCKED: ATOM     20  C   UNL     1     143.544  72.608 219.683 -0.18 -0.02    +0.151 C  
DOCKED: ATOM     21  C   UNL     1     143.379  74.981 220.178 -0.30 -0.04    +0.093 C  
DOCKED: ATOM     22  C   UNL     1     144.956  73.179 219.745 -0.35 -0.00    +0.136 C  
DOCKED: ATOM     23  C   UNL     1     144.811  74.518 220.474 -0.43 -0.02    +0.059 C  
DOCKED: BRANCH  21  24
DOCKED: ATOM     24  C   UNL     1     143.340  75.898 218.930 -0.31 -0.05    +0.082 C  
DOCKED: BRANCH  24  25
DOCKED: ATOM     25  C   UNL     1     142.268  76.956 218.983 -0.27 -0.03    +0.054 A  
DOCKED: ATOM     26  N   UNL     1     142.523  78.248 219.333 -0.09 +0.19    -0.246 NA 
DOCKED: ATOM     27  C   UNL     1     140.918  76.656 218.802 -0.09 -0.03    +0.090 A  
DOCKED: ATOM     28  C   UNL     1     141.391  78.987 219.408 -0.20 -0.05    +0.095 A  
DOCKED: ATOM     29  S   UNL     1     140.033  78.061 219.054 -0.09 +0.04    -0.127 S  
DOCKED: BRANCH  28  30
DOCKED: ATOM     30  C   UNL     1     141.347  80.454 219.750 -0.26 -0.02    +0.042 C  
DOCKED: ATOM     31  C   UNL     1     141.895  81.322 218.613 -0.28 -0.01    +0.015 C  
DOCKED: ATOM     32  C   UNL     1     139.921  80.875 220.112 -0.14 -0.00    +0.015 C  
DOCKED: ENDBRANCH  28  30
DOCKED: ENDBRANCH  24  25
DOCKED: ENDBRANCH  21  24
DOCKED: BRANCH  22  33
DOCKED: ATOM     33  O   UNL     1     145.816  72.311 220.437 -0.28 -0.04    -0.391 OA 
DOCKED: ATOM     34  H   UNL     1     145.451  72.233 221.357 -0.38 -0.09    +0.211 HD 
DOCKED: ENDBRANCH  22  33
DOCKED: ENDBRANCH   1  19
DOCKED: TORSDOF 10
DOCKED: TER
DOCKED: ENDMDL
________________________________________________________________________________


    FINAL DOCKED STATE:
    ________________________


Run:   19 / 20
Time taken for this run:   0.103s

DOCKED: MODEL        19
DOCKED: USER    Run = 19
DOCKED: USER
DOCKED: USER    Estimated Free Energy of Binding    =  -5.64 kcal/mol  [=(1)+(2)+(3)-(4)]
DOCKED: USER
DOCKED: USER    (1) Final Intermolecular Energy     =  -8.62 kcal/mol
DOCKED: USER        vdW + Hbond + desolv Energy     =  -8.44 kcal/mol
DOCKED: USER        Electrostatic Energy            =  -0.18 kcal/mol
DOCKED: USER        Moving Ligand-Fixed Receptor    =  -8.62 kcal/mol
DOCKED: USER        Moving Ligand-Moving Receptor   =  +0.00 kcal/mol
DOCKED: USER    (2) Final Total Internal Energy     =  -4.23 kcal/mol
DOCKED: USER    (3) Torsional Free Energy           =  +2.98 kcal/mol
DOCKED: USER    (4) Unbound System's Energy         =  -4.23 kcal/mol
DOCKED: USER
DOCKED: USER
DOCKED: REMARK SMILES CC(C)c1nc(C[C@@H]2C[C@@H](O)CN2C(=O)C/N=C(\O)c2ccc3cc(F)ccc3n2)cs1
DOCKED: REMARK SMILES IDX 14 1 15 2 16 3 17 4 18 5 19 6 20 8 30 9 21 10 29 11 22 12
DOCKED: REMARK SMILES IDX 28 13 23 14 27 15 24 16 25 17 26 18 13 19 12 20 8 21 10 22
DOCKED: REMARK SMILES IDX 9 23 7 24 6 25 5 26 31 27 4 28 32 29 2 30 1 31 3 32 11 33
DOCKED: REMARK H PARENT 19 7 11 34
DOCKED: USER                              x       y       z     vdW  Elec       q    Type
DOCKED: USER                           _______ _______ _______ _____ _____    ______ ____
DOCKED: ROOT
DOCKED: ATOM      1  C   UNL     1     141.260  73.253 220.512 -0.13 -0.04    +0.244 C  
DOCKED: ATOM      2  O   UNL     1     140.453  72.985 219.582 -0.03 +0.05    -0.273 OA 
DOCKED: ENDROOT
DOCKED: BRANCH   1   3
DOCKED: ATOM      3  C   UNL     1     140.811  73.136 221.937 -0.17 -0.01    +0.246 C  
DOCKED: BRANCH   3   4
DOCKED: ATOM      4  N   UNL     1     139.961  74.265 222.295 -0.77 +0.01    -0.240 NA 
DOCKED: BRANCH   4   5
DOCKED: ATOM      5  C   UNL     1     139.734  75.300 221.538 -0.22 -0.05    +0.233 C  
DOCKED: BRANCH   5   6
DOCKED: ATOM      6  O   UNL     1     139.294  75.159 220.218 +0.00 +0.11    -0.492 OA 
DOCKED: ATOM      7  H   UNL     1     139.921  75.110 219.425 +0.06 -0.07    +0.295 HD 
DOCKED: ENDBRANCH   5   6
DOCKED: BRANCH   5   8
DOCKED: ATOM      8  C   UNL     1     139.949  76.651 222.087 -0.31 -0.03    +0.125 A  
DOCKED: ATOM      9  N   UNL     1     141.182  77.226 222.001 -0.21 +0.11    -0.243 NA 
DOCKED: ATOM     10  C   UNL     1     138.894  77.358 222.688 -0.29 -0.01    +0.035 A  
DOCKED: ATOM     11  C   UNL     1     141.432  78.473 222.484 -0.43 -0.03    +0.071 A  
DOCKED: ATOM     12  C   UNL     1     139.119  78.642 223.187 -0.31 -0.00    +0.013 A  
DOCKED: ATOM     13  C   UNL     1     142.716  79.021 222.390 -0.24 -0.02    +0.032 A  
DOCKED: ATOM     14  C   UNL     1     140.394  79.215 223.091 -0.45 -0.00    +0.003 A  
DOCKED: ATOM     15  C   UNL     1     142.968  80.305 222.883 -0.61 -0.01    +0.041 A  
DOCKED: ATOM     16  C   UNL     1     140.653  80.500 223.589 -0.43 -0.01    +0.049 A  
DOCKED: ATOM     17  C   UNL     1     141.939  81.043 223.484 -0.51 -0.02    +0.123 A  
DOCKED: ATOM     18  F   UNL     1     142.191  82.285 223.963 -0.02 +0.00    -0.207 F  
DOCKED: ENDBRANCH   5   8
DOCKED: ENDBRANCH   4   5
DOCKED: ENDBRANCH   3   4
DOCKED: ENDBRANCH   1   3
DOCKED: BRANCH   1  19
DOCKED: ATOM     19  N   UNL     1     142.621  73.566 220.188 -0.10 +0.07    -0.335 N  
DOCKED: ATOM     20  C   UNL     1     143.631  72.520 220.135 -0.23 -0.02    +0.151 C  
DOCKED: ATOM     21  C   UNL     1     143.192  74.910 220.163 -0.31 -0.04    +0.093 C  
DOCKED: ATOM     22  C   UNL     1     144.965  73.249 220.018 -0.40 -0.01    +0.136 C  
DOCKED: ATOM     23  C   UNL     1     144.676  74.681 220.477 -0.34 -0.03    +0.059 C  
DOCKED: BRANCH  21  24
DOCKED: ATOM     24  C   UNL     1     143.014  75.548 218.763 -0.25 -0.04    +0.082 C  
DOCKED: BRANCH  24  25
DOCKED: ATOM     25  C   UNL     1     142.296  76.873 218.782 -0.26 -0.03    +0.054 A  
DOCKED: ATOM     26  N   UNL     1     140.944  76.978 218.902 -0.04 +0.10    -0.246 NA 
DOCKED: ATOM     27  C   UNL     1     142.957  78.079 218.549 -0.20 -0.08    +0.090 A  
DOCKED: ATOM     28  C   UNL     1     140.521  78.260 218.792 -0.08 -0.04    +0.095 A  
DOCKED: ATOM     29  S   UNL     1     141.811  79.307 218.530 -0.29 +0.08    -0.127 S  
DOCKED: BRANCH  28  30
DOCKED: ATOM     30  C   UNL     1     139.085  78.701 218.902 -0.04 -0.01    +0.042 C  
DOCKED: ATOM     31  C   UNL     1     138.143  77.521 219.161 -0.02 -0.00    +0.015 C  
DOCKED: ATOM     32  C   UNL     1     138.935  79.761 219.997 -0.07 -0.00    +0.015 C  
DOCKED: ENDBRANCH  28  30
DOCKED: ENDBRANCH  24  25
DOCKED: ENDBRANCH  21  24
DOCKED: BRANCH  22  33
DOCKED: ATOM     33  O   UNL     1     145.939  72.640 220.826 -0.32 +0.01    -0.391 OA 
DOCKED: ATOM     34  H   UNL     1     145.481  71.902 221.305 -0.42 -0.12    +0.211 HD 
DOCKED: ENDBRANCH  22  33
DOCKED: ENDBRANCH   1  19
DOCKED: TORSDOF 10
DOCKED: TER
DOCKED: ENDMDL
________________________________________________________________________________


    FINAL DOCKED STATE:
    ________________________


Run:   20 / 20
Time taken for this run:   0.103s

DOCKED: MODEL        20
DOCKED: USER    Run = 20
DOCKED: USER
DOCKED: USER    Estimated Free Energy of Binding    =  -6.29 kcal/mol  [=(1)+(2)+(3)-(4)]
DOCKED: USER
DOCKED: USER    (1) Final Intermolecular Energy     =  -9.27 kcal/mol
DOCKED: USER        vdW + Hbond + desolv Energy     =  -9.01 kcal/mol
DOCKED: USER        Electrostatic Energy            =  -0.26 kcal/mol
DOCKED: USER        Moving Ligand-Fixed Receptor    =  -9.27 kcal/mol
DOCKED: USER        Moving Ligand-Moving Receptor   =  +0.00 kcal/mol
DOCKED: USER    (2) Final Total Internal Energy     =  -2.76 kcal/mol
DOCKED: USER    (3) Torsional Free Energy           =  +2.98 kcal/mol
DOCKED: USER    (4) Unbound System's Energy         =  -2.76 kcal/mol
DOCKED: USER
DOCKED: USER
DOCKED: REMARK SMILES CC(C)c1nc(C[C@@H]2C[C@@H](O)CN2C(=O)C/N=C(\O)c2ccc3cc(F)ccc3n2)cs1
DOCKED: REMARK SMILES IDX 14 1 15 2 16 3 17 4 18 5 19 6 20 8 30 9 21 10 29 11 22 12
DOCKED: REMARK SMILES IDX 28 13 23 14 27 15 24 16 25 17 26 18 13 19 12 20 8 21 10 22
DOCKED: REMARK SMILES IDX 9 23 7 24 6 25 5 26 31 27 4 28 32 29 2 30 1 31 3 32 11 33
DOCKED: REMARK H PARENT 19 7 11 34
DOCKED: USER                              x       y       z     vdW  Elec       q    Type
DOCKED: USER                           _______ _______ _______ _____ _____    ______ ____
DOCKED: ROOT
DOCKED: ATOM      1  C   UNL     1     141.841  72.585 219.357 -0.05 -0.04    +0.244 C  
DOCKED: ATOM      2  O   UNL     1     141.036  73.374 218.796 -0.02 +0.06    -0.273 OA 
DOCKED: ENDROOT
DOCKED: BRANCH   1   3
DOCKED: ATOM      3  C   UNL     1     141.311  71.413 220.129 -0.08 -0.04    +0.246 C  
DOCKED: BRANCH   3   4
DOCKED: ATOM      4  N   UNL     1     140.188  71.823 220.963 -0.08 +0.04    -0.240 NA 
DOCKED: BRANCH   4   5
DOCKED: ATOM      5  C   UNL     1     140.289  72.347 222.151 -0.22 -0.03    +0.233 C  
DOCKED: BRANCH   5   6
DOCKED: ATOM      6  O   UNL     1     140.525  73.714 222.329 -0.68 -0.02    -0.492 OA 
DOCKED: ATOM      7  H   UNL     1     141.085  74.269 221.693 +0.10 -0.03    +0.295 HD 
DOCKED: ENDBRANCH   5   6
DOCKED: BRANCH   5   8
DOCKED: ATOM      8  C   UNL     1     140.155  71.477 223.333 -0.31 -0.02    +0.125 A  
DOCKED: ATOM      9  N   UNL     1     140.647  71.891 224.535 -0.26 +0.03    -0.243 NA 
DOCKED: ATOM     10  C   UNL     1     139.515  70.231 223.237 -0.25 -0.01    +0.035 A  
DOCKED: ATOM     11  C   UNL     1     140.542  71.130 225.658 -0.53 -0.01    +0.071 A  
DOCKED: ATOM     12  C   UNL     1     139.386  69.431 224.374 -0.33 -0.00    +0.013 A  
DOCKED: ATOM     13  C   UNL     1     141.075  71.585 226.869 -0.72 -0.01    +0.032 A  
DOCKED: ATOM     14  C   UNL     1     139.900  69.873 225.600 -0.46 -0.00    +0.003 A  
DOCKED: ATOM     15  C   UNL     1     140.961  70.802 228.022 -0.65 -0.01    +0.041 A  
DOCKED: ATOM     16  C   UNL     1     139.793  69.090 226.758 -0.52 -0.01    +0.049 A  
DOCKED: ATOM     17  C   UNL     1     140.324  69.556 227.967 -0.52 -0.02    +0.123 A  
DOCKED: ATOM     18  F   UNL     1     140.219  68.801 229.088 -0.13 +0.04    -0.207 F  
DOCKED: ENDBRANCH   5   8
DOCKED: ENDBRANCH   4   5
DOCKED: ENDBRANCH   3   4
DOCKED: ENDBRANCH   1   3
DOCKED: BRANCH   1  19
DOCKED: ATOM     19  N   UNL     1     143.250  72.765 219.161 -0.03 +0.05    -0.335 N  
DOCKED: ATOM     20  C   UNL     1     143.825  72.723 217.827 -0.07 -0.01    +0.151 C  
DOCKED: ATOM     21  C   UNL     1     144.258  72.722 220.217 -0.33 -0.01    +0.093 C  
DOCKED: ATOM     22  C   UNL     1     145.335  72.698 218.035 -0.14 +0.06    +0.136 C  
DOCKED: ATOM     23  C   UNL     1     145.528  72.260 219.490 -0.34 +0.02    +0.059 C  
DOCKED: BRANCH  21  24
DOCKED: ATOM     24  C   UNL     1     144.455  74.128 220.836 -0.33 -0.03    +0.082 C  
DOCKED: BRANCH  24  25
DOCKED: ATOM     25  C   UNL     1     143.440  75.144 220.379 -0.22 -0.03    +0.054 A  
DOCKED: ATOM     26  N   UNL     1     142.204  75.256 220.940 -0.15 +0.11    -0.246 NA 
DOCKED: ATOM     27  C   UNL     1     143.650  75.955 219.263 -0.32 -0.06    +0.090 A  
DOCKED: ATOM     28  C   UNL     1     141.435  76.167 220.298 -0.22 -0.04    +0.095 A  
DOCKED: ATOM     29  S   UNL     1     142.258  76.857 219.003 -0.31 +0.07    -0.127 S  
DOCKED: BRANCH  28  30
DOCKED: ATOM     30  C   UNL     1     140.028  76.531 220.694 -0.18 -0.01    +0.042 C  
DOCKED: ATOM     31  C   UNL     1     139.025  75.437 220.314 -0.10 -0.00    +0.015 C  
DOCKED: ATOM     32  C   UNL     1     139.956  76.832 222.193 -0.37 -0.00    +0.015 C  
DOCKED: ENDBRANCH  28  30
DOCKED: ENDBRANCH  24  25
DOCKED: ENDBRANCH  21  24
DOCKED: BRANCH  22  33
DOCKED: ATOM     33  O   UNL     1     145.947  71.799 217.146 -0.23 -0.36    -0.391 OA 
DOCKED: ATOM     34  H   UNL     1     145.362  71.756 216.346 +0.04 +0.06    +0.211 HD 
DOCKED: ENDBRANCH  22  33
DOCKED: ENDBRANCH   1  19
DOCKED: TORSDOF 10
DOCKED: TER
DOCKED: ENDMDL
________________________________________________________________________________


    CLUSTERING HISTOGRAM
    ____________________


________________________________________________________________________________
     |           |     |           |     |
Clus | Lowest    | Run | Mean      | Num | Histogram
-ter | Binding   |     | Binding   | in  |
Rank | Energy    |     | Energy    | Clus|    5    10   15   20   25   30   35
_____|___________|_____|___________|_____|____:____|____:____|____:____|____:___
   1 |     -8.96 |   4 |     -8.10 |  14 |##############
   2 |     -7.30 |  14 |     -7.30 |   1 |#
   3 |     -7.18 |   3 |     -7.18 |   1 |#
   4 |     -6.65 |  17 |     -6.65 |   1 |#
   5 |     -6.47 |  16 |     -6.47 |   1 |#
   6 |     -6.00 |  18 |     -5.82 |   2 |##
_____|___________|_____|___________|_____|______________________________________


    RMSD TABLE
    __________


_______________________________________________________________________
     |      |      |           |         |                 |
Rank | Sub- | Run  | Binding   | Cluster | Reference       | Grep
     | Rank |      | Energy    | RMSD    | RMSD            | Pattern
_____|______|______|___________|_________|_________________|___________
   1      1      4       -8.96      0.00    271.90           RANKING
   1      2     11       -8.88      0.89    271.81           RANKING
   1      3      9       -8.77      0.89    271.86           RANKING
   1      4     13       -8.73      1.51    271.92           RANKING
   1      5      7       -8.71      1.44    271.85           RANKING
   1      6      1       -8.64      1.37    271.74           RANKING
   1      7     12       -8.63      0.88    271.82           RANKING
   1      8      2       -8.57      0.74    271.88           RANKING
   1      9     15       -8.52      0.59    271.79           RANKING
   1     10      8       -7.87      1.99    272.09           RANKING
   1     11      5       -7.37      1.80    271.96           RANKING
   1     12     10       -6.80      1.99    271.07           RANKING
   1     13      6       -6.72      1.91    271.10           RANKING
   1     14     20       -6.29      1.85    271.23           RANKING
   2      1     14       -7.30      0.00    272.11           RANKING
   3      1      3       -7.18      0.00    271.51           RANKING
   4      1     17       -6.65      0.00    271.72           RANKING
   5      1     16       -6.47      0.00    271.31           RANKING
   6      1     18       -6.00      0.00    271.59           RANKING
   6      2     19       -5.64      1.08    271.40           RANKING

Run time 2.022 sec
Idle time 0.000 sec
