REMARK SMILES CC(C)c1nc(C[C@@H]2C[C@@H](O)CN2/C(O)=C/[N-]C(=O)c2ccc3cc(F)ccc3n2)cs1
REMARK SMILES IDX 14 1 15 2 16 4 17 5 18 6 19 7 20 8 30 9 21 10 29 11 22 12
REMARK SMILES IDX 28 13 23 14 27 15 24 16 25 17 26 18 13 19 12 20 8 21 10 22
REMARK SMILES IDX 9 23 7 24 6 25 5 26 31 27 4 28 32 29 2 30 1 31 3 32 11 33
REMARK H PARENT 15 3 11 34
ROOT
ATOM      1  C   UNL     1       0.767   0.105   1.536  1.00  0.00     0.164 C 
ENDROOT
BRANCH   1   2
ATOM      2  O   UNL     1       1.499   1.253   1.857  1.00  0.00    -0.496 OA
ATOM      3  H   UNL     1       1.573   2.053   1.241  1.00  0.00     0.295 HD
ENDBRANCH   1   2
BRANCH   1   4
ATOM      4  C   UNL     1       0.151   0.008   0.346  1.00  0.00    -0.069 C 
BRANCH   4   5
ATOM      5  N   UNL     1       0.232   1.061  -0.616  1.00  0.00    -0.623 NA
BRANCH   5   6
ATOM      6  C   UNL     1      -0.450   1.029  -1.875  1.00  0.00     0.104 C 
ATOM      7  O   UNL     1      -1.196   0.054  -2.168  1.00  0.00    -0.313 OA
BRANCH   6   8
ATOM      8  C   UNL     1      -0.278   2.146  -2.821  1.00  0.00     0.089 A 
ATOM      9  N   UNL     1       0.516   3.197  -2.474  1.00  0.00    -0.246 NA
ATOM     10  C   UNL     1      -0.922   2.147  -4.070  1.00  0.00     0.031 A 
ATOM     11  C   UNL     1       0.711   4.260  -3.300  1.00  0.00     0.071 A 
ATOM     12  C   UNL     1      -0.740   3.224  -4.940  1.00  0.00     0.013 A 
ATOM     13  C   UNL     1       1.530   5.320  -2.900  1.00  0.00     0.032 A 
ATOM     14  C   UNL     1       0.078   4.296  -4.562  1.00  0.00     0.003 A 
ATOM     15  C   UNL     1       1.717   6.417  -3.746  1.00  0.00     0.041 A 
ATOM     16  C   UNL     1       0.272   5.400  -5.407  1.00  0.00     0.049 A 
ATOM     17  C   UNL     1       1.088   6.458  -4.995  1.00  0.00     0.123 A 
ATOM     18  F   UNL     1       1.269   7.527  -5.809  1.00  0.00    -0.207 F 
ENDBRANCH   6   8
ENDBRANCH   5   6
ENDBRANCH   4   5
ENDBRANCH   1   4
BRANCH   1  19
ATOM     19  N   UNL     1       0.712  -0.967   2.505  1.00  0.00    -0.339 N 
ATOM     20  C   UNL     1       1.676  -1.051   3.589  1.00  0.00     0.151 C 
ATOM     21  C   UNL     1      -0.124  -2.163   2.409  1.00  0.00     0.093 C 
ATOM     22  C   UNL     1       1.661  -2.506   4.055  1.00  0.00     0.136 C 
ATOM     23  C   UNL     1       0.341  -3.085   3.547  1.00  0.00     0.059 C 
BRANCH  21  24
ATOM     24  C   UNL     1      -1.625  -1.809   2.531  1.00  0.00     0.082 C 
BRANCH  24  25
ATOM     25  C   UNL     1      -2.469  -2.882   1.915  1.00  0.00     0.054 A 
ATOM     26  N   UNL     1      -2.816  -2.838   0.601  1.00  0.00    -0.246 NA
ATOM     27  C   UNL     1      -2.865  -4.035   2.594  1.00  0.00     0.090 A 
ATOM     28  C   UNL     1      -3.504  -3.936   0.222  1.00  0.00     0.095 A 
ATOM     29  S   UNL     1      -3.684  -5.015   1.500  1.00  0.00    -0.127 S 
BRANCH  28  30
ATOM     30  C   UNL     1      -3.973  -4.180  -1.183  1.00  0.00     0.042 C 
ATOM     31  C   UNL     1      -4.900  -3.051  -1.639  1.00  0.00     0.015 C 
ATOM     32  C   UNL     1      -2.772  -4.312  -2.126  1.00  0.00     0.015 C 
ENDBRANCH  28  30
ENDBRANCH  24  25
ENDBRANCH  21  24
BRANCH  22  33
ATOM     33  O   UNL     1       2.733  -3.212   3.484  1.00  0.00    -0.391 OA
ATOM     34  H   UNL     1       3.529  -3.012   4.040  1.00  0.00     0.211 HD
ENDBRANCH  22  33
ENDBRANCH   1  19
TORSDOF 10
