REMARK SMILES CC(C)c1nc(C[C@@H]2C[C@@H](O)CN2C(=O)C[N-]C(=O)c2ccc3cc(F)ccc3n2)cs1
REMARK SMILES IDX 14 1 15 2 13 3 8 4 9 5 10 6 12 7 7 8 6 9 4 10 5 11 32 12
REMARK SMILES IDX 31 13 2 14 1 15 3 16 11 17 16 19 17 20 18 21 19 22 20 23
REMARK SMILES IDX 21 24 30 25 22 26 29 27 23 28 28 29 24 30 27 31 25 32 26 33
REMARK H PARENT 11 18
ROOT
ATOM      1  C   UNL     1       1.833   0.774  -1.932  1.00  0.00     0.205 C 
ATOM      2  O   UNL     1       3.008   0.928  -2.361  1.00  0.00    -0.277 OA
ENDROOT
BRANCH   1   3
ATOM      3  N   UNL     1       1.240   1.788  -1.100  1.00  0.00    -0.338 N 
ATOM      4  C   UNL     1       2.026   2.749  -0.335  1.00  0.00     0.093 C 
ATOM      5  C   UNL     1       1.022   3.758   0.246  1.00  0.00     0.059 C 
ATOM      6  C   UNL     1      -0.367   3.347  -0.273  1.00  0.00     0.136 C 
ATOM      7  C   UNL     1      -0.192   2.019  -1.016  1.00  0.00     0.151 C 
BRANCH   4   8
ATOM      8  C   UNL     1       2.865   2.044   0.757  1.00  0.00     0.082 C 
BRANCH   8   9
ATOM      9  C   UNL     1       2.020   1.239   1.709  1.00  0.00     0.054 A 
ATOM     10  C   UNL     1       0.608  -0.410   2.292  1.00  0.00     0.095 A 
ATOM     11  N   UNL     1       1.359   0.120   1.303  1.00  0.00    -0.246 NA
ATOM     12  S   UNL     1       0.738   0.496   3.711  1.00  0.00    -0.127 S 
ATOM     13  C   UNL     1       1.802   1.609   3.036  1.00  0.00     0.090 A 
BRANCH  10  14
ATOM     14  C   UNL     1      -0.278  -1.607   2.095  1.00  0.00     0.042 C 
ATOM     15  C   UNL     1      -1.746  -1.227   2.311  1.00  0.00     0.015 C 
ATOM     16  C   UNL     1       0.138  -2.748   3.028  1.00  0.00     0.015 C 
ENDBRANCH  10  14
ENDBRANCH   8   9
ENDBRANCH   4   8
BRANCH   6  17
ATOM     17  O   UNL     1      -0.909   4.336  -1.116  1.00  0.00    -0.391 OA
ATOM     18  H   UNL     1      -0.283   4.460  -1.878  1.00  0.00     0.211 HD
ENDBRANCH   6  17
ENDBRANCH   1   3
BRANCH   1  19
ATOM     19  C   UNL     1       1.093  -0.488  -2.270  1.00  0.00    -0.015 C 
BRANCH  19  20
ATOM     20  N   UNL     1       0.338  -0.308  -3.507  1.00  0.00    -0.640 NA
BRANCH  20  21
ATOM     21  C   UNL     1      -1.083  -0.157  -3.594  1.00  0.00     0.101 C 
ATOM     22  O   UNL     1      -1.567   0.463  -4.576  1.00  0.00    -0.313 OA
BRANCH  21  23
ATOM     23  C   UNL     1      -1.996  -0.687  -2.566  1.00  0.00     0.088 A 
ATOM     24  C   UNL     1      -1.820  -1.975  -2.038  1.00  0.00     0.031 A 
ATOM     25  N   UNL     1      -3.046   0.073  -2.153  1.00  0.00    -0.246 NA
ATOM     26  C   UNL     1      -2.714  -2.453  -1.076  1.00  0.00     0.013 A 
ATOM     27  C   UNL     1      -3.929  -0.364  -1.215  1.00  0.00     0.071 A 
ATOM     28  C   UNL     1      -3.780  -1.651  -0.655  1.00  0.00     0.003 A 
ATOM     29  C   UNL     1      -4.981   0.460  -0.800  1.00  0.00     0.032 A 
ATOM     30  C   UNL     1      -4.696  -2.101   0.309  1.00  0.00     0.049 A 
ATOM     31  C   UNL     1      -5.881   0.010   0.172  1.00  0.00     0.041 A 
ATOM     32  C   UNL     1      -5.741  -1.269   0.722  1.00  0.00     0.123 A 
ATOM     33  F   UNL     1      -6.617  -1.701   1.662  1.00  0.00    -0.207 F 
ENDBRANCH  21  23
ENDBRANCH  20  21
ENDBRANCH  19  20
ENDBRANCH   1  19
TORSDOF 9
