REMARK SMILES CC(C)c1nc(C[C@@H]2C[C@@H](O)CN2C(=O)C/N=C(\O)c2ccc3cc(F)ccc3n2)cs1
REMARK SMILES IDX 14 1 15 2 16 3 17 4 18 5 19 6 20 8 30 9 21 10 29 11 22 12
REMARK SMILES IDX 28 13 23 14 27 15 24 16 25 17 26 18 13 19 12 20 8 21 10 22
REMARK SMILES IDX 9 23 7 24 6 25 5 26 31 27 4 28 32 29 2 30 1 31 3 32 11 33
REMARK H PARENT 19 7 11 34
ROOT
ATOM      1  C   UNL     1       0.449   0.600  -3.672  1.00  0.00     0.244 C 
ATOM      2  O   UNL     1       1.059  -0.394  -4.147  1.00  0.00    -0.273 OA
ENDROOT
BRANCH   1   3
ATOM      3  C   UNL     1       1.191   1.584  -2.818  1.00  0.00     0.246 C 
BRANCH   3   4
ATOM      4  N   UNL     1       0.698   1.538  -1.447  1.00  0.00    -0.240 NA
BRANCH   4   5
ATOM      5  C   UNL     1       1.176   2.234  -0.456  1.00  0.00     0.233 C 
BRANCH   5   6
ATOM      6  O   UNL     1       2.264   3.097  -0.626  1.00  0.00    -0.492 OA
ATOM      7  H   UNL     1       2.727   3.239  -1.515  1.00  0.00     0.295 HD
ENDBRANCH   5   6
BRANCH   5   8
ATOM      8  C   UNL     1       0.557   2.106   0.875  1.00  0.00     0.125 A 
ATOM      9  N   UNL     1      -0.623   1.437   1.010  1.00  0.00    -0.243 NA
ATOM     10  C   UNL     1       1.176   2.656   2.010  1.00  0.00     0.035 A 
ATOM     11  C   UNL     1      -1.232   1.284   2.217  1.00  0.00     0.071 A 
ATOM     12  C   UNL     1       0.578   2.509   3.263  1.00  0.00     0.013 A 
ATOM     13  C   UNL     1      -2.452   0.604   2.309  1.00  0.00     0.032 A 
ATOM     14  C   UNL     1      -0.636   1.820   3.380  1.00  0.00     0.003 A 
ATOM     15  C   UNL     1      -3.072   0.444   3.552  1.00  0.00     0.041 A 
ATOM     16  C   UNL     1      -1.265   1.661   4.623  1.00  0.00     0.049 A 
ATOM     17  C   UNL     1      -2.482   0.974   4.707  1.00  0.00     0.123 A 
ATOM     18  F   UNL     1      -3.090   0.818   5.908  1.00  0.00    -0.207 F 
ENDBRANCH   5   8
ENDBRANCH   4   5
ENDBRANCH   3   4
ENDBRANCH   1   3
BRANCH   1  19
ATOM     19  N   UNL     1      -0.918   0.824  -4.041  1.00  0.00    -0.335 N 
ATOM     20  C   UNL     1      -1.270   1.178  -5.407  1.00  0.00     0.151 C 
ATOM     21  C   UNL     1      -2.024   1.005  -3.104  1.00  0.00     0.093 C 
ATOM     22  C   UNL     1      -2.741   1.577  -5.358  1.00  0.00     0.136 C 
ATOM     23  C   UNL     1      -3.023   1.871  -3.882  1.00  0.00     0.059 C 
BRANCH  21  24
ATOM     24  C   UNL     1      -2.648  -0.363  -2.732  1.00  0.00     0.082 C 
BRANCH  24  25
ATOM     25  C   UNL     1      -1.941  -1.071  -1.605  1.00  0.00     0.054 A 
ATOM     26  N   UNL     1      -0.590  -1.240  -1.572  1.00  0.00    -0.246 NA
ATOM     27  C   UNL     1      -2.635  -1.716  -0.581  1.00  0.00     0.090 A 
ATOM     28  C   UNL     1      -0.197  -1.992  -0.517  1.00  0.00     0.095 A 
ATOM     29  S   UNL     1      -1.514  -2.484   0.406  1.00  0.00    -0.127 S 
BRANCH  28  30
ATOM     30  C   UNL     1       1.234  -2.336  -0.196  1.00  0.00     0.042 C 
ATOM     31  C   UNL     1       2.136  -2.241  -1.431  1.00  0.00     0.015 C 
ATOM     32  C   UNL     1       1.760  -1.438   0.927  1.00  0.00     0.015 C 
ENDBRANCH  28  30
ENDBRANCH  24  25
ENDBRANCH  21  24
BRANCH  22  33
ATOM     33  O   UNL     1      -2.979   2.706  -6.158  1.00  0.00    -0.391 OA
ATOM     34  H   UNL     1      -3.965   2.796  -6.227  1.00  0.00     0.211 HD
ENDBRANCH  22  33
ENDBRANCH   1  19
TORSDOF 10
