AutoDock-GPU version: v1.6

**********************************************************
**    AutoDock-GPU AUTODOCKTOOLS-COMPATIBLE DLG FILE    **
**********************************************************


    DOCKING PARAMETERS
    ________________________


Ligand file:                               /home/a/REINVENT4/ReinventStudies/scoringData/graph-dock/graph-DockGPU/node-autodockgpu/inputs/ATTQMMYACVSETC-ZSWPEEKQNA-N.pdbqt
Grid fld file:                             /home/a/REINVENT4/ReinventStudies/mols/Rad51/maps/rad51_receptor.maps.fld

Random seed:                               42
Number of runs:                            20
Number of energy evaluations:              1132076
Number of generations:                     42000
Size of population:                        150
Rate of crossover:                         80.000000%
Tournament selection probability limit:    60.000000%
Rate of mutation:                          2.000000%
Maximal allowed delta movement:            +/- 6.000000A
Maximal allowed delta angle:               +/- 90.000000

Rate of local search:                      100.000000%
Maximal number of local search iterations: 300
Rho lower bound:                           0.010000
Spread of local search delta movement:     2.000000A
Spread of local search delta angle:        74.999999
Limit of consecutive successes/failures:   4

Handle symmetry during clustering:         YES
RMSD tolerance:                            2.000000A

Program call in command line was:          /home/a/REINVENT4/ReinventStudies/adgpu-v1.6_linux_x64_cuda12_128wi --filelist batch.txt --heuristics 1 --nrun 20 --psize 150 --lsit 300 --seed 42 --heurmax 12000000 


    GRID PARAMETERS
    ________________________


Receptor name:                             rad51_receptor
Number of grid points (x, y, z):           53, 53, 53
Grid center (x, y, z):                     139.950000, 75.640000, 221.970000A
Grid size (x, y, z):                       19.500000, 19.500000, 19.500000A
Grid spacing:                              0.375000A


    LIGAND PARAMETERS
    ________________________


Ligand name:                               /home/a/REINVENT4/ReinventStudies/scoringData/graph-dock/graph-DockGPU/node-autodockgpu/inputs/ATTQMMYACVSETC-ZSWPEEKQNA-N
Number of atoms:                           36
Number of rotatable bonds:                 4
Number of atom types:                      6


    DUMMY DATA (only for ADT-compatibility)
    ________________________


DPF> outlev 1
DPF> ga_run 20
DPF> fld /home/a/REINVENT4/ReinventStudies/mols/Rad51/maps/rad51_receptor.maps.fld
DPF> move /home/a/REINVENT4/ReinventStudies/scoringData/graph-dock/graph-DockGPU/node-autodockgpu/inputs/ATTQMMYACVSETC-ZSWPEEKQNA-N.pdbqt


    COUNTER STATES
    ________________________


Number of energy evaluations performed:    783704
Number of generations used:                55


    INPUT LIGAND PDBQT FILE:
    ________________________


INPUT-LIGAND-PDBQT: REMARK SMILES NC(=O)c1ccc2cc(C(=O)N3C[C@]4(CCN([C@H]5CCNC5)C4)c4ccccc43)[nH]c2c1
INPUT-LIGAND-PDBQT: REMARK SMILES IDX 10 1 11 2 9 3 4 4 5 5 32 6 6 7 31 8 7 9 30 10 8 11 2 13 1 14
INPUT-LIGAND-PDBQT: REMARK SMILES IDX 3 17 12 18 13 19 29 20 14 21 28 22 24 23 15 24 23 25 27 26
INPUT-LIGAND-PDBQT: REMARK SMILES IDX 25 27 16 28 17 29 26 30 18 31 19 32 22 33 20 34 21 35
INPUT-LIGAND-PDBQT: REMARK H PARENT 30 12 1 15 1 16 21 36
INPUT-LIGAND-PDBQT: ROOT
INPUT-LIGAND-PDBQT: ATOM      1  C   UNL     1       1.770   0.680   3.288  1.00  0.00     0.274 C 
INPUT-LIGAND-PDBQT: ATOM      2  O   UNL     1       2.636   1.340   3.921  1.00  0.00    -0.267 OA
INPUT-LIGAND-PDBQT: ENDROOT
INPUT-LIGAND-PDBQT: BRANCH   1   3
INPUT-LIGAND-PDBQT: ATOM      3  C   UNL     1       1.561  -0.742   3.616  1.00  0.00     0.106 A 
INPUT-LIGAND-PDBQT: ATOM      4  C   UNL     1       1.472  -4.940   5.290  1.00  0.00     0.041 A 
INPUT-LIGAND-PDBQT: ATOM      5  C   UNL     1       0.775  -5.177   4.073  1.00  0.00     0.014 A 
INPUT-LIGAND-PDBQT: ATOM      6  C   UNL     1       1.936  -3.632   5.577  1.00  0.00     0.040 A 
INPUT-LIGAND-PDBQT: ATOM      7  C   UNL     1       0.527  -4.129   3.168  1.00  0.00     0.011 A 
INPUT-LIGAND-PDBQT: ATOM      8  C   UNL     1       1.673  -2.619   4.657  1.00  0.00     0.047 A 
INPUT-LIGAND-PDBQT: ATOM      9  C   UNL     1       0.991  -2.861   3.496  1.00  0.00     0.000 A 
INPUT-LIGAND-PDBQT: ATOM     10  N   UNL     1       2.033  -1.328   4.741  1.00  0.00    -0.350 N 
INPUT-LIGAND-PDBQT: ATOM     11  C   UNL     1       0.910  -1.672   2.805  1.00  0.00     0.042 A 
INPUT-LIGAND-PDBQT: ATOM     12  H   UNL     1       2.564  -0.874   5.518  1.00  0.00     0.167 HD
INPUT-LIGAND-PDBQT: BRANCH   4  13
INPUT-LIGAND-PDBQT: ATOM     13  C   UNL     1       1.750  -6.042   6.244  1.00  0.00     0.248 C 
INPUT-LIGAND-PDBQT: ATOM     14  N   UNL     1       0.991  -7.255   6.234  1.00  0.00    -0.366 N 
INPUT-LIGAND-PDBQT: ATOM     15  H   UNL     1       1.257  -8.038   6.870  1.00  0.00     0.159 HD
INPUT-LIGAND-PDBQT: ATOM     16  H   UNL     1       0.123  -7.359   5.663  1.00  0.00     0.159 HD
INPUT-LIGAND-PDBQT: ATOM     17  O   UNL     1       2.669  -5.909   7.097  1.00  0.00    -0.270 OA
INPUT-LIGAND-PDBQT: ENDBRANCH   4  13
INPUT-LIGAND-PDBQT: ENDBRANCH   1   3
INPUT-LIGAND-PDBQT: BRANCH   1  18
INPUT-LIGAND-PDBQT: ATOM     18  N   UNL     1       1.043   1.312   2.224  1.00  0.00    -0.306 N 
INPUT-LIGAND-PDBQT: ATOM     19  C   UNL     1       1.659   2.161   1.208  1.00  0.00     0.139 C 
INPUT-LIGAND-PDBQT: ATOM     20  C   UNL     1      -0.363   1.308   2.037  1.00  0.00     0.048 A 
INPUT-LIGAND-PDBQT: ATOM     21  C   UNL     1       0.507   2.540   0.212  1.00  0.00     0.029 C 
INPUT-LIGAND-PDBQT: ATOM     22  C   UNL     1      -1.327   0.749   2.885  1.00  0.00     0.026 A 
INPUT-LIGAND-PDBQT: ATOM     23  C   UNL     1      -0.718   2.001   0.910  1.00  0.00    -0.015 A 
INPUT-LIGAND-PDBQT: ATOM     24  C   UNL     1       0.413   4.047  -0.038  1.00  0.00     0.030 C 
INPUT-LIGAND-PDBQT: ATOM     25  C   UNL     1       0.670   1.913  -1.192  1.00  0.00     0.098 C 
INPUT-LIGAND-PDBQT: ATOM     26  C   UNL     1      -2.679   0.868   2.530  1.00  0.00     0.002 A 
INPUT-LIGAND-PDBQT: ATOM     27  C   UNL     1      -2.062   2.122   0.535  1.00  0.00     0.006 A 
INPUT-LIGAND-PDBQT: ATOM     28  C   UNL     1       0.072   4.166  -1.509  1.00  0.00     0.086 C 
INPUT-LIGAND-PDBQT: ATOM     29  N   UNL     1       0.677   3.008  -2.179  1.00  0.00    -0.298 NA
INPUT-LIGAND-PDBQT: ATOM     30  C   UNL     1      -3.045   1.547   1.354  1.00  0.00     0.000 A 
INPUT-LIGAND-PDBQT: BRANCH  29  31
INPUT-LIGAND-PDBQT: ATOM     31  C   UNL     1      -0.039   2.651  -3.427  1.00  0.00     0.071 C 
INPUT-LIGAND-PDBQT: ATOM     32  C   UNL     1       0.024   3.761  -4.459  1.00  0.00     0.036 C 
INPUT-LIGAND-PDBQT: ATOM     33  C   UNL     1       0.626   1.487  -4.154  1.00  0.00     0.100 C 
INPUT-LIGAND-PDBQT: ATOM     34  C   UNL     1      -0.035   3.040  -5.795  1.00  0.00     0.082 C 
INPUT-LIGAND-PDBQT: ATOM     35  N   UNL     1       0.359   1.644  -5.584  1.00  0.00    -0.315 NA
INPUT-LIGAND-PDBQT: ATOM     36  H   UNL     1      -0.455   1.032  -5.832  1.00  0.00     0.122 HD
INPUT-LIGAND-PDBQT: ENDBRANCH  29  31
INPUT-LIGAND-PDBQT: ENDBRANCH   1  18
INPUT-LIGAND-PDBQT: TORSDOF 4


    FINAL DOCKED STATE:
    ________________________


Run:   1 / 20
Time taken for this run:   0.040s

DOCKED: MODEL        1
DOCKED: USER    Run = 1
DOCKED: USER
DOCKED: USER    Estimated Free Energy of Binding    =  -9.52 kcal/mol  [=(1)+(2)+(3)-(4)]
DOCKED: USER
DOCKED: USER    (1) Final Intermolecular Energy     = -10.71 kcal/mol
DOCKED: USER        vdW + Hbond + desolv Energy     = -10.54 kcal/mol
DOCKED: USER        Electrostatic Energy            =  -0.17 kcal/mol
DOCKED: USER        Moving Ligand-Fixed Receptor    = -10.71 kcal/mol
DOCKED: USER        Moving Ligand-Moving Receptor   =  +0.00 kcal/mol
DOCKED: USER    (2) Final Total Internal Energy     =  -1.15 kcal/mol
DOCKED: USER    (3) Torsional Free Energy           =  +1.19 kcal/mol
DOCKED: USER    (4) Unbound System's Energy         =  -1.15 kcal/mol
DOCKED: USER
DOCKED: USER
DOCKED: REMARK SMILES NC(=O)c1ccc2cc(C(=O)N3C[C@]4(CCN([C@H]5CCNC5)C4)c4ccccc43)[nH]c2c1
DOCKED: REMARK SMILES IDX 10 1 11 2 9 3 4 4 5 5 32 6 6 7 31 8 7 9 30 10 8 11 2 13 1 14
DOCKED: REMARK SMILES IDX 3 17 12 18 13 19 29 20 14 21 28 22 24 23 15 24 23 25 27 26
DOCKED: REMARK SMILES IDX 25 27 16 28 17 29 26 30 18 31 19 32 22 33 20 34 21 35
DOCKED: REMARK H PARENT 30 12 1 15 1 16 21 36
DOCKED: USER                              x       y       z     vdW  Elec       q    Type
DOCKED: USER                           _______ _______ _______ _____ _____    ______ ____
DOCKED: ROOT
DOCKED: ATOM      1  C   UNL     1     139.400  76.665 222.354 -0.22 -0.06    +0.274 C  
DOCKED: ATOM      2  O   UNL     1     138.546  75.837 222.766 -0.26 +0.07    -0.267 OA 
DOCKED: ENDROOT
DOCKED: BRANCH   1   3
DOCKED: ATOM      3  C   UNL     1     140.537  76.192 221.544 -0.30 -0.03    +0.106 A  
DOCKED: ATOM      4  C   UNL     1     144.124  74.145 219.706 -0.36 -0.01    +0.041 A  
DOCKED: ATOM      5  C   UNL     1     144.038  75.262 218.829 -0.00 -0.01    +0.014 A  
DOCKED: ATOM      6  C   UNL     1     143.189  74.024 220.764 -0.28 -0.01    +0.040 A  
DOCKED: ATOM      7  C   UNL     1     143.029  76.229 218.989 -0.34 -0.01    +0.011 A  
DOCKED: ATOM      8  C   UNL     1     142.204  75.002 220.892 -0.25 -0.02    +0.047 A  
DOCKED: ATOM      9  C   UNL     1     142.128  76.064 220.033 -0.30 -0.00    +0.000 A  
DOCKED: ATOM     10  N   UNL     1     141.240  75.070 221.825 -0.12 +0.06    -0.350 N  
DOCKED: ATOM     11  C   UNL     1     141.068  76.848 220.434 -0.23 -0.02    +0.042 A  
DOCKED: ATOM     12  H   UNL     1     141.071  74.393 222.603 +0.09 +0.05    +0.167 HD 
DOCKED: BRANCH   4  13
DOCKED: ATOM     13  C   UNL     1     145.193  73.128 219.552 -0.28 +0.01    +0.248 C  
DOCKED: ATOM     14  N   UNL     1     145.572  72.267 220.631 -0.08 +0.02    -0.366 N  
DOCKED: ATOM     15  H   UNL     1     146.277  71.515 220.470 -0.44 +0.03    +0.159 HD 
DOCKED: ATOM     16  H   UNL     1     145.224  72.414 221.604 -0.30 -0.06    +0.159 HD 
DOCKED: ATOM     17  O   UNL     1     145.796  73.020 218.450 -0.74 -0.17    -0.270 OA 
DOCKED: ENDBRANCH   4  13
DOCKED: ENDBRANCH   1   3
DOCKED: BRANCH   1  18
DOCKED: ATOM     18  N   UNL     1     139.277  78.046 222.728 -0.16 +0.06    -0.306 N  
DOCKED: ATOM     19  C   UNL     1     138.022  78.791 222.696 -0.20 -0.02    +0.139 C  
DOCKED: ATOM     20  C   UNL     1     140.332  78.926 223.082 -0.41 -0.01    +0.048 A  
DOCKED: ATOM     21  C   UNL     1     138.352  80.211 223.276 -0.32 -0.00    +0.029 C  
DOCKED: ATOM     22  C   UNL     1     141.704  78.649 223.073 -0.54 -0.01    +0.026 A  
DOCKED: ATOM     23  C   UNL     1     139.857  80.173 223.394 -0.42 +0.00    -0.015 A  
DOCKED: ATOM     24  C   UNL     1     137.874  81.346 222.368 -0.17 -0.00    +0.030 C  
DOCKED: ATOM     25  C   UNL     1     137.692  80.491 224.645 -0.27 -0.01    +0.098 C  
DOCKED: ATOM     26  C   UNL     1     142.595  79.668 223.443 -0.62 -0.00    +0.002 A  
DOCKED: ATOM     27  C   UNL     1     140.730  81.199 223.775 -0.33 -0.00    +0.006 A  
DOCKED: ATOM     28  C   UNL     1     137.378  82.412 223.324 -0.13 -0.01    +0.086 C  
DOCKED: ATOM     29  N   UNL     1     136.877  81.713 224.514 -0.15 +0.03    -0.298 NA 
DOCKED: ATOM     30  C   UNL     1     142.108  80.938 223.799 -0.64 -0.00    +0.000 A  
DOCKED: BRANCH  29  31
DOCKED: ATOM     31  C   UNL     1     136.935  82.565 225.725 -0.31 -0.00    +0.071 C  
DOCKED: ATOM     32  C   UNL     1     136.017  83.768 225.622 -0.22 -0.00    +0.036 C  
DOCKED: ATOM     33  C   UNL     1     136.398  81.845 226.958 -0.42 -0.02    +0.100 C  
DOCKED: ATOM     34  C   UNL     1     135.616  84.063 227.057 -0.26 -0.00    +0.082 C  
DOCKED: ATOM     35  N   UNL     1     135.842  82.856 227.857 -0.16 +0.05    -0.315 NA 
DOCKED: ATOM     36  H   UNL     1     136.563  83.076 228.585 -0.42 -0.06    +0.122 HD 
DOCKED: ENDBRANCH  29  31
DOCKED: ENDBRANCH   1  18
DOCKED: TORSDOF 4
DOCKED: TER
DOCKED: ENDMDL
________________________________________________________________________________


    FINAL DOCKED STATE:
    ________________________


Run:   2 / 20
Time taken for this run:   0.040s

DOCKED: MODEL        2
DOCKED: USER    Run = 2
DOCKED: USER
DOCKED: USER    Estimated Free Energy of Binding    =  -8.40 kcal/mol  [=(1)+(2)+(3)-(4)]
DOCKED: USER
DOCKED: USER    (1) Final Intermolecular Energy     =  -9.59 kcal/mol
DOCKED: USER        vdW + Hbond + desolv Energy     =  -9.54 kcal/mol
DOCKED: USER        Electrostatic Energy            =  -0.05 kcal/mol
DOCKED: USER        Moving Ligand-Fixed Receptor    =  -9.59 kcal/mol
DOCKED: USER        Moving Ligand-Moving Receptor   =  +0.00 kcal/mol
DOCKED: USER    (2) Final Total Internal Energy     =  -1.43 kcal/mol
DOCKED: USER    (3) Torsional Free Energy           =  +1.19 kcal/mol
DOCKED: USER    (4) Unbound System's Energy         =  -1.43 kcal/mol
DOCKED: USER
DOCKED: USER
DOCKED: REMARK SMILES NC(=O)c1ccc2cc(C(=O)N3C[C@]4(CCN([C@H]5CCNC5)C4)c4ccccc43)[nH]c2c1
DOCKED: REMARK SMILES IDX 10 1 11 2 9 3 4 4 5 5 32 6 6 7 31 8 7 9 30 10 8 11 2 13 1 14
DOCKED: REMARK SMILES IDX 3 17 12 18 13 19 29 20 14 21 28 22 24 23 15 24 23 25 27 26
DOCKED: REMARK SMILES IDX 25 27 16 28 17 29 26 30 18 31 19 32 22 33 20 34 21 35
DOCKED: REMARK H PARENT 30 12 1 15 1 16 21 36
DOCKED: USER                              x       y       z     vdW  Elec       q    Type
DOCKED: USER                           _______ _______ _______ _____ _____    ______ ____
DOCKED: ROOT
DOCKED: ATOM      1  C   UNL     1     139.274  72.811 221.205 -0.11 -0.05    +0.274 C  
DOCKED: ATOM      2  O   UNL     1     138.523  72.296 220.335 -0.03 +0.05    -0.267 OA 
DOCKED: ENDROOT
DOCKED: BRANCH   1   3
DOCKED: ATOM      3  C   UNL     1     139.645  72.026 222.397 -0.25 -0.02    +0.106 A  
DOCKED: ATOM      4  C   UNL     1     140.022  69.196 225.902 -0.46 -0.01    +0.041 A  
DOCKED: ATOM      5  C   UNL     1     141.107  70.065 226.206 -0.54 -0.00    +0.014 A  
DOCKED: ATOM      6  C   UNL     1     139.240  69.447 224.747 -0.35 -0.01    +0.040 A  
DOCKED: ATOM      7  C   UNL     1     141.420  71.149 225.367 -0.48 -0.00    +0.011 A  
DOCKED: ATOM      8  C   UNL     1     139.578  70.531 223.939 -0.33 -0.01    +0.047 A  
DOCKED: ATOM      9  C   UNL     1     140.632  71.350 224.240 -0.44 -0.00    +0.000 A  
DOCKED: ATOM     10  N   UNL     1     138.962  70.936 222.818 -0.09 +0.07    -0.350 N  
DOCKED: ATOM     11  C   UNL     1     140.694  72.324 223.267 -0.14 -0.00    +0.042 A  
DOCKED: ATOM     12  H   UNL     1     138.129  70.495 222.365 +0.05 -0.03    +0.167 HD 
DOCKED: BRANCH   4  13
DOCKED: ATOM     13  C   UNL     1     139.676  68.058 226.788 -0.43 -0.04    +0.248 C  
DOCKED: ATOM     14  N   UNL     1     139.999  68.065 228.182 -0.17 +0.09    -0.366 N  
DOCKED: ATOM     15  H   UNL     1     139.679  67.281 228.792 -0.19 -0.06    +0.159 HD 
DOCKED: ATOM     16  H   UNL     1     140.616  68.795 228.603 +0.12 -0.03    +0.159 HD 
DOCKED: ATOM     17  O   UNL     1     139.094  67.049 226.306 -0.79 -0.00    -0.270 OA 
DOCKED: ENDBRANCH   4  13
DOCKED: ENDBRANCH   1   3
DOCKED: BRANCH   1  18
DOCKED: ATOM     18  N   UNL     1     139.710  74.169 221.045 -0.10 +0.06    -0.306 N  
DOCKED: ATOM     19  C   UNL     1     138.845  75.330 221.237 -0.17 -0.03    +0.139 C  
DOCKED: ATOM     20  C   UNL     1     140.980  74.605 220.588 -0.22 -0.01    +0.048 A  
DOCKED: ATOM     21  C   UNL     1     139.768  76.586 221.053 -0.22 -0.01    +0.029 C  
DOCKED: ATOM     22  C   UNL     1     142.037  73.805 220.139 -0.21 -0.01    +0.026 A  
DOCKED: ATOM     23  C   UNL     1     141.059  75.973 220.567 -0.25 +0.01    -0.015 A  
DOCKED: ATOM     24  C   UNL     1     139.199  77.598 220.056 -0.08 -0.01    +0.030 C  
DOCKED: ATOM     25  C   UNL     1     139.988  77.390 222.355 -0.33 -0.02    +0.098 C  
DOCKED: ATOM     26  C   UNL     1     143.215  74.434 219.708 -0.32 -0.00    +0.002 A  
DOCKED: ATOM     27  C   UNL     1     142.230  76.617 220.149 -0.30 -0.00    +0.006 A  
DOCKED: ATOM     28  C   UNL     1     139.542  78.948 220.650 -0.11 -0.02    +0.086 C  
DOCKED: ATOM     29  N   UNL     1     139.557  78.778 222.108 -0.10 +0.07    -0.298 NA 
DOCKED: ATOM     30  C   UNL     1     143.314  75.837 219.720 -0.41 -0.00    +0.000 A  
DOCKED: BRANCH  29  31
DOCKED: ATOM     31  C   UNL     1     140.433  79.771 222.775 -0.38 -0.02    +0.071 C  
DOCKED: ATOM     32  C   UNL     1     141.452  79.113 223.686 -0.58 -0.01    +0.036 C  
DOCKED: ATOM     33  C   UNL     1     141.314  80.516 221.778 -0.36 -0.03    +0.100 C  
DOCKED: ATOM     34  C   UNL     1     142.642  80.056 223.667 -0.56 -0.02    +0.082 C  
DOCKED: ATOM     35  N   UNL     1     142.545  80.898 222.471 -0.27 +0.08    -0.315 NA 
DOCKED: ATOM     36  H   UNL     1     142.449  81.896 222.778 +0.07 -0.02    +0.122 HD 
DOCKED: ENDBRANCH  29  31
DOCKED: ENDBRANCH   1  18
DOCKED: TORSDOF 4
DOCKED: TER
DOCKED: ENDMDL
________________________________________________________________________________


    FINAL DOCKED STATE:
    ________________________


Run:   3 / 20
Time taken for this run:   0.040s

DOCKED: MODEL        3
DOCKED: USER    Run = 3
DOCKED: USER
DOCKED: USER    Estimated Free Energy of Binding    =  -9.53 kcal/mol  [=(1)+(2)+(3)-(4)]
DOCKED: USER
DOCKED: USER    (1) Final Intermolecular Energy     = -10.72 kcal/mol
DOCKED: USER        vdW + Hbond + desolv Energy     = -10.55 kcal/mol
DOCKED: USER        Electrostatic Energy            =  -0.18 kcal/mol
DOCKED: USER        Moving Ligand-Fixed Receptor    = -10.72 kcal/mol
DOCKED: USER        Moving Ligand-Moving Receptor   =  +0.00 kcal/mol
DOCKED: USER    (2) Final Total Internal Energy     =  -1.15 kcal/mol
DOCKED: USER    (3) Torsional Free Energy           =  +1.19 kcal/mol
DOCKED: USER    (4) Unbound System's Energy         =  -1.15 kcal/mol
DOCKED: USER
DOCKED: USER
DOCKED: REMARK SMILES NC(=O)c1ccc2cc(C(=O)N3C[C@]4(CCN([C@H]5CCNC5)C4)c4ccccc43)[nH]c2c1
DOCKED: REMARK SMILES IDX 10 1 11 2 9 3 4 4 5 5 32 6 6 7 31 8 7 9 30 10 8 11 2 13 1 14
DOCKED: REMARK SMILES IDX 3 17 12 18 13 19 29 20 14 21 28 22 24 23 15 24 23 25 27 26
DOCKED: REMARK SMILES IDX 25 27 16 28 17 29 26 30 18 31 19 32 22 33 20 34 21 35
DOCKED: REMARK H PARENT 30 12 1 15 1 16 21 36
DOCKED: USER                              x       y       z     vdW  Elec       q    Type
DOCKED: USER                           _______ _______ _______ _____ _____    ______ ____
DOCKED: ROOT
DOCKED: ATOM      1  C   UNL     1     139.404  76.618 222.307 -0.22 -0.06    +0.274 C  
DOCKED: ATOM      2  O   UNL     1     138.541  75.789 222.701 -0.27 +0.07    -0.267 OA 
DOCKED: ENDROOT
DOCKED: BRANCH   1   3
DOCKED: ATOM      3  C   UNL     1     140.545  76.148 221.501 -0.30 -0.03    +0.106 A  
DOCKED: ATOM      4  C   UNL     1     144.176  74.150 219.697 -0.36 -0.01    +0.041 A  
DOCKED: ATOM      5  C   UNL     1     144.032  75.217 218.768 -0.01 -0.01    +0.014 A  
DOCKED: ATOM      6  C   UNL     1     143.265  74.046 220.778 -0.28 -0.01    +0.040 A  
DOCKED: ATOM      7  C   UNL     1     142.990  76.152 218.900 -0.32 -0.01    +0.011 A  
DOCKED: ATOM      8  C   UNL     1     142.245  74.991 220.877 -0.24 -0.02    +0.047 A  
DOCKED: ATOM      9  C   UNL     1     142.113  76.005 219.968 -0.29 -0.00    +0.000 A  
DOCKED: ATOM     10  N   UNL     1     141.296  75.069 221.823 -0.11 +0.07    -0.350 N  
DOCKED: ATOM     11  C   UNL     1     141.031  76.767 220.349 -0.22 -0.02    +0.042 A  
DOCKED: ATOM     12  H   UNL     1     141.166  74.426 222.636 +0.10 +0.05    +0.167 HD 
DOCKED: BRANCH   4  13
DOCKED: ATOM     13  C   UNL     1     145.281  73.167 219.574 -0.28 +0.02    +0.248 C  
DOCKED: ATOM     14  N   UNL     1     145.609  72.266 220.637 -0.07 +0.02    -0.366 N  
DOCKED: ATOM     15  H   UNL     1     146.344  71.540 220.493 -0.43 +0.03    +0.159 HD 
DOCKED: ATOM     16  H   UNL     1     145.189  72.358 221.588 -0.34 -0.07    +0.159 HD 
DOCKED: ATOM     17  O   UNL     1     145.962  73.127 218.514 -0.78 -0.19    -0.270 OA 
DOCKED: ENDBRANCH   4  13
DOCKED: ENDBRANCH   1   3
DOCKED: BRANCH   1  18
DOCKED: ATOM     18  N   UNL     1     139.287  77.994 222.699 -0.16 +0.06    -0.306 N  
DOCKED: ATOM     19  C   UNL     1     138.033  78.742 222.682 -0.20 -0.02    +0.139 C  
DOCKED: ATOM     20  C   UNL     1     140.345  78.866 223.060 -0.41 -0.01    +0.048 A  
DOCKED: ATOM     21  C   UNL     1     138.371  80.154 223.278 -0.33 -0.00    +0.029 C  
DOCKED: ATOM     22  C   UNL     1     141.717  78.585 223.041 -0.52 -0.01    +0.026 A  
DOCKED: ATOM     23  C   UNL     1     139.876  80.110 223.390 -0.42 +0.00    -0.015 A  
DOCKED: ATOM     24  C   UNL     1     137.892  81.303 222.387 -0.18 -0.00    +0.030 C  
DOCKED: ATOM     25  C   UNL     1     137.717  80.419 224.654 -0.19 -0.01    +0.098 C  
DOCKED: ATOM     26  C   UNL     1     142.612  79.597 223.419 -0.60 -0.00    +0.002 A  
DOCKED: ATOM     27  C   UNL     1     140.754  81.130 223.779 -0.36 -0.00    +0.006 A  
DOCKED: ATOM     28  C   UNL     1     137.403  82.357 223.358 -0.13 -0.01    +0.086 C  
DOCKED: ATOM     29  N   UNL     1     136.906  81.645 224.542 -0.16 +0.03    -0.298 NA 
DOCKED: ATOM     30  C   UNL     1     142.131  80.864 223.794 -0.64 -0.00    +0.000 A  
DOCKED: BRANCH  29  31
DOCKED: ATOM     31  C   UNL     1     136.972  82.482 225.763 -0.32 -0.00    +0.071 C  
DOCKED: ATOM     32  C   UNL     1     136.092  83.714 225.660 -0.23 -0.00    +0.036 C  
DOCKED: ATOM     33  C   UNL     1     136.393  81.766 226.979 -0.42 -0.02    +0.100 C  
DOCKED: ATOM     34  C   UNL     1     135.679  84.006 227.092 -0.27 -0.00    +0.082 C  
DOCKED: ATOM     35  N   UNL     1     135.855  82.784 227.882 -0.16 +0.05    -0.315 NA 
DOCKED: ATOM     36  H   UNL     1     136.572  82.973 228.623 -0.43 -0.06    +0.122 HD 
DOCKED: ENDBRANCH  29  31
DOCKED: ENDBRANCH   1  18
DOCKED: TORSDOF 4
DOCKED: TER
DOCKED: ENDMDL
________________________________________________________________________________


    FINAL DOCKED STATE:
    ________________________


Run:   4 / 20
Time taken for this run:   0.040s

DOCKED: MODEL        4
DOCKED: USER    Run = 4
DOCKED: USER
DOCKED: USER    Estimated Free Energy of Binding    =  -9.43 kcal/mol  [=(1)+(2)+(3)-(4)]
DOCKED: USER
DOCKED: USER    (1) Final Intermolecular Energy     = -10.62 kcal/mol
DOCKED: USER        vdW + Hbond + desolv Energy     = -10.46 kcal/mol
DOCKED: USER        Electrostatic Energy            =  -0.17 kcal/mol
DOCKED: USER        Moving Ligand-Fixed Receptor    = -10.62 kcal/mol
DOCKED: USER        Moving Ligand-Moving Receptor   =  +0.00 kcal/mol
DOCKED: USER    (2) Final Total Internal Energy     =  -1.17 kcal/mol
DOCKED: USER    (3) Torsional Free Energy           =  +1.19 kcal/mol
DOCKED: USER    (4) Unbound System's Energy         =  -1.17 kcal/mol
DOCKED: USER
DOCKED: USER
DOCKED: REMARK SMILES NC(=O)c1ccc2cc(C(=O)N3C[C@]4(CCN([C@H]5CCNC5)C4)c4ccccc43)[nH]c2c1
DOCKED: REMARK SMILES IDX 10 1 11 2 9 3 4 4 5 5 32 6 6 7 31 8 7 9 30 10 8 11 2 13 1 14
DOCKED: REMARK SMILES IDX 3 17 12 18 13 19 29 20 14 21 28 22 24 23 15 24 23 25 27 26
DOCKED: REMARK SMILES IDX 25 27 16 28 17 29 26 30 18 31 19 32 22 33 20 34 21 35
DOCKED: REMARK H PARENT 30 12 1 15 1 16 21 36
DOCKED: USER                              x       y       z     vdW  Elec       q    Type
DOCKED: USER                           _______ _______ _______ _____ _____    ______ ____
DOCKED: ROOT
DOCKED: ATOM      1  C   UNL     1     139.428  76.599 222.278 -0.22 -0.06    +0.274 C  
DOCKED: ATOM      2  O   UNL     1     138.592  75.773 222.730 -0.28 +0.07    -0.267 OA 
DOCKED: ENDROOT
DOCKED: BRANCH   1   3
DOCKED: ATOM      3  C   UNL     1     140.550  76.117 221.452 -0.29 -0.03    +0.106 A  
DOCKED: ATOM      4  C   UNL     1     144.165  74.123 219.612 -0.35 -0.01    +0.041 A  
DOCKED: ATOM      5  C   UNL     1     143.953  75.132 218.633 -0.07 -0.01    +0.014 A  
DOCKED: ATOM      6  C   UNL     1     143.300  74.054 220.733 -0.29 -0.01    +0.040 A  
DOCKED: ATOM      7  C   UNL     1     142.889  76.044 218.757 -0.30 -0.01    +0.011 A  
DOCKED: ATOM      8  C   UNL     1     142.258  74.974 220.822 -0.27 -0.02    +0.047 A  
DOCKED: ATOM      9  C   UNL     1     142.060  75.933 219.866 -0.28 -0.00    +0.000 A  
DOCKED: ATOM     10  N   UNL     1     141.345  75.079 221.801 -0.10 +0.07    -0.350 N  
DOCKED: ATOM     11  C   UNL     1     140.972  76.685 220.249 -0.20 -0.02    +0.042 A  
DOCKED: ATOM     12  H   UNL     1     141.266  74.478 222.653 +0.10 +0.05    +0.167 HD 
DOCKED: BRANCH   4  13
DOCKED: ATOM     13  C   UNL     1     145.293  73.165 219.497 -0.27 +0.02    +0.248 C  
DOCKED: ATOM     14  N   UNL     1     145.630  72.268 220.560 -0.11 +0.00    -0.366 N  
DOCKED: ATOM     15  H   UNL     1     146.383  71.560 220.421 -0.40 +0.04    +0.159 HD 
DOCKED: ATOM     16  H   UNL     1     145.199  72.348 221.508 -0.33 -0.06    +0.159 HD 
DOCKED: ATOM     17  O   UNL     1     145.986  73.144 218.444 -0.76 -0.19    -0.270 OA 
DOCKED: ENDBRANCH   4  13
DOCKED: ENDBRANCH   1   3
DOCKED: BRANCH   1  18
DOCKED: ATOM     18  N   UNL     1     139.302  77.987 222.622 -0.16 +0.06    -0.306 N  
DOCKED: ATOM     19  C   UNL     1     138.047  78.731 222.559 -0.19 -0.02    +0.139 C  
DOCKED: ATOM     20  C   UNL     1     140.352  78.874 222.973 -0.40 -0.01    +0.048 A  
DOCKED: ATOM     21  C   UNL     1     138.371  80.163 223.114 -0.31 -0.00    +0.029 C  
DOCKED: ATOM     22  C   UNL     1     141.724  78.595 222.988 -0.52 -0.01    +0.026 A  
DOCKED: ATOM     23  C   UNL     1     139.874  80.126 223.254 -0.41 +0.00    -0.015 A  
DOCKED: ATOM     24  C   UNL     1     137.905  81.280 222.178 -0.16 -0.00    +0.030 C  
DOCKED: ATOM     25  C   UNL     1     137.692  80.471 224.469 -0.28 -0.01    +0.098 C  
DOCKED: ATOM     26  C   UNL     1     142.610  79.621 223.349 -0.61 -0.00    +0.002 A  
DOCKED: ATOM     27  C   UNL     1     140.742  81.160 223.625 -0.39 -0.00    +0.006 A  
DOCKED: ATOM     28  C   UNL     1     137.398  82.365 223.105 -0.15 -0.01    +0.086 C  
DOCKED: ATOM     29  N   UNL     1     136.881  81.690 224.302 -0.14 +0.03    -0.298 NA 
DOCKED: ATOM     30  C   UNL     1     142.120  80.899 223.674 -0.64 -0.00    +0.000 A  
DOCKED: BRANCH  29  31
DOCKED: ATOM     31  C   UNL     1     136.923  82.567 225.497 -0.28 -0.00    +0.071 C  
DOCKED: ATOM     32  C   UNL     1     135.960  83.733 225.384 -0.20 -0.00    +0.036 C  
DOCKED: ATOM     33  C   UNL     1     136.428  81.851 226.749 -0.41 -0.02    +0.100 C  
DOCKED: ATOM     34  C   UNL     1     135.567  84.041 226.818 -0.23 -0.00    +0.082 C  
DOCKED: ATOM     35  N   UNL     1     135.847  82.858 227.638 -0.17 +0.04    -0.315 NA 
DOCKED: ATOM     36  H   UNL     1     136.569  83.117 228.352 -0.42 -0.05    +0.122 HD 
DOCKED: ENDBRANCH  29  31
DOCKED: ENDBRANCH   1  18
DOCKED: TORSDOF 4
DOCKED: TER
DOCKED: ENDMDL
________________________________________________________________________________


    FINAL DOCKED STATE:
    ________________________


Run:   5 / 20
Time taken for this run:   0.040s

DOCKED: MODEL        5
DOCKED: USER    Run = 5
DOCKED: USER
DOCKED: USER    Estimated Free Energy of Binding    =  -9.16 kcal/mol  [=(1)+(2)+(3)-(4)]
DOCKED: USER
DOCKED: USER    (1) Final Intermolecular Energy     = -10.35 kcal/mol
DOCKED: USER        vdW + Hbond + desolv Energy     = -10.14 kcal/mol
DOCKED: USER        Electrostatic Energy            =  -0.22 kcal/mol
DOCKED: USER        Moving Ligand-Fixed Receptor    = -10.35 kcal/mol
DOCKED: USER        Moving Ligand-Moving Receptor   =  +0.00 kcal/mol
DOCKED: USER    (2) Final Total Internal Energy     =  -1.16 kcal/mol
DOCKED: USER    (3) Torsional Free Energy           =  +1.19 kcal/mol
DOCKED: USER    (4) Unbound System's Energy         =  -1.16 kcal/mol
DOCKED: USER
DOCKED: USER
DOCKED: REMARK SMILES NC(=O)c1ccc2cc(C(=O)N3C[C@]4(CCN([C@H]5CCNC5)C4)c4ccccc43)[nH]c2c1
DOCKED: REMARK SMILES IDX 10 1 11 2 9 3 4 4 5 5 32 6 6 7 31 8 7 9 30 10 8 11 2 13 1 14
DOCKED: REMARK SMILES IDX 3 17 12 18 13 19 29 20 14 21 28 22 24 23 15 24 23 25 27 26
DOCKED: REMARK SMILES IDX 25 27 16 28 17 29 26 30 18 31 19 32 22 33 20 34 21 35
DOCKED: REMARK H PARENT 30 12 1 15 1 16 21 36
DOCKED: USER                              x       y       z     vdW  Elec       q    Type
DOCKED: USER                           _______ _______ _______ _____ _____    ______ ____
DOCKED: ROOT
DOCKED: ATOM      1  C   UNL     1     140.623  78.677 219.679 -0.08 -0.11    +0.274 C  
DOCKED: ATOM      2  O   UNL     1     140.319  79.057 218.517 -0.03 +0.11    -0.267 OA 
DOCKED: ENDROOT
DOCKED: BRANCH   1   3
DOCKED: ATOM      3  C   UNL     1     141.323  77.392 219.860 -0.19 -0.05    +0.106 A  
DOCKED: ATOM      4  C   UNL     1     144.137  73.859 220.011 -0.38 -0.01    +0.041 A  
DOCKED: ATOM      5  C   UNL     1     142.951  73.210 220.451 -0.29 -0.00    +0.014 A  
DOCKED: ATOM      6  C   UNL     1     144.091  75.238 219.688 -0.32 -0.02    +0.040 A  
DOCKED: ATOM      7  C   UNL     1     141.746  73.923 220.587 -0.25 -0.00    +0.011 A  
DOCKED: ATOM      8  C   UNL     1     142.881  75.912 219.834 -0.33 -0.03    +0.047 A  
DOCKED: ATOM      9  C   UNL     1     141.751  75.276 220.270 -0.26 -0.00    +0.000 A  
DOCKED: ATOM     10  N   UNL     1     142.632  77.206 219.574 -0.16 +0.25    -0.350 N  
DOCKED: ATOM     11  C   UNL     1     140.732  76.204 220.291 -0.18 -0.01    +0.042 A  
DOCKED: ATOM     12  H   UNL     1     143.313  77.918 219.226 -0.38 -0.16    +0.167 HD 
DOCKED: BRANCH   4  13
DOCKED: ATOM     13  C   UNL     1     145.409  73.111 219.852 -0.33 +0.02    +0.248 C  
DOCKED: ATOM     14  N   UNL     1     145.928  72.278 220.894 +0.13 +0.04    -0.366 N  
DOCKED: ATOM     15  H   UNL     1     146.787  71.711 220.724 -0.40 +0.04    +0.159 HD 
DOCKED: ATOM     16  H   UNL     1     145.519  72.277 221.854 -0.47 -0.09    +0.159 HD 
DOCKED: ATOM     17  O   UNL     1     146.062  73.216 218.778 -0.77 -0.18    -0.270 OA 
DOCKED: ENDBRANCH   4  13
DOCKED: ENDBRANCH   1   3
DOCKED: BRANCH   1  18
DOCKED: ATOM     18  N   UNL     1     140.233  79.477 220.805 -0.05 +0.10    -0.306 N  
DOCKED: ATOM     19  C   UNL     1     138.891  80.021 220.994 -0.09 -0.03    +0.139 C  
DOCKED: ATOM     20  C   UNL     1     141.076  79.948 221.844 -0.34 -0.02    +0.048 A  
DOCKED: ATOM     21  C   UNL     1     138.911  80.732 222.392 -0.24 -0.00    +0.029 C  
DOCKED: ATOM     22  C   UNL     1     142.464  79.789 221.945 -0.41 -0.01    +0.026 A  
DOCKED: ATOM     23  C   UNL     1     140.372  80.675 222.767 -0.38 +0.00    -0.015 A  
DOCKED: ATOM     24  C   UNL     1     138.385  82.168 222.333 -0.17 -0.00    +0.030 C  
DOCKED: ATOM     25  C   UNL     1     138.034  80.031 223.456 -0.28 -0.01    +0.098 C  
DOCKED: ATOM     26  C   UNL     1     143.123  80.351 223.048 -0.64 -0.00    +0.002 A  
DOCKED: ATOM     27  C   UNL     1     141.011  81.235 223.880 -0.36 -0.00    +0.006 A  
DOCKED: ATOM     28  C   UNL     1     137.602  82.338 223.618 +0.02 -0.01    +0.086 C  
DOCKED: ATOM     29  N   UNL     1     137.062  81.017 223.963 -0.14 +0.03    -0.298 NA 
DOCKED: ATOM     30  C   UNL     1     142.397  81.066 224.017 -0.62 -0.00    +0.000 A  
DOCKED: BRANCH  29  31
DOCKED: ATOM     31  C   UNL     1     136.819  80.877 225.418 -0.25 -0.01    +0.071 C  
DOCKED: ATOM     32  C   UNL     1     137.226  82.120 226.187 -0.38 -0.00    +0.036 C  
DOCKED: ATOM     33  C   UNL     1     135.333  80.762 225.741 -0.09 -0.02    +0.100 C  
DOCKED: ATOM     34  C   UNL     1     136.292  82.148 227.385 -0.42 -0.02    +0.082 C  
DOCKED: ATOM     35  N   UNL     1     135.123  81.318 227.078 -0.13 +0.08    -0.315 NA 
DOCKED: ATOM     36  H   UNL     1     135.096  80.523 227.760 -0.43 -0.07    +0.122 HD 
DOCKED: ENDBRANCH  29  31
DOCKED: ENDBRANCH   1  18
DOCKED: TORSDOF 4
DOCKED: TER
DOCKED: ENDMDL
________________________________________________________________________________


    FINAL DOCKED STATE:
    ________________________


Run:   6 / 20
Time taken for this run:   0.040s

DOCKED: MODEL        6
DOCKED: USER    Run = 6
DOCKED: USER
DOCKED: USER    Estimated Free Energy of Binding    =  -8.61 kcal/mol  [=(1)+(2)+(3)-(4)]
DOCKED: USER
DOCKED: USER    (1) Final Intermolecular Energy     =  -9.80 kcal/mol
DOCKED: USER        vdW + Hbond + desolv Energy     =  -9.78 kcal/mol
DOCKED: USER        Electrostatic Energy            =  -0.02 kcal/mol
DOCKED: USER        Moving Ligand-Fixed Receptor    =  -9.80 kcal/mol
DOCKED: USER        Moving Ligand-Moving Receptor   =  +0.00 kcal/mol
DOCKED: USER    (2) Final Total Internal Energy     =  -1.18 kcal/mol
DOCKED: USER    (3) Torsional Free Energy           =  +1.19 kcal/mol
DOCKED: USER    (4) Unbound System's Energy         =  -1.18 kcal/mol
DOCKED: USER
DOCKED: USER
DOCKED: REMARK SMILES NC(=O)c1ccc2cc(C(=O)N3C[C@]4(CCN([C@H]5CCNC5)C4)c4ccccc43)[nH]c2c1
DOCKED: REMARK SMILES IDX 10 1 11 2 9 3 4 4 5 5 32 6 6 7 31 8 7 9 30 10 8 11 2 13 1 14
DOCKED: REMARK SMILES IDX 3 17 12 18 13 19 29 20 14 21 28 22 24 23 15 24 23 25 27 26
DOCKED: REMARK SMILES IDX 25 27 16 28 17 29 26 30 18 31 19 32 22 33 20 34 21 35
DOCKED: REMARK H PARENT 30 12 1 15 1 16 21 36
DOCKED: USER                              x       y       z     vdW  Elec       q    Type
DOCKED: USER                           _______ _______ _______ _____ _____    ______ ____
DOCKED: ROOT
DOCKED: ATOM      1  C   UNL     1     140.087  72.427 220.919 -0.10 -0.05    +0.274 C  
DOCKED: ATOM      2  O   UNL     1     139.902  71.847 219.816 -0.03 +0.05    -0.267 OA 
DOCKED: ENDROOT
DOCKED: BRANCH   1   3
DOCKED: ATOM      3  C   UNL     1     139.919  71.671 222.173 -0.23 -0.02    +0.106 A  
DOCKED: ATOM      4  C   UNL     1     140.138  69.772 226.269 -0.49 -0.01    +0.041 A  
DOCKED: ATOM      5  C   UNL     1     139.101  68.972 225.714 -0.45 -0.00    +0.014 A  
DOCKED: ATOM      6  C   UNL     1     140.726  70.789 225.476 -0.54 -0.01    +0.040 A  
DOCKED: ATOM      7  C   UNL     1     138.645  69.192 224.402 -0.33 -0.00    +0.011 A  
DOCKED: ATOM      8  C   UNL     1     140.249  70.977 224.180 -0.40 -0.01    +0.047 A  
DOCKED: ATOM      9  C   UNL     1     139.243  70.206 223.665 -0.30 -0.00    +0.000 A  
DOCKED: ATOM     10  N   UNL     1     140.676  71.873 223.276 -0.18 +0.03    -0.350 N  
DOCKED: ATOM     11  C   UNL     1     139.015  70.627 222.373 -0.18 -0.01    +0.042 A  
DOCKED: ATOM     12  H   UNL     1     141.434  72.581 223.404 +0.10 +0.02    +0.167 HD 
DOCKED: BRANCH   4  13
DOCKED: ATOM     13  C   UNL     1     140.636  69.539 227.648 -0.42 -0.05    +0.248 C  
DOCKED: ATOM     14  N   UNL     1     140.698  68.225 228.212 -0.29 +0.10    -0.366 N  
DOCKED: ATOM     15  H   UNL     1     141.119  68.087 229.157 +0.10 -0.04    +0.159 HD 
DOCKED: ATOM     16  H   UNL     1     140.264  67.400 227.742 -0.35 -0.06    +0.159 HD 
DOCKED: ATOM     17  O   UNL     1     141.003  70.519 228.351 -0.41 +0.05    -0.270 OA 
DOCKED: ENDBRANCH   4  13
DOCKED: ENDBRANCH   1   3
DOCKED: BRANCH   1  18
DOCKED: ATOM     18  N   UNL     1     140.404  73.827 220.932 -0.11 +0.05    -0.306 N  
DOCKED: ATOM     19  C   UNL     1     139.508  74.861 221.445 -0.22 -0.03    +0.139 C  
DOCKED: ATOM     20  C   UNL     1     141.555  74.443 220.377 -0.22 -0.01    +0.048 A  
DOCKED: ATOM     21  C   UNL     1     140.308  76.207 221.346 -0.30 -0.01    +0.029 C  
DOCKED: ATOM     22  C   UNL     1     142.576  73.822 219.647 -0.20 -0.01    +0.026 A  
DOCKED: ATOM     23  C   UNL     1     141.543  75.797 220.580 -0.28 +0.01    -0.015 A  
DOCKED: ATOM     24  C   UNL     1     139.525  77.310 220.632 -0.14 -0.01    +0.030 C  
DOCKED: ATOM     25  C   UNL     1     140.680  76.809 222.721 -0.24 -0.03    +0.098 C  
DOCKED: ATOM     26  C   UNL     1     143.628  74.615 219.164 -0.30 -0.00    +0.002 A  
DOCKED: ATOM     27  C   UNL     1     142.589  76.603 220.113 -0.29 -0.00    +0.006 A  
DOCKED: ATOM     28  C   UNL     1     139.871  78.574 221.392 -0.19 -0.02    +0.086 C  
DOCKED: ATOM     29  N   UNL     1     140.128  78.174 222.782 -0.19 +0.07    -0.298 NA 
DOCKED: ATOM     30  C   UNL     1     143.638  76.001 219.402 -0.39 -0.00    +0.000 A  
DOCKED: BRANCH  29  31
DOCKED: ATOM     31  C   UNL     1     141.033  79.122 223.474 -0.51 -0.02    +0.071 C  
DOCKED: ATOM     32  C   UNL     1     142.438  79.092 222.902 -0.48 -0.02    +0.036 C  
DOCKED: ATOM     33  C   UNL     1     140.619  80.573 223.253 -0.41 -0.02    +0.100 C  
DOCKED: ATOM     34  C   UNL     1     142.968  80.498 223.125 -0.59 -0.02    +0.082 C  
DOCKED: ATOM     35  N   UNL     1     141.826  81.396 223.319 -0.29 +0.05    -0.315 NA 
DOCKED: ATOM     36  H   UNL     1     141.890  81.804 224.283 +0.06 -0.01    +0.122 HD 
DOCKED: ENDBRANCH  29  31
DOCKED: ENDBRANCH   1  18
DOCKED: TORSDOF 4
DOCKED: TER
DOCKED: ENDMDL
________________________________________________________________________________


    FINAL DOCKED STATE:
    ________________________


Run:   7 / 20
Time taken for this run:   0.040s

DOCKED: MODEL        7
DOCKED: USER    Run = 7
DOCKED: USER
DOCKED: USER    Estimated Free Energy of Binding    =  -9.49 kcal/mol  [=(1)+(2)+(3)-(4)]
DOCKED: USER
DOCKED: USER    (1) Final Intermolecular Energy     = -10.69 kcal/mol
DOCKED: USER        vdW + Hbond + desolv Energy     = -10.49 kcal/mol
DOCKED: USER        Electrostatic Energy            =  -0.20 kcal/mol
DOCKED: USER        Moving Ligand-Fixed Receptor    = -10.69 kcal/mol
DOCKED: USER        Moving Ligand-Moving Receptor   =  +0.00 kcal/mol
DOCKED: USER    (2) Final Total Internal Energy     =  -1.15 kcal/mol
DOCKED: USER    (3) Torsional Free Energy           =  +1.19 kcal/mol
DOCKED: USER    (4) Unbound System's Energy         =  -1.15 kcal/mol
DOCKED: USER
DOCKED: USER
DOCKED: REMARK SMILES NC(=O)c1ccc2cc(C(=O)N3C[C@]4(CCN([C@H]5CCNC5)C4)c4ccccc43)[nH]c2c1
DOCKED: REMARK SMILES IDX 10 1 11 2 9 3 4 4 5 5 32 6 6 7 31 8 7 9 30 10 8 11 2 13 1 14
DOCKED: REMARK SMILES IDX 3 17 12 18 13 19 29 20 14 21 28 22 24 23 15 24 23 25 27 26
DOCKED: REMARK SMILES IDX 25 27 16 28 17 29 26 30 18 31 19 32 22 33 20 34 21 35
DOCKED: REMARK H PARENT 30 12 1 15 1 16 21 36
DOCKED: USER                              x       y       z     vdW  Elec       q    Type
DOCKED: USER                           _______ _______ _______ _____ _____    ______ ____
DOCKED: ROOT
DOCKED: ATOM      1  C   UNL     1     139.435  76.579 222.335 -0.22 -0.06    +0.274 C  
DOCKED: ATOM      2  O   UNL     1     138.582  75.755 222.758 -0.26 +0.07    -0.267 OA 
DOCKED: ENDROOT
DOCKED: BRANCH   1   3
DOCKED: ATOM      3  C   UNL     1     140.567  76.097 221.523 -0.30 -0.03    +0.106 A  
DOCKED: ATOM      4  C   UNL     1     144.120  74.009 219.664 -0.35 -0.01    +0.041 A  
DOCKED: ATOM      5  C   UNL     1     144.067  75.147 218.813 -0.03 -0.01    +0.014 A  
DOCKED: ATOM      6  C   UNL     1     143.173  73.886 220.712 -0.28 -0.01    +0.040 A  
DOCKED: ATOM      7  C   UNL     1     143.080  76.134 218.988 -0.34 -0.01    +0.011 A  
DOCKED: ATOM      8  C   UNL     1     142.211  74.883 220.856 -0.28 -0.02    +0.047 A  
DOCKED: ATOM      9  C   UNL     1     142.167  75.966 220.022 -0.30 -0.00    +0.000 A  
DOCKED: ATOM     10  N   UNL     1     141.242  74.953 221.783 -0.11 +0.06    -0.350 N  
DOCKED: ATOM     11  C   UNL     1     141.123  76.766 220.432 -0.24 -0.02    +0.042 A  
DOCKED: ATOM     12  H   UNL     1     141.050  74.262 222.544 +0.07 +0.05    +0.167 HD 
DOCKED: BRANCH   4  13
DOCKED: ATOM     13  C   UNL     1     145.165  72.970 219.496 -0.26 +0.03    +0.248 C  
DOCKED: ATOM     14  N   UNL     1     145.319  71.898 220.432 +0.05 +0.02    -0.366 N  
DOCKED: ATOM     15  H   UNL     1     146.017  71.145 220.247 -0.36 +0.04    +0.159 HD 
DOCKED: ATOM     16  H   UNL     1     144.808  71.882 221.342 -0.40 -0.07    +0.159 HD 
DOCKED: ATOM     17  O   UNL     1     145.951  73.032 218.512 -0.79 -0.20    -0.270 OA 
DOCKED: ENDBRANCH   4  13
DOCKED: ENDBRANCH   1   3
DOCKED: BRANCH   1  18
DOCKED: ATOM     18  N   UNL     1     139.317  77.963 222.698 -0.16 +0.06    -0.306 N  
DOCKED: ATOM     19  C   UNL     1     138.063  78.711 222.659 -0.20 -0.02    +0.139 C  
DOCKED: ATOM     20  C   UNL     1     140.373  78.843 223.046 -0.41 -0.01    +0.048 A  
DOCKED: ATOM     21  C   UNL     1     138.397  80.135 223.228 -0.32 -0.00    +0.029 C  
DOCKED: ATOM     22  C   UNL     1     141.745  78.561 223.040 -0.51 -0.01    +0.026 A  
DOCKED: ATOM     23  C   UNL     1     139.902  80.093 223.348 -0.42 +0.00    -0.015 A  
DOCKED: ATOM     24  C   UNL     1     137.923  81.264 222.311 -0.17 -0.00    +0.030 C  
DOCKED: ATOM     25  C   UNL     1     137.737  80.427 224.595 -0.23 -0.01    +0.098 C  
DOCKED: ATOM     26  C   UNL     1     142.638  79.580 223.402 -0.58 -0.00    +0.002 A  
DOCKED: ATOM     27  C   UNL     1     140.778  81.120 223.721 -0.38 -0.00    +0.006 A  
DOCKED: ATOM     28  C   UNL     1     137.429  82.338 223.258 -0.13 -0.01    +0.086 C  
DOCKED: ATOM     29  N   UNL     1     136.926  81.650 224.454 -0.15 +0.03    -0.298 NA 
DOCKED: ATOM     30  C   UNL     1     142.155  80.855 223.749 -0.64 -0.00    +0.000 A  
DOCKED: BRANCH  29  31
DOCKED: ATOM     31  C   UNL     1     136.986  82.512 225.658 -0.29 -0.00    +0.071 C  
DOCKED: ATOM     32  C   UNL     1     136.126  83.754 225.515 -0.22 -0.00    +0.036 C  
DOCKED: ATOM     33  C   UNL     1     136.378  81.830 226.879 -0.42 -0.02    +0.100 C  
DOCKED: ATOM     34  C   UNL     1     135.695  84.082 226.934 -0.26 -0.00    +0.082 C  
DOCKED: ATOM     35  N   UNL     1     135.842  82.875 227.752 -0.16 +0.05    -0.315 NA 
DOCKED: ATOM     36  H   UNL     1     136.550  83.069 228.500 -0.42 -0.06    +0.122 HD 
DOCKED: ENDBRANCH  29  31
DOCKED: ENDBRANCH   1  18
DOCKED: TORSDOF 4
DOCKED: TER
DOCKED: ENDMDL
________________________________________________________________________________


    FINAL DOCKED STATE:
    ________________________


Run:   8 / 20
Time taken for this run:   0.040s

DOCKED: MODEL        8
DOCKED: USER    Run = 8
DOCKED: USER
DOCKED: USER    Estimated Free Energy of Binding    =  -9.21 kcal/mol  [=(1)+(2)+(3)-(4)]
DOCKED: USER
DOCKED: USER    (1) Final Intermolecular Energy     = -10.41 kcal/mol
DOCKED: USER        vdW + Hbond + desolv Energy     = -10.17 kcal/mol
DOCKED: USER        Electrostatic Energy            =  -0.24 kcal/mol
DOCKED: USER        Moving Ligand-Fixed Receptor    = -10.41 kcal/mol
DOCKED: USER        Moving Ligand-Moving Receptor   =  +0.00 kcal/mol
DOCKED: USER    (2) Final Total Internal Energy     =  -1.15 kcal/mol
DOCKED: USER    (3) Torsional Free Energy           =  +1.19 kcal/mol
DOCKED: USER    (4) Unbound System's Energy         =  -1.15 kcal/mol
DOCKED: USER
DOCKED: USER
DOCKED: REMARK SMILES NC(=O)c1ccc2cc(C(=O)N3C[C@]4(CCN([C@H]5CCNC5)C4)c4ccccc43)[nH]c2c1
DOCKED: REMARK SMILES IDX 10 1 11 2 9 3 4 4 5 5 32 6 6 7 31 8 7 9 30 10 8 11 2 13 1 14
DOCKED: REMARK SMILES IDX 3 17 12 18 13 19 29 20 14 21 28 22 24 23 15 24 23 25 27 26
DOCKED: REMARK SMILES IDX 25 27 16 28 17 29 26 30 18 31 19 32 22 33 20 34 21 35
DOCKED: REMARK H PARENT 30 12 1 15 1 16 21 36
DOCKED: USER                              x       y       z     vdW  Elec       q    Type
DOCKED: USER                           _______ _______ _______ _____ _____    ______ ____
DOCKED: ROOT
DOCKED: ATOM      1  C   UNL     1     140.738  78.535 219.719 -0.09 -0.11    +0.274 C  
DOCKED: ATOM      2  O   UNL     1     140.465  78.885 218.540 -0.04 +0.11    -0.267 OA 
DOCKED: ENDROOT
DOCKED: BRANCH   1   3
DOCKED: ATOM      3  C   UNL     1     141.420  77.249 219.952 -0.21 -0.05    +0.106 A  
DOCKED: ATOM      4  C   UNL     1     144.222  73.724 220.351 -0.42 -0.01    +0.041 A  
DOCKED: ATOM      5  C   UNL     1     142.996  73.060 220.635 -0.28 -0.00    +0.014 A  
DOCKED: ATOM      6  C   UNL     1     144.204  75.110 220.056 -0.37 -0.02    +0.040 A  
DOCKED: ATOM      7  C   UNL     1     141.779  73.766 220.646 -0.25 -0.00    +0.011 A  
DOCKED: ATOM      8  C   UNL     1     142.981  75.776 220.074 -0.31 -0.03    +0.047 A  
DOCKED: ATOM      9  C   UNL     1     141.812  75.125 220.361 -0.28 -0.00    +0.000 A  
DOCKED: ATOM     10  N   UNL     1     142.755  77.074 219.816 -0.16 +0.26    -0.350 N  
DOCKED: ATOM     11  C   UNL     1     140.792  76.048 220.284 -0.19 -0.01    +0.042 A  
DOCKED: ATOM     12  H   UNL     1     143.467  77.797 219.566 -0.45 -0.18    +0.167 HD 
DOCKED: BRANCH   4  13
DOCKED: ATOM     13  C   UNL     1     145.508  72.985 220.324 -0.39 +0.01    +0.248 C  
DOCKED: ATOM     14  N   UNL     1     146.219  72.670 221.525 -0.15 +0.08    -0.366 N  
DOCKED: ATOM     15  H   UNL     1     147.084  72.088 221.478 -0.34 -0.00    +0.159 HD 
DOCKED: ATOM     16  H   UNL     1     145.946  73.069 222.450 +0.01 -0.05    +0.159 HD 
DOCKED: ATOM     17  O   UNL     1     146.000  72.633 219.218 -0.77 -0.22    -0.270 OA 
DOCKED: ENDBRANCH   4  13
DOCKED: ENDBRANCH   1   3
DOCKED: BRANCH   1  18
DOCKED: ATOM     18  N   UNL     1     140.330  79.369 220.813 -0.05 +0.10    -0.306 N  
DOCKED: ATOM     19  C   UNL     1     138.980  79.903 220.972 -0.09 -0.03    +0.139 C  
DOCKED: ATOM     20  C   UNL     1     141.160  79.887 221.841 -0.35 -0.02    +0.048 A  
DOCKED: ATOM     21  C   UNL     1     138.981  80.664 222.345 -0.24 -0.00    +0.029 C  
DOCKED: ATOM     22  C   UNL     1     142.548  79.748 221.957 -0.39 -0.01    +0.026 A  
DOCKED: ATOM     23  C   UNL     1     140.439  80.637 222.732 -0.38 +0.00    -0.015 A  
DOCKED: ATOM     24  C   UNL     1     138.439  82.090 222.231 -0.18 -0.00    +0.030 C  
DOCKED: ATOM     25  C   UNL     1     138.105  79.990 223.427 -0.29 -0.01    +0.098 C  
DOCKED: ATOM     26  C   UNL     1     143.192  80.356 223.045 -0.63 -0.00    +0.002 A  
DOCKED: ATOM     27  C   UNL     1     141.064  81.244 223.829 -0.42 -0.00    +0.006 A  
DOCKED: ATOM     28  C   UNL     1     137.644  82.296 223.504 -0.03 -0.01    +0.086 C  
DOCKED: ATOM     29  N   UNL     1     137.117  80.981 223.891 -0.14 +0.03    -0.298 NA 
DOCKED: ATOM     30  C   UNL     1     142.450  81.097 223.983 -0.63 -0.00    +0.000 A  
DOCKED: BRANCH  29  31
DOCKED: ATOM     31  C   UNL     1     136.864  80.890 225.349 -0.28 -0.01    +0.071 C  
DOCKED: ATOM     32  C   UNL     1     137.257  82.162 226.077 -0.37 -0.00    +0.036 C  
DOCKED: ATOM     33  C   UNL     1     135.377  80.775 225.665 -0.10 -0.02    +0.100 C  
DOCKED: ATOM     34  C   UNL     1     136.314  82.224 227.266 -0.42 -0.02    +0.082 C  
DOCKED: ATOM     35  N   UNL     1     135.153  81.376 226.980 -0.13 +0.07    -0.315 NA 
DOCKED: ATOM     36  H   UNL     1     135.128  80.604 227.690 -0.35 -0.07    +0.122 HD 
DOCKED: ENDBRANCH  29  31
DOCKED: ENDBRANCH   1  18
DOCKED: TORSDOF 4
DOCKED: TER
DOCKED: ENDMDL
________________________________________________________________________________


    FINAL DOCKED STATE:
    ________________________


Run:   9 / 20
Time taken for this run:   0.040s

DOCKED: MODEL        9
DOCKED: USER    Run = 9
DOCKED: USER
DOCKED: USER    Estimated Free Energy of Binding    =  -9.50 kcal/mol  [=(1)+(2)+(3)-(4)]
DOCKED: USER
DOCKED: USER    (1) Final Intermolecular Energy     = -10.70 kcal/mol
DOCKED: USER        vdW + Hbond + desolv Energy     = -10.51 kcal/mol
DOCKED: USER        Electrostatic Energy            =  -0.19 kcal/mol
DOCKED: USER        Moving Ligand-Fixed Receptor    = -10.70 kcal/mol
DOCKED: USER        Moving Ligand-Moving Receptor   =  +0.00 kcal/mol
DOCKED: USER    (2) Final Total Internal Energy     =  -1.14 kcal/mol
DOCKED: USER    (3) Torsional Free Energy           =  +1.19 kcal/mol
DOCKED: USER    (4) Unbound System's Energy         =  -1.14 kcal/mol
DOCKED: USER
DOCKED: USER
DOCKED: REMARK SMILES NC(=O)c1ccc2cc(C(=O)N3C[C@]4(CCN([C@H]5CCNC5)C4)c4ccccc43)[nH]c2c1
DOCKED: REMARK SMILES IDX 10 1 11 2 9 3 4 4 5 5 32 6 6 7 31 8 7 9 30 10 8 11 2 13 1 14
DOCKED: REMARK SMILES IDX 3 17 12 18 13 19 29 20 14 21 28 22 24 23 15 24 23 25 27 26
DOCKED: REMARK SMILES IDX 25 27 16 28 17 29 26 30 18 31 19 32 22 33 20 34 21 35
DOCKED: REMARK H PARENT 30 12 1 15 1 16 21 36
DOCKED: USER                              x       y       z     vdW  Elec       q    Type
DOCKED: USER                           _______ _______ _______ _____ _____    ______ ____
DOCKED: ROOT
DOCKED: ATOM      1  C   UNL     1     139.426  76.586 222.327 -0.22 -0.06    +0.274 C  
DOCKED: ATOM      2  O   UNL     1     138.578  75.760 222.754 -0.27 +0.07    -0.267 OA 
DOCKED: ENDROOT
DOCKED: BRANCH   1   3
DOCKED: ATOM      3  C   UNL     1     140.559  76.107 221.515 -0.30 -0.03    +0.106 A  
DOCKED: ATOM      4  C   UNL     1     144.112  74.024 219.652 -0.35 -0.01    +0.041 A  
DOCKED: ATOM      5  C   UNL     1     144.060  75.164 218.804 -0.02 -0.01    +0.014 A  
DOCKED: ATOM      6  C   UNL     1     143.165  73.898 220.699 -0.28 -0.01    +0.040 A  
DOCKED: ATOM      7  C   UNL     1     143.073  76.151 218.981 -0.34 -0.01    +0.011 A  
DOCKED: ATOM      8  C   UNL     1     142.203  74.895 220.845 -0.29 -0.02    +0.047 A  
DOCKED: ATOM      9  C   UNL     1     142.159  75.980 220.014 -0.30 -0.00    +0.000 A  
DOCKED: ATOM     10  N   UNL     1     141.233  74.962 221.772 -0.12 +0.06    -0.350 N  
DOCKED: ATOM     11  C   UNL     1     141.115  76.779 220.426 -0.23 -0.02    +0.042 A  
DOCKED: ATOM     12  H   UNL     1     141.041  74.269 222.530 +0.07 +0.04    +0.167 HD 
DOCKED: BRANCH   4  13
DOCKED: ATOM     13  C   UNL     1     145.158  72.985 219.481 -0.26 +0.02    +0.248 C  
DOCKED: ATOM     14  N   UNL     1     145.313  71.913 220.415 +0.03 +0.02    -0.366 N  
DOCKED: ATOM     15  H   UNL     1     146.011  71.160 220.229 -0.35 +0.04    +0.159 HD 
DOCKED: ATOM     16  H   UNL     1     144.803  71.895 221.326 -0.39 -0.07    +0.159 HD 
DOCKED: ATOM     17  O   UNL     1     145.942  73.049 218.496 -0.78 -0.20    -0.270 OA 
DOCKED: ENDBRANCH   4  13
DOCKED: ENDBRANCH   1   3
DOCKED: BRANCH   1  18
DOCKED: ATOM     18  N   UNL     1     139.303  77.971 222.686 -0.16 +0.06    -0.306 N  
DOCKED: ATOM     19  C   UNL     1     138.046  78.713 222.648 -0.20 -0.02    +0.139 C  
DOCKED: ATOM     20  C   UNL     1     140.356  78.856 223.031 -0.41 -0.01    +0.048 A  
DOCKED: ATOM     21  C   UNL     1     138.376  80.140 223.212 -0.32 -0.00    +0.029 C  
DOCKED: ATOM     22  C   UNL     1     141.729  78.580 223.023 -0.52 -0.01    +0.026 A  
DOCKED: ATOM     23  C   UNL     1     139.880  80.105 223.330 -0.42 +0.00    -0.015 A  
DOCKED: ATOM     24  C   UNL     1     137.895  81.266 222.293 -0.17 -0.00    +0.030 C  
DOCKED: ATOM     25  C   UNL     1     137.716  80.434 224.580 -0.24 -0.01    +0.098 C  
DOCKED: ATOM     26  C   UNL     1     142.619  79.604 223.381 -0.60 -0.00    +0.002 A  
DOCKED: ATOM     27  C   UNL     1     140.753  81.137 223.698 -0.38 -0.00    +0.006 A  
DOCKED: ATOM     28  C   UNL     1     137.399  82.340 223.238 -0.14 -0.01    +0.086 C  
DOCKED: ATOM     29  N   UNL     1     136.900  81.653 224.436 -0.15 +0.03    -0.298 NA 
DOCKED: ATOM     30  C   UNL     1     142.131  80.877 223.724 -0.64 -0.00    +0.000 A  
DOCKED: BRANCH  29  31
DOCKED: ATOM     31  C   UNL     1     136.959  82.519 225.638 -0.30 -0.00    +0.071 C  
DOCKED: ATOM     32  C   UNL     1     136.094  83.757 225.493 -0.22 -0.00    +0.036 C  
DOCKED: ATOM     33  C   UNL     1     136.356  81.838 226.862 -0.41 -0.02    +0.100 C  
DOCKED: ATOM     34  C   UNL     1     135.664  84.088 226.912 -0.25 -0.00    +0.082 C  
DOCKED: ATOM     35  N   UNL     1     135.816  82.884 227.733 -0.16 +0.04    -0.315 NA 
DOCKED: ATOM     36  H   UNL     1     136.525  83.082 228.479 -0.42 -0.05    +0.122 HD 
DOCKED: ENDBRANCH  29  31
DOCKED: ENDBRANCH   1  18
DOCKED: TORSDOF 4
DOCKED: TER
DOCKED: ENDMDL
________________________________________________________________________________


    FINAL DOCKED STATE:
    ________________________


Run:   10 / 20
Time taken for this run:   0.040s

DOCKED: MODEL        10
DOCKED: USER    Run = 10
DOCKED: USER
DOCKED: USER    Estimated Free Energy of Binding    =  -8.42 kcal/mol  [=(1)+(2)+(3)-(4)]
DOCKED: USER
DOCKED: USER    (1) Final Intermolecular Energy     =  -9.62 kcal/mol
DOCKED: USER        vdW + Hbond + desolv Energy     =  -9.50 kcal/mol
DOCKED: USER        Electrostatic Energy            =  -0.12 kcal/mol
DOCKED: USER        Moving Ligand-Fixed Receptor    =  -9.62 kcal/mol
DOCKED: USER        Moving Ligand-Moving Receptor   =  +0.00 kcal/mol
DOCKED: USER    (2) Final Total Internal Energy     =  -1.44 kcal/mol
DOCKED: USER    (3) Torsional Free Energy           =  +1.19 kcal/mol
DOCKED: USER    (4) Unbound System's Energy         =  -1.44 kcal/mol
DOCKED: USER
DOCKED: USER
DOCKED: REMARK SMILES NC(=O)c1ccc2cc(C(=O)N3C[C@]4(CCN([C@H]5CCNC5)C4)c4ccccc43)[nH]c2c1
DOCKED: REMARK SMILES IDX 10 1 11 2 9 3 4 4 5 5 32 6 6 7 31 8 7 9 30 10 8 11 2 13 1 14
DOCKED: REMARK SMILES IDX 3 17 12 18 13 19 29 20 14 21 28 22 24 23 15 24 23 25 27 26
DOCKED: REMARK SMILES IDX 25 27 16 28 17 29 26 30 18 31 19 32 22 33 20 34 21 35
DOCKED: REMARK H PARENT 30 12 1 15 1 16 21 36
DOCKED: USER                              x       y       z     vdW  Elec       q    Type
DOCKED: USER                           _______ _______ _______ _____ _____    ______ ____
DOCKED: ROOT
DOCKED: ATOM      1  C   UNL     1     139.421  73.043 221.021 -0.10 -0.05    +0.274 C  
DOCKED: ATOM      2  O   UNL     1     138.766  72.531 220.075 -0.02 +0.05    -0.267 OA 
DOCKED: ENDROOT
DOCKED: BRANCH   1   3
DOCKED: ATOM      3  C   UNL     1     139.744  72.226 222.204 -0.25 -0.02    +0.106 A  
DOCKED: ATOM      4  C   UNL     1     140.134  69.162 225.505 -0.42 -0.01    +0.041 A  
DOCKED: ATOM      5  C   UNL     1     140.915  70.201 226.081 -0.55 -0.00    +0.014 A  
DOCKED: ATOM      6  C   UNL     1     139.535  69.369 224.238 -0.29 -0.01    +0.040 A  
DOCKED: ATOM      7  C   UNL     1     141.113  71.416 225.400 -0.53 -0.00    +0.011 A  
DOCKED: ATOM      8  C   UNL     1     139.752  70.585 223.593 -0.30 -0.01    +0.047 A  
DOCKED: ATOM      9  C   UNL     1     140.515  71.571 224.155 -0.43 -0.00    +0.000 A  
DOCKED: ATOM     10  N   UNL     1     139.268  70.974 222.402 -0.08 +0.07    -0.350 N  
DOCKED: ATOM     11  C   UNL     1     140.522  72.639 223.286 +0.18 -0.00    +0.042 A  
DOCKED: ATOM     12  H   UNL     1     138.656  70.420 221.762 +0.04 -0.03    +0.167 HD 
DOCKED: BRANCH   4  13
DOCKED: ATOM     13  C   UNL     1     139.909  67.882 226.222 -0.45 -0.04    +0.248 C  
DOCKED: ATOM     14  N   UNL     1     140.919  67.295 227.049 -0.17 +0.11    -0.366 N  
DOCKED: ATOM     15  H   UNL     1     140.704  66.433 227.595 -0.41 -0.11    +0.159 HD 
DOCKED: ATOM     16  H   UNL     1     141.898  67.658 227.066 +0.03 -0.04    +0.159 HD 
DOCKED: ATOM     17  O   UNL     1     138.806  67.284 226.094 -0.77 -0.03    -0.270 OA 
DOCKED: ENDBRANCH   4  13
DOCKED: ENDBRANCH   1   3
DOCKED: BRANCH   1  18
DOCKED: ATOM     18  N   UNL     1     139.793  74.428 220.950 -0.10 +0.06    -0.306 N  
DOCKED: ATOM     19  C   UNL     1     138.885  75.532 221.247 -0.17 -0.03    +0.139 C  
DOCKED: ATOM     20  C   UNL     1     141.031  74.952 220.498 -0.21 -0.01    +0.048 A  
DOCKED: ATOM     21  C   UNL     1     139.748  76.838 221.134 -0.22 -0.01    +0.029 C  
DOCKED: ATOM     22  C   UNL     1     142.109  74.235 219.966 -0.22 -0.01    +0.026 A  
DOCKED: ATOM     23  C   UNL     1     141.051  76.320 220.575 -0.25 +0.01    -0.015 A  
DOCKED: ATOM     24  C   UNL     1     139.109  77.892 220.228 -0.09 -0.01    +0.030 C  
DOCKED: ATOM     25  C   UNL     1     139.967  77.555 222.486 -0.30 -0.02    +0.098 C  
DOCKED: ATOM     26  C   UNL     1     143.247  74.945 219.555 -0.34 -0.00    +0.002 A  
DOCKED: ATOM     27  C   UNL     1     142.181  77.045 220.178 -0.31 -0.00    +0.006 A  
DOCKED: ATOM     28  C   UNL     1     139.409  79.210 220.911 -0.12 -0.02    +0.086 C  
DOCKED: ATOM     29  N   UNL     1     139.470  78.936 222.352 -0.12 +0.06    -0.298 NA 
DOCKED: ATOM     30  C   UNL     1     143.285  76.347 219.668 -0.41 -0.00    +0.000 A  
DOCKED: BRANCH  29  31
DOCKED: ATOM     31  C   UNL     1     140.319  79.917 223.069 -0.40 -0.01    +0.071 C  
DOCKED: ATOM     32  C   UNL     1     141.455  79.247 223.819 -0.59 -0.01    +0.036 C  
DOCKED: ATOM     33  C   UNL     1     141.059  80.842 222.108 -0.36 -0.02    +0.100 C  
DOCKED: ATOM     34  C   UNL     1     142.566  80.284 223.829 -0.59 -0.02    +0.082 C  
DOCKED: ATOM     35  N   UNL     1     142.310  81.245 222.753 -0.25 +0.06    -0.315 NA 
DOCKED: ATOM     36  H   UNL     1     142.164  82.190 223.183 +0.06 -0.01    +0.122 HD 
DOCKED: ENDBRANCH  29  31
DOCKED: ENDBRANCH   1  18
DOCKED: TORSDOF 4
DOCKED: TER
DOCKED: ENDMDL
________________________________________________________________________________


    FINAL DOCKED STATE:
    ________________________


Run:   11 / 20
Time taken for this run:   0.040s

DOCKED: MODEL        11
DOCKED: USER    Run = 11
DOCKED: USER
DOCKED: USER    Estimated Free Energy of Binding    =  -8.87 kcal/mol  [=(1)+(2)+(3)-(4)]
DOCKED: USER
DOCKED: USER    (1) Final Intermolecular Energy     = -10.06 kcal/mol
DOCKED: USER        vdW + Hbond + desolv Energy     = -10.03 kcal/mol
DOCKED: USER        Electrostatic Energy            =  -0.03 kcal/mol
DOCKED: USER        Moving Ligand-Fixed Receptor    = -10.06 kcal/mol
DOCKED: USER        Moving Ligand-Moving Receptor   =  +0.00 kcal/mol
DOCKED: USER    (2) Final Total Internal Energy     =  -1.13 kcal/mol
DOCKED: USER    (3) Torsional Free Energy           =  +1.19 kcal/mol
DOCKED: USER    (4) Unbound System's Energy         =  -1.13 kcal/mol
DOCKED: USER
DOCKED: USER
DOCKED: REMARK SMILES NC(=O)c1ccc2cc(C(=O)N3C[C@]4(CCN([C@H]5CCNC5)C4)c4ccccc43)[nH]c2c1
DOCKED: REMARK SMILES IDX 10 1 11 2 9 3 4 4 5 5 32 6 6 7 31 8 7 9 30 10 8 11 2 13 1 14
DOCKED: REMARK SMILES IDX 3 17 12 18 13 19 29 20 14 21 28 22 24 23 15 24 23 25 27 26
DOCKED: REMARK SMILES IDX 25 27 16 28 17 29 26 30 18 31 19 32 22 33 20 34 21 35
DOCKED: REMARK H PARENT 30 12 1 15 1 16 21 36
DOCKED: USER                              x       y       z     vdW  Elec       q    Type
DOCKED: USER                           _______ _______ _______ _____ _____    ______ ____
DOCKED: ROOT
DOCKED: ATOM      1  C   UNL     1     138.964  72.273 221.588 -0.10 -0.06    +0.274 C  
DOCKED: ATOM      2  O   UNL     1     138.000  72.006 220.823 -0.03 +0.05    -0.267 OA 
DOCKED: ENDROOT
DOCKED: BRANCH   1   3
DOCKED: ATOM      3  C   UNL     1     139.192  71.440 222.783 -0.23 -0.02    +0.106 A  
DOCKED: ATOM      4  C   UNL     1     140.406  69.551 226.706 -0.52 -0.01    +0.041 A  
DOCKED: ATOM      5  C   UNL     1     139.742  68.435 226.125 -0.56 -0.00    +0.014 A  
DOCKED: ATOM      6  C   UNL     1     140.488  70.763 225.977 -0.55 -0.01    +0.040 A  
DOCKED: ATOM      7  C   UNL     1     139.154  68.530 224.850 -0.40 -0.00    +0.011 A  
DOCKED: ATOM      8  C   UNL     1     139.896  70.820 224.717 -0.43 -0.01    +0.047 A  
DOCKED: ATOM      9  C   UNL     1     139.250  69.741 224.176 -0.33 -0.00    +0.000 A  
DOCKED: ATOM     10  N   UNL     1     139.872  71.864 223.873 -0.18 +0.08    -0.350 N  
DOCKED: ATOM     11  C   UNL     1     138.793  70.111 222.931 -0.21 -0.01    +0.042 A  
DOCKED: ATOM     12  H   UNL     1     140.291  72.808 224.032 -0.12 -0.02    +0.167 HD 
DOCKED: BRANCH   4  13
DOCKED: ATOM     13  C   UNL     1     141.041  69.456 228.044 -0.38 -0.05    +0.248 C  
DOCKED: ATOM     14  N   UNL     1     141.190  68.203 228.719 -0.28 +0.10    -0.366 N  
DOCKED: ATOM     15  H   UNL     1     141.704  68.161 229.626 +0.10 -0.04    +0.159 HD 
DOCKED: ATOM     16  H   UNL     1     140.733  67.331 228.372 -0.28 -0.07    +0.159 HD 
DOCKED: ATOM     17  O   UNL     1     141.450  70.503 228.614 -0.32 +0.05    -0.270 OA 
DOCKED: ENDBRANCH   4  13
DOCKED: ENDBRANCH   1   3
DOCKED: BRANCH   1  18
DOCKED: ATOM     18  N   UNL     1     139.788  73.415 221.311 -0.12 +0.05    -0.306 N  
DOCKED: ATOM     19  C   UNL     1     139.273  74.772 221.155 -0.18 -0.03    +0.139 C  
DOCKED: ATOM     20  C   UNL     1     141.181  73.412 221.047 -0.24 -0.01    +0.048 A  
DOCKED: ATOM     21  C   UNL     1     140.533  75.688 220.964 -0.27 -0.01    +0.029 C  
DOCKED: ATOM     22  C   UNL     1     142.019  72.296 220.935 -0.23 -0.00    +0.026 A  
DOCKED: ATOM     23  C   UNL     1     141.651  74.682 220.835 -0.30 +0.00    -0.015 A  
DOCKED: ATOM     24  C   UNL     1     140.426  76.593 219.735 -0.12 -0.01    +0.030 C  
DOCKED: ATOM     25  C   UNL     1     140.785  76.651 222.147 -0.34 -0.03    +0.098 C  
DOCKED: ATOM     26  C   UNL     1     143.376  72.504 220.649 -0.31 -0.00    +0.002 A  
DOCKED: ATOM     27  C   UNL     1     143.004  74.910 220.557 -0.27 -0.00    +0.006 A  
DOCKED: ATOM     28  C   UNL     1     141.052  77.901 220.172 -0.21 -0.04    +0.086 C  
DOCKED: ATOM     29  N   UNL     1     140.808  78.026 221.615 -0.15 +0.12    -0.298 NA 
DOCKED: ATOM     30  C   UNL     1     143.869  73.809 220.467 -0.41 -0.00    +0.000 A  
DOCKED: BRANCH  29  31
DOCKED: ATOM     31  C   UNL     1     141.827  78.874 222.280 -0.44 -0.03    +0.071 C  
DOCKED: ATOM     32  C   UNL     1     141.757  80.317 221.819 -0.44 -0.01    +0.036 C  
DOCKED: ATOM     33  C   UNL     1     141.579  78.994 223.779 -0.54 -0.03    +0.100 C  
DOCKED: ATOM     34  C   UNL     1     142.239  81.121 223.015 -0.50 -0.02    +0.082 C  
DOCKED: ATOM     35  N   UNL     1     142.101  80.290 224.215 -0.24 +0.06    -0.315 NA 
DOCKED: ATOM     36  H   UNL     1     143.056  80.137 224.619 +0.09 -0.02    +0.122 HD 
DOCKED: ENDBRANCH  29  31
DOCKED: ENDBRANCH   1  18
DOCKED: TORSDOF 4
DOCKED: TER
DOCKED: ENDMDL
________________________________________________________________________________


    FINAL DOCKED STATE:
    ________________________


Run:   12 / 20
Time taken for this run:   0.040s

DOCKED: MODEL        12
DOCKED: USER    Run = 12
DOCKED: USER
DOCKED: USER    Estimated Free Energy of Binding    =  -9.53 kcal/mol  [=(1)+(2)+(3)-(4)]
DOCKED: USER
DOCKED: USER    (1) Final Intermolecular Energy     = -10.72 kcal/mol
DOCKED: USER        vdW + Hbond + desolv Energy     = -10.55 kcal/mol
DOCKED: USER        Electrostatic Energy            =  -0.17 kcal/mol
DOCKED: USER        Moving Ligand-Fixed Receptor    = -10.72 kcal/mol
DOCKED: USER        Moving Ligand-Moving Receptor   =  +0.00 kcal/mol
DOCKED: USER    (2) Final Total Internal Energy     =  -1.15 kcal/mol
DOCKED: USER    (3) Torsional Free Energy           =  +1.19 kcal/mol
DOCKED: USER    (4) Unbound System's Energy         =  -1.15 kcal/mol
DOCKED: USER
DOCKED: USER
DOCKED: REMARK SMILES NC(=O)c1ccc2cc(C(=O)N3C[C@]4(CCN([C@H]5CCNC5)C4)c4ccccc43)[nH]c2c1
DOCKED: REMARK SMILES IDX 10 1 11 2 9 3 4 4 5 5 32 6 6 7 31 8 7 9 30 10 8 11 2 13 1 14
DOCKED: REMARK SMILES IDX 3 17 12 18 13 19 29 20 14 21 28 22 24 23 15 24 23 25 27 26
DOCKED: REMARK SMILES IDX 25 27 16 28 17 29 26 30 18 31 19 32 22 33 20 34 21 35
DOCKED: REMARK H PARENT 30 12 1 15 1 16 21 36
DOCKED: USER                              x       y       z     vdW  Elec       q    Type
DOCKED: USER                           _______ _______ _______ _____ _____    ______ ____
DOCKED: ROOT
DOCKED: ATOM      1  C   UNL     1     139.379  76.639 222.324 -0.22 -0.06    +0.274 C  
DOCKED: ATOM      2  O   UNL     1     138.512  75.814 222.716 -0.27 +0.07    -0.267 OA 
DOCKED: ENDROOT
DOCKED: BRANCH   1   3
DOCKED: ATOM      3  C   UNL     1     140.518  76.164 221.516 -0.30 -0.03    +0.106 A  
DOCKED: ATOM      4  C   UNL     1     144.148  74.162 219.715 -0.36 -0.01    +0.041 A  
DOCKED: ATOM      5  C   UNL     1     143.993  75.217 218.774 -0.04 -0.01    +0.014 A  
DOCKED: ATOM      6  C   UNL     1     143.244  74.068 220.803 -0.27 -0.01    +0.040 A  
DOCKED: ATOM      7  C   UNL     1     142.946  76.148 218.900 -0.32 -0.01    +0.011 A  
DOCKED: ATOM      8  C   UNL     1     142.220  75.008 220.896 -0.24 -0.02    +0.047 A  
DOCKED: ATOM      9  C   UNL     1     142.077  76.010 219.975 -0.29 -0.00    +0.000 A  
DOCKED: ATOM     10  N   UNL     1     141.277  75.094 221.848 -0.11 +0.07    -0.350 N  
DOCKED: ATOM     11  C   UNL     1     140.993  76.772 220.354 -0.22 -0.02    +0.042 A  
DOCKED: ATOM     12  H   UNL     1     141.155  74.460 222.670 +0.10 +0.06    +0.167 HD 
DOCKED: BRANCH   4  13
DOCKED: ATOM     13  C   UNL     1     145.258  73.184 219.598 -0.29 +0.01    +0.248 C  
DOCKED: ATOM     14  N   UNL     1     145.570  72.270 220.654 -0.07 +0.03    -0.366 N  
DOCKED: ATOM     15  H   UNL     1     146.309  71.548 220.512 -0.43 +0.02    +0.159 HD 
DOCKED: ATOM     16  H   UNL     1     145.134  72.349 221.599 -0.33 -0.07    +0.159 HD 
DOCKED: ATOM     17  O   UNL     1     145.957  73.160 218.548 -0.78 -0.18    -0.270 OA 
DOCKED: ENDBRANCH   4  13
DOCKED: ENDBRANCH   1   3
DOCKED: BRANCH   1  18
DOCKED: ATOM     18  N   UNL     1     139.270  78.014 222.719 -0.16 +0.06    -0.306 N  
DOCKED: ATOM     19  C   UNL     1     138.021  78.770 222.705 -0.20 -0.02    +0.139 C  
DOCKED: ATOM     20  C   UNL     1     140.334  78.881 223.081 -0.41 -0.01    +0.048 A  
DOCKED: ATOM     21  C   UNL     1     138.366  80.179 223.304 -0.33 -0.00    +0.029 C  
DOCKED: ATOM     22  C   UNL     1     141.704  78.592 223.060 -0.53 -0.01    +0.026 A  
DOCKED: ATOM     23  C   UNL     1     139.871  80.126 223.414 -0.42 +0.00    -0.015 A  
DOCKED: ATOM     24  C   UNL     1     137.892  81.331 222.416 -0.18 -0.00    +0.030 C  
DOCKED: ATOM     25  C   UNL     1     137.715  80.443 224.681 -0.21 -0.01    +0.098 C  
DOCKED: ATOM     26  C   UNL     1     142.605  79.598 223.440 -0.60 -0.00    +0.002 A  
DOCKED: ATOM     27  C   UNL     1     140.754  81.140 223.805 -0.35 -0.00    +0.006 A  
DOCKED: ATOM     28  C   UNL     1     137.410  82.386 223.390 -0.12 -0.01    +0.086 C  
DOCKED: ATOM     29  N   UNL     1     136.910  81.674 224.573 -0.16 +0.03    -0.298 NA 
DOCKED: ATOM     30  C   UNL     1     142.130  80.867 223.818 -0.64 -0.00    +0.000 A  
DOCKED: BRANCH  29  31
DOCKED: ATOM     31  C   UNL     1     136.982  82.508 225.796 -0.31 -0.00    +0.071 C  
DOCKED: ATOM     32  C   UNL     1     136.138  83.764 225.681 -0.23 -0.00    +0.036 C  
DOCKED: ATOM     33  C   UNL     1     136.366  81.807 227.002 -0.42 -0.02    +0.100 C  
DOCKED: ATOM     34  C   UNL     1     135.712  84.066 227.108 -0.27 -0.00    +0.082 C  
DOCKED: ATOM     35  N   UNL     1     135.843  82.839 227.899 -0.15 +0.05    -0.315 NA 
DOCKED: ATOM     36  H   UNL     1     136.554  83.007 228.650 -0.43 -0.06    +0.122 HD 
DOCKED: ENDBRANCH  29  31
DOCKED: ENDBRANCH   1  18
DOCKED: TORSDOF 4
DOCKED: TER
DOCKED: ENDMDL
________________________________________________________________________________


    FINAL DOCKED STATE:
    ________________________


Run:   13 / 20
Time taken for this run:   0.040s

DOCKED: MODEL        13
DOCKED: USER    Run = 13
DOCKED: USER
DOCKED: USER    Estimated Free Energy of Binding    =  -9.50 kcal/mol  [=(1)+(2)+(3)-(4)]
DOCKED: USER
DOCKED: USER    (1) Final Intermolecular Energy     = -10.69 kcal/mol
DOCKED: USER        vdW + Hbond + desolv Energy     = -10.50 kcal/mol
DOCKED: USER        Electrostatic Energy            =  -0.19 kcal/mol
DOCKED: USER        Moving Ligand-Fixed Receptor    = -10.69 kcal/mol
DOCKED: USER        Moving Ligand-Moving Receptor   =  +0.00 kcal/mol
DOCKED: USER    (2) Final Total Internal Energy     =  -1.15 kcal/mol
DOCKED: USER    (3) Torsional Free Energy           =  +1.19 kcal/mol
DOCKED: USER    (4) Unbound System's Energy         =  -1.15 kcal/mol
DOCKED: USER
DOCKED: USER
DOCKED: REMARK SMILES NC(=O)c1ccc2cc(C(=O)N3C[C@]4(CCN([C@H]5CCNC5)C4)c4ccccc43)[nH]c2c1
DOCKED: REMARK SMILES IDX 10 1 11 2 9 3 4 4 5 5 32 6 6 7 31 8 7 9 30 10 8 11 2 13 1 14
DOCKED: REMARK SMILES IDX 3 17 12 18 13 19 29 20 14 21 28 22 24 23 15 24 23 25 27 26
DOCKED: REMARK SMILES IDX 25 27 16 28 17 29 26 30 18 31 19 32 22 33 20 34 21 35
DOCKED: REMARK H PARENT 30 12 1 15 1 16 21 36
DOCKED: USER                              x       y       z     vdW  Elec       q    Type
DOCKED: USER                           _______ _______ _______ _____ _____    ______ ____
DOCKED: ROOT
DOCKED: ATOM      1  C   UNL     1     139.416  76.594 222.337 -0.22 -0.06    +0.274 C  
DOCKED: ATOM      2  O   UNL     1     138.562  75.767 222.753 -0.26 +0.07    -0.267 OA 
DOCKED: ENDROOT
DOCKED: BRANCH   1   3
DOCKED: ATOM      3  C   UNL     1     140.550  76.116 221.526 -0.30 -0.03    +0.106 A  
DOCKED: ATOM      4  C   UNL     1     144.098  74.029 219.657 -0.35 -0.01    +0.041 A  
DOCKED: ATOM      5  C   UNL     1     144.064  75.184 218.827 -0.02 -0.01    +0.014 A  
DOCKED: ATOM      6  C   UNL     1     143.141  73.895 220.694 -0.28 -0.01    +0.040 A  
DOCKED: ATOM      7  C   UNL     1     143.085  76.177 219.013 -0.34 -0.01    +0.011 A  
DOCKED: ATOM      8  C   UNL     1     142.187  74.899 220.849 -0.29 -0.02    +0.047 A  
DOCKED: ATOM      9  C   UNL     1     142.161  75.998 220.036 -0.30 -0.00    +0.000 A  
DOCKED: ATOM     10  N   UNL     1     141.211  74.961 221.769 -0.13 +0.06    -0.350 N  
DOCKED: ATOM     11  C   UNL     1     141.122  76.800 220.453 -0.24 -0.02    +0.042 A  
DOCKED: ATOM     12  H   UNL     1     141.006  74.257 222.514 +0.07 +0.04    +0.167 HD 
DOCKED: BRANCH   4  13
DOCKED: ATOM     13  C   UNL     1     145.135  72.983 219.477 -0.26 +0.02    +0.248 C  
DOCKED: ATOM     14  N   UNL     1     145.287  71.906 220.407 +0.02 +0.02    -0.366 N  
DOCKED: ATOM     15  H   UNL     1     145.978  71.149 220.215 -0.35 +0.04    +0.159 HD 
DOCKED: ATOM     16  H   UNL     1     144.781  71.890 221.321 -0.39 -0.07    +0.159 HD 
DOCKED: ATOM     17  O   UNL     1     145.914  73.044 218.488 -0.77 -0.19    -0.270 OA 
DOCKED: ENDBRANCH   4  13
DOCKED: ENDBRANCH   1   3
DOCKED: BRANCH   1  18
DOCKED: ATOM     18  N   UNL     1     139.297  77.975 222.708 -0.16 +0.06    -0.306 N  
DOCKED: ATOM     19  C   UNL     1     138.045  78.727 222.660 -0.20 -0.02    +0.139 C  
DOCKED: ATOM     20  C   UNL     1     140.351  78.850 223.074 -0.41 -0.01    +0.048 A  
DOCKED: ATOM     21  C   UNL     1     138.377  80.146 223.242 -0.32 -0.00    +0.029 C  
DOCKED: ATOM     22  C   UNL     1     141.722  78.565 223.082 -0.52 -0.01    +0.026 A  
DOCKED: ATOM     23  C   UNL     1     139.879  80.100 223.379 -0.42 +0.00    -0.015 A  
DOCKED: ATOM     24  C   UNL     1     137.916  81.283 222.327 -0.17 -0.00    +0.030 C  
DOCKED: ATOM     25  C   UNL     1     137.701  80.431 224.603 -0.23 -0.01    +0.098 C  
DOCKED: ATOM     26  C   UNL     1     142.614  79.580 223.462 -0.59 -0.00    +0.002 A  
DOCKED: ATOM     27  C   UNL     1     140.753  81.122 223.769 -0.36 -0.00    +0.006 A  
DOCKED: ATOM     28  C   UNL     1     137.414  82.352 223.275 -0.13 -0.01    +0.086 C  
DOCKED: ATOM     29  N   UNL     1     136.895  81.657 224.460 -0.15 +0.03    -0.298 NA 
DOCKED: ATOM     30  C   UNL     1     142.130  80.853 223.811 -0.64 -0.00    +0.000 A  
DOCKED: BRANCH  29  31
DOCKED: ATOM     31  C   UNL     1     136.943  82.511 225.671 -0.31 -0.00    +0.071 C  
DOCKED: ATOM     32  C   UNL     1     136.072  83.746 225.534 -0.22 -0.00    +0.036 C  
DOCKED: ATOM     33  C   UNL     1     136.338  81.815 226.885 -0.41 -0.02    +0.100 C  
DOCKED: ATOM     34  C   UNL     1     135.634  84.060 226.954 -0.25 -0.00    +0.082 C  
DOCKED: ATOM     35  N   UNL     1     135.789  82.848 227.764 -0.16 +0.04    -0.315 NA 
DOCKED: ATOM     36  H   UNL     1     136.492  83.044 228.516 -0.43 -0.05    +0.122 HD 
DOCKED: ENDBRANCH  29  31
DOCKED: ENDBRANCH   1  18
DOCKED: TORSDOF 4
DOCKED: TER
DOCKED: ENDMDL
________________________________________________________________________________


    FINAL DOCKED STATE:
    ________________________


Run:   14 / 20
Time taken for this run:   0.040s

DOCKED: MODEL        14
DOCKED: USER    Run = 14
DOCKED: USER
DOCKED: USER    Estimated Free Energy of Binding    =  -9.18 kcal/mol  [=(1)+(2)+(3)-(4)]
DOCKED: USER
DOCKED: USER    (1) Final Intermolecular Energy     = -10.37 kcal/mol
DOCKED: USER        vdW + Hbond + desolv Energy     = -10.19 kcal/mol
DOCKED: USER        Electrostatic Energy            =  -0.18 kcal/mol
DOCKED: USER        Moving Ligand-Fixed Receptor    = -10.37 kcal/mol
DOCKED: USER        Moving Ligand-Moving Receptor   =  +0.00 kcal/mol
DOCKED: USER    (2) Final Total Internal Energy     =  -1.22 kcal/mol
DOCKED: USER    (3) Torsional Free Energy           =  +1.19 kcal/mol
DOCKED: USER    (4) Unbound System's Energy         =  -1.22 kcal/mol
DOCKED: USER
DOCKED: USER
DOCKED: REMARK SMILES NC(=O)c1ccc2cc(C(=O)N3C[C@]4(CCN([C@H]5CCNC5)C4)c4ccccc43)[nH]c2c1
DOCKED: REMARK SMILES IDX 10 1 11 2 9 3 4 4 5 5 32 6 6 7 31 8 7 9 30 10 8 11 2 13 1 14
DOCKED: REMARK SMILES IDX 3 17 12 18 13 19 29 20 14 21 28 22 24 23 15 24 23 25 27 26
DOCKED: REMARK SMILES IDX 25 27 16 28 17 29 26 30 18 31 19 32 22 33 20 34 21 35
DOCKED: REMARK H PARENT 30 12 1 15 1 16 21 36
DOCKED: USER                              x       y       z     vdW  Elec       q    Type
DOCKED: USER                           _______ _______ _______ _____ _____    ______ ____
DOCKED: ROOT
DOCKED: ATOM      1  C   UNL     1     139.400  76.569 222.263 -0.22 -0.06    +0.274 C  
DOCKED: ATOM      2  O   UNL     1     138.558  75.743 222.706 -0.27 +0.07    -0.267 OA 
DOCKED: ENDROOT
DOCKED: BRANCH   1   3
DOCKED: ATOM      3  C   UNL     1     140.540  76.083 221.466 -0.29 -0.03    +0.106 A  
DOCKED: ATOM      4  C   UNL     1     144.178  74.057 219.707 -0.36 -0.01    +0.041 A  
DOCKED: ATOM      5  C   UNL     1     144.024  75.096 218.748 -0.06 -0.01    +0.014 A  
DOCKED: ATOM      6  C   UNL     1     143.272  73.979 220.793 -0.27 -0.01    +0.040 A  
DOCKED: ATOM      7  C   UNL     1     142.975  76.028 218.856 -0.31 -0.01    +0.011 A  
DOCKED: ATOM      8  C   UNL     1     142.246  74.920 220.869 -0.26 -0.02    +0.047 A  
DOCKED: ATOM      9  C   UNL     1     142.104  75.906 219.932 -0.29 -0.00    +0.000 A  
DOCKED: ATOM     10  N   UNL     1     141.300  75.019 221.817 -0.10 +0.06    -0.350 N  
DOCKED: ATOM     11  C   UNL     1     141.018  76.672 220.295 -0.21 -0.02    +0.042 A  
DOCKED: ATOM     12  H   UNL     1     141.177  74.399 222.649 +0.10 +0.06    +0.167 HD 
DOCKED: BRANCH   4  13
DOCKED: ATOM     13  C   UNL     1     145.289  73.079 219.608 -0.29 +0.02    +0.248 C  
DOCKED: ATOM     14  N   UNL     1     145.640  72.226 220.702 +0.06 +0.03    -0.366 N  
DOCKED: ATOM     15  H   UNL     1     146.379  71.500 220.577 -0.45 +0.02    +0.159 HD 
DOCKED: ATOM     16  H   UNL     1     145.235  72.355 221.655 -0.36 -0.07    +0.159 HD 
DOCKED: ATOM     17  O   UNL     1     145.955  72.999 218.540 -0.79 -0.21    -0.270 OA 
DOCKED: ENDBRANCH   4  13
DOCKED: ENDBRANCH   1   3
DOCKED: BRANCH   1  18
DOCKED: ATOM     18  N   UNL     1     139.260  77.960 222.590 -0.15 +0.06    -0.306 N  
DOCKED: ATOM     19  C   UNL     1     138.019  78.713 222.433 -0.18 -0.02    +0.139 C  
DOCKED: ATOM     20  C   UNL     1     140.289  78.841 223.010 -0.40 -0.01    +0.048 A  
DOCKED: ATOM     21  C   UNL     1     138.313  80.145 223.003 -0.29 -0.00    +0.029 C  
DOCKED: ATOM     22  C   UNL     1     141.655  78.552 223.124 -0.53 -0.01    +0.026 A  
DOCKED: ATOM     23  C   UNL     1     139.802  80.098 223.249 -0.40 +0.00    -0.015 A  
DOCKED: ATOM     24  C   UNL     1     137.924  81.260 222.029 -0.15 -0.00    +0.030 C  
DOCKED: ATOM     25  C   UNL     1     137.543  80.466 224.304 -0.28 -0.01    +0.098 C  
DOCKED: ATOM     26  C   UNL     1     142.521  79.574 223.541 -0.59 -0.00    +0.002 A  
DOCKED: ATOM     27  C   UNL     1     140.650  81.128 223.676 -0.36 -0.00    +0.006 A  
DOCKED: ATOM     28  C   UNL     1     137.360  82.354 222.912 -0.15 -0.01    +0.086 C  
DOCKED: ATOM     29  N   UNL     1     136.754  81.690 224.074 -0.12 +0.03    -0.298 NA 
DOCKED: ATOM     30  C   UNL     1     142.018  80.857 223.823 -0.63 -0.00    +0.000 A  
DOCKED: BRANCH  29  31
DOCKED: ATOM     31  C   UNL     1     136.718  82.574 225.263 -0.26 -0.00    +0.071 C  
DOCKED: ATOM     32  C   UNL     1     135.349  83.190 225.476 -0.16 -0.00    +0.036 C  
DOCKED: ATOM     33  C   UNL     1     136.936  81.798 226.558 -0.38 -0.01    +0.100 C  
DOCKED: ATOM     34  C   UNL     1     135.252  83.388 226.979 -0.22 -0.00    +0.082 C  
DOCKED: ATOM     35  N   UNL     1     136.227  82.505 227.625 -0.21 +0.06    -0.315 NA 
DOCKED: ATOM     36  H   UNL     1     136.921  83.101 228.137 -0.34 -0.06    +0.122 HD 
DOCKED: ENDBRANCH  29  31
DOCKED: ENDBRANCH   1  18
DOCKED: TORSDOF 4
DOCKED: TER
DOCKED: ENDMDL
________________________________________________________________________________


    FINAL DOCKED STATE:
    ________________________


Run:   15 / 20
Time taken for this run:   0.040s

DOCKED: MODEL        15
DOCKED: USER    Run = 15
DOCKED: USER
DOCKED: USER    Estimated Free Energy of Binding    =  -9.49 kcal/mol  [=(1)+(2)+(3)-(4)]
DOCKED: USER
DOCKED: USER    (1) Final Intermolecular Energy     = -10.69 kcal/mol
DOCKED: USER        vdW + Hbond + desolv Energy     = -10.50 kcal/mol
DOCKED: USER        Electrostatic Energy            =  -0.19 kcal/mol
DOCKED: USER        Moving Ligand-Fixed Receptor    = -10.69 kcal/mol
DOCKED: USER        Moving Ligand-Moving Receptor   =  +0.00 kcal/mol
DOCKED: USER    (2) Final Total Internal Energy     =  -1.15 kcal/mol
DOCKED: USER    (3) Torsional Free Energy           =  +1.19 kcal/mol
DOCKED: USER    (4) Unbound System's Energy         =  -1.15 kcal/mol
DOCKED: USER
DOCKED: USER
DOCKED: REMARK SMILES NC(=O)c1ccc2cc(C(=O)N3C[C@]4(CCN([C@H]5CCNC5)C4)c4ccccc43)[nH]c2c1
DOCKED: REMARK SMILES IDX 10 1 11 2 9 3 4 4 5 5 32 6 6 7 31 8 7 9 30 10 8 11 2 13 1 14
DOCKED: REMARK SMILES IDX 3 17 12 18 13 19 29 20 14 21 28 22 24 23 15 24 23 25 27 26
DOCKED: REMARK SMILES IDX 25 27 16 28 17 29 26 30 18 31 19 32 22 33 20 34 21 35
DOCKED: REMARK H PARENT 30 12 1 15 1 16 21 36
DOCKED: USER                              x       y       z     vdW  Elec       q    Type
DOCKED: USER                           _______ _______ _______ _____ _____    ______ ____
DOCKED: ROOT
DOCKED: ATOM      1  C   UNL     1     139.422  76.595 222.336 -0.22 -0.06    +0.274 C  
DOCKED: ATOM      2  O   UNL     1     138.570  75.767 222.753 -0.27 +0.07    -0.267 OA 
DOCKED: ENDROOT
DOCKED: BRANCH   1   3
DOCKED: ATOM      3  C   UNL     1     140.557  76.119 221.524 -0.30 -0.03    +0.106 A  
DOCKED: ATOM      4  C   UNL     1     144.119  74.048 219.665 -0.35 -0.01    +0.041 A  
DOCKED: ATOM      5  C   UNL     1     144.065  75.189 218.818 -0.01 -0.01    +0.014 A  
DOCKED: ATOM      6  C   UNL     1     143.170  73.918 220.710 -0.28 -0.01    +0.040 A  
DOCKED: ATOM      7  C   UNL     1     143.076  76.173 218.995 -0.34 -0.01    +0.011 A  
DOCKED: ATOM      8  C   UNL     1     142.205  74.912 220.856 -0.28 -0.02    +0.047 A  
DOCKED: ATOM      9  C   UNL     1     142.160  75.999 220.026 -0.30 -0.00    +0.000 A  
DOCKED: ATOM     10  N   UNL     1     141.234  74.975 221.781 -0.12 +0.06    -0.350 N  
DOCKED: ATOM     11  C   UNL     1     141.113  76.794 220.437 -0.24 -0.02    +0.042 A  
DOCKED: ATOM     12  H   UNL     1     141.042  74.281 222.538 +0.07 +0.05    +0.167 HD 
DOCKED: BRANCH   4  13
DOCKED: ATOM     13  C   UNL     1     145.167  73.012 219.494 -0.26 +0.02    +0.248 C  
DOCKED: ATOM     14  N   UNL     1     145.325  71.939 220.428 +0.03 +0.02    -0.366 N  
DOCKED: ATOM     15  H   UNL     1     146.025  71.189 220.242 -0.35 +0.04    +0.159 HD 
DOCKED: ATOM     16  H   UNL     1     144.814  71.921 221.339 -0.39 -0.07    +0.159 HD 
DOCKED: ATOM     17  O   UNL     1     145.952  73.078 218.509 -0.78 -0.19    -0.270 OA 
DOCKED: ENDBRANCH   4  13
DOCKED: ENDBRANCH   1   3
DOCKED: BRANCH   1  18
DOCKED: ATOM     18  N   UNL     1     139.299  77.976 222.705 -0.16 +0.06    -0.306 N  
DOCKED: ATOM     19  C   UNL     1     138.045  78.723 222.662 -0.20 -0.02    +0.139 C  
DOCKED: ATOM     20  C   UNL     1     140.353  78.856 223.065 -0.41 -0.01    +0.048 A  
DOCKED: ATOM     21  C   UNL     1     138.374  80.145 223.240 -0.32 -0.00    +0.029 C  
DOCKED: ATOM     22  C   UNL     1     141.725  78.575 223.066 -0.52 -0.01    +0.026 A  
DOCKED: ATOM     23  C   UNL     1     139.878  80.104 223.370 -0.42 +0.00    -0.015 A  
DOCKED: ATOM     24  C   UNL     1     137.904  81.278 222.326 -0.17 -0.00    +0.030 C  
DOCKED: ATOM     25  C   UNL     1     137.705  80.429 224.604 -0.23 -0.01    +0.098 C  
DOCKED: ATOM     26  C   UNL     1     142.614  79.594 223.439 -0.59 -0.00    +0.002 A  
DOCKED: ATOM     27  C   UNL     1     140.750  81.130 223.754 -0.36 -0.00    +0.006 A  
DOCKED: ATOM     28  C   UNL     1     137.404  82.347 223.276 -0.13 -0.01    +0.086 C  
DOCKED: ATOM     29  N   UNL     1     136.893  81.652 224.464 -0.15 +0.03    -0.298 NA 
DOCKED: ATOM     30  C   UNL     1     142.127  80.866 223.789 -0.64 -0.00    +0.000 A  
DOCKED: BRANCH  29  31
DOCKED: ATOM     31  C   UNL     1     136.944  82.508 225.673 -0.31 -0.00    +0.071 C  
DOCKED: ATOM     32  C   UNL     1     136.041  83.721 225.553 -0.22 -0.00    +0.036 C  
DOCKED: ATOM     33  C   UNL     1     136.381  81.798 226.900 -0.42 -0.02    +0.100 C  
DOCKED: ATOM     34  C   UNL     1     135.623  84.026 226.981 -0.25 -0.00    +0.082 C  
DOCKED: ATOM     35  N   UNL     1     135.824  82.819 227.789 -0.17 +0.05    -0.315 NA 
DOCKED: ATOM     36  H   UNL     1     136.538  83.032 228.526 -0.42 -0.06    +0.122 HD 
DOCKED: ENDBRANCH  29  31
DOCKED: ENDBRANCH   1  18
DOCKED: TORSDOF 4
DOCKED: TER
DOCKED: ENDMDL
________________________________________________________________________________


    FINAL DOCKED STATE:
    ________________________


Run:   16 / 20
Time taken for this run:   0.040s

DOCKED: MODEL        16
DOCKED: USER    Run = 16
DOCKED: USER
DOCKED: USER    Estimated Free Energy of Binding    =  -8.96 kcal/mol  [=(1)+(2)+(3)-(4)]
DOCKED: USER
DOCKED: USER    (1) Final Intermolecular Energy     = -10.16 kcal/mol
DOCKED: USER        vdW + Hbond + desolv Energy     = -10.00 kcal/mol
DOCKED: USER        Electrostatic Energy            =  -0.16 kcal/mol
DOCKED: USER        Moving Ligand-Fixed Receptor    = -10.16 kcal/mol
DOCKED: USER        Moving Ligand-Moving Receptor   =  +0.00 kcal/mol
DOCKED: USER    (2) Final Total Internal Energy     =  -1.29 kcal/mol
DOCKED: USER    (3) Torsional Free Energy           =  +1.19 kcal/mol
DOCKED: USER    (4) Unbound System's Energy         =  -1.29 kcal/mol
DOCKED: USER
DOCKED: USER
DOCKED: REMARK SMILES NC(=O)c1ccc2cc(C(=O)N3C[C@]4(CCN([C@H]5CCNC5)C4)c4ccccc43)[nH]c2c1
DOCKED: REMARK SMILES IDX 10 1 11 2 9 3 4 4 5 5 32 6 6 7 31 8 7 9 30 10 8 11 2 13 1 14
DOCKED: REMARK SMILES IDX 3 17 12 18 13 19 29 20 14 21 28 22 24 23 15 24 23 25 27 26
DOCKED: REMARK SMILES IDX 25 27 16 28 17 29 26 30 18 31 19 32 22 33 20 34 21 35
DOCKED: REMARK H PARENT 30 12 1 15 1 16 21 36
DOCKED: USER                              x       y       z     vdW  Elec       q    Type
DOCKED: USER                           _______ _______ _______ _____ _____    ______ ____
DOCKED: ROOT
DOCKED: ATOM      1  C   UNL     1     139.289  76.388 222.228 -0.22 -0.06    +0.274 C  
DOCKED: ATOM      2  O   UNL     1     138.487  75.533 222.688 -0.24 +0.08    -0.267 OA 
DOCKED: ENDROOT
DOCKED: BRANCH   1   3
DOCKED: ATOM      3  C   UNL     1     140.452  75.939 221.440 -0.29 -0.03    +0.106 A  
DOCKED: ATOM      4  C   UNL     1     144.107  73.961 219.662 -0.34 -0.01    +0.041 A  
DOCKED: ATOM      5  C   UNL     1     144.029  75.088 218.798 -0.08 -0.01    +0.014 A  
DOCKED: ATOM      6  C   UNL     1     143.148  73.814 220.695 -0.28 -0.01    +0.040 A  
DOCKED: ATOM      7  C   UNL     1     143.005  76.041 218.947 -0.32 -0.01    +0.011 A  
DOCKED: ATOM      8  C   UNL     1     142.148  74.778 220.813 -0.29 -0.02    +0.047 A  
DOCKED: ATOM      9  C   UNL     1     142.080  75.851 219.967 -0.29 -0.00    +0.000 A  
DOCKED: ATOM     10  N   UNL     1     141.162  74.822 221.723 -0.14 +0.05    -0.350 N  
DOCKED: ATOM     11  C   UNL     1     141.002  76.616 220.351 -0.22 -0.02    +0.042 A  
DOCKED: ATOM     12  H   UNL     1     140.982  74.132 222.487 +0.06 +0.04    +0.167 HD 
DOCKED: BRANCH   4  13
DOCKED: ATOM     13  C   UNL     1     145.192  72.958 219.521 -0.27 +0.03    +0.248 C  
DOCKED: ATOM     14  N   UNL     1     145.367  71.902 220.470 +0.09 +0.02    -0.366 N  
DOCKED: ATOM     15  H   UNL     1     146.095  71.172 220.305 -0.36 +0.03    +0.159 HD 
DOCKED: ATOM     16  H   UNL     1     144.841  71.876 221.372 -0.42 -0.07    +0.159 HD 
DOCKED: ATOM     17  O   UNL     1     145.992  73.040 218.550 -0.79 -0.21    -0.270 OA 
DOCKED: ENDBRANCH   4  13
DOCKED: ENDBRANCH   1   3
DOCKED: BRANCH   1  18
DOCKED: ATOM     18  N   UNL     1     139.086  77.777 222.526 -0.15 +0.06    -0.306 N  
DOCKED: ATOM     19  C   UNL     1     137.827  78.482 222.302 -0.17 -0.02    +0.139 C  
DOCKED: ATOM     20  C   UNL     1     140.062  78.700 222.979 -0.37 -0.01    +0.048 A  
DOCKED: ATOM     21  C   UNL     1     138.044  79.932 222.861 -0.26 -0.00    +0.029 C  
DOCKED: ATOM     22  C   UNL     1     141.431  78.463 223.159 -0.54 -0.01    +0.026 A  
DOCKED: ATOM     23  C   UNL     1     139.520  79.943 223.176 -0.38 +0.00    -0.015 A  
DOCKED: ATOM     24  C   UNL     1     137.661  81.019 221.854 -0.12 -0.00    +0.030 C  
DOCKED: ATOM     25  C   UNL     1     137.203  80.243 224.121 -0.22 -0.01    +0.098 C  
DOCKED: ATOM     26  C   UNL     1     142.240  79.521 223.600 -0.62 -0.00    +0.002 A  
DOCKED: ATOM     27  C   UNL     1     140.311  81.008 223.625 -0.36 -0.00    +0.006 A  
DOCKED: ATOM     28  C   UNL     1     137.018  82.104 222.694 -0.13 -0.01    +0.086 C  
DOCKED: ATOM     29  N   UNL     1     136.384  81.435 223.836 -0.09 +0.03    -0.298 NA 
DOCKED: ATOM     30  C   UNL     1     141.680  80.788 223.839 -0.58 -0.00    +0.000 A  
DOCKED: BRANCH  29  31
DOCKED: ATOM     31  C   UNL     1     136.262  82.333 225.009 -0.24 -0.01    +0.071 C  
DOCKED: ATOM     32  C   UNL     1     134.956  82.127 225.753 -0.18 -0.00    +0.036 C  
DOCKED: ATOM     33  C   UNL     1     137.303  82.020 226.079 -0.35 -0.01    +0.100 C  
DOCKED: ATOM     34  C   UNL     1     135.282  82.478 227.195 -0.28 -0.01    +0.082 C  
DOCKED: ATOM     35  N   UNL     1     136.733  82.386 227.376 -0.23 +0.07    -0.315 NA 
DOCKED: ATOM     36  H   UNL     1     137.093  83.337 227.632 -0.36 -0.03    +0.122 HD 
DOCKED: ENDBRANCH  29  31
DOCKED: ENDBRANCH   1  18
DOCKED: TORSDOF 4
DOCKED: TER
DOCKED: ENDMDL
________________________________________________________________________________


    FINAL DOCKED STATE:
    ________________________


Run:   17 / 20
Time taken for this run:   0.040s

DOCKED: MODEL        17
DOCKED: USER    Run = 17
DOCKED: USER
DOCKED: USER    Estimated Free Energy of Binding    =  -9.41 kcal/mol  [=(1)+(2)+(3)-(4)]
DOCKED: USER
DOCKED: USER    (1) Final Intermolecular Energy     = -10.60 kcal/mol
DOCKED: USER        vdW + Hbond + desolv Energy     = -10.41 kcal/mol
DOCKED: USER        Electrostatic Energy            =  -0.19 kcal/mol
DOCKED: USER        Moving Ligand-Fixed Receptor    = -10.60 kcal/mol
DOCKED: USER        Moving Ligand-Moving Receptor   =  +0.00 kcal/mol
DOCKED: USER    (2) Final Total Internal Energy     =  -1.18 kcal/mol
DOCKED: USER    (3) Torsional Free Energy           =  +1.19 kcal/mol
DOCKED: USER    (4) Unbound System's Energy         =  -1.18 kcal/mol
DOCKED: USER
DOCKED: USER
DOCKED: REMARK SMILES NC(=O)c1ccc2cc(C(=O)N3C[C@]4(CCN([C@H]5CCNC5)C4)c4ccccc43)[nH]c2c1
DOCKED: REMARK SMILES IDX 10 1 11 2 9 3 4 4 5 5 32 6 6 7 31 8 7 9 30 10 8 11 2 13 1 14
DOCKED: REMARK SMILES IDX 3 17 12 18 13 19 29 20 14 21 28 22 24 23 15 24 23 25 27 26
DOCKED: REMARK SMILES IDX 25 27 16 28 17 29 26 30 18 31 19 32 22 33 20 34 21 35
DOCKED: REMARK H PARENT 30 12 1 15 1 16 21 36
DOCKED: USER                              x       y       z     vdW  Elec       q    Type
DOCKED: USER                           _______ _______ _______ _____ _____    ______ ____
DOCKED: ROOT
DOCKED: ATOM      1  C   UNL     1     139.463  76.606 222.306 -0.22 -0.06    +0.274 C  
DOCKED: ATOM      2  O   UNL     1     138.618  75.788 222.758 -0.27 +0.07    -0.267 OA 
DOCKED: ENDROOT
DOCKED: BRANCH   1   3
DOCKED: ATOM      3  C   UNL     1     140.586  76.111 221.490 -0.30 -0.03    +0.106 A  
DOCKED: ATOM      4  C   UNL     1     144.119  73.992 219.629 -0.34 -0.01    +0.041 A  
DOCKED: ATOM      5  C   UNL     1     144.056  75.115 218.759 -0.04 -0.01    +0.014 A  
DOCKED: ATOM      6  C   UNL     1     143.184  73.887 220.689 -0.28 -0.01    +0.040 A  
DOCKED: ATOM      7  C   UNL     1     143.071  76.105 218.928 -0.33 -0.01    +0.011 A  
DOCKED: ATOM      8  C   UNL     1     142.223  74.886 220.827 -0.28 -0.02    +0.047 A  
DOCKED: ATOM      9  C   UNL     1     142.169  75.954 219.974 -0.30 -0.00    +0.000 A  
DOCKED: ATOM     10  N   UNL     1     141.264  74.971 221.763 -0.12 +0.06    -0.350 N  
DOCKED: ATOM     11  C   UNL     1     141.129  76.761 220.382 -0.23 -0.02    +0.042 A  
DOCKED: ATOM     12  H   UNL     1     141.081  74.294 222.537 +0.08 +0.05    +0.167 HD 
DOCKED: BRANCH   4  13
DOCKED: ATOM     13  C   UNL     1     145.163  72.951 219.467 -0.26 +0.03    +0.248 C  
DOCKED: ATOM     14  N   UNL     1     145.324  71.892 220.416 +0.05 +0.02    -0.366 N  
DOCKED: ATOM     15  H   UNL     1     146.021  71.136 220.236 -0.36 +0.04    +0.159 HD 
DOCKED: ATOM     16  H   UNL     1     144.820  71.888 221.330 -0.41 -0.07    +0.159 HD 
DOCKED: ATOM     17  O   UNL     1     145.942  73.000 218.476 -0.78 -0.21    -0.270 OA 
DOCKED: ENDBRANCH   4  13
DOCKED: ENDBRANCH   1   3
DOCKED: BRANCH   1  18
DOCKED: ATOM     18  N   UNL     1     139.343  77.997 222.641 -0.16 +0.06    -0.306 N  
DOCKED: ATOM     19  C   UNL     1     138.100  78.756 222.540 -0.19 -0.02    +0.139 C  
DOCKED: ATOM     20  C   UNL     1     140.394  78.872 223.017 -0.41 -0.01    +0.048 A  
DOCKED: ATOM     21  C   UNL     1     138.426  80.186 223.098 -0.31 -0.00    +0.029 C  
DOCKED: ATOM     22  C   UNL     1     141.762  78.578 223.070 -0.52 -0.01    +0.026 A  
DOCKED: ATOM     23  C   UNL     1     139.923  80.132 223.279 -0.41 +0.00    -0.015 A  
DOCKED: ATOM     24  C   UNL     1     137.999  81.304 222.144 -0.16 -0.00    +0.030 C  
DOCKED: ATOM     25  C   UNL     1     137.714  80.508 224.433 -0.30 -0.01    +0.098 C  
DOCKED: ATOM     26  C   UNL     1     142.650  79.594 223.451 -0.58 -0.00    +0.002 A  
DOCKED: ATOM     27  C   UNL     1     140.794  81.157 223.669 -0.39 -0.00    +0.006 A  
DOCKED: ATOM     28  C   UNL     1     137.480  82.399 223.053 -0.13 -0.01    +0.086 C  
DOCKED: ATOM     29  N   UNL     1     136.922  81.736 224.239 -0.13 +0.03    -0.298 NA 
DOCKED: ATOM     30  C   UNL     1     142.166  80.879 223.757 -0.64 -0.00    +0.000 A  
DOCKED: BRANCH  29  31
DOCKED: ATOM     31  C   UNL     1     136.942  82.618 225.430 -0.26 -0.00    +0.071 C  
DOCKED: ATOM     32  C   UNL     1     135.864  83.682 225.371 -0.19 -0.00    +0.036 C  
DOCKED: ATOM     33  C   UNL     1     136.589  81.861 226.706 -0.42 -0.02    +0.100 C  
DOCKED: ATOM     34  C   UNL     1     135.521  83.955 226.826 -0.23 -0.00    +0.082 C  
DOCKED: ATOM     35  N   UNL     1     135.961  82.810 227.627 -0.17 +0.05    -0.315 NA 
DOCKED: ATOM     36  H   UNL     1     136.692  83.142 228.301 -0.39 -0.06    +0.122 HD 
DOCKED: ENDBRANCH  29  31
DOCKED: ENDBRANCH   1  18
DOCKED: TORSDOF 4
DOCKED: TER
DOCKED: ENDMDL
________________________________________________________________________________


    FINAL DOCKED STATE:
    ________________________


Run:   18 / 20
Time taken for this run:   0.040s

DOCKED: MODEL        18
DOCKED: USER    Run = 18
DOCKED: USER
DOCKED: USER    Estimated Free Energy of Binding    =  -8.62 kcal/mol  [=(1)+(2)+(3)-(4)]
DOCKED: USER
DOCKED: USER    (1) Final Intermolecular Energy     =  -9.82 kcal/mol
DOCKED: USER        vdW + Hbond + desolv Energy     =  -9.78 kcal/mol
DOCKED: USER        Electrostatic Energy            =  -0.04 kcal/mol
DOCKED: USER        Moving Ligand-Fixed Receptor    =  -9.82 kcal/mol
DOCKED: USER        Moving Ligand-Moving Receptor   =  +0.00 kcal/mol
DOCKED: USER    (2) Final Total Internal Energy     =  -1.18 kcal/mol
DOCKED: USER    (3) Torsional Free Energy           =  +1.19 kcal/mol
DOCKED: USER    (4) Unbound System's Energy         =  -1.18 kcal/mol
DOCKED: USER
DOCKED: USER
DOCKED: REMARK SMILES NC(=O)c1ccc2cc(C(=O)N3C[C@]4(CCN([C@H]5CCNC5)C4)c4ccccc43)[nH]c2c1
DOCKED: REMARK SMILES IDX 10 1 11 2 9 3 4 4 5 5 32 6 6 7 31 8 7 9 30 10 8 11 2 13 1 14
DOCKED: REMARK SMILES IDX 3 17 12 18 13 19 29 20 14 21 28 22 24 23 15 24 23 25 27 26
DOCKED: REMARK SMILES IDX 25 27 16 28 17 29 26 30 18 31 19 32 22 33 20 34 21 35
DOCKED: REMARK H PARENT 30 12 1 15 1 16 21 36
DOCKED: USER                              x       y       z     vdW  Elec       q    Type
DOCKED: USER                           _______ _______ _______ _____ _____    ______ ____
DOCKED: ROOT
DOCKED: ATOM      1  C   UNL     1     139.043  72.370 221.280 -0.09 -0.05    +0.274 C  
DOCKED: ATOM      2  O   UNL     1     138.283  72.002 220.346 -0.02 +0.05    -0.267 OA 
DOCKED: ENDROOT
DOCKED: BRANCH   1   3
DOCKED: ATOM      3  C   UNL     1     139.216  71.501 222.458 -0.21 -0.02    +0.106 A  
DOCKED: ATOM      4  C   UNL     1     140.201  69.517 226.399 -0.50 -0.01    +0.041 A  
DOCKED: ATOM      5  C   UNL     1     139.654  68.392 225.720 -0.52 -0.00    +0.014 A  
DOCKED: ATOM      6  C   UNL     1     140.275  70.761 225.725 -0.53 -0.01    +0.040 A  
DOCKED: ATOM      7  C   UNL     1     139.172  68.509 224.404 -0.34 -0.00    +0.011 A  
DOCKED: ATOM      8  C   UNL     1     139.788  70.839 224.421 -0.40 -0.01    +0.047 A  
DOCKED: ATOM      9  C   UNL     1     139.255  69.751 223.787 -0.29 -0.00    +0.000 A  
DOCKED: ATOM     10  N   UNL     1     139.777  71.915 223.618 -0.17 +0.08    -0.350 N  
DOCKED: ATOM     11  C   UNL     1     138.884  70.147 222.520 -0.18 -0.01    +0.042 A  
DOCKED: ATOM     12  H   UNL     1     140.125  72.873 223.848 -0.20 -0.02    +0.167 HD 
DOCKED: BRANCH   4  13
DOCKED: ATOM     13  C   UNL     1     140.724  69.400 227.782 -0.42 -0.05    +0.248 C  
DOCKED: ATOM     14  N   UNL     1     140.792  68.140 228.457 -0.29 +0.10    -0.366 N  
DOCKED: ATOM     15  H   UNL     1     141.230  68.082 229.402 +0.11 -0.04    +0.159 HD 
DOCKED: ATOM     16  H   UNL     1     140.344  67.281 228.069 -0.36 -0.08    +0.159 HD 
DOCKED: ATOM     17  O   UNL     1     141.109  70.435 228.391 -0.38 +0.05    -0.270 OA 
DOCKED: ENDBRANCH   4  13
DOCKED: ENDBRANCH   1   3
DOCKED: BRANCH   1  18
DOCKED: ATOM     18  N   UNL     1     139.683  73.652 221.202 -0.11 +0.06    -0.306 N  
DOCKED: ATOM     19  C   UNL     1     139.004  74.919 221.461 -0.20 -0.03    +0.139 C  
DOCKED: ATOM     20  C   UNL     1     141.010  73.914 220.776 -0.23 -0.01    +0.048 A  
DOCKED: ATOM     21  C   UNL     1     140.111  76.027 221.355 -0.29 -0.01    +0.029 C  
DOCKED: ATOM     22  C   UNL     1     141.938  72.989 220.282 -0.19 -0.00    +0.026 A  
DOCKED: ATOM     23  C   UNL     1     141.299  75.252 220.837 -0.29 +0.00    -0.015 A  
DOCKED: ATOM     24  C   UNL     1     139.715  77.171 220.419 -0.13 -0.01    +0.030 C  
DOCKED: ATOM     25  C   UNL     1     140.436  76.710 222.703 -0.18 -0.02    +0.098 C  
DOCKED: ATOM     26  C   UNL     1     143.203  73.454 219.893 -0.27 -0.00    +0.002 A  
DOCKED: ATOM     27  C   UNL     1     142.559  75.733 220.461 -0.19 -0.00    +0.006 A  
DOCKED: ATOM     28  C   UNL     1     140.254  78.415 221.093 -0.20 -0.03    +0.086 C  
DOCKED: ATOM     29  N   UNL     1     140.225  78.160 222.539 -0.19 +0.08    -0.298 NA 
DOCKED: ATOM     30  C   UNL     1     143.515  74.822 219.989 -0.39 -0.00    +0.000 A  
DOCKED: BRANCH  29  31
DOCKED: ATOM     31  C   UNL     1     141.235  78.966 223.266 -0.51 -0.02    +0.071 C  
DOCKED: ATOM     32  C   UNL     1     142.493  79.179 222.446 -0.42 -0.02    +0.036 C  
DOCKED: ATOM     33  C   UNL     1     140.757  80.393 223.512 -0.43 -0.02    +0.100 C  
DOCKED: ATOM     34  C   UNL     1     143.031  80.518 222.919 -0.54 -0.02    +0.082 C  
DOCKED: ATOM     35  N   UNL     1     141.937  81.256 223.557 -0.31 +0.05    -0.315 NA 
DOCKED: ATOM     36  H   UNL     1     142.188  81.413 224.562 +0.07 -0.01    +0.122 HD 
DOCKED: ENDBRANCH  29  31
DOCKED: ENDBRANCH   1  18
DOCKED: TORSDOF 4
DOCKED: TER
DOCKED: ENDMDL
________________________________________________________________________________


    FINAL DOCKED STATE:
    ________________________


Run:   19 / 20
Time taken for this run:   0.040s

DOCKED: MODEL        19
DOCKED: USER    Run = 19
DOCKED: USER
DOCKED: USER    Estimated Free Energy of Binding    =  -9.22 kcal/mol  [=(1)+(2)+(3)-(4)]
DOCKED: USER
DOCKED: USER    (1) Final Intermolecular Energy     = -10.41 kcal/mol
DOCKED: USER        vdW + Hbond + desolv Energy     = -10.18 kcal/mol
DOCKED: USER        Electrostatic Energy            =  -0.23 kcal/mol
DOCKED: USER        Moving Ligand-Fixed Receptor    = -10.41 kcal/mol
DOCKED: USER        Moving Ligand-Moving Receptor   =  +0.00 kcal/mol
DOCKED: USER    (2) Final Total Internal Energy     =  -1.16 kcal/mol
DOCKED: USER    (3) Torsional Free Energy           =  +1.19 kcal/mol
DOCKED: USER    (4) Unbound System's Energy         =  -1.16 kcal/mol
DOCKED: USER
DOCKED: USER
DOCKED: REMARK SMILES NC(=O)c1ccc2cc(C(=O)N3C[C@]4(CCN([C@H]5CCNC5)C4)c4ccccc43)[nH]c2c1
DOCKED: REMARK SMILES IDX 10 1 11 2 9 3 4 4 5 5 32 6 6 7 31 8 7 9 30 10 8 11 2 13 1 14
DOCKED: REMARK SMILES IDX 3 17 12 18 13 19 29 20 14 21 28 22 24 23 15 24 23 25 27 26
DOCKED: REMARK SMILES IDX 25 27 16 28 17 29 26 30 18 31 19 32 22 33 20 34 21 35
DOCKED: REMARK H PARENT 30 12 1 15 1 16 21 36
DOCKED: USER                              x       y       z     vdW  Elec       q    Type
DOCKED: USER                           _______ _______ _______ _____ _____    ______ ____
DOCKED: ROOT
DOCKED: ATOM      1  C   UNL     1     140.750  78.542 219.756 -0.09 -0.11    +0.274 C  
DOCKED: ATOM      2  O   UNL     1     140.490  78.892 218.575 -0.04 +0.11    -0.267 OA 
DOCKED: ENDROOT
DOCKED: BRANCH   1   3
DOCKED: ATOM      3  C   UNL     1     141.429  77.255 219.998 -0.21 -0.05    +0.106 A  
DOCKED: ATOM      4  C   UNL     1     144.215  73.718 220.395 -0.42 -0.01    +0.041 A  
DOCKED: ATOM      5  C   UNL     1     142.993  73.069 220.724 -0.28 -0.00    +0.014 A  
DOCKED: ATOM      6  C   UNL     1     144.200  75.098 220.072 -0.38 -0.02    +0.040 A  
DOCKED: ATOM      7  C   UNL     1     141.782  73.784 220.752 -0.27 -0.00    +0.011 A  
DOCKED: ATOM      8  C   UNL     1     142.982  75.774 220.109 -0.29 -0.03    +0.047 A  
DOCKED: ATOM      9  C   UNL     1     141.816  75.138 220.439 -0.28 -0.00    +0.000 A  
DOCKED: ATOM     10  N   UNL     1     142.759  77.068 219.831 -0.15 +0.26    -0.350 N  
DOCKED: ATOM     11  C   UNL     1     140.801  76.066 220.370 -0.20 -0.01    +0.042 A  
DOCKED: ATOM     12  H   UNL     1     143.469  77.780 219.548 -0.45 -0.18    +0.167 HD 
DOCKED: BRANCH   4  13
DOCKED: ATOM     13  C   UNL     1     145.495  72.969 220.350 -0.39 +0.00    +0.248 C  
DOCKED: ATOM     14  N   UNL     1     146.222  72.649 221.540 -0.13 +0.08    -0.366 N  
DOCKED: ATOM     15  H   UNL     1     147.081  72.061 221.481 -0.36 -0.00    +0.159 HD 
DOCKED: ATOM     16  H   UNL     1     145.965  73.052 222.469 +0.01 -0.05    +0.159 HD 
DOCKED: ATOM     17  O   UNL     1     145.968  72.612 219.237 -0.77 -0.21    -0.270 OA 
DOCKED: ENDBRANCH   4  13
DOCKED: ENDBRANCH   1   3
DOCKED: BRANCH   1  18
DOCKED: ATOM     18  N   UNL     1     140.331  79.377 220.846 -0.05 +0.10    -0.306 N  
DOCKED: ATOM     19  C   UNL     1     138.978  79.906 220.994 -0.09 -0.03    +0.139 C  
DOCKED: ATOM     20  C   UNL     1     141.150  79.900 221.878 -0.36 -0.02    +0.048 A  
DOCKED: ATOM     21  C   UNL     1     138.965  80.669 222.365 -0.24 -0.00    +0.029 C  
DOCKED: ATOM     22  C   UNL     1     142.539  79.767 222.005 -0.42 -0.01    +0.026 A  
DOCKED: ATOM     23  C   UNL     1     140.421  80.649 222.763 -0.39 +0.00    -0.015 A  
DOCKED: ATOM     24  C   UNL     1     138.418  82.093 222.244 -0.18 -0.00    +0.030 C  
DOCKED: ATOM     25  C   UNL     1     138.083  79.995 223.441 -0.28 -0.01    +0.098 C  
DOCKED: ATOM     26  C   UNL     1     143.172  80.380 223.097 -0.64 -0.00    +0.002 A  
DOCKED: ATOM     27  C   UNL     1     141.034  81.261 223.863 -0.38 -0.00    +0.006 A  
DOCKED: ATOM     28  C   UNL     1     137.612  82.298 223.510 -0.04 -0.01    +0.086 C  
DOCKED: ATOM     29  N   UNL     1     137.088  80.982 223.896 -0.14 +0.03    -0.298 NA 
DOCKED: ATOM     30  C   UNL     1     142.420  81.119 224.028 -0.63 -0.00    +0.000 A  
DOCKED: BRANCH  29  31
DOCKED: ATOM     31  C   UNL     1     136.825  80.894 225.352 -0.28 -0.01    +0.071 C  
DOCKED: ATOM     32  C   UNL     1     137.304  82.126 226.095 -0.37 -0.00    +0.036 C  
DOCKED: ATOM     33  C   UNL     1     135.332  80.881 225.663 -0.17 -0.02    +0.100 C  
DOCKED: ATOM     34  C   UNL     1     136.364  82.242 227.283 -0.42 -0.02    +0.082 C  
DOCKED: ATOM     35  N   UNL     1     135.147  81.481 226.984 -0.13 +0.07    -0.315 NA 
DOCKED: ATOM     36  H   UNL     1     135.064  80.706 227.685 -0.26 -0.06    +0.122 HD 
DOCKED: ENDBRANCH  29  31
DOCKED: ENDBRANCH   1  18
DOCKED: TORSDOF 4
DOCKED: TER
DOCKED: ENDMDL
________________________________________________________________________________


    FINAL DOCKED STATE:
    ________________________


Run:   20 / 20
Time taken for this run:   0.040s

DOCKED: MODEL        20
DOCKED: USER    Run = 20
DOCKED: USER
DOCKED: USER    Estimated Free Energy of Binding    =  -8.86 kcal/mol  [=(1)+(2)+(3)-(4)]
DOCKED: USER
DOCKED: USER    (1) Final Intermolecular Energy     = -10.05 kcal/mol
DOCKED: USER        vdW + Hbond + desolv Energy     = -10.02 kcal/mol
DOCKED: USER        Electrostatic Energy            =  -0.03 kcal/mol
DOCKED: USER        Moving Ligand-Fixed Receptor    = -10.05 kcal/mol
DOCKED: USER        Moving Ligand-Moving Receptor   =  +0.00 kcal/mol
DOCKED: USER    (2) Final Total Internal Energy     =  -1.15 kcal/mol
DOCKED: USER    (3) Torsional Free Energy           =  +1.19 kcal/mol
DOCKED: USER    (4) Unbound System's Energy         =  -1.15 kcal/mol
DOCKED: USER
DOCKED: USER
DOCKED: REMARK SMILES NC(=O)c1ccc2cc(C(=O)N3C[C@]4(CCN([C@H]5CCNC5)C4)c4ccccc43)[nH]c2c1
DOCKED: REMARK SMILES IDX 10 1 11 2 9 3 4 4 5 5 32 6 6 7 31 8 7 9 30 10 8 11 2 13 1 14
DOCKED: REMARK SMILES IDX 3 17 12 18 13 19 29 20 14 21 28 22 24 23 15 24 23 25 27 26
DOCKED: REMARK SMILES IDX 25 27 16 28 17 29 26 30 18 31 19 32 22 33 20 34 21 35
DOCKED: REMARK H PARENT 30 12 1 15 1 16 21 36
DOCKED: USER                              x       y       z     vdW  Elec       q    Type
DOCKED: USER                           _______ _______ _______ _____ _____    ______ ____
DOCKED: ROOT
DOCKED: ATOM      1  C   UNL     1     138.951  72.328 221.549 -0.10 -0.06    +0.274 C  
DOCKED: ATOM      2  O   UNL     1     137.966  72.093 220.799 -0.03 +0.05    -0.267 OA 
DOCKED: ENDROOT
DOCKED: BRANCH   1   3
DOCKED: ATOM      3  C   UNL     1     139.181  71.477 222.730 -0.23 -0.02    +0.106 A  
DOCKED: ATOM      4  C   UNL     1     140.383  69.541 226.634 -0.52 -0.01    +0.041 A  
DOCKED: ATOM      5  C   UNL     1     139.756  68.421 226.021 -0.55 -0.00    +0.014 A  
DOCKED: ATOM      6  C   UNL     1     140.447  70.769 225.930 -0.55 -0.01    +0.040 A  
DOCKED: ATOM      7  C   UNL     1     139.185  68.527 224.740 -0.39 -0.00    +0.011 A  
DOCKED: ATOM      8  C   UNL     1     139.871  70.836 224.662 -0.42 -0.01    +0.047 A  
DOCKED: ATOM      9  C   UNL     1     139.261  69.753 224.091 -0.32 -0.00    +0.000 A  
DOCKED: ATOM     10  N   UNL     1     139.835  71.896 223.839 -0.17 +0.08    -0.350 N  
DOCKED: ATOM     11  C   UNL     1     138.814  70.136 222.846 -0.20 -0.01    +0.042 A  
DOCKED: ATOM     12  H   UNL     1     140.228  72.847 224.022 -0.15 -0.02    +0.167 HD 
DOCKED: BRANCH   4  13
DOCKED: ATOM     13  C   UNL     1     141.000  69.435 227.980 -0.39 -0.05    +0.248 C  
DOCKED: ATOM     14  N   UNL     1     141.140  68.177 228.646 -0.28 +0.10    -0.366 N  
DOCKED: ATOM     15  H   UNL     1     141.641  68.127 229.560 +0.10 -0.04    +0.159 HD 
DOCKED: ATOM     16  H   UNL     1     140.686  67.308 228.287 -0.30 -0.08    +0.159 HD 
DOCKED: ATOM     17  O   UNL     1     141.403  70.478 228.563 -0.32 +0.05    -0.270 OA 
DOCKED: ENDBRANCH   4  13
DOCKED: ENDBRANCH   1   3
DOCKED: BRANCH   1  18
DOCKED: ATOM     18  N   UNL     1     139.797  73.452 221.266 -0.11 +0.05    -0.306 N  
DOCKED: ATOM     19  C   UNL     1     139.305  74.812 221.065 -0.17 -0.03    +0.139 C  
DOCKED: ATOM     20  C   UNL     1     141.197  73.425 221.039 -0.24 -0.01    +0.048 A  
DOCKED: ATOM     21  C   UNL     1     140.582  75.707 220.886 -0.26 -0.01    +0.029 C  
DOCKED: ATOM     22  C   UNL     1     142.022  72.296 220.976 -0.23 -0.00    +0.026 A  
DOCKED: ATOM     23  C   UNL     1     141.689  74.683 220.810 -0.29 +0.00    -0.015 A  
DOCKED: ATOM     24  C   UNL     1     140.520  76.584 219.633 -0.12 -0.01    +0.030 C  
DOCKED: ATOM     25  C   UNL     1     140.816  76.695 222.052 -0.34 -0.03    +0.098 C  
DOCKED: ATOM     26  C   UNL     1     143.389  72.480 220.721 -0.31 -0.00    +0.002 A  
DOCKED: ATOM     27  C   UNL     1     143.053  74.887 220.563 -0.28 -0.00    +0.006 A  
DOCKED: ATOM     28  C   UNL     1     141.152  77.893 220.056 -0.21 -0.04    +0.086 C  
DOCKED: ATOM     29  N   UNL     1     140.872  78.056 221.488 -0.14 +0.12    -0.298 NA 
DOCKED: ATOM     30  C   UNL     1     143.904  73.773 220.522 -0.41 -0.00    +0.000 A  
DOCKED: BRANCH  29  31
DOCKED: ATOM     31  C   UNL     1     141.884  78.906 222.160 -0.42 -0.04    +0.071 C  
DOCKED: ATOM     32  C   UNL     1     141.673  80.380 221.870 -0.44 -0.01    +0.036 C  
DOCKED: ATOM     33  C   UNL     1     141.762  78.848 223.679 -0.53 -0.03    +0.100 C  
DOCKED: ATOM     34  C   UNL     1     142.203  81.088 223.106 -0.53 -0.02    +0.082 C  
DOCKED: ATOM     35  N   UNL     1     142.230  80.127 224.213 -0.25 +0.06    -0.315 NA 
DOCKED: ATOM     36  H   UNL     1     143.225  80.007 224.519 +0.10 -0.02    +0.122 HD 
DOCKED: ENDBRANCH  29  31
DOCKED: ENDBRANCH   1  18
DOCKED: TORSDOF 4
DOCKED: TER
DOCKED: ENDMDL
________________________________________________________________________________


    CLUSTERING HISTOGRAM
    ____________________


________________________________________________________________________________
     |           |     |           |     |
Clus | Lowest    | Run | Mean      | Num | Histogram
-ter | Binding   |     | Binding   | in  |
Rank | Energy    |     | Energy    | Clus|    5    10   15   20   25   30   35
_____|___________|_____|___________|_____|____:____|____:____|____:____|____:___
   1 |     -9.53 |   3 |     -9.37 |  14 |##############
   2 |     -8.87 |  11 |     -8.63 |   6 |######
_____|___________|_____|___________|_____|______________________________________


    RMSD TABLE
    __________


_______________________________________________________________________
     |      |      |           |         |                 |
Rank | Sub- | Run  | Binding   | Cluster | Reference       | Grep
     | Rank |      | Energy    | RMSD    | RMSD            | Pattern
_____|______|______|___________|_________|_________________|___________
   1      1      3       -9.53      0.00    270.47           RANKING
   1      2     12       -9.53      0.04    270.49           RANKING
   1      3      1       -9.52      0.09    270.48           RANKING
   1      4      9       -9.50      0.21    270.38           RANKING
   1      5     13       -9.50      0.21    270.40           RANKING
   1      6     15       -9.49      0.18    270.40           RANKING
   1      7      7       -9.49      0.20    270.40           RANKING
   1      8      4       -9.43      0.17    270.37           RANKING
   1      9     17       -9.41      0.26    270.35           RANKING
   1     10     19       -9.22      1.91    270.33           RANKING
   1     11      8       -9.21      1.92    270.31           RANKING
   1     12     14       -9.18      0.33    270.34           RANKING
   1     13      5       -9.16      1.91    270.19           RANKING
   1     14     16       -8.96      0.65    270.13           RANKING
   2      1     11       -8.87      0.00    269.89           RANKING
   2      2     20       -8.86      0.11    269.85           RANKING
   2      3     18       -8.62      0.76    269.76           RANKING
   2      4      6       -8.61      1.17    269.80           RANKING
   2      5     10       -8.42      1.79    269.44           RANKING
   2      6      2       -8.40      1.65    269.49           RANKING

Run time 0.771 sec
Idle time 0.000 sec
