AutoDock-GPU version: v1.6

**********************************************************
**    AutoDock-GPU AUTODOCKTOOLS-COMPATIBLE DLG FILE    **
**********************************************************


    DOCKING PARAMETERS
    ________________________


Ligand file:                               /home/a/REINVENT4/ReinventStudies/scoringData/graph-dock/graph-DockGPU/node-autodockgpu/inputs/BKKYOBILRJMROL-RIGVRECCNA-O.pdbqt
Grid fld file:                             /home/a/REINVENT4/ReinventStudies/mols/Rad51/maps/rad51_receptor.maps.fld

Random seed:                               42
Number of runs:                            20
Number of energy evaluations:              1132076
Number of generations:                     42000
Size of population:                        150
Rate of crossover:                         80.000000%
Tournament selection probability limit:    60.000000%
Rate of mutation:                          2.000000%
Maximal allowed delta movement:            +/- 6.000000A
Maximal allowed delta angle:               +/- 90.000000

Rate of local search:                      100.000000%
Maximal number of local search iterations: 300
Rho lower bound:                           0.010000
Spread of local search delta movement:     2.000000A
Spread of local search delta angle:        74.999999
Limit of consecutive successes/failures:   4

Handle symmetry during clustering:         YES
RMSD tolerance:                            2.000000A

Program call in command line was:          /home/a/REINVENT4/ReinventStudies/adgpu-v1.6_linux_x64_cuda12_128wi --filelist batch.txt --heuristics 1 --nrun 20 --psize 150 --lsit 300 --seed 42 --heurmax 12000000 


    GRID PARAMETERS
    ________________________


Receptor name:                             rad51_receptor
Number of grid points (x, y, z):           53, 53, 53
Grid center (x, y, z):                     139.950000, 75.640000, 221.970000A
Grid size (x, y, z):                       19.500000, 19.500000, 19.500000A
Grid spacing:                              0.375000A


    LIGAND PARAMETERS
    ________________________


Ligand name:                               /home/a/REINVENT4/ReinventStudies/scoringData/graph-dock/graph-DockGPU/node-autodockgpu/inputs/BKKYOBILRJMROL-RIGVRECCNA-O
Number of atoms:                           36
Number of rotatable bonds:                 5
Number of atom types:                      6


    DUMMY DATA (only for ADT-compatibility)
    ________________________


DPF> outlev 1
DPF> ga_run 20
DPF> fld /home/a/REINVENT4/ReinventStudies/mols/Rad51/maps/rad51_receptor.maps.fld
DPF> move /home/a/REINVENT4/ReinventStudies/scoringData/graph-dock/graph-DockGPU/node-autodockgpu/inputs/BKKYOBILRJMROL-RIGVRECCNA-O.pdbqt


    COUNTER STATES
    ________________________


Number of energy evaluations performed:    371879
Number of generations used:                30


    INPUT LIGAND PDBQT FILE:
    ________________________


INPUT-LIGAND-PDBQT: REMARK SMILES [N-]=C(O)c1ccc2cc(C(=O)N3C[C@]4(CCN([C@@H]5CC[NH2+]C5)C4)c4ccccc43)[nH]c2c1
INPUT-LIGAND-PDBQT: REMARK SMILES IDX 4 1 5 2 6 3 7 4 8 5 9 6 30 7 31 8 32 9 2 11 1 12 3 13 10 15
INPUT-LIGAND-PDBQT: REMARK SMILES IDX 11 16 12 17 13 18 29 19 14 20 28 21 24 22 15 23 23 24 27 25
INPUT-LIGAND-PDBQT: REMARK SMILES IDX 25 26 16 27 17 28 26 29 18 30 19 31 22 32 20 33 21 34
INPUT-LIGAND-PDBQT: REMARK H PARENT 30 10 3 14 21 35 21 36
INPUT-LIGAND-PDBQT: ROOT
INPUT-LIGAND-PDBQT: ATOM      1  C   UNL     1       6.296   1.229  -2.389  1.00  0.00    -0.006 A 
INPUT-LIGAND-PDBQT: ATOM      2  C   UNL     1       6.123   1.999  -1.205  1.00  0.00     0.010 A 
INPUT-LIGAND-PDBQT: ATOM      3  C   UNL     1       5.125   1.670  -0.270  1.00  0.00     0.011 A 
INPUT-LIGAND-PDBQT: ATOM      4  C   UNL     1       4.313   0.574  -0.544  1.00  0.00     0.000 A 
INPUT-LIGAND-PDBQT: ATOM      5  C   UNL     1       3.280   0.023   0.181  1.00  0.00     0.042 A 
INPUT-LIGAND-PDBQT: ATOM      6  C   UNL     1       2.845  -1.061  -0.580  1.00  0.00     0.106 A 
INPUT-LIGAND-PDBQT: ATOM      7  N   UNL     1       3.585  -1.185  -1.708  1.00  0.00    -0.350 N 
INPUT-LIGAND-PDBQT: ATOM      8  C   UNL     1       4.470  -0.176  -1.676  1.00  0.00     0.047 A 
INPUT-LIGAND-PDBQT: ATOM      9  C   UNL     1       5.451   0.118  -2.622  1.00  0.00     0.036 A 
INPUT-LIGAND-PDBQT: ATOM     10  H   UNL     1       3.487  -1.911  -2.453  1.00  0.00     0.167 HD
INPUT-LIGAND-PDBQT: ENDROOT
INPUT-LIGAND-PDBQT: BRANCH   1  11
INPUT-LIGAND-PDBQT: ATOM     11  C   UNL     1       7.348   1.574  -3.373  1.00  0.00    -0.000 C 
INPUT-LIGAND-PDBQT: ATOM     12  N   UNL     1       8.127   2.588  -3.177  1.00  0.00    -0.771 NA
INPUT-LIGAND-PDBQT: BRANCH  11  13
INPUT-LIGAND-PDBQT: ATOM     13  O   UNL     1       7.507   0.805  -4.524  1.00  0.00    -0.532 OA
INPUT-LIGAND-PDBQT: ATOM     14  H   UNL     1       8.215   1.031  -5.213  1.00  0.00     0.290 HD
INPUT-LIGAND-PDBQT: ENDBRANCH  11  13
INPUT-LIGAND-PDBQT: ENDBRANCH   1  11
INPUT-LIGAND-PDBQT: BRANCH   6  15
INPUT-LIGAND-PDBQT: ATOM     15  C   UNL     1       1.768  -1.998  -0.211  1.00  0.00     0.274 C 
INPUT-LIGAND-PDBQT: ATOM     16  O   UNL     1       1.762  -3.149  -0.726  1.00  0.00    -0.267 OA
INPUT-LIGAND-PDBQT: BRANCH  15  17
INPUT-LIGAND-PDBQT: ATOM     17  N   UNL     1       0.714  -1.613   0.688  1.00  0.00    -0.306 N 
INPUT-LIGAND-PDBQT: ATOM     18  C   UNL     1       0.037  -0.314   0.637  1.00  0.00     0.139 C 
INPUT-LIGAND-PDBQT: ATOM     19  C   UNL     1      -0.102  -2.515   1.421  1.00  0.00     0.048 A 
INPUT-LIGAND-PDBQT: ATOM     20  C   UNL     1      -1.380  -0.534   1.274  1.00  0.00     0.029 C 
INPUT-LIGAND-PDBQT: ATOM     21  C   UNL     1       0.222  -3.824   1.797  1.00  0.00     0.026 A 
INPUT-LIGAND-PDBQT: ATOM     22  C   UNL     1      -1.288  -1.940   1.796  1.00  0.00    -0.015 A 
INPUT-LIGAND-PDBQT: ATOM     23  C   UNL     1      -1.718   0.486   2.371  1.00  0.00     0.030 C 
INPUT-LIGAND-PDBQT: ATOM     24  C   UNL     1      -2.519  -0.390   0.244  1.00  0.00     0.098 C 
INPUT-LIGAND-PDBQT: ATOM     25  C   UNL     1      -0.711  -4.557   2.548  1.00  0.00     0.002 A 
INPUT-LIGAND-PDBQT: ATOM     26  C   UNL     1      -2.233  -2.655   2.541  1.00  0.00     0.006 A 
INPUT-LIGAND-PDBQT: ATOM     27  C   UNL     1      -3.059   1.072   1.955  1.00  0.00     0.086 C 
INPUT-LIGAND-PDBQT: ATOM     28  N   UNL     1      -3.202   0.890   0.500  1.00  0.00    -0.294 NA
INPUT-LIGAND-PDBQT: ATOM     29  C   UNL     1      -1.937  -3.974   2.917  1.00  0.00     0.000 A 
INPUT-LIGAND-PDBQT: BRANCH  28  30
INPUT-LIGAND-PDBQT: ATOM     30  C   UNL     1      -2.595   2.017  -0.262  1.00  0.00     0.117 C 
INPUT-LIGAND-PDBQT: ATOM     31  C   UNL     1      -3.334   3.330  -0.019  1.00  0.00     0.086 C 
INPUT-LIGAND-PDBQT: ATOM     32  C   UNL     1      -2.728   1.837  -1.774  1.00  0.00     0.280 C 
INPUT-LIGAND-PDBQT: ATOM     33  C   UNL     1      -3.288   4.084  -1.341  1.00  0.00     0.262 C 
INPUT-LIGAND-PDBQT: ATOM     34  N   UNL     1      -2.787   3.170  -2.371  1.00  0.00    -0.345 N 
INPUT-LIGAND-PDBQT: ATOM     35  H   UNL     1      -3.420   3.168  -3.205  1.00  0.00     0.346 HD
INPUT-LIGAND-PDBQT: ATOM     36  H   UNL     1      -1.827   3.464  -2.667  1.00  0.00     0.346 HD
INPUT-LIGAND-PDBQT: ENDBRANCH  28  30
INPUT-LIGAND-PDBQT: ENDBRANCH  15  17
INPUT-LIGAND-PDBQT: ENDBRANCH   6  15
INPUT-LIGAND-PDBQT: TORSDOF 5


    FINAL DOCKED STATE:
    ________________________


Run:   1 / 20
Time taken for this run:   0.023s

DOCKED: MODEL        1
DOCKED: USER    Run = 1
DOCKED: USER
DOCKED: USER    Estimated Free Energy of Binding    =  -7.97 kcal/mol  [=(1)+(2)+(3)-(4)]
DOCKED: USER
DOCKED: USER    (1) Final Intermolecular Energy     =  -9.46 kcal/mol
DOCKED: USER        vdW + Hbond + desolv Energy     =  -8.43 kcal/mol
DOCKED: USER        Electrostatic Energy            =  -1.03 kcal/mol
DOCKED: USER        Moving Ligand-Fixed Receptor    =  -9.46 kcal/mol
DOCKED: USER        Moving Ligand-Moving Receptor   =  +0.00 kcal/mol
DOCKED: USER    (2) Final Total Internal Energy     =  -0.99 kcal/mol
DOCKED: USER    (3) Torsional Free Energy           =  +1.49 kcal/mol
DOCKED: USER    (4) Unbound System's Energy         =  -0.99 kcal/mol
DOCKED: USER
DOCKED: USER
DOCKED: REMARK SMILES [N-]=C(O)c1ccc2cc(C(=O)N3C[C@]4(CCN([C@@H]5CC[NH2+]C5)C4)c4ccccc43)[nH]c2c1
DOCKED: REMARK SMILES IDX 4 1 5 2 6 3 7 4 8 5 9 6 30 7 31 8 32 9 2 11 1 12 3 13 10 15
DOCKED: REMARK SMILES IDX 11 16 12 17 13 18 29 19 14 20 28 21 24 22 15 23 23 24 27 25
DOCKED: REMARK SMILES IDX 25 26 16 27 17 28 26 29 18 30 19 31 22 32 20 33 21 34
DOCKED: REMARK H PARENT 30 10 3 14 21 35 21 36
DOCKED: USER                              x       y       z     vdW  Elec       q    Type
DOCKED: USER                           _______ _______ _______ _____ _____    ______ ____
DOCKED: ROOT
DOCKED: ATOM      1  C   UNL     1     143.997  73.590 219.553 -0.31 +0.00    -0.006 A  
DOCKED: ATOM      2  C   UNL     1     144.076  74.700 218.667 -0.17 -0.00    +0.010 A  
DOCKED: ATOM      3  C   UNL     1     143.235  75.816 218.831 -0.32 -0.01    +0.011 A  
DOCKED: ATOM      4  C   UNL     1     142.324  75.794 219.883 -0.30 -0.00    +0.000 A  
DOCKED: ATOM      5  C   UNL     1     141.400  76.733 220.284 -0.25 -0.02    +0.042 A  
DOCKED: ATOM      6  C   UNL     1     140.777  76.170 221.397 -0.29 -0.03    +0.106 A  
DOCKED: ATOM      7  N   UNL     1     141.304  74.955 221.681 -0.13 +0.07    -0.350 N  
DOCKED: ATOM      8  C   UNL     1     142.240  74.736 220.743 -0.28 -0.02    +0.047 A  
DOCKED: ATOM      9  C   UNL     1     143.060  73.616 220.613 -0.29 -0.01    +0.036 A  
DOCKED: ATOM     10  H   UNL     1     141.037  74.315 222.463 +0.06 +0.04    +0.167 HD 
DOCKED: ENDROOT
DOCKED: BRANCH   1  11
DOCKED: ATOM     11  C   UNL     1     144.883  72.416 219.382 -0.33 -0.00    -0.000 C  
DOCKED: ATOM     12  N   UNL     1     145.903  72.470 218.588 -0.41 -0.79    -0.771 NA 
DOCKED: BRANCH  11  13
DOCKED: ATOM     13  O   UNL     1     144.623  71.237 220.077 -0.03 +0.00    -0.532 OA 
DOCKED: ATOM     14  H   UNL     1     144.812  71.160 221.070 -0.23 -0.16    +0.290 HD 
DOCKED: ENDBRANCH  11  13
DOCKED: ENDBRANCH   1  11
DOCKED: BRANCH   6  15
DOCKED: ATOM     15  C   UNL     1     139.725  76.807 222.212 -0.23 -0.06    +0.274 C  
DOCKED: ATOM     16  O   UNL     1     138.873  76.074 222.783 -0.28 +0.06    -0.267 OA 
DOCKED: BRANCH  15  17
DOCKED: ATOM     17  N   UNL     1     139.633  78.236 222.333 -0.14 +0.07    -0.306 N  
DOCKED: ATOM     18  C   UNL     1     138.365  78.961 222.461 -0.20 -0.02    +0.139 C  
DOCKED: ATOM     19  C   UNL     1     140.681  79.086 222.778 -0.41 -0.01    +0.048 A  
DOCKED: ATOM     20  C   UNL     1     138.702  80.306 223.195 -0.33 -0.00    +0.029 C  
DOCKED: ATOM     21  C   UNL     1     142.055  78.824 222.721 -0.45 -0.01    +0.026 A  
DOCKED: ATOM     22  C   UNL     1     140.203  80.279 223.252 -0.42 +0.00    -0.015 A  
DOCKED: ATOM     23  C   UNL     1     138.156  81.546 222.473 -0.20 -0.00    +0.030 C  
DOCKED: ATOM     24  C   UNL     1     138.087  80.376 224.608 -0.23 -0.01    +0.098 C  
DOCKED: ATOM     25  C   UNL     1     142.945  79.804 223.189 -0.62 -0.00    +0.002 A  
DOCKED: ATOM     26  C   UNL     1     141.073  81.268 223.727 -0.43 -0.00    +0.006 A  
DOCKED: ATOM     27  C   UNL     1     137.354  82.289 223.530 -0.14 -0.01    +0.086 C  
DOCKED: ATOM     28  N   UNL     1     136.954  81.316 224.562 -0.17 +0.03    -0.294 NA 
DOCKED: ATOM     29  C   UNL     1     142.454  81.023 223.693 -0.65 -0.00    +0.000 A  
DOCKED: BRANCH  28  30
DOCKED: ATOM     30  C   UNL     1     135.671  80.640 224.219 -0.16 -0.01    +0.117 C  
DOCKED: ATOM     31  C   UNL     1     134.896  81.402 223.148 -0.06 -0.01    +0.086 C  
DOCKED: ATOM     32  C   UNL     1     134.689  80.623 225.390 -0.09 -0.04    +0.280 C  
DOCKED: ATOM     33  C   UNL     1     133.424  81.228 223.497 -0.02 -0.03    +0.262 C  
DOCKED: ATOM     34  N   UNL     1     133.339  80.626 224.830 -0.02 +0.04    -0.345 N  
DOCKED: ATOM     35  H   UNL     1     132.691  81.174 225.444 +0.04 -0.03    +0.346 HD 
DOCKED: ATOM     36  H   UNL     1     132.990  79.642 224.752 +0.05 -0.04    +0.346 HD 
DOCKED: ENDBRANCH  28  30
DOCKED: ENDBRANCH  15  17
DOCKED: ENDBRANCH   6  15
DOCKED: TORSDOF 5
DOCKED: TER
DOCKED: ENDMDL
________________________________________________________________________________


    FINAL DOCKED STATE:
    ________________________


Run:   2 / 20
Time taken for this run:   0.023s

DOCKED: MODEL        2
DOCKED: USER    Run = 2
DOCKED: USER
DOCKED: USER    Estimated Free Energy of Binding    =  -8.30 kcal/mol  [=(1)+(2)+(3)-(4)]
DOCKED: USER
DOCKED: USER    (1) Final Intermolecular Energy     =  -9.79 kcal/mol
DOCKED: USER        vdW + Hbond + desolv Energy     =  -7.33 kcal/mol
DOCKED: USER        Electrostatic Energy            =  -2.47 kcal/mol
DOCKED: USER        Moving Ligand-Fixed Receptor    =  -9.79 kcal/mol
DOCKED: USER        Moving Ligand-Moving Receptor   =  +0.00 kcal/mol
DOCKED: USER    (2) Final Total Internal Energy     =  -0.83 kcal/mol
DOCKED: USER    (3) Torsional Free Energy           =  +1.49 kcal/mol
DOCKED: USER    (4) Unbound System's Energy         =  -0.83 kcal/mol
DOCKED: USER
DOCKED: USER
DOCKED: REMARK SMILES [N-]=C(O)c1ccc2cc(C(=O)N3C[C@]4(CCN([C@@H]5CC[NH2+]C5)C4)c4ccccc43)[nH]c2c1
DOCKED: REMARK SMILES IDX 4 1 5 2 6 3 7 4 8 5 9 6 30 7 31 8 32 9 2 11 1 12 3 13 10 15
DOCKED: REMARK SMILES IDX 11 16 12 17 13 18 29 19 14 20 28 21 24 22 15 23 23 24 27 25
DOCKED: REMARK SMILES IDX 25 26 16 27 17 28 26 29 18 30 19 31 22 32 20 33 21 34
DOCKED: REMARK H PARENT 30 10 3 14 21 35 21 36
DOCKED: USER                              x       y       z     vdW  Elec       q    Type
DOCKED: USER                           _______ _______ _______ _____ _____    ______ ____
DOCKED: ROOT
DOCKED: ATOM      1  C   UNL     1     144.144  73.475 219.304 -0.28 +0.00    -0.006 A  
DOCKED: ATOM      2  C   UNL     1     144.152  74.415 218.236 -0.14 -0.00    +0.010 A  
DOCKED: ATOM      3  C   UNL     1     143.385  75.592 218.305 -0.25 -0.01    +0.011 A  
DOCKED: ATOM      4  C   UNL     1     142.618  75.802 219.446 -0.31 -0.00    +0.000 A  
DOCKED: ATOM      5  C   UNL     1     141.792  76.850 219.788 -0.25 -0.02    +0.042 A  
DOCKED: ATOM      6  C   UNL     1     141.296  76.520 221.048 -0.25 -0.05    +0.106 A  
DOCKED: ATOM      7  N   UNL     1     141.805  75.339 221.472 -0.06 +0.13    -0.350 N  
DOCKED: ATOM      8  C   UNL     1     142.603  74.909 220.481 -0.30 -0.02    +0.047 A  
DOCKED: ATOM      9  C   UNL     1     143.353  73.735 220.449 -0.33 -0.01    +0.036 A  
DOCKED: ATOM     10  H   UNL     1     141.616  74.856 222.379 -0.01 -0.00    +0.167 HD 
DOCKED: ENDROOT
DOCKED: BRANCH   1  11
DOCKED: ATOM     11  C   UNL     1     144.952  72.236 219.233 -0.31 -0.00    -0.000 C  
DOCKED: ATOM     12  N   UNL     1     145.944  72.143 218.408 -0.29 -0.93    -0.771 NA 
DOCKED: BRANCH  11  13
DOCKED: ATOM     13  O   UNL     1     144.648  71.155 220.058 -0.02 -0.01    -0.532 OA 
DOCKED: ATOM     14  H   UNL     1     144.877  71.167 221.045 -0.20 -0.16    +0.290 HD 
DOCKED: ENDBRANCH  11  13
DOCKED: ENDBRANCH   1  11
DOCKED: BRANCH   6  15
DOCKED: ATOM     15  C   UNL     1     140.385  77.347 221.861 -0.23 -0.09    +0.274 C  
DOCKED: ATOM     16  O   UNL     1     139.541  76.772 222.601 -0.26 +0.05    -0.267 OA 
DOCKED: BRANCH  15  17
DOCKED: ATOM     17  N   UNL     1     140.416  78.783 221.795 -0.11 +0.09    -0.306 N  
DOCKED: ATOM     18  C   UNL     1     140.947  79.533 220.654 -0.21 -0.05    +0.139 C  
DOCKED: ATOM     19  C   UNL     1     139.588  79.651 222.556 -0.29 -0.01    +0.048 A  
DOCKED: ATOM     20  C   UNL     1     140.232  80.929 220.676 -0.20 -0.01    +0.029 C  
DOCKED: ATOM     21  C   UNL     1     138.976  79.367 223.782 -0.33 -0.00    +0.026 A  
DOCKED: ATOM     22  C   UNL     1     139.475  80.887 221.974 -0.23 +0.00    -0.015 A  
DOCKED: ATOM     23  C   UNL     1     141.207  82.113 220.596 -0.30 -0.01    +0.030 C  
DOCKED: ATOM     24  C   UNL     1     139.281  81.125 219.477 -0.06 -0.03    +0.098 C  
DOCKED: ATOM     25  C   UNL     1     138.212  80.370 224.399 -0.36 -0.00    +0.002 A  
DOCKED: ATOM     26  C   UNL     1     138.714  81.899 222.570 -0.18 -0.00    +0.006 A  
DOCKED: ATOM     27  C   UNL     1     140.702  82.952 219.431 -0.18 -0.02    +0.086 C  
DOCKED: ATOM     28  N   UNL     1     139.917  82.074 218.546 -0.03 +0.09    -0.294 NA 
DOCKED: ATOM     29  C   UNL     1     138.079  81.633 223.793 -0.23 -0.00    +0.000 A  
DOCKED: BRANCH  28  30
DOCKED: ATOM     30  C   UNL     1     140.776  81.389 217.540 -0.09 -0.05    +0.117 C  
DOCKED: ATOM     31  C   UNL     1     140.596  79.874 217.577 -0.08 -0.04    +0.086 C  
DOCKED: ATOM     32  C   UNL     1     142.266  81.553 217.837 -0.20 -0.19    +0.280 C  
DOCKED: ATOM     33  C   UNL     1     141.968  79.285 217.275 -0.16 -0.22    +0.262 C  
DOCKED: ATOM     34  N   UNL     1     142.950  80.371 217.316 +0.09 +0.48    -0.345 N  
DOCKED: ATOM     35  H   UNL     1     143.759  80.118 217.932 -0.28 -0.55    +0.346 HD 
DOCKED: ATOM     36  H   UNL     1     143.301  80.567 216.350 -0.41 -0.83    +0.346 HD 
DOCKED: ENDBRANCH  28  30
DOCKED: ENDBRANCH  15  17
DOCKED: ENDBRANCH   6  15
DOCKED: TORSDOF 5
DOCKED: TER
DOCKED: ENDMDL
________________________________________________________________________________


    FINAL DOCKED STATE:
    ________________________


Run:   3 / 20
Time taken for this run:   0.023s

DOCKED: MODEL        3
DOCKED: USER    Run = 3
DOCKED: USER
DOCKED: USER    Estimated Free Energy of Binding    =  -8.97 kcal/mol  [=(1)+(2)+(3)-(4)]
DOCKED: USER
DOCKED: USER    (1) Final Intermolecular Energy     = -10.46 kcal/mol
DOCKED: USER        vdW + Hbond + desolv Energy     =  -8.01 kcal/mol
DOCKED: USER        Electrostatic Energy            =  -2.45 kcal/mol
DOCKED: USER        Moving Ligand-Fixed Receptor    = -10.46 kcal/mol
DOCKED: USER        Moving Ligand-Moving Receptor   =  +0.00 kcal/mol
DOCKED: USER    (2) Final Total Internal Energy     =  -0.77 kcal/mol
DOCKED: USER    (3) Torsional Free Energy           =  +1.49 kcal/mol
DOCKED: USER    (4) Unbound System's Energy         =  -0.77 kcal/mol
DOCKED: USER
DOCKED: USER
DOCKED: REMARK SMILES [N-]=C(O)c1ccc2cc(C(=O)N3C[C@]4(CCN([C@@H]5CC[NH2+]C5)C4)c4ccccc43)[nH]c2c1
DOCKED: REMARK SMILES IDX 4 1 5 2 6 3 7 4 8 5 9 6 30 7 31 8 32 9 2 11 1 12 3 13 10 15
DOCKED: REMARK SMILES IDX 11 16 12 17 13 18 29 19 14 20 28 21 24 22 15 23 23 24 27 25
DOCKED: REMARK SMILES IDX 25 26 16 27 17 28 26 29 18 30 19 31 22 32 20 33 21 34
DOCKED: REMARK H PARENT 30 10 3 14 21 35 21 36
DOCKED: USER                              x       y       z     vdW  Elec       q    Type
DOCKED: USER                           _______ _______ _______ _____ _____    ______ ____
DOCKED: ROOT
DOCKED: ATOM      1  C   UNL     1     144.220  73.058 219.650 -0.32 +0.00    -0.006 A  
DOCKED: ATOM      2  C   UNL     1     143.283  72.021 219.914 -0.23 -0.00    +0.010 A  
DOCKED: ATOM      3  C   UNL     1     142.038  72.307 220.504 -0.21 -0.00    +0.011 A  
DOCKED: ATOM      4  C   UNL     1     141.759  73.632 220.822 -0.27 -0.00    +0.000 A  
DOCKED: ATOM      5  C   UNL     1     140.638  74.199 221.388 -0.28 -0.01    +0.042 A  
DOCKED: ATOM      6  C   UNL     1     140.922  75.562 221.461 -0.30 -0.03    +0.106 A  
DOCKED: ATOM      7  N   UNL     1     142.148  75.826 220.948 +0.11 +0.20    -0.350 N  
DOCKED: ATOM      8  C   UNL     1     142.649  74.639 220.571 -0.29 -0.02    +0.047 A  
DOCKED: ATOM      9  C   UNL     1     143.890  74.393 219.985 -0.39 -0.01    +0.036 A  
DOCKED: ATOM     10  H   UNL     1     142.613  76.758 220.866 -0.43 -0.15    +0.167 HD 
DOCKED: ENDROOT
DOCKED: BRANCH   1  11
DOCKED: ATOM     11  C   UNL     1     145.531  72.757 219.028 -0.32 -0.00    -0.000 C  
DOCKED: ATOM     12  N   UNL     1     146.326  71.884 219.555 -0.05 -0.82    -0.771 NA 
DOCKED: BRANCH  11  13
DOCKED: ATOM     13  O   UNL     1     145.919  73.417 217.864 -0.50 -0.23    -0.532 OA 
DOCKED: ATOM     14  H   UNL     1     145.948  74.429 217.819 -0.42 -0.14    +0.290 HD 
DOCKED: ENDBRANCH  11  13
DOCKED: ENDBRANCH   1  11
DOCKED: BRANCH   6  15
DOCKED: ATOM     15  C   UNL     1     140.014  76.607 221.969 -0.25 -0.07    +0.274 C  
DOCKED: ATOM     16  O   UNL     1     138.930  76.258 222.510 -0.27 +0.05    -0.267 OA 
DOCKED: BRANCH  15  17
DOCKED: ATOM     17  N   UNL     1     140.323  78.004 221.824 -0.13 +0.09    -0.306 N  
DOCKED: ATOM     18  C   UNL     1     141.076  78.556 220.695 -0.22 -0.06    +0.139 C  
DOCKED: ATOM     19  C   UNL     1     139.619  79.063 222.455 -0.29 -0.01    +0.048 A  
DOCKED: ATOM     20  C   UNL     1     140.640  80.059 220.572 -0.22 -0.01    +0.029 C  
DOCKED: ATOM     21  C   UNL     1     138.870  78.988 223.635 -0.19 -0.00    +0.026 A  
DOCKED: ATOM     22  C   UNL     1     139.789  80.252 221.795 -0.23 +0.00    -0.015 A  
DOCKED: ATOM     23  C   UNL     1     141.826  81.033 220.512 -0.28 -0.01    +0.030 C  
DOCKED: ATOM     24  C   UNL     1     139.842  80.338 219.282 -0.08 -0.03    +0.098 C  
DOCKED: ATOM     25  C   UNL     1     138.263  80.157 224.121 -0.37 -0.00    +0.002 A  
DOCKED: ATOM     26  C   UNL     1     139.190  81.428 222.261 -0.24 -0.00    +0.006 A  
DOCKED: ATOM     27  C   UNL     1     141.583  81.862 219.261 -0.21 -0.03    +0.086 C  
DOCKED: ATOM     28  N   UNL     1     140.717  81.082 218.360 -0.05 +0.12    -0.294 NA 
DOCKED: ATOM     29  C   UNL     1     138.422  81.375 223.434 -0.27 -0.00    +0.000 A  
DOCKED: BRANCH  28  30
DOCKED: ATOM     30  C   UNL     1     141.507  80.178 217.477 -0.16 -0.08    +0.117 C  
DOCKED: ATOM     31  C   UNL     1     140.866  78.798 217.358 -0.09 -0.04    +0.086 C  
DOCKED: ATOM     32  C   UNL     1     142.884  79.855 218.056 -0.09 -0.30    +0.280 C  
DOCKED: ATOM     33  C   UNL     1     142.021  77.810 217.267 -0.14 -0.17    +0.262 C  
DOCKED: ATOM     34  N   UNL     1     143.261  78.527 217.576 -0.01 +0.41    -0.345 N  
DOCKED: ATOM     35  H   UNL     1     143.812  78.018 218.307 +0.02 -0.33    +0.346 HD 
DOCKED: ATOM     36  H   UNL     1     143.841  78.619 216.709 -0.35 -0.76    +0.346 HD 
DOCKED: ENDBRANCH  28  30
DOCKED: ENDBRANCH  15  17
DOCKED: ENDBRANCH   6  15
DOCKED: TORSDOF 5
DOCKED: TER
DOCKED: ENDMDL
________________________________________________________________________________


    FINAL DOCKED STATE:
    ________________________


Run:   4 / 20
Time taken for this run:   0.023s

DOCKED: MODEL        4
DOCKED: USER    Run = 4
DOCKED: USER
DOCKED: USER    Estimated Free Energy of Binding    =  -8.79 kcal/mol  [=(1)+(2)+(3)-(4)]
DOCKED: USER
DOCKED: USER    (1) Final Intermolecular Energy     = -10.28 kcal/mol
DOCKED: USER        vdW + Hbond + desolv Energy     =  -7.67 kcal/mol
DOCKED: USER        Electrostatic Energy            =  -2.61 kcal/mol
DOCKED: USER        Moving Ligand-Fixed Receptor    = -10.28 kcal/mol
DOCKED: USER        Moving Ligand-Moving Receptor   =  +0.00 kcal/mol
DOCKED: USER    (2) Final Total Internal Energy     =  -0.88 kcal/mol
DOCKED: USER    (3) Torsional Free Energy           =  +1.49 kcal/mol
DOCKED: USER    (4) Unbound System's Energy         =  -0.88 kcal/mol
DOCKED: USER
DOCKED: USER
DOCKED: REMARK SMILES [N-]=C(O)c1ccc2cc(C(=O)N3C[C@]4(CCN([C@@H]5CC[NH2+]C5)C4)c4ccccc43)[nH]c2c1
DOCKED: REMARK SMILES IDX 4 1 5 2 6 3 7 4 8 5 9 6 30 7 31 8 32 9 2 11 1 12 3 13 10 15
DOCKED: REMARK SMILES IDX 11 16 12 17 13 18 29 19 14 20 28 21 24 22 15 23 23 24 27 25
DOCKED: REMARK SMILES IDX 25 26 16 27 17 28 26 29 18 30 19 31 22 32 20 33 21 34
DOCKED: REMARK H PARENT 30 10 3 14 21 35 21 36
DOCKED: USER                              x       y       z     vdW  Elec       q    Type
DOCKED: USER                           _______ _______ _______ _____ _____    ______ ____
DOCKED: ROOT
DOCKED: ATOM      1  C   UNL     1     144.571  73.786 218.943 -0.26 +0.00    -0.006 A  
DOCKED: ATOM      2  C   UNL     1     144.231  74.477 217.747 -0.11 -0.00    +0.010 A  
DOCKED: ATOM      3  C   UNL     1     143.237  75.472 217.746 -0.21 -0.01    +0.011 A  
DOCKED: ATOM      4  C   UNL     1     142.597  75.753 218.949 -0.27 -0.00    +0.000 A  
DOCKED: ATOM      5  C   UNL     1     141.610  76.666 219.245 -0.19 -0.02    +0.042 A  
DOCKED: ATOM      6  C   UNL     1     141.368  76.505 220.609 -0.24 -0.05    +0.106 A  
DOCKED: ATOM      7  N   UNL     1     142.178  75.554 221.132 +0.13 +0.18    -0.350 N  
DOCKED: ATOM      8  C   UNL     1     142.916  75.099 220.107 -0.33 -0.02    +0.047 A  
DOCKED: ATOM      9  C   UNL     1     143.898  74.110 220.145 -0.38 -0.01    +0.036 A  
DOCKED: ATOM     10  H   UNL     1     142.221  75.235 222.126 -0.44 -0.07    +0.167 HD 
DOCKED: ENDROOT
DOCKED: BRANCH   1  11
DOCKED: ATOM     11  C   UNL     1     145.619  72.739 218.945 -0.27 -0.00    -0.000 C  
DOCKED: ATOM     12  N   UNL     1     145.933  72.119 217.854 -0.19 -0.91    -0.771 NA 
DOCKED: BRANCH  11  13
DOCKED: ATOM     13  O   UNL     1     146.279  72.413 220.128 -0.35 -0.26    -0.532 OA 
DOCKED: ATOM     14  H   UNL     1     145.823  71.868 220.850 -0.36 -0.07    +0.290 HD 
DOCKED: ENDBRANCH  11  13
DOCKED: ENDBRANCH   1  11
DOCKED: BRANCH   6  15
DOCKED: ATOM     15  C   UNL     1     140.409  77.284 221.413 -0.19 -0.09    +0.274 C  
DOCKED: ATOM     16  O   UNL     1     139.503  76.670 222.040 -0.22 +0.06    -0.267 OA 
DOCKED: BRANCH  15  17
DOCKED: ATOM     17  N   UNL     1     140.465  78.720 221.465 -0.09 +0.10    -0.306 N  
DOCKED: ATOM     18  C   UNL     1     140.997  79.551 220.381 -0.20 -0.06    +0.139 C  
DOCKED: ATOM     19  C   UNL     1     139.663  79.537 222.305 -0.26 -0.01    +0.048 A  
DOCKED: ATOM     20  C   UNL     1     140.307  80.953 220.528 -0.20 -0.01    +0.029 C  
DOCKED: ATOM     21  C   UNL     1     139.061  79.163 223.513 -0.34 -0.00    +0.026 A  
DOCKED: ATOM     22  C   UNL     1     139.566  80.818 221.828 -0.22 +0.00    -0.015 A  
DOCKED: ATOM     23  C   UNL     1     141.303  82.122 220.531 -0.29 -0.01    +0.030 C  
DOCKED: ATOM     24  C   UNL     1     139.346  81.263 219.362 -0.06 -0.03    +0.098 C  
DOCKED: ATOM     25  C   UNL     1     138.323  80.126 224.220 -0.37 -0.00    +0.002 A  
DOCKED: ATOM     26  C   UNL     1     138.831  81.790 222.516 -0.20 -0.00    +0.006 A  
DOCKED: ATOM     27  C   UNL     1     140.799  83.062 219.446 -0.18 -0.02    +0.086 C  
DOCKED: ATOM     28  N   UNL     1     139.987  82.274 218.503 -0.03 +0.09    -0.294 NA 
DOCKED: ATOM     29  C   UNL     1     138.206  81.436 223.721 -0.26 -0.00    +0.000 A  
DOCKED: BRANCH  28  30
DOCKED: ATOM     30  C   UNL     1     140.821  81.659 217.433 -0.09 -0.05    +0.117 C  
DOCKED: ATOM     31  C   UNL     1     140.539  80.167 217.279 -0.07 -0.04    +0.086 C  
DOCKED: ATOM     32  C   UNL     1     142.312  81.681 217.770 -0.19 -0.19    +0.280 C  
DOCKED: ATOM     33  C   UNL     1     141.874  79.525 216.927 -0.13 -0.22    +0.262 C  
DOCKED: ATOM     34  N   UNL     1     142.927  80.527 217.117 +0.18 +0.50    -0.345 N  
DOCKED: ATOM     35  H   UNL     1     143.701  80.143 217.708 -0.37 -0.62    +0.346 HD 
DOCKED: ATOM     36  H   UNL     1     143.312  80.815 216.187 -0.42 -0.78    +0.346 HD 
DOCKED: ENDBRANCH  28  30
DOCKED: ENDBRANCH  15  17
DOCKED: ENDBRANCH   6  15
DOCKED: TORSDOF 5
DOCKED: TER
DOCKED: ENDMDL
________________________________________________________________________________


    FINAL DOCKED STATE:
    ________________________


Run:   5 / 20
Time taken for this run:   0.023s

DOCKED: MODEL        5
DOCKED: USER    Run = 5
DOCKED: USER
DOCKED: USER    Estimated Free Energy of Binding    =  -8.25 kcal/mol  [=(1)+(2)+(3)-(4)]
DOCKED: USER
DOCKED: USER    (1) Final Intermolecular Energy     =  -9.74 kcal/mol
DOCKED: USER        vdW + Hbond + desolv Energy     =  -7.47 kcal/mol
DOCKED: USER        Electrostatic Energy            =  -2.28 kcal/mol
DOCKED: USER        Moving Ligand-Fixed Receptor    =  -9.74 kcal/mol
DOCKED: USER        Moving Ligand-Moving Receptor   =  +0.00 kcal/mol
DOCKED: USER    (2) Final Total Internal Energy     =  -0.98 kcal/mol
DOCKED: USER    (3) Torsional Free Energy           =  +1.49 kcal/mol
DOCKED: USER    (4) Unbound System's Energy         =  -0.98 kcal/mol
DOCKED: USER
DOCKED: USER
DOCKED: REMARK SMILES [N-]=C(O)c1ccc2cc(C(=O)N3C[C@]4(CCN([C@@H]5CC[NH2+]C5)C4)c4ccccc43)[nH]c2c1
DOCKED: REMARK SMILES IDX 4 1 5 2 6 3 7 4 8 5 9 6 30 7 31 8 32 9 2 11 1 12 3 13 10 15
DOCKED: REMARK SMILES IDX 11 16 12 17 13 18 29 19 14 20 28 21 24 22 15 23 23 24 27 25
DOCKED: REMARK SMILES IDX 25 26 16 27 17 28 26 29 18 30 19 31 22 32 20 33 21 34
DOCKED: REMARK H PARENT 30 10 3 14 21 35 21 36
DOCKED: USER                              x       y       z     vdW  Elec       q    Type
DOCKED: USER                           _______ _______ _______ _____ _____    ______ ____
DOCKED: ROOT
DOCKED: ATOM      1  C   UNL     1     144.414  74.134 218.616 -0.18 +0.00    -0.006 A  
DOCKED: ATOM      2  C   UNL     1     143.856  74.896 217.551 -0.17 -0.00    +0.010 A  
DOCKED: ATOM      3  C   UNL     1     142.743  75.728 217.766 -0.19 -0.01    +0.011 A  
DOCKED: ATOM      4  C   UNL     1     142.205  75.777 219.048 -0.22 -0.00    +0.000 A  
DOCKED: ATOM      5  C   UNL     1     141.141  76.497 219.545 -0.16 -0.02    +0.042 A  
DOCKED: ATOM      6  C   UNL     1     141.072  76.151 220.894 -0.25 -0.04    +0.106 A  
DOCKED: ATOM      7  N   UNL     1     142.056  75.277 221.218 -0.05 +0.15    -0.350 N  
DOCKED: ATOM      8  C   UNL     1     142.732  75.052 220.081 -0.31 -0.02    +0.047 A  
DOCKED: ATOM      9  C   UNL     1     143.838  74.221 219.905 -0.36 -0.01    +0.036 A  
DOCKED: ATOM     10  H   UNL     1     142.248  74.859 222.156 -0.13 -0.03    +0.167 HD 
DOCKED: ENDROOT
DOCKED: BRANCH   1  11
DOCKED: ATOM     11  C   UNL     1     145.588  73.259 218.390 -0.20 -0.00    -0.000 C  
DOCKED: ATOM     12  N   UNL     1     145.566  72.352 217.468 -0.24 -0.48    -0.771 NA 
DOCKED: BRANCH  11  13
DOCKED: ATOM     13  O   UNL     1     146.730  73.407 219.175 -0.43 -0.49    -0.532 OA 
DOCKED: ATOM     14  H   UNL     1     147.074  74.324 219.434 -0.41 +0.01    +0.290 HD 
DOCKED: ENDBRANCH  11  13
DOCKED: ENDBRANCH   1  11
DOCKED: BRANCH   6  15
DOCKED: ATOM     15  C   UNL     1     140.110  76.687 221.874 -0.24 -0.07    +0.274 C  
DOCKED: ATOM     16  O   UNL     1     139.428  75.877 222.560 -0.39 +0.05    -0.267 OA 
DOCKED: BRANCH  15  17
DOCKED: ATOM     17  N   UNL     1     139.909  78.102 222.033 -0.13 +0.08    -0.306 N  
DOCKED: ATOM     18  C   UNL     1     140.794  79.117 221.454 -0.25 -0.05    +0.139 C  
DOCKED: ATOM     19  C   UNL     1     138.672  78.718 222.358 -0.23 -0.01    +0.048 A  
DOCKED: ATOM     20  C   UNL     1     139.924  80.413 221.290 -0.20 -0.01    +0.029 C  
DOCKED: ATOM     21  C   UNL     1     137.593  78.131 223.030 -0.15 -0.00    +0.026 A  
DOCKED: ATOM     22  C   UNL     1     138.643  80.035 221.979 -0.18 +0.00    -0.015 A  
DOCKED: ATOM     23  C   UNL     1     140.577  81.664 221.896 -0.34 -0.01    +0.030 C  
DOCKED: ATOM     24  C   UNL     1     139.680  80.777 219.812 -0.09 -0.03    +0.098 C  
DOCKED: ATOM     25  C   UNL     1     136.456  78.914 223.286 -0.15 -0.00    +0.002 A  
DOCKED: ATOM     26  C   UNL     1     137.518  80.831 222.222 -0.14 -0.00    +0.006 A  
DOCKED: ATOM     27  C   UNL     1     140.578  82.684 220.768 -0.25 -0.02    +0.086 C  
DOCKED: ATOM     28  N   UNL     1     140.512  81.950 219.492 -0.08 +0.09    -0.294 NA 
DOCKED: ATOM     29  C   UNL     1     136.418  80.261 222.881 -0.15 -0.00    +0.000 A  
DOCKED: BRANCH  28  30
DOCKED: ATOM     30  C   UNL     1     141.865  81.567 219.001 -0.19 -0.05    +0.117 C  
DOCKED: ATOM     31  C   UNL     1     142.493  82.667 218.149 -0.13 -0.04    +0.086 C  
DOCKED: ATOM     32  C   UNL     1     141.822  80.383 218.036 -0.18 -0.19    +0.280 C  
DOCKED: ATOM     33  C   UNL     1     143.291  81.950 217.068 -0.18 -0.29    +0.262 C  
DOCKED: ATOM     34  N   UNL     1     142.949  80.526 217.116 +0.20 +0.50    -0.345 N  
DOCKED: ATOM     35  H   UNL     1     142.689  80.175 216.164 -0.31 -0.55    +0.346 HD 
DOCKED: ATOM     36  H   UNL     1     143.766  79.979 217.474 -0.42 -0.74    +0.346 HD 
DOCKED: ENDBRANCH  28  30
DOCKED: ENDBRANCH  15  17
DOCKED: ENDBRANCH   6  15
DOCKED: TORSDOF 5
DOCKED: TER
DOCKED: ENDMDL
________________________________________________________________________________


    FINAL DOCKED STATE:
    ________________________


Run:   6 / 20
Time taken for this run:   0.023s

DOCKED: MODEL        6
DOCKED: USER    Run = 6
DOCKED: USER
DOCKED: USER    Estimated Free Energy of Binding    =  -8.17 kcal/mol  [=(1)+(2)+(3)-(4)]
DOCKED: USER
DOCKED: USER    (1) Final Intermolecular Energy     =  -9.67 kcal/mol
DOCKED: USER        vdW + Hbond + desolv Energy     =  -8.53 kcal/mol
DOCKED: USER        Electrostatic Energy            =  -1.14 kcal/mol
DOCKED: USER        Moving Ligand-Fixed Receptor    =  -9.67 kcal/mol
DOCKED: USER        Moving Ligand-Moving Receptor   =  +0.00 kcal/mol
DOCKED: USER    (2) Final Total Internal Energy     =  -0.91 kcal/mol
DOCKED: USER    (3) Torsional Free Energy           =  +1.49 kcal/mol
DOCKED: USER    (4) Unbound System's Energy         =  -0.91 kcal/mol
DOCKED: USER
DOCKED: USER
DOCKED: REMARK SMILES [N-]=C(O)c1ccc2cc(C(=O)N3C[C@]4(CCN([C@@H]5CC[NH2+]C5)C4)c4ccccc43)[nH]c2c1
DOCKED: REMARK SMILES IDX 4 1 5 2 6 3 7 4 8 5 9 6 30 7 31 8 32 9 2 11 1 12 3 13 10 15
DOCKED: REMARK SMILES IDX 11 16 12 17 13 18 29 19 14 20 28 21 24 22 15 23 23 24 27 25
DOCKED: REMARK SMILES IDX 25 26 16 27 17 28 26 29 18 30 19 31 22 32 20 33 21 34
DOCKED: REMARK H PARENT 30 10 3 14 21 35 21 36
DOCKED: USER                              x       y       z     vdW  Elec       q    Type
DOCKED: USER                           _______ _______ _______ _____ _____    ______ ____
DOCKED: ROOT
DOCKED: ATOM      1  C   UNL     1     144.346  73.980 219.258 -0.31 +0.00    -0.006 A  
DOCKED: ATOM      2  C   UNL     1     143.945  74.697 218.096 -0.16 -0.00    +0.010 A  
DOCKED: ATOM      3  C   UNL     1     142.859  75.590 218.139 -0.21 -0.00    +0.011 A  
DOCKED: ATOM      4  C   UNL     1     142.189  75.742 219.348 -0.24 -0.00    +0.000 A  
DOCKED: ATOM      5  C   UNL     1     141.116  76.538 219.683 -0.17 -0.02    +0.042 A  
DOCKED: ATOM      6  C   UNL     1     140.885  76.282 221.033 -0.26 -0.04    +0.106 A  
DOCKED: ATOM      7  N   UNL     1     141.782  75.388 221.514 -0.04 +0.14    -0.350 N  
DOCKED: ATOM      8  C   UNL     1     142.565  75.062 220.473 -0.29 -0.02    +0.047 A  
DOCKED: ATOM      9  C   UNL     1     143.639  74.173 220.469 -0.38 -0.01    +0.036 A  
DOCKED: ATOM     10  H   UNL     1     141.851  75.022 222.490 -0.07 -0.01    +0.167 HD 
DOCKED: ENDROOT
DOCKED: BRANCH   1  11
DOCKED: ATOM     11  C   UNL     1     145.491  73.042 219.214 -0.38 -0.00    -0.000 C  
DOCKED: ATOM     12  N   UNL     1     145.935  72.596 218.084 -0.37 -0.81    -0.771 NA 
DOCKED: BRANCH  11  13
DOCKED: ATOM     13  O   UNL     1     146.101  72.629 220.397 -0.25 -0.12    -0.532 OA 
DOCKED: ATOM     14  H   UNL     1     145.685  71.912 220.980 -0.35 -0.10    +0.290 HD 
DOCKED: ENDBRANCH  11  13
DOCKED: ENDBRANCH   1  11
DOCKED: BRANCH   6  15
DOCKED: ATOM     15  C   UNL     1     139.851  76.920 221.869 -0.22 -0.07    +0.274 C  
DOCKED: ATOM     16  O   UNL     1     139.000  76.189 222.445 -0.27 +0.05    -0.267 OA 
DOCKED: BRANCH  15  17
DOCKED: ATOM     17  N   UNL     1     139.775  78.349 222.006 -0.11 +0.08    -0.306 N  
DOCKED: ATOM     18  C   UNL     1     138.513  79.093 222.065 -0.17 -0.03    +0.139 C  
DOCKED: ATOM     19  C   UNL     1     140.806  79.174 222.529 -0.39 -0.01    +0.048 A  
DOCKED: ATOM     20  C   UNL     1     138.824  80.422 222.839 -0.30 -0.00    +0.029 C  
DOCKED: ATOM     21  C   UNL     1     142.176  78.890 222.553 -0.45 -0.01    +0.026 A  
DOCKED: ATOM     22  C   UNL     1     140.318  80.369 222.989 -0.40 +0.00    -0.015 A  
DOCKED: ATOM     23  C   UNL     1     138.345  81.681 222.102 -0.18 -0.00    +0.030 C  
DOCKED: ATOM     24  C   UNL     1     138.123  80.483 224.211 -0.34 -0.01    +0.098 C  
DOCKED: ATOM     25  C   UNL     1     143.051  79.848 223.091 -0.61 -0.00    +0.002 A  
DOCKED: ATOM     26  C   UNL     1     141.173  81.336 223.533 -0.44 -0.00    +0.006 A  
DOCKED: ATOM     27  C   UNL     1     137.490  82.423 223.119 -0.12 -0.01    +0.086 C  
DOCKED: ATOM     28  N   UNL     1     137.010  81.443 224.109 -0.14 +0.03    -0.294 NA 
DOCKED: ATOM     29  C   UNL     1     142.549  81.068 223.582 -0.62 -0.00    +0.000 A  
DOCKED: BRANCH  28  30
DOCKED: ATOM     30  C   UNL     1     135.741  80.793 223.676 -0.14 -0.01    +0.117 C  
DOCKED: ATOM     31  C   UNL     1     135.830  79.271 223.745 -0.11 -0.01    +0.086 C  
DOCKED: ATOM     32  C   UNL     1     135.434  81.040 222.199 -0.03 -0.04    +0.280 C  
DOCKED: ATOM     33  C   UNL     1     135.010  78.753 222.572 -0.06 -0.03    +0.262 C  
DOCKED: ATOM     34  N   UNL     1     134.675  79.890 221.711 -0.00 +0.05    -0.345 N  
DOCKED: ATOM     35  H   UNL     1     134.923  79.686 220.714 +0.02 -0.05    +0.346 HD 
DOCKED: ATOM     36  H   UNL     1     133.651  80.093 221.777 +0.02 -0.04    +0.346 HD 
DOCKED: ENDBRANCH  28  30
DOCKED: ENDBRANCH  15  17
DOCKED: ENDBRANCH   6  15
DOCKED: TORSDOF 5
DOCKED: TER
DOCKED: ENDMDL
________________________________________________________________________________


    FINAL DOCKED STATE:
    ________________________


Run:   7 / 20
Time taken for this run:   0.023s

DOCKED: MODEL        7
DOCKED: USER    Run = 7
DOCKED: USER
DOCKED: USER    Estimated Free Energy of Binding    =  -8.78 kcal/mol  [=(1)+(2)+(3)-(4)]
DOCKED: USER
DOCKED: USER    (1) Final Intermolecular Energy     = -10.27 kcal/mol
DOCKED: USER        vdW + Hbond + desolv Energy     =  -7.54 kcal/mol
DOCKED: USER        Electrostatic Energy            =  -2.73 kcal/mol
DOCKED: USER        Moving Ligand-Fixed Receptor    = -10.27 kcal/mol
DOCKED: USER        Moving Ligand-Moving Receptor   =  +0.00 kcal/mol
DOCKED: USER    (2) Final Total Internal Energy     =  -0.83 kcal/mol
DOCKED: USER    (3) Torsional Free Energy           =  +1.49 kcal/mol
DOCKED: USER    (4) Unbound System's Energy         =  -0.83 kcal/mol
DOCKED: USER
DOCKED: USER
DOCKED: REMARK SMILES [N-]=C(O)c1ccc2cc(C(=O)N3C[C@]4(CCN([C@@H]5CC[NH2+]C5)C4)c4ccccc43)[nH]c2c1
DOCKED: REMARK SMILES IDX 4 1 5 2 6 3 7 4 8 5 9 6 30 7 31 8 32 9 2 11 1 12 3 13 10 15
DOCKED: REMARK SMILES IDX 11 16 12 17 13 18 29 19 14 20 28 21 24 22 15 23 23 24 27 25
DOCKED: REMARK SMILES IDX 25 26 16 27 17 28 26 29 18 30 19 31 22 32 20 33 21 34
DOCKED: REMARK H PARENT 30 10 3 14 21 35 21 36
DOCKED: USER                              x       y       z     vdW  Elec       q    Type
DOCKED: USER                           _______ _______ _______ _____ _____    ______ ____
DOCKED: ROOT
DOCKED: ATOM      1  C   UNL     1     144.379  73.249 220.061 -0.40 +0.00    -0.006 A  
DOCKED: ATOM      2  C   UNL     1     143.392  72.226 219.980 -0.25 -0.00    +0.010 A  
DOCKED: ATOM      3  C   UNL     1     142.036  72.512 220.218 -0.19 -0.00    +0.011 A  
DOCKED: ATOM      4  C   UNL     1     141.694  73.821 220.539 -0.24 -0.00    +0.000 A  
DOCKED: ATOM      5  C   UNL     1     140.466  74.384 220.809 -0.21 -0.01    +0.042 A  
DOCKED: ATOM      6  C   UNL     1     140.735  75.730 221.055 -0.25 -0.03    +0.106 A  
DOCKED: ATOM      7  N   UNL     1     142.058  75.989 220.924 +0.09 +0.20    -0.350 N  
DOCKED: ATOM      8  C   UNL     1     142.630  74.814 220.618 -0.27 -0.02    +0.047 A  
DOCKED: ATOM      9  C   UNL     1     143.983  74.568 220.383 -0.41 -0.01    +0.036 A  
DOCKED: ATOM     10  H   UNL     1     142.537  76.910 221.040 -0.44 -0.16    +0.167 HD 
DOCKED: ENDROOT
DOCKED: BRANCH   1  11
DOCKED: ATOM     11  C   UNL     1     145.807  72.949 219.808 -0.49 -0.00    -0.000 C  
DOCKED: ATOM     12  N   UNL     1     146.294  73.022 218.612 -0.34 -0.91    -0.771 NA 
DOCKED: BRANCH  11  13
DOCKED: ATOM     13  O   UNL     1     146.641  72.583 220.862 -0.04 -0.11    -0.532 OA 
DOCKED: ATOM     14  H   UNL     1     146.321  71.958 221.593 -0.37 -0.19    +0.290 HD 
DOCKED: ENDBRANCH  11  13
DOCKED: ENDBRANCH   1  11
DOCKED: BRANCH   6  15
DOCKED: ATOM     15  C   UNL     1     139.733  76.768 221.363 -0.16 -0.07    +0.274 C  
DOCKED: ATOM     16  O   UNL     1     138.534  76.420 221.540 -0.12 +0.06    -0.267 OA 
DOCKED: BRANCH  15  17
DOCKED: ATOM     17  N   UNL     1     140.090  78.159 221.426 -0.09 +0.09    -0.306 N  
DOCKED: ATOM     18  C   UNL     1     140.782  78.870 220.347 -0.17 -0.06    +0.139 C  
DOCKED: ATOM     19  C   UNL     1     139.478  79.119 222.275 -0.25 -0.01    +0.048 A  
DOCKED: ATOM     20  C   UNL     1     140.402  80.384 220.506 -0.20 -0.01    +0.029 C  
DOCKED: ATOM     21  C   UNL     1     138.813  78.871 223.481 -0.25 -0.00    +0.026 A  
DOCKED: ATOM     22  C   UNL     1     139.651  80.396 221.807 -0.22 +0.00    -0.015 A  
DOCKED: ATOM     23  C   UNL     1     141.621  81.318 220.515 -0.28 -0.01    +0.030 C  
DOCKED: ATOM     24  C   UNL     1     139.525  80.898 219.346 -0.07 -0.03    +0.098 C  
DOCKED: ATOM     25  C   UNL     1     138.293  79.960 224.198 -0.29 -0.00    +0.002 A  
DOCKED: ATOM     26  C   UNL     1     139.137  81.495 222.505 -0.24 -0.00    +0.006 A  
DOCKED: ATOM     27  C   UNL     1     141.324  82.352 219.439 -0.21 -0.03    +0.086 C  
DOCKED: ATOM     28  N   UNL     1     140.363  81.759 218.493 -0.04 +0.10    -0.294 NA 
DOCKED: ATOM     29  C   UNL     1     138.453  81.270 223.710 -0.31 -0.00    +0.000 A  
DOCKED: BRANCH  28  30
DOCKED: ATOM     30  C   UNL     1     141.048  80.992 217.415 -0.11 -0.06    +0.117 C  
DOCKED: ATOM     31  C   UNL     1     140.509  79.569 217.300 -0.07 -0.04    +0.086 C  
DOCKED: ATOM     32  C   UNL     1     142.529  80.762 217.715 -0.21 -0.26    +0.280 C  
DOCKED: ATOM     33  C   UNL     1     141.702  78.701 216.928 -0.11 -0.19    +0.262 C  
DOCKED: ATOM     34  N   UNL     1     142.917  79.508 217.071 +0.34 +0.51    -0.345 N  
DOCKED: ATOM     35  H   UNL     1     143.630  79.006 217.650 -0.28 -0.54    +0.346 HD 
DOCKED: ATOM     36  H   UNL     1     143.320  79.710 216.126 -0.37 -0.96    +0.346 HD 
DOCKED: ENDBRANCH  28  30
DOCKED: ENDBRANCH  15  17
DOCKED: ENDBRANCH   6  15
DOCKED: TORSDOF 5
DOCKED: TER
DOCKED: ENDMDL
________________________________________________________________________________


    FINAL DOCKED STATE:
    ________________________


Run:   8 / 20
Time taken for this run:   0.023s

DOCKED: MODEL        8
DOCKED: USER    Run = 8
DOCKED: USER
DOCKED: USER    Estimated Free Energy of Binding    =  -8.18 kcal/mol  [=(1)+(2)+(3)-(4)]
DOCKED: USER
DOCKED: USER    (1) Final Intermolecular Energy     =  -9.67 kcal/mol
DOCKED: USER        vdW + Hbond + desolv Energy     =  -8.20 kcal/mol
DOCKED: USER        Electrostatic Energy            =  -1.47 kcal/mol
DOCKED: USER        Moving Ligand-Fixed Receptor    =  -9.67 kcal/mol
DOCKED: USER        Moving Ligand-Moving Receptor   =  +0.00 kcal/mol
DOCKED: USER    (2) Final Total Internal Energy     =  -0.83 kcal/mol
DOCKED: USER    (3) Torsional Free Energy           =  +1.49 kcal/mol
DOCKED: USER    (4) Unbound System's Energy         =  -0.83 kcal/mol
DOCKED: USER
DOCKED: USER
DOCKED: REMARK SMILES [N-]=C(O)c1ccc2cc(C(=O)N3C[C@]4(CCN([C@@H]5CC[NH2+]C5)C4)c4ccccc43)[nH]c2c1
DOCKED: REMARK SMILES IDX 4 1 5 2 6 3 7 4 8 5 9 6 30 7 31 8 32 9 2 11 1 12 3 13 10 15
DOCKED: REMARK SMILES IDX 11 16 12 17 13 18 29 19 14 20 28 21 24 22 15 23 23 24 27 25
DOCKED: REMARK SMILES IDX 25 26 16 27 17 28 26 29 18 30 19 31 22 32 20 33 21 34
DOCKED: REMARK H PARENT 30 10 3 14 21 35 21 36
DOCKED: USER                              x       y       z     vdW  Elec       q    Type
DOCKED: USER                           _______ _______ _______ _____ _____    ______ ____
DOCKED: ROOT
DOCKED: ATOM      1  C   UNL     1     144.344  73.010 219.582 -0.32 +0.00    -0.006 A  
DOCKED: ATOM      2  C   UNL     1     143.424  72.097 220.169 -0.27 -0.00    +0.010 A  
DOCKED: ATOM      3  C   UNL     1     142.261  72.558 220.812 -0.25 -0.00    +0.011 A  
DOCKED: ATOM      4  C   UNL     1     142.045  73.932 220.858 -0.28 -0.00    +0.000 A  
DOCKED: ATOM      5  C   UNL     1     141.007  74.656 221.402 -0.30 -0.01    +0.042 A  
DOCKED: ATOM      6  C   UNL     1     141.324  75.988 221.141 -0.26 -0.04    +0.106 A  
DOCKED: ATOM      7  N   UNL     1     142.487  76.081 220.454 -0.05 +0.22    -0.350 N  
DOCKED: ATOM      8  C   UNL     1     142.919  74.820 220.296 -0.32 -0.02    +0.047 A  
DOCKED: ATOM      9  C   UNL     1     144.079  74.398 219.648 -0.36 -0.01    +0.036 A  
DOCKED: ATOM     10  H   UNL     1     142.957  76.952 220.118 -0.11 -0.14    +0.167 HD 
DOCKED: ENDROOT
DOCKED: BRANCH   1  11
DOCKED: ATOM     11  C   UNL     1     145.568  72.524 218.904 -0.28 -0.00    -0.000 C  
DOCKED: ATOM     12  N   UNL     1     145.980  71.310 219.076 -0.08 -0.74    -0.771 NA 
DOCKED: BRANCH  11  13
DOCKED: ATOM     13  O   UNL     1     146.290  73.377 218.071 -0.52 -0.43    -0.532 OA 
DOCKED: ATOM     14  H   UNL     1     145.947  74.303 217.843 -0.42 -0.10    +0.290 HD 
DOCKED: ENDBRANCH  11  13
DOCKED: ENDBRANCH   1  11
DOCKED: BRANCH   6  15
DOCKED: ATOM     15  C   UNL     1     140.500  77.157 221.501 -0.21 -0.09    +0.274 C  
DOCKED: ATOM     16  O   UNL     1     139.374  76.965 222.035 -0.20 +0.06    -0.267 OA 
DOCKED: BRANCH  15  17
DOCKED: ATOM     17  N   UNL     1     140.938  78.498 221.221 -0.12 +0.13    -0.306 N  
DOCKED: ATOM     18  C   UNL     1     140.495  79.270 220.056 -0.13 -0.05    +0.139 C  
DOCKED: ATOM     19  C   UNL     1     141.467  79.400 222.182 -0.42 -0.02    +0.048 A  
DOCKED: ATOM     20  C   UNL     1     140.646  80.781 220.451 -0.23 -0.01    +0.029 C  
DOCKED: ATOM     21  C   UNL     1     142.096  79.067 223.387 -0.58 -0.01    +0.026 A  
DOCKED: ATOM     22  C   UNL     1     141.347  80.704 221.778 -0.40 +0.00    -0.015 A  
DOCKED: ATOM     23  C   UNL     1     141.425  81.605 219.415 -0.26 -0.01    +0.030 C  
DOCKED: ATOM     24  C   UNL     1     139.286  81.498 220.575 -0.11 -0.02    +0.098 C  
DOCKED: ATOM     25  C   UNL     1     142.582  80.105 224.199 -0.51 -0.00    +0.002 A  
DOCKED: ATOM     26  C   UNL     1     141.820  81.753 222.574 -0.45 -0.00    +0.006 A  
DOCKED: ATOM     27  C   UNL     1     140.513  82.778 219.088 -0.15 -0.02    +0.086 C  
DOCKED: ATOM     28  N   UNL     1     139.130  82.380 219.405 -0.02 +0.07    -0.294 NA 
DOCKED: ATOM     29  C   UNL     1     142.441  81.445 223.794 -0.56 -0.00    +0.000 A  
DOCKED: BRANCH  28  30
DOCKED: ATOM     30  C   UNL     1     138.475  81.691 218.259 -0.02 -0.03    +0.117 C  
DOCKED: ATOM     31  C   UNL     1     138.712  82.426 216.943 -0.01 -0.02    +0.086 C  
DOCKED: ATOM     32  C   UNL     1     136.950  81.694 218.371 -0.00 -0.05    +0.280 C  
DOCKED: ATOM     33  C   UNL     1     137.434  82.252 216.134 +0.00 -0.06    +0.262 C  
DOCKED: ATOM     34  N   UNL     1     136.411  81.679 217.012 +0.00 +0.06    -0.345 N  
DOCKED: ATOM     35  H   UNL     1     135.526  82.237 216.965 +0.00 -0.06    +0.346 HD 
DOCKED: ATOM     36  H   UNL     1     136.212  80.692 216.726 +0.00 -0.06    +0.346 HD 
DOCKED: ENDBRANCH  28  30
DOCKED: ENDBRANCH  15  17
DOCKED: ENDBRANCH   6  15
DOCKED: TORSDOF 5
DOCKED: TER
DOCKED: ENDMDL
________________________________________________________________________________


    FINAL DOCKED STATE:
    ________________________


Run:   9 / 20
Time taken for this run:   0.023s

DOCKED: MODEL        9
DOCKED: USER    Run = 9
DOCKED: USER
DOCKED: USER    Estimated Free Energy of Binding    =  -8.35 kcal/mol  [=(1)+(2)+(3)-(4)]
DOCKED: USER
DOCKED: USER    (1) Final Intermolecular Energy     =  -9.84 kcal/mol
DOCKED: USER        vdW + Hbond + desolv Energy     =  -7.64 kcal/mol
DOCKED: USER        Electrostatic Energy            =  -2.20 kcal/mol
DOCKED: USER        Moving Ligand-Fixed Receptor    =  -9.84 kcal/mol
DOCKED: USER        Moving Ligand-Moving Receptor   =  +0.00 kcal/mol
DOCKED: USER    (2) Final Total Internal Energy     =  -0.82 kcal/mol
DOCKED: USER    (3) Torsional Free Energy           =  +1.49 kcal/mol
DOCKED: USER    (4) Unbound System's Energy         =  -0.82 kcal/mol
DOCKED: USER
DOCKED: USER
DOCKED: REMARK SMILES [N-]=C(O)c1ccc2cc(C(=O)N3C[C@]4(CCN([C@@H]5CC[NH2+]C5)C4)c4ccccc43)[nH]c2c1
DOCKED: REMARK SMILES IDX 4 1 5 2 6 3 7 4 8 5 9 6 30 7 31 8 32 9 2 11 1 12 3 13 10 15
DOCKED: REMARK SMILES IDX 11 16 12 17 13 18 29 19 14 20 28 21 24 22 15 23 23 24 27 25
DOCKED: REMARK SMILES IDX 25 26 16 27 17 28 26 29 18 30 19 31 22 32 20 33 21 34
DOCKED: REMARK H PARENT 30 10 3 14 21 35 21 36
DOCKED: USER                              x       y       z     vdW  Elec       q    Type
DOCKED: USER                           _______ _______ _______ _____ _____    ______ ____
DOCKED: ROOT
DOCKED: ATOM      1  C   UNL     1     144.385  73.878 218.898 -0.25 +0.00    -0.006 A  
DOCKED: ATOM      2  C   UNL     1     143.794  74.321 217.682 -0.16 -0.00    +0.010 A  
DOCKED: ATOM      3  C   UNL     1     142.652  75.143 217.692 -0.14 -0.00    +0.011 A  
DOCKED: ATOM      4  C   UNL     1     142.121  75.502 218.927 -0.19 -0.00    +0.000 A  
DOCKED: ATOM      5  C   UNL     1     141.035  76.290 219.238 -0.12 -0.02    +0.042 A  
DOCKED: ATOM      6  C   UNL     1     140.987  76.301 220.631 -0.22 -0.04    +0.106 A  
DOCKED: ATOM      7  N   UNL     1     142.003  75.574 221.154 +0.02 +0.17    -0.350 N  
DOCKED: ATOM      8  C   UNL     1     142.680  75.086 220.103 -0.30 -0.02    +0.047 A  
DOCKED: ATOM      9  C   UNL     1     143.814  74.275 220.130 -0.38 -0.01    +0.036 A  
DOCKED: ATOM     10  H   UNL     1     142.216  75.419 222.165 -0.48 -0.08    +0.167 HD 
DOCKED: ENDROOT
DOCKED: BRANCH   1  11
DOCKED: ATOM     11  C   UNL     1     145.588  73.014 218.887 -0.32 -0.00    -0.000 C  
DOCKED: ATOM     12  N   UNL     1     145.603  71.912 218.210 -0.30 -0.63    -0.771 NA 
DOCKED: BRANCH  11  13
DOCKED: ATOM     13  O   UNL     1     146.720  73.384 219.611 -0.45 -0.37    -0.532 OA 
DOCKED: ATOM     14  H   UNL     1     147.035  74.347 219.638 -0.38 +0.01    +0.290 HD 
DOCKED: ENDBRANCH  11  13
DOCKED: ENDBRANCH   1  11
DOCKED: BRANCH   6  15
DOCKED: ATOM     15  C   UNL     1     140.011  77.039 221.455 -0.18 -0.08    +0.274 C  
DOCKED: ATOM     16  O   UNL     1     139.038  76.410 221.953 -0.20 +0.06    -0.267 OA 
DOCKED: BRANCH  15  17
DOCKED: ATOM     17  N   UNL     1     140.129  78.456 221.668 -0.10 +0.09    -0.306 N  
DOCKED: ATOM     18  C   UNL     1     141.026  79.321 220.897 -0.23 -0.06    +0.139 C  
DOCKED: ATOM     19  C   UNL     1     139.146  79.271 222.291 -0.24 -0.01    +0.048 A  
DOCKED: ATOM     20  C   UNL     1     140.406  80.762 220.960 -0.23 -0.01    +0.029 C  
DOCKED: ATOM     21  C   UNL     1     138.168  78.857 223.203 -0.20 -0.00    +0.026 A  
DOCKED: ATOM     22  C   UNL     1     139.279  80.589 221.940 -0.21 +0.00    -0.015 A  
DOCKED: ATOM     23  C   UNL     1     141.412  81.837 221.396 -0.37 -0.01    +0.030 C  
DOCKED: ATOM     24  C   UNL     1     139.890  81.243 219.589 -0.10 -0.03    +0.098 C  
DOCKED: ATOM     25  C   UNL     1     137.296  79.820 223.735 -0.23 -0.00    +0.002 A  
DOCKED: ATOM     26  C   UNL     1     138.418  81.564 222.456 -0.21 -0.00    +0.006 A  
DOCKED: ATOM     27  C   UNL     1     141.337  82.899 220.309 -0.09 -0.02    +0.086 C  
DOCKED: ATOM     28  N   UNL     1     140.829  82.259 219.083 -0.09 +0.09    -0.294 NA 
DOCKED: ATOM     29  C   UNL     1     137.420  81.171 223.360 -0.25 -0.00    +0.000 A  
DOCKED: BRANCH  28  30
DOCKED: ATOM     30  C   UNL     1     141.927  81.661 218.273 -0.23 -0.06    +0.117 C  
DOCKED: ATOM     31  C   UNL     1     142.952  82.708 217.845 -0.18 -0.05    +0.086 C  
DOCKED: ATOM     32  C   UNL     1     141.433  81.114 216.934 -0.09 -0.18    +0.280 C  
DOCKED: ATOM     33  C   UNL     1     143.418  82.290 216.457 -0.15 -0.29    +0.262 C  
DOCKED: ATOM     34  N   UNL     1     142.538  81.218 215.983 -0.04 +0.40    -0.345 N  
DOCKED: ATOM     35  H   UNL     1     142.175  81.433 215.025 +0.05 -0.30    +0.346 HD 
DOCKED: ATOM     36  H   UNL     1     143.065  80.314 215.958 -0.42 -0.76    +0.346 HD 
DOCKED: ENDBRANCH  28  30
DOCKED: ENDBRANCH  15  17
DOCKED: ENDBRANCH   6  15
DOCKED: TORSDOF 5
DOCKED: TER
DOCKED: ENDMDL
________________________________________________________________________________


    FINAL DOCKED STATE:
    ________________________


Run:   10 / 20
Time taken for this run:   0.023s

DOCKED: MODEL        10
DOCKED: USER    Run = 10
DOCKED: USER
DOCKED: USER    Estimated Free Energy of Binding    =  -8.96 kcal/mol  [=(1)+(2)+(3)-(4)]
DOCKED: USER
DOCKED: USER    (1) Final Intermolecular Energy     = -10.45 kcal/mol
DOCKED: USER        vdW + Hbond + desolv Energy     =  -7.99 kcal/mol
DOCKED: USER        Electrostatic Energy            =  -2.46 kcal/mol
DOCKED: USER        Moving Ligand-Fixed Receptor    = -10.45 kcal/mol
DOCKED: USER        Moving Ligand-Moving Receptor   =  +0.00 kcal/mol
DOCKED: USER    (2) Final Total Internal Energy     =  -0.77 kcal/mol
DOCKED: USER    (3) Torsional Free Energy           =  +1.49 kcal/mol
DOCKED: USER    (4) Unbound System's Energy         =  -0.77 kcal/mol
DOCKED: USER
DOCKED: USER
DOCKED: REMARK SMILES [N-]=C(O)c1ccc2cc(C(=O)N3C[C@]4(CCN([C@@H]5CC[NH2+]C5)C4)c4ccccc43)[nH]c2c1
DOCKED: REMARK SMILES IDX 4 1 5 2 6 3 7 4 8 5 9 6 30 7 31 8 32 9 2 11 1 12 3 13 10 15
DOCKED: REMARK SMILES IDX 11 16 12 17 13 18 29 19 14 20 28 21 24 22 15 23 23 24 27 25
DOCKED: REMARK SMILES IDX 25 26 16 27 17 28 26 29 18 30 19 31 22 32 20 33 21 34
DOCKED: REMARK H PARENT 30 10 3 14 21 35 21 36
DOCKED: USER                              x       y       z     vdW  Elec       q    Type
DOCKED: USER                           _______ _______ _______ _____ _____    ______ ____
DOCKED: ROOT
DOCKED: ATOM      1  C   UNL     1     144.236  73.097 219.671 -0.32 +0.00    -0.006 A  
DOCKED: ATOM      2  C   UNL     1     143.345  72.048 220.032 -0.25 -0.00    +0.010 A  
DOCKED: ATOM      3  C   UNL     1     142.130  72.326 220.684 -0.23 -0.00    +0.011 A  
DOCKED: ATOM      4  C   UNL     1     141.834  73.655 220.968 -0.27 -0.00    +0.000 A  
DOCKED: ATOM      5  C   UNL     1     140.734  74.215 221.578 -0.30 -0.00    +0.042 A  
DOCKED: ATOM      6  C   UNL     1     140.984  75.586 221.582 -0.32 -0.03    +0.106 A  
DOCKED: ATOM      7  N   UNL     1     142.169  75.861 220.986 +0.20 +0.20    -0.350 N  
DOCKED: ATOM      8  C   UNL     1     142.679  74.673 220.625 -0.28 -0.02    +0.047 A  
DOCKED: ATOM      9  C   UNL     1     143.889  74.435 219.974 -0.39 -0.01    +0.036 A  
DOCKED: ATOM     10  H   UNL     1     142.602  76.800 220.840 -0.43 -0.15    +0.167 HD 
DOCKED: ENDROOT
DOCKED: BRANCH   1  11
DOCKED: ATOM     11  C   UNL     1     145.515  72.805 218.983 -0.32 -0.00    -0.000 C  
DOCKED: ATOM     12  N   UNL     1     146.322  71.906 219.445 -0.05 -0.90    -0.771 NA 
DOCKED: BRANCH  11  13
DOCKED: ATOM     13  O   UNL     1     145.859  73.500 217.825 -0.38 -0.18    -0.532 OA 
DOCKED: ATOM     14  H   UNL     1     145.673  74.492 217.733 -0.44 -0.15    +0.290 HD 
DOCKED: ENDBRANCH  11  13
DOCKED: ENDBRANCH   1  11
DOCKED: BRANCH   6  15
DOCKED: ATOM     15  C   UNL     1     140.079  76.628 222.103 -0.25 -0.07    +0.274 C  
DOCKED: ATOM     16  O   UNL     1     139.017  76.274 222.682 -0.29 +0.05    -0.267 OA 
DOCKED: BRANCH  15  17
DOCKED: ATOM     17  N   UNL     1     140.367  78.026 221.930 -0.14 +0.10    -0.306 N  
DOCKED: ATOM     18  C   UNL     1     141.110  78.568 220.789 -0.23 -0.06    +0.139 C  
DOCKED: ATOM     19  C   UNL     1     139.647  79.087 222.540 -0.30 -0.01    +0.048 A  
DOCKED: ATOM     20  C   UNL     1     140.651  80.060 220.636 -0.23 -0.01    +0.029 C  
DOCKED: ATOM     21  C   UNL     1     138.899  79.024 223.722 -0.18 -0.00    +0.026 A  
DOCKED: ATOM     22  C   UNL     1     139.798  80.265 221.856 -0.23 +0.00    -0.015 A  
DOCKED: ATOM     23  C   UNL     1     141.822  81.051 220.557 -0.28 -0.01    +0.030 C  
DOCKED: ATOM     24  C   UNL     1     139.848  80.301 219.342 -0.08 -0.03    +0.098 C  
DOCKED: ATOM     25  C   UNL     1     138.275  80.194 224.185 -0.38 -0.00    +0.002 A  
DOCKED: ATOM     26  C   UNL     1     139.181  81.441 222.299 -0.24 -0.00    +0.006 A  
DOCKED: ATOM     27  C   UNL     1     141.566  81.852 219.289 -0.21 -0.03    +0.086 C  
DOCKED: ATOM     28  N   UNL     1     140.711  81.040 218.404 -0.05 +0.12    -0.294 NA 
DOCKED: ATOM     29  C   UNL     1     138.414  81.399 223.473 -0.26 -0.00    +0.000 A  
DOCKED: BRANCH  28  30
DOCKED: ATOM     30  C   UNL     1     141.514  80.131 217.539 -0.17 -0.08    +0.117 C  
DOCKED: ATOM     31  C   UNL     1     140.905  78.734 217.464 -0.09 -0.04    +0.086 C  
DOCKED: ATOM     32  C   UNL     1     142.904  79.856 218.114 -0.09 -0.29    +0.280 C  
DOCKED: ATOM     33  C   UNL     1     142.082  77.771 217.390 -0.15 -0.17    +0.262 C  
DOCKED: ATOM     34  N   UNL     1     143.308  78.524 217.667 +0.01 +0.40    -0.345 N  
DOCKED: ATOM     35  H   UNL     1     143.877  78.049 218.407 -0.03 -0.34    +0.346 HD 
DOCKED: ATOM     36  H   UNL     1     143.878  78.606 216.793 -0.35 -0.74    +0.346 HD 
DOCKED: ENDBRANCH  28  30
DOCKED: ENDBRANCH  15  17
DOCKED: ENDBRANCH   6  15
DOCKED: TORSDOF 5
DOCKED: TER
DOCKED: ENDMDL
________________________________________________________________________________


    FINAL DOCKED STATE:
    ________________________


Run:   11 / 20
Time taken for this run:   0.023s

DOCKED: MODEL        11
DOCKED: USER    Run = 11
DOCKED: USER
DOCKED: USER    Estimated Free Energy of Binding    =  -8.18 kcal/mol  [=(1)+(2)+(3)-(4)]
DOCKED: USER
DOCKED: USER    (1) Final Intermolecular Energy     =  -9.67 kcal/mol
DOCKED: USER        vdW + Hbond + desolv Energy     =  -8.07 kcal/mol
DOCKED: USER        Electrostatic Energy            =  -1.60 kcal/mol
DOCKED: USER        Moving Ligand-Fixed Receptor    =  -9.67 kcal/mol
DOCKED: USER        Moving Ligand-Moving Receptor   =  +0.00 kcal/mol
DOCKED: USER    (2) Final Total Internal Energy     =  -0.81 kcal/mol
DOCKED: USER    (3) Torsional Free Energy           =  +1.49 kcal/mol
DOCKED: USER    (4) Unbound System's Energy         =  -0.81 kcal/mol
DOCKED: USER
DOCKED: USER
DOCKED: REMARK SMILES [N-]=C(O)c1ccc2cc(C(=O)N3C[C@]4(CCN([C@@H]5CC[NH2+]C5)C4)c4ccccc43)[nH]c2c1
DOCKED: REMARK SMILES IDX 4 1 5 2 6 3 7 4 8 5 9 6 30 7 31 8 32 9 2 11 1 12 3 13 10 15
DOCKED: REMARK SMILES IDX 11 16 12 17 13 18 29 19 14 20 28 21 24 22 15 23 23 24 27 25
DOCKED: REMARK SMILES IDX 25 26 16 27 17 28 26 29 18 30 19 31 22 32 20 33 21 34
DOCKED: REMARK H PARENT 30 10 3 14 21 35 21 36
DOCKED: USER                              x       y       z     vdW  Elec       q    Type
DOCKED: USER                           _______ _______ _______ _____ _____    ______ ____
DOCKED: ROOT
DOCKED: ATOM      1  C   UNL     1     144.586  73.548 219.838 -0.41 +0.00    -0.006 A  
DOCKED: ATOM      2  C   UNL     1     143.675  72.656 220.471 -0.33 -0.00    +0.010 A  
DOCKED: ATOM      3  C   UNL     1     142.440  73.116 220.963 -0.23 -0.00    +0.011 A  
DOCKED: ATOM      4  C   UNL     1     142.143  74.467 220.814 -0.30 -0.00    +0.000 A  
DOCKED: ATOM      5  C   UNL     1     141.026  75.183 221.183 -0.30 -0.01    +0.042 A  
DOCKED: ATOM      6  C   UNL     1     141.285  76.490 220.773 -0.25 -0.05    +0.106 A  
DOCKED: ATOM      7  N   UNL     1     142.492  76.573 220.165 -0.12 +0.23    -0.350 N  
DOCKED: ATOM      8  C   UNL     1     143.007  75.334 220.205 -0.29 -0.02    +0.047 A  
DOCKED: ATOM      9  C   UNL     1     144.237  74.913 219.702 -0.28 -0.02    +0.036 A  
DOCKED: ATOM     10  H   UNL     1     142.936  77.424 219.753 -0.21 -0.14    +0.167 HD 
DOCKED: ENDROOT
DOCKED: BRANCH   1  11
DOCKED: ATOM     11  C   UNL     1     145.886  73.064 219.318 -0.36 -0.00    -0.000 C  
DOCKED: ATOM     12  N   UNL     1     145.945  72.014 218.565 -0.27 -0.92    -0.771 NA 
DOCKED: BRANCH  11  13
DOCKED: ATOM     13  O   UNL     1     147.061  73.740 219.639 -0.21 -0.31    -0.532 OA 
DOCKED: ATOM     14  H   UNL     1     147.081  74.749 219.723 -0.36 -0.07    +0.290 HD 
DOCKED: ENDBRANCH  11  13
DOCKED: ENDBRANCH   1  11
DOCKED: BRANCH   6  15
DOCKED: ATOM     15  C   UNL     1     140.370  77.637 220.917 -0.13 -0.09    +0.274 C  
DOCKED: ATOM     16  O   UNL     1     139.131  77.418 221.000 -0.07 +0.07    -0.267 OA 
DOCKED: BRANCH  15  17
DOCKED: ATOM     17  N   UNL     1     140.857  78.989 220.926 -0.10 +0.12    -0.306 N  
DOCKED: ATOM     18  C   UNL     1     140.450  80.006 219.952 -0.13 -0.05    +0.139 C  
DOCKED: ATOM     19  C   UNL     1     141.414  79.647 222.055 -0.41 -0.02    +0.048 A  
DOCKED: ATOM     20  C   UNL     1     140.654  81.393 220.657 -0.25 -0.01    +0.029 C  
DOCKED: ATOM     21  C   UNL     1     142.024  79.045 223.161 -0.57 -0.01    +0.026 A  
DOCKED: ATOM     22  C   UNL     1     141.344  81.011 221.936 -0.41 +0.00    -0.015 A  
DOCKED: ATOM     23  C   UNL     1     141.468  82.388 219.817 -0.22 -0.01    +0.030 C  
DOCKED: ATOM     24  C   UNL     1     139.319  82.116 220.933 -0.14 -0.02    +0.098 C  
DOCKED: ATOM     25  C   UNL     1     142.543  79.868 224.173 -0.43 -0.00    +0.002 A  
DOCKED: ATOM     26  C   UNL     1     141.851  81.849 222.936 -0.40 -0.00    +0.006 A  
DOCKED: ATOM     27  C   UNL     1     140.601  83.636 219.748 -0.18 -0.02    +0.086 C  
DOCKED: ATOM     28  N   UNL     1     139.203  83.232 219.977 -0.05 +0.06    -0.294 NA 
DOCKED: ATOM     29  C   UNL     1     142.454  81.268 224.061 -0.63 -0.00    +0.000 A  
DOCKED: BRANCH  28  30
DOCKED: ATOM     30  C   UNL     1     138.529  82.825 218.713 -0.03 -0.03    +0.117 C  
DOCKED: ATOM     31  C   UNL     1     137.862  81.458 218.839 -0.02 -0.02    +0.086 C  
DOCKED: ATOM     32  C   UNL     1     139.519  82.606 217.569 -0.02 -0.08    +0.280 C  
DOCKED: ATOM     33  C   UNL     1     138.020  80.791 217.480 -0.00 -0.06    +0.262 C  
DOCKED: ATOM     34  N   UNL     1     138.946  81.597 216.680 +0.00 +0.10    -0.345 N  
DOCKED: ATOM     35  H   UNL     1     139.702  80.998 216.273 +0.03 -0.13    +0.346 HD 
DOCKED: ATOM     36  H   UNL     1     138.424  82.069 215.905 +0.01 -0.09    +0.346 HD 
DOCKED: ENDBRANCH  28  30
DOCKED: ENDBRANCH  15  17
DOCKED: ENDBRANCH   6  15
DOCKED: TORSDOF 5
DOCKED: TER
DOCKED: ENDMDL
________________________________________________________________________________


    FINAL DOCKED STATE:
    ________________________


Run:   12 / 20
Time taken for this run:   0.023s

DOCKED: MODEL        12
DOCKED: USER    Run = 12
DOCKED: USER
DOCKED: USER    Estimated Free Energy of Binding    =  -8.19 kcal/mol  [=(1)+(2)+(3)-(4)]
DOCKED: USER
DOCKED: USER    (1) Final Intermolecular Energy     =  -9.68 kcal/mol
DOCKED: USER        vdW + Hbond + desolv Energy     =  -8.39 kcal/mol
DOCKED: USER        Electrostatic Energy            =  -1.29 kcal/mol
DOCKED: USER        Moving Ligand-Fixed Receptor    =  -9.68 kcal/mol
DOCKED: USER        Moving Ligand-Moving Receptor   =  +0.00 kcal/mol
DOCKED: USER    (2) Final Total Internal Energy     =  -0.90 kcal/mol
DOCKED: USER    (3) Torsional Free Energy           =  +1.49 kcal/mol
DOCKED: USER    (4) Unbound System's Energy         =  -0.90 kcal/mol
DOCKED: USER
DOCKED: USER
DOCKED: REMARK SMILES [N-]=C(O)c1ccc2cc(C(=O)N3C[C@]4(CCN([C@@H]5CC[NH2+]C5)C4)c4ccccc43)[nH]c2c1
DOCKED: REMARK SMILES IDX 4 1 5 2 6 3 7 4 8 5 9 6 30 7 31 8 32 9 2 11 1 12 3 13 10 15
DOCKED: REMARK SMILES IDX 11 16 12 17 13 18 29 19 14 20 28 21 24 22 15 23 23 24 27 25
DOCKED: REMARK SMILES IDX 25 26 16 27 17 28 26 29 18 30 19 31 22 32 20 33 21 34
DOCKED: REMARK H PARENT 30 10 3 14 21 35 21 36
DOCKED: USER                              x       y       z     vdW  Elec       q    Type
DOCKED: USER                           _______ _______ _______ _____ _____    ______ ____
DOCKED: ROOT
DOCKED: ATOM      1  C   UNL     1     144.430  74.070 219.346 -0.32 +0.00    -0.006 A  
DOCKED: ATOM      2  C   UNL     1     143.940  74.635 218.135 -0.17 -0.00    +0.010 A  
DOCKED: ATOM      3  C   UNL     1     142.788  75.441 218.129 -0.19 -0.00    +0.011 A  
DOCKED: ATOM      4  C   UNL     1     142.142  75.662 219.341 -0.23 -0.00    +0.000 A  
DOCKED: ATOM      5  C   UNL     1     141.019  76.403 219.634 -0.15 -0.02    +0.042 A  
DOCKED: ATOM      6  C   UNL     1     140.847  76.266 221.011 -0.25 -0.04    +0.106 A  
DOCKED: ATOM      7  N   UNL     1     141.826  75.496 221.544 +0.01 +0.15    -0.350 N  
DOCKED: ATOM      8  C   UNL     1     142.603  75.129 220.513 -0.26 -0.02    +0.047 A  
DOCKED: ATOM      9  C   UNL     1     143.744  74.329 220.557 -0.36 -0.01    +0.036 A  
DOCKED: ATOM     10  H   UNL     1     141.951  75.236 222.548 -0.22 -0.03    +0.167 HD 
DOCKED: ENDROOT
DOCKED: BRANCH   1  11
DOCKED: ATOM     11  C   UNL     1     145.644  73.223 219.354 -0.38 -0.00    -0.000 C  
DOCKED: ATOM     12  N   UNL     1     146.309  73.015 218.264 -0.25 -0.99    -0.771 NA 
DOCKED: BRANCH  11  13
DOCKED: ATOM     13  O   UNL     1     146.082  72.640 220.541 -0.23 -0.08    -0.532 OA 
DOCKED: ATOM     14  H   UNL     1     145.628  71.817 220.921 -0.35 -0.10    +0.290 HD 
DOCKED: ENDBRANCH  11  13
DOCKED: ENDBRANCH   1  11
DOCKED: BRANCH   6  15
DOCKED: ATOM     15  C   UNL     1     139.789  76.904 221.816 -0.21 -0.07    +0.274 C  
DOCKED: ATOM     16  O   UNL     1     138.902  76.176 222.339 -0.26 +0.06    -0.267 OA 
DOCKED: BRANCH  15  17
DOCKED: ATOM     17  N   UNL     1     139.731  78.331 221.984 -0.11 +0.08    -0.306 N  
DOCKED: ATOM     18  C   UNL     1     138.479  79.088 222.065 -0.16 -0.03    +0.139 C  
DOCKED: ATOM     19  C   UNL     1     140.775  79.132 222.517 -0.38 -0.01    +0.048 A  
DOCKED: ATOM     20  C   UNL     1     138.811  80.397 222.865 -0.30 -0.00    +0.029 C  
DOCKED: ATOM     21  C   UNL     1     142.142  78.831 222.527 -0.42 -0.01    +0.026 A  
DOCKED: ATOM     22  C   UNL     1     140.305  80.323 223.005 -0.40 +0.00    -0.015 A  
DOCKED: ATOM     23  C   UNL     1     138.343  81.677 222.157 -0.18 -0.00    +0.030 C  
DOCKED: ATOM     24  C   UNL     1     138.118  80.438 224.243 -0.33 -0.01    +0.098 C  
DOCKED: ATOM     25  C   UNL     1     143.031  79.767 223.080 -0.60 -0.00    +0.002 A  
DOCKED: ATOM     26  C   UNL     1     141.174  81.268 223.563 -0.48 -0.00    +0.006 A  
DOCKED: ATOM     27  C   UNL     1     137.503  82.407 223.194 -0.11 -0.01    +0.086 C  
DOCKED: ATOM     28  N   UNL     1     137.017  81.413 224.167 -0.15 +0.03    -0.294 NA 
DOCKED: ATOM     29  C   UNL     1     142.548  80.982 223.599 -0.64 -0.00    +0.000 A  
DOCKED: BRANCH  28  30
DOCKED: ATOM     30  C   UNL     1     135.738  80.788 223.728 -0.14 -0.01    +0.117 C  
DOCKED: ATOM     31  C   UNL     1     135.815  79.264 223.747 -0.11 -0.01    +0.086 C  
DOCKED: ATOM     32  C   UNL     1     135.415  81.085 222.264 -0.03 -0.04    +0.280 C  
DOCKED: ATOM     33  C   UNL     1     134.977  78.791 222.567 -0.05 -0.03    +0.262 C  
DOCKED: ATOM     34  N   UNL     1     134.641  79.958 221.747 -0.00 +0.05    -0.345 N  
DOCKED: ATOM     35  H   UNL     1     134.876  79.786 220.742 +0.02 -0.05    +0.346 HD 
DOCKED: ATOM     36  H   UNL     1     133.619  80.167 221.832 +0.02 -0.04    +0.346 HD 
DOCKED: ENDBRANCH  28  30
DOCKED: ENDBRANCH  15  17
DOCKED: ENDBRANCH   6  15
DOCKED: TORSDOF 5
DOCKED: TER
DOCKED: ENDMDL
________________________________________________________________________________


    FINAL DOCKED STATE:
    ________________________


Run:   13 / 20
Time taken for this run:   0.023s

DOCKED: MODEL        13
DOCKED: USER    Run = 13
DOCKED: USER
DOCKED: USER    Estimated Free Energy of Binding    =  -8.39 kcal/mol  [=(1)+(2)+(3)-(4)]
DOCKED: USER
DOCKED: USER    (1) Final Intermolecular Energy     =  -9.88 kcal/mol
DOCKED: USER        vdW + Hbond + desolv Energy     =  -7.73 kcal/mol
DOCKED: USER        Electrostatic Energy            =  -2.16 kcal/mol
DOCKED: USER        Moving Ligand-Fixed Receptor    =  -9.88 kcal/mol
DOCKED: USER        Moving Ligand-Moving Receptor   =  +0.00 kcal/mol
DOCKED: USER    (2) Final Total Internal Energy     =  -0.89 kcal/mol
DOCKED: USER    (3) Torsional Free Energy           =  +1.49 kcal/mol
DOCKED: USER    (4) Unbound System's Energy         =  -0.89 kcal/mol
DOCKED: USER
DOCKED: USER
DOCKED: REMARK SMILES [N-]=C(O)c1ccc2cc(C(=O)N3C[C@]4(CCN([C@@H]5CC[NH2+]C5)C4)c4ccccc43)[nH]c2c1
DOCKED: REMARK SMILES IDX 4 1 5 2 6 3 7 4 8 5 9 6 30 7 31 8 32 9 2 11 1 12 3 13 10 15
DOCKED: REMARK SMILES IDX 11 16 12 17 13 18 29 19 14 20 28 21 24 22 15 23 23 24 27 25
DOCKED: REMARK SMILES IDX 25 26 16 27 17 28 26 29 18 30 19 31 22 32 20 33 21 34
DOCKED: REMARK H PARENT 30 10 3 14 21 35 21 36
DOCKED: USER                              x       y       z     vdW  Elec       q    Type
DOCKED: USER                           _______ _______ _______ _____ _____    ______ ____
DOCKED: ROOT
DOCKED: ATOM      1  C   UNL     1     144.432  74.154 218.812 -0.20 +0.00    -0.006 A  
DOCKED: ATOM      2  C   UNL     1     143.958  74.846 217.662 -0.15 -0.00    +0.010 A  
DOCKED: ATOM      3  C   UNL     1     142.880  75.744 217.753 -0.20 -0.01    +0.011 A  
DOCKED: ATOM      4  C   UNL     1     142.291  75.929 219.000 -0.24 -0.00    +0.000 A  
DOCKED: ATOM      5  C   UNL     1     141.245  76.738 219.385 -0.16 -0.02    +0.042 A  
DOCKED: ATOM      6  C   UNL     1     141.102  76.514 220.753 -0.24 -0.04    +0.106 A  
DOCKED: ATOM      7  N   UNL     1     142.026  75.627 221.195 +0.08 +0.18    -0.350 N  
DOCKED: ATOM      8  C   UNL     1     142.738  75.273 220.114 -0.32 -0.02    +0.047 A  
DOCKED: ATOM      9  C   UNL     1     143.806  74.379 220.061 -0.38 -0.01    +0.036 A  
DOCKED: ATOM     10  H   UNL     1     142.157  75.284 222.173 -0.44 -0.06    +0.167 HD 
DOCKED: ENDROOT
DOCKED: BRANCH   1  11
DOCKED: ATOM     11  C   UNL     1     145.568  73.209 218.716 -0.25 -0.00    -0.000 C  
DOCKED: ATOM     12  N   UNL     1     145.506  72.180 217.934 -0.29 -0.53    -0.771 NA 
DOCKED: BRANCH  11  13
DOCKED: ATOM     13  O   UNL     1     146.719  73.422 219.472 -0.45 -0.39    -0.532 OA 
DOCKED: ATOM     14  H   UNL     1     147.084  74.355 219.621 -0.38 +0.01    +0.290 HD 
DOCKED: ENDBRANCH  11  13
DOCKED: ENDBRANCH   1  11
DOCKED: BRANCH   6  15
DOCKED: ATOM     15  C   UNL     1     140.127  77.177 221.639 -0.20 -0.08    +0.274 C  
DOCKED: ATOM     16  O   UNL     1     139.209  76.485 222.156 -0.23 +0.06    -0.267 OA 
DOCKED: BRANCH  15  17
DOCKED: ATOM     17  N   UNL     1     140.182  78.592 221.889 -0.11 +0.09    -0.306 N  
DOCKED: ATOM     18  C   UNL     1     141.093  79.506 221.193 -0.26 -0.05    +0.139 C  
DOCKED: ATOM     19  C   UNL     1     139.137  79.358 222.471 -0.25 -0.01    +0.048 A  
DOCKED: ATOM     20  C   UNL     1     140.420  80.922 221.251 -0.26 -0.01    +0.029 C  
DOCKED: ATOM     21  C   UNL     1     138.122  78.890 223.313 -0.15 -0.00    +0.026 A  
DOCKED: ATOM     22  C   UNL     1     139.245  80.688 222.158 -0.23 +0.00    -0.015 A  
DOCKED: ATOM     23  C   UNL     1     141.360  82.020 221.769 -0.38 -0.01    +0.030 C  
DOCKED: ATOM     24  C   UNL     1     139.969  81.419 219.863 -0.12 -0.03    +0.098 C  
DOCKED: ATOM     25  C   UNL     1     137.188  79.810 223.814 -0.22 -0.00    +0.002 A  
DOCKED: ATOM     26  C   UNL     1     138.321  81.621 222.643 -0.22 -0.00    +0.006 A  
DOCKED: ATOM     27  C   UNL     1     141.313  83.105 220.704 -0.04 -0.02    +0.086 C  
DOCKED: ATOM     28  N   UNL     1     140.900  82.478 219.436 -0.10 +0.09    -0.294 NA 
DOCKED: ATOM     29  C   UNL     1     137.286  81.173 223.478 -0.25 -0.00    +0.000 A  
DOCKED: BRANCH  28  30
DOCKED: ATOM     30  C   UNL     1     142.064  81.937 218.680 -0.14 -0.06    +0.117 C  
DOCKED: ATOM     31  C   UNL     1     142.382  82.779 217.448 -0.24 -0.05    +0.086 C  
DOCKED: ATOM     32  C   UNL     1     141.779  80.562 218.077 -0.17 -0.18    +0.280 C  
DOCKED: ATOM     33  C   UNL     1     142.854  81.798 216.384 -0.07 -0.29    +0.262 C  
DOCKED: ATOM     34  N   UNL     1     142.585  80.440 216.863 -0.01 +0.44    -0.345 N  
DOCKED: ATOM     35  H   UNL     1     142.071  79.885 216.139 +0.00 -0.36    +0.346 HD 
DOCKED: ATOM     36  H   UNL     1     143.487  79.960 217.089 -0.44 -0.79    +0.346 HD 
DOCKED: ENDBRANCH  28  30
DOCKED: ENDBRANCH  15  17
DOCKED: ENDBRANCH   6  15
DOCKED: TORSDOF 5
DOCKED: TER
DOCKED: ENDMDL
________________________________________________________________________________


    FINAL DOCKED STATE:
    ________________________


Run:   14 / 20
Time taken for this run:   0.023s

DOCKED: MODEL        14
DOCKED: USER    Run = 14
DOCKED: USER
DOCKED: USER    Estimated Free Energy of Binding    =  -8.11 kcal/mol  [=(1)+(2)+(3)-(4)]
DOCKED: USER
DOCKED: USER    (1) Final Intermolecular Energy     =  -9.61 kcal/mol
DOCKED: USER        vdW + Hbond + desolv Energy     =  -8.63 kcal/mol
DOCKED: USER        Electrostatic Energy            =  -0.97 kcal/mol
DOCKED: USER        Moving Ligand-Fixed Receptor    =  -9.61 kcal/mol
DOCKED: USER        Moving Ligand-Moving Receptor   =  +0.00 kcal/mol
DOCKED: USER    (2) Final Total Internal Energy     =  -0.91 kcal/mol
DOCKED: USER    (3) Torsional Free Energy           =  +1.49 kcal/mol
DOCKED: USER    (4) Unbound System's Energy         =  -0.91 kcal/mol
DOCKED: USER
DOCKED: USER
DOCKED: REMARK SMILES [N-]=C(O)c1ccc2cc(C(=O)N3C[C@]4(CCN([C@@H]5CC[NH2+]C5)C4)c4ccccc43)[nH]c2c1
DOCKED: REMARK SMILES IDX 4 1 5 2 6 3 7 4 8 5 9 6 30 7 31 8 32 9 2 11 1 12 3 13 10 15
DOCKED: REMARK SMILES IDX 11 16 12 17 13 18 29 19 14 20 28 21 24 22 15 23 23 24 27 25
DOCKED: REMARK SMILES IDX 25 26 16 27 17 28 26 29 18 30 19 31 22 32 20 33 21 34
DOCKED: REMARK H PARENT 30 10 3 14 21 35 21 36
DOCKED: USER                              x       y       z     vdW  Elec       q    Type
DOCKED: USER                           _______ _______ _______ _____ _____    ______ ____
DOCKED: ROOT
DOCKED: ATOM      1  C   UNL     1     144.347  74.119 219.009 -0.25 +0.00    -0.006 A  
DOCKED: ATOM      2  C   UNL     1     143.764  74.654 217.827 -0.18 -0.00    +0.010 A  
DOCKED: ATOM      3  C   UNL     1     142.594  75.434 217.889 -0.16 -0.00    +0.011 A  
DOCKED: ATOM      4  C   UNL     1     142.027  75.657 219.139 -0.20 -0.00    +0.000 A  
DOCKED: ATOM      5  C   UNL     1     140.909  76.376 219.498 -0.13 -0.02    +0.042 A  
DOCKED: ATOM      6  C   UNL     1     140.833  76.255 220.885 -0.24 -0.04    +0.106 A  
DOCKED: ATOM      7  N   UNL     1     141.864  75.515 221.360 +0.00 +0.15    -0.350 N  
DOCKED: ATOM      8  C   UNL     1     142.578  75.151 220.283 -0.29 -0.02    +0.047 A  
DOCKED: ATOM      9  C   UNL     1     143.738  74.378 220.260 -0.38 -0.01    +0.036 A  
DOCKED: ATOM     10  H   UNL     1     142.062  75.272 222.357 -0.37 -0.05    +0.167 HD 
DOCKED: ENDROOT
DOCKED: BRANCH   1  11
DOCKED: ATOM     11  C   UNL     1     145.579  73.299 218.945 -0.28 -0.00    -0.000 C  
DOCKED: ATOM     12  N   UNL     1     145.630  72.243 218.201 -0.37 -0.63    -0.771 NA 
DOCKED: BRANCH  11  13
DOCKED: ATOM     13  O   UNL     1     146.699  73.662 219.691 -0.38 -0.22    -0.532 OA 
DOCKED: ATOM     14  H   UNL     1     147.231  74.495 219.467 -0.41 -0.01    +0.290 HD 
DOCKED: ENDBRANCH  11  13
DOCKED: ENDBRANCH   1  11
DOCKED: BRANCH   6  15
DOCKED: ATOM     15  C   UNL     1     139.817  76.879 221.752 -0.21 -0.07    +0.274 C  
DOCKED: ATOM     16  O   UNL     1     138.974  76.140 222.329 -0.27 +0.06    -0.267 OA 
DOCKED: BRANCH  15  17
DOCKED: ATOM     17  N   UNL     1     139.748  78.306 221.920 -0.11 +0.08    -0.306 N  
DOCKED: ATOM     18  C   UNL     1     138.491  79.056 221.982 -0.16 -0.03    +0.139 C  
DOCKED: ATOM     19  C   UNL     1     140.779  79.112 222.471 -0.38 -0.01    +0.048 A  
DOCKED: ATOM     20  C   UNL     1     138.802  80.366 222.788 -0.29 -0.00    +0.029 C  
DOCKED: ATOM     21  C   UNL     1     142.147  78.819 222.503 -0.41 -0.01    +0.026 A  
DOCKED: ATOM     22  C   UNL     1     140.294  80.300 222.952 -0.40 +0.00    -0.015 A  
DOCKED: ATOM     23  C   UNL     1     138.339  81.644 222.074 -0.18 -0.00    +0.030 C  
DOCKED: ATOM     24  C   UNL     1     138.087  80.402 224.154 -0.32 -0.01    +0.098 C  
DOCKED: ATOM     25  C   UNL     1     143.022  79.759 223.071 -0.60 -0.00    +0.002 A  
DOCKED: ATOM     26  C   UNL     1     141.149  81.249 223.526 -0.48 -0.00    +0.006 A  
DOCKED: ATOM     27  C   UNL     1     137.478  82.369 223.097 -0.14 -0.01    +0.086 C  
DOCKED: ATOM     28  N   UNL     1     136.981  81.371 224.061 -0.14 +0.03    -0.294 NA 
DOCKED: ATOM     29  C   UNL     1     142.523  80.971 223.583 -0.64 -0.00    +0.000 A  
DOCKED: BRANCH  28  30
DOCKED: ATOM     30  C   UNL     1     135.713  80.739 223.601 -0.13 -0.01    +0.117 C  
DOCKED: ATOM     31  C   UNL     1     134.555  81.033 224.551 -0.11 -0.01    +0.086 C  
DOCKED: ATOM     32  C   UNL     1     135.781  79.212 223.624 -0.06 -0.03    +0.280 C  
DOCKED: ATOM     33  C   UNL     1     133.692  79.779 224.555 -0.07 -0.03    +0.262 C  
DOCKED: ATOM     34  N   UNL     1     134.426  78.717 223.862 -0.05 +0.04    -0.345 N  
DOCKED: ATOM     35  H   UNL     1     134.454  77.845 224.442 +0.09 -0.04    +0.346 HD 
DOCKED: ATOM     36  H   UNL     1     133.964  78.508 222.946 +0.05 -0.04    +0.346 HD 
DOCKED: ENDBRANCH  28  30
DOCKED: ENDBRANCH  15  17
DOCKED: ENDBRANCH   6  15
DOCKED: TORSDOF 5
DOCKED: TER
DOCKED: ENDMDL
________________________________________________________________________________


    FINAL DOCKED STATE:
    ________________________


Run:   15 / 20
Time taken for this run:   0.023s

DOCKED: MODEL        15
DOCKED: USER    Run = 15
DOCKED: USER
DOCKED: USER    Estimated Free Energy of Binding    =  -8.96 kcal/mol  [=(1)+(2)+(3)-(4)]
DOCKED: USER
DOCKED: USER    (1) Final Intermolecular Energy     = -10.45 kcal/mol
DOCKED: USER        vdW + Hbond + desolv Energy     =  -8.26 kcal/mol
DOCKED: USER        Electrostatic Energy            =  -2.19 kcal/mol
DOCKED: USER        Moving Ligand-Fixed Receptor    = -10.45 kcal/mol
DOCKED: USER        Moving Ligand-Moving Receptor   =  +0.00 kcal/mol
DOCKED: USER    (2) Final Total Internal Energy     =  -0.84 kcal/mol
DOCKED: USER    (3) Torsional Free Energy           =  +1.49 kcal/mol
DOCKED: USER    (4) Unbound System's Energy         =  -0.84 kcal/mol
DOCKED: USER
DOCKED: USER
DOCKED: REMARK SMILES [N-]=C(O)c1ccc2cc(C(=O)N3C[C@]4(CCN([C@@H]5CC[NH2+]C5)C4)c4ccccc43)[nH]c2c1
DOCKED: REMARK SMILES IDX 4 1 5 2 6 3 7 4 8 5 9 6 30 7 31 8 32 9 2 11 1 12 3 13 10 15
DOCKED: REMARK SMILES IDX 11 16 12 17 13 18 29 19 14 20 28 21 24 22 15 23 23 24 27 25
DOCKED: REMARK SMILES IDX 25 26 16 27 17 28 26 29 18 30 19 31 22 32 20 33 21 34
DOCKED: REMARK H PARENT 30 10 3 14 21 35 21 36
DOCKED: USER                              x       y       z     vdW  Elec       q    Type
DOCKED: USER                           _______ _______ _______ _____ _____    ______ ____
DOCKED: ROOT
DOCKED: ATOM      1  C   UNL     1     144.109  73.212 220.204 -0.38 +0.00    -0.006 A  
DOCKED: ATOM      2  C   UNL     1     143.141  72.172 220.285 -0.26 -0.00    +0.010 A  
DOCKED: ATOM      3  C   UNL     1     141.811  72.451 220.648 -0.21 -0.00    +0.011 A  
DOCKED: ATOM      4  C   UNL     1     141.477  73.772 220.929 -0.27 -0.00    +0.000 A  
DOCKED: ATOM      5  C   UNL     1     140.273  74.332 221.294 -0.26 -0.01    +0.042 A  
DOCKED: ATOM      6  C   UNL     1     140.537  75.693 221.434 -0.29 -0.03    +0.106 A  
DOCKED: ATOM      7  N   UNL     1     141.834  75.963 221.150 -0.02 +0.18    -0.350 N  
DOCKED: ATOM      8  C   UNL     1     142.396  74.781 220.852 -0.26 -0.02    +0.047 A  
DOCKED: ATOM      9  C   UNL     1     143.721  74.542 220.492 -0.37 -0.01    +0.036 A  
DOCKED: ATOM     10  H   UNL     1     142.304  76.896 221.164 -0.45 -0.14    +0.167 HD 
DOCKED: ENDROOT
DOCKED: BRANCH   1  11
DOCKED: ATOM     11  C   UNL     1     145.509  72.918 219.820 -0.48 -0.00    -0.000 C  
DOCKED: ATOM     12  N   UNL     1     145.856  72.879 218.574 -0.45 -0.59    -0.771 NA 
DOCKED: BRANCH  11  13
DOCKED: ATOM     13  O   UNL     1     146.468  72.681 220.803 -0.16 -0.09    -0.532 OA 
DOCKED: ATOM     14  H   UNL     1     146.306  72.008 221.543 -0.37 -0.17    +0.290 HD 
DOCKED: ENDBRANCH  11  13
DOCKED: ENDBRANCH   1  11
DOCKED: BRANCH   6  15
DOCKED: ATOM     15  C   UNL     1     139.552  76.732 221.786 -0.20 -0.06    +0.274 C  
DOCKED: ATOM     16  O   UNL     1     138.379  76.380 222.086 -0.19 +0.06    -0.267 OA 
DOCKED: BRANCH  15  17
DOCKED: ATOM     17  N   UNL     1     139.892  78.129 221.759 -0.10 +0.08    -0.306 N  
DOCKED: ATOM     18  C   UNL     1     140.764  78.733 220.746 -0.20 -0.05    +0.139 C  
DOCKED: ATOM     19  C   UNL     1     139.141  79.163 222.377 -0.25 -0.01    +0.048 A  
DOCKED: ATOM     20  C   UNL     1     140.362  80.247 220.671 -0.20 -0.01    +0.029 C  
DOCKED: ATOM     21  C   UNL     1     138.274  79.033 223.469 -0.20 -0.00    +0.026 A  
DOCKED: ATOM     22  C   UNL     1     139.394  80.385 221.811 -0.20 +0.00    -0.015 A  
DOCKED: ATOM     23  C   UNL     1     141.560  81.200 220.791 -0.33 -0.01    +0.030 C  
DOCKED: ATOM     24  C   UNL     1     139.704  80.617 219.326 -0.07 -0.03    +0.098 C  
DOCKED: ATOM     25  C   UNL     1     137.637  80.183 223.961 -0.31 -0.00    +0.002 A  
DOCKED: ATOM     26  C   UNL     1     138.765  81.543 222.284 -0.22 -0.00    +0.006 A  
DOCKED: ATOM     27  C   UNL     1     141.458  82.107 219.573 -0.22 -0.03    +0.086 C  
DOCKED: ATOM     28  N   UNL     1     140.679  81.397 218.544 -0.05 +0.11    -0.294 NA 
DOCKED: ATOM     29  C   UNL     1     137.880  81.435 223.367 -0.27 -0.00    +0.000 A  
DOCKED: BRANCH  28  30
DOCKED: ATOM     30  C   UNL     1     141.543  80.532 217.693 -0.18 -0.07    +0.117 C  
DOCKED: ATOM     31  C   UNL     1     140.916  79.161 217.456 -0.10 -0.05    +0.086 C  
DOCKED: ATOM     32  C   UNL     1     142.865  80.179 218.374 -0.03 -0.26    +0.280 C  
DOCKED: ATOM     33  C   UNL     1     142.075  78.174 217.421 -0.16 -0.19    +0.262 C  
DOCKED: ATOM     34  N   UNL     1     143.283  78.872 217.869 -0.01 +0.41    -0.345 N  
DOCKED: ATOM     35  H   UNL     1     143.768  78.329 218.621 -0.19 -0.37    +0.346 HD 
DOCKED: ATOM     36  H   UNL     1     143.935  79.001 217.061 -0.33 -0.85    +0.346 HD 
DOCKED: ENDBRANCH  28  30
DOCKED: ENDBRANCH  15  17
DOCKED: ENDBRANCH   6  15
DOCKED: TORSDOF 5
DOCKED: TER
DOCKED: ENDMDL
________________________________________________________________________________


    FINAL DOCKED STATE:
    ________________________


Run:   16 / 20
Time taken for this run:   0.023s

DOCKED: MODEL        16
DOCKED: USER    Run = 16
DOCKED: USER
DOCKED: USER    Estimated Free Energy of Binding    =  -8.20 kcal/mol  [=(1)+(2)+(3)-(4)]
DOCKED: USER
DOCKED: USER    (1) Final Intermolecular Energy     =  -9.70 kcal/mol
DOCKED: USER        vdW + Hbond + desolv Energy     =  -7.29 kcal/mol
DOCKED: USER        Electrostatic Energy            =  -2.40 kcal/mol
DOCKED: USER        Moving Ligand-Fixed Receptor    =  -9.70 kcal/mol
DOCKED: USER        Moving Ligand-Moving Receptor   =  +0.00 kcal/mol
DOCKED: USER    (2) Final Total Internal Energy     =  -0.90 kcal/mol
DOCKED: USER    (3) Torsional Free Energy           =  +1.49 kcal/mol
DOCKED: USER    (4) Unbound System's Energy         =  -0.90 kcal/mol
DOCKED: USER
DOCKED: USER
DOCKED: REMARK SMILES [N-]=C(O)c1ccc2cc(C(=O)N3C[C@]4(CCN([C@@H]5CC[NH2+]C5)C4)c4ccccc43)[nH]c2c1
DOCKED: REMARK SMILES IDX 4 1 5 2 6 3 7 4 8 5 9 6 30 7 31 8 32 9 2 11 1 12 3 13 10 15
DOCKED: REMARK SMILES IDX 11 16 12 17 13 18 29 19 14 20 28 21 24 22 15 23 23 24 27 25
DOCKED: REMARK SMILES IDX 25 26 16 27 17 28 26 29 18 30 19 31 22 32 20 33 21 34
DOCKED: REMARK H PARENT 30 10 3 14 21 35 21 36
DOCKED: USER                              x       y       z     vdW  Elec       q    Type
DOCKED: USER                           _______ _______ _______ _____ _____    ______ ____
DOCKED: ROOT
DOCKED: ATOM      1  C   UNL     1     144.289  73.929 218.334 -0.19 +0.00    -0.006 A  
DOCKED: ATOM      2  C   UNL     1     143.674  74.540 217.206 -0.15 -0.00    +0.010 A  
DOCKED: ATOM      3  C   UNL     1     142.630  75.470 217.370 -0.14 -0.00    +0.011 A  
DOCKED: ATOM      4  C   UNL     1     142.219  75.765 218.665 -0.19 -0.00    +0.000 A  
DOCKED: ATOM      5  C   UNL     1     141.246  76.626 219.120 -0.14 -0.02    +0.042 A  
DOCKED: ATOM      6  C   UNL     1     141.286  76.513 220.509 -0.23 -0.05    +0.106 A  
DOCKED: ATOM      7  N   UNL     1     142.249  75.641 220.893 +0.04 +0.19    -0.350 N  
DOCKED: ATOM      8  C   UNL     1     142.803  75.187 219.758 -0.30 -0.02    +0.047 A  
DOCKED: ATOM      9  C   UNL     1     143.842  74.265 219.634 -0.34 -0.01    +0.036 A  
DOCKED: ATOM     10  H   UNL     1     142.507  75.372 221.869 -0.47 -0.10    +0.167 HD 
DOCKED: ENDROOT
DOCKED: BRANCH   1  11
DOCKED: ATOM     11  C   UNL     1     145.389  72.952 218.163 -0.22 -0.00    -0.000 C  
DOCKED: ATOM     12  N   UNL     1     145.165  71.682 218.267 -0.04 -0.35    -0.771 NA 
DOCKED: BRANCH  11  13
DOCKED: ATOM     13  O   UNL     1     146.681  73.396 217.888 -0.27 -0.64    -0.532 OA 
DOCKED: ATOM     14  H   UNL     1     146.900  74.384 217.851 -0.37 -0.04    +0.290 HD 
DOCKED: ENDBRANCH  11  13
DOCKED: ENDBRANCH   1  11
DOCKED: BRANCH   6  15
DOCKED: ATOM     15  C   UNL     1     140.450  77.267 221.461 -0.20 -0.09    +0.274 C  
DOCKED: ATOM     16  O   UNL     1     139.664  76.630 222.215 -0.26 +0.06    -0.267 OA 
DOCKED: BRANCH  15  17
DOCKED: ATOM     17  N   UNL     1     140.486  78.703 221.519 -0.10 +0.10    -0.306 N  
DOCKED: ATOM     18  C   UNL     1     141.010  79.546 220.440 -0.21 -0.06    +0.139 C  
DOCKED: ATOM     19  C   UNL     1     139.669  79.506 222.358 -0.27 -0.01    +0.048 A  
DOCKED: ATOM     20  C   UNL     1     140.301  80.937 220.589 -0.20 -0.01    +0.029 C  
DOCKED: ATOM     21  C   UNL     1     139.067  79.120 223.561 -0.31 -0.00    +0.026 A  
DOCKED: ATOM     22  C   UNL     1     139.556  80.787 221.885 -0.22 +0.00    -0.015 A  
DOCKED: ATOM     23  C   UNL     1     141.280  82.120 220.600 -0.29 -0.01    +0.030 C  
DOCKED: ATOM     24  C   UNL     1     139.341  81.238 219.420 -0.06 -0.03    +0.098 C  
DOCKED: ATOM     25  C   UNL     1     138.311  80.069 224.269 -0.32 -0.00    +0.002 A  
DOCKED: ATOM     26  C   UNL     1     138.804  81.747 222.573 -0.21 -0.00    +0.006 A  
DOCKED: ATOM     27  C   UNL     1     140.768  83.057 219.517 -0.18 -0.02    +0.086 C  
DOCKED: ATOM     28  N   UNL     1     139.972  82.261 218.567 -0.03 +0.09    -0.294 NA 
DOCKED: ATOM     29  C   UNL     1     138.179  81.379 223.774 -0.28 -0.00    +0.000 A  
DOCKED: BRANCH  28  30
DOCKED: ATOM     30  C   UNL     1     140.819  81.662 217.498 -0.10 -0.05    +0.117 C  
DOCKED: ATOM     31  C   UNL     1     140.541  80.172 217.322 -0.07 -0.04    +0.086 C  
DOCKED: ATOM     32  C   UNL     1     142.306  81.682 217.853 -0.19 -0.19    +0.280 C  
DOCKED: ATOM     33  C   UNL     1     141.882  79.537 216.977 -0.13 -0.22    +0.262 C  
DOCKED: ATOM     34  N   UNL     1     142.930  80.538 217.192 +0.12 +0.48    -0.345 N  
DOCKED: ATOM     35  H   UNL     1     143.699  80.148 217.787 -0.35 -0.59    +0.346 HD 
DOCKED: ATOM     36  H   UNL     1     143.325  80.838 216.270 -0.41 -0.77    +0.346 HD 
DOCKED: ENDBRANCH  28  30
DOCKED: ENDBRANCH  15  17
DOCKED: ENDBRANCH   6  15
DOCKED: TORSDOF 5
DOCKED: TER
DOCKED: ENDMDL
________________________________________________________________________________


    FINAL DOCKED STATE:
    ________________________


Run:   17 / 20
Time taken for this run:   0.023s

DOCKED: MODEL        17
DOCKED: USER    Run = 17
DOCKED: USER
DOCKED: USER    Estimated Free Energy of Binding    =  -8.17 kcal/mol  [=(1)+(2)+(3)-(4)]
DOCKED: USER
DOCKED: USER    (1) Final Intermolecular Energy     =  -9.66 kcal/mol
DOCKED: USER        vdW + Hbond + desolv Energy     =  -7.78 kcal/mol
DOCKED: USER        Electrostatic Energy            =  -1.88 kcal/mol
DOCKED: USER        Moving Ligand-Fixed Receptor    =  -9.66 kcal/mol
DOCKED: USER        Moving Ligand-Moving Receptor   =  +0.00 kcal/mol
DOCKED: USER    (2) Final Total Internal Energy     =  -0.80 kcal/mol
DOCKED: USER    (3) Torsional Free Energy           =  +1.49 kcal/mol
DOCKED: USER    (4) Unbound System's Energy         =  -0.80 kcal/mol
DOCKED: USER
DOCKED: USER
DOCKED: REMARK SMILES [N-]=C(O)c1ccc2cc(C(=O)N3C[C@]4(CCN([C@@H]5CC[NH2+]C5)C4)c4ccccc43)[nH]c2c1
DOCKED: REMARK SMILES IDX 4 1 5 2 6 3 7 4 8 5 9 6 30 7 31 8 32 9 2 11 1 12 3 13 10 15
DOCKED: REMARK SMILES IDX 11 16 12 17 13 18 29 19 14 20 28 21 24 22 15 23 23 24 27 25
DOCKED: REMARK SMILES IDX 25 26 16 27 17 28 26 29 18 30 19 31 22 32 20 33 21 34
DOCKED: REMARK H PARENT 30 10 3 14 21 35 21 36
DOCKED: USER                              x       y       z     vdW  Elec       q    Type
DOCKED: USER                           _______ _______ _______ _____ _____    ______ ____
DOCKED: ROOT
DOCKED: ATOM      1  C   UNL     1     144.543  73.140 219.871 -0.39 +0.00    -0.006 A  
DOCKED: ATOM      2  C   UNL     1     143.590  72.273 220.475 -0.31 -0.00    +0.010 A  
DOCKED: ATOM      3  C   UNL     1     142.365  72.771 220.956 -0.24 -0.00    +0.011 A  
DOCKED: ATOM      4  C   UNL     1     142.122  74.134 220.827 -0.29 -0.00    +0.000 A  
DOCKED: ATOM      5  C   UNL     1     141.027  74.885 221.192 -0.30 -0.01    +0.042 A  
DOCKED: ATOM      6  C   UNL     1     141.342  76.189 220.811 -0.25 -0.05    +0.106 A  
DOCKED: ATOM      7  N   UNL     1     142.561  76.237 220.222 -0.10 +0.22    -0.350 N  
DOCKED: ATOM      8  C   UNL     1     143.027  74.978 220.247 -0.32 -0.02    +0.047 A  
DOCKED: ATOM      9  C   UNL     1     144.249  74.519 219.755 -0.37 -0.01    +0.036 A  
DOCKED: ATOM     10  H   UNL     1     143.043  77.077 219.832 -0.12 -0.14    +0.167 HD 
DOCKED: ENDROOT
DOCKED: BRANCH   1  11
DOCKED: ATOM     11  C   UNL     1     145.832  72.616 219.363 -0.30 -0.00    -0.000 C  
DOCKED: ATOM     12  N   UNL     1     146.310  73.025 218.232 -0.24 -0.99    -0.771 NA 
DOCKED: BRANCH  11  13
DOCKED: ATOM     13  O   UNL     1     146.543  71.673 220.102 -0.06 -0.38    -0.532 OA 
DOCKED: ATOM     14  H   UNL     1     146.380  71.552 221.095 -0.32 -0.15    +0.290 HD 
DOCKED: ENDBRANCH  11  13
DOCKED: ENDBRANCH   1  11
DOCKED: BRANCH   6  15
DOCKED: ATOM     15  C   UNL     1     140.469  77.367 220.961 -0.15 -0.10    +0.274 C  
DOCKED: ATOM     16  O   UNL     1     139.233  77.188 221.138 -0.09 +0.07    -0.267 OA 
DOCKED: BRANCH  15  17
DOCKED: ATOM     17  N   UNL     1     140.991  78.704 220.873 -0.11 +0.13    -0.306 N  
DOCKED: ATOM     18  C   UNL     1     140.733  79.604 219.745 -0.15 -0.05    +0.139 C  
DOCKED: ATOM     19  C   UNL     1     141.426  79.483 221.978 -0.40 -0.02    +0.048 A  
DOCKED: ATOM     20  C   UNL     1     140.890  81.062 220.304 -0.25 -0.01    +0.029 C  
DOCKED: ATOM     21  C   UNL     1     141.880  79.008 223.213 -0.57 -0.01    +0.026 A  
DOCKED: ATOM     22  C   UNL     1     141.409  80.824 221.694 -0.40 +0.00    -0.015 A  
DOCKED: ATOM     23  C   UNL     1     141.828  81.938 219.461 -0.15 -0.01    +0.030 C  
DOCKED: ATOM     24  C   UNL     1     139.554  81.832 220.327 -0.12 -0.02    +0.098 C  
DOCKED: ATOM     25  C   UNL     1     142.296  79.939 224.179 -0.49 -0.00    +0.002 A  
DOCKED: ATOM     26  C   UNL     1     141.816  81.768 222.644 -0.45 -0.00    +0.006 A  
DOCKED: ATOM     27  C   UNL     1     141.012  83.181 219.141 -0.17 -0.02    +0.086 C  
DOCKED: ATOM     28  N   UNL     1     139.586  82.827 219.241 -0.03 +0.07    -0.294 NA 
DOCKED: ATOM     29  C   UNL     1     142.262  81.316 223.895 -0.63 -0.00    +0.000 A  
DOCKED: BRANCH  28  30
DOCKED: ATOM     30  C   UNL     1     139.058  82.282 217.959 -0.03 -0.03    +0.117 C  
DOCKED: ATOM     31  C   UNL     1     138.348  80.946 218.159 -0.02 -0.02    +0.086 C  
DOCKED: ATOM     32  C   UNL     1     140.172  81.922 216.977 -0.02 -0.10    +0.280 C  
DOCKED: ATOM     33  C   UNL     1     138.651  80.124 216.914 -0.00 -0.07    +0.262 C  
DOCKED: ATOM     34  N   UNL     1     139.685  80.822 216.146 +0.00 +0.13    -0.345 N  
DOCKED: ATOM     35  H   UNL     1     140.470  80.172 215.904 +0.04 -0.17    +0.346 HD 
DOCKED: ATOM     36  H   UNL     1     139.271  81.206 215.264 +0.02 -0.11    +0.346 HD 
DOCKED: ENDBRANCH  28  30
DOCKED: ENDBRANCH  15  17
DOCKED: ENDBRANCH   6  15
DOCKED: TORSDOF 5
DOCKED: TER
DOCKED: ENDMDL
________________________________________________________________________________


    FINAL DOCKED STATE:
    ________________________


Run:   18 / 20
Time taken for this run:   0.023s

DOCKED: MODEL        18
DOCKED: USER    Run = 18
DOCKED: USER
DOCKED: USER    Estimated Free Energy of Binding    =  -8.94 kcal/mol  [=(1)+(2)+(3)-(4)]
DOCKED: USER
DOCKED: USER    (1) Final Intermolecular Energy     = -10.43 kcal/mol
DOCKED: USER        vdW + Hbond + desolv Energy     =  -8.12 kcal/mol
DOCKED: USER        Electrostatic Energy            =  -2.31 kcal/mol
DOCKED: USER        Moving Ligand-Fixed Receptor    = -10.43 kcal/mol
DOCKED: USER        Moving Ligand-Moving Receptor   =  +0.00 kcal/mol
DOCKED: USER    (2) Final Total Internal Energy     =  -0.84 kcal/mol
DOCKED: USER    (3) Torsional Free Energy           =  +1.49 kcal/mol
DOCKED: USER    (4) Unbound System's Energy         =  -0.84 kcal/mol
DOCKED: USER
DOCKED: USER
DOCKED: REMARK SMILES [N-]=C(O)c1ccc2cc(C(=O)N3C[C@]4(CCN([C@@H]5CC[NH2+]C5)C4)c4ccccc43)[nH]c2c1
DOCKED: REMARK SMILES IDX 4 1 5 2 6 3 7 4 8 5 9 6 30 7 31 8 32 9 2 11 1 12 3 13 10 15
DOCKED: REMARK SMILES IDX 11 16 12 17 13 18 29 19 14 20 28 21 24 22 15 23 23 24 27 25
DOCKED: REMARK SMILES IDX 25 26 16 27 17 28 26 29 18 30 19 31 22 32 20 33 21 34
DOCKED: REMARK H PARENT 30 10 3 14 21 35 21 36
DOCKED: USER                              x       y       z     vdW  Elec       q    Type
DOCKED: USER                           _______ _______ _______ _____ _____    ______ ____
DOCKED: ROOT
DOCKED: ATOM      1  C   UNL     1     144.247  73.197 219.724 -0.34 +0.00    -0.006 A  
DOCKED: ATOM      2  C   UNL     1     143.300  72.147 219.879 -0.23 -0.00    +0.010 A  
DOCKED: ATOM      3  C   UNL     1     142.022  72.401 220.410 -0.20 -0.00    +0.011 A  
DOCKED: ATOM      4  C   UNL     1     141.720  73.708 220.781 -0.27 -0.00    +0.000 A  
DOCKED: ATOM      5  C   UNL     1     140.567  74.243 221.309 -0.27 -0.01    +0.042 A  
DOCKED: ATOM      6  C   UNL     1     140.842  75.600 221.470 -0.30 -0.03    +0.106 A  
DOCKED: ATOM      7  N   UNL     1     142.094  75.892 221.043 +0.22 +0.20    -0.350 N  
DOCKED: ATOM      8  C   UNL     1     142.620  74.726 220.634 -0.28 -0.02    +0.047 A  
DOCKED: ATOM      9  C   UNL     1     143.893  74.512 220.108 -0.41 -0.01    +0.036 A  
DOCKED: ATOM     10  H   UNL     1     142.559  76.827 221.037 -0.45 -0.16    +0.167 HD 
DOCKED: ENDROOT
DOCKED: BRANCH   1  11
DOCKED: ATOM     11  C   UNL     1     145.592  72.929 219.164 -0.36 -0.00    -0.000 C  
DOCKED: ATOM     12  N   UNL     1     145.742  72.117 218.168 -0.30 -0.75    -0.771 NA 
DOCKED: BRANCH  11  13
DOCKED: ATOM     13  O   UNL     1     146.712  73.554 219.708 -0.40 -0.27    -0.532 OA 
DOCKED: ATOM     14  H   UNL     1     147.010  74.469 219.391 -0.42 -0.05    +0.290 HD 
DOCKED: ENDBRANCH  11  13
DOCKED: ENDBRANCH   1  11
DOCKED: BRANCH   6  15
DOCKED: ATOM     15  C   UNL     1     139.902  76.617 221.978 -0.24 -0.07    +0.274 C  
DOCKED: ATOM     16  O   UNL     1     138.844  76.235 222.547 -0.27 +0.06    -0.267 OA 
DOCKED: BRANCH  15  17
DOCKED: ATOM     17  N   UNL     1     140.152  78.022 221.805 -0.12 +0.09    -0.306 N  
DOCKED: ATOM     18  C   UNL     1     140.950  78.576 220.707 -0.21 -0.06    +0.139 C  
DOCKED: ATOM     19  C   UNL     1     139.358  79.065 222.351 -0.26 -0.01    +0.048 A  
DOCKED: ATOM     20  C   UNL     1     140.451  80.050 220.504 -0.20 -0.01    +0.029 C  
DOCKED: ATOM     21  C   UNL     1     138.537  78.989 223.483 -0.23 -0.00    +0.026 A  
DOCKED: ATOM     22  C   UNL     1     139.513  80.239 221.662 -0.20 +0.00    -0.015 A  
DOCKED: ATOM     23  C   UNL     1     141.589  81.080 220.486 -0.30 -0.01    +0.030 C  
DOCKED: ATOM     24  C   UNL     1     139.726  80.247 219.156 -0.07 -0.03    +0.098 C  
DOCKED: ATOM     25  C   UNL     1     137.844  80.142 223.888 -0.33 -0.00    +0.002 A  
DOCKED: ATOM     26  C   UNL     1     138.829  81.398 222.047 -0.20 -0.00    +0.006 A  
DOCKED: ATOM     27  C   UNL     1     141.390  81.856 219.193 -0.22 -0.03    +0.086 C  
DOCKED: ATOM     28  N   UNL     1     140.624  81.005 218.266 -0.04 +0.12    -0.294 NA 
DOCKED: ATOM     29  C   UNL     1     137.988  81.343 223.170 -0.26 -0.00    +0.000 A  
DOCKED: BRANCH  28  30
DOCKED: ATOM     30  C   UNL     1     141.512  80.114 217.468 -0.16 -0.08    +0.117 C  
DOCKED: ATOM     31  C   UNL     1     140.939  78.706 217.341 -0.09 -0.04    +0.086 C  
DOCKED: ATOM     32  C   UNL     1     142.855  79.864 218.154 -0.11 -0.28    +0.280 C  
DOCKED: ATOM     33  C   UNL     1     142.136  77.766 217.361 -0.15 -0.18    +0.262 C  
DOCKED: ATOM     34  N   UNL     1     143.320  78.542 217.740 +0.01 +0.40    -0.345 N  
DOCKED: ATOM     35  H   UNL     1     143.835  78.075 218.523 -0.11 -0.34    +0.346 HD 
DOCKED: ATOM     36  H   UNL     1     143.958  78.638 216.915 -0.35 -0.74    +0.346 HD 
DOCKED: ENDBRANCH  28  30
DOCKED: ENDBRANCH  15  17
DOCKED: ENDBRANCH   6  15
DOCKED: TORSDOF 5
DOCKED: TER
DOCKED: ENDMDL
________________________________________________________________________________


    FINAL DOCKED STATE:
    ________________________


Run:   19 / 20
Time taken for this run:   0.023s

DOCKED: MODEL        19
DOCKED: USER    Run = 19
DOCKED: USER
DOCKED: USER    Estimated Free Energy of Binding    =  -7.93 kcal/mol  [=(1)+(2)+(3)-(4)]
DOCKED: USER
DOCKED: USER    (1) Final Intermolecular Energy     =  -9.42 kcal/mol
DOCKED: USER        vdW + Hbond + desolv Energy     =  -8.12 kcal/mol
DOCKED: USER        Electrostatic Energy            =  -1.30 kcal/mol
DOCKED: USER        Moving Ligand-Fixed Receptor    =  -9.42 kcal/mol
DOCKED: USER        Moving Ligand-Moving Receptor   =  +0.00 kcal/mol
DOCKED: USER    (2) Final Total Internal Energy     =  -1.00 kcal/mol
DOCKED: USER    (3) Torsional Free Energy           =  +1.49 kcal/mol
DOCKED: USER    (4) Unbound System's Energy         =  -1.00 kcal/mol
DOCKED: USER
DOCKED: USER
DOCKED: REMARK SMILES [N-]=C(O)c1ccc2cc(C(=O)N3C[C@]4(CCN([C@@H]5CC[NH2+]C5)C4)c4ccccc43)[nH]c2c1
DOCKED: REMARK SMILES IDX 4 1 5 2 6 3 7 4 8 5 9 6 30 7 31 8 32 9 2 11 1 12 3 13 10 15
DOCKED: REMARK SMILES IDX 11 16 12 17 13 18 29 19 14 20 28 21 24 22 15 23 23 24 27 25
DOCKED: REMARK SMILES IDX 25 26 16 27 17 28 26 29 18 30 19 31 22 32 20 33 21 34
DOCKED: REMARK H PARENT 30 10 3 14 21 35 21 36
DOCKED: USER                              x       y       z     vdW  Elec       q    Type
DOCKED: USER                           _______ _______ _______ _____ _____    ______ ____
DOCKED: ROOT
DOCKED: ATOM      1  C   UNL     1     145.017  73.754 219.329 -0.31 +0.00    -0.006 A  
DOCKED: ATOM      2  C   UNL     1     144.842  73.742 217.917 -0.17 -0.00    +0.010 A  
DOCKED: ATOM      3  C   UNL     1     144.105  74.753 217.273 -0.15 -0.00    +0.011 A  
DOCKED: ATOM      4  C   UNL     1     143.551  75.756 218.062 -0.24 -0.00    +0.000 A  
DOCKED: ATOM      5  C   UNL     1     142.803  76.858 217.711 -0.26 -0.03    +0.042 A  
DOCKED: ATOM      6  C   UNL     1     142.534  77.508 218.915 -0.29 -0.07    +0.106 A  
DOCKED: ATOM      7  N   UNL     1     143.105  76.851 219.954 -0.10 +0.28    -0.350 N  
DOCKED: ATOM      8  C   UNL     1     143.714  75.781 219.419 -0.35 -0.03    +0.047 A  
DOCKED: ATOM      9  C   UNL     1     144.441  74.799 220.090 -0.41 -0.02    +0.036 A  
DOCKED: ATOM     10  H   UNL     1     143.075  77.117 220.964 -0.38 -0.20    +0.167 HD 
DOCKED: ENDROOT
DOCKED: BRANCH   1  11
DOCKED: ATOM     11  C   UNL     1     145.794  72.691 220.008 -0.50 -0.00    -0.000 C  
DOCKED: ATOM     12  N   UNL     1     146.284  71.701 219.335 -0.00 -0.93    -0.771 NA 
DOCKED: BRANCH  11  13
DOCKED: ATOM     13  O   UNL     1     146.004  72.750 221.384 -0.19 +0.10    -0.532 OA 
DOCKED: ATOM     14  H   UNL     1     145.918  71.923 221.964 -0.35 -0.29    +0.290 HD 
DOCKED: ENDBRANCH  11  13
DOCKED: ENDBRANCH   1  11
DOCKED: BRANCH   6  15
DOCKED: ATOM     15  C   UNL     1     141.784  78.768 219.067 -0.17 -0.17    +0.274 C  
DOCKED: ATOM     16  O   UNL     1     141.924  79.667 218.193 -0.19 +0.19    -0.267 OA 
DOCKED: BRANCH  15  17
DOCKED: ATOM     17  N   UNL     1     140.934  79.003 220.202 -0.08 +0.13    -0.306 N  
DOCKED: ATOM     18  C   UNL     1     139.599  78.415 220.353 -0.09 -0.04    +0.139 C  
DOCKED: ATOM     19  C   UNL     1     141.380  79.433 221.480 -0.35 -0.02    +0.048 A  
DOCKED: ATOM     20  C   UNL     1     139.315  78.365 221.895 -0.24 -0.01    +0.029 C  
DOCKED: ATOM     21  C   UNL     1     142.552  80.145 221.763 -0.37 -0.01    +0.026 A  
DOCKED: ATOM     22  C   UNL     1     140.484  79.116 222.467 -0.37 +0.00    -0.015 A  
DOCKED: ATOM     23  C   UNL     1     137.964  78.984 222.284 -0.20 -0.01    +0.030 C  
DOCKED: ATOM     24  C   UNL     1     139.253  76.923 222.437 -0.26 -0.02    +0.098 C  
DOCKED: ATOM     25  C   UNL     1     142.811  80.507 223.095 -0.66 -0.00    +0.002 A  
DOCKED: ATOM     26  C   UNL     1     140.726  79.465 223.801 -0.52 -0.00    +0.006 A  
DOCKED: ATOM     27  C   UNL     1     137.264  77.905 223.096 -0.02 -0.01    +0.086 C  
DOCKED: ATOM     28  N   UNL     1     137.842  76.604 222.717 -0.18 +0.06    -0.294 NA 
DOCKED: ATOM     29  C   UNL     1     141.901  80.166 224.112 -0.47 -0.00    +0.000 A  
DOCKED: BRANCH  28  30
DOCKED: ATOM     30  C   UNL     1     137.152  76.012 221.538 -0.13 -0.02    +0.117 C  
DOCKED: ATOM     31  C   UNL     1     135.666  75.784 221.805 -0.09 -0.02    +0.086 C  
DOCKED: ATOM     32  C   UNL     1     137.651  74.604 221.215 -0.08 -0.07    +0.280 C  
DOCKED: ATOM     33  C   UNL     1     135.302  74.506 221.061 -0.02 -0.05    +0.262 C  
DOCKED: ATOM     34  N   UNL     1     136.542  73.876 220.601 -0.01 +0.07    -0.345 N  
DOCKED: ATOM     35  H   UNL     1     136.570  72.867 220.879 +0.04 -0.07    +0.346 HD 
DOCKED: ATOM     36  H   UNL     1     136.610  73.948 219.559 +0.02 -0.06    +0.346 HD 
DOCKED: ENDBRANCH  28  30
DOCKED: ENDBRANCH  15  17
DOCKED: ENDBRANCH   6  15
DOCKED: TORSDOF 5
DOCKED: TER
DOCKED: ENDMDL
________________________________________________________________________________


    FINAL DOCKED STATE:
    ________________________


Run:   20 / 20
Time taken for this run:   0.023s

DOCKED: MODEL        20
DOCKED: USER    Run = 20
DOCKED: USER
DOCKED: USER    Estimated Free Energy of Binding    =  -8.99 kcal/mol  [=(1)+(2)+(3)-(4)]
DOCKED: USER
DOCKED: USER    (1) Final Intermolecular Energy     = -10.49 kcal/mol
DOCKED: USER        vdW + Hbond + desolv Energy     =  -7.86 kcal/mol
DOCKED: USER        Electrostatic Energy            =  -2.62 kcal/mol
DOCKED: USER        Moving Ligand-Fixed Receptor    = -10.49 kcal/mol
DOCKED: USER        Moving Ligand-Moving Receptor   =  +0.00 kcal/mol
DOCKED: USER    (2) Final Total Internal Energy     =  -0.77 kcal/mol
DOCKED: USER    (3) Torsional Free Energy           =  +1.49 kcal/mol
DOCKED: USER    (4) Unbound System's Energy         =  -0.77 kcal/mol
DOCKED: USER
DOCKED: USER
DOCKED: REMARK SMILES [N-]=C(O)c1ccc2cc(C(=O)N3C[C@]4(CCN([C@@H]5CC[NH2+]C5)C4)c4ccccc43)[nH]c2c1
DOCKED: REMARK SMILES IDX 4 1 5 2 6 3 7 4 8 5 9 6 30 7 31 8 32 9 2 11 1 12 3 13 10 15
DOCKED: REMARK SMILES IDX 11 16 12 17 13 18 29 19 14 20 28 21 24 22 15 23 23 24 27 25
DOCKED: REMARK SMILES IDX 25 26 16 27 17 28 26 29 18 30 19 31 22 32 20 33 21 34
DOCKED: REMARK H PARENT 30 10 3 14 21 35 21 36
DOCKED: USER                              x       y       z     vdW  Elec       q    Type
DOCKED: USER                           _______ _______ _______ _____ _____    ______ ____
DOCKED: ROOT
DOCKED: ATOM      1  C   UNL     1     144.326  73.308 219.981 -0.39 +0.00    -0.006 A  
DOCKED: ATOM      2  C   UNL     1     143.391  72.258 220.200 -0.27 -0.00    +0.010 A  
DOCKED: ATOM      3  C   UNL     1     142.078  72.537 220.621 -0.23 -0.00    +0.011 A  
DOCKED: ATOM      4  C   UNL     1     141.729  73.869 220.821 -0.28 -0.00    +0.000 A  
DOCKED: ATOM      5  C   UNL     1     140.535  74.430 221.216 -0.27 -0.01    +0.042 A  
DOCKED: ATOM      6  C   UNL     1     140.773  75.804 221.235 -0.28 -0.03    +0.106 A  
DOCKED: ATOM      7  N   UNL     1     142.043  76.077 220.852 +0.01 +0.20    -0.350 N  
DOCKED: ATOM      8  C   UNL     1     142.616  74.887 220.612 -0.27 -0.02    +0.047 A  
DOCKED: ATOM      9  C   UNL     1     143.923  74.648 220.190 -0.41 -0.02    +0.036 A  
DOCKED: ATOM     10  H   UNL     1     142.490  77.018 220.766 -0.34 -0.14    +0.167 HD 
DOCKED: ENDROOT
DOCKED: BRANCH   1  11
DOCKED: ATOM     11  C   UNL     1     145.708  73.014 219.536 -0.44 -0.00    -0.000 C  
DOCKED: ATOM     12  N   UNL     1     145.941  72.058 218.697 -0.29 -0.88    -0.771 NA 
DOCKED: BRANCH  11  13
DOCKED: ATOM     13  O   UNL     1     146.773  73.770 220.020 -0.27 -0.16    -0.532 OA 
DOCKED: ATOM     14  H   UNL     1     146.876  74.749 219.778 -0.35 -0.10    +0.290 HD 
DOCKED: ENDBRANCH  11  13
DOCKED: ENDBRANCH   1  11
DOCKED: BRANCH   6  15
DOCKED: ATOM     15  C   UNL     1     139.784  76.846 221.566 -0.19 -0.07    +0.274 C  
DOCKED: ATOM     16  O   UNL     1     138.596  76.501 221.812 -0.16 +0.06    -0.267 OA 
DOCKED: BRANCH  15  17
DOCKED: ATOM     17  N   UNL     1     140.139  78.240 221.578 -0.10 +0.09    -0.306 N  
DOCKED: ATOM     18  C   UNL     1     140.808  78.917 220.464 -0.18 -0.06    +0.139 C  
DOCKED: ATOM     19  C   UNL     1     139.542  79.226 222.408 -0.27 -0.01    +0.048 A  
DOCKED: ATOM     20  C   UNL     1     140.429  80.434 220.582 -0.21 -0.01    +0.029 C  
DOCKED: ATOM     21  C   UNL     1     138.901  79.014 223.634 -0.22 -0.00    +0.026 A  
DOCKED: ATOM     22  C   UNL     1     139.702  80.487 221.897 -0.23 +0.00    -0.015 A  
DOCKED: ATOM     23  C   UNL     1     141.645  81.370 220.538 -0.27 -0.01    +0.030 C  
DOCKED: ATOM     24  C   UNL     1     139.529  80.910 219.423 -0.07 -0.03    +0.098 C  
DOCKED: ATOM     25  C   UNL     1     138.393  80.126 224.326 -0.34 -0.00    +0.002 A  
DOCKED: ATOM     26  C   UNL     1     139.200  81.607 222.569 -0.24 -0.00    +0.006 A  
DOCKED: ATOM     27  C   UNL     1     141.325  82.369 219.435 -0.21 -0.03    +0.086 C  
DOCKED: ATOM     28  N   UNL     1     140.348  81.744 218.527 -0.04 +0.10    -0.294 NA 
DOCKED: ATOM     29  C   UNL     1     138.540  81.419 223.793 -0.17 -0.00    +0.000 A  
DOCKED: BRANCH  28  30
DOCKED: ATOM     30  C   UNL     1     141.013  80.944 217.461 -0.11 -0.06    +0.117 C  
DOCKED: ATOM     31  C   UNL     1     140.535  79.495 217.456 -0.07 -0.04    +0.086 C  
DOCKED: ATOM     32  C   UNL     1     142.516  80.796 217.696 -0.21 -0.26    +0.280 C  
DOCKED: ATOM     33  C   UNL     1     141.748  78.658 217.074 -0.12 -0.19    +0.262 C  
DOCKED: ATOM     34  N   UNL     1     142.929  79.524 217.106 +0.30 +0.51    -0.345 N  
DOCKED: ATOM     35  H   UNL     1     143.692  79.089 217.676 -0.31 -0.56    +0.346 HD 
DOCKED: ATOM     36  H   UNL     1     143.275  79.686 216.132 -0.38 -0.92    +0.346 HD 
DOCKED: ENDBRANCH  28  30
DOCKED: ENDBRANCH  15  17
DOCKED: ENDBRANCH   6  15
DOCKED: TORSDOF 5
DOCKED: TER
DOCKED: ENDMDL
________________________________________________________________________________


    CLUSTERING HISTOGRAM
    ____________________


________________________________________________________________________________
     |           |     |           |     |
Clus | Lowest    | Run | Mean      | Num | Histogram
-ter | Binding   |     | Binding   | in  |
Rank | Energy    |     | Energy    | Clus|    5    10   15   20   25   30   35
_____|___________|_____|___________|_____|____:____|____:____|____:____|____:___
   1 |     -8.99 |  20 |     -8.62 |  13 |#############
   2 |     -8.19 |  12 |     -8.11 |   4 |####
   3 |     -8.18 |   8 |     -8.18 |   2 |##
   4 |     -7.93 |  19 |     -7.93 |   1 |#
_____|___________|_____|___________|_____|______________________________________


    RMSD TABLE
    __________


_______________________________________________________________________
     |      |      |           |         |                 |
Rank | Sub- | Run  | Binding   | Cluster | Reference       | Grep
     | Rank |      | Energy    | RMSD    | RMSD            | Pattern
_____|______|______|___________|_________|_________________|___________
   1      1     20       -8.99      0.00    271.42           RANKING
   1      2      3       -8.97      0.81    271.31           RANKING
   1      3     15       -8.96      0.81    271.48           RANKING
   1      4     10       -8.96      0.85    271.37           RANKING
   1      5     18       -8.94      0.64    271.33           RANKING
   1      6      4       -8.79      1.25    271.33           RANKING
   1      7      7       -8.78      0.66    271.37           RANKING
   1      8     13       -8.39      1.30    271.46           RANKING
   1      9      9       -8.35      1.30    271.27           RANKING
   1     10      2       -8.30      1.38    271.43           RANKING
   1     11      5       -8.25      1.48    271.30           RANKING
   1     12     16       -8.20      1.32    271.17           RANKING
   1     13     17       -8.17      1.89    271.36           RANKING
   2      1     12       -8.19      0.00    271.96           RANKING
   2      2      6       -8.17      0.15    271.93           RANKING
   2      3     14       -8.11      1.14    272.04           RANKING
   2      4      1       -7.97      1.31    272.28           RANKING
   3      1      8       -8.18      0.00    271.15           RANKING
   3      2     11       -8.18      1.20    271.55           RANKING
   4      1     19       -7.93      0.00    271.24           RANKING

Run time 0.388 sec
Idle time 0.000 sec
