AutoDock-GPU version: v1.6

**********************************************************
**    AutoDock-GPU AUTODOCKTOOLS-COMPATIBLE DLG FILE    **
**********************************************************


    DOCKING PARAMETERS
    ________________________


Ligand file:                               /home/a/REINVENT4/ReinventStudies/scoringData/graph-dock/graph-DockGPU/node-autodockgpu/inputs/BKKYOBILRJMROL-KSAINESBNA-O.pdbqt
Grid fld file:                             /home/a/REINVENT4/ReinventStudies/mols/Rad51/maps/rad51_receptor.maps.fld

Random seed:                               42
Number of runs:                            20
Number of energy evaluations:              1132076
Number of generations:                     42000
Size of population:                        150
Rate of crossover:                         80.000000%
Tournament selection probability limit:    60.000000%
Rate of mutation:                          2.000000%
Maximal allowed delta movement:            +/- 6.000000A
Maximal allowed delta angle:               +/- 90.000000

Rate of local search:                      100.000000%
Maximal number of local search iterations: 300
Rho lower bound:                           0.010000
Spread of local search delta movement:     2.000000A
Spread of local search delta angle:        74.999999
Limit of consecutive successes/failures:   4

Handle symmetry during clustering:         YES
RMSD tolerance:                            2.000000A

Program call in command line was:          /home/a/REINVENT4/ReinventStudies/adgpu-v1.6_linux_x64_cuda12_128wi --filelist batch.txt --heuristics 1 --nrun 20 --psize 150 --lsit 300 --seed 42 --heurmax 12000000 


    GRID PARAMETERS
    ________________________


Receptor name:                             rad51_receptor
Number of grid points (x, y, z):           53, 53, 53
Grid center (x, y, z):                     139.950000, 75.640000, 221.970000A
Grid size (x, y, z):                       19.500000, 19.500000, 19.500000A
Grid spacing:                              0.375000A


    LIGAND PARAMETERS
    ________________________


Ligand name:                               /home/a/REINVENT4/ReinventStudies/scoringData/graph-dock/graph-DockGPU/node-autodockgpu/inputs/BKKYOBILRJMROL-KSAINESBNA-O
Number of atoms:                           36
Number of rotatable bonds:                 5
Number of atom types:                      6


    DUMMY DATA (only for ADT-compatibility)
    ________________________


DPF> outlev 1
DPF> ga_run 20
DPF> fld /home/a/REINVENT4/ReinventStudies/mols/Rad51/maps/rad51_receptor.maps.fld
DPF> move /home/a/REINVENT4/ReinventStudies/scoringData/graph-dock/graph-DockGPU/node-autodockgpu/inputs/BKKYOBILRJMROL-KSAINESBNA-O.pdbqt


    COUNTER STATES
    ________________________


Number of energy evaluations performed:    747752
Number of generations used:                55


    INPUT LIGAND PDBQT FILE:
    ________________________


INPUT-LIGAND-PDBQT: REMARK SMILES [N-]=C(O)c1ccc2cc(C(=O)N3C[C@]4(CCN([C@H]5CC[NH2+]C5)C4)c4ccccc43)[nH]c2c1
INPUT-LIGAND-PDBQT: REMARK SMILES IDX 4 1 5 2 6 3 7 4 8 5 9 6 30 7 31 8 32 9 2 11 1 12 3 13 10 15
INPUT-LIGAND-PDBQT: REMARK SMILES IDX 11 16 12 17 13 18 29 19 14 20 28 21 24 22 15 23 23 24 27 25
INPUT-LIGAND-PDBQT: REMARK SMILES IDX 25 26 16 27 17 28 26 29 18 30 19 31 22 32 20 33 21 34
INPUT-LIGAND-PDBQT: REMARK H PARENT 30 10 3 14 21 35 21 36
INPUT-LIGAND-PDBQT: ROOT
INPUT-LIGAND-PDBQT: ATOM      1  C   UNL     1       6.616   0.738  -1.086  1.00  0.00    -0.006 A 
INPUT-LIGAND-PDBQT: ATOM      2  C   UNL     1       7.247   0.618   0.183  1.00  0.00     0.010 A 
INPUT-LIGAND-PDBQT: ATOM      3  C   UNL     1       6.499   0.314   1.335  1.00  0.00     0.011 A 
INPUT-LIGAND-PDBQT: ATOM      4  C   UNL     1       5.128   0.133   1.191  1.00  0.00     0.000 A 
INPUT-LIGAND-PDBQT: ATOM      5  C   UNL     1       4.161  -0.163   2.127  1.00  0.00     0.042 A 
INPUT-LIGAND-PDBQT: ATOM      6  C   UNL     1       2.971  -0.225   1.404  1.00  0.00     0.106 A 
INPUT-LIGAND-PDBQT: ATOM      7  N   UNL     1       3.187   0.034   0.091  1.00  0.00    -0.350 N 
INPUT-LIGAND-PDBQT: ATOM      8  C   UNL     1       4.508   0.245  -0.024  1.00  0.00     0.047 A 
INPUT-LIGAND-PDBQT: ATOM      9  C   UNL     1       5.217   0.547  -1.185  1.00  0.00     0.036 A 
INPUT-LIGAND-PDBQT: ATOM     10  H   UNL     1       2.477   0.078  -0.674  1.00  0.00     0.167 HD
INPUT-LIGAND-PDBQT: ENDROOT
INPUT-LIGAND-PDBQT: BRANCH   1  11
INPUT-LIGAND-PDBQT: ATOM     11  C   UNL     1       7.402   1.058  -2.300  1.00  0.00    -0.000 C 
INPUT-LIGAND-PDBQT: ATOM     12  N   UNL     1       8.682   1.236  -2.229  1.00  0.00    -0.771 NA
INPUT-LIGAND-PDBQT: BRANCH  11  13
INPUT-LIGAND-PDBQT: ATOM     13  O   UNL     1       6.766   1.169  -3.535  1.00  0.00    -0.532 OA
INPUT-LIGAND-PDBQT: ATOM     14  H   UNL     1       7.288   1.388  -4.376  1.00  0.00     0.290 HD
INPUT-LIGAND-PDBQT: ENDBRANCH  11  13
INPUT-LIGAND-PDBQT: ENDBRANCH   1  11
INPUT-LIGAND-PDBQT: BRANCH   6  15
INPUT-LIGAND-PDBQT: ATOM     15  C   UNL     1       1.643  -0.498   1.983  1.00  0.00     0.274 C 
INPUT-LIGAND-PDBQT: ATOM     16  O   UNL     1       1.477  -0.394   3.228  1.00  0.00    -0.267 OA
INPUT-LIGAND-PDBQT: BRANCH  15  17
INPUT-LIGAND-PDBQT: ATOM     17  N   UNL     1       0.525  -0.828   1.148  1.00  0.00    -0.306 N 
INPUT-LIGAND-PDBQT: ATOM     18  C   UNL     1      -0.821  -0.292   1.337  1.00  0.00     0.139 C 
INPUT-LIGAND-PDBQT: ATOM     19  C   UNL     1       0.489  -1.810   0.124  1.00  0.00     0.048 A 
INPUT-LIGAND-PDBQT: ATOM     20  C   UNL     1      -1.671  -0.848   0.142  1.00  0.00     0.029 C 
INPUT-LIGAND-PDBQT: ATOM     21  C   UNL     1       1.511  -2.696  -0.238  1.00  0.00     0.026 A 
INPUT-LIGAND-PDBQT: ATOM     22  C   UNL     1      -0.746  -1.868  -0.468  1.00  0.00    -0.015 A 
INPUT-LIGAND-PDBQT: ATOM     23  C   UNL     1      -3.013  -1.445   0.583  1.00  0.00     0.030 C 
INPUT-LIGAND-PDBQT: ATOM     24  C   UNL     1      -2.044   0.245  -0.879  1.00  0.00     0.098 C 
INPUT-LIGAND-PDBQT: ATOM     25  C   UNL     1       1.264  -3.620  -1.265  1.00  0.00     0.002 A 
INPUT-LIGAND-PDBQT: ATOM     26  C   UNL     1      -1.011  -2.779  -1.497  1.00  0.00     0.006 A 
INPUT-LIGAND-PDBQT: ATOM     27  C   UNL     1      -4.050  -0.746  -0.282  1.00  0.00     0.086 C 
INPUT-LIGAND-PDBQT: ATOM     28  N   UNL     1      -3.480   0.539  -0.725  1.00  0.00    -0.294 NA
INPUT-LIGAND-PDBQT: ATOM     29  C   UNL     1       0.008  -3.657  -1.897  1.00  0.00     0.000 A 
INPUT-LIGAND-PDBQT: BRANCH  28  30
INPUT-LIGAND-PDBQT: ATOM     30  C   UNL     1      -3.732   1.627   0.259  1.00  0.00     0.117 C 
INPUT-LIGAND-PDBQT: ATOM     31  C   UNL     1      -3.138   2.957  -0.184  1.00  0.00     0.086 C 
INPUT-LIGAND-PDBQT: ATOM     32  C   UNL     1      -5.225   1.955   0.383  1.00  0.00     0.280 C 
INPUT-LIGAND-PDBQT: ATOM     33  C   UNL     1      -4.048   4.008   0.418  1.00  0.00     0.262 C 
INPUT-LIGAND-PDBQT: ATOM     34  N   UNL     1      -5.362   3.395   0.626  1.00  0.00    -0.345 N 
INPUT-LIGAND-PDBQT: ATOM     35  H   UNL     1      -6.060   3.806  -0.038  1.00  0.00     0.346 HD
INPUT-LIGAND-PDBQT: ATOM     36  H   UNL     1      -5.685   3.566   1.608  1.00  0.00     0.346 HD
INPUT-LIGAND-PDBQT: ENDBRANCH  28  30
INPUT-LIGAND-PDBQT: ENDBRANCH  15  17
INPUT-LIGAND-PDBQT: ENDBRANCH   6  15
INPUT-LIGAND-PDBQT: TORSDOF 5


    FINAL DOCKED STATE:
    ________________________


Run:   1 / 20
Time taken for this run:   0.040s

DOCKED: MODEL        1
DOCKED: USER    Run = 1
DOCKED: USER
DOCKED: USER    Estimated Free Energy of Binding    =  -8.95 kcal/mol  [=(1)+(2)+(3)-(4)]
DOCKED: USER
DOCKED: USER    (1) Final Intermolecular Energy     = -10.44 kcal/mol
DOCKED: USER        vdW + Hbond + desolv Energy     =  -7.92 kcal/mol
DOCKED: USER        Electrostatic Energy            =  -2.52 kcal/mol
DOCKED: USER        Moving Ligand-Fixed Receptor    = -10.44 kcal/mol
DOCKED: USER        Moving Ligand-Moving Receptor   =  +0.00 kcal/mol
DOCKED: USER    (2) Final Total Internal Energy     =  -0.62 kcal/mol
DOCKED: USER    (3) Torsional Free Energy           =  +1.49 kcal/mol
DOCKED: USER    (4) Unbound System's Energy         =  -0.62 kcal/mol
DOCKED: USER
DOCKED: USER
DOCKED: REMARK SMILES [N-]=C(O)c1ccc2cc(C(=O)N3C[C@]4(CCN([C@H]5CC[NH2+]C5)C4)c4ccccc43)[nH]c2c1
DOCKED: REMARK SMILES IDX 4 1 5 2 6 3 7 4 8 5 9 6 30 7 31 8 32 9 2 11 1 12 3 13 10 15
DOCKED: REMARK SMILES IDX 11 16 12 17 13 18 29 19 14 20 28 21 24 22 15 23 23 24 27 25
DOCKED: REMARK SMILES IDX 25 26 16 27 17 28 26 29 18 30 19 31 22 32 20 33 21 34
DOCKED: REMARK H PARENT 30 10 3 14 21 35 21 36
DOCKED: USER                              x       y       z     vdW  Elec       q    Type
DOCKED: USER                           _______ _______ _______ _____ _____    ______ ____
DOCKED: ROOT
DOCKED: ATOM      1  C   UNL     1     144.292  73.049 219.790 -0.34 +0.00    -0.006 A  
DOCKED: ATOM      2  C   UNL     1     143.392  71.951 219.869 -0.23 -0.00    +0.010 A  
DOCKED: ATOM      3  C   UNL     1     142.087  72.121 220.367 -0.19 -0.00    +0.011 A  
DOCKED: ATOM      4  C   UNL     1     141.708  73.395 220.775 -0.26 -0.00    +0.000 A  
DOCKED: ATOM      5  C   UNL     1     140.518  73.850 221.299 -0.26 -0.01    +0.042 A  
DOCKED: ATOM      6  C   UNL     1     140.720  75.212 221.515 -0.30 -0.02    +0.106 A  
DOCKED: ATOM      7  N   UNL     1     141.975  75.579 221.158 +0.01 +0.17    -0.350 N  
DOCKED: ATOM      8  C   UNL     1     142.564  74.461 220.704 -0.28 -0.01    +0.047 A  
DOCKED: ATOM      9  C   UNL     1     143.863  74.328 220.218 -0.39 -0.01    +0.036 A  
DOCKED: ATOM     10  H   UNL     1     142.407  76.527 221.234 -0.48 -0.15    +0.167 HD 
DOCKED: ENDROOT
DOCKED: BRANCH   1  11
DOCKED: ATOM     11  C   UNL     1     145.666  72.872 219.266 -0.36 -0.00    -0.000 C  
DOCKED: ATOM     12  N   UNL     1     145.910  72.008 218.333 -0.24 -0.92    -0.771 NA 
DOCKED: BRANCH  11  13
DOCKED: ATOM     13  O   UNL     1     146.712  73.638 219.775 -0.36 -0.22    -0.532 OA 
DOCKED: ATOM     14  H   UNL     1     147.039  74.467 219.291 -0.42 -0.05    +0.290 HD 
DOCKED: ENDBRANCH  11  13
DOCKED: ENDBRANCH   1  11
DOCKED: BRANCH   6  15
DOCKED: ATOM     15  C   UNL     1     139.723  76.134 222.089 -0.23 -0.06    +0.274 C  
DOCKED: ATOM     16  O   UNL     1     138.877  75.696 222.914 -0.25 +0.06    -0.267 OA 
DOCKED: BRANCH  15  17
DOCKED: ATOM     17  N   UNL     1     139.734  77.531 221.765 -0.12 +0.08    -0.306 N  
DOCKED: ATOM     18  C   UNL     1     140.811  78.190 221.029 -0.22 -0.06    +0.139 C  
DOCKED: ATOM     19  C   UNL     1     138.815  78.515 222.214 -0.23 -0.01    +0.048 A  
DOCKED: ATOM     20  C   UNL     1     140.342  79.673 220.829 -0.20 -0.01    +0.029 C  
DOCKED: ATOM     21  C   UNL     1     137.752  78.338 223.108 -0.14 -0.00    +0.026 A  
DOCKED: ATOM     22  C   UNL     1     139.129  79.754 221.717 -0.18 +0.00    -0.015 A  
DOCKED: ATOM     23  C   UNL     1     141.420  80.701 221.193 -0.36 -0.01    +0.030 C  
DOCKED: ATOM     24  C   UNL     1     139.979  79.987 219.364 -0.08 -0.03    +0.098 C  
DOCKED: ATOM     25  C   UNL     1     136.972  79.453 223.450 -0.20 -0.00    +0.002 A  
DOCKED: ATOM     26  C   UNL     1     138.361  80.877 222.043 -0.17 -0.00    +0.006 A  
DOCKED: ATOM     27  C   UNL     1     141.528  81.598 219.970 -0.23 -0.03    +0.086 C  
DOCKED: ATOM     28  N   UNL     1     141.046  80.837 218.804 -0.08 +0.13    -0.294 NA 
DOCKED: ATOM     29  C   UNL     1     137.272  80.719 222.914 -0.20 -0.00    +0.000 A  
DOCKED: BRANCH  28  30
DOCKED: ATOM     30  C   UNL     1     142.133  80.039 218.174 -0.27 -0.09    +0.117 C  
DOCKED: ATOM     31  C   UNL     1     141.964  78.544 218.409 -0.24 -0.06    +0.086 C  
DOCKED: ATOM     32  C   UNL     1     142.107  80.140 216.644 -0.07 -0.28    +0.280 C  
DOCKED: ATOM     33  C   UNL     1     142.585  77.888 217.193 -0.18 -0.22    +0.262 C  
DOCKED: ATOM     34  N   UNL     1     142.531  78.850 216.089 -0.01 +0.42    -0.345 N  
DOCKED: ATOM     35  H   UNL     1     141.847  78.528 215.364 +0.05 -0.27    +0.346 HD 
DOCKED: ATOM     36  H   UNL     1     143.477  78.941 215.648 -0.18 -0.86    +0.346 HD 
DOCKED: ENDBRANCH  28  30
DOCKED: ENDBRANCH  15  17
DOCKED: ENDBRANCH   6  15
DOCKED: TORSDOF 5
DOCKED: TER
DOCKED: ENDMDL
________________________________________________________________________________


    FINAL DOCKED STATE:
    ________________________


Run:   2 / 20
Time taken for this run:   0.040s

DOCKED: MODEL        2
DOCKED: USER    Run = 2
DOCKED: USER
DOCKED: USER    Estimated Free Energy of Binding    =  -8.54 kcal/mol  [=(1)+(2)+(3)-(4)]
DOCKED: USER
DOCKED: USER    (1) Final Intermolecular Energy     = -10.03 kcal/mol
DOCKED: USER        vdW + Hbond + desolv Energy     =  -8.11 kcal/mol
DOCKED: USER        Electrostatic Energy            =  -1.92 kcal/mol
DOCKED: USER        Moving Ligand-Fixed Receptor    = -10.03 kcal/mol
DOCKED: USER        Moving Ligand-Moving Receptor   =  +0.00 kcal/mol
DOCKED: USER    (2) Final Total Internal Energy     =  -0.84 kcal/mol
DOCKED: USER    (3) Torsional Free Energy           =  +1.49 kcal/mol
DOCKED: USER    (4) Unbound System's Energy         =  -0.84 kcal/mol
DOCKED: USER
DOCKED: USER
DOCKED: REMARK SMILES [N-]=C(O)c1ccc2cc(C(=O)N3C[C@]4(CCN([C@H]5CC[NH2+]C5)C4)c4ccccc43)[nH]c2c1
DOCKED: REMARK SMILES IDX 4 1 5 2 6 3 7 4 8 5 9 6 30 7 31 8 32 9 2 11 1 12 3 13 10 15
DOCKED: REMARK SMILES IDX 11 16 12 17 13 18 29 19 14 20 28 21 24 22 15 23 23 24 27 25
DOCKED: REMARK SMILES IDX 25 26 16 27 17 28 26 29 18 30 19 31 22 32 20 33 21 34
DOCKED: REMARK H PARENT 30 10 3 14 21 35 21 36
DOCKED: USER                              x       y       z     vdW  Elec       q    Type
DOCKED: USER                           _______ _______ _______ _____ _____    ______ ____
DOCKED: ROOT
DOCKED: ATOM      1  C   UNL     1     144.535  73.856 218.495 -0.19 +0.00    -0.006 A  
DOCKED: ATOM      2  C   UNL     1     144.032  74.892 217.660 -0.14 -0.00    +0.010 A  
DOCKED: ATOM      3  C   UNL     1     142.880  75.614 218.020 -0.20 -0.01    +0.011 A  
DOCKED: ATOM      4  C   UNL     1     142.254  75.284 219.217 -0.21 -0.00    +0.000 A  
DOCKED: ATOM      5  C   UNL     1     141.127  75.809 219.812 -0.16 -0.01    +0.042 A  
DOCKED: ATOM      6  C   UNL     1     140.979  75.088 220.996 -0.25 -0.03    +0.106 A  
DOCKED: ATOM      7  N   UNL     1     141.954  74.155 221.120 -0.11 +0.07    -0.350 N  
DOCKED: ATOM      8  C   UNL     1     142.727  74.291 220.031 -0.27 -0.01    +0.047 A  
DOCKED: ATOM      9  C   UNL     1     143.864  73.554 219.704 -0.30 -0.01    +0.036 A  
DOCKED: ATOM     10  H   UNL     1     142.076  73.461 221.892 +0.07 -0.00    +0.167 HD 
DOCKED: ENDROOT
DOCKED: BRANCH   1  11
DOCKED: ATOM     11  C   UNL     1     145.748  73.094 218.117 -0.07 -0.00    -0.000 C  
DOCKED: ATOM     12  N   UNL     1     145.906  71.870 218.507 -0.22 -0.90    -0.771 NA 
DOCKED: BRANCH  11  13
DOCKED: ATOM     13  O   UNL     1     146.733  73.693 217.334 -0.22 -0.35    -0.532 OA 
DOCKED: ATOM     14  H   UNL     1     146.668  74.668 217.065 -0.32 -0.09    +0.290 HD 
DOCKED: ENDBRANCH  11  13
DOCKED: ENDBRANCH   1  11
DOCKED: BRANCH   6  15
DOCKED: ATOM     15  C   UNL     1     139.891  75.279 221.972 -0.19 -0.04    +0.274 C  
DOCKED: ATOM     16  O   UNL     1     139.529  74.311 222.693 -0.57 +0.03    -0.267 OA 
DOCKED: BRANCH  15  17
DOCKED: ATOM     17  N   UNL     1     139.274  76.561 222.152 -0.18 +0.06    -0.306 N  
DOCKED: ATOM     18  C   UNL     1     139.981  77.746 222.632 -0.27 -0.03    +0.139 C  
DOCKED: ATOM     19  C   UNL     1     137.891  76.862 222.046 -0.22 -0.01    +0.048 A  
DOCKED: ATOM     20  C   UNL     1     138.938  78.916 222.570 -0.28 -0.01    +0.029 C  
DOCKED: ATOM     21  C   UNL     1     136.844  75.964 221.807 -0.15 -0.01    +0.026 A  
DOCKED: ATOM     22  C   UNL     1     137.649  78.189 222.290 -0.20 +0.00    -0.015 A  
DOCKED: ATOM     23  C   UNL     1     138.888  79.749 223.857 -0.38 -0.00    +0.030 C  
DOCKED: ATOM     24  C   UNL     1     139.255  79.934 221.456 -0.15 -0.02    +0.098 C  
DOCKED: ATOM     25  C   UNL     1     135.532  76.460 221.769 -0.09 -0.00    +0.002 A  
DOCKED: ATOM     26  C   UNL     1     136.349  78.704 222.252 -0.13 -0.00    +0.006 A  
DOCKED: ATOM     27  C   UNL     1     139.065  81.186 223.394 -0.24 -0.01    +0.086 C  
DOCKED: ATOM     28  N   UNL     1     139.759  81.163 222.094 -0.11 +0.05    -0.294 NA 
DOCKED: ATOM     29  C   UNL     1     135.286  77.828 221.985 -0.08 -0.00    +0.000 A  
DOCKED: BRANCH  28  30
DOCKED: ATOM     30  C   UNL     1     141.239  81.151 222.255 -0.38 -0.02    +0.117 C  
DOCKED: ATOM     31  C   UNL     1     141.662  81.087 223.716 -0.51 -0.01    +0.086 C  
DOCKED: ATOM     32  C   UNL     1     141.870  79.882 221.670 -0.28 -0.12    +0.280 C  
DOCKED: ATOM     33  C   UNL     1     142.985  80.350 223.704 -0.38 -0.06    +0.262 C  
DOCKED: ATOM     34  N   UNL     1     143.020  79.514 222.502 -0.20 +0.19    -0.345 N  
DOCKED: ATOM     35  H   UNL     1     142.963  78.502 222.766 -0.20 -0.28    +0.346 HD 
DOCKED: ATOM     36  H   UNL     1     143.912  79.679 221.977 -0.31 -0.28    +0.346 HD 
DOCKED: ENDBRANCH  28  30
DOCKED: ENDBRANCH  15  17
DOCKED: ENDBRANCH   6  15
DOCKED: TORSDOF 5
DOCKED: TER
DOCKED: ENDMDL
________________________________________________________________________________


    FINAL DOCKED STATE:
    ________________________


Run:   3 / 20
Time taken for this run:   0.040s

DOCKED: MODEL        3
DOCKED: USER    Run = 3
DOCKED: USER
DOCKED: USER    Estimated Free Energy of Binding    =  -9.28 kcal/mol  [=(1)+(2)+(3)-(4)]
DOCKED: USER
DOCKED: USER    (1) Final Intermolecular Energy     = -10.77 kcal/mol
DOCKED: USER        vdW + Hbond + desolv Energy     =  -8.41 kcal/mol
DOCKED: USER        Electrostatic Energy            =  -2.36 kcal/mol
DOCKED: USER        Moving Ligand-Fixed Receptor    = -10.77 kcal/mol
DOCKED: USER        Moving Ligand-Moving Receptor   =  +0.00 kcal/mol
DOCKED: USER    (2) Final Total Internal Energy     =  -0.69 kcal/mol
DOCKED: USER    (3) Torsional Free Energy           =  +1.49 kcal/mol
DOCKED: USER    (4) Unbound System's Energy         =  -0.69 kcal/mol
DOCKED: USER
DOCKED: USER
DOCKED: REMARK SMILES [N-]=C(O)c1ccc2cc(C(=O)N3C[C@]4(CCN([C@H]5CC[NH2+]C5)C4)c4ccccc43)[nH]c2c1
DOCKED: REMARK SMILES IDX 4 1 5 2 6 3 7 4 8 5 9 6 30 7 31 8 32 9 2 11 1 12 3 13 10 15
DOCKED: REMARK SMILES IDX 11 16 12 17 13 18 29 19 14 20 28 21 24 22 15 23 23 24 27 25
DOCKED: REMARK SMILES IDX 25 26 16 27 17 28 26 29 18 30 19 31 22 32 20 33 21 34
DOCKED: REMARK H PARENT 30 10 3 14 21 35 21 36
DOCKED: USER                              x       y       z     vdW  Elec       q    Type
DOCKED: USER                           _______ _______ _______ _____ _____    ______ ____
DOCKED: ROOT
DOCKED: ATOM      1  C   UNL     1     144.362  72.927 220.380 -0.41 +0.00    -0.006 A  
DOCKED: ATOM      2  C   UNL     1     143.622  71.726 220.203 -0.27 -0.00    +0.010 A  
DOCKED: ATOM      3  C   UNL     1     142.232  71.696 220.418 -0.20 -0.00    +0.011 A  
DOCKED: ATOM      4  C   UNL     1     141.609  72.877 220.804 -0.24 -0.00    +0.000 A  
DOCKED: ATOM      5  C   UNL     1     140.285  73.141 221.083 -0.20 -0.01    +0.042 A  
DOCKED: ATOM      6  C   UNL     1     140.253  74.495 221.413 -0.25 -0.02    +0.106 A  
DOCKED: ATOM      7  N   UNL     1     141.493  75.038 221.354 -0.15 +0.10    -0.350 N  
DOCKED: ATOM      8  C   UNL     1     142.308  74.041 220.977 -0.19 -0.01    +0.047 A  
DOCKED: ATOM      9  C   UNL     1     143.686  74.106 220.775 -0.31 -0.01    +0.036 A  
DOCKED: ATOM     10  H   UNL     1     141.767  76.022 221.573 -0.36 -0.09    +0.167 HD 
DOCKED: ENDROOT
DOCKED: BRANCH   1  11
DOCKED: ATOM     11  C   UNL     1     145.826  72.960 220.154 -0.56 -0.00    -0.000 C  
DOCKED: ATOM     12  N   UNL     1     146.308  72.991 218.953 -0.36 -0.82    -0.771 NA 
DOCKED: BRANCH  11  13
DOCKED: ATOM     13  O   UNL     1     146.700  72.960 221.240 -0.21 -0.03    -0.532 OA 
DOCKED: ATOM     14  H   UNL     1     146.632  72.257 221.967 -0.32 -0.11    +0.290 HD 
DOCKED: ENDBRANCH  11  13
DOCKED: ENDBRANCH   1  11
DOCKED: BRANCH   6  15
DOCKED: ATOM     15  C   UNL     1     139.044  75.240 221.809 -0.18 -0.06    +0.274 C  
DOCKED: ATOM     16  O   UNL     1     137.998  74.606 222.115 -0.15 +0.09    -0.267 OA 
DOCKED: BRANCH  15  17
DOCKED: ATOM     17  N   UNL     1     139.053  76.670 221.902 -0.15 +0.07    -0.306 N  
DOCKED: ATOM     18  C   UNL     1     140.224  77.499 221.623 -0.25 -0.04    +0.139 C  
DOCKED: ATOM     19  C   UNL     1     138.016  77.496 222.409 -0.24 -0.01    +0.048 A  
DOCKED: ATOM     20  C   UNL     1     139.735  78.983 221.756 -0.24 -0.01    +0.029 C  
DOCKED: ATOM     21  C   UNL     1     136.804  77.085 222.975 -0.20 -0.00    +0.026 A  
DOCKED: ATOM     22  C   UNL     1     138.365  78.821 222.359 -0.23 +0.00    -0.015 A  
DOCKED: ATOM     23  C   UNL     1     140.667  79.850 222.612 -0.40 -0.01    +0.030 C  
DOCKED: ATOM     24  C   UNL     1     139.663  79.708 220.398 -0.10 -0.03    +0.098 C  
DOCKED: ATOM     25  C   UNL     1     135.919  78.065 223.449 -0.11 -0.00    +0.002 A  
DOCKED: ATOM     26  C   UNL     1     137.494  79.814 222.823 -0.21 -0.00    +0.006 A  
DOCKED: ATOM     27  C   UNL     1     140.977  81.058 221.743 -0.34 -0.02    +0.086 C  
DOCKED: ATOM     28  N   UNL     1     140.778  80.669 220.335 -0.09 +0.10    -0.294 NA 
DOCKED: ATOM     29  C   UNL     1     136.261  79.427 223.367 -0.18 -0.00    +0.000 A  
DOCKED: BRANCH  28  30
DOCKED: ATOM     30  C   UNL     1     142.007  80.071 219.746 -0.21 -0.06    +0.117 C  
DOCKED: ATOM     31  C   UNL     1     141.774  78.656 219.233 -0.24 -0.05    +0.086 C  
DOCKED: ATOM     32  C   UNL     1     142.457  80.813 218.481 -0.16 -0.20    +0.280 C  
DOCKED: ATOM     33  C   UNL     1     142.742  78.498 218.078 -0.17 -0.23    +0.262 C  
DOCKED: ATOM     34  N   UNL     1     143.033  79.834 217.553 +0.10 +0.47    -0.345 N  
DOCKED: ATOM     35  H   UNL     1     142.608  79.947 216.602 -0.22 -0.49    +0.346 HD 
DOCKED: ATOM     36  H   UNL     1     144.069  79.972 217.480 -0.40 -0.86    +0.346 HD 
DOCKED: ENDBRANCH  28  30
DOCKED: ENDBRANCH  15  17
DOCKED: ENDBRANCH   6  15
DOCKED: TORSDOF 5
DOCKED: TER
DOCKED: ENDMDL
________________________________________________________________________________


    FINAL DOCKED STATE:
    ________________________


Run:   4 / 20
Time taken for this run:   0.040s

DOCKED: MODEL        4
DOCKED: USER    Run = 4
DOCKED: USER
DOCKED: USER    Estimated Free Energy of Binding    =  -9.33 kcal/mol  [=(1)+(2)+(3)-(4)]
DOCKED: USER
DOCKED: USER    (1) Final Intermolecular Energy     = -10.82 kcal/mol
DOCKED: USER        vdW + Hbond + desolv Energy     =  -8.45 kcal/mol
DOCKED: USER        Electrostatic Energy            =  -2.37 kcal/mol
DOCKED: USER        Moving Ligand-Fixed Receptor    = -10.82 kcal/mol
DOCKED: USER        Moving Ligand-Moving Receptor   =  +0.00 kcal/mol
DOCKED: USER    (2) Final Total Internal Energy     =  -0.77 kcal/mol
DOCKED: USER    (3) Torsional Free Energy           =  +1.49 kcal/mol
DOCKED: USER    (4) Unbound System's Energy         =  -0.77 kcal/mol
DOCKED: USER
DOCKED: USER
DOCKED: REMARK SMILES [N-]=C(O)c1ccc2cc(C(=O)N3C[C@]4(CCN([C@H]5CC[NH2+]C5)C4)c4ccccc43)[nH]c2c1
DOCKED: REMARK SMILES IDX 4 1 5 2 6 3 7 4 8 5 9 6 30 7 31 8 32 9 2 11 1 12 3 13 10 15
DOCKED: REMARK SMILES IDX 11 16 12 17 13 18 29 19 14 20 28 21 24 22 15 23 23 24 27 25
DOCKED: REMARK SMILES IDX 25 26 16 27 17 28 26 29 18 30 19 31 22 32 20 33 21 34
DOCKED: REMARK H PARENT 30 10 3 14 21 35 21 36
DOCKED: USER                              x       y       z     vdW  Elec       q    Type
DOCKED: USER                           _______ _______ _______ _____ _____    ______ ____
DOCKED: ROOT
DOCKED: ATOM      1  C   UNL     1     144.346  72.965 220.266 -0.40 +0.00    -0.006 A  
DOCKED: ATOM      2  C   UNL     1     143.568  71.825 219.922 -0.24 -0.00    +0.010 A  
DOCKED: ATOM      3  C   UNL     1     142.174  71.819 220.108 -0.17 -0.00    +0.011 A  
DOCKED: ATOM      4  C   UNL     1     141.584  72.962 220.637 -0.22 -0.00    +0.000 A  
DOCKED: ATOM      5  C   UNL     1     140.265  73.236 220.928 -0.19 -0.01    +0.042 A  
DOCKED: ATOM      6  C   UNL     1     140.273  74.535 221.431 -0.26 -0.02    +0.106 A  
DOCKED: ATOM      7  N   UNL     1     141.532  75.035 221.465 -0.14 +0.09    -0.350 N  
DOCKED: ATOM      8  C   UNL     1     142.320  74.066 220.972 -0.19 -0.01    +0.047 A  
DOCKED: ATOM      9  C   UNL     1     143.703  74.106 220.802 -0.31 -0.01    +0.036 A  
DOCKED: ATOM     10  H   UNL     1     141.836  75.971 221.815 -0.47 -0.09    +0.167 HD 
DOCKED: ENDROOT
DOCKED: BRANCH   1  11
DOCKED: ATOM     11  C   UNL     1     145.814  72.973 220.070 -0.54 -0.00    -0.000 C  
DOCKED: ATOM     12  N   UNL     1     146.320  73.009 218.879 -0.36 -0.85    -0.771 NA 
DOCKED: BRANCH  11  13
DOCKED: ATOM     13  O   UNL     1     146.666  72.943 221.172 -0.20 -0.04    -0.532 OA 
DOCKED: ATOM     14  H   UNL     1     146.545  72.259 221.911 -0.33 -0.11    +0.290 HD 
DOCKED: ENDBRANCH  11  13
DOCKED: ENDBRANCH   1  11
DOCKED: BRANCH   6  15
DOCKED: ATOM     15  C   UNL     1     139.083  75.266 221.903 -0.19 -0.06    +0.274 C  
DOCKED: ATOM     16  O   UNL     1     138.077  74.620 222.301 -0.15 +0.09    -0.267 OA 
DOCKED: BRANCH  15  17
DOCKED: ATOM     17  N   UNL     1     139.070  76.699 221.965 -0.15 +0.07    -0.306 N  
DOCKED: ATOM     18  C   UNL     1     140.229  77.538 221.671 -0.25 -0.04    +0.139 C  
DOCKED: ATOM     19  C   UNL     1     138.019  77.520 222.450 -0.24 -0.01    +0.048 A  
DOCKED: ATOM     20  C   UNL     1     139.718  79.018 221.771 -0.24 -0.01    +0.029 C  
DOCKED: ATOM     21  C   UNL     1     136.811  77.102 223.022 -0.19 -0.00    +0.026 A  
DOCKED: ATOM     22  C   UNL     1     138.348  78.848 222.373 -0.23 +0.00    -0.015 A  
DOCKED: ATOM     23  C   UNL     1     140.634  79.917 222.610 -0.40 -0.01    +0.030 C  
DOCKED: ATOM     24  C   UNL     1     139.639  79.711 220.397 -0.10 -0.03    +0.098 C  
DOCKED: ATOM     25  C   UNL     1     135.909  78.079 223.471 -0.11 -0.00    +0.002 A  
DOCKED: ATOM     26  C   UNL     1     137.461  79.838 222.812 -0.21 -0.00    +0.006 A  
DOCKED: ATOM     27  C   UNL     1     140.928  81.111 221.716 -0.33 -0.02    +0.086 C  
DOCKED: ATOM     28  N   UNL     1     140.740  80.687 220.317 -0.09 +0.10    -0.294 NA 
DOCKED: ATOM     29  C   UNL     1     136.231  79.444 223.361 -0.18 -0.00    +0.000 A  
DOCKED: BRANCH  28  30
DOCKED: ATOM     30  C   UNL     1     141.980  80.095 219.744 -0.22 -0.06    +0.117 C  
DOCKED: ATOM     31  C   UNL     1     141.777  78.658 219.285 -0.25 -0.05    +0.086 C  
DOCKED: ATOM     32  C   UNL     1     142.409  80.800 218.451 -0.18 -0.20    +0.280 C  
DOCKED: ATOM     33  C   UNL     1     142.744  78.478 218.133 -0.17 -0.23    +0.262 C  
DOCKED: ATOM     34  N   UNL     1     143.004  79.800 217.557 +0.04 +0.46    -0.345 N  
DOCKED: ATOM     35  H   UNL     1     142.572  79.869 216.605 -0.20 -0.47    +0.346 HD 
DOCKED: ATOM     36  H   UNL     1     144.036  79.958 217.475 -0.40 -0.85    +0.346 HD 
DOCKED: ENDBRANCH  28  30
DOCKED: ENDBRANCH  15  17
DOCKED: ENDBRANCH   6  15
DOCKED: TORSDOF 5
DOCKED: TER
DOCKED: ENDMDL
________________________________________________________________________________


    FINAL DOCKED STATE:
    ________________________


Run:   5 / 20
Time taken for this run:   0.040s

DOCKED: MODEL        5
DOCKED: USER    Run = 5
DOCKED: USER
DOCKED: USER    Estimated Free Energy of Binding    =  -8.51 kcal/mol  [=(1)+(2)+(3)-(4)]
DOCKED: USER
DOCKED: USER    (1) Final Intermolecular Energy     = -10.00 kcal/mol
DOCKED: USER        vdW + Hbond + desolv Energy     =  -7.93 kcal/mol
DOCKED: USER        Electrostatic Energy            =  -2.07 kcal/mol
DOCKED: USER        Moving Ligand-Fixed Receptor    = -10.00 kcal/mol
DOCKED: USER        Moving Ligand-Moving Receptor   =  +0.00 kcal/mol
DOCKED: USER    (2) Final Total Internal Energy     =  -0.68 kcal/mol
DOCKED: USER    (3) Torsional Free Energy           =  +1.49 kcal/mol
DOCKED: USER    (4) Unbound System's Energy         =  -0.68 kcal/mol
DOCKED: USER
DOCKED: USER
DOCKED: REMARK SMILES [N-]=C(O)c1ccc2cc(C(=O)N3C[C@]4(CCN([C@H]5CC[NH2+]C5)C4)c4ccccc43)[nH]c2c1
DOCKED: REMARK SMILES IDX 4 1 5 2 6 3 7 4 8 5 9 6 30 7 31 8 32 9 2 11 1 12 3 13 10 15
DOCKED: REMARK SMILES IDX 11 16 12 17 13 18 29 19 14 20 28 21 24 22 15 23 23 24 27 25
DOCKED: REMARK SMILES IDX 25 26 16 27 17 28 26 29 18 30 19 31 22 32 20 33 21 34
DOCKED: REMARK H PARENT 30 10 3 14 21 35 21 36
DOCKED: USER                              x       y       z     vdW  Elec       q    Type
DOCKED: USER                           _______ _______ _______ _____ _____    ______ ____
DOCKED: ROOT
DOCKED: ATOM      1  C   UNL     1     144.836  71.110 219.598 -0.27 -0.00    -0.006 A  
DOCKED: ATOM      2  C   UNL     1     145.365  72.430 219.584 -0.38 +0.00    +0.010 A  
DOCKED: ATOM      3  C   UNL     1     144.584  73.525 219.998 -0.43 -0.00    +0.011 A  
DOCKED: ATOM      4  C   UNL     1     143.284  73.273 220.421 -0.32 -0.00    +0.000 A  
DOCKED: ATOM      5  C   UNL     1     142.306  74.134 220.869 -0.25 -0.01    +0.042 A  
DOCKED: ATOM      6  C   UNL     1     141.213  73.316 221.152 -0.23 -0.01    +0.106 A  
DOCKED: ATOM      7  N   UNL     1     141.494  72.018 220.880 -0.08 +0.04    -0.350 N  
DOCKED: ATOM      8  C   UNL     1     142.763  72.007 220.440 -0.23 -0.01    +0.047 A  
DOCKED: ATOM      9  C   UNL     1     143.507  70.901 220.035 -0.22 -0.00    +0.036 A  
DOCKED: ATOM     10  H   UNL     1     140.857  71.196 220.975 +0.04 -0.02    +0.167 HD 
DOCKED: ENDROOT
DOCKED: BRANCH   1  11
DOCKED: ATOM     11  C   UNL     1     145.657  69.956 219.163 -0.27 -0.00    -0.000 C  
DOCKED: ATOM     12  N   UNL     1     145.514  68.797 219.721 -0.36 -0.32    -0.771 NA 
DOCKED: BRANCH  11  13
DOCKED: ATOM     13  O   UNL     1     146.594  70.110 218.143 +0.03 -0.61    -0.532 OA 
DOCKED: ATOM     14  H   UNL     1     147.125  69.320 217.795 -0.40 +0.21    +0.290 HD 
DOCKED: ENDBRANCH  11  13
DOCKED: ENDBRANCH   1  11
DOCKED: BRANCH   6  15
DOCKED: ATOM     15  C   UNL     1     139.908  73.791 221.647 -0.18 -0.04    +0.274 C  
DOCKED: ATOM     16  O   UNL     1     139.063  72.955 222.067 -0.22 +0.07    -0.267 OA 
DOCKED: BRANCH  15  17
DOCKED: ATOM     17  N   UNL     1     139.604  75.191 221.709 -0.17 +0.06    -0.306 N  
DOCKED: ATOM     18  C   UNL     1     140.578  76.249 221.451 -0.28 -0.04    +0.139 C  
DOCKED: ATOM     19  C   UNL     1     138.394  75.779 222.160 -0.26 -0.01    +0.048 A  
DOCKED: ATOM     20  C   UNL     1     139.775  77.594 221.534 -0.25 -0.01    +0.029 C  
DOCKED: ATOM     21  C   UNL     1     137.278  75.122 222.694 -0.06 -0.01    +0.026 A  
DOCKED: ATOM     22  C   UNL     1     138.449  77.147 222.093 -0.25 +0.00    -0.015 A  
DOCKED: ATOM     23  C   UNL     1     140.463  78.655 222.402 -0.38 -0.01    +0.030 C  
DOCKED: ATOM     24  C   UNL     1     139.600  78.266 220.158 -0.09 -0.03    +0.098 C  
DOCKED: ATOM     25  C   UNL     1     136.184  75.894 223.114 -0.26 -0.00    +0.002 A  
DOCKED: ATOM     26  C   UNL     1     137.367  77.935 222.503 -0.21 -0.00    +0.006 A  
DOCKED: ATOM     27  C   UNL     1     140.538  79.889 221.517 -0.25 -0.02    +0.086 C  
DOCKED: ATOM     28  N   UNL     1     140.483  79.445 220.112 -0.05 +0.11    -0.294 NA 
DOCKED: ATOM     29  C   UNL     1     136.226  77.296 223.013 -0.20 -0.00    +0.000 A  
DOCKED: BRANCH  28  30
DOCKED: ATOM     30  C   UNL     1     141.834  79.119 219.579 -0.23 -0.07    +0.117 C  
DOCKED: ATOM     31  C   UNL     1     141.884  77.742 218.933 -0.23 -0.05    +0.086 C  
DOCKED: ATOM     32  C   UNL     1     142.233  80.044 218.423 -0.21 -0.21    +0.280 C  
DOCKED: ATOM     33  C   UNL     1     142.941  77.859 217.854 -0.17 -0.22    +0.262 C  
DOCKED: ATOM     34  N   UNL     1     143.032  79.269 217.468 +0.05 +0.46    -0.345 N  
DOCKED: ATOM     35  H   UNL     1     142.658  79.401 216.498 -0.23 -0.50    +0.346 HD 
DOCKED: ATOM     36  H   UNL     1     144.031  79.583 217.493 -0.41 -0.81    +0.346 HD 
DOCKED: ENDBRANCH  28  30
DOCKED: ENDBRANCH  15  17
DOCKED: ENDBRANCH   6  15
DOCKED: TORSDOF 5
DOCKED: TER
DOCKED: ENDMDL
________________________________________________________________________________


    FINAL DOCKED STATE:
    ________________________


Run:   6 / 20
Time taken for this run:   0.040s

DOCKED: MODEL        6
DOCKED: USER    Run = 6
DOCKED: USER
DOCKED: USER    Estimated Free Energy of Binding    =  -8.22 kcal/mol  [=(1)+(2)+(3)-(4)]
DOCKED: USER
DOCKED: USER    (1) Final Intermolecular Energy     =  -9.71 kcal/mol
DOCKED: USER        vdW + Hbond + desolv Energy     =  -8.74 kcal/mol
DOCKED: USER        Electrostatic Energy            =  -0.97 kcal/mol
DOCKED: USER        Moving Ligand-Fixed Receptor    =  -9.71 kcal/mol
DOCKED: USER        Moving Ligand-Moving Receptor   =  +0.00 kcal/mol
DOCKED: USER    (2) Final Total Internal Energy     =  -0.94 kcal/mol
DOCKED: USER    (3) Torsional Free Energy           =  +1.49 kcal/mol
DOCKED: USER    (4) Unbound System's Energy         =  -0.94 kcal/mol
DOCKED: USER
DOCKED: USER
DOCKED: REMARK SMILES [N-]=C(O)c1ccc2cc(C(=O)N3C[C@]4(CCN([C@H]5CC[NH2+]C5)C4)c4ccccc43)[nH]c2c1
DOCKED: REMARK SMILES IDX 4 1 5 2 6 3 7 4 8 5 9 6 30 7 31 8 32 9 2 11 1 12 3 13 10 15
DOCKED: REMARK SMILES IDX 11 16 12 17 13 18 29 19 14 20 28 21 24 22 15 23 23 24 27 25
DOCKED: REMARK SMILES IDX 25 26 16 27 17 28 26 29 18 30 19 31 22 32 20 33 21 34
DOCKED: REMARK H PARENT 30 10 3 14 21 35 21 36
DOCKED: USER                              x       y       z     vdW  Elec       q    Type
DOCKED: USER                           _______ _______ _______ _____ _____    ______ ____
DOCKED: ROOT
DOCKED: ATOM      1  C   UNL     1     144.305  74.062 219.708 -0.39 +0.00    -0.006 A  
DOCKED: ATOM      2  C   UNL     1     144.060  74.931 218.609 -0.09 -0.00    +0.010 A  
DOCKED: ATOM      3  C   UNL     1     142.984  75.837 218.631 -0.28 -0.01    +0.011 A  
DOCKED: ATOM      4  C   UNL     1     142.173  75.855 219.760 -0.28 -0.00    +0.000 A  
DOCKED: ATOM      5  C   UNL     1     141.065  76.620 220.053 -0.19 -0.02    +0.042 A  
DOCKED: ATOM      6  C   UNL     1     140.670  76.204 221.324 -0.28 -0.03    +0.106 A  
DOCKED: ATOM      7  N   UNL     1     141.483  75.223 221.787 -0.09 +0.09    -0.350 N  
DOCKED: ATOM      8  C   UNL     1     142.397  75.025 220.825 -0.22 -0.02    +0.047 A  
DOCKED: ATOM      9  C   UNL     1     143.452  74.114 220.836 -0.28 -0.01    +0.036 A  
DOCKED: ATOM     10  H   UNL     1     141.409  74.712 222.696 +0.08 +0.04    +0.167 HD 
DOCKED: ENDROOT
DOCKED: BRANCH   1  11
DOCKED: ATOM     11  C   UNL     1     145.438  73.108 219.687 -0.46 -0.00    -0.000 C  
DOCKED: ATOM     12  N   UNL     1     145.895  72.652 218.565 -0.44 -0.72    -0.771 NA 
DOCKED: BRANCH  11  13
DOCKED: ATOM     13  O   UNL     1     146.024  72.692 220.881 -0.22 +0.01    -0.532 OA 
DOCKED: ATOM     14  H   UNL     1     145.622  71.940 221.429 -0.37 -0.19    +0.290 HD 
DOCKED: ENDBRANCH  11  13
DOCKED: ENDBRANCH   1  11
DOCKED: BRANCH   6  15
DOCKED: ATOM     15  C   UNL     1     139.505  76.727 222.061 -0.22 -0.06    +0.274 C  
DOCKED: ATOM     16  O   UNL     1     138.573  75.943 222.382 -0.25 +0.06    -0.267 OA 
DOCKED: BRANCH  15  17
DOCKED: ATOM     17  N   UNL     1     139.441  78.102 222.464 -0.15 +0.06    -0.306 N  
DOCKED: ATOM     18  C   UNL     1     138.217  78.900 222.450 -0.19 -0.02    +0.139 C  
DOCKED: ATOM     19  C   UNL     1     140.535  78.944 222.792 -0.40 -0.01    +0.048 A  
DOCKED: ATOM     20  C   UNL     1     138.610  80.290 223.062 -0.31 -0.00    +0.029 C  
DOCKED: ATOM     21  C   UNL     1     141.898  78.628 222.730 -0.45 -0.01    +0.026 A  
DOCKED: ATOM     22  C   UNL     1     140.112  80.205 223.125 -0.41 +0.00    -0.015 A  
DOCKED: ATOM     23  C   UNL     1     138.112  81.478 222.230 -0.18 -0.00    +0.030 C  
DOCKED: ATOM     24  C   UNL     1     138.006  80.512 224.463 -0.32 -0.01    +0.098 C  
DOCKED: ATOM     25  C   UNL     1     142.832  79.619 223.069 -0.60 -0.00    +0.002 A  
DOCKED: ATOM     26  C   UNL     1     141.027  81.206 223.471 -0.47 -0.00    +0.006 A  
DOCKED: ATOM     27  C   UNL     1     137.358  82.353 223.218 -0.15 -0.01    +0.086 C  
DOCKED: ATOM     28  N   UNL     1     136.921  81.501 224.338 -0.15 +0.03    -0.294 NA 
DOCKED: ATOM     29  C   UNL     1     142.397  80.903 223.444 -0.65 -0.00    +0.000 A  
DOCKED: BRANCH  28  30
DOCKED: ATOM     30  C   UNL     1     135.603  80.864 224.070 -0.15 -0.01    +0.117 C  
DOCKED: ATOM     31  C   UNL     1     134.822  80.589 225.348 -0.15 -0.01    +0.086 C  
DOCKED: ATOM     32  C   UNL     1     134.660  81.797 223.300 -0.03 -0.03    +0.280 C  
DOCKED: ATOM     33  C   UNL     1     133.366  80.688 224.942 -0.04 -0.03    +0.262 C  
DOCKED: ATOM     34  N   UNL     1     133.290  81.550 223.760 -0.00 +0.04    -0.345 N  
DOCKED: ATOM     35  H   UNL     1     132.825  82.456 224.005 +0.02 -0.03    +0.346 HD 
DOCKED: ATOM     36  H   UNL     1     132.736  81.076 223.007 +0.01 -0.04    +0.346 HD 
DOCKED: ENDBRANCH  28  30
DOCKED: ENDBRANCH  15  17
DOCKED: ENDBRANCH   6  15
DOCKED: TORSDOF 5
DOCKED: TER
DOCKED: ENDMDL
________________________________________________________________________________


    FINAL DOCKED STATE:
    ________________________


Run:   7 / 20
Time taken for this run:   0.040s

DOCKED: MODEL        7
DOCKED: USER    Run = 7
DOCKED: USER
DOCKED: USER    Estimated Free Energy of Binding    =  -8.59 kcal/mol  [=(1)+(2)+(3)-(4)]
DOCKED: USER
DOCKED: USER    (1) Final Intermolecular Energy     = -10.08 kcal/mol
DOCKED: USER        vdW + Hbond + desolv Energy     =  -8.42 kcal/mol
DOCKED: USER        Electrostatic Energy            =  -1.66 kcal/mol
DOCKED: USER        Moving Ligand-Fixed Receptor    = -10.08 kcal/mol
DOCKED: USER        Moving Ligand-Moving Receptor   =  +0.00 kcal/mol
DOCKED: USER    (2) Final Total Internal Energy     =  -0.89 kcal/mol
DOCKED: USER    (3) Torsional Free Energy           =  +1.49 kcal/mol
DOCKED: USER    (4) Unbound System's Energy         =  -0.89 kcal/mol
DOCKED: USER
DOCKED: USER
DOCKED: REMARK SMILES [N-]=C(O)c1ccc2cc(C(=O)N3C[C@]4(CCN([C@H]5CC[NH2+]C5)C4)c4ccccc43)[nH]c2c1
DOCKED: REMARK SMILES IDX 4 1 5 2 6 3 7 4 8 5 9 6 30 7 31 8 32 9 2 11 1 12 3 13 10 15
DOCKED: REMARK SMILES IDX 11 16 12 17 13 18 29 19 14 20 28 21 24 22 15 23 23 24 27 25
DOCKED: REMARK SMILES IDX 25 26 16 27 17 28 26 29 18 30 19 31 22 32 20 33 21 34
DOCKED: REMARK H PARENT 30 10 3 14 21 35 21 36
DOCKED: USER                              x       y       z     vdW  Elec       q    Type
DOCKED: USER                           _______ _______ _______ _____ _____    ______ ____
DOCKED: ROOT
DOCKED: ATOM      1  C   UNL     1     144.307  73.757 219.834 -0.39 +0.00    -0.006 A  
DOCKED: ATOM      2  C   UNL     1     144.118  74.877 218.977 -0.10 -0.00    +0.010 A  
DOCKED: ATOM      3  C   UNL     1     142.954  75.663 219.064 -0.31 -0.01    +0.011 A  
DOCKED: ATOM      4  C   UNL     1     142.001  75.312 220.013 -0.26 -0.00    +0.000 A  
DOCKED: ATOM      5  C   UNL     1     140.786  75.885 220.316 -0.19 -0.01    +0.042 A  
DOCKED: ATOM      6  C   UNL     1     140.272  75.109 221.353 -0.26 -0.02    +0.106 A  
DOCKED: ATOM      7  N   UNL     1     141.119  74.097 221.667 -0.13 +0.03    -0.350 N  
DOCKED: ATOM      8  C   UNL     1     142.171  74.238 220.845 -0.27 -0.01    +0.047 A  
DOCKED: ATOM      9  C   UNL     1     143.309  73.436 220.785 -0.28 -0.01    +0.036 A  
DOCKED: ATOM     10  H   UNL     1     140.981  73.352 222.385 +0.04 +0.01    +0.167 HD 
DOCKED: ENDROOT
DOCKED: BRANCH   1  11
DOCKED: ATOM     11  C   UNL     1     145.532  72.929 219.745 -0.47 -0.00    -0.000 C  
DOCKED: ATOM     12  N   UNL     1     145.921  72.449 218.608 -0.40 -0.81    -0.771 NA 
DOCKED: BRANCH  11  13
DOCKED: ATOM     13  O   UNL     1     146.278  72.659 220.890 -0.22 -0.03    -0.532 OA 
DOCKED: ATOM     14  H   UNL     1     145.997  71.934 221.540 -0.38 -0.21    +0.290 HD 
DOCKED: ENDBRANCH  11  13
DOCKED: ENDBRANCH   1  11
DOCKED: BRANCH   6  15
DOCKED: ATOM     15  C   UNL     1     138.968  75.324 222.006 -0.18 -0.06    +0.274 C  
DOCKED: ATOM     16  O   UNL     1     138.275  74.329 222.348 -0.14 +0.10    -0.267 OA 
DOCKED: BRANCH  15  17
DOCKED: ATOM     17  N   UNL     1     138.500  76.646 222.306 -0.17 +0.06    -0.306 N  
DOCKED: ATOM     18  C   UNL     1     139.371  77.749 222.705 -0.24 -0.03    +0.139 C  
DOCKED: ATOM     19  C   UNL     1     137.149  77.066 222.412 -0.21 -0.01    +0.048 A  
DOCKED: ATOM     20  C   UNL     1     138.438  79.004 222.826 -0.27 -0.00    +0.029 C  
DOCKED: ATOM     21  C   UNL     1     136.002  76.269 222.309 -0.15 -0.00    +0.026 A  
DOCKED: ATOM     22  C   UNL     1     137.063  78.399 222.721 -0.20 +0.00    -0.015 A  
DOCKED: ATOM     23  C   UNL     1     138.649  79.790 224.126 -0.26 -0.00    +0.030 C  
DOCKED: ATOM     24  C   UNL     1     138.680  80.032 221.703 -0.14 -0.02    +0.098 C  
DOCKED: ATOM     25  C   UNL     1     134.747  76.875 222.477 -0.09 -0.00    +0.002 A  
DOCKED: ATOM     26  C   UNL     1     135.822  79.023 222.889 -0.14 -0.00    +0.006 A  
DOCKED: ATOM     27  C   UNL     1     138.884  81.224 223.678 -0.20 -0.01    +0.086 C  
DOCKED: ATOM     28  N   UNL     1     139.378  81.190 222.289 -0.11 +0.05    -0.294 NA 
DOCKED: ATOM     29  C   UNL     1     134.658  78.250 222.760 -0.10 -0.00    +0.000 A  
DOCKED: BRANCH  28  30
DOCKED: ATOM     30  C   UNL     1     140.858  81.048 222.229 -0.34 -0.02    +0.117 C  
DOCKED: ATOM     31  C   UNL     1     141.477  80.853 223.607 -0.50 -0.01    +0.086 C  
DOCKED: ATOM     32  C   UNL     1     141.283  79.773 221.491 -0.23 -0.10    +0.280 C  
DOCKED: ATOM     33  C   UNL     1     142.714  80.013 223.361 -0.42 -0.08    +0.262 C  
DOCKED: ATOM     34  N   UNL     1     142.502  79.259 222.123 -0.20 +0.20    -0.345 N  
DOCKED: ATOM     35  H   UNL     1     142.393  78.239 222.338 -0.22 -0.27    +0.346 HD 
DOCKED: ATOM     36  H   UNL     1     143.322  79.385 221.483 -0.28 -0.37    +0.346 HD 
DOCKED: ENDBRANCH  28  30
DOCKED: ENDBRANCH  15  17
DOCKED: ENDBRANCH   6  15
DOCKED: TORSDOF 5
DOCKED: TER
DOCKED: ENDMDL
________________________________________________________________________________


    FINAL DOCKED STATE:
    ________________________


Run:   8 / 20
Time taken for this run:   0.040s

DOCKED: MODEL        8
DOCKED: USER    Run = 8
DOCKED: USER
DOCKED: USER    Estimated Free Energy of Binding    =  -8.52 kcal/mol  [=(1)+(2)+(3)-(4)]
DOCKED: USER
DOCKED: USER    (1) Final Intermolecular Energy     = -10.01 kcal/mol
DOCKED: USER        vdW + Hbond + desolv Energy     =  -8.85 kcal/mol
DOCKED: USER        Electrostatic Energy            =  -1.16 kcal/mol
DOCKED: USER        Moving Ligand-Fixed Receptor    = -10.01 kcal/mol
DOCKED: USER        Moving Ligand-Moving Receptor   =  +0.00 kcal/mol
DOCKED: USER    (2) Final Total Internal Energy     =  -1.01 kcal/mol
DOCKED: USER    (3) Torsional Free Energy           =  +1.49 kcal/mol
DOCKED: USER    (4) Unbound System's Energy         =  -1.01 kcal/mol
DOCKED: USER
DOCKED: USER
DOCKED: REMARK SMILES [N-]=C(O)c1ccc2cc(C(=O)N3C[C@]4(CCN([C@H]5CC[NH2+]C5)C4)c4ccccc43)[nH]c2c1
DOCKED: REMARK SMILES IDX 4 1 5 2 6 3 7 4 8 5 9 6 30 7 31 8 32 9 2 11 1 12 3 13 10 15
DOCKED: REMARK SMILES IDX 11 16 12 17 13 18 29 19 14 20 28 21 24 22 15 23 23 24 27 25
DOCKED: REMARK SMILES IDX 25 26 16 27 17 28 26 29 18 30 19 31 22 32 20 33 21 34
DOCKED: REMARK H PARENT 30 10 3 14 21 35 21 36
DOCKED: USER                              x       y       z     vdW  Elec       q    Type
DOCKED: USER                           _______ _______ _______ _____ _____    ______ ____
DOCKED: ROOT
DOCKED: ATOM      1  C   UNL     1     144.465  73.794 220.334 -0.47 +0.00    -0.006 A  
DOCKED: ATOM      2  C   UNL     1     143.337  73.058 220.792 -0.30 -0.00    +0.010 A  
DOCKED: ATOM      3  C   UNL     1     142.072  73.665 220.893 -0.26 -0.00    +0.011 A  
DOCKED: ATOM      4  C   UNL     1     141.962  75.003 220.531 -0.30 -0.00    +0.000 A  
DOCKED: ATOM      5  C   UNL     1     140.870  75.843 220.532 -0.22 -0.01    +0.042 A  
DOCKED: ATOM      6  C   UNL     1     141.358  77.063 220.067 -0.21 -0.05    +0.106 A  
DOCKED: ATOM      7  N   UNL     1     142.686  76.987 219.806 -0.17 +0.25    -0.350 N  
DOCKED: ATOM      8  C   UNL     1     143.038  75.722 220.088 -0.31 -0.03    +0.047 A  
DOCKED: ATOM      9  C   UNL     1     144.306  75.154 219.977 -0.28 -0.02    +0.036 A  
DOCKED: ATOM     10  H   UNL     1     143.313  77.752 219.470 -0.41 -0.17    +0.167 HD 
DOCKED: ENDROOT
DOCKED: BRANCH   1  11
DOCKED: ATOM     11  C   UNL     1     145.797  73.156 220.226 -0.58 -0.00    -0.000 C  
DOCKED: ATOM     12  N   UNL     1     146.321  72.915 219.067 -0.33 -0.83    -0.771 NA 
DOCKED: BRANCH  11  13
DOCKED: ATOM     13  O   UNL     1     146.502  72.810 221.377 -0.21 +0.03    -0.532 OA 
DOCKED: ATOM     14  H   UNL     1     146.292  71.958 221.884 -0.33 -0.23    +0.290 HD 
DOCKED: ENDBRANCH  11  13
DOCKED: ENDBRANCH   1  11
DOCKED: BRANCH   6  15
DOCKED: ATOM     15  C   UNL     1     140.556  78.291 219.911 -0.08 -0.11    +0.274 C  
DOCKED: ATOM     16  O   UNL     1     140.089  78.586 218.778 -0.03 +0.10    -0.267 OA 
DOCKED: BRANCH  15  17
DOCKED: ATOM     17  N   UNL     1     140.255  79.126 221.037 -0.06 +0.10    -0.306 N  
DOCKED: ATOM     18  C   UNL     1     138.932  79.684 221.308 -0.11 -0.03    +0.139 C  
DOCKED: ATOM     19  C   UNL     1     141.180  79.664 221.969 -0.37 -0.02    +0.048 A  
DOCKED: ATOM     20  C   UNL     1     139.060  80.434 222.679 -0.29 -0.00    +0.029 C  
DOCKED: ATOM     21  C   UNL     1     142.575  79.542 221.946 -0.32 -0.01    +0.026 A  
DOCKED: ATOM     22  C   UNL     1     140.548  80.428 222.915 -0.41 +0.00    -0.015 A  
DOCKED: ATOM     23  C   UNL     1     138.464  81.847 222.652 -0.18 -0.00    +0.030 C  
DOCKED: ATOM     24  C   UNL     1     138.314  79.715 223.820 -0.23 -0.01    +0.098 C  
DOCKED: ATOM     25  C   UNL     1     143.319  80.180 222.950 -0.62 -0.00    +0.002 A  
DOCKED: ATOM     26  C   UNL     1     141.272  81.069 223.927 -0.42 -0.00    +0.006 A  
DOCKED: ATOM     27  C   UNL     1     137.508  81.886 223.833 -0.18 -0.01    +0.086 C  
DOCKED: ATOM     28  N   UNL     1     137.108  80.501 224.140 -0.16 +0.03    -0.294 NA 
DOCKED: ATOM     29  C   UNL     1     142.669  80.937 223.942 -0.66 -0.00    +0.000 A  
DOCKED: BRANCH  28  30
DOCKED: ATOM     30  C   UNL     1     135.927  80.074 223.342 -0.13 -0.01    +0.117 C  
DOCKED: ATOM     31  C   UNL     1     136.002  78.609 222.934 -0.14 -0.01    +0.086 C  
DOCKED: ATOM     32  C   UNL     1     134.631  80.124 224.161 -0.08 -0.03    +0.280 C  
DOCKED: ATOM     33  C   UNL     1     134.560  78.154 222.851 -0.06 -0.03    +0.262 C  
DOCKED: ATOM     34  N   UNL     1     133.767  79.022 223.724 -0.03 +0.04    -0.345 N  
DOCKED: ATOM     35  H   UNL     1     133.426  78.483 224.555 +0.07 -0.04    +0.346 HD 
DOCKED: ATOM     36  H   UNL     1     132.941  79.398 223.201 +0.03 -0.04    +0.346 HD 
DOCKED: ENDBRANCH  28  30
DOCKED: ENDBRANCH  15  17
DOCKED: ENDBRANCH   6  15
DOCKED: TORSDOF 5
DOCKED: TER
DOCKED: ENDMDL
________________________________________________________________________________


    FINAL DOCKED STATE:
    ________________________


Run:   9 / 20
Time taken for this run:   0.040s

DOCKED: MODEL        9
DOCKED: USER    Run = 9
DOCKED: USER
DOCKED: USER    Estimated Free Energy of Binding    =  -9.15 kcal/mol  [=(1)+(2)+(3)-(4)]
DOCKED: USER
DOCKED: USER    (1) Final Intermolecular Energy     = -10.65 kcal/mol
DOCKED: USER        vdW + Hbond + desolv Energy     =  -8.23 kcal/mol
DOCKED: USER        Electrostatic Energy            =  -2.42 kcal/mol
DOCKED: USER        Moving Ligand-Fixed Receptor    = -10.65 kcal/mol
DOCKED: USER        Moving Ligand-Moving Receptor   =  +0.00 kcal/mol
DOCKED: USER    (2) Final Total Internal Energy     =  -0.75 kcal/mol
DOCKED: USER    (3) Torsional Free Energy           =  +1.49 kcal/mol
DOCKED: USER    (4) Unbound System's Energy         =  -0.75 kcal/mol
DOCKED: USER
DOCKED: USER
DOCKED: REMARK SMILES [N-]=C(O)c1ccc2cc(C(=O)N3C[C@]4(CCN([C@H]5CC[NH2+]C5)C4)c4ccccc43)[nH]c2c1
DOCKED: REMARK SMILES IDX 4 1 5 2 6 3 7 4 8 5 9 6 30 7 31 8 32 9 2 11 1 12 3 13 10 15
DOCKED: REMARK SMILES IDX 11 16 12 17 13 18 29 19 14 20 28 21 24 22 15 23 23 24 27 25
DOCKED: REMARK SMILES IDX 25 26 16 27 17 28 26 29 18 30 19 31 22 32 20 33 21 34
DOCKED: REMARK H PARENT 30 10 3 14 21 35 21 36
DOCKED: USER                              x       y       z     vdW  Elec       q    Type
DOCKED: USER                           _______ _______ _______ _____ _____    ______ ____
DOCKED: ROOT
DOCKED: ATOM      1  C   UNL     1     144.410  72.906 219.981 -0.37 +0.00    -0.006 A  
DOCKED: ATOM      2  C   UNL     1     143.974  71.679 220.553 -0.29 -0.00    +0.010 A  
DOCKED: ATOM      3  C   UNL     1     142.719  71.583 221.182 -0.12 -0.00    +0.011 A  
DOCKED: ATOM      4  C   UNL     1     141.923  72.722 221.225 -0.26 -0.00    +0.000 A  
DOCKED: ATOM      5  C   UNL     1     140.673  72.921 221.769 -0.29 -0.00    +0.042 A  
DOCKED: ATOM      6  C   UNL     1     140.378  74.258 221.508 -0.26 -0.01    +0.106 A  
DOCKED: ATOM      7  N   UNL     1     141.398  74.860 220.848 -0.13 +0.10    -0.350 N  
DOCKED: ATOM      8  C   UNL     1     142.331  73.909 220.678 -0.26 -0.01    +0.047 A  
DOCKED: ATOM      9  C   UNL     1     143.567  74.041 220.049 -0.34 -0.01    +0.036 A  
DOCKED: ATOM     10  H   UNL     1     141.460  75.858 220.547 +0.04 -0.07    +0.167 HD 
DOCKED: ENDROOT
DOCKED: BRANCH   1  11
DOCKED: ATOM     11  C   UNL     1     145.731  73.010 219.318 -0.38 -0.00    -0.000 C  
DOCKED: ATOM     12  N   UNL     1     145.937  72.450 218.169 -0.34 -0.87    -0.771 NA 
DOCKED: BRANCH  11  13
DOCKED: ATOM     13  O   UNL     1     146.766  73.716 219.928 -0.29 -0.18    -0.532 OA 
DOCKED: ATOM     14  H   UNL     1     146.903  74.705 219.748 -0.36 -0.09    +0.290 HD 
DOCKED: ENDBRANCH  11  13
DOCKED: ENDBRANCH   1  11
DOCKED: BRANCH   6  15
DOCKED: ATOM     15  C   UNL     1     139.142  74.947 221.920 -0.18 -0.06    +0.274 C  
DOCKED: ATOM     16  O   UNL     1     138.141  74.267 222.269 -0.13 +0.10    -0.267 OA 
DOCKED: BRANCH  15  17
DOCKED: ATOM     17  N   UNL     1     139.077  76.378 221.980 -0.17 +0.07    -0.306 N  
DOCKED: ATOM     18  C   UNL     1     140.207  77.259 221.690 -0.27 -0.04    +0.139 C  
DOCKED: ATOM     19  C   UNL     1     137.995  77.161 222.458 -0.26 -0.01    +0.048 A  
DOCKED: ATOM     20  C   UNL     1     139.641  78.719 221.785 -0.24 -0.01    +0.029 C  
DOCKED: ATOM     21  C   UNL     1     136.800  76.701 223.024 -0.23 -0.00    +0.026 A  
DOCKED: ATOM     22  C   UNL     1     138.275  78.501 222.380 -0.23 +0.00    -0.015 A  
DOCKED: ATOM     23  C   UNL     1     140.520  79.652 222.628 -0.39 -0.01    +0.030 C  
DOCKED: ATOM     24  C   UNL     1     139.545  79.407 220.409 -0.10 -0.03    +0.098 C  
DOCKED: ATOM     25  C   UNL     1     135.861  77.645 223.467 -0.12 -0.00    +0.002 A  
DOCKED: ATOM     26  C   UNL     1     137.351  79.458 222.813 -0.21 -0.00    +0.006 A  
DOCKED: ATOM     27  C   UNL     1     140.775  80.855 221.733 -0.31 -0.02    +0.086 C  
DOCKED: ATOM     28  N   UNL     1     140.610  80.423 220.334 -0.08 +0.10    -0.294 NA 
DOCKED: ATOM     29  C   UNL     1     136.133  79.020 223.356 -0.16 -0.00    +0.000 A  
DOCKED: BRANCH  28  30
DOCKED: ATOM     30  C   UNL     1     141.874  79.876 219.769 -0.24 -0.06    +0.117 C  
DOCKED: ATOM     31  C   UNL     1     141.710  78.451 219.258 -0.24 -0.05    +0.086 C  
DOCKED: ATOM     32  C   UNL     1     142.315  80.631 218.509 -0.19 -0.19    +0.280 C  
DOCKED: ATOM     33  C   UNL     1     142.704  78.329 218.121 -0.19 -0.22    +0.262 C  
DOCKED: ATOM     34  N   UNL     1     142.948  79.675 217.595 -0.07 +0.44    -0.345 N  
DOCKED: ATOM     35  H   UNL     1     142.536  79.767 216.637 -0.17 -0.46    +0.346 HD 
DOCKED: ATOM     36  H   UNL     1     143.979  79.856 217.541 -0.41 -0.80    +0.346 HD 
DOCKED: ENDBRANCH  28  30
DOCKED: ENDBRANCH  15  17
DOCKED: ENDBRANCH   6  15
DOCKED: TORSDOF 5
DOCKED: TER
DOCKED: ENDMDL
________________________________________________________________________________


    FINAL DOCKED STATE:
    ________________________


Run:   10 / 20
Time taken for this run:   0.040s

DOCKED: MODEL        10
DOCKED: USER    Run = 10
DOCKED: USER
DOCKED: USER    Estimated Free Energy of Binding    =  -9.19 kcal/mol  [=(1)+(2)+(3)-(4)]
DOCKED: USER
DOCKED: USER    (1) Final Intermolecular Energy     = -10.69 kcal/mol
DOCKED: USER        vdW + Hbond + desolv Energy     =  -8.30 kcal/mol
DOCKED: USER        Electrostatic Energy            =  -2.38 kcal/mol
DOCKED: USER        Moving Ligand-Fixed Receptor    = -10.69 kcal/mol
DOCKED: USER        Moving Ligand-Moving Receptor   =  +0.00 kcal/mol
DOCKED: USER    (2) Final Total Internal Energy     =  -0.72 kcal/mol
DOCKED: USER    (3) Torsional Free Energy           =  +1.49 kcal/mol
DOCKED: USER    (4) Unbound System's Energy         =  -0.72 kcal/mol
DOCKED: USER
DOCKED: USER
DOCKED: REMARK SMILES [N-]=C(O)c1ccc2cc(C(=O)N3C[C@]4(CCN([C@H]5CC[NH2+]C5)C4)c4ccccc43)[nH]c2c1
DOCKED: REMARK SMILES IDX 4 1 5 2 6 3 7 4 8 5 9 6 30 7 31 8 32 9 2 11 1 12 3 13 10 15
DOCKED: REMARK SMILES IDX 11 16 12 17 13 18 29 19 14 20 28 21 24 22 15 23 23 24 27 25
DOCKED: REMARK SMILES IDX 25 26 16 27 17 28 26 29 18 30 19 31 22 32 20 33 21 34
DOCKED: REMARK H PARENT 30 10 3 14 21 35 21 36
DOCKED: USER                              x       y       z     vdW  Elec       q    Type
DOCKED: USER                           _______ _______ _______ _____ _____    ______ ____
DOCKED: ROOT
DOCKED: ATOM      1  C   UNL     1     144.326  72.824 220.324 -0.40 +0.00    -0.006 A  
DOCKED: ATOM      2  C   UNL     1     143.575  71.630 220.145 -0.26 -0.00    +0.010 A  
DOCKED: ATOM      3  C   UNL     1     142.190  71.605 220.388 -0.19 -0.00    +0.011 A  
DOCKED: ATOM      4  C   UNL     1     141.582  72.784 220.805 -0.24 -0.00    +0.000 A  
DOCKED: ATOM      5  C   UNL     1     140.266  73.051 221.117 -0.20 -0.01    +0.042 A  
DOCKED: ATOM      6  C   UNL     1     140.249  74.400 221.467 -0.26 -0.02    +0.106 A  
DOCKED: ATOM      7  N   UNL     1     141.491  74.937 221.391 -0.15 +0.09    -0.350 N  
DOCKED: ATOM      8  C   UNL     1     142.292  73.940 220.981 -0.19 -0.01    +0.047 A  
DOCKED: ATOM      9  C   UNL     1     143.665  74.001 220.751 -0.32 -0.01    +0.036 A  
DOCKED: ATOM     10  H   UNL     1     141.776  75.916 221.618 -0.35 -0.09    +0.167 HD 
DOCKED: ENDROOT
DOCKED: BRANCH   1  11
DOCKED: ATOM     11  C   UNL     1     145.785  72.852 220.068 -0.53 -0.00    -0.000 C  
DOCKED: ATOM     12  N   UNL     1     146.241  73.001 218.866 -0.37 -0.79    -0.771 NA 
DOCKED: BRANCH  11  13
DOCKED: ATOM     13  O   UNL     1     146.682  72.718 221.125 -0.12 -0.05    -0.532 OA 
DOCKED: ATOM     14  H   UNL     1     146.427  72.219 221.970 -0.33 -0.15    +0.290 HD 
DOCKED: ENDBRANCH  11  13
DOCKED: ENDBRANCH   1  11
DOCKED: BRANCH   6  15
DOCKED: ATOM     15  C   UNL     1     139.053  75.146 221.900 -0.18 -0.06    +0.274 C  
DOCKED: ATOM     16  O   UNL     1     138.027  74.512 222.267 -0.14 +0.09    -0.267 OA 
DOCKED: BRANCH  15  17
DOCKED: ATOM     17  N   UNL     1     139.056  76.578 221.960 -0.16 +0.07    -0.306 N  
DOCKED: ATOM     18  C   UNL     1     140.224  77.405 221.665 -0.26 -0.04    +0.139 C  
DOCKED: ATOM     19  C   UNL     1     138.014  77.411 222.443 -0.25 -0.01    +0.048 A  
DOCKED: ATOM     20  C   UNL     1     139.728  78.890 221.762 -0.24 -0.01    +0.029 C  
DOCKED: ATOM     21  C   UNL     1     136.801  77.007 223.015 -0.20 -0.00    +0.026 A  
DOCKED: ATOM     22  C   UNL     1     138.356  78.736 222.364 -0.23 +0.00    -0.015 A  
DOCKED: ATOM     23  C   UNL     1     140.653  79.781 222.601 -0.40 -0.01    +0.030 C  
DOCKED: ATOM     24  C   UNL     1     139.658  79.582 220.387 -0.10 -0.03    +0.098 C  
DOCKED: ATOM     25  C   UNL     1     135.909  77.994 223.463 -0.11 -0.00    +0.002 A  
DOCKED: ATOM     26  C   UNL     1     137.480  79.736 222.801 -0.21 -0.00    +0.006 A  
DOCKED: ATOM     27  C   UNL     1     140.961  80.970 221.705 -0.33 -0.02    +0.086 C  
DOCKED: ATOM     28  N   UNL     1     140.769  80.547 220.306 -0.09 +0.10    -0.294 NA 
DOCKED: ATOM     29  C   UNL     1     136.246  79.356 223.350 -0.18 -0.00    +0.000 A  
DOCKED: BRANCH  28  30
DOCKED: ATOM     30  C   UNL     1     142.003  79.941 219.735 -0.20 -0.07    +0.117 C  
DOCKED: ATOM     31  C   UNL     1     141.775  78.518 219.244 -0.24 -0.05    +0.086 C  
DOCKED: ATOM     32  C   UNL     1     142.461  80.662 218.462 -0.18 -0.20    +0.280 C  
DOCKED: ATOM     33  C   UNL     1     142.751  78.342 218.099 -0.18 -0.23    +0.262 C  
DOCKED: ATOM     34  N   UNL     1     143.045  79.669 217.554 +0.10 +0.47    -0.345 N  
DOCKED: ATOM     35  H   UNL     1     142.626  79.766 216.599 -0.24 -0.50    +0.346 HD 
DOCKED: ATOM     36  H   UNL     1     144.081  79.807 217.486 -0.41 -0.87    +0.346 HD 
DOCKED: ENDBRANCH  28  30
DOCKED: ENDBRANCH  15  17
DOCKED: ENDBRANCH   6  15
DOCKED: TORSDOF 5
DOCKED: TER
DOCKED: ENDMDL
________________________________________________________________________________


    FINAL DOCKED STATE:
    ________________________


Run:   11 / 20
Time taken for this run:   0.040s

DOCKED: MODEL        11
DOCKED: USER    Run = 11
DOCKED: USER
DOCKED: USER    Estimated Free Energy of Binding    =  -8.25 kcal/mol  [=(1)+(2)+(3)-(4)]
DOCKED: USER
DOCKED: USER    (1) Final Intermolecular Energy     =  -9.74 kcal/mol
DOCKED: USER        vdW + Hbond + desolv Energy     =  -8.83 kcal/mol
DOCKED: USER        Electrostatic Energy            =  -0.92 kcal/mol
DOCKED: USER        Moving Ligand-Fixed Receptor    =  -9.74 kcal/mol
DOCKED: USER        Moving Ligand-Moving Receptor   =  +0.00 kcal/mol
DOCKED: USER    (2) Final Total Internal Energy     =  -0.91 kcal/mol
DOCKED: USER    (3) Torsional Free Energy           =  +1.49 kcal/mol
DOCKED: USER    (4) Unbound System's Energy         =  -0.91 kcal/mol
DOCKED: USER
DOCKED: USER
DOCKED: REMARK SMILES [N-]=C(O)c1ccc2cc(C(=O)N3C[C@]4(CCN([C@H]5CC[NH2+]C5)C4)c4ccccc43)[nH]c2c1
DOCKED: REMARK SMILES IDX 4 1 5 2 6 3 7 4 8 5 9 6 30 7 31 8 32 9 2 11 1 12 3 13 10 15
DOCKED: REMARK SMILES IDX 11 16 12 17 13 18 29 19 14 20 28 21 24 22 15 23 23 24 27 25
DOCKED: REMARK SMILES IDX 25 26 16 27 17 28 26 29 18 30 19 31 22 32 20 33 21 34
DOCKED: REMARK H PARENT 30 10 3 14 21 35 21 36
DOCKED: USER                              x       y       z     vdW  Elec       q    Type
DOCKED: USER                           _______ _______ _______ _____ _____    ______ ____
DOCKED: ROOT
DOCKED: ATOM      1  C   UNL     1     144.270  74.075 219.697 -0.38 +0.00    -0.006 A  
DOCKED: ATOM      2  C   UNL     1     144.012  74.945 218.602 -0.11 -0.00    +0.010 A  
DOCKED: ATOM      3  C   UNL     1     142.937  75.852 218.638 -0.28 -0.01    +0.011 A  
DOCKED: ATOM      4  C   UNL     1     142.140  75.870 219.777 -0.28 -0.00    +0.000 A  
DOCKED: ATOM      5  C   UNL     1     141.036  76.636 220.084 -0.19 -0.02    +0.042 A  
DOCKED: ATOM      6  C   UNL     1     140.658  76.220 221.360 -0.28 -0.03    +0.106 A  
DOCKED: ATOM      7  N   UNL     1     141.475  75.238 221.812 -0.09 +0.09    -0.350 N  
DOCKED: ATOM      8  C   UNL     1     142.377  75.040 220.838 -0.22 -0.02    +0.047 A  
DOCKED: ATOM      9  C   UNL     1     143.431  74.128 220.836 -0.28 -0.01    +0.036 A  
DOCKED: ATOM     10  H   UNL     1     141.412  74.727 222.721 +0.08 +0.04    +0.167 HD 
DOCKED: ENDROOT
DOCKED: BRANCH   1  11
DOCKED: ATOM     11  C   UNL     1     145.401  73.120 219.661 -0.45 -0.00    -0.000 C  
DOCKED: ATOM     12  N   UNL     1     145.828  72.645 218.535 -0.44 -0.68    -0.771 NA 
DOCKED: BRANCH  11  13
DOCKED: ATOM     13  O   UNL     1     146.020  72.724 220.846 -0.22 +0.00    -0.532 OA 
DOCKED: ATOM     14  H   UNL     1     145.658  71.951 221.393 -0.37 -0.18    +0.290 HD 
DOCKED: ENDBRANCH  11  13
DOCKED: ENDBRANCH   1  11
DOCKED: BRANCH   6  15
DOCKED: ATOM     15  C   UNL     1     139.503  76.744 222.111 -0.22 -0.06    +0.274 C  
DOCKED: ATOM     16  O   UNL     1     138.567  75.963 222.432 -0.25 +0.06    -0.267 OA 
DOCKED: BRANCH  15  17
DOCKED: ATOM     17  N   UNL     1     139.451  78.115 222.529 -0.15 +0.06    -0.306 N  
DOCKED: ATOM     18  C   UNL     1     138.226  78.910 222.572 -0.20 -0.02    +0.139 C  
DOCKED: ATOM     19  C   UNL     1     140.556  78.957 222.820 -0.41 -0.01    +0.048 A  
DOCKED: ATOM     20  C   UNL     1     138.640  80.295 223.180 -0.33 -0.00    +0.029 C  
DOCKED: ATOM     21  C   UNL     1     141.916  78.645 222.699 -0.44 -0.01    +0.026 A  
DOCKED: ATOM     22  C   UNL     1     140.144  80.213 223.181 -0.41 +0.00    -0.015 A  
DOCKED: ATOM     23  C   UNL     1     138.106  81.489 222.380 -0.19 -0.00    +0.030 C  
DOCKED: ATOM     24  C   UNL     1     138.094  80.502 224.607 -0.31 -0.01    +0.098 C  
DOCKED: ATOM     25  C   UNL     1     142.861  79.635 223.008 -0.60 -0.00    +0.002 A  
DOCKED: ATOM     26  C   UNL     1     141.070  81.213 223.498 -0.47 -0.00    +0.006 A  
DOCKED: ATOM     27  C   UNL     1     137.391  82.353 223.406 -0.13 -0.01    +0.086 C  
DOCKED: ATOM     28  N   UNL     1     137.002  81.490 224.535 -0.17 +0.03    -0.294 NA 
DOCKED: ATOM     29  C   UNL     1     142.439  80.914 223.413 -0.64 -0.00    +0.000 A  
DOCKED: BRANCH  28  30
DOCKED: ATOM     30  C   UNL     1     135.676  80.852 224.315 -0.17 -0.01    +0.117 C  
DOCKED: ATOM     31  C   UNL     1     134.814  80.861 225.570 -0.17 -0.01    +0.086 C  
DOCKED: ATOM     32  C   UNL     1     134.818  81.639 223.317 -0.03 -0.03    +0.280 C  
DOCKED: ATOM     33  C   UNL     1     133.388  80.921 225.061 -0.04 -0.03    +0.262 C  
DOCKED: ATOM     34  N   UNL     1     133.414  81.530 223.729 -0.00 +0.04    -0.345 N  
DOCKED: ATOM     35  H   UNL     1     132.975  82.481 223.760 +0.02 -0.03    +0.346 HD 
DOCKED: ATOM     36  H   UNL     1     132.884  80.932 223.052 +0.02 -0.04    +0.346 HD 
DOCKED: ENDBRANCH  28  30
DOCKED: ENDBRANCH  15  17
DOCKED: ENDBRANCH   6  15
DOCKED: TORSDOF 5
DOCKED: TER
DOCKED: ENDMDL
________________________________________________________________________________


    FINAL DOCKED STATE:
    ________________________


Run:   12 / 20
Time taken for this run:   0.040s

DOCKED: MODEL        12
DOCKED: USER    Run = 12
DOCKED: USER
DOCKED: USER    Estimated Free Energy of Binding    =  -9.05 kcal/mol  [=(1)+(2)+(3)-(4)]
DOCKED: USER
DOCKED: USER    (1) Final Intermolecular Energy     = -10.55 kcal/mol
DOCKED: USER        vdW + Hbond + desolv Energy     =  -8.13 kcal/mol
DOCKED: USER        Electrostatic Energy            =  -2.42 kcal/mol
DOCKED: USER        Moving Ligand-Fixed Receptor    = -10.55 kcal/mol
DOCKED: USER        Moving Ligand-Moving Receptor   =  +0.00 kcal/mol
DOCKED: USER    (2) Final Total Internal Energy     =  -0.79 kcal/mol
DOCKED: USER    (3) Torsional Free Energy           =  +1.49 kcal/mol
DOCKED: USER    (4) Unbound System's Energy         =  -0.79 kcal/mol
DOCKED: USER
DOCKED: USER
DOCKED: REMARK SMILES [N-]=C(O)c1ccc2cc(C(=O)N3C[C@]4(CCN([C@H]5CC[NH2+]C5)C4)c4ccccc43)[nH]c2c1
DOCKED: REMARK SMILES IDX 4 1 5 2 6 3 7 4 8 5 9 6 30 7 31 8 32 9 2 11 1 12 3 13 10 15
DOCKED: REMARK SMILES IDX 11 16 12 17 13 18 29 19 14 20 28 21 24 22 15 23 23 24 27 25
DOCKED: REMARK SMILES IDX 25 26 16 27 17 28 26 29 18 30 19 31 22 32 20 33 21 34
DOCKED: REMARK H PARENT 30 10 3 14 21 35 21 36
DOCKED: USER                              x       y       z     vdW  Elec       q    Type
DOCKED: USER                           _______ _______ _______ _____ _____    ______ ____
DOCKED: ROOT
DOCKED: ATOM      1  C   UNL     1     144.353  72.852 219.918 -0.35 +0.00    -0.006 A  
DOCKED: ATOM      2  C   UNL     1     143.923  71.673 220.588 -0.29 -0.00    +0.010 A  
DOCKED: ATOM      3  C   UNL     1     142.668  71.619 221.221 -0.12 -0.00    +0.011 A  
DOCKED: ATOM      4  C   UNL     1     141.864  72.752 221.168 -0.26 -0.00    +0.000 A  
DOCKED: ATOM      5  C   UNL     1     140.611  72.986 221.692 -0.28 -0.00    +0.042 A  
DOCKED: ATOM      6  C   UNL     1     140.307  74.295 221.320 -0.24 -0.02    +0.106 A  
DOCKED: ATOM      7  N   UNL     1     141.325  74.848 220.615 -0.11 +0.10    -0.350 N  
DOCKED: ATOM      8  C   UNL     1     142.265  73.893 220.526 -0.26 -0.01    +0.047 A  
DOCKED: ATOM      9  C   UNL     1     143.501  73.982 219.891 -0.31 -0.01    +0.036 A  
DOCKED: ATOM     10  H   UNL     1     141.380  75.818 220.233 +0.05 -0.06    +0.167 HD 
DOCKED: ENDROOT
DOCKED: BRANCH   1  11
DOCKED: ATOM     11  C   UNL     1     145.674  72.910 219.251 -0.36 -0.00    -0.000 C  
DOCKED: ATOM     12  N   UNL     1     145.878  72.285 218.137 -0.31 -0.86    -0.771 NA 
DOCKED: BRANCH  11  13
DOCKED: ATOM     13  O   UNL     1     146.713  73.644 219.821 -0.35 -0.21    -0.532 OA 
DOCKED: ATOM     14  H   UNL     1     147.027  74.515 219.409 -0.42 -0.06    +0.290 HD 
DOCKED: ENDBRANCH  11  13
DOCKED: ENDBRANCH   1  11
DOCKED: BRANCH   6  15
DOCKED: ATOM     15  C   UNL     1     139.065  75.007 221.671 -0.17 -0.06    +0.274 C  
DOCKED: ATOM     16  O   UNL     1     138.012  74.347 221.882 -0.14 +0.08    -0.267 OA 
DOCKED: BRANCH  15  17
DOCKED: ATOM     17  N   UNL     1     139.048  76.432 221.828 -0.15 +0.07    -0.306 N  
DOCKED: ATOM     18  C   UNL     1     140.199  77.295 221.575 -0.25 -0.04    +0.139 C  
DOCKED: ATOM     19  C   UNL     1     138.000  77.214 222.381 -0.25 -0.01    +0.048 A  
DOCKED: ATOM     20  C   UNL     1     139.683  78.762 221.780 -0.24 -0.01    +0.029 C  
DOCKED: ATOM     21  C   UNL     1     136.802  76.753 222.940 -0.23 -0.00    +0.026 A  
DOCKED: ATOM     22  C   UNL     1     138.322  78.546 222.388 -0.23 +0.00    -0.015 A  
DOCKED: ATOM     23  C   UNL     1     140.607  79.608 222.665 -0.41 -0.01    +0.030 C  
DOCKED: ATOM     24  C   UNL     1     139.583  79.545 220.456 -0.10 -0.03    +0.098 C  
DOCKED: ATOM     25  C   UNL     1     135.903  77.693 223.466 -0.11 -0.00    +0.002 A  
DOCKED: ATOM     26  C   UNL     1     137.437  79.500 222.903 -0.22 -0.00    +0.006 A  
DOCKED: ATOM     27  C   UNL     1     140.884  80.860 221.848 -0.33 -0.02    +0.086 C  
DOCKED: ATOM     28  N   UNL     1     140.679  80.529 220.426 -0.09 +0.09    -0.294 NA 
DOCKED: ATOM     29  C   UNL     1     136.217  79.064 223.442 -0.16 -0.00    +0.000 A  
DOCKED: BRANCH  28  30
DOCKED: ATOM     30  C   UNL     1     141.913  79.983 219.799 -0.23 -0.06    +0.117 C  
DOCKED: ATOM     31  C   UNL     1     141.700  78.592 219.218 -0.23 -0.05    +0.086 C  
DOCKED: ATOM     32  C   UNL     1     142.340  80.794 218.570 -0.17 -0.19    +0.280 C  
DOCKED: ATOM     33  C   UNL     1     142.661  78.508 218.050 -0.19 -0.23    +0.262 C  
DOCKED: ATOM     34  N   UNL     1     142.925  79.873 217.590 -0.07 +0.44    -0.345 N  
DOCKED: ATOM     35  H   UNL     1     142.491  80.026 216.649 -0.14 -0.45    +0.346 HD 
DOCKED: ATOM     36  H   UNL     1     143.958  80.032 217.517 -0.40 -0.80    +0.346 HD 
DOCKED: ENDBRANCH  28  30
DOCKED: ENDBRANCH  15  17
DOCKED: ENDBRANCH   6  15
DOCKED: TORSDOF 5
DOCKED: TER
DOCKED: ENDMDL
________________________________________________________________________________


    FINAL DOCKED STATE:
    ________________________


Run:   13 / 20
Time taken for this run:   0.040s

DOCKED: MODEL        13
DOCKED: USER    Run = 13
DOCKED: USER
DOCKED: USER    Estimated Free Energy of Binding    =  -7.76 kcal/mol  [=(1)+(2)+(3)-(4)]
DOCKED: USER
DOCKED: USER    (1) Final Intermolecular Energy     =  -9.25 kcal/mol
DOCKED: USER        vdW + Hbond + desolv Energy     =  -8.48 kcal/mol
DOCKED: USER        Electrostatic Energy            =  -0.78 kcal/mol
DOCKED: USER        Moving Ligand-Fixed Receptor    =  -9.25 kcal/mol
DOCKED: USER        Moving Ligand-Moving Receptor   =  +0.00 kcal/mol
DOCKED: USER    (2) Final Total Internal Energy     =  -0.93 kcal/mol
DOCKED: USER    (3) Torsional Free Energy           =  +1.49 kcal/mol
DOCKED: USER    (4) Unbound System's Energy         =  -0.93 kcal/mol
DOCKED: USER
DOCKED: USER
DOCKED: REMARK SMILES [N-]=C(O)c1ccc2cc(C(=O)N3C[C@]4(CCN([C@H]5CC[NH2+]C5)C4)c4ccccc43)[nH]c2c1
DOCKED: REMARK SMILES IDX 4 1 5 2 6 3 7 4 8 5 9 6 30 7 31 8 32 9 2 11 1 12 3 13 10 15
DOCKED: REMARK SMILES IDX 11 16 12 17 13 18 29 19 14 20 28 21 24 22 15 23 23 24 27 25
DOCKED: REMARK SMILES IDX 25 26 16 27 17 28 26 29 18 30 19 31 22 32 20 33 21 34
DOCKED: REMARK H PARENT 30 10 3 14 21 35 21 36
DOCKED: USER                              x       y       z     vdW  Elec       q    Type
DOCKED: USER                           _______ _______ _______ _____ _____    ______ ____
DOCKED: ROOT
DOCKED: ATOM      1  C   UNL     1     144.044  73.909 219.232 -0.29 +0.00    -0.006 A  
DOCKED: ATOM      2  C   UNL     1     144.024  75.089 218.438 -0.03 -0.01    +0.010 A  
DOCKED: ATOM      3  C   UNL     1     143.144  76.145 218.737 -0.32 -0.01    +0.011 A  
DOCKED: ATOM      4  C   UNL     1     142.300  75.997 219.831 -0.31 -0.00    +0.000 A  
DOCKED: ATOM      5  C   UNL     1     141.348  76.849 220.349 -0.25 -0.02    +0.042 A  
DOCKED: ATOM      6  C   UNL     1     140.821  76.171 221.447 -0.30 -0.04    +0.106 A  
DOCKED: ATOM      7  N   UNL     1     141.405  74.957 221.594 -0.15 +0.08    -0.350 N  
DOCKED: ATOM      8  C   UNL     1     142.308  74.868 220.604 -0.29 -0.02    +0.047 A  
DOCKED: ATOM      9  C   UNL     1     143.165  73.801 220.336 -0.31 -0.01    +0.036 A  
DOCKED: ATOM     10  H   UNL     1     141.191  74.230 222.313 +0.05 +0.02    +0.167 HD 
DOCKED: ENDROOT
DOCKED: BRANCH   1  11
DOCKED: ATOM     11  C   UNL     1     144.970  72.796 218.918 -0.30 -0.00    -0.000 C  
DOCKED: ATOM     12  N   UNL     1     144.537  71.578 218.848 +0.11 -0.12    -0.771 NA 
DOCKED: BRANCH  11  13
DOCKED: ATOM     13  O   UNL     1     146.321  73.053 218.694 -0.60 -0.61    -0.532 OA 
DOCKED: ATOM     14  H   UNL     1     146.668  74.002 218.616 -0.42 +0.07    +0.290 HD 
DOCKED: ENDBRANCH  11  13
DOCKED: ENDBRANCH   1  11
DOCKED: BRANCH   6  15
DOCKED: ATOM     15  C   UNL     1     139.747  76.680 222.319 -0.23 -0.06    +0.274 C  
DOCKED: ATOM     16  O   UNL     1     138.943  75.867 222.849 -0.29 +0.06    -0.267 OA 
DOCKED: BRANCH  15  17
DOCKED: ATOM     17  N   UNL     1     139.634  78.078 222.616 -0.16 +0.06    -0.306 N  
DOCKED: ATOM     18  C   UNL     1     138.412  78.857 222.426 -0.20 -0.02    +0.139 C  
DOCKED: ATOM     19  C   UNL     1     140.685  78.956 222.988 -0.44 -0.01    +0.048 A  
DOCKED: ATOM     20  C   UNL     1     138.734  80.291 222.974 -0.31 -0.00    +0.029 C  
DOCKED: ATOM     21  C   UNL     1     142.049  78.654 223.081 -0.46 -0.01    +0.026 A  
DOCKED: ATOM     22  C   UNL     1     140.223  80.231 223.188 -0.42 +0.00    -0.015 A  
DOCKED: ATOM     23  C   UNL     1     138.312  81.411 222.015 -0.17 -0.00    +0.030 C  
DOCKED: ATOM     24  C   UNL     1     137.994  80.602 224.290 -0.34 -0.01    +0.098 C  
DOCKED: ATOM     25  C   UNL     1     142.939  79.679 223.438 -0.50 -0.00    +0.002 A  
DOCKED: ATOM     26  C   UNL     1     141.093  81.266 223.550 -0.46 -0.00    +0.006 A  
DOCKED: ATOM     27  C   UNL     1     137.459  82.343 222.861 -0.15 -0.01    +0.086 C  
DOCKED: ATOM     28  N   UNL     1     136.920  81.566 223.991 -0.12 +0.03    -0.294 NA 
DOCKED: ATOM     29  C   UNL     1     142.461  80.980 223.678 -0.65 -0.00    +0.000 A  
DOCKED: BRANCH  28  30
DOCKED: ATOM     30  C   UNL     1     135.639  80.894 223.641 -0.13 -0.01    +0.117 C  
DOCKED: ATOM     31  C   UNL     1     135.306  81.016 222.160 -0.05 -0.01    +0.086 C  
DOCKED: ATOM     32  C   UNL     1     135.713  79.375 223.841 -0.06 -0.03    +0.280 C  
DOCKED: ATOM     33  C   UNL     1     134.518  79.763 221.835 -0.02 -0.03    +0.262 C  
DOCKED: ATOM     34  N   UNL     1     134.896  78.733 222.805 -0.03 +0.04    -0.345 N  
DOCKED: ATOM     35  H   UNL     1     135.445  77.977 222.332 +0.06 -0.05    +0.346 HD 
DOCKED: ATOM     36  H   UNL     1     134.037  78.312 223.233 +0.06 -0.04    +0.346 HD 
DOCKED: ENDBRANCH  28  30
DOCKED: ENDBRANCH  15  17
DOCKED: ENDBRANCH   6  15
DOCKED: TORSDOF 5
DOCKED: TER
DOCKED: ENDMDL
________________________________________________________________________________


    FINAL DOCKED STATE:
    ________________________


Run:   14 / 20
Time taken for this run:   0.040s

DOCKED: MODEL        14
DOCKED: USER    Run = 14
DOCKED: USER
DOCKED: USER    Estimated Free Energy of Binding    =  -9.12 kcal/mol  [=(1)+(2)+(3)-(4)]
DOCKED: USER
DOCKED: USER    (1) Final Intermolecular Energy     = -10.61 kcal/mol
DOCKED: USER        vdW + Hbond + desolv Energy     =  -8.19 kcal/mol
DOCKED: USER        Electrostatic Energy            =  -2.42 kcal/mol
DOCKED: USER        Moving Ligand-Fixed Receptor    = -10.61 kcal/mol
DOCKED: USER        Moving Ligand-Moving Receptor   =  +0.00 kcal/mol
DOCKED: USER    (2) Final Total Internal Energy     =  -0.79 kcal/mol
DOCKED: USER    (3) Torsional Free Energy           =  +1.49 kcal/mol
DOCKED: USER    (4) Unbound System's Energy         =  -0.79 kcal/mol
DOCKED: USER
DOCKED: USER
DOCKED: REMARK SMILES [N-]=C(O)c1ccc2cc(C(=O)N3C[C@]4(CCN([C@H]5CC[NH2+]C5)C4)c4ccccc43)[nH]c2c1
DOCKED: REMARK SMILES IDX 4 1 5 2 6 3 7 4 8 5 9 6 30 7 31 8 32 9 2 11 1 12 3 13 10 15
DOCKED: REMARK SMILES IDX 11 16 12 17 13 18 29 19 14 20 28 21 24 22 15 23 23 24 27 25
DOCKED: REMARK SMILES IDX 25 26 16 27 17 28 26 29 18 30 19 31 22 32 20 33 21 34
DOCKED: REMARK H PARENT 30 10 3 14 21 35 21 36
DOCKED: USER                              x       y       z     vdW  Elec       q    Type
DOCKED: USER                           _______ _______ _______ _____ _____    ______ ____
DOCKED: ROOT
DOCKED: ATOM      1  C   UNL     1     144.262  73.060 220.120 -0.38 +0.00    -0.006 A  
DOCKED: ATOM      2  C   UNL     1     143.449  72.000 219.631 -0.21 -0.00    +0.010 A  
DOCKED: ATOM      3  C   UNL     1     142.051  72.032 219.788 -0.14 -0.00    +0.011 A  
DOCKED: ATOM      4  C   UNL     1     141.494  73.131 220.433 -0.20 -0.00    +0.000 A  
DOCKED: ATOM      5  C   UNL     1     140.181  73.425 220.727 -0.16 -0.01    +0.042 A  
DOCKED: ATOM      6  C   UNL     1     140.227  74.657 221.377 -0.25 -0.02    +0.106 A  
DOCKED: ATOM      7  N   UNL     1     141.504  75.097 221.493 -0.15 +0.10    -0.350 N  
DOCKED: ATOM      8  C   UNL     1     142.265  74.158 220.907 -0.23 -0.01    +0.047 A  
DOCKED: ATOM      9  C   UNL     1     143.652  74.158 220.771 -0.31 -0.01    +0.036 A  
DOCKED: ATOM     10  H   UNL     1     141.836  75.973 221.954 -0.52 -0.09    +0.167 HD 
DOCKED: ENDROOT
DOCKED: BRANCH   1  11
DOCKED: ATOM     11  C   UNL     1     145.734  73.028 219.955 -0.52 -0.00    -0.000 C  
DOCKED: ATOM     12  N   UNL     1     146.306  72.055 219.322 -0.08 -0.96    -0.771 NA 
DOCKED: BRANCH  11  13
DOCKED: ATOM     13  O   UNL     1     146.518  74.053 220.482 -0.26 -0.00    -0.532 OA 
DOCKED: ATOM     14  H   UNL     1     146.821  74.831 219.906 -0.32 -0.11    +0.290 HD 
DOCKED: ENDBRANCH  11  13
DOCKED: ENDBRANCH   1  11
DOCKED: BRANCH   6  15
DOCKED: ATOM     15  C   UNL     1     139.056  75.379 221.906 -0.19 -0.06    +0.274 C  
DOCKED: ATOM     16  O   UNL     1     138.077  74.725 222.356 -0.15 +0.09    -0.267 OA 
DOCKED: BRANCH  15  17
DOCKED: ATOM     17  N   UNL     1     139.034  76.811 221.965 -0.15 +0.07    -0.306 N  
DOCKED: ATOM     18  C   UNL     1     140.187  77.658 221.670 -0.25 -0.04    +0.139 C  
DOCKED: ATOM     19  C   UNL     1     137.977  77.626 222.449 -0.24 -0.01    +0.048 A  
DOCKED: ATOM     20  C   UNL     1     139.666  79.134 221.767 -0.23 -0.01    +0.029 C  
DOCKED: ATOM     21  C   UNL     1     136.772  77.202 223.021 -0.18 -0.00    +0.026 A  
DOCKED: ATOM     22  C   UNL     1     138.297  78.957 222.369 -0.22 +0.00    -0.015 A  
DOCKED: ATOM     23  C   UNL     1     140.576  80.041 222.604 -0.39 -0.01    +0.030 C  
DOCKED: ATOM     24  C   UNL     1     139.583  79.825 220.391 -0.10 -0.03    +0.098 C  
DOCKED: ATOM     25  C   UNL     1     135.864  78.173 223.469 -0.13 -0.00    +0.002 A  
DOCKED: ATOM     26  C   UNL     1     137.404  79.942 222.806 -0.20 -0.00    +0.006 A  
DOCKED: ATOM     27  C   UNL     1     140.863  81.235 221.707 -0.32 -0.02    +0.086 C  
DOCKED: ATOM     28  N   UNL     1     140.677  80.808 220.309 -0.09 +0.09    -0.294 NA 
DOCKED: ATOM     29  C   UNL     1     136.177  79.540 223.356 -0.18 -0.00    +0.000 A  
DOCKED: BRANCH  28  30
DOCKED: ATOM     30  C   UNL     1     141.921  80.223 219.738 -0.24 -0.06    +0.117 C  
DOCKED: ATOM     31  C   UNL     1     141.724  78.788 219.269 -0.24 -0.05    +0.086 C  
DOCKED: ATOM     32  C   UNL     1     142.352  80.937 218.450 -0.17 -0.19    +0.280 C  
DOCKED: ATOM     33  C   UNL     1     142.696  78.618 218.119 -0.18 -0.23    +0.262 C  
DOCKED: ATOM     34  N   UNL     1     142.953  79.944 217.553 -0.05 +0.45    -0.345 N  
DOCKED: ATOM     35  H   UNL     1     142.525  80.017 216.599 -0.17 -0.46    +0.346 HD 
DOCKED: ATOM     36  H   UNL     1     143.985  80.106 217.475 -0.40 -0.83    +0.346 HD 
DOCKED: ENDBRANCH  28  30
DOCKED: ENDBRANCH  15  17
DOCKED: ENDBRANCH   6  15
DOCKED: TORSDOF 5
DOCKED: TER
DOCKED: ENDMDL
________________________________________________________________________________


    FINAL DOCKED STATE:
    ________________________


Run:   15 / 20
Time taken for this run:   0.040s

DOCKED: MODEL        15
DOCKED: USER    Run = 15
DOCKED: USER
DOCKED: USER    Estimated Free Energy of Binding    =  -8.37 kcal/mol  [=(1)+(2)+(3)-(4)]
DOCKED: USER
DOCKED: USER    (1) Final Intermolecular Energy     =  -9.86 kcal/mol
DOCKED: USER        vdW + Hbond + desolv Energy     =  -7.94 kcal/mol
DOCKED: USER        Electrostatic Energy            =  -1.93 kcal/mol
DOCKED: USER        Moving Ligand-Fixed Receptor    =  -9.86 kcal/mol
DOCKED: USER        Moving Ligand-Moving Receptor   =  +0.00 kcal/mol
DOCKED: USER    (2) Final Total Internal Energy     =  -0.87 kcal/mol
DOCKED: USER    (3) Torsional Free Energy           =  +1.49 kcal/mol
DOCKED: USER    (4) Unbound System's Energy         =  -0.87 kcal/mol
DOCKED: USER
DOCKED: USER
DOCKED: REMARK SMILES [N-]=C(O)c1ccc2cc(C(=O)N3C[C@]4(CCN([C@H]5CC[NH2+]C5)C4)c4ccccc43)[nH]c2c1
DOCKED: REMARK SMILES IDX 4 1 5 2 6 3 7 4 8 5 9 6 30 7 31 8 32 9 2 11 1 12 3 13 10 15
DOCKED: REMARK SMILES IDX 11 16 12 17 13 18 29 19 14 20 28 21 24 22 15 23 23 24 27 25
DOCKED: REMARK SMILES IDX 25 26 16 27 17 28 26 29 18 30 19 31 22 32 20 33 21 34
DOCKED: REMARK H PARENT 30 10 3 14 21 35 21 36
DOCKED: USER                              x       y       z     vdW  Elec       q    Type
DOCKED: USER                           _______ _______ _______ _____ _____    ______ ____
DOCKED: ROOT
DOCKED: ATOM      1  C   UNL     1     144.476  73.824 218.472 -0.21 +0.00    -0.006 A  
DOCKED: ATOM      2  C   UNL     1     143.896  74.756 217.567 -0.16 -0.00    +0.010 A  
DOCKED: ATOM      3  C   UNL     1     142.718  75.448 217.901 -0.17 -0.00    +0.011 A  
DOCKED: ATOM      4  C   UNL     1     142.142  75.192 219.141 -0.19 -0.00    +0.000 A  
DOCKED: ATOM      5  C   UNL     1     141.006  75.709 219.724 -0.15 -0.01    +0.042 A  
DOCKED: ATOM      6  C   UNL     1     140.929  75.087 220.969 -0.25 -0.03    +0.106 A  
DOCKED: ATOM      7  N   UNL     1     141.955  74.219 221.142 -0.11 +0.07    -0.350 N  
DOCKED: ATOM      8  C   UNL     1     142.690  74.298 220.021 -0.26 -0.01    +0.047 A  
DOCKED: ATOM      9  C   UNL     1     143.854  73.594 219.723 -0.31 -0.01    +0.036 A  
DOCKED: ATOM     10  H   UNL     1     142.134  73.602 221.965 +0.08 +0.00    +0.167 HD 
DOCKED: ENDROOT
DOCKED: BRANCH   1  11
DOCKED: ATOM     11  C   UNL     1     145.717  73.094 218.122 -0.10 -0.00    -0.000 C  
DOCKED: ATOM     12  N   UNL     1     145.953  71.921 218.615 -0.22 -0.93    -0.771 NA 
DOCKED: BRANCH  11  13
DOCKED: ATOM     13  O   UNL     1     146.644  73.668 217.254 -0.24 -0.32    -0.532 OA 
DOCKED: ATOM     14  H   UNL     1     146.657  74.668 217.088 -0.32 -0.09    +0.290 HD 
DOCKED: ENDBRANCH  11  13
DOCKED: ENDBRANCH   1  11
DOCKED: BRANCH   6  15
DOCKED: ATOM     15  C   UNL     1     139.859  75.307 221.959 -0.20 -0.04    +0.274 C  
DOCKED: ATOM     16  O   UNL     1     139.501  74.357 222.706 -0.54 +0.03    -0.267 OA 
DOCKED: BRANCH  15  17
DOCKED: ATOM     17  N   UNL     1     139.255  76.598 222.122 -0.18 +0.06    -0.306 N  
DOCKED: ATOM     18  C   UNL     1     139.959  77.767 222.644 -0.27 -0.03    +0.139 C  
DOCKED: ATOM     19  C   UNL     1     137.883  76.922 221.958 -0.21 -0.01    +0.048 A  
DOCKED: ATOM     20  C   UNL     1     138.939  78.955 222.546 -0.28 -0.01    +0.029 C  
DOCKED: ATOM     21  C   UNL     1     136.833  76.043 221.665 -0.14 -0.01    +0.026 A  
DOCKED: ATOM     22  C   UNL     1     137.652  78.251 222.202 -0.19 +0.00    -0.015 A  
DOCKED: ATOM     23  C   UNL     1     138.845  79.777 223.837 -0.39 -0.00    +0.030 C  
DOCKED: ATOM     24  C   UNL     1     139.321  79.976 221.456 -0.15 -0.02    +0.098 C  
DOCKED: ATOM     25  C   UNL     1     135.532  76.561 221.573 -0.07 -0.00    +0.002 A  
DOCKED: ATOM     26  C   UNL     1     136.363  78.788 222.112 -0.12 -0.00    +0.006 A  
DOCKED: ATOM     27  C   UNL     1     139.065  81.216 223.396 -0.23 -0.01    +0.086 C  
DOCKED: ATOM     28  N   UNL     1     139.816  81.191 222.127 -0.11 +0.05    -0.294 NA 
DOCKED: ATOM     29  C   UNL     1     135.299  77.931 221.790 -0.07 -0.00    +0.000 A  
DOCKED: BRANCH  28  30
DOCKED: ATOM     30  C   UNL     1     141.287  81.154 222.353 -0.39 -0.02    +0.117 C  
DOCKED: ATOM     31  C   UNL     1     141.642  80.914 223.814 -0.50 -0.01    +0.086 C  
DOCKED: ATOM     32  C   UNL     1     141.945  79.960 221.651 -0.27 -0.12    +0.280 C  
DOCKED: ATOM     33  C   UNL     1     142.965  80.177 223.775 -0.32 -0.06    +0.262 C  
DOCKED: ATOM     34  N   UNL     1     143.057  79.491 222.485 -0.16 +0.19    -0.345 N  
DOCKED: ATOM     35  H   UNL     1     142.989  78.455 222.623 -0.23 -0.30    +0.346 HD 
DOCKED: ATOM     36  H   UNL     1     143.972  79.713 222.026 -0.31 -0.27    +0.346 HD 
DOCKED: ENDBRANCH  28  30
DOCKED: ENDBRANCH  15  17
DOCKED: ENDBRANCH   6  15
DOCKED: TORSDOF 5
DOCKED: TER
DOCKED: ENDMDL
________________________________________________________________________________


    FINAL DOCKED STATE:
    ________________________


Run:   16 / 20
Time taken for this run:   0.040s

DOCKED: MODEL        16
DOCKED: USER    Run = 16
DOCKED: USER
DOCKED: USER    Estimated Free Energy of Binding    =  -8.70 kcal/mol  [=(1)+(2)+(3)-(4)]
DOCKED: USER
DOCKED: USER    (1) Final Intermolecular Energy     = -10.19 kcal/mol
DOCKED: USER        vdW + Hbond + desolv Energy     =  -7.73 kcal/mol
DOCKED: USER        Electrostatic Energy            =  -2.46 kcal/mol
DOCKED: USER        Moving Ligand-Fixed Receptor    = -10.19 kcal/mol
DOCKED: USER        Moving Ligand-Moving Receptor   =  +0.00 kcal/mol
DOCKED: USER    (2) Final Total Internal Energy     =  -0.75 kcal/mol
DOCKED: USER    (3) Torsional Free Energy           =  +1.49 kcal/mol
DOCKED: USER    (4) Unbound System's Energy         =  -0.75 kcal/mol
DOCKED: USER
DOCKED: USER
DOCKED: REMARK SMILES [N-]=C(O)c1ccc2cc(C(=O)N3C[C@]4(CCN([C@H]5CC[NH2+]C5)C4)c4ccccc43)[nH]c2c1
DOCKED: REMARK SMILES IDX 4 1 5 2 6 3 7 4 8 5 9 6 30 7 31 8 32 9 2 11 1 12 3 13 10 15
DOCKED: REMARK SMILES IDX 11 16 12 17 13 18 29 19 14 20 28 21 24 22 15 23 23 24 27 25
DOCKED: REMARK SMILES IDX 25 26 16 27 17 28 26 29 18 30 19 31 22 32 20 33 21 34
DOCKED: REMARK H PARENT 30 10 3 14 21 35 21 36
DOCKED: USER                              x       y       z     vdW  Elec       q    Type
DOCKED: USER                           _______ _______ _______ _____ _____    ______ ____
DOCKED: ROOT
DOCKED: ATOM      1  C   UNL     1     144.310  72.949 219.938 -0.36 +0.00    -0.006 A  
DOCKED: ATOM      2  C   UNL     1     143.791  71.841 220.664 -0.31 -0.00    +0.010 A  
DOCKED: ATOM      3  C   UNL     1     142.502  71.886 221.225 -0.20 -0.00    +0.011 A  
DOCKED: ATOM      4  C   UNL     1     141.755  73.044 221.045 -0.27 -0.00    +0.000 A  
DOCKED: ATOM      5  C   UNL     1     140.487  73.368 221.477 -0.26 -0.01    +0.042 A  
DOCKED: ATOM      6  C   UNL     1     140.264  74.657 220.997 -0.21 -0.02    +0.106 A  
DOCKED: ATOM      7  N   UNL     1     141.343  75.114 220.316 -0.09 +0.11    -0.350 N  
DOCKED: ATOM      8  C   UNL     1     142.241  74.117 220.349 -0.25 -0.01    +0.047 A  
DOCKED: ATOM      9  C   UNL     1     143.514  74.109 219.782 -0.31 -0.01    +0.036 A  
DOCKED: ATOM     10  H   UNL     1     141.463  76.051 219.869 +0.06 -0.07    +0.167 HD 
DOCKED: ENDROOT
DOCKED: BRANCH   1  11
DOCKED: ATOM     11  C   UNL     1     145.668  72.904 219.347 -0.38 -0.00    -0.000 C  
DOCKED: ATOM     12  N   UNL     1     145.899  72.209 218.279 -0.30 -0.90    -0.771 NA 
DOCKED: BRANCH  11  13
DOCKED: ATOM     13  O   UNL     1     146.711  73.613 219.937 -0.33 -0.20    -0.532 OA 
DOCKED: ATOM     14  H   UNL     1     147.000  74.517 219.579 -0.40 -0.05    +0.290 HD 
DOCKED: ENDBRANCH  11  13
DOCKED: ENDBRANCH   1  11
DOCKED: BRANCH   6  15
DOCKED: ATOM     15  C   UNL     1     139.038  75.443 221.225 -0.14 -0.06    +0.274 C  
DOCKED: ATOM     16  O   UNL     1     137.918  74.867 221.195 -0.08 +0.06    -0.267 OA 
DOCKED: BRANCH  15  17
DOCKED: ATOM     17  N   UNL     1     139.102  76.843 221.531 -0.10 +0.07    -0.306 N  
DOCKED: ATOM     18  C   UNL     1     140.289  77.669 221.326 -0.22 -0.05    +0.139 C  
DOCKED: ATOM     19  C   UNL     1     138.117  77.613 222.202 -0.22 -0.01    +0.048 A  
DOCKED: ATOM     20  C   UNL     1     139.860  79.130 221.702 -0.23 -0.01    +0.029 C  
DOCKED: ATOM     21  C   UNL     1     136.914  77.155 222.755 -0.22 -0.00    +0.026 A  
DOCKED: ATOM     22  C   UNL     1     138.510  78.919 222.336 -0.23 +0.00    -0.015 A  
DOCKED: ATOM     23  C   UNL     1     140.856  79.830 222.635 -0.43 -0.01    +0.030 C  
DOCKED: ATOM     24  C   UNL     1     139.758  80.053 220.472 -0.11 -0.03    +0.098 C  
DOCKED: ATOM     25  C   UNL     1     136.084  78.078 223.410 -0.08 -0.00    +0.002 A  
DOCKED: ATOM     26  C   UNL     1     137.695  79.856 222.981 -0.24 -0.00    +0.006 A  
DOCKED: ATOM     27  C   UNL     1     141.174  81.146 221.943 -0.37 -0.02    +0.086 C  
DOCKED: ATOM     28  N   UNL     1     140.904  80.980 220.504 -0.12 +0.09    -0.294 NA 
DOCKED: ATOM     29  C   UNL     1     136.471  79.426 223.517 -0.18 -0.00    +0.000 A  
DOCKED: BRANCH  28  30
DOCKED: ATOM     30  C   UNL     1     142.086  80.442 219.776 -0.20 -0.06    +0.117 C  
DOCKED: ATOM     31  C   UNL     1     141.823  79.066 219.181 -0.25 -0.05    +0.086 C  
DOCKED: ATOM     32  C   UNL     1     142.428  81.280 218.538 -0.05 -0.17    +0.280 C  
DOCKED: ATOM     33  C   UNL     1     142.696  79.004 217.945 -0.18 -0.25    +0.262 C  
DOCKED: ATOM     34  N   UNL     1     142.935  80.379 217.497 -0.07 +0.44    -0.345 N  
DOCKED: ATOM     35  H   UNL     1     142.434  80.555 216.595 -0.07 -0.42    +0.346 HD 
DOCKED: ATOM     36  H   UNL     1     143.961  80.535 217.353 -0.31 -0.83    +0.346 HD 
DOCKED: ENDBRANCH  28  30
DOCKED: ENDBRANCH  15  17
DOCKED: ENDBRANCH   6  15
DOCKED: TORSDOF 5
DOCKED: TER
DOCKED: ENDMDL
________________________________________________________________________________


    FINAL DOCKED STATE:
    ________________________


Run:   17 / 20
Time taken for this run:   0.040s

DOCKED: MODEL        17
DOCKED: USER    Run = 17
DOCKED: USER
DOCKED: USER    Estimated Free Energy of Binding    =  -8.46 kcal/mol  [=(1)+(2)+(3)-(4)]
DOCKED: USER
DOCKED: USER    (1) Final Intermolecular Energy     =  -9.95 kcal/mol
DOCKED: USER        vdW + Hbond + desolv Energy     =  -8.38 kcal/mol
DOCKED: USER        Electrostatic Energy            =  -1.58 kcal/mol
DOCKED: USER        Moving Ligand-Fixed Receptor    =  -9.95 kcal/mol
DOCKED: USER        Moving Ligand-Moving Receptor   =  +0.00 kcal/mol
DOCKED: USER    (2) Final Total Internal Energy     =  -0.92 kcal/mol
DOCKED: USER    (3) Torsional Free Energy           =  +1.49 kcal/mol
DOCKED: USER    (4) Unbound System's Energy         =  -0.92 kcal/mol
DOCKED: USER
DOCKED: USER
DOCKED: REMARK SMILES [N-]=C(O)c1ccc2cc(C(=O)N3C[C@]4(CCN([C@H]5CC[NH2+]C5)C4)c4ccccc43)[nH]c2c1
DOCKED: REMARK SMILES IDX 4 1 5 2 6 3 7 4 8 5 9 6 30 7 31 8 32 9 2 11 1 12 3 13 10 15
DOCKED: REMARK SMILES IDX 11 16 12 17 13 18 29 19 14 20 28 21 24 22 15 23 23 24 27 25
DOCKED: REMARK SMILES IDX 25 26 16 27 17 28 26 29 18 30 19 31 22 32 20 33 21 34
DOCKED: REMARK H PARENT 30 10 3 14 21 35 21 36
DOCKED: USER                              x       y       z     vdW  Elec       q    Type
DOCKED: USER                           _______ _______ _______ _____ _____    ______ ____
DOCKED: ROOT
DOCKED: ATOM      1  C   UNL     1     144.353  72.617 219.811 -0.33 +0.00    -0.006 A  
DOCKED: ATOM      2  C   UNL     1     143.443  71.682 220.377 -0.27 -0.00    +0.010 A  
DOCKED: ATOM      3  C   UNL     1     142.254  72.113 220.993 -0.24 -0.00    +0.011 A  
DOCKED: ATOM      4  C   UNL     1     141.998  73.480 221.026 -0.25 -0.00    +0.000 A  
DOCKED: ATOM      5  C   UNL     1     140.936  74.179 221.556 -0.29 -0.00    +0.042 A  
DOCKED: ATOM      6  C   UNL     1     141.221  75.517 221.291 -0.28 -0.03    +0.106 A  
DOCKED: ATOM      7  N   UNL     1     142.405  75.642 220.643 -0.02 +0.19    -0.350 N  
DOCKED: ATOM      8  C   UNL     1     142.864  74.390 220.484 -0.31 -0.02    +0.047 A  
DOCKED: ATOM      9  C   UNL     1     144.052  73.999 219.869 -0.37 -0.01    +0.036 A  
DOCKED: ATOM     10  H   UNL     1     142.876  76.525 220.343 -0.20 -0.13    +0.167 HD 
DOCKED: ENDROOT
DOCKED: BRANCH   1  11
DOCKED: ATOM     11  C   UNL     1     145.605  72.164 219.162 -0.28 -0.00    -0.000 C  
DOCKED: ATOM     12  N   UNL     1     146.043  70.959 219.342 +0.02 -0.63    -0.771 NA 
DOCKED: BRANCH  11  13
DOCKED: ATOM     13  O   UNL     1     146.325  73.036 218.347 -0.53 -0.67    -0.532 OA 
DOCKED: ATOM     14  H   UNL     1     146.256  74.040 218.465 -0.41 -0.01    +0.290 HD 
DOCKED: ENDBRANCH  11  13
DOCKED: ENDBRANCH   1  11
DOCKED: BRANCH   6  15
DOCKED: ATOM     15  C   UNL     1     140.374  76.657 221.689 -0.23 -0.08    +0.274 C  
DOCKED: ATOM     16  O   UNL     1     139.336  76.448 222.372 -0.27 +0.05    -0.267 OA 
DOCKED: BRANCH  15  17
DOCKED: ATOM     17  N   UNL     1     140.741  78.003 221.356 -0.12 +0.12    -0.306 N  
DOCKED: ATOM     18  C   UNL     1     140.699  78.549 220.002 -0.15 -0.06    +0.139 C  
DOCKED: ATOM     19  C   UNL     1     141.330  78.962 222.221 -0.41 -0.02    +0.048 A  
DOCKED: ATOM     20  C   UNL     1     141.084  80.063 220.143 -0.25 -0.01    +0.029 C  
DOCKED: ATOM     21  C   UNL     1     141.730  78.774 223.549 -0.59 -0.01    +0.026 A  
DOCKED: ATOM     22  C   UNL     1     141.558  80.146 221.570 -0.40 +0.01    -0.015 A  
DOCKED: ATOM     23  C   UNL     1     142.146  80.511 219.132 -0.29 -0.02    +0.030 C  
DOCKED: ATOM     24  C   UNL     1     139.887  81.003 219.898 -0.11 -0.03    +0.098 C  
DOCKED: ATOM     25  C   UNL     1     142.327  79.848 224.227 -0.44 -0.00    +0.002 A  
DOCKED: ATOM     26  C   UNL     1     142.147  81.231 222.229 -0.47 -0.00    +0.006 A  
DOCKED: ATOM     27  C   UNL     1     141.546  81.735 218.457 -0.21 -0.04    +0.086 C  
DOCKED: ATOM     28  N   UNL     1     140.080  81.653 218.589 -0.03 +0.09    -0.294 NA 
DOCKED: ATOM     29  C   UNL     1     142.529  81.075 223.571 -0.62 -0.00    +0.000 A  
DOCKED: BRANCH  28  30
DOCKED: ATOM     30  C   UNL     1     139.465  80.878 217.477 -0.03 -0.04    +0.117 C  
DOCKED: ATOM     31  C   UNL     1     138.312  80.002 217.951 -0.01 -0.02    +0.086 C  
DOCKED: ATOM     32  C   UNL     1     138.788  81.790 216.447 -0.00 -0.08    +0.280 C  
DOCKED: ATOM     33  C   UNL     1     137.378  79.915 216.761 +0.00 -0.06    +0.262 C  
DOCKED: ATOM     34  N   UNL     1     137.602  81.100 215.929 +0.00 +0.08    -0.345 N  
DOCKED: ATOM     35  H   UNL     1     136.769  81.734 215.975 +0.00 -0.07    +0.346 HD 
DOCKED: ATOM     36  H   UNL     1     137.757  80.813 214.933 +0.00 -0.08    +0.346 HD 
DOCKED: ENDBRANCH  28  30
DOCKED: ENDBRANCH  15  17
DOCKED: ENDBRANCH   6  15
DOCKED: TORSDOF 5
DOCKED: TER
DOCKED: ENDMDL
________________________________________________________________________________


    FINAL DOCKED STATE:
    ________________________


Run:   18 / 20
Time taken for this run:   0.040s

DOCKED: MODEL        18
DOCKED: USER    Run = 18
DOCKED: USER
DOCKED: USER    Estimated Free Energy of Binding    =  -8.50 kcal/mol  [=(1)+(2)+(3)-(4)]
DOCKED: USER
DOCKED: USER    (1) Final Intermolecular Energy     =  -9.99 kcal/mol
DOCKED: USER        vdW + Hbond + desolv Energy     =  -8.83 kcal/mol
DOCKED: USER        Electrostatic Energy            =  -1.16 kcal/mol
DOCKED: USER        Moving Ligand-Fixed Receptor    =  -9.99 kcal/mol
DOCKED: USER        Moving Ligand-Moving Receptor   =  +0.00 kcal/mol
DOCKED: USER    (2) Final Total Internal Energy     =  -1.01 kcal/mol
DOCKED: USER    (3) Torsional Free Energy           =  +1.49 kcal/mol
DOCKED: USER    (4) Unbound System's Energy         =  -1.01 kcal/mol
DOCKED: USER
DOCKED: USER
DOCKED: REMARK SMILES [N-]=C(O)c1ccc2cc(C(=O)N3C[C@]4(CCN([C@H]5CC[NH2+]C5)C4)c4ccccc43)[nH]c2c1
DOCKED: REMARK SMILES IDX 4 1 5 2 6 3 7 4 8 5 9 6 30 7 31 8 32 9 2 11 1 12 3 13 10 15
DOCKED: REMARK SMILES IDX 11 16 12 17 13 18 29 19 14 20 28 21 24 22 15 23 23 24 27 25
DOCKED: REMARK SMILES IDX 25 26 16 27 17 28 26 29 18 30 19 31 22 32 20 33 21 34
DOCKED: REMARK H PARENT 30 10 3 14 21 35 21 36
DOCKED: USER                              x       y       z     vdW  Elec       q    Type
DOCKED: USER                           _______ _______ _______ _____ _____    ______ ____
DOCKED: ROOT
DOCKED: ATOM      1  C   UNL     1     144.463  73.799 220.329 -0.47 +0.00    -0.006 A  
DOCKED: ATOM      2  C   UNL     1     143.343  73.078 220.827 -0.30 -0.00    +0.010 A  
DOCKED: ATOM      3  C   UNL     1     142.084  73.695 220.948 -0.25 -0.00    +0.011 A  
DOCKED: ATOM      4  C   UNL     1     141.972  75.026 220.563 -0.30 -0.00    +0.000 A  
DOCKED: ATOM      5  C   UNL     1     140.885  75.873 220.575 -0.23 -0.01    +0.042 A  
DOCKED: ATOM      6  C   UNL     1     141.368  77.081 220.076 -0.21 -0.05    +0.106 A  
DOCKED: ATOM      7  N   UNL     1     142.689  76.992 219.785 -0.17 +0.25    -0.350 N  
DOCKED: ATOM      8  C   UNL     1     143.042  75.731 220.082 -0.31 -0.03    +0.047 A  
DOCKED: ATOM      9  C   UNL     1     144.303  75.154 219.951 -0.27 -0.02    +0.036 A  
DOCKED: ATOM     10  H   UNL     1     143.312  77.747 219.420 -0.41 -0.16    +0.167 HD 
DOCKED: ENDROOT
DOCKED: BRANCH   1  11
DOCKED: ATOM     11  C   UNL     1     145.789  73.152 220.201 -0.58 -0.00    -0.000 C  
DOCKED: ATOM     12  N   UNL     1     146.317  72.954 219.036 -0.35 -0.81    -0.771 NA 
DOCKED: BRANCH  11  13
DOCKED: ATOM     13  O   UNL     1     146.484  72.751 221.341 -0.19 +0.03    -0.532 OA 
DOCKED: ATOM     14  H   UNL     1     146.206  71.926 221.861 -0.34 -0.25    +0.290 HD 
DOCKED: ENDBRANCH  11  13
DOCKED: ENDBRANCH   1  11
DOCKED: BRANCH   6  15
DOCKED: ATOM     15  C   UNL     1     140.569  78.310 219.917 -0.09 -0.11    +0.274 C  
DOCKED: ATOM     16  O   UNL     1     140.113  78.609 218.780 -0.03 +0.10    -0.267 OA 
DOCKED: BRANCH  15  17
DOCKED: ATOM     17  N   UNL     1     140.259  79.142 221.042 -0.06 +0.10    -0.306 N  
DOCKED: ATOM     18  C   UNL     1     138.931  79.691 221.309 -0.11 -0.03    +0.139 C  
DOCKED: ATOM     19  C   UNL     1     141.177  79.685 221.978 -0.37 -0.02    +0.048 A  
DOCKED: ATOM     20  C   UNL     1     139.050  80.441 222.682 -0.29 -0.00    +0.029 C  
DOCKED: ATOM     21  C   UNL     1     142.573  79.573 221.959 -0.35 -0.01    +0.026 A  
DOCKED: ATOM     22  C   UNL     1     140.537  80.445 222.922 -0.41 +0.00    -0.015 A  
DOCKED: ATOM     23  C   UNL     1     138.445  81.850 222.654 -0.18 -0.00    +0.030 C  
DOCKED: ATOM     24  C   UNL     1     138.305  79.716 223.819 -0.23 -0.01    +0.098 C  
DOCKED: ATOM     25  C   UNL     1     143.310  80.215 222.966 -0.62 -0.00    +0.002 A  
DOCKED: ATOM     26  C   UNL     1     141.253  81.089 223.937 -0.40 -0.00    +0.006 A  
DOCKED: ATOM     27  C   UNL     1     137.484  81.881 223.832 -0.19 -0.01    +0.086 C  
DOCKED: ATOM     28  N   UNL     1     137.093  80.493 224.136 -0.16 +0.03    -0.294 NA 
DOCKED: ATOM     29  C   UNL     1     142.651  80.966 223.956 -0.65 -0.00    +0.000 A  
DOCKED: BRANCH  28  30
DOCKED: ATOM     30  C   UNL     1     135.917  80.059 223.334 -0.13 -0.01    +0.117 C  
DOCKED: ATOM     31  C   UNL     1     135.992  78.589 222.945 -0.14 -0.01    +0.086 C  
DOCKED: ATOM     32  C   UNL     1     134.615  80.123 224.142 -0.08 -0.03    +0.280 C  
DOCKED: ATOM     33  C   UNL     1     134.549  78.137 222.856 -0.06 -0.03    +0.262 C  
DOCKED: ATOM     34  N   UNL     1     133.751  79.018 223.712 -0.03 +0.04    -0.345 N  
DOCKED: ATOM     35  H   UNL     1     133.403  78.490 224.547 +0.07 -0.04    +0.346 HD 
DOCKED: ATOM     36  H   UNL     1     132.930  79.389 223.177 +0.02 -0.04    +0.346 HD 
DOCKED: ENDBRANCH  28  30
DOCKED: ENDBRANCH  15  17
DOCKED: ENDBRANCH   6  15
DOCKED: TORSDOF 5
DOCKED: TER
DOCKED: ENDMDL
________________________________________________________________________________


    FINAL DOCKED STATE:
    ________________________


Run:   19 / 20
Time taken for this run:   0.040s

DOCKED: MODEL        19
DOCKED: USER    Run = 19
DOCKED: USER
DOCKED: USER    Estimated Free Energy of Binding    =  -9.20 kcal/mol  [=(1)+(2)+(3)-(4)]
DOCKED: USER
DOCKED: USER    (1) Final Intermolecular Energy     = -10.69 kcal/mol
DOCKED: USER        vdW + Hbond + desolv Energy     =  -8.28 kcal/mol
DOCKED: USER        Electrostatic Energy            =  -2.40 kcal/mol
DOCKED: USER        Moving Ligand-Fixed Receptor    = -10.69 kcal/mol
DOCKED: USER        Moving Ligand-Moving Receptor   =  +0.00 kcal/mol
DOCKED: USER    (2) Final Total Internal Energy     =  -0.67 kcal/mol
DOCKED: USER    (3) Torsional Free Energy           =  +1.49 kcal/mol
DOCKED: USER    (4) Unbound System's Energy         =  -0.67 kcal/mol
DOCKED: USER
DOCKED: USER
DOCKED: REMARK SMILES [N-]=C(O)c1ccc2cc(C(=O)N3C[C@]4(CCN([C@H]5CC[NH2+]C5)C4)c4ccccc43)[nH]c2c1
DOCKED: REMARK SMILES IDX 4 1 5 2 6 3 7 4 8 5 9 6 30 7 31 8 32 9 2 11 1 12 3 13 10 15
DOCKED: REMARK SMILES IDX 11 16 12 17 13 18 29 19 14 20 28 21 24 22 15 23 23 24 27 25
DOCKED: REMARK SMILES IDX 25 26 16 27 17 28 26 29 18 30 19 31 22 32 20 33 21 34
DOCKED: REMARK H PARENT 30 10 3 14 21 35 21 36
DOCKED: USER                              x       y       z     vdW  Elec       q    Type
DOCKED: USER                           _______ _______ _______ _____ _____    ______ ____
DOCKED: ROOT
DOCKED: ATOM      1  C   UNL     1     144.261  72.968 220.182 -0.38 +0.00    -0.006 A  
DOCKED: ATOM      2  C   UNL     1     143.708  71.747 220.657 -0.30 -0.00    +0.010 A  
DOCKED: ATOM      3  C   UNL     1     142.409  71.704 221.196 -0.16 -0.00    +0.011 A  
DOCKED: ATOM      4  C   UNL     1     141.686  72.890 221.245 -0.27 -0.00    +0.000 A  
DOCKED: ATOM      5  C   UNL     1     140.416  73.145 221.714 -0.28 -0.00    +0.042 A  
DOCKED: ATOM      6  C   UNL     1     140.225  74.510 221.505 -0.26 -0.02    +0.106 A  
DOCKED: ATOM      7  N   UNL     1     141.325  75.074 220.948 -0.14 +0.10    -0.350 N  
DOCKED: ATOM      8  C   UNL     1     142.205  74.072 220.791 -0.26 -0.01    +0.047 A  
DOCKED: ATOM      9  C   UNL     1     143.488  74.152 220.254 -0.35 -0.01    +0.036 A  
DOCKED: ATOM     10  H   UNL     1     141.470  76.079 220.705 +0.02 -0.07    +0.167 HD 
DOCKED: ENDROOT
DOCKED: BRANCH   1  11
DOCKED: ATOM     11  C   UNL     1     145.628  73.016 219.615 -0.46 -0.00    -0.000 C  
DOCKED: ATOM     12  N   UNL     1     145.942  72.292 218.589 -0.36 -0.88    -0.771 NA 
DOCKED: BRANCH  11  13
DOCKED: ATOM     13  O   UNL     1     146.592  73.847 220.184 -0.26 -0.08    -0.532 OA 
DOCKED: ATOM     14  H   UNL     1     146.809  74.751 219.780 -0.35 -0.11    +0.290 HD 
DOCKED: ENDBRANCH  11  13
DOCKED: ENDBRANCH   1  11
DOCKED: BRANCH   6  15
DOCKED: ATOM     15  C   UNL     1     139.009  75.259 221.869 -0.18 -0.06    +0.274 C  
DOCKED: ATOM     16  O   UNL     1     137.957  74.629 222.161 -0.15 +0.09    -0.267 OA 
DOCKED: BRANCH  15  17
DOCKED: ATOM     17  N   UNL     1     139.017  76.691 221.948 -0.15 +0.07    -0.306 N  
DOCKED: ATOM     18  C   UNL     1     140.188  77.517 221.663 -0.25 -0.04    +0.139 C  
DOCKED: ATOM     19  C   UNL     1     137.979  77.521 222.445 -0.24 -0.01    +0.048 A  
DOCKED: ATOM     20  C   UNL     1     139.698  79.002 221.781 -0.24 -0.01    +0.029 C  
DOCKED: ATOM     21  C   UNL     1     136.766  77.114 223.014 -0.19 -0.00    +0.026 A  
DOCKED: ATOM     22  C   UNL     1     138.327  78.846 222.383 -0.23 +0.00    -0.015 A  
DOCKED: ATOM     23  C   UNL     1     140.629  79.878 222.629 -0.40 -0.01    +0.030 C  
DOCKED: ATOM     24  C   UNL     1     139.628  79.713 220.415 -0.10 -0.03    +0.098 C  
DOCKED: ATOM     25  C   UNL     1     135.879  78.099 223.476 -0.11 -0.00    +0.002 A  
DOCKED: ATOM     26  C   UNL     1     137.455  79.843 222.835 -0.21 -0.00    +0.006 A  
DOCKED: ATOM     27  C   UNL     1     140.939  81.078 221.749 -0.33 -0.02    +0.086 C  
DOCKED: ATOM     28  N   UNL     1     140.743  80.674 220.345 -0.09 +0.10    -0.294 NA 
DOCKED: ATOM     29  C   UNL     1     136.221  79.460 223.381 -0.18 -0.00    +0.000 A  
DOCKED: BRANCH  28  30
DOCKED: ATOM     30  C   UNL     1     141.973  80.071 219.763 -0.22 -0.06    +0.117 C  
DOCKED: ATOM     31  C   UNL     1     141.756  78.633 219.313 -0.24 -0.05    +0.086 C  
DOCKED: ATOM     32  C   UNL     1     142.394  80.767 218.463 -0.18 -0.20    +0.280 C  
DOCKED: ATOM     33  C   UNL     1     142.710  78.442 218.152 -0.18 -0.22    +0.262 C  
DOCKED: ATOM     34  N   UNL     1     142.973  79.759 217.568 -0.02 +0.46    -0.345 N  
DOCKED: ATOM     35  H   UNL     1     142.533  79.826 216.620 -0.18 -0.46    +0.346 HD 
DOCKED: ATOM     36  H   UNL     1     144.006  79.910 217.475 -0.41 -0.84    +0.346 HD 
DOCKED: ENDBRANCH  28  30
DOCKED: ENDBRANCH  15  17
DOCKED: ENDBRANCH   6  15
DOCKED: TORSDOF 5
DOCKED: TER
DOCKED: ENDMDL
________________________________________________________________________________


    FINAL DOCKED STATE:
    ________________________


Run:   20 / 20
Time taken for this run:   0.040s

DOCKED: MODEL        20
DOCKED: USER    Run = 20
DOCKED: USER
DOCKED: USER    Estimated Free Energy of Binding    =  -9.28 kcal/mol  [=(1)+(2)+(3)-(4)]
DOCKED: USER
DOCKED: USER    (1) Final Intermolecular Energy     = -10.77 kcal/mol
DOCKED: USER        vdW + Hbond + desolv Energy     =  -8.42 kcal/mol
DOCKED: USER        Electrostatic Energy            =  -2.35 kcal/mol
DOCKED: USER        Moving Ligand-Fixed Receptor    = -10.77 kcal/mol
DOCKED: USER        Moving Ligand-Moving Receptor   =  +0.00 kcal/mol
DOCKED: USER    (2) Final Total Internal Energy     =  -0.83 kcal/mol
DOCKED: USER    (3) Torsional Free Energy           =  +1.49 kcal/mol
DOCKED: USER    (4) Unbound System's Energy         =  -0.83 kcal/mol
DOCKED: USER
DOCKED: USER
DOCKED: REMARK SMILES [N-]=C(O)c1ccc2cc(C(=O)N3C[C@]4(CCN([C@H]5CC[NH2+]C5)C4)c4ccccc43)[nH]c2c1
DOCKED: REMARK SMILES IDX 4 1 5 2 6 3 7 4 8 5 9 6 30 7 31 8 32 9 2 11 1 12 3 13 10 15
DOCKED: REMARK SMILES IDX 11 16 12 17 13 18 29 19 14 20 28 21 24 22 15 23 23 24 27 25
DOCKED: REMARK SMILES IDX 25 26 16 27 17 28 26 29 18 30 19 31 22 32 20 33 21 34
DOCKED: REMARK H PARENT 30 10 3 14 21 35 21 36
DOCKED: USER                              x       y       z     vdW  Elec       q    Type
DOCKED: USER                           _______ _______ _______ _____ _____    ______ ____
DOCKED: ROOT
DOCKED: ATOM      1  C   UNL     1     144.276  72.980 220.129 -0.38 +0.00    -0.006 A  
DOCKED: ATOM      2  C   UNL     1     143.471  71.904 219.664 -0.21 -0.00    +0.010 A  
DOCKED: ATOM      3  C   UNL     1     142.074  71.924 219.827 -0.15 -0.00    +0.011 A  
DOCKED: ATOM      4  C   UNL     1     141.509  73.029 220.454 -0.20 -0.00    +0.000 A  
DOCKED: ATOM      5  C   UNL     1     140.193  73.316 220.749 -0.16 -0.01    +0.042 A  
DOCKED: ATOM      6  C   UNL     1     140.231  74.560 221.377 -0.25 -0.02    +0.106 A  
DOCKED: ATOM      7  N   UNL     1     141.504  75.014 221.478 -0.14 +0.09    -0.350 N  
DOCKED: ATOM      8  C   UNL     1     142.271  74.072 220.906 -0.23 -0.01    +0.047 A  
DOCKED: ATOM      9  C   UNL     1     143.657  74.084 220.763 -0.31 -0.01    +0.036 A  
DOCKED: ATOM     10  H   UNL     1     141.829  75.902 221.922 -0.48 -0.09    +0.167 HD 
DOCKED: ENDROOT
DOCKED: BRANCH   1  11
DOCKED: ATOM     11  C   UNL     1     145.747  72.960 219.958 -0.52 -0.00    -0.000 C  
DOCKED: ATOM     12  N   UNL     1     146.274  73.024 218.778 -0.37 -0.83    -0.771 NA 
DOCKED: BRANCH  11  13
DOCKED: ATOM     13  O   UNL     1     146.579  72.873 221.073 -0.18 -0.05    -0.532 OA 
DOCKED: ATOM     14  H   UNL     1     146.398  72.203 221.811 -0.34 -0.14    +0.290 HD 
DOCKED: ENDBRANCH  11  13
DOCKED: ENDBRANCH   1  11
DOCKED: BRANCH   6  15
DOCKED: ATOM     15  C   UNL     1     139.055  75.280 221.898 -0.19 -0.06    +0.274 C  
DOCKED: ATOM     16  O   UNL     1     138.072  74.624 222.338 -0.15 +0.10    -0.267 OA 
DOCKED: BRANCH  15  17
DOCKED: ATOM     17  N   UNL     1     139.031  76.712 221.961 -0.15 +0.07    -0.306 N  
DOCKED: ATOM     18  C   UNL     1     140.183  77.561 221.665 -0.25 -0.04    +0.139 C  
DOCKED: ATOM     19  C   UNL     1     137.975  77.525 222.449 -0.24 -0.01    +0.048 A  
DOCKED: ATOM     20  C   UNL     1     139.661  79.036 221.767 -0.23 -0.01    +0.029 C  
DOCKED: ATOM     21  C   UNL     1     136.772  77.097 223.023 -0.19 -0.00    +0.026 A  
DOCKED: ATOM     22  C   UNL     1     138.294  78.856 222.372 -0.22 +0.00    -0.015 A  
DOCKED: ATOM     23  C   UNL     1     140.572  79.942 222.605 -0.39 -0.01    +0.030 C  
DOCKED: ATOM     24  C   UNL     1     139.574  79.730 220.393 -0.10 -0.03    +0.098 C  
DOCKED: ATOM     25  C   UNL     1     135.864  78.067 223.476 -0.12 -0.00    +0.002 A  
DOCKED: ATOM     26  C   UNL     1     137.400  79.838 222.813 -0.20 -0.00    +0.006 A  
DOCKED: ATOM     27  C   UNL     1     140.855  81.138 221.711 -0.32 -0.02    +0.086 C  
DOCKED: ATOM     28  N   UNL     1     140.667  80.715 220.312 -0.09 +0.09    -0.294 NA 
DOCKED: ATOM     29  C   UNL     1     136.175  79.434 223.365 -0.18 -0.00    +0.000 A  
DOCKED: BRANCH  28  30
DOCKED: ATOM     30  C   UNL     1     141.910  80.133 219.736 -0.24 -0.06    +0.117 C  
DOCKED: ATOM     31  C   UNL     1     141.705  78.709 219.236 -0.24 -0.05    +0.086 C  
DOCKED: ATOM     32  C   UNL     1     142.356  80.870 218.467 -0.18 -0.19    +0.280 C  
DOCKED: ATOM     33  C   UNL     1     142.684  78.556 218.089 -0.19 -0.23    +0.262 C  
DOCKED: ATOM     34  N   UNL     1     142.955  79.892 217.552 -0.04 +0.45    -0.345 N  
DOCKED: ATOM     35  H   UNL     1     142.534  79.989 216.598 -0.18 -0.46    +0.346 HD 
DOCKED: ATOM     36  H   UNL     1     143.989  80.047 217.485 -0.40 -0.83    +0.346 HD 
DOCKED: ENDBRANCH  28  30
DOCKED: ENDBRANCH  15  17
DOCKED: ENDBRANCH   6  15
DOCKED: TORSDOF 5
DOCKED: TER
DOCKED: ENDMDL
________________________________________________________________________________


    CLUSTERING HISTOGRAM
    ____________________


________________________________________________________________________________
     |           |     |           |     |
Clus | Lowest    | Run | Mean      | Num | Histogram
-ter | Binding   |     | Binding   | in  |
Rank | Energy    |     | Energy    | Clus|    5    10   15   20   25   30   35
_____|___________|_____|___________|_____|____:____|____:____|____:____|____:___
   1 |     -9.33 |   4 |     -9.08 |  11 |###########
   2 |     -8.54 |   2 |     -8.45 |   2 |##
   3 |     -8.52 |   8 |     -8.25 |   5 |#####
   4 |     -8.51 |   5 |     -8.51 |   1 |#
   5 |     -8.46 |  17 |     -8.46 |   1 |#
_____|___________|_____|___________|_____|______________________________________


    RMSD TABLE
    __________


_______________________________________________________________________
     |      |      |           |         |                 |
Rank | Sub- | Run  | Binding   | Cluster | Reference       | Grep
     | Rank |      | Energy    | RMSD    | RMSD            | Pattern
_____|______|______|___________|_________|_________________|___________
   1      1      4       -9.33      0.00    270.17           RANKING
   1      2      3       -9.28      0.12    270.18           RANKING
   1      3     20       -9.28      0.12    270.11           RANKING
   1      4     19       -9.20      0.72    270.10           RANKING
   1      5     10       -9.19      0.16    270.14           RANKING
   1      6      9       -9.15      0.80    270.02           RANKING
   1      7     14       -9.12      0.63    270.12           RANKING
   1      8     12       -9.05      0.85    269.98           RANKING
   1      9      1       -8.95      1.26    269.86           RANKING
   1     10     16       -8.70      0.90    270.02           RANKING
   1     11      7       -8.59      1.76    270.64           RANKING
   2      1      2       -8.54      0.00    270.45           RANKING
   2      2     15       -8.37      0.13    270.42           RANKING
   3      1      8       -8.52      0.00    270.86           RANKING
   3      2     18       -8.50      0.04    270.85           RANKING
   3      3     11       -8.25      1.80    271.01           RANKING
   3      4      6       -8.22      1.79    270.96           RANKING
   3      5     13       -7.76      2.00    270.66           RANKING
   4      1      5       -8.51      0.00    269.53           RANKING
   5      1     17       -8.46      0.00    269.76           RANKING

Run time 0.750 sec
Idle time 0.000 sec
