AutoDock-GPU version: v1.6

**********************************************************
**    AutoDock-GPU AUTODOCKTOOLS-COMPATIBLE DLG FILE    **
**********************************************************


    DOCKING PARAMETERS
    ________________________


Ligand file:                               /home/a/REINVENT4/ReinventStudies/scoringData/graph-dock/graph-DockGPU/node-autodockgpu/inputs/GEKDQXSPTHHANP-OUKQBFOZNA-N.pdbqt
Grid fld file:                             /home/a/REINVENT4/ReinventStudies/mols/Rad51/maps/rad51_receptor.maps.fld

Random seed:                               42
Number of runs:                            20
Number of energy evaluations:              1132076
Number of generations:                     42000
Size of population:                        150
Rate of crossover:                         80.000000%
Tournament selection probability limit:    60.000000%
Rate of mutation:                          2.000000%
Maximal allowed delta movement:            +/- 6.000000A
Maximal allowed delta angle:               +/- 90.000000

Rate of local search:                      100.000000%
Maximal number of local search iterations: 300
Rho lower bound:                           0.010000
Spread of local search delta movement:     2.000000A
Spread of local search delta angle:        74.999999
Limit of consecutive successes/failures:   4

Handle symmetry during clustering:         YES
RMSD tolerance:                            2.000000A

Program call in command line was:          /home/a/REINVENT4/ReinventStudies/adgpu-v1.6_linux_x64_cuda12_128wi --filelist batch.txt --heuristics 1 --nrun 20 --psize 150 --lsit 300 --seed 42 --heurmax 12000000 


    GRID PARAMETERS
    ________________________


Receptor name:                             rad51_receptor
Number of grid points (x, y, z):           53, 53, 53
Grid center (x, y, z):                     139.950000, 75.640000, 221.970000A
Grid size (x, y, z):                       19.500000, 19.500000, 19.500000A
Grid spacing:                              0.375000A


    LIGAND PARAMETERS
    ________________________


Ligand name:                               /home/a/REINVENT4/ReinventStudies/scoringData/graph-dock/graph-DockGPU/node-autodockgpu/inputs/GEKDQXSPTHHANP-OUKQBFOZNA-N
Number of atoms:                           26
Number of rotatable bonds:                 5
Number of atom types:                      5


    DUMMY DATA (only for ADT-compatibility)
    ________________________


DPF> outlev 1
DPF> ga_run 20
DPF> fld /home/a/REINVENT4/ReinventStudies/mols/Rad51/maps/rad51_receptor.maps.fld
DPF> move /home/a/REINVENT4/ReinventStudies/scoringData/graph-dock/graph-DockGPU/node-autodockgpu/inputs/GEKDQXSPTHHANP-OUKQBFOZNA-N.pdbqt


    COUNTER STATES
    ________________________


Number of energy evaluations performed:    1137519
Number of generations used:                47


    INPUT LIGAND PDBQT FILE:
    ________________________


INPUT-LIGAND-PDBQT: REMARK SMILES O=c1c2ccccc2nc(/C=C/c2cccnc2)n1Cc1ccccc1
INPUT-LIGAND-PDBQT: REMARK SMILES IDX 10 1 9 2 8 3 7 4 6 5 5 6 4 7 3 8 2 9 1 10 19 11 11 12 12 13
INPUT-LIGAND-PDBQT: REMARK SMILES IDX 13 14 18 15 14 16 17 17 15 18 16 19 20 20 21 21 22 22 26 23
INPUT-LIGAND-PDBQT: REMARK SMILES IDX 23 24 25 25 24 26
INPUT-LIGAND-PDBQT: REMARK H PARENT
INPUT-LIGAND-PDBQT: ROOT
INPUT-LIGAND-PDBQT: ATOM      1  C   UNL     1       0.212   0.843   0.449  1.00  0.00     0.136 A 
INPUT-LIGAND-PDBQT: ATOM      2  N   UNL     1       1.199   1.503  -0.211  1.00  0.00    -0.230 NA
INPUT-LIGAND-PDBQT: ATOM      3  C   UNL     1       2.414   1.707   0.346  1.00  0.00     0.078 A 
INPUT-LIGAND-PDBQT: ATOM      4  C   UNL     1       3.398   2.417  -0.356  1.00  0.00     0.029 A 
INPUT-LIGAND-PDBQT: ATOM      5  C   UNL     1       4.651   2.634   0.222  1.00  0.00     0.002 A 
INPUT-LIGAND-PDBQT: ATOM      6  C   UNL     1       4.928   2.138   1.500  1.00  0.00     0.001 A 
INPUT-LIGAND-PDBQT: ATOM      7  C   UNL     1       3.952   1.426   2.205  1.00  0.00     0.016 A 
INPUT-LIGAND-PDBQT: ATOM      8  C   UNL     1       2.683   1.211   1.634  1.00  0.00     0.066 A 
INPUT-LIGAND-PDBQT: ATOM      9  C   UNL     1       1.663   0.513   2.306  1.00  0.00     0.261 A 
INPUT-LIGAND-PDBQT: ATOM     10  O   UNL     1       1.890   0.042   3.457  1.00  0.00    -0.269 OA
INPUT-LIGAND-PDBQT: ATOM     11  N   UNL     1       0.432   0.342   1.715  1.00  0.00    -0.288 N 
INPUT-LIGAND-PDBQT: ENDROOT
INPUT-LIGAND-PDBQT: BRANCH   1  12
INPUT-LIGAND-PDBQT: ATOM     12  C   UNL     1      -1.084   0.675  -0.233  1.00  0.00     0.048 C 
INPUT-LIGAND-PDBQT: BRANCH  12  13
INPUT-LIGAND-PDBQT: ATOM     13  C   UNL     1      -1.174  -0.057  -1.348  1.00  0.00     0.013 C 
INPUT-LIGAND-PDBQT: BRANCH  13  14
INPUT-LIGAND-PDBQT: ATOM     14  C   UNL     1      -2.473  -0.419  -1.950  1.00  0.00    -0.007 A 
INPUT-LIGAND-PDBQT: ATOM     15  C   UNL     1      -3.572   0.458  -1.931  1.00  0.00     0.119 A 
INPUT-LIGAND-PDBQT: ATOM     16  C   UNL     1      -2.622  -1.668  -2.568  1.00  0.00     0.011 A 
INPUT-LIGAND-PDBQT: ATOM     17  N   UNL     1      -4.753   0.086  -2.493  1.00  0.00    -0.264 NA
INPUT-LIGAND-PDBQT: ATOM     18  C   UNL     1      -3.850  -2.031  -3.125  1.00  0.00     0.021 A 
INPUT-LIGAND-PDBQT: ATOM     19  C   UNL     1      -4.916  -1.131  -3.076  1.00  0.00     0.111 A 
INPUT-LIGAND-PDBQT: ENDBRANCH  13  14
INPUT-LIGAND-PDBQT: ENDBRANCH  12  13
INPUT-LIGAND-PDBQT: ENDBRANCH   1  12
INPUT-LIGAND-PDBQT: BRANCH  11  20
INPUT-LIGAND-PDBQT: ATOM     20  C   UNL     1      -0.637  -0.404   2.422  1.00  0.00     0.163 C 
INPUT-LIGAND-PDBQT: BRANCH  20  21
INPUT-LIGAND-PDBQT: ATOM     21  C   UNL     1      -0.965  -1.698   1.714  1.00  0.00    -0.028 A 
INPUT-LIGAND-PDBQT: ATOM     22  C   UNL     1       0.054  -2.608   1.385  1.00  0.00     0.005 A 
INPUT-LIGAND-PDBQT: ATOM     23  C   UNL     1      -2.292  -1.993   1.356  1.00  0.00     0.005 A 
INPUT-LIGAND-PDBQT: ATOM     24  C   UNL     1      -0.248  -3.779   0.682  1.00  0.00     0.000 A 
INPUT-LIGAND-PDBQT: ATOM     25  C   UNL     1      -2.588  -3.162   0.651  1.00  0.00     0.000 A 
INPUT-LIGAND-PDBQT: ATOM     26  C   UNL     1      -1.568  -4.056   0.314  1.00  0.00     0.000 A 
INPUT-LIGAND-PDBQT: ENDBRANCH  20  21
INPUT-LIGAND-PDBQT: ENDBRANCH  11  20
INPUT-LIGAND-PDBQT: TORSDOF 5


    FINAL DOCKED STATE:
    ________________________


Run:   1 / 20
Time taken for this run:   0.038s

DOCKED: MODEL        1
DOCKED: USER    Run = 1
DOCKED: USER
DOCKED: USER    Estimated Free Energy of Binding    =  -7.17 kcal/mol  [=(1)+(2)+(3)-(4)]
DOCKED: USER
DOCKED: USER    (1) Final Intermolecular Energy     =  -8.66 kcal/mol
DOCKED: USER        vdW + Hbond + desolv Energy     =  -8.60 kcal/mol
DOCKED: USER        Electrostatic Energy            =  -0.06 kcal/mol
DOCKED: USER        Moving Ligand-Fixed Receptor    =  -8.66 kcal/mol
DOCKED: USER        Moving Ligand-Moving Receptor   =  +0.00 kcal/mol
DOCKED: USER    (2) Final Total Internal Energy     =  -1.32 kcal/mol
DOCKED: USER    (3) Torsional Free Energy           =  +1.49 kcal/mol
DOCKED: USER    (4) Unbound System's Energy         =  -1.32 kcal/mol
DOCKED: USER
DOCKED: USER
DOCKED: REMARK SMILES O=c1c2ccccc2nc(/C=C/c2cccnc2)n1Cc1ccccc1
DOCKED: REMARK SMILES IDX 10 1 9 2 8 3 7 4 6 5 5 6 4 7 3 8 2 9 1 10 19 11 11 12 12 13
DOCKED: REMARK SMILES IDX 13 14 18 15 14 16 17 17 15 18 16 19 20 20 21 21 22 22 26 23
DOCKED: REMARK SMILES IDX 23 24 25 25 24 26
DOCKED: REMARK H PARENT
DOCKED: USER                              x       y       z     vdW  Elec       q    Type
DOCKED: USER                           _______ _______ _______ _____ _____    ______ ____
DOCKED: ROOT
DOCKED: ATOM      1  C   UNL     1     139.523  70.318 223.514 -0.24 -0.02    +0.136 A  
DOCKED: ATOM      2  N   UNL     1     140.066  71.187 224.406 -0.29 +0.04    -0.230 NA 
DOCKED: ATOM      3  C   UNL     1     140.309  70.832 225.688 -0.50 -0.01    +0.078 A  
DOCKED: ATOM      4  C   UNL     1     140.845  71.766 226.586 -0.68 -0.00    +0.029 A  
DOCKED: ATOM      5  C   UNL     1     141.090  71.401 227.912 -0.78 -0.00    +0.002 A  
DOCKED: ATOM      6  C   UNL     1     140.806  70.102 228.344 -0.57 -0.00    +0.001 A  
DOCKED: ATOM      7  C   UNL     1     140.275  69.164 227.453 -0.61 -0.00    +0.016 A  
DOCKED: ATOM      8  C   UNL     1     140.016  69.525 226.117 -0.45 -0.01    +0.066 A  
DOCKED: ATOM      9  C   UNL     1     139.470  68.624 225.185 -0.26 -0.04    +0.261 A  
DOCKED: ATOM     10  O   UNL     1     139.217  67.439 225.545 -0.92 -0.01    -0.269 OA 
DOCKED: ATOM     11  N   UNL     1     139.218  69.028 223.894 -0.14 +0.05    -0.288 N  
DOCKED: ENDROOT
DOCKED: BRANCH   1  12
DOCKED: ATOM     12  C   UNL     1     139.285  70.795 222.140 -0.19 -0.01    +0.048 C  
DOCKED: BRANCH  12  13
DOCKED: ATOM     13  C   UNL     1     138.468  71.829 221.913 -0.16 -0.00    +0.013 C  
DOCKED: BRANCH  13  14
DOCKED: ATOM     14  C   UNL     1     138.943  73.227 221.931 -0.22 +0.00    -0.007 A  
DOCKED: ATOM     15  C   UNL     1     140.312  73.547 221.952 -0.24 -0.01    +0.119 A  
DOCKED: ATOM     16  C   UNL     1     138.010  74.272 221.919 -0.18 -0.00    +0.011 A  
DOCKED: ATOM     17  N   UNL     1     140.710  74.848 221.972 -0.63 +0.02    -0.264 NA 
DOCKED: ATOM     18  C   UNL     1     138.445  75.599 221.954 -0.26 -0.01    +0.021 A  
DOCKED: ATOM     19  C   UNL     1     139.814  75.870 221.982 -0.30 -0.02    +0.111 A  
DOCKED: ENDBRANCH  13  14
DOCKED: ENDBRANCH  12  13
DOCKED: ENDBRANCH   1  12
DOCKED: BRANCH  11  20
DOCKED: ATOM     20  C   UNL     1     138.653  68.072 222.911 -0.20 -0.03    +0.163 C  
DOCKED: BRANCH  20  21
DOCKED: ATOM     21  C   UNL     1     137.148  68.183 222.838 -0.12 +0.00    -0.028 A  
DOCKED: ATOM     22  C   UNL     1     136.419  67.405 221.922 -0.14 -0.00    +0.005 A  
DOCKED: ATOM     23  C   UNL     1     136.463  69.087 223.669 -0.19 -0.00    +0.005 A  
DOCKED: ATOM     24  C   UNL     1     135.032  67.551 221.821 -0.10 -0.00    +0.000 A  
DOCKED: ATOM     25  C   UNL     1     135.078  69.232 223.562 -0.15 -0.00    +0.000 A  
DOCKED: ATOM     26  C   UNL     1     134.361  68.465 222.639 -0.10 -0.00    +0.000 A  
DOCKED: ENDBRANCH  20  21
DOCKED: ENDBRANCH  11  20
DOCKED: TORSDOF 5
DOCKED: TER
DOCKED: ENDMDL
________________________________________________________________________________


    FINAL DOCKED STATE:
    ________________________


Run:   2 / 20
Time taken for this run:   0.038s

DOCKED: MODEL        2
DOCKED: USER    Run = 2
DOCKED: USER
DOCKED: USER    Estimated Free Energy of Binding    =  -7.36 kcal/mol  [=(1)+(2)+(3)-(4)]
DOCKED: USER
DOCKED: USER    (1) Final Intermolecular Energy     =  -8.85 kcal/mol
DOCKED: USER        vdW + Hbond + desolv Energy     =  -8.78 kcal/mol
DOCKED: USER        Electrostatic Energy            =  -0.07 kcal/mol
DOCKED: USER        Moving Ligand-Fixed Receptor    =  -8.85 kcal/mol
DOCKED: USER        Moving Ligand-Moving Receptor   =  +0.00 kcal/mol
DOCKED: USER    (2) Final Total Internal Energy     =  -1.21 kcal/mol
DOCKED: USER    (3) Torsional Free Energy           =  +1.49 kcal/mol
DOCKED: USER    (4) Unbound System's Energy         =  -1.21 kcal/mol
DOCKED: USER
DOCKED: USER
DOCKED: REMARK SMILES O=c1c2ccccc2nc(/C=C/c2cccnc2)n1Cc1ccccc1
DOCKED: REMARK SMILES IDX 10 1 9 2 8 3 7 4 6 5 5 6 4 7 3 8 2 9 1 10 19 11 11 12 12 13
DOCKED: REMARK SMILES IDX 13 14 18 15 14 16 17 17 15 18 16 19 20 20 21 21 22 22 26 23
DOCKED: REMARK SMILES IDX 23 24 25 25 24 26
DOCKED: REMARK H PARENT
DOCKED: USER                              x       y       z     vdW  Elec       q    Type
DOCKED: USER                           _______ _______ _______ _____ _____    ______ ____
DOCKED: ROOT
DOCKED: ATOM      1  C   UNL     1     139.582  70.291 223.480 -0.23 -0.02    +0.136 A  
DOCKED: ATOM      2  N   UNL     1     140.116  71.170 224.367 -0.29 +0.04    -0.230 NA 
DOCKED: ATOM      3  C   UNL     1     140.330  70.836 225.660 -0.50 -0.01    +0.078 A  
DOCKED: ATOM      4  C   UNL     1     140.858  71.780 226.551 -0.67 -0.00    +0.029 A  
DOCKED: ATOM      5  C   UNL     1     141.072  71.437 227.888 -0.80 -0.00    +0.002 A  
DOCKED: ATOM      6  C   UNL     1     140.766  70.148 228.338 -0.57 -0.00    +0.001 A  
DOCKED: ATOM      7  C   UNL     1     140.243  69.200 227.453 -0.60 -0.00    +0.016 A  
DOCKED: ATOM      8  C   UNL     1     140.014  69.540 226.106 -0.45 -0.01    +0.066 A  
DOCKED: ATOM      9  C   UNL     1     139.477  68.628 225.179 -0.26 -0.04    +0.261 A  
DOCKED: ATOM     10  O   UNL     1     139.204  67.452 225.555 -0.92 -0.01    -0.269 OA 
DOCKED: ATOM     11  N   UNL     1     139.255  69.011 223.876 -0.13 +0.05    -0.288 N  
DOCKED: ENDROOT
DOCKED: BRANCH   1  12
DOCKED: ATOM     12  C   UNL     1     139.376  70.746 222.093 -0.18 -0.01    +0.048 C  
DOCKED: BRANCH  12  13
DOCKED: ATOM     13  C   UNL     1     140.372  71.322 221.413 -0.19 -0.00    +0.013 C  
DOCKED: BRANCH  13  14
DOCKED: ATOM     14  C   UNL     1     140.604  72.780 221.439 -0.26 +0.00    -0.007 A  
DOCKED: ATOM     15  C   UNL     1     139.693  73.668 222.038 -0.21 -0.02    +0.119 A  
DOCKED: ATOM     16  C   UNL     1     141.768  73.303 220.859 -0.26 -0.00    +0.011 A  
DOCKED: ATOM     17  N   UNL     1     139.941  75.005 222.038 -0.64 +0.03    -0.264 NA 
DOCKED: ATOM     18  C   UNL     1     141.991  74.681 220.860 -0.29 -0.01    +0.021 A  
DOCKED: ATOM     19  C   UNL     1     141.055  75.526 221.460 -0.30 -0.03    +0.111 A  
DOCKED: ENDBRANCH  13  14
DOCKED: ENDBRANCH  12  13
DOCKED: ENDBRANCH   1  12
DOCKED: BRANCH  11  20
DOCKED: ATOM     20  C   UNL     1     138.699  68.043 222.900 -0.19 -0.03    +0.163 C  
DOCKED: BRANCH  20  21
DOCKED: ATOM     21  C   UNL     1     137.197  68.167 222.797 -0.14 +0.00    -0.028 A  
DOCKED: ATOM     22  C   UNL     1     136.499  69.069 223.617 -0.19 -0.00    +0.005 A  
DOCKED: ATOM     23  C   UNL     1     136.480  67.362 221.895 -0.14 -0.00    +0.005 A  
DOCKED: ATOM     24  C   UNL     1     135.103  69.141 223.556 -0.15 -0.00    +0.000 A  
DOCKED: ATOM     25  C   UNL     1     135.086  67.435 221.840 -0.11 -0.00    +0.000 A  
DOCKED: ATOM     26  C   UNL     1     134.396  68.324 222.669 -0.10 -0.00    +0.000 A  
DOCKED: ENDBRANCH  20  21
DOCKED: ENDBRANCH  11  20
DOCKED: TORSDOF 5
DOCKED: TER
DOCKED: ENDMDL
________________________________________________________________________________


    FINAL DOCKED STATE:
    ________________________


Run:   3 / 20
Time taken for this run:   0.038s

DOCKED: MODEL        3
DOCKED: USER    Run = 3
DOCKED: USER
DOCKED: USER    Estimated Free Energy of Binding    =  -7.13 kcal/mol  [=(1)+(2)+(3)-(4)]
DOCKED: USER
DOCKED: USER    (1) Final Intermolecular Energy     =  -8.62 kcal/mol
DOCKED: USER        vdW + Hbond + desolv Energy     =  -8.56 kcal/mol
DOCKED: USER        Electrostatic Energy            =  -0.06 kcal/mol
DOCKED: USER        Moving Ligand-Fixed Receptor    =  -8.62 kcal/mol
DOCKED: USER        Moving Ligand-Moving Receptor   =  +0.00 kcal/mol
DOCKED: USER    (2) Final Total Internal Energy     =  -1.21 kcal/mol
DOCKED: USER    (3) Torsional Free Energy           =  +1.49 kcal/mol
DOCKED: USER    (4) Unbound System's Energy         =  -1.21 kcal/mol
DOCKED: USER
DOCKED: USER
DOCKED: REMARK SMILES O=c1c2ccccc2nc(/C=C/c2cccnc2)n1Cc1ccccc1
DOCKED: REMARK SMILES IDX 10 1 9 2 8 3 7 4 6 5 5 6 4 7 3 8 2 9 1 10 19 11 11 12 12 13
DOCKED: REMARK SMILES IDX 13 14 18 15 14 16 17 17 15 18 16 19 20 20 21 21 22 22 26 23
DOCKED: REMARK SMILES IDX 23 24 25 25 24 26
DOCKED: REMARK H PARENT
DOCKED: USER                              x       y       z     vdW  Elec       q    Type
DOCKED: USER                           _______ _______ _______ _____ _____    ______ ____
DOCKED: ROOT
DOCKED: ATOM      1  C   UNL     1     139.688  70.750 223.532 -0.27 -0.02    +0.136 A  
DOCKED: ATOM      2  N   UNL     1     140.271  71.533 224.477 -0.30 +0.04    -0.230 NA 
DOCKED: ATOM      3  C   UNL     1     140.483  71.089 225.736 -0.53 -0.01    +0.078 A  
DOCKED: ATOM      4  C   UNL     1     141.063  71.936 226.691 -0.71 -0.00    +0.029 A  
DOCKED: ATOM      5  C   UNL     1     141.276  71.479 227.994 -0.73 -0.00    +0.002 A  
DOCKED: ATOM      6  C   UNL     1     140.916  70.175 228.347 -0.56 -0.00    +0.001 A  
DOCKED: ATOM      7  C   UNL     1     140.341  69.323 227.398 -0.60 -0.00    +0.016 A  
DOCKED: ATOM      8  C   UNL     1     140.113  69.778 226.085 -0.45 -0.01    +0.066 A  
DOCKED: ATOM      9  C   UNL     1     139.526  68.966 225.098 -0.25 -0.04    +0.261 A  
DOCKED: ATOM     10  O   UNL     1     139.203  67.777 225.385 -0.86 +0.00    -0.269 OA 
DOCKED: ATOM     11  N   UNL     1     139.307  69.459 223.832 -0.13 +0.05    -0.288 N  
DOCKED: ENDROOT
DOCKED: BRANCH   1  12
DOCKED: ATOM     12  C   UNL     1     139.488  71.321 222.188 -0.22 -0.01    +0.048 C  
DOCKED: BRANCH  12  13
DOCKED: ATOM     13  C   UNL     1     138.888  72.506 222.037 -0.21 -0.00    +0.013 C  
DOCKED: BRANCH  13  14
DOCKED: ATOM     14  C   UNL     1     139.651  73.763 221.900 -0.28 +0.00    -0.007 A  
DOCKED: ATOM     15  C   UNL     1     139.124  75.002 222.307 -0.18 -0.03    +0.119 A  
DOCKED: ATOM     16  C   UNL     1     140.944  73.730 221.359 -0.29 -0.00    +0.011 A  
DOCKED: ATOM     17  N   UNL     1     139.856  76.138 222.161 -0.29 +0.05    -0.264 NA 
DOCKED: ATOM     18  C   UNL     1     141.670  74.913 221.207 -0.29 -0.01    +0.021 A  
DOCKED: ATOM     19  C   UNL     1     141.102  76.121 221.618 -0.30 -0.04    +0.111 A  
DOCKED: ENDBRANCH  13  14
DOCKED: ENDBRANCH  12  13
DOCKED: ENDBRANCH   1  12
DOCKED: BRANCH  11  20
DOCKED: ATOM     20  C   UNL     1     138.698  68.596 222.791 -0.18 -0.03    +0.163 C  
DOCKED: BRANCH  20  21
DOCKED: ATOM     21  C   UNL     1     137.192  68.561 222.918 -0.17 +0.00    -0.028 A  
DOCKED: ATOM     22  C   UNL     1     136.541  69.340 223.890 -0.22 -0.00    +0.005 A  
DOCKED: ATOM     23  C   UNL     1     136.430  67.730 222.080 -0.13 -0.00    +0.005 A  
DOCKED: ATOM     24  C   UNL     1     135.153  69.263 224.039 -0.18 -0.00    +0.000 A  
DOCKED: ATOM     25  C   UNL     1     135.043  67.654 222.235 -0.12 -0.00    +0.000 A  
DOCKED: ATOM     26  C   UNL     1     134.404  68.420 223.213 -0.13 -0.00    +0.000 A  
DOCKED: ENDBRANCH  20  21
DOCKED: ENDBRANCH  11  20
DOCKED: TORSDOF 5
DOCKED: TER
DOCKED: ENDMDL
________________________________________________________________________________


    FINAL DOCKED STATE:
    ________________________


Run:   4 / 20
Time taken for this run:   0.038s

DOCKED: MODEL        4
DOCKED: USER    Run = 4
DOCKED: USER
DOCKED: USER    Estimated Free Energy of Binding    =  -7.35 kcal/mol  [=(1)+(2)+(3)-(4)]
DOCKED: USER
DOCKED: USER    (1) Final Intermolecular Energy     =  -8.84 kcal/mol
DOCKED: USER        vdW + Hbond + desolv Energy     =  -8.77 kcal/mol
DOCKED: USER        Electrostatic Energy            =  -0.07 kcal/mol
DOCKED: USER        Moving Ligand-Fixed Receptor    =  -8.84 kcal/mol
DOCKED: USER        Moving Ligand-Moving Receptor   =  +0.00 kcal/mol
DOCKED: USER    (2) Final Total Internal Energy     =  -1.19 kcal/mol
DOCKED: USER    (3) Torsional Free Energy           =  +1.49 kcal/mol
DOCKED: USER    (4) Unbound System's Energy         =  -1.19 kcal/mol
DOCKED: USER
DOCKED: USER
DOCKED: REMARK SMILES O=c1c2ccccc2nc(/C=C/c2cccnc2)n1Cc1ccccc1
DOCKED: REMARK SMILES IDX 10 1 9 2 8 3 7 4 6 5 5 6 4 7 3 8 2 9 1 10 19 11 11 12 12 13
DOCKED: REMARK SMILES IDX 13 14 18 15 14 16 17 17 15 18 16 19 20 20 21 21 22 22 26 23
DOCKED: REMARK SMILES IDX 23 24 25 25 24 26
DOCKED: REMARK H PARENT
DOCKED: USER                              x       y       z     vdW  Elec       q    Type
DOCKED: USER                           _______ _______ _______ _____ _____    ______ ____
DOCKED: ROOT
DOCKED: ATOM      1  C   UNL     1     139.607  70.344 223.477 -0.23 -0.02    +0.136 A  
DOCKED: ATOM      2  N   UNL     1     140.136  71.206 224.385 -0.29 +0.04    -0.230 NA 
DOCKED: ATOM      3  C   UNL     1     140.337  70.848 225.673 -0.50 -0.01    +0.078 A  
DOCKED: ATOM      4  C   UNL     1     140.860  71.774 226.586 -0.68 -0.00    +0.029 A  
DOCKED: ATOM      5  C   UNL     1     141.061  71.407 227.918 -0.79 -0.00    +0.002 A  
DOCKED: ATOM      6  C   UNL     1     140.747  70.112 228.342 -0.57 -0.00    +0.001 A  
DOCKED: ATOM      7  C   UNL     1     140.229  69.181 227.436 -0.60 -0.00    +0.016 A  
DOCKED: ATOM      8  C   UNL     1     140.013  69.546 226.093 -0.45 -0.01    +0.066 A  
DOCKED: ATOM      9  C   UNL     1     139.482  68.652 225.146 -0.26 -0.04    +0.261 A  
DOCKED: ATOM     10  O   UNL     1     139.202  67.470 225.498 -0.92 -0.01    -0.269 OA 
DOCKED: ATOM     11  N   UNL     1     139.273  69.058 223.848 -0.12 +0.05    -0.288 N  
DOCKED: ENDROOT
DOCKED: BRANCH   1  12
DOCKED: ATOM     12  C   UNL     1     139.415  70.824 222.097 -0.19 -0.01    +0.048 C  
DOCKED: BRANCH  12  13
DOCKED: ATOM     13  C   UNL     1     140.422  71.402 221.433 -0.19 -0.00    +0.013 C  
DOCKED: BRANCH  13  14
DOCKED: ATOM     14  C   UNL     1     140.639  72.862 221.448 -0.27 +0.00    -0.007 A  
DOCKED: ATOM     15  C   UNL     1     139.711  73.747 222.026 -0.21 -0.02    +0.119 A  
DOCKED: ATOM     16  C   UNL     1     141.805  73.391 220.878 -0.27 -0.00    +0.011 A  
DOCKED: ATOM     17  N   UNL     1     139.946  75.086 222.015 -0.61 +0.04    -0.264 NA 
DOCKED: ATOM     18  C   UNL     1     142.015  74.771 220.868 -0.29 -0.01    +0.021 A  
DOCKED: ATOM     19  C   UNL     1     141.063  75.612 221.447 -0.30 -0.03    +0.111 A  
DOCKED: ENDBRANCH  13  14
DOCKED: ENDBRANCH  12  13
DOCKED: ENDBRANCH   1  12
DOCKED: BRANCH  11  20
DOCKED: ATOM     20  C   UNL     1     138.724  68.109 222.849 -0.19 -0.03    +0.163 C  
DOCKED: BRANCH  20  21
DOCKED: ATOM     21  C   UNL     1     137.214  68.157 222.818 -0.13 +0.00    -0.028 A  
DOCKED: ATOM     22  C   UNL     1     136.492  67.310 221.960 -0.14 -0.00    +0.005 A  
DOCKED: ATOM     23  C   UNL     1     136.517  69.068 223.631 -0.19 -0.00    +0.005 A  
DOCKED: ATOM     24  C   UNL     1     135.097  67.396 221.896 -0.11 -0.00    +0.000 A  
DOCKED: ATOM     25  C   UNL     1     135.124  69.152 223.561 -0.15 -0.00    +0.000 A  
DOCKED: ATOM     26  C   UNL     1     134.413  68.317 222.695 -0.11 -0.00    +0.000 A  
DOCKED: ENDBRANCH  20  21
DOCKED: ENDBRANCH  11  20
DOCKED: TORSDOF 5
DOCKED: TER
DOCKED: ENDMDL
________________________________________________________________________________


    FINAL DOCKED STATE:
    ________________________


Run:   5 / 20
Time taken for this run:   0.038s

DOCKED: MODEL        5
DOCKED: USER    Run = 5
DOCKED: USER
DOCKED: USER    Estimated Free Energy of Binding    =  -7.17 kcal/mol  [=(1)+(2)+(3)-(4)]
DOCKED: USER
DOCKED: USER    (1) Final Intermolecular Energy     =  -8.66 kcal/mol
DOCKED: USER        vdW + Hbond + desolv Energy     =  -8.60 kcal/mol
DOCKED: USER        Electrostatic Energy            =  -0.06 kcal/mol
DOCKED: USER        Moving Ligand-Fixed Receptor    =  -8.66 kcal/mol
DOCKED: USER        Moving Ligand-Moving Receptor   =  +0.00 kcal/mol
DOCKED: USER    (2) Final Total Internal Energy     =  -1.33 kcal/mol
DOCKED: USER    (3) Torsional Free Energy           =  +1.49 kcal/mol
DOCKED: USER    (4) Unbound System's Energy         =  -1.33 kcal/mol
DOCKED: USER
DOCKED: USER
DOCKED: REMARK SMILES O=c1c2ccccc2nc(/C=C/c2cccnc2)n1Cc1ccccc1
DOCKED: REMARK SMILES IDX 10 1 9 2 8 3 7 4 6 5 5 6 4 7 3 8 2 9 1 10 19 11 11 12 12 13
DOCKED: REMARK SMILES IDX 13 14 18 15 14 16 17 17 15 18 16 19 20 20 21 21 22 22 26 23
DOCKED: REMARK SMILES IDX 23 24 25 25 24 26
DOCKED: REMARK H PARENT
DOCKED: USER                              x       y       z     vdW  Elec       q    Type
DOCKED: USER                           _______ _______ _______ _____ _____    ______ ____
DOCKED: ROOT
DOCKED: ATOM      1  C   UNL     1     139.572  70.321 223.478 -0.23 -0.02    +0.136 A  
DOCKED: ATOM      2  N   UNL     1     140.108  71.208 224.357 -0.29 +0.04    -0.230 NA 
DOCKED: ATOM      3  C   UNL     1     140.322  70.886 225.652 -0.50 -0.01    +0.078 A  
DOCKED: ATOM      4  C   UNL     1     140.851  71.838 226.535 -0.67 -0.00    +0.029 A  
DOCKED: ATOM      5  C   UNL     1     141.066  71.507 227.875 -0.81 -0.00    +0.002 A  
DOCKED: ATOM      6  C   UNL     1     140.758  70.223 228.337 -0.57 -0.00    +0.001 A  
DOCKED: ATOM      7  C   UNL     1     140.233  69.267 227.461 -0.60 -0.00    +0.016 A  
DOCKED: ATOM      8  C   UNL     1     140.004  69.595 226.111 -0.45 -0.01    +0.066 A  
DOCKED: ATOM      9  C   UNL     1     139.466  68.675 225.193 -0.26 -0.04    +0.261 A  
DOCKED: ATOM     10  O   UNL     1     139.191  67.503 225.580 -0.91 -0.01    -0.269 OA 
DOCKED: ATOM     11  N   UNL     1     139.243  69.046 223.887 -0.13 +0.05    -0.288 N  
DOCKED: ENDROOT
DOCKED: BRANCH   1  12
DOCKED: ATOM     12  C   UNL     1     139.366  70.764 222.087 -0.18 -0.01    +0.048 C  
DOCKED: BRANCH  12  13
DOCKED: ATOM     13  C   UNL     1     138.540  71.778 221.813 -0.15 -0.00    +0.013 C  
DOCKED: BRANCH  13  14
DOCKED: ATOM     14  C   UNL     1     138.974  73.188 221.882 -0.22 +0.00    -0.007 A  
DOCKED: ATOM     15  C   UNL     1     140.333  73.549 221.893 -0.25 -0.01    +0.119 A  
DOCKED: ATOM     16  C   UNL     1     138.010  74.204 221.930 -0.18 -0.00    +0.011 A  
DOCKED: ATOM     17  N   UNL     1     140.692  74.858 221.961 -0.63 +0.02    -0.264 NA 
DOCKED: ATOM     18  C   UNL     1     138.405  75.541 222.014 -0.26 -0.01    +0.021 A  
DOCKED: ATOM     19  C   UNL     1     139.766  75.851 222.029 -0.30 -0.02    +0.111 A  
DOCKED: ENDBRANCH  13  14
DOCKED: ENDBRANCH  12  13
DOCKED: ENDBRANCH   1  12
DOCKED: BRANCH  11  20
DOCKED: ATOM     20  C   UNL     1     138.686  68.069 222.919 -0.20 -0.03    +0.163 C  
DOCKED: BRANCH  20  21
DOCKED: ATOM     21  C   UNL     1     137.183  68.186 222.825 -0.13 +0.00    -0.028 A  
DOCKED: ATOM     22  C   UNL     1     136.484  69.081 223.653 -0.19 -0.00    +0.005 A  
DOCKED: ATOM     23  C   UNL     1     136.465  67.380 221.924 -0.14 -0.00    +0.005 A  
DOCKED: ATOM     24  C   UNL     1     135.088  69.146 223.600 -0.15 -0.00    +0.000 A  
DOCKED: ATOM     25  C   UNL     1     135.070  67.447 221.877 -0.11 -0.00    +0.000 A  
DOCKED: ATOM     26  C   UNL     1     134.381  68.329 222.713 -0.10 -0.00    +0.000 A  
DOCKED: ENDBRANCH  20  21
DOCKED: ENDBRANCH  11  20
DOCKED: TORSDOF 5
DOCKED: TER
DOCKED: ENDMDL
________________________________________________________________________________


    FINAL DOCKED STATE:
    ________________________


Run:   6 / 20
Time taken for this run:   0.038s

DOCKED: MODEL        6
DOCKED: USER    Run = 6
DOCKED: USER
DOCKED: USER    Estimated Free Energy of Binding    =  -6.31 kcal/mol  [=(1)+(2)+(3)-(4)]
DOCKED: USER
DOCKED: USER    (1) Final Intermolecular Energy     =  -7.81 kcal/mol
DOCKED: USER        vdW + Hbond + desolv Energy     =  -7.87 kcal/mol
DOCKED: USER        Electrostatic Energy            =  +0.07 kcal/mol
DOCKED: USER        Moving Ligand-Fixed Receptor    =  -7.81 kcal/mol
DOCKED: USER        Moving Ligand-Moving Receptor   =  +0.00 kcal/mol
DOCKED: USER    (2) Final Total Internal Energy     =  -1.92 kcal/mol
DOCKED: USER    (3) Torsional Free Energy           =  +1.49 kcal/mol
DOCKED: USER    (4) Unbound System's Energy         =  -1.92 kcal/mol
DOCKED: USER
DOCKED: USER
DOCKED: REMARK SMILES O=c1c2ccccc2nc(/C=C/c2cccnc2)n1Cc1ccccc1
DOCKED: REMARK SMILES IDX 10 1 9 2 8 3 7 4 6 5 5 6 4 7 3 8 2 9 1 10 19 11 11 12 12 13
DOCKED: REMARK SMILES IDX 13 14 18 15 14 16 17 17 15 18 16 19 20 20 21 21 22 22 26 23
DOCKED: REMARK SMILES IDX 23 24 25 25 24 26
DOCKED: REMARK H PARENT
DOCKED: USER                              x       y       z     vdW  Elec       q    Type
DOCKED: USER                           _______ _______ _______ _____ _____    ______ ____
DOCKED: ROOT
DOCKED: ATOM      1  C   UNL     1     140.367  76.121 221.091 -0.22 -0.04    +0.136 A  
DOCKED: ATOM      2  N   UNL     1     140.672  74.824 221.356 -0.35 +0.04    -0.230 NA 
DOCKED: ATOM      3  C   UNL     1     141.845  74.275 220.967 -0.24 -0.02    +0.078 A  
DOCKED: ATOM      4  C   UNL     1     142.111  72.925 221.235 -0.20 -0.00    +0.029 A  
DOCKED: ATOM      5  C   UNL     1     143.320  72.356 220.828 -0.30 -0.00    +0.002 A  
DOCKED: ATOM      6  C   UNL     1     144.269  73.134 220.156 -0.40 -0.00    +0.001 A  
DOCKED: ATOM      7  C   UNL     1     144.011  74.482 219.888 -0.40 -0.01    +0.016 A  
DOCKED: ATOM      8  C   UNL     1     142.791  75.062 220.287 -0.29 -0.03    +0.066 A  
DOCKED: ATOM      9  C   UNL     1     142.477  76.409 220.030 -0.19 -0.16    +0.261 A  
DOCKED: ATOM     10  O   UNL     1     143.322  77.139 219.437 -0.28 +0.22    -0.269 OA 
DOCKED: ATOM     11  N   UNL     1     141.265  76.928 220.424 -0.12 +0.13    -0.288 N  
DOCKED: ENDROOT
DOCKED: BRANCH   1  12
DOCKED: ATOM     12  C   UNL     1     139.061  76.632 221.546 -0.23 -0.01    +0.048 C  
DOCKED: BRANCH  12  13
DOCKED: ATOM     13  C   UNL     1     138.953  77.274 222.713 -0.27 -0.00    +0.013 C  
DOCKED: BRANCH  13  14
DOCKED: ATOM     14  C   UNL     1     138.631  78.713 222.793 -0.29 +0.00    -0.007 A  
DOCKED: ATOM     15  C   UNL     1     137.845  79.355 221.820 -0.11 -0.02    +0.119 A  
DOCKED: ATOM     16  C   UNL     1     139.111  79.468 223.872 -0.37 -0.00    +0.011 A  
DOCKED: ATOM     17  N   UNL     1     137.574  80.683 221.927 -0.05 +0.04    -0.264 NA 
DOCKED: ATOM     18  C   UNL     1     138.830  80.833 223.951 -0.38 -0.00    +0.021 A  
DOCKED: ATOM     19  C   UNL     1     138.052  81.430 222.958 -0.20 -0.01    +0.111 A  
DOCKED: ENDBRANCH  13  14
DOCKED: ENDBRANCH  12  13
DOCKED: ENDBRANCH   1  12
DOCKED: BRANCH  11  20
DOCKED: ATOM     20  C   UNL     1     140.943  78.351 220.162 -0.17 -0.07    +0.163 C  
DOCKED: BRANCH  20  21
DOCKED: ATOM     21  C   UNL     1     141.470  79.246 221.259 -0.35 +0.01    -0.028 A  
DOCKED: ATOM     22  C   UNL     1     142.033  78.691 222.421 -0.40 -0.00    +0.005 A  
DOCKED: ATOM     23  C   UNL     1     141.381  80.643 221.138 -0.36 -0.00    +0.005 A  
DOCKED: ATOM     24  C   UNL     1     142.470  79.523 223.458 -0.61 -0.00    +0.000 A  
DOCKED: ATOM     25  C   UNL     1     141.816  81.469 222.177 -0.47 -0.00    +0.000 A  
DOCKED: ATOM     26  C   UNL     1     142.361  80.911 223.337 -0.63 -0.00    +0.000 A  
DOCKED: ENDBRANCH  20  21
DOCKED: ENDBRANCH  11  20
DOCKED: TORSDOF 5
DOCKED: TER
DOCKED: ENDMDL
________________________________________________________________________________


    FINAL DOCKED STATE:
    ________________________


Run:   7 / 20
Time taken for this run:   0.038s

DOCKED: MODEL        7
DOCKED: USER    Run = 7
DOCKED: USER
DOCKED: USER    Estimated Free Energy of Binding    =  -7.09 kcal/mol  [=(1)+(2)+(3)-(4)]
DOCKED: USER
DOCKED: USER    (1) Final Intermolecular Energy     =  -8.58 kcal/mol
DOCKED: USER        vdW + Hbond + desolv Energy     =  -8.51 kcal/mol
DOCKED: USER        Electrostatic Energy            =  -0.07 kcal/mol
DOCKED: USER        Moving Ligand-Fixed Receptor    =  -8.58 kcal/mol
DOCKED: USER        Moving Ligand-Moving Receptor   =  +0.00 kcal/mol
DOCKED: USER    (2) Final Total Internal Energy     =  -1.22 kcal/mol
DOCKED: USER    (3) Torsional Free Energy           =  +1.49 kcal/mol
DOCKED: USER    (4) Unbound System's Energy         =  -1.22 kcal/mol
DOCKED: USER
DOCKED: USER
DOCKED: REMARK SMILES O=c1c2ccccc2nc(/C=C/c2cccnc2)n1Cc1ccccc1
DOCKED: REMARK SMILES IDX 10 1 9 2 8 3 7 4 6 5 5 6 4 7 3 8 2 9 1 10 19 11 11 12 12 13
DOCKED: REMARK SMILES IDX 13 14 18 15 14 16 17 17 15 18 16 19 20 20 21 21 22 22 26 23
DOCKED: REMARK SMILES IDX 23 24 25 25 24 26
DOCKED: REMARK H PARENT
DOCKED: USER                              x       y       z     vdW  Elec       q    Type
DOCKED: USER                           _______ _______ _______ _____ _____    ______ ____
DOCKED: ROOT
DOCKED: ATOM      1  C   UNL     1     139.890  70.632 223.425 -0.24 -0.02    +0.136 A  
DOCKED: ATOM      2  N   UNL     1     140.416  71.442 224.381 -0.30 +0.03    -0.230 NA 
DOCKED: ATOM      3  C   UNL     1     140.512  71.049 225.671 -0.52 -0.01    +0.078 A  
DOCKED: ATOM      4  C   UNL     1     141.035  71.923 226.634 -0.70 -0.00    +0.029 A  
DOCKED: ATOM      5  C   UNL     1     141.129  71.521 227.968 -0.79 -0.00    +0.002 A  
DOCKED: ATOM      6  C   UNL     1     140.705  70.242 228.345 -0.57 -0.00    +0.001 A  
DOCKED: ATOM      7  C   UNL     1     140.185  69.363 227.389 -0.59 -0.00    +0.016 A  
DOCKED: ATOM      8  C   UNL     1     140.078  69.764 226.044 -0.45 -0.01    +0.066 A  
DOCKED: ATOM      9  C   UNL     1     139.550  68.924 225.047 -0.24 -0.04    +0.261 A  
DOCKED: ATOM     10  O   UNL     1     139.172  67.758 225.356 -0.86 +0.00    -0.269 OA 
DOCKED: ATOM     11  N   UNL     1     139.450  69.365 223.747 -0.11 +0.05    -0.288 N  
DOCKED: ENDROOT
DOCKED: BRANCH   1  12
DOCKED: ATOM     12  C   UNL     1     139.816  71.147 222.046 -0.21 -0.01    +0.048 C  
DOCKED: BRANCH  12  13
DOCKED: ATOM     13  C   UNL     1     139.153  72.277 221.778 -0.20 -0.00    +0.013 C  
DOCKED: BRANCH  13  14
DOCKED: ATOM     14  C   UNL     1     139.812  73.598 221.787 -0.27 +0.00    -0.007 A  
DOCKED: ATOM     15  C   UNL     1     139.193  74.734 222.339 -0.12 -0.03    +0.119 A  
DOCKED: ATOM     16  C   UNL     1     141.095  73.733 221.239 -0.28 -0.00    +0.011 A  
DOCKED: ATOM     17  N   UNL     1     139.832  75.935 222.324 -0.37 +0.05    -0.264 NA 
DOCKED: ATOM     18  C   UNL     1     141.722  74.980 221.224 -0.28 -0.01    +0.021 A  
DOCKED: ATOM     19  C   UNL     1     141.067  76.082 221.776 -0.31 -0.04    +0.111 A  
DOCKED: ENDBRANCH  13  14
DOCKED: ENDBRANCH  12  13
DOCKED: ENDBRANCH   1  12
DOCKED: BRANCH  11  20
DOCKED: ATOM     20  C   UNL     1     138.903  68.472 222.697 -0.15 -0.03    +0.163 C  
DOCKED: BRANCH  20  21
DOCKED: ATOM     21  C   UNL     1     137.398  68.371 222.790 -0.17 +0.00    -0.028 A  
DOCKED: ATOM     22  C   UNL     1     136.698  67.436 222.009 -0.14 -0.00    +0.005 A  
DOCKED: ATOM     23  C   UNL     1     136.682  69.229 223.642 -0.20 -0.00    +0.005 A  
DOCKED: ATOM     24  C   UNL     1     135.301  67.383 222.058 -0.12 -0.00    +0.000 A  
DOCKED: ATOM     25  C   UNL     1     135.287  69.174 223.686 -0.16 -0.00    +0.000 A  
DOCKED: ATOM     26  C   UNL     1     134.595  68.252 222.896 -0.12 -0.00    +0.000 A  
DOCKED: ENDBRANCH  20  21
DOCKED: ENDBRANCH  11  20
DOCKED: TORSDOF 5
DOCKED: TER
DOCKED: ENDMDL
________________________________________________________________________________


    FINAL DOCKED STATE:
    ________________________


Run:   8 / 20
Time taken for this run:   0.038s

DOCKED: MODEL        8
DOCKED: USER    Run = 8
DOCKED: USER
DOCKED: USER    Estimated Free Energy of Binding    =  -7.18 kcal/mol  [=(1)+(2)+(3)-(4)]
DOCKED: USER
DOCKED: USER    (1) Final Intermolecular Energy     =  -8.67 kcal/mol
DOCKED: USER        vdW + Hbond + desolv Energy     =  -8.61 kcal/mol
DOCKED: USER        Electrostatic Energy            =  -0.06 kcal/mol
DOCKED: USER        Moving Ligand-Fixed Receptor    =  -8.67 kcal/mol
DOCKED: USER        Moving Ligand-Moving Receptor   =  +0.00 kcal/mol
DOCKED: USER    (2) Final Total Internal Energy     =  -1.25 kcal/mol
DOCKED: USER    (3) Torsional Free Energy           =  +1.49 kcal/mol
DOCKED: USER    (4) Unbound System's Energy         =  -1.25 kcal/mol
DOCKED: USER
DOCKED: USER
DOCKED: REMARK SMILES O=c1c2ccccc2nc(/C=C/c2cccnc2)n1Cc1ccccc1
DOCKED: REMARK SMILES IDX 10 1 9 2 8 3 7 4 6 5 5 6 4 7 3 8 2 9 1 10 19 11 11 12 12 13
DOCKED: REMARK SMILES IDX 13 14 18 15 14 16 17 17 15 18 16 19 20 20 21 21 22 22 26 23
DOCKED: REMARK SMILES IDX 23 24 25 25 24 26
DOCKED: REMARK H PARENT
DOCKED: USER                              x       y       z     vdW  Elec       q    Type
DOCKED: USER                           _______ _______ _______ _____ _____    ______ ____
DOCKED: ROOT
DOCKED: ATOM      1  C   UNL     1     139.559  70.408 223.511 -0.24 -0.02    +0.136 A  
DOCKED: ATOM      2  N   UNL     1     140.084  71.213 224.471 -0.29 +0.04    -0.230 NA 
DOCKED: ATOM      3  C   UNL     1     140.299  70.772 225.731 -0.50 -0.01    +0.078 A  
DOCKED: ATOM      4  C   UNL     1     140.817  71.642 226.700 -0.69 -0.00    +0.029 A  
DOCKED: ATOM      5  C   UNL     1     141.032  71.189 228.004 -0.75 -0.00    +0.002 A  
DOCKED: ATOM      6  C   UNL     1     140.736  69.865 228.343 -0.58 -0.00    +0.001 A  
DOCKED: ATOM      7  C   UNL     1     140.221  68.990 227.379 -0.61 -0.00    +0.016 A  
DOCKED: ATOM      8  C   UNL     1     139.992  69.442 226.065 -0.45 -0.01    +0.066 A  
DOCKED: ATOM      9  C   UNL     1     139.464  68.607 225.063 -0.25 -0.04    +0.261 A  
DOCKED: ATOM     10  O   UNL     1     139.200  67.402 225.338 -0.93 -0.02    -0.269 OA 
DOCKED: ATOM     11  N   UNL     1     139.241  69.097 223.797 -0.13 +0.05    -0.288 N  
DOCKED: ENDROOT
DOCKED: BRANCH   1  12
DOCKED: ATOM     12  C   UNL     1     139.352  70.977 222.167 -0.20 -0.01    +0.048 C  
DOCKED: BRANCH  12  13
DOCKED: ATOM     13  C   UNL     1     138.583  72.058 221.999 -0.18 -0.00    +0.013 C  
DOCKED: BRANCH  13  14
DOCKED: ATOM     14  C   UNL     1     139.140  73.425 221.971 -0.24 +0.00    -0.007 A  
DOCKED: ATOM     15  C   UNL     1     140.526  73.663 221.938 -0.23 -0.01    +0.119 A  
DOCKED: ATOM     16  C   UNL     1     138.271  74.524 221.968 -0.20 -0.00    +0.011 A  
DOCKED: ATOM     17  N   UNL     1     141.000  74.937 221.916 -0.51 +0.03    -0.264 NA 
DOCKED: ATOM     18  C   UNL     1     138.784  75.822 221.960 -0.28 -0.00    +0.021 A  
DOCKED: ATOM     19  C   UNL     1     140.167  76.011 221.935 -0.32 -0.02    +0.111 A  
DOCKED: ENDBRANCH  13  14
DOCKED: ENDBRANCH  12  13
DOCKED: ENDBRANCH   1  12
DOCKED: BRANCH  11  20
DOCKED: ATOM     20  C   UNL     1     138.695  68.211 222.741 -0.19 -0.03    +0.163 C  
DOCKED: BRANCH  20  21
DOCKED: ATOM     21  C   UNL     1     137.185  68.168 222.785 -0.14 +0.00    -0.028 A  
DOCKED: ATOM     22  C   UNL     1     136.473  67.286 221.955 -0.14 -0.00    +0.005 A  
DOCKED: ATOM     23  C   UNL     1     136.477  69.029 223.642 -0.19 -0.00    +0.005 A  
DOCKED: ATOM     24  C   UNL     1     135.074  67.288 221.961 -0.12 -0.00    +0.000 A  
DOCKED: ATOM     25  C   UNL     1     135.080  69.030 223.642 -0.16 -0.00    +0.000 A  
DOCKED: ATOM     26  C   UNL     1     134.378  68.160 222.803 -0.12 -0.00    +0.000 A  
DOCKED: ENDBRANCH  20  21
DOCKED: ENDBRANCH  11  20
DOCKED: TORSDOF 5
DOCKED: TER
DOCKED: ENDMDL
________________________________________________________________________________


    FINAL DOCKED STATE:
    ________________________


Run:   9 / 20
Time taken for this run:   0.038s

DOCKED: MODEL        9
DOCKED: USER    Run = 9
DOCKED: USER
DOCKED: USER    Estimated Free Energy of Binding    =  -7.30 kcal/mol  [=(1)+(2)+(3)-(4)]
DOCKED: USER
DOCKED: USER    (1) Final Intermolecular Energy     =  -8.79 kcal/mol
DOCKED: USER        vdW + Hbond + desolv Energy     =  -8.73 kcal/mol
DOCKED: USER        Electrostatic Energy            =  -0.07 kcal/mol
DOCKED: USER        Moving Ligand-Fixed Receptor    =  -8.79 kcal/mol
DOCKED: USER        Moving Ligand-Moving Receptor   =  +0.00 kcal/mol
DOCKED: USER    (2) Final Total Internal Energy     =  -1.24 kcal/mol
DOCKED: USER    (3) Torsional Free Energy           =  +1.49 kcal/mol
DOCKED: USER    (4) Unbound System's Energy         =  -1.24 kcal/mol
DOCKED: USER
DOCKED: USER
DOCKED: REMARK SMILES O=c1c2ccccc2nc(/C=C/c2cccnc2)n1Cc1ccccc1
DOCKED: REMARK SMILES IDX 10 1 9 2 8 3 7 4 6 5 5 6 4 7 3 8 2 9 1 10 19 11 11 12 12 13
DOCKED: REMARK SMILES IDX 13 14 18 15 14 16 17 17 15 18 16 19 20 20 21 21 22 22 26 23
DOCKED: REMARK SMILES IDX 23 24 25 25 24 26
DOCKED: REMARK H PARENT
DOCKED: USER                              x       y       z     vdW  Elec       q    Type
DOCKED: USER                           _______ _______ _______ _____ _____    ______ ____
DOCKED: ROOT
DOCKED: ATOM      1  C   UNL     1     139.546  70.228 223.483 -0.23 -0.02    +0.136 A  
DOCKED: ATOM      2  N   UNL     1     140.094  71.147 224.320 -0.28 +0.04    -0.230 NA 
DOCKED: ATOM      3  C   UNL     1     140.315  70.878 225.626 -0.50 -0.01    +0.078 A  
DOCKED: ATOM      4  C   UNL     1     140.858  71.862 226.464 -0.66 -0.00    +0.029 A  
DOCKED: ATOM      5  C   UNL     1     141.080  71.586 227.815 -0.81 -0.00    +0.002 A  
DOCKED: ATOM      6  C   UNL     1     140.766  70.325 228.334 -0.57 -0.00    +0.001 A  
DOCKED: ATOM      7  C   UNL     1     140.227  69.338 227.503 -0.60 -0.00    +0.016 A  
DOCKED: ATOM      8  C   UNL     1     139.991  69.610 226.141 -0.45 -0.01    +0.066 A  
DOCKED: ATOM      9  C   UNL     1     139.440  68.656 225.267 -0.27 -0.03    +0.261 A  
DOCKED: ATOM     10  O   UNL     1     139.159  67.504 225.705 -0.90 -0.01    -0.269 OA 
DOCKED: ATOM     11  N   UNL     1     139.211  68.973 223.947 -0.14 +0.05    -0.288 N  
DOCKED: ENDROOT
DOCKED: BRANCH   1  12
DOCKED: ATOM     12  C   UNL     1     139.333  70.613 222.076 -0.18 -0.01    +0.048 C  
DOCKED: BRANCH  12  13
DOCKED: ATOM     13  C   UNL     1     140.319  71.177 221.371 -0.18 -0.00    +0.013 C  
DOCKED: BRANCH  13  14
DOCKED: ATOM     14  C   UNL     1     140.579  72.630 221.405 -0.25 +0.00    -0.007 A  
DOCKED: ATOM     15  C   UNL     1     139.675  73.535 221.988 -0.24 -0.02    +0.119 A  
DOCKED: ATOM     16  C   UNL     1     141.765  73.131 220.849 -0.26 -0.00    +0.011 A  
DOCKED: ATOM     17  N   UNL     1     139.950  74.867 221.996 -0.69 +0.03    -0.264 NA 
DOCKED: ATOM     18  C   UNL     1     142.016  74.505 220.858 -0.29 -0.01    +0.021 A  
DOCKED: ATOM     19  C   UNL     1     141.085  75.366 221.441 -0.30 -0.03    +0.111 A  
DOCKED: ENDBRANCH  13  14
DOCKED: ENDBRANCH  12  13
DOCKED: ENDBRANCH   1  12
DOCKED: BRANCH  11  20
DOCKED: ATOM     20  C   UNL     1     138.639  67.961 223.026 -0.20 -0.02    +0.163 C  
DOCKED: BRANCH  20  21
DOCKED: ATOM     21  C   UNL     1     137.152  68.160 222.846 -0.12 +0.00    -0.028 A  
DOCKED: ATOM     22  C   UNL     1     136.466  67.498 221.813 -0.13 -0.00    +0.005 A  
DOCKED: ATOM     23  C   UNL     1     136.445  69.028 223.695 -0.18 -0.00    +0.005 A  
DOCKED: ATOM     24  C   UNL     1     135.100  67.726 221.617 -0.09 -0.00    +0.000 A  
DOCKED: ATOM     25  C   UNL     1     135.082  69.256 223.493 -0.14 -0.00    +0.000 A  
DOCKED: ATOM     26  C   UNL     1     134.408  68.606 222.456 -0.08 -0.00    +0.000 A  
DOCKED: ENDBRANCH  20  21
DOCKED: ENDBRANCH  11  20
DOCKED: TORSDOF 5
DOCKED: TER
DOCKED: ENDMDL
________________________________________________________________________________


    FINAL DOCKED STATE:
    ________________________


Run:   10 / 20
Time taken for this run:   0.038s

DOCKED: MODEL        10
DOCKED: USER    Run = 10
DOCKED: USER
DOCKED: USER    Estimated Free Energy of Binding    =  -7.14 kcal/mol  [=(1)+(2)+(3)-(4)]
DOCKED: USER
DOCKED: USER    (1) Final Intermolecular Energy     =  -8.64 kcal/mol
DOCKED: USER        vdW + Hbond + desolv Energy     =  -8.57 kcal/mol
DOCKED: USER        Electrostatic Energy            =  -0.06 kcal/mol
DOCKED: USER        Moving Ligand-Fixed Receptor    =  -8.64 kcal/mol
DOCKED: USER        Moving Ligand-Moving Receptor   =  +0.00 kcal/mol
DOCKED: USER    (2) Final Total Internal Energy     =  -1.19 kcal/mol
DOCKED: USER    (3) Torsional Free Energy           =  +1.49 kcal/mol
DOCKED: USER    (4) Unbound System's Energy         =  -1.19 kcal/mol
DOCKED: USER
DOCKED: USER
DOCKED: REMARK SMILES O=c1c2ccccc2nc(/C=C/c2cccnc2)n1Cc1ccccc1
DOCKED: REMARK SMILES IDX 10 1 9 2 8 3 7 4 6 5 5 6 4 7 3 8 2 9 1 10 19 11 11 12 12 13
DOCKED: REMARK SMILES IDX 13 14 18 15 14 16 17 17 15 18 16 19 20 20 21 21 22 22 26 23
DOCKED: REMARK SMILES IDX 23 24 25 25 24 26
DOCKED: REMARK H PARENT
DOCKED: USER                              x       y       z     vdW  Elec       q    Type
DOCKED: USER                           _______ _______ _______ _____ _____    ______ ____
DOCKED: ROOT
DOCKED: ATOM      1  C   UNL     1     139.748  70.771 223.497 -0.27 -0.02    +0.136 A  
DOCKED: ATOM      2  N   UNL     1     140.303  71.534 224.474 -0.31 +0.04    -0.230 NA 
DOCKED: ATOM      3  C   UNL     1     140.473  71.067 225.731 -0.52 -0.01    +0.078 A  
DOCKED: ATOM      4  C   UNL     1     141.024  71.894 226.719 -0.72 -0.00    +0.029 A  
DOCKED: ATOM      5  C   UNL     1     141.194  71.414 228.020 -0.74 -0.00    +0.002 A  
DOCKED: ATOM      6  C   UNL     1     140.819  70.105 228.337 -0.57 -0.00    +0.001 A  
DOCKED: ATOM      7  C   UNL     1     140.271  69.272 227.356 -0.60 -0.00    +0.016 A  
DOCKED: ATOM      8  C   UNL     1     140.088  69.751 226.045 -0.45 -0.01    +0.066 A  
DOCKED: ATOM      9  C   UNL     1     139.530  68.959 225.024 -0.24 -0.04    +0.261 A  
DOCKED: ATOM     10  O   UNL     1     139.195  67.767 225.280 -0.86 +0.00    -0.269 OA 
DOCKED: ATOM     11  N   UNL     1     139.354  69.476 223.761 -0.12 +0.05    -0.288 N  
DOCKED: ENDROOT
DOCKED: BRANCH   1  12
DOCKED: ATOM     12  C   UNL     1     139.593  71.366 222.157 -0.23 -0.01    +0.048 C  
DOCKED: BRANCH  12  13
DOCKED: ATOM     13  C   UNL     1     138.963  72.536 222.004 -0.21 -0.00    +0.013 C  
DOCKED: BRANCH  13  14
DOCKED: ATOM     14  C   UNL     1     139.693  73.812 221.868 -0.27 +0.00    -0.007 A  
DOCKED: ATOM     15  C   UNL     1     139.138  75.035 222.285 -0.19 -0.03    +0.119 A  
DOCKED: ATOM     16  C   UNL     1     140.981  73.814 221.315 -0.29 -0.00    +0.011 A  
DOCKED: ATOM     17  N   UNL     1     139.841  76.189 222.140 -0.28 +0.05    -0.264 NA 
DOCKED: ATOM     18  C   UNL     1     141.676  75.016 221.163 -0.29 -0.01    +0.021 A  
DOCKED: ATOM     19  C   UNL     1     141.082  76.206 221.585 -0.30 -0.04    +0.111 A  
DOCKED: ENDBRANCH  13  14
DOCKED: ENDBRANCH  12  13
DOCKED: ENDBRANCH   1  12
DOCKED: BRANCH  11  20
DOCKED: ATOM     20  C   UNL     1     138.775  68.634 222.686 -0.17 -0.03    +0.163 C  
DOCKED: BRANCH  20  21
DOCKED: ATOM     21  C   UNL     1     137.276  68.515 222.828 -0.18 +0.00    -0.028 A  
DOCKED: ATOM     22  C   UNL     1     136.547  67.654 221.989 -0.14 -0.00    +0.005 A  
DOCKED: ATOM     23  C   UNL     1     136.591  69.283 223.786 -0.21 -0.00    +0.005 A  
DOCKED: ATOM     24  C   UNL     1     135.153  67.588 222.088 -0.12 -0.00    +0.000 A  
DOCKED: ATOM     25  C   UNL     1     135.199  69.215 223.879 -0.17 -0.00    +0.000 A  
DOCKED: ATOM     26  C   UNL     1     134.479  68.368 223.032 -0.12 -0.00    +0.000 A  
DOCKED: ENDBRANCH  20  21
DOCKED: ENDBRANCH  11  20
DOCKED: TORSDOF 5
DOCKED: TER
DOCKED: ENDMDL
________________________________________________________________________________


    FINAL DOCKED STATE:
    ________________________


Run:   11 / 20
Time taken for this run:   0.038s

DOCKED: MODEL        11
DOCKED: USER    Run = 11
DOCKED: USER
DOCKED: USER    Estimated Free Energy of Binding    =  -6.91 kcal/mol  [=(1)+(2)+(3)-(4)]
DOCKED: USER
DOCKED: USER    (1) Final Intermolecular Energy     =  -8.40 kcal/mol
DOCKED: USER        vdW + Hbond + desolv Energy     =  -8.37 kcal/mol
DOCKED: USER        Electrostatic Energy            =  -0.03 kcal/mol
DOCKED: USER        Moving Ligand-Fixed Receptor    =  -8.40 kcal/mol
DOCKED: USER        Moving Ligand-Moving Receptor   =  +0.00 kcal/mol
DOCKED: USER    (2) Final Total Internal Energy     =  -1.46 kcal/mol
DOCKED: USER    (3) Torsional Free Energy           =  +1.49 kcal/mol
DOCKED: USER    (4) Unbound System's Energy         =  -1.46 kcal/mol
DOCKED: USER
DOCKED: USER
DOCKED: REMARK SMILES O=c1c2ccccc2nc(/C=C/c2cccnc2)n1Cc1ccccc1
DOCKED: REMARK SMILES IDX 10 1 9 2 8 3 7 4 6 5 5 6 4 7 3 8 2 9 1 10 19 11 11 12 12 13
DOCKED: REMARK SMILES IDX 13 14 18 15 14 16 17 17 15 18 16 19 20 20 21 21 22 22 26 23
DOCKED: REMARK SMILES IDX 23 24 25 25 24 26
DOCKED: REMARK H PARENT
DOCKED: USER                              x       y       z     vdW  Elec       q    Type
DOCKED: USER                           _______ _______ _______ _____ _____    ______ ____
DOCKED: ROOT
DOCKED: ATOM      1  C   UNL     1     139.171  70.808 223.832 -0.27 -0.03    +0.136 A  
DOCKED: ATOM      2  N   UNL     1     139.896  71.464 224.774 -0.29 +0.05    -0.230 NA 
DOCKED: ATOM      3  C   UNL     1     140.266  70.868 225.930 -0.51 -0.01    +0.078 A  
DOCKED: ATOM      4  C   UNL     1     140.990  71.587 226.891 -0.72 -0.00    +0.029 A  
DOCKED: ATOM      5  C   UNL     1     141.366  70.973 228.088 -0.54 -0.00    +0.002 A  
DOCKED: ATOM      6  C   UNL     1     141.026  69.638 228.327 -0.58 -0.00    +0.001 A  
DOCKED: ATOM      7  C   UNL     1     140.306  68.913 227.372 -0.62 -0.00    +0.016 A  
DOCKED: ATOM      8  C   UNL     1     139.915  69.527 226.166 -0.45 -0.01    +0.066 A  
DOCKED: ATOM      9  C   UNL     1     139.179  68.846 225.179 -0.26 -0.03    +0.261 A  
DOCKED: ATOM     10  O   UNL     1     138.869  67.634 225.363 -0.79 -0.03    -0.269 OA 
DOCKED: ATOM     11  N   UNL     1     138.803  69.492 224.024 -0.15 +0.04    -0.288 N  
DOCKED: ENDROOT
DOCKED: BRANCH   1  12
DOCKED: ATOM     12  C   UNL     1     138.805  71.540 222.606 -0.22 -0.01    +0.048 C  
DOCKED: BRANCH  12  13
DOCKED: ATOM     13  C   UNL     1     139.331  72.743 222.352 -0.23 -0.00    +0.013 C  
DOCKED: BRANCH  13  14
DOCKED: ATOM     14  C   UNL     1     140.647  72.906 221.702 -0.29 +0.00    -0.007 A  
DOCKED: ATOM     15  C   UNL     1     141.129  74.166 221.305 -0.25 -0.02    +0.119 A  
DOCKED: ATOM     16  C   UNL     1     141.449  71.779 221.478 -0.21 -0.00    +0.011 A  
DOCKED: ATOM     17  N   UNL     1     142.345  74.274 220.706 -0.16 +0.07    -0.264 NA 
DOCKED: ATOM     18  C   UNL     1     142.687  71.916 220.848 -0.26 -0.00    +0.021 A  
DOCKED: ATOM     19  C   UNL     1     143.123  73.185 220.463 -0.26 -0.02    +0.111 A  
DOCKED: ENDBRANCH  13  14
DOCKED: ENDBRANCH  12  13
DOCKED: ENDBRANCH   1  12
DOCKED: BRANCH  11  20
DOCKED: ATOM     20  C   UNL     1     138.037  68.768 222.980 -0.18 -0.02    +0.163 C  
DOCKED: BRANCH  20  21
DOCKED: ATOM     21  C   UNL     1     138.955  68.006 222.053 -0.19 +0.01    -0.028 A  
DOCKED: ATOM     22  C   UNL     1     139.681  68.681 221.056 -0.13 -0.00    +0.005 A  
DOCKED: ATOM     23  C   UNL     1     139.075  66.610 222.164 -0.28 -0.00    +0.005 A  
DOCKED: ATOM     24  C   UNL     1     140.488  67.964 220.167 -0.14 -0.00    +0.000 A  
DOCKED: ATOM     25  C   UNL     1     139.879  65.899 221.271 -0.24 -0.00    +0.000 A  
DOCKED: ATOM     26  C   UNL     1     140.587  66.574 220.273 -0.14 -0.00    +0.000 A  
DOCKED: ENDBRANCH  20  21
DOCKED: ENDBRANCH  11  20
DOCKED: TORSDOF 5
DOCKED: TER
DOCKED: ENDMDL
________________________________________________________________________________


    FINAL DOCKED STATE:
    ________________________


Run:   12 / 20
Time taken for this run:   0.038s

DOCKED: MODEL        12
DOCKED: USER    Run = 12
DOCKED: USER
DOCKED: USER    Estimated Free Energy of Binding    =  -7.20 kcal/mol  [=(1)+(2)+(3)-(4)]
DOCKED: USER
DOCKED: USER    (1) Final Intermolecular Energy     =  -8.69 kcal/mol
DOCKED: USER        vdW + Hbond + desolv Energy     =  -8.63 kcal/mol
DOCKED: USER        Electrostatic Energy            =  -0.06 kcal/mol
DOCKED: USER        Moving Ligand-Fixed Receptor    =  -8.69 kcal/mol
DOCKED: USER        Moving Ligand-Moving Receptor   =  +0.00 kcal/mol
DOCKED: USER    (2) Final Total Internal Energy     =  -1.30 kcal/mol
DOCKED: USER    (3) Torsional Free Energy           =  +1.49 kcal/mol
DOCKED: USER    (4) Unbound System's Energy         =  -1.30 kcal/mol
DOCKED: USER
DOCKED: USER
DOCKED: REMARK SMILES O=c1c2ccccc2nc(/C=C/c2cccnc2)n1Cc1ccccc1
DOCKED: REMARK SMILES IDX 10 1 9 2 8 3 7 4 6 5 5 6 4 7 3 8 2 9 1 10 19 11 11 12 12 13
DOCKED: REMARK SMILES IDX 13 14 18 15 14 16 17 17 15 18 16 19 20 20 21 21 22 22 26 23
DOCKED: REMARK SMILES IDX 23 24 25 25 24 26
DOCKED: REMARK H PARENT
DOCKED: USER                              x       y       z     vdW  Elec       q    Type
DOCKED: USER                           _______ _______ _______ _____ _____    ______ ____
DOCKED: ROOT
DOCKED: ATOM      1  C   UNL     1     139.495  70.356 223.519 -0.24 -0.02    +0.136 A  
DOCKED: ATOM      2  N   UNL     1     140.035  71.212 224.425 -0.29 +0.04    -0.230 NA 
DOCKED: ATOM      3  C   UNL     1     140.281  70.836 225.701 -0.50 -0.01    +0.078 A  
DOCKED: ATOM      4  C   UNL     1     140.814  71.756 226.614 -0.68 -0.00    +0.029 A  
DOCKED: ATOM      5  C   UNL     1     141.062  71.370 227.933 -0.79 -0.00    +0.002 A  
DOCKED: ATOM      6  C   UNL     1     140.784  70.062 228.344 -0.57 -0.00    +0.001 A  
DOCKED: ATOM      7  C   UNL     1     140.255  69.138 227.437 -0.61 -0.00    +0.016 A  
DOCKED: ATOM      8  C   UNL     1     139.993  69.521 226.108 -0.45 -0.01    +0.066 A  
DOCKED: ATOM      9  C   UNL     1     139.450  68.634 225.161 -0.26 -0.04    +0.261 A  
DOCKED: ATOM     10  O   UNL     1     139.201  67.442 225.501 -0.92 -0.01    -0.269 OA 
DOCKED: ATOM     11  N   UNL     1     139.194  69.058 223.877 -0.14 +0.05    -0.288 N  
DOCKED: ENDROOT
DOCKED: BRANCH   1  12
DOCKED: ATOM     12  C   UNL     1     139.253  70.856 222.154 -0.19 -0.01    +0.048 C  
DOCKED: BRANCH  12  13
DOCKED: ATOM     13  C   UNL     1     138.443  71.898 221.946 -0.16 -0.00    +0.013 C  
DOCKED: BRANCH  13  14
DOCKED: ATOM     14  C   UNL     1     138.933  73.291 221.957 -0.22 +0.00    -0.007 A  
DOCKED: ATOM     15  C   UNL     1     140.306  73.597 221.972 -0.24 -0.01    +0.119 A  
DOCKED: ATOM     16  C   UNL     1     138.011  74.347 221.943 -0.18 -0.00    +0.011 A  
DOCKED: ATOM     17  N   UNL     1     140.717  74.893 221.985 -0.61 +0.02    -0.264 NA 
DOCKED: ATOM     18  C   UNL     1     138.460  75.669 221.971 -0.27 -0.01    +0.021 A  
DOCKED: ATOM     19  C   UNL     1     139.832  75.925 221.993 -0.30 -0.02    +0.111 A  
DOCKED: ENDBRANCH  13  14
DOCKED: ENDBRANCH  12  13
DOCKED: ENDBRANCH   1  12
DOCKED: BRANCH  11  20
DOCKED: ATOM     20  C   UNL     1     138.632  68.117 222.879 -0.20 -0.03    +0.163 C  
DOCKED: BRANCH  20  21
DOCKED: ATOM     21  C   UNL     1     137.126  68.225 222.808 -0.13 +0.00    -0.028 A  
DOCKED: ATOM     22  C   UNL     1     136.436  69.113 223.650 -0.19 -0.00    +0.005 A  
DOCKED: ATOM     23  C   UNL     1     136.399  67.419 221.915 -0.14 -0.00    +0.005 A  
DOCKED: ATOM     24  C   UNL     1     135.039  69.170 223.619 -0.15 -0.00    +0.000 A  
DOCKED: ATOM     25  C   UNL     1     135.004  67.477 221.890 -0.11 -0.00    +0.000 A  
DOCKED: ATOM     26  C   UNL     1     134.322  68.352 222.740 -0.10 -0.00    +0.000 A  
DOCKED: ENDBRANCH  20  21
DOCKED: ENDBRANCH  11  20
DOCKED: TORSDOF 5
DOCKED: TER
DOCKED: ENDMDL
________________________________________________________________________________


    FINAL DOCKED STATE:
    ________________________


Run:   13 / 20
Time taken for this run:   0.038s

DOCKED: MODEL        13
DOCKED: USER    Run = 13
DOCKED: USER
DOCKED: USER    Estimated Free Energy of Binding    =  -7.19 kcal/mol  [=(1)+(2)+(3)-(4)]
DOCKED: USER
DOCKED: USER    (1) Final Intermolecular Energy     =  -8.68 kcal/mol
DOCKED: USER        vdW + Hbond + desolv Energy     =  -8.67 kcal/mol
DOCKED: USER        Electrostatic Energy            =  -0.01 kcal/mol
DOCKED: USER        Moving Ligand-Fixed Receptor    =  -8.68 kcal/mol
DOCKED: USER        Moving Ligand-Moving Receptor   =  +0.00 kcal/mol
DOCKED: USER    (2) Final Total Internal Energy     =  -1.04 kcal/mol
DOCKED: USER    (3) Torsional Free Energy           =  +1.49 kcal/mol
DOCKED: USER    (4) Unbound System's Energy         =  -1.04 kcal/mol
DOCKED: USER
DOCKED: USER
DOCKED: REMARK SMILES O=c1c2ccccc2nc(/C=C/c2cccnc2)n1Cc1ccccc1
DOCKED: REMARK SMILES IDX 10 1 9 2 8 3 7 4 6 5 5 6 4 7 3 8 2 9 1 10 19 11 11 12 12 13
DOCKED: REMARK SMILES IDX 13 14 18 15 14 16 17 17 15 18 16 19 20 20 21 21 22 22 26 23
DOCKED: REMARK SMILES IDX 23 24 25 25 24 26
DOCKED: REMARK H PARENT
DOCKED: USER                              x       y       z     vdW  Elec       q    Type
DOCKED: USER                           _______ _______ _______ _____ _____    ______ ____
DOCKED: ROOT
DOCKED: ATOM      1  C   UNL     1     140.809  73.226 221.762 -0.24 -0.01    +0.136 A  
DOCKED: ATOM      2  N   UNL     1     140.061  74.200 222.345 -0.76 +0.00    -0.230 NA 
DOCKED: ATOM      3  C   UNL     1     140.161  75.494 221.969 -0.31 -0.01    +0.078 A  
DOCKED: ATOM      4  C   UNL     1     139.393  76.474 222.613 -0.27 -0.01    +0.029 A  
DOCKED: ATOM      5  C   UNL     1     139.501  77.813 222.230 -0.31 -0.00    +0.002 A  
DOCKED: ATOM      6  C   UNL     1     140.372  78.177 221.198 -0.25 -0.00    +0.001 A  
DOCKED: ATOM      7  C   UNL     1     141.139  77.205 220.548 -0.26 -0.01    +0.016 A  
DOCKED: ATOM      8  C   UNL     1     141.044  75.854 220.935 -0.27 -0.02    +0.066 A  
DOCKED: ATOM      9  C   UNL     1     141.803  74.840 220.323 -0.16 -0.08    +0.261 A  
DOCKED: ATOM     10  O   UNL     1     142.588  75.139 219.379 -0.15 +0.11    -0.269 OA 
DOCKED: ATOM     11  N   UNL     1     141.689  73.536 220.746 -0.13 +0.05    -0.288 N  
DOCKED: ENDROOT
DOCKED: BRANCH   1  12
DOCKED: ATOM     12  C   UNL     1     140.640  71.843 222.243 -0.28 -0.01    +0.048 C  
DOCKED: BRANCH  12  13
DOCKED: ATOM     13  C   UNL     1     139.737  71.558 223.186 -0.34 -0.00    +0.013 C  
DOCKED: BRANCH  13  14
DOCKED: ATOM     14  C   UNL     1     140.122  71.042 224.515 -0.46 +0.00    -0.007 A  
DOCKED: ATOM     15  C   UNL     1     139.871  69.712 224.898 -0.32 -0.02    +0.119 A  
DOCKED: ATOM     16  C   UNL     1     140.764  71.892 225.425 -0.43 -0.00    +0.011 A  
DOCKED: ATOM     17  N   UNL     1     140.237  69.275 226.132 -0.25 +0.05    -0.264 NA 
DOCKED: ATOM     18  C   UNL     1     141.117  71.422 226.692 -0.70 -0.00    +0.021 A  
DOCKED: ATOM     19  C   UNL     1     140.841  70.096 227.032 -0.49 -0.02    +0.111 A  
DOCKED: ENDBRANCH  13  14
DOCKED: ENDBRANCH  12  13
DOCKED: ENDBRANCH   1  12
DOCKED: BRANCH  11  20
DOCKED: ATOM     20  C   UNL     1     142.482  72.468 220.091 -0.15 -0.02    +0.163 C  
DOCKED: BRANCH  20  21
DOCKED: ATOM     21  C   UNL     1     143.950  72.825 220.041 -0.31 +0.00    -0.028 A  
DOCKED: ATOM     22  C   UNL     1     144.666  73.062 221.227 -0.36 -0.00    +0.005 A  
DOCKED: ATOM     23  C   UNL     1     144.607  72.947 218.805 -0.25 +0.00    +0.005 A  
DOCKED: ATOM     24  C   UNL     1     146.010  73.445 221.172 -0.73 -0.00    +0.000 A  
DOCKED: ATOM     25  C   UNL     1     145.949  73.333 218.755 -0.18 +0.00    +0.000 A  
DOCKED: ATOM     26  C   UNL     1     146.651  73.582 219.938 -0.31 +0.00    +0.000 A  
DOCKED: ENDBRANCH  20  21
DOCKED: ENDBRANCH  11  20
DOCKED: TORSDOF 5
DOCKED: TER
DOCKED: ENDMDL
________________________________________________________________________________


    FINAL DOCKED STATE:
    ________________________


Run:   14 / 20
Time taken for this run:   0.038s

DOCKED: MODEL        14
DOCKED: USER    Run = 14
DOCKED: USER
DOCKED: USER    Estimated Free Energy of Binding    =  -7.15 kcal/mol  [=(1)+(2)+(3)-(4)]
DOCKED: USER
DOCKED: USER    (1) Final Intermolecular Energy     =  -8.64 kcal/mol
DOCKED: USER        vdW + Hbond + desolv Energy     =  -8.58 kcal/mol
DOCKED: USER        Electrostatic Energy            =  -0.05 kcal/mol
DOCKED: USER        Moving Ligand-Fixed Receptor    =  -8.64 kcal/mol
DOCKED: USER        Moving Ligand-Moving Receptor   =  +0.00 kcal/mol
DOCKED: USER    (2) Final Total Internal Energy     =  -1.35 kcal/mol
DOCKED: USER    (3) Torsional Free Energy           =  +1.49 kcal/mol
DOCKED: USER    (4) Unbound System's Energy         =  -1.35 kcal/mol
DOCKED: USER
DOCKED: USER
DOCKED: REMARK SMILES O=c1c2ccccc2nc(/C=C/c2cccnc2)n1Cc1ccccc1
DOCKED: REMARK SMILES IDX 10 1 9 2 8 3 7 4 6 5 5 6 4 7 3 8 2 9 1 10 19 11 11 12 12 13
DOCKED: REMARK SMILES IDX 13 14 18 15 14 16 17 17 15 18 16 19 20 20 21 21 22 22 26 23
DOCKED: REMARK SMILES IDX 23 24 25 25 24 26
DOCKED: REMARK H PARENT
DOCKED: USER                              x       y       z     vdW  Elec       q    Type
DOCKED: USER                           _______ _______ _______ _____ _____    ______ ____
DOCKED: ROOT
DOCKED: ATOM      1  C   UNL     1     139.562  70.368 223.556 -0.24 -0.02    +0.136 A  
DOCKED: ATOM      2  N   UNL     1     140.175  71.249 224.389 -0.29 +0.04    -0.230 NA 
DOCKED: ATOM      3  C   UNL     1     140.445  70.940 225.677 -0.51 -0.01    +0.078 A  
DOCKED: ATOM      4  C   UNL     1     141.053  71.886 226.514 -0.70 -0.00    +0.029 A  
DOCKED: ATOM      5  C   UNL     1     141.326  71.570 227.846 -0.73 -0.00    +0.002 A  
DOCKED: ATOM      6  C   UNL     1     140.998  70.306 228.347 -0.56 -0.00    +0.001 A  
DOCKED: ATOM      7  C   UNL     1     140.394  69.355 227.518 -0.60 -0.00    +0.016 A  
DOCKED: ATOM      8  C   UNL     1     140.106  69.669 226.175 -0.45 -0.01    +0.066 A  
DOCKED: ATOM      9  C   UNL     1     139.488  68.754 225.304 -0.27 -0.04    +0.261 A  
DOCKED: ATOM     10  O   UNL     1     139.193  67.600 225.726 -0.89 -0.00    -0.269 OA 
DOCKED: ATOM     11  N   UNL     1     139.211  69.112 224.004 -0.14 +0.05    -0.288 N  
DOCKED: ENDROOT
DOCKED: BRANCH   1  12
DOCKED: ATOM     12  C   UNL     1     139.299  70.794 222.170 -0.19 -0.01    +0.048 C  
DOCKED: BRANCH  12  13
DOCKED: ATOM     13  C   UNL     1     138.484  71.824 221.920 -0.16 -0.00    +0.013 C  
DOCKED: BRANCH  13  14
DOCKED: ATOM     14  C   UNL     1     138.955  73.223 221.933 -0.22 +0.00    -0.007 A  
DOCKED: ATOM     15  C   UNL     1     140.323  73.548 221.938 -0.24 -0.01    +0.119 A  
DOCKED: ATOM     16  C   UNL     1     138.018  74.266 221.933 -0.18 -0.00    +0.011 A  
DOCKED: ATOM     17  N   UNL     1     140.717  74.849 221.954 -0.62 +0.02    -0.264 NA 
DOCKED: ATOM     18  C   UNL     1     138.449  75.594 221.964 -0.27 -0.01    +0.021 A  
DOCKED: ATOM     19  C   UNL     1     139.818  75.868 221.976 -0.30 -0.02    +0.111 A  
DOCKED: ENDBRANCH  13  14
DOCKED: ENDBRANCH  12  13
DOCKED: ENDBRANCH   1  12
DOCKED: BRANCH  11  20
DOCKED: ATOM     20  C   UNL     1     138.569  68.141 223.085 -0.21 -0.02    +0.163 C  
DOCKED: BRANCH  20  21
DOCKED: ATOM     21  C   UNL     1     137.080  68.377 222.988 -0.12 +0.00    -0.028 A  
DOCKED: ATOM     22  C   UNL     1     136.320  67.736 221.994 -0.13 -0.00    +0.005 A  
DOCKED: ATOM     23  C   UNL     1     136.443  69.259 223.878 -0.21 -0.00    +0.005 A  
DOCKED: ATOM     24  C   UNL     1     134.952  67.999 221.875 -0.09 -0.00    +0.000 A  
DOCKED: ATOM     25  C   UNL     1     135.077  69.522 223.752 -0.15 -0.00    +0.000 A  
DOCKED: ATOM     26  C   UNL     1     134.330  68.892 222.753 -0.09 -0.00    +0.000 A  
DOCKED: ENDBRANCH  20  21
DOCKED: ENDBRANCH  11  20
DOCKED: TORSDOF 5
DOCKED: TER
DOCKED: ENDMDL
________________________________________________________________________________


    FINAL DOCKED STATE:
    ________________________


Run:   15 / 20
Time taken for this run:   0.038s

DOCKED: MODEL        15
DOCKED: USER    Run = 15
DOCKED: USER
DOCKED: USER    Estimated Free Energy of Binding    =  -6.95 kcal/mol  [=(1)+(2)+(3)-(4)]
DOCKED: USER
DOCKED: USER    (1) Final Intermolecular Energy     =  -8.44 kcal/mol
DOCKED: USER        vdW + Hbond + desolv Energy     =  -8.42 kcal/mol
DOCKED: USER        Electrostatic Energy            =  -0.02 kcal/mol
DOCKED: USER        Moving Ligand-Fixed Receptor    =  -8.44 kcal/mol
DOCKED: USER        Moving Ligand-Moving Receptor   =  +0.00 kcal/mol
DOCKED: USER    (2) Final Total Internal Energy     =  -1.44 kcal/mol
DOCKED: USER    (3) Torsional Free Energy           =  +1.49 kcal/mol
DOCKED: USER    (4) Unbound System's Energy         =  -1.44 kcal/mol
DOCKED: USER
DOCKED: USER
DOCKED: REMARK SMILES O=c1c2ccccc2nc(/C=C/c2cccnc2)n1Cc1ccccc1
DOCKED: REMARK SMILES IDX 10 1 9 2 8 3 7 4 6 5 5 6 4 7 3 8 2 9 1 10 19 11 11 12 12 13
DOCKED: REMARK SMILES IDX 13 14 18 15 14 16 17 17 15 18 16 19 20 20 21 21 22 22 26 23
DOCKED: REMARK SMILES IDX 23 24 25 25 24 26
DOCKED: REMARK H PARENT
DOCKED: USER                              x       y       z     vdW  Elec       q    Type
DOCKED: USER                           _______ _______ _______ _____ _____    ______ ____
DOCKED: ROOT
DOCKED: ATOM      1  C   UNL     1     139.157  70.820 223.813 -0.27 -0.03    +0.136 A  
DOCKED: ATOM      2  N   UNL     1     139.891  71.500 224.732 -0.29 +0.05    -0.230 NA 
DOCKED: ATOM      3  C   UNL     1     140.266  70.935 225.901 -0.51 -0.01    +0.078 A  
DOCKED: ATOM      4  C   UNL     1     140.999  71.679 226.837 -0.73 -0.00    +0.029 A  
DOCKED: ATOM      5  C   UNL     1     141.381  71.098 228.048 -0.57 -0.00    +0.002 A  
DOCKED: ATOM      6  C   UNL     1     141.038  69.771 228.328 -0.58 -0.00    +0.001 A  
DOCKED: ATOM      7  C   UNL     1     140.309  69.022 227.398 -0.61 -0.00    +0.016 A  
DOCKED: ATOM      8  C   UNL     1     139.912  69.603 226.178 -0.45 -0.01    +0.066 A  
DOCKED: ATOM      9  C   UNL     1     139.167  68.898 225.215 -0.26 -0.03    +0.261 A  
DOCKED: ATOM     10  O   UNL     1     138.855  67.693 225.435 -0.79 -0.02    -0.269 OA 
DOCKED: ATOM     11  N   UNL     1     138.786  69.512 224.044 -0.15 +0.04    -0.288 N  
DOCKED: ENDROOT
DOCKED: BRANCH   1  12
DOCKED: ATOM     12  C   UNL     1     138.786  71.519 222.569 -0.22 -0.01    +0.048 C  
DOCKED: BRANCH  12  13
DOCKED: ATOM     13  C   UNL     1     139.264  72.740 222.308 -0.22 -0.00    +0.013 C  
DOCKED: BRANCH  13  14
DOCKED: ATOM     14  C   UNL     1     140.588  72.952 221.689 -0.29 +0.00    -0.007 A  
DOCKED: ATOM     15  C   UNL     1     141.058  74.236 221.361 -0.25 -0.02    +0.119 A  
DOCKED: ATOM     16  C   UNL     1     141.410  71.848 221.425 -0.23 -0.00    +0.011 A  
DOCKED: ATOM     17  N   UNL     1     142.282  74.389 220.788 -0.17 +0.07    -0.264 NA 
DOCKED: ATOM     18  C   UNL     1     142.656  72.032 220.822 -0.26 -0.00    +0.021 A  
DOCKED: ATOM     19  C   UNL     1     143.079  73.325 220.507 -0.26 -0.02    +0.111 A  
DOCKED: ENDBRANCH  13  14
DOCKED: ENDBRANCH  12  13
DOCKED: ENDBRANCH   1  12
DOCKED: BRANCH  11  20
DOCKED: ATOM     20  C   UNL     1     138.011  68.762 223.027 -0.18 -0.02    +0.163 C  
DOCKED: BRANCH  20  21
DOCKED: ATOM     21  C   UNL     1     138.923  68.022 222.076 -0.19 +0.01    -0.028 A  
DOCKED: ATOM     22  C   UNL     1     139.641  68.719 221.090 -0.14 -0.00    +0.005 A  
DOCKED: ATOM     23  C   UNL     1     139.044  66.623 222.155 -0.28 -0.00    +0.005 A  
DOCKED: ATOM     24  C   UNL     1     140.442  68.024 220.178 -0.14 -0.00    +0.000 A  
DOCKED: ATOM     25  C   UNL     1     139.842  65.933 221.240 -0.24 -0.00    +0.000 A  
DOCKED: ATOM     26  C   UNL     1     140.542  66.631 220.252 -0.14 -0.00    +0.000 A  
DOCKED: ENDBRANCH  20  21
DOCKED: ENDBRANCH  11  20
DOCKED: TORSDOF 5
DOCKED: TER
DOCKED: ENDMDL
________________________________________________________________________________


    FINAL DOCKED STATE:
    ________________________


Run:   16 / 20
Time taken for this run:   0.038s

DOCKED: MODEL        16
DOCKED: USER    Run = 16
DOCKED: USER
DOCKED: USER    Estimated Free Energy of Binding    =  -6.31 kcal/mol  [=(1)+(2)+(3)-(4)]
DOCKED: USER
DOCKED: USER    (1) Final Intermolecular Energy     =  -7.80 kcal/mol
DOCKED: USER        vdW + Hbond + desolv Energy     =  -7.77 kcal/mol
DOCKED: USER        Electrostatic Energy            =  -0.03 kcal/mol
DOCKED: USER        Moving Ligand-Fixed Receptor    =  -7.80 kcal/mol
DOCKED: USER        Moving Ligand-Moving Receptor   =  +0.00 kcal/mol
DOCKED: USER    (2) Final Total Internal Energy     =  -1.92 kcal/mol
DOCKED: USER    (3) Torsional Free Energy           =  +1.49 kcal/mol
DOCKED: USER    (4) Unbound System's Energy         =  -1.92 kcal/mol
DOCKED: USER
DOCKED: USER
DOCKED: REMARK SMILES O=c1c2ccccc2nc(/C=C/c2cccnc2)n1Cc1ccccc1
DOCKED: REMARK SMILES IDX 10 1 9 2 8 3 7 4 6 5 5 6 4 7 3 8 2 9 1 10 19 11 11 12 12 13
DOCKED: REMARK SMILES IDX 13 14 18 15 14 16 17 17 15 18 16 19 20 20 21 21 22 22 26 23
DOCKED: REMARK SMILES IDX 23 24 25 25 24 26
DOCKED: REMARK H PARENT
DOCKED: USER                              x       y       z     vdW  Elec       q    Type
DOCKED: USER                           _______ _______ _______ _____ _____    ______ ____
DOCKED: ROOT
DOCKED: ATOM      1  C   UNL     1     140.838  77.586 220.184 -0.16 -0.06    +0.136 A  
DOCKED: ATOM      2  N   UNL     1     142.078  77.200 219.786 -0.18 +0.14    -0.230 NA 
DOCKED: ATOM      3  C   UNL     1     142.583  75.987 220.106 -0.28 -0.04    +0.078 A  
DOCKED: ATOM      4  C   UNL     1     143.878  75.636 219.701 -0.36 -0.02    +0.029 A  
DOCKED: ATOM      5  C   UNL     1     144.402  74.386 220.037 -0.45 -0.00    +0.002 A  
DOCKED: ATOM      6  C   UNL     1     143.633  73.480 220.774 -0.34 -0.00    +0.001 A  
DOCKED: ATOM      7  C   UNL     1     142.339  73.822 221.179 -0.09 -0.00    +0.016 A  
DOCKED: ATOM      8  C   UNL     1     141.806  75.084 220.853 -0.28 -0.02    +0.066 A  
DOCKED: ATOM      9  C   UNL     1     140.516  75.481 221.247 -0.20 -0.06    +0.261 A  
DOCKED: ATOM     10  O   UNL     1     139.793  74.677 221.903 -0.66 +0.04    -0.269 OA 
DOCKED: ATOM     11  N   UNL     1     140.043  76.732 220.920 -0.09 +0.08    -0.288 N  
DOCKED: ENDROOT
DOCKED: BRANCH   1  12
DOCKED: ATOM     12  C   UNL     1     140.373  78.930 219.797 -0.14 -0.02    +0.048 C  
DOCKED: BRANCH  12  13
DOCKED: ATOM     13  C   UNL     1     141.169  79.993 219.950 -0.25 -0.01    +0.013 C  
DOCKED: BRANCH  13  14
DOCKED: ATOM     14  C   UNL     1     141.651  80.432 221.275 -0.39 +0.00    -0.007 A  
DOCKED: ATOM     15  C   UNL     1     141.237  81.645 221.853 -0.34 -0.02    +0.119 A  
DOCKED: ATOM     16  C   UNL     1     142.540  79.618 221.990 -0.40 -0.01    +0.011 A  
DOCKED: ATOM     17  N   UNL     1     141.706  82.016 223.074 -0.21 +0.03    -0.264 NA 
DOCKED: ATOM     18  C   UNL     1     143.018  80.029 223.236 -0.61 -0.01    +0.021 A  
DOCKED: ATOM     19  C   UNL     1     142.586  81.245 223.767 -0.52 -0.02    +0.111 A  
DOCKED: ENDBRANCH  13  14
DOCKED: ENDBRANCH  12  13
DOCKED: ENDBRANCH   1  12
DOCKED: BRANCH  11  20
DOCKED: ATOM     20  C   UNL     1     138.678  77.143 221.328 -0.14 -0.04    +0.163 C  
DOCKED: BRANCH  20  21
DOCKED: ATOM     21  C   UNL     1     138.721  78.250 222.355 -0.25 +0.01    -0.028 A  
DOCKED: ATOM     22  C   UNL     1     137.665  79.172 222.455 -0.20 -0.00    +0.005 A  
DOCKED: ATOM     23  C   UNL     1     139.832  78.383 223.207 -0.22 -0.00    +0.005 A  
DOCKED: ATOM     24  C   UNL     1     137.735  80.226 223.371 -0.29 -0.00    +0.000 A  
DOCKED: ATOM     25  C   UNL     1     139.898  79.440 224.118 -0.34 -0.00    +0.000 A  
DOCKED: ATOM     26  C   UNL     1     138.851  80.362 224.201 -0.40 -0.00    +0.000 A  
DOCKED: ENDBRANCH  20  21
DOCKED: ENDBRANCH  11  20
DOCKED: TORSDOF 5
DOCKED: TER
DOCKED: ENDMDL
________________________________________________________________________________


    FINAL DOCKED STATE:
    ________________________


Run:   17 / 20
Time taken for this run:   0.038s

DOCKED: MODEL        17
DOCKED: USER    Run = 17
DOCKED: USER
DOCKED: USER    Estimated Free Energy of Binding    =  -7.34 kcal/mol  [=(1)+(2)+(3)-(4)]
DOCKED: USER
DOCKED: USER    (1) Final Intermolecular Energy     =  -8.83 kcal/mol
DOCKED: USER        vdW + Hbond + desolv Energy     =  -8.77 kcal/mol
DOCKED: USER        Electrostatic Energy            =  -0.07 kcal/mol
DOCKED: USER        Moving Ligand-Fixed Receptor    =  -8.83 kcal/mol
DOCKED: USER        Moving Ligand-Moving Receptor   =  +0.00 kcal/mol
DOCKED: USER    (2) Final Total Internal Energy     =  -1.21 kcal/mol
DOCKED: USER    (3) Torsional Free Energy           =  +1.49 kcal/mol
DOCKED: USER    (4) Unbound System's Energy         =  -1.21 kcal/mol
DOCKED: USER
DOCKED: USER
DOCKED: REMARK SMILES O=c1c2ccccc2nc(/C=C/c2cccnc2)n1Cc1ccccc1
DOCKED: REMARK SMILES IDX 10 1 9 2 8 3 7 4 6 5 5 6 4 7 3 8 2 9 1 10 19 11 11 12 12 13
DOCKED: REMARK SMILES IDX 13 14 18 15 14 16 17 17 15 18 16 19 20 20 21 21 22 22 26 23
DOCKED: REMARK SMILES IDX 23 24 25 25 24 26
DOCKED: REMARK H PARENT
DOCKED: USER                              x       y       z     vdW  Elec       q    Type
DOCKED: USER                           _______ _______ _______ _____ _____    ______ ____
DOCKED: ROOT
DOCKED: ATOM      1  C   UNL     1     139.514  70.262 223.506 -0.23 -0.02    +0.136 A  
DOCKED: ATOM      2  N   UNL     1     140.056  71.146 224.384 -0.28 +0.04    -0.230 NA 
DOCKED: ATOM      3  C   UNL     1     140.299  70.811 225.671 -0.50 -0.01    +0.078 A  
DOCKED: ATOM      4  C   UNL     1     140.834  71.759 226.554 -0.67 -0.00    +0.029 A  
DOCKED: ATOM      5  C   UNL     1     141.079  71.415 227.886 -0.79 -0.00    +0.002 A  
DOCKED: ATOM      6  C   UNL     1     140.795  70.123 228.339 -0.57 -0.00    +0.001 A  
DOCKED: ATOM      7  C   UNL     1     140.264  69.171 227.463 -0.61 -0.00    +0.016 A  
DOCKED: ATOM      8  C   UNL     1     140.006  69.511 226.121 -0.45 -0.01    +0.066 A  
DOCKED: ATOM      9  C   UNL     1     139.460  68.595 225.203 -0.27 -0.03    +0.261 A  
DOCKED: ATOM     10  O   UNL     1     139.207  67.416 225.582 -0.93 -0.01    -0.269 OA 
DOCKED: ATOM     11  N   UNL     1     139.208  68.978 223.906 -0.14 +0.05    -0.288 N  
DOCKED: ENDROOT
DOCKED: BRANCH   1  12
DOCKED: ATOM     12  C   UNL     1     139.276  70.718 222.124 -0.18 -0.01    +0.048 C  
DOCKED: BRANCH  12  13
DOCKED: ATOM     13  C   UNL     1     140.268  71.255 221.407 -0.18 -0.00    +0.013 C  
DOCKED: BRANCH  13  14
DOCKED: ATOM     14  C   UNL     1     140.553  72.704 221.418 -0.25 +0.00    -0.007 A  
DOCKED: ATOM     15  C   UNL     1     139.667  73.632 221.992 -0.23 -0.02    +0.119 A  
DOCKED: ATOM     16  C   UNL     1     141.744  73.176 220.850 -0.26 -0.00    +0.011 A  
DOCKED: ATOM     17  N   UNL     1     139.964  74.959 221.979 -0.66 +0.03    -0.264 NA 
DOCKED: ATOM     18  C   UNL     1     142.019  74.545 220.838 -0.29 -0.01    +0.021 A  
DOCKED: ATOM     19  C   UNL     1     141.106  75.431 221.412 -0.30 -0.03    +0.111 A  
DOCKED: ENDBRANCH  13  14
DOCKED: ENDBRANCH  12  13
DOCKED: ENDBRANCH   1  12
DOCKED: BRANCH  11  20
DOCKED: ATOM     20  C   UNL     1     138.644  68.006 222.938 -0.20 -0.02    +0.163 C  
DOCKED: BRANCH  20  21
DOCKED: ATOM     21  C   UNL     1     137.141  68.136 222.842 -0.11 +0.00    -0.028 A  
DOCKED: ATOM     22  C   UNL     1     136.421  67.384 221.899 -0.14 -0.00    +0.005 A  
DOCKED: ATOM     23  C   UNL     1     136.452  69.029 223.680 -0.18 -0.00    +0.005 A  
DOCKED: ATOM     24  C   UNL     1     135.037  67.547 221.777 -0.10 -0.00    +0.000 A  
DOCKED: ATOM     25  C   UNL     1     135.071  69.191 223.553 -0.15 -0.00    +0.000 A  
DOCKED: ATOM     26  C   UNL     1     134.362  68.451 222.603 -0.09 -0.00    +0.000 A  
DOCKED: ENDBRANCH  20  21
DOCKED: ENDBRANCH  11  20
DOCKED: TORSDOF 5
DOCKED: TER
DOCKED: ENDMDL
________________________________________________________________________________


    FINAL DOCKED STATE:
    ________________________


Run:   18 / 20
Time taken for this run:   0.038s

DOCKED: MODEL        18
DOCKED: USER    Run = 18
DOCKED: USER
DOCKED: USER    Estimated Free Energy of Binding    =  -7.19 kcal/mol  [=(1)+(2)+(3)-(4)]
DOCKED: USER
DOCKED: USER    (1) Final Intermolecular Energy     =  -8.68 kcal/mol
DOCKED: USER        vdW + Hbond + desolv Energy     =  -8.61 kcal/mol
DOCKED: USER        Electrostatic Energy            =  -0.06 kcal/mol
DOCKED: USER        Moving Ligand-Fixed Receptor    =  -8.68 kcal/mol
DOCKED: USER        Moving Ligand-Moving Receptor   =  +0.00 kcal/mol
DOCKED: USER    (2) Final Total Internal Energy     =  -1.32 kcal/mol
DOCKED: USER    (3) Torsional Free Energy           =  +1.49 kcal/mol
DOCKED: USER    (4) Unbound System's Energy         =  -1.32 kcal/mol
DOCKED: USER
DOCKED: USER
DOCKED: REMARK SMILES O=c1c2ccccc2nc(/C=C/c2cccnc2)n1Cc1ccccc1
DOCKED: REMARK SMILES IDX 10 1 9 2 8 3 7 4 6 5 5 6 4 7 3 8 2 9 1 10 19 11 11 12 12 13
DOCKED: REMARK SMILES IDX 13 14 18 15 14 16 17 17 15 18 16 19 20 20 21 21 22 22 26 23
DOCKED: REMARK SMILES IDX 23 24 25 25 24 26
DOCKED: REMARK H PARENT
DOCKED: USER                              x       y       z     vdW  Elec       q    Type
DOCKED: USER                           _______ _______ _______ _____ _____    ______ ____
DOCKED: ROOT
DOCKED: ATOM      1  C   UNL     1     139.522  70.295 223.504 -0.23 -0.02    +0.136 A  
DOCKED: ATOM      2  N   UNL     1     140.062  71.181 224.380 -0.29 +0.04    -0.230 NA 
DOCKED: ATOM      3  C   UNL     1     140.298  70.852 225.670 -0.50 -0.01    +0.078 A  
DOCKED: ATOM      4  C   UNL     1     140.830  71.802 226.552 -0.67 -0.00    +0.029 A  
DOCKED: ATOM      5  C   UNL     1     141.068  71.464 227.886 -0.80 -0.00    +0.002 A  
DOCKED: ATOM      6  C   UNL     1     140.780  70.174 228.344 -0.57 -0.00    +0.001 A  
DOCKED: ATOM      7  C   UNL     1     140.251  69.219 227.469 -0.60 -0.00    +0.016 A  
DOCKED: ATOM      8  C   UNL     1     140.000  69.555 226.124 -0.45 -0.01    +0.066 A  
DOCKED: ATOM      9  C   UNL     1     139.457  68.636 225.208 -0.27 -0.04    +0.261 A  
DOCKED: ATOM     10  O   UNL     1     139.200  67.458 225.590 -0.92 -0.01    -0.269 OA 
DOCKED: ATOM     11  N   UNL     1     139.212  69.013 223.907 -0.14 +0.05    -0.288 N  
DOCKED: ENDROOT
DOCKED: BRANCH   1  12
DOCKED: ATOM     12  C   UNL     1     139.292  70.745 222.119 -0.18 -0.01    +0.048 C  
DOCKED: BRANCH  12  13
DOCKED: ATOM     13  C   UNL     1     138.480  71.777 221.867 -0.16 -0.00    +0.013 C  
DOCKED: BRANCH  13  14
DOCKED: ATOM     14  C   UNL     1     138.948  73.177 221.908 -0.22 +0.00    -0.007 A  
DOCKED: ATOM     15  C   UNL     1     140.316  73.503 221.932 -0.25 -0.01    +0.119 A  
DOCKED: ATOM     16  C   UNL     1     138.010  74.217 221.916 -0.18 -0.00    +0.011 A  
DOCKED: ATOM     17  N   UNL     1     140.707  74.805 221.974 -0.63 +0.02    -0.264 NA 
DOCKED: ATOM     18  C   UNL     1     138.438  75.545 221.974 -0.26 -0.01    +0.021 A  
DOCKED: ATOM     19  C   UNL     1     139.806  75.822 222.004 -0.30 -0.02    +0.111 A  
DOCKED: ENDBRANCH  13  14
DOCKED: ENDBRANCH  12  13
DOCKED: ENDBRANCH   1  12
DOCKED: BRANCH  11  20
DOCKED: ATOM     20  C   UNL     1     138.651  68.038 222.941 -0.20 -0.02    +0.163 C  
DOCKED: BRANCH  20  21
DOCKED: ATOM     21  C   UNL     1     137.150  68.177 222.830 -0.12 +0.00    -0.028 A  
DOCKED: ATOM     22  C   UNL     1     136.455  69.076 223.656 -0.19 -0.00    +0.005 A  
DOCKED: ATOM     23  C   UNL     1     136.432  67.388 221.914 -0.14 -0.00    +0.005 A  
DOCKED: ATOM     24  C   UNL     1     135.060  69.161 223.586 -0.15 -0.00    +0.000 A  
DOCKED: ATOM     25  C   UNL     1     135.039  67.474 221.851 -0.11 -0.00    +0.000 A  
DOCKED: ATOM     26  C   UNL     1     134.352  68.360 222.686 -0.10 -0.00    +0.000 A  
DOCKED: ENDBRANCH  20  21
DOCKED: ENDBRANCH  11  20
DOCKED: TORSDOF 5
DOCKED: TER
DOCKED: ENDMDL
________________________________________________________________________________


    FINAL DOCKED STATE:
    ________________________


Run:   19 / 20
Time taken for this run:   0.038s

DOCKED: MODEL        19
DOCKED: USER    Run = 19
DOCKED: USER
DOCKED: USER    Estimated Free Energy of Binding    =  -7.35 kcal/mol  [=(1)+(2)+(3)-(4)]
DOCKED: USER
DOCKED: USER    (1) Final Intermolecular Energy     =  -8.84 kcal/mol
DOCKED: USER        vdW + Hbond + desolv Energy     =  -8.77 kcal/mol
DOCKED: USER        Electrostatic Energy            =  -0.07 kcal/mol
DOCKED: USER        Moving Ligand-Fixed Receptor    =  -8.84 kcal/mol
DOCKED: USER        Moving Ligand-Moving Receptor   =  +0.00 kcal/mol
DOCKED: USER    (2) Final Total Internal Energy     =  -1.18 kcal/mol
DOCKED: USER    (3) Torsional Free Energy           =  +1.49 kcal/mol
DOCKED: USER    (4) Unbound System's Energy         =  -1.18 kcal/mol
DOCKED: USER
DOCKED: USER
DOCKED: REMARK SMILES O=c1c2ccccc2nc(/C=C/c2cccnc2)n1Cc1ccccc1
DOCKED: REMARK SMILES IDX 10 1 9 2 8 3 7 4 6 5 5 6 4 7 3 8 2 9 1 10 19 11 11 12 12 13
DOCKED: REMARK SMILES IDX 13 14 18 15 14 16 17 17 15 18 16 19 20 20 21 21 22 22 26 23
DOCKED: REMARK SMILES IDX 23 24 25 25 24 26
DOCKED: REMARK H PARENT
DOCKED: USER                              x       y       z     vdW  Elec       q    Type
DOCKED: USER                           _______ _______ _______ _____ _____    ______ ____
DOCKED: ROOT
DOCKED: ATOM      1  C   UNL     1     139.541  70.388 223.507 -0.24 -0.02    +0.136 A  
DOCKED: ATOM      2  N   UNL     1     140.074  71.226 224.434 -0.29 +0.04    -0.230 NA 
DOCKED: ATOM      3  C   UNL     1     140.302  70.827 225.706 -0.50 -0.01    +0.078 A  
DOCKED: ATOM      4  C   UNL     1     140.828  71.729 226.641 -0.68 -0.00    +0.029 A  
DOCKED: ATOM      5  C   UNL     1     141.056  71.319 227.957 -0.78 -0.00    +0.002 A  
DOCKED: ATOM      6  C   UNL     1     140.767  70.006 228.341 -0.57 -0.00    +0.001 A  
DOCKED: ATOM      7  C   UNL     1     140.245  69.100 227.412 -0.61 -0.00    +0.016 A  
DOCKED: ATOM      8  C   UNL     1     140.002  69.507 226.087 -0.45 -0.01    +0.066 A  
DOCKED: ATOM      9  C   UNL     1     139.467  68.639 225.118 -0.26 -0.04    +0.261 A  
DOCKED: ATOM     10  O   UNL     1     139.208  67.442 225.434 -0.92 -0.01    -0.269 OA 
DOCKED: ATOM     11  N   UNL     1     139.230  69.086 223.838 -0.13 +0.05    -0.288 N  
DOCKED: ENDROOT
DOCKED: BRANCH   1  12
DOCKED: ATOM     12  C   UNL     1     139.319  70.913 222.147 -0.19 -0.01    +0.048 C  
DOCKED: BRANCH  12  13
DOCKED: ATOM     13  C   UNL     1     140.330  71.443 221.451 -0.20 -0.00    +0.013 C  
DOCKED: BRANCH  13  14
DOCKED: ATOM     14  C   UNL     1     140.606  72.893 221.443 -0.27 +0.00    -0.007 A  
DOCKED: ATOM     15  C   UNL     1     139.714  73.823 222.006 -0.22 -0.02    +0.119 A  
DOCKED: ATOM     16  C   UNL     1     141.793  73.366 220.867 -0.27 -0.00    +0.011 A  
DOCKED: ATOM     17  N   UNL     1     140.002  75.152 221.975 -0.60 +0.04    -0.264 NA 
DOCKED: ATOM     18  C   UNL     1     142.058  74.737 220.836 -0.30 -0.01    +0.021 A  
DOCKED: ATOM     19  C   UNL     1     141.140  75.624 221.400 -0.29 -0.03    +0.111 A  
DOCKED: ENDBRANCH  13  14
DOCKED: ENDBRANCH  12  13
DOCKED: ENDBRANCH   1  12
DOCKED: BRANCH  11  20
DOCKED: ATOM     20  C   UNL     1     138.676  68.165 222.817 -0.19 -0.03    +0.163 C  
DOCKED: BRANCH  20  21
DOCKED: ATOM     21  C   UNL     1     137.165  68.195 222.811 -0.13 +0.00    -0.028 A  
DOCKED: ATOM     22  C   UNL     1     136.440  67.361 221.943 -0.14 -0.00    +0.005 A  
DOCKED: ATOM     23  C   UNL     1     136.471  69.076 223.658 -0.19 -0.00    +0.005 A  
DOCKED: ATOM     24  C   UNL     1     135.043  67.431 221.903 -0.11 -0.00    +0.000 A  
DOCKED: ATOM     25  C   UNL     1     135.077  69.145 223.612 -0.15 -0.00    +0.000 A  
DOCKED: ATOM     26  C   UNL     1     134.362  68.324 222.736 -0.11 -0.00    +0.000 A  
DOCKED: ENDBRANCH  20  21
DOCKED: ENDBRANCH  11  20
DOCKED: TORSDOF 5
DOCKED: TER
DOCKED: ENDMDL
________________________________________________________________________________


    FINAL DOCKED STATE:
    ________________________


Run:   20 / 20
Time taken for this run:   0.038s

DOCKED: MODEL        20
DOCKED: USER    Run = 20
DOCKED: USER
DOCKED: USER    Estimated Free Energy of Binding    =  -7.03 kcal/mol  [=(1)+(2)+(3)-(4)]
DOCKED: USER
DOCKED: USER    (1) Final Intermolecular Energy     =  -8.53 kcal/mol
DOCKED: USER        vdW + Hbond + desolv Energy     =  -8.46 kcal/mol
DOCKED: USER        Electrostatic Energy            =  -0.06 kcal/mol
DOCKED: USER        Moving Ligand-Fixed Receptor    =  -8.53 kcal/mol
DOCKED: USER        Moving Ligand-Moving Receptor   =  +0.00 kcal/mol
DOCKED: USER    (2) Final Total Internal Energy     =  -1.29 kcal/mol
DOCKED: USER    (3) Torsional Free Energy           =  +1.49 kcal/mol
DOCKED: USER    (4) Unbound System's Energy         =  -1.29 kcal/mol
DOCKED: USER
DOCKED: USER
DOCKED: REMARK SMILES O=c1c2ccccc2nc(/C=C/c2cccnc2)n1Cc1ccccc1
DOCKED: REMARK SMILES IDX 10 1 9 2 8 3 7 4 6 5 5 6 4 7 3 8 2 9 1 10 19 11 11 12 12 13
DOCKED: REMARK SMILES IDX 13 14 18 15 14 16 17 17 15 18 16 19 20 20 21 21 22 22 26 23
DOCKED: REMARK SMILES IDX 23 24 25 25 24 26
DOCKED: REMARK H PARENT
DOCKED: USER                              x       y       z     vdW  Elec       q    Type
DOCKED: USER                           _______ _______ _______ _____ _____    ______ ____
DOCKED: ROOT
DOCKED: ATOM      1  C   UNL     1     139.535  70.197 223.499 -0.23 -0.02    +0.136 A  
DOCKED: ATOM      2  N   UNL     1     140.074  71.101 224.357 -0.28 +0.04    -0.230 NA 
DOCKED: ATOM      3  C   UNL     1     140.307  70.800 225.654 -0.50 -0.01    +0.078 A  
DOCKED: ATOM      4  C   UNL     1     140.839  71.769 226.516 -0.66 -0.00    +0.029 A  
DOCKED: ATOM      5  C   UNL     1     141.074  71.460 227.858 -0.80 -0.00    +0.002 A  
DOCKED: ATOM      6  C   UNL     1     140.784  70.181 228.343 -0.57 -0.00    +0.001 A  
DOCKED: ATOM      7  C   UNL     1     140.256  69.207 227.488 -0.61 -0.00    +0.016 A  
DOCKED: ATOM      8  C   UNL     1     140.007  69.513 226.136 -0.45 -0.01    +0.066 A  
DOCKED: ATOM      9  C   UNL     1     139.465  68.575 225.239 -0.27 -0.03    +0.261 A  
DOCKED: ATOM     10  O   UNL     1     139.206  67.407 225.647 -0.94 -0.01    -0.269 OA 
DOCKED: ATOM     11  N   UNL     1     139.223  68.924 223.930 -0.14 +0.05    -0.288 N  
DOCKED: ENDROOT
DOCKED: BRANCH   1  12
DOCKED: ATOM     12  C   UNL     1     139.307  70.616 222.104 -0.18 -0.01    +0.048 C  
DOCKED: BRANCH  12  13
DOCKED: ATOM     13  C   UNL     1     138.833  71.836 221.832 -0.17 -0.00    +0.013 C  
DOCKED: BRANCH  13  14
DOCKED: ATOM     14  C   UNL     1     139.713  73.017 221.721 -0.25 +0.00    -0.007 A  
DOCKED: ATOM     15  C   UNL     1     139.287  74.302 222.101 -0.16 -0.02    +0.119 A  
DOCKED: ATOM     16  C   UNL     1     141.017  72.861 221.231 -0.26 -0.00    +0.011 A  
DOCKED: ATOM     17  N   UNL     1     140.126  75.364 221.980 -0.53 +0.04    -0.264 NA 
DOCKED: ATOM     18  C   UNL     1     141.854  73.971 221.103 -0.24 -0.00    +0.021 A  
DOCKED: ATOM     19  C   UNL     1     141.385  75.229 221.486 -0.27 -0.03    +0.111 A  
DOCKED: ENDBRANCH  13  14
DOCKED: ENDBRANCH  12  13
DOCKED: ENDBRANCH   1  12
DOCKED: BRANCH  11  20
DOCKED: ATOM     20  C   UNL     1     138.662  67.929 222.985 -0.19 -0.02    +0.163 C  
DOCKED: BRANCH  20  21
DOCKED: ATOM     21  C   UNL     1     137.176  68.127 222.796 -0.12 +0.00    -0.028 A  
DOCKED: ATOM     22  C   UNL     1     136.460  68.996 223.637 -0.18 -0.00    +0.005 A  
DOCKED: ATOM     23  C   UNL     1     136.489  67.423 221.791 -0.14 -0.00    +0.005 A  
DOCKED: ATOM     24  C   UNL     1     135.076  69.134 223.493 -0.14 -0.00    +0.000 A  
DOCKED: ATOM     25  C   UNL     1     135.106  67.562 221.653 -0.10 -0.00    +0.000 A  
DOCKED: ATOM     26  C   UNL     1     134.398  68.417 222.502 -0.09 -0.00    +0.000 A  
DOCKED: ENDBRANCH  20  21
DOCKED: ENDBRANCH  11  20
DOCKED: TORSDOF 5
DOCKED: TER
DOCKED: ENDMDL
________________________________________________________________________________


    CLUSTERING HISTOGRAM
    ____________________


________________________________________________________________________________
     |           |     |           |     |
Clus | Lowest    | Run | Mean      | Num | Histogram
-ter | Binding   |     | Binding   | in  |
Rank | Energy    |     | Energy    | Clus|    5    10   15   20   25   30   35
_____|___________|_____|___________|_____|____:____|____:____|____:____|____:___
   1 |     -7.36 |   2 |     -7.18 |  17 |#################
   2 |     -7.19 |  13 |     -7.19 |   1 |#
   3 |     -6.31 |   6 |     -6.31 |   2 |##
_____|___________|_____|___________|_____|______________________________________


    RMSD TABLE
    __________


_______________________________________________________________________
     |      |      |           |         |                 |
Rank | Sub- | Run  | Binding   | Cluster | Reference       | Grep
     | Rank |      | Energy    | RMSD    | RMSD            | Pattern
_____|______|______|___________|_________|_________________|___________
   1      1      2       -7.36      0.00    269.20           RANKING
   1      2     19       -7.35      0.11    269.20           RANKING
   1      3      4       -7.35      0.06    269.21           RANKING
   1      4     17       -7.34      0.09    269.17           RANKING
   1      5      9       -7.30      0.16    269.17           RANKING
   1      6     12       -7.20      0.76    269.14           RANKING
   1      7     18       -7.19      0.73    269.13           RANKING
   1      8      8       -7.18      0.75    269.17           RANKING
   1      9      1       -7.17      0.74    269.13           RANKING
   1     10      5       -7.17      0.74    269.13           RANKING
   1     11     14       -7.15      0.78    269.23           RANKING
   1     12     10       -7.14      0.67    269.36           RANKING
   1     13      3       -7.13      0.67    269.40           RANKING
   1     14      7       -7.09      0.58    269.35           RANKING
   1     15     20       -7.03      0.39    269.16           RANKING
   1     16     15       -6.95      1.88    269.35           RANKING
   1     17     11       -6.91      1.91    269.35           RANKING
   2      1     13       -7.19      0.00    269.95           RANKING
   3      1      6       -6.31      0.00    270.28           RANKING
   3      2     16       -6.31      1.71    270.45           RANKING

Run time 0.731 sec
Idle time 0.000 sec
