AutoDock-GPU version: v1.6

**********************************************************
**    AutoDock-GPU AUTODOCKTOOLS-COMPATIBLE DLG FILE    **
**********************************************************


    DOCKING PARAMETERS
    ________________________


Ligand file:                               /home/a/REINVENT4/ReinventStudies/scoringData/graph-dock/graph-DockGPU/node-autodockgpu/inputs/HDANWICVGDYKAH-MSWJVLHMNA-M.pdbqt
Grid fld file:                             /home/a/REINVENT4/ReinventStudies/mols/Rad51/maps/rad51_receptor.maps.fld

Random seed:                               42
Number of runs:                            20
Number of energy evaluations:              1132076
Number of generations:                     42000
Size of population:                        150
Rate of crossover:                         80.000000%
Tournament selection probability limit:    60.000000%
Rate of mutation:                          2.000000%
Maximal allowed delta movement:            +/- 6.000000A
Maximal allowed delta angle:               +/- 90.000000

Rate of local search:                      100.000000%
Maximal number of local search iterations: 300
Rho lower bound:                           0.010000
Spread of local search delta movement:     2.000000A
Spread of local search delta angle:        74.999999
Limit of consecutive successes/failures:   4

Handle symmetry during clustering:         YES
RMSD tolerance:                            2.000000A

Program call in command line was:          /home/a/REINVENT4/ReinventStudies/adgpu-v1.6_linux_x64_cuda12_128wi --filelist batch.txt --heuristics 1 --nrun 20 --psize 150 --lsit 300 --seed 42 --heurmax 12000000 


    GRID PARAMETERS
    ________________________


Receptor name:                             rad51_receptor
Number of grid points (x, y, z):           53, 53, 53
Grid center (x, y, z):                     139.950000, 75.640000, 221.970000A
Grid size (x, y, z):                       19.500000, 19.500000, 19.500000A
Grid spacing:                              0.375000A


    LIGAND PARAMETERS
    ________________________


Ligand name:                               /home/a/REINVENT4/ReinventStudies/scoringData/graph-dock/graph-DockGPU/node-autodockgpu/inputs/HDANWICVGDYKAH-MSWJVLHMNA-M
Number of atoms:                           29
Number of rotatable bonds:                 4
Number of atom types:                      6


    DUMMY DATA (only for ADT-compatibility)
    ________________________


DPF> outlev 1
DPF> ga_run 20
DPF> fld /home/a/REINVENT4/ReinventStudies/mols/Rad51/maps/rad51_receptor.maps.fld
DPF> move /home/a/REINVENT4/ReinventStudies/scoringData/graph-dock/graph-DockGPU/node-autodockgpu/inputs/HDANWICVGDYKAH-MSWJVLHMNA-M.pdbqt


    COUNTER STATES
    ________________________


Number of energy evaluations performed:    950156
Number of generations used:                50


    INPUT LIGAND PDBQT FILE:
    ________________________


INPUT-LIGAND-PDBQT: REMARK SMILES [H]/N=c1\[n-]c2nc3ccccn3c(=O)c2cc1C(=O)N[C@@H](C)c1ccccc1
INPUT-LIGAND-PDBQT: REMARK SMILES IDX 3 1 4 2 5 3 6 4 7 5 8 6 9 7 10 8 11 9 12 10 13 11 14 12
INPUT-LIGAND-PDBQT: REMARK SMILES IDX 15 13 16 14 17 15 2 16 1 17 18 18 20 19 19 20 21 22 22 23
INPUT-LIGAND-PDBQT: REMARK SMILES IDX 23 24 24 25 28 26 25 27 27 28 26 29
INPUT-LIGAND-PDBQT: REMARK H PARENT 20 21
INPUT-LIGAND-PDBQT: ROOT
INPUT-LIGAND-PDBQT: ATOM      1  C   UNL     1       0.531  -0.810  -1.757  1.00  0.00     0.015 A 
INPUT-LIGAND-PDBQT: ATOM      2  N   UNL     1       1.802  -1.197  -1.457  1.00  0.00    -0.357 NA
INPUT-LIGAND-PDBQT: ATOM      3  C   UNL     1       2.506  -0.643  -0.438  1.00  0.00     0.025 A 
INPUT-LIGAND-PDBQT: ATOM      4  N   UNL     1       3.766  -1.066  -0.182  1.00  0.00    -0.345 NA
INPUT-LIGAND-PDBQT: ATOM      5  C   UNL     1       4.499  -0.537   0.831  1.00  0.00     0.069 A 
INPUT-LIGAND-PDBQT: ATOM      6  C   UNL     1       5.796  -1.012   1.050  1.00  0.00     0.030 A 
INPUT-LIGAND-PDBQT: ATOM      7  C   UNL     1       6.558  -0.478   2.086  1.00  0.00     0.004 A 
INPUT-LIGAND-PDBQT: ATOM      8  C   UNL     1       6.023   0.521   2.892  1.00  0.00     0.019 A 
INPUT-LIGAND-PDBQT: ATOM      9  C   UNL     1       4.725   0.979   2.653  1.00  0.00     0.095 A 
INPUT-LIGAND-PDBQT: ATOM     10  N   UNL     1       3.970   0.455   1.632  1.00  0.00    -0.281 N 
INPUT-LIGAND-PDBQT: ATOM     11  C   UNL     1       2.693   0.909   1.400  1.00  0.00     0.263 A 
INPUT-LIGAND-PDBQT: ATOM     12  O   UNL     1       2.195   1.817   2.125  1.00  0.00    -0.268 OA
INPUT-LIGAND-PDBQT: ATOM     13  C   UNL     1       1.932   0.364   0.350  1.00  0.00     0.054 A 
INPUT-LIGAND-PDBQT: ATOM     14  C   UNL     1       0.623   0.783   0.065  1.00  0.00     0.029 A 
INPUT-LIGAND-PDBQT: ATOM     15  C   UNL     1      -0.094   0.204  -0.996  1.00  0.00     0.052 A 
INPUT-LIGAND-PDBQT: ENDROOT
INPUT-LIGAND-PDBQT: BRANCH   1  16
INPUT-LIGAND-PDBQT: ATOM     16  N   UNL     1      -0.082  -1.367  -2.753  1.00  0.00    -0.412 NA
INPUT-LIGAND-PDBQT: ATOM     17  H   UNL     1       0.371  -2.112  -3.329  1.00  0.00     0.076 HD
INPUT-LIGAND-PDBQT: ENDBRANCH   1  16
INPUT-LIGAND-PDBQT: BRANCH  15  18
INPUT-LIGAND-PDBQT: ATOM     18  C   UNL     1      -1.484   0.648  -1.274  1.00  0.00     0.252 C 
INPUT-LIGAND-PDBQT: ATOM     19  N   UNL     1      -1.868   2.020  -1.067  1.00  0.00    -0.345 N 
INPUT-LIGAND-PDBQT: ATOM     20  O   UNL     1      -2.331  -0.189  -1.689  1.00  0.00    -0.269 OA
INPUT-LIGAND-PDBQT: ATOM     21  H   UNL     1      -1.122   2.724  -0.866  1.00  0.00     0.164 HD
INPUT-LIGAND-PDBQT: BRANCH  19  22
INPUT-LIGAND-PDBQT: ATOM     22  C   UNL     1      -3.252   2.505  -1.110  1.00  0.00     0.109 C 
INPUT-LIGAND-PDBQT: ATOM     23  C   UNL     1      -3.794   2.490  -2.546  1.00  0.00     0.036 C 
INPUT-LIGAND-PDBQT: BRANCH  22  24
INPUT-LIGAND-PDBQT: ATOM     24  C   UNL     1      -4.110   1.771  -0.091  1.00  0.00    -0.026 A 
INPUT-LIGAND-PDBQT: ATOM     25  C   UNL     1      -3.967   2.101   1.269  1.00  0.00     0.006 A 
INPUT-LIGAND-PDBQT: ATOM     26  C   UNL     1      -4.997   0.732  -0.446  1.00  0.00     0.006 A 
INPUT-LIGAND-PDBQT: ATOM     27  C   UNL     1      -4.707   1.430   2.247  1.00  0.00     0.000 A 
INPUT-LIGAND-PDBQT: ATOM     28  C   UNL     1      -5.734   0.064   0.536  1.00  0.00     0.000 A 
INPUT-LIGAND-PDBQT: ATOM     29  C   UNL     1      -5.592   0.414   1.880  1.00  0.00     0.000 A 
INPUT-LIGAND-PDBQT: ENDBRANCH  22  24
INPUT-LIGAND-PDBQT: ENDBRANCH  19  22
INPUT-LIGAND-PDBQT: ENDBRANCH  15  18
INPUT-LIGAND-PDBQT: TORSDOF 4


    FINAL DOCKED STATE:
    ________________________


Run:   1 / 20
Time taken for this run:   0.034s

DOCKED: MODEL        1
DOCKED: USER    Run = 1
DOCKED: USER
DOCKED: USER    Estimated Free Energy of Binding    =  -7.19 kcal/mol  [=(1)+(2)+(3)-(4)]
DOCKED: USER
DOCKED: USER    (1) Final Intermolecular Energy     =  -8.39 kcal/mol
DOCKED: USER        vdW + Hbond + desolv Energy     =  -8.42 kcal/mol
DOCKED: USER        Electrostatic Energy            =  +0.03 kcal/mol
DOCKED: USER        Moving Ligand-Fixed Receptor    =  -8.39 kcal/mol
DOCKED: USER        Moving Ligand-Moving Receptor   =  +0.00 kcal/mol
DOCKED: USER    (2) Final Total Internal Energy     =  -0.84 kcal/mol
DOCKED: USER    (3) Torsional Free Energy           =  +1.19 kcal/mol
DOCKED: USER    (4) Unbound System's Energy         =  -0.84 kcal/mol
DOCKED: USER
DOCKED: USER
DOCKED: REMARK SMILES [H]/N=c1\[n-]c2nc3ccccn3c(=O)c2cc1C(=O)N[C@@H](C)c1ccccc1
DOCKED: REMARK SMILES IDX 3 1 4 2 5 3 6 4 7 5 8 6 9 7 10 8 11 9 12 10 13 11 14 12
DOCKED: REMARK SMILES IDX 15 13 16 14 17 15 2 16 1 17 18 18 20 19 19 20 21 22 22 23
DOCKED: REMARK SMILES IDX 23 24 24 25 28 26 25 27 27 28 26 29
DOCKED: REMARK H PARENT 20 21
DOCKED: USER                              x       y       z     vdW  Elec       q    Type
DOCKED: USER                           _______ _______ _______ _____ _____    ______ ____
DOCKED: ROOT
DOCKED: ATOM      1  C   UNL     1     133.468  70.249 226.174 -0.29 -0.00    +0.015 A  
DOCKED: ATOM      2  N   UNL     1     132.638  71.196 226.694 -0.13 +0.04    -0.357 NA 
DOCKED: ATOM      3  C   UNL     1     132.886  72.524 226.569 -0.36 -0.00    +0.025 A  
DOCKED: ATOM      4  N   UNL     1     132.026  73.423 227.104 -0.23 +0.04    -0.345 NA 
DOCKED: ATOM      5  C   UNL     1     132.240  74.759 226.996 -0.34 -0.00    +0.069 A  
DOCKED: ATOM      6  C   UNL     1     131.319  75.642 227.568 -0.29 -0.00    +0.030 A  
DOCKED: ATOM      7  C   UNL     1     131.527  77.015 227.463 -0.28 +0.00    +0.004 A  
DOCKED: ATOM      8  C   UNL     1     132.647  77.494 226.792 -0.26 -0.00    +0.019 A  
DOCKED: ATOM      9  C   UNL     1     133.553  76.592 226.230 -0.28 -0.01    +0.095 A  
DOCKED: ATOM     10  N   UNL     1     133.352  75.237 226.330 -0.20 -0.00    -0.281 N  
DOCKED: ATOM     11  C   UNL     1     134.246  74.352 225.775 -0.23 +0.01    +0.263 A  
DOCKED: ATOM     12  O   UNL     1     135.268  74.775 225.163 -0.31 +0.03    -0.268 OA 
DOCKED: ATOM     13  C   UNL     1     134.027  72.967 225.887 -0.29 +0.00    +0.054 A  
DOCKED: ATOM     14  C   UNL     1     134.901  72.015 225.340 -0.04 -0.00    +0.029 A  
DOCKED: ATOM     15  C   UNL     1     134.635  70.642 225.480 -0.22 -0.00    +0.052 A  
DOCKED: ENDROOT
DOCKED: BRANCH   1  16
DOCKED: ATOM     16  N   UNL     1     133.183  68.997 226.342 -0.55 -0.03    -0.412 NA 
DOCKED: ATOM     17  H   UNL     1     133.416  68.280 225.618 +0.02 -0.01    +0.076 HD 
DOCKED: ENDBRANCH   1  16
DOCKED: BRANCH  15  18
DOCKED: ATOM     18  C   UNL     1     135.562  69.647 224.881 -0.15 -0.02    +0.252 C  
DOCKED: ATOM     19  N   UNL     1     136.977  69.909 224.823 -0.08 +0.03    -0.345 N  
DOCKED: ATOM     20  O   UNL     1     135.100  68.570 224.417 -0.62 -0.01    -0.269 OA 
DOCKED: ATOM     21  H   UNL     1     137.355  70.735 225.341 +0.13 -0.01    +0.164 HD 
DOCKED: BRANCH  19  22
DOCKED: ATOM     22  C   UNL     1     137.937  69.094 224.070 -0.25 -0.01    +0.109 C  
DOCKED: ATOM     23  C   UNL     1     138.175  69.680 222.672 -0.18 -0.01    +0.036 C  
DOCKED: BRANCH  22  24
DOCKED: ATOM     24  C   UNL     1     139.195  68.853 224.890 -0.39 +0.00    -0.026 A  
DOCKED: ATOM     25  C   UNL     1     139.295  67.662 225.631 -0.47 -0.00    +0.006 A  
DOCKED: ATOM     26  C   UNL     1     140.237  69.801 224.986 -0.40 -0.00    +0.006 A  
DOCKED: ATOM     27  C   UNL     1     140.416  67.410 226.428 -0.68 -0.00    +0.000 A  
DOCKED: ATOM     28  C   UNL     1     141.355  69.544 225.785 -0.47 -0.00    +0.000 A  
DOCKED: ATOM     29  C   UNL     1     141.446  68.350 226.502 -0.56 -0.00    +0.000 A  
DOCKED: ENDBRANCH  22  24
DOCKED: ENDBRANCH  19  22
DOCKED: ENDBRANCH  15  18
DOCKED: TORSDOF 4
DOCKED: TER
DOCKED: ENDMDL
________________________________________________________________________________


    FINAL DOCKED STATE:
    ________________________


Run:   2 / 20
Time taken for this run:   0.034s

DOCKED: MODEL        2
DOCKED: USER    Run = 2
DOCKED: USER
DOCKED: USER    Estimated Free Energy of Binding    =  -7.60 kcal/mol  [=(1)+(2)+(3)-(4)]
DOCKED: USER
DOCKED: USER    (1) Final Intermolecular Energy     =  -8.79 kcal/mol
DOCKED: USER        vdW + Hbond + desolv Energy     =  -8.92 kcal/mol
DOCKED: USER        Electrostatic Energy            =  +0.13 kcal/mol
DOCKED: USER        Moving Ligand-Fixed Receptor    =  -8.79 kcal/mol
DOCKED: USER        Moving Ligand-Moving Receptor   =  +0.00 kcal/mol
DOCKED: USER    (2) Final Total Internal Energy     =  -0.88 kcal/mol
DOCKED: USER    (3) Torsional Free Energy           =  +1.19 kcal/mol
DOCKED: USER    (4) Unbound System's Energy         =  -0.88 kcal/mol
DOCKED: USER
DOCKED: USER
DOCKED: REMARK SMILES [H]/N=c1\[n-]c2nc3ccccn3c(=O)c2cc1C(=O)N[C@@H](C)c1ccccc1
DOCKED: REMARK SMILES IDX 3 1 4 2 5 3 6 4 7 5 8 6 9 7 10 8 11 9 12 10 13 11 14 12
DOCKED: REMARK SMILES IDX 15 13 16 14 17 15 2 16 1 17 18 18 20 19 19 20 21 22 22 23
DOCKED: REMARK SMILES IDX 23 24 24 25 28 26 25 27 27 28 26 29
DOCKED: REMARK H PARENT 20 21
DOCKED: USER                              x       y       z     vdW  Elec       q    Type
DOCKED: USER                           _______ _______ _______ _____ _____    ______ ____
DOCKED: ROOT
DOCKED: ATOM      1  C   UNL     1     143.738  75.027 219.793 -0.40 -0.01    +0.015 A  
DOCKED: ATOM      2  N   UNL     1     144.726  74.134 219.510 -0.12 +0.11    -0.357 NA 
DOCKED: ATOM      3  C   UNL     1     144.530  72.793 219.572 -0.32 -0.00    +0.025 A  
DOCKED: ATOM      4  N   UNL     1     145.547  71.950 219.279 -0.43 -0.18    -0.345 NA 
DOCKED: ATOM      5  C   UNL     1     145.387  70.603 219.327 -0.26 +0.03    +0.069 A  
DOCKED: ATOM      6  C   UNL     1     146.473  69.778 219.015 -0.29 +0.02    +0.030 A  
DOCKED: ATOM      7  C   UNL     1     146.321  68.395 219.060 -0.41 +0.00    +0.004 A  
DOCKED: ATOM      8  C   UNL     1     145.093  67.846 219.415 -0.45 -0.00    +0.019 A  
DOCKED: ATOM      9  C   UNL     1     144.023  68.691 219.722 -0.26 +0.00    +0.095 A  
DOCKED: ATOM     10  N   UNL     1     144.169  70.056 219.679 -0.12 -0.02    -0.281 N  
DOCKED: ATOM     11  C   UNL     1     143.114  70.884 219.983 -0.11 -0.02    +0.263 A  
DOCKED: ATOM     12  O   UNL     1     141.992  70.398 220.307 -0.05 +0.03    -0.268 OA 
DOCKED: ATOM     13  C   UNL     1     143.278  72.280 219.936 -0.22 -0.01    +0.054 A  
DOCKED: ATOM     14  C   UNL     1     142.239  73.176 220.232 -0.21 -0.01    +0.029 A  
DOCKED: ATOM     15  C   UNL     1     142.456  74.563 220.168 -0.26 -0.02    +0.052 A  
DOCKED: ENDROOT
DOCKED: BRANCH   1  16
DOCKED: ATOM     16  N   UNL     1     143.993  76.296 219.731 -0.11 +0.31    -0.412 NA 
DOCKED: ATOM     17  H   UNL     1     144.478  76.797 220.510 -0.51 -0.08    +0.076 HD 
DOCKED: ENDBRANCH   1  16
DOCKED: BRANCH  15  18
DOCKED: ATOM     18  C   UNL     1     141.342  75.498 220.470 -0.17 -0.09    +0.252 C  
DOCKED: ATOM     19  N   UNL     1     141.602  76.768 221.095 -0.06 +0.19    -0.345 N  
DOCKED: ATOM     20  O   UNL     1     140.160  75.168 220.178 -0.07 +0.07    -0.269 OA 
DOCKED: ATOM     21  H   UNL     1     142.593  77.084 221.194 -0.45 -0.17    +0.164 HD 
DOCKED: BRANCH  19  22
DOCKED: ATOM     22  C   UNL     1     140.560  77.658 221.619 -0.29 -0.04    +0.109 C  
DOCKED: ATOM     23  C   UNL     1     139.491  76.863 222.381 -0.32 -0.01    +0.036 C  
DOCKED: BRANCH  22  24
DOCKED: ATOM     24  C   UNL     1     141.179  78.810 222.396 -0.43 +0.01    -0.026 A  
DOCKED: ATOM     25  C   UNL     1     140.326  79.686 223.092 -0.43 -0.00    +0.006 A  
DOCKED: ATOM     26  C   UNL     1     142.566  79.074 222.396 -0.43 -0.00    +0.006 A  
DOCKED: ATOM     27  C   UNL     1     140.844  80.780 223.791 -0.45 -0.00    +0.000 A  
DOCKED: ATOM     28  C   UNL     1     143.079  80.170 223.096 -0.66 -0.00    +0.000 A  
DOCKED: ATOM     29  C   UNL     1     142.220  81.020 223.795 -0.65 -0.00    +0.000 A  
DOCKED: ENDBRANCH  22  24
DOCKED: ENDBRANCH  19  22
DOCKED: ENDBRANCH  15  18
DOCKED: TORSDOF 4
DOCKED: TER
DOCKED: ENDMDL
________________________________________________________________________________


    FINAL DOCKED STATE:
    ________________________


Run:   3 / 20
Time taken for this run:   0.034s

DOCKED: MODEL        3
DOCKED: USER    Run = 3
DOCKED: USER
DOCKED: USER    Estimated Free Energy of Binding    =  -7.54 kcal/mol  [=(1)+(2)+(3)-(4)]
DOCKED: USER
DOCKED: USER    (1) Final Intermolecular Energy     =  -8.74 kcal/mol
DOCKED: USER        vdW + Hbond + desolv Energy     =  -8.86 kcal/mol
DOCKED: USER        Electrostatic Energy            =  +0.12 kcal/mol
DOCKED: USER        Moving Ligand-Fixed Receptor    =  -8.74 kcal/mol
DOCKED: USER        Moving Ligand-Moving Receptor   =  +0.00 kcal/mol
DOCKED: USER    (2) Final Total Internal Energy     =  -0.90 kcal/mol
DOCKED: USER    (3) Torsional Free Energy           =  +1.19 kcal/mol
DOCKED: USER    (4) Unbound System's Energy         =  -0.90 kcal/mol
DOCKED: USER
DOCKED: USER
DOCKED: REMARK SMILES [H]/N=c1\[n-]c2nc3ccccn3c(=O)c2cc1C(=O)N[C@@H](C)c1ccccc1
DOCKED: REMARK SMILES IDX 3 1 4 2 5 3 6 4 7 5 8 6 9 7 10 8 11 9 12 10 13 11 14 12
DOCKED: REMARK SMILES IDX 15 13 16 14 17 15 2 16 1 17 18 18 20 19 19 20 21 22 22 23
DOCKED: REMARK SMILES IDX 23 24 24 25 28 26 25 27 27 28 26 29
DOCKED: REMARK H PARENT 20 21
DOCKED: USER                              x       y       z     vdW  Elec       q    Type
DOCKED: USER                           _______ _______ _______ _____ _____    ______ ____
DOCKED: ROOT
DOCKED: ATOM      1  C   UNL     1     143.781  74.996 219.768 -0.40 -0.01    +0.015 A  
DOCKED: ATOM      2  N   UNL     1     144.769  74.095 219.509 -0.12 +0.11    -0.357 NA 
DOCKED: ATOM      3  C   UNL     1     144.560  72.756 219.565 -0.32 -0.00    +0.025 A  
DOCKED: ATOM      4  N   UNL     1     145.578  71.904 219.297 -0.43 -0.19    -0.345 NA 
DOCKED: ATOM      5  C   UNL     1     145.404  70.558 219.340 -0.25 +0.03    +0.069 A  
DOCKED: ATOM      6  C   UNL     1     146.491  69.725 219.055 -0.30 +0.02    +0.030 A  
DOCKED: ATOM      7  C   UNL     1     146.326  68.342 219.095 -0.41 +0.00    +0.004 A  
DOCKED: ATOM      8  C   UNL     1     145.085  67.804 219.418 -0.45 -0.00    +0.019 A  
DOCKED: ATOM      9  C   UNL     1     144.015  68.658 219.699 -0.26 +0.00    +0.095 A  
DOCKED: ATOM     10  N   UNL     1     144.174  70.022 219.661 -0.12 -0.02    -0.281 N  
DOCKED: ATOM     11  C   UNL     1     143.118  70.858 219.939 -0.11 -0.02    +0.263 A  
DOCKED: ATOM     12  O   UNL     1     141.985  70.382 220.234 -0.06 +0.03    -0.268 OA 
DOCKED: ATOM     13  C   UNL     1     143.295  72.253 219.897 -0.21 -0.01    +0.054 A  
DOCKED: ATOM     14  C   UNL     1     142.257  73.158 220.167 -0.20 -0.01    +0.029 A  
DOCKED: ATOM     15  C   UNL     1     142.487  74.543 220.111 -0.26 -0.02    +0.052 A  
DOCKED: ENDROOT
DOCKED: BRANCH   1  16
DOCKED: ATOM     16  N   UNL     1     144.049  76.262 219.713 -0.10 +0.31    -0.412 NA 
DOCKED: ATOM     17  H   UNL     1     144.434  76.778 220.537 -0.50 -0.08    +0.076 HD 
DOCKED: ENDBRANCH   1  16
DOCKED: BRANCH  15  18
DOCKED: ATOM     18  C   UNL     1     141.373  75.486 220.384 -0.16 -0.09    +0.252 C  
DOCKED: ATOM     19  N   UNL     1     141.632  76.765 220.994 -0.07 +0.19    -0.345 N  
DOCKED: ATOM     20  O   UNL     1     140.194  75.157 220.083 -0.06 +0.07    -0.269 OA 
DOCKED: ATOM     21  H   UNL     1     142.623  77.078 221.100 -0.45 -0.17    +0.164 HD 
DOCKED: BRANCH  19  22
DOCKED: ATOM     22  C   UNL     1     140.588  77.667 221.492 -0.27 -0.04    +0.109 C  
DOCKED: ATOM     23  C   UNL     1     139.563  76.904 222.343 -0.34 -0.01    +0.036 C  
DOCKED: BRANCH  22  24
DOCKED: ATOM     24  C   UNL     1     141.206  78.883 222.166 -0.41 +0.01    -0.026 A  
DOCKED: ATOM     25  C   UNL     1     141.689  78.748 223.481 -0.60 -0.00    +0.006 A  
DOCKED: ATOM     26  C   UNL     1     141.259  80.152 221.552 -0.36 -0.00    +0.006 A  
DOCKED: ATOM     27  C   UNL     1     142.233  79.844 224.156 -0.51 -0.00    +0.000 A  
DOCKED: ATOM     28  C   UNL     1     141.804  81.245 222.232 -0.49 -0.00    +0.000 A  
DOCKED: ATOM     29  C   UNL     1     142.293  81.092 223.531 -0.63 -0.00    +0.000 A  
DOCKED: ENDBRANCH  22  24
DOCKED: ENDBRANCH  19  22
DOCKED: ENDBRANCH  15  18
DOCKED: TORSDOF 4
DOCKED: TER
DOCKED: ENDMDL
________________________________________________________________________________


    FINAL DOCKED STATE:
    ________________________


Run:   4 / 20
Time taken for this run:   0.034s

DOCKED: MODEL        4
DOCKED: USER    Run = 4
DOCKED: USER
DOCKED: USER    Estimated Free Energy of Binding    =  -7.50 kcal/mol  [=(1)+(2)+(3)-(4)]
DOCKED: USER
DOCKED: USER    (1) Final Intermolecular Energy     =  -8.70 kcal/mol
DOCKED: USER        vdW + Hbond + desolv Energy     =  -8.76 kcal/mol
DOCKED: USER        Electrostatic Energy            =  +0.06 kcal/mol
DOCKED: USER        Moving Ligand-Fixed Receptor    =  -8.70 kcal/mol
DOCKED: USER        Moving Ligand-Moving Receptor   =  +0.00 kcal/mol
DOCKED: USER    (2) Final Total Internal Energy     =  -0.89 kcal/mol
DOCKED: USER    (3) Torsional Free Energy           =  +1.19 kcal/mol
DOCKED: USER    (4) Unbound System's Energy         =  -0.89 kcal/mol
DOCKED: USER
DOCKED: USER
DOCKED: REMARK SMILES [H]/N=c1\[n-]c2nc3ccccn3c(=O)c2cc1C(=O)N[C@@H](C)c1ccccc1
DOCKED: REMARK SMILES IDX 3 1 4 2 5 3 6 4 7 5 8 6 9 7 10 8 11 9 12 10 13 11 14 12
DOCKED: REMARK SMILES IDX 15 13 16 14 17 15 2 16 1 17 18 18 20 19 19 20 21 22 22 23
DOCKED: REMARK SMILES IDX 23 24 24 25 28 26 25 27 27 28 26 29
DOCKED: REMARK H PARENT 20 21
DOCKED: USER                              x       y       z     vdW  Elec       q    Type
DOCKED: USER                           _______ _______ _______ _____ _____    ______ ____
DOCKED: ROOT
DOCKED: ATOM      1  C   UNL     1     142.300  74.328 220.797 -0.28 -0.00    +0.015 A  
DOCKED: ATOM      2  N   UNL     1     142.468  72.990 220.988 -0.08 +0.05    -0.357 NA 
DOCKED: ATOM      3  C   UNL     1     143.342  72.258 220.253 -0.27 -0.00    +0.025 A  
DOCKED: ATOM      4  N   UNL     1     143.470  70.931 220.486 -0.06 +0.03    -0.345 NA 
DOCKED: ATOM      5  C   UNL     1     144.337  70.167 219.772 -0.19 +0.01    +0.069 A  
DOCKED: ATOM      6  C   UNL     1     144.428  68.800 220.055 -0.25 +0.01    +0.030 A  
DOCKED: ATOM      7  C   UNL     1     145.313  68.006 219.331 -0.47 +0.00    +0.004 A  
DOCKED: ATOM      8  C   UNL     1     146.097  68.578 218.334 -0.33 +0.00    +0.019 A  
DOCKED: ATOM      9  C   UNL     1     145.987  69.946 218.070 -0.22 +0.06    +0.095 A  
DOCKED: ATOM     10  N   UNL     1     145.115  70.733 218.783 -0.12 -0.10    -0.281 N  
DOCKED: ATOM     11  C   UNL     1     145.010  72.078 218.519 -0.12 +0.09    +0.263 A  
DOCKED: ATOM     12  O   UNL     1     145.716  72.611 217.616 -0.53 -0.19    -0.268 OA 
DOCKED: ATOM     13  C   UNL     1     144.111  72.872 219.256 -0.23 -0.00    +0.054 A  
DOCKED: ATOM     14  C   UNL     1     143.961  74.250 219.036 -0.26 -0.01    +0.029 A  
DOCKED: ATOM     15  C   UNL     1     143.049  74.996 219.802 -0.32 -0.02    +0.052 A  
DOCKED: ENDROOT
DOCKED: BRANCH   1  16
DOCKED: ATOM     16  N   UNL     1     141.437  74.968 221.521 -0.21 +0.10    -0.412 NA 
DOCKED: ATOM     17  H   UNL     1     141.735  75.643 222.261 -0.44 -0.03    +0.076 HD 
DOCKED: ENDBRANCH   1  16
DOCKED: BRANCH  15  18
DOCKED: ATOM     18  C   UNL     1     142.913  76.457 219.567 -0.25 -0.16    +0.252 C  
DOCKED: ATOM     19  N   UNL     1     142.195  77.283 220.502 -0.11 +0.24    -0.345 N  
DOCKED: ATOM     20  O   UNL     1     143.429  76.970 218.537 -0.25 +0.19    -0.269 OA 
DOCKED: ATOM     21  H   UNL     1     141.904  76.869 221.416 -0.40 -0.12    +0.164 HD 
DOCKED: BRANCH  19  22
DOCKED: ATOM     22  C   UNL     1     141.829  78.682 220.254 -0.23 -0.07    +0.109 C  
DOCKED: ATOM     23  C   UNL     1     140.523  78.774 219.453 -0.14 -0.01    +0.036 C  
DOCKED: BRANCH  22  24
DOCKED: ATOM     24  C   UNL     1     141.846  79.479 221.550 -0.41 +0.01    -0.026 A  
DOCKED: ATOM     25  C   UNL     1     141.697  80.876 221.481 -0.41 -0.00    +0.006 A  
DOCKED: ATOM     26  C   UNL     1     142.066  78.883 222.810 -0.50 -0.00    +0.006 A  
DOCKED: ATOM     27  C   UNL     1     141.742  81.656 222.640 -0.48 -0.00    +0.000 A  
DOCKED: ATOM     28  C   UNL     1     142.110  79.668 223.966 -0.58 -0.00    +0.000 A  
DOCKED: ATOM     29  C   UNL     1     141.945  81.051 223.882 -0.60 -0.00    +0.000 A  
DOCKED: ENDBRANCH  22  24
DOCKED: ENDBRANCH  19  22
DOCKED: ENDBRANCH  15  18
DOCKED: TORSDOF 4
DOCKED: TER
DOCKED: ENDMDL
________________________________________________________________________________


    FINAL DOCKED STATE:
    ________________________


Run:   5 / 20
Time taken for this run:   0.034s

DOCKED: MODEL        5
DOCKED: USER    Run = 5
DOCKED: USER
DOCKED: USER    Estimated Free Energy of Binding    =  -7.55 kcal/mol  [=(1)+(2)+(3)-(4)]
DOCKED: USER
DOCKED: USER    (1) Final Intermolecular Energy     =  -8.74 kcal/mol
DOCKED: USER        vdW + Hbond + desolv Energy     =  -8.86 kcal/mol
DOCKED: USER        Electrostatic Energy            =  +0.12 kcal/mol
DOCKED: USER        Moving Ligand-Fixed Receptor    =  -8.74 kcal/mol
DOCKED: USER        Moving Ligand-Moving Receptor   =  +0.00 kcal/mol
DOCKED: USER    (2) Final Total Internal Energy     =  -0.90 kcal/mol
DOCKED: USER    (3) Torsional Free Energy           =  +1.19 kcal/mol
DOCKED: USER    (4) Unbound System's Energy         =  -0.90 kcal/mol
DOCKED: USER
DOCKED: USER
DOCKED: REMARK SMILES [H]/N=c1\[n-]c2nc3ccccn3c(=O)c2cc1C(=O)N[C@@H](C)c1ccccc1
DOCKED: REMARK SMILES IDX 3 1 4 2 5 3 6 4 7 5 8 6 9 7 10 8 11 9 12 10 13 11 14 12
DOCKED: REMARK SMILES IDX 15 13 16 14 17 15 2 16 1 17 18 18 20 19 19 20 21 22 22 23
DOCKED: REMARK SMILES IDX 23 24 24 25 28 26 25 27 27 28 26 29
DOCKED: REMARK H PARENT 20 21
DOCKED: USER                              x       y       z     vdW  Elec       q    Type
DOCKED: USER                           _______ _______ _______ _____ _____    ______ ____
DOCKED: ROOT
DOCKED: ATOM      1  C   UNL     1     143.800  74.987 219.768 -0.40 -0.01    +0.015 A  
DOCKED: ATOM      2  N   UNL     1     144.785  74.082 219.511 -0.12 +0.10    -0.357 NA 
DOCKED: ATOM      3  C   UNL     1     144.571  72.743 219.566 -0.32 -0.00    +0.025 A  
DOCKED: ATOM      4  N   UNL     1     145.585  71.888 219.300 -0.43 -0.19    -0.345 NA 
DOCKED: ATOM      5  C   UNL     1     145.407  70.542 219.342 -0.25 +0.03    +0.069 A  
DOCKED: ATOM      6  C   UNL     1     146.491  69.705 219.059 -0.30 +0.02    +0.030 A  
DOCKED: ATOM      7  C   UNL     1     146.321  68.324 219.098 -0.42 +0.00    +0.004 A  
DOCKED: ATOM      8  C   UNL     1     145.077  67.790 219.418 -0.45 -0.00    +0.019 A  
DOCKED: ATOM      9  C   UNL     1     144.010  68.647 219.698 -0.26 +0.00    +0.095 A  
DOCKED: ATOM     10  N   UNL     1     144.173  70.011 219.660 -0.12 -0.02    -0.281 N  
DOCKED: ATOM     11  C   UNL     1     143.121  70.851 219.936 -0.10 -0.02    +0.263 A  
DOCKED: ATOM     12  O   UNL     1     141.985  70.379 220.229 -0.06 +0.03    -0.268 OA 
DOCKED: ATOM     13  C   UNL     1     143.303  72.245 219.895 -0.21 -0.01    +0.054 A  
DOCKED: ATOM     14  C   UNL     1     142.267  73.154 220.164 -0.20 -0.01    +0.029 A  
DOCKED: ATOM     15  C   UNL     1     142.503  74.538 220.108 -0.26 -0.02    +0.052 A  
DOCKED: ENDROOT
DOCKED: BRANCH   1  16
DOCKED: ATOM     16  N   UNL     1     144.073  76.252 219.715 -0.10 +0.31    -0.412 NA 
DOCKED: ATOM     17  H   UNL     1     144.466  76.764 220.536 -0.50 -0.08    +0.076 HD 
DOCKED: ENDBRANCH   1  16
DOCKED: BRANCH  15  18
DOCKED: ATOM     18  C   UNL     1     141.393  75.486 220.380 -0.16 -0.09    +0.252 C  
DOCKED: ATOM     19  N   UNL     1     141.653  76.759 221.000 -0.06 +0.19    -0.345 N  
DOCKED: ATOM     20  O   UNL     1     140.213  75.165 220.069 -0.06 +0.07    -0.269 OA 
DOCKED: ATOM     21  H   UNL     1     142.646  77.066 221.114 -0.44 -0.17    +0.164 HD 
DOCKED: BRANCH  19  22
DOCKED: ATOM     22  C   UNL     1     140.611  77.664 221.496 -0.28 -0.04    +0.109 C  
DOCKED: ATOM     23  C   UNL     1     139.579  76.902 222.339 -0.34 -0.01    +0.036 C  
DOCKED: BRANCH  22  24
DOCKED: ATOM     24  C   UNL     1     141.231  78.874 222.178 -0.41 +0.01    -0.026 A  
DOCKED: ATOM     25  C   UNL     1     141.693  78.736 223.500 -0.60 -0.00    +0.006 A  
DOCKED: ATOM     26  C   UNL     1     141.306  80.143 221.563 -0.37 -0.00    +0.006 A  
DOCKED: ATOM     27  C   UNL     1     142.238  79.828 224.182 -0.50 -0.00    +0.000 A  
DOCKED: ATOM     28  C   UNL     1     141.851  81.231 222.250 -0.50 -0.00    +0.000 A  
DOCKED: ATOM     29  C   UNL     1     142.319  81.074 223.556 -0.63 -0.00    +0.000 A  
DOCKED: ENDBRANCH  22  24
DOCKED: ENDBRANCH  19  22
DOCKED: ENDBRANCH  15  18
DOCKED: TORSDOF 4
DOCKED: TER
DOCKED: ENDMDL
________________________________________________________________________________


    FINAL DOCKED STATE:
    ________________________


Run:   6 / 20
Time taken for this run:   0.034s

DOCKED: MODEL        6
DOCKED: USER    Run = 6
DOCKED: USER
DOCKED: USER    Estimated Free Energy of Binding    =  -7.18 kcal/mol  [=(1)+(2)+(3)-(4)]
DOCKED: USER
DOCKED: USER    (1) Final Intermolecular Energy     =  -8.37 kcal/mol
DOCKED: USER        vdW + Hbond + desolv Energy     =  -8.34 kcal/mol
DOCKED: USER        Electrostatic Energy            =  -0.03 kcal/mol
DOCKED: USER        Moving Ligand-Fixed Receptor    =  -8.37 kcal/mol
DOCKED: USER        Moving Ligand-Moving Receptor   =  +0.00 kcal/mol
DOCKED: USER    (2) Final Total Internal Energy     =  -0.94 kcal/mol
DOCKED: USER    (3) Torsional Free Energy           =  +1.19 kcal/mol
DOCKED: USER    (4) Unbound System's Energy         =  -0.94 kcal/mol
DOCKED: USER
DOCKED: USER
DOCKED: REMARK SMILES [H]/N=c1\[n-]c2nc3ccccn3c(=O)c2cc1C(=O)N[C@@H](C)c1ccccc1
DOCKED: REMARK SMILES IDX 3 1 4 2 5 3 6 4 7 5 8 6 9 7 10 8 11 9 12 10 13 11 14 12
DOCKED: REMARK SMILES IDX 15 13 16 14 17 15 2 16 1 17 18 18 20 19 19 20 21 22 22 23
DOCKED: REMARK SMILES IDX 23 24 24 25 28 26 25 27 27 28 26 29
DOCKED: REMARK H PARENT 20 21
DOCKED: USER                              x       y       z     vdW  Elec       q    Type
DOCKED: USER                           _______ _______ _______ _____ _____    ______ ____
DOCKED: ROOT
DOCKED: ATOM      1  C   UNL     1     141.870  73.726 220.883 -0.27 -0.00    +0.015 A  
DOCKED: ATOM      2  N   UNL     1     142.051  72.376 220.932 -0.08 +0.04    -0.357 NA 
DOCKED: ATOM      3  C   UNL     1     143.085  71.761 220.305 -0.24 -0.00    +0.025 A  
DOCKED: ATOM      4  N   UNL     1     143.219  70.417 220.387 +0.08 +0.02    -0.345 NA 
DOCKED: ATOM      5  C   UNL     1     144.243  69.768 219.775 -0.21 +0.01    +0.069 A  
DOCKED: ATOM      6  C   UNL     1     144.332  68.377 219.894 -0.32 +0.00    +0.030 A  
DOCKED: ATOM      7  C   UNL     1     145.377  67.700 219.271 -0.49 -0.00    +0.004 A  
DOCKED: ATOM      8  C   UNL     1     146.321  68.411 218.539 -0.33 +0.00    +0.019 A  
DOCKED: ATOM      9  C   UNL     1     146.211  69.800 218.435 -0.25 +0.07    +0.095 A  
DOCKED: ATOM     10  N   UNL     1     145.181  70.472 219.047 -0.14 -0.10    -0.281 N  
DOCKED: ATOM     11  C   UNL     1     145.075  71.839 218.942 -0.15 +0.09    +0.263 A  
DOCKED: ATOM     12  O   UNL     1     145.927  72.498 218.279 -0.69 -0.29    -0.268 OA 
DOCKED: ATOM     13  C   UNL     1     144.015  72.514 219.574 -0.24 -0.00    +0.054 A  
DOCKED: ATOM     14  C   UNL     1     143.854  73.907 219.506 -0.30 -0.01    +0.029 A  
DOCKED: ATOM     15  C   UNL     1     142.777  74.531 220.156 -0.29 -0.02    +0.052 A  
DOCKED: ENDROOT
DOCKED: BRANCH   1  16
DOCKED: ATOM     16  N   UNL     1     140.853  74.250 221.490 -0.36 +0.05    -0.412 NA 
DOCKED: ATOM     17  H   UNL     1     139.873  74.055 221.187 +0.02 -0.01    +0.076 HD 
DOCKED: ENDBRANCH   1  16
DOCKED: BRANCH  15  18
DOCKED: ATOM     18  C   UNL     1     142.631  76.008 220.087 -0.18 -0.15    +0.252 C  
DOCKED: ATOM     19  N   UNL     1     141.553  76.668 220.776 -0.12 +0.18    -0.345 N  
DOCKED: ATOM     20  O   UNL     1     143.457  76.682 219.414 -0.32 +0.20    -0.269 OA 
DOCKED: ATOM     21  H   UNL     1     140.970  76.114 221.444 +0.02 -0.06    +0.164 HD 
DOCKED: BRANCH  19  22
DOCKED: ATOM     22  C   UNL     1     141.204  78.082 220.599 -0.24 -0.05    +0.109 C  
DOCKED: ATOM     23  C   UNL     1     139.721  78.240 220.234 -0.12 -0.01    +0.036 C  
DOCKED: BRANCH  22  24
DOCKED: ATOM     24  C   UNL     1     141.663  78.903 221.794 -0.41 +0.01    -0.026 A  
DOCKED: ATOM     25  C   UNL     1     141.469  78.376 223.084 -0.54 -0.00    +0.006 A  
DOCKED: ATOM     26  C   UNL     1     142.217  80.195 221.667 -0.46 -0.00    +0.006 A  
DOCKED: ATOM     27  C   UNL     1     141.841  79.106 224.216 -0.56 -0.00    +0.000 A  
DOCKED: ATOM     28  C   UNL     1     142.587  80.921 222.803 -0.56 -0.00    +0.000 A  
DOCKED: ATOM     29  C   UNL     1     142.402  80.377 224.075 -0.58 -0.00    +0.000 A  
DOCKED: ENDBRANCH  22  24
DOCKED: ENDBRANCH  19  22
DOCKED: ENDBRANCH  15  18
DOCKED: TORSDOF 4
DOCKED: TER
DOCKED: ENDMDL
________________________________________________________________________________


    FINAL DOCKED STATE:
    ________________________


Run:   7 / 20
Time taken for this run:   0.034s

DOCKED: MODEL        7
DOCKED: USER    Run = 7
DOCKED: USER
DOCKED: USER    Estimated Free Energy of Binding    =  -7.50 kcal/mol  [=(1)+(2)+(3)-(4)]
DOCKED: USER
DOCKED: USER    (1) Final Intermolecular Energy     =  -8.69 kcal/mol
DOCKED: USER        vdW + Hbond + desolv Energy     =  -8.74 kcal/mol
DOCKED: USER        Electrostatic Energy            =  +0.05 kcal/mol
DOCKED: USER        Moving Ligand-Fixed Receptor    =  -8.69 kcal/mol
DOCKED: USER        Moving Ligand-Moving Receptor   =  +0.00 kcal/mol
DOCKED: USER    (2) Final Total Internal Energy     =  -0.88 kcal/mol
DOCKED: USER    (3) Torsional Free Energy           =  +1.19 kcal/mol
DOCKED: USER    (4) Unbound System's Energy         =  -0.88 kcal/mol
DOCKED: USER
DOCKED: USER
DOCKED: REMARK SMILES [H]/N=c1\[n-]c2nc3ccccn3c(=O)c2cc1C(=O)N[C@@H](C)c1ccccc1
DOCKED: REMARK SMILES IDX 3 1 4 2 5 3 6 4 7 5 8 6 9 7 10 8 11 9 12 10 13 11 14 12
DOCKED: REMARK SMILES IDX 15 13 16 14 17 15 2 16 1 17 18 18 20 19 19 20 21 22 22 23
DOCKED: REMARK SMILES IDX 23 24 24 25 28 26 25 27 27 28 26 29
DOCKED: REMARK H PARENT 20 21
DOCKED: USER                              x       y       z     vdW  Elec       q    Type
DOCKED: USER                           _______ _______ _______ _____ _____    ______ ____
DOCKED: ROOT
DOCKED: ATOM      1  C   UNL     1     142.343  74.307 220.852 -0.28 -0.00    +0.015 A  
DOCKED: ATOM      2  N   UNL     1     142.510  72.967 221.034 -0.07 +0.05    -0.357 NA 
DOCKED: ATOM      3  C   UNL     1     143.380  72.239 220.290 -0.27 -0.00    +0.025 A  
DOCKED: ATOM      4  N   UNL     1     143.509  70.910 220.514 -0.04 +0.03    -0.345 NA 
DOCKED: ATOM      5  C   UNL     1     144.371  70.150 219.792 -0.17 +0.01    +0.069 A  
DOCKED: ATOM      6  C   UNL     1     144.463  68.782 220.066 -0.25 +0.01    +0.030 A  
DOCKED: ATOM      7  C   UNL     1     145.344  67.991 219.333 -0.47 +0.00    +0.004 A  
DOCKED: ATOM      8  C   UNL     1     146.124  68.569 218.337 -0.33 +0.00    +0.019 A  
DOCKED: ATOM      9  C   UNL     1     146.014  69.938 218.082 -0.22 +0.06    +0.095 A  
DOCKED: ATOM     10  N   UNL     1     145.146  70.721 218.803 -0.12 -0.10    -0.281 N  
DOCKED: ATOM     11  C   UNL     1     145.041  72.068 218.548 -0.13 +0.09    +0.263 A  
DOCKED: ATOM     12  O   UNL     1     145.743  72.606 217.645 -0.55 -0.20    -0.268 OA 
DOCKED: ATOM     13  C   UNL     1     144.146  72.858 219.293 -0.23 -0.00    +0.054 A  
DOCKED: ATOM     14  C   UNL     1     143.996  74.237 219.083 -0.27 -0.01    +0.029 A  
DOCKED: ATOM     15  C   UNL     1     143.088  74.980 219.857 -0.32 -0.02    +0.052 A  
DOCKED: ENDROOT
DOCKED: BRANCH   1  16
DOCKED: ATOM     16  N   UNL     1     141.484  74.943 221.583 -0.21 +0.09    -0.412 NA 
DOCKED: ATOM     17  H   UNL     1     141.784  75.639 222.303 -0.49 -0.03    +0.076 HD 
DOCKED: ENDBRANCH   1  16
DOCKED: BRANCH  15  18
DOCKED: ATOM     18  C   UNL     1     142.953  76.442 219.632 -0.25 -0.16    +0.252 C  
DOCKED: ATOM     19  N   UNL     1     142.206  77.257 220.554 -0.08 +0.25    -0.345 N  
DOCKED: ATOM     20  O   UNL     1     143.494  76.967 218.621 -0.25 +0.19    -0.269 OA 
DOCKED: ATOM     21  H   UNL     1     141.892  76.834 221.457 -0.42 -0.12    +0.164 HD 
DOCKED: BRANCH  19  22
DOCKED: ATOM     22  C   UNL     1     141.841  78.657 220.309 -0.22 -0.07    +0.109 C  
DOCKED: ATOM     23  C   UNL     1     140.523  78.752 219.528 -0.14 -0.01    +0.036 C  
DOCKED: BRANCH  22  24
DOCKED: ATOM     24  C   UNL     1     141.881  79.456 221.603 -0.41 +0.01    -0.026 A  
DOCKED: ATOM     25  C   UNL     1     141.813  80.859 221.527 -0.43 -0.00    +0.006 A  
DOCKED: ATOM     26  C   UNL     1     142.044  78.854 222.869 -0.50 -0.00    +0.006 A  
DOCKED: ATOM     27  C   UNL     1     141.882  81.640 222.685 -0.47 -0.00    +0.000 A  
DOCKED: ATOM     28  C   UNL     1     142.113  79.639 224.023 -0.56 -0.00    +0.000 A  
DOCKED: ATOM     29  C   UNL     1     142.029  81.029 223.932 -0.60 -0.00    +0.000 A  
DOCKED: ENDBRANCH  22  24
DOCKED: ENDBRANCH  19  22
DOCKED: ENDBRANCH  15  18
DOCKED: TORSDOF 4
DOCKED: TER
DOCKED: ENDMDL
________________________________________________________________________________


    FINAL DOCKED STATE:
    ________________________


Run:   8 / 20
Time taken for this run:   0.034s

DOCKED: MODEL        8
DOCKED: USER    Run = 8
DOCKED: USER
DOCKED: USER    Estimated Free Energy of Binding    =  -7.59 kcal/mol  [=(1)+(2)+(3)-(4)]
DOCKED: USER
DOCKED: USER    (1) Final Intermolecular Energy     =  -8.79 kcal/mol
DOCKED: USER        vdW + Hbond + desolv Energy     =  -8.91 kcal/mol
DOCKED: USER        Electrostatic Energy            =  +0.13 kcal/mol
DOCKED: USER        Moving Ligand-Fixed Receptor    =  -8.79 kcal/mol
DOCKED: USER        Moving Ligand-Moving Receptor   =  +0.00 kcal/mol
DOCKED: USER    (2) Final Total Internal Energy     =  -0.88 kcal/mol
DOCKED: USER    (3) Torsional Free Energy           =  +1.19 kcal/mol
DOCKED: USER    (4) Unbound System's Energy         =  -0.88 kcal/mol
DOCKED: USER
DOCKED: USER
DOCKED: REMARK SMILES [H]/N=c1\[n-]c2nc3ccccn3c(=O)c2cc1C(=O)N[C@@H](C)c1ccccc1
DOCKED: REMARK SMILES IDX 3 1 4 2 5 3 6 4 7 5 8 6 9 7 10 8 11 9 12 10 13 11 14 12
DOCKED: REMARK SMILES IDX 15 13 16 14 17 15 2 16 1 17 18 18 20 19 19 20 21 22 22 23
DOCKED: REMARK SMILES IDX 23 24 24 25 28 26 25 27 27 28 26 29
DOCKED: REMARK H PARENT 20 21
DOCKED: USER                              x       y       z     vdW  Elec       q    Type
DOCKED: USER                           _______ _______ _______ _____ _____    ______ ____
DOCKED: ROOT
DOCKED: ATOM      1  C   UNL     1     143.731  75.014 219.793 -0.40 -0.01    +0.015 A  
DOCKED: ATOM      2  N   UNL     1     144.720  74.120 219.512 -0.12 +0.11    -0.357 NA 
DOCKED: ATOM      3  C   UNL     1     144.522  72.780 219.571 -0.31 -0.00    +0.025 A  
DOCKED: ATOM      4  N   UNL     1     145.539  71.935 219.280 -0.42 -0.18    -0.345 NA 
DOCKED: ATOM      5  C   UNL     1     145.376  70.588 219.325 -0.26 +0.03    +0.069 A  
DOCKED: ATOM      6  C   UNL     1     146.462  69.763 219.016 -0.30 +0.02    +0.030 A  
DOCKED: ATOM      7  C   UNL     1     146.309  68.380 219.058 -0.41 +0.00    +0.004 A  
DOCKED: ATOM      8  C   UNL     1     145.079  67.832 219.407 -0.45 -0.00    +0.019 A  
DOCKED: ATOM      9  C   UNL     1     144.009  68.678 219.712 -0.26 +0.00    +0.095 A  
DOCKED: ATOM     10  N   UNL     1     144.156  70.043 219.671 -0.12 -0.02    -0.281 N  
DOCKED: ATOM     11  C   UNL     1     143.101  70.871 219.973 -0.11 -0.02    +0.263 A  
DOCKED: ATOM     12  O   UNL     1     141.978  70.386 220.292 -0.05 +0.03    -0.268 OA 
DOCKED: ATOM     13  C   UNL     1     143.267  72.267 219.929 -0.22 -0.01    +0.054 A  
DOCKED: ATOM     14  C   UNL     1     142.228  73.164 220.223 -0.21 -0.01    +0.029 A  
DOCKED: ATOM     15  C   UNL     1     142.448  74.551 220.163 -0.26 -0.02    +0.052 A  
DOCKED: ENDROOT
DOCKED: BRANCH   1  16
DOCKED: ATOM     16  N   UNL     1     143.989  76.282 219.734 -0.12 +0.31    -0.412 NA 
DOCKED: ATOM     17  H   UNL     1     144.457  76.784 220.522 -0.50 -0.08    +0.076 HD 
DOCKED: ENDBRANCH   1  16
DOCKED: BRANCH  15  18
DOCKED: ATOM     18  C   UNL     1     141.333  75.486 220.461 -0.17 -0.09    +0.252 C  
DOCKED: ATOM     19  N   UNL     1     141.593  76.756 221.088 -0.07 +0.19    -0.345 N  
DOCKED: ATOM     20  O   UNL     1     140.152  75.158 220.166 -0.06 +0.07    -0.269 OA 
DOCKED: ATOM     21  H   UNL     1     142.584  77.071 221.189 -0.45 -0.17    +0.164 HD 
DOCKED: BRANCH  19  22
DOCKED: ATOM     22  C   UNL     1     140.551  77.647 221.610 -0.28 -0.04    +0.109 C  
DOCKED: ATOM     23  C   UNL     1     139.477  76.852 222.365 -0.32 -0.01    +0.036 C  
DOCKED: BRANCH  22  24
DOCKED: ATOM     24  C   UNL     1     141.169  78.796 222.391 -0.43 +0.01    -0.026 A  
DOCKED: ATOM     25  C   UNL     1     140.315  79.668 223.091 -0.43 -0.00    +0.006 A  
DOCKED: ATOM     26  C   UNL     1     142.556  79.060 222.394 -0.43 -0.00    +0.006 A  
DOCKED: ATOM     27  C   UNL     1     140.832  80.760 223.795 -0.45 -0.00    +0.000 A  
DOCKED: ATOM     28  C   UNL     1     143.067  80.153 223.099 -0.66 -0.00    +0.000 A  
DOCKED: ATOM     29  C   UNL     1     142.208  81.000 223.801 -0.65 -0.00    +0.000 A  
DOCKED: ENDBRANCH  22  24
DOCKED: ENDBRANCH  19  22
DOCKED: ENDBRANCH  15  18
DOCKED: TORSDOF 4
DOCKED: TER
DOCKED: ENDMDL
________________________________________________________________________________


    FINAL DOCKED STATE:
    ________________________


Run:   9 / 20
Time taken for this run:   0.034s

DOCKED: MODEL        9
DOCKED: USER    Run = 9
DOCKED: USER
DOCKED: USER    Estimated Free Energy of Binding    =  -7.53 kcal/mol  [=(1)+(2)+(3)-(4)]
DOCKED: USER
DOCKED: USER    (1) Final Intermolecular Energy     =  -8.72 kcal/mol
DOCKED: USER        vdW + Hbond + desolv Energy     =  -8.78 kcal/mol
DOCKED: USER        Electrostatic Energy            =  +0.05 kcal/mol
DOCKED: USER        Moving Ligand-Fixed Receptor    =  -8.72 kcal/mol
DOCKED: USER        Moving Ligand-Moving Receptor   =  +0.00 kcal/mol
DOCKED: USER    (2) Final Total Internal Energy     =  -0.89 kcal/mol
DOCKED: USER    (3) Torsional Free Energy           =  +1.19 kcal/mol
DOCKED: USER    (4) Unbound System's Energy         =  -0.89 kcal/mol
DOCKED: USER
DOCKED: USER
DOCKED: REMARK SMILES [H]/N=c1\[n-]c2nc3ccccn3c(=O)c2cc1C(=O)N[C@@H](C)c1ccccc1
DOCKED: REMARK SMILES IDX 3 1 4 2 5 3 6 4 7 5 8 6 9 7 10 8 11 9 12 10 13 11 14 12
DOCKED: REMARK SMILES IDX 15 13 16 14 17 15 2 16 1 17 18 18 20 19 19 20 21 22 22 23
DOCKED: REMARK SMILES IDX 23 24 24 25 28 26 25 27 27 28 26 29
DOCKED: REMARK H PARENT 20 21
DOCKED: USER                              x       y       z     vdW  Elec       q    Type
DOCKED: USER                           _______ _______ _______ _____ _____    ______ ____
DOCKED: ROOT
DOCKED: ATOM      1  C   UNL     1     142.352  74.319 220.833 -0.28 -0.00    +0.015 A  
DOCKED: ATOM      2  N   UNL     1     142.512  72.978 221.009 -0.08 +0.05    -0.357 NA 
DOCKED: ATOM      3  C   UNL     1     143.387  72.250 220.270 -0.27 -0.00    +0.025 A  
DOCKED: ATOM      4  N   UNL     1     143.507  70.919 220.488 -0.06 +0.03    -0.345 NA 
DOCKED: ATOM      5  C   UNL     1     144.374  70.160 219.770 -0.18 +0.01    +0.069 A  
DOCKED: ATOM      6  C   UNL     1     144.457  68.789 220.037 -0.26 +0.01    +0.030 A  
DOCKED: ATOM      7  C   UNL     1     145.342  67.999 219.308 -0.47 +0.00    +0.004 A  
DOCKED: ATOM      8  C   UNL     1     146.134  68.579 218.322 -0.32 +0.00    +0.019 A  
DOCKED: ATOM      9  C   UNL     1     146.032  69.950 218.074 -0.22 +0.06    +0.095 A  
DOCKED: ATOM     10  N   UNL     1     145.160  70.733 218.791 -0.12 -0.11    -0.281 N  
DOCKED: ATOM     11  C   UNL     1     145.063  72.082 218.543 -0.13 +0.10    +0.263 A  
DOCKED: ATOM     12  O   UNL     1     145.777  72.622 217.650 -0.55 -0.21    -0.268 OA 
DOCKED: ATOM     13  C   UNL     1     144.165  72.871 219.284 -0.23 -0.00    +0.054 A  
DOCKED: ATOM     14  C   UNL     1     144.022  74.253 219.080 -0.27 -0.01    +0.029 A  
DOCKED: ATOM     15  C   UNL     1     143.110  74.995 219.849 -0.33 -0.02    +0.052 A  
DOCKED: ENDROOT
DOCKED: BRANCH   1  16
DOCKED: ATOM     16  N   UNL     1     141.489  74.955 221.560 -0.20 +0.10    -0.412 NA 
DOCKED: ATOM     17  H   UNL     1     141.785  75.647 222.285 -0.49 -0.03    +0.076 HD 
DOCKED: ENDBRANCH   1  16
DOCKED: BRANCH  15  18
DOCKED: ATOM     18  C   UNL     1     142.983  76.459 219.631 -0.24 -0.17    +0.252 C  
DOCKED: ATOM     19  N   UNL     1     142.186  77.263 220.520 -0.10 +0.24    -0.345 N  
DOCKED: ATOM     20  O   UNL     1     143.575  76.994 218.655 -0.23 +0.20    -0.269 OA 
DOCKED: ATOM     21  H   UNL     1     141.826  76.830 221.401 -0.37 -0.11    +0.164 HD 
DOCKED: BRANCH  19  22
DOCKED: ATOM     22  C   UNL     1     141.830  78.665 220.270 -0.23 -0.07    +0.109 C  
DOCKED: ATOM     23  C   UNL     1     140.511  78.765 219.493 -0.14 -0.01    +0.036 C  
DOCKED: BRANCH  22  24
DOCKED: ATOM     24  C   UNL     1     141.881  79.470 221.559 -0.41 +0.01    -0.026 A  
DOCKED: ATOM     25  C   UNL     1     141.743  80.868 221.483 -0.42 -0.00    +0.006 A  
DOCKED: ATOM     26  C   UNL     1     142.121  78.881 222.819 -0.50 -0.00    +0.006 A  
DOCKED: ATOM     27  C   UNL     1     141.819  81.655 222.636 -0.48 -0.00    +0.000 A  
DOCKED: ATOM     28  C   UNL     1     142.196  79.673 223.968 -0.58 -0.00    +0.000 A  
DOCKED: ATOM     29  C   UNL     1     142.042  81.057 223.878 -0.62 -0.00    +0.000 A  
DOCKED: ENDBRANCH  22  24
DOCKED: ENDBRANCH  19  22
DOCKED: ENDBRANCH  15  18
DOCKED: TORSDOF 4
DOCKED: TER
DOCKED: ENDMDL
________________________________________________________________________________


    FINAL DOCKED STATE:
    ________________________


Run:   10 / 20
Time taken for this run:   0.034s

DOCKED: MODEL        10
DOCKED: USER    Run = 10
DOCKED: USER
DOCKED: USER    Estimated Free Energy of Binding    =  -7.55 kcal/mol  [=(1)+(2)+(3)-(4)]
DOCKED: USER
DOCKED: USER    (1) Final Intermolecular Energy     =  -8.75 kcal/mol
DOCKED: USER        vdW + Hbond + desolv Energy     =  -8.87 kcal/mol
DOCKED: USER        Electrostatic Energy            =  +0.12 kcal/mol
DOCKED: USER        Moving Ligand-Fixed Receptor    =  -8.75 kcal/mol
DOCKED: USER        Moving Ligand-Moving Receptor   =  +0.00 kcal/mol
DOCKED: USER    (2) Final Total Internal Energy     =  -0.89 kcal/mol
DOCKED: USER    (3) Torsional Free Energy           =  +1.19 kcal/mol
DOCKED: USER    (4) Unbound System's Energy         =  -0.89 kcal/mol
DOCKED: USER
DOCKED: USER
DOCKED: REMARK SMILES [H]/N=c1\[n-]c2nc3ccccn3c(=O)c2cc1C(=O)N[C@@H](C)c1ccccc1
DOCKED: REMARK SMILES IDX 3 1 4 2 5 3 6 4 7 5 8 6 9 7 10 8 11 9 12 10 13 11 14 12
DOCKED: REMARK SMILES IDX 15 13 16 14 17 15 2 16 1 17 18 18 20 19 19 20 21 22 22 23
DOCKED: REMARK SMILES IDX 23 24 24 25 28 26 25 27 27 28 26 29
DOCKED: REMARK H PARENT 20 21
DOCKED: USER                              x       y       z     vdW  Elec       q    Type
DOCKED: USER                           _______ _______ _______ _____ _____    ______ ____
DOCKED: ROOT
DOCKED: ATOM      1  C   UNL     1     143.768  75.000 219.775 -0.40 -0.01    +0.015 A  
DOCKED: ATOM      2  N   UNL     1     144.755  74.099 219.512 -0.12 +0.11    -0.357 NA 
DOCKED: ATOM      3  C   UNL     1     144.547  72.759 219.569 -0.32 -0.00    +0.025 A  
DOCKED: ATOM      4  N   UNL     1     145.563  71.908 219.297 -0.42 -0.18    -0.345 NA 
DOCKED: ATOM      5  C   UNL     1     145.391  70.562 219.341 -0.25 +0.03    +0.069 A  
DOCKED: ATOM      6  C   UNL     1     146.477  69.729 219.051 -0.30 +0.02    +0.030 A  
DOCKED: ATOM      7  C   UNL     1     146.313  68.347 219.092 -0.42 +0.00    +0.004 A  
DOCKED: ATOM      8  C   UNL     1     145.073  67.808 219.420 -0.45 -0.00    +0.019 A  
DOCKED: ATOM      9  C   UNL     1     144.004  68.661 219.705 -0.26 +0.00    +0.095 A  
DOCKED: ATOM     10  N   UNL     1     144.162  70.025 219.666 -0.12 -0.02    -0.281 N  
DOCKED: ATOM     11  C   UNL     1     143.107  70.861 219.949 -0.10 -0.02    +0.263 A  
DOCKED: ATOM     12  O   UNL     1     141.975  70.384 220.249 -0.06 +0.03    -0.268 OA 
DOCKED: ATOM     13  C   UNL     1     143.283  72.256 219.906 -0.21 -0.01    +0.054 A  
DOCKED: ATOM     14  C   UNL     1     142.246  73.160 220.181 -0.20 -0.01    +0.029 A  
DOCKED: ATOM     15  C   UNL     1     142.476  74.546 220.123 -0.26 -0.02    +0.052 A  
DOCKED: ENDROOT
DOCKED: BRANCH   1  16
DOCKED: ATOM     16  N   UNL     1     144.035  76.266 219.719 -0.11 +0.31    -0.412 NA 
DOCKED: ATOM     17  H   UNL     1     144.434  76.779 220.537 -0.50 -0.08    +0.076 HD 
DOCKED: ENDBRANCH   1  16
DOCKED: BRANCH  15  18
DOCKED: ATOM     18  C   UNL     1     141.362  75.489 220.401 -0.16 -0.09    +0.252 C  
DOCKED: ATOM     19  N   UNL     1     141.624  76.770 221.004 -0.07 +0.19    -0.345 N  
DOCKED: ATOM     20  O   UNL     1     140.181  75.157 220.110 -0.06 +0.07    -0.269 OA 
DOCKED: ATOM     21  H   UNL     1     142.616  77.085 221.102 -0.45 -0.17    +0.164 HD 
DOCKED: BRANCH  19  22
DOCKED: ATOM     22  C   UNL     1     140.582  77.673 221.507 -0.27 -0.04    +0.109 C  
DOCKED: ATOM     23  C   UNL     1     139.550  76.907 222.346 -0.33 -0.01    +0.036 C  
DOCKED: BRANCH  22  24
DOCKED: ATOM     24  C   UNL     1     141.204  78.879 222.195 -0.41 +0.01    -0.026 A  
DOCKED: ATOM     25  C   UNL     1     141.669  78.733 223.515 -0.60 -0.00    +0.006 A  
DOCKED: ATOM     26  C   UNL     1     141.277  80.151 221.588 -0.37 -0.00    +0.006 A  
DOCKED: ATOM     27  C   UNL     1     142.215  79.820 224.202 -0.49 -0.00    +0.000 A  
DOCKED: ATOM     28  C   UNL     1     141.824  81.235 222.281 -0.50 -0.00    +0.000 A  
DOCKED: ATOM     29  C   UNL     1     142.295  81.070 223.584 -0.63 -0.00    +0.000 A  
DOCKED: ENDBRANCH  22  24
DOCKED: ENDBRANCH  19  22
DOCKED: ENDBRANCH  15  18
DOCKED: TORSDOF 4
DOCKED: TER
DOCKED: ENDMDL
________________________________________________________________________________


    FINAL DOCKED STATE:
    ________________________


Run:   11 / 20
Time taken for this run:   0.034s

DOCKED: MODEL        11
DOCKED: USER    Run = 11
DOCKED: USER
DOCKED: USER    Estimated Free Energy of Binding    =  -7.55 kcal/mol  [=(1)+(2)+(3)-(4)]
DOCKED: USER
DOCKED: USER    (1) Final Intermolecular Energy     =  -8.74 kcal/mol
DOCKED: USER        vdW + Hbond + desolv Energy     =  -8.87 kcal/mol
DOCKED: USER        Electrostatic Energy            =  +0.12 kcal/mol
DOCKED: USER        Moving Ligand-Fixed Receptor    =  -8.74 kcal/mol
DOCKED: USER        Moving Ligand-Moving Receptor   =  +0.00 kcal/mol
DOCKED: USER    (2) Final Total Internal Energy     =  -0.89 kcal/mol
DOCKED: USER    (3) Torsional Free Energy           =  +1.19 kcal/mol
DOCKED: USER    (4) Unbound System's Energy         =  -0.89 kcal/mol
DOCKED: USER
DOCKED: USER
DOCKED: REMARK SMILES [H]/N=c1\[n-]c2nc3ccccn3c(=O)c2cc1C(=O)N[C@@H](C)c1ccccc1
DOCKED: REMARK SMILES IDX 3 1 4 2 5 3 6 4 7 5 8 6 9 7 10 8 11 9 12 10 13 11 14 12
DOCKED: REMARK SMILES IDX 15 13 16 14 17 15 2 16 1 17 18 18 20 19 19 20 21 22 22 23
DOCKED: REMARK SMILES IDX 23 24 24 25 28 26 25 27 27 28 26 29
DOCKED: REMARK H PARENT 20 21
DOCKED: USER                              x       y       z     vdW  Elec       q    Type
DOCKED: USER                           _______ _______ _______ _____ _____    ______ ____
DOCKED: ROOT
DOCKED: ATOM      1  C   UNL     1     143.780  75.007 219.777 -0.40 -0.01    +0.015 A  
DOCKED: ATOM      2  N   UNL     1     144.766  74.104 219.518 -0.12 +0.11    -0.357 NA 
DOCKED: ATOM      3  C   UNL     1     144.554  72.765 219.571 -0.32 -0.00    +0.025 A  
DOCKED: ATOM      4  N   UNL     1     145.569  71.911 219.303 -0.42 -0.18    -0.345 NA 
DOCKED: ATOM      5  C   UNL     1     145.393  70.566 219.343 -0.25 +0.03    +0.069 A  
DOCKED: ATOM      6  C   UNL     1     146.478  69.730 219.057 -0.30 +0.02    +0.030 A  
DOCKED: ATOM      7  C   UNL     1     146.310  68.348 219.094 -0.42 +0.00    +0.004 A  
DOCKED: ATOM      8  C   UNL     1     145.067  67.813 219.415 -0.45 -0.00    +0.019 A  
DOCKED: ATOM      9  C   UNL     1     143.999  68.668 219.696 -0.26 +0.00    +0.095 A  
DOCKED: ATOM     10  N   UNL     1     144.160  70.032 219.661 -0.12 -0.02    -0.281 N  
DOCKED: ATOM     11  C   UNL     1     143.107  70.870 219.940 -0.11 -0.02    +0.263 A  
DOCKED: ATOM     12  O   UNL     1     141.972  70.396 220.233 -0.06 +0.03    -0.268 OA 
DOCKED: ATOM     13  C   UNL     1     143.287  72.265 219.901 -0.21 -0.01    +0.054 A  
DOCKED: ATOM     14  C   UNL     1     142.250  73.171 220.172 -0.20 -0.01    +0.029 A  
DOCKED: ATOM     15  C   UNL     1     142.485  74.556 220.118 -0.26 -0.02    +0.052 A  
DOCKED: ENDROOT
DOCKED: BRANCH   1  16
DOCKED: ATOM     16  N   UNL     1     144.051  76.273 219.726 -0.10 +0.31    -0.412 NA 
DOCKED: ATOM     17  H   UNL     1     144.449  76.783 220.547 -0.50 -0.08    +0.076 HD 
DOCKED: ENDBRANCH   1  16
DOCKED: BRANCH  15  18
DOCKED: ATOM     18  C   UNL     1     141.373  75.502 220.393 -0.16 -0.09    +0.252 C  
DOCKED: ATOM     19  N   UNL     1     141.633  76.777 221.008 -0.07 +0.19    -0.345 N  
DOCKED: ATOM     20  O   UNL     1     140.193  75.177 220.087 -0.06 +0.07    -0.269 OA 
DOCKED: ATOM     21  H   UNL     1     142.625  77.087 221.118 -0.45 -0.17    +0.164 HD 
DOCKED: BRANCH  19  22
DOCKED: ATOM     22  C   UNL     1     140.591  77.681 221.507 -0.27 -0.04    +0.109 C  
DOCKED: ATOM     23  C   UNL     1     139.556  76.916 222.344 -0.34 -0.01    +0.036 C  
DOCKED: BRANCH  22  24
DOCKED: ATOM     24  C   UNL     1     141.210  78.887 222.196 -0.41 +0.01    -0.026 A  
DOCKED: ATOM     25  C   UNL     1     141.676  78.741 223.515 -0.60 -0.00    +0.006 A  
DOCKED: ATOM     26  C   UNL     1     141.281  80.160 221.590 -0.37 -0.00    +0.006 A  
DOCKED: ATOM     27  C   UNL     1     142.221  79.829 224.203 -0.49 -0.00    +0.000 A  
DOCKED: ATOM     28  C   UNL     1     141.827  81.244 222.283 -0.50 -0.00    +0.000 A  
DOCKED: ATOM     29  C   UNL     1     142.299  81.079 223.586 -0.63 -0.00    +0.000 A  
DOCKED: ENDBRANCH  22  24
DOCKED: ENDBRANCH  19  22
DOCKED: ENDBRANCH  15  18
DOCKED: TORSDOF 4
DOCKED: TER
DOCKED: ENDMDL
________________________________________________________________________________


    FINAL DOCKED STATE:
    ________________________


Run:   12 / 20
Time taken for this run:   0.034s

DOCKED: MODEL        12
DOCKED: USER    Run = 12
DOCKED: USER
DOCKED: USER    Estimated Free Energy of Binding    =  -7.60 kcal/mol  [=(1)+(2)+(3)-(4)]
DOCKED: USER
DOCKED: USER    (1) Final Intermolecular Energy     =  -8.79 kcal/mol
DOCKED: USER        vdW + Hbond + desolv Energy     =  -8.92 kcal/mol
DOCKED: USER        Electrostatic Energy            =  +0.13 kcal/mol
DOCKED: USER        Moving Ligand-Fixed Receptor    =  -8.79 kcal/mol
DOCKED: USER        Moving Ligand-Moving Receptor   =  +0.00 kcal/mol
DOCKED: USER    (2) Final Total Internal Energy     =  -0.88 kcal/mol
DOCKED: USER    (3) Torsional Free Energy           =  +1.19 kcal/mol
DOCKED: USER    (4) Unbound System's Energy         =  -0.88 kcal/mol
DOCKED: USER
DOCKED: USER
DOCKED: REMARK SMILES [H]/N=c1\[n-]c2nc3ccccn3c(=O)c2cc1C(=O)N[C@@H](C)c1ccccc1
DOCKED: REMARK SMILES IDX 3 1 4 2 5 3 6 4 7 5 8 6 9 7 10 8 11 9 12 10 13 11 14 12
DOCKED: REMARK SMILES IDX 15 13 16 14 17 15 2 16 1 17 18 18 20 19 19 20 21 22 22 23
DOCKED: REMARK SMILES IDX 23 24 24 25 28 26 25 27 27 28 26 29
DOCKED: REMARK H PARENT 20 21
DOCKED: USER                              x       y       z     vdW  Elec       q    Type
DOCKED: USER                           _______ _______ _______ _____ _____    ______ ____
DOCKED: ROOT
DOCKED: ATOM      1  C   UNL     1     143.723  75.026 219.790 -0.40 -0.01    +0.015 A  
DOCKED: ATOM      2  N   UNL     1     144.713  74.136 219.504 -0.12 +0.11    -0.357 NA 
DOCKED: ATOM      3  C   UNL     1     144.522  72.794 219.569 -0.32 -0.00    +0.025 A  
DOCKED: ATOM      4  N   UNL     1     145.541  71.954 219.273 -0.42 -0.18    -0.345 NA 
DOCKED: ATOM      5  C   UNL     1     145.385  70.606 219.324 -0.26 +0.03    +0.069 A  
DOCKED: ATOM      6  C   UNL     1     146.472  69.785 219.008 -0.29 +0.02    +0.030 A  
DOCKED: ATOM      7  C   UNL     1     146.325  68.401 219.056 -0.41 +0.00    +0.004 A  
DOCKED: ATOM      8  C   UNL     1     145.101  67.849 219.418 -0.45 -0.00    +0.019 A  
DOCKED: ATOM      9  C   UNL     1     144.030  68.691 219.730 -0.26 +0.00    +0.095 A  
DOCKED: ATOM     10  N   UNL     1     144.171  70.056 219.684 -0.12 -0.02    -0.281 N  
DOCKED: ATOM     11  C   UNL     1     143.114  70.881 219.992 -0.11 -0.02    +0.263 A  
DOCKED: ATOM     12  O   UNL     1     141.996  70.392 220.323 -0.05 +0.03    -0.268 OA 
DOCKED: ATOM     13  C   UNL     1     143.273  72.278 219.941 -0.22 -0.01    +0.054 A  
DOCKED: ATOM     14  C   UNL     1     142.233  73.171 220.241 -0.21 -0.01    +0.029 A  
DOCKED: ATOM     15  C   UNL     1     142.446  74.559 220.174 -0.26 -0.02    +0.052 A  
DOCKED: ENDROOT
DOCKED: BRANCH   1  16
DOCKED: ATOM     16  N   UNL     1     143.974  76.295 219.725 -0.12 +0.31    -0.412 NA 
DOCKED: ATOM     17  H   UNL     1     144.474  76.796 220.494 -0.51 -0.08    +0.076 HD 
DOCKED: ENDBRANCH   1  16
DOCKED: BRANCH  15  18
DOCKED: ATOM     18  C   UNL     1     141.329  75.490 220.480 -0.17 -0.09    +0.252 C  
DOCKED: ATOM     19  N   UNL     1     141.589  76.763 221.099 -0.07 +0.19    -0.345 N  
DOCKED: ATOM     20  O   UNL     1     140.147  75.154 220.198 -0.07 +0.07    -0.269 OA 
DOCKED: ATOM     21  H   UNL     1     142.580  77.084 221.189 -0.45 -0.17    +0.164 HD 
DOCKED: BRANCH  19  22
DOCKED: ATOM     22  C   UNL     1     140.548  77.652 221.627 -0.29 -0.04    +0.109 C  
DOCKED: ATOM     23  C   UNL     1     139.482  76.854 222.391 -0.31 -0.01    +0.036 C  
DOCKED: BRANCH  22  24
DOCKED: ATOM     24  C   UNL     1     141.168  78.804 222.402 -0.43 +0.01    -0.026 A  
DOCKED: ATOM     25  C   UNL     1     140.316  79.678 223.102 -0.43 -0.00    +0.006 A  
DOCKED: ATOM     26  C   UNL     1     142.554  79.069 222.398 -0.43 -0.00    +0.006 A  
DOCKED: ATOM     27  C   UNL     1     140.834  80.772 223.800 -0.45 -0.00    +0.000 A  
DOCKED: ATOM     28  C   UNL     1     143.067  80.166 223.097 -0.66 -0.00    +0.000 A  
DOCKED: ATOM     29  C   UNL     1     142.210  81.014 223.800 -0.65 -0.00    +0.000 A  
DOCKED: ENDBRANCH  22  24
DOCKED: ENDBRANCH  19  22
DOCKED: ENDBRANCH  15  18
DOCKED: TORSDOF 4
DOCKED: TER
DOCKED: ENDMDL
________________________________________________________________________________


    FINAL DOCKED STATE:
    ________________________


Run:   13 / 20
Time taken for this run:   0.034s

DOCKED: MODEL        13
DOCKED: USER    Run = 13
DOCKED: USER
DOCKED: USER    Estimated Free Energy of Binding    =  -7.57 kcal/mol  [=(1)+(2)+(3)-(4)]
DOCKED: USER
DOCKED: USER    (1) Final Intermolecular Energy     =  -8.77 kcal/mol
DOCKED: USER        vdW + Hbond + desolv Energy     =  -8.90 kcal/mol
DOCKED: USER        Electrostatic Energy            =  +0.13 kcal/mol
DOCKED: USER        Moving Ligand-Fixed Receptor    =  -8.77 kcal/mol
DOCKED: USER        Moving Ligand-Moving Receptor   =  +0.00 kcal/mol
DOCKED: USER    (2) Final Total Internal Energy     =  -0.88 kcal/mol
DOCKED: USER    (3) Torsional Free Energy           =  +1.19 kcal/mol
DOCKED: USER    (4) Unbound System's Energy         =  -0.88 kcal/mol
DOCKED: USER
DOCKED: USER
DOCKED: REMARK SMILES [H]/N=c1\[n-]c2nc3ccccn3c(=O)c2cc1C(=O)N[C@@H](C)c1ccccc1
DOCKED: REMARK SMILES IDX 3 1 4 2 5 3 6 4 7 5 8 6 9 7 10 8 11 9 12 10 13 11 14 12
DOCKED: REMARK SMILES IDX 15 13 16 14 17 15 2 16 1 17 18 18 20 19 19 20 21 22 22 23
DOCKED: REMARK SMILES IDX 23 24 24 25 28 26 25 27 27 28 26 29
DOCKED: REMARK H PARENT 20 21
DOCKED: USER                              x       y       z     vdW  Elec       q    Type
DOCKED: USER                           _______ _______ _______ _____ _____    ______ ____
DOCKED: ROOT
DOCKED: ATOM      1  C   UNL     1     143.748  75.080 219.815 -0.40 -0.01    +0.015 A  
DOCKED: ATOM      2  N   UNL     1     144.737  74.185 219.536 -0.10 +0.12    -0.357 NA 
DOCKED: ATOM      3  C   UNL     1     144.536  72.844 219.592 -0.32 -0.00    +0.025 A  
DOCKED: ATOM      4  N   UNL     1     145.553  71.999 219.304 -0.43 -0.18    -0.345 NA 
DOCKED: ATOM      5  C   UNL     1     145.388  70.652 219.346 -0.26 +0.03    +0.069 A  
DOCKED: ATOM      6  C   UNL     1     146.473  69.825 219.039 -0.28 +0.03    +0.030 A  
DOCKED: ATOM      7  C   UNL     1     146.317  68.442 219.078 -0.41 +0.00    +0.004 A  
DOCKED: ATOM      8  C   UNL     1     145.085  67.896 219.421 -0.44 -0.00    +0.019 A  
DOCKED: ATOM      9  C   UNL     1     144.016  68.743 219.724 -0.26 +0.00    +0.095 A  
DOCKED: ATOM     10  N   UNL     1     144.165  70.108 219.687 -0.12 -0.02    -0.281 N  
DOCKED: ATOM     11  C   UNL     1     143.111  70.937 219.986 -0.11 -0.02    +0.263 A  
DOCKED: ATOM     12  O   UNL     1     141.985  70.454 220.300 -0.06 +0.03    -0.268 OA 
DOCKED: ATOM     13  C   UNL     1     143.279  72.333 219.945 -0.22 -0.01    +0.054 A  
DOCKED: ATOM     14  C   UNL     1     142.241  73.232 220.236 -0.21 -0.01    +0.029 A  
DOCKED: ATOM     15  C   UNL     1     142.463  74.618 220.179 -0.27 -0.02    +0.052 A  
DOCKED: ENDROOT
DOCKED: BRANCH   1  16
DOCKED: ATOM     16  N   UNL     1     144.008  76.348 219.759 -0.10 +0.32    -0.412 NA 
DOCKED: ATOM     17  H   UNL     1     144.227  76.901 220.618 -0.50 -0.09    +0.076 HD 
DOCKED: ENDBRANCH   1  16
DOCKED: BRANCH  15  18
DOCKED: ATOM     18  C   UNL     1     141.349  75.555 220.476 -0.17 -0.09    +0.252 C  
DOCKED: ATOM     19  N   UNL     1     141.609  76.823 221.105 -0.06 +0.19    -0.345 N  
DOCKED: ATOM     20  O   UNL     1     140.168  75.229 220.176 -0.07 +0.07    -0.269 OA 
DOCKED: ATOM     21  H   UNL     1     142.601  77.137 221.211 -0.45 -0.17    +0.164 HD 
DOCKED: BRANCH  19  22
DOCKED: ATOM     22  C   UNL     1     140.566  77.716 221.625 -0.28 -0.04    +0.109 C  
DOCKED: ATOM     23  C   UNL     1     139.495  76.923 222.386 -0.32 -0.01    +0.036 C  
DOCKED: BRANCH  22  24
DOCKED: ATOM     24  C   UNL     1     141.185  78.869 222.400 -0.43 +0.01    -0.026 A  
DOCKED: ATOM     25  C   UNL     1     140.331  79.739 223.103 -0.43 -0.00    +0.006 A  
DOCKED: ATOM     26  C   UNL     1     142.570  79.139 222.393 -0.45 -0.00    +0.006 A  
DOCKED: ATOM     27  C   UNL     1     140.848  80.835 223.801 -0.45 -0.00    +0.000 A  
DOCKED: ATOM     28  C   UNL     1     143.081  80.236 223.092 -0.66 -0.00    +0.000 A  
DOCKED: ATOM     29  C   UNL     1     142.223  81.081 223.798 -0.65 -0.00    +0.000 A  
DOCKED: ENDBRANCH  22  24
DOCKED: ENDBRANCH  19  22
DOCKED: ENDBRANCH  15  18
DOCKED: TORSDOF 4
DOCKED: TER
DOCKED: ENDMDL
________________________________________________________________________________


    FINAL DOCKED STATE:
    ________________________


Run:   14 / 20
Time taken for this run:   0.034s

DOCKED: MODEL        14
DOCKED: USER    Run = 14
DOCKED: USER
DOCKED: USER    Estimated Free Energy of Binding    =  -7.58 kcal/mol  [=(1)+(2)+(3)-(4)]
DOCKED: USER
DOCKED: USER    (1) Final Intermolecular Energy     =  -8.77 kcal/mol
DOCKED: USER        vdW + Hbond + desolv Energy     =  -8.91 kcal/mol
DOCKED: USER        Electrostatic Energy            =  +0.13 kcal/mol
DOCKED: USER        Moving Ligand-Fixed Receptor    =  -8.77 kcal/mol
DOCKED: USER        Moving Ligand-Moving Receptor   =  +0.00 kcal/mol
DOCKED: USER    (2) Final Total Internal Energy     =  -0.88 kcal/mol
DOCKED: USER    (3) Torsional Free Energy           =  +1.19 kcal/mol
DOCKED: USER    (4) Unbound System's Energy         =  -0.88 kcal/mol
DOCKED: USER
DOCKED: USER
DOCKED: REMARK SMILES [H]/N=c1\[n-]c2nc3ccccn3c(=O)c2cc1C(=O)N[C@@H](C)c1ccccc1
DOCKED: REMARK SMILES IDX 3 1 4 2 5 3 6 4 7 5 8 6 9 7 10 8 11 9 12 10 13 11 14 12
DOCKED: REMARK SMILES IDX 15 13 16 14 17 15 2 16 1 17 18 18 20 19 19 20 21 22 22 23
DOCKED: REMARK SMILES IDX 23 24 24 25 28 26 25 27 27 28 26 29
DOCKED: REMARK H PARENT 20 21
DOCKED: USER                              x       y       z     vdW  Elec       q    Type
DOCKED: USER                           _______ _______ _______ _____ _____    ______ ____
DOCKED: ROOT
DOCKED: ATOM      1  C   UNL     1     143.725  75.073 219.794 -0.40 -0.01    +0.015 A  
DOCKED: ATOM      2  N   UNL     1     144.713  74.179 219.511 -0.10 +0.12    -0.357 NA 
DOCKED: ATOM      3  C   UNL     1     144.516  72.839 219.575 -0.32 -0.00    +0.025 A  
DOCKED: ATOM      4  N   UNL     1     145.533  71.994 219.282 -0.42 -0.18    -0.345 NA 
DOCKED: ATOM      5  C   UNL     1     145.372  70.647 219.332 -0.26 +0.03    +0.069 A  
DOCKED: ATOM      6  C   UNL     1     146.457  69.822 219.020 -0.29 +0.03    +0.030 A  
DOCKED: ATOM      7  C   UNL     1     146.304  68.438 219.067 -0.41 +0.00    +0.004 A  
DOCKED: ATOM      8  C   UNL     1     145.076  67.891 219.424 -0.44 -0.00    +0.019 A  
DOCKED: ATOM      9  C   UNL     1     144.008  68.737 219.732 -0.25 +0.00    +0.095 A  
DOCKED: ATOM     10  N   UNL     1     144.154  70.102 219.687 -0.12 -0.02    -0.281 N  
DOCKED: ATOM     11  C   UNL     1     143.099  70.930 219.991 -0.11 -0.02    +0.263 A  
DOCKED: ATOM     12  O   UNL     1     141.978  70.446 220.317 -0.05 +0.03    -0.268 OA 
DOCKED: ATOM     13  C   UNL     1     143.264  72.326 219.941 -0.22 -0.01    +0.054 A  
DOCKED: ATOM     14  C   UNL     1     142.226  73.224 220.238 -0.21 -0.01    +0.029 A  
DOCKED: ATOM     15  C   UNL     1     142.444  74.611 220.172 -0.27 -0.02    +0.052 A  
DOCKED: ENDROOT
DOCKED: BRANCH   1  16
DOCKED: ATOM     16  N   UNL     1     143.982  76.342 219.730 -0.11 +0.32    -0.412 NA 
DOCKED: ATOM     17  H   UNL     1     144.178  76.906 220.587 -0.50 -0.09    +0.076 HD 
DOCKED: ENDBRANCH   1  16
DOCKED: BRANCH  15  18
DOCKED: ATOM     18  C   UNL     1     141.331  75.546 220.473 -0.17 -0.09    +0.252 C  
DOCKED: ATOM     19  N   UNL     1     141.594  76.821 221.088 -0.07 +0.19    -0.345 N  
DOCKED: ATOM     20  O   UNL     1     140.148  75.213 220.191 -0.07 +0.07    -0.269 OA 
DOCKED: ATOM     21  H   UNL     1     142.585  77.138 221.179 -0.45 -0.17    +0.164 HD 
DOCKED: BRANCH  19  22
DOCKED: ATOM     22  C   UNL     1     140.554  77.714 221.612 -0.28 -0.04    +0.109 C  
DOCKED: ATOM     23  C   UNL     1     139.479  76.921 222.368 -0.32 -0.01    +0.036 C  
DOCKED: BRANCH  22  24
DOCKED: ATOM     24  C   UNL     1     141.176  78.860 222.395 -0.43 +0.01    -0.026 A  
DOCKED: ATOM     25  C   UNL     1     140.325  79.736 223.093 -0.43 -0.00    +0.006 A  
DOCKED: ATOM     26  C   UNL     1     142.564  79.118 222.400 -0.44 -0.00    +0.006 A  
DOCKED: ATOM     27  C   UNL     1     140.846  80.826 223.797 -0.45 -0.00    +0.000 A  
DOCKED: ATOM     28  C   UNL     1     143.079  80.209 223.105 -0.66 -0.00    +0.000 A  
DOCKED: ATOM     29  C   UNL     1     142.223  81.060 223.806 -0.65 -0.00    +0.000 A  
DOCKED: ENDBRANCH  22  24
DOCKED: ENDBRANCH  19  22
DOCKED: ENDBRANCH  15  18
DOCKED: TORSDOF 4
DOCKED: TER
DOCKED: ENDMDL
________________________________________________________________________________


    FINAL DOCKED STATE:
    ________________________


Run:   15 / 20
Time taken for this run:   0.034s

DOCKED: MODEL        15
DOCKED: USER    Run = 15
DOCKED: USER
DOCKED: USER    Estimated Free Energy of Binding    =  -7.53 kcal/mol  [=(1)+(2)+(3)-(4)]
DOCKED: USER
DOCKED: USER    (1) Final Intermolecular Energy     =  -8.73 kcal/mol
DOCKED: USER        vdW + Hbond + desolv Energy     =  -8.89 kcal/mol
DOCKED: USER        Electrostatic Energy            =  +0.17 kcal/mol
DOCKED: USER        Moving Ligand-Fixed Receptor    =  -8.73 kcal/mol
DOCKED: USER        Moving Ligand-Moving Receptor   =  +0.00 kcal/mol
DOCKED: USER    (2) Final Total Internal Energy     =  -0.88 kcal/mol
DOCKED: USER    (3) Torsional Free Energy           =  +1.19 kcal/mol
DOCKED: USER    (4) Unbound System's Energy         =  -0.88 kcal/mol
DOCKED: USER
DOCKED: USER
DOCKED: REMARK SMILES [H]/N=c1\[n-]c2nc3ccccn3c(=O)c2cc1C(=O)N[C@@H](C)c1ccccc1
DOCKED: REMARK SMILES IDX 3 1 4 2 5 3 6 4 7 5 8 6 9 7 10 8 11 9 12 10 13 11 14 12
DOCKED: REMARK SMILES IDX 15 13 16 14 17 15 2 16 1 17 18 18 20 19 19 20 21 22 22 23
DOCKED: REMARK SMILES IDX 23 24 24 25 28 26 25 27 27 28 26 29
DOCKED: REMARK H PARENT 20 21
DOCKED: USER                              x       y       z     vdW  Elec       q    Type
DOCKED: USER                           _______ _______ _______ _____ _____    ______ ____
DOCKED: ROOT
DOCKED: ATOM      1  C   UNL     1     143.576  75.117 219.837 -0.39 -0.01    +0.015 A  
DOCKED: ATOM      2  N   UNL     1     144.579  74.252 219.520 -0.11 +0.12    -0.357 NA 
DOCKED: ATOM      3  C   UNL     1     144.423  72.905 219.589 -0.31 -0.00    +0.025 A  
DOCKED: ATOM      4  N   UNL     1     145.453  72.091 219.261 -0.40 -0.16    -0.345 NA 
DOCKED: ATOM      5  C   UNL     1     145.332  70.739 219.315 -0.26 +0.03    +0.069 A  
DOCKED: ATOM      6  C   UNL     1     146.429  69.946 218.965 -0.28 +0.03    +0.030 A  
DOCKED: ATOM      7  C   UNL     1     146.318  68.559 219.016 -0.40 +0.00    +0.004 A  
DOCKED: ATOM      8  C   UNL     1     145.119  67.976 219.412 -0.44 +0.00    +0.019 A  
DOCKED: ATOM      9  C   UNL     1     144.038  68.791 219.757 -0.25 +0.00    +0.095 A  
DOCKED: ATOM     10  N   UNL     1     144.143  70.159 219.709 -0.12 -0.02    -0.281 N  
DOCKED: ATOM     11  C   UNL     1     143.076  70.957 220.049 -0.11 -0.02    +0.263 A  
DOCKED: ATOM     12  O   UNL     1     141.981  70.441 220.412 -0.04 +0.03    -0.268 OA 
DOCKED: ATOM     13  C   UNL     1     143.199  72.357 219.996 -0.22 -0.01    +0.054 A  
DOCKED: ATOM     14  C   UNL     1     142.146  73.224 220.328 -0.22 -0.01    +0.029 A  
DOCKED: ATOM     15  C   UNL     1     142.322  74.617 220.257 -0.26 -0.02    +0.052 A  
DOCKED: ENDROOT
DOCKED: BRANCH   1  16
DOCKED: ATOM     16  N   UNL     1     143.793  76.392 219.766 -0.15 +0.32    -0.412 NA 
DOCKED: ATOM     17  H   UNL     1     144.396  76.885 220.463 -0.53 -0.08    +0.076 HD 
DOCKED: ENDBRANCH   1  16
DOCKED: BRANCH  15  18
DOCKED: ATOM     18  C   UNL     1     141.193  75.520 220.596 -0.17 -0.08    +0.252 C  
DOCKED: ATOM     19  N   UNL     1     141.439  76.803 221.200 -0.13 +0.18    -0.345 N  
DOCKED: ATOM     20  O   UNL     1     140.011  75.152 220.357 -0.07 +0.07    -0.269 OA 
DOCKED: ATOM     21  H   UNL     1     142.424  77.150 221.255 -0.46 -0.16    +0.164 HD 
DOCKED: BRANCH  19  22
DOCKED: ATOM     22  C   UNL     1     140.393  77.667 221.760 -0.29 -0.04    +0.109 C  
DOCKED: ATOM     23  C   UNL     1     139.409  76.854 222.612 -0.23 -0.01    +0.036 C  
DOCKED: BRANCH  22  24
DOCKED: ATOM     24  C   UNL     1     141.007  78.870 222.459 -0.42 +0.01    -0.026 A  
DOCKED: ATOM     25  C   UNL     1     142.407  79.014 222.443 -0.46 -0.00    +0.006 A  
DOCKED: ATOM     26  C   UNL     1     140.238  79.813 223.174 -0.43 -0.00    +0.006 A  
DOCKED: ATOM     27  C   UNL     1     143.021  80.083 223.101 -0.66 -0.00    +0.000 A  
DOCKED: ATOM     28  C   UNL     1     140.858  80.880 223.831 -0.44 -0.00    +0.000 A  
DOCKED: ATOM     29  C   UNL     1     142.246  81.017 223.792 -0.65 -0.00    +0.000 A  
DOCKED: ENDBRANCH  22  24
DOCKED: ENDBRANCH  19  22
DOCKED: ENDBRANCH  15  18
DOCKED: TORSDOF 4
DOCKED: TER
DOCKED: ENDMDL
________________________________________________________________________________


    FINAL DOCKED STATE:
    ________________________


Run:   16 / 20
Time taken for this run:   0.034s

DOCKED: MODEL        16
DOCKED: USER    Run = 16
DOCKED: USER
DOCKED: USER    Estimated Free Energy of Binding    =  -7.59 kcal/mol  [=(1)+(2)+(3)-(4)]
DOCKED: USER
DOCKED: USER    (1) Final Intermolecular Energy     =  -8.78 kcal/mol
DOCKED: USER        vdW + Hbond + desolv Energy     =  -8.91 kcal/mol
DOCKED: USER        Electrostatic Energy            =  +0.13 kcal/mol
DOCKED: USER        Moving Ligand-Fixed Receptor    =  -8.78 kcal/mol
DOCKED: USER        Moving Ligand-Moving Receptor   =  +0.00 kcal/mol
DOCKED: USER    (2) Final Total Internal Energy     =  -0.88 kcal/mol
DOCKED: USER    (3) Torsional Free Energy           =  +1.19 kcal/mol
DOCKED: USER    (4) Unbound System's Energy         =  -0.88 kcal/mol
DOCKED: USER
DOCKED: USER
DOCKED: REMARK SMILES [H]/N=c1\[n-]c2nc3ccccn3c(=O)c2cc1C(=O)N[C@@H](C)c1ccccc1
DOCKED: REMARK SMILES IDX 3 1 4 2 5 3 6 4 7 5 8 6 9 7 10 8 11 9 12 10 13 11 14 12
DOCKED: REMARK SMILES IDX 15 13 16 14 17 15 2 16 1 17 18 18 20 19 19 20 21 22 22 23
DOCKED: REMARK SMILES IDX 23 24 24 25 28 26 25 27 27 28 26 29
DOCKED: REMARK H PARENT 20 21
DOCKED: USER                              x       y       z     vdW  Elec       q    Type
DOCKED: USER                           _______ _______ _______ _____ _____    ______ ____
DOCKED: ROOT
DOCKED: ATOM      1  C   UNL     1     143.726  75.021 219.784 -0.40 -0.01    +0.015 A  
DOCKED: ATOM      2  N   UNL     1     144.714  74.131 219.492 -0.12 +0.11    -0.357 NA 
DOCKED: ATOM      3  C   UNL     1     144.522  72.789 219.554 -0.31 -0.00    +0.025 A  
DOCKED: ATOM      4  N   UNL     1     145.539  71.949 219.251 -0.43 -0.18    -0.345 NA 
DOCKED: ATOM      5  C   UNL     1     145.383  70.601 219.299 -0.26 +0.03    +0.069 A  
DOCKED: ATOM      6  C   UNL     1     146.468  69.780 218.976 -0.30 +0.02    +0.030 A  
DOCKED: ATOM      7  C   UNL     1     146.321  68.396 219.021 -0.41 +0.00    +0.004 A  
DOCKED: ATOM      8  C   UNL     1     145.097  67.844 219.386 -0.45 -0.00    +0.019 A  
DOCKED: ATOM      9  C   UNL     1     144.028  68.685 219.704 -0.26 +0.00    +0.095 A  
DOCKED: ATOM     10  N   UNL     1     144.170  70.051 219.661 -0.12 -0.02    -0.281 N  
DOCKED: ATOM     11  C   UNL     1     143.115  70.875 219.976 -0.11 -0.02    +0.263 A  
DOCKED: ATOM     12  O   UNL     1     141.998  70.386 220.310 -0.05 +0.03    -0.268 OA 
DOCKED: ATOM     13  C   UNL     1     143.275  72.272 219.929 -0.22 -0.01    +0.054 A  
DOCKED: ATOM     14  C   UNL     1     142.236  73.165 220.235 -0.21 -0.01    +0.029 A  
DOCKED: ATOM     15  C   UNL     1     142.449  74.552 220.171 -0.26 -0.02    +0.052 A  
DOCKED: ENDROOT
DOCKED: BRANCH   1  16
DOCKED: ATOM     16  N   UNL     1     143.977  76.290 219.722 -0.12 +0.31    -0.412 NA 
DOCKED: ATOM     17  H   UNL     1     144.496  76.785 220.482 -0.51 -0.08    +0.076 HD 
DOCKED: ENDBRANCH   1  16
DOCKED: BRANCH  15  18
DOCKED: ATOM     18  C   UNL     1     141.335  75.483 220.484 -0.17 -0.09    +0.252 C  
DOCKED: ATOM     19  N   UNL     1     141.598  76.757 221.101 -0.06 +0.19    -0.345 N  
DOCKED: ATOM     20  O   UNL     1     140.151  75.148 220.209 -0.07 +0.07    -0.269 OA 
DOCKED: ATOM     21  H   UNL     1     142.590  77.078 221.185 -0.45 -0.17    +0.164 HD 
DOCKED: BRANCH  19  22
DOCKED: ATOM     22  C   UNL     1     140.560  77.645 221.636 -0.29 -0.04    +0.109 C  
DOCKED: ATOM     23  C   UNL     1     139.500  76.848 222.408 -0.31 -0.01    +0.036 C  
DOCKED: BRANCH  22  24
DOCKED: ATOM     24  C   UNL     1     141.185  78.799 222.406 -0.43 +0.01    -0.026 A  
DOCKED: ATOM     25  C   UNL     1     140.335  79.690 223.086 -0.43 -0.00    +0.006 A  
DOCKED: ATOM     26  C   UNL     1     142.574  79.047 222.416 -0.42 -0.00    +0.006 A  
DOCKED: ATOM     27  C   UNL     1     140.858  80.786 223.778 -0.46 -0.00    +0.000 A  
DOCKED: ATOM     28  C   UNL     1     143.092  80.145 223.109 -0.66 -0.00    +0.000 A  
DOCKED: ATOM     29  C   UNL     1     142.236  81.011 223.792 -0.65 -0.00    +0.000 A  
DOCKED: ENDBRANCH  22  24
DOCKED: ENDBRANCH  19  22
DOCKED: ENDBRANCH  15  18
DOCKED: TORSDOF 4
DOCKED: TER
DOCKED: ENDMDL
________________________________________________________________________________


    FINAL DOCKED STATE:
    ________________________


Run:   17 / 20
Time taken for this run:   0.034s

DOCKED: MODEL        17
DOCKED: USER    Run = 17
DOCKED: USER
DOCKED: USER    Estimated Free Energy of Binding    =  -7.55 kcal/mol  [=(1)+(2)+(3)-(4)]
DOCKED: USER
DOCKED: USER    (1) Final Intermolecular Energy     =  -8.74 kcal/mol
DOCKED: USER        vdW + Hbond + desolv Energy     =  -8.86 kcal/mol
DOCKED: USER        Electrostatic Energy            =  +0.12 kcal/mol
DOCKED: USER        Moving Ligand-Fixed Receptor    =  -8.74 kcal/mol
DOCKED: USER        Moving Ligand-Moving Receptor   =  +0.00 kcal/mol
DOCKED: USER    (2) Final Total Internal Energy     =  -0.89 kcal/mol
DOCKED: USER    (3) Torsional Free Energy           =  +1.19 kcal/mol
DOCKED: USER    (4) Unbound System's Energy         =  -0.89 kcal/mol
DOCKED: USER
DOCKED: USER
DOCKED: REMARK SMILES [H]/N=c1\[n-]c2nc3ccccn3c(=O)c2cc1C(=O)N[C@@H](C)c1ccccc1
DOCKED: REMARK SMILES IDX 3 1 4 2 5 3 6 4 7 5 8 6 9 7 10 8 11 9 12 10 13 11 14 12
DOCKED: REMARK SMILES IDX 15 13 16 14 17 15 2 16 1 17 18 18 20 19 19 20 21 22 22 23
DOCKED: REMARK SMILES IDX 23 24 24 25 28 26 25 27 27 28 26 29
DOCKED: REMARK H PARENT 20 21
DOCKED: USER                              x       y       z     vdW  Elec       q    Type
DOCKED: USER                           _______ _______ _______ _____ _____    ______ ____
DOCKED: ROOT
DOCKED: ATOM      1  C   UNL     1     143.784  74.985 219.768 -0.40 -0.01    +0.015 A  
DOCKED: ATOM      2  N   UNL     1     144.771  74.085 219.501 -0.12 +0.10    -0.357 NA 
DOCKED: ATOM      3  C   UNL     1     144.562  72.746 219.552 -0.32 -0.00    +0.025 A  
DOCKED: ATOM      4  N   UNL     1     145.577  71.895 219.276 -0.43 -0.19    -0.345 NA 
DOCKED: ATOM      5  C   UNL     1     145.404  70.549 219.314 -0.26 +0.03    +0.069 A  
DOCKED: ATOM      6  C   UNL     1     146.489  69.717 219.019 -0.30 +0.02    +0.030 A  
DOCKED: ATOM      7  C   UNL     1     146.325  68.334 219.054 -0.41 +0.00    +0.004 A  
DOCKED: ATOM      8  C   UNL     1     145.085  67.795 219.381 -0.45 -0.00    +0.019 A  
DOCKED: ATOM      9  C   UNL     1     144.017  68.647 219.672 -0.26 +0.00    +0.095 A  
DOCKED: ATOM     10  N   UNL     1     144.175  70.011 219.638 -0.12 -0.02    -0.281 N  
DOCKED: ATOM     11  C   UNL     1     143.121  70.846 219.925 -0.10 -0.02    +0.263 A  
DOCKED: ATOM     12  O   UNL     1     141.989  70.369 220.224 -0.06 +0.03    -0.268 OA 
DOCKED: ATOM     13  C   UNL     1     143.298  72.241 219.888 -0.21 -0.01    +0.054 A  
DOCKED: ATOM     14  C   UNL     1     142.261  73.145 220.168 -0.20 -0.01    +0.029 A  
DOCKED: ATOM     15  C   UNL     1     142.492  74.531 220.116 -0.26 -0.02    +0.052 A  
DOCKED: ENDROOT
DOCKED: BRANCH   1  16
DOCKED: ATOM     16  N   UNL     1     144.052  76.252 219.718 -0.10 +0.31    -0.412 NA 
DOCKED: ATOM     17  H   UNL     1     144.452  76.761 220.538 -0.50 -0.08    +0.076 HD 
DOCKED: ENDBRANCH   1  16
DOCKED: BRANCH  15  18
DOCKED: ATOM     18  C   UNL     1     141.379  75.473 220.399 -0.16 -0.09    +0.252 C  
DOCKED: ATOM     19  N   UNL     1     141.643  76.755 221.000 -0.07 +0.19    -0.345 N  
DOCKED: ATOM     20  O   UNL     1     140.197  75.140 220.115 -0.06 +0.07    -0.269 OA 
DOCKED: ATOM     21  H   UNL     1     142.635  77.071 221.092 -0.44 -0.17    +0.164 HD 
DOCKED: BRANCH  19  22
DOCKED: ATOM     22  C   UNL     1     140.603  77.658 221.507 -0.28 -0.04    +0.109 C  
DOCKED: ATOM     23  C   UNL     1     139.576  76.892 222.351 -0.33 -0.01    +0.036 C  
DOCKED: BRANCH  22  24
DOCKED: ATOM     24  C   UNL     1     141.228  78.864 222.192 -0.41 +0.01    -0.026 A  
DOCKED: ATOM     25  C   UNL     1     141.700  78.718 223.509 -0.60 -0.00    +0.006 A  
DOCKED: ATOM     26  C   UNL     1     141.297  80.136 221.585 -0.37 -0.00    +0.006 A  
DOCKED: ATOM     27  C   UNL     1     142.249  79.806 224.194 -0.49 -0.00    +0.000 A  
DOCKED: ATOM     28  C   UNL     1     141.846  81.221 222.275 -0.50 -0.00    +0.000 A  
DOCKED: ATOM     29  C   UNL     1     142.325  81.056 223.576 -0.63 -0.00    +0.000 A  
DOCKED: ENDBRANCH  22  24
DOCKED: ENDBRANCH  19  22
DOCKED: ENDBRANCH  15  18
DOCKED: TORSDOF 4
DOCKED: TER
DOCKED: ENDMDL
________________________________________________________________________________


    FINAL DOCKED STATE:
    ________________________


Run:   18 / 20
Time taken for this run:   0.034s

DOCKED: MODEL        18
DOCKED: USER    Run = 18
DOCKED: USER
DOCKED: USER    Estimated Free Energy of Binding    =  -7.55 kcal/mol  [=(1)+(2)+(3)-(4)]
DOCKED: USER
DOCKED: USER    (1) Final Intermolecular Energy     =  -8.74 kcal/mol
DOCKED: USER        vdW + Hbond + desolv Energy     =  -8.88 kcal/mol
DOCKED: USER        Electrostatic Energy            =  +0.13 kcal/mol
DOCKED: USER        Moving Ligand-Fixed Receptor    =  -8.74 kcal/mol
DOCKED: USER        Moving Ligand-Moving Receptor   =  +0.00 kcal/mol
DOCKED: USER    (2) Final Total Internal Energy     =  -0.88 kcal/mol
DOCKED: USER    (3) Torsional Free Energy           =  +1.19 kcal/mol
DOCKED: USER    (4) Unbound System's Energy         =  -0.88 kcal/mol
DOCKED: USER
DOCKED: USER
DOCKED: REMARK SMILES [H]/N=c1\[n-]c2nc3ccccn3c(=O)c2cc1C(=O)N[C@@H](C)c1ccccc1
DOCKED: REMARK SMILES IDX 3 1 4 2 5 3 6 4 7 5 8 6 9 7 10 8 11 9 12 10 13 11 14 12
DOCKED: REMARK SMILES IDX 15 13 16 14 17 15 2 16 1 17 18 18 20 19 19 20 21 22 22 23
DOCKED: REMARK SMILES IDX 23 24 24 25 28 26 25 27 27 28 26 29
DOCKED: REMARK H PARENT 20 21
DOCKED: USER                              x       y       z     vdW  Elec       q    Type
DOCKED: USER                           _______ _______ _______ _____ _____    ______ ____
DOCKED: ROOT
DOCKED: ATOM      1  C   UNL     1     143.756  75.032 219.773 -0.40 -0.01    +0.015 A  
DOCKED: ATOM      2  N   UNL     1     144.744  74.133 219.502 -0.12 +0.11    -0.357 NA 
DOCKED: ATOM      3  C   UNL     1     144.538  72.793 219.556 -0.32 -0.00    +0.025 A  
DOCKED: ATOM      4  N   UNL     1     145.554  71.945 219.276 -0.43 -0.18    -0.345 NA 
DOCKED: ATOM      5  C   UNL     1     145.385  70.598 219.317 -0.26 +0.03    +0.069 A  
DOCKED: ATOM      6  C   UNL     1     146.470  69.768 219.018 -0.30 +0.02    +0.030 A  
DOCKED: ATOM      7  C   UNL     1     146.309  68.385 219.056 -0.41 +0.00    +0.004 A  
DOCKED: ATOM      8  C   UNL     1     145.073  67.844 219.391 -0.44 -0.00    +0.019 A  
DOCKED: ATOM      9  C   UNL     1     144.004  68.694 219.685 -0.26 +0.00    +0.095 A  
DOCKED: ATOM     10  N   UNL     1     144.159  70.058 219.649 -0.12 -0.02    -0.281 N  
DOCKED: ATOM     11  C   UNL     1     143.104  70.891 219.940 -0.11 -0.02    +0.263 A  
DOCKED: ATOM     12  O   UNL     1     141.975  70.412 220.246 -0.06 +0.03    -0.268 OA 
DOCKED: ATOM     13  C   UNL     1     143.277  72.287 219.900 -0.21 -0.01    +0.054 A  
DOCKED: ATOM     14  C   UNL     1     142.240  73.188 220.184 -0.20 -0.01    +0.029 A  
DOCKED: ATOM     15  C   UNL     1     142.467  74.574 220.128 -0.26 -0.02    +0.052 A  
DOCKED: ENDROOT
DOCKED: BRANCH   1  16
DOCKED: ATOM     16  N   UNL     1     144.021  76.299 219.719 -0.11 +0.31    -0.412 NA 
DOCKED: ATOM     17  H   UNL     1     144.440  76.807 220.531 -0.51 -0.08    +0.076 HD 
DOCKED: ENDBRANCH   1  16
DOCKED: BRANCH  15  18
DOCKED: ATOM     18  C   UNL     1     141.354  75.515 220.416 -0.16 -0.09    +0.252 C  
DOCKED: ATOM     19  N   UNL     1     141.620  76.809 220.986 -0.08 +0.19    -0.345 N  
DOCKED: ATOM     20  O   UNL     1     140.168  75.168 220.162 -0.06 +0.07    -0.269 OA 
DOCKED: ATOM     21  H   UNL     1     142.611  77.134 221.052 -0.44 -0.16    +0.164 HD 
DOCKED: BRANCH  19  22
DOCKED: ATOM     22  C   UNL     1     140.585  77.715 221.497 -0.27 -0.04    +0.109 C  
DOCKED: ATOM     23  C   UNL     1     139.550  76.949 222.333 -0.33 -0.01    +0.036 C  
DOCKED: BRANCH  22  24
DOCKED: ATOM     24  C   UNL     1     141.214  78.912 222.193 -0.41 +0.01    -0.026 A  
DOCKED: ATOM     25  C   UNL     1     141.667  78.758 223.516 -0.60 -0.00    +0.006 A  
DOCKED: ATOM     26  C   UNL     1     141.306  80.185 221.590 -0.37 -0.00    +0.006 A  
DOCKED: ATOM     27  C   UNL     1     142.220  79.838 224.210 -0.49 -0.00    +0.000 A  
DOCKED: ATOM     28  C   UNL     1     141.860  81.261 222.289 -0.50 -0.00    +0.000 A  
DOCKED: ATOM     29  C   UNL     1     142.319  81.088 223.596 -0.63 -0.00    +0.000 A  
DOCKED: ENDBRANCH  22  24
DOCKED: ENDBRANCH  19  22
DOCKED: ENDBRANCH  15  18
DOCKED: TORSDOF 4
DOCKED: TER
DOCKED: ENDMDL
________________________________________________________________________________


    FINAL DOCKED STATE:
    ________________________


Run:   19 / 20
Time taken for this run:   0.034s

DOCKED: MODEL        19
DOCKED: USER    Run = 19
DOCKED: USER
DOCKED: USER    Estimated Free Energy of Binding    =  -7.60 kcal/mol  [=(1)+(2)+(3)-(4)]
DOCKED: USER
DOCKED: USER    (1) Final Intermolecular Energy     =  -8.79 kcal/mol
DOCKED: USER        vdW + Hbond + desolv Energy     =  -8.93 kcal/mol
DOCKED: USER        Electrostatic Energy            =  +0.13 kcal/mol
DOCKED: USER        Moving Ligand-Fixed Receptor    =  -8.79 kcal/mol
DOCKED: USER        Moving Ligand-Moving Receptor   =  +0.00 kcal/mol
DOCKED: USER    (2) Final Total Internal Energy     =  -0.88 kcal/mol
DOCKED: USER    (3) Torsional Free Energy           =  +1.19 kcal/mol
DOCKED: USER    (4) Unbound System's Energy         =  -0.88 kcal/mol
DOCKED: USER
DOCKED: USER
DOCKED: REMARK SMILES [H]/N=c1\[n-]c2nc3ccccn3c(=O)c2cc1C(=O)N[C@@H](C)c1ccccc1
DOCKED: REMARK SMILES IDX 3 1 4 2 5 3 6 4 7 5 8 6 9 7 10 8 11 9 12 10 13 11 14 12
DOCKED: REMARK SMILES IDX 15 13 16 14 17 15 2 16 1 17 18 18 20 19 19 20 21 22 22 23
DOCKED: REMARK SMILES IDX 23 24 24 25 28 26 25 27 27 28 26 29
DOCKED: REMARK H PARENT 20 21
DOCKED: USER                              x       y       z     vdW  Elec       q    Type
DOCKED: USER                           _______ _______ _______ _____ _____    ______ ____
DOCKED: ROOT
DOCKED: ATOM      1  C   UNL     1     143.719  75.044 219.786 -0.40 -0.01    +0.015 A  
DOCKED: ATOM      2  N   UNL     1     144.710  74.153 219.502 -0.11 +0.11    -0.357 NA 
DOCKED: ATOM      3  C   UNL     1     144.518  72.812 219.563 -0.31 -0.00    +0.025 A  
DOCKED: ATOM      4  N   UNL     1     145.537  71.971 219.269 -0.43 -0.18    -0.345 NA 
DOCKED: ATOM      5  C   UNL     1     145.380  70.623 219.316 -0.26 +0.03    +0.069 A  
DOCKED: ATOM      6  C   UNL     1     146.467  69.802 219.002 -0.29 +0.02    +0.030 A  
DOCKED: ATOM      7  C   UNL     1     146.319  68.418 219.047 -0.41 +0.00    +0.004 A  
DOCKED: ATOM      8  C   UNL     1     145.093  67.866 219.403 -0.45 -0.00    +0.019 A  
DOCKED: ATOM      9  C   UNL     1     144.022  68.708 219.713 -0.26 +0.00    +0.095 A  
DOCKED: ATOM     10  N   UNL     1     144.164  70.074 219.670 -0.12 -0.02    -0.281 N  
DOCKED: ATOM     11  C   UNL     1     143.107  70.898 219.976 -0.11 -0.02    +0.263 A  
DOCKED: ATOM     12  O   UNL     1     141.988  70.409 220.302 -0.05 +0.03    -0.268 OA 
DOCKED: ATOM     13  C   UNL     1     143.267  72.295 219.929 -0.22 -0.01    +0.054 A  
DOCKED: ATOM     14  C   UNL     1     142.227  73.188 220.228 -0.21 -0.01    +0.029 A  
DOCKED: ATOM     15  C   UNL     1     142.440  74.576 220.164 -0.26 -0.02    +0.052 A  
DOCKED: ENDROOT
DOCKED: BRANCH   1  16
DOCKED: ATOM     16  N   UNL     1     143.972  76.313 219.725 -0.12 +0.31    -0.412 NA 
DOCKED: ATOM     17  H   UNL     1     144.458  76.814 220.502 -0.51 -0.08    +0.076 HD 
DOCKED: ENDBRANCH   1  16
DOCKED: BRANCH  15  18
DOCKED: ATOM     18  C   UNL     1     141.324  75.507 220.468 -0.17 -0.09    +0.252 C  
DOCKED: ATOM     19  N   UNL     1     141.582  76.780 221.090 -0.07 +0.19    -0.345 N  
DOCKED: ATOM     20  O   UNL     1     140.142  75.173 220.182 -0.07 +0.07    -0.269 OA 
DOCKED: ATOM     21  H   UNL     1     142.573  77.099 221.184 -0.45 -0.17    +0.164 HD 
DOCKED: BRANCH  19  22
DOCKED: ATOM     22  C   UNL     1     140.539  77.668 221.616 -0.28 -0.04    +0.109 C  
DOCKED: ATOM     23  C   UNL     1     139.467  76.869 222.369 -0.32 -0.01    +0.036 C  
DOCKED: BRANCH  22  24
DOCKED: ATOM     24  C   UNL     1     141.157  78.815 222.401 -0.43 +0.01    -0.026 A  
DOCKED: ATOM     25  C   UNL     1     140.303  79.684 223.103 -0.43 -0.00    +0.006 A  
DOCKED: ATOM     26  C   UNL     1     142.544  79.079 222.404 -0.44 -0.00    +0.006 A  
DOCKED: ATOM     27  C   UNL     1     140.820  80.774 223.811 -0.45 -0.00    +0.000 A  
DOCKED: ATOM     28  C   UNL     1     143.055  80.170 223.113 -0.66 -0.00    +0.000 A  
DOCKED: ATOM     29  C   UNL     1     142.195  81.014 223.817 -0.65 -0.00    +0.000 A  
DOCKED: ENDBRANCH  22  24
DOCKED: ENDBRANCH  19  22
DOCKED: ENDBRANCH  15  18
DOCKED: TORSDOF 4
DOCKED: TER
DOCKED: ENDMDL
________________________________________________________________________________


    FINAL DOCKED STATE:
    ________________________


Run:   20 / 20
Time taken for this run:   0.034s

DOCKED: MODEL        20
DOCKED: USER    Run = 20
DOCKED: USER
DOCKED: USER    Estimated Free Energy of Binding    =  -7.37 kcal/mol  [=(1)+(2)+(3)-(4)]
DOCKED: USER
DOCKED: USER    (1) Final Intermolecular Energy     =  -8.56 kcal/mol
DOCKED: USER        vdW + Hbond + desolv Energy     =  -8.68 kcal/mol
DOCKED: USER        Electrostatic Energy            =  +0.11 kcal/mol
DOCKED: USER        Moving Ligand-Fixed Receptor    =  -8.56 kcal/mol
DOCKED: USER        Moving Ligand-Moving Receptor   =  +0.00 kcal/mol
DOCKED: USER    (2) Final Total Internal Energy     =  -0.83 kcal/mol
DOCKED: USER    (3) Torsional Free Energy           =  +1.19 kcal/mol
DOCKED: USER    (4) Unbound System's Energy         =  -0.83 kcal/mol
DOCKED: USER
DOCKED: USER
DOCKED: REMARK SMILES [H]/N=c1\[n-]c2nc3ccccn3c(=O)c2cc1C(=O)N[C@@H](C)c1ccccc1
DOCKED: REMARK SMILES IDX 3 1 4 2 5 3 6 4 7 5 8 6 9 7 10 8 11 9 12 10 13 11 14 12
DOCKED: REMARK SMILES IDX 15 13 16 14 17 15 2 16 1 17 18 18 20 19 19 20 21 22 22 23
DOCKED: REMARK SMILES IDX 23 24 24 25 28 26 25 27 27 28 26 29
DOCKED: REMARK H PARENT 20 21
DOCKED: USER                              x       y       z     vdW  Elec       q    Type
DOCKED: USER                           _______ _______ _______ _____ _____    ______ ____
DOCKED: ROOT
DOCKED: ATOM      1  C   UNL     1     143.801  74.962 219.863 -0.40 -0.01    +0.015 A  
DOCKED: ATOM      2  N   UNL     1     144.740  74.071 219.439 -0.11 +0.10    -0.357 NA 
DOCKED: ATOM      3  C   UNL     1     144.542  72.730 219.490 -0.30 -0.00    +0.025 A  
DOCKED: ATOM      4  N   UNL     1     145.509  71.889 219.054 -0.46 -0.20    -0.345 NA 
DOCKED: ATOM      5  C   UNL     1     145.344  70.542 219.087 -0.26 +0.03    +0.069 A  
DOCKED: ATOM      6  C   UNL     1     146.377  69.721 218.623 -0.29 +0.02    +0.030 A  
DOCKED: ATOM      7  C   UNL     1     146.220  68.337 218.651 -0.38 +0.00    +0.004 A  
DOCKED: ATOM      8  C   UNL     1     145.040  67.786 219.139 -0.42 -0.00    +0.019 A  
DOCKED: ATOM      9  C   UNL     1     144.023  68.628 219.596 -0.26 -0.00    +0.095 A  
DOCKED: ATOM     10  N   UNL     1     144.174  69.993 219.571 -0.12 -0.02    -0.281 N  
DOCKED: ATOM     11  C   UNL     1     143.170  70.818 220.022 -0.11 -0.02    +0.263 A  
DOCKED: ATOM     12  O   UNL     1     142.093  70.330 220.468 +0.02 +0.03    -0.268 OA 
DOCKED: ATOM     13  C   UNL     1     143.339  72.214 219.991 -0.23 -0.01    +0.054 A  
DOCKED: ATOM     14  C   UNL     1     142.352  73.107 220.435 -0.24 -0.01    +0.029 A  
DOCKED: ATOM     15  C   UNL     1     142.571  74.494 220.381 -0.29 -0.02    +0.052 A  
DOCKED: ENDROOT
DOCKED: BRANCH   1  16
DOCKED: ATOM     16  N   UNL     1     144.058  76.230 219.803 -0.09 +0.31    -0.412 NA 
DOCKED: ATOM     17  H   UNL     1     144.425  76.755 220.628 -0.47 -0.08    +0.076 HD 
DOCKED: ENDBRANCH   1  16
DOCKED: BRANCH  15  18
DOCKED: ATOM     18  C   UNL     1     141.509  75.426 220.840 -0.20 -0.09    +0.252 C  
DOCKED: ATOM     19  N   UNL     1     141.395  76.743 220.267 -0.10 +0.16    -0.345 N  
DOCKED: ATOM     20  O   UNL     1     140.709  75.058 221.741 -0.53 +0.04    -0.269 OA 
DOCKED: ATOM     21  H   UNL     1     141.969  76.974 219.425 +0.06 -0.09    +0.164 HD 
DOCKED: BRANCH  19  22
DOCKED: ATOM     22  C   UNL     1     140.525  77.799 220.795 -0.19 -0.04    +0.109 C  
DOCKED: ATOM     23  C   UNL     1     139.182  77.221 221.262 -0.19 -0.01    +0.036 C  
DOCKED: BRANCH  22  24
DOCKED: ATOM     24  C   UNL     1     141.261  78.633 221.832 -0.38 +0.01    -0.026 A  
DOCKED: ATOM     25  C   UNL     1     141.207  78.231 223.179 -0.50 -0.00    +0.006 A  
DOCKED: ATOM     26  C   UNL     1     141.944  79.825 221.509 -0.42 -0.00    +0.006 A  
DOCKED: ATOM     27  C   UNL     1     141.837  78.984 224.174 -0.58 -0.00    +0.000 A  
DOCKED: ATOM     28  C   UNL     1     142.573  80.574 222.508 -0.58 -0.00    +0.000 A  
DOCKED: ATOM     29  C   UNL     1     142.522  80.153 223.838 -0.65 -0.00    +0.000 A  
DOCKED: ENDBRANCH  22  24
DOCKED: ENDBRANCH  19  22
DOCKED: ENDBRANCH  15  18
DOCKED: TORSDOF 4
DOCKED: TER
DOCKED: ENDMDL
________________________________________________________________________________


    CLUSTERING HISTOGRAM
    ____________________


________________________________________________________________________________
     |           |     |           |     |
Clus | Lowest    | Run | Mean      | Num | Histogram
-ter | Binding   |     | Binding   | in  |
Rank | Energy    |     | Energy    | Clus|    5    10   15   20   25   30   35
_____|___________|_____|___________|_____|____:____|____:____|____:____|____:___
   1 |     -7.60 |  12 |     -7.55 |  18 |##################
   2 |     -7.19 |   1 |     -7.19 |   1 |#
   3 |     -7.18 |   6 |     -7.18 |   1 |#
_____|___________|_____|___________|_____|______________________________________


    RMSD TABLE
    __________


_______________________________________________________________________
     |      |      |           |         |                 |
Rank | Sub- | Run  | Binding   | Cluster | Reference       | Grep
     | Rank |      | Energy    | RMSD    | RMSD            | Pattern
_____|______|______|___________|_________|_________________|___________
   1      1     12       -7.60      0.00    269.70           RANKING
   1      2     19       -7.60      0.02    269.69           RANKING
   1      3      2       -7.60      0.01    269.70           RANKING
   1      4      8       -7.59      0.02    269.69           RANKING
   1      5     16       -7.59      0.02    269.69           RANKING
   1      6     14       -7.58      0.08    269.71           RANKING
   1      7     13       -7.57      0.08    269.72           RANKING
   1      8     10       -7.55      0.53    269.66           RANKING
   1      9     18       -7.55      0.54    269.66           RANKING
   1     10     11       -7.55      0.54    269.66           RANKING
   1     11     17       -7.55      0.54    269.65           RANKING
   1     12      5       -7.55      0.54    269.66           RANKING
   1     13      3       -7.54      0.54    269.65           RANKING
   1     14     15       -7.53      0.16    269.72           RANKING
   1     15      9       -7.53      1.95    269.63           RANKING
   1     16      4       -7.50      1.95    269.59           RANKING
   1     17      7       -7.50      1.95    269.64           RANKING
   1     18     20       -7.37      0.80    269.53           RANKING
   2      1      1       -7.19      0.00    269.29           RANKING
   3      1      6       -7.18      0.00    269.50           RANKING

Run time 0.654 sec
Idle time 0.000 sec
