AutoDock-GPU version: v1.6

**********************************************************
**    AutoDock-GPU AUTODOCKTOOLS-COMPATIBLE DLG FILE    **
**********************************************************


    DOCKING PARAMETERS
    ________________________


Ligand file:                               /home/a/REINVENT4/ReinventStudies/scoringData/graph-dock/graph-DockGPU/node-autodockgpu/inputs/HDANWICVGDYKAH-BQAWMTLJNA-M.pdbqt
Grid fld file:                             /home/a/REINVENT4/ReinventStudies/mols/Rad51/maps/rad51_receptor.maps.fld

Random seed:                               42
Number of runs:                            20
Number of energy evaluations:              1132076
Number of generations:                     42000
Size of population:                        150
Rate of crossover:                         80.000000%
Tournament selection probability limit:    60.000000%
Rate of mutation:                          2.000000%
Maximal allowed delta movement:            +/- 6.000000A
Maximal allowed delta angle:               +/- 90.000000

Rate of local search:                      100.000000%
Maximal number of local search iterations: 300
Rho lower bound:                           0.010000
Spread of local search delta movement:     2.000000A
Spread of local search delta angle:        74.999999
Limit of consecutive successes/failures:   4

Handle symmetry during clustering:         YES
RMSD tolerance:                            2.000000A

Program call in command line was:          /home/a/REINVENT4/ReinventStudies/adgpu-v1.6_linux_x64_cuda12_128wi --filelist batch.txt --heuristics 1 --nrun 20 --psize 150 --lsit 300 --seed 42 --heurmax 12000000 


    GRID PARAMETERS
    ________________________


Receptor name:                             rad51_receptor
Number of grid points (x, y, z):           53, 53, 53
Grid center (x, y, z):                     139.950000, 75.640000, 221.970000A
Grid size (x, y, z):                       19.500000, 19.500000, 19.500000A
Grid spacing:                              0.375000A


    LIGAND PARAMETERS
    ________________________


Ligand name:                               /home/a/REINVENT4/ReinventStudies/scoringData/graph-dock/graph-DockGPU/node-autodockgpu/inputs/HDANWICVGDYKAH-BQAWMTLJNA-M
Number of atoms:                           29
Number of rotatable bonds:                 4
Number of atom types:                      6


    DUMMY DATA (only for ADT-compatibility)
    ________________________


DPF> outlev 1
DPF> ga_run 20
DPF> fld /home/a/REINVENT4/ReinventStudies/mols/Rad51/maps/rad51_receptor.maps.fld
DPF> move /home/a/REINVENT4/ReinventStudies/scoringData/graph-dock/graph-DockGPU/node-autodockgpu/inputs/HDANWICVGDYKAH-BQAWMTLJNA-M.pdbqt


    COUNTER STATES
    ________________________


Number of energy evaluations performed:    525835
Number of generations used:                30


    INPUT LIGAND PDBQT FILE:
    ________________________


INPUT-LIGAND-PDBQT: REMARK SMILES [H]/N=c1/[n-]c2nc3ccccn3c(=O)c2cc1C(=O)N[C@@H](C)c1ccccc1
INPUT-LIGAND-PDBQT: REMARK SMILES IDX 3 1 4 2 5 3 6 4 7 5 8 6 9 7 10 8 11 9 12 10 13 11 14 12
INPUT-LIGAND-PDBQT: REMARK SMILES IDX 15 13 16 14 17 15 2 16 1 17 18 18 20 19 19 20 21 22 22 23
INPUT-LIGAND-PDBQT: REMARK SMILES IDX 23 24 24 25 28 26 25 27 27 28 26 29
INPUT-LIGAND-PDBQT: REMARK H PARENT 20 21
INPUT-LIGAND-PDBQT: ROOT
INPUT-LIGAND-PDBQT: ATOM      1  C   UNL     1       1.090  -1.883  -1.509  1.00  0.00     0.015 A 
INPUT-LIGAND-PDBQT: ATOM      2  N   UNL     1       0.023  -2.693  -1.738  1.00  0.00    -0.357 NA
INPUT-LIGAND-PDBQT: ATOM      3  C   UNL     1      -1.227  -2.396  -1.299  1.00  0.00     0.025 A 
INPUT-LIGAND-PDBQT: ATOM      4  N   UNL     1      -2.250  -3.243  -1.559  1.00  0.00    -0.345 NA
INPUT-LIGAND-PDBQT: ATOM      5  C   UNL     1      -3.514  -2.976  -1.140  1.00  0.00     0.069 A 
INPUT-LIGAND-PDBQT: ATOM      6  C   UNL     1      -4.534  -3.886  -1.435  1.00  0.00     0.030 A 
INPUT-LIGAND-PDBQT: ATOM      7  C   UNL     1      -5.834  -3.624  -1.012  1.00  0.00     0.004 A 
INPUT-LIGAND-PDBQT: ATOM      8  C   UNL     1      -6.106  -2.460  -0.300  1.00  0.00     0.019 A 
INPUT-LIGAND-PDBQT: ATOM      9  C   UNL     1      -5.071  -1.567  -0.017  1.00  0.00     0.095 A 
INPUT-LIGAND-PDBQT: ATOM     10  N   UNL     1      -3.787  -1.822  -0.433  1.00  0.00    -0.281 N 
INPUT-LIGAND-PDBQT: ATOM     11  C   UNL     1      -2.771  -0.939  -0.153  1.00  0.00     0.263 A 
INPUT-LIGAND-PDBQT: ATOM     12  O   UNL     1      -3.004   0.122   0.493  1.00  0.00    -0.268 OA
INPUT-LIGAND-PDBQT: ATOM     13  C   UNL     1      -1.461  -1.214  -0.586  1.00  0.00     0.054 A 
INPUT-LIGAND-PDBQT: ATOM     14  C   UNL     1      -0.380  -0.357  -0.326  1.00  0.00     0.029 A 
INPUT-LIGAND-PDBQT: ATOM     15  C   UNL     1       0.911  -0.683  -0.771  1.00  0.00     0.052 A 
INPUT-LIGAND-PDBQT: ENDROOT
INPUT-LIGAND-PDBQT: BRANCH   1  16
INPUT-LIGAND-PDBQT: ATOM     16  N   UNL     1       2.237  -2.222  -2.013  1.00  0.00    -0.412 NA
INPUT-LIGAND-PDBQT: ATOM     17  H   UNL     1       3.111  -1.660  -1.933  1.00  0.00     0.076 HD
INPUT-LIGAND-PDBQT: ENDBRANCH   1  16
INPUT-LIGAND-PDBQT: BRANCH  15  18
INPUT-LIGAND-PDBQT: ATOM     18  C   UNL     1       2.029   0.222  -0.422  1.00  0.00     0.252 C 
INPUT-LIGAND-PDBQT: ATOM     19  N   UNL     1       1.884   1.643  -0.578  1.00  0.00    -0.345 N 
INPUT-LIGAND-PDBQT: ATOM     20  O   UNL     1       3.096  -0.256   0.052  1.00  0.00    -0.269 OA
INPUT-LIGAND-PDBQT: ATOM     21  H   UNL     1       1.015   2.002  -1.035  1.00  0.00     0.164 HD
INPUT-LIGAND-PDBQT: BRANCH  19  22
INPUT-LIGAND-PDBQT: ATOM     22  C   UNL     1       2.952   2.584  -0.222  1.00  0.00     0.109 C 
INPUT-LIGAND-PDBQT: ATOM     23  C   UNL     1       4.009   2.629  -1.330  1.00  0.00     0.036 C 
INPUT-LIGAND-PDBQT: BRANCH  22  24
INPUT-LIGAND-PDBQT: ATOM     24  C   UNL     1       2.380   3.963   0.045  1.00  0.00    -0.026 A 
INPUT-LIGAND-PDBQT: ATOM     25  C   UNL     1       2.520   4.552   1.316  1.00  0.00     0.006 A 
INPUT-LIGAND-PDBQT: ATOM     26  C   UNL     1       1.700   4.674  -0.963  1.00  0.00     0.006 A 
INPUT-LIGAND-PDBQT: ATOM     27  C   UNL     1       1.994   5.822   1.570  1.00  0.00     0.000 A 
INPUT-LIGAND-PDBQT: ATOM     28  C   UNL     1       1.176   5.944  -0.704  1.00  0.00     0.000 A 
INPUT-LIGAND-PDBQT: ATOM     29  C   UNL     1       1.323   6.518   0.561  1.00  0.00     0.000 A 
INPUT-LIGAND-PDBQT: ENDBRANCH  22  24
INPUT-LIGAND-PDBQT: ENDBRANCH  19  22
INPUT-LIGAND-PDBQT: ENDBRANCH  15  18
INPUT-LIGAND-PDBQT: TORSDOF 4


    FINAL DOCKED STATE:
    ________________________


Run:   1 / 20
Time taken for this run:   0.021s

DOCKED: MODEL        1
DOCKED: USER    Run = 1
DOCKED: USER
DOCKED: USER    Estimated Free Energy of Binding    =  -7.69 kcal/mol  [=(1)+(2)+(3)-(4)]
DOCKED: USER
DOCKED: USER    (1) Final Intermolecular Energy     =  -8.88 kcal/mol
DOCKED: USER        vdW + Hbond + desolv Energy     =  -8.92 kcal/mol
DOCKED: USER        Electrostatic Energy            =  +0.03 kcal/mol
DOCKED: USER        Moving Ligand-Fixed Receptor    =  -8.88 kcal/mol
DOCKED: USER        Moving Ligand-Moving Receptor   =  +0.00 kcal/mol
DOCKED: USER    (2) Final Total Internal Energy     =  -0.89 kcal/mol
DOCKED: USER    (3) Torsional Free Energy           =  +1.19 kcal/mol
DOCKED: USER    (4) Unbound System's Energy         =  -0.89 kcal/mol
DOCKED: USER
DOCKED: USER
DOCKED: REMARK SMILES [H]/N=c1/[n-]c2nc3ccccn3c(=O)c2cc1C(=O)N[C@@H](C)c1ccccc1
DOCKED: REMARK SMILES IDX 3 1 4 2 5 3 6 4 7 5 8 6 9 7 10 8 11 9 12 10 13 11 14 12
DOCKED: REMARK SMILES IDX 15 13 16 14 17 15 2 16 1 17 18 18 20 19 19 20 21 22 22 23
DOCKED: REMARK SMILES IDX 23 24 24 25 28 26 25 27 27 28 26 29
DOCKED: REMARK H PARENT 20 21
DOCKED: USER                              x       y       z     vdW  Elec       q    Type
DOCKED: USER                           _______ _______ _______ _____ _____    ______ ____
DOCKED: ROOT
DOCKED: ATOM      1  C   UNL     1     133.823  70.415 226.259 -0.33 -0.00    +0.015 A  
DOCKED: ATOM      2  N   UNL     1     133.035  71.326 226.888 -0.18 +0.04    -0.357 NA 
DOCKED: ATOM      3  C   UNL     1     133.192  72.665 226.723 -0.39 -0.00    +0.025 A  
DOCKED: ATOM      4  N   UNL     1     132.374  73.523 227.376 -0.37 +0.04    -0.345 NA 
DOCKED: ATOM      5  C   UNL     1     132.499  74.868 227.231 -0.37 -0.00    +0.069 A  
DOCKED: ATOM      6  C   UNL     1     131.628  75.710 227.930 -0.32 +0.00    +0.030 A  
DOCKED: ATOM      7  C   UNL     1     131.744  77.090 227.790 -0.31 +0.00    +0.004 A  
DOCKED: ATOM      8  C   UNL     1     132.725  77.618 226.956 -0.28 -0.00    +0.019 A  
DOCKED: ATOM      9  C   UNL     1     133.583  76.757 226.269 -0.28 -0.01    +0.095 A  
DOCKED: ATOM     10  N   UNL     1     133.471  75.395 226.405 -0.21 -0.00    -0.281 N  
DOCKED: ATOM     11  C   UNL     1     134.317  74.551 225.725 -0.25 +0.00    +0.263 A  
DOCKED: ATOM     12  O   UNL     1     135.213  75.017 224.965 -0.30 +0.03    -0.268 OA 
DOCKED: ATOM     13  C   UNL     1     134.190  73.158 225.874 -0.27 +0.00    +0.054 A  
DOCKED: ATOM     14  C   UNL     1     135.027  72.244 225.214 -0.02 -0.00    +0.029 A  
DOCKED: ATOM     15  C   UNL     1     134.866  70.863 225.405 -0.15 -0.00    +0.052 A  
DOCKED: ENDROOT
DOCKED: BRANCH   1  16
DOCKED: ATOM     16  N   UNL     1     133.565  69.155 226.436 -0.61 -0.03    -0.412 NA 
DOCKED: ATOM     17  H   UNL     1     134.089  68.373 225.988 +0.01 -0.00    +0.076 HD 
DOCKED: ENDBRANCH   1  16
DOCKED: BRANCH  15  18
DOCKED: ATOM     18  C   UNL     1     135.809  69.941 224.734 -0.14 -0.02    +0.252 C  
DOCKED: ATOM     19  N   UNL     1     137.189  70.310 224.573 -0.08 +0.04    -0.345 N  
DOCKED: ATOM     20  O   UNL     1     135.408  68.811 224.341 -0.52 -0.00    -0.269 OA 
DOCKED: ATOM     21  H   UNL     1     137.475  71.277 224.848 +0.02 -0.03    +0.164 HD 
DOCKED: BRANCH  19  22
DOCKED: ATOM     22  C   UNL     1     138.169  69.422 223.938 -0.25 -0.01    +0.109 C  
DOCKED: ATOM     23  C   UNL     1     138.784  70.102 222.711 -0.20 -0.01    +0.036 C  
DOCKED: BRANCH  22  24
DOCKED: ATOM     24  C   UNL     1     139.240  69.015 224.932 -0.38 +0.00    -0.026 A  
DOCKED: ATOM     25  C   UNL     1     140.289  69.901 225.244 -0.44 -0.00    +0.006 A  
DOCKED: ATOM     26  C   UNL     1     139.210  67.752 225.555 -0.48 -0.00    +0.006 A  
DOCKED: ATOM     27  C   UNL     1     141.280  69.533 226.157 -0.52 -0.00    +0.000 A  
DOCKED: ATOM     28  C   UNL     1     140.204  67.388 226.468 -0.68 -0.00    +0.000 A  
DOCKED: ATOM     29  C   UNL     1     141.238  68.277 226.770 -0.60 -0.00    +0.000 A  
DOCKED: ENDBRANCH  22  24
DOCKED: ENDBRANCH  19  22
DOCKED: ENDBRANCH  15  18
DOCKED: TORSDOF 4
DOCKED: TER
DOCKED: ENDMDL
________________________________________________________________________________


    FINAL DOCKED STATE:
    ________________________


Run:   2 / 20
Time taken for this run:   0.021s

DOCKED: MODEL        2
DOCKED: USER    Run = 2
DOCKED: USER
DOCKED: USER    Estimated Free Energy of Binding    =  -7.27 kcal/mol  [=(1)+(2)+(3)-(4)]
DOCKED: USER
DOCKED: USER    (1) Final Intermolecular Energy     =  -8.46 kcal/mol
DOCKED: USER        vdW + Hbond + desolv Energy     =  -8.46 kcal/mol
DOCKED: USER        Electrostatic Energy            =  +0.00 kcal/mol
DOCKED: USER        Moving Ligand-Fixed Receptor    =  -8.46 kcal/mol
DOCKED: USER        Moving Ligand-Moving Receptor   =  +0.00 kcal/mol
DOCKED: USER    (2) Final Total Internal Energy     =  -1.05 kcal/mol
DOCKED: USER    (3) Torsional Free Energy           =  +1.19 kcal/mol
DOCKED: USER    (4) Unbound System's Energy         =  -1.05 kcal/mol
DOCKED: USER
DOCKED: USER
DOCKED: REMARK SMILES [H]/N=c1/[n-]c2nc3ccccn3c(=O)c2cc1C(=O)N[C@@H](C)c1ccccc1
DOCKED: REMARK SMILES IDX 3 1 4 2 5 3 6 4 7 5 8 6 9 7 10 8 11 9 12 10 13 11 14 12
DOCKED: REMARK SMILES IDX 15 13 16 14 17 15 2 16 1 17 18 18 20 19 19 20 21 22 22 23
DOCKED: REMARK SMILES IDX 23 24 24 25 28 26 25 27 27 28 26 29
DOCKED: REMARK H PARENT 20 21
DOCKED: USER                              x       y       z     vdW  Elec       q    Type
DOCKED: USER                           _______ _______ _______ _____ _____    ______ ____
DOCKED: ROOT
DOCKED: ATOM      1  C   UNL     1     141.762  73.824 220.922 -0.27 -0.00    +0.015 A  
DOCKED: ATOM      2  N   UNL     1     141.939  72.477 220.956 -0.09 +0.04    -0.357 NA 
DOCKED: ATOM      3  C   UNL     1     143.000  71.865 220.371 -0.24 -0.00    +0.025 A  
DOCKED: ATOM      4  N   UNL     1     143.122  70.519 220.440 +0.09 +0.03    -0.345 NA 
DOCKED: ATOM      5  C   UNL     1     144.172  69.873 219.871 -0.18 +0.01    +0.069 A  
DOCKED: ATOM      6  C   UNL     1     144.248  68.480 219.971 -0.29 +0.00    +0.030 A  
DOCKED: ATOM      7  C   UNL     1     145.320  67.806 219.393 -0.48 -0.00    +0.004 A  
DOCKED: ATOM      8  C   UNL     1     146.305  68.523 218.722 -0.35 +0.00    +0.019 A  
DOCKED: ATOM      9  C   UNL     1     146.207  69.913 218.634 -0.26 +0.07    +0.095 A  
DOCKED: ATOM     10  N   UNL     1     145.151  70.582 219.204 -0.14 -0.09    -0.281 N  
DOCKED: ATOM     11  C   UNL     1     145.059  71.951 219.116 -0.17 +0.08    +0.263 A  
DOCKED: ATOM     12  O   UNL     1     145.946  72.615 218.509 -0.75 -0.27    -0.268 OA 
DOCKED: ATOM     13  C   UNL     1     143.971  72.622 219.705 -0.25 -0.01    +0.054 A  
DOCKED: ATOM     14  C   UNL     1     143.817  74.016 219.644 -0.32 -0.01    +0.029 A  
DOCKED: ATOM     15  C   UNL     1     142.707  74.636 220.239 -0.29 -0.02    +0.052 A  
DOCKED: ENDROOT
DOCKED: BRANCH   1  16
DOCKED: ATOM     16  N   UNL     1     140.746  74.326 221.555 -0.42 +0.05    -0.412 NA 
DOCKED: ATOM     17  H   UNL     1     140.276  73.881 222.371 -0.04 +0.00    +0.076 HD 
DOCKED: ENDBRANCH   1  16
DOCKED: BRANCH  15  18
DOCKED: ATOM     18  C   UNL     1     142.556  76.102 220.099 -0.18 -0.15    +0.252 C  
DOCKED: ATOM     19  N   UNL     1     141.320  76.739 220.462 -0.10 +0.16    -0.345 N  
DOCKED: ATOM     20  O   UNL     1     143.530  76.795 219.697 -0.31 +0.22    -0.269 OA 
DOCKED: ATOM     21  H   UNL     1     140.512  76.132 220.727 +0.06 -0.05    +0.164 HD 
DOCKED: BRANCH  19  22
DOCKED: ATOM     22  C   UNL     1     141.129  78.191 220.366 -0.22 -0.05    +0.109 C  
DOCKED: ATOM     23  C   UNL     1     139.666  78.512 220.042 -0.10 -0.01    +0.036 C  
DOCKED: BRANCH  22  24
DOCKED: ATOM     24  C   UNL     1     141.568  78.872 221.648 -0.39 +0.01    -0.026 A  
DOCKED: ATOM     25  C   UNL     1     142.163  80.147 221.603 -0.45 -0.00    +0.006 A  
DOCKED: ATOM     26  C   UNL     1     141.393  78.247 222.898 -0.51 -0.00    +0.006 A  
DOCKED: ATOM     27  C   UNL     1     142.572  80.780 222.780 -0.59 -0.00    +0.000 A  
DOCKED: ATOM     28  C   UNL     1     141.803  78.884 224.073 -0.59 -0.00    +0.000 A  
DOCKED: ATOM     29  C   UNL     1     142.392  80.150 224.015 -0.58 -0.00    +0.000 A  
DOCKED: ENDBRANCH  22  24
DOCKED: ENDBRANCH  19  22
DOCKED: ENDBRANCH  15  18
DOCKED: TORSDOF 4
DOCKED: TER
DOCKED: ENDMDL
________________________________________________________________________________


    FINAL DOCKED STATE:
    ________________________


Run:   3 / 20
Time taken for this run:   0.021s

DOCKED: MODEL        3
DOCKED: USER    Run = 3
DOCKED: USER
DOCKED: USER    Estimated Free Energy of Binding    =  -7.69 kcal/mol  [=(1)+(2)+(3)-(4)]
DOCKED: USER
DOCKED: USER    (1) Final Intermolecular Energy     =  -8.88 kcal/mol
DOCKED: USER        vdW + Hbond + desolv Energy     =  -8.92 kcal/mol
DOCKED: USER        Electrostatic Energy            =  +0.04 kcal/mol
DOCKED: USER        Moving Ligand-Fixed Receptor    =  -8.88 kcal/mol
DOCKED: USER        Moving Ligand-Moving Receptor   =  +0.00 kcal/mol
DOCKED: USER    (2) Final Total Internal Energy     =  -0.89 kcal/mol
DOCKED: USER    (3) Torsional Free Energy           =  +1.19 kcal/mol
DOCKED: USER    (4) Unbound System's Energy         =  -0.89 kcal/mol
DOCKED: USER
DOCKED: USER
DOCKED: REMARK SMILES [H]/N=c1/[n-]c2nc3ccccn3c(=O)c2cc1C(=O)N[C@@H](C)c1ccccc1
DOCKED: REMARK SMILES IDX 3 1 4 2 5 3 6 4 7 5 8 6 9 7 10 8 11 9 12 10 13 11 14 12
DOCKED: REMARK SMILES IDX 15 13 16 14 17 15 2 16 1 17 18 18 20 19 19 20 21 22 22 23
DOCKED: REMARK SMILES IDX 23 24 24 25 28 26 25 27 27 28 26 29
DOCKED: REMARK H PARENT 20 21
DOCKED: USER                              x       y       z     vdW  Elec       q    Type
DOCKED: USER                           _______ _______ _______ _____ _____    ______ ____
DOCKED: ROOT
DOCKED: ATOM      1  C   UNL     1     133.846  70.438 226.246 -0.33 -0.00    +0.015 A  
DOCKED: ATOM      2  N   UNL     1     133.061  71.349 226.878 -0.18 +0.04    -0.357 NA 
DOCKED: ATOM      3  C   UNL     1     133.216  72.688 226.712 -0.39 -0.00    +0.025 A  
DOCKED: ATOM      4  N   UNL     1     132.402  73.546 227.369 -0.38 +0.04    -0.345 NA 
DOCKED: ATOM      5  C   UNL     1     132.525  74.891 227.223 -0.37 +0.00    +0.069 A  
DOCKED: ATOM      6  C   UNL     1     131.658  75.733 227.927 -0.34 +0.00    +0.030 A  
DOCKED: ATOM      7  C   UNL     1     131.774  77.113 227.785 -0.32 +0.00    +0.004 A  
DOCKED: ATOM      8  C   UNL     1     132.750  77.641 226.946 -0.28 -0.00    +0.019 A  
DOCKED: ATOM      9  C   UNL     1     133.604  76.780 226.255 -0.27 -0.01    +0.095 A  
DOCKED: ATOM     10  N   UNL     1     133.493  75.418 226.392 -0.21 -0.00    -0.281 N  
DOCKED: ATOM     11  C   UNL     1     134.336  74.574 225.708 -0.25 +0.00    +0.263 A  
DOCKED: ATOM     12  O   UNL     1     135.227  75.040 224.943 -0.30 +0.03    -0.268 OA 
DOCKED: ATOM     13  C   UNL     1     134.210  73.181 225.858 -0.27 +0.00    +0.054 A  
DOCKED: ATOM     14  C   UNL     1     135.044  72.267 225.194 -0.03 -0.00    +0.029 A  
DOCKED: ATOM     15  C   UNL     1     134.884  70.886 225.387 -0.15 -0.00    +0.052 A  
DOCKED: ENDROOT
DOCKED: BRANCH   1  16
DOCKED: ATOM     16  N   UNL     1     133.589  69.178 226.424 -0.61 -0.03    -0.412 NA 
DOCKED: ATOM     17  H   UNL     1     133.981  68.404 225.847 +0.02 -0.00    +0.076 HD 
DOCKED: ENDBRANCH   1  16
DOCKED: BRANCH  15  18
DOCKED: ATOM     18  C   UNL     1     135.824  69.964 224.711 -0.14 -0.02    +0.252 C  
DOCKED: ATOM     19  N   UNL     1     137.206  70.327 224.555 -0.08 +0.04    -0.345 N  
DOCKED: ATOM     20  O   UNL     1     135.417  68.840 224.309 -0.52 +0.00    -0.269 OA 
DOCKED: ATOM     21  H   UNL     1     137.496  71.291 224.838 +0.01 -0.03    +0.164 HD 
DOCKED: BRANCH  19  22
DOCKED: ATOM     22  C   UNL     1     138.183  69.438 223.917 -0.25 -0.01    +0.109 C  
DOCKED: ATOM     23  C   UNL     1     138.796  70.120 222.689 -0.20 -0.01    +0.036 C  
DOCKED: BRANCH  22  24
DOCKED: ATOM     24  C   UNL     1     139.256  69.027 224.907 -0.38 +0.00    -0.026 A  
DOCKED: ATOM     25  C   UNL     1     140.312  69.907 225.209 -0.44 -0.00    +0.006 A  
DOCKED: ATOM     26  C   UNL     1     139.218  67.767 225.535 -0.48 -0.00    +0.006 A  
DOCKED: ATOM     27  C   UNL     1     141.306  69.534 226.119 -0.52 -0.00    +0.000 A  
DOCKED: ATOM     28  C   UNL     1     140.214  67.399 226.445 -0.68 -0.00    +0.000 A  
DOCKED: ATOM     29  C   UNL     1     141.257  68.282 226.737 -0.60 -0.00    +0.000 A  
DOCKED: ENDBRANCH  22  24
DOCKED: ENDBRANCH  19  22
DOCKED: ENDBRANCH  15  18
DOCKED: TORSDOF 4
DOCKED: TER
DOCKED: ENDMDL
________________________________________________________________________________


    FINAL DOCKED STATE:
    ________________________


Run:   4 / 20
Time taken for this run:   0.021s

DOCKED: MODEL        4
DOCKED: USER    Run = 4
DOCKED: USER
DOCKED: USER    Estimated Free Energy of Binding    =  -7.69 kcal/mol  [=(1)+(2)+(3)-(4)]
DOCKED: USER
DOCKED: USER    (1) Final Intermolecular Energy     =  -8.89 kcal/mol
DOCKED: USER        vdW + Hbond + desolv Energy     =  -8.92 kcal/mol
DOCKED: USER        Electrostatic Energy            =  +0.03 kcal/mol
DOCKED: USER        Moving Ligand-Fixed Receptor    =  -8.89 kcal/mol
DOCKED: USER        Moving Ligand-Moving Receptor   =  +0.00 kcal/mol
DOCKED: USER    (2) Final Total Internal Energy     =  -0.89 kcal/mol
DOCKED: USER    (3) Torsional Free Energy           =  +1.19 kcal/mol
DOCKED: USER    (4) Unbound System's Energy         =  -0.89 kcal/mol
DOCKED: USER
DOCKED: USER
DOCKED: REMARK SMILES [H]/N=c1/[n-]c2nc3ccccn3c(=O)c2cc1C(=O)N[C@@H](C)c1ccccc1
DOCKED: REMARK SMILES IDX 3 1 4 2 5 3 6 4 7 5 8 6 9 7 10 8 11 9 12 10 13 11 14 12
DOCKED: REMARK SMILES IDX 15 13 16 14 17 15 2 16 1 17 18 18 20 19 19 20 21 22 22 23
DOCKED: REMARK SMILES IDX 23 24 24 25 28 26 25 27 27 28 26 29
DOCKED: REMARK H PARENT 20 21
DOCKED: USER                              x       y       z     vdW  Elec       q    Type
DOCKED: USER                           _______ _______ _______ _____ _____    ______ ____
DOCKED: ROOT
DOCKED: ATOM      1  C   UNL     1     133.832  70.440 226.277 -0.33 -0.00    +0.015 A  
DOCKED: ATOM      2  N   UNL     1     133.045  71.356 226.901 -0.18 +0.04    -0.357 NA 
DOCKED: ATOM      3  C   UNL     1     133.203  72.693 226.727 -0.39 -0.00    +0.025 A  
DOCKED: ATOM      4  N   UNL     1     132.387  73.556 227.376 -0.38 +0.04    -0.345 NA 
DOCKED: ATOM      5  C   UNL     1     132.512  74.900 227.223 -0.37 -0.00    +0.069 A  
DOCKED: ATOM      6  C   UNL     1     131.642  75.747 227.917 -0.33 +0.00    +0.030 A  
DOCKED: ATOM      7  C   UNL     1     131.759  77.126 227.769 -0.31 +0.00    +0.004 A  
DOCKED: ATOM      8  C   UNL     1     132.740  77.648 226.931 -0.28 -0.00    +0.019 A  
DOCKED: ATOM      9  C   UNL     1     133.596  76.783 226.248 -0.27 -0.01    +0.095 A  
DOCKED: ATOM     10  N   UNL     1     133.484  75.421 226.392 -0.21 -0.00    -0.281 N  
DOCKED: ATOM     11  C   UNL     1     134.329  74.573 225.717 -0.25 +0.00    +0.263 A  
DOCKED: ATOM     12  O   UNL     1     135.223  75.034 224.953 -0.30 +0.03    -0.268 OA 
DOCKED: ATOM     13  C   UNL     1     134.201  73.181 225.875 -0.27 +0.00    +0.054 A  
DOCKED: ATOM     14  C   UNL     1     135.036  72.262 225.219 -0.02 -0.00    +0.029 A  
DOCKED: ATOM     15  C   UNL     1     134.874  70.882 225.419 -0.14 -0.00    +0.052 A  
DOCKED: ENDROOT
DOCKED: BRANCH   1  16
DOCKED: ATOM     16  N   UNL     1     133.574  69.182 226.461 -0.61 -0.03    -0.412 NA 
DOCKED: ATOM     17  H   UNL     1     134.053  68.398 225.970 +0.02 -0.00    +0.076 HD 
DOCKED: ENDBRANCH   1  16
DOCKED: BRANCH  15  18
DOCKED: ATOM     18  C   UNL     1     135.816  69.956 224.753 -0.14 -0.02    +0.252 C  
DOCKED: ATOM     19  N   UNL     1     137.192  70.330 224.572 -0.08 +0.04    -0.345 N  
DOCKED: ATOM     20  O   UNL     1     135.417  68.818 224.381 -0.52 -0.00    -0.269 OA 
DOCKED: ATOM     21  H   UNL     1     137.475  71.303 224.830 +0.01 -0.03    +0.164 HD 
DOCKED: BRANCH  19  22
DOCKED: ATOM     22  C   UNL     1     138.171  69.438 223.942 -0.25 -0.01    +0.109 C  
DOCKED: ATOM     23  C   UNL     1     138.795  70.116 222.718 -0.20 -0.01    +0.036 C  
DOCKED: BRANCH  22  24
DOCKED: ATOM     24  C   UNL     1     139.235  69.024 224.940 -0.39 +0.00    -0.026 A  
DOCKED: ATOM     25  C   UNL     1     140.281  69.909 225.265 -0.45 -0.00    +0.006 A  
DOCKED: ATOM     26  C   UNL     1     139.201  67.757 225.555 -0.48 -0.00    +0.006 A  
DOCKED: ATOM     27  C   UNL     1     141.267  69.535 226.183 -0.52 -0.00    +0.000 A  
DOCKED: ATOM     28  C   UNL     1     140.189  67.388 226.472 -0.68 -0.00    +0.000 A  
DOCKED: ATOM     29  C   UNL     1     141.221  68.275 226.787 -0.61 -0.00    +0.000 A  
DOCKED: ENDBRANCH  22  24
DOCKED: ENDBRANCH  19  22
DOCKED: ENDBRANCH  15  18
DOCKED: TORSDOF 4
DOCKED: TER
DOCKED: ENDMDL
________________________________________________________________________________


    FINAL DOCKED STATE:
    ________________________


Run:   5 / 20
Time taken for this run:   0.021s

DOCKED: MODEL        5
DOCKED: USER    Run = 5
DOCKED: USER
DOCKED: USER    Estimated Free Energy of Binding    =  -7.68 kcal/mol  [=(1)+(2)+(3)-(4)]
DOCKED: USER
DOCKED: USER    (1) Final Intermolecular Energy     =  -8.88 kcal/mol
DOCKED: USER        vdW + Hbond + desolv Energy     =  -8.90 kcal/mol
DOCKED: USER        Electrostatic Energy            =  +0.03 kcal/mol
DOCKED: USER        Moving Ligand-Fixed Receptor    =  -8.88 kcal/mol
DOCKED: USER        Moving Ligand-Moving Receptor   =  +0.00 kcal/mol
DOCKED: USER    (2) Final Total Internal Energy     =  -0.89 kcal/mol
DOCKED: USER    (3) Torsional Free Energy           =  +1.19 kcal/mol
DOCKED: USER    (4) Unbound System's Energy         =  -0.89 kcal/mol
DOCKED: USER
DOCKED: USER
DOCKED: REMARK SMILES [H]/N=c1/[n-]c2nc3ccccn3c(=O)c2cc1C(=O)N[C@@H](C)c1ccccc1
DOCKED: REMARK SMILES IDX 3 1 4 2 5 3 6 4 7 5 8 6 9 7 10 8 11 9 12 10 13 11 14 12
DOCKED: REMARK SMILES IDX 15 13 16 14 17 15 2 16 1 17 18 18 20 19 19 20 21 22 22 23
DOCKED: REMARK SMILES IDX 23 24 24 25 28 26 25 27 27 28 26 29
DOCKED: REMARK H PARENT 20 21
DOCKED: USER                              x       y       z     vdW  Elec       q    Type
DOCKED: USER                           _______ _______ _______ _____ _____    ______ ____
DOCKED: ROOT
DOCKED: ATOM      1  C   UNL     1     133.826  70.384 226.269 -0.33 -0.00    +0.015 A  
DOCKED: ATOM      2  N   UNL     1     133.032  71.295 226.891 -0.18 +0.04    -0.357 NA 
DOCKED: ATOM      3  C   UNL     1     133.191  72.634 226.729 -0.39 -0.00    +0.025 A  
DOCKED: ATOM      4  N   UNL     1     132.368  73.492 227.376 -0.36 +0.04    -0.345 NA 
DOCKED: ATOM      5  C   UNL     1     132.494  74.837 227.234 -0.37 -0.00    +0.069 A  
DOCKED: ATOM      6  C   UNL     1     131.618  75.678 227.926 -0.32 +0.00    +0.030 A  
DOCKED: ATOM      7  C   UNL     1     131.736  77.058 227.789 -0.32 +0.00    +0.004 A  
DOCKED: ATOM      8  C   UNL     1     132.724  77.587 226.964 -0.28 -0.00    +0.019 A  
DOCKED: ATOM      9  C   UNL     1     133.587  76.727 226.284 -0.28 -0.01    +0.095 A  
DOCKED: ATOM     10  N   UNL     1     133.474  75.365 226.417 -0.21 -0.00    -0.281 N  
DOCKED: ATOM     11  C   UNL     1     134.326  74.521 225.744 -0.25 +0.00    +0.263 A  
DOCKED: ATOM     12  O   UNL     1     135.228  74.988 224.992 -0.30 +0.03    -0.268 OA 
DOCKED: ATOM     13  C   UNL     1     134.197  73.128 225.890 -0.27 +0.00    +0.054 A  
DOCKED: ATOM     14  C   UNL     1     135.039  72.215 225.236 -0.00 -0.00    +0.029 A  
DOCKED: ATOM     15  C   UNL     1     134.876  70.833 225.425 -0.15 -0.00    +0.052 A  
DOCKED: ENDROOT
DOCKED: BRANCH   1  16
DOCKED: ATOM     16  N   UNL     1     133.565  69.125 226.441 -0.62 -0.03    -0.412 NA 
DOCKED: ATOM     17  H   UNL     1     133.812  68.369 225.767 +0.02 -0.00    +0.076 HD 
DOCKED: ENDBRANCH   1  16
DOCKED: BRANCH  15  18
DOCKED: ATOM     18  C   UNL     1     135.825  69.912 224.761 -0.14 -0.02    +0.252 C  
DOCKED: ATOM     19  N   UNL     1     137.190  70.308 224.551 -0.08 +0.04    -0.345 N  
DOCKED: ATOM     20  O   UNL     1     135.442  68.760 224.417 -0.53 -0.00    -0.269 OA 
DOCKED: ATOM     21  H   UNL     1     137.459  71.291 224.786 +0.01 -0.03    +0.164 HD 
DOCKED: BRANCH  19  22
DOCKED: ATOM     22  C   UNL     1     138.176  69.422 223.923 -0.25 -0.01    +0.109 C  
DOCKED: ATOM     23  C   UNL     1     138.796  70.104 222.699 -0.20 -0.01    +0.036 C  
DOCKED: BRANCH  22  24
DOCKED: ATOM     24  C   UNL     1     139.243  69.017 224.922 -0.38 +0.00    -0.026 A  
DOCKED: ATOM     25  C   UNL     1     140.299  69.897 225.223 -0.44 -0.00    +0.006 A  
DOCKED: ATOM     26  C   UNL     1     139.200  67.763 225.561 -0.49 -0.00    +0.006 A  
DOCKED: ATOM     27  C   UNL     1     141.287  69.531 226.142 -0.52 -0.00    +0.000 A  
DOCKED: ATOM     28  C   UNL     1     140.189  67.400 226.479 -0.68 -0.00    +0.000 A  
DOCKED: ATOM     29  C   UNL     1     141.232  68.283 226.770 -0.60 -0.00    +0.000 A  
DOCKED: ENDBRANCH  22  24
DOCKED: ENDBRANCH  19  22
DOCKED: ENDBRANCH  15  18
DOCKED: TORSDOF 4
DOCKED: TER
DOCKED: ENDMDL
________________________________________________________________________________


    FINAL DOCKED STATE:
    ________________________


Run:   6 / 20
Time taken for this run:   0.021s

DOCKED: MODEL        6
DOCKED: USER    Run = 6
DOCKED: USER
DOCKED: USER    Estimated Free Energy of Binding    =  -7.69 kcal/mol  [=(1)+(2)+(3)-(4)]
DOCKED: USER
DOCKED: USER    (1) Final Intermolecular Energy     =  -8.88 kcal/mol
DOCKED: USER        vdW + Hbond + desolv Energy     =  -8.92 kcal/mol
DOCKED: USER        Electrostatic Energy            =  +0.03 kcal/mol
DOCKED: USER        Moving Ligand-Fixed Receptor    =  -8.88 kcal/mol
DOCKED: USER        Moving Ligand-Moving Receptor   =  +0.00 kcal/mol
DOCKED: USER    (2) Final Total Internal Energy     =  -0.89 kcal/mol
DOCKED: USER    (3) Torsional Free Energy           =  +1.19 kcal/mol
DOCKED: USER    (4) Unbound System's Energy         =  -0.89 kcal/mol
DOCKED: USER
DOCKED: USER
DOCKED: REMARK SMILES [H]/N=c1/[n-]c2nc3ccccn3c(=O)c2cc1C(=O)N[C@@H](C)c1ccccc1
DOCKED: REMARK SMILES IDX 3 1 4 2 5 3 6 4 7 5 8 6 9 7 10 8 11 9 12 10 13 11 14 12
DOCKED: REMARK SMILES IDX 15 13 16 14 17 15 2 16 1 17 18 18 20 19 19 20 21 22 22 23
DOCKED: REMARK SMILES IDX 23 24 24 25 28 26 25 27 27 28 26 29
DOCKED: REMARK H PARENT 20 21
DOCKED: USER                              x       y       z     vdW  Elec       q    Type
DOCKED: USER                           _______ _______ _______ _____ _____    ______ ____
DOCKED: ROOT
DOCKED: ATOM      1  C   UNL     1     133.839  70.437 226.266 -0.33 -0.00    +0.015 A  
DOCKED: ATOM      2  N   UNL     1     133.053  71.353 226.891 -0.18 +0.04    -0.357 NA 
DOCKED: ATOM      3  C   UNL     1     133.214  72.690 226.723 -0.39 -0.00    +0.025 A  
DOCKED: ATOM      4  N   UNL     1     132.399  73.553 227.374 -0.38 +0.04    -0.345 NA 
DOCKED: ATOM      5  C   UNL     1     132.528  74.897 227.226 -0.37 +0.00    +0.069 A  
DOCKED: ATOM      6  C   UNL     1     131.660  75.743 227.922 -0.34 +0.00    +0.030 A  
DOCKED: ATOM      7  C   UNL     1     131.781  77.123 227.779 -0.31 +0.00    +0.004 A  
DOCKED: ATOM      8  C   UNL     1     132.764  77.646 226.944 -0.28 -0.00    +0.019 A  
DOCKED: ATOM      9  C   UNL     1     133.619  76.780 226.260 -0.26 -0.01    +0.095 A  
DOCKED: ATOM     10  N   UNL     1     133.503  75.419 226.399 -0.21 -0.00    -0.281 N  
DOCKED: ATOM     11  C   UNL     1     134.346  74.570 225.721 -0.25 +0.00    +0.263 A  
DOCKED: ATOM     12  O   UNL     1     135.244  75.032 224.960 -0.30 +0.03    -0.268 OA 
DOCKED: ATOM     13  C   UNL     1     134.215  73.178 225.874 -0.27 +0.00    +0.054 A  
DOCKED: ATOM     14  C   UNL     1     135.049  72.260 225.216 -0.01 -0.00    +0.029 A  
DOCKED: ATOM     15  C   UNL     1     134.883  70.880 225.411 -0.14 -0.00    +0.052 A  
DOCKED: ENDROOT
DOCKED: BRANCH   1  16
DOCKED: ATOM     16  N   UNL     1     133.576  69.179 226.445 -0.61 -0.03    -0.412 NA 
DOCKED: ATOM     17  H   UNL     1     134.050  68.396 225.946 +0.02 -0.00    +0.076 HD 
DOCKED: ENDBRANCH   1  16
DOCKED: BRANCH  15  18
DOCKED: ATOM     18  C   UNL     1     135.824  69.953 224.743 -0.14 -0.02    +0.252 C  
DOCKED: ATOM     19  N   UNL     1     137.197  70.331 224.551 -0.08 +0.04    -0.345 N  
DOCKED: ATOM     20  O   UNL     1     135.426  68.813 224.379 -0.52 -0.00    -0.269 OA 
DOCKED: ATOM     21  H   UNL     1     137.479  71.306 224.802 +0.01 -0.03    +0.164 HD 
DOCKED: BRANCH  19  22
DOCKED: ATOM     22  C   UNL     1     138.175  69.439 223.918 -0.25 -0.01    +0.109 C  
DOCKED: ATOM     23  C   UNL     1     138.795  70.117 222.693 -0.20 -0.01    +0.036 C  
DOCKED: BRANCH  22  24
DOCKED: ATOM     24  C   UNL     1     139.242  69.027 224.914 -0.38 +0.00    -0.026 A  
DOCKED: ATOM     25  C   UNL     1     140.298  69.906 225.222 -0.44 -0.00    +0.006 A  
DOCKED: ATOM     26  C   UNL     1     139.201  67.766 225.541 -0.48 -0.00    +0.006 A  
DOCKED: ATOM     27  C   UNL     1     141.286  69.532 226.138 -0.52 -0.00    +0.000 A  
DOCKED: ATOM     28  C   UNL     1     140.191  67.398 226.456 -0.68 -0.00    +0.000 A  
DOCKED: ATOM     29  C   UNL     1     141.233  68.279 226.755 -0.60 -0.00    +0.000 A  
DOCKED: ENDBRANCH  22  24
DOCKED: ENDBRANCH  19  22
DOCKED: ENDBRANCH  15  18
DOCKED: TORSDOF 4
DOCKED: TER
DOCKED: ENDMDL
________________________________________________________________________________


    FINAL DOCKED STATE:
    ________________________


Run:   7 / 20
Time taken for this run:   0.021s

DOCKED: MODEL        7
DOCKED: USER    Run = 7
DOCKED: USER
DOCKED: USER    Estimated Free Energy of Binding    =  -7.26 kcal/mol  [=(1)+(2)+(3)-(4)]
DOCKED: USER
DOCKED: USER    (1) Final Intermolecular Energy     =  -8.45 kcal/mol
DOCKED: USER        vdW + Hbond + desolv Energy     =  -8.44 kcal/mol
DOCKED: USER        Electrostatic Energy            =  -0.01 kcal/mol
DOCKED: USER        Moving Ligand-Fixed Receptor    =  -8.45 kcal/mol
DOCKED: USER        Moving Ligand-Moving Receptor   =  +0.00 kcal/mol
DOCKED: USER    (2) Final Total Internal Energy     =  -1.05 kcal/mol
DOCKED: USER    (3) Torsional Free Energy           =  +1.19 kcal/mol
DOCKED: USER    (4) Unbound System's Energy         =  -1.05 kcal/mol
DOCKED: USER
DOCKED: USER
DOCKED: REMARK SMILES [H]/N=c1/[n-]c2nc3ccccn3c(=O)c2cc1C(=O)N[C@@H](C)c1ccccc1
DOCKED: REMARK SMILES IDX 3 1 4 2 5 3 6 4 7 5 8 6 9 7 10 8 11 9 12 10 13 11 14 12
DOCKED: REMARK SMILES IDX 15 13 16 14 17 15 2 16 1 17 18 18 20 19 19 20 21 22 22 23
DOCKED: REMARK SMILES IDX 23 24 24 25 28 26 25 27 27 28 26 29
DOCKED: REMARK H PARENT 20 21
DOCKED: USER                              x       y       z     vdW  Elec       q    Type
DOCKED: USER                           _______ _______ _______ _____ _____    ______ ____
DOCKED: ROOT
DOCKED: ATOM      1  C   UNL     1     141.855  73.848 220.972 -0.26 -0.00    +0.015 A  
DOCKED: ATOM      2  N   UNL     1     142.037  72.502 221.016 -0.09 +0.04    -0.357 NA 
DOCKED: ATOM      3  C   UNL     1     143.071  71.884 220.388 -0.25 -0.00    +0.025 A  
DOCKED: ATOM      4  N   UNL     1     143.199  70.539 220.470 +0.07 +0.03    -0.345 NA 
DOCKED: ATOM      5  C   UNL     1     144.222  69.887 219.859 -0.17 +0.01    +0.069 A  
DOCKED: ATOM      6  C   UNL     1     144.307  68.496 219.975 -0.30 +0.00    +0.030 A  
DOCKED: ATOM      7  C   UNL     1     145.352  67.816 219.354 -0.49 -0.00    +0.004 A  
DOCKED: ATOM      8  C   UNL     1     146.301  68.527 218.626 -0.34 +0.00    +0.019 A  
DOCKED: ATOM      9  C   UNL     1     146.194  69.915 218.525 -0.25 +0.07    +0.095 A  
DOCKED: ATOM     10  N   UNL     1     145.165  70.589 219.135 -0.14 -0.10    -0.281 N  
DOCKED: ATOM     11  C   UNL     1     145.066  71.957 219.034 -0.16 +0.08    +0.263 A  
DOCKED: ATOM     12  O   UNL     1     145.921  72.615 218.375 -0.73 -0.27    -0.268 OA 
DOCKED: ATOM     13  C   UNL     1     144.006  72.633 219.665 -0.25 -0.00    +0.054 A  
DOCKED: ATOM     14  C   UNL     1     143.845  74.026 219.593 -0.32 -0.01    +0.029 A  
DOCKED: ATOM     15  C   UNL     1     142.763  74.652 220.233 -0.30 -0.02    +0.052 A  
DOCKED: ENDROOT
DOCKED: BRANCH   1  16
DOCKED: ATOM     16  N   UNL     1     140.870  74.356 221.646 -0.44 +0.04    -0.412 NA 
DOCKED: ATOM     17  H   UNL     1     140.938  75.201 222.252 -0.02 -0.01    +0.076 HD 
DOCKED: ENDBRANCH   1  16
DOCKED: BRANCH  15  18
DOCKED: ATOM     18  C   UNL     1     142.601  76.115 220.080 -0.17 -0.15    +0.252 C  
DOCKED: ATOM     19  N   UNL     1     141.383  76.755 220.492 -0.11 +0.16    -0.345 N  
DOCKED: ATOM     20  O   UNL     1     143.554  76.805 219.623 -0.31 +0.22    -0.269 OA 
DOCKED: ATOM     21  H   UNL     1     140.589  76.149 220.803 +0.06 -0.05    +0.164 HD 
DOCKED: BRANCH  19  22
DOCKED: ATOM     22  C   UNL     1     141.183  78.205 220.386 -0.22 -0.05    +0.109 C  
DOCKED: ATOM     23  C   UNL     1     139.721  78.514 220.048 -0.11 -0.01    +0.036 C  
DOCKED: BRANCH  22  24
DOCKED: ATOM     24  C   UNL     1     141.607  78.896 221.667 -0.39 +0.01    -0.026 A  
DOCKED: ATOM     25  C   UNL     1     142.194  80.175 221.619 -0.46 -0.00    +0.006 A  
DOCKED: ATOM     26  C   UNL     1     141.427  78.277 222.920 -0.52 -0.00    +0.006 A  
DOCKED: ATOM     27  C   UNL     1     142.588  80.818 222.796 -0.59 -0.00    +0.000 A  
DOCKED: ATOM     28  C   UNL     1     141.823  78.925 224.094 -0.59 -0.00    +0.000 A  
DOCKED: ATOM     29  C   UNL     1     142.403  80.194 224.032 -0.58 -0.00    +0.000 A  
DOCKED: ENDBRANCH  22  24
DOCKED: ENDBRANCH  19  22
DOCKED: ENDBRANCH  15  18
DOCKED: TORSDOF 4
DOCKED: TER
DOCKED: ENDMDL
________________________________________________________________________________


    FINAL DOCKED STATE:
    ________________________


Run:   8 / 20
Time taken for this run:   0.021s

DOCKED: MODEL        8
DOCKED: USER    Run = 8
DOCKED: USER
DOCKED: USER    Estimated Free Energy of Binding    =  -7.28 kcal/mol  [=(1)+(2)+(3)-(4)]
DOCKED: USER
DOCKED: USER    (1) Final Intermolecular Energy     =  -8.48 kcal/mol
DOCKED: USER        vdW + Hbond + desolv Energy     =  -8.47 kcal/mol
DOCKED: USER        Electrostatic Energy            =  -0.01 kcal/mol
DOCKED: USER        Moving Ligand-Fixed Receptor    =  -8.48 kcal/mol
DOCKED: USER        Moving Ligand-Moving Receptor   =  +0.00 kcal/mol
DOCKED: USER    (2) Final Total Internal Energy     =  -1.02 kcal/mol
DOCKED: USER    (3) Torsional Free Energy           =  +1.19 kcal/mol
DOCKED: USER    (4) Unbound System's Energy         =  -1.02 kcal/mol
DOCKED: USER
DOCKED: USER
DOCKED: REMARK SMILES [H]/N=c1/[n-]c2nc3ccccn3c(=O)c2cc1C(=O)N[C@@H](C)c1ccccc1
DOCKED: REMARK SMILES IDX 3 1 4 2 5 3 6 4 7 5 8 6 9 7 10 8 11 9 12 10 13 11 14 12
DOCKED: REMARK SMILES IDX 15 13 16 14 17 15 2 16 1 17 18 18 20 19 19 20 21 22 22 23
DOCKED: REMARK SMILES IDX 23 24 24 25 28 26 25 27 27 28 26 29
DOCKED: REMARK H PARENT 20 21
DOCKED: USER                              x       y       z     vdW  Elec       q    Type
DOCKED: USER                           _______ _______ _______ _____ _____    ______ ____
DOCKED: ROOT
DOCKED: ATOM      1  C   UNL     1     141.776  73.894 220.922 -0.27 -0.00    +0.015 A  
DOCKED: ATOM      2  N   UNL     1     141.954  72.548 220.973 -0.09 +0.04    -0.357 NA 
DOCKED: ATOM      3  C   UNL     1     143.008  71.927 220.384 -0.25 -0.00    +0.025 A  
DOCKED: ATOM      4  N   UNL     1     143.131  70.582 220.469 +0.07 +0.03    -0.345 NA 
DOCKED: ATOM      5  C   UNL     1     144.175  69.929 219.897 -0.17 +0.01    +0.069 A  
DOCKED: ATOM      6  C   UNL     1     144.252  68.538 220.015 -0.29 +0.00    +0.030 A  
DOCKED: ATOM      7  C   UNL     1     145.317  67.856 219.434 -0.48 +0.00    +0.004 A  
DOCKED: ATOM      8  C   UNL     1     146.294  68.564 218.741 -0.35 +0.00    +0.019 A  
DOCKED: ATOM      9  C   UNL     1     146.194  69.953 218.636 -0.26 +0.07    +0.095 A  
DOCKED: ATOM     10  N   UNL     1     145.145  70.629 219.209 -0.14 -0.09    -0.281 N  
DOCKED: ATOM     11  C   UNL     1     145.052  71.997 219.104 -0.17 +0.08    +0.263 A  
DOCKED: ATOM     12  O   UNL     1     145.932  72.653 218.477 -0.76 -0.27    -0.268 OA 
DOCKED: ATOM     13  C   UNL     1     143.971  72.675 219.696 -0.26 -0.01    +0.054 A  
DOCKED: ATOM     14  C   UNL     1     143.815  74.068 219.618 -0.32 -0.01    +0.029 A  
DOCKED: ATOM     15  C   UNL     1     142.712  74.697 220.217 -0.29 -0.02    +0.052 A  
DOCKED: ENDROOT
DOCKED: BRANCH   1  16
DOCKED: ATOM     16  N   UNL     1     140.767  74.404 221.560 -0.42 +0.05    -0.412 NA 
DOCKED: ATOM     17  H   UNL     1     139.839  74.612 221.135 +0.02 -0.01    +0.076 HD 
DOCKED: ENDBRANCH   1  16
DOCKED: BRANCH  15  18
DOCKED: ATOM     18  C   UNL     1     142.559  76.160 220.059 -0.18 -0.15    +0.252 C  
DOCKED: ATOM     19  N   UNL     1     141.410  76.830 220.604 -0.11 +0.17    -0.345 N  
DOCKED: ATOM     20  O   UNL     1     143.461  76.824 219.479 -0.31 +0.21    -0.269 OA 
DOCKED: ATOM     21  H   UNL     1     140.650  76.245 221.018 +0.05 -0.05    +0.164 HD 
DOCKED: BRANCH  19  22
DOCKED: ATOM     22  C   UNL     1     141.225  78.282 220.496 -0.24 -0.05    +0.109 C  
DOCKED: ATOM     23  C   UNL     1     139.773  78.604 220.129 -0.11 -0.01    +0.036 C  
DOCKED: BRANCH  22  24
DOCKED: ATOM     24  C   UNL     1     141.628  78.967 221.788 -0.41 +0.01    -0.026 A  
DOCKED: ATOM     25  C   UNL     1     142.200  80.253 221.756 -0.47 -0.00    +0.006 A  
DOCKED: ATOM     26  C   UNL     1     141.443  78.335 223.033 -0.54 -0.00    +0.006 A  
DOCKED: ATOM     27  C   UNL     1     142.575  80.891 222.942 -0.60 -0.00    +0.000 A  
DOCKED: ATOM     28  C   UNL     1     141.820  78.977 224.216 -0.58 -0.00    +0.000 A  
DOCKED: ATOM     29  C   UNL     1     142.386  80.254 224.171 -0.53 -0.00    +0.000 A  
DOCKED: ENDBRANCH  22  24
DOCKED: ENDBRANCH  19  22
DOCKED: ENDBRANCH  15  18
DOCKED: TORSDOF 4
DOCKED: TER
DOCKED: ENDMDL
________________________________________________________________________________


    FINAL DOCKED STATE:
    ________________________


Run:   9 / 20
Time taken for this run:   0.021s

DOCKED: MODEL        9
DOCKED: USER    Run = 9
DOCKED: USER
DOCKED: USER    Estimated Free Energy of Binding    =  -7.69 kcal/mol  [=(1)+(2)+(3)-(4)]
DOCKED: USER
DOCKED: USER    (1) Final Intermolecular Energy     =  -8.88 kcal/mol
DOCKED: USER        vdW + Hbond + desolv Energy     =  -8.91 kcal/mol
DOCKED: USER        Electrostatic Energy            =  +0.03 kcal/mol
DOCKED: USER        Moving Ligand-Fixed Receptor    =  -8.88 kcal/mol
DOCKED: USER        Moving Ligand-Moving Receptor   =  +0.00 kcal/mol
DOCKED: USER    (2) Final Total Internal Energy     =  -0.89 kcal/mol
DOCKED: USER    (3) Torsional Free Energy           =  +1.19 kcal/mol
DOCKED: USER    (4) Unbound System's Energy         =  -0.89 kcal/mol
DOCKED: USER
DOCKED: USER
DOCKED: REMARK SMILES [H]/N=c1/[n-]c2nc3ccccn3c(=O)c2cc1C(=O)N[C@@H](C)c1ccccc1
DOCKED: REMARK SMILES IDX 3 1 4 2 5 3 6 4 7 5 8 6 9 7 10 8 11 9 12 10 13 11 14 12
DOCKED: REMARK SMILES IDX 15 13 16 14 17 15 2 16 1 17 18 18 20 19 19 20 21 22 22 23
DOCKED: REMARK SMILES IDX 23 24 24 25 28 26 25 27 27 28 26 29
DOCKED: REMARK H PARENT 20 21
DOCKED: USER                              x       y       z     vdW  Elec       q    Type
DOCKED: USER                           _______ _______ _______ _____ _____    ______ ____
DOCKED: ROOT
DOCKED: ATOM      1  C   UNL     1     133.840  70.451 226.273 -0.33 -0.00    +0.015 A  
DOCKED: ATOM      2  N   UNL     1     133.054  71.364 226.900 -0.18 +0.04    -0.357 NA 
DOCKED: ATOM      3  C   UNL     1     133.209  72.702 226.729 -0.39 -0.00    +0.025 A  
DOCKED: ATOM      4  N   UNL     1     132.394  73.563 227.381 -0.38 +0.04    -0.345 NA 
DOCKED: ATOM      5  C   UNL     1     132.517  74.907 227.230 -0.37 +0.00    +0.069 A  
DOCKED: ATOM      6  C   UNL     1     131.649  75.752 227.928 -0.33 +0.00    +0.030 A  
DOCKED: ATOM      7  C   UNL     1     131.764  77.132 227.782 -0.31 +0.00    +0.004 A  
DOCKED: ATOM      8  C   UNL     1     132.741  77.656 226.942 -0.28 -0.00    +0.019 A  
DOCKED: ATOM      9  C   UNL     1     133.597  76.793 226.255 -0.27 -0.01    +0.095 A  
DOCKED: ATOM     10  N   UNL     1     133.486  75.431 226.397 -0.21 -0.00    -0.281 N  
DOCKED: ATOM     11  C   UNL     1     134.330  74.585 225.718 -0.25 +0.00    +0.263 A  
DOCKED: ATOM     12  O   UNL     1     135.222  75.048 224.952 -0.30 +0.03    -0.268 OA 
DOCKED: ATOM     13  C   UNL     1     134.204  73.192 225.874 -0.27 +0.00    +0.054 A  
DOCKED: ATOM     14  C   UNL     1     135.039  72.276 225.215 -0.02 -0.00    +0.029 A  
DOCKED: ATOM     15  C   UNL     1     134.879  70.895 225.413 -0.14 -0.00    +0.052 A  
DOCKED: ENDROOT
DOCKED: BRANCH   1  16
DOCKED: ATOM     16  N   UNL     1     133.583  69.192 226.456 -0.61 -0.03    -0.412 NA 
DOCKED: ATOM     17  H   UNL     1     133.973  68.415 225.880 +0.02 -0.00    +0.076 HD 
DOCKED: ENDBRANCH   1  16
DOCKED: BRANCH  15  18
DOCKED: ATOM     18  C   UNL     1     135.820  69.971 224.743 -0.14 -0.02    +0.252 C  
DOCKED: ATOM     19  N   UNL     1     137.192  70.352 224.547 -0.08 +0.05    -0.345 N  
DOCKED: ATOM     20  O   UNL     1     135.424  68.829 224.381 -0.52 +0.00    -0.269 OA 
DOCKED: ATOM     21  H   UNL     1     137.472  71.328 224.796 +0.00 -0.03    +0.164 HD 
DOCKED: BRANCH  19  22
DOCKED: ATOM     22  C   UNL     1     138.170  69.463 223.912 -0.25 -0.01    +0.109 C  
DOCKED: ATOM     23  C   UNL     1     138.789  70.144 222.687 -0.20 -0.01    +0.036 C  
DOCKED: BRANCH  22  24
DOCKED: ATOM     24  C   UNL     1     139.238  69.049 224.906 -0.38 +0.00    -0.026 A  
DOCKED: ATOM     25  C   UNL     1     139.203  67.768 225.489 -0.47 -0.00    +0.006 A  
DOCKED: ATOM     26  C   UNL     1     140.275  69.932 225.266 -0.45 -0.00    +0.006 A  
DOCKED: ATOM     27  C   UNL     1     140.183  67.380 226.407 -0.67 -0.00    +0.000 A  
DOCKED: ATOM     28  C   UNL     1     141.253  69.539 226.185 -0.52 -0.00    +0.000 A  
DOCKED: ATOM     29  C   UNL     1     141.208  68.265 226.755 -0.61 -0.00    +0.000 A  
DOCKED: ENDBRANCH  22  24
DOCKED: ENDBRANCH  19  22
DOCKED: ENDBRANCH  15  18
DOCKED: TORSDOF 4
DOCKED: TER
DOCKED: ENDMDL
________________________________________________________________________________


    FINAL DOCKED STATE:
    ________________________


Run:   10 / 20
Time taken for this run:   0.021s

DOCKED: MODEL        10
DOCKED: USER    Run = 10
DOCKED: USER
DOCKED: USER    Estimated Free Energy of Binding    =  -7.60 kcal/mol  [=(1)+(2)+(3)-(4)]
DOCKED: USER
DOCKED: USER    (1) Final Intermolecular Energy     =  -8.79 kcal/mol
DOCKED: USER        vdW + Hbond + desolv Energy     =  -8.89 kcal/mol
DOCKED: USER        Electrostatic Energy            =  +0.10 kcal/mol
DOCKED: USER        Moving Ligand-Fixed Receptor    =  -8.79 kcal/mol
DOCKED: USER        Moving Ligand-Moving Receptor   =  +0.00 kcal/mol
DOCKED: USER    (2) Final Total Internal Energy     =  -0.84 kcal/mol
DOCKED: USER    (3) Torsional Free Energy           =  +1.19 kcal/mol
DOCKED: USER    (4) Unbound System's Energy         =  -0.84 kcal/mol
DOCKED: USER
DOCKED: USER
DOCKED: REMARK SMILES [H]/N=c1/[n-]c2nc3ccccn3c(=O)c2cc1C(=O)N[C@@H](C)c1ccccc1
DOCKED: REMARK SMILES IDX 3 1 4 2 5 3 6 4 7 5 8 6 9 7 10 8 11 9 12 10 13 11 14 12
DOCKED: REMARK SMILES IDX 15 13 16 14 17 15 2 16 1 17 18 18 20 19 19 20 21 22 22 23
DOCKED: REMARK SMILES IDX 23 24 24 25 28 26 25 27 27 28 26 29
DOCKED: REMARK H PARENT 20 21
DOCKED: USER                              x       y       z     vdW  Elec       q    Type
DOCKED: USER                           _______ _______ _______ _____ _____    ______ ____
DOCKED: ROOT
DOCKED: ATOM      1  C   UNL     1     143.783  74.924 219.854 -0.40 -0.01    +0.015 A  
DOCKED: ATOM      2  N   UNL     1     144.762  74.027 219.566 -0.14 +0.10    -0.357 NA 
DOCKED: ATOM      3  C   UNL     1     144.556  72.685 219.600 -0.32 -0.00    +0.025 A  
DOCKED: ATOM      4  N   UNL     1     145.571  71.841 219.302 -0.41 -0.19    -0.345 NA 
DOCKED: ATOM      5  C   UNL     1     145.400  70.494 219.320 -0.25 +0.03    +0.069 A  
DOCKED: ATOM      6  C   UNL     1     146.483  69.667 219.005 -0.31 +0.02    +0.030 A  
DOCKED: ATOM      7  C   UNL     1     146.321  68.285 219.019 -0.41 +0.00    +0.004 A  
DOCKED: ATOM      8  C   UNL     1     145.083  67.739 219.347 -0.45 -0.00    +0.019 A  
DOCKED: ATOM      9  C   UNL     1     144.017  68.585 219.659 -0.26 -0.00    +0.095 A  
DOCKED: ATOM     10  N   UNL     1     144.174  69.949 219.645 -0.12 -0.02    -0.281 N  
DOCKED: ATOM     11  C   UNL     1     143.120  70.778 219.952 -0.10 -0.02    +0.263 A  
DOCKED: ATOM     12  O   UNL     1     141.991  70.296 220.252 -0.04 +0.03    -0.268 OA 
DOCKED: ATOM     13  C   UNL     1     143.296  72.174 219.934 -0.22 -0.01    +0.054 A  
DOCKED: ATOM     14  C   UNL     1     142.263  73.073 220.243 -0.21 -0.01    +0.029 A  
DOCKED: ATOM     15  C   UNL     1     142.493  74.458 220.221 -0.27 -0.02    +0.052 A  
DOCKED: ENDROOT
DOCKED: BRANCH   1  16
DOCKED: ATOM     16  N   UNL     1     144.058  76.188 219.744 -0.11 +0.31    -0.412 NA 
DOCKED: ATOM     17  H   UNL     1     144.464  76.777 220.502 -0.51 -0.08    +0.076 HD 
DOCKED: ENDBRANCH   1  16
DOCKED: BRANCH  15  18
DOCKED: ATOM     18  C   UNL     1     141.390  75.364 220.613 -0.18 -0.09    +0.252 C  
DOCKED: ATOM     19  N   UNL     1     141.678  76.695 221.071 -0.04 +0.20    -0.345 N  
DOCKED: ATOM     20  O   UNL     1     140.194  74.978 220.503 -0.10 +0.06    -0.269 OA 
DOCKED: ATOM     21  H   UNL     1     142.678  76.962 221.214 -0.44 -0.18    +0.164 HD 
DOCKED: BRANCH  19  22
DOCKED: ATOM     22  C   UNL     1     140.620  77.641 221.446 -0.27 -0.04    +0.109 C  
DOCKED: ATOM     23  C   UNL     1     139.591  76.954 222.350 -0.34 -0.01    +0.036 C  
DOCKED: BRANCH  22  24
DOCKED: ATOM     24  C   UNL     1     141.212  78.863 222.122 -0.40 +0.01    -0.026 A  
DOCKED: ATOM     25  C   UNL     1     141.697  78.775 223.440 -0.60 -0.00    +0.006 A  
DOCKED: ATOM     26  C   UNL     1     141.285  80.099 221.450 -0.36 -0.00    +0.006 A  
DOCKED: ATOM     27  C   UNL     1     142.243  79.898 224.070 -0.54 -0.00    +0.000 A  
DOCKED: ATOM     28  C   UNL     1     141.832  81.218 222.085 -0.48 -0.00    +0.000 A  
DOCKED: ATOM     29  C   UNL     1     142.311  81.118 223.393 -0.61 -0.00    +0.000 A  
DOCKED: ENDBRANCH  22  24
DOCKED: ENDBRANCH  19  22
DOCKED: ENDBRANCH  15  18
DOCKED: TORSDOF 4
DOCKED: TER
DOCKED: ENDMDL
________________________________________________________________________________


    FINAL DOCKED STATE:
    ________________________


Run:   11 / 20
Time taken for this run:   0.021s

DOCKED: MODEL        11
DOCKED: USER    Run = 11
DOCKED: USER
DOCKED: USER    Estimated Free Energy of Binding    =  -7.69 kcal/mol  [=(1)+(2)+(3)-(4)]
DOCKED: USER
DOCKED: USER    (1) Final Intermolecular Energy     =  -8.88 kcal/mol
DOCKED: USER        vdW + Hbond + desolv Energy     =  -8.91 kcal/mol
DOCKED: USER        Electrostatic Energy            =  +0.03 kcal/mol
DOCKED: USER        Moving Ligand-Fixed Receptor    =  -8.88 kcal/mol
DOCKED: USER        Moving Ligand-Moving Receptor   =  +0.00 kcal/mol
DOCKED: USER    (2) Final Total Internal Energy     =  -0.89 kcal/mol
DOCKED: USER    (3) Torsional Free Energy           =  +1.19 kcal/mol
DOCKED: USER    (4) Unbound System's Energy         =  -0.89 kcal/mol
DOCKED: USER
DOCKED: USER
DOCKED: REMARK SMILES [H]/N=c1/[n-]c2nc3ccccn3c(=O)c2cc1C(=O)N[C@@H](C)c1ccccc1
DOCKED: REMARK SMILES IDX 3 1 4 2 5 3 6 4 7 5 8 6 9 7 10 8 11 9 12 10 13 11 14 12
DOCKED: REMARK SMILES IDX 15 13 16 14 17 15 2 16 1 17 18 18 20 19 19 20 21 22 22 23
DOCKED: REMARK SMILES IDX 23 24 24 25 28 26 25 27 27 28 26 29
DOCKED: REMARK H PARENT 20 21
DOCKED: USER                              x       y       z     vdW  Elec       q    Type
DOCKED: USER                           _______ _______ _______ _____ _____    ______ ____
DOCKED: ROOT
DOCKED: ATOM      1  C   UNL     1     133.826  70.426 226.261 -0.33 -0.00    +0.015 A  
DOCKED: ATOM      2  N   UNL     1     133.035  71.341 226.881 -0.18 +0.04    -0.357 NA 
DOCKED: ATOM      3  C   UNL     1     133.198  72.679 226.716 -0.39 -0.00    +0.025 A  
DOCKED: ATOM      4  N   UNL     1     132.377  73.541 227.360 -0.37 +0.04    -0.345 NA 
DOCKED: ATOM      5  C   UNL     1     132.507  74.885 227.214 -0.37 -0.00    +0.069 A  
DOCKED: ATOM      6  C   UNL     1     131.633  75.731 227.905 -0.33 +0.00    +0.030 A  
DOCKED: ATOM      7  C   UNL     1     131.755  77.110 227.763 -0.31 +0.00    +0.004 A  
DOCKED: ATOM      8  C   UNL     1     132.744  77.634 226.937 -0.28 -0.00    +0.019 A  
DOCKED: ATOM      9  C   UNL     1     133.605  76.770 226.259 -0.27 -0.01    +0.095 A  
DOCKED: ATOM     10  N   UNL     1     133.488  75.408 226.395 -0.21 -0.00    -0.281 N  
DOCKED: ATOM     11  C   UNL     1     134.337  74.560 225.724 -0.25 +0.00    +0.263 A  
DOCKED: ATOM     12  O   UNL     1     135.241  75.022 224.971 -0.30 +0.03    -0.268 OA 
DOCKED: ATOM     13  C   UNL     1     134.205  73.168 225.875 -0.27 +0.00    +0.054 A  
DOCKED: ATOM     14  C   UNL     1     135.044  72.251 225.223 -0.01 -0.00    +0.029 A  
DOCKED: ATOM     15  C   UNL     1     134.877  70.870 225.415 -0.15 -0.00    +0.052 A  
DOCKED: ENDROOT
DOCKED: BRANCH   1  16
DOCKED: ATOM     16  N   UNL     1     133.563  69.168 226.437 -0.61 -0.03    -0.412 NA 
DOCKED: ATOM     17  H   UNL     1     133.828  68.407 225.776 +0.02 -0.00    +0.076 HD 
DOCKED: ENDBRANCH   1  16
DOCKED: BRANCH  15  18
DOCKED: ATOM     18  C   UNL     1     135.824  69.944 224.754 -0.14 -0.02    +0.252 C  
DOCKED: ATOM     19  N   UNL     1     137.195  70.328 224.562 -0.08 +0.04    -0.345 N  
DOCKED: ATOM     20  O   UNL     1     135.432  68.799 224.396 -0.52 -0.00    -0.269 OA 
DOCKED: ATOM     21  H   UNL     1     137.471  71.306 224.807 +0.01 -0.03    +0.164 HD 
DOCKED: BRANCH  19  22
DOCKED: ATOM     22  C   UNL     1     138.178  69.437 223.936 -0.25 -0.01    +0.109 C  
DOCKED: ATOM     23  C   UNL     1     138.795  70.110 222.706 -0.20 -0.01    +0.036 C  
DOCKED: BRANCH  22  24
DOCKED: ATOM     24  C   UNL     1     139.247  69.037 224.935 -0.38 +0.00    -0.026 A  
DOCKED: ATOM     25  C   UNL     1     139.208  67.767 225.541 -0.48 -0.00    +0.006 A  
DOCKED: ATOM     26  C   UNL     1     140.289  69.922 225.275 -0.45 -0.00    +0.006 A  
DOCKED: ATOM     27  C   UNL     1     140.188  67.393 226.464 -0.68 -0.00    +0.000 A  
DOCKED: ATOM     28  C   UNL     1     141.267  69.542 226.199 -0.52 -0.00    +0.000 A  
DOCKED: ATOM     29  C   UNL     1     141.218  68.279 226.793 -0.61 -0.00    +0.000 A  
DOCKED: ENDBRANCH  22  24
DOCKED: ENDBRANCH  19  22
DOCKED: ENDBRANCH  15  18
DOCKED: TORSDOF 4
DOCKED: TER
DOCKED: ENDMDL
________________________________________________________________________________


    FINAL DOCKED STATE:
    ________________________


Run:   12 / 20
Time taken for this run:   0.021s

DOCKED: MODEL        12
DOCKED: USER    Run = 12
DOCKED: USER
DOCKED: USER    Estimated Free Energy of Binding    =  -7.27 kcal/mol  [=(1)+(2)+(3)-(4)]
DOCKED: USER
DOCKED: USER    (1) Final Intermolecular Energy     =  -8.46 kcal/mol
DOCKED: USER        vdW + Hbond + desolv Energy     =  -8.47 kcal/mol
DOCKED: USER        Electrostatic Energy            =  +0.01 kcal/mol
DOCKED: USER        Moving Ligand-Fixed Receptor    =  -8.46 kcal/mol
DOCKED: USER        Moving Ligand-Moving Receptor   =  +0.00 kcal/mol
DOCKED: USER    (2) Final Total Internal Energy     =  -1.04 kcal/mol
DOCKED: USER    (3) Torsional Free Energy           =  +1.19 kcal/mol
DOCKED: USER    (4) Unbound System's Energy         =  -1.04 kcal/mol
DOCKED: USER
DOCKED: USER
DOCKED: REMARK SMILES [H]/N=c1/[n-]c2nc3ccccn3c(=O)c2cc1C(=O)N[C@@H](C)c1ccccc1
DOCKED: REMARK SMILES IDX 3 1 4 2 5 3 6 4 7 5 8 6 9 7 10 8 11 9 12 10 13 11 14 12
DOCKED: REMARK SMILES IDX 15 13 16 14 17 15 2 16 1 17 18 18 20 19 19 20 21 22 22 23
DOCKED: REMARK SMILES IDX 23 24 24 25 28 26 25 27 27 28 26 29
DOCKED: REMARK H PARENT 20 21
DOCKED: USER                              x       y       z     vdW  Elec       q    Type
DOCKED: USER                           _______ _______ _______ _____ _____    ______ ____
DOCKED: ROOT
DOCKED: ATOM      1  C   UNL     1     141.750  73.839 220.931 -0.27 -0.00    +0.015 A  
DOCKED: ATOM      2  N   UNL     1     141.936  72.493 220.969 -0.09 +0.04    -0.357 NA 
DOCKED: ATOM      3  C   UNL     1     142.997  71.885 220.378 -0.25 -0.00    +0.025 A  
DOCKED: ATOM      4  N   UNL     1     143.128  70.540 220.452 +0.08 +0.03    -0.345 NA 
DOCKED: ATOM      5  C   UNL     1     144.178  69.899 219.877 -0.18 +0.01    +0.069 A  
DOCKED: ATOM      6  C   UNL     1     144.264  68.507 219.982 -0.30 +0.00    +0.030 A  
DOCKED: ATOM      7  C   UNL     1     145.336  67.838 219.398 -0.48 +0.00    +0.004 A  
DOCKED: ATOM      8  C   UNL     1     146.311  68.559 218.716 -0.35 +0.00    +0.019 A  
DOCKED: ATOM      9  C   UNL     1     146.203  69.948 218.624 -0.26 +0.07    +0.095 A  
DOCKED: ATOM     10  N   UNL     1     145.147  70.612 219.199 -0.14 -0.09    -0.281 N  
DOCKED: ATOM     11  C   UNL     1     145.045  71.980 219.107 -0.17 +0.08    +0.263 A  
DOCKED: ATOM     12  O   UNL     1     145.923  72.648 218.490 -0.76 -0.26    -0.268 OA 
DOCKED: ATOM     13  C   UNL     1     143.958  72.646 219.701 -0.25 -0.01    +0.054 A  
DOCKED: ATOM     14  C   UNL     1     143.793  74.039 219.636 -0.32 -0.01    +0.029 A  
DOCKED: ATOM     15  C   UNL     1     142.684  74.654 220.237 -0.29 -0.02    +0.052 A  
DOCKED: ENDROOT
DOCKED: BRANCH   1  16
DOCKED: ATOM     16  N   UNL     1     140.736  74.336 221.570 -0.43 +0.05    -0.412 NA 
DOCKED: ATOM     17  H   UNL     1     140.135  73.806 222.236 -0.04 -0.00    +0.076 HD 
DOCKED: ENDBRANCH   1  16
DOCKED: BRANCH  15  18
DOCKED: ATOM     18  C   UNL     1     142.522  76.118 220.092 -0.18 -0.15    +0.252 C  
DOCKED: ATOM     19  N   UNL     1     141.302  76.755 220.507 -0.10 +0.16    -0.345 N  
DOCKED: ATOM     20  O   UNL     1     143.475  76.811 219.640 -0.31 +0.22    -0.269 OA 
DOCKED: ATOM     21  H   UNL     1     140.509  76.147 220.813 +0.06 -0.05    +0.164 HD 
DOCKED: BRANCH  19  22
DOCKED: ATOM     22  C   UNL     1     141.102  78.205 220.408 -0.22 -0.05    +0.109 C  
DOCKED: ATOM     23  C   UNL     1     139.631  78.518 220.118 -0.10 -0.01    +0.036 C  
DOCKED: BRANCH  22  24
DOCKED: ATOM     24  C   UNL     1     141.569  78.895 221.676 -0.39 +0.01    -0.026 A  
DOCKED: ATOM     25  C   UNL     1     141.382  78.276 222.926 -0.52 -0.00    +0.006 A  
DOCKED: ATOM     26  C   UNL     1     142.189  80.159 221.628 -0.46 -0.00    +0.006 A  
DOCKED: ATOM     27  C   UNL     1     141.808  78.906 224.099 -0.59 -0.00    +0.000 A  
DOCKED: ATOM     28  C   UNL     1     142.613  80.785 222.804 -0.59 -0.00    +0.000 A  
DOCKED: ATOM     29  C   UNL     1     142.424  80.159 224.038 -0.58 -0.00    +0.000 A  
DOCKED: ENDBRANCH  22  24
DOCKED: ENDBRANCH  19  22
DOCKED: ENDBRANCH  15  18
DOCKED: TORSDOF 4
DOCKED: TER
DOCKED: ENDMDL
________________________________________________________________________________


    FINAL DOCKED STATE:
    ________________________


Run:   13 / 20
Time taken for this run:   0.021s

DOCKED: MODEL        13
DOCKED: USER    Run = 13
DOCKED: USER
DOCKED: USER    Estimated Free Energy of Binding    =  -7.66 kcal/mol  [=(1)+(2)+(3)-(4)]
DOCKED: USER
DOCKED: USER    (1) Final Intermolecular Energy     =  -8.86 kcal/mol
DOCKED: USER        vdW + Hbond + desolv Energy     =  -9.00 kcal/mol
DOCKED: USER        Electrostatic Energy            =  +0.14 kcal/mol
DOCKED: USER        Moving Ligand-Fixed Receptor    =  -8.86 kcal/mol
DOCKED: USER        Moving Ligand-Moving Receptor   =  +0.00 kcal/mol
DOCKED: USER    (2) Final Total Internal Energy     =  -0.78 kcal/mol
DOCKED: USER    (3) Torsional Free Energy           =  +1.19 kcal/mol
DOCKED: USER    (4) Unbound System's Energy         =  -0.78 kcal/mol
DOCKED: USER
DOCKED: USER
DOCKED: REMARK SMILES [H]/N=c1/[n-]c2nc3ccccn3c(=O)c2cc1C(=O)N[C@@H](C)c1ccccc1
DOCKED: REMARK SMILES IDX 3 1 4 2 5 3 6 4 7 5 8 6 9 7 10 8 11 9 12 10 13 11 14 12
DOCKED: REMARK SMILES IDX 15 13 16 14 17 15 2 16 1 17 18 18 20 19 19 20 21 22 22 23
DOCKED: REMARK SMILES IDX 23 24 24 25 28 26 25 27 27 28 26 29
DOCKED: REMARK H PARENT 20 21
DOCKED: USER                              x       y       z     vdW  Elec       q    Type
DOCKED: USER                           _______ _______ _______ _____ _____    ______ ____
DOCKED: ROOT
DOCKED: ATOM      1  C   UNL     1     143.642  75.128 219.893 -0.40 -0.01    +0.015 A  
DOCKED: ATOM      2  N   UNL     1     144.629  74.253 219.564 -0.11 +0.12    -0.357 NA 
DOCKED: ATOM      3  C   UNL     1     144.463  72.907 219.627 -0.32 -0.00    +0.025 A  
DOCKED: ATOM      4  N   UNL     1     145.484  72.087 219.286 -0.41 -0.16    -0.345 NA 
DOCKED: ATOM      5  C   UNL     1     145.352  70.736 219.332 -0.26 +0.03    +0.069 A  
DOCKED: ATOM      6  C   UNL     1     146.439  69.934 218.970 -0.28 +0.03    +0.030 A  
DOCKED: ATOM      7  C   UNL     1     146.317  68.548 219.012 -0.40 +0.00    +0.004 A  
DOCKED: ATOM      8  C   UNL     1     145.116  67.974 219.415 -0.44 +0.00    +0.019 A  
DOCKED: ATOM      9  C   UNL     1     144.045  68.795 219.772 -0.25 +0.00    +0.095 A  
DOCKED: ATOM     10  N   UNL     1     144.161  70.163 219.732 -0.12 -0.02    -0.281 N  
DOCKED: ATOM     11  C   UNL     1     143.103  70.967 220.084 -0.11 -0.02    +0.263 A  
DOCKED: ATOM     12  O   UNL     1     142.006  70.459 220.451 -0.03 +0.03    -0.268 OA 
DOCKED: ATOM     13  C   UNL     1     143.238  72.367 220.037 -0.23 -0.01    +0.054 A  
DOCKED: ATOM     14  C   UNL     1     142.198  73.242 220.390 -0.23 -0.01    +0.029 A  
DOCKED: ATOM     15  C   UNL     1     142.388  74.632 220.336 -0.28 -0.02    +0.052 A  
DOCKED: ENDROOT
DOCKED: BRANCH   1  16
DOCKED: ATOM     16  N   UNL     1     143.874  76.397 219.750 -0.13 +0.32    -0.412 NA 
DOCKED: ATOM     17  H   UNL     1     144.088  77.053 220.531 -0.55 -0.09    +0.076 HD 
DOCKED: ENDBRANCH   1  16
DOCKED: BRANCH  15  18
DOCKED: ATOM     18  C   UNL     1     141.282  75.513 220.774 -0.19 -0.09    +0.252 C  
DOCKED: ATOM     19  N   UNL     1     141.559  76.851 221.220 -0.07 +0.19    -0.345 N  
DOCKED: ATOM     20  O   UNL     1     140.092  75.100 220.717 -0.12 +0.06    -0.269 OA 
DOCKED: ATOM     21  H   UNL     1     142.559  77.140 221.320 -0.46 -0.18    +0.164 HD 
DOCKED: BRANCH  19  22
DOCKED: ATOM     22  C   UNL     1     140.497  77.773 221.640 -0.28 -0.04    +0.109 C  
DOCKED: ATOM     23  C   UNL     1     139.450  77.029 222.475 -0.28 -0.01    +0.036 C  
DOCKED: BRANCH  22  24
DOCKED: ATOM     24  C   UNL     1     141.081  78.943 222.409 -0.42 +0.01    -0.026 A  
DOCKED: ATOM     25  C   UNL     1     142.471  79.163 222.412 -0.48 -0.00    +0.006 A  
DOCKED: ATOM     26  C   UNL     1     140.251  79.823 223.131 -0.43 -0.00    +0.006 A  
DOCKED: ATOM     27  C   UNL     1     143.016  80.238 223.120 -0.66 -0.00    +0.000 A  
DOCKED: ATOM     28  C   UNL     1     140.801  80.897 223.837 -0.43 -0.00    +0.000 A  
DOCKED: ATOM     29  C   UNL     1     142.182  81.105 223.831 -0.65 -0.00    +0.000 A  
DOCKED: ENDBRANCH  22  24
DOCKED: ENDBRANCH  19  22
DOCKED: ENDBRANCH  15  18
DOCKED: TORSDOF 4
DOCKED: TER
DOCKED: ENDMDL
________________________________________________________________________________


    FINAL DOCKED STATE:
    ________________________


Run:   14 / 20
Time taken for this run:   0.021s

DOCKED: MODEL        14
DOCKED: USER    Run = 14
DOCKED: USER
DOCKED: USER    Estimated Free Energy of Binding    =  -7.69 kcal/mol  [=(1)+(2)+(3)-(4)]
DOCKED: USER
DOCKED: USER    (1) Final Intermolecular Energy     =  -8.88 kcal/mol
DOCKED: USER        vdW + Hbond + desolv Energy     =  -8.91 kcal/mol
DOCKED: USER        Electrostatic Energy            =  +0.04 kcal/mol
DOCKED: USER        Moving Ligand-Fixed Receptor    =  -8.88 kcal/mol
DOCKED: USER        Moving Ligand-Moving Receptor   =  +0.00 kcal/mol
DOCKED: USER    (2) Final Total Internal Energy     =  -0.88 kcal/mol
DOCKED: USER    (3) Torsional Free Energy           =  +1.19 kcal/mol
DOCKED: USER    (4) Unbound System's Energy         =  -0.88 kcal/mol
DOCKED: USER
DOCKED: USER
DOCKED: REMARK SMILES [H]/N=c1/[n-]c2nc3ccccn3c(=O)c2cc1C(=O)N[C@@H](C)c1ccccc1
DOCKED: REMARK SMILES IDX 3 1 4 2 5 3 6 4 7 5 8 6 9 7 10 8 11 9 12 10 13 11 14 12
DOCKED: REMARK SMILES IDX 15 13 16 14 17 15 2 16 1 17 18 18 20 19 19 20 21 22 22 23
DOCKED: REMARK SMILES IDX 23 24 24 25 28 26 25 27 27 28 26 29
DOCKED: REMARK H PARENT 20 21
DOCKED: USER                              x       y       z     vdW  Elec       q    Type
DOCKED: USER                           _______ _______ _______ _____ _____    ______ ____
DOCKED: ROOT
DOCKED: ATOM      1  C   UNL     1     133.801  70.400 226.254 -0.33 -0.00    +0.015 A  
DOCKED: ATOM      2  N   UNL     1     133.020  71.315 226.886 -0.17 +0.04    -0.357 NA 
DOCKED: ATOM      3  C   UNL     1     133.181  72.653 226.719 -0.39 -0.00    +0.025 A  
DOCKED: ATOM      4  N   UNL     1     132.371  73.515 227.376 -0.36 +0.04    -0.345 NA 
DOCKED: ATOM      5  C   UNL     1     132.499  74.859 227.228 -0.37 -0.00    +0.069 A  
DOCKED: ATOM      6  C   UNL     1     131.636  75.705 227.932 -0.33 +0.00    +0.030 A  
DOCKED: ATOM      7  C   UNL     1     131.757  77.085 227.789 -0.32 +0.00    +0.004 A  
DOCKED: ATOM      8  C   UNL     1     132.734  77.608 226.949 -0.28 -0.00    +0.019 A  
DOCKED: ATOM      9  C   UNL     1     133.585  76.743 226.257 -0.27 -0.01    +0.095 A  
DOCKED: ATOM     10  N   UNL     1     133.469  75.382 226.395 -0.21 -0.00    -0.281 N  
DOCKED: ATOM     11  C   UNL     1     134.308  74.534 225.712 -0.25 +0.00    +0.263 A  
DOCKED: ATOM     12  O   UNL     1     135.200  74.996 224.945 -0.29 +0.03    -0.268 OA 
DOCKED: ATOM     13  C   UNL     1     134.176  73.141 225.863 -0.28 +0.00    +0.054 A  
DOCKED: ATOM     14  C   UNL     1     135.005  72.224 225.199 -0.04 -0.00    +0.029 A  
DOCKED: ATOM     15  C   UNL     1     134.840  70.843 225.393 -0.17 -0.00    +0.052 A  
DOCKED: ENDROOT
DOCKED: BRANCH   1  16
DOCKED: ATOM     16  N   UNL     1     133.540  69.142 226.434 -0.61 -0.03    -0.412 NA 
DOCKED: ATOM     17  H   UNL     1     133.922  68.366 225.852 +0.02 -0.00    +0.076 HD 
DOCKED: ENDBRANCH   1  16
DOCKED: BRANCH  15  18
DOCKED: ATOM     18  C   UNL     1     135.776  69.917 224.718 -0.14 -0.02    +0.252 C  
DOCKED: ATOM     19  N   UNL     1     137.167  70.257 224.596 -0.08 +0.04    -0.345 N  
DOCKED: ATOM     20  O   UNL     1     135.356  68.808 224.285 -0.52 +0.00    -0.269 OA 
DOCKED: ATOM     21  H   UNL     1     137.470  71.209 224.903 +0.03 -0.03    +0.164 HD 
DOCKED: BRANCH  19  22
DOCKED: ATOM     22  C   UNL     1     138.140  69.362 223.958 -0.25 -0.01    +0.109 C  
DOCKED: ATOM     23  C   UNL     1     138.706  70.011 222.692 -0.19 -0.01    +0.036 C  
DOCKED: BRANCH  22  24
DOCKED: ATOM     24  C   UNL     1     139.247  69.001 224.930 -0.38 +0.00    -0.026 A  
DOCKED: ATOM     25  C   UNL     1     139.237  67.752 225.580 -0.49 -0.00    +0.006 A  
DOCKED: ATOM     26  C   UNL     1     140.296  69.900 225.201 -0.44 -0.00    +0.006 A  
DOCKED: ATOM     27  C   UNL     1     140.253  67.413 226.478 -0.68 -0.00    +0.000 A  
DOCKED: ATOM     28  C   UNL     1     141.310  69.556 226.100 -0.52 -0.00    +0.000 A  
DOCKED: ATOM     29  C   UNL     1     141.290  68.313 226.737 -0.58 -0.00    +0.000 A  
DOCKED: ENDBRANCH  22  24
DOCKED: ENDBRANCH  19  22
DOCKED: ENDBRANCH  15  18
DOCKED: TORSDOF 4
DOCKED: TER
DOCKED: ENDMDL
________________________________________________________________________________


    FINAL DOCKED STATE:
    ________________________


Run:   15 / 20
Time taken for this run:   0.021s

DOCKED: MODEL        15
DOCKED: USER    Run = 15
DOCKED: USER
DOCKED: USER    Estimated Free Energy of Binding    =  -7.68 kcal/mol  [=(1)+(2)+(3)-(4)]
DOCKED: USER
DOCKED: USER    (1) Final Intermolecular Energy     =  -8.88 kcal/mol
DOCKED: USER        vdW + Hbond + desolv Energy     =  -8.91 kcal/mol
DOCKED: USER        Electrostatic Energy            =  +0.03 kcal/mol
DOCKED: USER        Moving Ligand-Fixed Receptor    =  -8.88 kcal/mol
DOCKED: USER        Moving Ligand-Moving Receptor   =  +0.00 kcal/mol
DOCKED: USER    (2) Final Total Internal Energy     =  -0.89 kcal/mol
DOCKED: USER    (3) Torsional Free Energy           =  +1.19 kcal/mol
DOCKED: USER    (4) Unbound System's Energy         =  -0.89 kcal/mol
DOCKED: USER
DOCKED: USER
DOCKED: REMARK SMILES [H]/N=c1/[n-]c2nc3ccccn3c(=O)c2cc1C(=O)N[C@@H](C)c1ccccc1
DOCKED: REMARK SMILES IDX 3 1 4 2 5 3 6 4 7 5 8 6 9 7 10 8 11 9 12 10 13 11 14 12
DOCKED: REMARK SMILES IDX 15 13 16 14 17 15 2 16 1 17 18 18 20 19 19 20 21 22 22 23
DOCKED: REMARK SMILES IDX 23 24 24 25 28 26 25 27 27 28 26 29
DOCKED: REMARK H PARENT 20 21
DOCKED: USER                              x       y       z     vdW  Elec       q    Type
DOCKED: USER                           _______ _______ _______ _____ _____    ______ ____
DOCKED: ROOT
DOCKED: ATOM      1  C   UNL     1     133.809  70.417 226.235 -0.33 -0.00    +0.015 A  
DOCKED: ATOM      2  N   UNL     1     133.018  71.329 226.860 -0.17 +0.04    -0.357 NA 
DOCKED: ATOM      3  C   UNL     1     133.179  72.667 226.699 -0.39 -0.00    +0.025 A  
DOCKED: ATOM      4  N   UNL     1     132.359  73.526 227.349 -0.36 +0.04    -0.345 NA 
DOCKED: ATOM      5  C   UNL     1     132.487  74.870 227.208 -0.37 -0.00    +0.069 A  
DOCKED: ATOM      6  C   UNL     1     131.613  75.713 227.903 -0.32 +0.00    +0.030 A  
DOCKED: ATOM      7  C   UNL     1     131.734  77.093 227.767 -0.31 +0.00    +0.004 A  
DOCKED: ATOM      8  C   UNL     1     132.722  77.621 226.942 -0.28 -0.00    +0.019 A  
DOCKED: ATOM      9  C   UNL     1     133.582  76.760 226.259 -0.27 -0.01    +0.095 A  
DOCKED: ATOM     10  N   UNL     1     133.466  75.397 226.390 -0.21 -0.00    -0.281 N  
DOCKED: ATOM     11  C   UNL     1     134.316  74.553 225.714 -0.25 +0.00    +0.263 A  
DOCKED: ATOM     12  O   UNL     1     135.218  75.019 224.962 -0.30 +0.03    -0.268 OA 
DOCKED: ATOM     13  C   UNL     1     134.184  73.160 225.859 -0.28 +0.00    +0.054 A  
DOCKED: ATOM     14  C   UNL     1     135.024  72.246 225.203 -0.03 -0.00    +0.029 A  
DOCKED: ATOM     15  C   UNL     1     134.858  70.865 225.389 -0.16 -0.00    +0.052 A  
DOCKED: ENDROOT
DOCKED: BRANCH   1  16
DOCKED: ATOM     16  N   UNL     1     133.546  69.157 226.406 -0.61 -0.03    -0.412 NA 
DOCKED: ATOM     17  H   UNL     1     134.114  68.374 226.018 +0.01 -0.00    +0.076 HD 
DOCKED: ENDBRANCH   1  16
DOCKED: BRANCH  15  18
DOCKED: ATOM     18  C   UNL     1     135.804  69.942 224.723 -0.14 -0.02    +0.252 C  
DOCKED: ATOM     19  N   UNL     1     137.177  70.325 224.538 -0.08 +0.04    -0.345 N  
DOCKED: ATOM     20  O   UNL     1     135.411  68.802 224.354 -0.52 -0.00    -0.269 OA 
DOCKED: ATOM     21  H   UNL     1     137.455  71.299 224.793 +0.01 -0.03    +0.164 HD 
DOCKED: BRANCH  19  22
DOCKED: ATOM     22  C   UNL     1     138.160  69.437 223.908 -0.25 -0.01    +0.109 C  
DOCKED: ATOM     23  C   UNL     1     138.778  70.117 222.682 -0.19 -0.01    +0.036 C  
DOCKED: BRANCH  22  24
DOCKED: ATOM     24  C   UNL     1     139.229  69.031 224.905 -0.38 +0.00    -0.026 A  
DOCKED: ATOM     25  C   UNL     1     140.273  69.920 225.223 -0.44 -0.00    +0.006 A  
DOCKED: ATOM     26  C   UNL     1     139.200  67.766 225.524 -0.48 -0.00    +0.006 A  
DOCKED: ATOM     27  C   UNL     1     141.262  69.552 226.140 -0.52 -0.00    +0.000 A  
DOCKED: ATOM     28  C   UNL     1     140.191  67.403 226.441 -0.68 -0.00    +0.000 A  
DOCKED: ATOM     29  C   UNL     1     141.221  68.295 226.749 -0.60 -0.00    +0.000 A  
DOCKED: ENDBRANCH  22  24
DOCKED: ENDBRANCH  19  22
DOCKED: ENDBRANCH  15  18
DOCKED: TORSDOF 4
DOCKED: TER
DOCKED: ENDMDL
________________________________________________________________________________


    FINAL DOCKED STATE:
    ________________________


Run:   16 / 20
Time taken for this run:   0.021s

DOCKED: MODEL        16
DOCKED: USER    Run = 16
DOCKED: USER
DOCKED: USER    Estimated Free Energy of Binding    =  -7.66 kcal/mol  [=(1)+(2)+(3)-(4)]
DOCKED: USER
DOCKED: USER    (1) Final Intermolecular Energy     =  -8.86 kcal/mol
DOCKED: USER        vdW + Hbond + desolv Energy     =  -9.00 kcal/mol
DOCKED: USER        Electrostatic Energy            =  +0.14 kcal/mol
DOCKED: USER        Moving Ligand-Fixed Receptor    =  -8.86 kcal/mol
DOCKED: USER        Moving Ligand-Moving Receptor   =  +0.00 kcal/mol
DOCKED: USER    (2) Final Total Internal Energy     =  -0.78 kcal/mol
DOCKED: USER    (3) Torsional Free Energy           =  +1.19 kcal/mol
DOCKED: USER    (4) Unbound System's Energy         =  -0.78 kcal/mol
DOCKED: USER
DOCKED: USER
DOCKED: REMARK SMILES [H]/N=c1/[n-]c2nc3ccccn3c(=O)c2cc1C(=O)N[C@@H](C)c1ccccc1
DOCKED: REMARK SMILES IDX 3 1 4 2 5 3 6 4 7 5 8 6 9 7 10 8 11 9 12 10 13 11 14 12
DOCKED: REMARK SMILES IDX 15 13 16 14 17 15 2 16 1 17 18 18 20 19 19 20 21 22 22 23
DOCKED: REMARK SMILES IDX 23 24 24 25 28 26 25 27 27 28 26 29
DOCKED: REMARK H PARENT 20 21
DOCKED: USER                              x       y       z     vdW  Elec       q    Type
DOCKED: USER                           _______ _______ _______ _____ _____    ______ ____
DOCKED: ROOT
DOCKED: ATOM      1  C   UNL     1     143.641  75.121 219.894 -0.40 -0.01    +0.015 A  
DOCKED: ATOM      2  N   UNL     1     144.625  74.244 219.566 -0.11 +0.12    -0.357 NA 
DOCKED: ATOM      3  C   UNL     1     144.455  72.898 219.628 -0.32 -0.00    +0.025 A  
DOCKED: ATOM      4  N   UNL     1     145.474  72.075 219.288 -0.40 -0.16    -0.345 NA 
DOCKED: ATOM      5  C   UNL     1     145.339  70.725 219.333 -0.26 +0.03    +0.069 A  
DOCKED: ATOM      6  C   UNL     1     146.424  69.920 218.972 -0.29 +0.03    +0.030 A  
DOCKED: ATOM      7  C   UNL     1     146.298  68.535 219.013 -0.40 +0.00    +0.004 A  
DOCKED: ATOM      8  C   UNL     1     145.094  67.963 219.413 -0.44 +0.00    +0.019 A  
DOCKED: ATOM      9  C   UNL     1     144.024  68.787 219.769 -0.24 +0.00    +0.095 A  
DOCKED: ATOM     10  N   UNL     1     144.145  70.155 219.729 -0.12 -0.02    -0.281 N  
DOCKED: ATOM     11  C   UNL     1     143.089  70.962 220.080 -0.11 -0.02    +0.263 A  
DOCKED: ATOM     12  O   UNL     1     141.989  70.456 220.445 -0.04 +0.03    -0.268 OA 
DOCKED: ATOM     13  C   UNL     1     143.228  72.361 220.035 -0.23 -0.01    +0.054 A  
DOCKED: ATOM     14  C   UNL     1     142.190  73.239 220.387 -0.22 -0.01    +0.029 A  
DOCKED: ATOM     15  C   UNL     1     142.384  74.628 220.334 -0.28 -0.02    +0.052 A  
DOCKED: ENDROOT
DOCKED: BRANCH   1  16
DOCKED: ATOM     16  N   UNL     1     143.877  76.389 219.753 -0.13 +0.32    -0.412 NA 
DOCKED: ATOM     17  H   UNL     1     144.075  77.048 220.536 -0.55 -0.09    +0.076 HD 
DOCKED: ENDBRANCH   1  16
DOCKED: BRANCH  15  18
DOCKED: ATOM     18  C   UNL     1     141.280  75.513 220.771 -0.19 -0.09    +0.252 C  
DOCKED: ATOM     19  N   UNL     1     141.560  76.849 221.221 -0.06 +0.19    -0.345 N  
DOCKED: ATOM     20  O   UNL     1     140.088  75.104 220.709 -0.12 +0.06    -0.269 OA 
DOCKED: ATOM     21  H   UNL     1     142.560  77.134 221.325 -0.46 -0.18    +0.164 HD 
DOCKED: BRANCH  19  22
DOCKED: ATOM     22  C   UNL     1     140.500  77.773 221.640 -0.28 -0.04    +0.109 C  
DOCKED: ATOM     23  C   UNL     1     139.451  77.033 222.475 -0.28 -0.01    +0.036 C  
DOCKED: BRANCH  22  24
DOCKED: ATOM     24  C   UNL     1     141.086  78.942 222.409 -0.42 +0.01    -0.026 A  
DOCKED: ATOM     25  C   UNL     1     142.477  79.158 222.414 -0.48 -0.00    +0.006 A  
DOCKED: ATOM     26  C   UNL     1     140.258  79.824 223.130 -0.43 -0.00    +0.006 A  
DOCKED: ATOM     27  C   UNL     1     143.024  80.232 223.121 -0.66 -0.00    +0.000 A  
DOCKED: ATOM     28  C   UNL     1     140.810  80.897 223.835 -0.43 -0.00    +0.000 A  
DOCKED: ATOM     29  C   UNL     1     142.192  81.102 223.831 -0.65 -0.00    +0.000 A  
DOCKED: ENDBRANCH  22  24
DOCKED: ENDBRANCH  19  22
DOCKED: ENDBRANCH  15  18
DOCKED: TORSDOF 4
DOCKED: TER
DOCKED: ENDMDL
________________________________________________________________________________


    FINAL DOCKED STATE:
    ________________________


Run:   17 / 20
Time taken for this run:   0.021s

DOCKED: MODEL        17
DOCKED: USER    Run = 17
DOCKED: USER
DOCKED: USER    Estimated Free Energy of Binding    =  -7.68 kcal/mol  [=(1)+(2)+(3)-(4)]
DOCKED: USER
DOCKED: USER    (1) Final Intermolecular Energy     =  -8.88 kcal/mol
DOCKED: USER        vdW + Hbond + desolv Energy     =  -8.91 kcal/mol
DOCKED: USER        Electrostatic Energy            =  +0.03 kcal/mol
DOCKED: USER        Moving Ligand-Fixed Receptor    =  -8.88 kcal/mol
DOCKED: USER        Moving Ligand-Moving Receptor   =  +0.00 kcal/mol
DOCKED: USER    (2) Final Total Internal Energy     =  -0.89 kcal/mol
DOCKED: USER    (3) Torsional Free Energy           =  +1.19 kcal/mol
DOCKED: USER    (4) Unbound System's Energy         =  -0.89 kcal/mol
DOCKED: USER
DOCKED: USER
DOCKED: REMARK SMILES [H]/N=c1/[n-]c2nc3ccccn3c(=O)c2cc1C(=O)N[C@@H](C)c1ccccc1
DOCKED: REMARK SMILES IDX 3 1 4 2 5 3 6 4 7 5 8 6 9 7 10 8 11 9 12 10 13 11 14 12
DOCKED: REMARK SMILES IDX 15 13 16 14 17 15 2 16 1 17 18 18 20 19 19 20 21 22 22 23
DOCKED: REMARK SMILES IDX 23 24 24 25 28 26 25 27 27 28 26 29
DOCKED: REMARK H PARENT 20 21
DOCKED: USER                              x       y       z     vdW  Elec       q    Type
DOCKED: USER                           _______ _______ _______ _____ _____    ______ ____
DOCKED: ROOT
DOCKED: ATOM      1  C   UNL     1     133.831  70.442 226.278 -0.33 -0.00    +0.015 A  
DOCKED: ATOM      2  N   UNL     1     133.043  71.358 226.900 -0.18 +0.04    -0.357 NA 
DOCKED: ATOM      3  C   UNL     1     133.200  72.695 226.727 -0.39 -0.00    +0.025 A  
DOCKED: ATOM      4  N   UNL     1     132.384  73.558 227.375 -0.37 +0.04    -0.345 NA 
DOCKED: ATOM      5  C   UNL     1     132.509  74.902 227.221 -0.37 -0.00    +0.069 A  
DOCKED: ATOM      6  C   UNL     1     131.639  75.749 227.915 -0.33 +0.00    +0.030 A  
DOCKED: ATOM      7  C   UNL     1     131.756  77.128 227.766 -0.31 +0.00    +0.004 A  
DOCKED: ATOM      8  C   UNL     1     132.737  77.650 226.929 -0.28 -0.00    +0.019 A  
DOCKED: ATOM      9  C   UNL     1     133.594  76.785 226.247 -0.27 -0.01    +0.095 A  
DOCKED: ATOM     10  N   UNL     1     133.481  75.423 226.391 -0.21 -0.00    -0.281 N  
DOCKED: ATOM     11  C   UNL     1     134.327  74.574 225.717 -0.25 +0.00    +0.263 A  
DOCKED: ATOM     12  O   UNL     1     135.223  75.035 224.954 -0.30 +0.03    -0.268 OA 
DOCKED: ATOM     13  C   UNL     1     134.199  73.182 225.875 -0.27 +0.00    +0.054 A  
DOCKED: ATOM     14  C   UNL     1     135.035  72.264 225.221 -0.01 -0.00    +0.029 A  
DOCKED: ATOM     15  C   UNL     1     134.873  70.884 225.421 -0.14 -0.00    +0.052 A  
DOCKED: ENDROOT
DOCKED: BRANCH   1  16
DOCKED: ATOM     16  N   UNL     1     133.572  69.184 226.462 -0.61 -0.03    -0.412 NA 
DOCKED: ATOM     17  H   UNL     1     134.100  68.398 226.027 +0.01 -0.00    +0.076 HD 
DOCKED: ENDBRANCH   1  16
DOCKED: BRANCH  15  18
DOCKED: ATOM     18  C   UNL     1     135.816  69.957 224.756 -0.14 -0.02    +0.252 C  
DOCKED: ATOM     19  N   UNL     1     137.180  70.350 224.534 -0.08 +0.05    -0.345 N  
DOCKED: ATOM     20  O   UNL     1     135.428  68.804 224.421 -0.52 -0.00    -0.269 OA 
DOCKED: ATOM     21  H   UNL     1     137.452  71.334 224.762 -0.00 -0.03    +0.164 HD 
DOCKED: BRANCH  19  22
DOCKED: ATOM     22  C   UNL     1     138.161  69.459 223.903 -0.25 -0.01    +0.109 C  
DOCKED: ATOM     23  C   UNL     1     138.774  70.134 222.672 -0.19 -0.01    +0.036 C  
DOCKED: BRANCH  22  24
DOCKED: ATOM     24  C   UNL     1     139.232  69.057 224.898 -0.38 +0.00    -0.026 A  
DOCKED: ATOM     25  C   UNL     1     139.210  67.775 225.481 -0.47 -0.00    +0.006 A  
DOCKED: ATOM     26  C   UNL     1     140.260  69.950 225.259 -0.45 -0.00    +0.006 A  
DOCKED: ATOM     27  C   UNL     1     140.194  67.398 226.399 -0.68 -0.00    +0.000 A  
DOCKED: ATOM     28  C   UNL     1     141.241  69.568 226.178 -0.52 -0.00    +0.000 A  
DOCKED: ATOM     29  C   UNL     1     141.209  68.293 226.748 -0.61 -0.00    +0.000 A  
DOCKED: ENDBRANCH  22  24
DOCKED: ENDBRANCH  19  22
DOCKED: ENDBRANCH  15  18
DOCKED: TORSDOF 4
DOCKED: TER
DOCKED: ENDMDL
________________________________________________________________________________


    FINAL DOCKED STATE:
    ________________________


Run:   18 / 20
Time taken for this run:   0.021s

DOCKED: MODEL        18
DOCKED: USER    Run = 18
DOCKED: USER
DOCKED: USER    Estimated Free Energy of Binding    =  -7.67 kcal/mol  [=(1)+(2)+(3)-(4)]
DOCKED: USER
DOCKED: USER    (1) Final Intermolecular Energy     =  -8.87 kcal/mol
DOCKED: USER        vdW + Hbond + desolv Energy     =  -8.90 kcal/mol
DOCKED: USER        Electrostatic Energy            =  +0.03 kcal/mol
DOCKED: USER        Moving Ligand-Fixed Receptor    =  -8.87 kcal/mol
DOCKED: USER        Moving Ligand-Moving Receptor   =  +0.00 kcal/mol
DOCKED: USER    (2) Final Total Internal Energy     =  -0.89 kcal/mol
DOCKED: USER    (3) Torsional Free Energy           =  +1.19 kcal/mol
DOCKED: USER    (4) Unbound System's Energy         =  -0.89 kcal/mol
DOCKED: USER
DOCKED: USER
DOCKED: REMARK SMILES [H]/N=c1/[n-]c2nc3ccccn3c(=O)c2cc1C(=O)N[C@@H](C)c1ccccc1
DOCKED: REMARK SMILES IDX 3 1 4 2 5 3 6 4 7 5 8 6 9 7 10 8 11 9 12 10 13 11 14 12
DOCKED: REMARK SMILES IDX 15 13 16 14 17 15 2 16 1 17 18 18 20 19 19 20 21 22 22 23
DOCKED: REMARK SMILES IDX 23 24 24 25 28 26 25 27 27 28 26 29
DOCKED: REMARK H PARENT 20 21
DOCKED: USER                              x       y       z     vdW  Elec       q    Type
DOCKED: USER                           _______ _______ _______ _____ _____    ______ ____
DOCKED: ROOT
DOCKED: ATOM      1  C   UNL     1     133.838  70.461 226.269 -0.33 -0.00    +0.015 A  
DOCKED: ATOM      2  N   UNL     1     133.050  71.371 226.899 -0.18 +0.04    -0.357 NA 
DOCKED: ATOM      3  C   UNL     1     133.202  72.710 226.730 -0.39 -0.00    +0.025 A  
DOCKED: ATOM      4  N   UNL     1     132.385  73.567 227.385 -0.38 +0.04    -0.345 NA 
DOCKED: ATOM      5  C   UNL     1     132.504  74.912 227.236 -0.37 -0.00    +0.069 A  
DOCKED: ATOM      6  C   UNL     1     131.634  75.753 227.937 -0.33 +0.00    +0.030 A  
DOCKED: ATOM      7  C   UNL     1     131.746  77.133 227.794 -0.31 +0.00    +0.004 A  
DOCKED: ATOM      8  C   UNL     1     132.721  77.662 226.954 -0.28 -0.00    +0.019 A  
DOCKED: ATOM      9  C   UNL     1     133.578  76.803 226.265 -0.27 -0.01    +0.095 A  
DOCKED: ATOM     10  N   UNL     1     133.471  75.440 226.405 -0.21 -0.00    -0.281 N  
DOCKED: ATOM     11  C   UNL     1     134.317  74.597 225.723 -0.25 +0.00    +0.263 A  
DOCKED: ATOM     12  O   UNL     1     135.208  75.065 224.958 -0.30 +0.03    -0.268 OA 
DOCKED: ATOM     13  C   UNL     1     134.195  73.204 225.876 -0.27 +0.00    +0.054 A  
DOCKED: ATOM     14  C   UNL     1     135.032  72.292 225.214 -0.02 -0.00    +0.029 A  
DOCKED: ATOM     15  C   UNL     1     134.875  70.910 225.409 -0.14 -0.00    +0.052 A  
DOCKED: ENDROOT
DOCKED: BRANCH   1  16
DOCKED: ATOM     16  N   UNL     1     133.585  69.201 226.449 -0.61 -0.03    -0.412 NA 
DOCKED: ATOM     17  H   UNL     1     134.017  68.424 225.905 +0.02 -0.00    +0.076 HD 
DOCKED: ENDBRANCH   1  16
DOCKED: BRANCH  15  18
DOCKED: ATOM     18  C   UNL     1     135.819  69.990 224.736 -0.13 -0.02    +0.252 C  
DOCKED: ATOM     19  N   UNL     1     137.176  70.395 224.495 -0.08 +0.05    -0.345 N  
DOCKED: ATOM     20  O   UNL     1     135.438  68.831 224.412 -0.52 -0.00    -0.269 OA 
DOCKED: ATOM     21  H   UNL     1     137.441  71.383 224.714 -0.01 -0.04    +0.164 HD 
DOCKED: BRANCH  19  22
DOCKED: ATOM     22  C   UNL     1     138.157  69.511 223.855 -0.25 -0.01    +0.109 C  
DOCKED: ATOM     23  C   UNL     1     138.791  70.209 222.648 -0.19 -0.01    +0.036 C  
DOCKED: BRANCH  22  24
DOCKED: ATOM     24  C   UNL     1     139.213  69.077 224.853 -0.38 +0.00    -0.026 A  
DOCKED: ATOM     25  C   UNL     1     140.221  69.975 225.251 -0.45 -0.00    +0.006 A  
DOCKED: ATOM     26  C   UNL     1     139.208  67.776 225.394 -0.45 -0.00    +0.006 A  
DOCKED: ATOM     27  C   UNL     1     141.199  69.581 226.169 -0.53 -0.00    +0.000 A  
DOCKED: ATOM     28  C   UNL     1     140.188  67.387 226.312 -0.67 -0.00    +0.000 A  
DOCKED: ATOM     29  C   UNL     1     141.183  68.289 226.700 -0.61 -0.00    +0.000 A  
DOCKED: ENDBRANCH  22  24
DOCKED: ENDBRANCH  19  22
DOCKED: ENDBRANCH  15  18
DOCKED: TORSDOF 4
DOCKED: TER
DOCKED: ENDMDL
________________________________________________________________________________


    FINAL DOCKED STATE:
    ________________________


Run:   19 / 20
Time taken for this run:   0.021s

DOCKED: MODEL        19
DOCKED: USER    Run = 19
DOCKED: USER
DOCKED: USER    Estimated Free Energy of Binding    =  -7.61 kcal/mol  [=(1)+(2)+(3)-(4)]
DOCKED: USER
DOCKED: USER    (1) Final Intermolecular Energy     =  -8.80 kcal/mol
DOCKED: USER        vdW + Hbond + desolv Energy     =  -8.91 kcal/mol
DOCKED: USER        Electrostatic Energy            =  +0.10 kcal/mol
DOCKED: USER        Moving Ligand-Fixed Receptor    =  -8.80 kcal/mol
DOCKED: USER        Moving Ligand-Moving Receptor   =  +0.00 kcal/mol
DOCKED: USER    (2) Final Total Internal Energy     =  -0.83 kcal/mol
DOCKED: USER    (3) Torsional Free Energy           =  +1.19 kcal/mol
DOCKED: USER    (4) Unbound System's Energy         =  -0.83 kcal/mol
DOCKED: USER
DOCKED: USER
DOCKED: REMARK SMILES [H]/N=c1/[n-]c2nc3ccccn3c(=O)c2cc1C(=O)N[C@@H](C)c1ccccc1
DOCKED: REMARK SMILES IDX 3 1 4 2 5 3 6 4 7 5 8 6 9 7 10 8 11 9 12 10 13 11 14 12
DOCKED: REMARK SMILES IDX 15 13 16 14 17 15 2 16 1 17 18 18 20 19 19 20 21 22 22 23
DOCKED: REMARK SMILES IDX 23 24 24 25 28 26 25 27 27 28 26 29
DOCKED: REMARK H PARENT 20 21
DOCKED: USER                              x       y       z     vdW  Elec       q    Type
DOCKED: USER                           _______ _______ _______ _____ _____    ______ ____
DOCKED: ROOT
DOCKED: ATOM      1  C   UNL     1     143.771  74.929 219.859 -0.40 -0.01    +0.015 A  
DOCKED: ATOM      2  N   UNL     1     144.751  74.033 219.569 -0.14 +0.10    -0.357 NA 
DOCKED: ATOM      3  C   UNL     1     144.547  72.691 219.603 -0.32 -0.00    +0.025 A  
DOCKED: ATOM      4  N   UNL     1     145.562  71.848 219.302 -0.40 -0.18    -0.345 NA 
DOCKED: ATOM      5  C   UNL     1     145.393  70.501 219.321 -0.25 +0.03    +0.069 A  
DOCKED: ATOM      6  C   UNL     1     146.477  69.676 219.003 -0.31 +0.02    +0.030 A  
DOCKED: ATOM      7  C   UNL     1     146.317  68.293 219.018 -0.41 +0.00    +0.004 A  
DOCKED: ATOM      8  C   UNL     1     145.081  67.745 219.348 -0.45 -0.00    +0.019 A  
DOCKED: ATOM      9  C   UNL     1     144.014  68.590 219.662 -0.26 -0.00    +0.095 A  
DOCKED: ATOM     10  N   UNL     1     144.168  69.954 219.649 -0.12 -0.02    -0.281 N  
DOCKED: ATOM     11  C   UNL     1     143.115  70.782 219.957 -0.10 -0.02    +0.263 A  
DOCKED: ATOM     12  O   UNL     1     141.987  70.298 220.259 -0.04 +0.03    -0.268 OA 
DOCKED: ATOM     13  C   UNL     1     143.288  72.178 219.939 -0.22 -0.01    +0.054 A  
DOCKED: ATOM     14  C   UNL     1     142.255  73.075 220.251 -0.21 -0.01    +0.029 A  
DOCKED: ATOM     15  C   UNL     1     142.482  74.460 220.228 -0.27 -0.02    +0.052 A  
DOCKED: ENDROOT
DOCKED: BRANCH   1  16
DOCKED: ATOM     16  N   UNL     1     144.044  76.193 219.749 -0.11 +0.31    -0.412 NA 
DOCKED: ATOM     17  H   UNL     1     144.453  76.781 220.505 -0.51 -0.08    +0.076 HD 
DOCKED: ENDBRANCH   1  16
DOCKED: BRANCH  15  18
DOCKED: ATOM     18  C   UNL     1     141.379  75.365 220.622 -0.18 -0.08    +0.252 C  
DOCKED: ATOM     19  N   UNL     1     141.665  76.698 221.077 -0.04 +0.20    -0.345 N  
DOCKED: ATOM     20  O   UNL     1     140.184  74.976 220.518 -0.10 +0.06    -0.269 OA 
DOCKED: ATOM     21  H   UNL     1     142.666  76.967 221.215 -0.45 -0.18    +0.164 HD 
DOCKED: BRANCH  19  22
DOCKED: ATOM     22  C   UNL     1     140.607  77.642 221.453 -0.27 -0.04    +0.109 C  
DOCKED: ATOM     23  C   UNL     1     139.570  76.948 222.342 -0.34 -0.01    +0.036 C  
DOCKED: BRANCH  22  24
DOCKED: ATOM     24  C   UNL     1     141.197  78.855 222.146 -0.40 +0.01    -0.026 A  
DOCKED: ATOM     25  C   UNL     1     141.668  78.754 223.469 -0.60 -0.00    +0.006 A  
DOCKED: ATOM     26  C   UNL     1     141.280  80.097 221.487 -0.36 -0.00    +0.006 A  
DOCKED: ATOM     27  C   UNL     1     142.212  79.868 224.114 -0.53 -0.00    +0.000 A  
DOCKED: ATOM     28  C   UNL     1     141.825  81.209 222.137 -0.49 -0.00    +0.000 A  
DOCKED: ATOM     29  C   UNL     1     142.291  81.095 223.449 -0.62 -0.00    +0.000 A  
DOCKED: ENDBRANCH  22  24
DOCKED: ENDBRANCH  19  22
DOCKED: ENDBRANCH  15  18
DOCKED: TORSDOF 4
DOCKED: TER
DOCKED: ENDMDL
________________________________________________________________________________


    FINAL DOCKED STATE:
    ________________________


Run:   20 / 20
Time taken for this run:   0.021s

DOCKED: MODEL        20
DOCKED: USER    Run = 20
DOCKED: USER
DOCKED: USER    Estimated Free Energy of Binding    =  -7.68 kcal/mol  [=(1)+(2)+(3)-(4)]
DOCKED: USER
DOCKED: USER    (1) Final Intermolecular Energy     =  -8.87 kcal/mol
DOCKED: USER        vdW + Hbond + desolv Energy     =  -8.90 kcal/mol
DOCKED: USER        Electrostatic Energy            =  +0.03 kcal/mol
DOCKED: USER        Moving Ligand-Fixed Receptor    =  -8.87 kcal/mol
DOCKED: USER        Moving Ligand-Moving Receptor   =  +0.00 kcal/mol
DOCKED: USER    (2) Final Total Internal Energy     =  -0.89 kcal/mol
DOCKED: USER    (3) Torsional Free Energy           =  +1.19 kcal/mol
DOCKED: USER    (4) Unbound System's Energy         =  -0.89 kcal/mol
DOCKED: USER
DOCKED: USER
DOCKED: REMARK SMILES [H]/N=c1/[n-]c2nc3ccccn3c(=O)c2cc1C(=O)N[C@@H](C)c1ccccc1
DOCKED: REMARK SMILES IDX 3 1 4 2 5 3 6 4 7 5 8 6 9 7 10 8 11 9 12 10 13 11 14 12
DOCKED: REMARK SMILES IDX 15 13 16 14 17 15 2 16 1 17 18 18 20 19 19 20 21 22 22 23
DOCKED: REMARK SMILES IDX 23 24 24 25 28 26 25 27 27 28 26 29
DOCKED: REMARK H PARENT 20 21
DOCKED: USER                              x       y       z     vdW  Elec       q    Type
DOCKED: USER                           _______ _______ _______ _____ _____    ______ ____
DOCKED: ROOT
DOCKED: ATOM      1  C   UNL     1     133.875  70.440 226.278 -0.33 -0.00    +0.015 A  
DOCKED: ATOM      2  N   UNL     1     133.091  71.352 226.911 -0.18 +0.04    -0.357 NA 
DOCKED: ATOM      3  C   UNL     1     133.236  72.690 226.732 -0.39 -0.00    +0.025 A  
DOCKED: ATOM      4  N   UNL     1     132.424  73.548 227.392 -0.39 +0.04    -0.345 NA 
DOCKED: ATOM      5  C   UNL     1     132.537  74.893 227.234 -0.37 +0.00    +0.069 A  
DOCKED: ATOM      6  C   UNL     1     131.672  75.735 227.940 -0.34 +0.00    +0.030 A  
DOCKED: ATOM      7  C   UNL     1     131.777  77.114 227.786 -0.32 +0.00    +0.004 A  
DOCKED: ATOM      8  C   UNL     1     132.740  77.642 226.932 -0.28 -0.00    +0.019 A  
DOCKED: ATOM      9  C   UNL     1     133.592  76.781 226.238 -0.27 -0.01    +0.095 A  
DOCKED: ATOM     10  N   UNL     1     133.492  75.419 226.387 -0.21 -0.00    -0.281 N  
DOCKED: ATOM     11  C   UNL     1     134.332  74.575 225.700 -0.25 +0.00    +0.263 A  
DOCKED: ATOM     12  O   UNL     1     135.211  75.040 224.921 -0.29 +0.03    -0.268 OA 
DOCKED: ATOM     13  C   UNL     1     134.217  73.182 225.863 -0.27 +0.00    +0.054 A  
DOCKED: ATOM     14  C   UNL     1     135.049  72.269 225.197 -0.02 -0.00    +0.029 A  
DOCKED: ATOM     15  C   UNL     1     134.900  70.888 225.402 -0.14 -0.00    +0.052 A  
DOCKED: ENDROOT
DOCKED: BRANCH   1  16
DOCKED: ATOM     16  N   UNL     1     133.628  69.180 226.469 -0.61 -0.03    -0.412 NA 
DOCKED: ATOM     17  H   UNL     1     134.014  68.404 225.890 +0.02 -0.00    +0.076 HD 
DOCKED: ENDBRANCH   1  16
DOCKED: BRANCH  15  18
DOCKED: ATOM     18  C   UNL     1     135.838  69.966 224.724 -0.14 -0.02    +0.252 C  
DOCKED: ATOM     19  N   UNL     1     137.207  70.352 224.517 -0.08 +0.05    -0.345 N  
DOCKED: ATOM     20  O   UNL     1     135.442  68.824 224.363 -0.52 -0.00    -0.269 OA 
DOCKED: ATOM     21  H   UNL     1     137.486  71.328 224.766 -0.00 -0.04    +0.164 HD 
DOCKED: BRANCH  19  22
DOCKED: ATOM     22  C   UNL     1     138.183  69.465 223.873 -0.25 -0.01    +0.109 C  
DOCKED: ATOM     23  C   UNL     1     138.791  70.150 222.646 -0.19 -0.01    +0.036 C  
DOCKED: BRANCH  22  24
DOCKED: ATOM     24  C   UNL     1     139.259  69.052 224.859 -0.38 +0.00    -0.026 A  
DOCKED: ATOM     25  C   UNL     1     139.236  67.767 225.433 -0.46 -0.00    +0.006 A  
DOCKED: ATOM     26  C   UNL     1     140.291  69.940 225.220 -0.44 -0.00    +0.006 A  
DOCKED: ATOM     27  C   UNL     1     140.223  67.380 226.344 -0.67 -0.00    +0.000 A  
DOCKED: ATOM     28  C   UNL     1     141.277  69.548 226.131 -0.52 -0.00    +0.000 A  
DOCKED: ATOM     29  C   UNL     1     141.244  68.269 226.692 -0.60 -0.00    +0.000 A  
DOCKED: ENDBRANCH  22  24
DOCKED: ENDBRANCH  19  22
DOCKED: ENDBRANCH  15  18
DOCKED: TORSDOF 4
DOCKED: TER
DOCKED: ENDMDL
________________________________________________________________________________


    CLUSTERING HISTOGRAM
    ____________________


________________________________________________________________________________
     |           |     |           |     |
Clus | Lowest    | Run | Mean      | Num | Histogram
-ter | Binding   |     | Binding   | in  |
Rank | Energy    |     | Energy    | Clus|    5    10   15   20   25   30   35
_____|___________|_____|___________|_____|____:____|____:____|____:____|____:___
   1 |     -7.69 |   4 |     -7.69 |  12 |############
   2 |     -7.66 |  13 |     -7.56 |   5 |#####
   3 |     -7.28 |   8 |     -7.27 |   3 |###
_____|___________|_____|___________|_____|______________________________________


    RMSD TABLE
    __________


_______________________________________________________________________
     |      |      |           |         |                 |
Rank | Sub- | Run  | Binding   | Cluster | Reference       | Grep
     | Rank |      | Energy    | RMSD    | RMSD            | Pattern
_____|______|______|___________|_________|_________________|___________
   1      1      4       -7.69      0.00    270.62           RANKING
   1      2      3       -7.69      0.04    270.61           RANKING
   1      3      6       -7.69      0.02    270.62           RANKING
   1      4      1       -7.69      0.03    270.62           RANKING
   1      5     11       -7.69      0.06    270.61           RANKING
   1      6     14       -7.69      0.08    270.60           RANKING
   1      7      9       -7.69      0.04    270.62           RANKING
   1      8      5       -7.68      0.08    270.60           RANKING
   1      9     17       -7.68      0.04    270.62           RANKING
   1     10     15       -7.68      0.04    270.60           RANKING
   1     11     20       -7.68      0.06    270.61           RANKING
   1     12     18       -7.67      0.08    270.60           RANKING
   2      1     13       -7.66      0.00    270.92           RANKING
   2      2     16       -7.66      0.01    270.92           RANKING
   2      3     19       -7.61      0.59    270.82           RANKING
   2      4     10       -7.60      0.60    270.81           RANKING
   2      5      7       -7.26      2.00    270.72           RANKING
   3      1      8       -7.28      0.00    270.71           RANKING
   3      2     12       -7.27      0.28    270.69           RANKING
   3      3      2       -7.27      0.31    270.68           RANKING

Run time 0.369 sec
Idle time 0.000 sec
