AutoDock-GPU version: v1.6

**********************************************************
**    AutoDock-GPU AUTODOCKTOOLS-COMPATIBLE DLG FILE    **
**********************************************************


    DOCKING PARAMETERS
    ________________________


Ligand file:                               /home/a/REINVENT4/ReinventStudies/scoringData/graph-dock/graph-DockGPU/node-autodockgpu/inputs/JBHRSOAXAGIKHA-ZYTNAAKSNA-N.pdbqt
Grid fld file:                             /home/a/REINVENT4/ReinventStudies/mols/Rad51/maps/rad51_receptor.maps.fld

Random seed:                               42
Number of runs:                            20
Number of energy evaluations:              3119281
Number of generations:                     42000
Size of population:                        150
Rate of crossover:                         80.000000%
Tournament selection probability limit:    60.000000%
Rate of mutation:                          2.000000%
Maximal allowed delta movement:            +/- 6.000000A
Maximal allowed delta angle:               +/- 90.000000

Rate of local search:                      100.000000%
Maximal number of local search iterations: 300
Rho lower bound:                           0.010000
Spread of local search delta movement:     2.000000A
Spread of local search delta angle:        74.999999
Limit of consecutive successes/failures:   4

Handle symmetry during clustering:         YES
RMSD tolerance:                            2.000000A

Program call in command line was:          /home/a/REINVENT4/ReinventStudies/adgpu-v1.6_linux_x64_cuda12_128wi --filelist batch.txt --heuristics 1 --nrun 20 --psize 150 --lsit 300 --seed 42 --heurmax 12000000 


    GRID PARAMETERS
    ________________________


Receptor name:                             rad51_receptor
Number of grid points (x, y, z):           53, 53, 53
Grid center (x, y, z):                     139.950000, 75.640000, 221.970000A
Grid size (x, y, z):                       19.500000, 19.500000, 19.500000A
Grid spacing:                              0.375000A


    LIGAND PARAMETERS
    ________________________


Ligand name:                               /home/a/REINVENT4/ReinventStudies/scoringData/graph-dock/graph-DockGPU/node-autodockgpu/inputs/JBHRSOAXAGIKHA-ZYTNAAKSNA-N
Number of atoms:                           28
Number of rotatable bonds:                 11
Number of atom types:                      7


    DUMMY DATA (only for ADT-compatibility)
    ________________________


DPF> outlev 1
DPF> ga_run 20
DPF> fld /home/a/REINVENT4/ReinventStudies/mols/Rad51/maps/rad51_receptor.maps.fld
DPF> move /home/a/REINVENT4/ReinventStudies/scoringData/graph-dock/graph-DockGPU/node-autodockgpu/inputs/JBHRSOAXAGIKHA-ZYTNAAKSNA-N.pdbqt


    COUNTER STATES
    ________________________


Number of energy evaluations performed:    3121805
Number of generations used:                163


    INPUT LIGAND PDBQT FILE:
    ________________________


INPUT-LIGAND-PDBQT: REMARK SMILES O/C(=C\CCOc1ccc(Cl)cc1Cl)[N-]/N=C/c1cccc(C(F)(F)F)c1
INPUT-LIGAND-PDBQT: REMARK SMILES IDX 2 1 1 2 15 4 16 5 17 6 18 7 19 8 27 9 20 10 22 11 21 12
INPUT-LIGAND-PDBQT: REMARK SMILES IDX 23 13 24 14 25 15 26 16 3 17 4 18 5 19 6 20 7 21 8 22 13 23
INPUT-LIGAND-PDBQT: REMARK SMILES IDX 9 24 12 25 10 26 14 27 11 28
INPUT-LIGAND-PDBQT: REMARK H PARENT 1 3
INPUT-LIGAND-PDBQT: ROOT
INPUT-LIGAND-PDBQT: ATOM      1  C   UNL     1      -3.971  -0.599   0.974  1.00  0.00     0.023 C 
INPUT-LIGAND-PDBQT: ENDROOT
INPUT-LIGAND-PDBQT: BRANCH   1   2
INPUT-LIGAND-PDBQT: ATOM      2  O   UNL     1      -5.119  -1.062   1.621  1.00  0.00    -0.530 OA
INPUT-LIGAND-PDBQT: ATOM      3  H   UNL     1      -5.488  -0.651   2.470  1.00  0.00     0.290 HD
INPUT-LIGAND-PDBQT: ENDBRANCH   1   2
INPUT-LIGAND-PDBQT: BRANCH   1   4
INPUT-LIGAND-PDBQT: ATOM      4  N   UNL     1      -3.571  -1.267  -0.229  1.00  0.00    -0.546 NA
INPUT-LIGAND-PDBQT: BRANCH   4   5
INPUT-LIGAND-PDBQT: ATOM      5  N   UNL     1      -2.421  -0.907  -0.944  1.00  0.00    -0.372 NA
INPUT-LIGAND-PDBQT: BRANCH   5   6
INPUT-LIGAND-PDBQT: ATOM      6  C   UNL     1      -2.058  -1.564  -1.997  1.00  0.00     0.094 C 
INPUT-LIGAND-PDBQT: BRANCH   6   7
INPUT-LIGAND-PDBQT: ATOM      7  C   UNL     1      -0.837  -1.192  -2.742  1.00  0.00    -0.009 A 
INPUT-LIGAND-PDBQT: ATOM      8  C   UNL     1      -0.052  -0.093  -2.351  1.00  0.00     0.009 A 
INPUT-LIGAND-PDBQT: ATOM      9  C   UNL     1      -0.451  -1.949  -3.859  1.00  0.00     0.022 A 
INPUT-LIGAND-PDBQT: ATOM     10  C   UNL     1       1.111   0.228  -3.054  1.00  0.00     0.001 A 
INPUT-LIGAND-PDBQT: ATOM     11  C   UNL     1       0.707  -1.617  -4.586  1.00  0.00     0.056 A 
INPUT-LIGAND-PDBQT: ATOM     12  C   UNL     1       1.496  -0.534  -4.159  1.00  0.00     0.013 A 
INPUT-LIGAND-PDBQT: BRANCH  11  13
INPUT-LIGAND-PDBQT: ATOM     13  C   UNL     1       1.130  -2.471  -5.755  1.00  0.00     0.416 C 
INPUT-LIGAND-PDBQT: ATOM     14  F   UNL     1       1.995  -1.782  -6.588  1.00  0.00    -0.166 F 
INPUT-LIGAND-PDBQT: ATOM     15  F   UNL     1       1.768  -3.605  -5.284  1.00  0.00    -0.166 F 
INPUT-LIGAND-PDBQT: ATOM     16  F   UNL     1       0.024  -2.850  -6.497  1.00  0.00    -0.166 F 
INPUT-LIGAND-PDBQT: ENDBRANCH  11  13
INPUT-LIGAND-PDBQT: ENDBRANCH   6   7
INPUT-LIGAND-PDBQT: ENDBRANCH   5   6
INPUT-LIGAND-PDBQT: ENDBRANCH   4   5
INPUT-LIGAND-PDBQT: ENDBRANCH   1   4
INPUT-LIGAND-PDBQT: BRANCH   1  17
INPUT-LIGAND-PDBQT: ATOM     17  C   UNL     1      -3.253   0.431   1.459  1.00  0.00    -0.001 C 
INPUT-LIGAND-PDBQT: BRANCH  17  18
INPUT-LIGAND-PDBQT: ATOM     18  C   UNL     1      -3.598   1.135   2.744  1.00  0.00     0.071 C 
INPUT-LIGAND-PDBQT: BRANCH  18  19
INPUT-LIGAND-PDBQT: ATOM     19  C   UNL     1      -2.563   2.199   3.126  1.00  0.00     0.234 C 
INPUT-LIGAND-PDBQT: BRANCH  19  20
INPUT-LIGAND-PDBQT: ATOM     20  O   UNL     1      -1.338   1.588   3.542  1.00  0.00    -0.492 OA
INPUT-LIGAND-PDBQT: BRANCH  20  21
INPUT-LIGAND-PDBQT: ATOM     21  C   UNL     1      -0.271   1.229   2.703  1.00  0.00     0.137 A 
INPUT-LIGAND-PDBQT: ATOM     22  C   UNL     1       0.038   1.945   1.529  1.00  0.00     0.049 A 
INPUT-LIGAND-PDBQT: ATOM     23  C   UNL     1       0.530   0.133   3.064  1.00  0.00     0.084 A 
INPUT-LIGAND-PDBQT: ATOM     24  C   UNL     1       1.112   1.552   0.725  1.00  0.00     0.024 A 
INPUT-LIGAND-PDBQT: ATOM     25  C   UNL     1       1.597  -0.262   2.250  1.00  0.00     0.045 A 
INPUT-LIGAND-PDBQT: ATOM     26  C   UNL     1       1.885   0.443   1.077  1.00  0.00     0.042 A 
INPUT-LIGAND-PDBQT: ATOM     27  Cl  UNL     1       0.182  -0.780   4.524  1.00  0.00    -0.080 Cl
INPUT-LIGAND-PDBQT: ATOM     28  Cl  UNL     1       3.219  -0.059   0.053  1.00  0.00    -0.084 Cl
INPUT-LIGAND-PDBQT: ENDBRANCH  20  21
INPUT-LIGAND-PDBQT: ENDBRANCH  19  20
INPUT-LIGAND-PDBQT: ENDBRANCH  18  19
INPUT-LIGAND-PDBQT: ENDBRANCH  17  18
INPUT-LIGAND-PDBQT: ENDBRANCH   1  17
INPUT-LIGAND-PDBQT: TORSDOF 11


    FINAL DOCKED STATE:
    ________________________


Run:   1 / 20
Time taken for this run:   0.130s

DOCKED: MODEL        1
DOCKED: USER    Run = 1
DOCKED: USER
DOCKED: USER    Estimated Free Energy of Binding    =  -5.59 kcal/mol  [=(1)+(2)+(3)-(4)]
DOCKED: USER
DOCKED: USER    (1) Final Intermolecular Energy     =  -8.87 kcal/mol
DOCKED: USER        vdW + Hbond + desolv Energy     =  -9.04 kcal/mol
DOCKED: USER        Electrostatic Energy            =  +0.16 kcal/mol
DOCKED: USER        Moving Ligand-Fixed Receptor    =  -8.87 kcal/mol
DOCKED: USER        Moving Ligand-Moving Receptor   =  +0.00 kcal/mol
DOCKED: USER    (2) Final Total Internal Energy     =  -1.66 kcal/mol
DOCKED: USER    (3) Torsional Free Energy           =  +3.28 kcal/mol
DOCKED: USER    (4) Unbound System's Energy         =  -1.66 kcal/mol
DOCKED: USER
DOCKED: USER
DOCKED: REMARK SMILES O/C(=C\CCOc1ccc(Cl)cc1Cl)[N-]/N=C/c1cccc(C(F)(F)F)c1
DOCKED: REMARK SMILES IDX 2 1 1 2 15 4 16 5 17 6 18 7 19 8 27 9 20 10 22 11 21 12
DOCKED: REMARK SMILES IDX 23 13 24 14 25 15 26 16 3 17 4 18 5 19 6 20 7 21 8 22 13 23
DOCKED: REMARK SMILES IDX 9 24 12 25 10 26 14 27 11 28
DOCKED: REMARK H PARENT 1 3
DOCKED: USER                              x       y       z     vdW  Elec       q    Type
DOCKED: USER                           _______ _______ _______ _____ _____    ______ ____
DOCKED: ROOT
DOCKED: ATOM      1  C   UNL     1     139.860  74.166 221.028 -0.22 -0.00    +0.023 C  
DOCKED: ENDROOT
DOCKED: BRANCH   1   2
DOCKED: ATOM      2  O   UNL     1     139.668  74.561 222.353 -0.65 +0.05    -0.530 OA 
DOCKED: ATOM      3  H   UNL     1     139.317  73.944 223.076 -0.47 -0.09    +0.290 HD 
DOCKED: ENDBRANCH   1   2
DOCKED: BRANCH   1   4
DOCKED: ATOM      4  N   UNL     1     140.499  75.095 220.143 +0.02 +0.14    -0.546 NA 
DOCKED: BRANCH   4   5
DOCKED: ATOM      5  N   UNL     1     141.740  74.836 219.546 -0.04 +0.12    -0.372 NA 
DOCKED: BRANCH   5   6
DOCKED: ATOM      6  C   UNL     1     142.844  75.147 220.142 -0.29 -0.04    +0.094 C  
DOCKED: BRANCH   6   7
DOCKED: ATOM      7  C   UNL     1     143.970  74.191 220.205 -0.41 +0.00    -0.009 A  
DOCKED: ATOM      8  C   UNL     1     145.215  74.566 220.739 -0.40 -0.00    +0.009 A  
DOCKED: ATOM      9  C   UNL     1     143.794  72.883 219.726 -0.27 -0.00    +0.022 A  
DOCKED: ATOM     10  C   UNL     1     146.259  73.641 220.811 -0.70 -0.00    +0.001 A  
DOCKED: ATOM     11  C   UNL     1     144.848  71.953 219.775 -0.31 +0.00    +0.056 A  
DOCKED: ATOM     12  C   UNL     1     146.076  72.339 220.342 -0.36 +0.00    +0.013 A  
DOCKED: BRANCH  11  13
DOCKED: ATOM     13  C   UNL     1     144.625  70.540 219.297 -0.07 +0.07    +0.416 C  
DOCKED: ATOM     14  F   UNL     1     143.717  69.879 220.107 -0.07 -0.00    -0.166 F  
DOCKED: ATOM     15  F   UNL     1     144.136  70.567 218.003 -0.00 -0.01    -0.166 F  
DOCKED: ATOM     16  F   UNL     1     145.816  69.833 219.316 -0.12 -0.09    -0.166 F  
DOCKED: ENDBRANCH  11  13
DOCKED: ENDBRANCH   6   7
DOCKED: ENDBRANCH   5   6
DOCKED: ENDBRANCH   4   5
DOCKED: ENDBRANCH   1   4
DOCKED: BRANCH   1  17
DOCKED: ATOM     17  C   UNL     1     139.456  72.961 220.583 -0.12 +0.00    -0.001 C  
DOCKED: BRANCH  17  18
DOCKED: ATOM     18  C   UNL     1     140.044  71.667 221.079 -0.15 -0.01    +0.071 C  
DOCKED: BRANCH  18  19
DOCKED: ATOM     19  C   UNL     1     140.939  71.863 222.307 -0.15 -0.02    +0.234 C  
DOCKED: BRANCH  19  20
DOCKED: ATOM     20  O   UNL     1     140.151  71.986 223.495 -0.23 +0.08    -0.492 OA 
DOCKED: BRANCH  20  21
DOCKED: ATOM     21  C   UNL     1     140.282  71.205 224.655 -0.40 -0.02    +0.137 A  
DOCKED: ATOM     22  C   UNL     1     141.002  71.647 225.783 -0.55 -0.01    +0.049 A  
DOCKED: ATOM     23  C   UNL     1     139.650  69.951 224.697 -0.33 -0.01    +0.084 A  
DOCKED: ATOM     24  C   UNL     1     141.104  70.836 226.917 -0.62 -0.00    +0.024 A  
DOCKED: ATOM     25  C   UNL     1     139.764  69.140 225.831 -0.45 -0.01    +0.045 A  
DOCKED: ATOM     26  C   UNL     1     140.496  69.578 226.939 -0.54 -0.01    +0.042 A  
DOCKED: ATOM     27  Cl  UNL     1     138.737  69.369 223.314 -0.31 +0.01    -0.080 Cl 
DOCKED: ATOM     28  Cl  UNL     1     140.645  68.555 228.357 -0.81 +0.02    -0.084 Cl 
DOCKED: ENDBRANCH  20  21
DOCKED: ENDBRANCH  19  20
DOCKED: ENDBRANCH  18  19
DOCKED: ENDBRANCH  17  18
DOCKED: ENDBRANCH   1  17
DOCKED: TORSDOF 11
DOCKED: TER
DOCKED: ENDMDL
________________________________________________________________________________


    FINAL DOCKED STATE:
    ________________________


Run:   2 / 20
Time taken for this run:   0.130s

DOCKED: MODEL        2
DOCKED: USER    Run = 2
DOCKED: USER
DOCKED: USER    Estimated Free Energy of Binding    =  -6.44 kcal/mol  [=(1)+(2)+(3)-(4)]
DOCKED: USER
DOCKED: USER    (1) Final Intermolecular Energy     =  -9.72 kcal/mol
DOCKED: USER        vdW + Hbond + desolv Energy     =  -9.84 kcal/mol
DOCKED: USER        Electrostatic Energy            =  +0.11 kcal/mol
DOCKED: USER        Moving Ligand-Fixed Receptor    =  -9.72 kcal/mol
DOCKED: USER        Moving Ligand-Moving Receptor   =  +0.00 kcal/mol
DOCKED: USER    (2) Final Total Internal Energy     =  -1.11 kcal/mol
DOCKED: USER    (3) Torsional Free Energy           =  +3.28 kcal/mol
DOCKED: USER    (4) Unbound System's Energy         =  -1.11 kcal/mol
DOCKED: USER
DOCKED: USER
DOCKED: REMARK SMILES O/C(=C\CCOc1ccc(Cl)cc1Cl)[N-]/N=C/c1cccc(C(F)(F)F)c1
DOCKED: REMARK SMILES IDX 2 1 1 2 15 4 16 5 17 6 18 7 19 8 27 9 20 10 22 11 21 12
DOCKED: REMARK SMILES IDX 23 13 24 14 25 15 26 16 3 17 4 18 5 19 6 20 7 21 8 22 13 23
DOCKED: REMARK SMILES IDX 9 24 12 25 10 26 14 27 11 28
DOCKED: REMARK H PARENT 1 3
DOCKED: USER                              x       y       z     vdW  Elec       q    Type
DOCKED: USER                           _______ _______ _______ _____ _____    ______ ____
DOCKED: ROOT
DOCKED: ATOM      1  C   UNL     1     139.811  75.249 221.983 -0.29 -0.00    +0.023 C  
DOCKED: ENDROOT
DOCKED: BRANCH   1   2
DOCKED: ATOM      2  O   UNL     1     141.117  75.742 221.937 -0.26 +0.15    -0.530 OA 
DOCKED: ATOM      3  H   UNL     1     141.920  75.236 222.291 -0.20 -0.08    +0.290 HD 
DOCKED: ENDBRANCH   1   2
DOCKED: BRANCH   1   4
DOCKED: ATOM      4  N   UNL     1     139.632  73.875 222.349 -0.62 +0.08    -0.546 NA 
DOCKED: BRANCH   4   5
DOCKED: ATOM      5  N   UNL     1     140.707  73.034 222.668 -0.45 -0.02    -0.372 NA 
DOCKED: BRANCH   5   6
DOCKED: ATOM      6  C   UNL     1     140.552  71.752 222.740 -0.27 -0.01    +0.094 C  
DOCKED: BRANCH   6   7
DOCKED: ATOM      7  C   UNL     1     140.245  71.094 224.027 -0.42 +0.00    -0.009 A  
DOCKED: ATOM      8  C   UNL     1     139.515  69.894 224.075 -0.32 -0.00    +0.009 A  
DOCKED: ATOM      9  C   UNL     1     140.691  71.675 225.224 -0.48 -0.00    +0.022 A  
DOCKED: ATOM     10  C   UNL     1     139.255  69.275 225.300 -0.42 -0.00    +0.001 A  
DOCKED: ATOM     11  C   UNL     1     140.413  71.069 226.463 -0.58 -0.01    +0.056 A  
DOCKED: ATOM     12  C   UNL     1     139.710  69.851 226.487 -0.49 -0.00    +0.013 A  
DOCKED: BRANCH  11  13
DOCKED: ATOM     13  C   UNL     1     140.942  71.684 227.735 -0.41 -0.09    +0.416 C  
DOCKED: ATOM     14  F   UNL     1     141.895  72.650 227.462 -0.33 +0.03    -0.166 F  
DOCKED: ATOM     15  F   UNL     1     139.896  72.267 228.428 -0.27 +0.05    -0.166 F  
DOCKED: ATOM     16  F   UNL     1     141.526  70.713 228.531 -0.16 +0.03    -0.166 F  
DOCKED: ENDBRANCH  11  13
DOCKED: ENDBRANCH   6   7
DOCKED: ENDBRANCH   5   6
DOCKED: ENDBRANCH   4   5
DOCKED: ENDBRANCH   1   4
DOCKED: BRANCH   1  17
DOCKED: ATOM     17  C   UNL     1     138.752  76.025 221.688 -0.26 +0.00    -0.001 C  
DOCKED: BRANCH  17  18
DOCKED: ATOM     18  C   UNL     1     138.008  76.822 222.726 -0.27 -0.01    +0.071 C  
DOCKED: BRANCH  18  19
DOCKED: ATOM     19  C   UNL     1     137.128  77.914 222.107 -0.11 -0.04    +0.234 C  
DOCKED: BRANCH  19  20
DOCKED: ATOM     20  O   UNL     1     137.928  79.002 221.634 -0.01 +0.09    -0.492 OA 
DOCKED: BRANCH  20  21
DOCKED: ATOM     21  C   UNL     1     139.208  79.345 222.099 -0.18 -0.03    +0.137 A  
DOCKED: ATOM     22  C   UNL     1     140.384  78.952 221.429 -0.23 -0.02    +0.049 A  
DOCKED: ATOM     23  C   UNL     1     139.314  80.131 223.259 -0.34 -0.01    +0.084 A  
DOCKED: ATOM     24  C   UNL     1     141.637  79.320 221.928 -0.43 -0.01    +0.024 A  
DOCKED: ATOM     25  C   UNL     1     140.570  80.487 223.760 -0.41 -0.01    +0.045 A  
DOCKED: ATOM     26  C   UNL     1     141.733  80.077 223.098 -0.54 -0.01    +0.042 A  
DOCKED: ATOM     27  Cl  UNL     1     137.871  80.647 224.118 -0.44 +0.01    -0.080 Cl 
DOCKED: ATOM     28  Cl  UNL     1     143.308  80.518 223.733 -0.64 +0.02    -0.084 Cl 
DOCKED: ENDBRANCH  20  21
DOCKED: ENDBRANCH  19  20
DOCKED: ENDBRANCH  18  19
DOCKED: ENDBRANCH  17  18
DOCKED: ENDBRANCH   1  17
DOCKED: TORSDOF 11
DOCKED: TER
DOCKED: ENDMDL
________________________________________________________________________________


    FINAL DOCKED STATE:
    ________________________


Run:   3 / 20
Time taken for this run:   0.130s

DOCKED: MODEL        3
DOCKED: USER    Run = 3
DOCKED: USER
DOCKED: USER    Estimated Free Energy of Binding    =  -6.15 kcal/mol  [=(1)+(2)+(3)-(4)]
DOCKED: USER
DOCKED: USER    (1) Final Intermolecular Energy     =  -9.43 kcal/mol
DOCKED: USER        vdW + Hbond + desolv Energy     =  -9.60 kcal/mol
DOCKED: USER        Electrostatic Energy            =  +0.17 kcal/mol
DOCKED: USER        Moving Ligand-Fixed Receptor    =  -9.43 kcal/mol
DOCKED: USER        Moving Ligand-Moving Receptor   =  +0.00 kcal/mol
DOCKED: USER    (2) Final Total Internal Energy     =  -0.90 kcal/mol
DOCKED: USER    (3) Torsional Free Energy           =  +3.28 kcal/mol
DOCKED: USER    (4) Unbound System's Energy         =  -0.90 kcal/mol
DOCKED: USER
DOCKED: USER
DOCKED: REMARK SMILES O/C(=C\CCOc1ccc(Cl)cc1Cl)[N-]/N=C/c1cccc(C(F)(F)F)c1
DOCKED: REMARK SMILES IDX 2 1 1 2 15 4 16 5 17 6 18 7 19 8 27 9 20 10 22 11 21 12
DOCKED: REMARK SMILES IDX 23 13 24 14 25 15 26 16 3 17 4 18 5 19 6 20 7 21 8 22 13 23
DOCKED: REMARK SMILES IDX 9 24 12 25 10 26 14 27 11 28
DOCKED: REMARK H PARENT 1 3
DOCKED: USER                              x       y       z     vdW  Elec       q    Type
DOCKED: USER                           _______ _______ _______ _____ _____    ______ ____
DOCKED: ROOT
DOCKED: ATOM      1  C   UNL     1     140.923  72.512 221.446 -0.26 -0.00    +0.023 C  
DOCKED: ENDROOT
DOCKED: BRANCH   1   2
DOCKED: ATOM      2  O   UNL     1     140.381  71.593 220.544 -0.01 +0.08    -0.530 OA 
DOCKED: ATOM      3  H   UNL     1     139.629  70.956 220.777 +0.06 -0.05    +0.290 HD 
DOCKED: ENDBRANCH   1   2
DOCKED: BRANCH   1   4
DOCKED: ATOM      4  N   UNL     1     140.380  72.541 222.772 -0.33 +0.04    -0.546 NA 
DOCKED: BRANCH   4   5
DOCKED: ATOM      5  N   UNL     1     139.359  71.675 223.187 -0.15 +0.09    -0.372 NA 
DOCKED: BRANCH   5   6
DOCKED: ATOM      6  C   UNL     1     139.616  70.450 223.512 -0.27 -0.02    +0.094 C  
DOCKED: BRANCH   6   7
DOCKED: ATOM      7  C   UNL     1     139.938  70.084 224.907 -0.41 +0.00    -0.009 A  
DOCKED: ATOM      8  C   UNL     1     139.936  68.743 225.327 -0.42 -0.00    +0.009 A  
DOCKED: ATOM      9  C   UNL     1     140.253  71.093 225.831 -0.55 -0.00    +0.022 A  
DOCKED: ATOM     10  C   UNL     1     140.267  68.416 226.644 -0.63 -0.00    +0.001 A  
DOCKED: ATOM     11  C   UNL     1     140.564  70.772 227.165 -0.61 -0.01    +0.056 A  
DOCKED: ATOM     12  C   UNL     1     140.589  69.422 227.557 -0.61 -0.00    +0.013 A  
DOCKED: BRANCH  11  13
DOCKED: ATOM     13  C   UNL     1     140.946  71.867 228.130 -0.36 -0.10    +0.416 C  
DOCKED: ATOM     14  F   UNL     1     141.903  71.427 229.029 -0.16 +0.04    -0.166 F  
DOCKED: ATOM     15  F   UNL     1     141.454  72.942 227.423 -0.31 +0.04    -0.166 F  
DOCKED: ATOM     16  F   UNL     1     139.837  72.281 228.848 -0.25 +0.06    -0.166 F  
DOCKED: ENDBRANCH  11  13
DOCKED: ENDBRANCH   6   7
DOCKED: ENDBRANCH   5   6
DOCKED: ENDBRANCH   4   5
DOCKED: ENDBRANCH   1   4
DOCKED: BRANCH   1  17
DOCKED: ATOM     17  C   UNL     1     141.913  73.352 221.091 -0.23 +0.00    -0.001 C  
DOCKED: BRANCH  17  18
DOCKED: ATOM     18  C   UNL     1     141.660  74.691 220.453 -0.24 -0.02    +0.071 C  
DOCKED: BRANCH  18  19
DOCKED: ATOM     19  C   UNL     1     140.716  75.568 221.285 -0.23 -0.06    +0.234 C  
DOCKED: BRANCH  19  20
DOCKED: ATOM     20  O   UNL     1     140.811  76.937 220.882 -0.06 +0.19    -0.492 OA 
DOCKED: BRANCH  20  21
DOCKED: ATOM     21  C   UNL     1     141.215  78.008 221.695 -0.30 -0.06    +0.137 A  
DOCKED: ATOM     22  C   UNL     1     141.143  77.955 223.102 -0.44 -0.02    +0.049 A  
DOCKED: ATOM     23  C   UNL     1     141.733  79.161 221.082 -0.31 -0.04    +0.084 A  
DOCKED: ATOM     24  C   UNL     1     141.559  79.045 223.871 -0.60 -0.01    +0.024 A  
DOCKED: ATOM     25  C   UNL     1     142.138  80.253 221.857 -0.46 -0.02    +0.045 A  
DOCKED: ATOM     26  C   UNL     1     142.046  80.199 223.251 -0.59 -0.01    +0.042 A  
DOCKED: ATOM     27  Cl  UNL     1     141.846  79.263 219.332 -0.34 +0.05    -0.080 Cl 
DOCKED: ATOM     28  Cl  UNL     1     142.547  81.573 224.221 -0.55 +0.01    -0.084 Cl 
DOCKED: ENDBRANCH  20  21
DOCKED: ENDBRANCH  19  20
DOCKED: ENDBRANCH  18  19
DOCKED: ENDBRANCH  17  18
DOCKED: ENDBRANCH   1  17
DOCKED: TORSDOF 11
DOCKED: TER
DOCKED: ENDMDL
________________________________________________________________________________


    FINAL DOCKED STATE:
    ________________________


Run:   4 / 20
Time taken for this run:   0.130s

DOCKED: MODEL        4
DOCKED: USER    Run = 4
DOCKED: USER
DOCKED: USER    Estimated Free Energy of Binding    =  -5.73 kcal/mol  [=(1)+(2)+(3)-(4)]
DOCKED: USER
DOCKED: USER    (1) Final Intermolecular Energy     =  -9.01 kcal/mol
DOCKED: USER        vdW + Hbond + desolv Energy     =  -9.06 kcal/mol
DOCKED: USER        Electrostatic Energy            =  +0.05 kcal/mol
DOCKED: USER        Moving Ligand-Fixed Receptor    =  -9.01 kcal/mol
DOCKED: USER        Moving Ligand-Moving Receptor   =  +0.00 kcal/mol
DOCKED: USER    (2) Final Total Internal Energy     =  -1.32 kcal/mol
DOCKED: USER    (3) Torsional Free Energy           =  +3.28 kcal/mol
DOCKED: USER    (4) Unbound System's Energy         =  -1.32 kcal/mol
DOCKED: USER
DOCKED: USER
DOCKED: REMARK SMILES O/C(=C\CCOc1ccc(Cl)cc1Cl)[N-]/N=C/c1cccc(C(F)(F)F)c1
DOCKED: REMARK SMILES IDX 2 1 1 2 15 4 16 5 17 6 18 7 19 8 27 9 20 10 22 11 21 12
DOCKED: REMARK SMILES IDX 23 13 24 14 25 15 26 16 3 17 4 18 5 19 6 20 7 21 8 22 13 23
DOCKED: REMARK SMILES IDX 9 24 12 25 10 26 14 27 11 28
DOCKED: REMARK H PARENT 1 3
DOCKED: USER                              x       y       z     vdW  Elec       q    Type
DOCKED: USER                           _______ _______ _______ _____ _____    ______ ____
DOCKED: ROOT
DOCKED: ATOM      1  C   UNL     1     139.511  73.759 221.377 -0.23 -0.00    +0.023 C  
DOCKED: ENDROOT
DOCKED: BRANCH   1   2
DOCKED: ATOM      2  O   UNL     1     139.952  73.770 222.703 -0.61 -0.01    -0.530 OA 
DOCKED: ATOM      3  H   UNL     1     139.421  73.384 223.473 -0.37 -0.13    +0.290 HD 
DOCKED: ENDBRANCH   1   2
DOCKED: BRANCH   1   4
DOCKED: ATOM      4  N   UNL     1     140.271  74.504 220.418 +0.00 +0.12    -0.546 NA 
DOCKED: BRANCH   4   5
DOCKED: ATOM      5  N   UNL     1     141.419  75.228 220.764 -0.12 +0.12    -0.372 NA 
DOCKED: BRANCH   5   6
DOCKED: ATOM      6  C   UNL     1     141.506  76.495 220.521 -0.25 -0.04    +0.094 C  
DOCKED: BRANCH   6   7
DOCKED: ATOM      7  C   UNL     1     141.032  77.492 221.504 -0.35 +0.00    -0.009 A  
DOCKED: ATOM      8  C   UNL     1     139.797  77.339 222.158 -0.34 -0.00    +0.009 A  
DOCKED: ATOM      9  C   UNL     1     141.829  78.611 221.794 -0.40 -0.01    +0.022 A  
DOCKED: ATOM     10  C   UNL     1     139.377  78.280 223.101 -0.29 -0.00    +0.001 A  
DOCKED: ATOM     11  C   UNL     1     141.402  79.575 222.726 -0.47 -0.02    +0.056 A  
DOCKED: ATOM     12  C   UNL     1     140.178  79.386 223.392 -0.45 -0.00    +0.013 A  
DOCKED: BRANCH  11  13
DOCKED: ATOM     13  C   UNL     1     142.293  80.745 223.057 -0.30 -0.10    +0.416 C  
DOCKED: ATOM     14  F   UNL     1     143.617  80.351 223.155 -0.25 +0.05    -0.166 F  
DOCKED: ATOM     15  F   UNL     1     142.181  81.700 222.061 -0.15 +0.03    -0.166 F  
DOCKED: ATOM     16  F   UNL     1     141.918  81.307 224.266 -0.21 +0.02    -0.166 F  
DOCKED: ENDBRANCH  11  13
DOCKED: ENDBRANCH   6   7
DOCKED: ENDBRANCH   5   6
DOCKED: ENDBRANCH   4   5
DOCKED: ENDBRANCH   1   4
DOCKED: BRANCH   1  17
DOCKED: ATOM     17  C   UNL     1     138.408  73.084 221.005 -0.12 +0.00    -0.001 C  
DOCKED: BRANCH  17  18
DOCKED: ATOM     18  C   UNL     1     138.302  71.584 221.082 -0.08 -0.01    +0.071 C  
DOCKED: BRANCH  18  19
DOCKED: ATOM     19  C   UNL     1     139.312  70.974 222.061 -0.13 -0.04    +0.234 C  
DOCKED: BRANCH  19  20
DOCKED: ATOM     20  O   UNL     1     139.049  71.411 223.398 -0.11 +0.12    -0.492 OA 
DOCKED: BRANCH  20  21
DOCKED: ATOM     21  C   UNL     1     139.520  70.799 224.570 -0.34 -0.03    +0.137 A  
DOCKED: ATOM     22  C   UNL     1     140.703  71.214 225.214 -0.52 -0.01    +0.049 A  
DOCKED: ATOM     23  C   UNL     1     138.767  69.754 225.133 -0.33 -0.01    +0.084 A  
DOCKED: ATOM     24  C   UNL     1     141.131  70.576 226.382 -0.58 -0.00    +0.024 A  
DOCKED: ATOM     25  C   UNL     1     139.207  69.113 226.296 -0.46 -0.01    +0.045 A  
DOCKED: ATOM     26  C   UNL     1     140.392  69.519 226.918 -0.54 -0.01    +0.042 A  
DOCKED: ATOM     27  Cl  UNL     1     137.283  69.214 224.365 -0.32 +0.01    -0.080 Cl 
DOCKED: ATOM     28  Cl  UNL     1     140.946  68.707 228.372 -0.76 +0.02    -0.084 Cl 
DOCKED: ENDBRANCH  20  21
DOCKED: ENDBRANCH  19  20
DOCKED: ENDBRANCH  18  19
DOCKED: ENDBRANCH  17  18
DOCKED: ENDBRANCH   1  17
DOCKED: TORSDOF 11
DOCKED: TER
DOCKED: ENDMDL
________________________________________________________________________________


    FINAL DOCKED STATE:
    ________________________


Run:   5 / 20
Time taken for this run:   0.130s

DOCKED: MODEL        5
DOCKED: USER    Run = 5
DOCKED: USER
DOCKED: USER    Estimated Free Energy of Binding    =  -5.99 kcal/mol  [=(1)+(2)+(3)-(4)]
DOCKED: USER
DOCKED: USER    (1) Final Intermolecular Energy     =  -9.27 kcal/mol
DOCKED: USER        vdW + Hbond + desolv Energy     =  -9.28 kcal/mol
DOCKED: USER        Electrostatic Energy            =  +0.00 kcal/mol
DOCKED: USER        Moving Ligand-Fixed Receptor    =  -9.27 kcal/mol
DOCKED: USER        Moving Ligand-Moving Receptor   =  +0.00 kcal/mol
DOCKED: USER    (2) Final Total Internal Energy     =  -1.44 kcal/mol
DOCKED: USER    (3) Torsional Free Energy           =  +3.28 kcal/mol
DOCKED: USER    (4) Unbound System's Energy         =  -1.44 kcal/mol
DOCKED: USER
DOCKED: USER
DOCKED: REMARK SMILES O/C(=C\CCOc1ccc(Cl)cc1Cl)[N-]/N=C/c1cccc(C(F)(F)F)c1
DOCKED: REMARK SMILES IDX 2 1 1 2 15 4 16 5 17 6 18 7 19 8 27 9 20 10 22 11 21 12
DOCKED: REMARK SMILES IDX 23 13 24 14 25 15 26 16 3 17 4 18 5 19 6 20 7 21 8 22 13 23
DOCKED: REMARK SMILES IDX 9 24 12 25 10 26 14 27 11 28
DOCKED: REMARK H PARENT 1 3
DOCKED: USER                              x       y       z     vdW  Elec       q    Type
DOCKED: USER                           _______ _______ _______ _____ _____    ______ ____
DOCKED: ROOT
DOCKED: ATOM      1  C   UNL     1     139.991  75.076 221.714 -0.30 -0.00    +0.023 C  
DOCKED: ENDROOT
DOCKED: BRANCH   1   2
DOCKED: ATOM      2  O   UNL     1     141.015  75.836 222.283 -0.26 +0.13    -0.530 OA 
DOCKED: ATOM      3  H   UNL     1     141.991  75.742 222.027 -0.40 -0.16    +0.290 HD 
DOCKED: ENDBRANCH   1   2
DOCKED: BRANCH   1   4
DOCKED: ATOM      4  N   UNL     1     139.691  73.810 222.312 -0.62 +0.07    -0.546 NA 
DOCKED: BRANCH   4   5
DOCKED: ATOM      5  N   UNL     1     140.688  72.938 222.771 -0.40 -0.01    -0.372 NA 
DOCKED: BRANCH   5   6
DOCKED: ATOM      6  C   UNL     1     140.469  71.667 222.868 -0.28 -0.01    +0.094 C  
DOCKED: BRANCH   6   7
DOCKED: ATOM      7  C   UNL     1     140.159  71.046 224.172 -0.43 +0.00    -0.009 A  
DOCKED: ATOM      8  C   UNL     1     139.391  69.871 224.255 -0.33 -0.00    +0.009 A  
DOCKED: ATOM      9  C   UNL     1     140.641  71.636 225.351 -0.50 -0.00    +0.022 A  
DOCKED: ATOM     10  C   UNL     1     139.129  69.286 225.496 -0.43 -0.00    +0.001 A  
DOCKED: ATOM     11  C   UNL     1     140.360  71.065 226.606 -0.58 -0.01    +0.056 A  
DOCKED: ATOM     12  C   UNL     1     139.618  69.872 226.665 -0.48 -0.00    +0.013 A  
DOCKED: BRANCH  11  13
DOCKED: ATOM     13  C   UNL     1     140.926  71.689 227.858 -0.41 -0.09    +0.416 C  
DOCKED: ATOM     14  F   UNL     1     141.828  72.693 227.550 -0.34 +0.03    -0.166 F  
DOCKED: ATOM     15  F   UNL     1     139.894  72.226 228.606 -0.28 +0.06    -0.166 F  
DOCKED: ATOM     16  F   UNL     1     141.583  70.734 228.615 -0.15 +0.03    -0.166 F  
DOCKED: ENDBRANCH  11  13
DOCKED: ENDBRANCH   6   7
DOCKED: ENDBRANCH   5   6
DOCKED: ENDBRANCH   4   5
DOCKED: ENDBRANCH   1   4
DOCKED: BRANCH   1  17
DOCKED: ATOM     17  C   UNL     1     139.309  75.505 220.635 -0.16 +0.00    -0.001 C  
DOCKED: BRANCH  17  18
DOCKED: ATOM     18  C   UNL     1     138.939  74.602 219.490 -0.04 -0.02    +0.071 C  
DOCKED: BRANCH  18  19
DOCKED: ATOM     19  C   UNL     1     139.767  73.312 219.468 -0.02 -0.05    +0.234 C  
DOCKED: BRANCH  19  20
DOCKED: ATOM     20  O   UNL     1     141.039  73.537 218.851 +0.02 +0.11    -0.492 OA 
DOCKED: BRANCH  20  21
DOCKED: ATOM     21  C   UNL     1     142.281  73.541 219.505 -0.12 -0.03    +0.137 A  
DOCKED: ATOM     22  C   UNL     1     143.012  74.725 219.728 -0.29 -0.02    +0.049 A  
DOCKED: ATOM     23  C   UNL     1     142.798  72.322 219.974 -0.18 -0.01    +0.084 A  
DOCKED: ATOM     24  C   UNL     1     144.245  74.680 220.386 -0.42 -0.01    +0.024 A  
DOCKED: ATOM     25  C   UNL     1     144.037  72.282 220.623 -0.33 -0.01    +0.045 A  
DOCKED: ATOM     26  C   UNL     1     144.764  73.459 220.823 -0.50 -0.01    +0.042 A  
DOCKED: ATOM     27  Cl  UNL     1     141.914  70.825 219.723 -0.16 +0.01    -0.080 Cl 
DOCKED: ATOM     28  Cl  UNL     1     146.322  73.406 221.630 -0.88 +0.01    -0.084 Cl 
DOCKED: ENDBRANCH  20  21
DOCKED: ENDBRANCH  19  20
DOCKED: ENDBRANCH  18  19
DOCKED: ENDBRANCH  17  18
DOCKED: ENDBRANCH   1  17
DOCKED: TORSDOF 11
DOCKED: TER
DOCKED: ENDMDL
________________________________________________________________________________


    FINAL DOCKED STATE:
    ________________________


Run:   6 / 20
Time taken for this run:   0.130s

DOCKED: MODEL        6
DOCKED: USER    Run = 6
DOCKED: USER
DOCKED: USER    Estimated Free Energy of Binding    =  -5.20 kcal/mol  [=(1)+(2)+(3)-(4)]
DOCKED: USER
DOCKED: USER    (1) Final Intermolecular Energy     =  -8.48 kcal/mol
DOCKED: USER        vdW + Hbond + desolv Energy     =  -8.40 kcal/mol
DOCKED: USER        Electrostatic Energy            =  -0.08 kcal/mol
DOCKED: USER        Moving Ligand-Fixed Receptor    =  -8.48 kcal/mol
DOCKED: USER        Moving Ligand-Moving Receptor   =  +0.00 kcal/mol
DOCKED: USER    (2) Final Total Internal Energy     =  -1.94 kcal/mol
DOCKED: USER    (3) Torsional Free Energy           =  +3.28 kcal/mol
DOCKED: USER    (4) Unbound System's Energy         =  -1.94 kcal/mol
DOCKED: USER
DOCKED: USER
DOCKED: REMARK SMILES O/C(=C\CCOc1ccc(Cl)cc1Cl)[N-]/N=C/c1cccc(C(F)(F)F)c1
DOCKED: REMARK SMILES IDX 2 1 1 2 15 4 16 5 17 6 18 7 19 8 27 9 20 10 22 11 21 12
DOCKED: REMARK SMILES IDX 23 13 24 14 25 15 26 16 3 17 4 18 5 19 6 20 7 21 8 22 13 23
DOCKED: REMARK SMILES IDX 9 24 12 25 10 26 14 27 11 28
DOCKED: REMARK H PARENT 1 3
DOCKED: USER                              x       y       z     vdW  Elec       q    Type
DOCKED: USER                           _______ _______ _______ _____ _____    ______ ____
DOCKED: ROOT
DOCKED: ATOM      1  C   UNL     1     139.861  72.569 222.079 -0.28 -0.00    +0.023 C  
DOCKED: ENDROOT
DOCKED: BRANCH   1   2
DOCKED: ATOM      2  O   UNL     1     138.497  72.706 222.347 -0.07 +0.16    -0.530 OA 
DOCKED: ATOM      3  H   UNL     1     138.086  73.539 222.752 -0.48 -0.15    +0.290 HD 
DOCKED: ENDBRANCH   1   2
DOCKED: BRANCH   1   4
DOCKED: ATOM      4  N   UNL     1     140.688  73.729 222.234 -0.52 -0.03    -0.546 NA 
DOCKED: BRANCH   4   5
DOCKED: ATOM      5  N   UNL     1     140.168  75.030 222.242 -0.53 +0.02    -0.372 NA 
DOCKED: BRANCH   5   6
DOCKED: ATOM      6  C   UNL     1     140.916  76.048 221.967 -0.31 -0.03    +0.094 C  
DOCKED: BRANCH   6   7
DOCKED: ATOM      7  C   UNL     1     140.539  77.409 222.404 -0.42 +0.00    -0.009 A  
DOCKED: ATOM      8  C   UNL     1     139.206  77.730 222.716 -0.31 -0.00    +0.009 A  
DOCKED: ATOM      9  C   UNL     1     141.528  78.399 222.513 -0.44 -0.01    +0.022 A  
DOCKED: ATOM     10  C   UNL     1     138.874  79.015 223.150 -0.34 -0.00    +0.001 A  
DOCKED: ATOM     11  C   UNL     1     141.196  79.702 222.927 -0.46 -0.02    +0.056 A  
DOCKED: ATOM     12  C   UNL     1     139.862  79.994 223.266 -0.41 -0.00    +0.013 A  
DOCKED: BRANCH  11  13
DOCKED: ATOM     13  C   UNL     1     142.280  80.739 223.083 -0.30 -0.10    +0.416 C  
DOCKED: ATOM     14  F   UNL     1     143.535  80.154 223.066 -0.26 +0.06    -0.166 F  
DOCKED: ATOM     15  F   UNL     1     142.194  81.648 222.043 -0.15 +0.03    -0.166 F  
DOCKED: ATOM     16  F   UNL     1     142.132  81.411 224.284 -0.22 +0.02    -0.166 F  
DOCKED: ENDBRANCH  11  13
DOCKED: ENDBRANCH   6   7
DOCKED: ENDBRANCH   5   6
DOCKED: ENDBRANCH   4   5
DOCKED: ENDBRANCH   1   4
DOCKED: BRANCH   1  17
DOCKED: ATOM     17  C   UNL     1     140.389  71.397 221.681 -0.21 +0.00    -0.001 C  
DOCKED: BRANCH  17  18
DOCKED: ATOM     18  C   UNL     1     141.159  71.241 220.397 -0.13 -0.01    +0.071 C  
DOCKED: BRANCH  18  19
DOCKED: ATOM     19  C   UNL     1     142.655  71.524 220.571 -0.13 -0.03    +0.234 C  
DOCKED: BRANCH  19  20
DOCKED: ATOM     20  O   UNL     1     143.140  72.357 219.514 -0.01 +0.06    -0.492 OA 
DOCKED: BRANCH  20  21
DOCKED: ATOM     21  C   UNL     1     142.901  73.733 219.374 -0.15 -0.03    +0.137 A  
DOCKED: ATOM     22  C   UNL     1     141.724  74.237 218.785 -0.08 -0.01    +0.049 A  
DOCKED: ATOM     23  C   UNL     1     143.859  74.636 219.863 -0.36 -0.03    +0.084 A  
DOCKED: ATOM     24  C   UNL     1     141.527  75.616 218.669 -0.12 -0.01    +0.024 A  
DOCKED: ATOM     25  C   UNL     1     143.662  76.015 219.734 -0.40 -0.03    +0.045 A  
DOCKED: ATOM     26  C   UNL     1     142.500  76.506 219.132 -0.29 -0.02    +0.042 A  
DOCKED: ATOM     27  Cl  UNL     1     145.336  74.047 220.610 -0.69 +0.02    -0.080 Cl 
DOCKED: ATOM     28  Cl  UNL     1     142.258  78.236 218.964 -0.33 +0.06    -0.084 Cl 
DOCKED: ENDBRANCH  20  21
DOCKED: ENDBRANCH  19  20
DOCKED: ENDBRANCH  18  19
DOCKED: ENDBRANCH  17  18
DOCKED: ENDBRANCH   1  17
DOCKED: TORSDOF 11
DOCKED: TER
DOCKED: ENDMDL
________________________________________________________________________________


    FINAL DOCKED STATE:
    ________________________


Run:   7 / 20
Time taken for this run:   0.130s

DOCKED: MODEL        7
DOCKED: USER    Run = 7
DOCKED: USER
DOCKED: USER    Estimated Free Energy of Binding    =  -6.88 kcal/mol  [=(1)+(2)+(3)-(4)]
DOCKED: USER
DOCKED: USER    (1) Final Intermolecular Energy     = -10.16 kcal/mol
DOCKED: USER        vdW + Hbond + desolv Energy     = -10.12 kcal/mol
DOCKED: USER        Electrostatic Energy            =  -0.04 kcal/mol
DOCKED: USER        Moving Ligand-Fixed Receptor    = -10.16 kcal/mol
DOCKED: USER        Moving Ligand-Moving Receptor   =  +0.00 kcal/mol
DOCKED: USER    (2) Final Total Internal Energy     =  -0.93 kcal/mol
DOCKED: USER    (3) Torsional Free Energy           =  +3.28 kcal/mol
DOCKED: USER    (4) Unbound System's Energy         =  -0.93 kcal/mol
DOCKED: USER
DOCKED: USER
DOCKED: REMARK SMILES O/C(=C\CCOc1ccc(Cl)cc1Cl)[N-]/N=C/c1cccc(C(F)(F)F)c1
DOCKED: REMARK SMILES IDX 2 1 1 2 15 4 16 5 17 6 18 7 19 8 27 9 20 10 22 11 21 12
DOCKED: REMARK SMILES IDX 23 13 24 14 25 15 26 16 3 17 4 18 5 19 6 20 7 21 8 22 13 23
DOCKED: REMARK SMILES IDX 9 24 12 25 10 26 14 27 11 28
DOCKED: REMARK H PARENT 1 3
DOCKED: USER                              x       y       z     vdW  Elec       q    Type
DOCKED: USER                           _______ _______ _______ _____ _____    ______ ____
DOCKED: ROOT
DOCKED: ATOM      1  C   UNL     1     140.519  74.716 221.481 -0.31 -0.00    +0.023 C  
DOCKED: ENDROOT
DOCKED: BRANCH   1   2
DOCKED: ATOM      2  O   UNL     1     141.453  75.491 222.173 -0.13 +0.14    -0.530 OA 
DOCKED: ATOM      3  H   UNL     1     141.929  76.288 221.768 -0.43 -0.20    +0.290 HD 
DOCKED: ENDBRANCH   1   2
DOCKED: BRANCH   1   4
DOCKED: ATOM      4  N   UNL     1     139.850  73.677 222.207 -0.60 +0.06    -0.546 NA 
DOCKED: BRANCH   4   5
DOCKED: ATOM      5  N   UNL     1     140.542  72.684 222.912 -0.39 +0.01    -0.372 NA 
DOCKED: BRANCH   5   6
DOCKED: ATOM      6  C   UNL     1     140.050  71.496 223.045 -0.31 -0.01    +0.094 C  
DOCKED: BRANCH   6   7
DOCKED: ATOM      7  C   UNL     1     139.989  70.842 224.369 -0.43 +0.00    -0.009 A  
DOCKED: ATOM      8  C   UNL     1     139.444  69.555 224.522 -0.35 -0.00    +0.009 A  
DOCKED: ATOM      9  C   UNL     1     140.485  71.516 225.496 -0.54 -0.00    +0.022 A  
DOCKED: ATOM     10  C   UNL     1     139.418  68.945 225.777 -0.48 -0.00    +0.001 A  
DOCKED: ATOM     11  C   UNL     1     140.440  70.916 226.769 -0.58 -0.01    +0.056 A  
DOCKED: ATOM     12  C   UNL     1     139.921  69.615 226.894 -0.54 -0.00    +0.013 A  
DOCKED: BRANCH  11  13
DOCKED: ATOM     13  C   UNL     1     141.020  71.638 227.959 -0.40 -0.09    +0.416 C  
DOCKED: ATOM     14  F   UNL     1     141.792  70.785 228.730 -0.12 +0.03    -0.166 F  
DOCKED: ATOM     15  F   UNL     1     141.811  72.684 227.517 -0.34 +0.03    -0.166 F  
DOCKED: ATOM     16  F   UNL     1     140.006  72.143 228.755 -0.28 +0.06    -0.166 F  
DOCKED: ENDBRANCH  11  13
DOCKED: ENDBRANCH   6   7
DOCKED: ENDBRANCH   5   6
DOCKED: ENDBRANCH   4   5
DOCKED: ENDBRANCH   1   4
DOCKED: BRANCH   1  17
DOCKED: ATOM     17  C   UNL     1     140.257  74.922 220.177 -0.15 +0.00    -0.001 C  
DOCKED: BRANCH  17  18
DOCKED: ATOM     18  C   UNL     1     141.311  75.338 219.187 -0.12 -0.02    +0.071 C  
DOCKED: BRANCH  18  19
DOCKED: ATOM     19  C   UNL     1     141.669  76.824 219.301 -0.15 -0.11    +0.234 C  
DOCKED: BRANCH  19  20
DOCKED: ATOM     20  O   UNL     1     140.827  77.476 220.256 -0.02 +0.20    -0.492 OA 
DOCKED: BRANCH  20  21
DOCKED: ATOM     21  C   UNL     1     141.240  78.422 221.208 -0.26 -0.06    +0.137 A  
DOCKED: ATOM     22  C   UNL     1     141.144  78.188 222.594 -0.45 -0.02    +0.049 A  
DOCKED: ATOM     23  C   UNL     1     141.792  79.633 220.758 -0.30 -0.04    +0.084 A  
DOCKED: ATOM     24  C   UNL     1     141.570  79.158 223.505 -0.58 -0.01    +0.024 A  
DOCKED: ATOM     25  C   UNL     1     142.207  80.605 221.674 -0.43 -0.02    +0.045 A  
DOCKED: ATOM     26  C   UNL     1     142.091  80.371 223.048 -0.58 -0.01    +0.042 A  
DOCKED: ATOM     27  Cl  UNL     1     141.936  79.960 219.037 -0.36 +0.05    -0.080 Cl 
DOCKED: ATOM     28  Cl  UNL     1     142.604  81.595 224.196 -0.49 +0.01    -0.084 Cl 
DOCKED: ENDBRANCH  20  21
DOCKED: ENDBRANCH  19  20
DOCKED: ENDBRANCH  18  19
DOCKED: ENDBRANCH  17  18
DOCKED: ENDBRANCH   1  17
DOCKED: TORSDOF 11
DOCKED: TER
DOCKED: ENDMDL
________________________________________________________________________________


    FINAL DOCKED STATE:
    ________________________


Run:   8 / 20
Time taken for this run:   0.130s

DOCKED: MODEL        8
DOCKED: USER    Run = 8
DOCKED: USER
DOCKED: USER    Estimated Free Energy of Binding    =  -7.22 kcal/mol  [=(1)+(2)+(3)-(4)]
DOCKED: USER
DOCKED: USER    (1) Final Intermolecular Energy     = -10.50 kcal/mol
DOCKED: USER        vdW + Hbond + desolv Energy     = -10.51 kcal/mol
DOCKED: USER        Electrostatic Energy            =  +0.01 kcal/mol
DOCKED: USER        Moving Ligand-Fixed Receptor    = -10.50 kcal/mol
DOCKED: USER        Moving Ligand-Moving Receptor   =  +0.00 kcal/mol
DOCKED: USER    (2) Final Total Internal Energy     =  -0.78 kcal/mol
DOCKED: USER    (3) Torsional Free Energy           =  +3.28 kcal/mol
DOCKED: USER    (4) Unbound System's Energy         =  -0.78 kcal/mol
DOCKED: USER
DOCKED: USER
DOCKED: REMARK SMILES O/C(=C\CCOc1ccc(Cl)cc1Cl)[N-]/N=C/c1cccc(C(F)(F)F)c1
DOCKED: REMARK SMILES IDX 2 1 1 2 15 4 16 5 17 6 18 7 19 8 27 9 20 10 22 11 21 12
DOCKED: REMARK SMILES IDX 23 13 24 14 25 15 26 16 3 17 4 18 5 19 6 20 7 21 8 22 13 23
DOCKED: REMARK SMILES IDX 9 24 12 25 10 26 14 27 11 28
DOCKED: REMARK H PARENT 1 3
DOCKED: USER                              x       y       z     vdW  Elec       q    Type
DOCKED: USER                           _______ _______ _______ _____ _____    ______ ____
DOCKED: ROOT
DOCKED: ATOM      1  C   UNL     1     140.195  74.777 221.542 -0.30 -0.00    +0.023 C  
DOCKED: ENDROOT
DOCKED: BRANCH   1   2
DOCKED: ATOM      2  O   UNL     1     141.575  74.981 221.605 -0.20 +0.13    -0.530 OA 
DOCKED: ATOM      3  H   UNL     1     142.001  75.815 221.993 -0.42 -0.17    +0.290 HD 
DOCKED: ENDBRANCH   1   2
DOCKED: BRANCH   1   4
DOCKED: ATOM      4  N   UNL     1     139.641  73.728 222.346 -0.62 +0.08    -0.546 NA 
DOCKED: BRANCH   4   5
DOCKED: ATOM      5  N   UNL     1     140.424  72.699 222.885 -0.43 +0.02    -0.372 NA 
DOCKED: BRANCH   5   6
DOCKED: ATOM      6  C   UNL     1     139.943  71.508 223.042 -0.31 -0.02    +0.094 C  
DOCKED: BRANCH   6   7
DOCKED: ATOM      7  C   UNL     1     139.991  70.836 224.357 -0.43 +0.00    -0.009 A  
DOCKED: ATOM      8  C   UNL     1     139.598  69.494 224.504 -0.34 -0.00    +0.009 A  
DOCKED: ATOM      9  C   UNL     1     140.438  71.548 225.481 -0.52 -0.00    +0.022 A  
DOCKED: ATOM     10  C   UNL     1     139.673  68.870 225.750 -0.49 -0.00    +0.001 A  
DOCKED: ATOM     11  C   UNL     1     140.494  70.932 226.745 -0.59 -0.01    +0.056 A  
DOCKED: ATOM     12  C   UNL     1     140.128  69.579 226.864 -0.55 -0.00    +0.013 A  
DOCKED: BRANCH  11  13
DOCKED: ATOM     13  C   UNL     1     141.021  71.699 227.932 -0.40 -0.09    +0.416 C  
DOCKED: ATOM     14  F   UNL     1     141.819  72.756 227.526 -0.33 +0.03    -0.166 F  
DOCKED: ATOM     15  F   UNL     1     139.957  72.195 228.664 -0.29 +0.06    -0.166 F  
DOCKED: ATOM     16  F   UNL     1     141.779  70.870 228.741 -0.13 +0.03    -0.166 F  
DOCKED: ENDBRANCH  11  13
DOCKED: ENDBRANCH   6   7
DOCKED: ENDBRANCH   5   6
DOCKED: ENDBRANCH   4   5
DOCKED: ENDBRANCH   1   4
DOCKED: BRANCH   1  17
DOCKED: ATOM     17  C   UNL     1     139.405  75.526 220.750 -0.18 +0.00    -0.001 C  
DOCKED: BRANCH  17  18
DOCKED: ATOM     18  C   UNL     1     138.047  76.016 221.178 -0.14 -0.02    +0.071 C  
DOCKED: BRANCH  18  19
DOCKED: ATOM     19  C   UNL     1     138.005  76.406 222.660 -0.21 -0.05    +0.234 C  
DOCKED: BRANCH  19  20
DOCKED: ATOM     20  O   UNL     1     138.148  77.821 222.815 -0.10 +0.08    -0.492 OA 
DOCKED: BRANCH  20  21
DOCKED: ATOM     21  C   UNL     1     139.353  78.507 223.036 -0.26 -0.02    +0.137 A  
DOCKED: ATOM     22  C   UNL     1     140.609  77.934 222.753 -0.40 -0.01    +0.049 A  
DOCKED: ATOM     23  C   UNL     1     139.298  79.820 223.533 -0.37 -0.01    +0.084 A  
DOCKED: ATOM     24  C   UNL     1     141.783  78.657 222.987 -0.53 -0.01    +0.024 A  
DOCKED: ATOM     25  C   UNL     1     140.477  80.534 223.776 -0.40 -0.01    +0.045 A  
DOCKED: ATOM     26  C   UNL     1     141.720  79.951 223.509 -0.57 -0.01    +0.042 A  
DOCKED: ATOM     27  Cl  UNL     1     137.752  80.572 223.892 -0.41 +0.01    -0.080 Cl 
DOCKED: ATOM     28  Cl  UNL     1     143.197  80.845 223.821 -0.61 +0.02    -0.084 Cl 
DOCKED: ENDBRANCH  20  21
DOCKED: ENDBRANCH  19  20
DOCKED: ENDBRANCH  18  19
DOCKED: ENDBRANCH  17  18
DOCKED: ENDBRANCH   1  17
DOCKED: TORSDOF 11
DOCKED: TER
DOCKED: ENDMDL
________________________________________________________________________________


    FINAL DOCKED STATE:
    ________________________


Run:   9 / 20
Time taken for this run:   0.130s

DOCKED: MODEL        9
DOCKED: USER    Run = 9
DOCKED: USER
DOCKED: USER    Estimated Free Energy of Binding    =  -6.16 kcal/mol  [=(1)+(2)+(3)-(4)]
DOCKED: USER
DOCKED: USER    (1) Final Intermolecular Energy     =  -9.44 kcal/mol
DOCKED: USER        vdW + Hbond + desolv Energy     =  -9.73 kcal/mol
DOCKED: USER        Electrostatic Energy            =  +0.29 kcal/mol
DOCKED: USER        Moving Ligand-Fixed Receptor    =  -9.44 kcal/mol
DOCKED: USER        Moving Ligand-Moving Receptor   =  +0.00 kcal/mol
DOCKED: USER    (2) Final Total Internal Energy     =  -1.27 kcal/mol
DOCKED: USER    (3) Torsional Free Energy           =  +3.28 kcal/mol
DOCKED: USER    (4) Unbound System's Energy         =  -1.27 kcal/mol
DOCKED: USER
DOCKED: USER
DOCKED: REMARK SMILES O/C(=C\CCOc1ccc(Cl)cc1Cl)[N-]/N=C/c1cccc(C(F)(F)F)c1
DOCKED: REMARK SMILES IDX 2 1 1 2 15 4 16 5 17 6 18 7 19 8 27 9 20 10 22 11 21 12
DOCKED: REMARK SMILES IDX 23 13 24 14 25 15 26 16 3 17 4 18 5 19 6 20 7 21 8 22 13 23
DOCKED: REMARK SMILES IDX 9 24 12 25 10 26 14 27 11 28
DOCKED: REMARK H PARENT 1 3
DOCKED: USER                              x       y       z     vdW  Elec       q    Type
DOCKED: USER                           _______ _______ _______ _____ _____    ______ ____
DOCKED: ROOT
DOCKED: ATOM      1  C   UNL     1     139.846  74.468 221.140 -0.24 -0.00    +0.023 C  
DOCKED: ENDROOT
DOCKED: BRANCH   1   2
DOCKED: ATOM      2  O   UNL     1     139.247  74.542 222.400 -0.52 +0.11    -0.530 OA 
DOCKED: ATOM      3  H   UNL     1     139.185  73.758 223.038 -0.47 -0.12    +0.290 HD 
DOCKED: ENDBRANCH   1   2
DOCKED: BRANCH   1   4
DOCKED: ATOM      4  N   UNL     1     140.428  75.664 220.609 -0.01 +0.15    -0.546 NA 
DOCKED: BRANCH   4   5
DOCKED: ATOM      5  N   UNL     1     141.232  76.516 221.377 -0.13 +0.17    -0.372 NA 
DOCKED: BRANCH   5   6
DOCKED: ATOM      6  C   UNL     1     140.727  77.233 222.327 -0.38 -0.03    +0.094 C  
DOCKED: BRANCH   6   7
DOCKED: ATOM      7  C   UNL     1     141.232  78.594 222.604 -0.48 +0.00    -0.009 A  
DOCKED: ATOM      8  C   UNL     1     142.017  78.863 223.739 -0.56 -0.00    +0.009 A  
DOCKED: ATOM      9  C   UNL     1     140.925  79.639 221.718 -0.33 -0.01    +0.022 A  
DOCKED: ATOM     10  C   UNL     1     142.504  80.151 223.970 -0.61 -0.00    +0.001 A  
DOCKED: ATOM     11  C   UNL     1     141.393  80.944 221.958 -0.40 -0.01    +0.056 A  
DOCKED: ATOM     12  C   UNL     1     142.204  81.185 223.081 -0.57 -0.00    +0.013 A  
DOCKED: BRANCH  11  13
DOCKED: ATOM     13  C   UNL     1     141.092  82.043 220.969 -0.15 -0.10    +0.416 C  
DOCKED: ATOM     14  F   UNL     1     141.439  83.282 221.481 -0.12 +0.02    -0.166 F  
DOCKED: ATOM     15  F   UNL     1     141.809  81.820 219.807 -0.10 +0.06    -0.166 F  
DOCKED: ATOM     16  F   UNL     1     139.740  82.061 220.670 -0.04 +0.03    -0.166 F  
DOCKED: ENDBRANCH  11  13
DOCKED: ENDBRANCH   6   7
DOCKED: ENDBRANCH   5   6
DOCKED: ENDBRANCH   4   5
DOCKED: ENDBRANCH   1   4
DOCKED: BRANCH   1  17
DOCKED: ATOM     17  C   UNL     1     139.872  73.320 220.437 -0.13 +0.00    -0.001 C  
DOCKED: BRANCH  17  18
DOCKED: ATOM     18  C   UNL     1     140.309  72.007 221.030 -0.16 -0.01    +0.071 C  
DOCKED: BRANCH  18  19
DOCKED: ATOM     19  C   UNL     1     141.068  72.184 222.350 -0.11 -0.01    +0.234 C  
DOCKED: BRANCH  19  20
DOCKED: ATOM     20  O   UNL     1     140.162  72.216 223.456 -0.28 +0.07    -0.492 OA 
DOCKED: BRANCH  20  21
DOCKED: ATOM     21  C   UNL     1     140.258  71.439 224.622 -0.39 -0.02    +0.137 A  
DOCKED: ATOM     22  C   UNL     1     141.019  71.844 225.737 -0.49 -0.01    +0.049 A  
DOCKED: ATOM     23  C   UNL     1     139.549  70.228 224.684 -0.35 -0.01    +0.084 A  
DOCKED: ATOM     24  C   UNL     1     141.084  71.038 226.877 -0.66 -0.00    +0.024 A  
DOCKED: ATOM     25  C   UNL     1     139.626  69.421 225.824 -0.43 -0.01    +0.045 A  
DOCKED: ATOM     26  C   UNL     1     140.398  69.822 226.919 -0.54 -0.01    +0.042 A  
DOCKED: ATOM     27  Cl  UNL     1     138.583  69.692 223.318 -0.31 +0.01    -0.080 Cl 
DOCKED: ATOM     28  Cl  UNL     1     140.501  68.804 228.345 -0.79 +0.02    -0.084 Cl 
DOCKED: ENDBRANCH  20  21
DOCKED: ENDBRANCH  19  20
DOCKED: ENDBRANCH  18  19
DOCKED: ENDBRANCH  17  18
DOCKED: ENDBRANCH   1  17
DOCKED: TORSDOF 11
DOCKED: TER
DOCKED: ENDMDL
________________________________________________________________________________


    FINAL DOCKED STATE:
    ________________________


Run:   10 / 20
Time taken for this run:   0.130s

DOCKED: MODEL        10
DOCKED: USER    Run = 10
DOCKED: USER
DOCKED: USER    Estimated Free Energy of Binding    =  -6.17 kcal/mol  [=(1)+(2)+(3)-(4)]
DOCKED: USER
DOCKED: USER    (1) Final Intermolecular Energy     =  -9.45 kcal/mol
DOCKED: USER        vdW + Hbond + desolv Energy     =  -9.35 kcal/mol
DOCKED: USER        Electrostatic Energy            =  -0.09 kcal/mol
DOCKED: USER        Moving Ligand-Fixed Receptor    =  -9.45 kcal/mol
DOCKED: USER        Moving Ligand-Moving Receptor   =  +0.00 kcal/mol
DOCKED: USER    (2) Final Total Internal Energy     =  -0.99 kcal/mol
DOCKED: USER    (3) Torsional Free Energy           =  +3.28 kcal/mol
DOCKED: USER    (4) Unbound System's Energy         =  -0.99 kcal/mol
DOCKED: USER
DOCKED: USER
DOCKED: REMARK SMILES O/C(=C\CCOc1ccc(Cl)cc1Cl)[N-]/N=C/c1cccc(C(F)(F)F)c1
DOCKED: REMARK SMILES IDX 2 1 1 2 15 4 16 5 17 6 18 7 19 8 27 9 20 10 22 11 21 12
DOCKED: REMARK SMILES IDX 23 13 24 14 25 15 26 16 3 17 4 18 5 19 6 20 7 21 8 22 13 23
DOCKED: REMARK SMILES IDX 9 24 12 25 10 26 14 27 11 28
DOCKED: REMARK H PARENT 1 3
DOCKED: USER                              x       y       z     vdW  Elec       q    Type
DOCKED: USER                           _______ _______ _______ _____ _____    ______ ____
DOCKED: ROOT
DOCKED: ATOM      1  C   UNL     1     134.290  69.723 225.989 -0.30 -0.00    +0.023 C  
DOCKED: ENDROOT
DOCKED: BRANCH   1   2
DOCKED: ATOM      2  O   UNL     1     133.992  68.432 226.432 -0.65 -0.01    -0.530 OA 
DOCKED: ATOM      3  H   UNL     1     134.542  67.616 226.190 +0.13 -0.03    +0.290 HD 
DOCKED: ENDBRANCH   1   2
DOCKED: BRANCH   1   4
DOCKED: ATOM      4  N   UNL     1     135.575  69.942 225.395 +0.01 +0.03    -0.546 NA 
DOCKED: BRANCH   4   5
DOCKED: ATOM      5  N   UNL     1     136.389  68.891 224.950 -0.15 +0.00    -0.372 NA 
DOCKED: BRANCH   5   6
DOCKED: ATOM      6  C   UNL     1     137.605  69.107 224.568 -0.25 -0.01    +0.094 C  
DOCKED: BRANCH   6   7
DOCKED: ATOM      7  C   UNL     1     138.736  68.953 225.507 -0.42 +0.00    -0.009 A  
DOCKED: ATOM      8  C   UNL     1     139.332  67.699 225.731 -0.52 -0.00    +0.009 A  
DOCKED: ATOM      9  C   UNL     1     139.227  70.078 226.188 -0.29 -0.00    +0.022 A  
DOCKED: ATOM     10  C   UNL     1     140.414  67.579 226.605 -0.67 -0.00    +0.001 A  
DOCKED: ATOM     11  C   UNL     1     140.302  69.960 227.088 -0.54 -0.01    +0.056 A  
DOCKED: ATOM     12  C   UNL     1     140.905  68.703 227.272 -0.62 -0.00    +0.013 A  
DOCKED: BRANCH  11  13
DOCKED: ATOM     13  C   UNL     1     140.845  71.189 227.774 -0.36 -0.08    +0.416 C  
DOCKED: ATOM     14  F   UNL     1     141.440  72.046 226.864 -0.31 +0.02    -0.166 F  
DOCKED: ATOM     15  F   UNL     1     139.808  71.854 228.405 -0.26 +0.04    -0.166 F  
DOCKED: ATOM     16  F   UNL     1     141.793  70.832 228.717 -0.14 +0.03    -0.166 F  
DOCKED: ENDBRANCH  11  13
DOCKED: ENDBRANCH   6   7
DOCKED: ENDBRANCH   5   6
DOCKED: ENDBRANCH   4   5
DOCKED: ENDBRANCH   1   4
DOCKED: BRANCH   1  17
DOCKED: ATOM     17  C   UNL     1     133.411  70.734 226.118 -0.31 +0.00    -0.001 C  
DOCKED: BRANCH  17  18
DOCKED: ATOM     18  C   UNL     1     133.349  71.613 227.339 -0.38 -0.01    +0.071 C  
DOCKED: BRANCH  18  19
DOCKED: ATOM     19  C   UNL     1     132.436  72.827 227.141 -0.29 -0.03    +0.234 C  
DOCKED: BRANCH  19  20
DOCKED: ATOM     20  O   UNL     1     133.197  74.039 227.139 -0.71 -0.05    -0.492 OA 
DOCKED: BRANCH  20  21
DOCKED: ATOM     21  C   UNL     1     133.993  74.509 226.082 -0.30 +0.01    +0.137 A  
DOCKED: ATOM     22  C   UNL     1     134.701  73.639 225.228 -0.27 -0.00    +0.049 A  
DOCKED: ATOM     23  C   UNL     1     134.063  75.893 225.856 -0.32 -0.00    +0.084 A  
DOCKED: ATOM     24  C   UNL     1     135.480  74.152 224.187 -0.26 -0.01    +0.024 A  
DOCKED: ATOM     25  C   UNL     1     134.853  76.401 224.819 -0.18 -0.00    +0.045 A  
DOCKED: ATOM     26  C   UNL     1     135.566  75.532 223.988 -0.28 -0.01    +0.042 A  
DOCKED: ATOM     27  Cl  UNL     1     133.189  77.009 226.894 -0.44 +0.01    -0.080 Cl 
DOCKED: ATOM     28  Cl  UNL     1     136.562  76.172 222.692 -0.30 +0.02    -0.084 Cl 
DOCKED: ENDBRANCH  20  21
DOCKED: ENDBRANCH  19  20
DOCKED: ENDBRANCH  18  19
DOCKED: ENDBRANCH  17  18
DOCKED: ENDBRANCH   1  17
DOCKED: TORSDOF 11
DOCKED: TER
DOCKED: ENDMDL
________________________________________________________________________________


    FINAL DOCKED STATE:
    ________________________


Run:   11 / 20
Time taken for this run:   0.130s

DOCKED: MODEL        11
DOCKED: USER    Run = 11
DOCKED: USER
DOCKED: USER    Estimated Free Energy of Binding    =  -6.57 kcal/mol  [=(1)+(2)+(3)-(4)]
DOCKED: USER
DOCKED: USER    (1) Final Intermolecular Energy     =  -9.85 kcal/mol
DOCKED: USER        vdW + Hbond + desolv Energy     =  -9.84 kcal/mol
DOCKED: USER        Electrostatic Energy            =  -0.01 kcal/mol
DOCKED: USER        Moving Ligand-Fixed Receptor    =  -9.85 kcal/mol
DOCKED: USER        Moving Ligand-Moving Receptor   =  +0.00 kcal/mol
DOCKED: USER    (2) Final Total Internal Energy     =  -0.92 kcal/mol
DOCKED: USER    (3) Torsional Free Energy           =  +3.28 kcal/mol
DOCKED: USER    (4) Unbound System's Energy         =  -0.92 kcal/mol
DOCKED: USER
DOCKED: USER
DOCKED: REMARK SMILES O/C(=C\CCOc1ccc(Cl)cc1Cl)[N-]/N=C/c1cccc(C(F)(F)F)c1
DOCKED: REMARK SMILES IDX 2 1 1 2 15 4 16 5 17 6 18 7 19 8 27 9 20 10 22 11 21 12
DOCKED: REMARK SMILES IDX 23 13 24 14 25 15 26 16 3 17 4 18 5 19 6 20 7 21 8 22 13 23
DOCKED: REMARK SMILES IDX 9 24 12 25 10 26 14 27 11 28
DOCKED: REMARK H PARENT 1 3
DOCKED: USER                              x       y       z     vdW  Elec       q    Type
DOCKED: USER                           _______ _______ _______ _____ _____    ______ ____
DOCKED: ROOT
DOCKED: ATOM      1  C   UNL     1     139.717  74.761 221.474 -0.27 -0.00    +0.023 C  
DOCKED: ENDROOT
DOCKED: BRANCH   1   2
DOCKED: ATOM      2  O   UNL     1     138.585  75.051 222.238 -0.16 +0.15    -0.530 OA 
DOCKED: ATOM      3  H   UNL     1     138.327  74.540 223.074 -0.47 -0.19    +0.290 HD 
DOCKED: ENDBRANCH   1   2
DOCKED: BRANCH   1   4
DOCKED: ATOM      4  N   UNL     1     140.556  73.685 221.911 -0.55 +0.03    -0.546 NA 
DOCKED: BRANCH   4   5
DOCKED: ATOM      5  N   UNL     1     140.316  72.975 223.095 -0.32 -0.00    -0.372 NA 
DOCKED: BRANCH   5   6
DOCKED: ATOM      6  C   UNL     1     140.116  71.697 223.077 -0.31 -0.01    +0.094 C  
DOCKED: BRANCH   6   7
DOCKED: ATOM      7  C   UNL     1     140.072  70.917 224.332 -0.43 +0.00    -0.009 A  
DOCKED: ATOM      8  C   UNL     1     139.597  69.594 224.350 -0.33 -0.00    +0.009 A  
DOCKED: ATOM      9  C   UNL     1     140.513  71.505 225.527 -0.55 -0.00    +0.022 A  
DOCKED: ATOM     10  C   UNL     1     139.585  68.866 225.541 -0.47 -0.00    +0.001 A  
DOCKED: ATOM     11  C   UNL     1     140.482  70.785 226.736 -0.57 -0.01    +0.056 A  
DOCKED: ATOM     12  C   UNL     1     140.033  69.452 226.726 -0.54 -0.00    +0.013 A  
DOCKED: BRANCH  11  13
DOCKED: ATOM     13  C   UNL     1     141.004  71.418 228.001 -0.37 -0.08    +0.416 C  
DOCKED: ATOM     14  F   UNL     1     141.747  70.514 228.741 -0.11 +0.03    -0.166 F  
DOCKED: ATOM     15  F   UNL     1     141.805  72.497 227.673 -0.33 +0.03    -0.166 F  
DOCKED: ATOM     16  F   UNL     1     139.951  71.859 228.786 -0.27 +0.05    -0.166 F  
DOCKED: ENDBRANCH  11  13
DOCKED: ENDBRANCH   6   7
DOCKED: ENDBRANCH   5   6
DOCKED: ENDBRANCH   4   5
DOCKED: ENDBRANCH   1   4
DOCKED: BRANCH   1  17
DOCKED: ATOM     17  C   UNL     1     140.024  75.466 220.369 -0.16 +0.00    -0.001 C  
DOCKED: BRANCH  17  18
DOCKED: ATOM     18  C   UNL     1     140.218  76.959 220.380 -0.15 -0.02    +0.071 C  
DOCKED: BRANCH  18  19
DOCKED: ATOM     19  C   UNL     1     141.441  77.386 221.200 -0.18 -0.12    +0.234 C  
DOCKED: BRANCH  19  20
DOCKED: ATOM     20  O   UNL     1     141.074  77.651 222.557 -0.18 +0.19    -0.492 OA 
DOCKED: BRANCH  20  21
DOCKED: ATOM     21  C   UNL     1     140.147  78.614 222.986 -0.32 -0.03    +0.137 A  
DOCKED: ATOM     22  C   UNL     1     138.759  78.369 223.003 -0.27 -0.01    +0.049 A  
DOCKED: ATOM     23  C   UNL     1     140.626  79.855 223.437 -0.43 -0.02    +0.084 A  
DOCKED: ATOM     24  C   UNL     1     137.873  79.359 223.440 -0.23 -0.00    +0.024 A  
DOCKED: ATOM     25  C   UNL     1     139.734  80.845 223.864 -0.33 -0.00    +0.045 A  
DOCKED: ATOM     26  C   UNL     1     138.357  80.600 223.860 -0.37 -0.00    +0.042 A  
DOCKED: ATOM     27  Cl  UNL     1     142.349  80.196 223.439 -0.82 +0.02    -0.080 Cl 
DOCKED: ATOM     28  Cl  UNL     1     137.240  81.846 224.388 -0.33 +0.01    -0.084 Cl 
DOCKED: ENDBRANCH  20  21
DOCKED: ENDBRANCH  19  20
DOCKED: ENDBRANCH  18  19
DOCKED: ENDBRANCH  17  18
DOCKED: ENDBRANCH   1  17
DOCKED: TORSDOF 11
DOCKED: TER
DOCKED: ENDMDL
________________________________________________________________________________


    FINAL DOCKED STATE:
    ________________________


Run:   12 / 20
Time taken for this run:   0.130s

DOCKED: MODEL        12
DOCKED: USER    Run = 12
DOCKED: USER
DOCKED: USER    Estimated Free Energy of Binding    =  -6.51 kcal/mol  [=(1)+(2)+(3)-(4)]
DOCKED: USER
DOCKED: USER    (1) Final Intermolecular Energy     =  -9.79 kcal/mol
DOCKED: USER        vdW + Hbond + desolv Energy     = -10.09 kcal/mol
DOCKED: USER        Electrostatic Energy            =  +0.30 kcal/mol
DOCKED: USER        Moving Ligand-Fixed Receptor    =  -9.79 kcal/mol
DOCKED: USER        Moving Ligand-Moving Receptor   =  +0.00 kcal/mol
DOCKED: USER    (2) Final Total Internal Energy     =  -1.20 kcal/mol
DOCKED: USER    (3) Torsional Free Energy           =  +3.28 kcal/mol
DOCKED: USER    (4) Unbound System's Energy         =  -1.20 kcal/mol
DOCKED: USER
DOCKED: USER
DOCKED: REMARK SMILES O/C(=C\CCOc1ccc(Cl)cc1Cl)[N-]/N=C/c1cccc(C(F)(F)F)c1
DOCKED: REMARK SMILES IDX 2 1 1 2 15 4 16 5 17 6 18 7 19 8 27 9 20 10 22 11 21 12
DOCKED: REMARK SMILES IDX 23 13 24 14 25 15 26 16 3 17 4 18 5 19 6 20 7 21 8 22 13 23
DOCKED: REMARK SMILES IDX 9 24 12 25 10 26 14 27 11 28
DOCKED: REMARK H PARENT 1 3
DOCKED: USER                              x       y       z     vdW  Elec       q    Type
DOCKED: USER                           _______ _______ _______ _____ _____    ______ ____
DOCKED: ROOT
DOCKED: ATOM      1  C   UNL     1     140.727  74.239 221.571 -0.30 -0.00    +0.023 C  
DOCKED: ENDROOT
DOCKED: BRANCH   1   2
DOCKED: ATOM      2  O   UNL     1     139.553  74.276 222.326 -0.67 +0.08    -0.530 OA 
DOCKED: ATOM      3  H   UNL     1     139.308  73.575 223.016 -0.43 -0.10    +0.290 HD 
DOCKED: ENDBRANCH   1   2
DOCKED: BRANCH   1   4
DOCKED: ATOM      4  N   UNL     1     141.440  75.468 221.390 -0.10 +0.18    -0.546 NA 
DOCKED: BRANCH   4   5
DOCKED: ATOM      5  N   UNL     1     140.796  76.711 221.323 -0.13 +0.14    -0.372 NA 
DOCKED: BRANCH   5   6
DOCKED: ATOM      6  C   UNL     1     140.502  77.368 222.398 -0.37 -0.03    +0.094 C  
DOCKED: BRANCH   6   7
DOCKED: ATOM      7  C   UNL     1     141.080  78.704 222.654 -0.47 +0.00    -0.009 A  
DOCKED: ATOM      8  C   UNL     1     141.926  78.932 223.753 -0.59 -0.00    +0.009 A  
DOCKED: ATOM      9  C   UNL     1     140.783  79.764 221.784 -0.31 -0.01    +0.022 A  
DOCKED: ATOM     10  C   UNL     1     142.481  80.196 223.965 -0.61 -0.00    +0.001 A  
DOCKED: ATOM     11  C   UNL     1     141.320  81.046 222.004 -0.39 -0.01    +0.056 A  
DOCKED: ATOM     12  C   UNL     1     142.190  81.246 223.091 -0.57 -0.00    +0.013 A  
DOCKED: BRANCH  11  13
DOCKED: ATOM     13  C   UNL     1     141.026  82.160 221.031 -0.15 -0.09    +0.416 C  
DOCKED: ATOM     14  F   UNL     1     139.672  82.235 220.754 -0.05 +0.03    -0.166 F  
DOCKED: ATOM     15  F   UNL     1     141.440  83.363 221.576 -0.12 +0.02    -0.166 F  
DOCKED: ATOM     16  F   UNL     1     141.700  81.948 219.840 -0.10 +0.05    -0.166 F  
DOCKED: ENDBRANCH  11  13
DOCKED: ENDBRANCH   6   7
DOCKED: ENDBRANCH   5   6
DOCKED: ENDBRANCH   4   5
DOCKED: ENDBRANCH   1   4
DOCKED: BRANCH   1  17
DOCKED: ATOM     17  C   UNL     1     141.177  73.096 221.019 -0.26 +0.00    -0.001 C  
DOCKED: BRANCH  17  18
DOCKED: ATOM     18  C   UNL     1     141.196  71.784 221.756 -0.18 -0.01    +0.071 C  
DOCKED: BRANCH  18  19
DOCKED: ATOM     19  C   UNL     1     139.790  71.300 222.127 -0.16 -0.04    +0.234 C  
DOCKED: BRANCH  19  20
DOCKED: ATOM     20  O   UNL     1     139.459  71.681 223.466 -0.15 +0.12    -0.492 OA 
DOCKED: BRANCH  20  21
DOCKED: ATOM     21  C   UNL     1     139.794  70.971 224.630 -0.37 -0.03    +0.137 A  
DOCKED: ATOM     22  C   UNL     1     140.753  71.442 225.549 -0.55 -0.01    +0.049 A  
DOCKED: ATOM     23  C   UNL     1     139.128  69.764 224.897 -0.34 -0.01    +0.084 A  
DOCKED: ATOM     24  C   UNL     1     141.053  70.702 226.697 -0.61 -0.00    +0.024 A  
DOCKED: ATOM     25  C   UNL     1     139.440  69.022 226.042 -0.46 -0.01    +0.045 A  
DOCKED: ATOM     26  C   UNL     1     140.407  69.487 226.939 -0.54 -0.01    +0.042 A  
DOCKED: ATOM     27  Cl  UNL     1     137.920  69.148 223.780 -0.34 +0.01    -0.080 Cl 
DOCKED: ATOM     28  Cl  UNL     1     140.802  68.552 228.371 -0.80 +0.02    -0.084 Cl 
DOCKED: ENDBRANCH  20  21
DOCKED: ENDBRANCH  19  20
DOCKED: ENDBRANCH  18  19
DOCKED: ENDBRANCH  17  18
DOCKED: ENDBRANCH   1  17
DOCKED: TORSDOF 11
DOCKED: TER
DOCKED: ENDMDL
________________________________________________________________________________


    FINAL DOCKED STATE:
    ________________________


Run:   13 / 20
Time taken for this run:   0.130s

DOCKED: MODEL        13
DOCKED: USER    Run = 13
DOCKED: USER
DOCKED: USER    Estimated Free Energy of Binding    =  -6.79 kcal/mol  [=(1)+(2)+(3)-(4)]
DOCKED: USER
DOCKED: USER    (1) Final Intermolecular Energy     = -10.07 kcal/mol
DOCKED: USER        vdW + Hbond + desolv Energy     = -10.05 kcal/mol
DOCKED: USER        Electrostatic Energy            =  -0.02 kcal/mol
DOCKED: USER        Moving Ligand-Fixed Receptor    = -10.07 kcal/mol
DOCKED: USER        Moving Ligand-Moving Receptor   =  +0.00 kcal/mol
DOCKED: USER    (2) Final Total Internal Energy     =  -0.74 kcal/mol
DOCKED: USER    (3) Torsional Free Energy           =  +3.28 kcal/mol
DOCKED: USER    (4) Unbound System's Energy         =  -0.74 kcal/mol
DOCKED: USER
DOCKED: USER
DOCKED: REMARK SMILES O/C(=C\CCOc1ccc(Cl)cc1Cl)[N-]/N=C/c1cccc(C(F)(F)F)c1
DOCKED: REMARK SMILES IDX 2 1 1 2 15 4 16 5 17 6 18 7 19 8 27 9 20 10 22 11 21 12
DOCKED: REMARK SMILES IDX 23 13 24 14 25 15 26 16 3 17 4 18 5 19 6 20 7 21 8 22 13 23
DOCKED: REMARK SMILES IDX 9 24 12 25 10 26 14 27 11 28
DOCKED: REMARK H PARENT 1 3
DOCKED: USER                              x       y       z     vdW  Elec       q    Type
DOCKED: USER                           _______ _______ _______ _____ _____    ______ ____
DOCKED: ROOT
DOCKED: ATOM      1  C   UNL     1     140.343  75.170 221.959 -0.25 -0.00    +0.023 C  
DOCKED: ENDROOT
DOCKED: BRANCH   1   2
DOCKED: ATOM      2  O   UNL     1     141.292  76.058 221.448 -0.13 +0.21    -0.530 OA 
DOCKED: ATOM      3  H   UNL     1     142.136  76.321 221.942 -0.44 -0.25    +0.290 HD 
DOCKED: ENDBRANCH   1   2
DOCKED: BRANCH   1   4
DOCKED: ATOM      4  N   UNL     1     140.723  73.795 222.095 -0.54 -0.01    -0.546 NA 
DOCKED: BRANCH   4   5
DOCKED: ATOM      5  N   UNL     1     139.954  72.867 222.808 -0.48 +0.05    -0.372 NA 
DOCKED: BRANCH   5   6
DOCKED: ATOM      6  C   UNL     1     140.360  71.651 222.973 -0.30 -0.01    +0.094 C  
DOCKED: BRANCH   6   7
DOCKED: ATOM      7  C   UNL     1     140.229  70.976 224.281 -0.44 +0.00    -0.009 A  
DOCKED: ATOM      8  C   UNL     1     139.691  69.681 224.382 -0.33 -0.00    +0.009 A  
DOCKED: ATOM      9  C   UNL     1     140.650  71.637 225.445 -0.51 -0.00    +0.022 A  
DOCKED: ATOM     10  C   UNL     1     139.598  69.051 225.625 -0.46 -0.00    +0.001 A  
DOCKED: ATOM     11  C   UNL     1     140.537  71.018 226.704 -0.60 -0.01    +0.056 A  
DOCKED: ATOM     12  C   UNL     1     140.027  69.709 226.779 -0.54 -0.00    +0.013 A  
DOCKED: BRANCH  11  13
DOCKED: ATOM     13  C   UNL     1     141.038  71.726 227.937 -0.40 -0.09    +0.416 C  
DOCKED: ATOM     14  F   UNL     1     139.986  72.196 228.704 -0.29 +0.06    -0.166 F  
DOCKED: ATOM     15  F   UNL     1     141.789  70.846 228.696 -0.13 +0.03    -0.166 F  
DOCKED: ATOM     16  F   UNL     1     141.831  72.805 227.582 -0.32 +0.04    -0.166 F  
DOCKED: ENDBRANCH  11  13
DOCKED: ENDBRANCH   6   7
DOCKED: ENDBRANCH   5   6
DOCKED: ENDBRANCH   4   5
DOCKED: ENDBRANCH   1   4
DOCKED: BRANCH   1  17
DOCKED: ATOM     17  C   UNL     1     139.108  75.578 222.307 -0.30 +0.00    -0.001 C  
DOCKED: BRANCH  17  18
DOCKED: ATOM     18  C   UNL     1     138.204  76.337 221.373 -0.16 -0.02    +0.071 C  
DOCKED: BRANCH  18  19
DOCKED: ATOM     19  C   UNL     1     137.429  77.452 222.084 -0.13 -0.04    +0.234 C  
DOCKED: BRANCH  19  20
DOCKED: ATOM     20  O   UNL     1     138.017  78.729 221.814 -0.02 +0.09    -0.492 OA 
DOCKED: BRANCH  20  21
DOCKED: ATOM     21  C   UNL     1     139.275  79.166 222.258 -0.20 -0.03    +0.137 A  
DOCKED: ATOM     22  C   UNL     1     140.473  78.789 221.618 -0.26 -0.02    +0.049 A  
DOCKED: ATOM     23  C   UNL     1     139.336  80.030 223.364 -0.35 -0.01    +0.084 A  
DOCKED: ATOM     24  C   UNL     1     141.703  79.251 222.095 -0.46 -0.01    +0.024 A  
DOCKED: ATOM     25  C   UNL     1     140.571  80.480 223.843 -0.40 -0.01    +0.045 A  
DOCKED: ATOM     26  C   UNL     1     141.755  80.086 223.213 -0.55 -0.01    +0.042 A  
DOCKED: ATOM     27  Cl  UNL     1     137.865  80.529 224.185 -0.44 +0.01    -0.080 Cl 
DOCKED: ATOM     28  Cl  UNL     1     143.304  80.646 223.820 -0.60 +0.02    -0.084 Cl 
DOCKED: ENDBRANCH  20  21
DOCKED: ENDBRANCH  19  20
DOCKED: ENDBRANCH  18  19
DOCKED: ENDBRANCH  17  18
DOCKED: ENDBRANCH   1  17
DOCKED: TORSDOF 11
DOCKED: TER
DOCKED: ENDMDL
________________________________________________________________________________


    FINAL DOCKED STATE:
    ________________________


Run:   14 / 20
Time taken for this run:   0.130s

DOCKED: MODEL        14
DOCKED: USER    Run = 14
DOCKED: USER
DOCKED: USER    Estimated Free Energy of Binding    =  -6.30 kcal/mol  [=(1)+(2)+(3)-(4)]
DOCKED: USER
DOCKED: USER    (1) Final Intermolecular Energy     =  -9.58 kcal/mol
DOCKED: USER        vdW + Hbond + desolv Energy     =  -9.65 kcal/mol
DOCKED: USER        Electrostatic Energy            =  +0.06 kcal/mol
DOCKED: USER        Moving Ligand-Fixed Receptor    =  -9.58 kcal/mol
DOCKED: USER        Moving Ligand-Moving Receptor   =  +0.00 kcal/mol
DOCKED: USER    (2) Final Total Internal Energy     =  -0.83 kcal/mol
DOCKED: USER    (3) Torsional Free Energy           =  +3.28 kcal/mol
DOCKED: USER    (4) Unbound System's Energy         =  -0.83 kcal/mol
DOCKED: USER
DOCKED: USER
DOCKED: REMARK SMILES O/C(=C\CCOc1ccc(Cl)cc1Cl)[N-]/N=C/c1cccc(C(F)(F)F)c1
DOCKED: REMARK SMILES IDX 2 1 1 2 15 4 16 5 17 6 18 7 19 8 27 9 20 10 22 11 21 12
DOCKED: REMARK SMILES IDX 23 13 24 14 25 15 26 16 3 17 4 18 5 19 6 20 7 21 8 22 13 23
DOCKED: REMARK SMILES IDX 9 24 12 25 10 26 14 27 11 28
DOCKED: REMARK H PARENT 1 3
DOCKED: USER                              x       y       z     vdW  Elec       q    Type
DOCKED: USER                           _______ _______ _______ _____ _____    ______ ____
DOCKED: ROOT
DOCKED: ATOM      1  C   UNL     1     138.228  73.776 221.597 -0.18 -0.01    +0.023 C  
DOCKED: ENDROOT
DOCKED: BRANCH   1   2
DOCKED: ATOM      2  O   UNL     1     137.354  73.059 222.416 -0.03 +0.18    -0.530 OA 
DOCKED: ATOM      3  H   UNL     1     137.444  73.009 223.424 -0.46 -0.19    +0.290 HD 
DOCKED: ENDBRANCH   1   2
DOCKED: BRANCH   1   4
DOCKED: ATOM      4  N   UNL     1     139.603  73.372 221.577 -0.13 +0.10    -0.546 NA 
DOCKED: BRANCH   4   5
DOCKED: ATOM      5  N   UNL     1     140.308  73.040 222.742 -0.54 +0.01    -0.372 NA 
DOCKED: BRANCH   5   6
DOCKED: ATOM      6  C   UNL     1     140.678  71.823 222.973 -0.27 -0.01    +0.094 C  
DOCKED: BRANCH   6   7
DOCKED: ATOM      7  C   UNL     1     140.318  71.146 224.236 -0.45 +0.00    -0.009 A  
DOCKED: ATOM      8  C   UNL     1     139.550  69.968 224.238 -0.34 -0.00    +0.009 A  
DOCKED: ATOM      9  C   UNL     1     140.750  71.685 225.458 -0.51 -0.00    +0.022 A  
DOCKED: ATOM     10  C   UNL     1     139.240  69.330 225.441 -0.43 -0.00    +0.001 A  
DOCKED: ATOM     11  C   UNL     1     140.422  71.060 226.675 -0.59 -0.01    +0.056 A  
DOCKED: ATOM     12  C   UNL     1     139.681  69.865 226.653 -0.49 -0.00    +0.013 A  
DOCKED: BRANCH  11  13
DOCKED: ATOM     13  C   UNL     1     140.936  71.629 227.974 -0.40 -0.09    +0.416 C  
DOCKED: ATOM     14  F   UNL     1     139.904  72.159 228.729 -0.29 +0.06    -0.166 F  
DOCKED: ATOM     15  F   UNL     1     141.554  70.625 228.699 -0.15 +0.03    -0.166 F  
DOCKED: ATOM     16  F   UNL     1     141.853  72.637 227.726 -0.31 +0.03    -0.166 F  
DOCKED: ENDBRANCH  11  13
DOCKED: ENDBRANCH   6   7
DOCKED: ENDBRANCH   5   6
DOCKED: ENDBRANCH   4   5
DOCKED: ENDBRANCH   1   4
DOCKED: BRANCH   1  17
DOCKED: ATOM     17  C   UNL     1     137.808  74.818 220.855 -0.11 +0.00    -0.001 C  
DOCKED: BRANCH  17  18
DOCKED: ATOM     18  C   UNL     1     137.239  76.074 221.458 -0.13 -0.01    +0.071 C  
DOCKED: BRANCH  18  19
DOCKED: ATOM     19  C   UNL     1     137.942  76.470 222.761 -0.20 -0.05    +0.234 C  
DOCKED: BRANCH  19  20
DOCKED: ATOM     20  O   UNL     1     138.124  77.888 222.828 -0.09 +0.08    -0.492 OA 
DOCKED: BRANCH  20  21
DOCKED: ATOM     21  C   UNL     1     139.341  78.551 223.050 -0.26 -0.02    +0.137 A  
DOCKED: ATOM     22  C   UNL     1     140.585  77.967 222.739 -0.41 -0.01    +0.049 A  
DOCKED: ATOM     23  C   UNL     1     139.312  79.853 223.578 -0.37 -0.01    +0.084 A  
DOCKED: ATOM     24  C   UNL     1     141.772  78.667 222.976 -0.53 -0.01    +0.024 A  
DOCKED: ATOM     25  C   UNL     1     140.503  80.544 223.822 -0.39 -0.01    +0.045 A  
DOCKED: ATOM     26  C   UNL     1     141.734  79.950 223.527 -0.57 -0.01    +0.042 A  
DOCKED: ATOM     27  Cl  UNL     1     137.780  80.619 223.972 -0.42 +0.01    -0.080 Cl 
DOCKED: ATOM     28  Cl  UNL     1     143.228  80.816 223.843 -0.61 +0.02    -0.084 Cl 
DOCKED: ENDBRANCH  20  21
DOCKED: ENDBRANCH  19  20
DOCKED: ENDBRANCH  18  19
DOCKED: ENDBRANCH  17  18
DOCKED: ENDBRANCH   1  17
DOCKED: TORSDOF 11
DOCKED: TER
DOCKED: ENDMDL
________________________________________________________________________________


    FINAL DOCKED STATE:
    ________________________


Run:   15 / 20
Time taken for this run:   0.130s

DOCKED: MODEL        15
DOCKED: USER    Run = 15
DOCKED: USER
DOCKED: USER    Estimated Free Energy of Binding    =  -6.46 kcal/mol  [=(1)+(2)+(3)-(4)]
DOCKED: USER
DOCKED: USER    (1) Final Intermolecular Energy     =  -9.74 kcal/mol
DOCKED: USER        vdW + Hbond + desolv Energy     =  -9.68 kcal/mol
DOCKED: USER        Electrostatic Energy            =  -0.06 kcal/mol
DOCKED: USER        Moving Ligand-Fixed Receptor    =  -9.74 kcal/mol
DOCKED: USER        Moving Ligand-Moving Receptor   =  +0.00 kcal/mol
DOCKED: USER    (2) Final Total Internal Energy     =  -0.92 kcal/mol
DOCKED: USER    (3) Torsional Free Energy           =  +3.28 kcal/mol
DOCKED: USER    (4) Unbound System's Energy         =  -0.92 kcal/mol
DOCKED: USER
DOCKED: USER
DOCKED: REMARK SMILES O/C(=C\CCOc1ccc(Cl)cc1Cl)[N-]/N=C/c1cccc(C(F)(F)F)c1
DOCKED: REMARK SMILES IDX 2 1 1 2 15 4 16 5 17 6 18 7 19 8 27 9 20 10 22 11 21 12
DOCKED: REMARK SMILES IDX 23 13 24 14 25 15 26 16 3 17 4 18 5 19 6 20 7 21 8 22 13 23
DOCKED: REMARK SMILES IDX 9 24 12 25 10 26 14 27 11 28
DOCKED: REMARK H PARENT 1 3
DOCKED: USER                              x       y       z     vdW  Elec       q    Type
DOCKED: USER                           _______ _______ _______ _____ _____    ______ ____
DOCKED: ROOT
DOCKED: ATOM      1  C   UNL     1     134.284  68.461 225.266 -0.27 -0.00    +0.023 C  
DOCKED: ENDROOT
DOCKED: BRANCH   1   2
DOCKED: ATOM      2  O   UNL     1     134.051  67.132 225.627 -0.37 +0.09    -0.530 OA 
DOCKED: ATOM      3  H   UNL     1     134.290  66.342 225.040 -0.35 -0.10    +0.290 HD 
DOCKED: ENDBRANCH   1   2
DOCKED: BRANCH   1   4
DOCKED: ATOM      4  N   UNL     1     135.425  68.737 224.444 -0.38 -0.01    -0.546 NA 
DOCKED: BRANCH   4   5
DOCKED: ATOM      5  N   UNL     1     136.549  69.424 224.921 -0.10 +0.02    -0.372 NA 
DOCKED: BRANCH   5   6
DOCKED: ATOM      6  C   UNL     1     137.740  69.106 224.531 -0.26 -0.01    +0.094 C  
DOCKED: BRANCH   6   7
DOCKED: ATOM      7  C   UNL     1     138.852  68.996 225.497 -0.42 +0.00    -0.009 A  
DOCKED: ATOM      8  C   UNL     1     139.456  67.757 225.775 -0.56 -0.00    +0.009 A  
DOCKED: ATOM      9  C   UNL     1     139.318  70.148 226.150 -0.29 -0.00    +0.022 A  
DOCKED: ATOM     10  C   UNL     1     140.522  67.677 226.673 -0.67 -0.00    +0.001 A  
DOCKED: ATOM     11  C   UNL     1     140.376  70.072 227.074 -0.54 -0.01    +0.056 A  
DOCKED: ATOM     12  C   UNL     1     140.988  68.828 227.313 -0.61 -0.00    +0.013 A  
DOCKED: BRANCH  11  13
DOCKED: ATOM     13  C   UNL     1     140.892  71.328 227.730 -0.38 -0.08    +0.416 C  
DOCKED: ATOM     14  F   UNL     1     141.817  71.031 228.716 -0.16 +0.03    -0.166 F  
DOCKED: ATOM     15  F   UNL     1     141.496  72.126 226.774 -0.31 +0.02    -0.166 F  
DOCKED: ATOM     16  F   UNL     1     139.849  72.029 228.310 -0.25 +0.05    -0.166 F  
DOCKED: ENDBRANCH  11  13
DOCKED: ENDBRANCH   6   7
DOCKED: ENDBRANCH   5   6
DOCKED: ENDBRANCH   4   5
DOCKED: ENDBRANCH   1   4
DOCKED: BRANCH   1  17
DOCKED: ATOM     17  C   UNL     1     133.477  69.457 225.678 -0.26 +0.00    -0.001 C  
DOCKED: BRANCH  17  18
DOCKED: ATOM     18  C   UNL     1     133.925  70.529 226.636 -0.35 -0.00    +0.071 C  
DOCKED: BRANCH  18  19
DOCKED: ATOM     19  C   UNL     1     132.960  71.719 226.677 -0.27 -0.02    +0.234 C  
DOCKED: BRANCH  19  20
DOCKED: ATOM     20  O   UNL     1     133.680  72.953 226.764 -0.57 -0.03    -0.492 OA 
DOCKED: BRANCH  20  21
DOCKED: ATOM     21  C   UNL     1     134.398  73.561 225.722 -0.22 +0.00    +0.137 A  
DOCKED: ATOM     22  C   UNL     1     135.081  72.815 224.741 -0.21 -0.01    +0.049 A  
DOCKED: ATOM     23  C   UNL     1     134.412  74.964 225.643 -0.35 -0.00    +0.084 A  
DOCKED: ATOM     24  C   UNL     1     135.782  73.464 223.720 -0.19 -0.01    +0.024 A  
DOCKED: ATOM     25  C   UNL     1     135.123  75.609 224.626 -0.32 -0.01    +0.045 A  
DOCKED: ATOM     26  C   UNL     1     135.813  74.860 223.667 -0.25 -0.01    +0.042 A  
DOCKED: ATOM     27  Cl  UNL     1     133.566  75.930 226.842 -0.50 +0.00    -0.080 Cl 
DOCKED: ATOM     28  Cl  UNL     1     136.712  75.671 222.396 -0.27 +0.02    -0.084 Cl 
DOCKED: ENDBRANCH  20  21
DOCKED: ENDBRANCH  19  20
DOCKED: ENDBRANCH  18  19
DOCKED: ENDBRANCH  17  18
DOCKED: ENDBRANCH   1  17
DOCKED: TORSDOF 11
DOCKED: TER
DOCKED: ENDMDL
________________________________________________________________________________


    FINAL DOCKED STATE:
    ________________________


Run:   16 / 20
Time taken for this run:   0.130s

DOCKED: MODEL        16
DOCKED: USER    Run = 16
DOCKED: USER
DOCKED: USER    Estimated Free Energy of Binding    =  -6.52 kcal/mol  [=(1)+(2)+(3)-(4)]
DOCKED: USER
DOCKED: USER    (1) Final Intermolecular Energy     =  -9.80 kcal/mol
DOCKED: USER        vdW + Hbond + desolv Energy     =  -9.80 kcal/mol
DOCKED: USER        Electrostatic Energy            =  -0.00 kcal/mol
DOCKED: USER        Moving Ligand-Fixed Receptor    =  -9.80 kcal/mol
DOCKED: USER        Moving Ligand-Moving Receptor   =  +0.00 kcal/mol
DOCKED: USER    (2) Final Total Internal Energy     =  -1.37 kcal/mol
DOCKED: USER    (3) Torsional Free Energy           =  +3.28 kcal/mol
DOCKED: USER    (4) Unbound System's Energy         =  -1.37 kcal/mol
DOCKED: USER
DOCKED: USER
DOCKED: REMARK SMILES O/C(=C\CCOc1ccc(Cl)cc1Cl)[N-]/N=C/c1cccc(C(F)(F)F)c1
DOCKED: REMARK SMILES IDX 2 1 1 2 15 4 16 5 17 6 18 7 19 8 27 9 20 10 22 11 21 12
DOCKED: REMARK SMILES IDX 23 13 24 14 25 15 26 16 3 17 4 18 5 19 6 20 7 21 8 22 13 23
DOCKED: REMARK SMILES IDX 9 24 12 25 10 26 14 27 11 28
DOCKED: REMARK H PARENT 1 3
DOCKED: USER                              x       y       z     vdW  Elec       q    Type
DOCKED: USER                           _______ _______ _______ _____ _____    ______ ____
DOCKED: ROOT
DOCKED: ATOM      1  C   UNL     1     140.462  74.331 221.006 -0.25 -0.00    +0.023 C  
DOCKED: ENDROOT
DOCKED: BRANCH   1   2
DOCKED: ATOM      2  O   UNL     1     139.419  74.917 220.285 +0.00 +0.12    -0.530 OA 
DOCKED: ATOM      3  H   UNL     1     139.418  75.885 219.987 +0.06 -0.07    +0.290 HD 
DOCKED: ENDBRANCH   1   2
DOCKED: BRANCH   1   4
DOCKED: ATOM      4  N   UNL     1     140.173  73.856 222.327 -0.63 +0.00    -0.546 NA 
DOCKED: BRANCH   4   5
DOCKED: ATOM      5  N   UNL     1     140.668  72.641 222.816 -0.41 +0.01    -0.372 NA 
DOCKED: BRANCH   5   6
DOCKED: ATOM      6  C   UNL     1     139.876  71.647 223.058 -0.30 -0.02    +0.094 C  
DOCKED: BRANCH   6   7
DOCKED: ATOM      7  C   UNL     1     139.949  70.912 224.338 -0.43 +0.00    -0.009 A  
DOCKED: ATOM      8  C   UNL     1     139.578  69.559 224.422 -0.34 -0.00    +0.009 A  
DOCKED: ATOM      9  C   UNL     1     140.398  71.574 225.492 -0.50 -0.00    +0.022 A  
DOCKED: ATOM     10  C   UNL     1     139.675  68.875 225.636 -0.48 -0.00    +0.001 A  
DOCKED: ATOM     11  C   UNL     1     140.477  70.898 226.723 -0.58 -0.01    +0.056 A  
DOCKED: ATOM     12  C   UNL     1     140.132  69.535 226.779 -0.54 -0.00    +0.013 A  
DOCKED: BRANCH  11  13
DOCKED: ATOM     13  C   UNL     1     141.006  71.614 227.940 -0.40 -0.09    +0.416 C  
DOCKED: ATOM     14  F   UNL     1     139.972  72.135 228.700 -0.29 +0.05    -0.166 F  
DOCKED: ATOM     15  F   UNL     1     141.728  70.724 228.715 -0.13 +0.03    -0.166 F  
DOCKED: ATOM     16  F   UNL     1     141.833  72.657 227.561 -0.34 +0.03    -0.166 F  
DOCKED: ENDBRANCH  11  13
DOCKED: ENDBRANCH   6   7
DOCKED: ENDBRANCH   5   6
DOCKED: ENDBRANCH   4   5
DOCKED: ENDBRANCH   1   4
DOCKED: BRANCH   1  17
DOCKED: ATOM     17  C   UNL     1     141.701  74.219 220.492 -0.26 +0.00    -0.001 C  
DOCKED: BRANCH  17  18
DOCKED: ATOM     18  C   UNL     1     142.566  75.409 220.177 -0.27 -0.03    +0.071 C  
DOCKED: BRANCH  18  19
DOCKED: ATOM     19  C   UNL     1     141.852  76.435 219.290 -0.16 -0.11    +0.234 C  
DOCKED: BRANCH  19  20
DOCKED: ATOM     20  O   UNL     1     140.958  77.240 220.064 -0.03 +0.21    -0.492 OA 
DOCKED: BRANCH  20  21
DOCKED: ATOM     21  C   UNL     1     141.329  78.163 221.054 -0.26 -0.07    +0.137 A  
DOCKED: ATOM     22  C   UNL     1     141.252  77.865 222.430 -0.39 -0.02    +0.049 A  
DOCKED: ATOM     23  C   UNL     1     141.819  79.418 220.655 -0.28 -0.05    +0.084 A  
DOCKED: ATOM     24  C   UNL     1     141.635  78.816 223.380 -0.58 -0.01    +0.024 A  
DOCKED: ATOM     25  C   UNL     1     142.191  80.369 221.611 -0.43 -0.02    +0.045 A  
DOCKED: ATOM     26  C   UNL     1     142.093  80.071 222.974 -0.57 -0.01    +0.042 A  
DOCKED: ATOM     27  Cl  UNL     1     141.938  79.824 218.950 -0.36 +0.05    -0.080 Cl 
DOCKED: ATOM     28  Cl  UNL     1     142.553  81.269 224.172 -0.65 +0.01    -0.084 Cl 
DOCKED: ENDBRANCH  20  21
DOCKED: ENDBRANCH  19  20
DOCKED: ENDBRANCH  18  19
DOCKED: ENDBRANCH  17  18
DOCKED: ENDBRANCH   1  17
DOCKED: TORSDOF 11
DOCKED: TER
DOCKED: ENDMDL
________________________________________________________________________________


    FINAL DOCKED STATE:
    ________________________


Run:   17 / 20
Time taken for this run:   0.130s

DOCKED: MODEL        17
DOCKED: USER    Run = 17
DOCKED: USER
DOCKED: USER    Estimated Free Energy of Binding    =  -6.10 kcal/mol  [=(1)+(2)+(3)-(4)]
DOCKED: USER
DOCKED: USER    (1) Final Intermolecular Energy     =  -9.38 kcal/mol
DOCKED: USER        vdW + Hbond + desolv Energy     =  -9.52 kcal/mol
DOCKED: USER        Electrostatic Energy            =  +0.14 kcal/mol
DOCKED: USER        Moving Ligand-Fixed Receptor    =  -9.38 kcal/mol
DOCKED: USER        Moving Ligand-Moving Receptor   =  +0.00 kcal/mol
DOCKED: USER    (2) Final Total Internal Energy     =  -1.26 kcal/mol
DOCKED: USER    (3) Torsional Free Energy           =  +3.28 kcal/mol
DOCKED: USER    (4) Unbound System's Energy         =  -1.26 kcal/mol
DOCKED: USER
DOCKED: USER
DOCKED: REMARK SMILES O/C(=C\CCOc1ccc(Cl)cc1Cl)[N-]/N=C/c1cccc(C(F)(F)F)c1
DOCKED: REMARK SMILES IDX 2 1 1 2 15 4 16 5 17 6 18 7 19 8 27 9 20 10 22 11 21 12
DOCKED: REMARK SMILES IDX 23 13 24 14 25 15 26 16 3 17 4 18 5 19 6 20 7 21 8 22 13 23
DOCKED: REMARK SMILES IDX 9 24 12 25 10 26 14 27 11 28
DOCKED: REMARK H PARENT 1 3
DOCKED: USER                              x       y       z     vdW  Elec       q    Type
DOCKED: USER                           _______ _______ _______ _____ _____    ______ ____
DOCKED: ROOT
DOCKED: ATOM      1  C   UNL     1     139.074  71.324 223.262 -0.29 -0.01    +0.023 C  
DOCKED: ENDROOT
DOCKED: BRANCH   1   2
DOCKED: ATOM      2  O   UNL     1     139.961  72.233 223.843 -0.17 +0.12    -0.530 OA 
DOCKED: ATOM      3  H   UNL     1     139.912  73.234 223.700 -0.25 -0.04    +0.290 HD 
DOCKED: ENDBRANCH   1   2
DOCKED: BRANCH   1   4
DOCKED: ATOM      4  N   UNL     1     138.203  70.594 224.135 -0.02 +0.10    -0.546 NA 
DOCKED: BRANCH   4   5
DOCKED: ATOM      5  N   UNL     1     138.174  69.194 224.172 -0.11 +0.04    -0.372 NA 
DOCKED: BRANCH   5   6
DOCKED: ATOM      6  C   UNL     1     139.204  68.516 224.563 -0.31 -0.01    +0.094 C  
DOCKED: BRANCH   6   7
DOCKED: ATOM      7  C   UNL     1     139.831  68.776 225.876 -0.51 +0.00    -0.009 A  
DOCKED: ATOM      8  C   UNL     1     140.278  67.721 226.691 -0.67 -0.00    +0.009 A  
DOCKED: ATOM      9  C   UNL     1     139.987  70.098 226.319 -0.50 -0.00    +0.022 A  
DOCKED: ATOM     10  C   UNL     1     140.890  67.987 227.917 -0.60 -0.00    +0.001 A  
DOCKED: ATOM     11  C   UNL     1     140.581  70.374 227.564 -0.59 -0.01    +0.056 A  
DOCKED: ATOM     12  C   UNL     1     141.051  69.306 228.349 -0.59 -0.00    +0.013 A  
DOCKED: BRANCH  11  13
DOCKED: ATOM     13  C   UNL     1     140.781  71.803 228.001 -0.40 -0.10    +0.416 C  
DOCKED: ATOM     14  F   UNL     1     139.660  72.287 228.653 -0.24 +0.06    -0.166 F  
DOCKED: ATOM     15  F   UNL     1     141.864  71.871 228.859 -0.22 +0.04    -0.166 F  
DOCKED: ATOM     16  F   UNL     1     141.025  72.611 226.902 -0.29 +0.03    -0.166 F  
DOCKED: ENDBRANCH  11  13
DOCKED: ENDBRANCH   6   7
DOCKED: ENDBRANCH   5   6
DOCKED: ENDBRANCH   4   5
DOCKED: ENDBRANCH   1   4
DOCKED: BRANCH   1  17
DOCKED: ATOM     17  C   UNL     1     139.035  71.127 221.931 -0.18 +0.00    -0.001 C  
DOCKED: BRANCH  17  18
DOCKED: ATOM     18  C   UNL     1     139.647  72.084 220.944 -0.13 -0.01    +0.071 C  
DOCKED: BRANCH  18  19
DOCKED: ATOM     19  C   UNL     1     139.171  73.526 221.152 -0.12 -0.05    +0.234 C  
DOCKED: BRANCH  19  20
DOCKED: ATOM     20  O   UNL     1     140.093  74.251 221.972 -0.73 +0.04    -0.492 OA 
DOCKED: BRANCH  20  21
DOCKED: ATOM     21  C   UNL     1     140.418  75.610 221.840 -0.29 -0.03    +0.137 A  
DOCKED: ATOM     22  C   UNL     1     139.747  76.619 222.561 -0.27 -0.01    +0.049 A  
DOCKED: ATOM     23  C   UNL     1     141.467  75.971 220.978 -0.26 -0.04    +0.084 A  
DOCKED: ATOM     24  C   UNL     1     140.106  77.960 222.399 -0.36 -0.01    +0.024 A  
DOCKED: ATOM     25  C   UNL     1     141.815  77.316 220.812 -0.25 -0.03    +0.045 A  
DOCKED: ATOM     26  C   UNL     1     141.132  78.312 221.518 -0.33 -0.02    +0.042 A  
DOCKED: ATOM     27  Cl  UNL     1     142.333  74.743 220.068 -0.35 +0.03    -0.080 Cl 
DOCKED: ATOM     28  Cl  UNL     1     141.565  79.999 221.302 -0.47 +0.03    -0.084 Cl 
DOCKED: ENDBRANCH  20  21
DOCKED: ENDBRANCH  19  20
DOCKED: ENDBRANCH  18  19
DOCKED: ENDBRANCH  17  18
DOCKED: ENDBRANCH   1  17
DOCKED: TORSDOF 11
DOCKED: TER
DOCKED: ENDMDL
________________________________________________________________________________


    FINAL DOCKED STATE:
    ________________________


Run:   18 / 20
Time taken for this run:   0.130s

DOCKED: MODEL        18
DOCKED: USER    Run = 18
DOCKED: USER
DOCKED: USER    Estimated Free Energy of Binding    =  -6.23 kcal/mol  [=(1)+(2)+(3)-(4)]
DOCKED: USER
DOCKED: USER    (1) Final Intermolecular Energy     =  -9.51 kcal/mol
DOCKED: USER        vdW + Hbond + desolv Energy     =  -9.44 kcal/mol
DOCKED: USER        Electrostatic Energy            =  -0.07 kcal/mol
DOCKED: USER        Moving Ligand-Fixed Receptor    =  -9.51 kcal/mol
DOCKED: USER        Moving Ligand-Moving Receptor   =  +0.00 kcal/mol
DOCKED: USER    (2) Final Total Internal Energy     =  -1.24 kcal/mol
DOCKED: USER    (3) Torsional Free Energy           =  +3.28 kcal/mol
DOCKED: USER    (4) Unbound System's Energy         =  -1.24 kcal/mol
DOCKED: USER
DOCKED: USER
DOCKED: REMARK SMILES O/C(=C\CCOc1ccc(Cl)cc1Cl)[N-]/N=C/c1cccc(C(F)(F)F)c1
DOCKED: REMARK SMILES IDX 2 1 1 2 15 4 16 5 17 6 18 7 19 8 27 9 20 10 22 11 21 12
DOCKED: REMARK SMILES IDX 23 13 24 14 25 15 26 16 3 17 4 18 5 19 6 20 7 21 8 22 13 23
DOCKED: REMARK SMILES IDX 9 24 12 25 10 26 14 27 11 28
DOCKED: REMARK H PARENT 1 3
DOCKED: USER                              x       y       z     vdW  Elec       q    Type
DOCKED: USER                           _______ _______ _______ _____ _____    ______ ____
DOCKED: ROOT
DOCKED: ATOM      1  C   UNL     1     140.297  75.172 221.878 -0.27 -0.00    +0.023 C  
DOCKED: ENDROOT
DOCKED: BRANCH   1   2
DOCKED: ATOM      2  O   UNL     1     140.966  76.318 222.313 -0.20 +0.17    -0.530 OA 
DOCKED: ATOM      3  H   UNL     1     141.970  76.439 222.247 -0.43 -0.23    +0.290 HD 
DOCKED: ENDBRANCH   1   2
DOCKED: BRANCH   1   4
DOCKED: ATOM      4  N   UNL     1     140.791  73.904 222.326 -0.39 -0.06    -0.546 NA 
DOCKED: BRANCH   4   5
DOCKED: ATOM      5  N   UNL     1     139.943  72.871 222.748 -0.51 +0.05    -0.372 NA 
DOCKED: BRANCH   5   6
DOCKED: ATOM      6  C   UNL     1     140.398  71.678 222.956 -0.30 -0.01    +0.094 C  
DOCKED: BRANCH   6   7
DOCKED: ATOM      7  C   UNL     1     140.188  71.000 224.252 -0.44 +0.00    -0.009 A  
DOCKED: ATOM      8  C   UNL     1     139.549  69.749 224.324 -0.34 -0.00    +0.009 A  
DOCKED: ATOM      9  C   UNL     1     140.635  71.612 225.433 -0.52 -0.00    +0.022 A  
DOCKED: ATOM     10  C   UNL     1     139.380  69.114 225.556 -0.45 -0.00    +0.001 A  
DOCKED: ATOM     11  C   UNL     1     140.448  70.987 226.680 -0.58 -0.01    +0.056 A  
DOCKED: ATOM     12  C   UNL     1     139.836  69.722 226.727 -0.52 -0.00    +0.013 A  
DOCKED: BRANCH  11  13
DOCKED: ATOM     13  C   UNL     1     140.977  71.640 227.933 -0.40 -0.09    +0.416 C  
DOCKED: ATOM     14  F   UNL     1     141.673  70.731 228.712 -0.14 +0.03    -0.166 F  
DOCKED: ATOM     15  F   UNL     1     141.826  72.675 227.584 -0.34 +0.03    -0.166 F  
DOCKED: ATOM     16  F   UNL     1     139.933  72.147 228.688 -0.29 +0.05    -0.166 F  
DOCKED: ENDBRANCH  11  13
DOCKED: ENDBRANCH   6   7
DOCKED: ENDBRANCH   5   6
DOCKED: ENDBRANCH   4   5
DOCKED: ENDBRANCH   1   4
DOCKED: BRANCH   1  17
DOCKED: ATOM     17  C   UNL     1     139.229  75.244 221.061 -0.21 +0.00    -0.001 C  
DOCKED: BRANCH  17  18
DOCKED: ATOM     18  C   UNL     1     139.192  74.591 219.706 -0.05 -0.02    +0.071 C  
DOCKED: BRANCH  18  19
DOCKED: ATOM     19  C   UNL     1     140.175  75.231 218.719 -0.02 -0.06    +0.234 C  
DOCKED: BRANCH  19  20
DOCKED: ATOM     20  O   UNL     1     141.217  74.314 218.374 +0.02 +0.13    -0.492 OA 
DOCKED: BRANCH  20  21
DOCKED: ATOM     21  C   UNL     1     142.373  74.060 219.130 -0.11 -0.04    +0.137 A  
DOCKED: ATOM     22  C   UNL     1     142.667  72.783 219.651 -0.16 -0.01    +0.049 A  
DOCKED: ATOM     23  C   UNL     1     143.278  75.111 219.350 -0.29 -0.04    +0.084 A  
DOCKED: ATOM     24  C   UNL     1     143.831  72.577 220.396 -0.33 -0.00    +0.024 A  
DOCKED: ATOM     25  C   UNL     1     144.436  74.901 220.106 -0.39 -0.02    +0.045 A  
DOCKED: ATOM     26  C   UNL     1     144.711  73.635 220.634 -0.49 -0.01    +0.042 A  
DOCKED: ATOM     27  Cl  UNL     1     142.951  76.714 218.711 -0.43 +0.05    -0.080 Cl 
DOCKED: ATOM     28  Cl  UNL     1     146.161  73.375 221.588 -0.86 +0.01    -0.084 Cl 
DOCKED: ENDBRANCH  20  21
DOCKED: ENDBRANCH  19  20
DOCKED: ENDBRANCH  18  19
DOCKED: ENDBRANCH  17  18
DOCKED: ENDBRANCH   1  17
DOCKED: TORSDOF 11
DOCKED: TER
DOCKED: ENDMDL
________________________________________________________________________________


    FINAL DOCKED STATE:
    ________________________


Run:   19 / 20
Time taken for this run:   0.130s

DOCKED: MODEL        19
DOCKED: USER    Run = 19
DOCKED: USER
DOCKED: USER    Estimated Free Energy of Binding    =  -6.09 kcal/mol  [=(1)+(2)+(3)-(4)]
DOCKED: USER
DOCKED: USER    (1) Final Intermolecular Energy     =  -9.37 kcal/mol
DOCKED: USER        vdW + Hbond + desolv Energy     =  -9.42 kcal/mol
DOCKED: USER        Electrostatic Energy            =  +0.05 kcal/mol
DOCKED: USER        Moving Ligand-Fixed Receptor    =  -9.37 kcal/mol
DOCKED: USER        Moving Ligand-Moving Receptor   =  +0.00 kcal/mol
DOCKED: USER    (2) Final Total Internal Energy     =  -1.01 kcal/mol
DOCKED: USER    (3) Torsional Free Energy           =  +3.28 kcal/mol
DOCKED: USER    (4) Unbound System's Energy         =  -1.01 kcal/mol
DOCKED: USER
DOCKED: USER
DOCKED: REMARK SMILES O/C(=C\CCOc1ccc(Cl)cc1Cl)[N-]/N=C/c1cccc(C(F)(F)F)c1
DOCKED: REMARK SMILES IDX 2 1 1 2 15 4 16 5 17 6 18 7 19 8 27 9 20 10 22 11 21 12
DOCKED: REMARK SMILES IDX 23 13 24 14 25 15 26 16 3 17 4 18 5 19 6 20 7 21 8 22 13 23
DOCKED: REMARK SMILES IDX 9 24 12 25 10 26 14 27 11 28
DOCKED: REMARK H PARENT 1 3
DOCKED: USER                              x       y       z     vdW  Elec       q    Type
DOCKED: USER                           _______ _______ _______ _____ _____    ______ ____
DOCKED: ROOT
DOCKED: ATOM      1  C   UNL     1     141.181  73.593 221.375 -0.26 -0.00    +0.023 C  
DOCKED: ENDROOT
DOCKED: BRANCH   1   2
DOCKED: ATOM      2  O   UNL     1     141.924  72.771 220.525 -0.04 +0.08    -0.530 OA 
DOCKED: ATOM      3  H   UNL     1     141.933  71.760 220.590 +0.09 -0.04    +0.290 HD 
DOCKED: ENDBRANCH   1   2
DOCKED: BRANCH   1   4
DOCKED: ATOM      4  N   UNL     1     140.450  72.966 222.436 -0.47 +0.02    -0.546 NA 
DOCKED: BRANCH   4   5
DOCKED: ATOM      5  N   UNL     1     140.378  71.574 222.581 -0.15 +0.05    -0.372 NA 
DOCKED: BRANCH   5   6
DOCKED: ATOM      6  C   UNL     1     139.645  71.037 223.501 -0.31 -0.02    +0.094 C  
DOCKED: BRANCH   6   7
DOCKED: ATOM      7  C   UNL     1     140.154  70.872 224.879 -0.48 +0.00    -0.009 A  
DOCKED: ATOM      8  C   UNL     1     140.794  71.929 225.550 -0.38 -0.00    +0.009 A  
DOCKED: ATOM      9  C   UNL     1     139.994  69.640 225.532 -0.44 -0.00    +0.022 A  
DOCKED: ATOM     10  C   UNL     1     141.246  71.760 226.860 -0.75 -0.00    +0.001 A  
DOCKED: ATOM     11  C   UNL     1     140.468  69.456 226.844 -0.52 -0.01    +0.056 A  
DOCKED: ATOM     12  C   UNL     1     141.077  70.536 227.509 -0.62 -0.00    +0.013 A  
DOCKED: BRANCH  11  13
DOCKED: ATOM     13  C   UNL     1     140.246  68.140 227.545 -0.29 -0.10    +0.416 C  
DOCKED: ATOM     14  F   UNL     1     139.203  67.437 226.965 -0.23 +0.02    -0.166 F  
DOCKED: ATOM     15  F   UNL     1     141.399  67.380 227.465 -0.15 +0.05    -0.166 F  
DOCKED: ATOM     16  F   UNL     1     139.936  68.352 228.878 -0.17 +0.03    -0.166 F  
DOCKED: ENDBRANCH  11  13
DOCKED: ENDBRANCH   6   7
DOCKED: ENDBRANCH   5   6
DOCKED: ENDBRANCH   4   5
DOCKED: ENDBRANCH   1   4
DOCKED: BRANCH   1  17
DOCKED: ATOM     17  C   UNL     1     141.138  74.928 221.207 -0.32 +0.00    -0.001 C  
DOCKED: BRANCH  17  18
DOCKED: ATOM     18  C   UNL     1     139.855  75.685 220.991 -0.21 -0.02    +0.071 C  
DOCKED: BRANCH  18  19
DOCKED: ATOM     19  C   UNL     1     139.033  75.824 222.278 -0.22 -0.05    +0.234 C  
DOCKED: BRANCH  19  20
DOCKED: ATOM     20  O   UNL     1     138.735  77.198 222.542 -0.12 +0.09    -0.492 OA 
DOCKED: BRANCH  20  21
DOCKED: ATOM     21  C   UNL     1     139.660  78.183 222.922 -0.23 -0.03    +0.137 A  
DOCKED: ATOM     22  C   UNL     1     141.047  77.936 222.965 -0.44 -0.02    +0.049 A  
DOCKED: ATOM     23  C   UNL     1     139.185  79.465 223.244 -0.33 -0.01    +0.084 A  
DOCKED: ATOM     24  C   UNL     1     141.932  78.949 223.347 -0.58 -0.01    +0.024 A  
DOCKED: ATOM     25  C   UNL     1     140.075  80.471 223.636 -0.40 -0.01    +0.045 A  
DOCKED: ATOM     26  C   UNL     1     141.448  80.212 223.694 -0.53 -0.01    +0.042 A  
DOCKED: ATOM     27  Cl  UNL     1     137.464  79.814 223.195 -0.30 +0.01    -0.080 Cl 
DOCKED: ATOM     28  Cl  UNL     1     142.562  81.473 224.194 -0.58 +0.01    -0.084 Cl 
DOCKED: ENDBRANCH  20  21
DOCKED: ENDBRANCH  19  20
DOCKED: ENDBRANCH  18  19
DOCKED: ENDBRANCH  17  18
DOCKED: ENDBRANCH   1  17
DOCKED: TORSDOF 11
DOCKED: TER
DOCKED: ENDMDL
________________________________________________________________________________


    FINAL DOCKED STATE:
    ________________________


Run:   20 / 20
Time taken for this run:   0.130s

DOCKED: MODEL        20
DOCKED: USER    Run = 20
DOCKED: USER
DOCKED: USER    Estimated Free Energy of Binding    =  -6.78 kcal/mol  [=(1)+(2)+(3)-(4)]
DOCKED: USER
DOCKED: USER    (1) Final Intermolecular Energy     = -10.06 kcal/mol
DOCKED: USER        vdW + Hbond + desolv Energy     = -10.05 kcal/mol
DOCKED: USER        Electrostatic Energy            =  -0.01 kcal/mol
DOCKED: USER        Moving Ligand-Fixed Receptor    = -10.06 kcal/mol
DOCKED: USER        Moving Ligand-Moving Receptor   =  +0.00 kcal/mol
DOCKED: USER    (2) Final Total Internal Energy     =  -0.85 kcal/mol
DOCKED: USER    (3) Torsional Free Energy           =  +3.28 kcal/mol
DOCKED: USER    (4) Unbound System's Energy         =  -0.85 kcal/mol
DOCKED: USER
DOCKED: USER
DOCKED: REMARK SMILES O/C(=C\CCOc1ccc(Cl)cc1Cl)[N-]/N=C/c1cccc(C(F)(F)F)c1
DOCKED: REMARK SMILES IDX 2 1 1 2 15 4 16 5 17 6 18 7 19 8 27 9 20 10 22 11 21 12
DOCKED: REMARK SMILES IDX 23 13 24 14 25 15 26 16 3 17 4 18 5 19 6 20 7 21 8 22 13 23
DOCKED: REMARK SMILES IDX 9 24 12 25 10 26 14 27 11 28
DOCKED: REMARK H PARENT 1 3
DOCKED: USER                              x       y       z     vdW  Elec       q    Type
DOCKED: USER                           _______ _______ _______ _____ _____    ______ ____
DOCKED: ROOT
DOCKED: ATOM      1  C   UNL     1     139.962  74.652 221.943 -0.23 -0.00    +0.023 C  
DOCKED: ENDROOT
DOCKED: BRANCH   1   2
DOCKED: ATOM      2  O   UNL     1     138.611  74.813 222.262 -0.17 +0.16    -0.530 OA 
DOCKED: ATOM      3  H   UNL     1     138.115  74.219 222.916 -0.48 -0.19    +0.290 HD 
DOCKED: ENDBRANCH   1   2
DOCKED: BRANCH   1   4
DOCKED: ATOM      4  N   UNL     1     140.599  73.433 222.346 -0.53 -0.01    -0.546 NA 
DOCKED: BRANCH   4   5
DOCKED: ATOM      5  N   UNL     1     140.031  72.560 223.284 -0.27 +0.06    -0.372 NA 
DOCKED: BRANCH   5   6
DOCKED: ATOM      6  C   UNL     1     140.658  71.497 223.669 -0.29 -0.01    +0.094 C  
DOCKED: BRANCH   6   7
DOCKED: ATOM      7  C   UNL     1     140.769  71.158 225.104 -0.54 +0.00    -0.009 A  
DOCKED: ATOM      8  C   UNL     1     141.003  72.152 226.071 -0.32 -0.00    +0.009 A  
DOCKED: ATOM      9  C   UNL     1     140.637  69.821 225.510 -0.46 -0.00    +0.022 A  
DOCKED: ATOM     10  C   UNL     1     141.081  71.814 227.423 -0.82 -0.00    +0.001 A  
DOCKED: ATOM     11  C   UNL     1     140.738  69.471 226.869 -0.53 -0.01    +0.056 A  
DOCKED: ATOM     12  C   UNL     1     140.940  70.484 227.824 -0.63 -0.00    +0.013 A  
DOCKED: BRANCH  11  13
DOCKED: ATOM     13  C   UNL     1     140.547  68.036 227.291 -0.29 -0.10    +0.416 C  
DOCKED: ATOM     14  F   UNL     1     139.205  67.693 227.298 -0.18 +0.02    -0.166 F  
DOCKED: ATOM     15  F   UNL     1     141.217  67.208 226.407 -0.20 +0.05    -0.166 F  
DOCKED: ATOM     16  F   UNL     1     141.051  67.839 228.565 -0.23 +0.05    -0.166 F  
DOCKED: ENDBRANCH  11  13
DOCKED: ENDBRANCH   6   7
DOCKED: ENDBRANCH   5   6
DOCKED: ENDBRANCH   4   5
DOCKED: ENDBRANCH   1   4
DOCKED: BRANCH   1  17
DOCKED: ATOM     17  C   UNL     1     140.652  75.605 221.289 -0.33 +0.00    -0.001 C  
DOCKED: BRANCH  17  18
DOCKED: ATOM     18  C   UNL     1     141.033  76.917 221.921 -0.33 -0.03    +0.071 C  
DOCKED: BRANCH  18  19
DOCKED: ATOM     19  C   UNL     1     139.834  77.633 222.553 -0.21 -0.05    +0.234 C  
DOCKED: BRANCH  19  20
DOCKED: ATOM     20  O   UNL     1     140.251  78.831 223.214 -0.14 +0.10    -0.492 OA 
DOCKED: BRANCH  20  21
DOCKED: ATOM     21  C   UNL     1     140.227  80.124 222.667 -0.29 -0.03    +0.137 A  
DOCKED: ATOM     22  C   UNL     1     139.035  80.733 222.226 -0.21 -0.01    +0.049 A  
DOCKED: ATOM     23  C   UNL     1     141.431  80.842 222.582 -0.43 -0.02    +0.084 A  
DOCKED: ATOM     24  C   UNL     1     139.059  82.024 221.690 -0.18 -0.00    +0.024 A  
DOCKED: ATOM     25  C   UNL     1     141.451  82.129 222.034 -0.37 -0.01    +0.045 A  
DOCKED: ATOM     26  C   UNL     1     140.266  82.719 221.582 -0.27 -0.01    +0.042 A  
DOCKED: ATOM     27  Cl  UNL     1     142.937  80.120 223.128 -0.79 +0.03    -0.080 Cl 
DOCKED: ATOM     28  Cl  UNL     1     140.293  84.330 220.888 -0.30 +0.01    -0.084 Cl 
DOCKED: ENDBRANCH  20  21
DOCKED: ENDBRANCH  19  20
DOCKED: ENDBRANCH  18  19
DOCKED: ENDBRANCH  17  18
DOCKED: ENDBRANCH   1  17
DOCKED: TORSDOF 11
DOCKED: TER
DOCKED: ENDMDL
________________________________________________________________________________


    CLUSTERING HISTOGRAM
    ____________________


________________________________________________________________________________
     |           |     |           |     |
Clus | Lowest    | Run | Mean      | Num | Histogram
-ter | Binding   |     | Binding   | in  |
Rank | Energy    |     | Energy    | Clus|    5    10   15   20   25   30   35
_____|___________|_____|___________|_____|____:____|____:____|____:____|____:___
   1 |     -7.22 |   8 |     -6.55 |   9 |#########
   2 |     -6.78 |  20 |     -6.78 |   1 |#
   3 |     -6.51 |  12 |     -6.13 |   3 |###
   4 |     -6.46 |  15 |     -6.31 |   2 |##
   5 |     -6.23 |  18 |     -6.11 |   2 |##
   6 |     -6.10 |  17 |     -6.10 |   1 |#
   7 |     -5.59 |   1 |     -5.59 |   1 |#
   8 |     -5.20 |   6 |     -5.20 |   1 |#
_____|___________|_____|___________|_____|______________________________________


    RMSD TABLE
    __________


_______________________________________________________________________
     |      |      |           |         |                 |
Rank | Sub- | Run  | Binding   | Cluster | Reference       | Grep
     | Rank |      | Energy    | RMSD    | RMSD            | Pattern
_____|______|______|___________|_________|_________________|___________
   1      1      8       -7.22      0.00    273.44           RANKING
   1      2      7       -6.88      1.55    273.28           RANKING
   1      3     13       -6.79      0.71    273.43           RANKING
   1      4     11       -6.57      1.41    273.34           RANKING
   1      5     16       -6.52      1.78    273.10           RANKING
   1      6      2       -6.44      0.81    273.32           RANKING
   1      7     14       -6.30      1.50    273.18           RANKING
   1      8      3       -6.15      1.96    273.31           RANKING
   1      9     19       -6.09      1.88    273.26           RANKING
   2      1     20       -6.78      0.00    273.47           RANKING
   3      1     12       -6.51      0.00    272.99           RANKING
   3      2      9       -6.16      0.63    272.94           RANKING
   3      3      4       -5.73      1.65    272.73           RANKING
   4      1     15       -6.46      0.00    272.10           RANKING
   4      2     10       -6.17      0.81    272.39           RANKING
   5      1     18       -6.23      0.00    272.52           RANKING
   5      2      5       -5.99      1.13    272.42           RANKING
   6      1     17       -6.10      0.00    272.93           RANKING
   7      1      1       -5.59      0.00    271.92           RANKING
   8      1      6       -5.20      0.00    272.26           RANKING

Run time 2.568 sec
Idle time 0.000 sec
