AutoDock-GPU version: v1.6

**********************************************************
**    AutoDock-GPU AUTODOCKTOOLS-COMPATIBLE DLG FILE    **
**********************************************************


    DOCKING PARAMETERS
    ________________________


Ligand file:                               /home/a/REINVENT4/ReinventStudies/scoringData/graph-dock/graph-DockGPU/node-autodockgpu/inputs/JBHRSOAXAGIKHA-MUXIEFDRNA-N.pdbqt
Grid fld file:                             /home/a/REINVENT4/ReinventStudies/mols/Rad51/maps/rad51_receptor.maps.fld

Random seed:                               42
Number of runs:                            20
Number of energy evaluations:              3119281
Number of generations:                     42000
Size of population:                        150
Rate of crossover:                         80.000000%
Tournament selection probability limit:    60.000000%
Rate of mutation:                          2.000000%
Maximal allowed delta movement:            +/- 6.000000A
Maximal allowed delta angle:               +/- 90.000000

Rate of local search:                      100.000000%
Maximal number of local search iterations: 300
Rho lower bound:                           0.010000
Spread of local search delta movement:     2.000000A
Spread of local search delta angle:        74.999999
Limit of consecutive successes/failures:   4

Handle symmetry during clustering:         YES
RMSD tolerance:                            2.000000A

Program call in command line was:          /home/a/REINVENT4/ReinventStudies/adgpu-v1.6_linux_x64_cuda12_128wi --filelist batch.txt --heuristics 1 --nrun 20 --psize 150 --lsit 300 --seed 42 --heurmax 12000000 


    GRID PARAMETERS
    ________________________


Receptor name:                             rad51_receptor
Number of grid points (x, y, z):           53, 53, 53
Grid center (x, y, z):                     139.950000, 75.640000, 221.970000A
Grid size (x, y, z):                       19.500000, 19.500000, 19.500000A
Grid spacing:                              0.375000A


    LIGAND PARAMETERS
    ________________________


Ligand name:                               /home/a/REINVENT4/ReinventStudies/scoringData/graph-dock/graph-DockGPU/node-autodockgpu/inputs/JBHRSOAXAGIKHA-MUXIEFDRNA-N
Number of atoms:                           28
Number of rotatable bonds:                 11
Number of atom types:                      7


    DUMMY DATA (only for ADT-compatibility)
    ________________________


DPF> outlev 1
DPF> ga_run 20
DPF> fld /home/a/REINVENT4/ReinventStudies/mols/Rad51/maps/rad51_receptor.maps.fld
DPF> move /home/a/REINVENT4/ReinventStudies/scoringData/graph-dock/graph-DockGPU/node-autodockgpu/inputs/JBHRSOAXAGIKHA-MUXIEFDRNA-N.pdbqt


    COUNTER STATES
    ________________________


Number of energy evaluations performed:    1964040
Number of generations used:                100


    INPUT LIGAND PDBQT FILE:
    ________________________


INPUT-LIGAND-PDBQT: REMARK SMILES O/C(=C\CCOc1ccc(Cl)cc1Cl)[N-]/N=C\c1cccc(C(F)(F)F)c1
INPUT-LIGAND-PDBQT: REMARK SMILES IDX 2 1 1 2 15 4 16 5 17 6 18 7 19 8 27 9 20 10 22 11 21 12
INPUT-LIGAND-PDBQT: REMARK SMILES IDX 23 13 24 14 25 15 26 16 3 17 4 18 5 19 6 20 7 21 8 22 13 23
INPUT-LIGAND-PDBQT: REMARK SMILES IDX 9 24 12 25 10 26 14 27 11 28
INPUT-LIGAND-PDBQT: REMARK H PARENT 1 3
INPUT-LIGAND-PDBQT: ROOT
INPUT-LIGAND-PDBQT: ATOM      1  C   UNL     1       0.932  -0.838  -2.483  1.00  0.00     0.023 C 
INPUT-LIGAND-PDBQT: ENDROOT
INPUT-LIGAND-PDBQT: BRANCH   1   2
INPUT-LIGAND-PDBQT: ATOM      2  O   UNL     1       0.495  -2.015  -3.083  1.00  0.00    -0.530 OA
INPUT-LIGAND-PDBQT: ATOM      3  H   UNL     1      -0.468  -2.318  -2.991  1.00  0.00     0.290 HD
INPUT-LIGAND-PDBQT: ENDBRANCH   1   2
INPUT-LIGAND-PDBQT: BRANCH   1   4
INPUT-LIGAND-PDBQT: ATOM      4  N   UNL     1      -0.003  -0.061  -1.724  1.00  0.00    -0.546 NA
INPUT-LIGAND-PDBQT: BRANCH   4   5
INPUT-LIGAND-PDBQT: ATOM      5  N   UNL     1       0.381   1.076  -0.996  1.00  0.00    -0.372 NA
INPUT-LIGAND-PDBQT: BRANCH   5   6
INPUT-LIGAND-PDBQT: ATOM      6  C   UNL     1      -0.419   1.712  -0.195  1.00  0.00     0.094 C 
INPUT-LIGAND-PDBQT: BRANCH   6   7
INPUT-LIGAND-PDBQT: ATOM      7  C   UNL     1      -1.810   1.290   0.087  1.00  0.00    -0.009 A 
INPUT-LIGAND-PDBQT: ATOM      8  C   UNL     1      -2.147  -0.060   0.291  1.00  0.00     0.009 A 
INPUT-LIGAND-PDBQT: ATOM      9  C   UNL     1      -2.799   2.273   0.243  1.00  0.00     0.022 A 
INPUT-LIGAND-PDBQT: ATOM     10  C   UNL     1      -3.458  -0.418   0.608  1.00  0.00     0.001 A 
INPUT-LIGAND-PDBQT: ATOM     11  C   UNL     1      -4.129   1.917   0.535  1.00  0.00     0.056 A 
INPUT-LIGAND-PDBQT: ATOM     12  C   UNL     1      -4.444   0.562   0.734  1.00  0.00     0.013 A 
INPUT-LIGAND-PDBQT: BRANCH  11  13
INPUT-LIGAND-PDBQT: ATOM     13  C   UNL     1      -5.177   2.982   0.735  1.00  0.00     0.416 C 
INPUT-LIGAND-PDBQT: ATOM     14  F   UNL     1      -6.433   2.500   0.410  1.00  0.00    -0.166 F 
INPUT-LIGAND-PDBQT: ATOM     15  F   UNL     1      -5.176   3.379   2.059  1.00  0.00    -0.166 F 
INPUT-LIGAND-PDBQT: ATOM     16  F   UNL     1      -4.916   4.081  -0.065  1.00  0.00    -0.166 F 
INPUT-LIGAND-PDBQT: ENDBRANCH  11  13
INPUT-LIGAND-PDBQT: ENDBRANCH   6   7
INPUT-LIGAND-PDBQT: ENDBRANCH   5   6
INPUT-LIGAND-PDBQT: ENDBRANCH   4   5
INPUT-LIGAND-PDBQT: ENDBRANCH   1   4
INPUT-LIGAND-PDBQT: BRANCH   1  17
INPUT-LIGAND-PDBQT: ATOM     17  C   UNL     1       2.214  -0.464  -2.592  1.00  0.00    -0.001 C 
INPUT-LIGAND-PDBQT: BRANCH  17  18
INPUT-LIGAND-PDBQT: ATOM     18  C   UNL     1       3.260  -1.327  -3.241  1.00  0.00     0.071 C 
INPUT-LIGAND-PDBQT: BRANCH  18  19
INPUT-LIGAND-PDBQT: ATOM     19  C   UNL     1       3.635  -2.536  -2.371  1.00  0.00     0.234 C 
INPUT-LIGAND-PDBQT: BRANCH  19  20
INPUT-LIGAND-PDBQT: ATOM     20  O   UNL     1       4.101  -2.118  -1.083  1.00  0.00    -0.492 OA
INPUT-LIGAND-PDBQT: BRANCH  20  21
INPUT-LIGAND-PDBQT: ATOM     21  C   UNL     1       3.270  -1.741  -0.015  1.00  0.00     0.137 A 
INPUT-LIGAND-PDBQT: ATOM     22  C   UNL     1       2.032  -2.368   0.223  1.00  0.00     0.049 A 
INPUT-LIGAND-PDBQT: ATOM     23  C   UNL     1       3.685  -0.702   0.834  1.00  0.00     0.084 A 
INPUT-LIGAND-PDBQT: ATOM     24  C   UNL     1       1.206  -1.927   1.260  1.00  0.00     0.024 A 
INPUT-LIGAND-PDBQT: ATOM     25  C   UNL     1       2.850  -0.259   1.866  1.00  0.00     0.045 A 
INPUT-LIGAND-PDBQT: ATOM     26  C   UNL     1       1.606  -0.863   2.072  1.00  0.00     0.042 A 
INPUT-LIGAND-PDBQT: ATOM     27  Cl  UNL     1       5.229   0.095   0.576  1.00  0.00    -0.080 Cl
INPUT-LIGAND-PDBQT: ATOM     28  Cl  UNL     1       0.548  -0.287   3.347  1.00  0.00    -0.084 Cl
INPUT-LIGAND-PDBQT: ENDBRANCH  20  21
INPUT-LIGAND-PDBQT: ENDBRANCH  19  20
INPUT-LIGAND-PDBQT: ENDBRANCH  18  19
INPUT-LIGAND-PDBQT: ENDBRANCH  17  18
INPUT-LIGAND-PDBQT: ENDBRANCH   1  17
INPUT-LIGAND-PDBQT: TORSDOF 11


    FINAL DOCKED STATE:
    ________________________


Run:   1 / 20
Time taken for this run:   0.083s

DOCKED: MODEL        1
DOCKED: USER    Run = 1
DOCKED: USER
DOCKED: USER    Estimated Free Energy of Binding    =  -6.14 kcal/mol  [=(1)+(2)+(3)-(4)]
DOCKED: USER
DOCKED: USER    (1) Final Intermolecular Energy     =  -9.43 kcal/mol
DOCKED: USER        vdW + Hbond + desolv Energy     =  -9.45 kcal/mol
DOCKED: USER        Electrostatic Energy            =  +0.02 kcal/mol
DOCKED: USER        Moving Ligand-Fixed Receptor    =  -9.43 kcal/mol
DOCKED: USER        Moving Ligand-Moving Receptor   =  +0.00 kcal/mol
DOCKED: USER    (2) Final Total Internal Energy     =  -1.31 kcal/mol
DOCKED: USER    (3) Torsional Free Energy           =  +3.28 kcal/mol
DOCKED: USER    (4) Unbound System's Energy         =  -1.31 kcal/mol
DOCKED: USER
DOCKED: USER
DOCKED: REMARK SMILES O/C(=C\CCOc1ccc(Cl)cc1Cl)[N-]/N=C\c1cccc(C(F)(F)F)c1
DOCKED: REMARK SMILES IDX 2 1 1 2 15 4 16 5 17 6 18 7 19 8 27 9 20 10 22 11 21 12
DOCKED: REMARK SMILES IDX 23 13 24 14 25 15 26 16 3 17 4 18 5 19 6 20 7 21 8 22 13 23
DOCKED: REMARK SMILES IDX 9 24 12 25 10 26 14 27 11 28
DOCKED: REMARK H PARENT 1 3
DOCKED: USER                              x       y       z     vdW  Elec       q    Type
DOCKED: USER                           _______ _______ _______ _____ _____    ______ ____
DOCKED: ROOT
DOCKED: ATOM      1  C   UNL     1     139.437  75.458 222.188 -0.28 -0.00    +0.023 C  
DOCKED: ENDROOT
DOCKED: BRANCH   1   2
DOCKED: ATOM      2  O   UNL     1     138.128  75.365 222.651 -0.07 +0.18    -0.530 OA 
DOCKED: ATOM      3  H   UNL     1     137.786  74.510 223.075 -0.43 -0.19    +0.290 HD 
DOCKED: ENDBRANCH   1   2
DOCKED: BRANCH   1   4
DOCKED: ATOM      4  N   UNL     1     140.211  74.259 222.061 -0.64 +0.03    -0.546 NA 
DOCKED: BRANCH   4   5
DOCKED: ATOM      5  N   UNL     1     139.761  73.019 222.541 -0.50 +0.06    -0.372 NA 
DOCKED: BRANCH   5   6
DOCKED: ATOM      6  C   UNL     1     140.555  72.113 223.025 -0.25 -0.01    +0.094 C  
DOCKED: BRANCH   6   7
DOCKED: ATOM      7  C   UNL     1     140.251  71.311 224.233 -0.45 +0.00    -0.009 A  
DOCKED: ATOM      8  C   UNL     1     139.627  70.054 224.149 -0.34 -0.00    +0.009 A  
DOCKED: ATOM      9  C   UNL     1     140.678  71.781 225.484 -0.47 -0.00    +0.022 A  
DOCKED: ATOM     10  C   UNL     1     139.403  69.301 225.302 -0.42 -0.00    +0.001 A  
DOCKED: ATOM     11  C   UNL     1     140.431  71.039 226.654 -0.59 -0.01    +0.056 A  
DOCKED: ATOM     12  C   UNL     1     139.805  69.785 226.548 -0.50 -0.00    +0.013 A  
DOCKED: BRANCH  11  13
DOCKED: ATOM     13  C   UNL     1     140.925  71.535 227.990 -0.40 -0.09    +0.416 C  
DOCKED: ATOM     14  F   UNL     1     141.533  70.513 228.697 -0.14 +0.03    -0.166 F  
DOCKED: ATOM     15  F   UNL     1     141.841  72.550 227.788 -0.31 +0.03    -0.166 F  
DOCKED: ATOM     16  F   UNL     1     139.875  72.020 228.750 -0.28 +0.05    -0.166 F  
DOCKED: ENDBRANCH  11  13
DOCKED: ENDBRANCH   6   7
DOCKED: ENDBRANCH   5   6
DOCKED: ENDBRANCH   4   5
DOCKED: ENDBRANCH   1   4
DOCKED: BRANCH   1  17
DOCKED: ATOM     17  C   UNL     1     139.944  76.649 221.841 -0.35 +0.00    -0.001 C  
DOCKED: BRANCH  17  18
DOCKED: ATOM     18  C   UNL     1     141.041  76.799 220.824 -0.27 -0.03    +0.071 C  
DOCKED: BRANCH  18  19
DOCKED: ATOM     19  C   UNL     1     140.604  76.336 219.427 -0.06 -0.08    +0.234 C  
DOCKED: BRANCH  19  20
DOCKED: ATOM     20  O   UNL     1     141.341  75.179 219.015 +0.01 +0.16    -0.492 OA 
DOCKED: BRANCH  20  21
DOCKED: ATOM     21  C   UNL     1     142.507  74.709 219.641 -0.20 -0.05    +0.137 A  
DOCKED: ATOM     22  C   UNL     1     143.608  75.549 219.892 -0.36 -0.03    +0.049 A  
DOCKED: ATOM     23  C   UNL     1     142.576  73.358 220.018 -0.19 -0.02    +0.084 A  
DOCKED: ATOM     24  C   UNL     1     144.774  75.031 220.464 -0.25 -0.01    +0.024 A  
DOCKED: ATOM     25  C   UNL     1     143.749  72.843 220.584 -0.33 -0.01    +0.045 A  
DOCKED: ATOM     26  C   UNL     1     144.851  73.677 220.796 -0.52 -0.01    +0.042 A  
DOCKED: ATOM     27  Cl  UNL     1     141.217  72.283 219.733 -0.13 +0.01    -0.080 Cl 
DOCKED: ATOM     28  Cl  UNL     1     146.330  73.024 221.476 -0.74 +0.01    -0.084 Cl 
DOCKED: ENDBRANCH  20  21
DOCKED: ENDBRANCH  19  20
DOCKED: ENDBRANCH  18  19
DOCKED: ENDBRANCH  17  18
DOCKED: ENDBRANCH   1  17
DOCKED: TORSDOF 11
DOCKED: TER
DOCKED: ENDMDL
________________________________________________________________________________


    FINAL DOCKED STATE:
    ________________________


Run:   2 / 20
Time taken for this run:   0.083s

DOCKED: MODEL        2
DOCKED: USER    Run = 2
DOCKED: USER
DOCKED: USER    Estimated Free Energy of Binding    =  -6.04 kcal/mol  [=(1)+(2)+(3)-(4)]
DOCKED: USER
DOCKED: USER    (1) Final Intermolecular Energy     =  -9.32 kcal/mol
DOCKED: USER        vdW + Hbond + desolv Energy     =  -9.34 kcal/mol
DOCKED: USER        Electrostatic Energy            =  +0.03 kcal/mol
DOCKED: USER        Moving Ligand-Fixed Receptor    =  -9.32 kcal/mol
DOCKED: USER        Moving Ligand-Moving Receptor   =  +0.00 kcal/mol
DOCKED: USER    (2) Final Total Internal Energy     =  -1.28 kcal/mol
DOCKED: USER    (3) Torsional Free Energy           =  +3.28 kcal/mol
DOCKED: USER    (4) Unbound System's Energy         =  -1.28 kcal/mol
DOCKED: USER
DOCKED: USER
DOCKED: REMARK SMILES O/C(=C\CCOc1ccc(Cl)cc1Cl)[N-]/N=C\c1cccc(C(F)(F)F)c1
DOCKED: REMARK SMILES IDX 2 1 1 2 15 4 16 5 17 6 18 7 19 8 27 9 20 10 22 11 21 12
DOCKED: REMARK SMILES IDX 23 13 24 14 25 15 26 16 3 17 4 18 5 19 6 20 7 21 8 22 13 23
DOCKED: REMARK SMILES IDX 9 24 12 25 10 26 14 27 11 28
DOCKED: REMARK H PARENT 1 3
DOCKED: USER                              x       y       z     vdW  Elec       q    Type
DOCKED: USER                           _______ _______ _______ _____ _____    ______ ____
DOCKED: ROOT
DOCKED: ATOM      1  C   UNL     1     140.328  75.218 221.685 -0.31 -0.00    +0.023 C  
DOCKED: ENDROOT
DOCKED: BRANCH   1   2
DOCKED: ATOM      2  O   UNL     1     141.609  75.252 221.141 -0.13 +0.18    -0.530 OA 
DOCKED: ATOM      3  H   UNL     1     142.223  76.042 221.307 -0.42 -0.20    +0.290 HD 
DOCKED: ENDBRANCH   1   2
DOCKED: BRANCH   1   4
DOCKED: ATOM      4  N   UNL     1     139.900  74.034 222.370 -0.61 +0.03    -0.546 NA 
DOCKED: BRANCH   4   5
DOCKED: ATOM      5  N   UNL     1     140.774  72.974 222.658 -0.40 -0.01    -0.372 NA 
DOCKED: BRANCH   5   6
DOCKED: ATOM      6  C   UNL     1     140.385  71.741 222.770 -0.29 -0.01    +0.094 C  
DOCKED: BRANCH   6   7
DOCKED: ATOM      7  C   UNL     1     140.093  71.083 224.065 -0.42 +0.00    -0.009 A  
DOCKED: ATOM      8  C   UNL     1     139.415  69.854 224.134 -0.32 -0.00    +0.009 A  
DOCKED: ATOM      9  C   UNL     1     140.586  71.660 225.245 -0.47 -0.00    +0.022 A  
DOCKED: ATOM     10  C   UNL     1     139.203  69.235 225.367 -0.42 -0.00    +0.001 A  
DOCKED: ATOM     11  C   UNL     1     140.353  71.055 226.494 -0.57 -0.01    +0.056 A  
DOCKED: ATOM     12  C   UNL     1     139.672  69.827 226.541 -0.49 -0.00    +0.013 A  
DOCKED: BRANCH  11  13
DOCKED: ATOM     13  C   UNL     1     140.916  71.664 227.753 -0.41 -0.09    +0.416 C  
DOCKED: ATOM     14  F   UNL     1     139.914  72.257 228.502 -0.28 +0.06    -0.166 F  
DOCKED: ATOM     15  F   UNL     1     141.516  70.674 228.508 -0.16 +0.03    -0.166 F  
DOCKED: ATOM     16  F   UNL     1     141.858  72.632 227.449 -0.34 +0.03    -0.166 F  
DOCKED: ENDBRANCH  11  13
DOCKED: ENDBRANCH   6   7
DOCKED: ENDBRANCH   5   6
DOCKED: ENDBRANCH   4   5
DOCKED: ENDBRANCH   1   4
DOCKED: BRANCH   1  17
DOCKED: ATOM     17  C   UNL     1     139.530  76.290 221.591 -0.29 +0.00    -0.001 C  
DOCKED: BRANCH  17  18
DOCKED: ATOM     18  C   UNL     1     139.557  77.413 222.589 -0.26 -0.01    +0.071 C  
DOCKED: BRANCH  18  19
DOCKED: ATOM     19  C   UNL     1     140.782  78.322 222.406 -0.30 -0.08    +0.234 C  
DOCKED: BRANCH  19  20
DOCKED: ATOM     20  O   UNL     1     141.440  78.053 221.163 -0.09 +0.26    -0.492 OA 
DOCKED: BRANCH  20  21
DOCKED: ATOM     21  C   UNL     1     141.785  79.028 220.212 -0.23 -0.08    +0.137 A  
DOCKED: ATOM     22  C   UNL     1     141.539  80.398 220.427 -0.30 -0.02    +0.049 A  
DOCKED: ATOM     23  C   UNL     1     142.385  78.622 219.009 -0.17 -0.06    +0.084 A  
DOCKED: ATOM     24  C   UNL     1     141.843  81.333 219.435 -0.25 -0.01    +0.024 A  
DOCKED: ATOM     25  C   UNL     1     142.680  79.562 218.016 -0.30 -0.04    +0.045 A  
DOCKED: ATOM     26  C   UNL     1     142.398  80.916 218.223 -0.32 -0.03    +0.042 A  
DOCKED: ATOM     27  Cl  UNL     1     142.719  76.923 218.711 -0.41 +0.05    -0.080 Cl 
DOCKED: ATOM     28  Cl  UNL     1     142.740  82.089 216.965 -0.38 +0.07    -0.084 Cl 
DOCKED: ENDBRANCH  20  21
DOCKED: ENDBRANCH  19  20
DOCKED: ENDBRANCH  18  19
DOCKED: ENDBRANCH  17  18
DOCKED: ENDBRANCH   1  17
DOCKED: TORSDOF 11
DOCKED: TER
DOCKED: ENDMDL
________________________________________________________________________________


    FINAL DOCKED STATE:
    ________________________


Run:   3 / 20
Time taken for this run:   0.083s

DOCKED: MODEL        3
DOCKED: USER    Run = 3
DOCKED: USER
DOCKED: USER    Estimated Free Energy of Binding    =  -6.80 kcal/mol  [=(1)+(2)+(3)-(4)]
DOCKED: USER
DOCKED: USER    (1) Final Intermolecular Energy     = -10.08 kcal/mol
DOCKED: USER        vdW + Hbond + desolv Energy     = -10.08 kcal/mol
DOCKED: USER        Electrostatic Energy            =  +0.00 kcal/mol
DOCKED: USER        Moving Ligand-Fixed Receptor    = -10.08 kcal/mol
DOCKED: USER        Moving Ligand-Moving Receptor   =  +0.00 kcal/mol
DOCKED: USER    (2) Final Total Internal Energy     =  -0.94 kcal/mol
DOCKED: USER    (3) Torsional Free Energy           =  +3.28 kcal/mol
DOCKED: USER    (4) Unbound System's Energy         =  -0.94 kcal/mol
DOCKED: USER
DOCKED: USER
DOCKED: REMARK SMILES O/C(=C\CCOc1ccc(Cl)cc1Cl)[N-]/N=C\c1cccc(C(F)(F)F)c1
DOCKED: REMARK SMILES IDX 2 1 1 2 15 4 16 5 17 6 18 7 19 8 27 9 20 10 22 11 21 12
DOCKED: REMARK SMILES IDX 23 13 24 14 25 15 26 16 3 17 4 18 5 19 6 20 7 21 8 22 13 23
DOCKED: REMARK SMILES IDX 9 24 12 25 10 26 14 27 11 28
DOCKED: REMARK H PARENT 1 3
DOCKED: USER                              x       y       z     vdW  Elec       q    Type
DOCKED: USER                           _______ _______ _______ _____ _____    ______ ____
DOCKED: ROOT
DOCKED: ATOM      1  C   UNL     1     140.506  74.917 221.779 -0.24 -0.00    +0.023 C  
DOCKED: ENDROOT
DOCKED: BRANCH   1   2
DOCKED: ATOM      2  O   UNL     1     139.553  75.524 222.592 -0.38 +0.08    -0.530 OA 
DOCKED: ATOM      3  H   UNL     1     138.980  74.972 223.220 -0.45 -0.11    +0.290 HD 
DOCKED: ENDBRANCH   1   2
DOCKED: BRANCH   1   4
DOCKED: ATOM      4  N   UNL     1     140.809  73.532 221.986 -0.50 +0.02    -0.546 NA 
DOCKED: BRANCH   4   5
DOCKED: ATOM      5  N   UNL     1     139.986  72.688 222.748 -0.45 +0.05    -0.372 NA 
DOCKED: BRANCH   5   6
DOCKED: ATOM      6  C   UNL     1     140.285  71.453 223.014 -0.30 -0.01    +0.094 C  
DOCKED: BRANCH   6   7
DOCKED: ATOM      7  C   UNL     1     140.131  70.838 224.352 -0.43 +0.00    -0.009 A  
DOCKED: ATOM      8  C   UNL     1     139.607  69.543 224.516 -0.34 -0.00    +0.009 A  
DOCKED: ATOM      9  C   UNL     1     140.605  71.531 225.477 -0.55 -0.00    +0.022 A  
DOCKED: ATOM     10  C   UNL     1     139.525  68.972 225.787 -0.48 -0.00    +0.001 A  
DOCKED: ATOM     11  C   UNL     1     140.500  70.973 226.764 -0.59 -0.01    +0.056 A  
DOCKED: ATOM     12  C   UNL     1     139.972  69.678 226.905 -0.55 -0.00    +0.013 A  
DOCKED: BRANCH  11  13
DOCKED: ATOM     13  C   UNL     1     141.043  71.711 227.962 -0.40 -0.09    +0.416 C  
DOCKED: ATOM     14  F   UNL     1     141.817  70.872 228.744 -0.13 +0.03    -0.166 F  
DOCKED: ATOM     15  F   UNL     1     141.821  72.769 227.530 -0.33 +0.03    -0.166 F  
DOCKED: ATOM     16  F   UNL     1     140.011  72.200 228.743 -0.28 +0.06    -0.166 F  
DOCKED: ENDBRANCH  11  13
DOCKED: ENDBRANCH   6   7
DOCKED: ENDBRANCH   5   6
DOCKED: ENDBRANCH   4   5
DOCKED: ENDBRANCH   1   4
DOCKED: BRANCH   1  17
DOCKED: ATOM     17  C   UNL     1     141.100  75.617 220.803 -0.29 +0.00    -0.001 C  
DOCKED: BRANCH  17  18
DOCKED: ATOM     18  C   UNL     1     140.501  75.768 219.432 -0.10 -0.02    +0.071 C  
DOCKED: BRANCH  18  19
DOCKED: ATOM     19  C   UNL     1     140.709  77.179 218.861 -0.06 -0.09    +0.234 C  
DOCKED: BRANCH  19  20
DOCKED: ATOM     20  O   UNL     1     140.081  78.165 219.688 +0.01 +0.17    -0.492 OA 
DOCKED: BRANCH  20  21
DOCKED: ATOM     21  C   UNL     1     140.698  78.812 220.771 -0.18 -0.05    +0.137 A  
DOCKED: ATOM     22  C   UNL     1     140.419  78.461 222.106 -0.32 -0.01    +0.049 A  
DOCKED: ATOM     23  C   UNL     1     141.614  79.845 220.513 -0.28 -0.04    +0.084 A  
DOCKED: ATOM     24  C   UNL     1     141.008  79.166 223.158 -0.50 -0.01    +0.024 A  
DOCKED: ATOM     25  C   UNL     1     142.194  80.553 221.571 -0.42 -0.02    +0.045 A  
DOCKED: ATOM     26  C   UNL     1     141.883  80.222 222.893 -0.55 -0.01    +0.042 A  
DOCKED: ATOM     27  Cl  UNL     1     141.996  80.302 218.860 -0.38 +0.05    -0.080 Cl 
DOCKED: ATOM     28  Cl  UNL     1     142.589  81.130 224.217 -0.64 +0.01    -0.084 Cl 
DOCKED: ENDBRANCH  20  21
DOCKED: ENDBRANCH  19  20
DOCKED: ENDBRANCH  18  19
DOCKED: ENDBRANCH  17  18
DOCKED: ENDBRANCH   1  17
DOCKED: TORSDOF 11
DOCKED: TER
DOCKED: ENDMDL
________________________________________________________________________________


    FINAL DOCKED STATE:
    ________________________


Run:   4 / 20
Time taken for this run:   0.083s

DOCKED: MODEL        4
DOCKED: USER    Run = 4
DOCKED: USER
DOCKED: USER    Estimated Free Energy of Binding    =  -5.75 kcal/mol  [=(1)+(2)+(3)-(4)]
DOCKED: USER
DOCKED: USER    (1) Final Intermolecular Energy     =  -9.03 kcal/mol
DOCKED: USER        vdW + Hbond + desolv Energy     =  -8.99 kcal/mol
DOCKED: USER        Electrostatic Energy            =  -0.04 kcal/mol
DOCKED: USER        Moving Ligand-Fixed Receptor    =  -9.03 kcal/mol
DOCKED: USER        Moving Ligand-Moving Receptor   =  +0.00 kcal/mol
DOCKED: USER    (2) Final Total Internal Energy     =  -1.42 kcal/mol
DOCKED: USER    (3) Torsional Free Energy           =  +3.28 kcal/mol
DOCKED: USER    (4) Unbound System's Energy         =  -1.42 kcal/mol
DOCKED: USER
DOCKED: USER
DOCKED: REMARK SMILES O/C(=C\CCOc1ccc(Cl)cc1Cl)[N-]/N=C\c1cccc(C(F)(F)F)c1
DOCKED: REMARK SMILES IDX 2 1 1 2 15 4 16 5 17 6 18 7 19 8 27 9 20 10 22 11 21 12
DOCKED: REMARK SMILES IDX 23 13 24 14 25 15 26 16 3 17 4 18 5 19 6 20 7 21 8 22 13 23
DOCKED: REMARK SMILES IDX 9 24 12 25 10 26 14 27 11 28
DOCKED: REMARK H PARENT 1 3
DOCKED: USER                              x       y       z     vdW  Elec       q    Type
DOCKED: USER                           _______ _______ _______ _____ _____    ______ ____
DOCKED: ROOT
DOCKED: ATOM      1  C   UNL     1     139.351  74.620 221.706 -0.26 -0.00    +0.023 C  
DOCKED: ENDROOT
DOCKED: BRANCH   1   2
DOCKED: ATOM      2  O   UNL     1     138.137  74.243 222.272 -0.04 +0.19    -0.530 OA 
DOCKED: ATOM      3  H   UNL     1     138.109  73.644 223.089 -0.47 -0.22    +0.290 HD 
DOCKED: ENDBRANCH   1   2
DOCKED: BRANCH   1   4
DOCKED: ATOM      4  N   UNL     1     140.484  73.756 221.861 -0.54 +0.04    -0.546 NA 
DOCKED: BRANCH   4   5
DOCKED: ATOM      5  N   UNL     1     140.635  72.907 222.969 -0.26 -0.02    -0.372 NA 
DOCKED: BRANCH   5   6
DOCKED: ATOM      6  C   UNL     1     140.073  71.739 223.053 -0.31 -0.01    +0.094 C  
DOCKED: BRANCH   6   7
DOCKED: ATOM      7  C   UNL     1     140.009  70.943 224.299 -0.43 +0.00    -0.009 A  
DOCKED: ATOM      8  C   UNL     1     139.587  69.601 224.300 -0.33 -0.00    +0.009 A  
DOCKED: ATOM      9  C   UNL     1     140.468  71.516 225.495 -0.54 -0.00    +0.022 A  
DOCKED: ATOM     10  C   UNL     1     139.590  68.863 225.484 -0.46 -0.00    +0.001 A  
DOCKED: ATOM     11  C   UNL     1     140.447  70.786 226.698 -0.57 -0.01    +0.056 A  
DOCKED: ATOM     12  C   UNL     1     140.020  69.448 226.676 -0.53 -0.00    +0.013 A  
DOCKED: BRANCH  11  13
DOCKED: ATOM     13  C   UNL     1     140.973  71.399 227.971 -0.38 -0.08    +0.416 C  
DOCKED: ATOM     14  F   UNL     1     139.936  71.892 228.743 -0.29 +0.05    -0.166 F  
DOCKED: ATOM     15  F   UNL     1     141.654  70.436 228.692 -0.12 +0.03    -0.166 F  
DOCKED: ATOM     16  F   UNL     1     141.836  72.444 227.690 -0.32 +0.03    -0.166 F  
DOCKED: ENDBRANCH  11  13
DOCKED: ENDBRANCH   6   7
DOCKED: ENDBRANCH   5   6
DOCKED: ENDBRANCH   4   5
DOCKED: ENDBRANCH   1   4
DOCKED: BRANCH   1  17
DOCKED: ATOM     17  C   UNL     1     139.440  75.757 221.003 -0.21 +0.00    -0.001 C  
DOCKED: BRANCH  17  18
DOCKED: ATOM     18  C   UNL     1     140.477  75.974 219.936 -0.13 -0.02    +0.071 C  
DOCKED: BRANCH  18  19
DOCKED: ATOM     19  C   UNL     1     140.431  74.885 218.853 -0.02 -0.06    +0.234 C  
DOCKED: BRANCH  19  20
DOCKED: ATOM     20  O   UNL     1     141.750  74.522 218.432 +0.02 +0.14    -0.492 OA 
DOCKED: BRANCH  20  21
DOCKED: ATOM     21  C   UNL     1     142.831  74.290 219.299 -0.17 -0.04    +0.137 A  
DOCKED: ATOM     22  C   UNL     1     143.730  75.312 219.659 -0.38 -0.03    +0.049 A  
DOCKED: ATOM     23  C   UNL     1     143.024  72.998 219.813 -0.19 -0.01    +0.084 A  
DOCKED: ATOM     24  C   UNL     1     144.827  75.031 220.477 -0.24 -0.01    +0.024 A  
DOCKED: ATOM     25  C   UNL     1     144.129  72.719 220.626 -0.36 -0.01    +0.045 A  
DOCKED: ATOM     26  C   UNL     1     145.037  73.732 220.948 -0.52 -0.01    +0.042 A  
DOCKED: ATOM     27  Cl  UNL     1     141.915  71.700 219.397 -0.13 +0.01    -0.080 Cl 
DOCKED: ATOM     28  Cl  UNL     1     146.438  73.376 221.942 -0.79 +0.02    -0.084 Cl 
DOCKED: ENDBRANCH  20  21
DOCKED: ENDBRANCH  19  20
DOCKED: ENDBRANCH  18  19
DOCKED: ENDBRANCH  17  18
DOCKED: ENDBRANCH   1  17
DOCKED: TORSDOF 11
DOCKED: TER
DOCKED: ENDMDL
________________________________________________________________________________


    FINAL DOCKED STATE:
    ________________________


Run:   5 / 20
Time taken for this run:   0.083s

DOCKED: MODEL        5
DOCKED: USER    Run = 5
DOCKED: USER
DOCKED: USER    Estimated Free Energy of Binding    =  -5.82 kcal/mol  [=(1)+(2)+(3)-(4)]
DOCKED: USER
DOCKED: USER    (1) Final Intermolecular Energy     =  -9.11 kcal/mol
DOCKED: USER        vdW + Hbond + desolv Energy     =  -9.26 kcal/mol
DOCKED: USER        Electrostatic Energy            =  +0.16 kcal/mol
DOCKED: USER        Moving Ligand-Fixed Receptor    =  -9.11 kcal/mol
DOCKED: USER        Moving Ligand-Moving Receptor   =  +0.00 kcal/mol
DOCKED: USER    (2) Final Total Internal Energy     =  -1.43 kcal/mol
DOCKED: USER    (3) Torsional Free Energy           =  +3.28 kcal/mol
DOCKED: USER    (4) Unbound System's Energy         =  -1.43 kcal/mol
DOCKED: USER
DOCKED: USER
DOCKED: REMARK SMILES O/C(=C\CCOc1ccc(Cl)cc1Cl)[N-]/N=C\c1cccc(C(F)(F)F)c1
DOCKED: REMARK SMILES IDX 2 1 1 2 15 4 16 5 17 6 18 7 19 8 27 9 20 10 22 11 21 12
DOCKED: REMARK SMILES IDX 23 13 24 14 25 15 26 16 3 17 4 18 5 19 6 20 7 21 8 22 13 23
DOCKED: REMARK SMILES IDX 9 24 12 25 10 26 14 27 11 28
DOCKED: REMARK H PARENT 1 3
DOCKED: USER                              x       y       z     vdW  Elec       q    Type
DOCKED: USER                           _______ _______ _______ _____ _____    ______ ____
DOCKED: ROOT
DOCKED: ATOM      1  C   UNL     1     140.074  75.067 221.876 -0.27 -0.00    +0.023 C  
DOCKED: ENDROOT
DOCKED: BRANCH   1   2
DOCKED: ATOM      2  O   UNL     1     141.463  75.132 221.906 -0.26 +0.11    -0.530 OA 
DOCKED: ATOM      3  H   UNL     1     141.940  76.025 221.970 -0.46 -0.19    +0.290 HD 
DOCKED: ENDBRANCH   1   2
DOCKED: BRANCH   1   4
DOCKED: ATOM      4  N   UNL     1     139.428  73.876 222.343 -0.53 +0.10    -0.546 NA 
DOCKED: BRANCH   4   5
DOCKED: ATOM      5  N   UNL     1     139.906  72.592 222.038 -0.21 +0.06    -0.372 NA 
DOCKED: BRANCH   5   6
DOCKED: ATOM      6  C   UNL     1     140.705  71.927 222.816 -0.27 -0.01    +0.094 C  
DOCKED: BRANCH   6   7
DOCKED: ATOM      7  C   UNL     1     140.270  71.251 224.059 -0.43 +0.00    -0.009 A  
DOCKED: ATOM      8  C   UNL     1     139.490  70.081 224.032 -0.33 -0.00    +0.009 A  
DOCKED: ATOM      9  C   UNL     1     140.725  71.741 225.293 -0.46 -0.00    +0.022 A  
DOCKED: ATOM     10  C   UNL     1     139.143  69.438 225.221 -0.41 -0.00    +0.001 A  
DOCKED: ATOM     11  C   UNL     1     140.356  71.114 226.498 -0.57 -0.01    +0.056 A  
DOCKED: ATOM     12  C   UNL     1     139.575  69.947 226.447 -0.46 -0.00    +0.013 A  
DOCKED: BRANCH  11  13
DOCKED: ATOM     13  C   UNL     1     140.877  71.628 227.815 -0.41 -0.09    +0.416 C  
DOCKED: ATOM     14  F   UNL     1     139.849  72.153 228.578 -0.27 +0.05    -0.166 F  
DOCKED: ATOM     15  F   UNL     1     141.465  70.586 228.509 -0.17 +0.03    -0.166 F  
DOCKED: ATOM     16  F   UNL     1     141.818  72.623 227.614 -0.34 +0.03    -0.166 F  
DOCKED: ENDBRANCH  11  13
DOCKED: ENDBRANCH   6   7
DOCKED: ENDBRANCH   5   6
DOCKED: ENDBRANCH   4   5
DOCKED: ENDBRANCH   1   4
DOCKED: BRANCH   1  17
DOCKED: ATOM     17  C   UNL     1     139.361  76.117 221.446 -0.26 +0.00    -0.001 C  
DOCKED: BRANCH  17  18
DOCKED: ATOM     18  C   UNL     1     139.076  77.314 222.310 -0.29 -0.01    +0.071 C  
DOCKED: BRANCH  18  19
DOCKED: ATOM     19  C   UNL     1     140.358  78.063 222.703 -0.28 -0.06    +0.234 C  
DOCKED: BRANCH  19  20
DOCKED: ATOM     20  O   UNL     1     141.387  77.869 221.727 -0.12 +0.25    -0.492 OA 
DOCKED: BRANCH  20  21
DOCKED: ATOM     21  C   UNL     1     141.703  78.780 220.705 -0.25 -0.08    +0.137 A  
DOCKED: ATOM     22  C   UNL     1     141.542  80.169 220.870 -0.32 -0.02    +0.049 A  
DOCKED: ATOM     23  C   UNL     1     142.186  78.288 219.482 -0.22 -0.06    +0.084 A  
DOCKED: ATOM     24  C   UNL     1     141.812  81.041 219.812 -0.28 -0.01    +0.024 A  
DOCKED: ATOM     25  C   UNL     1     142.446  79.165 218.422 -0.30 -0.04    +0.045 A  
DOCKED: ATOM     26  C   UNL     1     142.248  80.539 218.583 -0.32 -0.03    +0.042 A  
DOCKED: ATOM     27  Cl  UNL     1     142.411  76.562 219.244 -0.39 +0.04    -0.080 Cl 
DOCKED: ATOM     28  Cl  UNL     1     142.547  81.634 217.245 -0.38 +0.07    -0.084 Cl 
DOCKED: ENDBRANCH  20  21
DOCKED: ENDBRANCH  19  20
DOCKED: ENDBRANCH  18  19
DOCKED: ENDBRANCH  17  18
DOCKED: ENDBRANCH   1  17
DOCKED: TORSDOF 11
DOCKED: TER
DOCKED: ENDMDL
________________________________________________________________________________


    FINAL DOCKED STATE:
    ________________________


Run:   6 / 20
Time taken for this run:   0.083s

DOCKED: MODEL        6
DOCKED: USER    Run = 6
DOCKED: USER
DOCKED: USER    Estimated Free Energy of Binding    =  -5.89 kcal/mol  [=(1)+(2)+(3)-(4)]
DOCKED: USER
DOCKED: USER    (1) Final Intermolecular Energy     =  -9.17 kcal/mol
DOCKED: USER        vdW + Hbond + desolv Energy     =  -9.21 kcal/mol
DOCKED: USER        Electrostatic Energy            =  +0.04 kcal/mol
DOCKED: USER        Moving Ligand-Fixed Receptor    =  -9.17 kcal/mol
DOCKED: USER        Moving Ligand-Moving Receptor   =  +0.00 kcal/mol
DOCKED: USER    (2) Final Total Internal Energy     =  -0.88 kcal/mol
DOCKED: USER    (3) Torsional Free Energy           =  +3.28 kcal/mol
DOCKED: USER    (4) Unbound System's Energy         =  -0.88 kcal/mol
DOCKED: USER
DOCKED: USER
DOCKED: REMARK SMILES O/C(=C\CCOc1ccc(Cl)cc1Cl)[N-]/N=C\c1cccc(C(F)(F)F)c1
DOCKED: REMARK SMILES IDX 2 1 1 2 15 4 16 5 17 6 18 7 19 8 27 9 20 10 22 11 21 12
DOCKED: REMARK SMILES IDX 23 13 24 14 25 15 26 16 3 17 4 18 5 19 6 20 7 21 8 22 13 23
DOCKED: REMARK SMILES IDX 9 24 12 25 10 26 14 27 11 28
DOCKED: REMARK H PARENT 1 3
DOCKED: USER                              x       y       z     vdW  Elec       q    Type
DOCKED: USER                           _______ _______ _______ _____ _____    ______ ____
DOCKED: ROOT
DOCKED: ATOM      1  C   UNL     1     137.558  71.007 223.416 -0.21 -0.00    +0.023 C  
DOCKED: ENDROOT
DOCKED: BRANCH   1   2
DOCKED: ATOM      2  O   UNL     1     136.798  72.167 223.533 -0.05 +0.17    -0.530 OA 
DOCKED: ATOM      3  H   UNL     1     137.128  72.951 224.084 -0.47 -0.21    +0.290 HD 
DOCKED: ENDBRANCH   1   2
DOCKED: BRANCH   1   4
DOCKED: ATOM      4  N   UNL     1     137.532  70.053 224.486 -0.01 +0.07    -0.546 NA 
DOCKED: BRANCH   4   5
DOCKED: ATOM      5  N   UNL     1     137.993  68.737 224.330 -0.15 +0.02    -0.372 NA 
DOCKED: BRANCH   5   6
DOCKED: ATOM      6  C   UNL     1     139.194  68.361 224.651 -0.32 -0.01    +0.094 C  
DOCKED: BRANCH   6   7
DOCKED: ATOM      7  C   UNL     1     139.821  68.637 225.963 -0.53 +0.00    -0.009 A  
DOCKED: ATOM      8  C   UNL     1     140.346  67.606 226.764 -0.66 -0.00    +0.009 A  
DOCKED: ATOM      9  C   UNL     1     139.975  69.969 226.376 -0.50 -0.00    +0.022 A  
DOCKED: ATOM     10  C   UNL     1     140.978  67.906 227.971 -0.57 -0.00    +0.001 A  
DOCKED: ATOM     11  C   UNL     1     140.587  70.277 227.605 -0.58 -0.01    +0.056 A  
DOCKED: ATOM     12  C   UNL     1     141.103  69.231 228.390 -0.57 -0.00    +0.013 A  
DOCKED: BRANCH  11  13
DOCKED: ATOM     13  C   UNL     1     140.780  71.712 228.023 -0.39 -0.10    +0.416 C  
DOCKED: ATOM     14  F   UNL     1     141.862  71.833 228.877 -0.21 +0.04    -0.166 F  
DOCKED: ATOM     15  F   UNL     1     141.004  72.487 226.901 -0.29 +0.03    -0.166 F  
DOCKED: ATOM     16  F   UNL     1     139.656  72.185 228.680 -0.26 +0.05    -0.166 F  
DOCKED: ENDBRANCH  11  13
DOCKED: ENDBRANCH   6   7
DOCKED: ENDBRANCH   5   6
DOCKED: ENDBRANCH   4   5
DOCKED: ENDBRANCH   1   4
DOCKED: BRANCH   1  17
DOCKED: ATOM     17  C   UNL     1     138.273  70.781 222.306 -0.17 +0.00    -0.001 C  
DOCKED: BRANCH  17  18
DOCKED: ATOM     18  C   UNL     1     139.695  71.242 222.147 -0.21 -0.01    +0.071 C  
DOCKED: BRANCH  18  19
DOCKED: ATOM     19  C   UNL     1     139.918  72.645 222.732 -0.16 -0.04    +0.234 C  
DOCKED: BRANCH  19  20
DOCKED: ATOM     20  O   UNL     1     139.692  73.656 221.744 -0.34 +0.08    -0.492 OA 
DOCKED: BRANCH  20  21
DOCKED: ATOM     21  C   UNL     1     139.781  75.038 221.979 -0.25 -0.02    +0.137 A  
DOCKED: ATOM     22  C   UNL     1     141.014  75.717 221.974 -0.33 -0.01    +0.049 A  
DOCKED: ATOM     23  C   UNL     1     138.603  75.761 222.233 -0.26 -0.02    +0.084 A  
DOCKED: ATOM     24  C   UNL     1     141.069  77.082 222.270 -0.39 -0.01    +0.024 A  
DOCKED: ATOM     25  C   UNL     1     138.665  77.125 222.536 -0.28 -0.01    +0.045 A  
DOCKED: ATOM     26  C   UNL     1     139.899  77.784 222.566 -0.33 -0.01    +0.042 A  
DOCKED: ATOM     27  Cl  UNL     1     137.045  74.950 222.234 -0.22 +0.02    -0.080 Cl 
DOCKED: ATOM     28  Cl  UNL     1     139.978  79.488 222.975 -0.49 +0.02    -0.084 Cl 
DOCKED: ENDBRANCH  20  21
DOCKED: ENDBRANCH  19  20
DOCKED: ENDBRANCH  18  19
DOCKED: ENDBRANCH  17  18
DOCKED: ENDBRANCH   1  17
DOCKED: TORSDOF 11
DOCKED: TER
DOCKED: ENDMDL
________________________________________________________________________________


    FINAL DOCKED STATE:
    ________________________


Run:   7 / 20
Time taken for this run:   0.083s

DOCKED: MODEL        7
DOCKED: USER    Run = 7
DOCKED: USER
DOCKED: USER    Estimated Free Energy of Binding    =  -6.45 kcal/mol  [=(1)+(2)+(3)-(4)]
DOCKED: USER
DOCKED: USER    (1) Final Intermolecular Energy     =  -9.73 kcal/mol
DOCKED: USER        vdW + Hbond + desolv Energy     =  -9.78 kcal/mol
DOCKED: USER        Electrostatic Energy            =  +0.05 kcal/mol
DOCKED: USER        Moving Ligand-Fixed Receptor    =  -9.73 kcal/mol
DOCKED: USER        Moving Ligand-Moving Receptor   =  +0.00 kcal/mol
DOCKED: USER    (2) Final Total Internal Energy     =  -1.33 kcal/mol
DOCKED: USER    (3) Torsional Free Energy           =  +3.28 kcal/mol
DOCKED: USER    (4) Unbound System's Energy         =  -1.33 kcal/mol
DOCKED: USER
DOCKED: USER
DOCKED: REMARK SMILES O/C(=C\CCOc1ccc(Cl)cc1Cl)[N-]/N=C\c1cccc(C(F)(F)F)c1
DOCKED: REMARK SMILES IDX 2 1 1 2 15 4 16 5 17 6 18 7 19 8 27 9 20 10 22 11 21 12
DOCKED: REMARK SMILES IDX 23 13 24 14 25 15 26 16 3 17 4 18 5 19 6 20 7 21 8 22 13 23
DOCKED: REMARK SMILES IDX 9 24 12 25 10 26 14 27 11 28
DOCKED: REMARK H PARENT 1 3
DOCKED: USER                              x       y       z     vdW  Elec       q    Type
DOCKED: USER                           _______ _______ _______ _____ _____    ______ ____
DOCKED: ROOT
DOCKED: ATOM      1  C   UNL     1     140.550  74.936 221.670 -0.29 -0.00    +0.023 C  
DOCKED: ENDROOT
DOCKED: BRANCH   1   2
DOCKED: ATOM      2  O   UNL     1     141.069  75.948 222.472 -0.16 +0.13    -0.530 OA 
DOCKED: ATOM      3  H   UNL     1     141.900  76.457 222.192 -0.43 -0.21    +0.290 HD 
DOCKED: ENDBRANCH   1   2
DOCKED: BRANCH   1   4
DOCKED: ATOM      4  N   UNL     1     139.959  73.792 222.298 -0.66 +0.04    -0.546 NA 
DOCKED: BRANCH   4   5
DOCKED: ATOM      5  N   UNL     1     140.720  72.693 222.725 -0.42 +0.00    -0.372 NA 
DOCKED: BRANCH   5   6
DOCKED: ATOM      6  C   UNL     1     140.220  71.508 222.905 -0.30 -0.01    +0.094 C  
DOCKED: BRANCH   6   7
DOCKED: ATOM      7  C   UNL     1     140.041  70.882 224.235 -0.42 +0.00    -0.009 A  
DOCKED: ATOM      8  C   UNL     1     139.489  69.596 224.380 -0.34 -0.00    +0.009 A  
DOCKED: ATOM      9  C   UNL     1     140.517  71.554 225.371 -0.52 -0.00    +0.022 A  
DOCKED: ATOM     10  C   UNL     1     139.383  69.014 225.644 -0.46 -0.00    +0.001 A  
DOCKED: ATOM     11  C   UNL     1     140.388  70.984 226.652 -0.58 -0.01    +0.056 A  
DOCKED: ATOM     12  C   UNL     1     139.832  69.699 226.774 -0.52 -0.00    +0.013 A  
DOCKED: BRANCH  11  13
DOCKED: ATOM     13  C   UNL     1     140.933  71.699 227.862 -0.41 -0.09    +0.416 C  
DOCKED: ATOM     14  F   UNL     1     141.788  72.719 227.484 -0.33 +0.03    -0.166 F  
DOCKED: ATOM     15  F   UNL     1     139.885  72.235 228.586 -0.28 +0.06    -0.166 F  
DOCKED: ATOM     16  F   UNL     1     141.637  70.823 228.671 -0.15 +0.03    -0.166 F  
DOCKED: ENDBRANCH  11  13
DOCKED: ENDBRANCH   6   7
DOCKED: ENDBRANCH   5   6
DOCKED: ENDBRANCH   4   5
DOCKED: ENDBRANCH   1   4
DOCKED: BRANCH   1  17
DOCKED: ATOM     17  C   UNL     1     140.577  75.056 220.336 -0.19 +0.00    -0.001 C  
DOCKED: BRANCH  17  18
DOCKED: ATOM     18  C   UNL     1     140.558  76.387 219.638 -0.12 -0.02    +0.071 C  
DOCKED: BRANCH  18  19
DOCKED: ATOM     19  C   UNL     1     141.957  77.015 219.548 -0.19 -0.13    +0.234 C  
DOCKED: BRANCH  19  20
DOCKED: ATOM     20  O   UNL     1     142.206  77.877 220.664 -0.11 +0.37    -0.492 OA 
DOCKED: BRANCH  20  21
DOCKED: ATOM     21  C   UNL     1     141.804  79.221 220.742 -0.26 -0.08    +0.137 A  
DOCKED: ATOM     22  C   UNL     1     141.636  80.016 219.593 -0.27 -0.02    +0.049 A  
DOCKED: ATOM     23  C   UNL     1     141.572  79.788 222.006 -0.40 -0.03    +0.084 A  
DOCKED: ATOM     24  C   UNL     1     141.291  81.365 219.713 -0.26 -0.01    +0.024 A  
DOCKED: ATOM     25  C   UNL     1     141.235  81.141 222.121 -0.40 -0.01    +0.045 A  
DOCKED: ATOM     26  C   UNL     1     141.106  81.933 220.976 -0.31 -0.01    +0.042 A  
DOCKED: ATOM     27  Cl  UNL     1     141.760  78.823 223.462 -0.73 +0.03    -0.080 Cl 
DOCKED: ATOM     28  Cl  UNL     1     140.713  83.636 221.123 -0.28 +0.01    -0.084 Cl 
DOCKED: ENDBRANCH  20  21
DOCKED: ENDBRANCH  19  20
DOCKED: ENDBRANCH  18  19
DOCKED: ENDBRANCH  17  18
DOCKED: ENDBRANCH   1  17
DOCKED: TORSDOF 11
DOCKED: TER
DOCKED: ENDMDL
________________________________________________________________________________


    FINAL DOCKED STATE:
    ________________________


Run:   8 / 20
Time taken for this run:   0.083s

DOCKED: MODEL        8
DOCKED: USER    Run = 8
DOCKED: USER
DOCKED: USER    Estimated Free Energy of Binding    =  -6.74 kcal/mol  [=(1)+(2)+(3)-(4)]
DOCKED: USER
DOCKED: USER    (1) Final Intermolecular Energy     = -10.02 kcal/mol
DOCKED: USER        vdW + Hbond + desolv Energy     = -10.08 kcal/mol
DOCKED: USER        Electrostatic Energy            =  +0.06 kcal/mol
DOCKED: USER        Moving Ligand-Fixed Receptor    = -10.02 kcal/mol
DOCKED: USER        Moving Ligand-Moving Receptor   =  +0.00 kcal/mol
DOCKED: USER    (2) Final Total Internal Energy     =  -1.30 kcal/mol
DOCKED: USER    (3) Torsional Free Energy           =  +3.28 kcal/mol
DOCKED: USER    (4) Unbound System's Energy         =  -1.30 kcal/mol
DOCKED: USER
DOCKED: USER
DOCKED: REMARK SMILES O/C(=C\CCOc1ccc(Cl)cc1Cl)[N-]/N=C\c1cccc(C(F)(F)F)c1
DOCKED: REMARK SMILES IDX 2 1 1 2 15 4 16 5 17 6 18 7 19 8 27 9 20 10 22 11 21 12
DOCKED: REMARK SMILES IDX 23 13 24 14 25 15 26 16 3 17 4 18 5 19 6 20 7 21 8 22 13 23
DOCKED: REMARK SMILES IDX 9 24 12 25 10 26 14 27 11 28
DOCKED: REMARK H PARENT 1 3
DOCKED: USER                              x       y       z     vdW  Elec       q    Type
DOCKED: USER                           _______ _______ _______ _____ _____    ______ ____
DOCKED: ROOT
DOCKED: ATOM      1  C   UNL     1     140.730  74.964 221.374 -0.31 -0.00    +0.023 C  
DOCKED: ENDROOT
DOCKED: BRANCH   1   2
DOCKED: ATOM      2  O   UNL     1     141.082  75.805 222.425 -0.16 +0.12    -0.530 OA 
DOCKED: ATOM      3  H   UNL     1     141.887  76.416 222.353 -0.43 -0.21    +0.290 HD 
DOCKED: ENDBRANCH   1   2
DOCKED: BRANCH   1   4
DOCKED: ATOM      4  N   UNL     1     140.130  73.697 221.674 -0.35 +0.07    -0.546 NA 
DOCKED: BRANCH   4   5
DOCKED: ATOM      5  N   UNL     1     140.401  73.000 222.862 -0.43 -0.00    -0.372 NA 
DOCKED: BRANCH   5   6
DOCKED: ATOM      6  C   UNL     1     140.293  71.711 222.972 -0.31 -0.01    +0.094 C  
DOCKED: BRANCH   6   7
DOCKED: ATOM      7  C   UNL     1     140.113  71.005 224.261 -0.44 +0.00    -0.009 A  
DOCKED: ATOM      8  C   UNL     1     139.577  69.706 224.325 -0.34 -0.00    +0.009 A  
DOCKED: ATOM      9  C   UNL     1     140.574  71.614 225.438 -0.51 -0.00    +0.022 A  
DOCKED: ATOM     10  C   UNL     1     139.471  69.049 225.551 -0.45 -0.00    +0.001 A  
DOCKED: ATOM     11  C   UNL     1     140.444  70.968 226.682 -0.58 -0.01    +0.056 A  
DOCKED: ATOM     12  C   UNL     1     139.904  69.671 226.723 -0.53 -0.00    +0.013 A  
DOCKED: BRANCH  11  13
DOCKED: ATOM     13  C   UNL     1     140.973  71.616 227.936 -0.40 -0.09    +0.416 C  
DOCKED: ATOM     14  F   UNL     1     141.675  70.701 228.701 -0.13 +0.03    -0.166 F  
DOCKED: ATOM     15  F   UNL     1     141.816  72.655 227.591 -0.35 +0.03    -0.166 F  
DOCKED: ATOM     16  F   UNL     1     139.935  72.114 228.704 -0.29 +0.05    -0.166 F  
DOCKED: ENDBRANCH  11  13
DOCKED: ENDBRANCH   6   7
DOCKED: ENDBRANCH   5   6
DOCKED: ENDBRANCH   4   5
DOCKED: ENDBRANCH   1   4
DOCKED: BRANCH   1  17
DOCKED: ATOM     17  C   UNL     1     140.921  75.355 220.107 -0.19 +0.00    -0.001 C  
DOCKED: BRANCH  17  18
DOCKED: ATOM     18  C   UNL     1     142.040  76.273 219.701 -0.26 -0.04    +0.071 C  
DOCKED: BRANCH  18  19
DOCKED: ATOM     19  C   UNL     1     141.673  77.753 219.891 -0.19 -0.13    +0.234 C  
DOCKED: BRANCH  19  20
DOCKED: ATOM     20  O   UNL     1     141.886  78.165 221.246 -0.11 +0.32    -0.492 OA 
DOCKED: BRANCH  20  21
DOCKED: ATOM     21  C   UNL     1     140.909  78.753 222.066 -0.30 -0.05    +0.137 A  
DOCKED: ATOM     22  C   UNL     1     139.555  78.373 222.002 -0.25 -0.01    +0.049 A  
DOCKED: ATOM     23  C   UNL     1     141.295  79.757 222.969 -0.45 -0.02    +0.084 A  
DOCKED: ATOM     24  C   UNL     1     138.602  79.021 222.792 -0.28 -0.00    +0.024 A  
DOCKED: ATOM     25  C   UNL     1     140.335  80.409 223.752 -0.40 -0.01    +0.045 A  
DOCKED: ATOM     26  C   UNL     1     138.987  80.049 223.655 -0.38 -0.01    +0.042 A  
DOCKED: ATOM     27  Cl  UNL     1     142.977  80.250 223.086 -0.78 +0.02    -0.080 Cl 
DOCKED: ATOM     28  Cl  UNL     1     137.782  80.887 224.615 -0.47 +0.01    -0.084 Cl 
DOCKED: ENDBRANCH  20  21
DOCKED: ENDBRANCH  19  20
DOCKED: ENDBRANCH  18  19
DOCKED: ENDBRANCH  17  18
DOCKED: ENDBRANCH   1  17
DOCKED: TORSDOF 11
DOCKED: TER
DOCKED: ENDMDL
________________________________________________________________________________


    FINAL DOCKED STATE:
    ________________________


Run:   9 / 20
Time taken for this run:   0.083s

DOCKED: MODEL        9
DOCKED: USER    Run = 9
DOCKED: USER
DOCKED: USER    Estimated Free Energy of Binding    =  -6.92 kcal/mol  [=(1)+(2)+(3)-(4)]
DOCKED: USER
DOCKED: USER    (1) Final Intermolecular Energy     = -10.20 kcal/mol
DOCKED: USER        vdW + Hbond + desolv Energy     = -10.29 kcal/mol
DOCKED: USER        Electrostatic Energy            =  +0.09 kcal/mol
DOCKED: USER        Moving Ligand-Fixed Receptor    = -10.20 kcal/mol
DOCKED: USER        Moving Ligand-Moving Receptor   =  +0.00 kcal/mol
DOCKED: USER    (2) Final Total Internal Energy     =  -0.88 kcal/mol
DOCKED: USER    (3) Torsional Free Energy           =  +3.28 kcal/mol
DOCKED: USER    (4) Unbound System's Energy         =  -0.88 kcal/mol
DOCKED: USER
DOCKED: USER
DOCKED: REMARK SMILES O/C(=C\CCOc1ccc(Cl)cc1Cl)[N-]/N=C\c1cccc(C(F)(F)F)c1
DOCKED: REMARK SMILES IDX 2 1 1 2 15 4 16 5 17 6 18 7 19 8 27 9 20 10 22 11 21 12
DOCKED: REMARK SMILES IDX 23 13 24 14 25 15 26 16 3 17 4 18 5 19 6 20 7 21 8 22 13 23
DOCKED: REMARK SMILES IDX 9 24 12 25 10 26 14 27 11 28
DOCKED: REMARK H PARENT 1 3
DOCKED: USER                              x       y       z     vdW  Elec       q    Type
DOCKED: USER                           _______ _______ _______ _____ _____    ______ ____
DOCKED: ROOT
DOCKED: ATOM      1  C   UNL     1     140.592  74.698 221.679 -0.27 -0.00    +0.023 C  
DOCKED: ENDROOT
DOCKED: BRANCH   1   2
DOCKED: ATOM      2  O   UNL     1     139.398  75.312 222.044 -0.32 +0.10    -0.530 OA 
DOCKED: ATOM      3  H   UNL     1     138.786  74.889 222.732 -0.40 -0.10    +0.290 HD 
DOCKED: ENDBRANCH   1   2
DOCKED: BRANCH   1   4
DOCKED: ATOM      4  N   UNL     1     140.877  73.387 222.183 -0.42 -0.01    -0.546 NA 
DOCKED: BRANCH   4   5
DOCKED: ATOM      5  N   UNL     1     139.937  72.641 222.912 -0.42 +0.06    -0.372 NA 
DOCKED: BRANCH   5   6
DOCKED: ATOM      6  C   UNL     1     140.039  71.361 223.104 -0.30 -0.02    +0.094 C  
DOCKED: BRANCH   6   7
DOCKED: ATOM      7  C   UNL     1     140.050  70.727 224.442 -0.43 +0.00    -0.009 A  
DOCKED: ATOM      8  C   UNL     1     139.723  69.371 224.621 -0.33 -0.00    +0.009 A  
DOCKED: ATOM      9  C   UNL     1     140.485  71.477 225.545 -0.55 -0.00    +0.022 A  
DOCKED: ATOM     10  C   UNL     1     139.795  68.791 225.888 -0.51 -0.00    +0.001 A  
DOCKED: ATOM     11  C   UNL     1     140.533  70.906 226.831 -0.59 -0.01    +0.056 A  
DOCKED: ATOM     12  C   UNL     1     140.202  69.550 226.987 -0.56 -0.00    +0.013 A  
DOCKED: BRANCH  11  13
DOCKED: ATOM     13  C   UNL     1     141.035  71.710 228.003 -0.39 -0.09    +0.416 C  
DOCKED: ATOM     14  F   UNL     1     139.977  72.195 228.753 -0.28 +0.06    -0.166 F  
DOCKED: ATOM     15  F   UNL     1     141.822  70.904 228.804 -0.12 +0.03    -0.166 F  
DOCKED: ATOM     16  F   UNL     1     141.788  72.788 227.571 -0.32 +0.04    -0.166 F  
DOCKED: ENDBRANCH  11  13
DOCKED: ENDBRANCH   6   7
DOCKED: ENDBRANCH   5   6
DOCKED: ENDBRANCH   4   5
DOCKED: ENDBRANCH   1   4
DOCKED: BRANCH   1  17
DOCKED: ATOM     17  C   UNL     1     141.439  75.316 220.845 -0.31 +0.00    -0.001 C  
DOCKED: BRANCH  17  18
DOCKED: ATOM     18  C   UNL     1     141.095  76.600 220.142 -0.20 -0.03    +0.071 C  
DOCKED: BRANCH  18  19
DOCKED: ATOM     19  C   UNL     1     141.813  77.809 220.760 -0.19 -0.15    +0.234 C  
DOCKED: BRANCH  19  20
DOCKED: ATOM     20  O   UNL     1     141.546  77.904 222.164 -0.11 +0.26    -0.492 OA 
DOCKED: BRANCH  20  21
DOCKED: ATOM     21  C   UNL     1     140.568  78.732 222.739 -0.35 -0.04    +0.137 A  
DOCKED: ATOM     22  C   UNL     1     139.206  78.375 222.758 -0.30 -0.01    +0.049 A  
DOCKED: ATOM     23  C   UNL     1     140.962  79.957 223.303 -0.45 -0.02    +0.084 A  
DOCKED: ATOM     24  C   UNL     1     138.255  79.252 223.286 -0.26 -0.00    +0.024 A  
DOCKED: ATOM     25  C   UNL     1     140.004  80.834 223.824 -0.34 -0.01    +0.045 A  
DOCKED: ATOM     26  C   UNL     1     138.650  80.487 223.805 -0.38 -0.00    +0.042 A  
DOCKED: ATOM     27  Cl  UNL     1     142.654  80.430 223.310 -0.81 +0.02    -0.080 Cl 
DOCKED: ATOM     28  Cl  UNL     1     137.447  81.600 224.431 -0.37 +0.01    -0.084 Cl 
DOCKED: ENDBRANCH  20  21
DOCKED: ENDBRANCH  19  20
DOCKED: ENDBRANCH  18  19
DOCKED: ENDBRANCH  17  18
DOCKED: ENDBRANCH   1  17
DOCKED: TORSDOF 11
DOCKED: TER
DOCKED: ENDMDL
________________________________________________________________________________


    FINAL DOCKED STATE:
    ________________________


Run:   10 / 20
Time taken for this run:   0.083s

DOCKED: MODEL        10
DOCKED: USER    Run = 10
DOCKED: USER
DOCKED: USER    Estimated Free Energy of Binding    =  -6.20 kcal/mol  [=(1)+(2)+(3)-(4)]
DOCKED: USER
DOCKED: USER    (1) Final Intermolecular Energy     =  -9.48 kcal/mol
DOCKED: USER        vdW + Hbond + desolv Energy     =  -9.60 kcal/mol
DOCKED: USER        Electrostatic Energy            =  +0.12 kcal/mol
DOCKED: USER        Moving Ligand-Fixed Receptor    =  -9.48 kcal/mol
DOCKED: USER        Moving Ligand-Moving Receptor   =  +0.00 kcal/mol
DOCKED: USER    (2) Final Total Internal Energy     =  -0.84 kcal/mol
DOCKED: USER    (3) Torsional Free Energy           =  +3.28 kcal/mol
DOCKED: USER    (4) Unbound System's Energy         =  -0.84 kcal/mol
DOCKED: USER
DOCKED: USER
DOCKED: REMARK SMILES O/C(=C\CCOc1ccc(Cl)cc1Cl)[N-]/N=C\c1cccc(C(F)(F)F)c1
DOCKED: REMARK SMILES IDX 2 1 1 2 15 4 16 5 17 6 18 7 19 8 27 9 20 10 22 11 21 12
DOCKED: REMARK SMILES IDX 23 13 24 14 25 15 26 16 3 17 4 18 5 19 6 20 7 21 8 22 13 23
DOCKED: REMARK SMILES IDX 9 24 12 25 10 26 14 27 11 28
DOCKED: REMARK H PARENT 1 3
DOCKED: USER                              x       y       z     vdW  Elec       q    Type
DOCKED: USER                           _______ _______ _______ _____ _____    ______ ____
DOCKED: ROOT
DOCKED: ATOM      1  C   UNL     1     140.170  75.096 221.472 -0.30 -0.00    +0.023 C  
DOCKED: ENDROOT
DOCKED: BRANCH   1   2
DOCKED: ATOM      2  O   UNL     1     141.492  75.530 221.445 -0.15 +0.19    -0.530 OA 
DOCKED: ATOM      3  H   UNL     1     142.141  75.262 222.176 -0.35 -0.11    +0.290 HD 
DOCKED: ENDBRANCH   1   2
DOCKED: BRANCH   1   4
DOCKED: ATOM      4  N   UNL     1     139.816  74.011 222.340 -0.64 +0.04    -0.546 NA 
DOCKED: BRANCH   4   5
DOCKED: ATOM      5  N   UNL     1     140.731  73.010 222.702 -0.42 -0.02    -0.372 NA 
DOCKED: BRANCH   5   6
DOCKED: ATOM      6  C   UNL     1     140.407  71.757 222.816 -0.29 -0.01    +0.094 C  
DOCKED: BRANCH   6   7
DOCKED: ATOM      7  C   UNL     1     140.121  71.094 224.108 -0.43 +0.00    -0.009 A  
DOCKED: ATOM      8  C   UNL     1     139.455  69.857 224.174 -0.33 -0.00    +0.009 A  
DOCKED: ATOM      9  C   UNL     1     140.608  71.673 225.290 -0.48 -0.00    +0.022 A  
DOCKED: ATOM     10  C   UNL     1     139.250  69.233 225.406 -0.43 -0.00    +0.001 A  
DOCKED: ATOM     11  C   UNL     1     140.380  71.063 226.538 -0.58 -0.01    +0.056 A  
DOCKED: ATOM     12  C   UNL     1     139.712  69.828 226.581 -0.49 -0.00    +0.013 A  
DOCKED: BRANCH  11  13
DOCKED: ATOM     13  C   UNL     1     140.937  71.674 227.799 -0.41 -0.09    +0.416 C  
DOCKED: ATOM     14  F   UNL     1     139.930  72.261 228.544 -0.28 +0.06    -0.166 F  
DOCKED: ATOM     15  F   UNL     1     141.540  70.688 228.555 -0.15 +0.03    -0.166 F  
DOCKED: ATOM     16  F   UNL     1     141.874  72.647 227.497 -0.33 +0.03    -0.166 F  
DOCKED: ENDBRANCH  11  13
DOCKED: ENDBRANCH   6   7
DOCKED: ENDBRANCH   5   6
DOCKED: ENDBRANCH   4   5
DOCKED: ENDBRANCH   1   4
DOCKED: BRANCH   1  17
DOCKED: ATOM     17  C   UNL     1     139.245  75.709 220.720 -0.16 +0.00    -0.001 C  
DOCKED: BRANCH  17  18
DOCKED: ATOM     18  C   UNL     1     139.417  77.110 220.205 -0.09 -0.02    +0.071 C  
DOCKED: BRANCH  18  19
DOCKED: ATOM     19  C   UNL     1     140.547  77.213 219.170 -0.06 -0.09    +0.234 C  
DOCKED: BRANCH  19  20
DOCKED: ATOM     20  O   UNL     1     141.172  78.501 219.217 -0.03 +0.24    -0.492 OA 
DOCKED: BRANCH  20  21
DOCKED: ATOM     21  C   UNL     1     141.527  79.176 220.397 -0.24 -0.07    +0.137 A  
DOCKED: ATOM     22  C   UNL     1     141.823  78.487 221.589 -0.35 -0.03    +0.049 A  
DOCKED: ATOM     23  C   UNL     1     141.579  80.579 220.387 -0.28 -0.03    +0.084 A  
DOCKED: ATOM     24  C   UNL     1     142.115  79.194 222.758 -0.55 -0.01    +0.024 A  
DOCKED: ATOM     25  C   UNL     1     141.864  81.283 221.563 -0.39 -0.01    +0.045 A  
DOCKED: ATOM     26  C   UNL     1     142.121  80.591 222.751 -0.55 -0.01    +0.042 A  
DOCKED: ATOM     27  Cl  UNL     1     141.228  81.472 218.915 -0.27 +0.03    -0.080 Cl 
DOCKED: ATOM     28  Cl  UNL     1     142.449  81.475 224.230 -0.56 +0.01    -0.084 Cl 
DOCKED: ENDBRANCH  20  21
DOCKED: ENDBRANCH  19  20
DOCKED: ENDBRANCH  18  19
DOCKED: ENDBRANCH  17  18
DOCKED: ENDBRANCH   1  17
DOCKED: TORSDOF 11
DOCKED: TER
DOCKED: ENDMDL
________________________________________________________________________________


    FINAL DOCKED STATE:
    ________________________


Run:   11 / 20
Time taken for this run:   0.083s

DOCKED: MODEL        11
DOCKED: USER    Run = 11
DOCKED: USER
DOCKED: USER    Estimated Free Energy of Binding    =  -7.21 kcal/mol  [=(1)+(2)+(3)-(4)]
DOCKED: USER
DOCKED: USER    (1) Final Intermolecular Energy     = -10.49 kcal/mol
DOCKED: USER        vdW + Hbond + desolv Energy     = -10.52 kcal/mol
DOCKED: USER        Electrostatic Energy            =  +0.04 kcal/mol
DOCKED: USER        Moving Ligand-Fixed Receptor    = -10.49 kcal/mol
DOCKED: USER        Moving Ligand-Moving Receptor   =  +0.00 kcal/mol
DOCKED: USER    (2) Final Total Internal Energy     =  -0.86 kcal/mol
DOCKED: USER    (3) Torsional Free Energy           =  +3.28 kcal/mol
DOCKED: USER    (4) Unbound System's Energy         =  -0.86 kcal/mol
DOCKED: USER
DOCKED: USER
DOCKED: REMARK SMILES O/C(=C\CCOc1ccc(Cl)cc1Cl)[N-]/N=C\c1cccc(C(F)(F)F)c1
DOCKED: REMARK SMILES IDX 2 1 1 2 15 4 16 5 17 6 18 7 19 8 27 9 20 10 22 11 21 12
DOCKED: REMARK SMILES IDX 23 13 24 14 25 15 26 16 3 17 4 18 5 19 6 20 7 21 8 22 13 23
DOCKED: REMARK SMILES IDX 9 24 12 25 10 26 14 27 11 28
DOCKED: REMARK H PARENT 1 3
DOCKED: USER                              x       y       z     vdW  Elec       q    Type
DOCKED: USER                           _______ _______ _______ _____ _____    ______ ____
DOCKED: ROOT
DOCKED: ATOM      1  C   UNL     1     140.528  73.136 221.951 -0.29 -0.00    +0.023 C  
DOCKED: ENDROOT
DOCKED: BRANCH   1   2
DOCKED: ATOM      2  O   UNL     1     139.603  74.061 222.425 -0.65 +0.07    -0.530 OA 
DOCKED: ATOM      3  H   UNL     1     138.833  73.769 223.015 -0.49 -0.17    +0.290 HD 
DOCKED: ENDBRANCH   1   2
DOCKED: BRANCH   1   4
DOCKED: ATOM      4  N   UNL     1     140.380  71.759 222.320 -0.08 +0.07    -0.546 NA 
DOCKED: BRANCH   4   5
DOCKED: ATOM      5  N   UNL     1     139.286  71.295 223.069 -0.12 +0.08    -0.372 NA 
DOCKED: BRANCH   5   6
DOCKED: ATOM      6  C   UNL     1     139.243  70.116 223.610 -0.26 -0.02    +0.094 C  
DOCKED: BRANCH   6   7
DOCKED: ATOM      7  C   UNL     1     139.682  69.827 224.994 -0.40 +0.00    -0.009 A  
DOCKED: ATOM      8  C   UNL     1     139.861  68.510 225.454 -0.46 -0.00    +0.009 A  
DOCKED: ATOM      9  C   UNL     1     140.013  70.898 225.838 -0.51 -0.00    +0.022 A  
DOCKED: ATOM     10  C   UNL     1     140.327  68.274 226.748 -0.65 -0.00    +0.001 A  
DOCKED: ATOM     11  C   UNL     1     140.457  70.667 227.154 -0.59 -0.01    +0.056 A  
DOCKED: ATOM     12  C   UNL     1     140.628  69.343 227.593 -0.61 -0.00    +0.013 A  
DOCKED: BRANCH  11  13
DOCKED: ATOM     13  C   UNL     1     140.844  71.823 228.041 -0.39 -0.10    +0.416 C  
DOCKED: ATOM     14  F   UNL     1     139.751  72.275 228.760 -0.27 +0.06    -0.166 F  
DOCKED: ATOM     15  F   UNL     1     141.824  71.411 228.924 -0.19 +0.03    -0.166 F  
DOCKED: ATOM     16  F   UNL     1     141.330  72.877 227.287 -0.32 +0.04    -0.166 F  
DOCKED: ENDBRANCH  11  13
DOCKED: ENDBRANCH   6   7
DOCKED: ENDBRANCH   5   6
DOCKED: ENDBRANCH   4   5
DOCKED: ENDBRANCH   1   4
DOCKED: BRANCH   1  17
DOCKED: ATOM     17  C   UNL     1     141.518  73.531 221.139 -0.27 +0.00    -0.001 C  
DOCKED: BRANCH  17  18
DOCKED: ATOM     18  C   UNL     1     141.781  74.976 220.821 -0.28 -0.02    +0.071 C  
DOCKED: BRANCH  18  19
DOCKED: ATOM     19  C   UNL     1     140.486  75.751 220.532 -0.14 -0.07    +0.234 C  
DOCKED: BRANCH  19  20
DOCKED: ATOM     20  O   UNL     1     140.761  77.129 220.258 -0.02 +0.19    -0.492 OA 
DOCKED: BRANCH  20  21
DOCKED: ATOM     21  C   UNL     1     141.217  78.058 221.207 -0.26 -0.06    +0.137 A  
DOCKED: ATOM     22  C   UNL     1     141.132  77.813 222.591 -0.43 -0.02    +0.049 A  
DOCKED: ATOM     23  C   UNL     1     141.767  79.271 220.760 -0.29 -0.05    +0.084 A  
DOCKED: ATOM     24  C   UNL     1     141.542  78.785 223.507 -0.58 -0.01    +0.024 A  
DOCKED: ATOM     25  C   UNL     1     142.169  80.244 221.682 -0.44 -0.02    +0.045 A  
DOCKED: ATOM     26  C   UNL     1     142.046  80.007 223.054 -0.57 -0.01    +0.042 A  
DOCKED: ATOM     27  Cl  UNL     1     141.902  79.607 219.042 -0.35 +0.05    -0.080 Cl 
DOCKED: ATOM     28  Cl  UNL     1     142.523  81.240 224.207 -0.64 +0.01    -0.084 Cl 
DOCKED: ENDBRANCH  20  21
DOCKED: ENDBRANCH  19  20
DOCKED: ENDBRANCH  18  19
DOCKED: ENDBRANCH  17  18
DOCKED: ENDBRANCH   1  17
DOCKED: TORSDOF 11
DOCKED: TER
DOCKED: ENDMDL
________________________________________________________________________________


    FINAL DOCKED STATE:
    ________________________


Run:   12 / 20
Time taken for this run:   0.083s

DOCKED: MODEL        12
DOCKED: USER    Run = 12
DOCKED: USER
DOCKED: USER    Estimated Free Energy of Binding    =  -6.56 kcal/mol  [=(1)+(2)+(3)-(4)]
DOCKED: USER
DOCKED: USER    (1) Final Intermolecular Energy     =  -9.84 kcal/mol
DOCKED: USER        vdW + Hbond + desolv Energy     =  -9.93 kcal/mol
DOCKED: USER        Electrostatic Energy            =  +0.09 kcal/mol
DOCKED: USER        Moving Ligand-Fixed Receptor    =  -9.84 kcal/mol
DOCKED: USER        Moving Ligand-Moving Receptor   =  +0.00 kcal/mol
DOCKED: USER    (2) Final Total Internal Energy     =  -0.77 kcal/mol
DOCKED: USER    (3) Torsional Free Energy           =  +3.28 kcal/mol
DOCKED: USER    (4) Unbound System's Energy         =  -0.77 kcal/mol
DOCKED: USER
DOCKED: USER
DOCKED: REMARK SMILES O/C(=C\CCOc1ccc(Cl)cc1Cl)[N-]/N=C\c1cccc(C(F)(F)F)c1
DOCKED: REMARK SMILES IDX 2 1 1 2 15 4 16 5 17 6 18 7 19 8 27 9 20 10 22 11 21 12
DOCKED: REMARK SMILES IDX 23 13 24 14 25 15 26 16 3 17 4 18 5 19 6 20 7 21 8 22 13 23
DOCKED: REMARK SMILES IDX 9 24 12 25 10 26 14 27 11 28
DOCKED: REMARK H PARENT 1 3
DOCKED: USER                              x       y       z     vdW  Elec       q    Type
DOCKED: USER                           _______ _______ _______ _____ _____    ______ ____
DOCKED: ROOT
DOCKED: ATOM      1  C   UNL     1     140.997  74.252 221.454 -0.28 -0.00    +0.023 C  
DOCKED: ENDROOT
DOCKED: BRANCH   1   2
DOCKED: ATOM      2  O   UNL     1     142.193  74.908 221.177 -0.10 +0.19    -0.530 OA 
DOCKED: ATOM      3  H   UNL     1     142.385  75.823 221.568 -0.42 -0.22    +0.290 HD 
DOCKED: ENDBRANCH   1   2
DOCKED: BRANCH   1   4
DOCKED: ATOM      4  N   UNL     1     139.948  74.975 222.109 -0.52 +0.06    -0.546 NA 
DOCKED: BRANCH   4   5
DOCKED: ATOM      5  N   UNL     1     140.154  76.237 222.689 -0.17 +0.06    -0.372 NA 
DOCKED: BRANCH   5   6
DOCKED: ATOM      6  C   UNL     1     140.087  77.348 222.020 -0.32 -0.03    +0.094 C  
DOCKED: BRANCH   6   7
DOCKED: ATOM      7  C   UNL     1     140.789  78.590 222.413 -0.41 +0.00    -0.009 A  
DOCKED: ATOM      8  C   UNL     1     141.712  78.615 223.474 -0.60 -0.00    +0.009 A  
DOCKED: ATOM      9  C   UNL     1     140.595  79.751 221.649 -0.28 -0.01    +0.022 A  
DOCKED: ATOM     10  C   UNL     1     142.397  79.791 223.784 -0.61 -0.00    +0.001 A  
DOCKED: ATOM     11  C   UNL     1     141.261  80.947 221.973 -0.38 -0.01    +0.056 A  
DOCKED: ATOM     12  C   UNL     1     142.178  80.950 223.038 -0.59 -0.00    +0.013 A  
DOCKED: BRANCH  11  13
DOCKED: ATOM     13  C   UNL     1     141.071  82.179 221.125 -0.15 -0.09    +0.416 C  
DOCKED: ATOM     14  F   UNL     1     139.733  82.368 220.827 -0.05 +0.03    -0.166 F  
DOCKED: ATOM     15  F   UNL     1     141.539  83.283 221.814 -0.08 +0.02    -0.166 F  
DOCKED: ATOM     16  F   UNL     1     141.767  82.064 219.934 -0.10 +0.05    -0.166 F  
DOCKED: ENDBRANCH  11  13
DOCKED: ENDBRANCH   6   7
DOCKED: ENDBRANCH   5   6
DOCKED: ENDBRANCH   4   5
DOCKED: ENDBRANCH   1   4
DOCKED: BRANCH   1  17
DOCKED: ATOM     17  C   UNL     1     140.829  72.976 221.082 -0.24 +0.00    -0.001 C  
DOCKED: BRANCH  17  18
DOCKED: ATOM     18  C   UNL     1     141.113  71.818 221.997 -0.20 -0.01    +0.071 C  
DOCKED: BRANCH  18  19
DOCKED: ATOM     19  C   UNL     1     139.827  71.130 222.478 -0.18 -0.04    +0.234 C  
DOCKED: BRANCH  19  20
DOCKED: ATOM     20  O   UNL     1     139.471  71.566 223.795 -0.15 +0.12    -0.492 OA 
DOCKED: BRANCH  20  21
DOCKED: ATOM     21  C   UNL     1     139.810  70.891 224.979 -0.38 -0.02    +0.137 A  
DOCKED: ATOM     22  C   UNL     1     140.725  71.426 225.906 -0.59 -0.01    +0.049 A  
DOCKED: ATOM     23  C   UNL     1     139.223  69.642 225.241 -0.36 -0.01    +0.084 A  
DOCKED: ATOM     24  C   UNL     1     141.082  70.700 227.045 -0.61 -0.00    +0.024 A  
DOCKED: ATOM     25  C   UNL     1     139.590  68.916 226.379 -0.50 -0.01    +0.045 A  
DOCKED: ATOM     26  C   UNL     1     140.527  69.438 227.275 -0.56 -0.01    +0.042 A  
DOCKED: ATOM     27  Cl  UNL     1     138.067  68.949 224.115 -0.37 +0.01    -0.080 Cl 
DOCKED: ATOM     28  Cl  UNL     1     141.008  68.513 228.686 -0.72 +0.02    -0.084 Cl 
DOCKED: ENDBRANCH  20  21
DOCKED: ENDBRANCH  19  20
DOCKED: ENDBRANCH  18  19
DOCKED: ENDBRANCH  17  18
DOCKED: ENDBRANCH   1  17
DOCKED: TORSDOF 11
DOCKED: TER
DOCKED: ENDMDL
________________________________________________________________________________


    FINAL DOCKED STATE:
    ________________________


Run:   13 / 20
Time taken for this run:   0.083s

DOCKED: MODEL        13
DOCKED: USER    Run = 13
DOCKED: USER
DOCKED: USER    Estimated Free Energy of Binding    =  -5.71 kcal/mol  [=(1)+(2)+(3)-(4)]
DOCKED: USER
DOCKED: USER    (1) Final Intermolecular Energy     =  -8.99 kcal/mol
DOCKED: USER        vdW + Hbond + desolv Energy     =  -9.06 kcal/mol
DOCKED: USER        Electrostatic Energy            =  +0.07 kcal/mol
DOCKED: USER        Moving Ligand-Fixed Receptor    =  -8.99 kcal/mol
DOCKED: USER        Moving Ligand-Moving Receptor   =  +0.00 kcal/mol
DOCKED: USER    (2) Final Total Internal Energy     =  -1.49 kcal/mol
DOCKED: USER    (3) Torsional Free Energy           =  +3.28 kcal/mol
DOCKED: USER    (4) Unbound System's Energy         =  -1.49 kcal/mol
DOCKED: USER
DOCKED: USER
DOCKED: REMARK SMILES O/C(=C\CCOc1ccc(Cl)cc1Cl)[N-]/N=C\c1cccc(C(F)(F)F)c1
DOCKED: REMARK SMILES IDX 2 1 1 2 15 4 16 5 17 6 18 7 19 8 27 9 20 10 22 11 21 12
DOCKED: REMARK SMILES IDX 23 13 24 14 25 15 26 16 3 17 4 18 5 19 6 20 7 21 8 22 13 23
DOCKED: REMARK SMILES IDX 9 24 12 25 10 26 14 27 11 28
DOCKED: REMARK H PARENT 1 3
DOCKED: USER                              x       y       z     vdW  Elec       q    Type
DOCKED: USER                           _______ _______ _______ _____ _____    ______ ____
DOCKED: ROOT
DOCKED: ATOM      1  C   UNL     1     139.366  73.361 221.987 -0.24 -0.00    +0.023 C  
DOCKED: ENDROOT
DOCKED: BRANCH   1   2
DOCKED: ATOM      2  O   UNL     1     140.375  74.265 222.304 -0.67 -0.03    -0.530 OA 
DOCKED: ATOM      3  H   UNL     1     140.376  75.200 221.912 +0.10 -0.04    +0.290 HD 
DOCKED: ENDBRANCH   1   2
DOCKED: BRANCH   1   4
DOCKED: ATOM      4  N   UNL     1     139.693  71.969 221.885 -0.05 +0.09    -0.546 NA 
DOCKED: BRANCH   4   5
DOCKED: ATOM      5  N   UNL     1     138.957  70.974 222.547 -0.07 +0.07    -0.372 NA 
DOCKED: BRANCH   5   6
DOCKED: ATOM      6  C   UNL     1     139.500  70.081 223.317 -0.22 -0.02    +0.094 C  
DOCKED: BRANCH   6   7
DOCKED: ATOM      7  C   UNL     1     140.051  70.375 224.660 -0.42 +0.00    -0.009 A  
DOCKED: ATOM      8  C   UNL     1     140.653  71.610 224.959 -0.48 -0.00    +0.009 A  
DOCKED: ATOM      9  C   UNL     1     139.886  69.429 225.683 -0.45 -0.00    +0.022 A  
DOCKED: ATOM     10  C   UNL     1     141.114  71.874 226.249 -0.67 -0.00    +0.001 A  
DOCKED: ATOM     11  C   UNL     1     140.374  69.677 226.980 -0.53 -0.01    +0.056 A  
DOCKED: ATOM     12  C   UNL     1     140.973  70.918 227.256 -0.67 -0.00    +0.013 A  
DOCKED: BRANCH  11  13
DOCKED: ATOM     13  C   UNL     1     140.161  68.670 228.081 -0.27 -0.08    +0.416 C  
DOCKED: ATOM     14  F   UNL     1     139.492  67.556 227.603 -0.13 +0.04    -0.166 F  
DOCKED: ATOM     15  F   UNL     1     141.388  68.277 228.582 -0.22 +0.04    -0.166 F  
DOCKED: ATOM     16  F   UNL     1     139.410  69.217 229.106 -0.15 +0.02    -0.166 F  
DOCKED: ENDBRANCH  11  13
DOCKED: ENDBRANCH   6   7
DOCKED: ENDBRANCH   5   6
DOCKED: ENDBRANCH   4   5
DOCKED: ENDBRANCH   1   4
DOCKED: BRANCH   1  17
DOCKED: ATOM     17  C   UNL     1     138.109  73.790 221.814 -0.16 +0.00    -0.001 C  
DOCKED: BRANCH  17  18
DOCKED: ATOM     18  C   UNL     1     137.765  74.970 220.948 -0.11 -0.02    +0.071 C  
DOCKED: BRANCH  18  19
DOCKED: ATOM     19  C   UNL     1     138.143  76.304 221.609 -0.15 -0.05    +0.234 C  
DOCKED: BRANCH  19  20
DOCKED: ATOM     20  O   UNL     1     139.499  76.658 221.314 -0.05 +0.12    -0.492 OA 
DOCKED: BRANCH  20  21
DOCKED: ATOM     21  C   UNL     1     140.220  77.672 221.966 -0.27 -0.04    +0.137 A  
DOCKED: ATOM     22  C   UNL     1     139.706  78.349 223.088 -0.29 -0.01    +0.049 A  
DOCKED: ATOM     23  C   UNL     1     141.489  78.024 221.476 -0.30 -0.04    +0.084 A  
DOCKED: ATOM     24  C   UNL     1     140.428  79.392 223.674 -0.47 -0.00    +0.024 A  
DOCKED: ATOM     25  C   UNL     1     142.204  79.074 222.063 -0.44 -0.03    +0.045 A  
DOCKED: ATOM     26  C   UNL     1     141.669  79.766 223.153 -0.54 -0.01    +0.042 A  
DOCKED: ATOM     27  Cl  UNL     1     142.169  77.192 220.087 -0.39 +0.05    -0.080 Cl 
DOCKED: ATOM     28  Cl  UNL     1     142.553  81.102 223.868 -0.74 +0.01    -0.084 Cl 
DOCKED: ENDBRANCH  20  21
DOCKED: ENDBRANCH  19  20
DOCKED: ENDBRANCH  18  19
DOCKED: ENDBRANCH  17  18
DOCKED: ENDBRANCH   1  17
DOCKED: TORSDOF 11
DOCKED: TER
DOCKED: ENDMDL
________________________________________________________________________________


    FINAL DOCKED STATE:
    ________________________


Run:   14 / 20
Time taken for this run:   0.083s

DOCKED: MODEL        14
DOCKED: USER    Run = 14
DOCKED: USER
DOCKED: USER    Estimated Free Energy of Binding    =  -7.06 kcal/mol  [=(1)+(2)+(3)-(4)]
DOCKED: USER
DOCKED: USER    (1) Final Intermolecular Energy     = -10.34 kcal/mol
DOCKED: USER        vdW + Hbond + desolv Energy     = -10.46 kcal/mol
DOCKED: USER        Electrostatic Energy            =  +0.12 kcal/mol
DOCKED: USER        Moving Ligand-Fixed Receptor    = -10.34 kcal/mol
DOCKED: USER        Moving Ligand-Moving Receptor   =  +0.00 kcal/mol
DOCKED: USER    (2) Final Total Internal Energy     =  -0.96 kcal/mol
DOCKED: USER    (3) Torsional Free Energy           =  +3.28 kcal/mol
DOCKED: USER    (4) Unbound System's Energy         =  -0.96 kcal/mol
DOCKED: USER
DOCKED: USER
DOCKED: REMARK SMILES O/C(=C\CCOc1ccc(Cl)cc1Cl)[N-]/N=C\c1cccc(C(F)(F)F)c1
DOCKED: REMARK SMILES IDX 2 1 1 2 15 4 16 5 17 6 18 7 19 8 27 9 20 10 22 11 21 12
DOCKED: REMARK SMILES IDX 23 13 24 14 25 15 26 16 3 17 4 18 5 19 6 20 7 21 8 22 13 23
DOCKED: REMARK SMILES IDX 9 24 12 25 10 26 14 27 11 28
DOCKED: REMARK H PARENT 1 3
DOCKED: USER                              x       y       z     vdW  Elec       q    Type
DOCKED: USER                           _______ _______ _______ _____ _____    ______ ____
DOCKED: ROOT
DOCKED: ATOM      1  C   UNL     1     140.273  74.975 221.662 -0.30 -0.00    +0.023 C  
DOCKED: ENDROOT
DOCKED: BRANCH   1   2
DOCKED: ATOM      2  O   UNL     1     139.408  75.637 222.527 -0.33 +0.09    -0.530 OA 
DOCKED: ATOM      3  H   UNL     1     138.855  75.122 223.203 -0.44 -0.12    +0.290 HD 
DOCKED: ENDBRANCH   1   2
DOCKED: BRANCH   1   4
DOCKED: ATOM      4  N   UNL     1     140.690  73.643 221.987 -0.56 +0.02    -0.546 NA 
DOCKED: BRANCH   4   5
DOCKED: ATOM      5  N   UNL     1     139.916  72.787 222.787 -0.46 +0.05    -0.372 NA 
DOCKED: BRANCH   5   6
DOCKED: ATOM      6  C   UNL     1     140.231  71.548 223.015 -0.31 -0.01    +0.094 C  
DOCKED: BRANCH   6   7
DOCKED: ATOM      7  C   UNL     1     140.097  70.895 224.337 -0.43 +0.00    -0.009 A  
DOCKED: ATOM      8  C   UNL     1     139.594  69.588 224.469 -0.34 -0.00    +0.009 A  
DOCKED: ATOM      9  C   UNL     1     140.569  71.564 225.476 -0.53 -0.00    +0.022 A  
DOCKED: ATOM     10  C   UNL     1     139.531  68.981 225.724 -0.47 -0.00    +0.001 A  
DOCKED: ATOM     11  C   UNL     1     140.483  70.969 226.749 -0.59 -0.01    +0.056 A  
DOCKED: ATOM     12  C   UNL     1     139.976  69.663 226.858 -0.54 -0.00    +0.013 A  
DOCKED: BRANCH  11  13
DOCKED: ATOM     13  C   UNL     1     141.024  71.683 227.962 -0.40 -0.09    +0.416 C  
DOCKED: ATOM     14  F   UNL     1     141.782  70.823 228.738 -0.13 +0.03    -0.166 F  
DOCKED: ATOM     15  F   UNL     1     141.817  72.738 227.554 -0.33 +0.03    -0.166 F  
DOCKED: ATOM     16  F   UNL     1     139.991  72.171 228.743 -0.28 +0.06    -0.166 F  
DOCKED: ENDBRANCH  11  13
DOCKED: ENDBRANCH   6   7
DOCKED: ENDBRANCH   5   6
DOCKED: ENDBRANCH   4   5
DOCKED: ENDBRANCH   1   4
DOCKED: BRANCH   1  17
DOCKED: ATOM     17  C   UNL     1     140.677  75.569 220.531 -0.23 +0.00    -0.001 C  
DOCKED: BRANCH  17  18
DOCKED: ATOM     18  C   UNL     1     141.989  76.295 220.418 -0.21 -0.04    +0.071 C  
DOCKED: BRANCH  18  19
DOCKED: ATOM     19  C   UNL     1     141.803  77.768 220.024 -0.20 -0.14    +0.234 C  
DOCKED: BRANCH  19  20
DOCKED: ATOM     20  O   UNL     1     142.001  78.630 221.150 -0.11 +0.32    -0.492 OA 
DOCKED: BRANCH  20  21
DOCKED: ATOM     21  C   UNL     1     140.976  79.102 221.987 -0.30 -0.05    +0.137 A  
DOCKED: ATOM     22  C   UNL     1     139.632  78.724 221.804 -0.22 -0.01    +0.049 A  
DOCKED: ATOM     23  C   UNL     1     141.303  79.983 223.031 -0.46 -0.02    +0.084 A  
DOCKED: ATOM     24  C   UNL     1     138.632  79.260 222.620 -0.26 -0.00    +0.024 A  
DOCKED: ATOM     25  C   UNL     1     140.296  80.523 223.839 -0.38 -0.01    +0.045 A  
DOCKED: ATOM     26  C   UNL     1     138.960  80.170 223.627 -0.38 -0.01    +0.042 A  
DOCKED: ATOM     27  Cl  UNL     1     142.971  80.467 223.298 -0.79 +0.02    -0.080 Cl 
DOCKED: ATOM     28  Cl  UNL     1     137.697  80.870 224.622 -0.47 +0.01    -0.084 Cl 
DOCKED: ENDBRANCH  20  21
DOCKED: ENDBRANCH  19  20
DOCKED: ENDBRANCH  18  19
DOCKED: ENDBRANCH  17  18
DOCKED: ENDBRANCH   1  17
DOCKED: TORSDOF 11
DOCKED: TER
DOCKED: ENDMDL
________________________________________________________________________________


    FINAL DOCKED STATE:
    ________________________


Run:   15 / 20
Time taken for this run:   0.083s

DOCKED: MODEL        15
DOCKED: USER    Run = 15
DOCKED: USER
DOCKED: USER    Estimated Free Energy of Binding    =  -6.20 kcal/mol  [=(1)+(2)+(3)-(4)]
DOCKED: USER
DOCKED: USER    (1) Final Intermolecular Energy     =  -9.48 kcal/mol
DOCKED: USER        vdW + Hbond + desolv Energy     =  -9.62 kcal/mol
DOCKED: USER        Electrostatic Energy            =  +0.14 kcal/mol
DOCKED: USER        Moving Ligand-Fixed Receptor    =  -9.48 kcal/mol
DOCKED: USER        Moving Ligand-Moving Receptor   =  +0.00 kcal/mol
DOCKED: USER    (2) Final Total Internal Energy     =  -1.05 kcal/mol
DOCKED: USER    (3) Torsional Free Energy           =  +3.28 kcal/mol
DOCKED: USER    (4) Unbound System's Energy         =  -1.05 kcal/mol
DOCKED: USER
DOCKED: USER
DOCKED: REMARK SMILES O/C(=C\CCOc1ccc(Cl)cc1Cl)[N-]/N=C\c1cccc(C(F)(F)F)c1
DOCKED: REMARK SMILES IDX 2 1 1 2 15 4 16 5 17 6 18 7 19 8 27 9 20 10 22 11 21 12
DOCKED: REMARK SMILES IDX 23 13 24 14 25 15 26 16 3 17 4 18 5 19 6 20 7 21 8 22 13 23
DOCKED: REMARK SMILES IDX 9 24 12 25 10 26 14 27 11 28
DOCKED: REMARK H PARENT 1 3
DOCKED: USER                              x       y       z     vdW  Elec       q    Type
DOCKED: USER                           _______ _______ _______ _____ _____    ______ ____
DOCKED: ROOT
DOCKED: ATOM      1  C   UNL     1     139.572  74.617 221.740 -0.27 -0.00    +0.023 C  
DOCKED: ENDROOT
DOCKED: BRANCH   1   2
DOCKED: ATOM      2  O   UNL     1     138.562  73.709 222.040 -0.11 +0.16    -0.530 OA 
DOCKED: ATOM      3  H   UNL     1     138.469  73.324 222.973 -0.45 -0.18    +0.290 HD 
DOCKED: ENDBRANCH   1   2
DOCKED: BRANCH   1   4
DOCKED: ATOM      4  N   UNL     1     139.226  75.992 221.534 -0.06 +0.12    -0.546 NA 
DOCKED: BRANCH   4   5
DOCKED: ATOM      5  N   UNL     1     139.677  77.016 222.382 -0.16 +0.08    -0.372 NA 
DOCKED: BRANCH   5   6
DOCKED: ATOM      6  C   UNL     1     140.914  77.407 222.430 -0.37 -0.03    +0.094 C  
DOCKED: BRANCH   6   7
DOCKED: ATOM      7  C   UNL     1     141.329  78.794 222.743 -0.50 +0.00    -0.009 A  
DOCKED: ATOM      8  C   UNL     1     142.166  79.087 223.835 -0.56 -0.00    +0.009 A  
DOCKED: ATOM      9  C   UNL     1     140.949  79.829 221.875 -0.34 -0.01    +0.022 A  
DOCKED: ATOM     10  C   UNL     1     142.581  80.398 224.071 -0.60 -0.00    +0.001 A  
DOCKED: ATOM     11  C   UNL     1     141.341  81.157 222.123 -0.41 -0.01    +0.056 A  
DOCKED: ATOM     12  C   UNL     1     142.177  81.428 223.220 -0.52 -0.00    +0.013 A  
DOCKED: BRANCH  11  13
DOCKED: ATOM     13  C   UNL     1     140.957  82.257 221.166 -0.15 -0.09    +0.416 C  
DOCKED: ATOM     14  F   UNL     1     141.489  82.020 219.910 -0.10 +0.05    -0.166 F  
DOCKED: ATOM     15  F   UNL     1     139.580  82.315 221.068 -0.05 +0.03    -0.166 F  
DOCKED: ATOM     16  F   UNL     1     141.429  83.480 221.611 -0.11 +0.02    -0.166 F  
DOCKED: ENDBRANCH  11  13
DOCKED: ENDBRANCH   6   7
DOCKED: ENDBRANCH   5   6
DOCKED: ENDBRANCH   4   5
DOCKED: ENDBRANCH   1   4
DOCKED: BRANCH   1  17
DOCKED: ATOM     17  C   UNL     1     140.847  74.209 221.681 -0.24 +0.00    -0.001 C  
DOCKED: BRANCH  17  18
DOCKED: ATOM     18  C   UNL     1     141.236  72.818 221.261 -0.24 -0.01    +0.071 C  
DOCKED: BRANCH  18  19
DOCKED: ATOM     19  C   UNL     1     140.610  71.744 222.163 -0.19 -0.03    +0.234 C  
DOCKED: BRANCH  19  20
DOCKED: ATOM     20  O   UNL     1     140.289  72.278 223.452 -0.30 +0.06    -0.492 OA 
DOCKED: BRANCH  20  21
DOCKED: ATOM     21  C   UNL     1     140.245  71.530 224.640 -0.38 -0.02    +0.137 A  
DOCKED: ATOM     22  C   UNL     1     141.095  71.808 225.728 -0.49 -0.01    +0.049 A  
DOCKED: ATOM     23  C   UNL     1     139.331  70.468 224.740 -0.35 -0.01    +0.084 A  
DOCKED: ATOM     24  C   UNL     1     141.063  71.005 226.871 -0.65 -0.00    +0.024 A  
DOCKED: ATOM     25  C   UNL     1     139.309  69.662 225.884 -0.41 -0.01    +0.045 A  
DOCKED: ATOM     26  C   UNL     1     140.182  69.923 226.945 -0.53 -0.01    +0.042 A  
DOCKED: ATOM     27  Cl  UNL     1     138.246  70.099 223.409 -0.31 +0.01    -0.080 Cl 
DOCKED: ATOM     28  Cl  UNL     1     140.174  68.895 228.366 -0.76 +0.02    -0.084 Cl 
DOCKED: ENDBRANCH  20  21
DOCKED: ENDBRANCH  19  20
DOCKED: ENDBRANCH  18  19
DOCKED: ENDBRANCH  17  18
DOCKED: ENDBRANCH   1  17
DOCKED: TORSDOF 11
DOCKED: TER
DOCKED: ENDMDL
________________________________________________________________________________


    FINAL DOCKED STATE:
    ________________________


Run:   16 / 20
Time taken for this run:   0.083s

DOCKED: MODEL        16
DOCKED: USER    Run = 16
DOCKED: USER
DOCKED: USER    Estimated Free Energy of Binding    =  -6.56 kcal/mol  [=(1)+(2)+(3)-(4)]
DOCKED: USER
DOCKED: USER    (1) Final Intermolecular Energy     =  -9.84 kcal/mol
DOCKED: USER        vdW + Hbond + desolv Energy     =  -9.98 kcal/mol
DOCKED: USER        Electrostatic Energy            =  +0.14 kcal/mol
DOCKED: USER        Moving Ligand-Fixed Receptor    =  -9.84 kcal/mol
DOCKED: USER        Moving Ligand-Moving Receptor   =  +0.00 kcal/mol
DOCKED: USER    (2) Final Total Internal Energy     =  -1.00 kcal/mol
DOCKED: USER    (3) Torsional Free Energy           =  +3.28 kcal/mol
DOCKED: USER    (4) Unbound System's Energy         =  -1.00 kcal/mol
DOCKED: USER
DOCKED: USER
DOCKED: REMARK SMILES O/C(=C\CCOc1ccc(Cl)cc1Cl)[N-]/N=C\c1cccc(C(F)(F)F)c1
DOCKED: REMARK SMILES IDX 2 1 1 2 15 4 16 5 17 6 18 7 19 8 27 9 20 10 22 11 21 12
DOCKED: REMARK SMILES IDX 23 13 24 14 25 15 26 16 3 17 4 18 5 19 6 20 7 21 8 22 13 23
DOCKED: REMARK SMILES IDX 9 24 12 25 10 26 14 27 11 28
DOCKED: REMARK H PARENT 1 3
DOCKED: USER                              x       y       z     vdW  Elec       q    Type
DOCKED: USER                           _______ _______ _______ _____ _____    ______ ____
DOCKED: ROOT
DOCKED: ATOM      1  C   UNL     1     139.517  74.776 221.915 -0.28 -0.00    +0.023 C  
DOCKED: ENDROOT
DOCKED: BRANCH   1   2
DOCKED: ATOM      2  O   UNL     1     140.708  75.494 221.965 -0.40 +0.10    -0.530 OA 
DOCKED: ATOM      3  H   UNL     1     141.579  75.039 222.214 +0.02 -0.04    +0.290 HD 
DOCKED: ENDBRANCH   1   2
DOCKED: BRANCH   1   4
DOCKED: ATOM      4  N   UNL     1     139.516  73.409 222.345 -0.50 +0.10    -0.546 NA 
DOCKED: BRANCH   4   5
DOCKED: ATOM      5  N   UNL     1     140.690  72.740 222.725 -0.44 +0.00    -0.372 NA 
DOCKED: BRANCH   5   6
DOCKED: ATOM      6  C   UNL     1     140.733  71.468 222.982 -0.19 -0.01    +0.094 C  
DOCKED: BRANCH   6   7
DOCKED: ATOM      7  C   UNL     1     140.333  70.874 224.278 -0.43 +0.00    -0.009 A  
DOCKED: ATOM      8  C   UNL     1     139.595  69.679 224.348 -0.33 -0.00    +0.009 A  
DOCKED: ATOM      9  C   UNL     1     140.779  71.474 225.465 -0.56 -0.00    +0.022 A  
DOCKED: ATOM     10  C   UNL     1     139.280  69.118 225.587 -0.45 -0.00    +0.001 A  
DOCKED: ATOM     11  C   UNL     1     140.442  70.929 226.719 -0.58 -0.01    +0.056 A  
DOCKED: ATOM     12  C   UNL     1     139.703  69.734 226.766 -0.51 -0.00    +0.013 A  
DOCKED: BRANCH  11  13
DOCKED: ATOM     13  C   UNL     1     140.955  71.560 227.987 -0.40 -0.09    +0.416 C  
DOCKED: ATOM     14  F   UNL     1     141.685  70.647 228.728 -0.13 +0.03    -0.166 F  
DOCKED: ATOM     15  F   UNL     1     141.769  72.631 227.667 -0.34 +0.04    -0.166 F  
DOCKED: ATOM     16  F   UNL     1     139.905  72.010 228.769 -0.28 +0.05    -0.166 F  
DOCKED: ENDBRANCH  11  13
DOCKED: ENDBRANCH   6   7
DOCKED: ENDBRANCH   5   6
DOCKED: ENDBRANCH   4   5
DOCKED: ENDBRANCH   1   4
DOCKED: BRANCH   1  17
DOCKED: ATOM     17  C   UNL     1     138.391  75.372 221.501 -0.21 +0.00    -0.001 C  
DOCKED: BRANCH  17  18
DOCKED: ATOM     18  C   UNL     1     137.464  76.097 222.437 -0.24 -0.02    +0.071 C  
DOCKED: BRANCH  18  19
DOCKED: ATOM     19  C   UNL     1     137.277  77.570 222.040 -0.12 -0.04    +0.234 C  
DOCKED: BRANCH  19  20
DOCKED: ATOM     20  O   UNL     1     137.756  78.444 223.068 -0.08 +0.07    -0.492 OA 
DOCKED: BRANCH  20  21
DOCKED: ATOM     21  C   UNL     1     139.069  78.938 223.150 -0.27 -0.02    +0.137 A  
DOCKED: ATOM     22  C   UNL     1     140.178  78.178 222.733 -0.37 -0.01    +0.049 A  
DOCKED: ATOM     23  C   UNL     1     139.278  80.225 223.673 -0.37 -0.01    +0.084 A  
DOCKED: ATOM     24  C   UNL     1     141.473  78.680 222.884 -0.52 -0.01    +0.024 A  
DOCKED: ATOM     25  C   UNL     1     140.578  80.719 223.830 -0.38 -0.01    +0.045 A  
DOCKED: ATOM     26  C   UNL     1     141.676  79.943 223.446 -0.56 -0.01    +0.042 A  
DOCKED: ATOM     27  Cl  UNL     1     137.917  81.206 224.193 -0.41 +0.01    -0.080 Cl 
DOCKED: ATOM     28  Cl  UNL     1     143.306  80.552 223.670 -0.64 +0.02    -0.084 Cl 
DOCKED: ENDBRANCH  20  21
DOCKED: ENDBRANCH  19  20
DOCKED: ENDBRANCH  18  19
DOCKED: ENDBRANCH  17  18
DOCKED: ENDBRANCH   1  17
DOCKED: TORSDOF 11
DOCKED: TER
DOCKED: ENDMDL
________________________________________________________________________________


    FINAL DOCKED STATE:
    ________________________


Run:   17 / 20
Time taken for this run:   0.083s

DOCKED: MODEL        17
DOCKED: USER    Run = 17
DOCKED: USER
DOCKED: USER    Estimated Free Energy of Binding    =  -6.73 kcal/mol  [=(1)+(2)+(3)-(4)]
DOCKED: USER
DOCKED: USER    (1) Final Intermolecular Energy     = -10.01 kcal/mol
DOCKED: USER        vdW + Hbond + desolv Energy     = -10.09 kcal/mol
DOCKED: USER        Electrostatic Energy            =  +0.08 kcal/mol
DOCKED: USER        Moving Ligand-Fixed Receptor    = -10.01 kcal/mol
DOCKED: USER        Moving Ligand-Moving Receptor   =  +0.00 kcal/mol
DOCKED: USER    (2) Final Total Internal Energy     =  -1.15 kcal/mol
DOCKED: USER    (3) Torsional Free Energy           =  +3.28 kcal/mol
DOCKED: USER    (4) Unbound System's Energy         =  -1.15 kcal/mol
DOCKED: USER
DOCKED: USER
DOCKED: REMARK SMILES O/C(=C\CCOc1ccc(Cl)cc1Cl)[N-]/N=C\c1cccc(C(F)(F)F)c1
DOCKED: REMARK SMILES IDX 2 1 1 2 15 4 16 5 17 6 18 7 19 8 27 9 20 10 22 11 21 12
DOCKED: REMARK SMILES IDX 23 13 24 14 25 15 26 16 3 17 4 18 5 19 6 20 7 21 8 22 13 23
DOCKED: REMARK SMILES IDX 9 24 12 25 10 26 14 27 11 28
DOCKED: REMARK H PARENT 1 3
DOCKED: USER                              x       y       z     vdW  Elec       q    Type
DOCKED: USER                           _______ _______ _______ _____ _____    ______ ____
DOCKED: ROOT
DOCKED: ATOM      1  C   UNL     1     141.367  74.481 221.371 -0.24 -0.00    +0.023 C  
DOCKED: ENDROOT
DOCKED: BRANCH   1   2
DOCKED: ATOM      2  O   UNL     1     141.118  75.484 222.303 -0.24 +0.09    -0.530 OA 
DOCKED: ATOM      3  H   UNL     1     141.805  76.207 222.484 -0.41 -0.17    +0.290 HD 
DOCKED: ENDBRANCH   1   2
DOCKED: BRANCH   1   4
DOCKED: ATOM      4  N   UNL     1     140.751  73.200 221.553 -0.17 +0.06    -0.546 NA 
DOCKED: BRANCH   4   5
DOCKED: ATOM      5  N   UNL     1     140.385  72.716 222.818 -0.46 +0.02    -0.372 NA 
DOCKED: BRANCH   5   6
DOCKED: ATOM      6  C   UNL     1     139.972  71.502 223.024 -0.31 -0.02    +0.094 C  
DOCKED: BRANCH   6   7
DOCKED: ATOM      7  C   UNL     1     139.955  70.851 224.354 -0.43 +0.00    -0.009 A  
DOCKED: ATOM      8  C   UNL     1     139.565  69.509 224.516 -0.35 -0.00    +0.009 A  
DOCKED: ATOM      9  C   UNL     1     140.426  71.566 225.465 -0.51 -0.00    +0.022 A  
DOCKED: ATOM     10  C   UNL     1     139.612  68.911 225.776 -0.49 -0.00    +0.001 A  
DOCKED: ATOM     11  C   UNL     1     140.450  70.977 226.743 -0.59 -0.01    +0.056 A  
DOCKED: ATOM     12  C   UNL     1     140.055  69.636 226.884 -0.55 -0.00    +0.013 A  
DOCKED: BRANCH  11  13
DOCKED: ATOM     13  C   UNL     1     140.990  71.741 227.925 -0.41 -0.09    +0.416 C  
DOCKED: ATOM     14  F   UNL     1     139.957  72.244 228.697 -0.29 +0.06    -0.166 F  
DOCKED: ATOM     15  F   UNL     1     141.762  70.896 228.700 -0.15 +0.03    -0.166 F  
DOCKED: ATOM     16  F   UNL     1     141.771  72.804 227.504 -0.32 +0.04    -0.166 F  
DOCKED: ENDBRANCH  11  13
DOCKED: ENDBRANCH   6   7
DOCKED: ENDBRANCH   5   6
DOCKED: ENDBRANCH   4   5
DOCKED: ENDBRANCH   1   4
DOCKED: BRANCH   1  17
DOCKED: ATOM     17  C   UNL     1     142.143  74.731 220.307 -0.29 +0.00    -0.001 C  
DOCKED: BRANCH  17  18
DOCKED: ATOM     18  C   UNL     1     142.558  76.120 219.912 -0.29 -0.04    +0.071 C  
DOCKED: BRANCH  18  19
DOCKED: ATOM     19  C   UNL     1     141.448  77.151 220.166 -0.18 -0.12    +0.234 C  
DOCKED: BRANCH  19  20
DOCKED: ATOM     20  O   UNL     1     141.771  77.991 221.281 -0.11 +0.31    -0.492 OA 
DOCKED: BRANCH  20  21
DOCKED: ATOM     21  C   UNL     1     140.827  78.623 222.106 -0.30 -0.05    +0.137 A  
DOCKED: ATOM     22  C   UNL     1     139.471  78.243 222.115 -0.26 -0.01    +0.049 A  
DOCKED: ATOM     23  C   UNL     1     141.249  79.670 222.942 -0.45 -0.02    +0.084 A  
DOCKED: ATOM     24  C   UNL     1     138.550  78.933 222.906 -0.28 -0.00    +0.024 A  
DOCKED: ATOM     25  C   UNL     1     140.320  80.363 223.727 -0.40 -0.01    +0.045 A  
DOCKED: ATOM     26  C   UNL     1     138.970  80.003 223.700 -0.39 -0.01    +0.042 A  
DOCKED: ATOM     27  Cl  UNL     1     142.935  80.163 222.968 -0.78 +0.03    -0.080 Cl 
DOCKED: ATOM     28  Cl  UNL     1     137.803  80.892 224.662 -0.47 +0.01    -0.084 Cl 
DOCKED: ENDBRANCH  20  21
DOCKED: ENDBRANCH  19  20
DOCKED: ENDBRANCH  18  19
DOCKED: ENDBRANCH  17  18
DOCKED: ENDBRANCH   1  17
DOCKED: TORSDOF 11
DOCKED: TER
DOCKED: ENDMDL
________________________________________________________________________________


    FINAL DOCKED STATE:
    ________________________


Run:   18 / 20
Time taken for this run:   0.083s

DOCKED: MODEL        18
DOCKED: USER    Run = 18
DOCKED: USER
DOCKED: USER    Estimated Free Energy of Binding    =  -6.16 kcal/mol  [=(1)+(2)+(3)-(4)]
DOCKED: USER
DOCKED: USER    (1) Final Intermolecular Energy     =  -9.44 kcal/mol
DOCKED: USER        vdW + Hbond + desolv Energy     =  -9.61 kcal/mol
DOCKED: USER        Electrostatic Energy            =  +0.17 kcal/mol
DOCKED: USER        Moving Ligand-Fixed Receptor    =  -9.44 kcal/mol
DOCKED: USER        Moving Ligand-Moving Receptor   =  +0.00 kcal/mol
DOCKED: USER    (2) Final Total Internal Energy     =  -1.42 kcal/mol
DOCKED: USER    (3) Torsional Free Energy           =  +3.28 kcal/mol
DOCKED: USER    (4) Unbound System's Energy         =  -1.42 kcal/mol
DOCKED: USER
DOCKED: USER
DOCKED: REMARK SMILES O/C(=C\CCOc1ccc(Cl)cc1Cl)[N-]/N=C\c1cccc(C(F)(F)F)c1
DOCKED: REMARK SMILES IDX 2 1 1 2 15 4 16 5 17 6 18 7 19 8 27 9 20 10 22 11 21 12
DOCKED: REMARK SMILES IDX 23 13 24 14 25 15 26 16 3 17 4 18 5 19 6 20 7 21 8 22 13 23
DOCKED: REMARK SMILES IDX 9 24 12 25 10 26 14 27 11 28
DOCKED: REMARK H PARENT 1 3
DOCKED: USER                              x       y       z     vdW  Elec       q    Type
DOCKED: USER                           _______ _______ _______ _____ _____    ______ ____
DOCKED: ROOT
DOCKED: ATOM      1  C   UNL     1     138.457  73.223 221.749 -0.17 -0.01    +0.023 C  
DOCKED: ENDROOT
DOCKED: BRANCH   1   2
DOCKED: ATOM      2  O   UNL     1     137.509  72.915 222.720 +0.02 +0.21    -0.530 OA 
DOCKED: ATOM      3  H   UNL     1     137.793  72.624 223.648 -0.41 -0.19    +0.290 HD 
DOCKED: ENDBRANCH   1   2
DOCKED: BRANCH   1   4
DOCKED: ATOM      4  N   UNL     1     138.912  74.577 221.632 -0.10 +0.13    -0.546 NA 
DOCKED: BRANCH   4   5
DOCKED: ATOM      5  N   UNL     1     140.117  75.017 222.202 -0.55 +0.03    -0.372 NA 
DOCKED: BRANCH   5   6
DOCKED: ATOM      6  C   UNL     1     140.732  76.095 221.820 -0.33 -0.03    +0.094 C  
DOCKED: BRANCH   6   7
DOCKED: ATOM      7  C   UNL     1     140.410  77.450 222.322 -0.41 +0.00    -0.009 A  
DOCKED: ATOM      8  C   UNL     1     139.116  77.791 222.755 -0.29 -0.00    +0.009 A  
DOCKED: ATOM      9  C   UNL     1     141.444  78.389 222.452 -0.46 -0.01    +0.022 A  
DOCKED: ATOM     10  C   UNL     1     138.859  79.061 223.273 -0.33 -0.00    +0.001 A  
DOCKED: ATOM     11  C   UNL     1     141.186  79.681 222.948 -0.46 -0.01    +0.056 A  
DOCKED: ATOM     12  C   UNL     1     139.886  80.001 223.374 -0.42 -0.00    +0.013 A  
DOCKED: BRANCH  11  13
DOCKED: ATOM     13  C   UNL     1     142.310  80.672 223.116 -0.31 -0.10    +0.416 C  
DOCKED: ATOM     14  F   UNL     1     142.252  81.649 222.139 -0.14 +0.03    -0.166 F  
DOCKED: ATOM     15  F   UNL     1     142.207  81.270 224.358 -0.21 +0.02    -0.166 F  
DOCKED: ATOM     16  F   UNL     1     143.537  80.039 223.022 -0.24 +0.06    -0.166 F  
DOCKED: ENDBRANCH  11  13
DOCKED: ENDBRANCH   6   7
DOCKED: ENDBRANCH   5   6
DOCKED: ENDBRANCH   4   5
DOCKED: ENDBRANCH   1   4
DOCKED: BRANCH   1  17
DOCKED: ATOM     17  C   UNL     1     138.954  72.256 220.965 -0.12 +0.00    -0.001 C  
DOCKED: BRANCH  17  18
DOCKED: ATOM     18  C   UNL     1     140.073  71.352 221.400 -0.16 -0.01    +0.071 C  
DOCKED: BRANCH  18  19
DOCKED: ATOM     19  C   UNL     1     140.692  71.795 222.734 -0.20 -0.02    +0.234 C  
DOCKED: BRANCH  19  20
DOCKED: ATOM     20  O   UNL     1     139.753  71.657 223.807 -0.18 +0.11    -0.492 OA 
DOCKED: BRANCH  20  21
DOCKED: ATOM     21  C   UNL     1     139.995  70.949 224.996 -0.40 -0.02    +0.137 A  
DOCKED: ATOM     22  C   UNL     1     140.752  71.497 226.049 -0.60 -0.01    +0.049 A  
DOCKED: ATOM     23  C   UNL     1     139.473  69.652 225.132 -0.35 -0.01    +0.084 A  
DOCKED: ATOM     24  C   UNL     1     141.021  70.740 227.192 -0.63 -0.00    +0.024 A  
DOCKED: ATOM     25  C   UNL     1     139.752  68.896 226.276 -0.50 -0.01    +0.045 A  
DOCKED: ATOM     26  C   UNL     1     140.536  69.435 227.301 -0.57 -0.01    +0.042 A  
DOCKED: ATOM     27  Cl  UNL     1     138.513  68.940 223.844 -0.38 +0.01    -0.080 Cl 
DOCKED: ATOM     28  Cl  UNL     1     140.909  68.475 228.720 -0.71 +0.02    -0.084 Cl 
DOCKED: ENDBRANCH  20  21
DOCKED: ENDBRANCH  19  20
DOCKED: ENDBRANCH  18  19
DOCKED: ENDBRANCH  17  18
DOCKED: ENDBRANCH   1  17
DOCKED: TORSDOF 11
DOCKED: TER
DOCKED: ENDMDL
________________________________________________________________________________


    FINAL DOCKED STATE:
    ________________________


Run:   19 / 20
Time taken for this run:   0.083s

DOCKED: MODEL        19
DOCKED: USER    Run = 19
DOCKED: USER
DOCKED: USER    Estimated Free Energy of Binding    =  -6.19 kcal/mol  [=(1)+(2)+(3)-(4)]
DOCKED: USER
DOCKED: USER    (1) Final Intermolecular Energy     =  -9.47 kcal/mol
DOCKED: USER        vdW + Hbond + desolv Energy     =  -9.60 kcal/mol
DOCKED: USER        Electrostatic Energy            =  +0.13 kcal/mol
DOCKED: USER        Moving Ligand-Fixed Receptor    =  -9.47 kcal/mol
DOCKED: USER        Moving Ligand-Moving Receptor   =  +0.00 kcal/mol
DOCKED: USER    (2) Final Total Internal Energy     =  -1.10 kcal/mol
DOCKED: USER    (3) Torsional Free Energy           =  +3.28 kcal/mol
DOCKED: USER    (4) Unbound System's Energy         =  -1.10 kcal/mol
DOCKED: USER
DOCKED: USER
DOCKED: REMARK SMILES O/C(=C\CCOc1ccc(Cl)cc1Cl)[N-]/N=C\c1cccc(C(F)(F)F)c1
DOCKED: REMARK SMILES IDX 2 1 1 2 15 4 16 5 17 6 18 7 19 8 27 9 20 10 22 11 21 12
DOCKED: REMARK SMILES IDX 23 13 24 14 25 15 26 16 3 17 4 18 5 19 6 20 7 21 8 22 13 23
DOCKED: REMARK SMILES IDX 9 24 12 25 10 26 14 27 11 28
DOCKED: REMARK H PARENT 1 3
DOCKED: USER                              x       y       z     vdW  Elec       q    Type
DOCKED: USER                           _______ _______ _______ _____ _____    ______ ____
DOCKED: ROOT
DOCKED: ATOM      1  C   UNL     1     140.404  73.717 221.692 -0.27 -0.00    +0.023 C  
DOCKED: ENDROOT
DOCKED: BRANCH   1   2
DOCKED: ATOM      2  O   UNL     1     139.178  73.816 222.342 -0.46 +0.13    -0.530 OA 
DOCKED: ATOM      3  H   UNL     1     138.965  73.229 223.141 -0.41 -0.16    +0.290 HD 
DOCKED: ENDBRANCH   1   2
DOCKED: BRANCH   1   4
DOCKED: ATOM      4  N   UNL     1     141.283  74.849 221.699 -0.21 +0.09    -0.546 NA 
DOCKED: BRANCH   4   5
DOCKED: ATOM      5  N   UNL     1     140.952  76.054 222.339 -0.25 +0.10    -0.372 NA 
DOCKED: BRANCH   5   6
DOCKED: ATOM      6  C   UNL     1     141.071  77.217 221.774 -0.32 -0.04    +0.094 C  
DOCKED: BRANCH   6   7
DOCKED: ATOM      7  C   UNL     1     141.033  78.500 222.512 -0.45 +0.00    -0.009 A  
DOCKED: ATOM      8  C   UNL     1     142.204  79.222 222.801 -0.57 -0.00    +0.009 A  
DOCKED: ATOM      9  C   UNL     1     139.788  79.051 222.852 -0.36 -0.00    +0.022 A  
DOCKED: ATOM     10  C   UNL     1     142.129  80.455 223.451 -0.64 -0.00    +0.001 A  
DOCKED: ATOM     11  C   UNL     1     139.706  80.280 223.533 -0.40 -0.01    +0.056 A  
DOCKED: ATOM     12  C   UNL     1     140.889  80.985 223.812 -0.42 -0.00    +0.013 A  
DOCKED: BRANCH  11  13
DOCKED: ATOM     13  C   UNL     1     138.363  80.880 223.863 -0.17 -0.04    +0.416 C  
DOCKED: ATOM     14  F   UNL     1     137.350  79.962 223.647 -0.09 +0.02    -0.166 F  
DOCKED: ATOM     15  F   UNL     1     138.349  81.262 225.191 -0.10 +0.01    -0.166 F  
DOCKED: ATOM     16  F   UNL     1     138.116  81.990 223.073 -0.07 +0.02    -0.166 F  
DOCKED: ENDBRANCH  11  13
DOCKED: ENDBRANCH   6   7
DOCKED: ENDBRANCH   5   6
DOCKED: ENDBRANCH   4   5
DOCKED: ENDBRANCH   1   4
DOCKED: BRANCH   1  17
DOCKED: ATOM     17  C   UNL     1     140.761  72.568 221.102 -0.23 +0.00    -0.001 C  
DOCKED: BRANCH  17  18
DOCKED: ATOM     18  C   UNL     1     139.785  71.460 220.823 -0.11 -0.01    +0.071 C  
DOCKED: BRANCH  18  19
DOCKED: ATOM     19  C   UNL     1     139.683  70.469 221.993 -0.10 -0.04    +0.234 C  
DOCKED: BRANCH  19  20
DOCKED: ATOM     20  O   UNL     1     139.508  71.158 223.236 -0.11 +0.10    -0.492 OA 
DOCKED: BRANCH  20  21
DOCKED: ATOM     21  C   UNL     1     139.773  70.606 224.501 -0.34 -0.02    +0.137 A  
DOCKED: ATOM     22  C   UNL     1     140.818  71.081 225.317 -0.53 -0.01    +0.049 A  
DOCKED: ATOM     23  C   UNL     1     138.976  69.545 224.959 -0.34 -0.01    +0.084 A  
DOCKED: ATOM     24  C   UNL     1     141.089  70.469 226.543 -0.58 -0.00    +0.024 A  
DOCKED: ATOM     25  C   UNL     1     139.256  68.931 226.185 -0.47 -0.01    +0.045 A  
DOCKED: ATOM     26  C   UNL     1     140.319  69.384 226.971 -0.54 -0.01    +0.042 A  
DOCKED: ATOM     27  Cl  UNL     1     137.655  68.935 223.975 -0.31 +0.01    -0.080 Cl 
DOCKED: ATOM     28  Cl  UNL     1     140.688  68.594 228.493 -0.76 +0.02    -0.084 Cl 
DOCKED: ENDBRANCH  20  21
DOCKED: ENDBRANCH  19  20
DOCKED: ENDBRANCH  18  19
DOCKED: ENDBRANCH  17  18
DOCKED: ENDBRANCH   1  17
DOCKED: TORSDOF 11
DOCKED: TER
DOCKED: ENDMDL
________________________________________________________________________________


    FINAL DOCKED STATE:
    ________________________


Run:   20 / 20
Time taken for this run:   0.083s

DOCKED: MODEL        20
DOCKED: USER    Run = 20
DOCKED: USER
DOCKED: USER    Estimated Free Energy of Binding    =  -6.41 kcal/mol  [=(1)+(2)+(3)-(4)]
DOCKED: USER
DOCKED: USER    (1) Final Intermolecular Energy     =  -9.69 kcal/mol
DOCKED: USER        vdW + Hbond + desolv Energy     =  -9.68 kcal/mol
DOCKED: USER        Electrostatic Energy            =  -0.01 kcal/mol
DOCKED: USER        Moving Ligand-Fixed Receptor    =  -9.69 kcal/mol
DOCKED: USER        Moving Ligand-Moving Receptor   =  +0.00 kcal/mol
DOCKED: USER    (2) Final Total Internal Energy     =  -1.29 kcal/mol
DOCKED: USER    (3) Torsional Free Energy           =  +3.28 kcal/mol
DOCKED: USER    (4) Unbound System's Energy         =  -1.29 kcal/mol
DOCKED: USER
DOCKED: USER
DOCKED: REMARK SMILES O/C(=C\CCOc1ccc(Cl)cc1Cl)[N-]/N=C\c1cccc(C(F)(F)F)c1
DOCKED: REMARK SMILES IDX 2 1 1 2 15 4 16 5 17 6 18 7 19 8 27 9 20 10 22 11 21 12
DOCKED: REMARK SMILES IDX 23 13 24 14 25 15 26 16 3 17 4 18 5 19 6 20 7 21 8 22 13 23
DOCKED: REMARK SMILES IDX 9 24 12 25 10 26 14 27 11 28
DOCKED: REMARK H PARENT 1 3
DOCKED: USER                              x       y       z     vdW  Elec       q    Type
DOCKED: USER                           _______ _______ _______ _____ _____    ______ ____
DOCKED: ROOT
DOCKED: ATOM      1  C   UNL     1     140.432  74.995 221.648 -0.31 -0.00    +0.023 C  
DOCKED: ENDROOT
DOCKED: BRANCH   1   2
DOCKED: ATOM      2  O   UNL     1     141.102  76.024 222.303 -0.23 +0.16    -0.530 OA 
DOCKED: ATOM      3  H   UNL     1     142.084  76.200 222.124 -0.44 -0.23    +0.290 HD 
DOCKED: ENDBRANCH   1   2
DOCKED: BRANCH   1   4
DOCKED: ATOM      4  N   UNL     1     140.752  73.639 221.983 -0.54 +0.02    -0.546 NA 
DOCKED: BRANCH   4   5
DOCKED: ATOM      5  N   UNL     1     139.951  72.868 222.840 -0.47 +0.05    -0.372 NA 
DOCKED: BRANCH   5   6
DOCKED: ATOM      6  C   UNL     1     140.097  71.586 222.989 -0.30 -0.01    +0.094 C  
DOCKED: BRANCH   6   7
DOCKED: ATOM      7  C   UNL     1     140.013  70.893 224.295 -0.43 +0.00    -0.009 A  
DOCKED: ATOM      8  C   UNL     1     139.581  69.559 224.398 -0.33 -0.00    +0.009 A  
DOCKED: ATOM      9  C   UNL     1     140.462  71.558 225.446 -0.52 -0.00    +0.022 A  
DOCKED: ATOM     10  C   UNL     1     139.565  68.919 225.638 -0.47 -0.00    +0.001 A  
DOCKED: ATOM     11  C   UNL     1     140.422  70.928 226.704 -0.58 -0.01    +0.056 A  
DOCKED: ATOM     12  C   UNL     1     139.986  69.594 226.785 -0.54 -0.00    +0.013 A  
DOCKED: BRANCH  11  13
DOCKED: ATOM     13  C   UNL     1     140.939  71.638 227.929 -0.40 -0.09    +0.416 C  
DOCKED: ATOM     14  F   UNL     1     141.750  72.702 227.573 -0.34 +0.04    -0.166 F  
DOCKED: ATOM     15  F   UNL     1     139.870  72.113 228.665 -0.28 +0.05    -0.166 F  
DOCKED: ATOM     16  F   UNL     1     141.681  70.775 228.718 -0.14 +0.03    -0.166 F  
DOCKED: ENDBRANCH  11  13
DOCKED: ENDBRANCH   6   7
DOCKED: ENDBRANCH   5   6
DOCKED: ENDBRANCH   4   5
DOCKED: ENDBRANCH   1   4
DOCKED: BRANCH   1  17
DOCKED: ATOM     17  C   UNL     1     139.484  75.279 220.745 -0.18 +0.00    -0.001 C  
DOCKED: BRANCH  17  18
DOCKED: ATOM     18  C   UNL     1     139.739  75.255 219.264 -0.05 -0.02    +0.071 C  
DOCKED: BRANCH  18  19
DOCKED: ATOM     19  C   UNL     1     140.254  73.889 218.787 -0.01 -0.05    +0.234 C  
DOCKED: BRANCH  19  20
DOCKED: ATOM     20  O   UNL     1     141.604  73.983 218.319 +0.02 +0.12    -0.492 OA 
DOCKED: BRANCH  20  21
DOCKED: ATOM     21  C   UNL     1     142.743  73.811 219.122 -0.12 -0.03    +0.137 A  
DOCKED: ATOM     22  C   UNL     1     143.182  72.537 219.530 -0.17 -0.01    +0.049 A  
DOCKED: ATOM     23  C   UNL     1     143.460  74.946 219.536 -0.31 -0.04    +0.084 A  
DOCKED: ATOM     24  C   UNL     1     144.286  72.409 220.377 -0.36 -0.00    +0.024 A  
DOCKED: ATOM     25  C   UNL     1     144.559  74.813 220.391 -0.37 -0.02    +0.045 A  
DOCKED: ATOM     26  C   UNL     1     144.966  73.546 220.821 -0.54 -0.01    +0.042 A  
DOCKED: ATOM     27  Cl  UNL     1     142.950  76.551 219.036 -0.45 +0.05    -0.080 Cl 
DOCKED: ATOM     28  Cl  UNL     1     146.326  73.382 221.916 -0.81 +0.02    -0.084 Cl 
DOCKED: ENDBRANCH  20  21
DOCKED: ENDBRANCH  19  20
DOCKED: ENDBRANCH  18  19
DOCKED: ENDBRANCH  17  18
DOCKED: ENDBRANCH   1  17
DOCKED: TORSDOF 11
DOCKED: TER
DOCKED: ENDMDL
________________________________________________________________________________


    CLUSTERING HISTOGRAM
    ____________________


________________________________________________________________________________
     |           |     |           |     |
Clus | Lowest    | Run | Mean      | Num | Histogram
-ter | Binding   |     | Binding   | in  |
Rank | Energy    |     | Energy    | Clus|    5    10   15   20   25   30   35
_____|___________|_____|___________|_____|____:____|____:____|____:____|____:___
   1 |     -7.21 |  11 |     -6.56 |  10 |##########
   2 |     -6.56 |  16 |     -6.56 |   1 |#
   3 |     -6.56 |  12 |     -6.38 |   2 |##
   4 |     -6.41 |  20 |     -6.10 |   3 |###
   5 |     -6.19 |  19 |     -6.19 |   1 |#
   6 |     -6.16 |  18 |     -6.16 |   1 |#
   7 |     -6.04 |   2 |     -6.04 |   1 |#
   8 |     -5.89 |   6 |     -5.89 |   1 |#
_____|___________|_____|___________|_____|______________________________________


    RMSD TABLE
    __________


_______________________________________________________________________
     |      |      |           |         |                 |
Rank | Sub- | Run  | Binding   | Cluster | Reference       | Grep
     | Rank |      | Energy    | RMSD    | RMSD            | Pattern
_____|______|______|___________|_________|_________________|___________
   1      1     11       -7.21      0.00    273.25           RANKING
   1      2     14       -7.06      1.74    273.38           RANKING
   1      3      9       -6.92      1.79    273.45           RANKING
   1      4      3       -6.80      1.06    273.11           RANKING
   1      5      8       -6.74      1.91    273.36           RANKING
   1      6     17       -6.73      1.80    273.40           RANKING
   1      7      7       -6.45      1.79    273.15           RANKING
   1      8     10       -6.20      1.46    273.09           RANKING
   1      9      5       -5.82      1.91    272.77           RANKING
   1     10     13       -5.71      1.95    272.93           RANKING
   2      1     16       -6.56      0.00    273.42           RANKING
   3      1     12       -6.56      0.00    273.07           RANKING
   3      2     15       -6.20      1.30    273.02           RANKING
   4      1     20       -6.41      0.00    272.49           RANKING
   4      2      1       -6.14      1.61    272.57           RANKING
   4      3      4       -5.75      1.54    272.41           RANKING
   5      1     19       -6.19      0.00    272.87           RANKING
   6      1     18       -6.16      0.00    272.93           RANKING
   7      1      2       -6.04      0.00    272.74           RANKING
   8      1      6       -5.89      0.00    272.76           RANKING

Run time 1.619 sec
Idle time 0.000 sec
