AutoDock-GPU version: v1.6

**********************************************************
**    AutoDock-GPU AUTODOCKTOOLS-COMPATIBLE DLG FILE    **
**********************************************************


    DOCKING PARAMETERS
    ________________________


Ligand file:                               /home/a/REINVENT4/ReinventStudies/scoringData/graph-dock/graph-DockGPU/node-autodockgpu/inputs/JFIDHXWBANSMLJ-DKPMIIEKNA-M.pdbqt
Grid fld file:                             /home/a/REINVENT4/ReinventStudies/mols/Rad51/maps/rad51_receptor.maps.fld

Random seed:                               42
Number of runs:                            20
Number of energy evaluations:              3765539
Number of generations:                     42000
Size of population:                        150
Rate of crossover:                         80.000000%
Tournament selection probability limit:    60.000000%
Rate of mutation:                          2.000000%
Maximal allowed delta movement:            +/- 6.000000A
Maximal allowed delta angle:               +/- 90.000000

Rate of local search:                      100.000000%
Maximal number of local search iterations: 300
Rho lower bound:                           0.010000
Spread of local search delta movement:     2.000000A
Spread of local search delta angle:        74.999999
Limit of consecutive successes/failures:   4

Handle symmetry during clustering:         YES
RMSD tolerance:                            2.000000A

Program call in command line was:          /home/a/REINVENT4/ReinventStudies/adgpu-v1.6_linux_x64_cuda12_128wi --filelist batch.txt --heuristics 1 --nrun 20 --psize 150 --lsit 300 --seed 42 --heurmax 12000000 


    GRID PARAMETERS
    ________________________


Receptor name:                             rad51_receptor
Number of grid points (x, y, z):           53, 53, 53
Grid center (x, y, z):                     139.950000, 75.640000, 221.970000A
Grid size (x, y, z):                       19.500000, 19.500000, 19.500000A
Grid spacing:                              0.375000A


    LIGAND PARAMETERS
    ________________________


Ligand name:                               /home/a/REINVENT4/ReinventStudies/scoringData/graph-dock/graph-DockGPU/node-autodockgpu/inputs/JFIDHXWBANSMLJ-DKPMIIEKNA-M
Number of atoms:                           39
Number of rotatable bonds:                 12
Number of atom types:                      8


    DUMMY DATA (only for ADT-compatibility)
    ________________________


DPF> outlev 1
DPF> ga_run 20
DPF> fld /home/a/REINVENT4/ReinventStudies/mols/Rad51/maps/rad51_receptor.maps.fld
DPF> move /home/a/REINVENT4/ReinventStudies/scoringData/graph-dock/graph-DockGPU/node-autodockgpu/inputs/JFIDHXWBANSMLJ-DKPMIIEKNA-M.pdbqt


    COUNTER STATES
    ________________________


Number of energy evaluations performed:    3364141
Number of generations used:                245


    INPUT LIGAND PDBQT FILE:
    ________________________


INPUT-LIGAND-PDBQT: REMARK SMILES COc1ccc([C@H](C)[N-]C(=O)[C@@H]2C[C@@H](O)CN2C(=O)C/N=C(/O)c2ccc3cc(F)ccc3n2)c(Cl)c1
INPUT-LIGAND-PDBQT: REMARK SMILES IDX 17 1 16 2 14 3 13 4 12 5 18 6 19 7 20 8 21 9 22 10 23 11
INPUT-LIGAND-PDBQT: REMARK SMILES IDX 24 13 34 14 25 15 33 16 26 17 32 18 27 19 31 20 28 21 29 22
INPUT-LIGAND-PDBQT: REMARK SMILES IDX 30 23 10 24 11 25 9 26 7 27 8 28 6 29 5 30 35 31 4 32 37 33
INPUT-LIGAND-PDBQT: REMARK SMILES IDX 3 34 36 35 2 36 1 37 15 38
INPUT-LIGAND-PDBQT: REMARK H PARENT 23 12 15 39
INPUT-LIGAND-PDBQT: ROOT
INPUT-LIGAND-PDBQT: ATOM      1  N   UNL     1       1.484   0.997  -1.380  1.00  0.00    -0.330 N 
INPUT-LIGAND-PDBQT: ATOM      2  C   UNL     1       2.874   0.568  -1.404  1.00  0.00     0.152 C 
INPUT-LIGAND-PDBQT: ATOM      3  C   UNL     1       3.508   1.296  -2.589  1.00  0.00     0.136 C 
INPUT-LIGAND-PDBQT: ATOM      4  C   UNL     1       2.564   2.454  -2.911  1.00  0.00     0.065 C 
INPUT-LIGAND-PDBQT: ATOM      5  C   UNL     1       1.199   2.037  -2.360  1.00  0.00     0.136 C 
INPUT-LIGAND-PDBQT: ENDROOT
INPUT-LIGAND-PDBQT: BRANCH   1   6
INPUT-LIGAND-PDBQT: ATOM      6  C   UNL     1       0.508   0.528  -0.429  1.00  0.00     0.245 C 
INPUT-LIGAND-PDBQT: ATOM      7  O   UNL     1      -0.652   1.021  -0.428  1.00  0.00    -0.273 OA
INPUT-LIGAND-PDBQT: BRANCH   6   8
INPUT-LIGAND-PDBQT: ATOM      8  C   UNL     1       0.851  -0.516   0.590  1.00  0.00     0.246 C 
INPUT-LIGAND-PDBQT: BRANCH   8   9
INPUT-LIGAND-PDBQT: ATOM      9  N   UNL     1       1.671   0.086   1.637  1.00  0.00    -0.240 NA
INPUT-LIGAND-PDBQT: BRANCH   9  10
INPUT-LIGAND-PDBQT: ATOM     10  C   UNL     1       2.290  -0.526   2.610  1.00  0.00     0.233 C 
INPUT-LIGAND-PDBQT: BRANCH  10  11
INPUT-LIGAND-PDBQT: ATOM     11  O   UNL     1       3.055   0.238   3.488  1.00  0.00    -0.492 OA
INPUT-LIGAND-PDBQT: ATOM     12  H   UNL     1       3.131   1.243   3.382  1.00  0.00     0.295 HD
INPUT-LIGAND-PDBQT: ENDBRANCH  10  11
INPUT-LIGAND-PDBQT: BRANCH  10  13
INPUT-LIGAND-PDBQT: ATOM     13  C   UNL     1       2.236  -1.997   2.822  1.00  0.00     0.125 A 
INPUT-LIGAND-PDBQT: ATOM     14  N   UNL     1       1.189  -2.734   2.358  1.00  0.00    -0.243 NA
INPUT-LIGAND-PDBQT: ATOM     15  C   UNL     1       3.255  -2.637   3.548  1.00  0.00     0.035 A 
INPUT-LIGAND-PDBQT: ATOM     16  C   UNL     1       1.100  -4.076   2.554  1.00  0.00     0.071 A 
INPUT-LIGAND-PDBQT: ATOM     17  C   UNL     1       3.193  -4.015   3.765  1.00  0.00     0.013 A 
INPUT-LIGAND-PDBQT: ATOM     18  C   UNL     1       0.006  -4.789   2.050  1.00  0.00     0.032 A 
INPUT-LIGAND-PDBQT: ATOM     19  C   UNL     1       2.113  -4.752   3.267  1.00  0.00     0.003 A 
INPUT-LIGAND-PDBQT: ATOM     20  C   UNL     1      -0.082  -6.170   2.253  1.00  0.00     0.041 A 
INPUT-LIGAND-PDBQT: ATOM     21  C   UNL     1       2.018  -6.137   3.466  1.00  0.00     0.049 A 
INPUT-LIGAND-PDBQT: ATOM     22  C   UNL     1       0.922  -6.843   2.958  1.00  0.00     0.123 A 
INPUT-LIGAND-PDBQT: ATOM     23  F   UNL     1       0.832  -8.182   3.149  1.00  0.00    -0.207 F 
INPUT-LIGAND-PDBQT: ENDBRANCH  10  13
INPUT-LIGAND-PDBQT: ENDBRANCH   9  10
INPUT-LIGAND-PDBQT: ENDBRANCH   8   9
INPUT-LIGAND-PDBQT: ENDBRANCH   6   8
INPUT-LIGAND-PDBQT: ENDBRANCH   1   6
INPUT-LIGAND-PDBQT: BRANCH   5  24
INPUT-LIGAND-PDBQT: ATOM     24  C   UNL     1       0.311   1.497  -3.459  1.00  0.00     0.075 C 
INPUT-LIGAND-PDBQT: ATOM     25  O   UNL     1       0.480   0.316  -3.864  1.00  0.00    -0.318 OA
INPUT-LIGAND-PDBQT: BRANCH  24  26
INPUT-LIGAND-PDBQT: ATOM     26  N   UNL     1      -0.678   2.307  -4.109  1.00  0.00    -0.645 NA
INPUT-LIGAND-PDBQT: BRANCH  26  27
INPUT-LIGAND-PDBQT: ATOM     27  C   UNL     1      -1.038   3.676  -3.745  1.00  0.00    -0.077 C 
INPUT-LIGAND-PDBQT: ATOM     28  C   UNL     1      -1.870   4.306  -4.862  1.00  0.00    -0.008 C 
INPUT-LIGAND-PDBQT: BRANCH  27  29
INPUT-LIGAND-PDBQT: ATOM     29  C   UNL     1      -1.790   3.719  -2.424  1.00  0.00    -0.044 A 
INPUT-LIGAND-PDBQT: ATOM     30  C   UNL     1      -1.412   4.683  -1.471  1.00  0.00     0.008 A 
INPUT-LIGAND-PDBQT: ATOM     31  C   UNL     1      -2.873   2.855  -2.122  1.00  0.00     0.046 A 
INPUT-LIGAND-PDBQT: ATOM     32  C   UNL     1      -2.061   4.766  -0.238  1.00  0.00     0.047 A 
INPUT-LIGAND-PDBQT: ATOM     33  C   UNL     1      -3.519   2.950  -0.883  1.00  0.00     0.067 A 
INPUT-LIGAND-PDBQT: ATOM     34  C   UNL     1      -3.119   3.895   0.066  1.00  0.00     0.120 A 
INPUT-LIGAND-PDBQT: ATOM     35  Cl  UNL     1      -3.462   1.635  -3.249  1.00  0.00    -0.084 Cl
INPUT-LIGAND-PDBQT: BRANCH  34  36
INPUT-LIGAND-PDBQT: ATOM     36  O   UNL     1      -3.799   3.935   1.292  1.00  0.00    -0.497 OA
INPUT-LIGAND-PDBQT: ATOM     37  C   UNL     1      -3.499   4.843   2.348  1.00  0.00     0.278 C 
INPUT-LIGAND-PDBQT: ENDBRANCH  34  36
INPUT-LIGAND-PDBQT: ENDBRANCH  27  29
INPUT-LIGAND-PDBQT: ENDBRANCH  26  27
INPUT-LIGAND-PDBQT: ENDBRANCH  24  26
INPUT-LIGAND-PDBQT: ENDBRANCH   5  24
INPUT-LIGAND-PDBQT: BRANCH   3  38
INPUT-LIGAND-PDBQT: ATOM     38  O   UNL     1       4.787   1.776  -2.268  1.00  0.00    -0.391 OA
INPUT-LIGAND-PDBQT: ATOM     39  H   UNL     1       5.397   0.992  -2.295  1.00  0.00     0.211 HD
INPUT-LIGAND-PDBQT: ENDBRANCH   3  38
INPUT-LIGAND-PDBQT: TORSDOF 12


    FINAL DOCKED STATE:
    ________________________


Run:   1 / 20
Time taken for this run:   0.200s

DOCKED: MODEL        1
DOCKED: USER    Run = 1
DOCKED: USER
DOCKED: USER    Estimated Free Energy of Binding    =  -6.66 kcal/mol  [=(1)+(2)+(3)-(4)]
DOCKED: USER
DOCKED: USER    (1) Final Intermolecular Energy     = -10.24 kcal/mol
DOCKED: USER        vdW + Hbond + desolv Energy     = -10.29 kcal/mol
DOCKED: USER        Electrostatic Energy            =  +0.05 kcal/mol
DOCKED: USER        Moving Ligand-Fixed Receptor    = -10.24 kcal/mol
DOCKED: USER        Moving Ligand-Moving Receptor   =  +0.00 kcal/mol
DOCKED: USER    (2) Final Total Internal Energy     =  -3.44 kcal/mol
DOCKED: USER    (3) Torsional Free Energy           =  +3.58 kcal/mol
DOCKED: USER    (4) Unbound System's Energy         =  -3.44 kcal/mol
DOCKED: USER
DOCKED: USER
DOCKED: REMARK SMILES COc1ccc([C@H](C)[N-]C(=O)[C@@H]2C[C@@H](O)CN2C(=O)C/N=C(/O)c2ccc3cc(F)ccc3n2)c(Cl)c1
DOCKED: REMARK SMILES IDX 17 1 16 2 14 3 13 4 12 5 18 6 19 7 20 8 21 9 22 10 23 11
DOCKED: REMARK SMILES IDX 24 13 34 14 25 15 33 16 26 17 32 18 27 19 31 20 28 21 29 22
DOCKED: REMARK SMILES IDX 30 23 10 24 11 25 9 26 7 27 8 28 6 29 5 30 35 31 4 32 37 33
DOCKED: REMARK SMILES IDX 3 34 36 35 2 36 1 37 15 38
DOCKED: REMARK H PARENT 23 12 15 39
DOCKED: USER                              x       y       z     vdW  Elec       q    Type
DOCKED: USER                           _______ _______ _______ _____ _____    ______ ____
DOCKED: ROOT
DOCKED: ATOM      1  N   UNL     1     136.963  75.114 221.761 -0.06 +0.08    -0.330 N  
DOCKED: ATOM      2  C   UNL     1     136.199  75.904 222.714 -0.18 -0.03    +0.152 C  
DOCKED: ATOM      3  C   UNL     1     136.855  77.285 222.722 -0.18 -0.02    +0.136 C  
DOCKED: ATOM      4  C   UNL     1     137.681  77.353 221.438 -0.13 -0.01    +0.065 C  
DOCKED: ATOM      5  C   UNL     1     137.967  75.899 221.055 -0.11 -0.03    +0.136 C  
DOCKED: ENDROOT
DOCKED: BRANCH   1   6
DOCKED: ATOM      6  C   UNL     1     136.700  73.729 221.462 -0.06 -0.06    +0.245 C  
DOCKED: ATOM      7  O   UNL     1     135.972  73.428 220.478 -0.01 +0.05    -0.273 OA 
DOCKED: BRANCH   6   8
DOCKED: ATOM      8  C   UNL     1     137.247  72.628 222.319 -0.09 -0.07    +0.246 C  
DOCKED: BRANCH   8   9
DOCKED: ATOM      9  N   UNL     1     138.613  72.329 221.903 -0.10 +0.06    -0.240 NA 
DOCKED: BRANCH   9  10
DOCKED: ATOM     10  C   UNL     1     139.665  72.200 222.665 -0.21 -0.05    +0.233 C  
DOCKED: BRANCH  10  11
DOCKED: ATOM     11  O   UNL     1     140.774  73.000 222.400 -0.53 +0.00    -0.492 OA 
DOCKED: ATOM     12  H   UNL     1     140.715  73.787 221.763 +0.10 -0.02    +0.295 HD 
DOCKED: ENDBRANCH  10  11
DOCKED: BRANCH  10  13
DOCKED: ATOM     13  C   UNL     1     139.750  71.233 223.792 -0.33 -0.02    +0.125 A  
DOCKED: ATOM     14  N   UNL     1     140.311  71.589 224.981 -0.30 +0.04    -0.243 NA 
DOCKED: ATOM     15  C   UNL     1     139.286  69.918 223.622 -0.27 -0.01    +0.035 A  
DOCKED: ATOM     16  C   UNL     1     140.423  70.723 226.022 -0.53 -0.01    +0.071 A  
DOCKED: ATOM     17  C   UNL     1     139.385  69.004 224.673 -0.36 -0.00    +0.013 A  
DOCKED: ATOM     18  C   UNL     1     141.001  71.142 227.226 -0.69 -0.01    +0.032 A  
DOCKED: ATOM     19  C   UNL     1     139.954  69.399 225.889 -0.48 -0.00    +0.003 A  
DOCKED: ATOM     20  C   UNL     1     141.114  70.247 228.295 -0.51 -0.01    +0.041 A  
DOCKED: ATOM     21  C   UNL     1     140.070  68.508 226.966 -0.59 -0.01    +0.049 A  
DOCKED: ATOM     22  C   UNL     1     140.648  68.934 228.167 -0.54 -0.03    +0.123 A  
DOCKED: ATOM     23  F   UNL     1     140.758  68.073 229.208 -0.15 +0.05    -0.207 F  
DOCKED: ENDBRANCH  10  13
DOCKED: ENDBRANCH   9  10
DOCKED: ENDBRANCH   8   9
DOCKED: ENDBRANCH   6   8
DOCKED: ENDBRANCH   1   6
DOCKED: BRANCH   5  24
DOCKED: ATOM     24  C   UNL     1     139.358  75.488 221.487 -0.25 -0.02    +0.075 C  
DOCKED: ATOM     25  O   UNL     1     139.602  75.331 222.713 -0.50 +0.03    -0.318 OA 
DOCKED: BRANCH  24  26
DOCKED: ATOM     26  N   UNL     1     140.434  75.335 220.551 +0.02 +0.17    -0.645 NA 
DOCKED: BRANCH  26  27
DOCKED: ATOM     27  C   UNL     1     141.789  75.857 220.712 -0.22 +0.04    -0.077 C  
DOCKED: ATOM     28  C   UNL     1     142.782  74.950 219.983 -0.33 +0.00    -0.008 C  
DOCKED: BRANCH  27  29
DOCKED: ATOM     29  C   UNL     1     141.897  77.287 220.208 -0.29 +0.03    -0.044 A  
DOCKED: ATOM     30  C   UNL     1     142.261  77.498 218.865 -0.30 -0.00    +0.008 A  
DOCKED: ATOM     31  C   UNL     1     141.617  78.416 221.020 -0.32 -0.03    +0.046 A  
DOCKED: ATOM     32  C   UNL     1     142.382  78.788 218.348 -0.29 -0.04    +0.047 A  
DOCKED: ATOM     33  C   UNL     1     141.738  79.706 220.489 -0.29 -0.03    +0.067 A  
DOCKED: ATOM     34  C   UNL     1     142.125  79.904 219.160 -0.25 -0.08    +0.120 A  
DOCKED: ATOM     35  Cl  UNL     1     141.115  78.279 222.703 -0.61 +0.03    -0.084 Cl 
DOCKED: BRANCH  34  36
DOCKED: ATOM     36  O   UNL     1     142.238  81.220 218.690 -0.12 +0.28    -0.497 OA 
DOCKED: ATOM     37  C   UNL     1     142.868  81.585 217.465 -0.22 -0.26    +0.278 C  
DOCKED: ENDBRANCH  34  36
DOCKED: ENDBRANCH  27  29
DOCKED: ENDBRANCH  26  27
DOCKED: ENDBRANCH  24  26
DOCKED: ENDBRANCH   5  24
DOCKED: BRANCH   3  38
DOCKED: ATOM     38  O   UNL     1     135.893  78.306 222.745 -0.06 +0.06    -0.391 OA 
DOCKED: ATOM     39  H   UNL     1     135.007  77.858 222.775 +0.04 -0.03    +0.211 HD 
DOCKED: ENDBRANCH   3  38
DOCKED: TORSDOF 12
DOCKED: TER
DOCKED: ENDMDL
________________________________________________________________________________


    FINAL DOCKED STATE:
    ________________________


Run:   2 / 20
Time taken for this run:   0.200s

DOCKED: MODEL        2
DOCKED: USER    Run = 2
DOCKED: USER
DOCKED: USER    Estimated Free Energy of Binding    =  -5.43 kcal/mol  [=(1)+(2)+(3)-(4)]
DOCKED: USER
DOCKED: USER    (1) Final Intermolecular Energy     =  -9.01 kcal/mol
DOCKED: USER        vdW + Hbond + desolv Energy     =  -9.32 kcal/mol
DOCKED: USER        Electrostatic Energy            =  +0.31 kcal/mol
DOCKED: USER        Moving Ligand-Fixed Receptor    =  -9.01 kcal/mol
DOCKED: USER        Moving Ligand-Moving Receptor   =  +0.00 kcal/mol
DOCKED: USER    (2) Final Total Internal Energy     =  -5.11 kcal/mol
DOCKED: USER    (3) Torsional Free Energy           =  +3.58 kcal/mol
DOCKED: USER    (4) Unbound System's Energy         =  -5.11 kcal/mol
DOCKED: USER
DOCKED: USER
DOCKED: REMARK SMILES COc1ccc([C@H](C)[N-]C(=O)[C@@H]2C[C@@H](O)CN2C(=O)C/N=C(/O)c2ccc3cc(F)ccc3n2)c(Cl)c1
DOCKED: REMARK SMILES IDX 17 1 16 2 14 3 13 4 12 5 18 6 19 7 20 8 21 9 22 10 23 11
DOCKED: REMARK SMILES IDX 24 13 34 14 25 15 33 16 26 17 32 18 27 19 31 20 28 21 29 22
DOCKED: REMARK SMILES IDX 30 23 10 24 11 25 9 26 7 27 8 28 6 29 5 30 35 31 4 32 37 33
DOCKED: REMARK SMILES IDX 3 34 36 35 2 36 1 37 15 38
DOCKED: REMARK H PARENT 23 12 15 39
DOCKED: USER                              x       y       z     vdW  Elec       q    Type
DOCKED: USER                           _______ _______ _______ _____ _____    ______ ____
DOCKED: ROOT
DOCKED: ATOM      1  N   UNL     1     142.757  73.514 220.431 -0.12 +0.07    -0.330 N  
DOCKED: ATOM      2  C   UNL     1     143.859  72.565 220.491 -0.27 -0.02    +0.152 C  
DOCKED: ATOM      3  C   UNL     1     145.121  73.384 220.221 -0.45 -0.01    +0.136 C  
DOCKED: ATOM      4  C   UNL     1     144.726  74.840 220.468 -0.26 -0.03    +0.065 C  
DOCKED: ATOM      5  C   UNL     1     143.208  74.891 220.280 -0.27 -0.06    +0.136 C  
DOCKED: ENDROOT
DOCKED: BRANCH   1   6
DOCKED: ATOM      6  C   UNL     1     141.372  73.157 220.604 -0.14 -0.04    +0.245 C  
DOCKED: ATOM      7  O   UNL     1     140.657  72.917 219.594 -0.03 +0.05    -0.273 OA 
DOCKED: BRANCH   6   8
DOCKED: ATOM      8  C   UNL     1     140.745  73.099 221.964 -0.19 -0.01    +0.246 C  
DOCKED: BRANCH   8   9
DOCKED: ATOM      9  N   UNL     1     139.883  74.262 222.146 -0.76 +0.02    -0.240 NA 
DOCKED: BRANCH   9  10
DOCKED: ATOM     10  C   UNL     1     139.886  75.368 221.453 -0.22 -0.05    +0.233 C  
DOCKED: BRANCH  10  11
DOCKED: ATOM     11  O   UNL     1     139.707  75.282 220.074 +0.00 +0.12    -0.492 OA 
DOCKED: ATOM     12  H   UNL     1     140.482  75.078 219.455 +0.07 -0.08    +0.295 HD 
DOCKED: ENDBRANCH  10  11
DOCKED: BRANCH  10  13
DOCKED: ATOM     13  C   UNL     1     140.087  76.714 222.053 -0.31 -0.03    +0.125 A  
DOCKED: ATOM     14  N   UNL     1     141.327  77.274 222.119 -0.16 +0.12    -0.243 NA 
DOCKED: ATOM     15  C   UNL     1     138.994  77.407 222.600 -0.29 -0.01    +0.035 A  
DOCKED: ATOM     16  C   UNL     1     141.547  78.492 222.680 -0.44 -0.03    +0.071 A  
DOCKED: ATOM     17  C   UNL     1     139.187  78.661 223.182 -0.32 -0.00    +0.013 A  
DOCKED: ATOM     18  C   UNL     1     142.840  79.026 222.717 -0.27 -0.02    +0.032 A  
DOCKED: ATOM     19  C   UNL     1     140.469  79.220 223.227 -0.46 -0.00    +0.003 A  
DOCKED: ATOM     20  C   UNL     1     143.063  80.280 223.294 -0.62 -0.01    +0.041 A  
DOCKED: ATOM     21  C   UNL     1     140.700  80.477 223.804 -0.41 -0.01    +0.049 A  
DOCKED: ATOM     22  C   UNL     1     141.995  81.005 223.835 -0.52 -0.02    +0.123 A  
DOCKED: ATOM     23  F   UNL     1     142.217  82.221 224.391 -0.05 +0.00    -0.207 F  
DOCKED: ENDBRANCH  10  13
DOCKED: ENDBRANCH   9  10
DOCKED: ENDBRANCH   8   9
DOCKED: ENDBRANCH   6   8
DOCKED: ENDBRANCH   1   6
DOCKED: BRANCH   5  24
DOCKED: ATOM     24  C   UNL     1     142.848  75.416 218.908 -0.24 -0.03    +0.075 C  
DOCKED: ATOM     25  O   UNL     1     143.422  74.937 217.894 -0.10 +0.13    -0.318 OA 
DOCKED: BRANCH  24  26
DOCKED: ATOM     26  N   UNL     1     141.921  76.495 218.723 +0.03 +0.30    -0.645 NA 
DOCKED: BRANCH  26  27
DOCKED: ATOM     27  C   UNL     1     142.243  77.821 218.201 -0.26 +0.05    -0.077 C  
DOCKED: ATOM     28  C   UNL     1     141.950  77.872 216.701 -0.17 +0.01    -0.008 C  
DOCKED: BRANCH  27  29
DOCKED: ATOM     29  C   UNL     1     141.475  78.908 218.936 -0.21 +0.02    -0.044 A  
DOCKED: ATOM     30  C   UNL     1     142.199  79.983 219.484 -0.28 -0.00    +0.008 A  
DOCKED: ATOM     31  C   UNL     1     140.064  78.904 219.068 -0.08 -0.02    +0.046 A  
DOCKED: ATOM     32  C   UNL     1     141.550  81.007 220.176 -0.29 -0.02    +0.047 A  
DOCKED: ATOM     33  C   UNL     1     139.423  79.938 219.761 -0.07 -0.02    +0.067 A  
DOCKED: ATOM     34  C   UNL     1     140.154  80.989 220.323 -0.13 -0.03    +0.120 A  
DOCKED: ATOM     35  Cl  UNL     1     139.047  77.633 218.391 -0.03 +0.02    -0.084 Cl 
DOCKED: BRANCH  34  36
DOCKED: ATOM     36  O   UNL     1     139.456  81.990 221.013 -0.03 +0.09    -0.497 OA 
DOCKED: ATOM     37  C   UNL     1     139.977  83.286 221.293 -0.14 -0.04    +0.278 C  
DOCKED: ENDBRANCH  34  36
DOCKED: ENDBRANCH  27  29
DOCKED: ENDBRANCH  26  27
DOCKED: ENDBRANCH  24  26
DOCKED: ENDBRANCH   5  24
DOCKED: BRANCH   3  38
DOCKED: ATOM     38  O   UNL     1     146.168  73.005 221.074 -0.40 +0.01    -0.391 OA 
DOCKED: ATOM     39  H   UNL     1     145.892  72.148 221.495 -0.44 -0.11    +0.211 HD 
DOCKED: ENDBRANCH   3  38
DOCKED: TORSDOF 12
DOCKED: TER
DOCKED: ENDMDL
________________________________________________________________________________


    FINAL DOCKED STATE:
    ________________________


Run:   3 / 20
Time taken for this run:   0.200s

DOCKED: MODEL        3
DOCKED: USER    Run = 3
DOCKED: USER
DOCKED: USER    Estimated Free Energy of Binding    =  -8.02 kcal/mol  [=(1)+(2)+(3)-(4)]
DOCKED: USER
DOCKED: USER    (1) Final Intermolecular Energy     = -11.60 kcal/mol
DOCKED: USER        vdW + Hbond + desolv Energy     = -11.66 kcal/mol
DOCKED: USER        Electrostatic Energy            =  +0.06 kcal/mol
DOCKED: USER        Moving Ligand-Fixed Receptor    = -11.60 kcal/mol
DOCKED: USER        Moving Ligand-Moving Receptor   =  +0.00 kcal/mol
DOCKED: USER    (2) Final Total Internal Energy     =  -2.94 kcal/mol
DOCKED: USER    (3) Torsional Free Energy           =  +3.58 kcal/mol
DOCKED: USER    (4) Unbound System's Energy         =  -2.94 kcal/mol
DOCKED: USER
DOCKED: USER
DOCKED: REMARK SMILES COc1ccc([C@H](C)[N-]C(=O)[C@@H]2C[C@@H](O)CN2C(=O)C/N=C(/O)c2ccc3cc(F)ccc3n2)c(Cl)c1
DOCKED: REMARK SMILES IDX 17 1 16 2 14 3 13 4 12 5 18 6 19 7 20 8 21 9 22 10 23 11
DOCKED: REMARK SMILES IDX 24 13 34 14 25 15 33 16 26 17 32 18 27 19 31 20 28 21 29 22
DOCKED: REMARK SMILES IDX 30 23 10 24 11 25 9 26 7 27 8 28 6 29 5 30 35 31 4 32 37 33
DOCKED: REMARK SMILES IDX 3 34 36 35 2 36 1 37 15 38
DOCKED: REMARK H PARENT 23 12 15 39
DOCKED: USER                              x       y       z     vdW  Elec       q    Type
DOCKED: USER                           _______ _______ _______ _____ _____    ______ ____
DOCKED: ROOT
DOCKED: ATOM      1  N   UNL     1     142.908  72.369 219.581 -0.04 +0.05    -0.330 N  
DOCKED: ATOM      2  C   UNL     1     144.208  71.995 219.044 -0.16 +0.01    +0.152 C  
DOCKED: ATOM      3  C   UNL     1     145.191  73.028 219.593 -0.35 +0.01    +0.136 C  
DOCKED: ATOM      4  C   UNL     1     144.483  73.678 220.781 -0.43 -0.02    +0.065 C  
DOCKED: ATOM      5  C   UNL     1     142.987  73.470 220.532 -0.23 -0.03    +0.136 C  
DOCKED: ENDROOT
DOCKED: BRANCH   1   6
DOCKED: ATOM      6  C   UNL     1     141.681  71.672 219.291 -0.04 -0.04    +0.245 C  
DOCKED: ATOM      7  O   UNL     1     141.231  71.659 218.113 -0.01 +0.05    -0.273 OA 
DOCKED: BRANCH   6   8
DOCKED: ATOM      8  C   UNL     1     140.901  70.983 220.370 -0.07 -0.04    +0.246 C  
DOCKED: BRANCH   8   9
DOCKED: ATOM      9  N   UNL     1     139.944  71.923 220.946 -0.07 +0.04    -0.240 NA 
DOCKED: BRANCH   9  10
DOCKED: ATOM     10  C   UNL     1     139.929  72.394 222.163 -0.21 -0.04    +0.233 C  
DOCKED: BRANCH  10  11
DOCKED: ATOM     11  O   UNL     1     139.992  73.774 222.337 -0.75 +0.03    -0.492 OA 
DOCKED: ATOM     12  H   UNL     1     140.311  74.384 221.593 +0.09 -0.04    +0.295 HD 
DOCKED: ENDBRANCH  10  11
DOCKED: BRANCH  10  13
DOCKED: ATOM     13  C   UNL     1     139.866  71.535 223.376 -0.31 -0.02    +0.125 A  
DOCKED: ATOM     14  N   UNL     1     140.455  71.922 224.541 -0.24 +0.04    -0.243 NA 
DOCKED: ATOM     15  C   UNL     1     139.227  70.285 223.315 -0.26 -0.01    +0.035 A  
DOCKED: ATOM     16  C   UNL     1     140.433  71.151 225.660 -0.53 -0.01    +0.071 A  
DOCKED: ATOM     17  C   UNL     1     139.186  69.469 224.447 -0.34 -0.00    +0.013 A  
DOCKED: ATOM     18  C   UNL     1     141.048  71.598 226.835 -0.72 -0.01    +0.032 A  
DOCKED: ATOM     19  C   UNL     1     139.788  69.896 225.636 -0.46 -0.00    +0.003 A  
DOCKED: ATOM     20  C   UNL     1     141.022  70.802 227.984 -0.65 -0.01    +0.041 A  
DOCKED: ATOM     21  C   UNL     1     139.766  69.103 226.793 -0.52 -0.01    +0.049 A  
DOCKED: ATOM     22  C   UNL     1     140.382  69.558 227.964 -0.52 -0.02    +0.123 A  
DOCKED: ATOM     23  F   UNL     1     140.359  68.792 229.083 -0.13 +0.04    -0.207 F  
DOCKED: ENDBRANCH  10  13
DOCKED: ENDBRANCH   9  10
DOCKED: ENDBRANCH   8   9
DOCKED: ENDBRANCH   6   8
DOCKED: ENDBRANCH   1   6
DOCKED: BRANCH   5  24
DOCKED: ATOM     24  C   UNL     1     142.355  74.716 219.951 -0.24 -0.03    +0.075 C  
DOCKED: ATOM     25  O   UNL     1     143.016  75.425 219.146 -0.17 +0.15    -0.318 OA 
DOCKED: BRANCH  24  26
DOCKED: ATOM     26  N   UNL     1     141.048  75.160 220.338 +0.02 +0.19    -0.645 NA 
DOCKED: BRANCH  26  27
DOCKED: ATOM     27  C   UNL     1     140.493  76.493 220.108 -0.15 +0.03    -0.077 C  
DOCKED: ATOM     28  C   UNL     1     138.967  76.435 220.170 -0.09 +0.00    -0.008 C  
DOCKED: BRANCH  27  29
DOCKED: ATOM     29  C   UNL     1     141.035  77.499 221.112 -0.29 +0.02    -0.044 A  
DOCKED: ATOM     30  C   UNL     1     140.972  77.178 222.480 -0.41 -0.00    +0.008 A  
DOCKED: ATOM     31  C   UNL     1     141.628  78.729 220.730 -0.30 -0.03    +0.046 A  
DOCKED: ATOM     32  C   UNL     1     141.447  78.064 223.448 -0.44 -0.02    +0.047 A  
DOCKED: ATOM     33  C   UNL     1     142.105  79.609 221.710 -0.40 -0.03    +0.067 A  
DOCKED: ATOM     34  C   UNL     1     142.014  79.291 223.068 -0.50 -0.04    +0.120 A  
DOCKED: ATOM     35  Cl  UNL     1     141.799  79.224 219.048 -0.35 +0.05    -0.084 Cl 
DOCKED: BRANCH  34  36
DOCKED: ATOM     36  O   UNL     1     142.501  80.217 224.002 -0.22 +0.11    -0.497 OA 
DOCKED: ATOM     37  C   UNL     1     142.210  81.612 223.977 -0.30 -0.03    +0.278 C  
DOCKED: ENDBRANCH  34  36
DOCKED: ENDBRANCH  27  29
DOCKED: ENDBRANCH  26  27
DOCKED: ENDBRANCH  24  26
DOCKED: ENDBRANCH   5  24
DOCKED: BRANCH   3  38
DOCKED: ATOM     38  O   UNL     1     146.390  72.424 220.003 -0.46 -0.26    -0.391 OA 
DOCKED: ATOM     39  H   UNL     1     146.171  71.881 220.806 -0.42 -0.02    +0.211 HD 
DOCKED: ENDBRANCH   3  38
DOCKED: TORSDOF 12
DOCKED: TER
DOCKED: ENDMDL
________________________________________________________________________________


    FINAL DOCKED STATE:
    ________________________


Run:   4 / 20
Time taken for this run:   0.200s

DOCKED: MODEL        4
DOCKED: USER    Run = 4
DOCKED: USER
DOCKED: USER    Estimated Free Energy of Binding    =  -6.68 kcal/mol  [=(1)+(2)+(3)-(4)]
DOCKED: USER
DOCKED: USER    (1) Final Intermolecular Energy     = -10.26 kcal/mol
DOCKED: USER        vdW + Hbond + desolv Energy     = -10.39 kcal/mol
DOCKED: USER        Electrostatic Energy            =  +0.13 kcal/mol
DOCKED: USER        Moving Ligand-Fixed Receptor    = -10.26 kcal/mol
DOCKED: USER        Moving Ligand-Moving Receptor   =  +0.00 kcal/mol
DOCKED: USER    (2) Final Total Internal Energy     =  -3.78 kcal/mol
DOCKED: USER    (3) Torsional Free Energy           =  +3.58 kcal/mol
DOCKED: USER    (4) Unbound System's Energy         =  -3.78 kcal/mol
DOCKED: USER
DOCKED: USER
DOCKED: REMARK SMILES COc1ccc([C@H](C)[N-]C(=O)[C@@H]2C[C@@H](O)CN2C(=O)C/N=C(/O)c2ccc3cc(F)ccc3n2)c(Cl)c1
DOCKED: REMARK SMILES IDX 17 1 16 2 14 3 13 4 12 5 18 6 19 7 20 8 21 9 22 10 23 11
DOCKED: REMARK SMILES IDX 24 13 34 14 25 15 33 16 26 17 32 18 27 19 31 20 28 21 29 22
DOCKED: REMARK SMILES IDX 30 23 10 24 11 25 9 26 7 27 8 28 6 29 5 30 35 31 4 32 37 33
DOCKED: REMARK SMILES IDX 3 34 36 35 2 36 1 37 15 38
DOCKED: REMARK H PARENT 23 12 15 39
DOCKED: USER                              x       y       z     vdW  Elec       q    Type
DOCKED: USER                           _______ _______ _______ _____ _____    ______ ____
DOCKED: ROOT
DOCKED: ATOM      1  N   UNL     1     135.833  73.536 223.200 -0.09 +0.09    -0.330 N  
DOCKED: ATOM      2  C   UNL     1     135.422  73.359 224.585 -0.16 -0.03    +0.152 C  
DOCKED: ATOM      3  C   UNL     1     135.204  74.770 225.131 -0.25 -0.01    +0.136 C  
DOCKED: ATOM      4  C   UNL     1     135.062  75.668 223.903 -0.24 -0.01    +0.065 C  
DOCKED: ATOM      5  C   UNL     1     135.770  74.926 222.767 -0.15 -0.03    +0.136 C  
DOCKED: ENDROOT
DOCKED: BRANCH   1   6
DOCKED: ATOM      6  C   UNL     1     136.170  72.453 222.311 -0.07 -0.05    +0.245 C  
DOCKED: ATOM      7  O   UNL     1     135.730  71.294 222.541 -0.04 +0.05    -0.273 OA 
DOCKED: BRANCH   6   8
DOCKED: ATOM      8  C   UNL     1     137.066  72.665 221.129 -0.04 -0.05    +0.246 C  
DOCKED: BRANCH   8   9
DOCKED: ATOM      9  N   UNL     1     138.406  72.183 221.450 -0.06 +0.05    -0.240 NA 
DOCKED: BRANCH   9  10
DOCKED: ATOM     10  C   UNL     1     139.103  72.434 222.524 -0.09 -0.06    +0.233 C  
DOCKED: BRANCH  10  11
DOCKED: ATOM     11  O   UNL     1     139.700  73.687 222.644 -0.59 +0.06    -0.492 OA 
DOCKED: ATOM     12  H   UNL     1     139.142  74.528 222.740 -0.43 -0.08    +0.295 HD 
DOCKED: ENDBRANCH  10  11
DOCKED: BRANCH  10  13
DOCKED: ATOM     13  C   UNL     1     139.310  71.450 223.620 -0.28 -0.03    +0.125 A  
DOCKED: ATOM     14  N   UNL     1     139.957  71.801 224.765 -0.18 +0.05    -0.243 NA 
DOCKED: ATOM     15  C   UNL     1     138.871  70.124 223.460 -0.25 -0.01    +0.035 A  
DOCKED: ATOM     16  C   UNL     1     140.179  70.919 225.775 -0.50 -0.01    +0.071 A  
DOCKED: ATOM     17  C   UNL     1     139.084  69.195 224.481 -0.35 -0.00    +0.013 A  
DOCKED: ATOM     18  C   UNL     1     140.843  71.333 226.936 -0.69 -0.01    +0.032 A  
DOCKED: ATOM     19  C   UNL     1     139.740  69.584 225.653 -0.45 -0.00    +0.003 A  
DOCKED: ATOM     20  C   UNL     1     141.070  70.423 227.974 -0.60 -0.01    +0.041 A  
DOCKED: ATOM     21  C   UNL     1     139.971  68.677 226.698 -0.56 -0.01    +0.049 A  
DOCKED: ATOM     22  C   UNL     1     140.634  69.099 227.856 -0.53 -0.02    +0.123 A  
DOCKED: ATOM     23  F   UNL     1     140.855  68.223 228.867 -0.19 +0.05    -0.207 F  
DOCKED: ENDBRANCH  10  13
DOCKED: ENDBRANCH   9  10
DOCKED: ENDBRANCH   8   9
DOCKED: ENDBRANCH   6   8
DOCKED: ENDBRANCH   1   6
DOCKED: BRANCH   5  24
DOCKED: ATOM     24  C   UNL     1     137.162  75.473 222.545 -0.18 -0.02    +0.075 C  
DOCKED: ATOM     25  O   UNL     1     137.764  76.034 223.499 -0.11 +0.09    -0.318 OA 
DOCKED: BRANCH  24  26
DOCKED: ATOM     26  N   UNL     1     137.801  75.436 221.262 +0.02 +0.14    -0.645 NA 
DOCKED: BRANCH  26  27
DOCKED: ATOM     27  C   UNL     1     138.382  76.580 220.562 -0.08 +0.02    -0.077 C  
DOCKED: ATOM     28  C   UNL     1     137.269  77.451 219.980 -0.03 +0.00    -0.008 C  
DOCKED: BRANCH  27  29
DOCKED: ATOM     29  C   UNL     1     139.279  77.396 221.481 -0.20 +0.01    -0.044 A  
DOCKED: ATOM     30  C   UNL     1     138.734  78.531 222.110 -0.23 -0.00    +0.008 A  
DOCKED: ATOM     31  C   UNL     1     140.625  77.047 221.757 -0.34 -0.02    +0.046 A  
DOCKED: ATOM     32  C   UNL     1     139.510  79.322 222.959 -0.33 -0.01    +0.047 A  
DOCKED: ATOM     33  C   UNL     1     141.393  77.847 222.613 -0.35 -0.03    +0.067 A  
DOCKED: ATOM     34  C   UNL     1     140.849  78.986 223.213 -0.42 -0.03    +0.120 A  
DOCKED: ATOM     35  Cl  UNL     1     141.405  75.629 221.060 -0.37 +0.03    -0.084 Cl 
DOCKED: BRANCH  34  36
DOCKED: ATOM     36  O   UNL     1     141.671  79.751 224.054 -0.18 +0.10    -0.497 OA 
DOCKED: ATOM     37  C   UNL     1     142.793  80.508 223.608 -0.44 -0.06    +0.278 C  
DOCKED: ENDBRANCH  34  36
DOCKED: ENDBRANCH  27  29
DOCKED: ENDBRANCH  26  27
DOCKED: ENDBRANCH  24  26
DOCKED: ENDBRANCH   5  24
DOCKED: BRANCH   3  38
DOCKED: ATOM     38  O   UNL     1     134.050  74.836 225.927 -0.42 -0.01    -0.391 OA 
DOCKED: ATOM     39  H   UNL     1     133.319  75.161 225.337 +0.08 -0.01    +0.211 HD 
DOCKED: ENDBRANCH   3  38
DOCKED: TORSDOF 12
DOCKED: TER
DOCKED: ENDMDL
________________________________________________________________________________


    FINAL DOCKED STATE:
    ________________________


Run:   5 / 20
Time taken for this run:   0.200s

DOCKED: MODEL        5
DOCKED: USER    Run = 5
DOCKED: USER
DOCKED: USER    Estimated Free Energy of Binding    =  -7.19 kcal/mol  [=(1)+(2)+(3)-(4)]
DOCKED: USER
DOCKED: USER    (1) Final Intermolecular Energy     = -10.77 kcal/mol
DOCKED: USER        vdW + Hbond + desolv Energy     =  -9.96 kcal/mol
DOCKED: USER        Electrostatic Energy            =  -0.81 kcal/mol
DOCKED: USER        Moving Ligand-Fixed Receptor    = -10.77 kcal/mol
DOCKED: USER        Moving Ligand-Moving Receptor   =  +0.00 kcal/mol
DOCKED: USER    (2) Final Total Internal Energy     =  -3.45 kcal/mol
DOCKED: USER    (3) Torsional Free Energy           =  +3.58 kcal/mol
DOCKED: USER    (4) Unbound System's Energy         =  -3.45 kcal/mol
DOCKED: USER
DOCKED: USER
DOCKED: REMARK SMILES COc1ccc([C@H](C)[N-]C(=O)[C@@H]2C[C@@H](O)CN2C(=O)C/N=C(/O)c2ccc3cc(F)ccc3n2)c(Cl)c1
DOCKED: REMARK SMILES IDX 17 1 16 2 14 3 13 4 12 5 18 6 19 7 20 8 21 9 22 10 23 11
DOCKED: REMARK SMILES IDX 24 13 34 14 25 15 33 16 26 17 32 18 27 19 31 20 28 21 29 22
DOCKED: REMARK SMILES IDX 30 23 10 24 11 25 9 26 7 27 8 28 6 29 5 30 35 31 4 32 37 33
DOCKED: REMARK SMILES IDX 3 34 36 35 2 36 1 37 15 38
DOCKED: REMARK H PARENT 23 12 15 39
DOCKED: USER                              x       y       z     vdW  Elec       q    Type
DOCKED: USER                           _______ _______ _______ _____ _____    ______ ____
DOCKED: ROOT
DOCKED: ATOM      1  N   UNL     1     143.350  69.519 219.396 -0.08 +0.02    -0.330 N  
DOCKED: ATOM      2  C   UNL     1     142.581  68.740 218.437 -0.09 -0.03    +0.152 C  
DOCKED: ATOM      3  C   UNL     1     143.584  67.792 217.780 -0.12 -0.05    +0.136 C  
DOCKED: ATOM      4  C   UNL     1     144.791  67.760 218.716 -0.33 -0.01    +0.065 C  
DOCKED: ATOM      5  C   UNL     1     144.730  69.066 219.511 -0.22 +0.02    +0.136 C  
DOCKED: ENDROOT
DOCKED: BRANCH   1   6
DOCKED: ATOM      6  C   UNL     1     142.796  70.560 220.223 +0.11 -0.02    +0.245 C  
DOCKED: ATOM      7  O   UNL     1     143.563  71.295 220.902 -0.18 +0.04    -0.273 OA 
DOCKED: BRANCH   6   8
DOCKED: ATOM      8  C   UNL     1     141.316  70.771 220.325 -0.05 -0.03    +0.246 C  
DOCKED: BRANCH   8   9
DOCKED: ATOM      9  N   UNL     1     141.055  72.133 220.780 -0.10 +0.03    -0.240 NA 
DOCKED: BRANCH   9  10
DOCKED: ATOM     10  C   UNL     1     140.479  72.502 221.892 -0.21 -0.03    +0.233 C  
DOCKED: BRANCH  10  11
DOCKED: ATOM     11  O   UNL     1     140.055  73.823 222.008 -0.70 +0.05    -0.492 OA 
DOCKED: ATOM     12  H   UNL     1     140.475  74.561 221.456 +0.10 -0.05    +0.295 HD 
DOCKED: ENDBRANCH  10  11
DOCKED: BRANCH  10  13
DOCKED: ATOM     13  C   UNL     1     140.268  71.591 223.049 -0.30 -0.02    +0.125 A  
DOCKED: ATOM     14  N   UNL     1     140.739  71.909 224.286 -0.20 +0.02    -0.243 NA 
DOCKED: ATOM     15  C   UNL     1     139.611  70.363 222.861 -0.22 -0.01    +0.035 A  
DOCKED: ATOM     16  C   UNL     1     140.581  71.088 225.358 -0.51 -0.01    +0.071 A  
DOCKED: ATOM     17  C   UNL     1     139.431  69.499 223.943 -0.28 -0.00    +0.013 A  
DOCKED: ATOM     18  C   UNL     1     141.078  71.465 226.612 -0.69 -0.00    +0.032 A  
DOCKED: ATOM     19  C   UNL     1     139.914  69.854 225.208 -0.43 -0.00    +0.003 A  
DOCKED: ATOM     20  C   UNL     1     140.912  70.619 227.713 -0.62 -0.01    +0.041 A  
DOCKED: ATOM     21  C   UNL     1     139.751  69.011 226.317 -0.49 -0.01    +0.049 A  
DOCKED: ATOM     22  C   UNL     1     140.249  69.395 227.566 -0.51 -0.02    +0.123 A  
DOCKED: ATOM     23  F   UNL     1     140.090  68.581 228.638 -0.18 +0.04    -0.207 F  
DOCKED: ENDBRANCH  10  13
DOCKED: ENDBRANCH   9  10
DOCKED: ENDBRANCH   8   9
DOCKED: ENDBRANCH   6   8
DOCKED: ENDBRANCH   1   6
DOCKED: BRANCH   5  24
DOCKED: ATOM     24  C   UNL     1     145.674  70.098 218.934 -0.29 +0.04    +0.075 C  
DOCKED: ATOM     25  O   UNL     1     146.861  70.151 219.354 -0.25 -0.37    -0.318 OA 
DOCKED: BRANCH  24  26
DOCKED: ATOM     26  N   UNL     1     145.247  71.069 217.970 +0.01 -0.30    -0.645 NA 
DOCKED: BRANCH  26  27
DOCKED: ATOM     27  C   UNL     1     145.579  72.493 217.983 -0.09 -0.05    -0.077 C  
DOCKED: ATOM     28  C   UNL     1     145.748  72.997 216.550 -0.15 -0.00    -0.008 C  
DOCKED: BRANCH  27  29
DOCKED: ATOM     29  C   UNL     1     144.521  73.302 218.717 -0.22 +0.00    -0.044 A  
DOCKED: ATOM     30  C   UNL     1     143.312  73.580 218.053 -0.11 -0.00    +0.008 A  
DOCKED: ATOM     31  C   UNL     1     144.685  73.761 220.049 -0.44 -0.01    +0.046 A  
DOCKED: ATOM     32  C   UNL     1     142.307  74.324 218.674 -0.11 -0.01    +0.047 A  
DOCKED: ATOM     33  C   UNL     1     143.668  74.504 220.663 -0.27 -0.03    +0.067 A  
DOCKED: ATOM     34  C   UNL     1     142.481  74.795 219.985 -0.23 -0.04    +0.120 A  
DOCKED: ATOM     35  Cl  UNL     1     146.137  73.443 220.996 -0.85 +0.00    -0.084 Cl 
DOCKED: BRANCH  34  36
DOCKED: ATOM     36  O   UNL     1     141.504  75.551 220.649 -0.09 +0.19    -0.497 OA 
DOCKED: ATOM     37  C   UNL     1     141.460  76.975 220.661 -0.17 -0.14    +0.278 C  
DOCKED: ENDBRANCH  34  36
DOCKED: ENDBRANCH  27  29
DOCKED: ENDBRANCH  26  27
DOCKED: ENDBRANCH  24  26
DOCKED: ENDBRANCH   5  24
DOCKED: BRANCH   3  38
DOCKED: ATOM     38  O   UNL     1     143.044  66.506 217.625 -0.07 +0.29    -0.391 OA 
DOCKED: ATOM     39  H   UNL     1     143.738  65.962 217.166 -0.28 -0.30    +0.211 HD 
DOCKED: ENDBRANCH   3  38
DOCKED: TORSDOF 12
DOCKED: TER
DOCKED: ENDMDL
________________________________________________________________________________


    FINAL DOCKED STATE:
    ________________________


Run:   6 / 20
Time taken for this run:   0.200s

DOCKED: MODEL        6
DOCKED: USER    Run = 6
DOCKED: USER
DOCKED: USER    Estimated Free Energy of Binding    =  -6.88 kcal/mol  [=(1)+(2)+(3)-(4)]
DOCKED: USER
DOCKED: USER    (1) Final Intermolecular Energy     = -10.46 kcal/mol
DOCKED: USER        vdW + Hbond + desolv Energy     = -10.71 kcal/mol
DOCKED: USER        Electrostatic Energy            =  +0.26 kcal/mol
DOCKED: USER        Moving Ligand-Fixed Receptor    = -10.46 kcal/mol
DOCKED: USER        Moving Ligand-Moving Receptor   =  +0.00 kcal/mol
DOCKED: USER    (2) Final Total Internal Energy     =  -3.05 kcal/mol
DOCKED: USER    (3) Torsional Free Energy           =  +3.58 kcal/mol
DOCKED: USER    (4) Unbound System's Energy         =  -3.05 kcal/mol
DOCKED: USER
DOCKED: USER
DOCKED: REMARK SMILES COc1ccc([C@H](C)[N-]C(=O)[C@@H]2C[C@@H](O)CN2C(=O)C/N=C(/O)c2ccc3cc(F)ccc3n2)c(Cl)c1
DOCKED: REMARK SMILES IDX 17 1 16 2 14 3 13 4 12 5 18 6 19 7 20 8 21 9 22 10 23 11
DOCKED: REMARK SMILES IDX 24 13 34 14 25 15 33 16 26 17 32 18 27 19 31 20 28 21 29 22
DOCKED: REMARK SMILES IDX 30 23 10 24 11 25 9 26 7 27 8 28 6 29 5 30 35 31 4 32 37 33
DOCKED: REMARK SMILES IDX 3 34 36 35 2 36 1 37 15 38
DOCKED: REMARK H PARENT 23 12 15 39
DOCKED: USER                              x       y       z     vdW  Elec       q    Type
DOCKED: USER                           _______ _______ _______ _____ _____    ______ ____
DOCKED: ROOT
DOCKED: ATOM      1  N   UNL     1     138.007  75.679 221.602 -0.09 +0.08    -0.330 N  
DOCKED: ATOM      2  C   UNL     1     136.882  76.063 222.441 -0.19 -0.03    +0.152 C  
DOCKED: ATOM      3  C   UNL     1     137.084  77.547 222.745 -0.16 -0.02    +0.136 C  
DOCKED: ATOM      4  C   UNL     1     138.073  78.050 221.693 -0.15 -0.01    +0.065 C  
DOCKED: ATOM      5  C   UNL     1     138.843  76.812 221.229 -0.15 -0.03    +0.136 C  
DOCKED: ENDROOT
DOCKED: BRANCH   1   6
DOCKED: ATOM      6  C   UNL     1     138.227  74.345 221.103 -0.09 -0.06    +0.245 C  
DOCKED: ATOM      7  O   UNL     1     139.055  74.154 220.171 -0.04 +0.06    -0.273 OA 
DOCKED: BRANCH   6   8
DOCKED: ATOM      8  C   UNL     1     137.465  73.174 221.645 -0.08 -0.06    +0.246 C  
DOCKED: BRANCH   8   9
DOCKED: ATOM      9  N   UNL     1     138.393  72.079 221.910 -0.08 +0.06    -0.240 NA 
DOCKED: BRANCH   9  10
DOCKED: ATOM     10  C   UNL     1     139.409  72.081 222.730 -0.19 -0.05    +0.233 C  
DOCKED: BRANCH  10  11
DOCKED: ATOM     11  O   UNL     1     140.417  73.021 222.529 -0.58 +0.02    -0.492 OA 
DOCKED: ATOM     12  H   UNL     1     140.269  73.833 221.941 +0.08 -0.02    +0.295 HD 
DOCKED: ENDBRANCH  10  11
DOCKED: BRANCH  10  13
DOCKED: ATOM     13  C   UNL     1     139.557  71.123 223.858 -0.32 -0.03    +0.125 A  
DOCKED: ATOM     14  N   UNL     1     140.155  71.498 225.023 -0.30 +0.04    -0.243 NA 
DOCKED: ATOM     15  C   UNL     1     139.115  69.797 223.713 -0.27 -0.01    +0.035 A  
DOCKED: ATOM     16  C   UNL     1     140.324  70.641 226.064 -0.52 -0.01    +0.071 A  
DOCKED: ATOM     17  C   UNL     1     139.273  68.892 224.764 -0.38 -0.00    +0.013 A  
DOCKED: ATOM     18  C   UNL     1     140.939  71.079 227.243 -0.68 -0.01    +0.032 A  
DOCKED: ATOM     19  C   UNL     1     139.879  69.306 225.956 -0.48 -0.00    +0.003 A  
DOCKED: ATOM     20  C   UNL     1     141.111  70.194 228.312 -0.51 -0.01    +0.041 A  
DOCKED: ATOM     21  C   UNL     1     140.055  68.425 227.032 -0.60 -0.01    +0.049 A  
DOCKED: ATOM     22  C   UNL     1     140.669  68.870 228.208 -0.54 -0.03    +0.123 A  
DOCKED: ATOM     23  F   UNL     1     140.836  68.018 229.249 -0.15 +0.05    -0.207 F  
DOCKED: ENDBRANCH  10  13
DOCKED: ENDBRANCH   9  10
DOCKED: ENDBRANCH   8   9
DOCKED: ENDBRANCH   6   8
DOCKED: ENDBRANCH   1   6
DOCKED: BRANCH   5  24
DOCKED: ATOM     24  C   UNL     1     140.190  76.722 221.912 -0.34 -0.02    +0.075 C  
DOCKED: ATOM     25  O   UNL     1     140.590  75.608 222.342 -0.47 +0.04    -0.318 OA 
DOCKED: BRANCH  24  26
DOCKED: ATOM     26  N   UNL     1     141.003  77.879 222.152 -0.00 +0.26    -0.645 NA 
DOCKED: BRANCH  26  27
DOCKED: ATOM     27  C   UNL     1     140.712  78.949 223.103 -0.45 +0.02    -0.077 C  
DOCKED: ATOM     28  C   UNL     1     141.814  79.014 224.161 -0.55 +0.00    -0.008 C  
DOCKED: BRANCH  27  29
DOCKED: ATOM     29  C   UNL     1     140.560  80.289 222.402 -0.34 +0.01    -0.044 A  
DOCKED: ATOM     30  C   UNL     1     141.514  80.648 221.431 -0.39 -0.00    +0.008 A  
DOCKED: ATOM     31  C   UNL     1     139.485  81.178 222.656 -0.28 -0.01    +0.046 A  
DOCKED: ATOM     32  C   UNL     1     141.430  81.868 220.759 -0.31 -0.01    +0.047 A  
DOCKED: ATOM     33  C   UNL     1     139.409  82.398 221.973 -0.18 -0.01    +0.067 A  
DOCKED: ATOM     34  C   UNL     1     140.376  82.755 221.029 -0.23 -0.02    +0.120 A  
DOCKED: ATOM     35  Cl  UNL     1     138.209  80.823 223.819 -0.44 +0.01    -0.084 Cl 
DOCKED: BRANCH  34  36
DOCKED: ATOM     36  O   UNL     1     140.251  83.994 220.385 -0.07 +0.10    -0.497 OA 
DOCKED: ATOM     37  C   UNL     1     140.547  85.249 220.991 -0.15 -0.05    +0.278 C  
DOCKED: ENDBRANCH  34  36
DOCKED: ENDBRANCH  27  29
DOCKED: ENDBRANCH  26  27
DOCKED: ENDBRANCH  24  26
DOCKED: ENDBRANCH   5  24
DOCKED: BRANCH   3  38
DOCKED: ATOM     38  O   UNL     1     135.875  78.254 222.663 -0.06 +0.06    -0.391 OA 
DOCKED: ATOM     39  H   UNL     1     135.229  77.655 222.202 +0.04 -0.03    +0.211 HD 
DOCKED: ENDBRANCH   3  38
DOCKED: TORSDOF 12
DOCKED: TER
DOCKED: ENDMDL
________________________________________________________________________________


    FINAL DOCKED STATE:
    ________________________


Run:   7 / 20
Time taken for this run:   0.200s

DOCKED: MODEL        7
DOCKED: USER    Run = 7
DOCKED: USER
DOCKED: USER    Estimated Free Energy of Binding    =  -6.79 kcal/mol  [=(1)+(2)+(3)-(4)]
DOCKED: USER
DOCKED: USER    (1) Final Intermolecular Energy     = -10.36 kcal/mol
DOCKED: USER        vdW + Hbond + desolv Energy     = -10.47 kcal/mol
DOCKED: USER        Electrostatic Energy            =  +0.10 kcal/mol
DOCKED: USER        Moving Ligand-Fixed Receptor    = -10.36 kcal/mol
DOCKED: USER        Moving Ligand-Moving Receptor   =  +0.00 kcal/mol
DOCKED: USER    (2) Final Total Internal Energy     =  -3.31 kcal/mol
DOCKED: USER    (3) Torsional Free Energy           =  +3.58 kcal/mol
DOCKED: USER    (4) Unbound System's Energy         =  -3.31 kcal/mol
DOCKED: USER
DOCKED: USER
DOCKED: REMARK SMILES COc1ccc([C@H](C)[N-]C(=O)[C@@H]2C[C@@H](O)CN2C(=O)C/N=C(/O)c2ccc3cc(F)ccc3n2)c(Cl)c1
DOCKED: REMARK SMILES IDX 17 1 16 2 14 3 13 4 12 5 18 6 19 7 20 8 21 9 22 10 23 11
DOCKED: REMARK SMILES IDX 24 13 34 14 25 15 33 16 26 17 32 18 27 19 31 20 28 21 29 22
DOCKED: REMARK SMILES IDX 30 23 10 24 11 25 9 26 7 27 8 28 6 29 5 30 35 31 4 32 37 33
DOCKED: REMARK SMILES IDX 3 34 36 35 2 36 1 37 15 38
DOCKED: REMARK H PARENT 23 12 15 39
DOCKED: USER                              x       y       z     vdW  Elec       q    Type
DOCKED: USER                           _______ _______ _______ _____ _____    ______ ____
DOCKED: ROOT
DOCKED: ATOM      1  N   UNL     1     136.508  74.417 222.353 -0.08 +0.09    -0.330 N  
DOCKED: ATOM      2  C   UNL     1     135.471  74.933 223.232 -0.18 -0.03    +0.152 C  
DOCKED: ATOM      3  C   UNL     1     135.501  76.451 223.055 -0.16 -0.02    +0.136 C  
DOCKED: ATOM      4  C   UNL     1     136.249  76.696 221.745 -0.11 -0.01    +0.065 C  
DOCKED: ATOM      5  C   UNL     1     137.114  75.453 221.527 -0.12 -0.03    +0.136 C  
DOCKED: ENDROOT
DOCKED: BRANCH   1   6
DOCKED: ATOM      6  C   UNL     1     136.842  73.020 222.227 -0.09 -0.07    +0.245 C  
DOCKED: ATOM      7  O   UNL     1     136.515  72.214 223.139 -0.12 +0.07    -0.273 OA 
DOCKED: BRANCH   6   8
DOCKED: ATOM      8  C   UNL     1     137.606  72.504 221.045 -0.05 -0.05    +0.246 C  
DOCKED: BRANCH   8   9
DOCKED: ATOM      9  N   UNL     1     138.833  71.863 221.508 -0.07 +0.05    -0.240 NA 
DOCKED: BRANCH   9  10
DOCKED: ATOM     10  C   UNL     1     139.496  72.118 222.603 -0.20 -0.05    +0.233 C  
DOCKED: BRANCH  10  11
DOCKED: ATOM     11  O   UNL     1     140.150  73.344 222.708 -0.62 +0.00    -0.492 OA 
DOCKED: ATOM     12  H   UNL     1     139.636  74.202 222.871 -0.31 -0.01    +0.295 HD 
DOCKED: ENDBRANCH  10  11
DOCKED: BRANCH  10  13
DOCKED: ATOM     13  C   UNL     1     139.606  71.165 223.739 -0.32 -0.03    +0.125 A  
DOCKED: ATOM     14  N   UNL     1     140.194  71.534 224.911 -0.30 +0.04    -0.243 NA 
DOCKED: ATOM     15  C   UNL     1     139.136  69.848 223.595 -0.26 -0.01    +0.035 A  
DOCKED: ATOM     16  C   UNL     1     140.328  70.680 225.959 -0.51 -0.01    +0.071 A  
DOCKED: ATOM     17  C   UNL     1     139.259  68.947 224.654 -0.36 -0.00    +0.013 A  
DOCKED: ATOM     18  C   UNL     1     140.934  71.111 227.144 -0.68 -0.01    +0.032 A  
DOCKED: ATOM     19  C   UNL     1     139.855  69.354 225.852 -0.47 -0.00    +0.003 A  
DOCKED: ATOM     20  C   UNL     1     141.070  70.230 228.222 -0.54 -0.01    +0.041 A  
DOCKED: ATOM     21  C   UNL     1     139.995  68.476 226.936 -0.59 -0.01    +0.049 A  
DOCKED: ATOM     22  C   UNL     1     140.601  68.916 228.119 -0.54 -0.03    +0.123 A  
DOCKED: ATOM     23  F   UNL     1     140.733  68.067 229.167 -0.16 +0.05    -0.207 F  
DOCKED: ENDBRANCH  10  13
DOCKED: ENDBRANCH   9  10
DOCKED: ENDBRANCH   8   9
DOCKED: ENDBRANCH   6   8
DOCKED: ENDBRANCH   1   6
DOCKED: BRANCH   5  24
DOCKED: ATOM     24  C   UNL     1     138.542  75.703 221.956 -0.25 -0.02    +0.075 C  
DOCKED: ATOM     25  O   UNL     1     138.768  76.179 223.100 -0.18 +0.06    -0.318 OA 
DOCKED: BRANCH  24  26
DOCKED: ATOM     26  N   UNL     1     139.654  75.480 221.078 -0.01 +0.15    -0.645 NA 
DOCKED: BRANCH  26  27
DOCKED: ATOM     27  C   UNL     1     141.037  75.880 221.328 -0.31 +0.03    -0.077 C  
DOCKED: ATOM     28  C   UNL     1     141.990  74.834 220.749 -0.30 +0.00    -0.008 C  
DOCKED: BRANCH  27  29
DOCKED: ATOM     29  C   UNL     1     141.330  77.255 220.749 -0.28 +0.02    -0.044 A  
DOCKED: ATOM     30  C   UNL     1     141.406  77.388 219.350 -0.21 -0.00    +0.008 A  
DOCKED: ATOM     31  C   UNL     1     141.499  78.412 221.551 -0.36 -0.02    +0.046 A  
DOCKED: ATOM     32  C   UNL     1     141.679  78.624 218.761 -0.22 -0.03    +0.047 A  
DOCKED: ATOM     33  C   UNL     1     141.769  79.647 220.948 -0.32 -0.03    +0.067 A  
DOCKED: ATOM     34  C   UNL     1     141.866  79.764 219.559 -0.24 -0.07    +0.120 A  
DOCKED: ATOM     35  Cl  UNL     1     141.388  78.378 223.309 -0.61 +0.03    -0.084 Cl 
DOCKED: BRANCH  34  36
DOCKED: ATOM     36  O   UNL     1     142.148  81.026 219.015 -0.12 +0.27    -0.497 OA 
DOCKED: ATOM     37  C   UNL     1     142.643  81.241 217.697 -0.21 -0.24    +0.278 C  
DOCKED: ENDBRANCH  34  36
DOCKED: ENDBRANCH  27  29
DOCKED: ENDBRANCH  26  27
DOCKED: ENDBRANCH  24  26
DOCKED: ENDBRANCH   5  24
DOCKED: BRANCH   3  38
DOCKED: ATOM     38  O   UNL     1     134.204  76.983 222.991 -0.03 +0.05    -0.391 OA 
DOCKED: ATOM     39  H   UNL     1     133.677  76.371 222.411 +0.03 -0.03    +0.211 HD 
DOCKED: ENDBRANCH   3  38
DOCKED: TORSDOF 12
DOCKED: TER
DOCKED: ENDMDL
________________________________________________________________________________


    FINAL DOCKED STATE:
    ________________________


Run:   8 / 20
Time taken for this run:   0.200s

DOCKED: MODEL        8
DOCKED: USER    Run = 8
DOCKED: USER
DOCKED: USER    Estimated Free Energy of Binding    =  -6.54 kcal/mol  [=(1)+(2)+(3)-(4)]
DOCKED: USER
DOCKED: USER    (1) Final Intermolecular Energy     = -10.12 kcal/mol
DOCKED: USER        vdW + Hbond + desolv Energy     =  -9.96 kcal/mol
DOCKED: USER        Electrostatic Energy            =  -0.16 kcal/mol
DOCKED: USER        Moving Ligand-Fixed Receptor    = -10.12 kcal/mol
DOCKED: USER        Moving Ligand-Moving Receptor   =  +0.00 kcal/mol
DOCKED: USER    (2) Final Total Internal Energy     =  -3.35 kcal/mol
DOCKED: USER    (3) Torsional Free Energy           =  +3.58 kcal/mol
DOCKED: USER    (4) Unbound System's Energy         =  -3.35 kcal/mol
DOCKED: USER
DOCKED: USER
DOCKED: REMARK SMILES COc1ccc([C@H](C)[N-]C(=O)[C@@H]2C[C@@H](O)CN2C(=O)C/N=C(/O)c2ccc3cc(F)ccc3n2)c(Cl)c1
DOCKED: REMARK SMILES IDX 17 1 16 2 14 3 13 4 12 5 18 6 19 7 20 8 21 9 22 10 23 11
DOCKED: REMARK SMILES IDX 24 13 34 14 25 15 33 16 26 17 32 18 27 19 31 20 28 21 29 22
DOCKED: REMARK SMILES IDX 30 23 10 24 11 25 9 26 7 27 8 28 6 29 5 30 35 31 4 32 37 33
DOCKED: REMARK SMILES IDX 3 34 36 35 2 36 1 37 15 38
DOCKED: REMARK H PARENT 23 12 15 39
DOCKED: USER                              x       y       z     vdW  Elec       q    Type
DOCKED: USER                           _______ _______ _______ _____ _____    ______ ____
DOCKED: ROOT
DOCKED: ATOM      1  N   UNL     1     142.993  73.196 219.734 -0.07 +0.06    -0.330 N  
DOCKED: ATOM      2  C   UNL     1     144.229  73.490 220.444 -0.35 -0.03    +0.152 C  
DOCKED: ATOM      3  C   UNL     1     145.284  72.571 219.830 -0.35 +0.02    +0.136 C  
DOCKED: ATOM      4  C   UNL     1     144.704  72.119 218.490 -0.19 +0.01    +0.065 C  
DOCKED: ATOM      5  C   UNL     1     143.187  72.267 218.628 -0.07 -0.01    +0.136 C  
DOCKED: ENDROOT
DOCKED: BRANCH   1   6
DOCKED: ATOM      6  C   UNL     1     141.727  73.825 220.016 -0.12 -0.06    +0.245 C  
DOCKED: ATOM      7  O   UNL     1     140.848  73.894 219.116 -0.02 +0.06    -0.273 OA 
DOCKED: BRANCH   6   8
DOCKED: ATOM      8  C   UNL     1     141.441  74.434 221.355 -0.13 -0.04    +0.246 C  
DOCKED: BRANCH   8   9
DOCKED: ATOM      9  N   UNL     1     140.361  73.693 221.999 -0.76 +0.01    -0.240 NA 
DOCKED: BRANCH   9  10
DOCKED: ATOM     10  C   UNL     1     140.138  72.408 221.943 -0.20 -0.03    +0.233 C  
DOCKED: BRANCH  10  11
DOCKED: ATOM     11  O   UNL     1     139.931  71.828 220.693 -0.01 +0.08    -0.492 OA 
DOCKED: ATOM     12  H   UNL     1     140.620  71.910 219.955 +0.06 -0.05    +0.295 HD 
DOCKED: ENDBRANCH  10  11
DOCKED: BRANCH  10  13
DOCKED: ATOM     13  C   UNL     1     140.076  71.531 223.143 -0.30 -0.02    +0.125 A  
DOCKED: ATOM     14  N   UNL     1     140.564  71.950 224.343 -0.22 +0.03    -0.243 NA 
DOCKED: ATOM     15  C   UNL     1     139.546  70.234 223.035 -0.23 -0.01    +0.035 A  
DOCKED: ATOM     16  C   UNL     1     140.542  71.165 225.452 -0.52 -0.01    +0.071 A  
DOCKED: ATOM     17  C   UNL     1     139.508  69.404 224.157 -0.29 -0.00    +0.013 A  
DOCKED: ATOM     18  C   UNL     1     141.050  71.647 226.664 -0.71 -0.00    +0.032 A  
DOCKED: ATOM     19  C   UNL     1     140.004  69.862 225.382 -0.45 -0.00    +0.003 A  
DOCKED: ATOM     20  C   UNL     1     141.025  70.836 227.804 -0.65 -0.01    +0.041 A  
DOCKED: ATOM     21  C   UNL     1     139.982  69.056 226.529 -0.51 -0.01    +0.049 A  
DOCKED: ATOM     22  C   UNL     1     140.491  69.545 227.738 -0.51 -0.02    +0.123 A  
DOCKED: ATOM     23  F   UNL     1     140.467  68.765 228.846 -0.16 +0.04    -0.207 F  
DOCKED: ENDBRANCH  10  13
DOCKED: ENDBRANCH   9  10
DOCKED: ENDBRANCH   8   9
DOCKED: ENDBRANCH   6   8
DOCKED: ENDBRANCH   1   6
DOCKED: BRANCH   5  24
DOCKED: ATOM     24  C   UNL     1     142.536  70.937 218.937 -0.08 -0.01    +0.075 C  
DOCKED: ATOM     25  O   UNL     1     141.399  70.682 218.459 -0.01 +0.05    -0.318 OA 
DOCKED: BRANCH  24  26
DOCKED: ATOM     26  N   UNL     1     143.140  69.977 219.814 +0.06 +0.04    -0.645 NA 
DOCKED: BRANCH  26  27
DOCKED: ATOM     27  C   UNL     1     143.082  68.524 219.664 -0.13 +0.01    -0.077 C  
DOCKED: ATOM     28  C   UNL     1     141.623  68.067 219.626 -0.14 +0.00    -0.008 C  
DOCKED: BRANCH  27  29
DOCKED: ATOM     29  C   UNL     1     143.822  68.065 218.418 -0.19 +0.01    -0.044 A  
DOCKED: ATOM     30  C   UNL     1     143.119  68.024 217.199 -0.09 -0.00    +0.008 A  
DOCKED: ATOM     31  C   UNL     1     145.195  67.708 218.421 -0.34 -0.01    +0.046 A  
DOCKED: ATOM     32  C   UNL     1     143.744  67.605 216.024 -0.08 -0.02    +0.047 A  
DOCKED: ATOM     33  C   UNL     1     145.812  67.293 217.235 -0.29 -0.03    +0.067 A  
DOCKED: ATOM     34  C   UNL     1     145.098  67.232 216.035 -0.13 -0.07    +0.120 A  
DOCKED: ATOM     35  Cl  UNL     1     146.189  67.757 219.876 -0.52 -0.01    -0.084 Cl 
DOCKED: BRANCH  34  36
DOCKED: ATOM     36  O   UNL     1     145.769  66.799 214.882 -0.04 +0.31    -0.497 OA 
DOCKED: ATOM     37  C   UNL     1     147.043  66.162 214.886 -0.16 -0.16    +0.278 C  
DOCKED: ENDBRANCH  34  36
DOCKED: ENDBRANCH  27  29
DOCKED: ENDBRANCH  26  27
DOCKED: ENDBRANCH  24  26
DOCKED: ENDBRANCH   5  24
DOCKED: BRANCH   3  38
DOCKED: ATOM     38  O   UNL     1     146.499  73.246 219.639 -0.59 -0.25    -0.391 OA 
DOCKED: ATOM     39  H   UNL     1     146.267  74.170 219.354 -0.45 -0.04    +0.211 HD 
DOCKED: ENDBRANCH   3  38
DOCKED: TORSDOF 12
DOCKED: TER
DOCKED: ENDMDL
________________________________________________________________________________


    FINAL DOCKED STATE:
    ________________________


Run:   9 / 20
Time taken for this run:   0.200s

DOCKED: MODEL        9
DOCKED: USER    Run = 9
DOCKED: USER
DOCKED: USER    Estimated Free Energy of Binding    =  -7.07 kcal/mol  [=(1)+(2)+(3)-(4)]
DOCKED: USER
DOCKED: USER    (1) Final Intermolecular Energy     = -10.65 kcal/mol
DOCKED: USER        vdW + Hbond + desolv Energy     = -10.05 kcal/mol
DOCKED: USER        Electrostatic Energy            =  -0.60 kcal/mol
DOCKED: USER        Moving Ligand-Fixed Receptor    = -10.65 kcal/mol
DOCKED: USER        Moving Ligand-Moving Receptor   =  +0.00 kcal/mol
DOCKED: USER    (2) Final Total Internal Energy     =  -2.63 kcal/mol
DOCKED: USER    (3) Torsional Free Energy           =  +3.58 kcal/mol
DOCKED: USER    (4) Unbound System's Energy         =  -2.63 kcal/mol
DOCKED: USER
DOCKED: USER
DOCKED: REMARK SMILES COc1ccc([C@H](C)[N-]C(=O)[C@@H]2C[C@@H](O)CN2C(=O)C/N=C(/O)c2ccc3cc(F)ccc3n2)c(Cl)c1
DOCKED: REMARK SMILES IDX 17 1 16 2 14 3 13 4 12 5 18 6 19 7 20 8 21 9 22 10 23 11
DOCKED: REMARK SMILES IDX 24 13 34 14 25 15 33 16 26 17 32 18 27 19 31 20 28 21 29 22
DOCKED: REMARK SMILES IDX 30 23 10 24 11 25 9 26 7 27 8 28 6 29 5 30 35 31 4 32 37 33
DOCKED: REMARK SMILES IDX 3 34 36 35 2 36 1 37 15 38
DOCKED: REMARK H PARENT 23 12 15 39
DOCKED: USER                              x       y       z     vdW  Elec       q    Type
DOCKED: USER                           _______ _______ _______ _____ _____    ______ ____
DOCKED: ROOT
DOCKED: ATOM      1  N   UNL     1     142.179  70.797 218.968 -0.02 +0.04    -0.330 N  
DOCKED: ATOM      2  C   UNL     1     141.417  69.563 218.852 -0.06 -0.03    +0.152 C  
DOCKED: ATOM      3  C   UNL     1     142.430  68.434 219.040 -0.13 -0.03    +0.136 C  
DOCKED: ATOM      4  C   UNL     1     143.645  69.081 219.705 -0.20 -0.00    +0.065 C  
DOCKED: ATOM      5  C   UNL     1     143.568  70.566 219.346 -0.15 -0.00    +0.136 C  
DOCKED: ENDROOT
DOCKED: BRANCH   1   6
DOCKED: ATOM      6  C   UNL     1     141.614  72.115 218.827 -0.02 -0.04    +0.245 C  
DOCKED: ATOM      7  O   UNL     1     141.421  72.593 217.677 -0.00 +0.05    -0.273 OA 
DOCKED: BRANCH   6   8
DOCKED: ATOM      8  C   UNL     1     141.279  72.951 220.024 -0.08 -0.04    +0.246 C  
DOCKED: BRANCH   8   9
DOCKED: ATOM      9  N   UNL     1     140.899  72.077 221.130 -0.12 +0.03    -0.240 NA 
DOCKED: BRANCH   9  10
DOCKED: ATOM     10  C   UNL     1     140.323  72.420 222.251 -0.22 -0.03    +0.233 C  
DOCKED: BRANCH  10  11
DOCKED: ATOM     11  O   UNL     1     139.808  73.710 222.359 -0.72 +0.05    -0.492 OA 
DOCKED: ATOM     12  H   UNL     1     139.133  73.948 223.076 -0.48 -0.13    +0.295 HD 
DOCKED: ENDBRANCH  10  11
DOCKED: BRANCH  10  13
DOCKED: ATOM     13  C   UNL     1     140.203  71.514 223.424 -0.32 -0.02    +0.125 A  
DOCKED: ATOM     14  N   UNL     1     140.659  71.892 224.650 -0.26 +0.03    -0.243 NA 
DOCKED: ATOM     15  C   UNL     1     139.651  70.232 223.264 -0.24 -0.01    +0.035 A  
DOCKED: ATOM     16  C   UNL     1     140.583  71.079 225.737 -0.54 -0.01    +0.071 A  
DOCKED: ATOM     17  C   UNL     1     139.558  69.374 224.361 -0.32 -0.00    +0.013 A  
DOCKED: ATOM     18  C   UNL     1     141.060  71.518 226.978 -0.73 -0.01    +0.032 A  
DOCKED: ATOM     19  C   UNL     1     140.022  69.790 225.614 -0.46 -0.00    +0.003 A  
DOCKED: ATOM     20  C   UNL     1     140.980  70.679 228.094 -0.61 -0.01    +0.041 A  
DOCKED: ATOM     21  C   UNL     1     139.945  68.954 226.738 -0.53 -0.01    +0.049 A  
DOCKED: ATOM     22  C   UNL     1     140.422  69.401 227.975 -0.53 -0.02    +0.123 A  
DOCKED: ATOM     23  F   UNL     1     140.345  68.593 229.061 -0.16 +0.04    -0.207 F  
DOCKED: ENDBRANCH  10  13
DOCKED: ENDBRANCH   9  10
DOCKED: ENDBRANCH   8   9
DOCKED: ENDBRANCH   6   8
DOCKED: ENDBRANCH   1   6
DOCKED: BRANCH   5  24
DOCKED: ATOM     24  C   UNL     1     144.490  70.896 218.193 -0.13 +0.01    +0.075 C  
DOCKED: ATOM     25  O   UNL     1     144.347  70.291 217.097 -0.01 -0.01    -0.318 OA 
DOCKED: BRANCH  24  26
DOCKED: ATOM     26  N   UNL     1     145.572  71.828 218.323 -0.35 -0.50    -0.645 NA 
DOCKED: BRANCH  26  27
DOCKED: ATOM     27  C   UNL     1     145.603  73.185 217.779 -0.15 -0.03    -0.077 C  
DOCKED: ATOM     28  C   UNL     1     145.352  73.143 216.272 -0.13 -0.00    -0.008 C  
DOCKED: BRANCH  27  29
DOCKED: ATOM     29  C   UNL     1     144.588  74.082 218.469 -0.06 +0.01    -0.044 A  
DOCKED: ATOM     30  C   UNL     1     143.663  74.782 217.672 -0.18 -0.00    +0.008 A  
DOCKED: ATOM     31  C   UNL     1     144.510  74.221 219.878 -0.39 -0.02    +0.046 A  
DOCKED: ATOM     32  C   UNL     1     142.713  75.626 218.248 -0.19 -0.02    +0.047 A  
DOCKED: ATOM     33  C   UNL     1     143.550  75.068 220.446 -0.21 -0.04    +0.067 A  
DOCKED: ATOM     34  C   UNL     1     142.652  75.778 219.643 -0.28 -0.06    +0.120 A  
DOCKED: ATOM     35  Cl  UNL     1     145.587  73.367 220.981 -0.83 +0.01    -0.084 Cl 
DOCKED: BRANCH  34  36
DOCKED: ATOM     36  O   UNL     1     141.720  76.617 220.269 -0.08 +0.25    -0.497 OA 
DOCKED: ATOM     37  C   UNL     1     141.057  76.310 221.493 -0.21 -0.11    +0.278 C  
DOCKED: ENDBRANCH  34  36
DOCKED: ENDBRANCH  27  29
DOCKED: ENDBRANCH  26  27
DOCKED: ENDBRANCH  24  26
DOCKED: ENDBRANCH   5  24
DOCKED: BRANCH   3  38
DOCKED: ATOM     38  O   UNL     1     141.911  67.412 219.849 -0.03 +0.09    -0.391 OA 
DOCKED: ATOM     39  H   UNL     1     141.718  66.646 219.245 +0.07 -0.07    +0.211 HD 
DOCKED: ENDBRANCH   3  38
DOCKED: TORSDOF 12
DOCKED: TER
DOCKED: ENDMDL
________________________________________________________________________________


    FINAL DOCKED STATE:
    ________________________


Run:   10 / 20
Time taken for this run:   0.200s

DOCKED: MODEL        10
DOCKED: USER    Run = 10
DOCKED: USER
DOCKED: USER    Estimated Free Energy of Binding    =  -7.99 kcal/mol  [=(1)+(2)+(3)-(4)]
DOCKED: USER
DOCKED: USER    (1) Final Intermolecular Energy     = -11.57 kcal/mol
DOCKED: USER        vdW + Hbond + desolv Energy     = -11.58 kcal/mol
DOCKED: USER        Electrostatic Energy            =  +0.01 kcal/mol
DOCKED: USER        Moving Ligand-Fixed Receptor    = -11.57 kcal/mol
DOCKED: USER        Moving Ligand-Moving Receptor   =  +0.00 kcal/mol
DOCKED: USER    (2) Final Total Internal Energy     =  -2.43 kcal/mol
DOCKED: USER    (3) Torsional Free Energy           =  +3.58 kcal/mol
DOCKED: USER    (4) Unbound System's Energy         =  -2.43 kcal/mol
DOCKED: USER
DOCKED: USER
DOCKED: REMARK SMILES COc1ccc([C@H](C)[N-]C(=O)[C@@H]2C[C@@H](O)CN2C(=O)C/N=C(/O)c2ccc3cc(F)ccc3n2)c(Cl)c1
DOCKED: REMARK SMILES IDX 17 1 16 2 14 3 13 4 12 5 18 6 19 7 20 8 21 9 22 10 23 11
DOCKED: REMARK SMILES IDX 24 13 34 14 25 15 33 16 26 17 32 18 27 19 31 20 28 21 29 22
DOCKED: REMARK SMILES IDX 30 23 10 24 11 25 9 26 7 27 8 28 6 29 5 30 35 31 4 32 37 33
DOCKED: REMARK SMILES IDX 3 34 36 35 2 36 1 37 15 38
DOCKED: REMARK H PARENT 23 12 15 39
DOCKED: USER                              x       y       z     vdW  Elec       q    Type
DOCKED: USER                           _______ _______ _______ _____ _____    ______ ____
DOCKED: ROOT
DOCKED: ATOM      1  N   UNL     1     140.867  76.809 221.536 -0.17 +0.13    -0.330 N  
DOCKED: ATOM      2  C   UNL     1     141.799  77.824 221.070 -0.17 -0.10    +0.152 C  
DOCKED: ATOM      3  C   UNL     1     141.474  79.081 221.876 -0.35 -0.06    +0.136 C  
DOCKED: ATOM      4  C   UNL     1     140.672  78.597 223.084 -0.44 -0.02    +0.065 C  
DOCKED: ATOM      5  C   UNL     1     140.060  77.260 222.662 -0.22 -0.03    +0.136 C  
DOCKED: ENDROOT
DOCKED: BRANCH   1   6
DOCKED: ATOM      6  C   UNL     1     140.807  75.465 221.017 -0.20 -0.07    +0.245 C  
DOCKED: ATOM      7  O   UNL     1     141.785  74.999 220.373 -0.17 +0.09    -0.273 OA 
DOCKED: BRANCH   6   8
DOCKED: ATOM      8  C   UNL     1     139.587  74.614 221.197 -0.16 -0.05    +0.246 C  
DOCKED: BRANCH   8   9
DOCKED: ATOM      9  N   UNL     1     139.772  73.750 222.359 -0.76 +0.03    -0.240 NA 
DOCKED: BRANCH   9  10
DOCKED: ATOM     10  C   UNL     1     140.342  72.576 222.392 -0.22 -0.02    +0.233 C  
DOCKED: BRANCH  10  11
DOCKED: ATOM     11  O   UNL     1     141.127  72.194 221.307 -0.08 +0.06    -0.492 OA 
DOCKED: ATOM     12  H   UNL     1     141.565  72.882 220.706 +0.10 -0.04    +0.295 HD 
DOCKED: ENDBRANCH  10  11
DOCKED: BRANCH  10  13
DOCKED: ATOM     13  C   UNL     1     140.187  71.618 223.519 -0.33 -0.02    +0.125 A  
DOCKED: ATOM     14  N   UNL     1     140.678  71.905 224.756 -0.26 +0.03    -0.243 NA 
DOCKED: ATOM     15  C   UNL     1     139.562  70.378 223.302 -0.27 -0.01    +0.035 A  
DOCKED: ATOM     16  C   UNL     1     140.571  71.042 225.801 -0.54 -0.01    +0.071 A  
DOCKED: ATOM     17  C   UNL     1     139.435  69.470 224.355 -0.33 -0.00    +0.013 A  
DOCKED: ATOM     18  C   UNL     1     141.087  71.388 227.055 -0.71 -0.01    +0.032 A  
DOCKED: ATOM     19  C   UNL     1     139.938  69.794 225.620 -0.46 -0.00    +0.003 A  
DOCKED: ATOM     20  C   UNL     1     140.974  70.498 228.127 -0.58 -0.01    +0.041 A  
DOCKED: ATOM     21  C   UNL     1     139.828  68.907 226.701 -0.53 -0.01    +0.049 A  
DOCKED: ATOM     22  C   UNL     1     140.345  69.261 227.952 -0.53 -0.02    +0.123 A  
DOCKED: ATOM     23  F   UNL     1     140.237  68.403 228.996 -0.16 +0.04    -0.207 F  
DOCKED: ENDBRANCH  10  13
DOCKED: ENDBRANCH   9  10
DOCKED: ENDBRANCH   8   9
DOCKED: ENDBRANCH   6   8
DOCKED: ENDBRANCH   1   6
DOCKED: BRANCH   5  24
DOCKED: ATOM     24  C   UNL     1     138.617  77.431 222.242 -0.25 -0.01    +0.075 C  
DOCKED: ATOM     25  O   UNL     1     138.262  78.499 221.676 -0.06 +0.06    -0.318 OA 
DOCKED: BRANCH  24  26
DOCKED: ATOM     26  N   UNL     1     137.616  76.444 222.527 -0.03 +0.14    -0.645 NA 
DOCKED: BRANCH  26  27
DOCKED: ATOM     27  C   UNL     1     136.172  76.666 222.534 -0.17 +0.01    -0.077 C  
DOCKED: ATOM     28  C   UNL     1     135.583  76.277 221.178 -0.06 +0.00    -0.008 C  
DOCKED: BRANCH  27  29
DOCKED: ATOM     29  C   UNL     1     135.497  75.891 223.655 -0.24 +0.01    -0.044 A  
DOCKED: ATOM     30  C   UNL     1     134.741  76.608 224.601 -0.21 -0.00    +0.008 A  
DOCKED: ATOM     31  C   UNL     1     135.569  74.480 223.773 -0.23 -0.01    +0.046 A  
DOCKED: ATOM     32  C   UNL     1     134.105  75.952 225.657 -0.32 -0.00    +0.047 A  
DOCKED: ATOM     33  C   UNL     1     134.923  73.833 224.833 -0.26 -0.01    +0.067 A  
DOCKED: ATOM     34  C   UNL     1     134.195  74.557 225.782 -0.31 +0.00    +0.120 A  
DOCKED: ATOM     35  Cl  UNL     1     136.452  73.472 222.628 -0.15 +0.03    -0.084 Cl 
DOCKED: BRANCH  34  36
DOCKED: ATOM     36  O   UNL     1     133.579  73.853 226.826 -0.74 -0.08    -0.497 OA 
DOCKED: ATOM     37  C   UNL     1     132.971  72.572 226.683 -0.25 -0.02    +0.278 C  
DOCKED: ENDBRANCH  34  36
DOCKED: ENDBRANCH  27  29
DOCKED: ENDBRANCH  26  27
DOCKED: ENDBRANCH  24  26
DOCKED: ENDBRANCH   5  24
DOCKED: BRANCH   3  38
DOCKED: ATOM     38  O   UNL     1     142.642  79.739 222.290 -0.30 +0.19    -0.391 OA 
DOCKED: ATOM     39  H   UNL     1     143.404  79.198 221.952 -0.45 -0.20    +0.211 HD 
DOCKED: ENDBRANCH   3  38
DOCKED: TORSDOF 12
DOCKED: TER
DOCKED: ENDMDL
________________________________________________________________________________


    FINAL DOCKED STATE:
    ________________________


Run:   11 / 20
Time taken for this run:   0.200s

DOCKED: MODEL        11
DOCKED: USER    Run = 11
DOCKED: USER
DOCKED: USER    Estimated Free Energy of Binding    =  -7.06 kcal/mol  [=(1)+(2)+(3)-(4)]
DOCKED: USER
DOCKED: USER    (1) Final Intermolecular Energy     = -10.64 kcal/mol
DOCKED: USER        vdW + Hbond + desolv Energy     = -10.71 kcal/mol
DOCKED: USER        Electrostatic Energy            =  +0.07 kcal/mol
DOCKED: USER        Moving Ligand-Fixed Receptor    = -10.64 kcal/mol
DOCKED: USER        Moving Ligand-Moving Receptor   =  +0.00 kcal/mol
DOCKED: USER    (2) Final Total Internal Energy     =  -3.14 kcal/mol
DOCKED: USER    (3) Torsional Free Energy           =  +3.58 kcal/mol
DOCKED: USER    (4) Unbound System's Energy         =  -3.14 kcal/mol
DOCKED: USER
DOCKED: USER
DOCKED: REMARK SMILES COc1ccc([C@H](C)[N-]C(=O)[C@@H]2C[C@@H](O)CN2C(=O)C/N=C(/O)c2ccc3cc(F)ccc3n2)c(Cl)c1
DOCKED: REMARK SMILES IDX 17 1 16 2 14 3 13 4 12 5 18 6 19 7 20 8 21 9 22 10 23 11
DOCKED: REMARK SMILES IDX 24 13 34 14 25 15 33 16 26 17 32 18 27 19 31 20 28 21 29 22
DOCKED: REMARK SMILES IDX 30 23 10 24 11 25 9 26 7 27 8 28 6 29 5 30 35 31 4 32 37 33
DOCKED: REMARK SMILES IDX 3 34 36 35 2 36 1 37 15 38
DOCKED: REMARK H PARENT 23 12 15 39
DOCKED: USER                              x       y       z     vdW  Elec       q    Type
DOCKED: USER                           _______ _______ _______ _____ _____    ______ ____
DOCKED: ROOT
DOCKED: ATOM      1  N   UNL     1     136.893  75.026 222.263 -0.09 +0.09    -0.330 N  
DOCKED: ATOM      2  C   UNL     1     135.833  74.824 223.239 -0.18 -0.04    +0.152 C  
DOCKED: ATOM      3  C   UNL     1     135.540  76.208 223.818 -0.20 -0.02    +0.136 C  
DOCKED: ATOM      4  C   UNL     1     136.132  77.204 222.821 -0.18 -0.01    +0.065 C  
DOCKED: ATOM      5  C   UNL     1     137.216  76.433 222.065 -0.18 -0.03    +0.136 C  
DOCKED: ENDROOT
DOCKED: BRANCH   1   6
DOCKED: ATOM      6  C   UNL     1     137.496  73.968 221.493 -0.09 -0.06    +0.245 C  
DOCKED: ATOM      7  O   UNL     1     138.450  74.228 220.711 -0.06 +0.06    -0.273 OA 
DOCKED: BRANCH   6   8
DOCKED: ATOM      8  C   UNL     1     136.991  72.559 221.573 -0.06 -0.05    +0.246 C  
DOCKED: BRANCH   8   9
DOCKED: ATOM      9  N   UNL     1     138.098  71.671 221.914 -0.07 +0.05    -0.240 NA 
DOCKED: BRANCH   9  10
DOCKED: ATOM     10  C   UNL     1     139.014  71.859 222.826 -0.17 -0.06    +0.233 C  
DOCKED: BRANCH  10  11
DOCKED: ATOM     11  O   UNL     1     139.796  73.008 222.747 -0.55 +0.08    -0.492 OA 
DOCKED: ATOM     12  H   UNL     1     139.375  73.929 222.705 -0.36 -0.07    +0.295 HD 
DOCKED: ENDBRANCH  10  11
DOCKED: BRANCH  10  13
DOCKED: ATOM     13  C   UNL     1     139.278  70.903 223.934 -0.30 -0.03    +0.125 A  
DOCKED: ATOM     14  N   UNL     1     139.889  71.311 225.081 -0.29 +0.05    -0.243 NA 
DOCKED: ATOM     15  C   UNL     1     138.934  69.548 223.787 -0.27 -0.01    +0.035 A  
DOCKED: ATOM     16  C   UNL     1     140.164  70.458 226.103 -0.49 -0.01    +0.071 A  
DOCKED: ATOM     17  C   UNL     1     139.202  68.647 224.820 -0.39 -0.00    +0.013 A  
DOCKED: ATOM     18  C   UNL     1     140.788  70.930 227.264 -0.66 -0.01    +0.032 A  
DOCKED: ATOM     19  C   UNL     1     139.819  69.094 225.993 -0.50 -0.00    +0.003 A  
DOCKED: ATOM     20  C   UNL     1     141.068  70.050 228.314 -0.53 -0.01    +0.041 A  
DOCKED: ATOM     21  C   UNL     1     140.103  68.218 227.050 -0.62 -0.01    +0.049 A  
DOCKED: ATOM     22  C   UNL     1     140.726  68.697 228.208 -0.55 -0.03    +0.123 A  
DOCKED: ATOM     23  F   UNL     1     140.998  67.849 229.230 -0.17 +0.06    -0.207 F  
DOCKED: ENDBRANCH  10  13
DOCKED: ENDBRANCH   9  10
DOCKED: ENDBRANCH   8   9
DOCKED: ENDBRANCH   6   8
DOCKED: ENDBRANCH   1   6
DOCKED: BRANCH   5  24
DOCKED: ATOM     24  C   UNL     1     138.589  76.742 222.620 -0.26 -0.01    +0.075 C  
DOCKED: ATOM     25  O   UNL     1     138.827  77.893 223.071 -0.19 +0.05    -0.318 OA 
DOCKED: BRANCH  24  26
DOCKED: ATOM     26  N   UNL     1     139.658  75.786 222.588 -0.17 +0.10    -0.645 NA 
DOCKED: BRANCH  26  27
DOCKED: ATOM     27  C   UNL     1     141.022  76.042 222.130 -0.23 +0.02    -0.077 C  
DOCKED: ATOM     28  C   UNL     1     141.480  74.908 221.212 -0.31 +0.00    -0.008 C  
DOCKED: BRANCH  27  29
DOCKED: ATOM     29  C   UNL     1     141.126  77.383 221.421 -0.32 +0.02    -0.044 A  
DOCKED: ATOM     30  C   UNL     1     140.839  77.435 220.045 -0.19 -0.00    +0.008 A  
DOCKED: ATOM     31  C   UNL     1     141.469  78.586 222.089 -0.41 -0.02    +0.046 A  
DOCKED: ATOM     32  C   UNL     1     140.924  78.637 219.339 -0.16 -0.02    +0.047 A  
DOCKED: ATOM     33  C   UNL     1     141.548  79.786 221.371 -0.35 -0.03    +0.067 A  
DOCKED: ATOM     34  C   UNL     1     141.284  79.822 219.999 -0.21 -0.05    +0.120 A  
DOCKED: ATOM     35  Cl  UNL     1     141.813  78.653 223.816 -0.68 +0.03    -0.084 Cl 
DOCKED: BRANCH  34  36
DOCKED: ATOM     36  O   UNL     1     141.389  81.053 219.334 -0.08 +0.21    -0.497 OA 
DOCKED: ATOM     37  C   UNL     1     142.169  81.268 218.161 -0.20 -0.18    +0.278 C  
DOCKED: ENDBRANCH  34  36
DOCKED: ENDBRANCH  27  29
DOCKED: ENDBRANCH  26  27
DOCKED: ENDBRANCH  24  26
DOCKED: ENDBRANCH   5  24
DOCKED: BRANCH   3  38
DOCKED: ATOM     38  O   UNL     1     134.160  76.418 223.966 -0.06 +0.05    -0.391 OA 
DOCKED: ATOM     39  H   UNL     1     133.779  76.444 223.048 +0.04 -0.03    +0.211 HD 
DOCKED: ENDBRANCH   3  38
DOCKED: TORSDOF 12
DOCKED: TER
DOCKED: ENDMDL
________________________________________________________________________________


    FINAL DOCKED STATE:
    ________________________


Run:   12 / 20
Time taken for this run:   0.200s

DOCKED: MODEL        12
DOCKED: USER    Run = 12
DOCKED: USER
DOCKED: USER    Estimated Free Energy of Binding    =  -8.05 kcal/mol  [=(1)+(2)+(3)-(4)]
DOCKED: USER
DOCKED: USER    (1) Final Intermolecular Energy     = -11.63 kcal/mol
DOCKED: USER        vdW + Hbond + desolv Energy     = -11.85 kcal/mol
DOCKED: USER        Electrostatic Energy            =  +0.22 kcal/mol
DOCKED: USER        Moving Ligand-Fixed Receptor    = -11.63 kcal/mol
DOCKED: USER        Moving Ligand-Moving Receptor   =  +0.00 kcal/mol
DOCKED: USER    (2) Final Total Internal Energy     =  -2.15 kcal/mol
DOCKED: USER    (3) Torsional Free Energy           =  +3.58 kcal/mol
DOCKED: USER    (4) Unbound System's Energy         =  -2.15 kcal/mol
DOCKED: USER
DOCKED: USER
DOCKED: REMARK SMILES COc1ccc([C@H](C)[N-]C(=O)[C@@H]2C[C@@H](O)CN2C(=O)C/N=C(/O)c2ccc3cc(F)ccc3n2)c(Cl)c1
DOCKED: REMARK SMILES IDX 17 1 16 2 14 3 13 4 12 5 18 6 19 7 20 8 21 9 22 10 23 11
DOCKED: REMARK SMILES IDX 24 13 34 14 25 15 33 16 26 17 32 18 27 19 31 20 28 21 29 22
DOCKED: REMARK SMILES IDX 30 23 10 24 11 25 9 26 7 27 8 28 6 29 5 30 35 31 4 32 37 33
DOCKED: REMARK SMILES IDX 3 34 36 35 2 36 1 37 15 38
DOCKED: REMARK H PARENT 23 12 15 39
DOCKED: USER                              x       y       z     vdW  Elec       q    Type
DOCKED: USER                           _______ _______ _______ _____ _____    ______ ____
DOCKED: ROOT
DOCKED: ATOM      1  N   UNL     1     141.549  74.329 220.236 -0.08 +0.08    -0.330 N  
DOCKED: ATOM      2  C   UNL     1     142.031  73.912 218.928 -0.07 -0.04    +0.152 C  
DOCKED: ATOM      3  C   UNL     1     142.955  75.034 218.455 -0.16 -0.05    +0.136 C  
DOCKED: ATOM      4  C   UNL     1     143.313  75.828 219.711 -0.37 -0.04    +0.065 C  
DOCKED: ATOM      5  C   UNL     1     142.183  75.554 220.706 -0.09 -0.07    +0.136 C  
DOCKED: ENDROOT
DOCKED: BRANCH   1   6
DOCKED: ATOM      6  C   UNL     1     140.622  73.569 221.037 -0.17 -0.04    +0.245 C  
DOCKED: ATOM      7  O   UNL     1     140.333  73.961 222.199 -0.82 -0.00    -0.273 OA 
DOCKED: BRANCH   6   8
DOCKED: ATOM      8  C   UNL     1     140.015  72.297 220.530 -0.07 -0.04    +0.246 C  
DOCKED: BRANCH   8   9
DOCKED: ATOM      9  N   UNL     1     139.951  71.328 221.620 -0.10 +0.04    -0.240 NA 
DOCKED: BRANCH   9  10
DOCKED: ATOM     10  C   UNL     1     139.216  71.393 222.697 -0.19 -0.05    +0.233 C  
DOCKED: BRANCH  10  11
DOCKED: ATOM     11  O   UNL     1     138.205  72.349 222.748 -0.05 +0.17    -0.492 OA 
DOCKED: ATOM     12  H   UNL     1     138.411  73.322 222.944 -0.45 -0.17    +0.295 HD 
DOCKED: ENDBRANCH  10  11
DOCKED: BRANCH  10  13
DOCKED: ATOM     13  C   UNL     1     139.411  70.512 223.879 -0.28 -0.02    +0.125 A  
DOCKED: ATOM     14  N   UNL     1     140.021  70.975 225.005 -0.29 +0.04    -0.243 NA 
DOCKED: ATOM     15  C   UNL     1     139.001  69.169 223.826 -0.28 -0.01    +0.035 A  
DOCKED: ATOM     16  C   UNL     1     140.233  70.189 226.094 -0.48 -0.01    +0.071 A  
DOCKED: ATOM     17  C   UNL     1     139.203  68.336 224.929 -0.41 -0.00    +0.013 A  
DOCKED: ATOM     18  C   UNL     1     140.858  70.715 227.230 -0.63 -0.01    +0.032 A  
DOCKED: ATOM     19  C   UNL     1     139.821  68.839 226.079 -0.52 -0.00    +0.003 A  
DOCKED: ATOM     20  C   UNL     1     141.074  69.904 228.349 -0.52 -0.01    +0.041 A  
DOCKED: ATOM     21  C   UNL     1     140.040  68.032 227.205 -0.62 -0.01    +0.049 A  
DOCKED: ATOM     22  C   UNL     1     140.665  68.566 228.337 -0.56 -0.03    +0.123 A  
DOCKED: ATOM     23  F   UNL     1     140.874  67.786 229.426 -0.15 +0.06    -0.207 F  
DOCKED: ENDBRANCH  10  13
DOCKED: ENDBRANCH   9  10
DOCKED: ENDBRANCH   8   9
DOCKED: ENDBRANCH   6   8
DOCKED: ENDBRANCH   1   6
DOCKED: BRANCH   5  24
DOCKED: ATOM     24  C   UNL     1     141.185  76.691 220.722 -0.26 -0.03    +0.075 C  
DOCKED: ATOM     25  O   UNL     1     140.143  76.587 221.423 -0.16 +0.09    -0.318 OA 
DOCKED: BRANCH  24  26
DOCKED: ATOM     26  N   UNL     1     141.349  77.862 219.911 +0.04 +0.32    -0.645 NA 
DOCKED: BRANCH  26  27
DOCKED: ATOM     27  C   UNL     1     141.765  79.181 220.386 -0.26 +0.04    -0.077 C  
DOCKED: ATOM     28  C   UNL     1     141.715  80.184 219.233 -0.29 +0.00    -0.008 C  
DOCKED: BRANCH  27  29
DOCKED: ATOM     29  C   UNL     1     140.901  79.651 221.546 -0.30 +0.01    -0.044 A  
DOCKED: ATOM     30  C   UNL     1     139.503  79.618 221.394 -0.17 -0.00    +0.008 A  
DOCKED: ATOM     31  C   UNL     1     141.439  80.089 222.782 -0.48 -0.01    +0.046 A  
DOCKED: ATOM     32  C   UNL     1     138.659  80.043 222.422 -0.22 -0.01    +0.047 A  
DOCKED: ATOM     33  C   UNL     1     140.583  80.510 223.808 -0.39 -0.01    +0.067 A  
DOCKED: ATOM     34  C   UNL     1     139.196  80.496 223.637 -0.34 -0.01    +0.120 A  
DOCKED: ATOM     35  Cl  UNL     1     143.171  80.138 223.105 -0.72 +0.03    -0.084 Cl 
DOCKED: BRANCH  34  36
DOCKED: ATOM     36  O   UNL     1     138.391  80.938 224.697 -0.16 +0.04    -0.497 OA 
DOCKED: ATOM     37  C   UNL     1     136.967  80.933 224.682 -0.22 -0.03    +0.278 C  
DOCKED: ENDBRANCH  34  36
DOCKED: ENDBRANCH  27  29
DOCKED: ENDBRANCH  26  27
DOCKED: ENDBRANCH  24  26
DOCKED: ENDBRANCH   5  24
DOCKED: BRANCH   3  38
DOCKED: ATOM     38  O   UNL     1     144.112  74.521 217.849 -0.08 +0.15    -0.391 OA 
DOCKED: ATOM     39  H   UNL     1     144.785  75.252 217.862 -0.47 -0.16    +0.211 HD 
DOCKED: ENDBRANCH   3  38
DOCKED: TORSDOF 12
DOCKED: TER
DOCKED: ENDMDL
________________________________________________________________________________


    FINAL DOCKED STATE:
    ________________________


Run:   13 / 20
Time taken for this run:   0.200s

DOCKED: MODEL        13
DOCKED: USER    Run = 13
DOCKED: USER
DOCKED: USER    Estimated Free Energy of Binding    =  -7.17 kcal/mol  [=(1)+(2)+(3)-(4)]
DOCKED: USER
DOCKED: USER    (1) Final Intermolecular Energy     = -10.75 kcal/mol
DOCKED: USER        vdW + Hbond + desolv Energy     = -10.97 kcal/mol
DOCKED: USER        Electrostatic Energy            =  +0.23 kcal/mol
DOCKED: USER        Moving Ligand-Fixed Receptor    = -10.75 kcal/mol
DOCKED: USER        Moving Ligand-Moving Receptor   =  +0.00 kcal/mol
DOCKED: USER    (2) Final Total Internal Energy     =  -3.53 kcal/mol
DOCKED: USER    (3) Torsional Free Energy           =  +3.58 kcal/mol
DOCKED: USER    (4) Unbound System's Energy         =  -3.53 kcal/mol
DOCKED: USER
DOCKED: USER
DOCKED: REMARK SMILES COc1ccc([C@H](C)[N-]C(=O)[C@@H]2C[C@@H](O)CN2C(=O)C/N=C(/O)c2ccc3cc(F)ccc3n2)c(Cl)c1
DOCKED: REMARK SMILES IDX 17 1 16 2 14 3 13 4 12 5 18 6 19 7 20 8 21 9 22 10 23 11
DOCKED: REMARK SMILES IDX 24 13 34 14 25 15 33 16 26 17 32 18 27 19 31 20 28 21 29 22
DOCKED: REMARK SMILES IDX 30 23 10 24 11 25 9 26 7 27 8 28 6 29 5 30 35 31 4 32 37 33
DOCKED: REMARK SMILES IDX 3 34 36 35 2 36 1 37 15 38
DOCKED: REMARK H PARENT 23 12 15 39
DOCKED: USER                              x       y       z     vdW  Elec       q    Type
DOCKED: USER                           _______ _______ _______ _____ _____    ______ ____
DOCKED: ROOT
DOCKED: ATOM      1  N   UNL     1     142.081  74.101 219.158 -0.02 +0.09    -0.330 N  
DOCKED: ATOM      2  C   UNL     1     142.335  74.679 217.847 -0.06 -0.05    +0.152 C  
DOCKED: ATOM      3  C   UNL     1     142.927  76.062 218.116 -0.21 -0.07    +0.136 C  
DOCKED: ATOM      4  C   UNL     1     143.404  76.029 219.567 -0.36 -0.04    +0.065 C  
DOCKED: ATOM      5  C   UNL     1     142.580  74.932 220.246 -0.25 -0.05    +0.136 C  
DOCKED: ENDROOT
DOCKED: BRANCH   1   6
DOCKED: ATOM      6  C   UNL     1     141.494  72.802 219.371 -0.04 -0.05    +0.245 C  
DOCKED: ATOM      7  O   UNL     1     142.198  71.766 219.227 -0.04 +0.04    -0.273 OA 
DOCKED: BRANCH   6   8
DOCKED: ATOM      8  C   UNL     1     140.047  72.649 219.728 -0.03 -0.05    +0.246 C  
DOCKED: BRANCH   8   9
DOCKED: ATOM      9  N   UNL     1     139.936  71.870 220.958 -0.07 +0.04    -0.240 NA 
DOCKED: BRANCH   9  10
DOCKED: ATOM     10  C   UNL     1     139.767  72.321 222.171 -0.20 -0.04    +0.233 C  
DOCKED: BRANCH  10  11
DOCKED: ATOM     11  O   UNL     1     139.589  73.692 222.345 -0.70 +0.08    -0.492 OA 
DOCKED: ATOM     12  H   UNL     1     139.738  74.343 221.583 +0.08 -0.05    +0.295 HD 
DOCKED: ENDBRANCH  10  11
DOCKED: BRANCH  10  13
DOCKED: ATOM     13  C   UNL     1     139.772  71.454 223.379 -0.31 -0.02    +0.125 A  
DOCKED: ATOM     14  N   UNL     1     140.344  71.874 224.541 -0.27 +0.04    -0.243 NA 
DOCKED: ATOM     15  C   UNL     1     139.219  70.164 223.316 -0.25 -0.01    +0.035 A  
DOCKED: ATOM     16  C   UNL     1     140.383  71.097 225.656 -0.52 -0.01    +0.071 A  
DOCKED: ATOM     17  C   UNL     1     139.242  69.342 224.444 -0.34 -0.00    +0.013 A  
DOCKED: ATOM     18  C   UNL     1     140.977  71.579 226.828 -0.71 -0.01    +0.032 A  
DOCKED: ATOM     19  C   UNL     1     139.824  69.802 225.631 -0.46 -0.00    +0.003 A  
DOCKED: ATOM     20  C   UNL     1     141.015  70.777 227.973 -0.65 -0.01    +0.041 A  
DOCKED: ATOM     21  C   UNL     1     139.866  69.004 226.783 -0.53 -0.01    +0.049 A  
DOCKED: ATOM     22  C   UNL     1     140.460  69.493 227.952 -0.52 -0.02    +0.123 A  
DOCKED: ATOM     23  F   UNL     1     140.497  68.722 229.066 -0.14 +0.04    -0.207 F  
DOCKED: ENDBRANCH  10  13
DOCKED: ENDBRANCH   9  10
DOCKED: ENDBRANCH   8   9
DOCKED: ENDBRANCH   6   8
DOCKED: ENDBRANCH   1   6
DOCKED: BRANCH   5  24
DOCKED: ATOM     24  C   UNL     1     141.428  75.524 221.028 -0.28 -0.03    +0.075 C  
DOCKED: ATOM     25  O   UNL     1     141.448  75.475 222.287 -0.21 +0.07    -0.318 OA 
DOCKED: BRANCH  24  26
DOCKED: ATOM     26  N   UNL     1     140.274  76.080 220.384 +0.05 +0.19    -0.645 NA 
DOCKED: BRANCH  26  27
DOCKED: ATOM     27  C   UNL     1     139.589  77.313 220.770 -0.14 +0.02    -0.077 C  
DOCKED: ATOM     28  C   UNL     1     138.342  76.978 221.587 -0.20 +0.00    -0.008 C  
DOCKED: BRANCH  27  29
DOCKED: ATOM     29  C   UNL     1     140.511  78.239 221.549 -0.27 +0.02    -0.044 A  
DOCKED: ATOM     30  C   UNL     1     140.446  78.218 222.954 -0.40 -0.00    +0.008 A  
DOCKED: ATOM     31  C   UNL     1     141.453  79.096 220.925 -0.31 -0.02    +0.046 A  
DOCKED: ATOM     32  C   UNL     1     141.262  79.050 223.722 -0.54 -0.01    +0.047 A  
DOCKED: ATOM     33  C   UNL     1     142.269  79.924 221.707 -0.38 -0.03    +0.067 A  
DOCKED: ATOM     34  C   UNL     1     142.179  79.913 223.101 -0.53 -0.04    +0.120 A  
DOCKED: ATOM     35  Cl  UNL     1     141.654  79.181 219.177 -0.33 +0.05    -0.084 Cl 
DOCKED: BRANCH  34  36
DOCKED: ATOM     36  O   UNL     1     143.016  80.772 223.828 -0.26 +0.10    -0.497 OA 
DOCKED: ATOM     37  C   UNL     1     142.572  81.941 224.510 +0.05 -0.02    +0.278 C  
DOCKED: ENDBRANCH  34  36
DOCKED: ENDBRANCH  27  29
DOCKED: ENDBRANCH  26  27
DOCKED: ENDBRANCH  24  26
DOCKED: ENDBRANCH   5  24
DOCKED: BRANCH   3  38
DOCKED: ATOM     38  O   UNL     1     143.997  76.336 217.250 -0.13 +0.26    -0.391 OA 
DOCKED: ATOM     39  H   UNL     1     144.796  75.891 217.640 -0.47 -0.18    +0.211 HD 
DOCKED: ENDBRANCH   3  38
DOCKED: TORSDOF 12
DOCKED: TER
DOCKED: ENDMDL
________________________________________________________________________________


    FINAL DOCKED STATE:
    ________________________


Run:   14 / 20
Time taken for this run:   0.200s

DOCKED: MODEL        14
DOCKED: USER    Run = 14
DOCKED: USER
DOCKED: USER    Estimated Free Energy of Binding    =  -5.33 kcal/mol  [=(1)+(2)+(3)-(4)]
DOCKED: USER
DOCKED: USER    (1) Final Intermolecular Energy     =  -8.91 kcal/mol
DOCKED: USER        vdW + Hbond + desolv Energy     =  -8.34 kcal/mol
DOCKED: USER        Electrostatic Energy            =  -0.57 kcal/mol
DOCKED: USER        Moving Ligand-Fixed Receptor    =  -8.91 kcal/mol
DOCKED: USER        Moving Ligand-Moving Receptor   =  +0.00 kcal/mol
DOCKED: USER    (2) Final Total Internal Energy     =  -4.03 kcal/mol
DOCKED: USER    (3) Torsional Free Energy           =  +3.58 kcal/mol
DOCKED: USER    (4) Unbound System's Energy         =  -4.03 kcal/mol
DOCKED: USER
DOCKED: USER
DOCKED: REMARK SMILES COc1ccc([C@H](C)[N-]C(=O)[C@@H]2C[C@@H](O)CN2C(=O)C/N=C(/O)c2ccc3cc(F)ccc3n2)c(Cl)c1
DOCKED: REMARK SMILES IDX 17 1 16 2 14 3 13 4 12 5 18 6 19 7 20 8 21 9 22 10 23 11
DOCKED: REMARK SMILES IDX 24 13 34 14 25 15 33 16 26 17 32 18 27 19 31 20 28 21 29 22
DOCKED: REMARK SMILES IDX 30 23 10 24 11 25 9 26 7 27 8 28 6 29 5 30 35 31 4 32 37 33
DOCKED: REMARK SMILES IDX 3 34 36 35 2 36 1 37 15 38
DOCKED: REMARK H PARENT 23 12 15 39
DOCKED: USER                              x       y       z     vdW  Elec       q    Type
DOCKED: USER                           _______ _______ _______ _____ _____    ______ ____
DOCKED: ROOT
DOCKED: ATOM      1  N   UNL     1     144.479  74.689 216.706 -0.07 +0.12    -0.330 N  
DOCKED: ATOM      2  C   UNL     1     145.221  75.640 215.894 -0.09 -0.09    +0.152 C  
DOCKED: ATOM      3  C   UNL     1     146.168  74.799 215.037 -0.13 -0.04    +0.136 C  
DOCKED: ATOM      4  C   UNL     1     145.601  73.380 215.075 -0.06 -0.00    +0.065 C  
DOCKED: ATOM      5  C   UNL     1     144.767  73.304 216.355 -0.08 -0.01    +0.136 C  
DOCKED: ENDROOT
DOCKED: BRANCH   1   6
DOCKED: ATOM      6  C   UNL     1     143.488  75.059 217.685 -0.11 -0.10    +0.245 C  
DOCKED: ATOM      7  O   UNL     1     143.737  75.979 218.510 -0.21 +0.17    -0.273 OA 
DOCKED: BRANCH   6   8
DOCKED: ATOM      8  C   UNL     1     142.171  74.349 217.769 -0.02 -0.07    +0.246 C  
DOCKED: BRANCH   8   9
DOCKED: ATOM      9  N   UNL     1     141.100  75.335 217.873 -0.01 +0.08    -0.240 NA 
DOCKED: BRANCH   9  10
DOCKED: ATOM     10  C   UNL     1     140.536  75.781 218.963 -0.04 -0.07    +0.233 C  
DOCKED: BRANCH  10  11
DOCKED: ATOM     11  O   UNL     1     139.434  75.092 219.464 +0.01 +0.12    -0.492 OA 
DOCKED: ATOM     12  H   UNL     1     139.477  74.604 220.351 +0.07 -0.06    +0.295 HD 
DOCKED: ENDBRANCH  10  11
DOCKED: BRANCH  10  13
DOCKED: ATOM     13  C   UNL     1     140.996  76.995 219.689 -0.14 -0.05    +0.125 A  
DOCKED: ATOM     14  N   UNL     1     140.983  77.044 221.050 -0.16 +0.10    -0.243 NA 
DOCKED: ATOM     15  C   UNL     1     141.410  78.127 218.967 -0.19 -0.02    +0.035 A  
DOCKED: ATOM     16  C   UNL     1     141.377  78.145 221.742 -0.34 -0.03    +0.071 A  
DOCKED: ATOM     17  C   UNL     1     141.822  79.273 219.650 -0.29 -0.01    +0.013 A  
DOCKED: ATOM     18  C   UNL     1     141.352  78.142 223.142 -0.49 -0.01    +0.032 A  
DOCKED: ATOM     19  C   UNL     1     141.812  79.294 221.049 -0.36 -0.00    +0.003 A  
DOCKED: ATOM     20  C   UNL     1     141.758  79.277 223.851 -0.59 -0.01    +0.041 A  
DOCKED: ATOM     21  C   UNL     1     142.219  80.428 221.767 -0.44 -0.02    +0.049 A  
DOCKED: ATOM     22  C   UNL     1     142.192  80.417 223.165 -0.53 -0.03    +0.123 A  
DOCKED: ATOM     23  F   UNL     1     142.587  81.513 223.859 -0.19 +0.03    -0.207 F  
DOCKED: ENDBRANCH  10  13
DOCKED: ENDBRANCH   9  10
DOCKED: ENDBRANCH   8   9
DOCKED: ENDBRANCH   6   8
DOCKED: ENDBRANCH   1   6
DOCKED: BRANCH   5  24
DOCKED: ATOM     24  C   UNL     1     145.536  72.627 217.467 -0.13 +0.04    +0.075 C  
DOCKED: ATOM     25  O   UNL     1     145.775  71.392 217.388 -0.21 -0.26    -0.318 OA 
DOCKED: BRANCH  24  26
DOCKED: ATOM     26  N   UNL     1     145.949  73.329 218.648 -0.48 -0.32    -0.645 NA 
DOCKED: BRANCH  26  27
DOCKED: ATOM     27  C   UNL     1     145.717  72.898 220.025 -0.47 -0.01    -0.077 C  
DOCKED: ATOM     28  C   UNL     1     146.586  73.719 220.977 -0.53 -0.00    -0.008 C  
DOCKED: BRANCH  27  29
DOCKED: ATOM     29  C   UNL     1     144.249  73.012 220.402 -0.38 +0.01    -0.044 A  
DOCKED: ATOM     30  C   UNL     1     143.767  74.260 220.842 -0.29 -0.00    +0.008 A  
DOCKED: ATOM     31  C   UNL     1     143.337  71.931 220.302 -0.25 -0.01    +0.046 A  
DOCKED: ATOM     32  C   UNL     1     142.430  74.424 221.209 -0.01 -0.01    +0.047 A  
DOCKED: ATOM     33  C   UNL     1     141.998  72.108 220.669 -0.19 -0.01    +0.067 A  
DOCKED: ATOM     34  C   UNL     1     141.536  73.345 221.128 -0.23 -0.02    +0.120 A  
DOCKED: ATOM     35  Cl  UNL     1     143.813  70.334 219.729 -0.28 +0.00    -0.084 Cl 
DOCKED: BRANCH  34  36
DOCKED: ATOM     36  O   UNL     1     140.185  73.458 221.490 -0.24 +0.07    -0.497 OA 
DOCKED: ATOM     37  C   UNL     1     139.498  72.535 222.330 -0.18 -0.06    +0.278 C  
DOCKED: ENDBRANCH  34  36
DOCKED: ENDBRANCH  27  29
DOCKED: ENDBRANCH  26  27
DOCKED: ENDBRANCH  24  26
DOCKED: ENDBRANCH   5  24
DOCKED: BRANCH   3  38
DOCKED: ATOM     38  O   UNL     1     146.221  75.275 213.718 -0.03 +0.16    -0.391 OA 
DOCKED: ATOM     39  H   UNL     1     145.695  76.118 213.701 +0.04 -0.13    +0.211 HD 
DOCKED: ENDBRANCH   3  38
DOCKED: TORSDOF 12
DOCKED: TER
DOCKED: ENDMDL
________________________________________________________________________________


    FINAL DOCKED STATE:
    ________________________


Run:   15 / 20
Time taken for this run:   0.200s

DOCKED: MODEL        15
DOCKED: USER    Run = 15
DOCKED: USER
DOCKED: USER    Estimated Free Energy of Binding    =  -7.28 kcal/mol  [=(1)+(2)+(3)-(4)]
DOCKED: USER
DOCKED: USER    (1) Final Intermolecular Energy     = -10.85 kcal/mol
DOCKED: USER        vdW + Hbond + desolv Energy     = -11.03 kcal/mol
DOCKED: USER        Electrostatic Energy            =  +0.17 kcal/mol
DOCKED: USER        Moving Ligand-Fixed Receptor    = -10.85 kcal/mol
DOCKED: USER        Moving Ligand-Moving Receptor   =  +0.00 kcal/mol
DOCKED: USER    (2) Final Total Internal Energy     =  -3.32 kcal/mol
DOCKED: USER    (3) Torsional Free Energy           =  +3.58 kcal/mol
DOCKED: USER    (4) Unbound System's Energy         =  -3.32 kcal/mol
DOCKED: USER
DOCKED: USER
DOCKED: REMARK SMILES COc1ccc([C@H](C)[N-]C(=O)[C@@H]2C[C@@H](O)CN2C(=O)C/N=C(/O)c2ccc3cc(F)ccc3n2)c(Cl)c1
DOCKED: REMARK SMILES IDX 17 1 16 2 14 3 13 4 12 5 18 6 19 7 20 8 21 9 22 10 23 11
DOCKED: REMARK SMILES IDX 24 13 34 14 25 15 33 16 26 17 32 18 27 19 31 20 28 21 29 22
DOCKED: REMARK SMILES IDX 30 23 10 24 11 25 9 26 7 27 8 28 6 29 5 30 35 31 4 32 37 33
DOCKED: REMARK SMILES IDX 3 34 36 35 2 36 1 37 15 38
DOCKED: REMARK H PARENT 23 12 15 39
DOCKED: USER                              x       y       z     vdW  Elec       q    Type
DOCKED: USER                           _______ _______ _______ _____ _____    ______ ____
DOCKED: ROOT
DOCKED: ATOM      1  N   UNL     1     142.475  72.506 219.572 -0.03 +0.05    -0.330 N  
DOCKED: ATOM      2  C   UNL     1     143.524  72.636 218.573 -0.09 -0.02    +0.152 C  
DOCKED: ATOM      3  C   UNL     1     144.592  73.524 219.212 -0.25 -0.02    +0.136 C  
DOCKED: ATOM      4  C   UNL     1     144.311  73.487 220.713 -0.40 -0.01    +0.065 C  
DOCKED: ATOM      5  C   UNL     1     142.832  73.118 220.845 -0.19 -0.02    +0.136 C  
DOCKED: ENDROOT
DOCKED: BRANCH   1   6
DOCKED: ATOM      6  C   UNL     1     141.254  71.766 219.373 -0.04 -0.04    +0.245 C  
DOCKED: ATOM      7  O   UNL     1     140.272  72.320 218.810 -0.01 +0.05    -0.273 OA 
DOCKED: BRANCH   6   8
DOCKED: ATOM      8  C   UNL     1     141.111  70.354 219.854 -0.06 -0.04    +0.246 C  
DOCKED: BRANCH   8   9
DOCKED: ATOM      9  N   UNL     1     140.027  70.287 220.830 -0.07 +0.04    -0.240 NA 
DOCKED: BRANCH   9  10
DOCKED: ATOM     10  C   UNL     1     139.765  71.139 221.784 -0.13 -0.04    +0.233 C  
DOCKED: BRANCH  10  11
DOCKED: ATOM     11  O   UNL     1     139.264  72.390 221.431 -0.05 +0.10    -0.492 OA 
DOCKED: ATOM     12  H   UNL     1     139.778  73.007 220.812 +0.07 -0.05    +0.295 HD 
DOCKED: ENDBRANCH  10  11
DOCKED: BRANCH  10  13
DOCKED: ATOM     13  C   UNL     1     139.987  70.853 223.226 -0.25 -0.02    +0.125 A  
DOCKED: ATOM     14  N   UNL     1     139.657  69.645 223.760 -0.12 +0.04    -0.243 NA 
DOCKED: ATOM     15  C   UNL     1     140.505  71.854 224.066 -0.35 -0.00    +0.035 A  
DOCKED: ATOM     16  C   UNL     1     139.828  69.360 225.078 -0.35 -0.01    +0.071 A  
DOCKED: ATOM     17  C   UNL     1     140.694  71.591 225.425 -0.54 -0.00    +0.013 A  
DOCKED: ATOM     18  C   UNL     1     139.479  68.099 225.575 -0.50 -0.00    +0.032 A  
DOCKED: ATOM     19  C   UNL     1     140.359  70.337 225.946 -0.54 -0.00    +0.003 A  
DOCKED: ATOM     20  C   UNL     1     139.658  67.809 226.932 -0.60 -0.01    +0.041 A  
DOCKED: ATOM     21  C   UNL     1     140.535  70.039 227.305 -0.56 -0.01    +0.049 A  
DOCKED: ATOM     22  C   UNL     1     140.185  68.776 227.795 -0.54 -0.02    +0.123 A  
DOCKED: ATOM     23  F   UNL     1     140.358  68.487 229.108 -0.16 +0.04    -0.207 F  
DOCKED: ENDBRANCH  10  13
DOCKED: ENDBRANCH   9  10
DOCKED: ENDBRANCH   8   9
DOCKED: ENDBRANCH   6   8
DOCKED: ENDBRANCH   1   6
DOCKED: BRANCH   5  24
DOCKED: ATOM     24  C   UNL     1     141.986  74.347 221.095 -0.16 -0.02    +0.075 C  
DOCKED: ATOM     25  O   UNL     1     141.081  74.306 221.970 -0.62 +0.01    -0.318 OA 
DOCKED: BRANCH  24  26
DOCKED: ATOM     26  N   UNL     1     142.131  75.544 220.319 +0.01 +0.29    -0.645 NA 
DOCKED: BRANCH  26  27
DOCKED: ATOM     27  C   UNL     1     141.097  76.555 220.102 -0.19 +0.03    -0.077 C  
DOCKED: ATOM     28  C   UNL     1     139.716  75.903 220.162 -0.12 +0.00    -0.008 C  
DOCKED: BRANCH  27  29
DOCKED: ATOM     29  C   UNL     1     141.204  77.684 221.115 -0.30 +0.02    -0.044 A  
DOCKED: ATOM     30  C   UNL     1     140.970  77.389 222.471 -0.43 -0.00    +0.008 A  
DOCKED: ATOM     31  C   UNL     1     141.560  79.010 220.761 -0.30 -0.02    +0.046 A  
DOCKED: ATOM     32  C   UNL     1     141.047  78.385 223.445 -0.42 -0.01    +0.047 A  
DOCKED: ATOM     33  C   UNL     1     141.638  80.000 221.748 -0.39 -0.02    +0.067 A  
DOCKED: ATOM     34  C   UNL     1     141.378  79.702 223.088 -0.45 -0.03    +0.120 A  
DOCKED: ATOM     35  Cl  UNL     1     141.914  79.491 219.103 -0.34 +0.05    -0.084 Cl 
DOCKED: BRANCH  34  36
DOCKED: ATOM     36  O   UNL     1     141.463  80.739 224.029 -0.15 +0.07    -0.497 OA 
DOCKED: ATOM     37  C   UNL     1     142.575  81.621 224.154 -0.25 -0.03    +0.278 C  
DOCKED: ENDBRANCH  34  36
DOCKED: ENDBRANCH  27  29
DOCKED: ENDBRANCH  26  27
DOCKED: ENDBRANCH  24  26
DOCKED: ENDBRANCH   5  24
DOCKED: BRANCH   3  38
DOCKED: ATOM     38  O   UNL     1     145.883  73.045 218.939 -0.71 -0.23    -0.391 OA 
DOCKED: ATOM     39  H   UNL     1     146.424  73.834 218.669 -0.45 +0.06    +0.211 HD 
DOCKED: ENDBRANCH   3  38
DOCKED: TORSDOF 12
DOCKED: TER
DOCKED: ENDMDL
________________________________________________________________________________


    FINAL DOCKED STATE:
    ________________________


Run:   16 / 20
Time taken for this run:   0.200s

DOCKED: MODEL        16
DOCKED: USER    Run = 16
DOCKED: USER
DOCKED: USER    Estimated Free Energy of Binding    =  -6.53 kcal/mol  [=(1)+(2)+(3)-(4)]
DOCKED: USER
DOCKED: USER    (1) Final Intermolecular Energy     = -10.11 kcal/mol
DOCKED: USER        vdW + Hbond + desolv Energy     = -10.11 kcal/mol
DOCKED: USER        Electrostatic Energy            =  -0.00 kcal/mol
DOCKED: USER        Moving Ligand-Fixed Receptor    = -10.11 kcal/mol
DOCKED: USER        Moving Ligand-Moving Receptor   =  +0.00 kcal/mol
DOCKED: USER    (2) Final Total Internal Energy     =  -4.02 kcal/mol
DOCKED: USER    (3) Torsional Free Energy           =  +3.58 kcal/mol
DOCKED: USER    (4) Unbound System's Energy         =  -4.02 kcal/mol
DOCKED: USER
DOCKED: USER
DOCKED: REMARK SMILES COc1ccc([C@H](C)[N-]C(=O)[C@@H]2C[C@@H](O)CN2C(=O)C/N=C(/O)c2ccc3cc(F)ccc3n2)c(Cl)c1
DOCKED: REMARK SMILES IDX 17 1 16 2 14 3 13 4 12 5 18 6 19 7 20 8 21 9 22 10 23 11
DOCKED: REMARK SMILES IDX 24 13 34 14 25 15 33 16 26 17 32 18 27 19 31 20 28 21 29 22
DOCKED: REMARK SMILES IDX 30 23 10 24 11 25 9 26 7 27 8 28 6 29 5 30 35 31 4 32 37 33
DOCKED: REMARK SMILES IDX 3 34 36 35 2 36 1 37 15 38
DOCKED: REMARK H PARENT 23 12 15 39
DOCKED: USER                              x       y       z     vdW  Elec       q    Type
DOCKED: USER                           _______ _______ _______ _____ _____    ______ ____
DOCKED: ROOT
DOCKED: ATOM      1  N   UNL     1     142.517  71.803 219.525 -0.03 +0.04    -0.330 N  
DOCKED: ATOM      2  C   UNL     1     143.576  72.161 218.594 -0.08 -0.01    +0.152 C  
DOCKED: ATOM      3  C   UNL     1     144.306  73.340 219.236 -0.23 -0.02    +0.136 C  
DOCKED: ATOM      4  C   UNL     1     143.914  73.310 220.713 -0.33 -0.01    +0.065 C  
DOCKED: ATOM      5  C   UNL     1     142.583  72.558 220.770 -0.20 -0.02    +0.136 C  
DOCKED: ENDROOT
DOCKED: BRANCH   1   6
DOCKED: ATOM      6  C   UNL     1     141.562  70.748 219.299 -0.05 -0.04    +0.245 C  
DOCKED: ATOM      7  O   UNL     1     141.200  70.473 218.124 -0.01 +0.05    -0.273 OA 
DOCKED: BRANCH   6   8
DOCKED: ATOM      8  C   UNL     1     140.957  69.985 220.439 +0.04 -0.04    +0.246 C  
DOCKED: BRANCH   8   9
DOCKED: ATOM      9  N   UNL     1     139.675  70.587 220.793 -0.06 +0.04    -0.240 NA 
DOCKED: BRANCH   9  10
DOCKED: ATOM     10  C   UNL     1     139.403  71.312 221.844 -0.13 -0.04    +0.233 C  
DOCKED: BRANCH  10  11
DOCKED: ATOM     11  O   UNL     1     138.720  72.512 221.658 -0.05 +0.11    -0.492 OA 
DOCKED: ATOM     12  H   UNL     1     139.200  73.348 221.346 +0.07 -0.06    +0.295 HD 
DOCKED: ENDBRANCH  10  11
DOCKED: BRANCH  10  13
DOCKED: ATOM     13  C   UNL     1     139.796  70.934 223.228 -0.26 -0.02    +0.125 A  
DOCKED: ATOM     14  N   UNL     1     139.524  69.694 223.720 -0.14 +0.04    -0.243 NA 
DOCKED: ATOM     15  C   UNL     1     140.420  71.879 224.060 -0.36 -0.00    +0.035 A  
DOCKED: ATOM     16  C   UNL     1     139.851  69.326 224.986 -0.34 -0.01    +0.071 A  
DOCKED: ATOM     17  C   UNL     1     140.770  71.531 225.366 -0.55 -0.00    +0.013 A  
DOCKED: ATOM     18  C   UNL     1     139.555  68.036 225.442 -0.48 -0.00    +0.032 A  
DOCKED: ATOM     19  C   UNL     1     140.491  70.246 225.844 -0.53 -0.00    +0.003 A  
DOCKED: ATOM     20  C   UNL     1     139.894  67.659 226.746 -0.62 -0.01    +0.041 A  
DOCKED: ATOM     21  C   UNL     1     140.828  69.861 227.150 -0.54 -0.01    +0.049 A  
DOCKED: ATOM     22  C   UNL     1     140.530  68.569 227.597 -0.56 -0.03    +0.123 A  
DOCKED: ATOM     23  F   UNL     1     140.859  68.198 228.859 -0.19 +0.05    -0.207 F  
DOCKED: ENDBRANCH  10  13
DOCKED: ENDBRANCH   9  10
DOCKED: ENDBRANCH   8   9
DOCKED: ENDBRANCH   6   8
DOCKED: ENDBRANCH   1   6
DOCKED: BRANCH   5  24
DOCKED: ATOM     24  C   UNL     1     141.419  73.520 220.865 -0.24 -0.01    +0.075 C  
DOCKED: ATOM     25  O   UNL     1     141.154  74.060 221.972 -0.58 +0.00    -0.318 OA 
DOCKED: BRANCH  24  26
DOCKED: ATOM     26  N   UNL     1     140.559  73.791 219.750 +0.05 +0.14    -0.645 NA 
DOCKED: BRANCH  26  27
DOCKED: ATOM     27  C   UNL     1     140.197  75.115 219.248 -0.06 +0.02    -0.077 C  
DOCKED: ATOM     28  C   UNL     1     138.728  75.125 218.828 -0.03 +0.00    -0.008 C  
DOCKED: BRANCH  27  29
DOCKED: ATOM     29  C   UNL     1     140.468  76.194 220.286 -0.16 +0.01    -0.044 A  
DOCKED: ATOM     30  C   UNL     1     139.534  76.372 221.324 -0.24 -0.00    +0.008 A  
DOCKED: ATOM     31  C   UNL     1     141.631  77.005 220.274 -0.27 -0.02    +0.046 A  
DOCKED: ATOM     32  C   UNL     1     139.725  77.350 222.301 -0.33 -0.01    +0.047 A  
DOCKED: ATOM     33  C   UNL     1     141.814  77.981 221.261 -0.26 -0.04    +0.067 A  
DOCKED: ATOM     34  C   UNL     1     140.868  78.166 222.273 -0.35 -0.04    +0.120 A  
DOCKED: ATOM     35  Cl  UNL     1     142.889  76.849 219.049 -0.44 +0.05    -0.084 Cl 
DOCKED: BRANCH  34  36
DOCKED: ATOM     36  O   UNL     1     141.103  79.165 223.228 -0.16 +0.13    -0.497 OA 
DOCKED: ATOM     37  C   UNL     1     142.296  79.939 223.305 -0.43 -0.08    +0.278 C  
DOCKED: ENDBRANCH  34  36
DOCKED: ENDBRANCH  27  29
DOCKED: ENDBRANCH  26  27
DOCKED: ENDBRANCH  24  26
DOCKED: ENDBRANCH   5  24
DOCKED: BRANCH   3  38
DOCKED: ATOM     38  O   UNL     1     145.696  73.220 219.091 -0.52 -0.13    -0.391 OA 
DOCKED: ATOM     39  H   UNL     1     146.042  74.135 218.918 -0.45 -0.05    +0.211 HD 
DOCKED: ENDBRANCH   3  38
DOCKED: TORSDOF 12
DOCKED: TER
DOCKED: ENDMDL
________________________________________________________________________________


    FINAL DOCKED STATE:
    ________________________


Run:   17 / 20
Time taken for this run:   0.200s

DOCKED: MODEL        17
DOCKED: USER    Run = 17
DOCKED: USER
DOCKED: USER    Estimated Free Energy of Binding    =  -7.06 kcal/mol  [=(1)+(2)+(3)-(4)]
DOCKED: USER
DOCKED: USER    (1) Final Intermolecular Energy     = -10.64 kcal/mol
DOCKED: USER        vdW + Hbond + desolv Energy     = -10.72 kcal/mol
DOCKED: USER        Electrostatic Energy            =  +0.08 kcal/mol
DOCKED: USER        Moving Ligand-Fixed Receptor    = -10.64 kcal/mol
DOCKED: USER        Moving Ligand-Moving Receptor   =  +0.00 kcal/mol
DOCKED: USER    (2) Final Total Internal Energy     =  -3.15 kcal/mol
DOCKED: USER    (3) Torsional Free Energy           =  +3.58 kcal/mol
DOCKED: USER    (4) Unbound System's Energy         =  -3.15 kcal/mol
DOCKED: USER
DOCKED: USER
DOCKED: REMARK SMILES COc1ccc([C@H](C)[N-]C(=O)[C@@H]2C[C@@H](O)CN2C(=O)C/N=C(/O)c2ccc3cc(F)ccc3n2)c(Cl)c1
DOCKED: REMARK SMILES IDX 17 1 16 2 14 3 13 4 12 5 18 6 19 7 20 8 21 9 22 10 23 11
DOCKED: REMARK SMILES IDX 24 13 34 14 25 15 33 16 26 17 32 18 27 19 31 20 28 21 29 22
DOCKED: REMARK SMILES IDX 30 23 10 24 11 25 9 26 7 27 8 28 6 29 5 30 35 31 4 32 37 33
DOCKED: REMARK SMILES IDX 3 34 36 35 2 36 1 37 15 38
DOCKED: REMARK H PARENT 23 12 15 39
DOCKED: USER                              x       y       z     vdW  Elec       q    Type
DOCKED: USER                           _______ _______ _______ _____ _____    ______ ____
DOCKED: ROOT
DOCKED: ATOM      1  N   UNL     1     136.872  75.075 222.286 -0.09 +0.09    -0.330 N  
DOCKED: ATOM      2  C   UNL     1     135.817  74.872 223.267 -0.19 -0.04    +0.152 C  
DOCKED: ATOM      3  C   UNL     1     135.510  76.259 223.834 -0.19 -0.02    +0.136 C  
DOCKED: ATOM      4  C   UNL     1     136.089  77.250 222.825 -0.17 -0.01    +0.065 C  
DOCKED: ATOM      5  C   UNL     1     137.179  76.484 222.074 -0.17 -0.03    +0.136 C  
DOCKED: ENDROOT
DOCKED: BRANCH   1   6
DOCKED: ATOM      6  C   UNL     1     137.485  74.016 221.525 -0.09 -0.06    +0.245 C  
DOCKED: ATOM      7  O   UNL     1     138.440  74.277 220.746 -0.06 +0.06    -0.273 OA 
DOCKED: BRANCH   6   8
DOCKED: ATOM      8  C   UNL     1     136.987  72.605 221.611 -0.06 -0.06    +0.246 C  
DOCKED: BRANCH   8   9
DOCKED: ATOM      9  N   UNL     1     138.104  71.720 221.926 -0.07 +0.05    -0.240 NA 
DOCKED: BRANCH   9  10
DOCKED: ATOM     10  C   UNL     1     139.024  71.897 222.836 -0.16 -0.06    +0.233 C  
DOCKED: BRANCH  10  11
DOCKED: ATOM     11  O   UNL     1     139.813  73.043 222.761 -0.55 +0.07    -0.492 OA 
DOCKED: ATOM     12  H   UNL     1     139.396  73.966 222.717 -0.36 -0.06    +0.295 HD 
DOCKED: ENDBRANCH  10  11
DOCKED: BRANCH  10  13
DOCKED: ATOM     13  C   UNL     1     139.288  70.933 223.937 -0.30 -0.03    +0.125 A  
DOCKED: ATOM     14  N   UNL     1     139.904  71.332 225.085 -0.29 +0.05    -0.243 NA 
DOCKED: ATOM     15  C   UNL     1     138.937  69.581 223.782 -0.27 -0.01    +0.035 A  
DOCKED: ATOM     16  C   UNL     1     140.178  70.471 226.100 -0.49 -0.01    +0.071 A  
DOCKED: ATOM     17  C   UNL     1     139.204  68.673 224.808 -0.39 -0.00    +0.013 A  
DOCKED: ATOM     18  C   UNL     1     140.806  70.932 227.262 -0.66 -0.01    +0.032 A  
DOCKED: ATOM     19  C   UNL     1     139.827  69.109 225.983 -0.50 -0.00    +0.003 A  
DOCKED: ATOM     20  C   UNL     1     141.086  70.044 228.306 -0.52 -0.01    +0.041 A  
DOCKED: ATOM     21  C   UNL     1     140.110  68.224 227.034 -0.62 -0.01    +0.049 A  
DOCKED: ATOM     22  C   UNL     1     140.737  68.693 228.193 -0.55 -0.03    +0.123 A  
DOCKED: ATOM     23  F   UNL     1     141.009  67.838 229.209 -0.17 +0.06    -0.207 F  
DOCKED: ENDBRANCH  10  13
DOCKED: ENDBRANCH   9  10
DOCKED: ENDBRANCH   8   9
DOCKED: ENDBRANCH   6   8
DOCKED: ENDBRANCH   1   6
DOCKED: BRANCH   5  24
DOCKED: ATOM     24  C   UNL     1     138.550  76.813 222.622 -0.26 -0.01    +0.075 C  
DOCKED: ATOM     25  O   UNL     1     138.780  77.974 223.052 -0.19 +0.05    -0.318 OA 
DOCKED: BRANCH  24  26
DOCKED: ATOM     26  N   UNL     1     139.626  75.865 222.606 -0.15 +0.10    -0.645 NA 
DOCKED: BRANCH  26  27
DOCKED: ATOM     27  C   UNL     1     140.993  76.128 222.160 -0.24 +0.02    -0.077 C  
DOCKED: ATOM     28  C   UNL     1     141.465  74.997 221.246 -0.30 +0.00    -0.008 C  
DOCKED: BRANCH  27  29
DOCKED: ATOM     29  C   UNL     1     141.097  77.470 221.453 -0.33 +0.02    -0.044 A  
DOCKED: ATOM     30  C   UNL     1     140.790  77.528 220.080 -0.19 -0.00    +0.008 A  
DOCKED: ATOM     31  C   UNL     1     141.457  78.669 222.118 -0.42 -0.02    +0.046 A  
DOCKED: ATOM     32  C   UNL     1     140.874  78.730 219.376 -0.16 -0.02    +0.047 A  
DOCKED: ATOM     33  C   UNL     1     141.535  79.870 221.402 -0.35 -0.03    +0.067 A  
DOCKED: ATOM     34  C   UNL     1     141.252  79.911 220.034 -0.21 -0.05    +0.120 A  
DOCKED: ATOM     35  Cl  UNL     1     141.826  78.730 223.840 -0.69 +0.03    -0.084 Cl 
DOCKED: BRANCH  34  36
DOCKED: ATOM     36  O   UNL     1     141.356  81.142 219.370 -0.08 +0.20    -0.497 OA 
DOCKED: ATOM     37  C   UNL     1     142.174  81.372 218.227 -0.19 -0.17    +0.278 C  
DOCKED: ENDBRANCH  34  36
DOCKED: ENDBRANCH  27  29
DOCKED: ENDBRANCH  26  27
DOCKED: ENDBRANCH  24  26
DOCKED: ENDBRANCH   5  24
DOCKED: BRANCH   3  38
DOCKED: ATOM     38  O   UNL     1     134.129  76.455 223.983 -0.06 +0.05    -0.391 OA 
DOCKED: ATOM     39  H   UNL     1     133.722  76.287 223.092 +0.04 -0.03    +0.211 HD 
DOCKED: ENDBRANCH   3  38
DOCKED: TORSDOF 12
DOCKED: TER
DOCKED: ENDMDL
________________________________________________________________________________


    FINAL DOCKED STATE:
    ________________________


Run:   18 / 20
Time taken for this run:   0.200s

DOCKED: MODEL        18
DOCKED: USER    Run = 18
DOCKED: USER
DOCKED: USER    Estimated Free Energy of Binding    =  -7.39 kcal/mol  [=(1)+(2)+(3)-(4)]
DOCKED: USER
DOCKED: USER    (1) Final Intermolecular Energy     = -10.97 kcal/mol
DOCKED: USER        vdW + Hbond + desolv Energy     = -10.95 kcal/mol
DOCKED: USER        Electrostatic Energy            =  -0.01 kcal/mol
DOCKED: USER        Moving Ligand-Fixed Receptor    = -10.97 kcal/mol
DOCKED: USER        Moving Ligand-Moving Receptor   =  +0.00 kcal/mol
DOCKED: USER    (2) Final Total Internal Energy     =  -3.43 kcal/mol
DOCKED: USER    (3) Torsional Free Energy           =  +3.58 kcal/mol
DOCKED: USER    (4) Unbound System's Energy         =  -3.43 kcal/mol
DOCKED: USER
DOCKED: USER
DOCKED: REMARK SMILES COc1ccc([C@H](C)[N-]C(=O)[C@@H]2C[C@@H](O)CN2C(=O)C/N=C(/O)c2ccc3cc(F)ccc3n2)c(Cl)c1
DOCKED: REMARK SMILES IDX 17 1 16 2 14 3 13 4 12 5 18 6 19 7 20 8 21 9 22 10 23 11
DOCKED: REMARK SMILES IDX 24 13 34 14 25 15 33 16 26 17 32 18 27 19 31 20 28 21 29 22
DOCKED: REMARK SMILES IDX 30 23 10 24 11 25 9 26 7 27 8 28 6 29 5 30 35 31 4 32 37 33
DOCKED: REMARK SMILES IDX 3 34 36 35 2 36 1 37 15 38
DOCKED: REMARK H PARENT 23 12 15 39
DOCKED: USER                              x       y       z     vdW  Elec       q    Type
DOCKED: USER                           _______ _______ _______ _____ _____    ______ ____
DOCKED: ROOT
DOCKED: ATOM      1  N   UNL     1     140.710  76.455 221.308 -0.15 +0.11    -0.330 N  
DOCKED: ATOM      2  C   UNL     1     141.465  77.569 220.755 -0.24 -0.08    +0.152 C  
DOCKED: ATOM      3  C   UNL     1     141.345  78.696 221.780 -0.33 -0.06    +0.136 C  
DOCKED: ATOM      4  C   UNL     1     140.906  78.022 223.080 -0.37 -0.02    +0.065 C  
DOCKED: ATOM      5  C   UNL     1     140.227  76.718 222.658 -0.16 -0.03    +0.136 C  
DOCKED: ENDROOT
DOCKED: BRANCH   1   6
DOCKED: ATOM      6  C   UNL     1     140.537  75.186 220.648 -0.15 -0.06    +0.245 C  
DOCKED: ATOM      7  O   UNL     1     139.587  75.028 219.835 -0.03 +0.06    -0.273 OA 
DOCKED: BRANCH   6   8
DOCKED: ATOM      8  C   UNL     1     141.447  74.029 220.931 -0.18 -0.05    +0.246 C  
DOCKED: BRANCH   8   9
DOCKED: ATOM      9  N   UNL     1     141.060  73.413 222.197 -0.47 -0.01    -0.240 NA 
DOCKED: BRANCH   9  10
DOCKED: ATOM     10  C   UNL     1     139.971  72.739 222.451 -0.19 -0.03    +0.233 C  
DOCKED: BRANCH  10  11
DOCKED: ATOM     11  O   UNL     1     138.839  73.003 221.684 -0.07 +0.11    -0.492 OA 
DOCKED: ATOM     12  H   UNL     1     138.579  73.951 221.439 +0.05 -0.07    +0.295 HD 
DOCKED: ENDBRANCH  10  11
DOCKED: BRANCH  10  13
DOCKED: ATOM     13  C   UNL     1     139.869  71.716 223.526 -0.31 -0.02    +0.125 A  
DOCKED: ATOM     14  N   UNL     1     140.482  71.899 224.728 -0.26 +0.04    -0.243 NA 
DOCKED: ATOM     15  C   UNL     1     139.168  70.521 223.290 -0.27 -0.01    +0.035 A  
DOCKED: ATOM     16  C   UNL     1     140.426  70.974 225.722 -0.52 -0.01    +0.071 A  
DOCKED: ATOM     17  C   UNL     1     139.091  69.552 224.292 -0.33 -0.00    +0.013 A  
DOCKED: ATOM     18  C   UNL     1     141.068  71.214 226.943 -0.68 -0.01    +0.032 A  
DOCKED: ATOM     19  C   UNL     1     139.719  69.769 225.523 -0.44 -0.00    +0.003 A  
DOCKED: ATOM     20  C   UNL     1     141.008  70.260 227.964 -0.59 -0.01    +0.041 A  
DOCKED: ATOM     21  C   UNL     1     139.662  68.818 226.552 -0.52 -0.01    +0.049 A  
DOCKED: ATOM     22  C   UNL     1     140.305  69.065 227.770 -0.53 -0.02    +0.123 A  
DOCKED: ATOM     23  F   UNL     1     140.249  68.146 228.765 -0.18 +0.05    -0.207 F  
DOCKED: ENDBRANCH  10  13
DOCKED: ENDBRANCH   9  10
DOCKED: ENDBRANCH   8   9
DOCKED: ENDBRANCH   6   8
DOCKED: ENDBRANCH   1   6
DOCKED: BRANCH   5  24
DOCKED: ATOM     24  C   UNL     1     138.722  76.862 222.660 -0.25 -0.01    +0.075 C  
DOCKED: ATOM     25  O   UNL     1     138.208  77.965 222.991 -0.17 +0.05    -0.318 OA 
DOCKED: BRANCH  24  26
DOCKED: ATOM     26  N   UNL     1     137.848  75.764 222.364 -0.03 +0.17    -0.645 NA 
DOCKED: BRANCH  26  27
DOCKED: ATOM     27  C   UNL     1     136.401  75.847 222.175 -0.16 +0.02    -0.077 C  
DOCKED: ATOM     28  C   UNL     1     135.991  75.017 220.958 -0.06 +0.00    -0.008 C  
DOCKED: BRANCH  27  29
DOCKED: ATOM     29  C   UNL     1     135.652  75.390 223.416 -0.24 +0.01    -0.044 A  
DOCKED: ATOM     30  C   UNL     1     135.745  74.037 223.792 -0.21 -0.00    +0.008 A  
DOCKED: ATOM     31  C   UNL     1     134.892  76.268 224.229 -0.23 -0.01    +0.046 A  
DOCKED: ATOM     32  C   UNL     1     135.074  73.557 224.918 -0.24 -0.00    +0.047 A  
DOCKED: ATOM     33  C   UNL     1     134.226  75.777 225.359 -0.30 -0.01    +0.067 A  
DOCKED: ATOM     34  C   UNL     1     134.305  74.426 225.709 -0.31 +0.00    +0.120 A  
DOCKED: ATOM     35  Cl  UNL     1     134.733  77.989 223.883 -0.17 +0.01    -0.084 Cl 
DOCKED: BRANCH  34  36
DOCKED: ATOM     36  O   UNL     1     133.609  73.992 226.846 -0.72 -0.09    -0.497 OA 
DOCKED: ATOM     37  C   UNL     1     132.267  74.357 227.154 -0.26 -0.01    +0.278 C  
DOCKED: ENDBRANCH  34  36
DOCKED: ENDBRANCH  27  29
DOCKED: ENDBRANCH  26  27
DOCKED: ENDBRANCH  24  26
DOCKED: ENDBRANCH   5  24
DOCKED: BRANCH   3  38
DOCKED: ATOM     38  O   UNL     1     142.569  79.358 221.956 -0.24 +0.24    -0.391 OA 
DOCKED: ATOM     39  H   UNL     1     143.276  78.730 221.649 -0.45 -0.25    +0.211 HD 
DOCKED: ENDBRANCH   3  38
DOCKED: TORSDOF 12
DOCKED: TER
DOCKED: ENDMDL
________________________________________________________________________________


    FINAL DOCKED STATE:
    ________________________


Run:   19 / 20
Time taken for this run:   0.200s

DOCKED: MODEL        19
DOCKED: USER    Run = 19
DOCKED: USER
DOCKED: USER    Estimated Free Energy of Binding    =  -7.31 kcal/mol  [=(1)+(2)+(3)-(4)]
DOCKED: USER
DOCKED: USER    (1) Final Intermolecular Energy     = -10.89 kcal/mol
DOCKED: USER        vdW + Hbond + desolv Energy     = -10.92 kcal/mol
DOCKED: USER        Electrostatic Energy            =  +0.03 kcal/mol
DOCKED: USER        Moving Ligand-Fixed Receptor    = -10.89 kcal/mol
DOCKED: USER        Moving Ligand-Moving Receptor   =  +0.00 kcal/mol
DOCKED: USER    (2) Final Total Internal Energy     =  -2.88 kcal/mol
DOCKED: USER    (3) Torsional Free Energy           =  +3.58 kcal/mol
DOCKED: USER    (4) Unbound System's Energy         =  -2.88 kcal/mol
DOCKED: USER
DOCKED: USER
DOCKED: REMARK SMILES COc1ccc([C@H](C)[N-]C(=O)[C@@H]2C[C@@H](O)CN2C(=O)C/N=C(/O)c2ccc3cc(F)ccc3n2)c(Cl)c1
DOCKED: REMARK SMILES IDX 17 1 16 2 14 3 13 4 12 5 18 6 19 7 20 8 21 9 22 10 23 11
DOCKED: REMARK SMILES IDX 24 13 34 14 25 15 33 16 26 17 32 18 27 19 31 20 28 21 29 22
DOCKED: REMARK SMILES IDX 30 23 10 24 11 25 9 26 7 27 8 28 6 29 5 30 35 31 4 32 37 33
DOCKED: REMARK SMILES IDX 3 34 36 35 2 36 1 37 15 38
DOCKED: REMARK H PARENT 23 12 15 39
DOCKED: USER                              x       y       z     vdW  Elec       q    Type
DOCKED: USER                           _______ _______ _______ _____ _____    ______ ____
DOCKED: ROOT
DOCKED: ATOM      1  N   UNL     1     143.029  72.680 219.389 -0.03 +0.05    -0.330 N  
DOCKED: ATOM      2  C   UNL     1     144.223  72.102 218.792 -0.14 +0.01    +0.152 C  
DOCKED: ATOM      3  C   UNL     1     145.400  72.724 219.542 -0.33 +0.03    +0.136 C  
DOCKED: ATOM      4  C   UNL     1     144.811  73.286 220.835 -0.49 -0.01    +0.065 C  
DOCKED: ATOM      5  C   UNL     1     143.327  73.517 220.545 -0.25 -0.03    +0.136 C  
DOCKED: ENDROOT
DOCKED: BRANCH   1   6
DOCKED: ATOM      6  C   UNL     1     141.685  72.387 218.960 -0.03 -0.04    +0.245 C  
DOCKED: ATOM      7  O   UNL     1     141.495  71.624 217.975 -0.01 +0.05    -0.273 OA 
DOCKED: BRANCH   6   8
DOCKED: ATOM      8  C   UNL     1     140.498  72.998 219.641 -0.04 -0.05    +0.246 C  
DOCKED: BRANCH   8   9
DOCKED: ATOM      9  N   UNL     1     140.181  72.225 220.839 -0.08 +0.04    -0.240 NA 
DOCKED: BRANCH   9  10
DOCKED: ATOM     10  C   UNL     1     140.348  72.586 222.083 -0.22 -0.03    +0.233 C  
DOCKED: BRANCH  10  11
DOCKED: ATOM     11  O   UNL     1     140.700  73.908 222.344 -0.63 -0.05    -0.492 OA 
DOCKED: ATOM     12  H   UNL     1     141.077  74.506 221.617 +0.10 -0.04    +0.295 HD 
DOCKED: ENDBRANCH  10  11
DOCKED: BRANCH  10  13
DOCKED: ATOM     13  C   UNL     1     140.199  71.658 223.235 -0.31 -0.02    +0.125 A  
DOCKED: ATOM     14  N   UNL     1     140.690  71.981 224.463 -0.18 +0.03    -0.243 NA 
DOCKED: ATOM     15  C   UNL     1     139.582  70.409 223.051 -0.24 -0.01    +0.035 A  
DOCKED: ATOM     16  C   UNL     1     140.589  71.145 225.531 -0.53 -0.01    +0.071 A  
DOCKED: ATOM     17  C   UNL     1     139.461  69.529 224.129 -0.30 -0.00    +0.013 A  
DOCKED: ATOM     18  C   UNL     1     141.104  71.528 226.774 -0.71 -0.00    +0.032 A  
DOCKED: ATOM     19  C   UNL     1     139.962  69.889 225.384 -0.45 -0.00    +0.003 A  
DOCKED: ATOM     20  C   UNL     1     140.997  70.666 227.871 -0.63 -0.01    +0.041 A  
DOCKED: ATOM     21  C   UNL     1     139.859  69.031 226.488 -0.51 -0.01    +0.049 A  
DOCKED: ATOM     22  C   UNL     1     140.375  69.421 227.729 -0.52 -0.02    +0.123 A  
DOCKED: ATOM     23  F   UNL     1     140.272  68.591 228.796 -0.18 +0.04    -0.207 F  
DOCKED: ENDBRANCH  10  13
DOCKED: ENDBRANCH   9  10
DOCKED: ENDBRANCH   8   9
DOCKED: ENDBRANCH   6   8
DOCKED: ENDBRANCH   1   6
DOCKED: BRANCH   5  24
DOCKED: ATOM     24  C   UNL     1     143.055  74.970 220.228 -0.29 -0.03    +0.075 C  
DOCKED: ATOM     25  O   UNL     1     143.960  75.665 219.695 -0.30 +0.20    -0.318 OA 
DOCKED: BRANCH  24  26
DOCKED: ATOM     26  N   UNL     1     141.819  75.610 220.577 +0.00 +0.28    -0.645 NA 
DOCKED: BRANCH  26  27
DOCKED: ATOM     27  C   UNL     1     141.410  76.956 220.182 -0.24 +0.04    -0.077 C  
DOCKED: ATOM     28  C   UNL     1     140.450  76.878 218.995 -0.09 +0.00    -0.008 C  
DOCKED: BRANCH  27  29
DOCKED: ATOM     29  C   UNL     1     140.772  77.704 221.342 -0.29 +0.02    -0.044 A  
DOCKED: ATOM     30  C   UNL     1     141.412  78.861 221.825 -0.40 -0.00    +0.008 A  
DOCKED: ATOM     31  C   UNL     1     139.548  77.308 221.938 -0.28 -0.01    +0.046 A  
DOCKED: ATOM     32  C   UNL     1     140.877  79.585 222.892 -0.43 -0.01    +0.047 A  
DOCKED: ATOM     33  C   UNL     1     139.019  78.044 223.005 -0.22 -0.01    +0.067 A  
DOCKED: ATOM     34  C   UNL     1     139.676  79.178 223.493 -0.33 -0.02    +0.120 A  
DOCKED: ATOM     35  Cl  UNL     1     138.635  75.901 221.396 -0.27 +0.02    -0.084 Cl 
DOCKED: BRANCH  34  36
DOCKED: ATOM     36  O   UNL     1     139.101  79.868 224.570 -0.07 +0.05    -0.497 OA 
DOCKED: ATOM     37  C   UNL     1     138.096  80.869 224.438 -0.25 -0.03    +0.278 C  
DOCKED: ENDBRANCH  34  36
DOCKED: ENDBRANCH  27  29
DOCKED: ENDBRANCH  26  27
DOCKED: ENDBRANCH  24  26
DOCKED: ENDBRANCH   5  24
DOCKED: BRANCH   3  38
DOCKED: ATOM     38  O   UNL     1     146.389  71.769 219.823 -0.35 -0.34    -0.391 OA 
DOCKED: ATOM     39  H   UNL     1     146.294  71.541 220.786 -0.42 -0.04    +0.211 HD 
DOCKED: ENDBRANCH   3  38
DOCKED: TORSDOF 12
DOCKED: TER
DOCKED: ENDMDL
________________________________________________________________________________


    FINAL DOCKED STATE:
    ________________________


Run:   20 / 20
Time taken for this run:   0.200s

DOCKED: MODEL        20
DOCKED: USER    Run = 20
DOCKED: USER
DOCKED: USER    Estimated Free Energy of Binding    =  -6.67 kcal/mol  [=(1)+(2)+(3)-(4)]
DOCKED: USER
DOCKED: USER    (1) Final Intermolecular Energy     = -10.25 kcal/mol
DOCKED: USER        vdW + Hbond + desolv Energy     =  -9.35 kcal/mol
DOCKED: USER        Electrostatic Energy            =  -0.90 kcal/mol
DOCKED: USER        Moving Ligand-Fixed Receptor    = -10.25 kcal/mol
DOCKED: USER        Moving Ligand-Moving Receptor   =  +0.00 kcal/mol
DOCKED: USER    (2) Final Total Internal Energy     =  -3.68 kcal/mol
DOCKED: USER    (3) Torsional Free Energy           =  +3.58 kcal/mol
DOCKED: USER    (4) Unbound System's Energy         =  -3.68 kcal/mol
DOCKED: USER
DOCKED: USER
DOCKED: REMARK SMILES COc1ccc([C@H](C)[N-]C(=O)[C@@H]2C[C@@H](O)CN2C(=O)C/N=C(/O)c2ccc3cc(F)ccc3n2)c(Cl)c1
DOCKED: REMARK SMILES IDX 17 1 16 2 14 3 13 4 12 5 18 6 19 7 20 8 21 9 22 10 23 11
DOCKED: REMARK SMILES IDX 24 13 34 14 25 15 33 16 26 17 32 18 27 19 31 20 28 21 29 22
DOCKED: REMARK SMILES IDX 30 23 10 24 11 25 9 26 7 27 8 28 6 29 5 30 35 31 4 32 37 33
DOCKED: REMARK SMILES IDX 3 34 36 35 2 36 1 37 15 38
DOCKED: REMARK H PARENT 23 12 15 39
DOCKED: USER                              x       y       z     vdW  Elec       q    Type
DOCKED: USER                           _______ _______ _______ _____ _____    ______ ____
DOCKED: ROOT
DOCKED: ATOM      1  N   UNL     1     142.880  70.843 218.687 -0.01 +0.03    -0.330 N  
DOCKED: ATOM      2  C   UNL     1     142.067  71.195 217.533 -0.01 -0.02    +0.152 C  
DOCKED: ATOM      3  C   UNL     1     142.898  70.803 216.311 +0.01 -0.02    +0.136 C  
DOCKED: ATOM      4  C   UNL     1     143.956  69.830 216.830 -0.04 -0.01    +0.065 C  
DOCKED: ATOM      5  C   UNL     1     144.102  70.138 218.322 -0.11 +0.00    +0.136 C  
DOCKED: ENDROOT
DOCKED: BRANCH   1   6
DOCKED: ATOM      6  C   UNL     1     142.485  71.068 220.055 -0.09 -0.03    +0.245 C  
DOCKED: ATOM      7  O   UNL     1     143.314  71.548 220.874 -0.19 +0.04    -0.273 OA 
DOCKED: BRANCH   6   8
DOCKED: ATOM      8  C   UNL     1     141.112  70.713 220.539 -0.03 -0.03    +0.246 C  
DOCKED: BRANCH   8   9
DOCKED: ATOM      9  N   UNL     1     140.418  71.929 220.952 -0.09 +0.04    -0.240 NA 
DOCKED: BRANCH   9  10
DOCKED: ATOM     10  C   UNL     1     140.292  72.396 222.165 -0.22 -0.03    +0.233 C  
DOCKED: BRANCH  10  11
DOCKED: ATOM     11  O   UNL     1     140.317  73.777 222.344 -0.73 -0.01    -0.492 OA 
DOCKED: ATOM     12  H   UNL     1     140.507  74.405 221.572 +0.10 -0.04    +0.295 HD 
DOCKED: ENDBRANCH  10  11
DOCKED: BRANCH  10  13
DOCKED: ATOM     13  C   UNL     1     140.139  71.534 223.366 -0.32 -0.02    +0.125 A  
DOCKED: ATOM     14  N   UNL     1     140.643  71.916 224.572 -0.24 +0.03    -0.243 NA 
DOCKED: ATOM     15  C   UNL     1     139.503  70.285 223.255 -0.26 -0.01    +0.035 A  
DOCKED: ATOM     16  C   UNL     1     140.538  71.141 225.684 -0.53 -0.01    +0.071 A  
DOCKED: ATOM     17  C   UNL     1     139.378  69.467 224.379 -0.33 -0.00    +0.013 A  
DOCKED: ATOM     18  C   UNL     1     141.068  71.583 226.902 -0.73 -0.01    +0.032 A  
DOCKED: ATOM     19  C   UNL     1     139.894  69.888 225.610 -0.46 -0.00    +0.003 A  
DOCKED: ATOM     20  C   UNL     1     140.958  70.783 228.044 -0.64 -0.01    +0.041 A  
DOCKED: ATOM     21  C   UNL     1     139.787  69.091 226.759 -0.52 -0.01    +0.049 A  
DOCKED: ATOM     22  C   UNL     1     140.318  69.541 227.973 -0.52 -0.02    +0.123 A  
DOCKED: ATOM     23  F   UNL     1     140.212  68.772 229.085 -0.14 +0.04    -0.207 F  
DOCKED: ENDBRANCH  10  13
DOCKED: ENDBRANCH   9  10
DOCKED: ENDBRANCH   8   9
DOCKED: ENDBRANCH   6   8
DOCKED: ENDBRANCH   1   6
DOCKED: BRANCH   5  24
DOCKED: ATOM     24  C   UNL     1     145.311  71.009 218.582 -0.22 +0.04    +0.075 C  
DOCKED: ATOM     25  O   UNL     1     145.855  70.985 219.718 -0.21 -0.17    -0.318 OA 
DOCKED: BRANCH  24  26
DOCKED: ATOM     26  N   UNL     1     145.823  71.918 217.598 -0.18 -0.64    -0.645 NA 
DOCKED: BRANCH  26  27
DOCKED: ATOM     27  C   UNL     1     145.846  73.375 217.708 -0.08 -0.03    -0.077 C  
DOCKED: ATOM     28  C   UNL     1     145.928  73.997 216.314 -0.18 +0.00    -0.008 C  
DOCKED: BRANCH  27  29
DOCKED: ATOM     29  C   UNL     1     144.628  73.893 218.457 -0.12 +0.01    -0.044 A  
DOCKED: ATOM     30  C   UNL     1     143.456  74.160 217.725 -0.14 -0.00    +0.008 A  
DOCKED: ATOM     31  C   UNL     1     144.610  74.090 219.861 -0.40 -0.01    +0.046 A  
DOCKED: ATOM     32  C   UNL     1     142.310  74.643 218.357 -0.11 -0.01    +0.047 A  
DOCKED: ATOM     33  C   UNL     1     143.453  74.572 220.485 -0.33 -0.03    +0.067 A  
DOCKED: ATOM     34  C   UNL     1     142.302  74.857 219.745 -0.20 -0.04    +0.120 A  
DOCKED: ATOM     35  Cl  UNL     1     146.002  73.755 220.889 -0.86 +0.01    -0.084 Cl 
DOCKED: BRANCH  34  36
DOCKED: ATOM     36  O   UNL     1     141.177  75.346 220.425 -0.06 +0.16    -0.497 OA 
DOCKED: ATOM     37  C   UNL     1     141.067  76.667 220.949 -0.19 -0.12    +0.278 C  
DOCKED: ENDBRANCH  34  36
DOCKED: ENDBRANCH  27  29
DOCKED: ENDBRANCH  26  27
DOCKED: ENDBRANCH  24  26
DOCKED: ENDBRANCH   5  24
DOCKED: BRANCH   3  38
DOCKED: ATOM     38  O   UNL     1     142.105  70.192 215.328 +0.01 +0.08    -0.391 OA 
DOCKED: ATOM     39  H   UNL     1     141.191  70.569 215.430 +0.00 -0.04    +0.211 HD 
DOCKED: ENDBRANCH   3  38
DOCKED: TORSDOF 12
DOCKED: TER
DOCKED: ENDMDL
________________________________________________________________________________


    CLUSTERING HISTOGRAM
    ____________________


________________________________________________________________________________
     |           |     |           |     |
Clus | Lowest    | Run | Mean      | Num | Histogram
-ter | Binding   |     | Binding   | in  |
Rank | Energy    |     | Energy    | Clus|    5    10   15   20   25   30   35
_____|___________|_____|___________|_____|____:____|____:____|____:____|____:___
   1 |     -8.05 |  12 |     -7.61 |   2 |##
   2 |     -8.02 |   3 |     -7.28 |   4 |####
   3 |     -7.99 |  10 |     -7.69 |   2 |##
   4 |     -7.19 |   5 |     -6.98 |   3 |###
   5 |     -7.06 |  11 |     -6.85 |   5 |#####
   6 |     -6.88 |   6 |     -6.88 |   1 |#
   7 |     -6.54 |   8 |     -6.54 |   1 |#
   8 |     -5.43 |   2 |     -5.43 |   1 |#
   9 |     -5.33 |  14 |     -5.33 |   1 |#
_____|___________|_____|___________|_____|______________________________________


    RMSD TABLE
    __________


_______________________________________________________________________
     |      |      |           |         |                 |
Rank | Sub- | Run  | Binding   | Cluster | Reference       | Grep
     | Rank |      | Energy    | RMSD    | RMSD            | Pattern
_____|______|______|___________|_________|_________________|___________
   1      1     12       -8.05      0.00    270.58           RANKING
   1      2     13       -7.17      1.89    270.41           RANKING
   2      1      3       -8.02      0.00    270.46           RANKING
   2      2     19       -7.31      1.46    270.36           RANKING
   2      3     15       -7.28      1.13    270.25           RANKING
   2      4     16       -6.53      1.45    269.76           RANKING
   3      1     10       -7.99      0.00    270.36           RANKING
   3      2     18       -7.39      1.29    270.23           RANKING
   4      1      5       -7.19      0.00    269.39           RANKING
   4      2      9       -7.07      1.45    269.37           RANKING
   4      3     20       -6.67      1.51    269.27           RANKING
   5      1     11       -7.06      0.00    270.16           RANKING
   5      2     17       -7.06      0.07    270.18           RANKING
   5      3      7       -6.79      0.93    269.93           RANKING
   5      4      4       -6.68      1.94    270.13           RANKING
   5      5      1       -6.66      1.29    269.96           RANKING
   6      1      6       -6.88      0.00    270.67           RANKING
   7      1      8       -6.54      0.00    268.93           RANKING
   8      1      2       -5.43      0.00    270.26           RANKING
   9      1     14       -5.33      0.00    269.32           RANKING

Run time 3.933 sec
Idle time 0.000 sec
