AutoDock-GPU version: v1.6

**********************************************************
**    AutoDock-GPU AUTODOCKTOOLS-COMPATIBLE DLG FILE    **
**********************************************************


    DOCKING PARAMETERS
    ________________________


Ligand file:                               /home/a/REINVENT4/ReinventStudies/scoringData/graph-dock/graph-DockGPU/node-autodockgpu/inputs/JFIDHXWBANSMLJ-FGCCFZHGNA-M.pdbqt
Grid fld file:                             /home/a/REINVENT4/ReinventStudies/mols/Rad51/maps/rad51_receptor.maps.fld

Random seed:                               42
Number of runs:                            20
Number of energy evaluations:              3765539
Number of generations:                     42000
Size of population:                        150
Rate of crossover:                         80.000000%
Tournament selection probability limit:    60.000000%
Rate of mutation:                          2.000000%
Maximal allowed delta movement:            +/- 6.000000A
Maximal allowed delta angle:               +/- 90.000000

Rate of local search:                      100.000000%
Maximal number of local search iterations: 300
Rho lower bound:                           0.010000
Spread of local search delta movement:     2.000000A
Spread of local search delta angle:        74.999999
Limit of consecutive successes/failures:   4

Handle symmetry during clustering:         YES
RMSD tolerance:                            2.000000A

Program call in command line was:          /home/a/REINVENT4/ReinventStudies/adgpu-v1.6_linux_x64_cuda12_128wi --filelist batch.txt --heuristics 1 --nrun 20 --psize 150 --lsit 300 --seed 42 --heurmax 12000000 


    GRID PARAMETERS
    ________________________


Receptor name:                             rad51_receptor
Number of grid points (x, y, z):           53, 53, 53
Grid center (x, y, z):                     139.950000, 75.640000, 221.970000A
Grid size (x, y, z):                       19.500000, 19.500000, 19.500000A
Grid spacing:                              0.375000A


    LIGAND PARAMETERS
    ________________________


Ligand name:                               /home/a/REINVENT4/ReinventStudies/scoringData/graph-dock/graph-DockGPU/node-autodockgpu/inputs/JFIDHXWBANSMLJ-FGCCFZHGNA-M
Number of atoms:                           39
Number of rotatable bonds:                 12
Number of atom types:                      8


    DUMMY DATA (only for ADT-compatibility)
    ________________________


DPF> outlev 1
DPF> ga_run 20
DPF> fld /home/a/REINVENT4/ReinventStudies/mols/Rad51/maps/rad51_receptor.maps.fld
DPF> move /home/a/REINVENT4/ReinventStudies/scoringData/graph-dock/graph-DockGPU/node-autodockgpu/inputs/JFIDHXWBANSMLJ-FGCCFZHGNA-M.pdbqt


    COUNTER STATES
    ________________________


Number of energy evaluations performed:    1092071
Number of generations used:                90


    INPUT LIGAND PDBQT FILE:
    ________________________


INPUT-LIGAND-PDBQT: REMARK SMILES COc1ccc([C@H](C)[N-]C(=O)[C@@H]2C[C@@H](O)CN2C(=O)C/N=C(\O)c2ccc3cc(F)ccc3n2)c(Cl)c1
INPUT-LIGAND-PDBQT: REMARK SMILES IDX 17 1 16 2 14 3 13 4 12 5 18 6 19 7 20 8 21 9 22 10 23 11
INPUT-LIGAND-PDBQT: REMARK SMILES IDX 24 13 34 14 25 15 33 16 26 17 32 18 27 19 31 20 28 21 29 22
INPUT-LIGAND-PDBQT: REMARK SMILES IDX 30 23 10 24 11 25 9 26 7 27 8 28 6 29 5 30 35 31 4 32 37 33
INPUT-LIGAND-PDBQT: REMARK SMILES IDX 3 34 36 35 2 36 1 37 15 38
INPUT-LIGAND-PDBQT: REMARK H PARENT 23 12 15 39
INPUT-LIGAND-PDBQT: ROOT
INPUT-LIGAND-PDBQT: ATOM      1  N   UNL     1       1.482  -0.824  -0.159  1.00  0.00    -0.330 N 
INPUT-LIGAND-PDBQT: ATOM      2  C   UNL     1       0.169  -0.268   0.135  1.00  0.00     0.152 C 
INPUT-LIGAND-PDBQT: ATOM      3  C   UNL     1      -0.515  -1.273   1.065  1.00  0.00     0.136 C 
INPUT-LIGAND-PDBQT: ATOM      4  C   UNL     1       0.305  -2.564   0.952  1.00  0.00     0.065 C 
INPUT-LIGAND-PDBQT: ATOM      5  C   UNL     1       1.684  -2.124   0.466  1.00  0.00     0.136 C 
INPUT-LIGAND-PDBQT: ENDROOT
INPUT-LIGAND-PDBQT: BRANCH   1   6
INPUT-LIGAND-PDBQT: ATOM      6  C   UNL     1       2.517  -0.099  -0.850  1.00  0.00     0.245 C 
INPUT-LIGAND-PDBQT: ATOM      7  O   UNL     1       3.727  -0.402  -0.664  1.00  0.00    -0.273 OA
INPUT-LIGAND-PDBQT: BRANCH   6   8
INPUT-LIGAND-PDBQT: ATOM      8  C   UNL     1       2.183   1.003  -1.809  1.00  0.00     0.246 C 
INPUT-LIGAND-PDBQT: BRANCH   8   9
INPUT-LIGAND-PDBQT: ATOM      9  N   UNL     1       1.710   2.170  -1.073  1.00  0.00    -0.240 NA
INPUT-LIGAND-PDBQT: BRANCH   9  10
INPUT-LIGAND-PDBQT: ATOM     10  C   UNL     1       1.350   3.300  -1.609  1.00  0.00     0.233 C 
INPUT-LIGAND-PDBQT: BRANCH  10  11
INPUT-LIGAND-PDBQT: ATOM     11  O   UNL     1       1.410   3.506  -2.992  1.00  0.00    -0.492 OA
INPUT-LIGAND-PDBQT: ATOM     12  H   UNL     1       1.726   2.801  -3.642  1.00  0.00     0.295 HD
INPUT-LIGAND-PDBQT: ENDBRANCH  10  11
INPUT-LIGAND-PDBQT: BRANCH  10  13
INPUT-LIGAND-PDBQT: ATOM     13  C   UNL     1       0.862   4.384  -0.735  1.00  0.00     0.125 A 
INPUT-LIGAND-PDBQT: ATOM     14  N   UNL     1       0.716   4.156   0.601  1.00  0.00    -0.243 NA
INPUT-LIGAND-PDBQT: ATOM     15  C   UNL     1       0.535   5.645  -1.261  1.00  0.00     0.035 A 
INPUT-LIGAND-PDBQT: ATOM     16  C   UNL     1       0.264   5.113   1.454  1.00  0.00     0.071 A 
INPUT-LIGAND-PDBQT: ATOM     17  C   UNL     1       0.067   6.648  -0.410  1.00  0.00     0.013 A 
INPUT-LIGAND-PDBQT: ATOM     18  C   UNL     1       0.130   4.832   2.818  1.00  0.00     0.032 A 
INPUT-LIGAND-PDBQT: ATOM     19  C   UNL     1      -0.071   6.393   0.962  1.00  0.00     0.003 A 
INPUT-LIGAND-PDBQT: ATOM     20  C   UNL     1      -0.334   5.820   3.695  1.00  0.00     0.041 A 
INPUT-LIGAND-PDBQT: ATOM     21  C   UNL     1      -0.535   7.379   1.847  1.00  0.00     0.049 A 
INPUT-LIGAND-PDBQT: ATOM     22  C   UNL     1      -0.664   7.092   3.211  1.00  0.00     0.123 A 
INPUT-LIGAND-PDBQT: ATOM     23  F   UNL     1      -1.109   8.048   4.067  1.00  0.00    -0.207 F 
INPUT-LIGAND-PDBQT: ENDBRANCH  10  13
INPUT-LIGAND-PDBQT: ENDBRANCH   9  10
INPUT-LIGAND-PDBQT: ENDBRANCH   8   9
INPUT-LIGAND-PDBQT: ENDBRANCH   6   8
INPUT-LIGAND-PDBQT: ENDBRANCH   1   6
INPUT-LIGAND-PDBQT: BRANCH   5  24
INPUT-LIGAND-PDBQT: ATOM     24  C   UNL     1       2.335  -3.133  -0.457  1.00  0.00     0.075 C 
INPUT-LIGAND-PDBQT: ATOM     25  O   UNL     1       3.245  -3.868   0.013  1.00  0.00    -0.318 OA
INPUT-LIGAND-PDBQT: BRANCH  24  26
INPUT-LIGAND-PDBQT: ATOM     26  N   UNL     1       2.009  -3.270  -1.851  1.00  0.00    -0.645 NA
INPUT-LIGAND-PDBQT: BRANCH  26  27
INPUT-LIGAND-PDBQT: ATOM     27  C   UNL     1       0.759  -2.907  -2.518  1.00  0.00    -0.077 C 
INPUT-LIGAND-PDBQT: ATOM     28  C   UNL     1       1.041  -2.645  -3.996  1.00  0.00    -0.008 C 
INPUT-LIGAND-PDBQT: BRANCH  27  29
INPUT-LIGAND-PDBQT: ATOM     29  C   UNL     1      -0.270  -4.016  -2.374  1.00  0.00    -0.044 A 
INPUT-LIGAND-PDBQT: ATOM     30  C   UNL     1       0.139  -5.364  -2.461  1.00  0.00     0.008 A 
INPUT-LIGAND-PDBQT: ATOM     31  C   UNL     1      -1.649  -3.731  -2.221  1.00  0.00     0.046 A 
INPUT-LIGAND-PDBQT: ATOM     32  C   UNL     1      -0.790  -6.400  -2.351  1.00  0.00     0.047 A 
INPUT-LIGAND-PDBQT: ATOM     33  C   UNL     1      -2.574  -4.777  -2.102  1.00  0.00     0.067 A 
INPUT-LIGAND-PDBQT: ATOM     34  C   UNL     1      -2.149  -6.118  -2.164  1.00  0.00     0.120 A 
INPUT-LIGAND-PDBQT: ATOM     35  Cl  UNL     1      -2.273  -2.082  -2.194  1.00  0.00    -0.084 Cl
INPUT-LIGAND-PDBQT: BRANCH  34  36
INPUT-LIGAND-PDBQT: ATOM     36  O   UNL     1      -3.041  -7.195  -2.050  1.00  0.00    -0.497 OA
INPUT-LIGAND-PDBQT: ATOM     37  C   UNL     1      -4.440  -7.062  -1.822  1.00  0.00     0.278 C 
INPUT-LIGAND-PDBQT: ENDBRANCH  34  36
INPUT-LIGAND-PDBQT: ENDBRANCH  27  29
INPUT-LIGAND-PDBQT: ENDBRANCH  26  27
INPUT-LIGAND-PDBQT: ENDBRANCH  24  26
INPUT-LIGAND-PDBQT: ENDBRANCH   5  24
INPUT-LIGAND-PDBQT: BRANCH   3  38
INPUT-LIGAND-PDBQT: ATOM     38  O   UNL     1      -0.480  -0.793   2.385  1.00  0.00    -0.391 OA
INPUT-LIGAND-PDBQT: ATOM     39  H   UNL     1      -1.107  -1.357   2.911  1.00  0.00     0.211 HD
INPUT-LIGAND-PDBQT: ENDBRANCH   3  38
INPUT-LIGAND-PDBQT: TORSDOF 12


    FINAL DOCKED STATE:
    ________________________


Run:   1 / 20
Time taken for this run:   0.064s

DOCKED: MODEL        1
DOCKED: USER    Run = 1
DOCKED: USER
DOCKED: USER    Estimated Free Energy of Binding    =  -6.61 kcal/mol  [=(1)+(2)+(3)-(4)]
DOCKED: USER
DOCKED: USER    (1) Final Intermolecular Energy     = -10.19 kcal/mol
DOCKED: USER        vdW + Hbond + desolv Energy     = -10.60 kcal/mol
DOCKED: USER        Electrostatic Energy            =  +0.41 kcal/mol
DOCKED: USER        Moving Ligand-Fixed Receptor    = -10.19 kcal/mol
DOCKED: USER        Moving Ligand-Moving Receptor   =  +0.00 kcal/mol
DOCKED: USER    (2) Final Total Internal Energy     =  -2.72 kcal/mol
DOCKED: USER    (3) Torsional Free Energy           =  +3.58 kcal/mol
DOCKED: USER    (4) Unbound System's Energy         =  -2.72 kcal/mol
DOCKED: USER
DOCKED: USER
DOCKED: REMARK SMILES COc1ccc([C@H](C)[N-]C(=O)[C@@H]2C[C@@H](O)CN2C(=O)C/N=C(\O)c2ccc3cc(F)ccc3n2)c(Cl)c1
DOCKED: REMARK SMILES IDX 17 1 16 2 14 3 13 4 12 5 18 6 19 7 20 8 21 9 22 10 23 11
DOCKED: REMARK SMILES IDX 24 13 34 14 25 15 33 16 26 17 32 18 27 19 31 20 28 21 29 22
DOCKED: REMARK SMILES IDX 30 23 10 24 11 25 9 26 7 27 8 28 6 29 5 30 35 31 4 32 37 33
DOCKED: REMARK SMILES IDX 3 34 36 35 2 36 1 37 15 38
DOCKED: REMARK H PARENT 23 12 15 39
DOCKED: USER                              x       y       z     vdW  Elec       q    Type
DOCKED: USER                           _______ _______ _______ _____ _____    ______ ____
DOCKED: ROOT
DOCKED: ATOM      1  N   UNL     1     140.554  75.230 220.181 -0.05 +0.09    -0.330 N  
DOCKED: ATOM      2  C   UNL     1     141.146  74.317 219.214 -0.07 -0.04    +0.152 C  
DOCKED: ATOM      3  C   UNL     1     142.651  74.596 219.239 -0.18 -0.05    +0.136 C  
DOCKED: ATOM      4  C   UNL     1     142.809  75.944 219.953 -0.28 -0.04    +0.065 C  
DOCKED: ATOM      5  C   UNL     1     141.544  76.106 220.793 -0.21 -0.06    +0.136 C  
DOCKED: ENDROOT
DOCKED: BRANCH   1   6
DOCKED: ATOM      6  C   UNL     1     139.178  75.163 220.600 -0.09 -0.06    +0.245 C  
DOCKED: ATOM      7  O   UNL     1     138.301  75.833 219.989 -0.02 +0.06    -0.273 OA 
DOCKED: BRANCH   6   8
DOCKED: ATOM      8  C   UNL     1     138.758  74.289 221.743 -0.14 -0.06    +0.246 C  
DOCKED: BRANCH   8   9
DOCKED: ATOM      9  N   UNL     1     139.938  73.744 222.405 -0.75 +0.01    -0.240 NA 
DOCKED: BRANCH   9  10
DOCKED: ATOM     10  C   UNL     1     140.376  72.526 222.273 -0.22 -0.02    +0.233 C  
DOCKED: BRANCH  10  11
DOCKED: ATOM     11  O   UNL     1     141.014  72.100 221.102 -0.06 +0.06    -0.492 OA 
DOCKED: ATOM     12  H   UNL     1     142.013  72.157 220.965 +0.11 -0.03    +0.295 HD 
DOCKED: ENDBRANCH  10  11
DOCKED: BRANCH  10  13
DOCKED: ATOM     13  C   UNL     1     140.201  71.576 223.389 -0.32 -0.02    +0.125 A  
DOCKED: ATOM     14  N   UNL     1     140.683  71.894 224.624 -0.26 +0.03    -0.243 NA 
DOCKED: ATOM     15  C   UNL     1     139.553  70.345 223.195 -0.25 -0.01    +0.035 A  
DOCKED: ATOM     16  C   UNL     1     140.557  71.057 225.687 -0.53 -0.01    +0.071 A  
DOCKED: ATOM     17  C   UNL     1     139.411  69.463 224.268 -0.32 -0.00    +0.013 A  
DOCKED: ATOM     18  C   UNL     1     141.069  71.426 226.936 -0.71 -0.01    +0.032 A  
DOCKED: ATOM     19  C   UNL     1     139.910  69.812 225.531 -0.45 -0.00    +0.003 A  
DOCKED: ATOM     20  C   UNL     1     140.937  70.563 228.031 -0.61 -0.01    +0.041 A  
DOCKED: ATOM     21  C   UNL     1     139.781  68.952 226.633 -0.52 -0.01    +0.049 A  
DOCKED: ATOM     22  C   UNL     1     140.292  69.329 227.880 -0.52 -0.02    +0.123 A  
DOCKED: ATOM     23  F   UNL     1     140.163  68.498 228.947 -0.16 +0.04    -0.207 F  
DOCKED: ENDBRANCH  10  13
DOCKED: ENDBRANCH   9  10
DOCKED: ENDBRANCH   8   9
DOCKED: ENDBRANCH   6   8
DOCKED: ENDBRANCH   1   6
DOCKED: BRANCH   5  24
DOCKED: ATOM     24  C   UNL     1     141.083  77.545 220.896 -0.27 -0.03    +0.075 C  
DOCKED: ATOM     25  O   UNL     1     139.962  77.846 220.404 -0.04 +0.10    -0.318 OA 
DOCKED: BRANCH  24  26
DOCKED: ATOM     26  N   UNL     1     141.870  78.597 221.480 +0.02 +0.38    -0.645 NA 
DOCKED: BRANCH  26  27
DOCKED: ATOM     27  C   UNL     1     141.801  79.114 222.846 -0.52 +0.03    -0.077 C  
DOCKED: ATOM     28  C   UNL     1     143.004  80.019 223.098 -0.63 +0.00    -0.008 C  
DOCKED: BRANCH  27  29
DOCKED: ATOM     29  C   UNL     1     140.512  79.890 223.064 -0.41 +0.01    -0.044 A  
DOCKED: ATOM     30  C   UNL     1     139.584  79.446 224.031 -0.36 -0.00    +0.008 A  
DOCKED: ATOM     31  C   UNL     1     140.184  81.016 222.271 -0.30 -0.01    +0.046 A  
DOCKED: ATOM     32  C   UNL     1     138.385  80.131 224.236 -0.35 -0.01    +0.047 A  
DOCKED: ATOM     33  C   UNL     1     138.982  81.704 222.490 -0.19 -0.01    +0.067 A  
DOCKED: ATOM     34  C   UNL     1     138.077  81.266 223.476 -0.25 -0.01    +0.120 A  
DOCKED: ATOM     35  Cl  UNL     1     141.231  81.595 220.976 -0.41 +0.02    -0.084 Cl 
DOCKED: BRANCH  34  36
DOCKED: ATOM     36  O   UNL     1     136.863  81.923 223.727 -0.05 +0.05    -0.497 OA 
DOCKED: ATOM     37  C   UNL     1     136.325  82.153 225.025 -0.17 -0.03    +0.278 C  
DOCKED: ENDBRANCH  34  36
DOCKED: ENDBRANCH  27  29
DOCKED: ENDBRANCH  26  27
DOCKED: ENDBRANCH  24  26
DOCKED: ENDBRANCH   5  24
DOCKED: BRANCH   3  38
DOCKED: ATOM     38  O   UNL     1     143.305  73.586 219.965 -0.11 +0.09    -0.391 OA 
DOCKED: ATOM     39  H   UNL     1     142.730  73.377 220.748 +0.09 -0.04    +0.211 HD 
DOCKED: ENDBRANCH   3  38
DOCKED: TORSDOF 12
DOCKED: TER
DOCKED: ENDMDL
________________________________________________________________________________


    FINAL DOCKED STATE:
    ________________________


Run:   2 / 20
Time taken for this run:   0.064s

DOCKED: MODEL        2
DOCKED: USER    Run = 2
DOCKED: USER
DOCKED: USER    Estimated Free Energy of Binding    =  -5.56 kcal/mol  [=(1)+(2)+(3)-(4)]
DOCKED: USER
DOCKED: USER    (1) Final Intermolecular Energy     =  -9.13 kcal/mol
DOCKED: USER        vdW + Hbond + desolv Energy     =  -9.09 kcal/mol
DOCKED: USER        Electrostatic Energy            =  -0.04 kcal/mol
DOCKED: USER        Moving Ligand-Fixed Receptor    =  -9.13 kcal/mol
DOCKED: USER        Moving Ligand-Moving Receptor   =  +0.00 kcal/mol
DOCKED: USER    (2) Final Total Internal Energy     =  -4.10 kcal/mol
DOCKED: USER    (3) Torsional Free Energy           =  +3.58 kcal/mol
DOCKED: USER    (4) Unbound System's Energy         =  -4.10 kcal/mol
DOCKED: USER
DOCKED: USER
DOCKED: REMARK SMILES COc1ccc([C@H](C)[N-]C(=O)[C@@H]2C[C@@H](O)CN2C(=O)C/N=C(\O)c2ccc3cc(F)ccc3n2)c(Cl)c1
DOCKED: REMARK SMILES IDX 17 1 16 2 14 3 13 4 12 5 18 6 19 7 20 8 21 9 22 10 23 11
DOCKED: REMARK SMILES IDX 24 13 34 14 25 15 33 16 26 17 32 18 27 19 31 20 28 21 29 22
DOCKED: REMARK SMILES IDX 30 23 10 24 11 25 9 26 7 27 8 28 6 29 5 30 35 31 4 32 37 33
DOCKED: REMARK SMILES IDX 3 34 36 35 2 36 1 37 15 38
DOCKED: REMARK H PARENT 23 12 15 39
DOCKED: USER                              x       y       z     vdW  Elec       q    Type
DOCKED: USER                           _______ _______ _______ _____ _____    ______ ____
DOCKED: ROOT
DOCKED: ATOM      1  N   UNL     1     137.864  76.132 222.181 -0.13 +0.08    -0.330 N  
DOCKED: ATOM      2  C   UNL     1     138.049  74.851 221.514 -0.15 -0.04    +0.152 C  
DOCKED: ATOM      3  C   UNL     1     139.562  74.651 221.399 -0.22 -0.03    +0.136 C  
DOCKED: ATOM      4  C   UNL     1     140.182  76.028 221.667 -0.32 -0.02    +0.065 C  
DOCKED: ATOM      5  C   UNL     1     139.130  76.795 222.465 -0.23 -0.03    +0.136 C  
DOCKED: ENDROOT
DOCKED: BRANCH   1   6
DOCKED: ATOM      6  C   UNL     1     136.589  76.608 222.652 -0.16 -0.05    +0.245 C  
DOCKED: ATOM      7  O   UNL     1     136.135  76.200 223.756 -0.20 +0.05    -0.273 OA 
DOCKED: BRANCH   6   8
DOCKED: ATOM      8  C   UNL     1     135.793  77.602 221.862 -0.06 -0.04    +0.246 C  
DOCKED: BRANCH   8   9
DOCKED: ATOM      9  N   UNL     1     135.455  78.743 222.704 -0.06 +0.03    -0.240 NA 
DOCKED: BRANCH   9  10
DOCKED: ATOM     10  C   UNL     1     136.198  79.799 222.872 -0.10 -0.03    +0.233 C  
DOCKED: BRANCH  10  11
DOCKED: ATOM     11  O   UNL     1     136.962  80.329 221.826 -0.00 +0.07    -0.492 OA 
DOCKED: ATOM     12  H   UNL     1     137.960  80.198 221.750 +0.08 -0.05    +0.295 HD 
DOCKED: ENDBRANCH  10  11
DOCKED: BRANCH  10  13
DOCKED: ATOM     13  C   UNL     1     136.227  80.451 224.195 -0.19 -0.01    +0.125 A  
DOCKED: ATOM     14  N   UNL     1     135.161  80.316 225.034 -0.09 +0.03    -0.243 NA 
DOCKED: ATOM     15  C   UNL     1     137.332  81.219 224.598 -0.35 -0.00    +0.035 A  
DOCKED: ATOM     16  C   UNL     1     135.127  80.900 226.261 -0.20 -0.01    +0.071 A  
DOCKED: ATOM     17  C   UNL     1     137.326  81.832 225.852 -0.43 -0.00    +0.013 A  
DOCKED: ATOM     18  C   UNL     1     134.011  80.733 227.088 -0.20 -0.01    +0.032 A  
DOCKED: ATOM     19  C   UNL     1     136.221  81.676 226.702 -0.45 -0.00    +0.003 A  
DOCKED: ATOM     20  C   UNL     1     133.980  81.334 228.353 -0.25 -0.01    +0.041 A  
DOCKED: ATOM     21  C   UNL     1     136.183  82.274 227.971 -0.34 -0.01    +0.049 A  
DOCKED: ATOM     22  C   UNL     1     135.064  82.101 228.795 -0.37 -0.02    +0.123 A  
DOCKED: ATOM     23  F   UNL     1     135.030  82.678 230.024 -0.15 -0.01    -0.207 F  
DOCKED: ENDBRANCH  10  13
DOCKED: ENDBRANCH   9  10
DOCKED: ENDBRANCH   8   9
DOCKED: ENDBRANCH   6   8
DOCKED: ENDBRANCH   1   6
DOCKED: BRANCH   5  24
DOCKED: ATOM     24  C   UNL     1     139.110  78.276 222.146 -0.24 -0.02    +0.075 C  
DOCKED: ATOM     25  O   UNL     1     138.875  78.625 220.958 -0.04 +0.07    -0.318 OA 
DOCKED: BRANCH  24  26
DOCKED: ATOM     26  N   UNL     1     139.390  79.306 223.110 +0.01 +0.11    -0.645 NA 
DOCKED: BRANCH  26  27
DOCKED: ATOM     27  C   UNL     1     140.499  80.259 223.104 -0.41 +0.01    -0.077 C  
DOCKED: ATOM     28  C   UNL     1     141.715  79.613 223.767 -0.61 +0.00    -0.008 C  
DOCKED: BRANCH  27  29
DOCKED: ATOM     29  C   UNL     1     140.843  80.677 221.684 -0.31 +0.01    -0.044 A  
DOCKED: ATOM     30  C   UNL     1     141.861  79.997 220.983 -0.37 -0.00    +0.008 A  
DOCKED: ATOM     31  C   UNL     1     140.211  81.784 221.065 -0.23 -0.01    +0.046 A  
DOCKED: ATOM     32  C   UNL     1     142.208  80.375 219.684 -0.25 -0.03    +0.047 A  
DOCKED: ATOM     33  C   UNL     1     140.559  82.150 219.758 -0.18 -0.02    +0.067 A  
DOCKED: ATOM     34  C   UNL     1     141.558  81.446 219.059 -0.22 -0.05    +0.120 A  
DOCKED: ATOM     35  Cl  UNL     1     138.994  82.756 221.890 -0.15 +0.01    -0.084 Cl 
DOCKED: BRANCH  34  36
DOCKED: ATOM     36  O   UNL     1     141.937  81.780 217.750 -0.08 +0.29    -0.497 OA 
DOCKED: ATOM     37  C   UNL     1     143.278  82.013 217.334 -0.20 -0.27    +0.278 C  
DOCKED: ENDBRANCH  34  36
DOCKED: ENDBRANCH  27  29
DOCKED: ENDBRANCH  26  27
DOCKED: ENDBRANCH  24  26
DOCKED: ENDBRANCH   5  24
DOCKED: BRANCH   3  38
DOCKED: ATOM     38  O   UNL     1     139.991  73.731 222.370 -0.78 +0.02    -0.391 OA 
DOCKED: ATOM     39  H   UNL     1     139.285  73.703 223.069 -0.49 -0.08    +0.211 HD 
DOCKED: ENDBRANCH   3  38
DOCKED: TORSDOF 12
DOCKED: TER
DOCKED: ENDMDL
________________________________________________________________________________


    FINAL DOCKED STATE:
    ________________________


Run:   3 / 20
Time taken for this run:   0.064s

DOCKED: MODEL        3
DOCKED: USER    Run = 3
DOCKED: USER
DOCKED: USER    Estimated Free Energy of Binding    =  -4.28 kcal/mol  [=(1)+(2)+(3)-(4)]
DOCKED: USER
DOCKED: USER    (1) Final Intermolecular Energy     =  -7.86 kcal/mol
DOCKED: USER        vdW + Hbond + desolv Energy     =  -8.07 kcal/mol
DOCKED: USER        Electrostatic Energy            =  +0.21 kcal/mol
DOCKED: USER        Moving Ligand-Fixed Receptor    =  -7.86 kcal/mol
DOCKED: USER        Moving Ligand-Moving Receptor   =  +0.00 kcal/mol
DOCKED: USER    (2) Final Total Internal Energy     =  -5.60 kcal/mol
DOCKED: USER    (3) Torsional Free Energy           =  +3.58 kcal/mol
DOCKED: USER    (4) Unbound System's Energy         =  -5.60 kcal/mol
DOCKED: USER
DOCKED: USER
DOCKED: REMARK SMILES COc1ccc([C@H](C)[N-]C(=O)[C@@H]2C[C@@H](O)CN2C(=O)C/N=C(\O)c2ccc3cc(F)ccc3n2)c(Cl)c1
DOCKED: REMARK SMILES IDX 17 1 16 2 14 3 13 4 12 5 18 6 19 7 20 8 21 9 22 10 23 11
DOCKED: REMARK SMILES IDX 24 13 34 14 25 15 33 16 26 17 32 18 27 19 31 20 28 21 29 22
DOCKED: REMARK SMILES IDX 30 23 10 24 11 25 9 26 7 27 8 28 6 29 5 30 35 31 4 32 37 33
DOCKED: REMARK SMILES IDX 3 34 36 35 2 36 1 37 15 38
DOCKED: REMARK H PARENT 23 12 15 39
DOCKED: USER                              x       y       z     vdW  Elec       q    Type
DOCKED: USER                           _______ _______ _______ _____ _____    ______ ____
DOCKED: ROOT
DOCKED: ATOM      1  N   UNL     1     137.750  75.661 219.896 -0.00 +0.07    -0.330 N  
DOCKED: ATOM      2  C   UNL     1     137.928  74.323 220.442 -0.06 -0.03    +0.152 C  
DOCKED: ATOM      3  C   UNL     1     139.369  74.265 220.955 -0.15 -0.03    +0.136 C  
DOCKED: ATOM      4  C   UNL     1     140.080  75.468 220.322 -0.14 -0.02    +0.065 C  
DOCKED: ATOM      5  C   UNL     1     138.969  76.455 219.972 -0.05 -0.03    +0.136 C  
DOCKED: ENDROOT
DOCKED: BRANCH   1   6
DOCKED: ATOM      6  C   UNL     1     136.476  76.189 219.482 -0.01 -0.04    +0.245 C  
DOCKED: ATOM      7  O   UNL     1     135.926  75.752 218.434 -0.00 +0.05    -0.273 OA 
DOCKED: BRANCH   6   8
DOCKED: ATOM      8  C   UNL     1     135.774  77.240 220.287 -0.01 -0.04    +0.246 C  
DOCKED: BRANCH   8   9
DOCKED: ATOM      9  N   UNL     1     135.630  76.790 221.666 -0.03 +0.04    -0.240 NA 
DOCKED: BRANCH   9  10
DOCKED: ATOM     10  C   UNL     1     136.613  76.572 222.491 -0.15 -0.04    +0.233 C  
DOCKED: BRANCH  10  11
DOCKED: ATOM     11  O   UNL     1     136.761  75.343 223.145 -0.10 +0.16    -0.492 OA 
DOCKED: ATOM     12  H   UNL     1     137.655  74.983 223.447 -0.32 -0.20    +0.295 HD 
DOCKED: ENDBRANCH  10  11
DOCKED: BRANCH  10  13
DOCKED: ATOM     13  C   UNL     1     137.595  77.646 222.735 -0.20 -0.02    +0.125 A  
DOCKED: ATOM     14  N   UNL     1     138.925  77.350 222.750 -0.18 +0.04    -0.243 NA 
DOCKED: ATOM     15  C   UNL     1     137.178  78.968 222.963 -0.19 -0.00    +0.035 A  
DOCKED: ATOM     16  C   UNL     1     139.875  78.295 222.976 -0.30 -0.01    +0.071 A  
DOCKED: ATOM     17  C   UNL     1     138.131  79.961 223.200 -0.30 -0.00    +0.013 A  
DOCKED: ATOM     18  C   UNL     1     141.229  77.943 222.982 -0.45 -0.01    +0.032 A  
DOCKED: ATOM     19  C   UNL     1     139.494  79.635 223.206 -0.39 -0.00    +0.003 A  
DOCKED: ATOM     20  C   UNL     1     142.206  78.919 223.214 -0.52 -0.02    +0.041 A  
DOCKED: ATOM     21  C   UNL     1     140.479  80.608 223.437 -0.43 -0.01    +0.049 A  
DOCKED: ATOM     22  C   UNL     1     141.832  80.249 223.439 -0.51 -0.03    +0.123 A  
DOCKED: ATOM     23  F   UNL     1     142.785  81.193 223.659 -0.19 +0.03    -0.207 F  
DOCKED: ENDBRANCH  10  13
DOCKED: ENDBRANCH   9  10
DOCKED: ENDBRANCH   8   9
DOCKED: ENDBRANCH   6   8
DOCKED: ENDBRANCH   1   6
DOCKED: BRANCH   5  24
DOCKED: ATOM     24  C   UNL     1     139.250  77.236 218.706 -0.03 -0.02    +0.075 C  
DOCKED: ATOM     25  O   UNL     1     138.959  76.702 217.601 +0.00 +0.08    -0.318 OA 
DOCKED: BRANCH  24  26
DOCKED: ATOM     26  N   UNL     1     139.872  78.533 218.686 +0.05 +0.22    -0.645 NA 
DOCKED: BRANCH  26  27
DOCKED: ATOM     27  C   UNL     1     141.301  78.839 218.655 -0.18 +0.04    -0.077 C  
DOCKED: ATOM     28  C   UNL     1     141.641  79.752 219.832 -0.29 +0.00    -0.008 C  
DOCKED: BRANCH  27  29
DOCKED: ATOM     29  C   UNL     1     142.127  77.566 218.730 -0.26 +0.03    -0.044 A  
DOCKED: ATOM     30  C   UNL     1     142.578  77.098 219.983 -0.31 -0.01    +0.008 A  
DOCKED: ATOM     31  C   UNL     1     142.517  76.867 217.561 -0.22 -0.03    +0.046 A  
DOCKED: ATOM     32  C   UNL     1     143.354  75.941 220.076 -0.26 -0.03    +0.047 A  
DOCKED: ATOM     33  C   UNL     1     143.288  75.701 217.664 -0.20 -0.03    +0.067 A  
DOCKED: ATOM     34  C   UNL     1     143.709  75.231 218.923 -0.24 -0.06    +0.120 A  
DOCKED: ATOM     35  Cl  UNL     1     142.085  77.420 215.944 -0.18 +0.05    -0.084 Cl 
DOCKED: BRANCH  34  36
DOCKED: ATOM     36  O   UNL     1     144.482  74.069 219.070 -0.07 +0.14    -0.497 OA 
DOCKED: ATOM     37  C   UNL     1     145.110  73.668 220.284 -0.36 -0.05    +0.278 C  
DOCKED: ENDBRANCH  34  36
DOCKED: ENDBRANCH  27  29
DOCKED: ENDBRANCH  26  27
DOCKED: ENDBRANCH  24  26
DOCKED: ENDBRANCH   5  24
DOCKED: BRANCH   3  38
DOCKED: ATOM     38  O   UNL     1     139.377  74.382 222.355 -0.66 +0.07    -0.391 OA 
DOCKED: ATOM     39  H   UNL     1     138.844  75.191 222.577 -0.19 -0.06    +0.211 HD 
DOCKED: ENDBRANCH   3  38
DOCKED: TORSDOF 12
DOCKED: TER
DOCKED: ENDMDL
________________________________________________________________________________


    FINAL DOCKED STATE:
    ________________________


Run:   4 / 20
Time taken for this run:   0.064s

DOCKED: MODEL        4
DOCKED: USER    Run = 4
DOCKED: USER
DOCKED: USER    Estimated Free Energy of Binding    =  -5.71 kcal/mol  [=(1)+(2)+(3)-(4)]
DOCKED: USER
DOCKED: USER    (1) Final Intermolecular Energy     =  -9.29 kcal/mol
DOCKED: USER        vdW + Hbond + desolv Energy     =  -8.98 kcal/mol
DOCKED: USER        Electrostatic Energy            =  -0.31 kcal/mol
DOCKED: USER        Moving Ligand-Fixed Receptor    =  -9.29 kcal/mol
DOCKED: USER        Moving Ligand-Moving Receptor   =  +0.00 kcal/mol
DOCKED: USER    (2) Final Total Internal Energy     =  -4.03 kcal/mol
DOCKED: USER    (3) Torsional Free Energy           =  +3.58 kcal/mol
DOCKED: USER    (4) Unbound System's Energy         =  -4.03 kcal/mol
DOCKED: USER
DOCKED: USER
DOCKED: REMARK SMILES COc1ccc([C@H](C)[N-]C(=O)[C@@H]2C[C@@H](O)CN2C(=O)C/N=C(\O)c2ccc3cc(F)ccc3n2)c(Cl)c1
DOCKED: REMARK SMILES IDX 17 1 16 2 14 3 13 4 12 5 18 6 19 7 20 8 21 9 22 10 23 11
DOCKED: REMARK SMILES IDX 24 13 34 14 25 15 33 16 26 17 32 18 27 19 31 20 28 21 29 22
DOCKED: REMARK SMILES IDX 30 23 10 24 11 25 9 26 7 27 8 28 6 29 5 30 35 31 4 32 37 33
DOCKED: REMARK SMILES IDX 3 34 36 35 2 36 1 37 15 38
DOCKED: REMARK H PARENT 23 12 15 39
DOCKED: USER                              x       y       z     vdW  Elec       q    Type
DOCKED: USER                           _______ _______ _______ _____ _____    ______ ____
DOCKED: ROOT
DOCKED: ATOM      1  N   UNL     1     140.756  76.166 219.237 -0.02 +0.11    -0.330 N  
DOCKED: ATOM      2  C   UNL     1     141.501  77.299 218.707 -0.14 -0.07    +0.152 C  
DOCKED: ATOM      3  C   UNL     1     142.975  77.002 218.990 -0.28 -0.09    +0.136 C  
DOCKED: ATOM      4  C   UNL     1     142.977  75.873 220.028 -0.26 -0.04    +0.065 C  
DOCKED: ATOM      5  C   UNL     1     141.622  75.186 219.878 -0.17 -0.05    +0.136 C  
DOCKED: ENDROOT
DOCKED: BRANCH   1   6
DOCKED: ATOM      6  C   UNL     1     139.349  75.961 219.008 -0.01 -0.06    +0.245 C  
DOCKED: ATOM      7  O   UNL     1     138.956  74.929 218.398 -0.00 +0.06    -0.273 OA 
DOCKED: BRANCH   6   8
DOCKED: ATOM      8  C   UNL     1     138.332  76.945 219.501 -0.01 -0.06    +0.246 C  
DOCKED: BRANCH   8   9
DOCKED: ATOM      9  N   UNL     1     137.737  76.459 220.741 -0.03 +0.05    -0.240 NA 
DOCKED: BRANCH   9  10
DOCKED: ATOM     10  C   UNL     1     138.329  76.438 221.900 -0.18 -0.05    +0.233 C  
DOCKED: BRANCH  10  11
DOCKED: ATOM     11  O   UNL     1     138.400  75.269 222.665 -0.08 +0.16    -0.492 OA 
DOCKED: ATOM     12  H   UNL     1     139.156  74.604 222.590 -0.29 -0.07    +0.295 HD 
DOCKED: ENDBRANCH  10  11
DOCKED: BRANCH  10  13
DOCKED: ATOM     13  C   UNL     1     138.945  77.678 222.412 -0.25 -0.02    +0.125 A  
DOCKED: ATOM     14  N   UNL     1     140.297  77.835 222.342 -0.22 +0.07    -0.243 NA 
DOCKED: ATOM     15  C   UNL     1     138.159  78.694 222.980 -0.24 -0.01    +0.035 A  
DOCKED: ATOM     16  C   UNL     1     140.921  78.951 222.804 -0.42 -0.02    +0.071 A  
DOCKED: ATOM     17  C   UNL     1     138.771  79.852 223.464 -0.37 -0.00    +0.013 A  
DOCKED: ATOM     18  C   UNL     1     142.312  79.067 222.712 -0.51 -0.02    +0.032 A  
DOCKED: ATOM     19  C   UNL     1     140.164  79.995 223.378 -0.45 -0.00    +0.003 A  
DOCKED: ATOM     20  C   UNL     1     142.953  80.218 223.186 -0.63 -0.01    +0.041 A  
DOCKED: ATOM     21  C   UNL     1     140.812  81.146 223.851 -0.32 -0.01    +0.049 A  
DOCKED: ATOM     22  C   UNL     1     142.204  81.257 223.753 -0.53 -0.02    +0.123 A  
DOCKED: ATOM     23  F   UNL     1     142.830  82.373 224.207 +0.05 +0.01    -0.207 F  
DOCKED: ENDBRANCH  10  13
DOCKED: ENDBRANCH   9  10
DOCKED: ENDBRANCH   8   9
DOCKED: ENDBRANCH   6   8
DOCKED: ENDBRANCH   1   6
DOCKED: BRANCH   5  24
DOCKED: ATOM     24  C   UNL     1     141.070  74.675 221.193 -0.28 -0.02    +0.075 C  
DOCKED: ATOM     25  O   UNL     1     141.055  75.462 222.178 -0.42 +0.05    -0.318 OA 
DOCKED: BRANCH  24  26
DOCKED: ATOM     26  N   UNL     1     140.606  73.329 221.397 -0.11 +0.08    -0.645 NA 
DOCKED: BRANCH  26  27
DOCKED: ATOM     27  C   UNL     1     141.402  72.102 221.428 -0.22 +0.01    -0.077 C  
DOCKED: ATOM     28  C   UNL     1     140.512  70.922 221.046 -0.14 +0.00    -0.008 C  
DOCKED: BRANCH  27  29
DOCKED: ATOM     29  C   UNL     1     142.578  72.199 220.471 -0.22 +0.01    -0.044 A  
DOCKED: ATOM     30  C   UNL     1     143.891  72.277 220.983 -0.26 -0.00    +0.008 A  
DOCKED: ATOM     31  C   UNL     1     142.387  72.281 219.070 -0.09 -0.01    +0.046 A  
DOCKED: ATOM     32  C   UNL     1     144.986  72.385 220.124 -0.39 +0.00    +0.047 A  
DOCKED: ATOM     33  C   UNL     1     143.492  72.380 218.214 -0.08 -0.01    +0.067 A  
DOCKED: ATOM     34  C   UNL     1     144.799  72.430 218.737 -0.19 +0.02    +0.120 A  
DOCKED: ATOM     35  Cl  UNL     1     140.783  72.285 218.336 -0.03 +0.02    -0.084 Cl 
DOCKED: BRANCH  34  36
DOCKED: ATOM     36  O   UNL     1     145.933  72.530 217.917 -0.52 -0.52    -0.497 OA 
DOCKED: ATOM     37  C   UNL     1     146.026  73.366 216.769 -0.09 +0.10    +0.278 C  
DOCKED: ENDBRANCH  34  36
DOCKED: ENDBRANCH  27  29
DOCKED: ENDBRANCH  26  27
DOCKED: ENDBRANCH  24  26
DOCKED: ENDBRANCH   5  24
DOCKED: BRANCH   3  38
DOCKED: ATOM     38  O   UNL     1     143.605  76.574 217.810 -0.17 +0.26    -0.391 OA 
DOCKED: ATOM     39  H   UNL     1     144.463  76.152 218.080 -0.39 -0.17    +0.211 HD 
DOCKED: ENDBRANCH   3  38
DOCKED: TORSDOF 12
DOCKED: TER
DOCKED: ENDMDL
________________________________________________________________________________


    FINAL DOCKED STATE:
    ________________________


Run:   5 / 20
Time taken for this run:   0.064s

DOCKED: MODEL        5
DOCKED: USER    Run = 5
DOCKED: USER
DOCKED: USER    Estimated Free Energy of Binding    =  -5.92 kcal/mol  [=(1)+(2)+(3)-(4)]
DOCKED: USER
DOCKED: USER    (1) Final Intermolecular Energy     =  -9.50 kcal/mol
DOCKED: USER        vdW + Hbond + desolv Energy     =  -9.44 kcal/mol
DOCKED: USER        Electrostatic Energy            =  -0.06 kcal/mol
DOCKED: USER        Moving Ligand-Fixed Receptor    =  -9.50 kcal/mol
DOCKED: USER        Moving Ligand-Moving Receptor   =  +0.00 kcal/mol
DOCKED: USER    (2) Final Total Internal Energy     =  -4.20 kcal/mol
DOCKED: USER    (3) Torsional Free Energy           =  +3.58 kcal/mol
DOCKED: USER    (4) Unbound System's Energy         =  -4.20 kcal/mol
DOCKED: USER
DOCKED: USER
DOCKED: REMARK SMILES COc1ccc([C@H](C)[N-]C(=O)[C@@H]2C[C@@H](O)CN2C(=O)C/N=C(\O)c2ccc3cc(F)ccc3n2)c(Cl)c1
DOCKED: REMARK SMILES IDX 17 1 16 2 14 3 13 4 12 5 18 6 19 7 20 8 21 9 22 10 23 11
DOCKED: REMARK SMILES IDX 24 13 34 14 25 15 33 16 26 17 32 18 27 19 31 20 28 21 29 22
DOCKED: REMARK SMILES IDX 30 23 10 24 11 25 9 26 7 27 8 28 6 29 5 30 35 31 4 32 37 33
DOCKED: REMARK SMILES IDX 3 34 36 35 2 36 1 37 15 38
DOCKED: REMARK H PARENT 23 12 15 39
DOCKED: USER                              x       y       z     vdW  Elec       q    Type
DOCKED: USER                           _______ _______ _______ _____ _____    ______ ____
DOCKED: ROOT
DOCKED: ATOM      1  N   UNL     1     143.328  73.996 220.119 -0.15 +0.09    -0.330 N  
DOCKED: ATOM      2  C   UNL     1     144.554  73.684 220.839 -0.38 -0.04    +0.152 C  
DOCKED: ATOM      3  C   UNL     1     145.266  72.611 220.012 -0.38 +0.01    +0.136 C  
DOCKED: ATOM      4  C   UNL     1     144.210  72.074 219.037 -0.19 +0.00    +0.065 C  
DOCKED: ATOM      5  C   UNL     1     143.167  73.182 218.922 -0.11 -0.02    +0.136 C  
DOCKED: ENDROOT
DOCKED: BRANCH   1   6
DOCKED: ATOM      6  C   UNL     1     142.461  75.094 220.463 -0.18 -0.10    +0.245 C  
DOCKED: ATOM      7  O   UNL     1     142.847  76.280 220.280 -0.16 +0.19    -0.273 OA 
DOCKED: BRANCH   6   8
DOCKED: ATOM      8  C   UNL     1     141.090  74.854 221.019 -0.20 -0.06    +0.246 C  
DOCKED: BRANCH   8   9
DOCKED: ATOM      9  N   UNL     1     141.111  73.689 221.897 -0.51 +0.01    -0.240 NA 
DOCKED: BRANCH   9  10
DOCKED: ATOM     10  C   UNL     1     140.248  72.716 221.874 -0.21 -0.03    +0.233 C  
DOCKED: BRANCH  10  11
DOCKED: ATOM     11  O   UNL     1     139.420  72.498 220.767 -0.01 +0.09    -0.492 OA 
DOCKED: ATOM     12  H   UNL     1     139.751  72.536 219.814 +0.05 -0.05    +0.295 HD 
DOCKED: ENDBRANCH  10  11
DOCKED: BRANCH  10  13
DOCKED: ATOM     13  C   UNL     1     140.149  71.819 223.041 -0.30 -0.02    +0.125 A  
DOCKED: ATOM     14  N   UNL     1     140.639  72.227 224.246 -0.06 +0.03    -0.243 NA 
DOCKED: ATOM     15  C   UNL     1     139.565  70.546 222.928 -0.25 -0.01    +0.035 A  
DOCKED: ATOM     16  C   UNL     1     140.583  71.442 225.354 -0.51 -0.01    +0.071 A  
DOCKED: ATOM     17  C   UNL     1     139.493  69.716 224.048 -0.30 -0.00    +0.013 A  
DOCKED: ATOM     18  C   UNL     1     141.100  71.903 226.570 -0.70 -0.00    +0.032 A  
DOCKED: ATOM     19  C   UNL     1     140.000  70.158 225.279 -0.46 -0.00    +0.003 A  
DOCKED: ATOM     20  C   UNL     1     141.039  71.094 227.710 -0.69 -0.01    +0.041 A  
DOCKED: ATOM     21  C   UNL     1     139.942  69.352 226.427 -0.49 -0.01    +0.049 A  
DOCKED: ATOM     22  C   UNL     1     140.459  69.821 227.640 -0.51 -0.02    +0.123 A  
DOCKED: ATOM     23  F   UNL     1     140.398  69.042 228.751 -0.16 +0.04    -0.207 F  
DOCKED: ENDBRANCH  10  13
DOCKED: ENDBRANCH   9  10
DOCKED: ENDBRANCH   8   9
DOCKED: ENDBRANCH   6   8
DOCKED: ENDBRANCH   1   6
DOCKED: BRANCH   5  24
DOCKED: ATOM     24  C   UNL     1     141.759  72.653 218.748 -0.05 -0.01    +0.075 C  
DOCKED: ATOM     25  O   UNL     1     141.506  71.489 219.161 -0.02 +0.05    -0.318 OA 
DOCKED: BRANCH  24  26
DOCKED: ATOM     26  N   UNL     1     140.704  73.382 218.095 +0.04 +0.14    -0.645 NA 
DOCKED: BRANCH  26  27
DOCKED: ATOM     27  C   UNL     1     140.817  74.293 216.956 -0.02 +0.02    -0.077 C  
DOCKED: ATOM     28  C   UNL     1     139.469  74.367 216.243 -0.00 +0.00    -0.008 C  
DOCKED: BRANCH  27  29
DOCKED: ATOM     29  C   UNL     1     141.240  75.678 217.415 -0.05 +0.02    -0.044 A  
DOCKED: ATOM     30  C   UNL     1     140.314  76.506 218.085 -0.05 -0.00    +0.008 A  
DOCKED: ATOM     31  C   UNL     1     142.528  76.192 217.126 -0.16 -0.02    +0.046 A  
DOCKED: ATOM     32  C   UNL     1     140.672  77.790 218.498 -0.09 -0.02    +0.047 A  
DOCKED: ATOM     33  C   UNL     1     142.884  77.479 217.553 -0.27 -0.05    +0.067 A  
DOCKED: ATOM     34  C   UNL     1     141.958  78.284 218.244 -0.21 -0.08    +0.120 A  
DOCKED: ATOM     35  Cl  UNL     1     143.727  75.275 216.214 -0.21 +0.04    -0.084 Cl 
DOCKED: BRANCH  34  36
DOCKED: ATOM     36  O   UNL     1     142.272  79.577 218.689 -0.14 +0.37    -0.497 OA 
DOCKED: ATOM     37  C   UNL     1     142.579  80.672 217.832 -0.22 -0.26    +0.278 C  
DOCKED: ENDBRANCH  34  36
DOCKED: ENDBRANCH  27  29
DOCKED: ENDBRANCH  26  27
DOCKED: ENDBRANCH  24  26
DOCKED: ENDBRANCH   5  24
DOCKED: BRANCH   3  38
DOCKED: ATOM     38  O   UNL     1     146.328  73.192 219.300 -0.70 -0.28    -0.391 OA 
DOCKED: ATOM     39  H   UNL     1     146.131  74.164 219.234 -0.44 -0.04    +0.211 HD 
DOCKED: ENDBRANCH   3  38
DOCKED: TORSDOF 12
DOCKED: TER
DOCKED: ENDMDL
________________________________________________________________________________


    FINAL DOCKED STATE:
    ________________________


Run:   6 / 20
Time taken for this run:   0.064s

DOCKED: MODEL        6
DOCKED: USER    Run = 6
DOCKED: USER
DOCKED: USER    Estimated Free Energy of Binding    =  -7.65 kcal/mol  [=(1)+(2)+(3)-(4)]
DOCKED: USER
DOCKED: USER    (1) Final Intermolecular Energy     = -11.23 kcal/mol
DOCKED: USER        vdW + Hbond + desolv Energy     = -11.70 kcal/mol
DOCKED: USER        Electrostatic Energy            =  +0.47 kcal/mol
DOCKED: USER        Moving Ligand-Fixed Receptor    = -11.23 kcal/mol
DOCKED: USER        Moving Ligand-Moving Receptor   =  +0.00 kcal/mol
DOCKED: USER    (2) Final Total Internal Energy     =  -2.19 kcal/mol
DOCKED: USER    (3) Torsional Free Energy           =  +3.58 kcal/mol
DOCKED: USER    (4) Unbound System's Energy         =  -2.19 kcal/mol
DOCKED: USER
DOCKED: USER
DOCKED: REMARK SMILES COc1ccc([C@H](C)[N-]C(=O)[C@@H]2C[C@@H](O)CN2C(=O)C/N=C(\O)c2ccc3cc(F)ccc3n2)c(Cl)c1
DOCKED: REMARK SMILES IDX 17 1 16 2 14 3 13 4 12 5 18 6 19 7 20 8 21 9 22 10 23 11
DOCKED: REMARK SMILES IDX 24 13 34 14 25 15 33 16 26 17 32 18 27 19 31 20 28 21 29 22
DOCKED: REMARK SMILES IDX 30 23 10 24 11 25 9 26 7 27 8 28 6 29 5 30 35 31 4 32 37 33
DOCKED: REMARK SMILES IDX 3 34 36 35 2 36 1 37 15 38
DOCKED: REMARK H PARENT 23 12 15 39
DOCKED: USER                              x       y       z     vdW  Elec       q    Type
DOCKED: USER                           _______ _______ _______ _____ _____    ______ ____
DOCKED: ROOT
DOCKED: ATOM      1  N   UNL     1     143.261  73.346 220.455 -0.14 +0.07    -0.330 N  
DOCKED: ATOM      2  C   UNL     1     144.130  72.247 220.854 -0.24 -0.03    +0.152 C  
DOCKED: ATOM      3  C   UNL     1     145.551  72.816 220.863 -0.44 -0.02    +0.136 C  
DOCKED: ATOM      4  C   UNL     1     145.472  74.135 220.084 -0.23 -0.02    +0.065 C  
DOCKED: ATOM      5  C   UNL     1     144.008  74.561 220.161 -0.35 -0.06    +0.136 C  
DOCKED: ENDROOT
DOCKED: BRANCH   1   6
DOCKED: ATOM      6  C   UNL     1     141.823  73.282 220.505 -0.14 -0.04    +0.245 C  
DOCKED: ATOM      7  O   UNL     1     141.154  74.334 220.693 -0.16 +0.06    -0.273 OA 
DOCKED: BRANCH   6   8
DOCKED: ATOM      8  C   UNL     1     141.098  71.984 220.315 -0.09 -0.04    +0.246 C  
DOCKED: BRANCH   8   9
DOCKED: ATOM      9  N   UNL     1     139.957  71.921 221.220 -0.09 +0.04    -0.240 NA 
DOCKED: BRANCH   9  10
DOCKED: ATOM     10  C   UNL     1     139.939  72.376 222.439 -0.22 -0.04    +0.233 C  
DOCKED: BRANCH  10  11
DOCKED: ATOM     11  O   UNL     1     139.890  73.749 222.706 -0.62 +0.01    -0.492 OA 
DOCKED: ATOM     12  H   UNL     1     139.636  74.438 222.014 +0.05 -0.04    +0.295 HD 
DOCKED: ENDBRANCH  10  11
DOCKED: BRANCH  10  13
DOCKED: ATOM     13  C   UNL     1     139.965  71.419 223.562 -0.33 -0.02    +0.125 A  
DOCKED: ATOM     14  N   UNL     1     140.462  71.812 224.768 -0.28 +0.04    -0.243 NA 
DOCKED: ATOM     15  C   UNL     1     139.494  70.105 223.403 -0.26 -0.01    +0.035 A  
DOCKED: ATOM     16  C   UNL     1     140.519  70.973 225.837 -0.53 -0.01    +0.071 A  
DOCKED: ATOM     17  C   UNL     1     139.540  69.220 224.481 -0.33 -0.00    +0.013 A  
DOCKED: ATOM     18  C   UNL     1     141.038  71.422 227.056 -0.72 -0.01    +0.032 A  
DOCKED: ATOM     19  C   UNL     1     140.051  69.647 225.715 -0.47 -0.00    +0.003 A  
DOCKED: ATOM     20  C   UNL     1     141.094  70.556 228.155 -0.57 -0.01    +0.041 A  
DOCKED: ATOM     21  C   UNL     1     140.109  68.785 226.821 -0.56 -0.01    +0.049 A  
DOCKED: ATOM     22  C   UNL     1     140.628  69.241 228.039 -0.53 -0.02    +0.123 A  
DOCKED: ATOM     23  F   UNL     1     140.679  68.407 229.110 -0.16 +0.05    -0.207 F  
DOCKED: ENDBRANCH  10  13
DOCKED: ENDBRANCH   9  10
DOCKED: ENDBRANCH   8   9
DOCKED: ENDBRANCH   6   8
DOCKED: ENDBRANCH   1   6
DOCKED: BRANCH   5  24
DOCKED: ATOM     24  C   UNL     1     143.530  75.264 218.908 -0.26 -0.04    +0.075 C  
DOCKED: ATOM     25  O   UNL     1     143.358  74.573 217.868 -0.08 +0.11    -0.318 OA 
DOCKED: BRANCH  24  26
DOCKED: ATOM     26  N   UNL     1     143.306  76.682 218.821 -0.04 +0.43    -0.645 NA 
DOCKED: BRANCH  26  27
DOCKED: ATOM     27  C   UNL     1     142.024  77.385 218.782 -0.24 +0.04    -0.077 C  
DOCKED: ATOM     28  C   UNL     1     140.896  76.359 218.686 -0.10 +0.00    -0.008 C  
DOCKED: BRANCH  27  29
DOCKED: ATOM     29  C   UNL     1     141.841  78.243 220.023 -0.28 +0.03    -0.044 A  
DOCKED: ATOM     30  C   UNL     1     141.521  77.631 221.254 -0.29 -0.00    +0.008 A  
DOCKED: ATOM     31  C   UNL     1     141.918  79.656 219.965 -0.24 -0.03    +0.046 A  
DOCKED: ATOM     32  C   UNL     1     141.330  78.398 222.404 -0.43 -0.02    +0.047 A  
DOCKED: ATOM     33  C   UNL     1     141.735  80.418 221.126 -0.35 -0.03    +0.067 A  
DOCKED: ATOM     34  C   UNL     1     141.442  79.793 222.353 -0.39 -0.04    +0.120 A  
DOCKED: ATOM     35  Cl  UNL     1     142.221  80.521 218.458 -0.40 +0.06    -0.084 Cl 
DOCKED: BRANCH  34  36
DOCKED: ATOM     36  O   UNL     1     141.250  80.519 223.539 -0.16 +0.09    -0.497 OA 
DOCKED: ATOM     37  C   UNL     1     142.230  81.360 224.136 -0.31 -0.03    +0.278 C  
DOCKED: ENDBRANCH  34  36
DOCKED: ENDBRANCH  27  29
DOCKED: ENDBRANCH  26  27
DOCKED: ENDBRANCH  24  26
DOCKED: ENDBRANCH   5  24
DOCKED: BRANCH   3  38
DOCKED: ATOM     38  O   UNL     1     145.953  73.061 222.187 -0.38 +0.12    -0.391 OA 
DOCKED: ATOM     39  H   UNL     1     145.709  72.254 222.713 -0.35 -0.12    +0.211 HD 
DOCKED: ENDBRANCH   3  38
DOCKED: TORSDOF 12
DOCKED: TER
DOCKED: ENDMDL
________________________________________________________________________________


    FINAL DOCKED STATE:
    ________________________


Run:   7 / 20
Time taken for this run:   0.064s

DOCKED: MODEL        7
DOCKED: USER    Run = 7
DOCKED: USER
DOCKED: USER    Estimated Free Energy of Binding    =  -3.97 kcal/mol  [=(1)+(2)+(3)-(4)]
DOCKED: USER
DOCKED: USER    (1) Final Intermolecular Energy     =  -7.55 kcal/mol
DOCKED: USER        vdW + Hbond + desolv Energy     =  -7.50 kcal/mol
DOCKED: USER        Electrostatic Energy            =  -0.05 kcal/mol
DOCKED: USER        Moving Ligand-Fixed Receptor    =  -7.55 kcal/mol
DOCKED: USER        Moving Ligand-Moving Receptor   =  +0.00 kcal/mol
DOCKED: USER    (2) Final Total Internal Energy     =  -5.35 kcal/mol
DOCKED: USER    (3) Torsional Free Energy           =  +3.58 kcal/mol
DOCKED: USER    (4) Unbound System's Energy         =  -5.35 kcal/mol
DOCKED: USER
DOCKED: USER
DOCKED: REMARK SMILES COc1ccc([C@H](C)[N-]C(=O)[C@@H]2C[C@@H](O)CN2C(=O)C/N=C(\O)c2ccc3cc(F)ccc3n2)c(Cl)c1
DOCKED: REMARK SMILES IDX 17 1 16 2 14 3 13 4 12 5 18 6 19 7 20 8 21 9 22 10 23 11
DOCKED: REMARK SMILES IDX 24 13 34 14 25 15 33 16 26 17 32 18 27 19 31 20 28 21 29 22
DOCKED: REMARK SMILES IDX 30 23 10 24 11 25 9 26 7 27 8 28 6 29 5 30 35 31 4 32 37 33
DOCKED: REMARK SMILES IDX 3 34 36 35 2 36 1 37 15 38
DOCKED: REMARK H PARENT 23 12 15 39
DOCKED: USER                              x       y       z     vdW  Elec       q    Type
DOCKED: USER                           _______ _______ _______ _____ _____    ______ ____
DOCKED: ROOT
DOCKED: ATOM      1  N   UNL     1     140.969  73.646 219.267 -0.00 +0.07    -0.330 N  
DOCKED: ATOM      2  C   UNL     1     140.084  74.612 219.902 -0.08 -0.04    +0.152 C  
DOCKED: ATOM      3  C   UNL     1     140.112  74.289 221.398 -0.23 -0.02    +0.136 C  
DOCKED: ATOM      4  C   UNL     1     140.725  72.888 221.506 -0.26 -0.01    +0.065 C  
DOCKED: ATOM      5  C   UNL     1     141.530  72.700 220.222 -0.13 -0.02    +0.136 C  
DOCKED: ENDROOT
DOCKED: BRANCH   1   6
DOCKED: ATOM      6  C   UNL     1     141.370  73.721 217.886 -0.00 -0.06    +0.245 C  
DOCKED: ATOM      7  O   UNL     1     141.233  72.716 217.137 +0.00 +0.05    -0.273 OA 
DOCKED: BRANCH   6   8
DOCKED: ATOM      8  C   UNL     1     141.933  74.985 217.310 -0.02 -0.08    +0.246 C  
DOCKED: BRANCH   8   9
DOCKED: ATOM      9  N   UNL     1     143.050  75.443 218.127 -0.12 +0.11    -0.240 NA 
DOCKED: BRANCH   9  10
DOCKED: ATOM     10  C   UNL     1     142.957  75.878 219.351 -0.24 -0.12    +0.233 C  
DOCKED: BRANCH  10  11
DOCKED: ATOM     11  O   UNL     1     143.218  75.045 220.445 -0.14 +0.24    -0.492 OA 
DOCKED: ATOM     12  H   UNL     1     142.977  75.289 221.394 -0.30 -0.20    +0.295 HD 
DOCKED: ENDBRANCH  10  11
DOCKED: BRANCH  10  13
DOCKED: ATOM     13  C   UNL     1     142.573  77.283 219.585 -0.26 -0.09    +0.125 A  
DOCKED: ATOM     14  N   UNL     1     142.202  77.679 220.835 -0.11 +0.18    -0.243 NA 
DOCKED: ATOM     15  C   UNL     1     142.574  78.217 218.535 -0.31 -0.03    +0.035 A  
DOCKED: ATOM     16  C   UNL     1     141.831  78.958 221.109 -0.32 -0.04    +0.071 A  
DOCKED: ATOM     17  C   UNL     1     142.197  79.538 218.786 -0.31 -0.01    +0.013 A  
DOCKED: ATOM     18  C   UNL     1     141.458  79.318 222.409 -0.46 -0.01    +0.032 A  
DOCKED: ATOM     19  C   UNL     1     141.823  79.925 220.081 -0.32 -0.00    +0.003 A  
DOCKED: ATOM     20  C   UNL     1     141.078  80.636 222.689 -0.43 -0.01    +0.041 A  
DOCKED: ATOM     21  C   UNL     1     141.442  81.244 220.369 -0.30 -0.02    +0.049 A  
DOCKED: ATOM     22  C   UNL     1     141.072  81.598 221.672 -0.31 -0.03    +0.123 A  
DOCKED: ATOM     23  F   UNL     1     140.708  82.877 221.951 -0.09 +0.02    -0.207 F  
DOCKED: ENDBRANCH  10  13
DOCKED: ENDBRANCH   9  10
DOCKED: ENDBRANCH   8   9
DOCKED: ENDBRANCH   6   8
DOCKED: ENDBRANCH   1   6
DOCKED: BRANCH   5  24
DOCKED: ATOM     24  C   UNL     1     141.517  71.271 219.721 -0.10 -0.01    +0.075 C  
DOCKED: ATOM     25  O   UNL     1     140.576  70.916 218.961 -0.02 +0.06    -0.318 OA 
DOCKED: BRANCH  24  26
DOCKED: ATOM     26  N   UNL     1     142.489  70.281 220.099 +0.09 +0.06    -0.645 NA 
DOCKED: BRANCH  26  27
DOCKED: ATOM     27  C   UNL     1     143.946  70.370 219.994 -0.16 -0.00    -0.077 C  
DOCKED: ATOM     28  C   UNL     1     144.510  68.981 219.703 -0.30 -0.00    -0.008 C  
DOCKED: BRANCH  27  29
DOCKED: ATOM     29  C   UNL     1     144.347  71.336 218.891 -0.19 -0.00    -0.044 A  
DOCKED: ATOM     30  C   UNL     1     144.074  71.012 217.545 -0.08 +0.00    +0.008 A  
DOCKED: ATOM     31  C   UNL     1     145.054  72.530 219.174 -0.30 +0.01    +0.046 A  
DOCKED: ATOM     32  C   UNL     1     144.450  71.873 216.513 -0.05 +0.00    +0.047 A  
DOCKED: ATOM     33  C   UNL     1     145.420  73.394 218.133 -0.18 +0.01    +0.067 A  
DOCKED: ATOM     34  C   UNL     1     145.118  73.071 216.796 -0.11 +0.01    +0.120 A  
DOCKED: ATOM     35  Cl  UNL     1     145.525  72.980 220.813 -0.75 +0.01    -0.084 Cl 
DOCKED: BRANCH  34  36
DOCKED: ATOM     36  O   UNL     1     145.466  73.907 215.724 -0.02 +0.06    -0.497 OA 
DOCKED: ATOM     37  C   UNL     1     145.161  75.296 215.653 -0.11 -0.13    +0.278 C  
DOCKED: ENDBRANCH  34  36
DOCKED: ENDBRANCH  27  29
DOCKED: ENDBRANCH  26  27
DOCKED: ENDBRANCH  24  26
DOCKED: ENDBRANCH   5  24
DOCKED: BRANCH   3  38
DOCKED: ATOM     38  O   UNL     1     140.922  75.223 222.066 -0.49 +0.05    -0.391 OA 
DOCKED: ATOM     39  H   UNL     1     141.395  75.745 221.364 -0.01 -0.08    +0.211 HD 
DOCKED: ENDBRANCH   3  38
DOCKED: TORSDOF 12
DOCKED: TER
DOCKED: ENDMDL
________________________________________________________________________________


    FINAL DOCKED STATE:
    ________________________


Run:   8 / 20
Time taken for this run:   0.064s

DOCKED: MODEL        8
DOCKED: USER    Run = 8
DOCKED: USER
DOCKED: USER    Estimated Free Energy of Binding    =  -8.23 kcal/mol  [=(1)+(2)+(3)-(4)]
DOCKED: USER
DOCKED: USER    (1) Final Intermolecular Energy     = -11.81 kcal/mol
DOCKED: USER        vdW + Hbond + desolv Energy     = -12.14 kcal/mol
DOCKED: USER        Electrostatic Energy            =  +0.33 kcal/mol
DOCKED: USER        Moving Ligand-Fixed Receptor    = -11.81 kcal/mol
DOCKED: USER        Moving Ligand-Moving Receptor   =  +0.00 kcal/mol
DOCKED: USER    (2) Final Total Internal Energy     =  -2.09 kcal/mol
DOCKED: USER    (3) Torsional Free Energy           =  +3.58 kcal/mol
DOCKED: USER    (4) Unbound System's Energy         =  -2.09 kcal/mol
DOCKED: USER
DOCKED: USER
DOCKED: REMARK SMILES COc1ccc([C@H](C)[N-]C(=O)[C@@H]2C[C@@H](O)CN2C(=O)C/N=C(\O)c2ccc3cc(F)ccc3n2)c(Cl)c1
DOCKED: REMARK SMILES IDX 17 1 16 2 14 3 13 4 12 5 18 6 19 7 20 8 21 9 22 10 23 11
DOCKED: REMARK SMILES IDX 24 13 34 14 25 15 33 16 26 17 32 18 27 19 31 20 28 21 29 22
DOCKED: REMARK SMILES IDX 30 23 10 24 11 25 9 26 7 27 8 28 6 29 5 30 35 31 4 32 37 33
DOCKED: REMARK SMILES IDX 3 34 36 35 2 36 1 37 15 38
DOCKED: REMARK H PARENT 23 12 15 39
DOCKED: USER                              x       y       z     vdW  Elec       q    Type
DOCKED: USER                           _______ _______ _______ _____ _____    ______ ____
DOCKED: ROOT
DOCKED: ATOM      1  N   UNL     1     142.692  73.206 220.754 -0.12 +0.06    -0.330 N  
DOCKED: ATOM      2  C   UNL     1     143.683  72.144 220.857 -0.21 -0.02    +0.152 C  
DOCKED: ATOM      3  C   UNL     1     145.032  72.796 220.548 -0.41 -0.01    +0.136 C  
DOCKED: ATOM      4  C   UNL     1     144.700  74.144 219.897 -0.37 -0.02    +0.065 C  
DOCKED: ATOM      5  C   UNL     1     143.284  74.477 220.360 -0.29 -0.05    +0.136 C  
DOCKED: ENDROOT
DOCKED: BRANCH   1   6
DOCKED: ATOM      6  C   UNL     1     141.317  73.053 221.154 -0.18 -0.03    +0.245 C  
DOCKED: ATOM      7  O   UNL     1     140.845  73.780 222.071 -0.71 -0.00    -0.273 OA 
DOCKED: BRANCH   6   8
DOCKED: ATOM      8  C   UNL     1     140.421  72.055 220.486 -0.08 -0.04    +0.246 C  
DOCKED: BRANCH   8   9
DOCKED: ATOM      9  N   UNL     1     139.907  71.114 221.475 -0.09 +0.04    -0.240 NA 
DOCKED: BRANCH   9  10
DOCKED: ATOM     10  C   UNL     1     139.340  71.443 222.599 -0.19 -0.05    +0.233 C  
DOCKED: BRANCH  10  11
DOCKED: ATOM     11  O   UNL     1     138.568  72.605 222.717 -0.05 +0.18    -0.492 OA 
DOCKED: ATOM     12  H   UNL     1     138.940  73.483 223.049 -0.45 -0.16    +0.295 HD 
DOCKED: ENDBRANCH  10  11
DOCKED: BRANCH  10  13
DOCKED: ATOM     13  C   UNL     1     139.512  70.565 223.772 -0.28 -0.02    +0.125 A  
DOCKED: ATOM     14  N   UNL     1     140.097  71.057 224.900 -0.30 +0.04    -0.243 NA 
DOCKED: ATOM     15  C   UNL     1     139.091  69.225 223.739 -0.27 -0.01    +0.035 A  
DOCKED: ATOM     16  C   UNL     1     140.289  70.293 226.009 -0.48 -0.01    +0.071 A  
DOCKED: ATOM     17  C   UNL     1     139.275  68.415 224.862 -0.39 -0.00    +0.013 A  
DOCKED: ATOM     18  C   UNL     1     140.895  70.843 227.144 -0.64 -0.01    +0.032 A  
DOCKED: ATOM     19  C   UNL     1     139.875  68.944 226.014 -0.51 -0.00    +0.003 A  
DOCKED: ATOM     20  C   UNL     1     141.089  70.055 228.285 -0.53 -0.01    +0.041 A  
DOCKED: ATOM     21  C   UNL     1     140.073  68.160 227.161 -0.62 -0.01    +0.049 A  
DOCKED: ATOM     22  C   UNL     1     140.678  68.717 228.295 -0.55 -0.03    +0.123 A  
DOCKED: ATOM     23  F   UNL     1     140.865  67.958 229.406 -0.12 +0.05    -0.207 F  
DOCKED: ENDBRANCH  10  13
DOCKED: ENDBRANCH   9  10
DOCKED: ENDBRANCH   8   9
DOCKED: ENDBRANCH   6   8
DOCKED: ENDBRANCH   1   6
DOCKED: BRANCH   5  24
DOCKED: ATOM     24  C   UNL     1     142.475  75.210 219.310 -0.23 -0.03    +0.075 C  
DOCKED: ATOM     25  O   UNL     1     141.496  74.610 218.788 -0.02 +0.09    -0.318 OA 
DOCKED: BRANCH  24  26
DOCKED: ATOM     26  N   UNL     1     142.786  76.532 218.838 -0.02 +0.38    -0.645 NA 
DOCKED: BRANCH  26  27
DOCKED: ATOM     27  C   UNL     1     141.874  77.665 218.684 -0.22 +0.04    -0.077 C  
DOCKED: ATOM     28  C   UNL     1     140.488  77.141 218.314 -0.07 +0.00    -0.008 C  
DOCKED: BRANCH  27  29
DOCKED: ATOM     29  C   UNL     1     141.799  78.475 219.967 -0.27 +0.03    -0.044 A  
DOCKED: ATOM     30  C   UNL     1     141.535  77.822 221.190 -0.32 -0.00    +0.008 A  
DOCKED: ATOM     31  C   UNL     1     141.919  79.886 219.960 -0.26 -0.03    +0.046 A  
DOCKED: ATOM     32  C   UNL     1     141.442  78.547 222.380 -0.44 -0.02    +0.047 A  
DOCKED: ATOM     33  C   UNL     1     141.834  80.605 221.160 -0.36 -0.02    +0.067 A  
DOCKED: ATOM     34  C   UNL     1     141.597  79.939 222.377 -0.41 -0.04    +0.120 A  
DOCKED: ATOM     35  Cl  UNL     1     142.157  80.804 218.473 -0.39 +0.05    -0.084 Cl 
DOCKED: BRANCH  34  36
DOCKED: ATOM     36  O   UNL     1     141.504  80.620 223.601 -0.18 +0.09    -0.497 OA 
DOCKED: ATOM     37  C   UNL     1     142.583  81.307 224.224 -0.32 -0.03    +0.278 C  
DOCKED: ENDBRANCH  34  36
DOCKED: ENDBRANCH  27  29
DOCKED: ENDBRANCH  26  27
DOCKED: ENDBRANCH  24  26
DOCKED: ENDBRANCH   5  24
DOCKED: BRANCH   3  38
DOCKED: ATOM     38  O   UNL     1     145.742  73.000 221.744 -0.36 +0.10    -0.391 OA 
DOCKED: ATOM     39  H   UNL     1     145.946  72.099 222.112 -0.41 -0.17    +0.211 HD 
DOCKED: ENDBRANCH   3  38
DOCKED: TORSDOF 12
DOCKED: TER
DOCKED: ENDMDL
________________________________________________________________________________


    FINAL DOCKED STATE:
    ________________________


Run:   9 / 20
Time taken for this run:   0.064s

DOCKED: MODEL        9
DOCKED: USER    Run = 9
DOCKED: USER
DOCKED: USER    Estimated Free Energy of Binding    =  -6.54 kcal/mol  [=(1)+(2)+(3)-(4)]
DOCKED: USER
DOCKED: USER    (1) Final Intermolecular Energy     = -10.12 kcal/mol
DOCKED: USER        vdW + Hbond + desolv Energy     = -10.38 kcal/mol
DOCKED: USER        Electrostatic Energy            =  +0.25 kcal/mol
DOCKED: USER        Moving Ligand-Fixed Receptor    = -10.12 kcal/mol
DOCKED: USER        Moving Ligand-Moving Receptor   =  +0.00 kcal/mol
DOCKED: USER    (2) Final Total Internal Energy     =  -2.65 kcal/mol
DOCKED: USER    (3) Torsional Free Energy           =  +3.58 kcal/mol
DOCKED: USER    (4) Unbound System's Energy         =  -2.65 kcal/mol
DOCKED: USER
DOCKED: USER
DOCKED: REMARK SMILES COc1ccc([C@H](C)[N-]C(=O)[C@@H]2C[C@@H](O)CN2C(=O)C/N=C(\O)c2ccc3cc(F)ccc3n2)c(Cl)c1
DOCKED: REMARK SMILES IDX 17 1 16 2 14 3 13 4 12 5 18 6 19 7 20 8 21 9 22 10 23 11
DOCKED: REMARK SMILES IDX 24 13 34 14 25 15 33 16 26 17 32 18 27 19 31 20 28 21 29 22
DOCKED: REMARK SMILES IDX 30 23 10 24 11 25 9 26 7 27 8 28 6 29 5 30 35 31 4 32 37 33
DOCKED: REMARK SMILES IDX 3 34 36 35 2 36 1 37 15 38
DOCKED: REMARK H PARENT 23 12 15 39
DOCKED: USER                              x       y       z     vdW  Elec       q    Type
DOCKED: USER                           _______ _______ _______ _____ _____    ______ ____
DOCKED: ROOT
DOCKED: ATOM      1  N   UNL     1     139.936  73.534 220.005 -0.02 +0.07    -0.330 N  
DOCKED: ATOM      2  C   UNL     1     138.958  72.751 219.263 -0.02 -0.03    +0.152 C  
DOCKED: ATOM      3  C   UNL     1     137.875  73.738 218.823 -0.01 -0.03    +0.136 C  
DOCKED: ATOM      4  C   UNL     1     138.091  74.995 219.674 -0.04 -0.01    +0.065 C  
DOCKED: ATOM      5  C   UNL     1     139.550  74.934 220.118 -0.08 -0.03    +0.136 C  
DOCKED: ENDROOT
DOCKED: BRANCH   1   6
DOCKED: ATOM      6  C   UNL     1     141.211  73.019 220.432 -0.11 -0.04    +0.245 C  
DOCKED: ATOM      7  O   UNL     1     142.258  73.697 220.243 -0.14 +0.06    -0.273 OA 
DOCKED: BRANCH   6   8
DOCKED: ATOM      8  C   UNL     1     141.319  71.692 221.119 -0.12 -0.03    +0.246 C  
DOCKED: BRANCH   8   9
DOCKED: ATOM      9  N   UNL     1     139.993  71.233 221.515 -0.09 +0.04    -0.240 NA 
DOCKED: BRANCH   9  10
DOCKED: ATOM     10  C   UNL     1     139.358  71.608 222.587 -0.19 -0.05    +0.233 C  
DOCKED: BRANCH  10  11
DOCKED: ATOM     11  O   UNL     1     138.254  72.467 222.521 -0.06 +0.16    -0.492 OA 
DOCKED: ATOM     12  H   UNL     1     138.298  73.443 222.779 -0.47 -0.15    +0.295 HD 
DOCKED: ENDBRANCH  10  11
DOCKED: BRANCH  10  13
DOCKED: ATOM     13  C   UNL     1     139.811  71.110 223.900 -0.34 -0.02    +0.125 A  
DOCKED: ATOM     14  N   UNL     1     139.384  69.893 224.341 -0.18 +0.04    -0.243 NA 
DOCKED: ATOM     15  C   UNL     1     140.667  71.876 224.708 -0.35 -0.00    +0.035 A  
DOCKED: ATOM     16  C   UNL     1     139.761  69.384 225.544 -0.40 -0.01    +0.071 A  
DOCKED: ATOM     17  C   UNL     1     141.071  71.382 225.950 -0.64 -0.00    +0.013 A  
DOCKED: ATOM     18  C   UNL     1     139.297  68.130 225.953 -0.53 -0.00    +0.032 A  
DOCKED: ATOM     19  C   UNL     1     140.624  70.125 226.381 -0.56 -0.00    +0.003 A  
DOCKED: ATOM     20  C   UNL     1     139.689  67.608 227.192 -0.46 -0.01    +0.041 A  
DOCKED: ATOM     21  C   UNL     1     141.013  69.595 227.621 -0.55 -0.01    +0.049 A  
DOCKED: ATOM     22  C   UNL     1     140.547  68.338 228.024 -0.55 -0.03    +0.123 A  
DOCKED: ATOM     23  F   UNL     1     140.927  67.824 229.222 -0.17 +0.06    -0.207 F  
DOCKED: ENDBRANCH  10  13
DOCKED: ENDBRANCH   9  10
DOCKED: ENDBRANCH   8   9
DOCKED: ENDBRANCH   6   8
DOCKED: ENDBRANCH   1   6
DOCKED: BRANCH   5  24
DOCKED: ATOM     24  C   UNL     1     139.770  75.501 221.506 -0.27 -0.02    +0.075 C  
DOCKED: ATOM     25  O   UNL     1     139.536  74.756 222.496 -0.63 +0.04    -0.318 OA 
DOCKED: BRANCH  24  26
DOCKED: ATOM     26  N   UNL     1     140.184  76.854 221.762 -0.02 +0.18    -0.645 NA 
DOCKED: BRANCH  26  27
DOCKED: ATOM     27  C   UNL     1     141.471  77.472 221.442 -0.20 +0.04    -0.077 C  
DOCKED: ATOM     28  C   UNL     1     141.936  76.975 220.075 -0.31 +0.00    -0.008 C  
DOCKED: BRANCH  27  29
DOCKED: ATOM     29  C   UNL     1     141.354  78.987 221.433 -0.34 +0.02    -0.044 A  
DOCKED: ATOM     30  C   UNL     1     141.198  79.668 220.207 -0.26 -0.00    +0.008 A  
DOCKED: ATOM     31  C   UNL     1     141.465  79.745 222.624 -0.47 -0.01    +0.046 A  
DOCKED: ATOM     32  C   UNL     1     141.107  81.060 220.171 -0.25 -0.02    +0.047 A  
DOCKED: ATOM     33  C   UNL     1     141.363  81.142 222.580 -0.44 -0.01    +0.067 A  
DOCKED: ATOM     34  C   UNL     1     141.181  81.807 221.353 -0.30 -0.03    +0.120 A  
DOCKED: ATOM     35  Cl  UNL     1     141.753  78.996 224.195 -0.57 +0.02    -0.084 Cl 
DOCKED: BRANCH  34  36
DOCKED: ATOM     36  O   UNL     1     141.075  83.204 221.263 -0.13 +0.08    -0.497 OA 
DOCKED: ATOM     37  C   UNL     1     139.844  83.917 221.213 -0.14 -0.04    +0.278 C  
DOCKED: ENDBRANCH  34  36
DOCKED: ENDBRANCH  27  29
DOCKED: ENDBRANCH  26  27
DOCKED: ENDBRANCH  24  26
DOCKED: ENDBRANCH   5  24
DOCKED: BRANCH   3  38
DOCKED: ATOM     38  O   UNL     1     138.040  74.042 217.461 +0.00 +0.08    -0.391 OA 
DOCKED: ATOM     39  H   UNL     1     138.981  73.822 217.231 +0.00 -0.04    +0.211 HD 
DOCKED: ENDBRANCH   3  38
DOCKED: TORSDOF 12
DOCKED: TER
DOCKED: ENDMDL
________________________________________________________________________________


    FINAL DOCKED STATE:
    ________________________


Run:   10 / 20
Time taken for this run:   0.064s

DOCKED: MODEL        10
DOCKED: USER    Run = 10
DOCKED: USER
DOCKED: USER    Estimated Free Energy of Binding    =  -6.27 kcal/mol  [=(1)+(2)+(3)-(4)]
DOCKED: USER
DOCKED: USER    (1) Final Intermolecular Energy     =  -9.85 kcal/mol
DOCKED: USER        vdW + Hbond + desolv Energy     =  -9.80 kcal/mol
DOCKED: USER        Electrostatic Energy            =  -0.05 kcal/mol
DOCKED: USER        Moving Ligand-Fixed Receptor    =  -9.85 kcal/mol
DOCKED: USER        Moving Ligand-Moving Receptor   =  +0.00 kcal/mol
DOCKED: USER    (2) Final Total Internal Energy     =  -3.83 kcal/mol
DOCKED: USER    (3) Torsional Free Energy           =  +3.58 kcal/mol
DOCKED: USER    (4) Unbound System's Energy         =  -3.83 kcal/mol
DOCKED: USER
DOCKED: USER
DOCKED: REMARK SMILES COc1ccc([C@H](C)[N-]C(=O)[C@@H]2C[C@@H](O)CN2C(=O)C/N=C(\O)c2ccc3cc(F)ccc3n2)c(Cl)c1
DOCKED: REMARK SMILES IDX 17 1 16 2 14 3 13 4 12 5 18 6 19 7 20 8 21 9 22 10 23 11
DOCKED: REMARK SMILES IDX 24 13 34 14 25 15 33 16 26 17 32 18 27 19 31 20 28 21 29 22
DOCKED: REMARK SMILES IDX 30 23 10 24 11 25 9 26 7 27 8 28 6 29 5 30 35 31 4 32 37 33
DOCKED: REMARK SMILES IDX 3 34 36 35 2 36 1 37 15 38
DOCKED: REMARK H PARENT 23 12 15 39
DOCKED: USER                              x       y       z     vdW  Elec       q    Type
DOCKED: USER                           _______ _______ _______ _____ _____    ______ ____
DOCKED: ROOT
DOCKED: ATOM      1  N   UNL     1     140.700  73.858 220.689 -0.08 +0.06    -0.330 N  
DOCKED: ATOM      2  C   UNL     1     140.757  74.549 221.969 +0.04 -0.01    +0.152 C  
DOCKED: ATOM      3  C   UNL     1     139.878  75.793 221.816 -0.28 -0.03    +0.136 C  
DOCKED: ATOM      4  C   UNL     1     139.661  75.961 220.307 -0.12 -0.02    +0.065 C  
DOCKED: ATOM      5  C   UNL     1     139.895  74.576 219.710 -0.06 -0.03    +0.136 C  
DOCKED: ENDROOT
DOCKED: BRANCH   1   6
DOCKED: ATOM      6  C   UNL     1     141.239  72.541 220.471 -0.11 -0.04    +0.245 C  
DOCKED: ATOM      7  O   UNL     1     142.457  72.314 220.707 -0.15 +0.04    -0.273 OA 
DOCKED: BRANCH   6   8
DOCKED: ATOM      8  C   UNL     1     140.372  71.419 219.985 -0.05 -0.04    +0.246 C  
DOCKED: BRANCH   8   9
DOCKED: ATOM      9  N   UNL     1     139.585  70.889 221.092 -0.06 +0.04    -0.240 NA 
DOCKED: BRANCH   9  10
DOCKED: ATOM     10  C   UNL     1     139.259  71.551 222.165 -0.16 -0.05    +0.233 C  
DOCKED: BRANCH  10  11
DOCKED: ATOM     11  O   UNL     1     138.450  72.691 222.105 -0.07 +0.14    -0.492 OA 
DOCKED: ATOM     12  H   UNL     1     138.460  73.413 222.811 -0.47 -0.16    +0.295 HD 
DOCKED: ENDBRANCH  10  11
DOCKED: BRANCH  10  13
DOCKED: ATOM     13  C   UNL     1     139.752  71.080 223.474 -0.30 -0.02    +0.125 A  
DOCKED: ATOM     14  N   UNL     1     139.346  69.868 223.949 -0.16 +0.04    -0.243 NA 
DOCKED: ATOM     15  C   UNL     1     140.626  71.866 224.243 -0.33 -0.00    +0.035 A  
DOCKED: ATOM     16  C   UNL     1     139.760  69.385 225.150 -0.36 -0.01    +0.071 A  
DOCKED: ATOM     17  C   UNL     1     141.068  71.398 225.481 -0.57 -0.00    +0.013 A  
DOCKED: ATOM     18  C   UNL     1     139.316  68.136 225.596 -0.50 -0.00    +0.032 A  
DOCKED: ATOM     19  C   UNL     1     140.641  70.146 225.949 -0.54 -0.00    +0.003 A  
DOCKED: ATOM     20  C   UNL     1     139.745  67.640 226.833 -0.61 -0.01    +0.041 A  
DOCKED: ATOM     21  C   UNL     1     141.069  69.642 227.187 -0.53 -0.01    +0.049 A  
DOCKED: ATOM     22  C   UNL     1     140.622  68.390 227.626 -0.56 -0.03    +0.123 A  
DOCKED: ATOM     23  F   UNL     1     141.039  67.902 228.823 -0.19 +0.06    -0.207 F  
DOCKED: ENDBRANCH  10  13
DOCKED: ENDBRANCH   9  10
DOCKED: ENDBRANCH   8   9
DOCKED: ENDBRANCH   6   8
DOCKED: ENDBRANCH   1   6
DOCKED: BRANCH   5  24
DOCKED: ATOM     24  C   UNL     1     140.534  74.624 218.337 -0.03 -0.02    +0.075 C  
DOCKED: ATOM     25  O   UNL     1     140.476  73.591 217.618 +0.00 +0.07    -0.318 OA 
DOCKED: BRANCH  24  26
DOCKED: ATOM     26  N   UNL     1     141.243  75.765 217.824 +0.06 +0.23    -0.645 NA 
DOCKED: BRANCH  26  27
DOCKED: ATOM     27  C   UNL     1     142.548  76.273 218.248 -0.22 +0.04    -0.077 C  
DOCKED: ATOM     28  C   UNL     1     142.369  77.114 219.510 -0.33 +0.01    -0.008 C  
DOCKED: BRANCH  27  29
DOCKED: ATOM     29  C   UNL     1     143.509  75.128 218.518 -0.23 +0.02    -0.044 A  
DOCKED: ATOM     30  C   UNL     1     143.940  74.874 219.838 -0.41 -0.00    +0.008 A  
DOCKED: ATOM     31  C   UNL     1     144.042  74.344 217.465 -0.15 -0.01    +0.046 A  
DOCKED: ATOM     32  C   UNL     1     144.838  73.840 220.109 -0.47 -0.01    +0.047 A  
DOCKED: ATOM     33  C   UNL     1     144.936  73.302 217.747 -0.17 +0.00    +0.067 A  
DOCKED: ATOM     34  C   UNL     1     145.337  73.042 219.072 -0.28 +0.03    +0.120 A  
DOCKED: ATOM     35  Cl  UNL     1     143.640  74.640 215.774 -0.12 +0.03    -0.084 Cl 
DOCKED: BRANCH  34  36
DOCKED: ATOM     36  O   UNL     1     146.229  72.010 219.398 -0.43 -0.54    -0.497 OA 
DOCKED: ATOM     37  C   UNL     1     145.918  70.623 219.324 -0.08 +0.19    +0.278 C  
DOCKED: ENDBRANCH  34  36
DOCKED: ENDBRANCH  27  29
DOCKED: ENDBRANCH  26  27
DOCKED: ENDBRANCH  24  26
DOCKED: ENDBRANCH   5  24
DOCKED: BRANCH   3  38
DOCKED: ATOM     38  O   UNL     1     138.647  75.582 222.460 -0.22 +0.10    -0.391 OA 
DOCKED: ATOM     39  H   UNL     1     138.709  74.700 222.914 -0.50 -0.10    +0.211 HD 
DOCKED: ENDBRANCH   3  38
DOCKED: TORSDOF 12
DOCKED: TER
DOCKED: ENDMDL
________________________________________________________________________________


    FINAL DOCKED STATE:
    ________________________


Run:   11 / 20
Time taken for this run:   0.064s

DOCKED: MODEL        11
DOCKED: USER    Run = 11
DOCKED: USER
DOCKED: USER    Estimated Free Energy of Binding    =  -5.74 kcal/mol  [=(1)+(2)+(3)-(4)]
DOCKED: USER
DOCKED: USER    (1) Final Intermolecular Energy     =  -9.32 kcal/mol
DOCKED: USER        vdW + Hbond + desolv Energy     =  -9.27 kcal/mol
DOCKED: USER        Electrostatic Energy            =  -0.05 kcal/mol
DOCKED: USER        Moving Ligand-Fixed Receptor    =  -9.32 kcal/mol
DOCKED: USER        Moving Ligand-Moving Receptor   =  +0.00 kcal/mol
DOCKED: USER    (2) Final Total Internal Energy     =  -3.61 kcal/mol
DOCKED: USER    (3) Torsional Free Energy           =  +3.58 kcal/mol
DOCKED: USER    (4) Unbound System's Energy         =  -3.61 kcal/mol
DOCKED: USER
DOCKED: USER
DOCKED: REMARK SMILES COc1ccc([C@H](C)[N-]C(=O)[C@@H]2C[C@@H](O)CN2C(=O)C/N=C(\O)c2ccc3cc(F)ccc3n2)c(Cl)c1
DOCKED: REMARK SMILES IDX 17 1 16 2 14 3 13 4 12 5 18 6 19 7 20 8 21 9 22 10 23 11
DOCKED: REMARK SMILES IDX 24 13 34 14 25 15 33 16 26 17 32 18 27 19 31 20 28 21 29 22
DOCKED: REMARK SMILES IDX 30 23 10 24 11 25 9 26 7 27 8 28 6 29 5 30 35 31 4 32 37 33
DOCKED: REMARK SMILES IDX 3 34 36 35 2 36 1 37 15 38
DOCKED: REMARK H PARENT 23 12 15 39
DOCKED: USER                              x       y       z     vdW  Elec       q    Type
DOCKED: USER                           _______ _______ _______ _____ _____    ______ ____
DOCKED: ROOT
DOCKED: ATOM      1  N   UNL     1     141.197  75.889 219.869 -0.06 +0.12    -0.330 N  
DOCKED: ATOM      2  C   UNL     1     142.415  76.497 219.354 -0.25 -0.08    +0.152 C  
DOCKED: ATOM      3  C   UNL     1     143.510  75.438 219.501 -0.31 -0.07    +0.136 C  
DOCKED: ATOM      4  C   UNL     1     142.940  74.388 220.463 -0.30 -0.02    +0.065 C  
DOCKED: ATOM      5  C   UNL     1     141.424  74.543 220.378 -0.19 -0.04    +0.136 C  
DOCKED: ENDROOT
DOCKED: BRANCH   1   6
DOCKED: ATOM      6  C   UNL     1     139.893  76.486 219.739 -0.04 -0.07    +0.245 C  
DOCKED: ATOM      7  O   UNL     1     139.752  77.728 219.903 -0.04 +0.08    -0.273 OA 
DOCKED: BRANCH   6   8
DOCKED: ATOM      8  C   UNL     1     138.693  75.658 219.390 -0.02 -0.06    +0.246 C  
DOCKED: BRANCH   8   9
DOCKED: ATOM      9  N   UNL     1     137.570  76.035 220.242 -0.02 +0.05    -0.240 NA 
DOCKED: BRANCH   9  10
DOCKED: ATOM     10  C   UNL     1     137.627  76.191 221.533 -0.12 -0.05    +0.233 C  
DOCKED: BRANCH  10  11
DOCKED: ATOM     11  O   UNL     1     138.392  77.208 222.114 -0.08 +0.10    -0.492 OA 
DOCKED: ATOM     12  H   UNL     1     139.393  77.278 222.003 +0.12 -0.07    +0.295 HD 
DOCKED: ENDBRANCH  10  11
DOCKED: BRANCH  10  13
DOCKED: ATOM     13  C   UNL     1     136.859  75.275 222.399 -0.18 -0.03    +0.125 A  
DOCKED: ATOM     14  N   UNL     1     136.140  75.781 223.441 -0.18 +0.06    -0.243 NA 
DOCKED: ATOM     15  C   UNL     1     136.867  73.889 222.172 -0.14 -0.01    +0.035 A  
DOCKED: ATOM     16  C   UNL     1     135.421  74.987 224.277 -0.30 -0.01    +0.071 A  
DOCKED: ATOM     17  C   UNL     1     136.138  73.047 223.015 -0.17 -0.00    +0.013 A  
DOCKED: ATOM     18  C   UNL     1     134.698  75.551 225.334 -0.37 -0.00    +0.032 A  
DOCKED: ATOM     19  C   UNL     1     135.402  73.589 224.078 -0.25 -0.00    +0.003 A  
DOCKED: ATOM     20  C   UNL     1     133.956  74.731 226.193 -0.32 +0.00    +0.041 A  
DOCKED: ATOM     21  C   UNL     1     134.655  72.773 224.942 -0.24 -0.00    +0.049 A  
DOCKED: ATOM     22  C   UNL     1     133.932  73.345 225.996 -0.28 +0.00    +0.123 A  
DOCKED: ATOM     23  F   UNL     1     133.207  72.555 226.829 -0.12 +0.01    -0.207 F  
DOCKED: ENDBRANCH  10  13
DOCKED: ENDBRANCH   9  10
DOCKED: ENDBRANCH   8   9
DOCKED: ENDBRANCH   6   8
DOCKED: ENDBRANCH   1   6
DOCKED: BRANCH   5  24
DOCKED: ATOM     24  C   UNL     1     140.728  74.281 221.697 -0.21 -0.01    +0.075 C  
DOCKED: ATOM     25  O   UNL     1     140.139  75.243 222.260 -0.60 +0.03    -0.318 OA 
DOCKED: BRANCH  24  26
DOCKED: ATOM     26  N   UNL     1     140.739  73.010 222.369 -0.41 +0.01    -0.645 NA 
DOCKED: BRANCH  26  27
DOCKED: ATOM     27  C   UNL     1     139.678  72.003 222.397 -0.27 +0.01    -0.077 C  
DOCKED: ATOM     28  C   UNL     1     139.899  71.016 221.253 -0.16 +0.00    -0.008 C  
DOCKED: BRANCH  27  29
DOCKED: ATOM     29  C   UNL     1     139.671  71.265 223.726 -0.36 +0.01    -0.044 A  
DOCKED: ATOM     30  C   UNL     1     140.711  71.487 224.654 -0.48 -0.00    +0.008 A  
DOCKED: ATOM     31  C   UNL     1     138.679  70.302 224.032 -0.29 -0.01    +0.046 A  
DOCKED: ATOM     32  C   UNL     1     140.736  70.807 225.873 -0.56 -0.01    +0.047 A  
DOCKED: ATOM     33  C   UNL     1     138.707  69.630 225.262 -0.34 -0.01    +0.067 A  
DOCKED: ATOM     34  C   UNL     1     139.735  69.881 226.190 -0.40 -0.02    +0.120 A  
DOCKED: ATOM     35  Cl  UNL     1     137.391  69.883 222.902 -0.21 +0.01    -0.084 Cl 
DOCKED: BRANCH  34  36
DOCKED: ATOM     36  O   UNL     1     139.801  69.231 227.432 -0.16 +0.08    -0.497 OA 
DOCKED: ATOM     37  C   UNL     1     140.690  68.161 227.735 -0.42 -0.07    +0.278 C  
DOCKED: ENDBRANCH  34  36
DOCKED: ENDBRANCH  27  29
DOCKED: ENDBRANCH  26  27
DOCKED: ENDBRANCH  24  26
DOCKED: ENDBRANCH   5  24
DOCKED: BRANCH   3  38
DOCKED: ATOM     38  O   UNL     1     143.772  74.854 218.250 -0.09 +0.17    -0.391 OA 
DOCKED: ATOM     39  H   UNL     1     144.590  75.294 217.895 -0.45 -0.15    +0.211 HD 
DOCKED: ENDBRANCH   3  38
DOCKED: TORSDOF 12
DOCKED: TER
DOCKED: ENDMDL
________________________________________________________________________________


    FINAL DOCKED STATE:
    ________________________


Run:   12 / 20
Time taken for this run:   0.064s

DOCKED: MODEL        12
DOCKED: USER    Run = 12
DOCKED: USER
DOCKED: USER    Estimated Free Energy of Binding    =  -5.91 kcal/mol  [=(1)+(2)+(3)-(4)]
DOCKED: USER
DOCKED: USER    (1) Final Intermolecular Energy     =  -9.49 kcal/mol
DOCKED: USER        vdW + Hbond + desolv Energy     =  -8.60 kcal/mol
DOCKED: USER        Electrostatic Energy            =  -0.89 kcal/mol
DOCKED: USER        Moving Ligand-Fixed Receptor    =  -9.49 kcal/mol
DOCKED: USER        Moving Ligand-Moving Receptor   =  +0.00 kcal/mol
DOCKED: USER    (2) Final Total Internal Energy     =  -3.78 kcal/mol
DOCKED: USER    (3) Torsional Free Energy           =  +3.58 kcal/mol
DOCKED: USER    (4) Unbound System's Energy         =  -3.78 kcal/mol
DOCKED: USER
DOCKED: USER
DOCKED: REMARK SMILES COc1ccc([C@H](C)[N-]C(=O)[C@@H]2C[C@@H](O)CN2C(=O)C/N=C(\O)c2ccc3cc(F)ccc3n2)c(Cl)c1
DOCKED: REMARK SMILES IDX 17 1 16 2 14 3 13 4 12 5 18 6 19 7 20 8 21 9 22 10 23 11
DOCKED: REMARK SMILES IDX 24 13 34 14 25 15 33 16 26 17 32 18 27 19 31 20 28 21 29 22
DOCKED: REMARK SMILES IDX 30 23 10 24 11 25 9 26 7 27 8 28 6 29 5 30 35 31 4 32 37 33
DOCKED: REMARK SMILES IDX 3 34 36 35 2 36 1 37 15 38
DOCKED: REMARK H PARENT 23 12 15 39
DOCKED: USER                              x       y       z     vdW  Elec       q    Type
DOCKED: USER                           _______ _______ _______ _____ _____    ______ ____
DOCKED: ROOT
DOCKED: ATOM      1  N   UNL     1     143.136  73.572 218.511 -0.02 +0.07    -0.330 N  
DOCKED: ATOM      2  C   UNL     1     141.987  73.414 219.391 -0.09 -0.03    +0.152 C  
DOCKED: ATOM      3  C   UNL     1     142.513  73.626 220.813 -0.20 -0.03    +0.136 C  
DOCKED: ATOM      4  C   UNL     1     144.039  73.516 220.709 -0.35 -0.02    +0.065 C  
DOCKED: ATOM      5  C   UNL     1     144.367  73.822 219.249 -0.25 -0.03    +0.136 C  
DOCKED: ENDROOT
DOCKED: BRANCH   1   6
DOCKED: ATOM      6  C   UNL     1     143.037  73.636 217.076 -0.02 -0.05    +0.245 C  
DOCKED: ATOM      7  O   UNL     1     143.906  73.067 216.360 -0.02 +0.03    -0.273 OA 
DOCKED: BRANCH   6   8
DOCKED: ATOM      8  C   UNL     1     141.902  74.352 216.409 -0.00 -0.07    +0.246 C  
DOCKED: BRANCH   8   9
DOCKED: ATOM      9  N   UNL     1     142.099  75.794 216.515 -0.03 +0.10    -0.240 NA 
DOCKED: BRANCH   9  10
DOCKED: ATOM     10  C   UNL     1     143.018  76.375 217.230 -0.16 -0.13    +0.233 C  
DOCKED: BRANCH  10  11
DOCKED: ATOM     11  O   UNL     1     144.370  76.037 217.099 +0.00 +0.33    -0.492 OA 
DOCKED: ATOM     12  H   UNL     1     144.726  75.107 217.266 -0.33 -0.17    +0.295 HD 
DOCKED: ENDBRANCH  10  11
DOCKED: BRANCH  10  13
DOCKED: ATOM     13  C   UNL     1     142.622  77.418 218.195 -0.26 -0.08    +0.125 A  
DOCKED: ATOM     14  N   UNL     1     142.208  77.056 219.443 -0.18 +0.14    -0.243 NA 
DOCKED: ATOM     15  C   UNL     1     142.654  78.778 217.844 -0.30 -0.03    +0.035 A  
DOCKED: ATOM     16  C   UNL     1     141.824  77.971 220.372 -0.29 -0.04    +0.071 A  
DOCKED: ATOM     17  C   UNL     1     142.264  79.741 218.777 -0.30 -0.01    +0.013 A  
DOCKED: ATOM     18  C   UNL     1     141.406  77.553 221.640 -0.29 -0.02    +0.032 A  
DOCKED: ATOM     19  C   UNL     1     141.847  79.347 220.056 -0.28 -0.00    +0.003 A  
DOCKED: ATOM     20  C   UNL     1     141.013  78.497 222.596 -0.44 -0.01    +0.041 A  
DOCKED: ATOM     21  C   UNL     1     141.451  80.289 221.020 -0.33 -0.02    +0.049 A  
DOCKED: ATOM     22  C   UNL     1     141.037  79.863 222.287 -0.33 -0.04    +0.123 A  
DOCKED: ATOM     23  F   UNL     1     140.659  80.775 223.220 -0.11 +0.03    -0.207 F  
DOCKED: ENDBRANCH  10  13
DOCKED: ENDBRANCH   9  10
DOCKED: ENDBRANCH   8   9
DOCKED: ENDBRANCH   6   8
DOCKED: ENDBRANCH   1   6
DOCKED: BRANCH   5  24
DOCKED: ATOM     24  C   UNL     1     145.545  73.026 218.728 -0.25 +0.03    +0.075 C  
DOCKED: ATOM     25  O   UNL     1     146.128  73.439 217.689 -0.53 -0.18    -0.318 OA 
DOCKED: BRANCH  24  26
DOCKED: ATOM     26  N   UNL     1     146.009  71.801 219.321 -0.27 -0.59    -0.645 NA 
DOCKED: BRANCH  26  27
DOCKED: ATOM     27  C   UNL     1     145.350  70.496 219.312 -0.22 -0.03    -0.077 C  
DOCKED: ATOM     28  C   UNL     1     143.842  70.701 219.177 -0.19 -0.00    -0.008 C  
DOCKED: BRANCH  27  29
DOCKED: ATOM     29  C   UNL     1     145.863  69.641 218.165 -0.27 -0.02    -0.044 A  
DOCKED: ATOM     30  C   UNL     1     146.227  70.253 216.947 -0.13 +0.01    +0.008 A  
DOCKED: ATOM     31  C   UNL     1     145.924  68.229 218.264 -0.34 +0.00    +0.046 A  
DOCKED: ATOM     32  C   UNL     1     146.684  69.487 215.872 -0.13 +0.01    +0.047 A  
DOCKED: ATOM     33  C   UNL     1     146.392  67.469 217.184 -0.27 -0.01    +0.067 A  
DOCKED: ATOM     34  C   UNL     1     146.777  68.094 215.982 -0.15 -0.01    +0.120 A  
DOCKED: ATOM     35  Cl  UNL     1     145.404  67.363 219.709 -0.61 +0.01    -0.084 Cl 
DOCKED: BRANCH  34  36
DOCKED: ATOM     36  O   UNL     1     147.250  67.371 214.877 -0.06 +0.13    -0.497 OA 
DOCKED: ATOM     37  C   UNL     1     147.198  65.954 214.759 -0.15 -0.16    +0.278 C  
DOCKED: ENDBRANCH  34  36
DOCKED: ENDBRANCH  27  29
DOCKED: ENDBRANCH  26  27
DOCKED: ENDBRANCH  24  26
DOCKED: ENDBRANCH   5  24
DOCKED: BRANCH   3  38
DOCKED: ATOM     38  O   UNL     1     142.152  74.907 221.263 -0.15 +0.14    -0.391 OA 
DOCKED: ATOM     39  H   UNL     1     142.815  75.542 220.881 -0.28 -0.14    +0.211 HD 
DOCKED: ENDBRANCH   3  38
DOCKED: TORSDOF 12
DOCKED: TER
DOCKED: ENDMDL
________________________________________________________________________________


    FINAL DOCKED STATE:
    ________________________


Run:   13 / 20
Time taken for this run:   0.064s

DOCKED: MODEL        13
DOCKED: USER    Run = 13
DOCKED: USER
DOCKED: USER    Estimated Free Energy of Binding    =  -5.50 kcal/mol  [=(1)+(2)+(3)-(4)]
DOCKED: USER
DOCKED: USER    (1) Final Intermolecular Energy     =  -9.08 kcal/mol
DOCKED: USER        vdW + Hbond + desolv Energy     =  -8.26 kcal/mol
DOCKED: USER        Electrostatic Energy            =  -0.82 kcal/mol
DOCKED: USER        Moving Ligand-Fixed Receptor    =  -9.08 kcal/mol
DOCKED: USER        Moving Ligand-Moving Receptor   =  +0.00 kcal/mol
DOCKED: USER    (2) Final Total Internal Energy     =  -4.58 kcal/mol
DOCKED: USER    (3) Torsional Free Energy           =  +3.58 kcal/mol
DOCKED: USER    (4) Unbound System's Energy         =  -4.58 kcal/mol
DOCKED: USER
DOCKED: USER
DOCKED: REMARK SMILES COc1ccc([C@H](C)[N-]C(=O)[C@@H]2C[C@@H](O)CN2C(=O)C/N=C(\O)c2ccc3cc(F)ccc3n2)c(Cl)c1
DOCKED: REMARK SMILES IDX 17 1 16 2 14 3 13 4 12 5 18 6 19 7 20 8 21 9 22 10 23 11
DOCKED: REMARK SMILES IDX 24 13 34 14 25 15 33 16 26 17 32 18 27 19 31 20 28 21 29 22
DOCKED: REMARK SMILES IDX 30 23 10 24 11 25 9 26 7 27 8 28 6 29 5 30 35 31 4 32 37 33
DOCKED: REMARK SMILES IDX 3 34 36 35 2 36 1 37 15 38
DOCKED: REMARK H PARENT 23 12 15 39
DOCKED: USER                              x       y       z     vdW  Elec       q    Type
DOCKED: USER                           _______ _______ _______ _____ _____    ______ ____
DOCKED: ROOT
DOCKED: ATOM      1  N   UNL     1     143.407  74.565 216.460 -0.03 +0.11    -0.330 N  
DOCKED: ATOM      2  C   UNL     1     142.231  74.189 215.689 -0.01 -0.04    +0.152 C  
DOCKED: ATOM      3  C   UNL     1     141.788  72.829 216.234 +0.00 -0.03    +0.136 C  
DOCKED: ATOM      4  C   UNL     1     142.977  72.303 217.047 -0.02 -0.01    +0.065 C  
DOCKED: ATOM      5  C   UNL     1     143.786  73.542 217.424 -0.08 -0.02    +0.136 C  
DOCKED: ENDROOT
DOCKED: BRANCH   1   6
DOCKED: ATOM      6  C   UNL     1     144.022  75.866 216.389 -0.13 -0.14    +0.245 C  
DOCKED: ATOM      7  O   UNL     1     145.120  76.009 215.787 -0.17 +0.18    -0.273 OA 
DOCKED: BRANCH   6   8
DOCKED: ATOM      8  C   UNL     1     143.369  77.066 217.005 -0.12 -0.19    +0.246 C  
DOCKED: BRANCH   8   9
DOCKED: ATOM      9  N   UNL     1     141.951  76.800 217.219 -0.07 +0.12    -0.240 NA 
DOCKED: BRANCH   9  10
DOCKED: ATOM     10  C   UNL     1     141.368  76.731 218.380 -0.08 -0.10    +0.233 C  
DOCKED: BRANCH  10  11
DOCKED: ATOM     11  O   UNL     1     140.561  75.642 218.731 +0.02 +0.15    -0.492 OA 
DOCKED: ATOM     12  H   UNL     1     140.291  75.439 219.682 +0.07 -0.08    +0.295 HD 
DOCKED: ENDBRANCH  10  11
DOCKED: BRANCH  10  13
DOCKED: ATOM     13  C   UNL     1     141.569  77.826 219.349 -0.19 -0.07    +0.125 A  
DOCKED: ATOM     14  N   UNL     1     141.436  77.576 220.683 -0.16 +0.13    -0.243 NA 
DOCKED: ATOM     15  C   UNL     1     141.886  79.124 218.917 -0.27 -0.02    +0.035 A  
DOCKED: ATOM     16  C   UNL     1     141.602  78.545 221.621 -0.35 -0.04    +0.071 A  
DOCKED: ATOM     17  C   UNL     1     142.061  80.141 219.857 -0.28 -0.01    +0.013 A  
DOCKED: ATOM     18  C   UNL     1     141.454  78.242 222.979 -0.50 -0.01    +0.032 A  
DOCKED: ATOM     19  C   UNL     1     141.924  79.861 221.224 -0.38 -0.00    +0.003 A  
DOCKED: ATOM     20  C   UNL     1     141.628  79.242 223.943 -0.56 -0.01    +0.041 A  
DOCKED: ATOM     21  C   UNL     1     142.097  80.859 222.197 -0.48 -0.01    +0.049 A  
DOCKED: ATOM     22  C   UNL     1     141.951  80.547 223.554 -0.52 -0.03    +0.123 A  
DOCKED: ATOM     23  F   UNL     1     142.123  81.512 224.494 -0.16 +0.02    -0.207 F  
DOCKED: ENDBRANCH  10  13
DOCKED: ENDBRANCH   9  10
DOCKED: ENDBRANCH   8   9
DOCKED: ENDBRANCH   6   8
DOCKED: ENDBRANCH   1   6
DOCKED: BRANCH   5  24
DOCKED: ATOM     24  C   UNL     1     145.278  73.285 217.462 -0.16 +0.01    +0.075 C  
DOCKED: ATOM     25  O   UNL     1     145.976  73.687 216.493 -0.14 -0.04    -0.318 OA 
DOCKED: BRANCH  24  26
DOCKED: ATOM     26  N   UNL     1     145.940  72.566 218.518 -0.48 -0.67    -0.645 NA 
DOCKED: BRANCH  26  27
DOCKED: ATOM     27  C   UNL     1     145.738  72.705 219.959 -0.44 -0.02    -0.077 C  
DOCKED: ATOM     28  C   UNL     1     146.690  73.772 220.496 -0.42 -0.00    -0.008 C  
DOCKED: BRANCH  27  29
DOCKED: ATOM     29  C   UNL     1     144.300  73.090 220.267 -0.38 +0.01    -0.044 A  
DOCKED: ATOM     30  C   UNL     1     143.982  74.436 220.546 -0.40 -0.00    +0.008 A  
DOCKED: ATOM     31  C   UNL     1     143.274  72.117 220.347 -0.26 -0.01    +0.046 A  
DOCKED: ATOM     32  C   UNL     1     142.672  74.812 220.850 -0.21 -0.02    +0.047 A  
DOCKED: ATOM     33  C   UNL     1     141.960  72.503 220.643 -0.20 -0.01    +0.067 A  
DOCKED: ATOM     34  C   UNL     1     141.651  73.854 220.894 -0.23 -0.02    +0.120 A  
DOCKED: ATOM     35  Cl  UNL     1     143.585  70.398 220.106 -0.17 +0.00    -0.084 Cl 
DOCKED: BRANCH  34  36
DOCKED: ATOM     36  O   UNL     1     140.350  74.284 221.195 -0.18 +0.09    -0.497 OA 
DOCKED: ATOM     37  C   UNL     1     139.296  73.427 221.620 -0.15 -0.06    +0.278 C  
DOCKED: ENDBRANCH  34  36
DOCKED: ENDBRANCH  27  29
DOCKED: ENDBRANCH  26  27
DOCKED: ENDBRANCH  24  26
DOCKED: ENDBRANCH   5  24
DOCKED: BRANCH   3  38
DOCKED: ATOM     38  O   UNL     1     140.670  72.997 217.068 +0.00 +0.08    -0.391 OA 
DOCKED: ATOM     39  H   UNL     1     140.751  73.899 217.476 +0.02 -0.05    +0.211 HD 
DOCKED: ENDBRANCH   3  38
DOCKED: TORSDOF 12
DOCKED: TER
DOCKED: ENDMDL
________________________________________________________________________________


    FINAL DOCKED STATE:
    ________________________


Run:   14 / 20
Time taken for this run:   0.064s

DOCKED: MODEL        14
DOCKED: USER    Run = 14
DOCKED: USER
DOCKED: USER    Estimated Free Energy of Binding    =  -5.95 kcal/mol  [=(1)+(2)+(3)-(4)]
DOCKED: USER
DOCKED: USER    (1) Final Intermolecular Energy     =  -9.53 kcal/mol
DOCKED: USER        vdW + Hbond + desolv Energy     =  -9.46 kcal/mol
DOCKED: USER        Electrostatic Energy            =  -0.07 kcal/mol
DOCKED: USER        Moving Ligand-Fixed Receptor    =  -9.53 kcal/mol
DOCKED: USER        Moving Ligand-Moving Receptor   =  +0.00 kcal/mol
DOCKED: USER    (2) Final Total Internal Energy     =  -4.13 kcal/mol
DOCKED: USER    (3) Torsional Free Energy           =  +3.58 kcal/mol
DOCKED: USER    (4) Unbound System's Energy         =  -4.13 kcal/mol
DOCKED: USER
DOCKED: USER
DOCKED: REMARK SMILES COc1ccc([C@H](C)[N-]C(=O)[C@@H]2C[C@@H](O)CN2C(=O)C/N=C(\O)c2ccc3cc(F)ccc3n2)c(Cl)c1
DOCKED: REMARK SMILES IDX 17 1 16 2 14 3 13 4 12 5 18 6 19 7 20 8 21 9 22 10 23 11
DOCKED: REMARK SMILES IDX 24 13 34 14 25 15 33 16 26 17 32 18 27 19 31 20 28 21 29 22
DOCKED: REMARK SMILES IDX 30 23 10 24 11 25 9 26 7 27 8 28 6 29 5 30 35 31 4 32 37 33
DOCKED: REMARK SMILES IDX 3 34 36 35 2 36 1 37 15 38
DOCKED: REMARK H PARENT 23 12 15 39
DOCKED: USER                              x       y       z     vdW  Elec       q    Type
DOCKED: USER                           _______ _______ _______ _____ _____    ______ ____
DOCKED: ROOT
DOCKED: ATOM      1  N   UNL     1     140.565  71.937 220.564 -0.05 +0.05    -0.330 N  
DOCKED: ATOM      2  C   UNL     1     141.032  72.483 221.830 -0.21 -0.01    +0.152 C  
DOCKED: ATOM      3  C   UNL     1     140.994  74.005 221.672 -0.17 -0.01    +0.136 C  
DOCKED: ATOM      4  C   UNL     1     140.869  74.260 220.165 -0.15 -0.01    +0.065 C  
DOCKED: ATOM      5  C   UNL     1     140.273  72.978 219.588 -0.05 -0.03    +0.136 C  
DOCKED: ENDROOT
DOCKED: BRANCH   1   6
DOCKED: ATOM      6  C   UNL     1     140.271  70.542 220.358 -0.07 -0.04    +0.245 C  
DOCKED: ATOM      7  O   UNL     1     141.191  69.686 220.457 -0.03 +0.04    -0.273 OA 
DOCKED: BRANCH   6   8
DOCKED: ATOM      8  C   UNL     1     138.879  70.082 220.048 -0.03 -0.04    +0.246 C  
DOCKED: BRANCH   8   9
DOCKED: ATOM      9  N   UNL     1     138.018  70.300 221.204 -0.03 +0.04    -0.240 NA 
DOCKED: BRANCH   9  10
DOCKED: ATOM     10  C   UNL     1     138.309  71.055 222.224 -0.10 -0.05    +0.233 C  
DOCKED: BRANCH  10  11
DOCKED: ATOM     11  O   UNL     1     138.123  72.442 222.185 -0.05 +0.14    -0.492 OA 
DOCKED: ATOM     12  H   UNL     1     138.384  73.055 222.943 -0.40 -0.16    +0.295 HD 
DOCKED: ENDBRANCH  10  11
DOCKED: BRANCH  10  13
DOCKED: ATOM     13  C   UNL     1     138.840  70.429 223.450 -0.23 -0.02    +0.125 A  
DOCKED: ATOM     14  N   UNL     1     139.437  71.206 224.397 -0.24 +0.05    -0.243 NA 
DOCKED: ATOM     15  C   UNL     1     138.748  69.041 223.651 -0.27 -0.01    +0.035 A  
DOCKED: ATOM     16  C   UNL     1     139.951  70.685 225.543 -0.46 -0.01    +0.071 A  
DOCKED: ATOM     17  C   UNL     1     139.268  68.477 224.818 -0.38 -0.00    +0.013 A  
DOCKED: ATOM     18  C   UNL     1     140.556  71.523 226.486 -0.62 -0.01    +0.032 A  
DOCKED: ATOM     19  C   UNL     1     139.875  69.296 225.781 -0.47 -0.00    +0.003 A  
DOCKED: ATOM     20  C   UNL     1     141.083  70.985 227.666 -0.66 -0.01    +0.041 A  
DOCKED: ATOM     21  C   UNL     1     140.405  68.763 226.967 -0.58 -0.01    +0.049 A  
DOCKED: ATOM     22  C   UNL     1     141.006  69.608 227.907 -0.49 -0.02    +0.123 A  
DOCKED: ATOM     23  F   UNL     1     141.515  69.091 229.056 -0.09 +0.05    -0.207 F  
DOCKED: ENDBRANCH  10  13
DOCKED: ENDBRANCH   9  10
DOCKED: ENDBRANCH   8   9
DOCKED: ENDBRANCH   6   8
DOCKED: ENDBRANCH   1   6
DOCKED: BRANCH   5  24
DOCKED: ATOM     24  C   UNL     1     140.793  72.657 218.202 -0.02 -0.01    +0.075 C  
DOCKED: ATOM     25  O   UNL     1     140.264  71.699 217.576 -0.00 +0.06    -0.318 OA 
DOCKED: BRANCH  24  26
DOCKED: ATOM     26  N   UNL     1     141.887  73.350 217.577 +0.06 +0.14    -0.645 NA 
DOCKED: BRANCH  26  27
DOCKED: ATOM     27  C   UNL     1     143.024  72.769 216.864 -0.02 +0.01    -0.077 C  
DOCKED: ATOM     28  C   UNL     1     144.030  73.873 216.547 -0.10 +0.00    -0.008 C  
DOCKED: BRANCH  27  29
DOCKED: ATOM     29  C   UNL     1     143.688  71.686 217.699 -0.06 +0.00    -0.044 A  
DOCKED: ATOM     30  C   UNL     1     143.684  70.351 217.242 -0.05 -0.00    +0.008 A  
DOCKED: ATOM     31  C   UNL     1     144.254  71.971 218.965 -0.19 +0.00    +0.046 A  
DOCKED: ATOM     32  C   UNL     1     144.270  69.336 218.000 -0.13 -0.00    +0.047 A  
DOCKED: ATOM     33  C   UNL     1     144.849  70.948 219.716 -0.20 +0.01    +0.067 A  
DOCKED: ATOM     34  C   UNL     1     144.862  69.624 219.236 -0.23 +0.03    +0.120 A  
DOCKED: ATOM     35  Cl  UNL     1     144.227  73.589 219.667 -0.46 +0.02    -0.084 Cl 
DOCKED: BRANCH  34  36
DOCKED: ATOM     36  O   UNL     1     145.445  68.570 219.955 -0.67 -0.22    -0.497 OA 
DOCKED: ATOM     37  C   UNL     1     145.868  67.339 219.379 -0.36 -0.03    +0.278 C  
DOCKED: ENDBRANCH  34  36
DOCKED: ENDBRANCH  27  29
DOCKED: ENDBRANCH  26  27
DOCKED: ENDBRANCH  24  26
DOCKED: ENDBRANCH   5  24
DOCKED: BRANCH   3  38
DOCKED: ATOM     38  O   UNL     1     139.874  74.521 222.344 -0.74 +0.02    -0.391 OA 
DOCKED: ATOM     39  H   UNL     1     139.584  73.826 222.993 -0.43 -0.03    +0.211 HD 
DOCKED: ENDBRANCH   3  38
DOCKED: TORSDOF 12
DOCKED: TER
DOCKED: ENDMDL
________________________________________________________________________________


    FINAL DOCKED STATE:
    ________________________


Run:   15 / 20
Time taken for this run:   0.064s

DOCKED: MODEL        15
DOCKED: USER    Run = 15
DOCKED: USER
DOCKED: USER    Estimated Free Energy of Binding    =  -5.14 kcal/mol  [=(1)+(2)+(3)-(4)]
DOCKED: USER
DOCKED: USER    (1) Final Intermolecular Energy     =  -8.72 kcal/mol
DOCKED: USER        vdW + Hbond + desolv Energy     =  -8.65 kcal/mol
DOCKED: USER        Electrostatic Energy            =  -0.08 kcal/mol
DOCKED: USER        Moving Ligand-Fixed Receptor    =  -8.72 kcal/mol
DOCKED: USER        Moving Ligand-Moving Receptor   =  +0.00 kcal/mol
DOCKED: USER    (2) Final Total Internal Energy     =  -3.89 kcal/mol
DOCKED: USER    (3) Torsional Free Energy           =  +3.58 kcal/mol
DOCKED: USER    (4) Unbound System's Energy         =  -3.89 kcal/mol
DOCKED: USER
DOCKED: USER
DOCKED: REMARK SMILES COc1ccc([C@H](C)[N-]C(=O)[C@@H]2C[C@@H](O)CN2C(=O)C/N=C(\O)c2ccc3cc(F)ccc3n2)c(Cl)c1
DOCKED: REMARK SMILES IDX 17 1 16 2 14 3 13 4 12 5 18 6 19 7 20 8 21 9 22 10 23 11
DOCKED: REMARK SMILES IDX 24 13 34 14 25 15 33 16 26 17 32 18 27 19 31 20 28 21 29 22
DOCKED: REMARK SMILES IDX 30 23 10 24 11 25 9 26 7 27 8 28 6 29 5 30 35 31 4 32 37 33
DOCKED: REMARK SMILES IDX 3 34 36 35 2 36 1 37 15 38
DOCKED: REMARK H PARENT 23 12 15 39
DOCKED: USER                              x       y       z     vdW  Elec       q    Type
DOCKED: USER                           _______ _______ _______ _____ _____    ______ ____
DOCKED: ROOT
DOCKED: ATOM      1  N   UNL     1     140.342  78.875 222.872 -0.18 +0.08    -0.330 N  
DOCKED: ATOM      2  C   UNL     1     141.242  77.770 223.168 -0.19 -0.06    +0.152 C  
DOCKED: ATOM      3  C   UNL     1     140.731  76.580 222.353 -0.32 -0.04    +0.136 C  
DOCKED: ATOM      4  C   UNL     1     139.311  76.959 221.915 -0.28 -0.01    +0.065 C  
DOCKED: ATOM      5  C   UNL     1     139.267  78.484 221.970 -0.20 -0.03    +0.136 C  
DOCKED: ENDROOT
DOCKED: BRANCH   1   6
DOCKED: ATOM      6  C   UNL     1     140.582  80.232 223.291 -0.32 -0.04    +0.245 C  
DOCKED: ATOM      7  O   UNL     1     139.659  80.890 223.843 -0.29 +0.03    -0.273 OA 
DOCKED: BRANCH   6   8
DOCKED: ATOM      8  C   UNL     1     141.921  80.876 223.101 -0.42 -0.05    +0.246 C  
DOCKED: BRANCH   8   9
DOCKED: ATOM      9  N   UNL     1     142.179  81.065 221.678 -0.25 +0.07    -0.240 NA 
DOCKED: BRANCH   9  10
DOCKED: ATOM     10  C   UNL     1     141.324  80.839 220.723 -0.23 -0.08    +0.233 C  
DOCKED: BRANCH  10  11
DOCKED: ATOM     11  O   UNL     1     140.016  81.335 220.780 -0.02 +0.12    -0.492 OA 
DOCKED: ATOM     12  H   UNL     1     139.435  81.265 221.602 +0.10 -0.05    +0.295 HD 
DOCKED: ENDBRANCH  10  11
DOCKED: BRANCH  10  13
DOCKED: ATOM     13  C   UNL     1     141.749  80.047 219.553 -0.25 -0.07    +0.125 A  
DOCKED: ATOM     14  N   UNL     1     142.172  78.763 219.728 -0.13 +0.17    -0.243 NA 
DOCKED: ATOM     15  C   UNL     1     141.736  80.601 218.262 -0.25 -0.02    +0.035 A  
DOCKED: ATOM     16  C   UNL     1     142.582  77.988 218.690 -0.29 -0.05    +0.071 A  
DOCKED: ATOM     17  C   UNL     1     142.153  79.829 217.176 -0.24 -0.01    +0.013 A  
DOCKED: ATOM     18  C   UNL     1     143.008  76.675 218.919 -0.34 -0.02    +0.032 A  
DOCKED: ATOM     19  C   UNL     1     142.579  78.509 217.378 -0.29 -0.00    +0.003 A  
DOCKED: ATOM     20  C   UNL     1     143.428  75.877 217.848 -0.23 -0.02    +0.041 A  
DOCKED: ATOM     21  C   UNL     1     143.001  77.703 216.309 -0.18 -0.05    +0.049 A  
DOCKED: ATOM     22  C   UNL     1     143.423  76.390 216.545 -0.19 -0.08    +0.123 A  
DOCKED: ATOM     23  F   UNL     1     143.828  75.610 215.509 -0.03 +0.10    -0.207 F  
DOCKED: ENDBRANCH  10  13
DOCKED: ENDBRANCH   9  10
DOCKED: ENDBRANCH   8   9
DOCKED: ENDBRANCH   6   8
DOCKED: ENDBRANCH   1   6
DOCKED: BRANCH   5  24
DOCKED: ATOM     24  C   UNL     1     137.914  79.021 222.389 -0.19 -0.01    +0.075 C  
DOCKED: ATOM     25  O   UNL     1     137.613  80.199 222.056 -0.05 +0.05    -0.318 OA 
DOCKED: BRANCH  24  26
DOCKED: ATOM     26  N   UNL     1     136.972  78.283 223.186 +0.11 +0.09    -0.645 NA 
DOCKED: BRANCH  26  27
DOCKED: ATOM     27  C   UNL     1     135.741  77.631 222.742 -0.14 +0.01    -0.077 C  
DOCKED: ATOM     28  C   UNL     1     136.040  76.799 221.496 -0.09 +0.00    -0.008 C  
DOCKED: BRANCH  27  29
DOCKED: ATOM     29  C   UNL     1     135.176  76.741 223.837 -0.19 +0.01    -0.044 A  
DOCKED: ATOM     30  C   UNL     1     135.569  75.387 223.909 -0.29 -0.00    +0.008 A  
DOCKED: ATOM     31  C   UNL     1     134.209  77.220 224.754 -0.16 -0.01    +0.046 A  
DOCKED: ATOM     32  C   UNL     1     135.050  74.546 224.895 -0.33 -0.01    +0.047 A  
DOCKED: ATOM     33  C   UNL     1     133.700  76.371 225.746 -0.27 -0.01    +0.067 A  
DOCKED: ATOM     34  C   UNL     1     134.120  75.029 225.823 -0.32 -0.00    +0.120 A  
DOCKED: ATOM     35  Cl  UNL     1     133.584  78.868 224.690 -0.16 +0.01    -0.084 Cl 
DOCKED: BRANCH  34  36
DOCKED: ATOM     36  O   UNL     1     133.636  74.145 226.800 -0.71 -0.10    -0.497 OA 
DOCKED: ATOM     37  C   UNL     1     132.275  74.065 227.211 -0.27 -0.02    +0.278 C  
DOCKED: ENDBRANCH  34  36
DOCKED: ENDBRANCH  27  29
DOCKED: ENDBRANCH  26  27
DOCKED: ENDBRANCH  24  26
DOCKED: ENDBRANCH   5  24
DOCKED: BRANCH   3  38
DOCKED: ATOM     38  O   UNL     1     141.550  76.394 221.226 -0.14 +0.20    -0.391 OA 
DOCKED: ATOM     39  H   UNL     1     142.206  77.140 221.223 -0.45 -0.18    +0.211 HD 
DOCKED: ENDBRANCH   3  38
DOCKED: TORSDOF 12
DOCKED: TER
DOCKED: ENDMDL
________________________________________________________________________________


    FINAL DOCKED STATE:
    ________________________


Run:   16 / 20
Time taken for this run:   0.064s

DOCKED: MODEL        16
DOCKED: USER    Run = 16
DOCKED: USER
DOCKED: USER    Estimated Free Energy of Binding    =  -6.46 kcal/mol  [=(1)+(2)+(3)-(4)]
DOCKED: USER
DOCKED: USER    (1) Final Intermolecular Energy     = -10.04 kcal/mol
DOCKED: USER        vdW + Hbond + desolv Energy     = -10.19 kcal/mol
DOCKED: USER        Electrostatic Energy            =  +0.14 kcal/mol
DOCKED: USER        Moving Ligand-Fixed Receptor    = -10.04 kcal/mol
DOCKED: USER        Moving Ligand-Moving Receptor   =  +0.00 kcal/mol
DOCKED: USER    (2) Final Total Internal Energy     =  -3.40 kcal/mol
DOCKED: USER    (3) Torsional Free Energy           =  +3.58 kcal/mol
DOCKED: USER    (4) Unbound System's Energy         =  -3.40 kcal/mol
DOCKED: USER
DOCKED: USER
DOCKED: REMARK SMILES COc1ccc([C@H](C)[N-]C(=O)[C@@H]2C[C@@H](O)CN2C(=O)C/N=C(\O)c2ccc3cc(F)ccc3n2)c(Cl)c1
DOCKED: REMARK SMILES IDX 17 1 16 2 14 3 13 4 12 5 18 6 19 7 20 8 21 9 22 10 23 11
DOCKED: REMARK SMILES IDX 24 13 34 14 25 15 33 16 26 17 32 18 27 19 31 20 28 21 29 22
DOCKED: REMARK SMILES IDX 30 23 10 24 11 25 9 26 7 27 8 28 6 29 5 30 35 31 4 32 37 33
DOCKED: REMARK SMILES IDX 3 34 36 35 2 36 1 37 15 38
DOCKED: REMARK H PARENT 23 12 15 39
DOCKED: USER                              x       y       z     vdW  Elec       q    Type
DOCKED: USER                           _______ _______ _______ _____ _____    ______ ____
DOCKED: ROOT
DOCKED: ATOM      1  N   UNL     1     138.064  74.735 221.353 -0.07 +0.08    -0.330 N  
DOCKED: ATOM      2  C   UNL     1     139.283  74.716 220.558 -0.11 -0.03    +0.152 C  
DOCKED: ATOM      3  C   UNL     1     140.251  75.680 221.248 -0.25 -0.03    +0.136 C  
DOCKED: ATOM      4  C   UNL     1     139.391  76.511 222.208 -0.31 -0.01    +0.065 C  
DOCKED: ATOM      5  C   UNL     1     138.148  75.664 222.472 -0.16 -0.04    +0.136 C  
DOCKED: ENDROOT
DOCKED: BRANCH   1   6
DOCKED: ATOM      6  C   UNL     1     136.968  73.822 221.153 -0.06 -0.05    +0.245 C  
DOCKED: ATOM      7  O   UNL     1     136.199  73.972 220.164 -0.01 +0.05    -0.273 OA 
DOCKED: BRANCH   6   8
DOCKED: ATOM      8  C   UNL     1     136.734  72.675 222.089 -0.08 -0.06    +0.246 C  
DOCKED: BRANCH   8   9
DOCKED: ATOM      9  N   UNL     1     137.908  71.810 222.112 -0.08 +0.06    -0.240 NA 
DOCKED: BRANCH   9  10
DOCKED: ATOM     10  C   UNL     1     138.940  71.967 222.889 -0.10 -0.06    +0.233 C  
DOCKED: BRANCH  10  11
DOCKED: ATOM     11  O   UNL     1     139.812  73.051 222.737 -0.56 +0.07    -0.492 OA 
DOCKED: ATOM     12  H   UNL     1     139.616  73.973 223.100 -0.43 -0.02    +0.295 HD 
DOCKED: ENDBRANCH  10  11
DOCKED: BRANCH  10  13
DOCKED: ATOM     13  C   UNL     1     139.190  70.981 223.957 -0.30 -0.03    +0.125 A  
DOCKED: ATOM     14  N   UNL     1     139.846  71.366 225.088 -0.27 +0.05    -0.243 NA 
DOCKED: ATOM     15  C   UNL     1     138.771  69.647 223.822 -0.27 -0.01    +0.035 A  
DOCKED: ATOM     16  C   UNL     1     140.111  70.501 226.102 -0.48 -0.01    +0.071 A  
DOCKED: ATOM     17  C   UNL     1     139.029  68.734 224.846 -0.39 -0.00    +0.013 A  
DOCKED: ATOM     18  C   UNL     1     140.788  70.942 227.244 -0.66 -0.01    +0.032 A  
DOCKED: ATOM     19  C   UNL     1     139.702  69.153 226.003 -0.49 -0.00    +0.003 A  
DOCKED: ATOM     20  C   UNL     1     141.058  70.049 228.288 -0.53 -0.01    +0.041 A  
DOCKED: ATOM     21  C   UNL     1     139.975  68.264 227.054 -0.61 -0.01    +0.049 A  
DOCKED: ATOM     22  C   UNL     1     140.651  68.713 228.194 -0.55 -0.03    +0.123 A  
DOCKED: ATOM     23  F   UNL     1     140.911  67.852 229.212 -0.16 +0.06    -0.207 F  
DOCKED: ENDBRANCH  10  13
DOCKED: ENDBRANCH   9  10
DOCKED: ENDBRANCH   8   9
DOCKED: ENDBRANCH   6   8
DOCKED: ENDBRANCH   1   6
DOCKED: BRANCH   5  24
DOCKED: ATOM     24  C   UNL     1     136.894  76.494 222.651 -0.23 -0.02    +0.075 C  
DOCKED: ATOM     25  O   UNL     1     136.173  76.271 223.661 -0.18 +0.06    -0.318 OA 
DOCKED: BRANCH  24  26
DOCKED: ATOM     26  N   UNL     1     136.452  77.490 221.712 +0.03 +0.11    -0.645 NA 
DOCKED: BRANCH  26  27
DOCKED: ATOM     27  C   UNL     1     136.453  78.943 221.881 -0.09 +0.01    -0.077 C  
DOCKED: ATOM     28  C   UNL     1     135.361  79.329 222.877 -0.12 +0.00    -0.008 C  
DOCKED: BRANCH  27  29
DOCKED: ATOM     29  C   UNL     1     137.805  79.426 222.380 -0.18 +0.01    -0.044 A  
DOCKED: ATOM     30  C   UNL     1     137.945  79.849 223.719 -0.29 -0.00    +0.008 A  
DOCKED: ATOM     31  C   UNL     1     138.921  79.527 221.513 -0.14 -0.01    +0.046 A  
DOCKED: ATOM     32  C   UNL     1     139.172  80.315 224.196 -0.32 -0.01    +0.047 A  
DOCKED: ATOM     33  C   UNL     1     140.151  79.987 222.002 -0.25 -0.02    +0.067 A  
DOCKED: ATOM     34  C   UNL     1     140.284  80.381 223.347 -0.37 -0.02    +0.120 A  
DOCKED: ATOM     35  Cl  UNL     1     138.825  79.112 219.802 -0.06 +0.02    -0.084 Cl 
DOCKED: BRANCH  34  36
DOCKED: ATOM     36  O   UNL     1     141.496  80.848 223.877 -0.19 +0.07    -0.497 OA 
DOCKED: ATOM     37  C   UNL     1     142.783  80.476 223.394 -0.44 -0.07    +0.278 C  
DOCKED: ENDBRANCH  34  36
DOCKED: ENDBRANCH  27  29
DOCKED: ENDBRANCH  26  27
DOCKED: ENDBRANCH  24  26
DOCKED: ENDBRANCH   5  24
DOCKED: BRANCH   3  38
DOCKED: ATOM     38  O   UNL     1     141.210  74.949 221.969 -0.47 +0.05    -0.391 OA 
DOCKED: ATOM     39  H   UNL     1     140.918  73.999 221.951 +0.06 -0.00    +0.211 HD 
DOCKED: ENDBRANCH   3  38
DOCKED: TORSDOF 12
DOCKED: TER
DOCKED: ENDMDL
________________________________________________________________________________


    FINAL DOCKED STATE:
    ________________________


Run:   17 / 20
Time taken for this run:   0.064s

DOCKED: MODEL        17
DOCKED: USER    Run = 17
DOCKED: USER
DOCKED: USER    Estimated Free Energy of Binding    =  -4.94 kcal/mol  [=(1)+(2)+(3)-(4)]
DOCKED: USER
DOCKED: USER    (1) Final Intermolecular Energy     =  -8.52 kcal/mol
DOCKED: USER        vdW + Hbond + desolv Energy     =  -8.43 kcal/mol
DOCKED: USER        Electrostatic Energy            =  -0.10 kcal/mol
DOCKED: USER        Moving Ligand-Fixed Receptor    =  -8.52 kcal/mol
DOCKED: USER        Moving Ligand-Moving Receptor   =  +0.00 kcal/mol
DOCKED: USER    (2) Final Total Internal Energy     =  -4.12 kcal/mol
DOCKED: USER    (3) Torsional Free Energy           =  +3.58 kcal/mol
DOCKED: USER    (4) Unbound System's Energy         =  -4.12 kcal/mol
DOCKED: USER
DOCKED: USER
DOCKED: REMARK SMILES COc1ccc([C@H](C)[N-]C(=O)[C@@H]2C[C@@H](O)CN2C(=O)C/N=C(\O)c2ccc3cc(F)ccc3n2)c(Cl)c1
DOCKED: REMARK SMILES IDX 17 1 16 2 14 3 13 4 12 5 18 6 19 7 20 8 21 9 22 10 23 11
DOCKED: REMARK SMILES IDX 24 13 34 14 25 15 33 16 26 17 32 18 27 19 31 20 28 21 29 22
DOCKED: REMARK SMILES IDX 30 23 10 24 11 25 9 26 7 27 8 28 6 29 5 30 35 31 4 32 37 33
DOCKED: REMARK SMILES IDX 3 34 36 35 2 36 1 37 15 38
DOCKED: REMARK H PARENT 23 12 15 39
DOCKED: USER                              x       y       z     vdW  Elec       q    Type
DOCKED: USER                           _______ _______ _______ _____ _____    ______ ____
DOCKED: ROOT
DOCKED: ATOM      1  N   UNL     1     134.212  73.733 223.349 -0.03 +0.05    -0.330 N  
DOCKED: ATOM      2  C   UNL     1     133.406  73.521 222.155 -0.01 -0.02    +0.152 C  
DOCKED: ATOM      3  C   UNL     1     132.348  74.627 222.159 -0.01 -0.02    +0.136 C  
DOCKED: ATOM      4  C   UNL     1     132.360  75.203 223.580 -0.04 -0.01    +0.065 C  
DOCKED: ATOM      5  C   UNL     1     133.735  74.855 224.145 -0.12 -0.02    +0.136 C  
DOCKED: ENDROOT
DOCKED: BRANCH   1   6
DOCKED: ATOM      6  C   UNL     1     135.434  73.021 223.622 -0.13 -0.05    +0.245 C  
DOCKED: ATOM      7  O   UNL     1     135.505  72.257 224.622 -0.15 +0.04    -0.273 OA 
DOCKED: BRANCH   6   8
DOCKED: ATOM      8  C   UNL     1     136.626  73.154 222.723 -0.05 -0.08    +0.246 C  
DOCKED: BRANCH   8   9
DOCKED: ATOM      9  N   UNL     1     136.894  71.879 222.068 -0.05 +0.05    -0.240 NA 
DOCKED: BRANCH   9  10
DOCKED: ATOM     10  C   UNL     1     136.972  70.728 222.670 -0.08 -0.04    +0.233 C  
DOCKED: BRANCH  10  11
DOCKED: ATOM     11  O   UNL     1     136.096  69.680 222.364 -0.00 +0.07    -0.492 OA 
DOCKED: ATOM     12  H   UNL     1     135.941  68.893 222.977 +0.07 -0.03    +0.295 HD 
DOCKED: ENDBRANCH  10  11
DOCKED: BRANCH  10  13
DOCKED: ATOM     13  C   UNL     1     138.015  70.525 223.694 -0.21 -0.02    +0.125 A  
DOCKED: ATOM     14  N   UNL     1     137.997  69.396 224.458 -0.17 +0.03    -0.243 NA 
DOCKED: ATOM     15  C   UNL     1     139.021  71.484 223.902 -0.26 -0.01    +0.035 A  
DOCKED: ATOM     16  C   UNL     1     138.926  69.158 225.421 -0.38 -0.01    +0.071 A  
DOCKED: ATOM     17  C   UNL     1     139.988  71.268 224.885 -0.47 -0.00    +0.013 A  
DOCKED: ATOM     18  C   UNL     1     138.866  67.985 226.181 -0.38 -0.00    +0.032 A  
DOCKED: ATOM     19  C   UNL     1     139.953  70.098 225.656 -0.48 -0.00    +0.003 A  
DOCKED: ATOM     20  C   UNL     1     139.825  67.741 227.171 -0.57 -0.01    +0.041 A  
DOCKED: ATOM     21  C   UNL     1     140.912  69.846 226.650 -0.52 -0.01    +0.049 A  
DOCKED: ATOM     22  C   UNL     1     140.848  68.669 227.404 -0.53 -0.03    +0.123 A  
DOCKED: ATOM     23  F   UNL     1     141.778  68.425 228.363 -0.06 +0.06    -0.207 F  
DOCKED: ENDBRANCH  10  13
DOCKED: ENDBRANCH   9  10
DOCKED: ENDBRANCH   8   9
DOCKED: ENDBRANCH   6   8
DOCKED: ENDBRANCH   1   6
DOCKED: BRANCH   5  24
DOCKED: ATOM     24  C   UNL     1     133.706  74.561 225.631 -0.29 -0.00    +0.075 C  
DOCKED: ATOM     25  O   UNL     1     134.709  74.889 226.321 -0.55 -0.04    -0.318 OA 
DOCKED: BRANCH  24  26
DOCKED: ATOM     26  N   UNL     1     132.622  73.887 226.292 -0.08 +0.03    -0.645 NA 
DOCKED: BRANCH  26  27
DOCKED: ATOM     27  C   UNL     1     132.694  72.707 227.154 -0.37 +0.01    -0.077 C  
DOCKED: ATOM     28  C   UNL     1     131.310  72.431 227.737 -0.38 +0.00    -0.008 C  
DOCKED: BRANCH  27  29
DOCKED: ATOM     29  C   UNL     1     133.178  71.498 226.371 -0.33 +0.00    -0.044 A  
DOCKED: ATOM     30  C   UNL     1     134.314  70.787 226.815 -0.39 -0.00    +0.008 A  
DOCKED: ATOM     31  C   UNL     1     132.557  71.101 225.161 -0.13 -0.00    +0.046 A  
DOCKED: ATOM     32  C   UNL     1     134.790  69.685 226.103 -0.20 -0.00    +0.047 A  
DOCKED: ATOM     33  C   UNL     1     133.035  69.988 224.457 -0.09 -0.01    +0.067 A  
DOCKED: ATOM     34  C   UNL     1     134.153  69.272 224.926 -0.18 -0.01    +0.120 A  
DOCKED: ATOM     35  Cl  UNL     1     131.191  71.978 224.473 -0.07 +0.01    -0.084 Cl 
DOCKED: BRANCH  34  36
DOCKED: ATOM     36  O   UNL     1     134.665  68.152 224.252 -0.65 -0.01    -0.497 OA 
DOCKED: ATOM     37  C   UNL     1     133.930  67.368 223.319 -0.07 -0.04    +0.278 C  
DOCKED: ENDBRANCH  34  36
DOCKED: ENDBRANCH  27  29
DOCKED: ENDBRANCH  26  27
DOCKED: ENDBRANCH  24  26
DOCKED: ENDBRANCH   5  24
DOCKED: BRANCH   3  38
DOCKED: ATOM     38  O   UNL     1     132.703  75.621 221.232 +0.00 +0.05    -0.391 OA 
DOCKED: ATOM     39  H   UNL     1     133.569  76.001 221.537 +0.02 -0.03    +0.211 HD 
DOCKED: ENDBRANCH   3  38
DOCKED: TORSDOF 12
DOCKED: TER
DOCKED: ENDMDL
________________________________________________________________________________


    FINAL DOCKED STATE:
    ________________________


Run:   18 / 20
Time taken for this run:   0.064s

DOCKED: MODEL        18
DOCKED: USER    Run = 18
DOCKED: USER
DOCKED: USER    Estimated Free Energy of Binding    =  -5.17 kcal/mol  [=(1)+(2)+(3)-(4)]
DOCKED: USER
DOCKED: USER    (1) Final Intermolecular Energy     =  -8.74 kcal/mol
DOCKED: USER        vdW + Hbond + desolv Energy     =  -8.66 kcal/mol
DOCKED: USER        Electrostatic Energy            =  -0.08 kcal/mol
DOCKED: USER        Moving Ligand-Fixed Receptor    =  -8.74 kcal/mol
DOCKED: USER        Moving Ligand-Moving Receptor   =  +0.00 kcal/mol
DOCKED: USER    (2) Final Total Internal Energy     =  -5.09 kcal/mol
DOCKED: USER    (3) Torsional Free Energy           =  +3.58 kcal/mol
DOCKED: USER    (4) Unbound System's Energy         =  -5.09 kcal/mol
DOCKED: USER
DOCKED: USER
DOCKED: REMARK SMILES COc1ccc([C@H](C)[N-]C(=O)[C@@H]2C[C@@H](O)CN2C(=O)C/N=C(\O)c2ccc3cc(F)ccc3n2)c(Cl)c1
DOCKED: REMARK SMILES IDX 17 1 16 2 14 3 13 4 12 5 18 6 19 7 20 8 21 9 22 10 23 11
DOCKED: REMARK SMILES IDX 24 13 34 14 25 15 33 16 26 17 32 18 27 19 31 20 28 21 29 22
DOCKED: REMARK SMILES IDX 30 23 10 24 11 25 9 26 7 27 8 28 6 29 5 30 35 31 4 32 37 33
DOCKED: REMARK SMILES IDX 3 34 36 35 2 36 1 37 15 38
DOCKED: REMARK H PARENT 23 12 15 39
DOCKED: USER                              x       y       z     vdW  Elec       q    Type
DOCKED: USER                           _______ _______ _______ _____ _____    ______ ____
DOCKED: ROOT
DOCKED: ATOM      1  N   UNL     1     138.625  74.145 219.795 -0.00 +0.07    -0.330 N  
DOCKED: ATOM      2  C   UNL     1     138.768  73.029 220.718 -0.08 -0.03    +0.152 C  
DOCKED: ATOM      3  C   UNL     1     140.114  73.232 221.418 -0.21 -0.02    +0.136 C  
DOCKED: ATOM      4  C   UNL     1     140.867  74.266 220.572 -0.20 -0.01    +0.065 C  
DOCKED: ATOM      5  C   UNL     1     139.786  75.025 219.807 -0.07 -0.03    +0.136 C  
DOCKED: ENDROOT
DOCKED: BRANCH   1   6
DOCKED: ATOM      6  C   UNL     1     137.410  74.434 219.076 -0.00 -0.05    +0.245 C  
DOCKED: ATOM      7  O   UNL     1     137.100  73.745 218.066 +0.00 +0.05    -0.273 OA 
DOCKED: BRANCH   6   8
DOCKED: ATOM      8  C   UNL     1     136.490  75.530 219.520 -0.01 -0.04    +0.246 C  
DOCKED: BRANCH   8   9
DOCKED: ATOM      9  N   UNL     1     136.027  75.266 220.877 -0.02 +0.04    -0.240 NA 
DOCKED: BRANCH   9  10
DOCKED: ATOM     10  C   UNL     1     136.784  75.236 221.936 -0.12 -0.06    +0.233 C  
DOCKED: BRANCH  10  11
DOCKED: ATOM     11  O   UNL     1     136.907  74.081 222.716 -0.02 +0.19    -0.492 OA 
DOCKED: ATOM     12  H   UNL     1     137.785  73.765 223.100 -0.45 -0.22    +0.295 HD 
DOCKED: ENDBRANCH  10  11
DOCKED: BRANCH  10  13
DOCKED: ATOM     13  C   UNL     1     137.532  76.450 222.315 -0.21 -0.03    +0.125 A  
DOCKED: ATOM     14  N   UNL     1     138.894  76.413 222.360 -0.22 +0.05    -0.243 NA 
DOCKED: ATOM     15  C   UNL     1     136.862  77.641 222.640 -0.20 -0.01    +0.035 A  
DOCKED: ATOM     16  C   UNL     1     139.637  77.496 222.709 -0.27 -0.01    +0.071 A  
DOCKED: ATOM     17  C   UNL     1     137.598  78.770 223.004 -0.20 -0.00    +0.013 A  
DOCKED: ATOM     18  C   UNL     1     141.033  77.410 222.742 -0.41 -0.01    +0.032 A  
DOCKED: ATOM     19  C   UNL     1     138.999  78.711 223.039 -0.33 -0.00    +0.003 A  
DOCKED: ATOM     20  C   UNL     1     141.797  78.528 223.100 -0.50 -0.02    +0.041 A  
DOCKED: ATOM     21  C   UNL     1     139.770  79.828 223.397 -0.40 -0.01    +0.049 A  
DOCKED: ATOM     22  C   UNL     1     141.167  79.735 223.425 -0.45 -0.03    +0.123 A  
DOCKED: ATOM     23  F   UNL     1     141.912  80.818 223.767 -0.17 +0.03    -0.207 F  
DOCKED: ENDBRANCH  10  13
DOCKED: ENDBRANCH   9  10
DOCKED: ENDBRANCH   8   9
DOCKED: ENDBRANCH   6   8
DOCKED: ENDBRANCH   1   6
DOCKED: BRANCH   5  24
DOCKED: ATOM     24  C   UNL     1     140.228  75.446 218.421 -0.04 -0.02    +0.075 C  
DOCKED: ATOM     25  O   UNL     1     140.093  74.621 217.478 -0.00 +0.08    -0.318 OA 
DOCKED: BRANCH  24  26
DOCKED: ATOM     26  N   UNL     1     140.836  76.715 218.126 +0.05 +0.25    -0.645 NA 
DOCKED: BRANCH  26  27
DOCKED: ATOM     27  C   UNL     1     142.202  77.145 218.425 -0.24 +0.04    -0.077 C  
DOCKED: ATOM     28  C   UNL     1     142.200  77.935 219.733 -0.26 +0.01    -0.008 C  
DOCKED: BRANCH  27  29
DOCKED: ATOM     29  C   UNL     1     143.129  75.947 218.543 -0.28 +0.02    -0.044 A  
DOCKED: ATOM     30  C   UNL     1     143.596  75.547 219.814 -0.40 -0.00    +0.008 A  
DOCKED: ATOM     31  C   UNL     1     143.596  75.256 217.398 -0.18 -0.02    +0.046 A  
DOCKED: ATOM     32  C   UNL     1     144.464  74.462 219.947 -0.40 -0.02    +0.047 A  
DOCKED: ATOM     33  C   UNL     1     144.460  74.162 217.541 -0.13 -0.02    +0.067 A  
DOCKED: ATOM     34  C   UNL     1     144.897  73.757 218.817 -0.16 -0.02    +0.120 A  
DOCKED: ATOM     35  Cl  UNL     1     143.147  75.734 215.761 -0.17 +0.04    -0.084 Cl 
DOCKED: BRANCH  34  36
DOCKED: ATOM     36  O   UNL     1     145.761  72.668 219.004 -0.62 -0.33    -0.497 OA 
DOCKED: ATOM     37  C   UNL     1     145.338  71.353 219.349 -0.16 +0.11    +0.278 C  
DOCKED: ENDBRANCH  34  36
DOCKED: ENDBRANCH  27  29
DOCKED: ENDBRANCH  26  27
DOCKED: ENDBRANCH  24  26
DOCKED: ENDBRANCH   5  24
DOCKED: BRANCH   3  38
DOCKED: ATOM     38  O   UNL     1     139.901  73.731 222.714 -0.66 +0.00    -0.391 OA 
DOCKED: ATOM     39  H   UNL     1     139.065  74.268 222.680 -0.47 -0.07    +0.211 HD 
DOCKED: ENDBRANCH   3  38
DOCKED: TORSDOF 12
DOCKED: TER
DOCKED: ENDMDL
________________________________________________________________________________


    FINAL DOCKED STATE:
    ________________________


Run:   19 / 20
Time taken for this run:   0.064s

DOCKED: MODEL        19
DOCKED: USER    Run = 19
DOCKED: USER
DOCKED: USER    Estimated Free Energy of Binding    =  -6.45 kcal/mol  [=(1)+(2)+(3)-(4)]
DOCKED: USER
DOCKED: USER    (1) Final Intermolecular Energy     = -10.03 kcal/mol
DOCKED: USER        vdW + Hbond + desolv Energy     =  -9.53 kcal/mol
DOCKED: USER        Electrostatic Energy            =  -0.50 kcal/mol
DOCKED: USER        Moving Ligand-Fixed Receptor    = -10.03 kcal/mol
DOCKED: USER        Moving Ligand-Moving Receptor   =  +0.00 kcal/mol
DOCKED: USER    (2) Final Total Internal Energy     =  -3.74 kcal/mol
DOCKED: USER    (3) Torsional Free Energy           =  +3.58 kcal/mol
DOCKED: USER    (4) Unbound System's Energy         =  -3.74 kcal/mol
DOCKED: USER
DOCKED: USER
DOCKED: REMARK SMILES COc1ccc([C@H](C)[N-]C(=O)[C@@H]2C[C@@H](O)CN2C(=O)C/N=C(\O)c2ccc3cc(F)ccc3n2)c(Cl)c1
DOCKED: REMARK SMILES IDX 17 1 16 2 14 3 13 4 12 5 18 6 19 7 20 8 21 9 22 10 23 11
DOCKED: REMARK SMILES IDX 24 13 34 14 25 15 33 16 26 17 32 18 27 19 31 20 28 21 29 22
DOCKED: REMARK SMILES IDX 30 23 10 24 11 25 9 26 7 27 8 28 6 29 5 30 35 31 4 32 37 33
DOCKED: REMARK SMILES IDX 3 34 36 35 2 36 1 37 15 38
DOCKED: REMARK H PARENT 23 12 15 39
DOCKED: USER                              x       y       z     vdW  Elec       q    Type
DOCKED: USER                           _______ _______ _______ _____ _____    ______ ____
DOCKED: ROOT
DOCKED: ATOM      1  N   UNL     1     143.228  73.222 220.101 -0.11 +0.06    -0.330 N  
DOCKED: ATOM      2  C   UNL     1     144.458  73.755 220.669 -0.37 -0.04    +0.152 C  
DOCKED: ATOM      3  C   UNL     1     145.573  72.803 220.229 -0.44 +0.01    +0.136 C  
DOCKED: ATOM      4  C   UNL     1     144.863  71.535 219.740 -0.26 +0.01    +0.065 C  
DOCKED: ATOM      5  C   UNL     1     143.450  71.981 219.371 -0.14 -0.01    +0.136 C  
DOCKED: ENDROOT
DOCKED: BRANCH   1   6
DOCKED: ATOM      6  C   UNL     1     141.972  73.925 220.120 -0.14 -0.06    +0.245 C  
DOCKED: ATOM      7  O   UNL     1     141.214  73.885 219.113 -0.03 +0.06    -0.273 OA 
DOCKED: BRANCH   6   8
DOCKED: ATOM      8  C   UNL     1     141.532  74.693 221.330 -0.12 -0.06    +0.246 C  
DOCKED: BRANCH   8   9
DOCKED: ATOM      9  N   UNL     1     140.408  74.013 221.964 -0.77 +0.01    -0.240 NA 
DOCKED: BRANCH   9  10
DOCKED: ATOM     10  C   UNL     1     140.074  72.771 221.765 -0.20 -0.03    +0.233 C  
DOCKED: BRANCH  10  11
DOCKED: ATOM     11  O   UNL     1     139.778  72.288 220.485 -0.01 +0.09    -0.492 OA 
DOCKED: ATOM     12  H   UNL     1     140.484  71.967 219.839 +0.05 -0.05    +0.295 HD 
DOCKED: ENDBRANCH  10  11
DOCKED: BRANCH  10  13
DOCKED: ATOM     13  C   UNL     1     140.013  71.852 222.918 -0.29 -0.02    +0.125 A  
DOCKED: ATOM     14  N   UNL     1     140.545  72.236 224.112 -0.12 +0.03    -0.243 NA 
DOCKED: ATOM     15  C   UNL     1     139.424  70.582 222.800 -0.23 -0.01    +0.035 A  
DOCKED: ATOM     16  C   UNL     1     140.525  71.431 225.207 -0.49 -0.01    +0.071 A  
DOCKED: ATOM     17  C   UNL     1     139.389  69.731 223.906 -0.29 -0.00    +0.013 A  
DOCKED: ATOM     18  C   UNL     1     141.084  71.869 226.412 -0.68 -0.00    +0.032 A  
DOCKED: ATOM     19  C   UNL     1     139.939  70.149 225.127 -0.44 -0.00    +0.003 A  
DOCKED: ATOM     20  C   UNL     1     141.061  71.038 227.539 -0.67 -0.01    +0.041 A  
DOCKED: ATOM     21  C   UNL     1     139.918  69.322 226.261 -0.47 -0.01    +0.049 A  
DOCKED: ATOM     22  C   UNL     1     140.477  69.767 227.464 -0.50 -0.02    +0.123 A  
DOCKED: ATOM     23  F   UNL     1     140.453  68.967 228.562 -0.17 +0.04    -0.207 F  
DOCKED: ENDBRANCH  10  13
DOCKED: ENDBRANCH   9  10
DOCKED: ENDBRANCH   8   9
DOCKED: ENDBRANCH   6   8
DOCKED: ENDBRANCH   1   6
DOCKED: BRANCH   5  24
DOCKED: ATOM     24  C   UNL     1     142.402  70.926 219.659 -0.13 -0.01    +0.075 C  
DOCKED: ATOM     25  O   UNL     1     141.985  70.811 220.843 +0.03 +0.03    -0.318 OA 
DOCKED: BRANCH  24  26
DOCKED: ATOM     26  N   UNL     1     141.890  70.015 218.671 +0.04 +0.10    -0.645 NA 
DOCKED: BRANCH  26  27
DOCKED: ATOM     27  C   UNL     1     142.569  68.865 218.076 -0.08 +0.02    -0.077 C  
DOCKED: ATOM     28  C   UNL     1     141.715  68.318 216.934 -0.03 +0.00    -0.008 C  
DOCKED: BRANCH  27  29
DOCKED: ATOM     29  C   UNL     1     143.941  69.260 217.555 -0.08 +0.00    -0.044 A  
DOCKED: ATOM     30  C   UNL     1     144.045  70.165 216.476 -0.03 -0.00    +0.008 A  
DOCKED: ATOM     31  C   UNL     1     145.126  68.689 218.081 -0.23 -0.00    +0.046 A  
DOCKED: ATOM     32  C   UNL     1     145.292  70.528 215.967 -0.06 +0.01    +0.047 A  
DOCKED: ATOM     33  C   UNL     1     146.375  69.067 217.571 -0.16 +0.02    +0.067 A  
DOCKED: ATOM     34  C   UNL     1     146.465  69.991 216.512 -0.12 +0.06    +0.120 A  
DOCKED: ATOM     35  Cl  UNL     1     145.099  67.481 219.365 -0.60 +0.01    -0.084 Cl 
DOCKED: BRANCH  34  36
DOCKED: ATOM     36  O   UNL     1     147.695  70.396 215.971 -0.02 -0.47    -0.497 OA 
DOCKED: ATOM     37  C   UNL     1     148.388  69.703 214.938 -0.06 +0.07    +0.278 C  
DOCKED: ENDBRANCH  34  36
DOCKED: ENDBRANCH  27  29
DOCKED: ENDBRANCH  26  27
DOCKED: ENDBRANCH  24  26
DOCKED: ENDBRANCH   5  24
DOCKED: BRANCH   3  38
DOCKED: ATOM     38  O   UNL     1     146.301  73.384 219.178 -0.69 -0.23    -0.391 OA 
DOCKED: ATOM     39  H   UNL     1     145.968  74.315 219.079 -0.42 -0.09    +0.211 HD 
DOCKED: ENDBRANCH   3  38
DOCKED: TORSDOF 12
DOCKED: TER
DOCKED: ENDMDL
________________________________________________________________________________


    FINAL DOCKED STATE:
    ________________________


Run:   20 / 20
Time taken for this run:   0.064s

DOCKED: MODEL        20
DOCKED: USER    Run = 20
DOCKED: USER
DOCKED: USER    Estimated Free Energy of Binding    =  -5.21 kcal/mol  [=(1)+(2)+(3)-(4)]
DOCKED: USER
DOCKED: USER    (1) Final Intermolecular Energy     =  -8.78 kcal/mol
DOCKED: USER        vdW + Hbond + desolv Energy     =  -8.95 kcal/mol
DOCKED: USER        Electrostatic Energy            =  +0.16 kcal/mol
DOCKED: USER        Moving Ligand-Fixed Receptor    =  -8.78 kcal/mol
DOCKED: USER        Moving Ligand-Moving Receptor   =  +0.00 kcal/mol
DOCKED: USER    (2) Final Total Internal Energy     =  -4.06 kcal/mol
DOCKED: USER    (3) Torsional Free Energy           =  +3.58 kcal/mol
DOCKED: USER    (4) Unbound System's Energy         =  -4.06 kcal/mol
DOCKED: USER
DOCKED: USER
DOCKED: REMARK SMILES COc1ccc([C@H](C)[N-]C(=O)[C@@H]2C[C@@H](O)CN2C(=O)C/N=C(\O)c2ccc3cc(F)ccc3n2)c(Cl)c1
DOCKED: REMARK SMILES IDX 17 1 16 2 14 3 13 4 12 5 18 6 19 7 20 8 21 9 22 10 23 11
DOCKED: REMARK SMILES IDX 24 13 34 14 25 15 33 16 26 17 32 18 27 19 31 20 28 21 29 22
DOCKED: REMARK SMILES IDX 30 23 10 24 11 25 9 26 7 27 8 28 6 29 5 30 35 31 4 32 37 33
DOCKED: REMARK SMILES IDX 3 34 36 35 2 36 1 37 15 38
DOCKED: REMARK H PARENT 23 12 15 39
DOCKED: USER                              x       y       z     vdW  Elec       q    Type
DOCKED: USER                           _______ _______ _______ _____ _____    ______ ____
DOCKED: ROOT
DOCKED: ATOM      1  N   UNL     1     137.987  76.051 220.399 -0.01 +0.07    -0.330 N  
DOCKED: ATOM      2  C   UNL     1     137.308  77.330 220.553 -0.04 -0.03    +0.152 C  
DOCKED: ATOM      3  C   UNL     1     137.733  77.869 221.921 -0.15 -0.02    +0.136 C  
DOCKED: ATOM      4  C   UNL     1     138.345  76.675 222.664 -0.27 -0.01    +0.065 C  
DOCKED: ATOM      5  C   UNL     1     138.777  75.700 221.571 -0.21 -0.03    +0.136 C  
DOCKED: ENDROOT
DOCKED: BRANCH   1   6
DOCKED: ATOM      6  C   UNL     1     138.005  75.303 219.168 -0.01 -0.05    +0.245 C  
DOCKED: ATOM      7  O   UNL     1     136.952  75.196 218.483 -0.00 +0.05    -0.273 OA 
DOCKED: BRANCH   6   8
DOCKED: ATOM      8  C   UNL     1     139.265  74.661 218.670 -0.01 -0.06    +0.246 C  
DOCKED: BRANCH   8   9
DOCKED: ATOM      9  N   UNL     1     140.370  75.608 218.762 -0.01 +0.07    -0.240 NA 
DOCKED: BRANCH   9  10
DOCKED: ATOM     10  C   UNL     1     141.156  75.747 219.790 -0.11 -0.08    +0.233 C  
DOCKED: BRANCH  10  11
DOCKED: ATOM     11  O   UNL     1     141.770  74.645 220.396 -0.08 +0.14    -0.492 OA 
DOCKED: ATOM     12  H   UNL     1     141.332  74.101 221.125 +0.10 -0.05    +0.295 HD 
DOCKED: ENDBRANCH  10  11
DOCKED: BRANCH  10  13
DOCKED: ATOM     13  C   UNL     1     141.407  77.101 220.322 -0.22 -0.06    +0.125 A  
DOCKED: ATOM     14  N   UNL     1     141.436  77.299 221.670 -0.17 +0.13    -0.243 NA 
DOCKED: ATOM     15  C   UNL     1     141.607  78.191 219.458 -0.24 -0.02    +0.035 A  
DOCKED: ATOM     16  C   UNL     1     141.655  78.523 222.218 -0.38 -0.04    +0.071 A  
DOCKED: ATOM     17  C   UNL     1     141.833  79.461 219.991 -0.29 -0.01    +0.013 A  
DOCKED: ATOM     18  C   UNL     1     141.675  78.678 223.608 -0.58 -0.01    +0.032 A  
DOCKED: ATOM     19  C   UNL     1     141.863  79.641 221.382 -0.40 -0.00    +0.003 A  
DOCKED: ATOM     20  C   UNL     1     141.903  79.940 224.170 -0.42 -0.01    +0.041 A  
DOCKED: ATOM     21  C   UNL     1     142.092  80.903 221.952 -0.45 -0.01    +0.049 A  
DOCKED: ATOM     22  C   UNL     1     142.113  81.050 223.344 -0.52 -0.02    +0.123 A  
DOCKED: ATOM     23  F   UNL     1     142.339  82.271 223.894 -0.03 +0.01    -0.207 F  
DOCKED: ENDBRANCH  10  13
DOCKED: ENDBRANCH   9  10
DOCKED: ENDBRANCH   8   9
DOCKED: ENDBRANCH   6   8
DOCKED: ENDBRANCH   1   6
DOCKED: BRANCH   5  24
DOCKED: ATOM     24  C   UNL     1     138.623  74.249 221.979 -0.15 -0.02    +0.075 C  
DOCKED: ATOM     25  O   UNL     1     137.459  73.769 222.039 -0.10 +0.10    -0.318 OA 
DOCKED: BRANCH  24  26
DOCKED: ATOM     26  N   UNL     1     139.724  73.400 222.347 -0.54 +0.09    -0.645 NA 
DOCKED: BRANCH  26  27
DOCKED: ATOM     27  C   UNL     1     139.790  71.940 222.282 -0.26 +0.01    -0.077 C  
DOCKED: ATOM     28  C   UNL     1     141.038  71.532 221.503 -0.20 +0.00    -0.008 C  
DOCKED: BRANCH  27  29
DOCKED: ATOM     29  C   UNL     1     139.828  71.340 223.677 -0.37 +0.01    -0.044 A  
DOCKED: ATOM     30  C   UNL     1     140.688  71.891 224.652 -0.36 -0.00    +0.008 A  
DOCKED: ATOM     31  C   UNL     1     139.070  70.191 224.010 -0.30 -0.01    +0.046 A  
DOCKED: ATOM     32  C   UNL     1     140.755  71.346 225.935 -0.59 -0.01    +0.047 A  
DOCKED: ATOM     33  C   UNL     1     139.136  69.655 225.303 -0.37 -0.01    +0.067 A  
DOCKED: ATOM     34  C   UNL     1     139.978  70.231 226.274 -0.43 -0.02    +0.120 A  
DOCKED: ATOM     35  Cl  UNL     1     138.037  69.372 222.839 -0.25 +0.01    -0.084 Cl 
DOCKED: BRANCH  34  36
DOCKED: ATOM     36  O   UNL     1     140.075  69.726 227.579 -0.16 +0.08    -0.497 OA 
DOCKED: ATOM     37  C   UNL     1     140.566  68.431 227.908 -0.42 -0.07    +0.278 C  
DOCKED: ENDBRANCH  34  36
DOCKED: ENDBRANCH  27  29
DOCKED: ENDBRANCH  26  27
DOCKED: ENDBRANCH  24  26
DOCKED: ENDBRANCH   5  24
DOCKED: BRANCH   3  38
DOCKED: ATOM     38  O   UNL     1     138.697  78.877 221.752 -0.05 +0.08    -0.391 OA 
DOCKED: ATOM     39  H   UNL     1     139.544  78.423 221.499 +0.08 -0.05    +0.211 HD 
DOCKED: ENDBRANCH   3  38
DOCKED: TORSDOF 12
DOCKED: TER
DOCKED: ENDMDL
________________________________________________________________________________


    CLUSTERING HISTOGRAM
    ____________________


________________________________________________________________________________
     |           |     |           |     |
Clus | Lowest    | Run | Mean      | Num | Histogram
-ter | Binding   |     | Binding   | in  |
Rank | Energy    |     | Energy    | Clus|    5    10   15   20   25   30   35
_____|___________|_____|___________|_____|____:____|____:____|____:____|____:___
   1 |     -8.23 |   8 |     -7.94 |   2 |##
   2 |     -6.61 |   1 |     -6.61 |   1 |#
   3 |     -6.54 |   9 |     -6.54 |   1 |#
   4 |     -6.46 |  16 |     -6.46 |   1 |#
   5 |     -6.45 |  19 |     -6.45 |   1 |#
   6 |     -6.27 |  10 |     -6.27 |   1 |#
   7 |     -5.95 |  14 |     -5.95 |   1 |#
   8 |     -5.92 |   5 |     -5.92 |   1 |#
   9 |     -5.91 |  12 |     -5.91 |   1 |#
  10 |     -5.74 |  11 |     -5.74 |   1 |#
  11 |     -5.71 |   4 |     -5.71 |   1 |#
  12 |     -5.56 |   2 |     -5.56 |   1 |#
  13 |     -5.50 |  13 |     -5.50 |   1 |#
  14 |     -5.21 |  20 |     -5.21 |   1 |#
  15 |     -5.17 |  18 |     -4.72 |   2 |##
  16 |     -5.14 |  15 |     -5.14 |   1 |#
  17 |     -4.94 |  17 |     -4.94 |   1 |#
  18 |     -3.97 |   7 |     -3.97 |   1 |#
_____|___________|_____|___________|_____|______________________________________


    RMSD TABLE
    __________


_______________________________________________________________________
     |      |      |           |         |                 |
Rank | Sub- | Run  | Binding   | Cluster | Reference       | Grep
     | Rank |      | Energy    | RMSD    | RMSD            | Pattern
_____|______|______|___________|_________|_________________|___________
   1      1      8       -8.23      0.00    271.56           RANKING
   1      2      6       -7.65      0.81    271.66           RANKING
   2      1      1       -6.61      0.00    271.68           RANKING
   3      1      9       -6.54      0.00    271.00           RANKING
   4      1     16       -6.46      0.00    271.26           RANKING
   5      1     19       -6.45      0.00    270.09           RANKING
   6      1     10       -6.27      0.00    270.42           RANKING
   7      1     14       -5.95      0.00    269.98           RANKING
   8      1      5       -5.92      0.00    270.29           RANKING
   9      1     12       -5.91      0.00    269.72           RANKING
  10      1     11       -5.74      0.00    270.36           RANKING
  11      1      4       -5.71      0.00    270.67           RANKING
  12      1      2       -5.56      0.00    271.87           RANKING
  13      1     13       -5.50      0.00    270.11           RANKING
  14      1     20       -5.21      0.00    270.96           RANKING
  15      1     18       -5.17      0.00    269.92           RANKING
  15      2      3       -4.28      1.47    270.21           RANKING
  16      1     15       -5.14      0.00    270.88           RANKING
  17      1     17       -4.94      0.00    269.71           RANKING
  18      1      7       -3.97      0.00    270.03           RANKING

Run time 1.297 sec
Idle time 0.269 sec
