AutoDock-GPU version: v1.6

**********************************************************
**    AutoDock-GPU AUTODOCKTOOLS-COMPATIBLE DLG FILE    **
**********************************************************


    DOCKING PARAMETERS
    ________________________


Ligand file:                               /home/a/REINVENT4/ReinventStudies/scoringData/graph-dock/graph-DockGPU/node-autodockgpu/inputs/JFIDHXWBANSMLJ-HREYECMINA-M.pdbqt
Grid fld file:                             /home/a/REINVENT4/ReinventStudies/mols/Rad51/maps/rad51_receptor.maps.fld

Random seed:                               42
Number of runs:                            20
Number of energy evaluations:              2542121
Number of generations:                     42000
Size of population:                        150
Rate of crossover:                         80.000000%
Tournament selection probability limit:    60.000000%
Rate of mutation:                          2.000000%
Maximal allowed delta movement:            +/- 6.000000A
Maximal allowed delta angle:               +/- 90.000000

Rate of local search:                      100.000000%
Maximal number of local search iterations: 300
Rho lower bound:                           0.010000
Spread of local search delta movement:     2.000000A
Spread of local search delta angle:        74.999999
Limit of consecutive successes/failures:   4

Handle symmetry during clustering:         YES
RMSD tolerance:                            2.000000A

Program call in command line was:          /home/a/REINVENT4/ReinventStudies/adgpu-v1.6_linux_x64_cuda12_128wi --filelist batch.txt --heuristics 1 --nrun 20 --psize 150 --lsit 300 --seed 42 --heurmax 12000000 


    GRID PARAMETERS
    ________________________


Receptor name:                             rad51_receptor
Number of grid points (x, y, z):           53, 53, 53
Grid center (x, y, z):                     139.950000, 75.640000, 221.970000A
Grid size (x, y, z):                       19.500000, 19.500000, 19.500000A
Grid spacing:                              0.375000A


    LIGAND PARAMETERS
    ________________________


Ligand name:                               /home/a/REINVENT4/ReinventStudies/scoringData/graph-dock/graph-DockGPU/node-autodockgpu/inputs/JFIDHXWBANSMLJ-HREYECMINA-M
Number of atoms:                           39
Number of rotatable bonds:                 10
Number of atom types:                      8


    DUMMY DATA (only for ADT-compatibility)
    ________________________


DPF> outlev 1
DPF> ga_run 20
DPF> fld /home/a/REINVENT4/ReinventStudies/mols/Rad51/maps/rad51_receptor.maps.fld
DPF> move /home/a/REINVENT4/ReinventStudies/scoringData/graph-dock/graph-DockGPU/node-autodockgpu/inputs/JFIDHXWBANSMLJ-HREYECMINA-M.pdbqt


    COUNTER STATES
    ________________________


Number of energy evaluations performed:    2095795
Number of generations used:                135


    INPUT LIGAND PDBQT FILE:
    ________________________


INPUT-LIGAND-PDBQT: REMARK SMILES COc1ccc([C@H](C)[N-]C(=O)[C@@H]2C[C@@H](O)CN2C(=O)CNC(=O)c2ccc3cc(F)ccc3n2)c(Cl)c1
INPUT-LIGAND-PDBQT: REMARK SMILES IDX 12 1 13 2 14 3 16 4 17 5 10 6 11 7 9 8 7 9 8 10 6 11 3 12
INPUT-LIGAND-PDBQT: REMARK SMILES IDX 4 13 37 14 5 15 35 16 36 17 2 18 1 19 18 20 19 21 20 22
INPUT-LIGAND-PDBQT: REMARK SMILES IDX 21 23 22 24 23 26 24 27 25 28 34 29 26 30 33 31 27 32 32 33
INPUT-LIGAND-PDBQT: REMARK SMILES IDX 28 34 31 35 29 36 30 37 15 38
INPUT-LIGAND-PDBQT: REMARK H PARENT 21 25 15 39
INPUT-LIGAND-PDBQT: ROOT
INPUT-LIGAND-PDBQT: ATOM      1  C   UNL     1       2.476  -0.322   0.441  1.00  0.00     0.136 C 
INPUT-LIGAND-PDBQT: ATOM      2  C   UNL     1       3.374   0.915   0.361  1.00  0.00     0.065 C 
INPUT-LIGAND-PDBQT: ATOM      3  C   UNL     1       3.859   0.993  -1.091  1.00  0.00     0.136 C 
INPUT-LIGAND-PDBQT: ATOM      4  C   UNL     1       2.858   0.172  -1.901  1.00  0.00     0.152 C 
INPUT-LIGAND-PDBQT: ATOM      5  N   UNL     1       2.182  -0.684  -0.940  1.00  0.00    -0.330 N 
INPUT-LIGAND-PDBQT: ENDROOT
INPUT-LIGAND-PDBQT: BRANCH   1   6
INPUT-LIGAND-PDBQT: ATOM      6  C   UNL     1       1.210  -0.031   1.202  1.00  0.00     0.075 C 
INPUT-LIGAND-PDBQT: ATOM      7  O   UNL     1       0.299   0.656   0.662  1.00  0.00    -0.318 OA
INPUT-LIGAND-PDBQT: BRANCH   6   8
INPUT-LIGAND-PDBQT: ATOM      8  N   UNL     1       1.082  -0.503   2.550  1.00  0.00    -0.645 NA
INPUT-LIGAND-PDBQT: BRANCH   8   9
INPUT-LIGAND-PDBQT: ATOM      9  C   UNL     1      -0.094  -0.449   3.426  1.00  0.00    -0.077 C 
INPUT-LIGAND-PDBQT: ATOM     10  C   UNL     1      -0.842   0.888   3.344  1.00  0.00    -0.008 C 
INPUT-LIGAND-PDBQT: BRANCH   9  11
INPUT-LIGAND-PDBQT: ATOM     11  C   UNL     1      -1.022  -1.633   3.172  1.00  0.00    -0.044 A 
INPUT-LIGAND-PDBQT: ATOM     12  C   UNL     1      -2.780  -3.788   2.652  1.00  0.00     0.120 A 
INPUT-LIGAND-PDBQT: ATOM     13  C   UNL     1      -2.489  -2.856   1.652  1.00  0.00     0.047 A 
INPUT-LIGAND-PDBQT: ATOM     14  C   UNL     1      -2.197  -3.641   3.919  1.00  0.00     0.067 A 
INPUT-LIGAND-PDBQT: ATOM     15  C   UNL     1      -1.632  -1.788   1.904  1.00  0.00     0.008 A 
INPUT-LIGAND-PDBQT: ATOM     16  C   UNL     1      -1.320  -2.581   4.186  1.00  0.00     0.046 A 
INPUT-LIGAND-PDBQT: ATOM     17  Cl  UNL     1      -0.636  -2.489   5.807  1.00  0.00    -0.084 Cl
INPUT-LIGAND-PDBQT: BRANCH  12  18
INPUT-LIGAND-PDBQT: ATOM     18  O   UNL     1      -3.652  -4.840   2.347  1.00  0.00    -0.497 OA
INPUT-LIGAND-PDBQT: ATOM     19  C   UNL     1      -4.044  -5.860   3.264  1.00  0.00     0.278 C 
INPUT-LIGAND-PDBQT: ENDBRANCH  12  18
INPUT-LIGAND-PDBQT: ENDBRANCH   9  11
INPUT-LIGAND-PDBQT: ENDBRANCH   8   9
INPUT-LIGAND-PDBQT: ENDBRANCH   6   8
INPUT-LIGAND-PDBQT: ENDBRANCH   1   6
INPUT-LIGAND-PDBQT: BRANCH   5  20
INPUT-LIGAND-PDBQT: ATOM     20  C   UNL     1       1.404  -1.842  -1.299  1.00  0.00     0.242 C 
INPUT-LIGAND-PDBQT: ATOM     21  O   UNL     1       1.135  -2.708  -0.426  1.00  0.00    -0.273 OA
INPUT-LIGAND-PDBQT: BRANCH  20  22
INPUT-LIGAND-PDBQT: ATOM     22  C   UNL     1       0.860  -2.014  -2.688  1.00  0.00     0.216 C 
INPUT-LIGAND-PDBQT: BRANCH  22  23
INPUT-LIGAND-PDBQT: ATOM     23  N   UNL     1       0.006  -0.884  -3.029  1.00  0.00    -0.342 N 
INPUT-LIGAND-PDBQT: ATOM     24  C   UNL     1      -1.202  -0.592  -2.309  1.00  0.00     0.270 C 
INPUT-LIGAND-PDBQT: ATOM     25  H   UNL     1       0.321  -0.240  -3.781  1.00  0.00     0.164 HD
INPUT-LIGAND-PDBQT: ATOM     26  O   UNL     1      -1.760  -1.500  -1.634  1.00  0.00    -0.268 OA
INPUT-LIGAND-PDBQT: BRANCH  24  27
INPUT-LIGAND-PDBQT: ATOM     27  C   UNL     1      -1.776   0.769  -2.336  1.00  0.00     0.128 A 
INPUT-LIGAND-PDBQT: ATOM     28  C   UNL     1      -2.977   1.068  -1.670  1.00  0.00     0.035 A 
INPUT-LIGAND-PDBQT: ATOM     29  N   UNL     1      -1.106   1.760  -2.986  1.00  0.00    -0.243 NA
INPUT-LIGAND-PDBQT: ATOM     30  C   UNL     1      -3.471   2.375  -1.691  1.00  0.00     0.013 A 
INPUT-LIGAND-PDBQT: ATOM     31  C   UNL     1      -1.561   3.039  -3.023  1.00  0.00     0.071 A 
INPUT-LIGAND-PDBQT: ATOM     32  C   UNL     1      -2.768   3.376  -2.374  1.00  0.00     0.003 A 
INPUT-LIGAND-PDBQT: ATOM     33  C   UNL     1      -0.831   4.022  -3.699  1.00  0.00     0.032 A 
INPUT-LIGAND-PDBQT: ATOM     34  C   UNL     1      -3.236   4.698  -2.422  1.00  0.00     0.049 A 
INPUT-LIGAND-PDBQT: ATOM     35  C   UNL     1      -1.301   5.337  -3.740  1.00  0.00     0.041 A 
INPUT-LIGAND-PDBQT: ATOM     36  C   UNL     1      -2.503   5.674  -3.107  1.00  0.00     0.123 A 
INPUT-LIGAND-PDBQT: ATOM     37  F   UNL     1      -2.950   6.952  -3.145  1.00  0.00    -0.207 F 
INPUT-LIGAND-PDBQT: ENDBRANCH  24  27
INPUT-LIGAND-PDBQT: ENDBRANCH  22  23
INPUT-LIGAND-PDBQT: ENDBRANCH  20  22
INPUT-LIGAND-PDBQT: ENDBRANCH   5  20
INPUT-LIGAND-PDBQT: BRANCH   3  38
INPUT-LIGAND-PDBQT: ATOM     38  O   UNL     1       5.137   0.420  -1.191  1.00  0.00    -0.391 OA
INPUT-LIGAND-PDBQT: ATOM     39  H   UNL     1       5.585   0.851  -1.966  1.00  0.00     0.211 HD
INPUT-LIGAND-PDBQT: ENDBRANCH   3  38
INPUT-LIGAND-PDBQT: TORSDOF 10


    FINAL DOCKED STATE:
    ________________________


Run:   1 / 20
Time taken for this run:   0.124s

DOCKED: MODEL        1
DOCKED: USER    Run = 1
DOCKED: USER
DOCKED: USER    Estimated Free Energy of Binding    =  -6.99 kcal/mol  [=(1)+(2)+(3)-(4)]
DOCKED: USER
DOCKED: USER    (1) Final Intermolecular Energy     =  -9.97 kcal/mol
DOCKED: USER        vdW + Hbond + desolv Energy     =  -9.99 kcal/mol
DOCKED: USER        Electrostatic Energy            =  +0.02 kcal/mol
DOCKED: USER        Moving Ligand-Fixed Receptor    =  -9.97 kcal/mol
DOCKED: USER        Moving Ligand-Moving Receptor   =  +0.00 kcal/mol
DOCKED: USER    (2) Final Total Internal Energy     =  -3.01 kcal/mol
DOCKED: USER    (3) Torsional Free Energy           =  +2.98 kcal/mol
DOCKED: USER    (4) Unbound System's Energy         =  -3.01 kcal/mol
DOCKED: USER
DOCKED: USER
DOCKED: REMARK SMILES COc1ccc([C@H](C)[N-]C(=O)[C@@H]2C[C@@H](O)CN2C(=O)CNC(=O)c2ccc3cc(F)ccc3n2)c(Cl)c1
DOCKED: REMARK SMILES IDX 12 1 13 2 14 3 16 4 17 5 10 6 11 7 9 8 7 9 8 10 6 11 3 12
DOCKED: REMARK SMILES IDX 4 13 37 14 5 15 35 16 36 17 2 18 1 19 18 20 19 21 20 22
DOCKED: REMARK SMILES IDX 21 23 22 24 23 26 24 27 25 28 34 29 26 30 33 31 27 32 32 33
DOCKED: REMARK SMILES IDX 28 34 31 35 29 36 30 37 15 38
DOCKED: REMARK H PARENT 21 25 15 39
DOCKED: USER                              x       y       z     vdW  Elec       q    Type
DOCKED: USER                           _______ _______ _______ _____ _____    ______ ____
DOCKED: ROOT
DOCKED: ATOM      1  C   UNL     1     137.261  73.488 221.575 -0.10 -0.03    +0.136 C  
DOCKED: ATOM      2  C   UNL     1     136.960  74.788 222.325 -0.16 -0.02    +0.065 C  
DOCKED: ATOM      3  C   UNL     1     138.030  75.791 221.879 -0.20 -0.03    +0.136 C  
DOCKED: ATOM      4  C   UNL     1     138.561  75.258 220.550 -0.08 -0.03    +0.152 C  
DOCKED: ATOM      5  N   UNL     1     138.190  73.853 220.513 -0.02 +0.07    -0.330 N  
DOCKED: ENDROOT
DOCKED: BRANCH   1   6
DOCKED: ATOM      6  C   UNL     1     136.005  72.882 221.006 -0.04 -0.01    +0.075 C  
DOCKED: ATOM      7  O   UNL     1     135.779  72.959 219.767 -0.00 +0.05    -0.318 OA 
DOCKED: BRANCH   6   8
DOCKED: ATOM      8  N   UNL     1     135.063  72.266 221.895 +0.03 +0.11    -0.645 NA 
DOCKED: BRANCH   8   9
DOCKED: ATOM      9  C   UNL     1     135.323  71.589 223.171 -0.11 +0.01    -0.077 C  
DOCKED: ATOM     10  C   UNL     1     136.813  71.313 223.411 -0.20 +0.00    -0.008 C  
DOCKED: BRANCH   9  11
DOCKED: ATOM     11  C   UNL     1     134.694  72.351 224.334 -0.18 +0.01    -0.044 A  
DOCKED: ATOM     12  C   UNL     1     133.570  73.822 226.473 -0.24 +0.01    +0.120 A  
DOCKED: ATOM     13  C   UNL     1     134.003  74.476 225.316 -0.29 -0.00    +0.047 A  
DOCKED: ATOM     14  C   UNL     1     133.704  72.429 226.566 -0.35 -0.00    +0.067 A  
DOCKED: ATOM     15  C   UNL     1     134.566  73.759 224.263 -0.22 -0.00    +0.008 A  
DOCKED: ATOM     16  C   UNL     1     134.254  71.690 225.510 -0.24 -0.00    +0.046 A  
DOCKED: ATOM     17  Cl  UNL     1     134.373  69.945 225.724 -0.36 +0.00    -0.084 Cl 
DOCKED: BRANCH  12  18
DOCKED: ATOM     18  O   UNL     1     133.016  74.591 227.503 -0.55 -0.05    -0.497 OA 
DOCKED: ATOM     19  C   UNL     1     131.690  75.118 227.499 -0.23 -0.01    +0.278 C  
DOCKED: ENDBRANCH  12  18
DOCKED: ENDBRANCH   9  11
DOCKED: ENDBRANCH   8   9
DOCKED: ENDBRANCH   6   8
DOCKED: ENDBRANCH   1   6
DOCKED: BRANCH   5  20
DOCKED: ATOM     20  C   UNL     1     138.766  72.890 219.609 -0.02 -0.05    +0.242 C  
DOCKED: ATOM     21  O   UNL     1     138.050  72.368 218.715 -0.00 +0.05    -0.273 OA 
DOCKED: BRANCH  20  22
DOCKED: ATOM     22  C   UNL     1     140.223  72.532 219.678 -0.04 -0.04    +0.216 C  
DOCKED: BRANCH  22  23
DOCKED: ATOM     23  N   UNL     1     140.484  71.748 220.878 -0.06 +0.05    -0.342 N  
DOCKED: ATOM     24  C   UNL     1     140.402  72.313 222.196 -0.20 -0.03    +0.270 C  
DOCKED: ATOM     25  H   UNL     1     140.677  70.733 220.768 +0.04 -0.02    +0.164 HD 
DOCKED: ATOM     26  O   UNL     1     140.489  73.562 222.344 -0.78 -0.01    -0.268 OA 
DOCKED: BRANCH  24  27
DOCKED: ATOM     27  C   UNL     1     140.192  71.441 223.369 -0.31 -0.02    +0.128 A  
DOCKED: ATOM     28  C   UNL     1     139.642  70.155 223.234 -0.23 -0.01    +0.035 A  
DOCKED: ATOM     29  N   UNL     1     140.578  71.878 224.600 -0.26 +0.03    -0.243 NA 
DOCKED: ATOM     30  C   UNL     1     139.489  69.347 224.364 -0.32 -0.00    +0.013 A  
DOCKED: ATOM     31  C   UNL     1     140.443  71.116 225.715 -0.53 -0.01    +0.071 A  
DOCKED: ATOM     32  C   UNL     1     139.885  69.822 225.621 -0.46 -0.00    +0.003 A  
DOCKED: ATOM     33  C   UNL     1     140.861  71.609 226.955 -0.72 -0.01    +0.032 A  
DOCKED: ATOM     34  C   UNL     1     139.742  69.042 226.779 -0.52 -0.01    +0.049 A  
DOCKED: ATOM     35  C   UNL     1     140.718  70.826 228.103 -0.64 -0.01    +0.041 A  
DOCKED: ATOM     36  C   UNL     1     140.156  69.547 228.017 -0.52 -0.02    +0.123 A  
DOCKED: ATOM     37  F   UNL     1     140.027  68.790 229.132 -0.12 +0.04    -0.207 F  
DOCKED: ENDBRANCH  24  27
DOCKED: ENDBRANCH  22  23
DOCKED: ENDBRANCH  20  22
DOCKED: ENDBRANCH   5  20
DOCKED: BRANCH   3  38
DOCKED: ATOM     38  O   UNL     1     139.065  75.827 222.826 -0.26 +0.08    -0.391 OA 
DOCKED: ATOM     39  H   UNL     1     139.194  74.896 223.146 -0.51 -0.06    +0.211 HD 
DOCKED: ENDBRANCH   3  38
DOCKED: TORSDOF 10
DOCKED: TER
DOCKED: ENDMDL
________________________________________________________________________________


    FINAL DOCKED STATE:
    ________________________


Run:   2 / 20
Time taken for this run:   0.124s

DOCKED: MODEL        2
DOCKED: USER    Run = 2
DOCKED: USER
DOCKED: USER    Estimated Free Energy of Binding    =  -8.45 kcal/mol  [=(1)+(2)+(3)-(4)]
DOCKED: USER
DOCKED: USER    (1) Final Intermolecular Energy     = -11.44 kcal/mol
DOCKED: USER        vdW + Hbond + desolv Energy     = -11.82 kcal/mol
DOCKED: USER        Electrostatic Energy            =  +0.38 kcal/mol
DOCKED: USER        Moving Ligand-Fixed Receptor    = -11.44 kcal/mol
DOCKED: USER        Moving Ligand-Moving Receptor   =  +0.00 kcal/mol
DOCKED: USER    (2) Final Total Internal Energy     =  -2.02 kcal/mol
DOCKED: USER    (3) Torsional Free Energy           =  +2.98 kcal/mol
DOCKED: USER    (4) Unbound System's Energy         =  -2.02 kcal/mol
DOCKED: USER
DOCKED: USER
DOCKED: REMARK SMILES COc1ccc([C@H](C)[N-]C(=O)[C@@H]2C[C@@H](O)CN2C(=O)CNC(=O)c2ccc3cc(F)ccc3n2)c(Cl)c1
DOCKED: REMARK SMILES IDX 12 1 13 2 14 3 16 4 17 5 10 6 11 7 9 8 7 9 8 10 6 11 3 12
DOCKED: REMARK SMILES IDX 4 13 37 14 5 15 35 16 36 17 2 18 1 19 18 20 19 21 20 22
DOCKED: REMARK SMILES IDX 21 23 22 24 23 26 24 27 25 28 34 29 26 30 33 31 27 32 32 33
DOCKED: REMARK SMILES IDX 28 34 31 35 29 36 30 37 15 38
DOCKED: REMARK H PARENT 21 25 15 39
DOCKED: USER                              x       y       z     vdW  Elec       q    Type
DOCKED: USER                           _______ _______ _______ _____ _____    ______ ____
DOCKED: ROOT
DOCKED: ATOM      1  C   UNL     1     143.702  74.242 220.084 -0.31 -0.05    +0.136 C  
DOCKED: ATOM      2  C   UNL     1     145.111  74.675 220.498 -0.22 -0.03    +0.065 C  
DOCKED: ATOM      3  C   UNL     1     145.922  73.384 220.655 -0.56 -0.00    +0.136 C  
DOCKED: ATOM      4  C   UNL     1     145.171  72.329 219.846 -0.32 +0.02    +0.152 C  
DOCKED: ATOM      5  N   UNL     1     143.824  72.848 219.675 -0.09 +0.04    -0.330 N  
DOCKED: ENDROOT
DOCKED: BRANCH   1   6
DOCKED: ATOM      6  C   UNL     1     143.179  75.089 218.955 -0.25 -0.03    +0.075 C  
DOCKED: ATOM      7  O   UNL     1     143.196  74.641 217.775 -0.07 +0.11    -0.318 OA 
DOCKED: BRANCH   6   8
DOCKED: ATOM      8  N   UNL     1     142.711  76.415 219.236 -0.02 +0.37    -0.645 NA 
DOCKED: BRANCH   8   9
DOCKED: ATOM      9  C   UNL     1     141.371  76.837 219.662 -0.19 +0.03    -0.077 C  
DOCKED: ATOM     10  C   UNL     1     140.458  75.659 220.024 -0.15 +0.00    -0.008 C  
DOCKED: BRANCH   9  11
DOCKED: ATOM     11  C   UNL     1     141.451  77.859 220.792 -0.30 +0.02    -0.044 A  
DOCKED: ATOM     12  C   UNL     1     141.547  79.716 222.924 -0.45 -0.04    +0.120 A  
DOCKED: ATOM     13  C   UNL     1     141.205  78.382 223.164 -0.49 -0.02    +0.047 A  
DOCKED: ATOM     14  C   UNL     1     141.836  80.127 221.615 -0.40 -0.03    +0.067 A  
DOCKED: ATOM     15  C   UNL     1     141.147  77.465 222.118 -0.37 -0.00    +0.008 A  
DOCKED: ATOM     16  C   UNL     1     141.798  79.214 220.552 -0.29 -0.03    +0.046 A  
DOCKED: ATOM     17  Cl  UNL     1     142.183  79.829 218.947 -0.36 +0.06    -0.084 Cl 
DOCKED: BRANCH  12  18
DOCKED: ATOM     18  O   UNL     1     141.586  80.598 224.011 -0.16 +0.08    -0.497 OA 
DOCKED: ATOM     19  C   UNL     1     142.551  81.634 224.180 -0.26 -0.03    +0.278 C  
DOCKED: ENDBRANCH  12  18
DOCKED: ENDBRANCH   9  11
DOCKED: ENDBRANCH   8   9
DOCKED: ENDBRANCH   6   8
DOCKED: ENDBRANCH   1   6
DOCKED: BRANCH   5  20
DOCKED: ATOM     20  C   UNL     1     142.697  72.049 219.266 -0.06 -0.03    +0.242 C  
DOCKED: ATOM     21  O   UNL     1     142.849  71.160 218.388 -0.02 +0.03    -0.273 OA 
DOCKED: BRANCH  20  22
DOCKED: ATOM     22  C   UNL     1     141.349  72.219 219.905 -0.08 -0.04    +0.216 C  
DOCKED: BRANCH  22  23
DOCKED: ATOM     23  N   UNL     1     141.364  71.658 221.250 -0.08 +0.04    -0.342 N  
DOCKED: ATOM     24  C   UNL     1     140.667  72.274 222.344 -0.20 -0.02    +0.270 C  
DOCKED: ATOM     25  H   UNL     1     141.848  70.751 221.398 +0.08 -0.01    +0.164 HD 
DOCKED: ATOM     26  O   UNL     1     140.356  73.495 222.277 -0.78 +0.00    -0.268 OA 
DOCKED: BRANCH  24  27
DOCKED: ATOM     27  C   UNL     1     140.293  71.479 223.532 -0.33 -0.02    +0.128 A  
DOCKED: ATOM     28  C   UNL     1     139.530  70.305 223.414 -0.27 -0.01    +0.035 A  
DOCKED: ATOM     29  N   UNL     1     140.732  71.872 224.760 -0.26 +0.03    -0.243 NA 
DOCKED: ATOM     30  C   UNL     1     139.224  69.562 224.557 -0.35 -0.00    +0.013 A  
DOCKED: ATOM     31  C   UNL     1     140.452  71.170 225.888 -0.54 -0.01    +0.071 A  
DOCKED: ATOM     32  C   UNL     1     139.680  69.992 225.811 -0.47 -0.00    +0.003 A  
DOCKED: ATOM     33  C   UNL     1     140.932  71.613 227.125 -0.74 -0.01    +0.032 A  
DOCKED: ATOM     34  C   UNL     1     139.388  69.275 226.982 -0.48 -0.01    +0.049 A  
DOCKED: ATOM     35  C   UNL     1     140.641  70.893 228.286 -0.61 -0.01    +0.041 A  
DOCKED: ATOM     36  C   UNL     1     139.867  69.729 228.216 -0.51 -0.02    +0.123 A  
DOCKED: ATOM     37  F   UNL     1     139.593  69.033 229.345 -0.01 +0.03    -0.207 F  
DOCKED: ENDBRANCH  24  27
DOCKED: ENDBRANCH  22  23
DOCKED: ENDBRANCH  20  22
DOCKED: ENDBRANCH   5  20
DOCKED: BRANCH   3  38
DOCKED: ATOM     38  O   UNL     1     145.955  73.012 222.008 -0.41 +0.11    -0.391 OA 
DOCKED: ATOM     39  H   UNL     1     145.766  72.037 222.043 -0.42 -0.18    +0.211 HD 
DOCKED: ENDBRANCH   3  38
DOCKED: TORSDOF 10
DOCKED: TER
DOCKED: ENDMDL
________________________________________________________________________________


    FINAL DOCKED STATE:
    ________________________


Run:   3 / 20
Time taken for this run:   0.124s

DOCKED: MODEL        3
DOCKED: USER    Run = 3
DOCKED: USER
DOCKED: USER    Estimated Free Energy of Binding    =  -6.98 kcal/mol  [=(1)+(2)+(3)-(4)]
DOCKED: USER
DOCKED: USER    (1) Final Intermolecular Energy     =  -9.97 kcal/mol
DOCKED: USER        vdW + Hbond + desolv Energy     =  -9.96 kcal/mol
DOCKED: USER        Electrostatic Energy            =  -0.01 kcal/mol
DOCKED: USER        Moving Ligand-Fixed Receptor    =  -9.97 kcal/mol
DOCKED: USER        Moving Ligand-Moving Receptor   =  +0.00 kcal/mol
DOCKED: USER    (2) Final Total Internal Energy     =  -3.96 kcal/mol
DOCKED: USER    (3) Torsional Free Energy           =  +2.98 kcal/mol
DOCKED: USER    (4) Unbound System's Energy         =  -3.96 kcal/mol
DOCKED: USER
DOCKED: USER
DOCKED: REMARK SMILES COc1ccc([C@H](C)[N-]C(=O)[C@@H]2C[C@@H](O)CN2C(=O)CNC(=O)c2ccc3cc(F)ccc3n2)c(Cl)c1
DOCKED: REMARK SMILES IDX 12 1 13 2 14 3 16 4 17 5 10 6 11 7 9 8 7 9 8 10 6 11 3 12
DOCKED: REMARK SMILES IDX 4 13 37 14 5 15 35 16 36 17 2 18 1 19 18 20 19 21 20 22
DOCKED: REMARK SMILES IDX 21 23 22 24 23 26 24 27 25 28 34 29 26 30 33 31 27 32 32 33
DOCKED: REMARK SMILES IDX 28 34 31 35 29 36 30 37 15 38
DOCKED: REMARK H PARENT 21 25 15 39
DOCKED: USER                              x       y       z     vdW  Elec       q    Type
DOCKED: USER                           _______ _______ _______ _____ _____    ______ ____
DOCKED: ROOT
DOCKED: ATOM      1  C   UNL     1     141.849  73.513 220.626 -0.20 -0.02    +0.136 C  
DOCKED: ATOM      2  C   UNL     1     142.833  74.674 220.468 -0.30 -0.02    +0.065 C  
DOCKED: ATOM      3  C   UNL     1     142.693  75.154 219.019 -0.20 -0.05    +0.136 C  
DOCKED: ATOM      4  C   UNL     1     141.327  74.656 218.554 -0.05 -0.04    +0.152 C  
DOCKED: ATOM      5  N   UNL     1     140.964  73.588 219.470 -0.01 +0.07    -0.330 N  
DOCKED: ENDROOT
DOCKED: BRANCH   1   6
DOCKED: ATOM      6  C   UNL     1     141.069  73.626 221.909 -0.09 -0.00    +0.075 C  
DOCKED: ATOM      7  O   UNL     1     141.066  72.664 222.727 -0.39 -0.01    -0.318 OA 
DOCKED: BRANCH   6   8
DOCKED: ATOM      8  N   UNL     1     140.303  74.813 222.158 -0.46 +0.02    -0.645 NA 
DOCKED: BRANCH   8   9
DOCKED: ATOM      9  C   UNL     1     140.020  75.922 221.240 -0.26 +0.02    -0.077 C  
DOCKED: ATOM     10  C   UNL     1     138.519  76.190 221.068 -0.16 +0.00    -0.008 C  
DOCKED: BRANCH   9  11
DOCKED: ATOM     11  C   UNL     1     140.776  77.182 221.653 -0.34 +0.02    -0.044 A  
DOCKED: ATOM     12  C   UNL     1     142.143  79.515 222.483 -0.47 -0.05    +0.120 A  
DOCKED: ATOM     13  C   UNL     1     141.757  78.552 223.419 -0.55 -0.02    +0.047 A  
DOCKED: ATOM     14  C   UNL     1     141.840  79.318 221.128 -0.33 -0.04    +0.067 A  
DOCKED: ATOM     15  C   UNL     1     141.075  77.405 223.018 -0.34 -0.00    +0.008 A  
DOCKED: ATOM     16  C   UNL     1     141.169  78.163 220.705 -0.26 -0.02    +0.046 A  
DOCKED: ATOM     17  Cl  UNL     1     140.841  78.007 218.981 -0.18 +0.04    -0.084 Cl 
DOCKED: BRANCH  12  18
DOCKED: ATOM     18  O   UNL     1     142.821  80.651 222.940 -0.25 +0.13    -0.497 OA 
DOCKED: ATOM     19  C   UNL     1     142.580  81.291 224.192 -0.33 -0.04    +0.278 C  
DOCKED: ENDBRANCH  12  18
DOCKED: ENDBRANCH   9  11
DOCKED: ENDBRANCH   8   9
DOCKED: ENDBRANCH   6   8
DOCKED: ENDBRANCH   1   6
DOCKED: BRANCH   5  20
DOCKED: ATOM     20  C   UNL     1     139.923  72.625 219.215 -0.02 -0.05    +0.242 C  
DOCKED: ATOM     21  O   UNL     1     140.164  71.622 218.493 -0.01 +0.05    -0.273 OA 
DOCKED: BRANCH  20  22
DOCKED: ATOM     22  C   UNL     1     138.564  72.765 219.837 -0.03 -0.04    +0.216 C  
DOCKED: BRANCH  22  23
DOCKED: ATOM     23  N   UNL     1     138.610  72.339 221.230 -0.04 +0.07    -0.342 N  
DOCKED: ATOM     24  C   UNL     1     138.083  71.074 221.662 -0.06 -0.05    +0.270 C  
DOCKED: ATOM     25  H   UNL     1     139.095  72.951 221.915 +0.01 -0.04    +0.164 HD 
DOCKED: ATOM     26  O   UNL     1     137.232  70.477 220.947 -0.02 +0.05    -0.268 OA 
DOCKED: BRANCH  24  27
DOCKED: ATOM     27  C   UNL     1     138.551  70.462 222.922 -0.18 -0.02    +0.128 A  
DOCKED: ATOM     28  C   UNL     1     138.308  69.108 223.210 -0.23 -0.01    +0.035 A  
DOCKED: ATOM     29  N   UNL     1     139.267  71.216 223.801 -0.21 +0.06    -0.243 NA 
DOCKED: ATOM     30  C   UNL     1     138.796  68.557 224.398 -0.36 -0.00    +0.013 A  
DOCKED: ATOM     31  C   UNL     1     139.755  70.708 224.962 -0.41 -0.01    +0.071 A  
DOCKED: ATOM     32  C   UNL     1     139.523  69.355 225.291 -0.42 -0.00    +0.003 A  
DOCKED: ATOM     33  C   UNL     1     140.490  71.523 225.828 -0.56 -0.01    +0.032 A  
DOCKED: ATOM     34  C   UNL     1     140.023  68.839 226.496 -0.53 -0.01    +0.049 A  
DOCKED: ATOM     35  C   UNL     1     140.988  71.002 227.025 -0.65 -0.01    +0.041 A  
DOCKED: ATOM     36  C   UNL     1     140.752  69.663 227.361 -0.49 -0.02    +0.123 A  
DOCKED: ATOM     37  F   UNL     1     141.243  69.162 228.519 -0.15 +0.05    -0.207 F  
DOCKED: ENDBRANCH  24  27
DOCKED: ENDBRANCH  22  23
DOCKED: ENDBRANCH  20  22
DOCKED: ENDBRANCH   5  20
DOCKED: BRANCH   3  38
DOCKED: ATOM     38  O   UNL     1     143.704  74.576 218.234 -0.08 +0.14    -0.391 OA 
DOCKED: ATOM     39  H   UNL     1     144.459  75.222 218.216 -0.40 -0.14    +0.211 HD 
DOCKED: ENDBRANCH   3  38
DOCKED: TORSDOF 10
DOCKED: TER
DOCKED: ENDMDL
________________________________________________________________________________


    FINAL DOCKED STATE:
    ________________________


Run:   4 / 20
Time taken for this run:   0.124s

DOCKED: MODEL        4
DOCKED: USER    Run = 4
DOCKED: USER
DOCKED: USER    Estimated Free Energy of Binding    =  -7.82 kcal/mol  [=(1)+(2)+(3)-(4)]
DOCKED: USER
DOCKED: USER    (1) Final Intermolecular Energy     = -10.80 kcal/mol
DOCKED: USER        vdW + Hbond + desolv Energy     = -10.76 kcal/mol
DOCKED: USER        Electrostatic Energy            =  -0.04 kcal/mol
DOCKED: USER        Moving Ligand-Fixed Receptor    = -10.80 kcal/mol
DOCKED: USER        Moving Ligand-Moving Receptor   =  +0.00 kcal/mol
DOCKED: USER    (2) Final Total Internal Energy     =  -2.65 kcal/mol
DOCKED: USER    (3) Torsional Free Energy           =  +2.98 kcal/mol
DOCKED: USER    (4) Unbound System's Energy         =  -2.65 kcal/mol
DOCKED: USER
DOCKED: USER
DOCKED: REMARK SMILES COc1ccc([C@H](C)[N-]C(=O)[C@@H]2C[C@@H](O)CN2C(=O)CNC(=O)c2ccc3cc(F)ccc3n2)c(Cl)c1
DOCKED: REMARK SMILES IDX 12 1 13 2 14 3 16 4 17 5 10 6 11 7 9 8 7 9 8 10 6 11 3 12
DOCKED: REMARK SMILES IDX 4 13 37 14 5 15 35 16 36 17 2 18 1 19 18 20 19 21 20 22
DOCKED: REMARK SMILES IDX 21 23 22 24 23 26 24 27 25 28 34 29 26 30 33 31 27 32 32 33
DOCKED: REMARK SMILES IDX 28 34 31 35 29 36 30 37 15 38
DOCKED: REMARK H PARENT 21 25 15 39
DOCKED: USER                              x       y       z     vdW  Elec       q    Type
DOCKED: USER                           _______ _______ _______ _____ _____    ______ ____
DOCKED: ROOT
DOCKED: ATOM      1  C   UNL     1     139.602  68.466 225.331 -0.37 -0.02    +0.136 C  
DOCKED: ATOM      2  C   UNL     1     139.338  67.476 226.469 -0.51 -0.01    +0.065 C  
DOCKED: ATOM      3  C   UNL     1     139.784  68.181 227.755 -0.42 -0.03    +0.136 C  
DOCKED: ATOM      4  C   UNL     1     139.782  69.673 227.425 -0.47 -0.02    +0.152 C  
DOCKED: ATOM      5  N   UNL     1     139.821  69.755 225.975 -0.19 +0.05    -0.330 N  
DOCKED: ENDROOT
DOCKED: BRANCH   1   6
DOCKED: ATOM      6  C   UNL     1     138.436  68.530 224.381 -0.27 -0.00    +0.075 C  
DOCKED: ATOM      7  O   UNL     1     138.562  68.091 223.204 -0.20 +0.04    -0.318 OA 
DOCKED: BRANCH   6   8
DOCKED: ATOM      8  N   UNL     1     137.212  69.135 224.818 +0.04 +0.03    -0.645 NA 
DOCKED: BRANCH   8   9
DOCKED: ATOM      9  C   UNL     1     136.117  69.671 224.001 -0.18 +0.01    -0.077 C  
DOCKED: ATOM     10  C   UNL     1     135.159  68.585 223.496 -0.11 +0.00    -0.008 C  
DOCKED: BRANCH   9  11
DOCKED: ATOM     11  C   UNL     1     135.376  70.783 224.737 -0.17 +0.00    -0.044 A  
DOCKED: ATOM     12  C   UNL     1     133.950  72.796 226.122 -0.28 +0.00    +0.120 A  
DOCKED: ATOM     13  C   UNL     1     133.901  71.469 226.557 -0.38 -0.00    +0.047 A  
DOCKED: ATOM     14  C   UNL     1     134.708  73.120 224.987 -0.25 -0.01    +0.067 A  
DOCKED: ATOM     15  C   UNL     1     134.593  70.472 225.874 -0.27 -0.00    +0.008 A  
DOCKED: ATOM     16  C   UNL     1     135.423  72.132 224.297 -0.19 -0.01    +0.046 A  
DOCKED: ATOM     17  Cl  UNL     1     136.349  72.643 222.888 -0.19 +0.02    -0.084 Cl 
DOCKED: BRANCH  12  18
DOCKED: ATOM     18  O   UNL     1     133.231  73.758 226.842 -0.74 -0.03    -0.497 OA 
DOCKED: ATOM     19  C   UNL     1     131.951  73.541 227.431 -0.25 -0.04    +0.278 C  
DOCKED: ENDBRANCH  12  18
DOCKED: ENDBRANCH   9  11
DOCKED: ENDBRANCH   8   9
DOCKED: ENDBRANCH   6   8
DOCKED: ENDBRANCH   1   6
DOCKED: BRANCH   5  20
DOCKED: ATOM     20  C   UNL     1     140.162  70.949 225.244 -0.35 -0.04    +0.242 C  
DOCKED: ATOM     21  O   UNL     1     141.000  71.756 225.723 -0.44 +0.04    -0.273 OA 
DOCKED: BRANCH  20  22
DOCKED: ATOM     22  C   UNL     1     139.574  71.227 223.890 -0.28 -0.05    +0.216 C  
DOCKED: BRANCH  22  23
DOCKED: ATOM     23  N   UNL     1     140.378  72.224 223.197 -0.19 +0.04    -0.342 N  
DOCKED: ATOM     24  C   UNL     1     140.008  72.748 221.912 -0.19 -0.04    +0.270 C  
DOCKED: ATOM     25  H   UNL     1     141.213  72.606 223.682 +0.08 +0.02    +0.164 HD 
DOCKED: ATOM     26  O   UNL     1     139.213  72.098 221.179 -0.07 +0.05    -0.268 OA 
DOCKED: BRANCH  24  27
DOCKED: ATOM     27  C   UNL     1     140.532  74.053 221.458 -0.25 -0.02    +0.128 A  
DOCKED: ATOM     28  C   UNL     1     141.178  74.188 220.218 -0.18 -0.01    +0.035 A  
DOCKED: ATOM     29  N   UNL     1     140.349  75.151 222.242 -0.55 +0.01    -0.243 NA 
DOCKED: ATOM     30  C   UNL     1     141.632  75.446 219.809 -0.21 -0.00    +0.013 A  
DOCKED: ATOM     31  C   UNL     1     140.778  76.385 221.871 -0.35 -0.02    +0.071 A  
DOCKED: ATOM     32  C   UNL     1     141.439  76.560 220.637 -0.29 -0.00    +0.003 A  
DOCKED: ATOM     33  C   UNL     1     140.559  77.483 222.710 -0.39 -0.01    +0.032 A  
DOCKED: ATOM     34  C   UNL     1     141.886  77.836 220.263 -0.29 -0.03    +0.049 A  
DOCKED: ATOM     35  C   UNL     1     141.003  78.752 222.330 -0.40 -0.01    +0.041 A  
DOCKED: ATOM     36  C   UNL     1     141.669  78.928 221.112 -0.29 -0.07    +0.123 A  
DOCKED: ATOM     37  F   UNL     1     142.092  80.162 220.747 -0.10 +0.10    -0.207 F  
DOCKED: ENDBRANCH  24  27
DOCKED: ENDBRANCH  22  23
DOCKED: ENDBRANCH  20  22
DOCKED: ENDBRANCH   5  20
DOCKED: BRANCH   3  38
DOCKED: ATOM     38  O   UNL     1     141.083  67.769 228.091 -0.33 +0.12    -0.391 OA 
DOCKED: ATOM     39  H   UNL     1     141.104  66.780 227.995 -0.30 -0.11    +0.211 HD 
DOCKED: ENDBRANCH   3  38
DOCKED: TORSDOF 10
DOCKED: TER
DOCKED: ENDMDL
________________________________________________________________________________


    FINAL DOCKED STATE:
    ________________________


Run:   5 / 20
Time taken for this run:   0.124s

DOCKED: MODEL        5
DOCKED: USER    Run = 5
DOCKED: USER
DOCKED: USER    Estimated Free Energy of Binding    =  -8.00 kcal/mol  [=(1)+(2)+(3)-(4)]
DOCKED: USER
DOCKED: USER    (1) Final Intermolecular Energy     = -10.98 kcal/mol
DOCKED: USER        vdW + Hbond + desolv Energy     = -11.13 kcal/mol
DOCKED: USER        Electrostatic Energy            =  +0.14 kcal/mol
DOCKED: USER        Moving Ligand-Fixed Receptor    = -10.98 kcal/mol
DOCKED: USER        Moving Ligand-Moving Receptor   =  +0.00 kcal/mol
DOCKED: USER    (2) Final Total Internal Energy     =  -2.31 kcal/mol
DOCKED: USER    (3) Torsional Free Energy           =  +2.98 kcal/mol
DOCKED: USER    (4) Unbound System's Energy         =  -2.31 kcal/mol
DOCKED: USER
DOCKED: USER
DOCKED: REMARK SMILES COc1ccc([C@H](C)[N-]C(=O)[C@@H]2C[C@@H](O)CN2C(=O)CNC(=O)c2ccc3cc(F)ccc3n2)c(Cl)c1
DOCKED: REMARK SMILES IDX 12 1 13 2 14 3 16 4 17 5 10 6 11 7 9 8 7 9 8 10 6 11 3 12
DOCKED: REMARK SMILES IDX 4 13 37 14 5 15 35 16 36 17 2 18 1 19 18 20 19 21 20 22
DOCKED: REMARK SMILES IDX 21 23 22 24 23 26 24 27 25 28 34 29 26 30 33 31 27 32 32 33
DOCKED: REMARK SMILES IDX 28 34 31 35 29 36 30 37 15 38
DOCKED: REMARK H PARENT 21 25 15 39
DOCKED: USER                              x       y       z     vdW  Elec       q    Type
DOCKED: USER                           _______ _______ _______ _____ _____    ______ ____
DOCKED: ROOT
DOCKED: ATOM      1  C   UNL     1     142.131  75.048 220.585 -0.23 -0.05    +0.136 C  
DOCKED: ATOM      2  C   UNL     1     142.884  76.060 219.717 -0.34 -0.04    +0.065 C  
DOCKED: ATOM      3  C   UNL     1     142.838  75.509 218.288 -0.17 -0.06    +0.136 C  
DOCKED: ATOM      4  C   UNL     1     141.664  74.533 218.263 -0.04 -0.04    +0.152 C  
DOCKED: ATOM      5  N   UNL     1     141.401  74.197 219.653 -0.03 +0.08    -0.330 N  
DOCKED: ENDROOT
DOCKED: BRANCH   1   6
DOCKED: ATOM      6  C   UNL     1     141.189  75.736 221.536 -0.29 -0.02    +0.075 C  
DOCKED: ATOM      7  O   UNL     1     140.480  75.048 222.322 -0.59 +0.00    -0.318 OA 
DOCKED: BRANCH   6   8
DOCKED: ATOM      8  N   UNL     1     141.079  77.165 221.498 +0.00 +0.29    -0.645 NA 
DOCKED: BRANCH   8   9
DOCKED: ATOM      9  C   UNL     1     139.865  77.987 221.556 -0.23 +0.02    -0.077 C  
DOCKED: ATOM     10  C   UNL     1     138.926  77.590 222.702 -0.29 +0.00    -0.008 C  
DOCKED: BRANCH   9  11
DOCKED: ATOM     11  C   UNL     1     140.211  79.473 221.596 -0.22 +0.01    -0.044 A  
DOCKED: ATOM     12  C   UNL     1     140.843  82.231 221.597 -0.29 -0.02    +0.120 A  
DOCKED: ATOM     13  C   UNL     1     139.994  81.701 220.622 -0.17 -0.01    +0.047 A  
DOCKED: ATOM     14  C   UNL     1     141.385  81.380 222.572 -0.44 -0.01    +0.067 A  
DOCKED: ATOM     15  C   UNL     1     139.686  80.343 220.610 -0.13 -0.00    +0.008 A  
DOCKED: ATOM     16  C   UNL     1     141.074  80.014 222.584 -0.41 -0.01    +0.046 A  
DOCKED: ATOM     17  Cl  UNL     1     141.801  79.033 223.854 -0.74 +0.02    -0.084 Cl 
DOCKED: BRANCH  12  18
DOCKED: ATOM     18  O   UNL     1     141.124  83.602 221.560 -0.08 +0.06    -0.497 OA 
DOCKED: ATOM     19  C   UNL     1     140.348  84.570 220.856 -0.16 -0.05    +0.278 C  
DOCKED: ENDBRANCH  12  18
DOCKED: ENDBRANCH   9  11
DOCKED: ENDBRANCH   8   9
DOCKED: ENDBRANCH   6   8
DOCKED: ENDBRANCH   1   6
DOCKED: BRANCH   5  20
DOCKED: ATOM     20  C   UNL     1     140.607  73.072 220.074 -0.07 -0.04    +0.242 C  
DOCKED: ATOM     21  O   UNL     1     141.089  71.910 220.014 -0.06 +0.04    -0.273 OA 
DOCKED: BRANCH  20  22
DOCKED: ATOM     22  C   UNL     1     139.228  73.259 220.637 -0.08 -0.04    +0.216 C  
DOCKED: BRANCH  22  23
DOCKED: ATOM     23  N   UNL     1     139.184  72.782 222.012 -0.11 +0.08    -0.342 N  
DOCKED: ATOM     24  C   UNL     1     139.370  71.398 222.349 -0.16 -0.05    +0.270 C  
DOCKED: ATOM     25  H   UNL     1     139.073  73.482 222.772 -0.46 -0.06    +0.164 HD 
DOCKED: ATOM     26  O   UNL     1     139.188  70.512 221.469 -0.07 +0.05    -0.268 OA 
DOCKED: BRANCH  24  27
DOCKED: ATOM     27  C   UNL     1     139.797  71.012 223.709 -0.31 -0.02    +0.128 A  
DOCKED: ATOM     28  C   UNL     1     140.551  71.885 224.513 -0.34 -0.00    +0.035 A  
DOCKED: ATOM     29  N   UNL     1     139.418  69.803 224.207 -0.17 +0.04    -0.243 NA 
DOCKED: ATOM     30  C   UNL     1     140.908  71.497 225.807 -0.62 -0.00    +0.013 A  
DOCKED: ATOM     31  C   UNL     1     139.749  69.399 225.461 -0.39 -0.01    +0.071 A  
DOCKED: ATOM     32  C   UNL     1     140.513  70.244 226.294 -0.56 -0.00    +0.003 A  
DOCKED: ATOM     33  C   UNL     1     139.329  68.149 225.927 -0.53 -0.00    +0.032 A  
DOCKED: ATOM     34  C   UNL     1     140.858  69.817 227.585 -0.56 -0.01    +0.049 A  
DOCKED: ATOM     35  C   UNL     1     139.672  67.732 227.215 -0.54 -0.01    +0.041 A  
DOCKED: ATOM     36  C   UNL     1     140.439  68.562 228.042 -0.55 -0.03    +0.123 A  
DOCKED: ATOM     37  F   UNL     1     140.763  68.155 229.292 -0.13 +0.05    -0.207 F  
DOCKED: ENDBRANCH  24  27
DOCKED: ENDBRANCH  22  23
DOCKED: ENDBRANCH  20  22
DOCKED: ENDBRANCH   5  20
DOCKED: BRANCH   3  38
DOCKED: ATOM     38  O   UNL     1     144.032  74.824 218.010 -0.08 +0.17    -0.391 OA 
DOCKED: ATOM     39  H   UNL     1     144.731  75.514 217.863 -0.46 -0.17    +0.211 HD 
DOCKED: ENDBRANCH   3  38
DOCKED: TORSDOF 10
DOCKED: TER
DOCKED: ENDMDL
________________________________________________________________________________


    FINAL DOCKED STATE:
    ________________________


Run:   6 / 20
Time taken for this run:   0.124s

DOCKED: MODEL        6
DOCKED: USER    Run = 6
DOCKED: USER
DOCKED: USER    Estimated Free Energy of Binding    =  -6.95 kcal/mol  [=(1)+(2)+(3)-(4)]
DOCKED: USER
DOCKED: USER    (1) Final Intermolecular Energy     =  -9.94 kcal/mol
DOCKED: USER        vdW + Hbond + desolv Energy     =  -9.91 kcal/mol
DOCKED: USER        Electrostatic Energy            =  -0.02 kcal/mol
DOCKED: USER        Moving Ligand-Fixed Receptor    =  -9.94 kcal/mol
DOCKED: USER        Moving Ligand-Moving Receptor   =  +0.00 kcal/mol
DOCKED: USER    (2) Final Total Internal Energy     =  -3.96 kcal/mol
DOCKED: USER    (3) Torsional Free Energy           =  +2.98 kcal/mol
DOCKED: USER    (4) Unbound System's Energy         =  -3.96 kcal/mol
DOCKED: USER
DOCKED: USER
DOCKED: REMARK SMILES COc1ccc([C@H](C)[N-]C(=O)[C@@H]2C[C@@H](O)CN2C(=O)CNC(=O)c2ccc3cc(F)ccc3n2)c(Cl)c1
DOCKED: REMARK SMILES IDX 12 1 13 2 14 3 16 4 17 5 10 6 11 7 9 8 7 9 8 10 6 11 3 12
DOCKED: REMARK SMILES IDX 4 13 37 14 5 15 35 16 36 17 2 18 1 19 18 20 19 21 20 22
DOCKED: REMARK SMILES IDX 21 23 22 24 23 26 24 27 25 28 34 29 26 30 33 31 27 32 32 33
DOCKED: REMARK SMILES IDX 28 34 31 35 29 36 30 37 15 38
DOCKED: REMARK H PARENT 21 25 15 39
DOCKED: USER                              x       y       z     vdW  Elec       q    Type
DOCKED: USER                           _______ _______ _______ _____ _____    ______ ____
DOCKED: ROOT
DOCKED: ATOM      1  C   UNL     1     141.853  73.505 220.655 -0.20 -0.02    +0.136 C  
DOCKED: ATOM      2  C   UNL     1     142.866  74.643 220.510 -0.28 -0.02    +0.065 C  
DOCKED: ATOM      3  C   UNL     1     142.731  75.149 219.070 -0.20 -0.06    +0.136 C  
DOCKED: ATOM      4  C   UNL     1     141.349  74.695 218.605 -0.05 -0.04    +0.152 C  
DOCKED: ATOM      5  N   UNL     1     140.963  73.622 219.507 -0.01 +0.07    -0.330 N  
DOCKED: ENDROOT
DOCKED: BRANCH   1   6
DOCKED: ATOM      6  C   UNL     1     141.084  73.618 221.945 -0.06 -0.00    +0.075 C  
DOCKED: ATOM      7  O   UNL     1     141.073  72.648 222.753 -0.37 -0.01    -0.318 OA 
DOCKED: BRANCH   6   8
DOCKED: ATOM      8  N   UNL     1     140.338  74.813 222.210 -0.43 +0.01    -0.645 NA 
DOCKED: BRANCH   8   9
DOCKED: ATOM      9  C   UNL     1     140.028  75.915 221.292 -0.26 +0.02    -0.077 C  
DOCKED: ATOM     10  C   UNL     1     138.521  76.162 221.138 -0.17 +0.00    -0.008 C  
DOCKED: BRANCH   9  11
DOCKED: ATOM     11  C   UNL     1     140.771  77.186 221.691 -0.34 +0.02    -0.044 A  
DOCKED: ATOM     12  C   UNL     1     142.116  79.542 222.495 -0.47 -0.05    +0.120 A  
DOCKED: ATOM     13  C   UNL     1     141.741  78.584 223.441 -0.56 -0.02    +0.047 A  
DOCKED: ATOM     14  C   UNL     1     141.814  79.327 221.143 -0.34 -0.03    +0.067 A  
DOCKED: ATOM     15  C   UNL     1     141.071  77.427 223.053 -0.34 -0.00    +0.008 A  
DOCKED: ATOM     16  C   UNL     1     141.154  78.161 220.732 -0.26 -0.02    +0.046 A  
DOCKED: ATOM     17  Cl  UNL     1     140.826  77.984 219.010 -0.17 +0.04    -0.084 Cl 
DOCKED: BRANCH  12  18
DOCKED: ATOM     18  O   UNL     1     142.784  80.689 222.940 -0.24 +0.13    -0.497 OA 
DOCKED: ATOM     19  C   UNL     1     142.565  81.317 224.202 -0.33 -0.03    +0.278 C  
DOCKED: ENDBRANCH  12  18
DOCKED: ENDBRANCH   9  11
DOCKED: ENDBRANCH   8   9
DOCKED: ENDBRANCH   6   8
DOCKED: ENDBRANCH   1   6
DOCKED: BRANCH   5  20
DOCKED: ATOM     20  C   UNL     1     139.896  72.692 219.242 -0.02 -0.05    +0.242 C  
DOCKED: ATOM     21  O   UNL     1     140.103  71.701 218.494 -0.01 +0.05    -0.273 OA 
DOCKED: BRANCH  20  22
DOCKED: ATOM     22  C   UNL     1     138.548  72.850 219.886 -0.03 -0.04    +0.216 C  
DOCKED: BRANCH  22  23
DOCKED: ATOM     23  N   UNL     1     138.604  72.400 221.270 -0.04 +0.07    -0.342 N  
DOCKED: ATOM     24  C   UNL     1     138.068  71.133 221.686 -0.06 -0.05    +0.270 C  
DOCKED: ATOM     25  H   UNL     1     139.103  72.995 221.960 +0.01 -0.04    +0.164 HD 
DOCKED: ATOM     26  O   UNL     1     137.204  70.557 220.970 -0.02 +0.05    -0.268 OA 
DOCKED: BRANCH  24  27
DOCKED: ATOM     27  C   UNL     1     138.543  70.495 222.931 -0.18 -0.02    +0.128 A  
DOCKED: ATOM     28  C   UNL     1     138.326  69.129 223.179 -0.23 -0.01    +0.035 A  
DOCKED: ATOM     29  N   UNL     1     139.239  71.238 223.835 -0.21 +0.06    -0.243 NA 
DOCKED: ATOM     30  C   UNL     1     138.820  68.554 224.353 -0.36 -0.00    +0.013 A  
DOCKED: ATOM     31  C   UNL     1     139.731  70.707 224.984 -0.41 -0.01    +0.071 A  
DOCKED: ATOM     32  C   UNL     1     139.526  69.341 225.273 -0.42 -0.00    +0.003 A  
DOCKED: ATOM     33  C   UNL     1     140.446  71.512 225.877 -0.55 -0.01    +0.032 A  
DOCKED: ATOM     34  C   UNL     1     140.031  68.800 226.465 -0.53 -0.01    +0.049 A  
DOCKED: ATOM     35  C   UNL     1     140.949  70.966 227.060 -0.64 -0.01    +0.041 A  
DOCKED: ATOM     36  C   UNL     1     140.738  69.615 227.357 -0.49 -0.02    +0.123 A  
DOCKED: ATOM     37  F   UNL     1     141.234  69.090 228.503 -0.15 +0.05    -0.207 F  
DOCKED: ENDBRANCH  24  27
DOCKED: ENDBRANCH  22  23
DOCKED: ENDBRANCH  20  22
DOCKED: ENDBRANCH   5  20
DOCKED: BRANCH   3  38
DOCKED: ATOM     38  O   UNL     1     143.721  74.558 218.269 -0.08 +0.14    -0.391 OA 
DOCKED: ATOM     39  H   UNL     1     144.484  75.194 218.238 -0.40 -0.14    +0.211 HD 
DOCKED: ENDBRANCH   3  38
DOCKED: TORSDOF 10
DOCKED: TER
DOCKED: ENDMDL
________________________________________________________________________________


    FINAL DOCKED STATE:
    ________________________


Run:   7 / 20
Time taken for this run:   0.124s

DOCKED: MODEL        7
DOCKED: USER    Run = 7
DOCKED: USER
DOCKED: USER    Estimated Free Energy of Binding    =  -8.18 kcal/mol  [=(1)+(2)+(3)-(4)]
DOCKED: USER
DOCKED: USER    (1) Final Intermolecular Energy     = -11.16 kcal/mol
DOCKED: USER        vdW + Hbond + desolv Energy     = -11.18 kcal/mol
DOCKED: USER        Electrostatic Energy            =  +0.02 kcal/mol
DOCKED: USER        Moving Ligand-Fixed Receptor    = -11.16 kcal/mol
DOCKED: USER        Moving Ligand-Moving Receptor   =  +0.00 kcal/mol
DOCKED: USER    (2) Final Total Internal Energy     =  -2.92 kcal/mol
DOCKED: USER    (3) Torsional Free Energy           =  +2.98 kcal/mol
DOCKED: USER    (4) Unbound System's Energy         =  -2.92 kcal/mol
DOCKED: USER
DOCKED: USER
DOCKED: REMARK SMILES COc1ccc([C@H](C)[N-]C(=O)[C@@H]2C[C@@H](O)CN2C(=O)CNC(=O)c2ccc3cc(F)ccc3n2)c(Cl)c1
DOCKED: REMARK SMILES IDX 12 1 13 2 14 3 16 4 17 5 10 6 11 7 9 8 7 9 8 10 6 11 3 12
DOCKED: REMARK SMILES IDX 4 13 37 14 5 15 35 16 36 17 2 18 1 19 18 20 19 21 20 22
DOCKED: REMARK SMILES IDX 21 23 22 24 23 26 24 27 25 28 34 29 26 30 33 31 27 32 32 33
DOCKED: REMARK SMILES IDX 28 34 31 35 29 36 30 37 15 38
DOCKED: REMARK H PARENT 21 25 15 39
DOCKED: USER                              x       y       z     vdW  Elec       q    Type
DOCKED: USER                           _______ _______ _______ _____ _____    ______ ____
DOCKED: ROOT
DOCKED: ATOM      1  C   UNL     1     139.828  77.486 222.698 -0.22 -0.03    +0.136 C  
DOCKED: ATOM      2  C   UNL     1     140.194  78.971 222.764 -0.37 -0.02    +0.065 C  
DOCKED: ATOM      3  C   UNL     1     141.565  79.100 222.091 -0.38 -0.06    +0.136 C  
DOCKED: ATOM      4  C   UNL     1     141.708  77.858 221.213 -0.18 -0.09    +0.152 C  
DOCKED: ATOM      5  N   UNL     1     140.746  76.898 221.730 -0.18 +0.12    -0.330 N  
DOCKED: ENDROOT
DOCKED: BRANCH   1   6
DOCKED: ATOM      6  C   UNL     1     138.398  77.293 222.268 -0.25 -0.01    +0.075 C  
DOCKED: ATOM      7  O   UNL     1     137.854  78.140 221.505 -0.05 +0.06    -0.318 OA 
DOCKED: BRANCH   6   8
DOCKED: ATOM      8  N   UNL     1     137.663  76.171 222.773 -0.04 +0.16    -0.645 NA 
DOCKED: BRANCH   8   9
DOCKED: ATOM      9  C   UNL     1     136.314  75.725 222.405 -0.18 +0.02    -0.077 C  
DOCKED: ATOM     10  C   UNL     1     136.306  74.761 221.211 -0.08 +0.00    -0.008 C  
DOCKED: BRANCH   9  11
DOCKED: ATOM     11  C   UNL     1     135.582  75.140 223.609 -0.25 +0.01    -0.044 A  
DOCKED: ATOM     12  C   UNL     1     134.218  73.991 225.806 -0.27 +0.00    +0.120 A  
DOCKED: ATOM     13  C   UNL     1     135.008  73.197 224.970 -0.22 -0.00    +0.047 A  
DOCKED: ATOM     14  C   UNL     1     134.102  75.363 225.541 -0.32 -0.00    +0.067 A  
DOCKED: ATOM     15  C   UNL     1     135.675  73.754 223.882 -0.20 -0.00    +0.008 A  
DOCKED: ATOM     16  C   UNL     1     134.778  75.944 224.459 -0.26 -0.01    +0.046 A  
DOCKED: ATOM     17  Cl  UNL     1     134.572  77.677 224.216 -0.15 +0.01    -0.084 Cl 
DOCKED: BRANCH  12  18
DOCKED: ATOM     18  O   UNL     1     133.566  73.379 226.883 -0.68 -0.06    -0.497 OA 
DOCKED: ATOM     19  C   UNL     1     133.496  71.970 227.094 -0.28 -0.02    +0.278 C  
DOCKED: ENDBRANCH  12  18
DOCKED: ENDBRANCH   9  11
DOCKED: ENDBRANCH   8   9
DOCKED: ENDBRANCH   6   8
DOCKED: ENDBRANCH   1   6
DOCKED: BRANCH   5  20
DOCKED: ATOM     20  C   UNL     1     140.766  75.491 221.423 -0.24 -0.06    +0.242 C  
DOCKED: ATOM     21  O   UNL     1     141.825  74.831 221.590 -0.25 +0.07    -0.273 OA 
DOCKED: BRANCH  20  22
DOCKED: ATOM     22  C   UNL     1     139.530  74.779 220.953 -0.15 -0.05    +0.216 C  
DOCKED: BRANCH  22  23
DOCKED: ATOM     23  N   UNL     1     139.088  73.832 221.967 -0.13 +0.08    -0.342 N  
DOCKED: ATOM     24  C   UNL     1     139.429  72.437 221.913 -0.16 -0.05    +0.270 C  
DOCKED: ATOM     25  H   UNL     1     138.560  74.197 222.784 -0.56 -0.08    +0.164 HD 
DOCKED: ATOM     26  O   UNL     1     139.775  71.923 220.815 -0.06 +0.05    -0.268 OA 
DOCKED: BRANCH  24  27
DOCKED: ATOM     27  C   UNL     1     139.399  71.614 223.140 -0.26 -0.03    +0.128 A  
DOCKED: ATOM     28  C   UNL     1     138.617  70.449 223.218 -0.23 -0.01    +0.035 A  
DOCKED: ATOM     29  N   UNL     1     140.176  71.972 224.199 -0.21 +0.05    -0.243 NA 
DOCKED: ATOM     30  C   UNL     1     138.641  69.678 224.383 -0.33 -0.00    +0.013 A  
DOCKED: ATOM     31  C   UNL     1     140.220  71.243 225.344 -0.48 -0.01    +0.071 A  
DOCKED: ATOM     32  C   UNL     1     139.442  70.072 225.464 -0.43 -0.00    +0.003 A  
DOCKED: ATOM     33  C   UNL     1     141.040  71.650 226.401 -0.68 -0.00    +0.032 A  
DOCKED: ATOM     34  C   UNL     1     139.487  69.327 226.652 -0.48 -0.01    +0.049 A  
DOCKED: ATOM     35  C   UNL     1     141.083  70.902 227.580 -0.64 -0.01    +0.041 A  
DOCKED: ATOM     36  C   UNL     1     140.305  69.746 227.708 -0.51 -0.02    +0.123 A  
DOCKED: ATOM     37  F   UNL     1     140.356  69.022 228.851 -0.14 +0.04    -0.207 F  
DOCKED: ENDBRANCH  24  27
DOCKED: ENDBRANCH  22  23
DOCKED: ENDBRANCH  20  22
DOCKED: ENDBRANCH   5  20
DOCKED: BRANCH   3  38
DOCKED: ATOM     38  O   UNL     1     142.570  79.109 223.071 -0.31 +0.18    -0.391 OA 
DOCKED: ATOM     39  H   UNL     1     143.324  78.569 222.714 -0.35 -0.18    +0.211 HD 
DOCKED: ENDBRANCH   3  38
DOCKED: TORSDOF 10
DOCKED: TER
DOCKED: ENDMDL
________________________________________________________________________________


    FINAL DOCKED STATE:
    ________________________


Run:   8 / 20
Time taken for this run:   0.124s

DOCKED: MODEL        8
DOCKED: USER    Run = 8
DOCKED: USER
DOCKED: USER    Estimated Free Energy of Binding    =  -5.12 kcal/mol  [=(1)+(2)+(3)-(4)]
DOCKED: USER
DOCKED: USER    (1) Final Intermolecular Energy     =  -8.10 kcal/mol
DOCKED: USER        vdW + Hbond + desolv Energy     =  -8.06 kcal/mol
DOCKED: USER        Electrostatic Energy            =  -0.04 kcal/mol
DOCKED: USER        Moving Ligand-Fixed Receptor    =  -8.10 kcal/mol
DOCKED: USER        Moving Ligand-Moving Receptor   =  +0.00 kcal/mol
DOCKED: USER    (2) Final Total Internal Energy     =  -4.95 kcal/mol
DOCKED: USER    (3) Torsional Free Energy           =  +2.98 kcal/mol
DOCKED: USER    (4) Unbound System's Energy         =  -4.95 kcal/mol
DOCKED: USER
DOCKED: USER
DOCKED: REMARK SMILES COc1ccc([C@H](C)[N-]C(=O)[C@@H]2C[C@@H](O)CN2C(=O)CNC(=O)c2ccc3cc(F)ccc3n2)c(Cl)c1
DOCKED: REMARK SMILES IDX 12 1 13 2 14 3 16 4 17 5 10 6 11 7 9 8 7 9 8 10 6 11 3 12
DOCKED: REMARK SMILES IDX 4 13 37 14 5 15 35 16 36 17 2 18 1 19 18 20 19 21 20 22
DOCKED: REMARK SMILES IDX 21 23 22 24 23 26 24 27 25 28 34 29 26 30 33 31 27 32 32 33
DOCKED: REMARK SMILES IDX 28 34 31 35 29 36 30 37 15 38
DOCKED: REMARK H PARENT 21 25 15 39
DOCKED: USER                              x       y       z     vdW  Elec       q    Type
DOCKED: USER                           _______ _______ _______ _____ _____    ______ ____
DOCKED: ROOT
DOCKED: ATOM      1  C   UNL     1     143.123  73.214 220.245 -0.23 -0.03    +0.136 C  
DOCKED: ATOM      2  C   UNL     1     144.473  73.229 220.967 -0.33 -0.01    +0.065 C  
DOCKED: ATOM      3  C   UNL     1     145.541  73.236 219.867 -0.42 +0.01    +0.136 C  
DOCKED: ATOM      4  C   UNL     1     144.834  73.749 218.614 -0.10 -0.02    +0.152 C  
DOCKED: ATOM      5  N   UNL     1     143.413  73.567 218.861 -0.04 +0.07    -0.330 N  
DOCKED: ENDROOT
DOCKED: BRANCH   1   6
DOCKED: ATOM      6  C   UNL     1     142.163  74.197 220.861 -0.23 -0.02    +0.075 C  
DOCKED: ATOM      7  O   UNL     1     142.421  75.432 220.824 -0.15 +0.16    -0.318 OA 
DOCKED: BRANCH   6   8
DOCKED: ATOM      8  N   UNL     1     140.989  73.704 221.522 -0.19 +0.06    -0.645 NA 
DOCKED: BRANCH   8   9
DOCKED: ATOM      9  C   UNL     1     139.583  73.943 221.179 -0.20 +0.01    -0.077 C  
DOCKED: ATOM     10  C   UNL     1     138.614  73.051 221.966 -0.19 +0.00    -0.008 C  
DOCKED: BRANCH   9  11
DOCKED: ATOM     11  C   UNL     1     139.228  75.421 221.313 -0.22 +0.01    -0.044 A  
DOCKED: ATOM     12  C   UNL     1     138.544  78.148 221.631 -0.14 -0.02    +0.120 A  
DOCKED: ATOM     13  C   UNL     1     138.874  77.368 222.742 -0.27 -0.01    +0.047 A  
DOCKED: ATOM     14  C   UNL     1     138.548  77.563 220.356 -0.06 -0.02    +0.067 A  
DOCKED: ATOM     15  C   UNL     1     139.203  76.023 222.594 -0.29 -0.00    +0.008 A  
DOCKED: ATOM     16  C   UNL     1     138.891  76.215 220.186 -0.07 -0.01    +0.046 A  
DOCKED: ATOM     17  Cl  UNL     1     138.872  75.579 218.543 -0.03 +0.02    -0.084 Cl 
DOCKED: BRANCH  12  18
DOCKED: ATOM     18  O   UNL     1     138.216  79.493 221.836 -0.01 +0.09    -0.497 OA 
DOCKED: ATOM     19  C   UNL     1     138.313  80.512 220.843 -0.04 -0.05    +0.278 C  
DOCKED: ENDBRANCH  12  18
DOCKED: ENDBRANCH   9  11
DOCKED: ENDBRANCH   8   9
DOCKED: ENDBRANCH   6   8
DOCKED: ENDBRANCH   1   6
DOCKED: BRANCH   5  20
DOCKED: ATOM     20  C   UNL     1     142.405  73.607 217.834 -0.02 -0.06    +0.242 C  
DOCKED: ATOM     21  O   UNL     1     141.959  72.531 217.355 -0.00 +0.05    -0.273 OA 
DOCKED: BRANCH  20  22
DOCKED: ATOM     22  C   UNL     1     141.832  74.910 217.355 -0.02 -0.07    +0.216 C  
DOCKED: BRANCH  22  23
DOCKED: ATOM     23  N   UNL     1     142.225  75.985 218.256 -0.06 +0.15    -0.342 N  
DOCKED: ATOM     24  C   UNL     1     142.095  77.370 217.899 -0.15 -0.16    +0.270 C  
DOCKED: ATOM     25  H   UNL     1     142.554  75.731 219.209 +0.07 -0.08    +0.164 HD 
DOCKED: ATOM     26  O   UNL     1     142.012  77.695 216.683 -0.10 +0.18    -0.268 OA 
DOCKED: BRANCH  24  27
DOCKED: ATOM     27  C   UNL     1     142.033  78.408 218.949 -0.23 -0.08    +0.128 A  
DOCKED: ATOM     28  C   UNL     1     141.984  79.774 218.622 -0.29 -0.02    +0.035 A  
DOCKED: ATOM     29  N   UNL     1     141.981  78.029 220.255 -0.17 +0.16    -0.243 NA 
DOCKED: ATOM     30  C   UNL     1     141.892  80.725 219.642 -0.29 -0.01    +0.013 A  
DOCKED: ATOM     31  C   UNL     1     141.891  78.930 221.268 -0.31 -0.04    +0.071 A  
DOCKED: ATOM     32  C   UNL     1     141.849  80.311 220.980 -0.38 -0.00    +0.003 A  
DOCKED: ATOM     33  C   UNL     1     141.835  78.489 222.594 -0.39 -0.02    +0.032 A  
DOCKED: ATOM     34  C   UNL     1     141.763  81.236 222.031 -0.44 -0.01    +0.049 A  
DOCKED: ATOM     35  C   UNL     1     141.746  79.415 223.635 -0.58 -0.01    +0.041 A  
DOCKED: ATOM     36  C   UNL     1     141.715  80.787 223.356 -0.49 -0.02    +0.123 A  
DOCKED: ATOM     37  F   UNL     1     141.622  81.680 224.370 -0.11 +0.01    -0.207 F  
DOCKED: ENDBRANCH  24  27
DOCKED: ENDBRANCH  22  23
DOCKED: ENDBRANCH  20  22
DOCKED: ENDBRANCH   5  20
DOCKED: BRANCH   3  38
DOCKED: ATOM     38  O   UNL     1     146.002  71.927 219.651 -0.50 -0.27    -0.391 OA 
DOCKED: ATOM     39  H   UNL     1     146.059  71.492 220.543 -0.39 -0.00    +0.211 HD 
DOCKED: ENDBRANCH   3  38
DOCKED: TORSDOF 10
DOCKED: TER
DOCKED: ENDMDL
________________________________________________________________________________


    FINAL DOCKED STATE:
    ________________________


Run:   9 / 20
Time taken for this run:   0.124s

DOCKED: MODEL        9
DOCKED: USER    Run = 9
DOCKED: USER
DOCKED: USER    Estimated Free Energy of Binding    =  -6.06 kcal/mol  [=(1)+(2)+(3)-(4)]
DOCKED: USER
DOCKED: USER    (1) Final Intermolecular Energy     =  -9.05 kcal/mol
DOCKED: USER        vdW + Hbond + desolv Energy     =  -9.39 kcal/mol
DOCKED: USER        Electrostatic Energy            =  +0.35 kcal/mol
DOCKED: USER        Moving Ligand-Fixed Receptor    =  -9.05 kcal/mol
DOCKED: USER        Moving Ligand-Moving Receptor   =  +0.00 kcal/mol
DOCKED: USER    (2) Final Total Internal Energy     =  -4.72 kcal/mol
DOCKED: USER    (3) Torsional Free Energy           =  +2.98 kcal/mol
DOCKED: USER    (4) Unbound System's Energy         =  -4.72 kcal/mol
DOCKED: USER
DOCKED: USER
DOCKED: REMARK SMILES COc1ccc([C@H](C)[N-]C(=O)[C@@H]2C[C@@H](O)CN2C(=O)CNC(=O)c2ccc3cc(F)ccc3n2)c(Cl)c1
DOCKED: REMARK SMILES IDX 12 1 13 2 14 3 16 4 17 5 10 6 11 7 9 8 7 9 8 10 6 11 3 12
DOCKED: REMARK SMILES IDX 4 13 37 14 5 15 35 16 36 17 2 18 1 19 18 20 19 21 20 22
DOCKED: REMARK SMILES IDX 21 23 22 24 23 26 24 27 25 28 34 29 26 30 33 31 27 32 32 33
DOCKED: REMARK SMILES IDX 28 34 31 35 29 36 30 37 15 38
DOCKED: REMARK H PARENT 21 25 15 39
DOCKED: USER                              x       y       z     vdW  Elec       q    Type
DOCKED: USER                           _______ _______ _______ _____ _____    ______ ____
DOCKED: ROOT
DOCKED: ATOM      1  C   UNL     1     143.345  74.667 220.478 -0.26 -0.06    +0.136 C  
DOCKED: ATOM      2  C   UNL     1     144.808  74.408 220.112 -0.35 -0.02    +0.065 C  
DOCKED: ATOM      3  C   UNL     1     145.091  72.952 220.499 -0.43 -0.01    +0.136 C  
DOCKED: ATOM      4  C   UNL     1     143.724  72.274 220.566 -0.24 -0.02    +0.152 C  
DOCKED: ATOM      5  N   UNL     1     142.757  73.351 220.699 -0.12 +0.06    -0.330 N  
DOCKED: ENDROOT
DOCKED: BRANCH   1   6
DOCKED: ATOM      6  C   UNL     1     142.626  75.399 219.377 -0.26 -0.03    +0.075 C  
DOCKED: ATOM      7  O   UNL     1     142.478  74.848 218.251 -0.05 +0.11    -0.318 OA 
DOCKED: BRANCH   6   8
DOCKED: ATOM      8  N   UNL     1     142.161  76.735 219.615 +0.00 +0.36    -0.645 NA 
DOCKED: BRANCH   8   9
DOCKED: ATOM      9  C   UNL     1     142.432  77.946 218.833 -0.26 +0.05    -0.077 C  
DOCKED: ATOM     10  C   UNL     1     142.283  77.730 217.321 -0.24 +0.01    -0.008 C  
DOCKED: BRANCH   9  11
DOCKED: ATOM     11  C   UNL     1     141.584  79.116 219.323 -0.24 +0.02    -0.044 A  
DOCKED: ATOM     12  C   UNL     1     140.067  81.305 220.277 -0.13 -0.03    +0.120 A  
DOCKED: ATOM     13  C   UNL     1     141.463  81.369 220.256 -0.29 -0.02    +0.047 A  
DOCKED: ATOM     14  C   UNL     1     139.425  80.143 219.827 -0.07 -0.02    +0.067 A  
DOCKED: ATOM     15  C   UNL     1     142.216  80.291 219.796 -0.24 -0.00    +0.008 A  
DOCKED: ATOM     16  C   UNL     1     140.166  79.055 219.346 -0.10 -0.02    +0.046 A  
DOCKED: ATOM     17  Cl  UNL     1     139.264  77.644 218.797 -0.04 +0.02    -0.084 Cl 
DOCKED: BRANCH  12  18
DOCKED: ATOM     18  O   UNL     1     139.359  82.415 220.754 -0.03 +0.09    -0.497 OA 
DOCKED: ATOM     19  C   UNL     1     139.958  83.637 221.182 -0.15 -0.04    +0.278 C  
DOCKED: ENDBRANCH  12  18
DOCKED: ENDBRANCH   9  11
DOCKED: ENDBRANCH   8   9
DOCKED: ENDBRANCH   6   8
DOCKED: ENDBRANCH   1   6
DOCKED: BRANCH   5  20
DOCKED: ATOM     20  C   UNL     1     141.393  73.162 221.123 -0.18 -0.03    +0.242 C  
DOCKED: ATOM     21  O   UNL     1     141.152  72.527 222.183 -0.29 +0.01    -0.273 OA 
DOCKED: BRANCH  20  22
DOCKED: ATOM     22  C   UNL     1     140.249  73.754 220.351 -0.10 -0.04    +0.216 C  
DOCKED: BRANCH  22  23
DOCKED: ATOM     23  N   UNL     1     140.152  75.181 220.625 -0.07 +0.08    -0.342 N  
DOCKED: ATOM     24  C   UNL     1     139.478  75.694 221.786 -0.21 -0.06    +0.270 C  
DOCKED: ATOM     25  H   UNL     1     140.640  75.838 219.986 +0.05 -0.05    +0.164 HD 
DOCKED: ATOM     26  O   UNL     1     138.631  74.975 222.383 -0.27 +0.08    -0.268 OA 
DOCKED: BRANCH  24  27
DOCKED: ATOM     27  C   UNL     1     139.793  77.045 222.295 -0.31 -0.03    +0.128 A  
DOCKED: ATOM     28  C   UNL     1     138.785  77.894 222.781 -0.28 -0.01    +0.035 A  
DOCKED: ATOM     29  N   UNL     1     141.090  77.457 222.328 -0.26 +0.10    -0.243 NA 
DOCKED: ATOM     30  C   UNL     1     139.126  79.153 223.285 -0.35 -0.00    +0.013 A  
DOCKED: ATOM     31  C   UNL     1     141.452  78.673 222.812 -0.48 -0.03    +0.071 A  
DOCKED: ATOM     32  C   UNL     1     140.467  79.558 223.301 -0.47 -0.00    +0.003 A  
DOCKED: ATOM     33  C   UNL     1     142.799  79.046 222.831 -0.31 -0.02    +0.032 A  
DOCKED: ATOM     34  C   UNL     1     140.847  80.816 223.793 -0.41 -0.01    +0.049 A  
DOCKED: ATOM     35  C   UNL     1     143.171  80.299 223.326 -0.60 -0.01    +0.041 A  
DOCKED: ATOM     36  C   UNL     1     142.197  81.184 223.802 -0.54 -0.02    +0.123 A  
DOCKED: ATOM     37  F   UNL     1     142.564  82.394 224.286 -0.07 +0.00    -0.207 F  
DOCKED: ENDBRANCH  24  27
DOCKED: ENDBRANCH  22  23
DOCKED: ENDBRANCH  20  22
DOCKED: ENDBRANCH   5  20
DOCKED: BRANCH   3  38
DOCKED: ATOM     38  O   UNL     1     145.705  72.912 221.761 -0.32 +0.11    -0.391 OA 
DOCKED: ATOM     39  H   UNL     1     145.789  71.954 222.009 -0.42 -0.20    +0.211 HD 
DOCKED: ENDBRANCH   3  38
DOCKED: TORSDOF 10
DOCKED: TER
DOCKED: ENDMDL
________________________________________________________________________________


    FINAL DOCKED STATE:
    ________________________


Run:   10 / 20
Time taken for this run:   0.124s

DOCKED: MODEL        10
DOCKED: USER    Run = 10
DOCKED: USER
DOCKED: USER    Estimated Free Energy of Binding    =  -6.67 kcal/mol  [=(1)+(2)+(3)-(4)]
DOCKED: USER
DOCKED: USER    (1) Final Intermolecular Energy     =  -9.65 kcal/mol
DOCKED: USER        vdW + Hbond + desolv Energy     =  -9.69 kcal/mol
DOCKED: USER        Electrostatic Energy            =  +0.04 kcal/mol
DOCKED: USER        Moving Ligand-Fixed Receptor    =  -9.65 kcal/mol
DOCKED: USER        Moving Ligand-Moving Receptor   =  +0.00 kcal/mol
DOCKED: USER    (2) Final Total Internal Energy     =  -4.02 kcal/mol
DOCKED: USER    (3) Torsional Free Energy           =  +2.98 kcal/mol
DOCKED: USER    (4) Unbound System's Energy         =  -4.02 kcal/mol
DOCKED: USER
DOCKED: USER
DOCKED: REMARK SMILES COc1ccc([C@H](C)[N-]C(=O)[C@@H]2C[C@@H](O)CN2C(=O)CNC(=O)c2ccc3cc(F)ccc3n2)c(Cl)c1
DOCKED: REMARK SMILES IDX 12 1 13 2 14 3 16 4 17 5 10 6 11 7 9 8 7 9 8 10 6 11 3 12
DOCKED: REMARK SMILES IDX 4 13 37 14 5 15 35 16 36 17 2 18 1 19 18 20 19 21 20 22
DOCKED: REMARK SMILES IDX 21 23 22 24 23 26 24 27 25 28 34 29 26 30 33 31 27 32 32 33
DOCKED: REMARK SMILES IDX 28 34 31 35 29 36 30 37 15 38
DOCKED: REMARK H PARENT 21 25 15 39
DOCKED: USER                              x       y       z     vdW  Elec       q    Type
DOCKED: USER                           _______ _______ _______ _____ _____    ______ ____
DOCKED: ROOT
DOCKED: ATOM      1  C   UNL     1     142.766  72.957 220.663 -0.21 -0.02    +0.136 C  
DOCKED: ATOM      2  C   UNL     1     143.722  74.145 220.533 -0.34 -0.02    +0.065 C  
DOCKED: ATOM      3  C   UNL     1     144.386  74.006 219.159 -0.21 -0.04    +0.136 C  
DOCKED: ATOM      4  C   UNL     1     143.457  73.109 218.345 -0.08 -0.02    +0.152 C  
DOCKED: ATOM      5  N   UNL     1     142.629  72.414 219.317 -0.02 +0.05    -0.330 N  
DOCKED: ENDROOT
DOCKED: BRANCH   1   6
DOCKED: ATOM      6  C   UNL     1     141.430  73.387 221.208 -0.25 -0.01    +0.075 C  
DOCKED: ATOM      7  O   UNL     1     141.110  73.085 222.392 -0.47 -0.01    -0.318 OA 
DOCKED: BRANCH   6   8
DOCKED: ATOM      8  N   UNL     1     140.522  74.094 220.353 +0.03 +0.14    -0.645 NA 
DOCKED: BRANCH   8   9
DOCKED: ATOM      9  C   UNL     1     139.626  75.204 220.696 -0.16 +0.02    -0.077 C  
DOCKED: ATOM     10  C   UNL     1     138.553  74.815 221.721 -0.23 +0.00    -0.008 C  
DOCKED: BRANCH   9  11
DOCKED: ATOM     11  C   UNL     1     140.416  76.430 221.142 -0.26 +0.01    -0.044 A  
DOCKED: ATOM     12  C   UNL     1     141.828  78.722 222.014 -0.37 -0.06    +0.120 A  
DOCKED: ATOM     13  C   UNL     1     140.940  78.069 222.874 -0.44 -0.02    +0.047 A  
DOCKED: ATOM     14  C   UNL     1     142.008  78.234 220.712 -0.22 -0.05    +0.067 A  
DOCKED: ATOM     15  C   UNL     1     140.235  76.946 222.448 -0.38 -0.00    +0.008 A  
DOCKED: ATOM     16  C   UNL     1     141.319  77.096 220.271 -0.24 -0.02    +0.046 A  
DOCKED: ATOM     17  Cl  UNL     1     141.619  76.561 218.620 -0.21 +0.04    -0.084 Cl 
DOCKED: BRANCH  12  18
DOCKED: ATOM     18  O   UNL     1     142.507  79.849 222.492 -0.23 +0.21    -0.497 OA 
DOCKED: ATOM     19  C   UNL     1     142.263  80.469 223.753 -0.42 -0.06    +0.278 C  
DOCKED: ENDBRANCH  12  18
DOCKED: ENDBRANCH   9  11
DOCKED: ENDBRANCH   8   9
DOCKED: ENDBRANCH   6   8
DOCKED: ENDBRANCH   1   6
DOCKED: BRANCH   5  20
DOCKED: ATOM     20  C   UNL     1     141.849  71.240 219.021 -0.04 -0.04    +0.242 C  
DOCKED: ATOM     21  O   UNL     1     142.430  70.144 218.804 -0.05 +0.04    -0.273 OA 
DOCKED: BRANCH  20  22
DOCKED: ATOM     22  C   UNL     1     140.349  71.283 219.015 -0.02 -0.04    +0.216 C  
DOCKED: BRANCH  22  23
DOCKED: ATOM     23  N   UNL     1     139.845  71.194 220.379 -0.02 +0.06    -0.342 N  
DOCKED: ATOM     24  C   UNL     1     139.434  69.949 220.965 -0.07 -0.05    +0.270 C  
DOCKED: ATOM     25  H   UNL     1     139.844  72.057 220.959 +0.04 -0.03    +0.164 HD 
DOCKED: ATOM     26  O   UNL     1     139.127  68.980 220.217 -0.05 +0.05    -0.268 OA 
DOCKED: BRANCH  24  27
DOCKED: ATOM     27  C   UNL     1     139.394  69.792 222.433 -0.13 -0.02    +0.128 A  
DOCKED: ATOM     28  C   UNL     1     138.767  68.686 223.032 -0.24 -0.01    +0.035 A  
DOCKED: ATOM     29  N   UNL     1     140.012  70.718 223.217 -0.16 +0.04    -0.243 NA 
DOCKED: ATOM     30  C   UNL     1     138.779  68.556 224.423 -0.36 -0.00    +0.013 A  
DOCKED: ATOM     31  C   UNL     1     140.040  70.618 224.571 -0.39 -0.01    +0.071 A  
DOCKED: ATOM     32  C   UNL     1     139.414  69.526 225.210 -0.41 -0.00    +0.003 A  
DOCKED: ATOM     33  C   UNL     1     140.695  71.593 225.331 -0.52 -0.00    +0.032 A  
DOCKED: ATOM     34  C   UNL     1     139.441  69.432 226.610 -0.46 -0.01    +0.049 A  
DOCKED: ATOM     35  C   UNL     1     140.721  71.491 226.724 -0.68 -0.01    +0.041 A  
DOCKED: ATOM     36  C   UNL     1     140.092  70.416 227.363 -0.49 -0.02    +0.123 A  
DOCKED: ATOM     37  F   UNL     1     140.126  70.321 228.714 -0.09 +0.04    -0.207 F  
DOCKED: ENDBRANCH  24  27
DOCKED: ENDBRANCH  22  23
DOCKED: ENDBRANCH  20  22
DOCKED: ENDBRANCH   5  20
DOCKED: BRANCH   3  38
DOCKED: ATOM     38  O   UNL     1     145.639  73.389 219.303 -0.39 -0.07    -0.391 OA 
DOCKED: ATOM     39  H   UNL     1     146.325  74.096 219.166 -0.45 -0.02    +0.211 HD 
DOCKED: ENDBRANCH   3  38
DOCKED: TORSDOF 10
DOCKED: TER
DOCKED: ENDMDL
________________________________________________________________________________


    FINAL DOCKED STATE:
    ________________________


Run:   11 / 20
Time taken for this run:   0.124s

DOCKED: MODEL        11
DOCKED: USER    Run = 11
DOCKED: USER
DOCKED: USER    Estimated Free Energy of Binding    =  -6.37 kcal/mol  [=(1)+(2)+(3)-(4)]
DOCKED: USER
DOCKED: USER    (1) Final Intermolecular Energy     =  -9.35 kcal/mol
DOCKED: USER        vdW + Hbond + desolv Energy     =  -9.30 kcal/mol
DOCKED: USER        Electrostatic Energy            =  -0.05 kcal/mol
DOCKED: USER        Moving Ligand-Fixed Receptor    =  -9.35 kcal/mol
DOCKED: USER        Moving Ligand-Moving Receptor   =  +0.00 kcal/mol
DOCKED: USER    (2) Final Total Internal Energy     =  -3.95 kcal/mol
DOCKED: USER    (3) Torsional Free Energy           =  +2.98 kcal/mol
DOCKED: USER    (4) Unbound System's Energy         =  -3.95 kcal/mol
DOCKED: USER
DOCKED: USER
DOCKED: REMARK SMILES COc1ccc([C@H](C)[N-]C(=O)[C@@H]2C[C@@H](O)CN2C(=O)CNC(=O)c2ccc3cc(F)ccc3n2)c(Cl)c1
DOCKED: REMARK SMILES IDX 12 1 13 2 14 3 16 4 17 5 10 6 11 7 9 8 7 9 8 10 6 11 3 12
DOCKED: REMARK SMILES IDX 4 13 37 14 5 15 35 16 36 17 2 18 1 19 18 20 19 21 20 22
DOCKED: REMARK SMILES IDX 21 23 22 24 23 26 24 27 25 28 34 29 26 30 33 31 27 32 32 33
DOCKED: REMARK SMILES IDX 28 34 31 35 29 36 30 37 15 38
DOCKED: REMARK H PARENT 21 25 15 39
DOCKED: USER                              x       y       z     vdW  Elec       q    Type
DOCKED: USER                           _______ _______ _______ _____ _____    ______ ____
DOCKED: ROOT
DOCKED: ATOM      1  C   UNL     1     139.583  72.084 222.885 -0.23 -0.03    +0.136 C  
DOCKED: ATOM      2  C   UNL     1     140.101  70.834 223.601 -0.29 -0.01    +0.065 C  
DOCKED: ATOM      3  C   UNL     1     139.171  69.690 223.182 -0.19 -0.02    +0.136 C  
DOCKED: ATOM      4  C   UNL     1     138.511  70.153 221.885 -0.10 -0.03    +0.152 C  
DOCKED: ATOM      5  N   UNL     1     138.672  71.598 221.856 -0.06 +0.07    -0.330 N  
DOCKED: ENDROOT
DOCKED: BRANCH   1   6
DOCKED: ATOM      6  C   UNL     1     140.711  72.872 222.275 -0.22 -0.00    +0.075 C  
DOCKED: ATOM      7  O   UNL     1     140.692  74.133 222.325 -0.70 -0.04    -0.318 OA 
DOCKED: BRANCH   6   8
DOCKED: ATOM      8  N   UNL     1     141.769  72.173 221.604 +0.05 +0.05    -0.645 NA 
DOCKED: BRANCH   8   9
DOCKED: ATOM      9  C   UNL     1     142.281  72.384 220.246 -0.18 +0.01    -0.077 C  
DOCKED: ATOM     10  C   UNL     1     141.472  71.638 219.177 -0.08 +0.00    -0.008 C  
DOCKED: BRANCH   9  11
DOCKED: ATOM     11  C   UNL     1     142.401  73.871 219.929 -0.21 +0.01    -0.044 A  
DOCKED: ATOM     12  C   UNL     1     142.570  76.623 219.293 -0.28 -0.07    +0.120 A  
DOCKED: ATOM     13  C   UNL     1     141.356  75.943 219.171 -0.14 -0.02    +0.047 A  
DOCKED: ATOM     14  C   UNL     1     143.708  75.927 219.727 -0.39 -0.04    +0.067 A  
DOCKED: ATOM     15  C   UNL     1     141.268  74.586 219.474 -0.13 -0.00    +0.008 A  
DOCKED: ATOM     16  C   UNL     1     143.634  74.565 220.051 -0.37 -0.02    +0.046 A  
DOCKED: ATOM     17  Cl  UNL     1     145.118  73.784 220.593 -0.72 +0.02    -0.084 Cl 
DOCKED: BRANCH  12  18
DOCKED: ATOM     18  O   UNL     1     142.605  77.985 218.970 -0.13 +0.38    -0.497 OA 
DOCKED: ATOM     19  C   UNL     1     142.583  78.505 217.642 -0.19 -0.25    +0.278 C  
DOCKED: ENDBRANCH  12  18
DOCKED: ENDBRANCH   9  11
DOCKED: ENDBRANCH   8   9
DOCKED: ENDBRANCH   6   8
DOCKED: ENDBRANCH   1   6
DOCKED: BRANCH   5  20
DOCKED: ATOM     20  C   UNL     1     137.924  72.476 220.993 -0.05 -0.05    +0.242 C  
DOCKED: ATOM     21  O   UNL     1     137.845  72.222 219.762 -0.01 +0.05    -0.273 OA 
DOCKED: BRANCH  20  22
DOCKED: ATOM     22  C   UNL     1     137.189  73.665 221.540 -0.08 -0.05    +0.216 C  
DOCKED: BRANCH  22  23
DOCKED: ATOM     23  N   UNL     1     138.141  74.685 221.961 -0.11 +0.10    -0.342 N  
DOCKED: ATOM     24  C   UNL     1     138.340  75.900 221.221 -0.11 -0.06    +0.270 C  
DOCKED: ATOM     25  H   UNL     1     138.644  74.545 222.859 -0.54 -0.08    +0.164 HD 
DOCKED: ATOM     26  O   UNL     1     138.001  75.952 220.006 -0.02 +0.06    -0.268 OA 
DOCKED: BRANCH  24  27
DOCKED: ATOM     27  C   UNL     1     138.913  77.090 221.881 -0.21 -0.03    +0.128 A  
DOCKED: ATOM     28  C   UNL     1     138.129  77.914 222.707 -0.26 -0.01    +0.035 A  
DOCKED: ATOM     29  N   UNL     1     140.235  77.370 221.717 -0.17 +0.07    -0.243 NA 
DOCKED: ATOM     30  C   UNL     1     138.716  79.013 223.341 -0.30 -0.00    +0.013 A  
DOCKED: ATOM     31  C   UNL     1     140.832  78.429 222.321 -0.37 -0.02    +0.071 A  
DOCKED: ATOM     32  C   UNL     1     140.077  79.285 223.150 -0.42 -0.00    +0.003 A  
DOCKED: ATOM     33  C   UNL     1     142.196  78.669 222.124 -0.31 -0.02    +0.032 A  
DOCKED: ATOM     34  C   UNL     1     140.699  80.382 223.765 -0.42 -0.01    +0.049 A  
DOCKED: ATOM     35  C   UNL     1     142.810  79.761 222.743 -0.58 -0.02    +0.041 A  
DOCKED: ATOM     36  C   UNL     1     142.062  80.619 223.558 -0.53 -0.02    +0.123 A  
DOCKED: ATOM     37  F   UNL     1     142.665  81.672 224.159 -0.19 +0.02    -0.207 F  
DOCKED: ENDBRANCH  24  27
DOCKED: ENDBRANCH  22  23
DOCKED: ENDBRANCH  20  22
DOCKED: ENDBRANCH   5  20
DOCKED: BRANCH   3  38
DOCKED: ATOM     38  O   UNL     1     138.193  69.493 224.170 -0.12 +0.05    -0.391 OA 
DOCKED: ATOM     39  H   UNL     1     137.320  69.739 223.764 +0.07 -0.03    +0.211 HD 
DOCKED: ENDBRANCH   3  38
DOCKED: TORSDOF 10
DOCKED: TER
DOCKED: ENDMDL
________________________________________________________________________________


    FINAL DOCKED STATE:
    ________________________


Run:   12 / 20
Time taken for this run:   0.124s

DOCKED: MODEL        12
DOCKED: USER    Run = 12
DOCKED: USER
DOCKED: USER    Estimated Free Energy of Binding    =  -7.49 kcal/mol  [=(1)+(2)+(3)-(4)]
DOCKED: USER
DOCKED: USER    (1) Final Intermolecular Energy     = -10.48 kcal/mol
DOCKED: USER        vdW + Hbond + desolv Energy     = -10.73 kcal/mol
DOCKED: USER        Electrostatic Energy            =  +0.25 kcal/mol
DOCKED: USER        Moving Ligand-Fixed Receptor    = -10.48 kcal/mol
DOCKED: USER        Moving Ligand-Moving Receptor   =  +0.00 kcal/mol
DOCKED: USER    (2) Final Total Internal Energy     =  -2.94 kcal/mol
DOCKED: USER    (3) Torsional Free Energy           =  +2.98 kcal/mol
DOCKED: USER    (4) Unbound System's Energy         =  -2.94 kcal/mol
DOCKED: USER
DOCKED: USER
DOCKED: REMARK SMILES COc1ccc([C@H](C)[N-]C(=O)[C@@H]2C[C@@H](O)CN2C(=O)CNC(=O)c2ccc3cc(F)ccc3n2)c(Cl)c1
DOCKED: REMARK SMILES IDX 12 1 13 2 14 3 16 4 17 5 10 6 11 7 9 8 7 9 8 10 6 11 3 12
DOCKED: REMARK SMILES IDX 4 13 37 14 5 15 35 16 36 17 2 18 1 19 18 20 19 21 20 22
DOCKED: REMARK SMILES IDX 21 23 22 24 23 26 24 27 25 28 34 29 26 30 33 31 27 32 32 33
DOCKED: REMARK SMILES IDX 28 34 31 35 29 36 30 37 15 38
DOCKED: REMARK H PARENT 21 25 15 39
DOCKED: USER                              x       y       z     vdW  Elec       q    Type
DOCKED: USER                           _______ _______ _______ _____ _____    ______ ____
DOCKED: ROOT
DOCKED: ATOM      1  C   UNL     1     141.314  76.476 219.522 -0.15 -0.06    +0.136 C  
DOCKED: ATOM      2  C   UNL     1     142.577  76.536 218.659 -0.27 -0.04    +0.065 C  
DOCKED: ATOM      3  C   UNL     1     143.541  75.499 219.246 -0.28 -0.07    +0.136 C  
DOCKED: ATOM      4  C   UNL     1     142.667  74.533 220.043 -0.23 -0.05    +0.152 C  
DOCKED: ATOM      5  N   UNL     1     141.422  75.242 220.290 -0.10 +0.11    -0.330 N  
DOCKED: ENDROOT
DOCKED: BRANCH   1   6
DOCKED: ATOM      6  C   UNL     1     140.071  76.475 218.674 -0.05 -0.02    +0.075 C  
DOCKED: ATOM      7  O   UNL     1     139.731  75.424 218.062 -0.00 +0.08    -0.318 OA 
DOCKED: BRANCH   6   8
DOCKED: ATOM      8  N   UNL     1     139.317  77.687 218.538 +0.04 +0.19    -0.645 NA 
DOCKED: BRANCH   8   9
DOCKED: ATOM      9  C   UNL     1     138.696  78.496 219.593 -0.04 +0.02    -0.077 C  
DOCKED: ATOM     10  C   UNL     1     137.410  77.870 220.150 -0.04 +0.00    -0.008 C  
DOCKED: BRANCH   9  11
DOCKED: ATOM     11  C   UNL     1     139.696  78.814 220.701 -0.13 +0.01    -0.044 A  
DOCKED: ATOM     12  C   UNL     1     141.494  79.407 222.804 -0.44 -0.04    +0.120 A  
DOCKED: ATOM     13  C   UNL     1     140.315  78.700 223.059 -0.40 -0.01    +0.047 A  
DOCKED: ATOM     14  C   UNL     1     141.774  79.825 221.495 -0.38 -0.03    +0.067 A  
DOCKED: ATOM     15  C   UNL     1     139.422  78.413 222.031 -0.26 -0.00    +0.008 A  
DOCKED: ATOM     16  C   UNL     1     140.893  79.532 220.444 -0.22 -0.02    +0.046 A  
DOCKED: ATOM     17  Cl  UNL     1     141.339  80.097 218.836 -0.28 +0.04    -0.084 Cl 
DOCKED: BRANCH  12  18
DOCKED: ATOM     18  O   UNL     1     142.355  79.673 223.875 -0.22 +0.13    -0.497 OA 
DOCKED: ATOM     19  C   UNL     1     143.074  80.892 224.053 -0.30 -0.05    +0.278 C  
DOCKED: ENDBRANCH  12  18
DOCKED: ENDBRANCH   9  11
DOCKED: ENDBRANCH   8   9
DOCKED: ENDBRANCH   6   8
DOCKED: ENDBRANCH   1   6
DOCKED: BRANCH   5  20
DOCKED: ATOM     20  C   UNL     1     140.449  74.844 221.275 -0.21 -0.05    +0.242 C  
DOCKED: ATOM     21  O   UNL     1     140.337  75.501 222.343 -0.55 +0.03    -0.273 OA 
DOCKED: BRANCH  20  22
DOCKED: ATOM     22  C   UNL     1     139.525  73.685 221.032 -0.14 -0.04    +0.216 C  
DOCKED: BRANCH  22  23
DOCKED: ATOM     23  N   UNL     1     139.325  72.942 222.269 -0.13 +0.08    -0.342 N  
DOCKED: ATOM     24  C   UNL     1     138.957  71.554 222.278 -0.14 -0.06    +0.270 C  
DOCKED: ATOM     25  H   UNL     1     139.516  73.426 223.169 -0.47 -0.05    +0.164 HD 
DOCKED: ATOM     26  O   UNL     1     138.421  71.045 221.256 -0.04 +0.05    -0.268 OA 
DOCKED: BRANCH  24  27
DOCKED: ATOM     27  C   UNL     1     139.226  70.719 223.467 -0.25 -0.02    +0.128 A  
DOCKED: ATOM     28  C   UNL     1     138.908  69.350 223.484 -0.25 -0.01    +0.035 A  
DOCKED: ATOM     29  N   UNL     1     139.830  71.280 224.550 -0.27 +0.05    -0.243 NA 
DOCKED: ATOM     30  C   UNL     1     139.208  68.586 224.614 -0.37 -0.00    +0.013 A  
DOCKED: ATOM     31  C   UNL     1     140.134  70.562 225.662 -0.47 -0.01    +0.071 A  
DOCKED: ATOM     32  C   UNL     1     139.822  69.187 225.721 -0.47 -0.00    +0.003 A  
DOCKED: ATOM     33  C   UNL     1     140.761  71.185 226.746 -0.66 -0.01    +0.032 A  
DOCKED: ATOM     34  C   UNL     1     140.133  68.453 226.875 -0.60 -0.01    +0.049 A  
DOCKED: ATOM     35  C   UNL     1     141.071  70.447 227.892 -0.60 -0.01    +0.041 A  
DOCKED: ATOM     36  C   UNL     1     140.754  69.086 227.959 -0.53 -0.03    +0.123 A  
DOCKED: ATOM     37  F   UNL     1     141.062  68.375 229.070 -0.17 +0.05    -0.207 F  
DOCKED: ENDBRANCH  24  27
DOCKED: ENDBRANCH  22  23
DOCKED: ENDBRANCH  20  22
DOCKED: ENDBRANCH   5  20
DOCKED: BRANCH   3  38
DOCKED: ATOM     38  O   UNL     1     144.451  76.137 220.104 -0.20 +0.31    -0.391 OA 
DOCKED: ATOM     39  H   UNL     1     144.198  77.097 220.129 -0.47 -0.23    +0.211 HD 
DOCKED: ENDBRANCH   3  38
DOCKED: TORSDOF 10
DOCKED: TER
DOCKED: ENDMDL
________________________________________________________________________________


    FINAL DOCKED STATE:
    ________________________


Run:   13 / 20
Time taken for this run:   0.124s

DOCKED: MODEL        13
DOCKED: USER    Run = 13
DOCKED: USER
DOCKED: USER    Estimated Free Energy of Binding    =  -5.10 kcal/mol  [=(1)+(2)+(3)-(4)]
DOCKED: USER
DOCKED: USER    (1) Final Intermolecular Energy     =  -8.09 kcal/mol
DOCKED: USER        vdW + Hbond + desolv Energy     =  -8.30 kcal/mol
DOCKED: USER        Electrostatic Energy            =  +0.21 kcal/mol
DOCKED: USER        Moving Ligand-Fixed Receptor    =  -8.09 kcal/mol
DOCKED: USER        Moving Ligand-Moving Receptor   =  +0.00 kcal/mol
DOCKED: USER    (2) Final Total Internal Energy     =  -4.99 kcal/mol
DOCKED: USER    (3) Torsional Free Energy           =  +2.98 kcal/mol
DOCKED: USER    (4) Unbound System's Energy         =  -4.99 kcal/mol
DOCKED: USER
DOCKED: USER
DOCKED: REMARK SMILES COc1ccc([C@H](C)[N-]C(=O)[C@@H]2C[C@@H](O)CN2C(=O)CNC(=O)c2ccc3cc(F)ccc3n2)c(Cl)c1
DOCKED: REMARK SMILES IDX 12 1 13 2 14 3 16 4 17 5 10 6 11 7 9 8 7 9 8 10 6 11 3 12
DOCKED: REMARK SMILES IDX 4 13 37 14 5 15 35 16 36 17 2 18 1 19 18 20 19 21 20 22
DOCKED: REMARK SMILES IDX 21 23 22 24 23 26 24 27 25 28 34 29 26 30 33 31 27 32 32 33
DOCKED: REMARK SMILES IDX 28 34 31 35 29 36 30 37 15 38
DOCKED: REMARK H PARENT 21 25 15 39
DOCKED: USER                              x       y       z     vdW  Elec       q    Type
DOCKED: USER                           _______ _______ _______ _____ _____    ______ ____
DOCKED: ROOT
DOCKED: ATOM      1  C   UNL     1     140.309  76.693 222.500 -0.24 -0.03    +0.136 C  
DOCKED: ATOM      2  C   UNL     1     141.114  75.502 221.973 -0.18 -0.02    +0.065 C  
DOCKED: ATOM      3  C   UNL     1     140.126  74.641 221.179 -0.22 -0.03    +0.136 C  
DOCKED: ATOM      4  C   UNL     1     138.969  75.571 220.821 -0.12 -0.03    +0.152 C  
DOCKED: ATOM      5  N   UNL     1     139.063  76.690 221.744 -0.12 +0.07    -0.330 N  
DOCKED: ENDROOT
DOCKED: BRANCH   1   6
DOCKED: ATOM      6  C   UNL     1     141.054  77.987 222.305 -0.41 -0.03    +0.075 C  
DOCKED: ATOM      7  O   UNL     1     141.781  78.143 221.286 -0.21 +0.19    -0.318 OA 
DOCKED: BRANCH   6   8
DOCKED: ATOM      8  N   UNL     1     140.958  79.005 223.311 -0.02 +0.16    -0.645 NA 
DOCKED: BRANCH   8   9
DOCKED: ATOM      9  C   UNL     1     141.661  80.291 223.373 -0.55 +0.02    -0.077 C  
DOCKED: ATOM     10  C   UNL     1     143.151  80.179 223.024 -0.62 +0.00    -0.008 C  
DOCKED: BRANCH   9  11
DOCKED: ATOM     11  C   UNL     1     140.958  81.342 222.520 -0.40 +0.01    -0.044 A  
DOCKED: ATOM     12  C   UNL     1     139.716  83.330 220.934 -0.18 -0.02    +0.120 A  
DOCKED: ATOM     13  C   UNL     1     141.080  83.059 220.789 -0.25 -0.01    +0.047 A  
DOCKED: ATOM     14  C   UNL     1     138.970  82.611 221.879 -0.15 -0.01    +0.067 A  
DOCKED: ATOM     15  C   UNL     1     141.699  82.089 221.573 -0.33 -0.00    +0.008 A  
DOCKED: ATOM     16  C   UNL     1     139.573  81.620 222.666 -0.22 -0.01    +0.046 A  
DOCKED: ATOM     17  Cl  UNL     1     138.547  80.770 223.818 -0.46 +0.01    -0.084 Cl 
DOCKED: BRANCH  12  18
DOCKED: ATOM     18  O   UNL     1     139.145  84.319 220.125 -0.02 +0.09    -0.497 OA 
DOCKED: ATOM     19  C   UNL     1     138.201  84.070 219.085 -0.02 -0.05    +0.278 C  
DOCKED: ENDBRANCH  12  18
DOCKED: ENDBRANCH   9  11
DOCKED: ENDBRANCH   8   9
DOCKED: ENDBRANCH   6   8
DOCKED: ENDBRANCH   1   6
DOCKED: BRANCH   5  20
DOCKED: ATOM     20  C   UNL     1     137.997  77.629 221.985 -0.14 -0.05    +0.242 C  
DOCKED: ATOM     21  O   UNL     1     137.131  77.378 222.863 -0.17 +0.05    -0.273 OA 
DOCKED: BRANCH  20  22
DOCKED: ATOM     22  C   UNL     1     137.926  78.932 221.242 -0.06 -0.04    +0.216 C  
DOCKED: BRANCH  22  23
DOCKED: ATOM     23  N   UNL     1     139.229  79.250 220.674 -0.01 +0.09    -0.342 N  
DOCKED: ATOM     24  C   UNL     1     139.442  79.359 219.258 -0.02 -0.08    +0.270 C  
DOCKED: ATOM     25  H   UNL     1     140.010  79.462 221.326 +0.07 -0.05    +0.164 HD 
DOCKED: ATOM     26  O   UNL     1     138.632  78.811 218.462 -0.00 +0.07    -0.268 OA 
DOCKED: BRANCH  24  27
DOCKED: ATOM     27  C   UNL     1     140.589  80.130 218.733 -0.10 -0.05    +0.128 A  
DOCKED: ATOM     28  C   UNL     1     141.874  79.566 218.659 -0.27 -0.02    +0.035 A  
DOCKED: ATOM     29  N   UNL     1     140.385  81.396 218.276 -0.04 +0.09    -0.243 NA 
DOCKED: ATOM     30  C   UNL     1     142.926  80.315 218.126 -0.30 -0.01    +0.013 A  
DOCKED: ATOM     31  C   UNL     1     141.388  82.147 217.752 -0.16 -0.03    +0.071 A  
DOCKED: ATOM     32  C   UNL     1     142.694  81.619 217.670 -0.33 -0.00    +0.003 A  
DOCKED: ATOM     33  C   UNL     1     141.124  83.441 217.290 -0.12 -0.01    +0.032 A  
DOCKED: ATOM     34  C   UNL     1     143.727  82.404 217.134 -0.39 -0.05    +0.049 A  
DOCKED: ATOM     35  C   UNL     1     142.157  84.215 216.755 -0.14 -0.02    +0.041 A  
DOCKED: ATOM     36  C   UNL     1     143.456  83.700 216.681 -0.28 -0.07    +0.123 A  
DOCKED: ATOM     37  F   UNL     1     144.451  84.453 216.154 -0.08 +0.09    -0.207 F  
DOCKED: ENDBRANCH  24  27
DOCKED: ENDBRANCH  22  23
DOCKED: ENDBRANCH  20  22
DOCKED: ENDBRANCH   5  20
DOCKED: BRANCH   3  38
DOCKED: ATOM     38  O   UNL     1     139.661  73.592 221.989 -0.51 +0.06    -0.391 OA 
DOCKED: ATOM     39  H   UNL     1     139.144  74.008 222.729 -0.51 -0.07    +0.211 HD 
DOCKED: ENDBRANCH   3  38
DOCKED: TORSDOF 10
DOCKED: TER
DOCKED: ENDMDL
________________________________________________________________________________


    FINAL DOCKED STATE:
    ________________________


Run:   14 / 20
Time taken for this run:   0.124s

DOCKED: MODEL        14
DOCKED: USER    Run = 14
DOCKED: USER
DOCKED: USER    Estimated Free Energy of Binding    =  -6.71 kcal/mol  [=(1)+(2)+(3)-(4)]
DOCKED: USER
DOCKED: USER    (1) Final Intermolecular Energy     =  -9.70 kcal/mol
DOCKED: USER        vdW + Hbond + desolv Energy     =  -9.69 kcal/mol
DOCKED: USER        Electrostatic Energy            =  -0.01 kcal/mol
DOCKED: USER        Moving Ligand-Fixed Receptor    =  -9.70 kcal/mol
DOCKED: USER        Moving Ligand-Moving Receptor   =  +0.00 kcal/mol
DOCKED: USER    (2) Final Total Internal Energy     =  -3.26 kcal/mol
DOCKED: USER    (3) Torsional Free Energy           =  +2.98 kcal/mol
DOCKED: USER    (4) Unbound System's Energy         =  -3.26 kcal/mol
DOCKED: USER
DOCKED: USER
DOCKED: REMARK SMILES COc1ccc([C@H](C)[N-]C(=O)[C@@H]2C[C@@H](O)CN2C(=O)CNC(=O)c2ccc3cc(F)ccc3n2)c(Cl)c1
DOCKED: REMARK SMILES IDX 12 1 13 2 14 3 16 4 17 5 10 6 11 7 9 8 7 9 8 10 6 11 3 12
DOCKED: REMARK SMILES IDX 4 13 37 14 5 15 35 16 36 17 2 18 1 19 18 20 19 21 20 22
DOCKED: REMARK SMILES IDX 21 23 22 24 23 26 24 27 25 28 34 29 26 30 33 31 27 32 32 33
DOCKED: REMARK SMILES IDX 28 34 31 35 29 36 30 37 15 38
DOCKED: REMARK H PARENT 21 25 15 39
DOCKED: USER                              x       y       z     vdW  Elec       q    Type
DOCKED: USER                           _______ _______ _______ _____ _____    ______ ____
DOCKED: ROOT
DOCKED: ATOM      1  C   UNL     1     138.884  75.594 221.556 -0.21 -0.03    +0.136 C  
DOCKED: ATOM      2  C   UNL     1     138.478  76.414 222.783 -0.23 -0.01    +0.065 C  
DOCKED: ATOM      3  C   UNL     1     136.986  76.137 223.003 -0.21 -0.03    +0.136 C  
DOCKED: ATOM      4  C   UNL     1     136.705  74.820 222.283 -0.14 -0.04    +0.152 C  
DOCKED: ATOM      5  N   UNL     1     137.799  74.644 221.342 -0.06 +0.08    -0.330 N  
DOCKED: ENDROOT
DOCKED: BRANCH   1   6
DOCKED: ATOM      6  C   UNL     1     140.188  74.878 221.784 -0.24 -0.01    +0.075 C  
DOCKED: ATOM      7  O   UNL     1     140.192  73.747 222.345 -0.81 +0.00    -0.318 OA 
DOCKED: BRANCH   6   8
DOCKED: ATOM      8  N   UNL     1     141.412  75.518 221.400 -0.05 +0.22    -0.645 NA 
DOCKED: BRANCH   8   9
DOCKED: ATOM      9  C   UNL     1     142.027  75.585 220.070 -0.26 +0.03    -0.077 C  
DOCKED: ATOM     10  C   UNL     1     142.592  76.973 219.739 -0.34 +0.01    -0.008 C  
DOCKED: BRANCH   9  11
DOCKED: ATOM     11  C   UNL     1     143.076  74.491 219.895 -0.30 +0.02    -0.044 A  
DOCKED: ATOM     12  C   UNL     1     145.072  72.514 219.560 -0.30 +0.02    +0.120 A  
DOCKED: ATOM     13  C   UNL     1     145.398  73.764 220.094 -0.51 -0.01    +0.047 A  
DOCKED: ATOM     14  C   UNL     1     143.747  72.251 219.184 -0.16 -0.00    +0.067 A  
DOCKED: ATOM     15  C   UNL     1     144.422  74.745 220.253 -0.43 -0.00    +0.008 A  
DOCKED: ATOM     16  C   UNL     1     142.749  73.221 219.351 -0.15 -0.01    +0.046 A  
DOCKED: ATOM     17  Cl  UNL     1     141.114  72.790 218.854 -0.06 +0.02    -0.084 Cl 
DOCKED: BRANCH  12  18
DOCKED: ATOM     18  O   UNL     1     146.093  71.566 219.417 -0.35 -0.46    -0.497 OA 
DOCKED: ATOM     19  C   UNL     1     145.898  70.228 218.964 -0.18 +0.18    +0.278 C  
DOCKED: ENDBRANCH  12  18
DOCKED: ENDBRANCH   9  11
DOCKED: ENDBRANCH   8   9
DOCKED: ENDBRANCH   6   8
DOCKED: ENDBRANCH   1   6
DOCKED: BRANCH   5  20
DOCKED: ATOM     20  C   UNL     1     137.772  73.720 220.238 -0.03 -0.05    +0.242 C  
DOCKED: ATOM     21  O   UNL     1     137.672  74.156 219.061 -0.01 +0.05    -0.273 OA 
DOCKED: BRANCH  20  22
DOCKED: ATOM     22  C   UNL     1     137.912  72.241 220.457 -0.03 -0.04    +0.216 C  
DOCKED: BRANCH  22  23
DOCKED: ATOM     23  N   UNL     1     138.123  71.968 221.872 -0.05 +0.08    -0.342 N  
DOCKED: ATOM     24  C   UNL     1     137.778  70.708 222.469 -0.09 -0.05    +0.270 C  
DOCKED: ATOM     25  H   UNL     1     138.594  72.694 222.448 -0.09 -0.05    +0.164 HD 
DOCKED: ATOM     26  O   UNL     1     136.941  69.956 221.898 -0.03 +0.04    -0.268 OA 
DOCKED: BRANCH  24  27
DOCKED: ATOM     27  C   UNL     1     138.417  70.280 223.731 -0.22 -0.02    +0.128 A  
DOCKED: ATOM     28  C   UNL     1     138.259  68.973 224.223 -0.30 -0.00    +0.035 A  
DOCKED: ATOM     29  N   UNL     1     139.205  71.160 224.408 -0.23 +0.06    -0.243 NA 
DOCKED: ATOM     30  C   UNL     1     138.906  68.597 225.403 -0.44 -0.00    +0.013 A  
DOCKED: ATOM     31  C   UNL     1     139.847  70.823 225.557 -0.44 -0.01    +0.071 A  
DOCKED: ATOM     32  C   UNL     1     139.705  69.522 226.086 -0.48 -0.00    +0.003 A  
DOCKED: ATOM     33  C   UNL     1     140.651  71.762 226.210 -0.57 -0.01    +0.032 A  
DOCKED: ATOM     34  C   UNL     1     140.366  69.182 227.277 -0.57 -0.01    +0.049 A  
DOCKED: ATOM     35  C   UNL     1     141.308  71.416 227.394 -0.63 -0.01    +0.041 A  
DOCKED: ATOM     36  C   UNL     1     141.163  70.131 227.929 -0.44 -0.02    +0.123 A  
DOCKED: ATOM     37  F   UNL     1     141.808  69.799 229.073 -0.01 +0.05    -0.207 F  
DOCKED: ENDBRANCH  24  27
DOCKED: ENDBRANCH  22  23
DOCKED: ENDBRANCH  20  22
DOCKED: ENDBRANCH   5  20
DOCKED: BRANCH   3  38
DOCKED: ATOM     38  O   UNL     1     136.226  77.167 222.427 -0.07 +0.06    -0.391 OA 
DOCKED: ATOM     39  H   UNL     1     135.874  76.817 221.566 +0.04 -0.04    +0.211 HD 
DOCKED: ENDBRANCH   3  38
DOCKED: TORSDOF 10
DOCKED: TER
DOCKED: ENDMDL
________________________________________________________________________________


    FINAL DOCKED STATE:
    ________________________


Run:   15 / 20
Time taken for this run:   0.124s

DOCKED: MODEL        15
DOCKED: USER    Run = 15
DOCKED: USER
DOCKED: USER    Estimated Free Energy of Binding    =  -7.01 kcal/mol  [=(1)+(2)+(3)-(4)]
DOCKED: USER
DOCKED: USER    (1) Final Intermolecular Energy     =  -9.99 kcal/mol
DOCKED: USER        vdW + Hbond + desolv Energy     = -10.18 kcal/mol
DOCKED: USER        Electrostatic Energy            =  +0.19 kcal/mol
DOCKED: USER        Moving Ligand-Fixed Receptor    =  -9.99 kcal/mol
DOCKED: USER        Moving Ligand-Moving Receptor   =  +0.00 kcal/mol
DOCKED: USER    (2) Final Total Internal Energy     =  -3.38 kcal/mol
DOCKED: USER    (3) Torsional Free Energy           =  +2.98 kcal/mol
DOCKED: USER    (4) Unbound System's Energy         =  -3.38 kcal/mol
DOCKED: USER
DOCKED: USER
DOCKED: REMARK SMILES COc1ccc([C@H](C)[N-]C(=O)[C@@H]2C[C@@H](O)CN2C(=O)CNC(=O)c2ccc3cc(F)ccc3n2)c(Cl)c1
DOCKED: REMARK SMILES IDX 12 1 13 2 14 3 16 4 17 5 10 6 11 7 9 8 7 9 8 10 6 11 3 12
DOCKED: REMARK SMILES IDX 4 13 37 14 5 15 35 16 36 17 2 18 1 19 18 20 19 21 20 22
DOCKED: REMARK SMILES IDX 21 23 22 24 23 26 24 27 25 28 34 29 26 30 33 31 27 32 32 33
DOCKED: REMARK SMILES IDX 28 34 31 35 29 36 30 37 15 38
DOCKED: REMARK H PARENT 21 25 15 39
DOCKED: USER                              x       y       z     vdW  Elec       q    Type
DOCKED: USER                           _______ _______ _______ _____ _____    ______ ____
DOCKED: ROOT
DOCKED: ATOM      1  C   UNL     1     140.225  71.312 221.672 -0.17 -0.02    +0.136 C  
DOCKED: ATOM      2  C   UNL     1     141.605  71.890 221.352 -0.20 -0.01    +0.065 C  
DOCKED: ATOM      3  C   UNL     1     141.890  71.525 219.891 -0.11 -0.02    +0.136 C  
DOCKED: ATOM      4  C   UNL     1     140.525  71.241 219.267 -0.04 -0.03    +0.152 C  
DOCKED: ATOM      5  N   UNL     1     139.629  70.982 220.383 -0.02 +0.06    -0.330 N  
DOCKED: ENDROOT
DOCKED: BRANCH   1   6
DOCKED: ATOM      6  C   UNL     1     139.375  72.305 222.419 -0.24 -0.02    +0.075 C  
DOCKED: ATOM      7  O   UNL     1     138.364  71.905 223.062 -0.14 +0.10    -0.318 OA 
DOCKED: BRANCH   6   8
DOCKED: ATOM      8  N   UNL     1     139.704  73.698 222.347 -0.58 +0.09    -0.645 NA 
DOCKED: BRANCH   8   9
DOCKED: ATOM      9  C   UNL     1     138.984  74.770 221.650 -0.23 +0.02    -0.077 C  
DOCKED: ATOM     10  C   UNL     1     137.475  74.759 221.931 -0.19 +0.00    -0.008 C  
DOCKED: BRANCH   9  11
DOCKED: ATOM     11  C   UNL     1     139.605  76.131 221.946 -0.32 +0.01    -0.044 A  
DOCKED: ATOM     12  C   UNL     1     140.690  78.686 222.497 -0.34 -0.04    +0.120 A  
DOCKED: ATOM     13  C   UNL     1     139.430  78.331 222.989 -0.29 -0.01    +0.047 A  
DOCKED: ATOM     14  C   UNL     1     141.409  77.765 221.722 -0.30 -0.03    +0.067 A  
DOCKED: ATOM     15  C   UNL     1     138.887  77.079 222.713 -0.29 -0.00    +0.008 A  
DOCKED: ATOM     16  C   UNL     1     140.884  76.494 221.448 -0.32 -0.02    +0.046 A  
DOCKED: ATOM     17  Cl  UNL     1     141.869  75.409 220.470 -0.36 +0.03    -0.084 Cl 
DOCKED: BRANCH  12  18
DOCKED: ATOM     18  O   UNL     1     141.187  79.959 222.800 -0.12 +0.13    -0.497 OA 
DOCKED: ATOM     19  C   UNL     1     142.546  80.241 223.129 -0.44 -0.08    +0.278 C  
DOCKED: ENDBRANCH  12  18
DOCKED: ENDBRANCH   9  11
DOCKED: ENDBRANCH   8   9
DOCKED: ENDBRANCH   6   8
DOCKED: ENDBRANCH   1   6
DOCKED: BRANCH   5  20
DOCKED: ATOM     20  C   UNL     1     138.339  70.354 220.252 -0.02 -0.04    +0.242 C  
DOCKED: ATOM     21  O   UNL     1     137.491  70.831 219.453 -0.00 +0.05    -0.273 OA 
DOCKED: BRANCH  20  22
DOCKED: ATOM     22  C   UNL     1     138.000  69.106 221.014 -0.06 -0.04    +0.216 C  
DOCKED: BRANCH  22  23
DOCKED: ATOM     23  N   UNL     1     138.145  69.344 222.444 -0.06 +0.06    -0.342 N  
DOCKED: ATOM     24  C   UNL     1     138.723  68.371 223.328 -0.16 -0.04    +0.270 C  
DOCKED: ATOM     25  H   UNL     1     137.872  70.275 222.817 +0.05 -0.03    +0.164 HD 
DOCKED: ATOM     26  O   UNL     1     138.761  67.158 222.981 -0.28 +0.04    -0.268 OA 
DOCKED: BRANCH  24  27
DOCKED: ATOM     27  C   UNL     1     139.293  68.787 224.626 -0.29 -0.02    +0.128 A  
DOCKED: ATOM     28  C   UNL     1     139.421  67.880 225.692 -0.52 -0.00    +0.035 A  
DOCKED: ATOM     29  N   UNL     1     139.737  70.065 224.777 -0.21 +0.04    -0.243 NA 
DOCKED: ATOM     30  C   UNL     1     139.996  68.303 226.893 -0.64 -0.00    +0.013 A  
DOCKED: ATOM     31  C   UNL     1     140.300  70.505 225.932 -0.50 -0.01    +0.071 A  
DOCKED: ATOM     32  C   UNL     1     140.438  69.626 227.027 -0.57 -0.00    +0.003 A  
DOCKED: ATOM     33  C   UNL     1     140.748  71.826 226.033 -0.55 -0.01    +0.032 A  
DOCKED: ATOM     34  C   UNL     1     141.015  70.089 228.220 -0.53 -0.01    +0.049 A  
DOCKED: ATOM     35  C   UNL     1     141.324  72.279 227.223 -0.78 -0.01    +0.041 A  
DOCKED: ATOM     36  C   UNL     1     141.453  71.414 228.316 -0.51 -0.02    +0.123 A  
DOCKED: ATOM     37  F   UNL     1     142.018  71.858 229.464 +0.15 +0.06    -0.207 F  
DOCKED: ENDBRANCH  24  27
DOCKED: ENDBRANCH  22  23
DOCKED: ENDBRANCH  20  22
DOCKED: ENDBRANCH   5  20
DOCKED: BRANCH   3  38
DOCKED: ATOM     38  O   UNL     1     142.686  70.369 219.842 -0.06 +0.04    -0.391 OA 
DOCKED: ATOM     39  H   UNL     1     142.075  69.607 219.660 +0.05 -0.03    +0.211 HD 
DOCKED: ENDBRANCH   3  38
DOCKED: TORSDOF 10
DOCKED: TER
DOCKED: ENDMDL
________________________________________________________________________________


    FINAL DOCKED STATE:
    ________________________


Run:   16 / 20
Time taken for this run:   0.124s

DOCKED: MODEL        16
DOCKED: USER    Run = 16
DOCKED: USER
DOCKED: USER    Estimated Free Energy of Binding    =  -8.23 kcal/mol  [=(1)+(2)+(3)-(4)]
DOCKED: USER
DOCKED: USER    (1) Final Intermolecular Energy     = -11.21 kcal/mol
DOCKED: USER        vdW + Hbond + desolv Energy     = -11.35 kcal/mol
DOCKED: USER        Electrostatic Energy            =  +0.14 kcal/mol
DOCKED: USER        Moving Ligand-Fixed Receptor    = -11.21 kcal/mol
DOCKED: USER        Moving Ligand-Moving Receptor   =  +0.00 kcal/mol
DOCKED: USER    (2) Final Total Internal Energy     =  -2.55 kcal/mol
DOCKED: USER    (3) Torsional Free Energy           =  +2.98 kcal/mol
DOCKED: USER    (4) Unbound System's Energy         =  -2.55 kcal/mol
DOCKED: USER
DOCKED: USER
DOCKED: REMARK SMILES COc1ccc([C@H](C)[N-]C(=O)[C@@H]2C[C@@H](O)CN2C(=O)CNC(=O)c2ccc3cc(F)ccc3n2)c(Cl)c1
DOCKED: REMARK SMILES IDX 12 1 13 2 14 3 16 4 17 5 10 6 11 7 9 8 7 9 8 10 6 11 3 12
DOCKED: REMARK SMILES IDX 4 13 37 14 5 15 35 16 36 17 2 18 1 19 18 20 19 21 20 22
DOCKED: REMARK SMILES IDX 21 23 22 24 23 26 24 27 25 28 34 29 26 30 33 31 27 32 32 33
DOCKED: REMARK SMILES IDX 28 34 31 35 29 36 30 37 15 38
DOCKED: REMARK H PARENT 21 25 15 39
DOCKED: USER                              x       y       z     vdW  Elec       q    Type
DOCKED: USER                           _______ _______ _______ _____ _____    ______ ____
DOCKED: ROOT
DOCKED: ATOM      1  C   UNL     1     143.611  73.646 220.577 -0.27 -0.03    +0.136 C  
DOCKED: ATOM      2  C   UNL     1     145.052  74.035 220.239 -0.45 -0.02    +0.065 C  
DOCKED: ATOM      3  C   UNL     1     145.592  72.918 219.339 -0.32 +0.04    +0.136 C  
DOCKED: ATOM      4  C   UNL     1     144.359  72.228 218.759 -0.15 +0.01    +0.152 C  
DOCKED: ATOM      5  N   UNL     1     143.256  72.593 219.634 -0.06 +0.05    -0.330 N  
DOCKED: ENDROOT
DOCKED: BRANCH   1   6
DOCKED: ATOM      6  C   UNL     1     142.681  74.822 220.445 -0.28 -0.03    +0.075 C  
DOCKED: ATOM      7  O   UNL     1     142.849  75.650 219.507 -0.19 +0.16    -0.318 OA 
DOCKED: BRANCH   6   8
DOCKED: ATOM      8  N   UNL     1     141.645  75.006 221.419 -0.02 +0.18    -0.645 NA 
DOCKED: BRANCH   8   9
DOCKED: ATOM      9  C   UNL     1     140.547  75.979 221.408 -0.30 +0.02    -0.077 C  
DOCKED: ATOM     10  C   UNL     1     139.364  75.559 222.290 -0.29 +0.00    -0.008 C  
DOCKED: BRANCH   9  11
DOCKED: ATOM     11  C   UNL     1     141.048  77.376 221.762 -0.36 +0.02    -0.044 A  
DOCKED: ATOM     12  C   UNL     1     141.941  79.962 222.483 -0.46 -0.04    +0.120 A  
DOCKED: ATOM     13  C   UNL     1     141.689  79.001 223.467 -0.57 -0.01    +0.047 A  
DOCKED: ATOM     14  C   UNL     1     141.741  79.634 221.135 -0.34 -0.03    +0.067 A  
DOCKED: ATOM     15  C   UNL     1     141.240  77.730 223.119 -0.39 -0.00    +0.008 A  
DOCKED: ATOM     16  C   UNL     1     141.304  78.354 220.766 -0.28 -0.02    +0.046 A  
DOCKED: ATOM     17  Cl  UNL     1     141.089  78.040 219.045 -0.22 +0.04    -0.084 Cl 
DOCKED: BRANCH  12  18
DOCKED: ATOM     18  O   UNL     1     142.386  81.226 222.888 -0.20 +0.10    -0.497 OA 
DOCKED: ATOM     19  C   UNL     1     142.600  81.615 224.243 -0.24 -0.03    +0.278 C  
DOCKED: ENDBRANCH  12  18
DOCKED: ENDBRANCH   9  11
DOCKED: ENDBRANCH   8   9
DOCKED: ENDBRANCH   6   8
DOCKED: ENDBRANCH   1   6
DOCKED: BRANCH   5  20
DOCKED: ATOM     20  C   UNL     1     141.988  71.911 219.659 -0.07 -0.04    +0.242 C  
DOCKED: ATOM     21  O   UNL     1     141.917  70.711 219.286 -0.05 +0.04    -0.273 OA 
DOCKED: BRANCH  20  22
DOCKED: ATOM     22  C   UNL     1     140.750  72.589 220.172 -0.08 -0.04    +0.216 C  
DOCKED: BRANCH  22  23
DOCKED: ATOM     23  N   UNL     1     140.676  72.454 221.621 -0.13 +0.04    -0.342 N  
DOCKED: ATOM     24  C   UNL     1     139.841  71.475 222.257 -0.17 -0.04    +0.270 C  
DOCKED: ATOM     25  H   UNL     1     141.296  73.052 222.202 +0.05 +0.00    +0.164 HD 
DOCKED: ATOM     26  O   UNL     1     138.871  70.976 221.623 -0.07 +0.05    -0.268 OA 
DOCKED: BRANCH  24  27
DOCKED: ATOM     27  C   UNL     1     140.128  71.032 223.637 -0.30 -0.02    +0.128 A  
DOCKED: ATOM     28  C   UNL     1     140.703  71.904 224.578 -0.30 -0.00    +0.035 A  
DOCKED: ATOM     29  N   UNL     1     139.792  69.768 224.013 -0.13 +0.04    -0.243 NA 
DOCKED: ATOM     30  C   UNL     1     140.930  71.458 225.883 -0.63 -0.00    +0.013 A  
DOCKED: ATOM     31  C   UNL     1     140.000  69.307 225.274 -0.37 -0.01    +0.071 A  
DOCKED: ATOM     32  C   UNL     1     140.584  70.150 226.244 -0.55 -0.00    +0.003 A  
DOCKED: ATOM     33  C   UNL     1     139.630  68.001 225.611 -0.51 -0.00    +0.032 A  
DOCKED: ATOM     34  C   UNL     1     140.801  69.666 227.543 -0.56 -0.01    +0.049 A  
DOCKED: ATOM     35  C   UNL     1     139.847  67.527 226.907 -0.56 -0.01    +0.041 A  
DOCKED: ATOM     36  C   UNL     1     140.435  68.355 227.870 -0.55 -0.03    +0.123 A  
DOCKED: ATOM     37  F   UNL     1     140.637  67.891 229.127 -0.15 +0.06    -0.207 F  
DOCKED: ENDBRANCH  24  27
DOCKED: ENDBRANCH  22  23
DOCKED: ENDBRANCH  20  22
DOCKED: ENDBRANCH   5  20
DOCKED: BRANCH   3  38
DOCKED: ATOM     38  O   UNL     1     146.329  72.007 220.111 -0.39 -0.22    -0.391 OA 
DOCKED: ATOM     39  H   UNL     1     145.840  71.895 220.969 -0.43 -0.07    +0.211 HD 
DOCKED: ENDBRANCH   3  38
DOCKED: TORSDOF 10
DOCKED: TER
DOCKED: ENDMDL
________________________________________________________________________________


    FINAL DOCKED STATE:
    ________________________


Run:   17 / 20
Time taken for this run:   0.124s

DOCKED: MODEL        17
DOCKED: USER    Run = 17
DOCKED: USER
DOCKED: USER    Estimated Free Energy of Binding    =  -6.96 kcal/mol  [=(1)+(2)+(3)-(4)]
DOCKED: USER
DOCKED: USER    (1) Final Intermolecular Energy     =  -9.94 kcal/mol
DOCKED: USER        vdW + Hbond + desolv Energy     =  -9.95 kcal/mol
DOCKED: USER        Electrostatic Energy            =  +0.00 kcal/mol
DOCKED: USER        Moving Ligand-Fixed Receptor    =  -9.94 kcal/mol
DOCKED: USER        Moving Ligand-Moving Receptor   =  +0.00 kcal/mol
DOCKED: USER    (2) Final Total Internal Energy     =  -3.96 kcal/mol
DOCKED: USER    (3) Torsional Free Energy           =  +2.98 kcal/mol
DOCKED: USER    (4) Unbound System's Energy         =  -3.96 kcal/mol
DOCKED: USER
DOCKED: USER
DOCKED: REMARK SMILES COc1ccc([C@H](C)[N-]C(=O)[C@@H]2C[C@@H](O)CN2C(=O)CNC(=O)c2ccc3cc(F)ccc3n2)c(Cl)c1
DOCKED: REMARK SMILES IDX 12 1 13 2 14 3 16 4 17 5 10 6 11 7 9 8 7 9 8 10 6 11 3 12
DOCKED: REMARK SMILES IDX 4 13 37 14 5 15 35 16 36 17 2 18 1 19 18 20 19 21 20 22
DOCKED: REMARK SMILES IDX 21 23 22 24 23 26 24 27 25 28 34 29 26 30 33 31 27 32 32 33
DOCKED: REMARK SMILES IDX 28 34 31 35 29 36 30 37 15 38
DOCKED: REMARK H PARENT 21 25 15 39
DOCKED: USER                              x       y       z     vdW  Elec       q    Type
DOCKED: USER                           _______ _______ _______ _____ _____    ______ ____
DOCKED: ROOT
DOCKED: ATOM      1  C   UNL     1     141.839  73.499 220.615 -0.20 -0.02    +0.136 C  
DOCKED: ATOM      2  C   UNL     1     142.806  74.675 220.457 -0.29 -0.02    +0.065 C  
DOCKED: ATOM      3  C   UNL     1     142.673  75.140 219.002 -0.19 -0.05    +0.136 C  
DOCKED: ATOM      4  C   UNL     1     141.318  74.617 218.529 -0.04 -0.04    +0.152 C  
DOCKED: ATOM      5  N   UNL     1     140.964  73.550 219.451 -0.01 +0.07    -0.330 N  
DOCKED: ENDROOT
DOCKED: BRANCH   1   6
DOCKED: ATOM      6  C   UNL     1     141.046  73.610 221.890 -0.11 -0.00    +0.075 C  
DOCKED: ATOM      7  O   UNL     1     141.065  72.663 222.724 -0.39 -0.01    -0.318 OA 
DOCKED: BRANCH   6   8
DOCKED: ATOM      8  N   UNL     1     140.242  74.777 222.112 -0.49 +0.03    -0.645 NA 
DOCKED: BRANCH   8   9
DOCKED: ATOM      9  C   UNL     1     140.002  75.904 221.203 -0.25 +0.02    -0.077 C  
DOCKED: ATOM     10  C   UNL     1     138.511  76.207 221.005 -0.15 +0.00    -0.008 C  
DOCKED: BRANCH   9  11
DOCKED: ATOM     11  C   UNL     1     140.777  77.141 221.647 -0.34 +0.02    -0.044 A  
DOCKED: ATOM     12  C   UNL     1     142.180  79.432 222.535 -0.48 -0.05    +0.120 A  
DOCKED: ATOM     13  C   UNL     1     141.771  78.455 223.447 -0.53 -0.02    +0.047 A  
DOCKED: ATOM     14  C   UNL     1     141.882  79.268 221.174 -0.31 -0.04    +0.067 A  
DOCKED: ATOM     15  C   UNL     1     141.072  77.330 223.018 -0.32 -0.00    +0.008 A  
DOCKED: ATOM     16  C   UNL     1     141.193  78.134 220.722 -0.27 -0.02    +0.046 A  
DOCKED: ATOM     17  Cl  UNL     1     140.874  78.021 218.993 -0.18 +0.04    -0.084 Cl 
DOCKED: BRANCH  12  18
DOCKED: ATOM     18  O   UNL     1     142.875  80.546 223.020 -0.26 +0.14    -0.497 OA 
DOCKED: ATOM     19  C   UNL     1     142.521  81.274 224.195 -0.33 -0.04    +0.278 C  
DOCKED: ENDBRANCH  12  18
DOCKED: ENDBRANCH   9  11
DOCKED: ENDBRANCH   8   9
DOCKED: ENDBRANCH   6   8
DOCKED: ENDBRANCH   1   6
DOCKED: BRANCH   5  20
DOCKED: ATOM     20  C   UNL     1     139.941  72.569 219.194 -0.02 -0.05    +0.242 C  
DOCKED: ATOM     21  O   UNL     1     140.204  71.565 218.482 -0.01 +0.05    -0.273 OA 
DOCKED: BRANCH  20  22
DOCKED: ATOM     22  C   UNL     1     138.574  72.692 219.804 -0.02 -0.04    +0.216 C  
DOCKED: BRANCH  22  23
DOCKED: ATOM     23  N   UNL     1     138.615  72.276 221.199 -0.03 +0.07    -0.342 N  
DOCKED: ATOM     24  C   UNL     1     138.103  71.008 221.636 -0.06 -0.05    +0.270 C  
DOCKED: ATOM     25  H   UNL     1     139.086  72.900 221.884 +0.02 -0.04    +0.164 HD 
DOCKED: ATOM     26  O   UNL     1     137.266  70.393 220.919 -0.02 +0.05    -0.268 OA 
DOCKED: BRANCH  24  27
DOCKED: ATOM     27  C   UNL     1     138.570  70.411 222.904 -0.17 -0.02    +0.128 A  
DOCKED: ATOM     28  C   UNL     1     138.336  69.058 223.204 -0.23 -0.01    +0.035 A  
DOCKED: ATOM     29  N   UNL     1     139.274  71.180 223.780 -0.21 +0.05    -0.243 NA 
DOCKED: ATOM     30  C   UNL     1     138.823  68.522 224.400 -0.36 -0.00    +0.013 A  
DOCKED: ATOM     31  C   UNL     1     139.759  70.687 224.949 -0.41 -0.01    +0.071 A  
DOCKED: ATOM     32  C   UNL     1     139.537  69.335 225.289 -0.42 -0.00    +0.003 A  
DOCKED: ATOM     33  C   UNL     1     140.483  71.516 225.811 -0.56 -0.01    +0.032 A  
DOCKED: ATOM     34  C   UNL     1     140.036  68.834 226.502 -0.53 -0.01    +0.049 A  
DOCKED: ATOM     35  C   UNL     1     140.979  71.010 227.015 -0.65 -0.01    +0.041 A  
DOCKED: ATOM     36  C   UNL     1     140.753  69.673 227.362 -0.49 -0.02    +0.123 A  
DOCKED: ATOM     37  F   UNL     1     141.242  69.187 228.528 -0.14 +0.05    -0.207 F  
DOCKED: ENDBRANCH  24  27
DOCKED: ENDBRANCH  22  23
DOCKED: ENDBRANCH  20  22
DOCKED: ENDBRANCH   5  20
DOCKED: BRANCH   3  38
DOCKED: ATOM     38  O   UNL     1     143.699  74.572 218.231 -0.08 +0.14    -0.391 OA 
DOCKED: ATOM     39  H   UNL     1     144.439  75.235 218.205 -0.40 -0.14    +0.211 HD 
DOCKED: ENDBRANCH   3  38
DOCKED: TORSDOF 10
DOCKED: TER
DOCKED: ENDMDL
________________________________________________________________________________


    FINAL DOCKED STATE:
    ________________________


Run:   18 / 20
Time taken for this run:   0.124s

DOCKED: MODEL        18
DOCKED: USER    Run = 18
DOCKED: USER
DOCKED: USER    Estimated Free Energy of Binding    =  -8.66 kcal/mol  [=(1)+(2)+(3)-(4)]
DOCKED: USER
DOCKED: USER    (1) Final Intermolecular Energy     = -11.64 kcal/mol
DOCKED: USER        vdW + Hbond + desolv Energy     = -11.73 kcal/mol
DOCKED: USER        Electrostatic Energy            =  +0.09 kcal/mol
DOCKED: USER        Moving Ligand-Fixed Receptor    = -11.64 kcal/mol
DOCKED: USER        Moving Ligand-Moving Receptor   =  +0.00 kcal/mol
DOCKED: USER    (2) Final Total Internal Energy     =  -2.45 kcal/mol
DOCKED: USER    (3) Torsional Free Energy           =  +2.98 kcal/mol
DOCKED: USER    (4) Unbound System's Energy         =  -2.45 kcal/mol
DOCKED: USER
DOCKED: USER
DOCKED: REMARK SMILES COc1ccc([C@H](C)[N-]C(=O)[C@@H]2C[C@@H](O)CN2C(=O)CNC(=O)c2ccc3cc(F)ccc3n2)c(Cl)c1
DOCKED: REMARK SMILES IDX 12 1 13 2 14 3 16 4 17 5 10 6 11 7 9 8 7 9 8 10 6 11 3 12
DOCKED: REMARK SMILES IDX 4 13 37 14 5 15 35 16 36 17 2 18 1 19 18 20 19 21 20 22
DOCKED: REMARK SMILES IDX 21 23 22 24 23 26 24 27 25 28 34 29 26 30 33 31 27 32 32 33
DOCKED: REMARK SMILES IDX 28 34 31 35 29 36 30 37 15 38
DOCKED: REMARK H PARENT 21 25 15 39
DOCKED: USER                              x       y       z     vdW  Elec       q    Type
DOCKED: USER                           _______ _______ _______ _____ _____    ______ ____
DOCKED: ROOT
DOCKED: ATOM      1  C   UNL     1     141.407  76.610 221.376 -0.12 -0.07    +0.136 C  
DOCKED: ATOM      2  C   UNL     1     141.560  77.860 220.506 -0.28 -0.04    +0.065 C  
DOCKED: ATOM      3  C   UNL     1     141.843  77.356 219.086 -0.21 -0.07    +0.136 C  
DOCKED: ATOM      4  C   UNL     1     141.333  75.916 219.055 -0.10 -0.06    +0.152 C  
DOCKED: ATOM      5  N   UNL     1     141.241  75.501 220.445 -0.10 +0.11    -0.330 N  
DOCKED: ENDROOT
DOCKED: BRANCH   1   6
DOCKED: ATOM      6  C   UNL     1     140.219  76.724 222.294 -0.36 -0.02    +0.075 C  
DOCKED: ATOM      7  O   UNL     1     139.646  75.679 222.709 -0.44 +0.04    -0.318 OA 
DOCKED: BRANCH   6   8
DOCKED: ATOM      8  N   UNL     1     139.730  78.026 222.644 +0.01 +0.14    -0.645 NA 
DOCKED: BRANCH   8   9
DOCKED: ATOM      9  C   UNL     1     140.404  79.074 223.419 -0.42 +0.02    -0.077 C  
DOCKED: ATOM     10  C   UNL     1     141.821  78.679 223.857 -0.59 +0.00    -0.008 C  
DOCKED: BRANCH   9  11
DOCKED: ATOM     11  C   UNL     1     140.394  80.403 222.670 -0.35 +0.01    -0.044 A  
DOCKED: ATOM     12  C   UNL     1     140.448  82.874 221.292 -0.24 -0.02    +0.120 A  
DOCKED: ATOM     13  C   UNL     1     141.571  82.043 221.297 -0.32 -0.01    +0.047 A  
DOCKED: ATOM     14  C   UNL     1     139.294  82.474 221.982 -0.16 -0.01    +0.067 A  
DOCKED: ATOM     15  C   UNL     1     141.555  80.830 221.981 -0.44 -0.00    +0.008 A  
DOCKED: ATOM     16  C   UNL     1     139.254  81.249 222.663 -0.27 -0.01    +0.046 A  
DOCKED: ATOM     17  Cl  UNL     1     137.756  80.837 223.494 -0.37 +0.01    -0.084 Cl 
DOCKED: BRANCH  12  18
DOCKED: ATOM     18  O   UNL     1     140.519  84.085 220.593 -0.09 +0.09    -0.497 OA 
DOCKED: ATOM     19  C   UNL     1     140.616  84.197 219.174 -0.09 -0.07    +0.278 C  
DOCKED: ENDBRANCH  12  18
DOCKED: ENDBRANCH   9  11
DOCKED: ENDBRANCH   8   9
DOCKED: ENDBRANCH   6   8
DOCKED: ENDBRANCH   1   6
DOCKED: BRANCH   5  20
DOCKED: ATOM     20  C   UNL     1     141.123  74.130 220.871 -0.18 -0.05    +0.242 C  
DOCKED: ATOM     21  O   UNL     1     142.155  73.486 221.196 -0.20 +0.04    -0.273 OA 
DOCKED: BRANCH  20  22
DOCKED: ATOM     22  C   UNL     1     139.782  73.464 220.986 -0.14 -0.04    +0.216 C  
DOCKED: BRANCH  22  23
DOCKED: ATOM     23  N   UNL     1     139.617  72.911 222.324 -0.15 +0.06    -0.342 N  
DOCKED: ATOM     24  C   UNL     1     139.777  71.511 222.599 -0.20 -0.05    +0.270 C  
DOCKED: ATOM     25  H   UNL     1     139.435  73.569 223.107 -0.50 -0.05    +0.164 HD 
DOCKED: ATOM     26  O   UNL     1     139.678  70.675 221.659 -0.10 +0.04    -0.268 OA 
DOCKED: BRANCH  24  27
DOCKED: ATOM     27  C   UNL     1     140.081  71.050 223.970 -0.34 -0.02    +0.128 A  
DOCKED: ATOM     28  C   UNL     1     140.699  71.898 224.904 -0.34 -0.00    +0.035 A  
DOCKED: ATOM     29  N   UNL     1     139.719  69.792 224.344 -0.17 +0.04    -0.243 NA 
DOCKED: ATOM     30  C   UNL     1     140.940  71.437 226.201 -0.66 -0.00    +0.013 A  
DOCKED: ATOM     31  C   UNL     1     139.940  69.317 225.596 -0.41 -0.01    +0.071 A  
DOCKED: ATOM     32  C   UNL     1     140.566  70.136 226.560 -0.56 -0.00    +0.003 A  
DOCKED: ATOM     33  C   UNL     1     139.542  68.019 225.932 -0.55 -0.00    +0.032 A  
DOCKED: ATOM     34  C   UNL     1     140.798  69.636 227.851 -0.57 -0.01    +0.049 A  
DOCKED: ATOM     35  C   UNL     1     139.773  67.528 227.220 -0.38 -0.01    +0.041 A  
DOCKED: ATOM     36  C   UNL     1     140.403  68.333 228.176 -0.53 -0.03    +0.123 A  
DOCKED: ATOM     37  F   UNL     1     140.618  67.854 229.425 -0.12 +0.05    -0.207 F  
DOCKED: ENDBRANCH  24  27
DOCKED: ENDBRANCH  22  23
DOCKED: ENDBRANCH  20  22
DOCKED: ENDBRANCH   5  20
DOCKED: BRANCH   3  38
DOCKED: ATOM     38  O   UNL     1     143.226  77.377 218.847 -0.20 +0.30    -0.391 OA 
DOCKED: ATOM     39  H   UNL     1     143.664  77.595 219.712 -0.47 -0.24    +0.211 HD 
DOCKED: ENDBRANCH   3  38
DOCKED: TORSDOF 10
DOCKED: TER
DOCKED: ENDMDL
________________________________________________________________________________


    FINAL DOCKED STATE:
    ________________________


Run:   19 / 20
Time taken for this run:   0.124s

DOCKED: MODEL        19
DOCKED: USER    Run = 19
DOCKED: USER
DOCKED: USER    Estimated Free Energy of Binding    =  -7.13 kcal/mol  [=(1)+(2)+(3)-(4)]
DOCKED: USER
DOCKED: USER    (1) Final Intermolecular Energy     = -10.12 kcal/mol
DOCKED: USER        vdW + Hbond + desolv Energy     = -10.22 kcal/mol
DOCKED: USER        Electrostatic Energy            =  +0.10 kcal/mol
DOCKED: USER        Moving Ligand-Fixed Receptor    = -10.12 kcal/mol
DOCKED: USER        Moving Ligand-Moving Receptor   =  +0.00 kcal/mol
DOCKED: USER    (2) Final Total Internal Energy     =  -3.35 kcal/mol
DOCKED: USER    (3) Torsional Free Energy           =  +2.98 kcal/mol
DOCKED: USER    (4) Unbound System's Energy         =  -3.35 kcal/mol
DOCKED: USER
DOCKED: USER
DOCKED: REMARK SMILES COc1ccc([C@H](C)[N-]C(=O)[C@@H]2C[C@@H](O)CN2C(=O)CNC(=O)c2ccc3cc(F)ccc3n2)c(Cl)c1
DOCKED: REMARK SMILES IDX 12 1 13 2 14 3 16 4 17 5 10 6 11 7 9 8 7 9 8 10 6 11 3 12
DOCKED: REMARK SMILES IDX 4 13 37 14 5 15 35 16 36 17 2 18 1 19 18 20 19 21 20 22
DOCKED: REMARK SMILES IDX 21 23 22 24 23 26 24 27 25 28 34 29 26 30 33 31 27 32 32 33
DOCKED: REMARK SMILES IDX 28 34 31 35 29 36 30 37 15 38
DOCKED: REMARK H PARENT 21 25 15 39
DOCKED: USER                              x       y       z     vdW  Elec       q    Type
DOCKED: USER                           _______ _______ _______ _____ _____    ______ ____
DOCKED: ROOT
DOCKED: ATOM      1  C   UNL     1     137.334  75.163 222.341 -0.16 -0.04    +0.136 C  
DOCKED: ATOM      2  C   UNL     1     137.902  76.525 222.751 -0.26 -0.01    +0.065 C  
DOCKED: ATOM      3  C   UNL     1     139.127  76.758 221.860 -0.24 -0.03    +0.136 C  
DOCKED: ATOM      4  C   UNL     1     138.934  75.843 220.652 -0.10 -0.04    +0.152 C  
DOCKED: ATOM      5  N   UNL     1     137.967  74.841 221.068 -0.05 +0.08    -0.330 N  
DOCKED: ENDROOT
DOCKED: BRANCH   1   6
DOCKED: ATOM      6  C   UNL     1     135.836  75.215 222.200 -0.13 -0.02    +0.075 C  
DOCKED: ATOM      7  O   UNL     1     135.317  75.929 221.297 -0.02 +0.05    -0.318 OA 
DOCKED: BRANCH   6   8
DOCKED: ATOM      8  N   UNL     1     135.022  74.487 223.128 +0.01 +0.12    -0.645 NA 
DOCKED: BRANCH   8   9
DOCKED: ATOM      9  C   UNL     1     135.223  74.308 224.571 -0.28 +0.01    -0.077 C  
DOCKED: ATOM     10  C   UNL     1     134.558  75.407 225.410 -0.38 +0.00    -0.008 C  
DOCKED: BRANCH   9  11
DOCKED: ATOM     11  C   UNL     1     134.788  72.915 225.017 -0.23 +0.00    -0.044 A  
DOCKED: ATOM     12  C   UNL     1     133.975  70.358 225.913 -0.25 -0.01    +0.120 A  
DOCKED: ATOM     13  C   UNL     1     133.508  71.511 226.549 -0.37 -0.00    +0.047 A  
DOCKED: ATOM     14  C   UNL     1     134.858  70.480 224.830 -0.18 -0.01    +0.067 A  
DOCKED: ATOM     15  C   UNL     1     133.911  72.772 226.119 -0.34 +0.00    +0.008 A  
DOCKED: ATOM     16  C   UNL     1     135.262  71.742 224.374 -0.18 -0.01    +0.046 A  
DOCKED: ATOM     17  Cl  UNL     1     136.368  71.787 223.003 -0.20 +0.02    -0.084 Cl 
DOCKED: BRANCH  12  18
DOCKED: ATOM     18  O   UNL     1     133.542  69.114 226.389 -0.64 -0.03    -0.497 OA 
DOCKED: ATOM     19  C   UNL     1     133.723  67.876 225.704 -0.21 -0.03    +0.278 C  
DOCKED: ENDBRANCH  12  18
DOCKED: ENDBRANCH   9  11
DOCKED: ENDBRANCH   8   9
DOCKED: ENDBRANCH   6   8
DOCKED: ENDBRANCH   1   6
DOCKED: BRANCH   5  20
DOCKED: ATOM     20  C   UNL     1     137.739  73.601 220.371 -0.04 -0.05    +0.242 C  
DOCKED: ATOM     21  O   UNL     1     136.562  73.228 220.130 -0.01 +0.05    -0.273 OA 
DOCKED: BRANCH  20  22
DOCKED: ATOM     22  C   UNL     1     138.884  72.765 219.877 -0.03 -0.04    +0.216 C  
DOCKED: BRANCH  22  23
DOCKED: ATOM     23  N   UNL     1     139.339  71.873 220.935 -0.03 +0.06    -0.342 N  
DOCKED: ATOM     24  C   UNL     1     139.758  72.359 222.220 -0.19 -0.05    +0.270 C  
DOCKED: ATOM     25  H   UNL     1     139.298  70.849 220.764 +0.03 -0.03    +0.164 HD 
DOCKED: ATOM     26  O   UNL     1     140.115  73.562 222.344 -0.82 +0.01    -0.268 OA 
DOCKED: BRANCH  24  27
DOCKED: ATOM     27  C   UNL     1     139.747  71.464 223.396 -0.31 -0.02    +0.128 A  
DOCKED: ATOM     28  C   UNL     1     139.204  70.170 223.323 -0.25 -0.01    +0.035 A  
DOCKED: ATOM     29  N   UNL     1     140.310  71.890 224.560 -0.27 +0.04    -0.243 NA 
DOCKED: ATOM     30  C   UNL     1     139.242  69.342 224.448 -0.34 -0.00    +0.013 A  
DOCKED: ATOM     31  C   UNL     1     140.362  71.108 225.668 -0.52 -0.01    +0.071 A  
DOCKED: ATOM     32  C   UNL     1     139.819  69.805 225.637 -0.46 -0.00    +0.003 A  
DOCKED: ATOM     33  C   UNL     1     140.958  71.590 226.838 -0.71 -0.01    +0.032 A  
DOCKED: ATOM     34  C   UNL     1     139.870  69.004 226.788 -0.53 -0.01    +0.049 A  
DOCKED: ATOM     35  C   UNL     1     141.009  70.786 227.979 -0.65 -0.01    +0.041 A  
DOCKED: ATOM     36  C   UNL     1     140.462  69.498 227.957 -0.52 -0.02    +0.123 A  
DOCKED: ATOM     37  F   UNL     1     140.520  68.721 229.065 -0.14 +0.04    -0.207 F  
DOCKED: ENDBRANCH  24  27
DOCKED: ENDBRANCH  22  23
DOCKED: ENDBRANCH  20  22
DOCKED: ENDBRANCH   5  20
DOCKED: BRANCH   3  38
DOCKED: ATOM     38  O   UNL     1     140.291  76.392 222.554 -0.28 +0.08    -0.391 OA 
DOCKED: ATOM     39  H   UNL     1     140.278  75.402 222.634 +0.05 +0.00    +0.211 HD 
DOCKED: ENDBRANCH   3  38
DOCKED: TORSDOF 10
DOCKED: TER
DOCKED: ENDMDL
________________________________________________________________________________


    FINAL DOCKED STATE:
    ________________________


Run:   20 / 20
Time taken for this run:   0.124s

DOCKED: MODEL        20
DOCKED: USER    Run = 20
DOCKED: USER
DOCKED: USER    Estimated Free Energy of Binding    =  -6.61 kcal/mol  [=(1)+(2)+(3)-(4)]
DOCKED: USER
DOCKED: USER    (1) Final Intermolecular Energy     =  -9.59 kcal/mol
DOCKED: USER        vdW + Hbond + desolv Energy     =  -9.54 kcal/mol
DOCKED: USER        Electrostatic Energy            =  -0.05 kcal/mol
DOCKED: USER        Moving Ligand-Fixed Receptor    =  -9.59 kcal/mol
DOCKED: USER        Moving Ligand-Moving Receptor   =  +0.00 kcal/mol
DOCKED: USER    (2) Final Total Internal Energy     =  -3.92 kcal/mol
DOCKED: USER    (3) Torsional Free Energy           =  +2.98 kcal/mol
DOCKED: USER    (4) Unbound System's Energy         =  -3.92 kcal/mol
DOCKED: USER
DOCKED: USER
DOCKED: REMARK SMILES COc1ccc([C@H](C)[N-]C(=O)[C@@H]2C[C@@H](O)CN2C(=O)CNC(=O)c2ccc3cc(F)ccc3n2)c(Cl)c1
DOCKED: REMARK SMILES IDX 12 1 13 2 14 3 16 4 17 5 10 6 11 7 9 8 7 9 8 10 6 11 3 12
DOCKED: REMARK SMILES IDX 4 13 37 14 5 15 35 16 36 17 2 18 1 19 18 20 19 21 20 22
DOCKED: REMARK SMILES IDX 21 23 22 24 23 26 24 27 25 28 34 29 26 30 33 31 27 32 32 33
DOCKED: REMARK SMILES IDX 28 34 31 35 29 36 30 37 15 38
DOCKED: REMARK H PARENT 21 25 15 39
DOCKED: USER                              x       y       z     vdW  Elec       q    Type
DOCKED: USER                           _______ _______ _______ _____ _____    ______ ____
DOCKED: ROOT
DOCKED: ATOM      1  C   UNL     1     143.047  72.801 220.475 -0.23 -0.02    +0.136 C  
DOCKED: ATOM      2  C   UNL     1     143.937  74.015 220.195 -0.37 -0.02    +0.065 C  
DOCKED: ATOM      3  C   UNL     1     144.618  73.738 218.850 -0.18 -0.02    +0.136 C  
DOCKED: ATOM      4  C   UNL     1     143.746  72.693 218.157 -0.08 -0.01    +0.152 C  
DOCKED: ATOM      5  N   UNL     1     142.950  72.084 219.210 -0.02 +0.04    -0.330 N  
DOCKED: ENDROOT
DOCKED: BRANCH   1   6
DOCKED: ATOM      6  C   UNL     1     141.685  73.222 220.961 -0.23 -0.01    +0.075 C  
DOCKED: ATOM      7  O   UNL     1     141.390  73.098 222.182 -0.24 -0.01    -0.318 OA 
DOCKED: BRANCH   6   8
DOCKED: ATOM      8  N   UNL     1     140.728  73.714 220.013 +0.04 +0.13    -0.645 NA 
DOCKED: BRANCH   8   9
DOCKED: ATOM      9  C   UNL     1     140.645  75.050 219.413 -0.09 +0.02    -0.077 C  
DOCKED: ATOM     10  C   UNL     1     139.349  75.273 218.623 -0.03 +0.00    -0.008 C  
DOCKED: BRANCH   9  11
DOCKED: ATOM     11  C   UNL     1     140.862  76.137 220.462 -0.21 +0.02    -0.044 A  
DOCKED: ATOM     12  C   UNL     1     141.196  78.139 222.433 -0.38 -0.05    +0.120 A  
DOCKED: ATOM     13  C   UNL     1     140.376  77.034 222.679 -0.32 -0.01    +0.047 A  
DOCKED: ATOM     14  C   UNL     1     141.847  78.249 221.195 -0.31 -0.04    +0.067 A  
DOCKED: ATOM     15  C   UNL     1     140.200  76.050 221.710 -0.35 -0.00    +0.008 A  
DOCKED: ATOM     16  C   UNL     1     141.693  77.260 220.214 -0.27 -0.03    +0.046 A  
DOCKED: ATOM     17  Cl  UNL     1     142.558  77.489 218.697 -0.41 +0.06    -0.084 Cl 
DOCKED: BRANCH  12  18
DOCKED: ATOM     18  O   UNL     1     141.335  79.102 223.440 -0.19 +0.14    -0.497 OA 
DOCKED: ATOM     19  C   UNL     1     142.339  80.115 223.460 -0.44 -0.07    +0.278 C  
DOCKED: ENDBRANCH  12  18
DOCKED: ENDBRANCH   9  11
DOCKED: ENDBRANCH   8   9
DOCKED: ENDBRANCH   6   8
DOCKED: ENDBRANCH   1   6
DOCKED: BRANCH   5  20
DOCKED: ATOM     20  C   UNL     1     142.239  70.839 219.066 -0.05 -0.03    +0.242 C  
DOCKED: ATOM     21  O   UNL     1     142.878  69.755 219.041 -0.08 +0.03    -0.273 OA 
DOCKED: BRANCH  20  22
DOCKED: ATOM     22  C   UNL     1     140.740  70.803 218.996 -0.03 -0.04    +0.216 C  
DOCKED: BRANCH  22  23
DOCKED: ATOM     23  N   UNL     1     140.180  70.843 220.341 -0.03 +0.06    -0.342 N  
DOCKED: ATOM     24  C   UNL     1     139.626  69.680 220.975 -0.07 -0.05    +0.270 C  
DOCKED: ATOM     25  H   UNL     1     140.243  71.734 220.872 +0.04 -0.03    +0.164 HD 
DOCKED: ATOM     26  O   UNL     1     139.252  68.704 220.269 -0.06 +0.05    -0.268 OA 
DOCKED: BRANCH  24  27
DOCKED: ATOM     27  C   UNL     1     139.517  69.613 222.447 -0.12 -0.02    +0.128 A  
DOCKED: ATOM     28  C   UNL     1     138.827  68.566 223.081 -0.24 -0.01    +0.035 A  
DOCKED: ATOM     29  N   UNL     1     140.131  70.565 223.203 -0.10 +0.04    -0.243 NA 
DOCKED: ATOM     30  C   UNL     1     138.774  68.519 224.477 -0.36 -0.00    +0.013 A  
DOCKED: ATOM     31  C   UNL     1     140.097  70.545 224.560 -0.39 -0.01    +0.071 A  
DOCKED: ATOM     32  C   UNL     1     139.407  69.515 225.233 -0.41 -0.00    +0.003 A  
DOCKED: ATOM     33  C   UNL     1     140.751  71.543 225.290 -0.53 -0.00    +0.032 A  
DOCKED: ATOM     34  C   UNL     1     139.370  69.505 226.635 -0.45 -0.01    +0.049 A  
DOCKED: ATOM     35  C   UNL     1     140.713  71.525 226.687 -0.67 -0.01    +0.041 A  
DOCKED: ATOM     36  C   UNL     1     140.020  70.511 227.358 -0.48 -0.02    +0.123 A  
DOCKED: ATOM     37  F   UNL     1     139.993  70.496 228.713 -0.11 +0.04    -0.207 F  
DOCKED: ENDBRANCH  24  27
DOCKED: ENDBRANCH  22  23
DOCKED: ENDBRANCH  20  22
DOCKED: ENDBRANCH   5  20
DOCKED: BRANCH   3  38
DOCKED: ATOM     38  O   UNL     1     145.902  73.216 219.072 -0.66 -0.18    -0.391 OA 
DOCKED: ATOM     39  H   UNL     1     146.541  73.969 218.965 -0.45 +0.04    +0.211 HD 
DOCKED: ENDBRANCH   3  38
DOCKED: TORSDOF 10
DOCKED: TER
DOCKED: ENDMDL
________________________________________________________________________________


    CLUSTERING HISTOGRAM
    ____________________


________________________________________________________________________________
     |           |     |           |     |
Clus | Lowest    | Run | Mean      | Num | Histogram
-ter | Binding   |     | Binding   | in  |
Rank | Energy    |     | Energy    | Clus|    5    10   15   20   25   30   35
_____|___________|_____|___________|_____|____:____|____:____|____:____|____:___
   1 |     -8.66 |  18 |     -8.33 |   2 |##
   2 |     -8.45 |   2 |     -7.49 |   4 |####
   3 |     -8.18 |   7 |     -8.18 |   1 |#
   4 |     -7.82 |   4 |     -7.82 |   1 |#
   5 |     -7.49 |  12 |     -7.10 |   4 |####
   6 |     -7.13 |  19 |     -7.06 |   2 |##
   7 |     -7.01 |  15 |     -7.01 |   1 |#
   8 |     -6.71 |  14 |     -6.71 |   1 |#
   9 |     -6.37 |  11 |     -6.37 |   1 |#
  10 |     -6.06 |   9 |     -5.59 |   2 |##
  11 |     -5.10 |  13 |     -5.10 |   1 |#
_____|___________|_____|___________|_____|______________________________________


    RMSD TABLE
    __________


_______________________________________________________________________
     |      |      |           |         |                 |
Rank | Sub- | Run  | Binding   | Cluster | Reference       | Grep
     | Rank |      | Energy    | RMSD    | RMSD            | Pattern
_____|______|______|___________|_________|_________________|___________
   1      1     18       -8.66      0.00    272.16           RANKING
   1      2      5       -8.00      1.48    271.70           RANKING
   2      1      2       -8.45      0.00    272.00           RANKING
   2      2     16       -8.23      1.47    271.89           RANKING
   2      3     10       -6.67      1.89    271.02           RANKING
   2      4     20       -6.61      1.87    270.92           RANKING
   3      1      7       -8.18      0.00    271.53           RANKING
   4      1      4       -7.82      0.00    271.31           RANKING
   5      1     12       -7.49      0.00    271.52           RANKING
   5      2      3       -6.98      1.68    271.16           RANKING
   5      3     17       -6.96      1.69    271.15           RANKING
   5      4      6       -6.95      1.67    271.18           RANKING
   6      1     19       -7.13      0.00    270.68           RANKING
   6      2      1       -6.99      1.75    270.54           RANKING
   7      1     15       -7.01      0.00    271.21           RANKING
   8      1     14       -6.71      0.00    270.86           RANKING
   9      1     11       -6.37      0.00    270.96           RANKING
  10      1      9       -6.06      0.00    271.76           RANKING
  10      2      8       -5.12      1.98    270.96           RANKING
  11      1     13       -5.10      0.00    271.53           RANKING

Run time 2.396 sec
Idle time 0.000 sec
