AutoDock-GPU version: v1.6

**********************************************************
**    AutoDock-GPU AUTODOCKTOOLS-COMPATIBLE DLG FILE    **
**********************************************************


    DOCKING PARAMETERS
    ________________________


Ligand file:                               /home/a/REINVENT4/ReinventStudies/scoringData/graph-dock/graph-DockGPU/node-autodockgpu/inputs/LLZHWBREMUWYMR-DZSPIUQSNA-O.pdbqt
Grid fld file:                             /home/a/REINVENT4/ReinventStudies/mols/Rad51/maps/rad51_receptor.maps.fld

Random seed:                               42
Number of runs:                            20
Number of energy evaluations:              2040163
Number of generations:                     42000
Size of population:                        150
Rate of crossover:                         80.000000%
Tournament selection probability limit:    60.000000%
Rate of mutation:                          2.000000%
Maximal allowed delta movement:            +/- 6.000000A
Maximal allowed delta angle:               +/- 90.000000

Rate of local search:                      100.000000%
Maximal number of local search iterations: 300
Rho lower bound:                           0.010000
Spread of local search delta movement:     2.000000A
Spread of local search delta angle:        74.999999
Limit of consecutive successes/failures:   4

Handle symmetry during clustering:         YES
RMSD tolerance:                            2.000000A

Program call in command line was:          /home/a/REINVENT4/ReinventStudies/adgpu-v1.6_linux_x64_cuda12_128wi --filelist batch.txt --heuristics 1 --nrun 20 --psize 150 --lsit 300 --seed 42 --heurmax 12000000 


    GRID PARAMETERS
    ________________________


Receptor name:                             rad51_receptor
Number of grid points (x, y, z):           53, 53, 53
Grid center (x, y, z):                     139.950000, 75.640000, 221.970000A
Grid size (x, y, z):                       19.500000, 19.500000, 19.500000A
Grid spacing:                              0.375000A


    LIGAND PARAMETERS
    ________________________


Ligand name:                               /home/a/REINVENT4/ReinventStudies/scoringData/graph-dock/graph-DockGPU/node-autodockgpu/inputs/LLZHWBREMUWYMR-DZSPIUQSNA-O
Number of atoms:                           34
Number of rotatable bonds:                 9
Number of atom types:                      6


    DUMMY DATA (only for ADT-compatibility)
    ________________________


DPF> outlev 1
DPF> ga_run 20
DPF> fld /home/a/REINVENT4/ReinventStudies/mols/Rad51/maps/rad51_receptor.maps.fld
DPF> move /home/a/REINVENT4/ReinventStudies/scoringData/graph-dock/graph-DockGPU/node-autodockgpu/inputs/LLZHWBREMUWYMR-DZSPIUQSNA-O.pdbqt


    COUNTER STATES
    ________________________


Number of energy evaluations performed:    1563081
Number of generations used:                65


    INPUT LIGAND PDBQT FILE:
    ________________________


INPUT-LIGAND-PDBQT: REMARK SMILES C/C=C(\O)N(c1ccccc1)[C@H]1CC[N@@H+](C(=O)[C@@H](N)C2Cc3ccccc3C2)CC1
INPUT-LIGAND-PDBQT: REMARK SMILES IDX 12 1 13 2 14 3 15 4 29 6 30 7 5 8 3 9 4 10 2 12 1 13 6 14
INPUT-LIGAND-PDBQT: REMARK SMILES IDX 7 15 11 16 8 17 10 18 9 19 16 20 17 21 18 22 19 23 20 26
INPUT-LIGAND-PDBQT: REMARK SMILES IDX 21 27 28 28 22 29 27 30 23 31 26 32 24 33 25 34
INPUT-LIGAND-PDBQT: REMARK H PARENT 15 5 4 11 19 24 19 25
INPUT-LIGAND-PDBQT: ROOT
INPUT-LIGAND-PDBQT: ATOM      1  C   UNL     1       2.050   1.992  -1.529  1.00  0.00     0.102 C 
INPUT-LIGAND-PDBQT: ATOM      2  C   UNL     1       2.430   1.581  -0.085  1.00  0.00     0.087 C 
INPUT-LIGAND-PDBQT: ATOM      3  C   UNL     1       1.236   0.952   0.650  1.00  0.00     0.272 C 
INPUT-LIGAND-PDBQT: ATOM      4  N   UNL     1       0.085   1.882   0.691  1.00  0.00    -0.270 N 
INPUT-LIGAND-PDBQT: ATOM      5  H   UNL     1       0.400   2.753   1.184  1.00  0.00     0.356 HD
INPUT-LIGAND-PDBQT: ATOM      6  C   UNL     1      -0.335   2.247  -0.680  1.00  0.00     0.272 C 
INPUT-LIGAND-PDBQT: ATOM      7  C   UNL     1       0.815   2.920  -1.450  1.00  0.00     0.087 C 
INPUT-LIGAND-PDBQT: ENDROOT
INPUT-LIGAND-PDBQT: BRANCH   1   8
INPUT-LIGAND-PDBQT: ATOM      8  N   UNL     1       1.806   0.820  -2.413  1.00  0.00    -0.310 N 
INPUT-LIGAND-PDBQT: BRANCH   8   9
INPUT-LIGAND-PDBQT: ATOM      9  C   UNL     1       1.118   0.969  -3.669  1.00  0.00     0.187 C 
INPUT-LIGAND-PDBQT: BRANCH   9  10
INPUT-LIGAND-PDBQT: ATOM     10  O   UNL     1       0.011   0.152  -3.919  1.00  0.00    -0.495 OA
INPUT-LIGAND-PDBQT: ATOM     11  H   UNL     1      -0.507   0.166  -4.789  1.00  0.00     0.295 HD
INPUT-LIGAND-PDBQT: ENDBRANCH   9  10
INPUT-LIGAND-PDBQT: BRANCH   9  12
INPUT-LIGAND-PDBQT: ATOM     12  C   UNL     1       1.566   1.853  -4.578  1.00  0.00     0.036 C 
INPUT-LIGAND-PDBQT: ATOM     13  C   UNL     1       0.906   2.070  -5.905  1.00  0.00     0.041 C 
INPUT-LIGAND-PDBQT: ENDBRANCH   9  12
INPUT-LIGAND-PDBQT: ENDBRANCH   8   9
INPUT-LIGAND-PDBQT: BRANCH   8  14
INPUT-LIGAND-PDBQT: ATOM     14  C   UNL     1       2.576  -0.388  -2.275  1.00  0.00     0.044 A 
INPUT-LIGAND-PDBQT: ATOM     15  C   UNL     1       3.976  -0.355  -2.388  1.00  0.00     0.026 A 
INPUT-LIGAND-PDBQT: ATOM     16  C   UNL     1       1.928  -1.616  -2.063  1.00  0.00     0.026 A 
INPUT-LIGAND-PDBQT: ATOM     17  C   UNL     1       4.718  -1.534  -2.267  1.00  0.00     0.002 A 
INPUT-LIGAND-PDBQT: ATOM     18  C   UNL     1       2.673  -2.792  -1.949  1.00  0.00     0.002 A 
INPUT-LIGAND-PDBQT: ATOM     19  C   UNL     1       4.066  -2.751  -2.049  1.00  0.00     0.000 A 
INPUT-LIGAND-PDBQT: ENDBRANCH   8  14
INPUT-LIGAND-PDBQT: ENDBRANCH   1   8
INPUT-LIGAND-PDBQT: BRANCH   4  20
INPUT-LIGAND-PDBQT: ATOM     20  C   UNL     1      -1.071   1.388   1.436  1.00  0.00     0.329 C 
INPUT-LIGAND-PDBQT: ATOM     21  O   UNL     1      -1.966   2.180   1.702  1.00  0.00    -0.229 OA
INPUT-LIGAND-PDBQT: BRANCH  20  22
INPUT-LIGAND-PDBQT: ATOM     22  C   UNL     1      -1.257  -0.062   1.889  1.00  0.00     0.186 C 
INPUT-LIGAND-PDBQT: BRANCH  22  23
INPUT-LIGAND-PDBQT: ATOM     23  N   UNL     1      -1.736  -0.090   3.278  1.00  0.00    -0.316 NA
INPUT-LIGAND-PDBQT: ATOM     24  H   UNL     1      -1.696  -1.073   3.631  1.00  0.00     0.119 HD
INPUT-LIGAND-PDBQT: ATOM     25  H   UNL     1      -1.066   0.452   3.868  1.00  0.00     0.119 HD
INPUT-LIGAND-PDBQT: ENDBRANCH  22  23
INPUT-LIGAND-PDBQT: BRANCH  22  26
INPUT-LIGAND-PDBQT: ATOM     26  C   UNL     1      -2.242  -0.799   0.938  1.00  0.00     0.028 C 
INPUT-LIGAND-PDBQT: ATOM     27  C   UNL     1      -2.227  -2.340   1.138  1.00  0.00     0.042 C 
INPUT-LIGAND-PDBQT: ATOM     28  C   UNL     1      -3.719  -0.340   1.103  1.00  0.00     0.042 C 
INPUT-LIGAND-PDBQT: ATOM     29  C   UNL     1      -3.618  -2.668   1.530  1.00  0.00    -0.044 A 
INPUT-LIGAND-PDBQT: ATOM     30  C   UNL     1      -4.438  -1.567   1.511  1.00  0.00    -0.044 A 
INPUT-LIGAND-PDBQT: ATOM     31  C   UNL     1      -4.114  -3.930   1.869  1.00  0.00     0.004 A 
INPUT-LIGAND-PDBQT: ATOM     32  C   UNL     1      -5.790  -1.667   1.851  1.00  0.00     0.004 A 
INPUT-LIGAND-PDBQT: ATOM     33  C   UNL     1      -5.469  -4.053   2.212  1.00  0.00     0.000 A 
INPUT-LIGAND-PDBQT: ATOM     34  C   UNL     1      -6.306  -2.923   2.204  1.00  0.00     0.000 A 
INPUT-LIGAND-PDBQT: ENDBRANCH  22  26
INPUT-LIGAND-PDBQT: ENDBRANCH  20  22
INPUT-LIGAND-PDBQT: ENDBRANCH   4  20
INPUT-LIGAND-PDBQT: TORSDOF 9


    FINAL DOCKED STATE:
    ________________________


Run:   1 / 20
Time taken for this run:   0.077s

DOCKED: MODEL        1
DOCKED: USER    Run = 1
DOCKED: USER
DOCKED: USER    Estimated Free Energy of Binding    =  -7.52 kcal/mol  [=(1)+(2)+(3)-(4)]
DOCKED: USER
DOCKED: USER    (1) Final Intermolecular Energy     = -10.20 kcal/mol
DOCKED: USER        vdW + Hbond + desolv Energy     =  -9.54 kcal/mol
DOCKED: USER        Electrostatic Energy            =  -0.66 kcal/mol
DOCKED: USER        Moving Ligand-Fixed Receptor    = -10.20 kcal/mol
DOCKED: USER        Moving Ligand-Moving Receptor   =  +0.00 kcal/mol
DOCKED: USER    (2) Final Total Internal Energy     =  -2.40 kcal/mol
DOCKED: USER    (3) Torsional Free Energy           =  +2.68 kcal/mol
DOCKED: USER    (4) Unbound System's Energy         =  -2.40 kcal/mol
DOCKED: USER
DOCKED: USER
DOCKED: REMARK SMILES C/C=C(\O)N(c1ccccc1)[C@H]1CC[N@@H+](C(=O)[C@@H](N)C2Cc3ccccc3C2)CC1
DOCKED: REMARK SMILES IDX 12 1 13 2 14 3 15 4 29 6 30 7 5 8 3 9 4 10 2 12 1 13 6 14
DOCKED: REMARK SMILES IDX 7 15 11 16 8 17 10 18 9 19 16 20 17 21 18 22 19 23 20 26
DOCKED: REMARK SMILES IDX 21 27 28 28 22 29 27 30 23 31 26 32 24 33 25 34
DOCKED: REMARK H PARENT 15 5 4 11 19 24 19 25
DOCKED: USER                              x       y       z     vdW  Elec       q    Type
DOCKED: USER                           _______ _______ _______ _____ _____    ______ ____
DOCKED: ROOT
DOCKED: ATOM      1  C   UNL     1     141.468  74.224 218.471 -0.05 -0.03    +0.102 C  
DOCKED: ATOM      2  C   UNL     1     142.536  74.528 217.392 -0.07 -0.03    +0.087 C  
DOCKED: ATOM      3  C   UNL     1     142.946  76.009 217.411 -0.13 -0.14    +0.272 C  
DOCKED: ATOM      4  N   UNL     1     141.773  76.888 217.203 -0.05 +0.14    -0.270 N  
DOCKED: ATOM      5  H   UNL     1     141.351  76.638 216.276 +0.05 -0.15    +0.356 HD 
DOCKED: ATOM      6  C   UNL     1     140.759  76.658 218.256 -0.03 -0.10    +0.272 C  
DOCKED: ATOM      7  C   UNL     1     140.283  75.194 218.254 -0.03 -0.02    +0.087 C  
DOCKED: ENDROOT
DOCKED: BRANCH   1   8
DOCKED: ATOM      8  N   UNL     1     142.010  74.312 219.854 -0.08 +0.09    -0.310 N  
DOCKED: BRANCH   8   9
DOCKED: ATOM      9  C   UNL     1     141.130  74.393 220.991 -0.22 -0.04    +0.187 C  
DOCKED: BRANCH   9  10
DOCKED: ATOM     10  O   UNL     1     141.180  75.543 221.786 -0.27 +0.14    -0.495 OA 
DOCKED: ATOM     11  H   UNL     1     142.041  76.016 222.029 -0.45 -0.21    +0.295 HD 
DOCKED: ENDBRANCH   9  10
DOCKED: BRANCH   9  12
DOCKED: ATOM     12  C   UNL     1     140.314  73.365 221.283 -0.25 -0.01    +0.036 C  
DOCKED: ATOM     13  C   UNL     1     140.670  72.288 222.261 -0.30 -0.00    +0.041 C  
DOCKED: ENDBRANCH   9  12
DOCKED: ENDBRANCH   8   9
DOCKED: BRANCH   8  14
DOCKED: ATOM     14  C   UNL     1     143.359  73.910 220.151 -0.31 -0.01    +0.044 A  
DOCKED: ATOM     15  C   UNL     1     143.710  72.550 220.163 -0.29 -0.00    +0.026 A  
DOCKED: ATOM     16  C   UNL     1     144.328  74.877 220.467 -0.37 -0.01    +0.026 A  
DOCKED: ATOM     17  C   UNL     1     145.020  72.165 220.466 -0.32 -0.00    +0.002 A  
DOCKED: ATOM     18  C   UNL     1     145.634  74.487 220.774 -0.45 -0.00    +0.002 A  
DOCKED: ATOM     19  C   UNL     1     145.980  73.134 220.772 -0.66 -0.00    +0.000 A  
DOCKED: ENDBRANCH   8  14
DOCKED: ENDBRANCH   1   8
DOCKED: BRANCH   4  20
DOCKED: ATOM     20  C   UNL     1     142.086  78.314 217.136 -0.13 -0.25    +0.329 C  
DOCKED: ATOM     21  O   UNL     1     141.878  78.901 216.082 -0.11 +0.20    -0.229 OA 
DOCKED: BRANCH  20  22
DOCKED: ATOM     22  C   UNL     1     142.635  79.139 218.303 -0.20 -0.17    +0.186 C  
DOCKED: BRANCH  22  23
DOCKED: ATOM     23  N   UNL     1     143.127  80.432 217.809 -0.10 +0.39    -0.316 NA 
DOCKED: ATOM     24  H   UNL     1     144.168  80.454 217.896 -0.43 -0.22    +0.119 HD 
DOCKED: ATOM     25  H   UNL     1     142.925  80.491 216.786 -0.47 -0.19    +0.119 HD 
DOCKED: ENDBRANCH  22  23
DOCKED: BRANCH  22  26
DOCKED: ATOM     26  C   UNL     1     141.536  79.330 219.387 -0.25 -0.02    +0.028 C  
DOCKED: ATOM     27  C   UNL     1     141.749  78.414 220.624 -0.30 -0.02    +0.042 C  
DOCKED: ATOM     28  C   UNL     1     141.444  80.789 219.921 -0.28 -0.02    +0.042 C  
DOCKED: ATOM     29  C   UNL     1     141.902  79.360 221.754 -0.42 +0.02    -0.044 A  
DOCKED: ATOM     30  C   UNL     1     141.734  80.666 221.367 -0.38 +0.01    -0.044 A  
DOCKED: ATOM     31  C   UNL     1     142.162  79.032 223.088 -0.58 -0.00    +0.004 A  
DOCKED: ATOM     32  C   UNL     1     141.840  81.713 222.287 -0.43 -0.00    +0.004 A  
DOCKED: ATOM     33  C   UNL     1     142.271  80.067 224.029 -0.57 -0.00    +0.000 A  
DOCKED: ATOM     34  C   UNL     1     142.111  81.406 223.629 -0.59 -0.00    +0.000 A  
DOCKED: ENDBRANCH  22  26
DOCKED: ENDBRANCH  20  22
DOCKED: ENDBRANCH   4  20
DOCKED: TORSDOF 9
DOCKED: TER
DOCKED: ENDMDL
________________________________________________________________________________


    FINAL DOCKED STATE:
    ________________________


Run:   2 / 20
Time taken for this run:   0.077s

DOCKED: MODEL        2
DOCKED: USER    Run = 2
DOCKED: USER
DOCKED: USER    Estimated Free Energy of Binding    =  -7.47 kcal/mol  [=(1)+(2)+(3)-(4)]
DOCKED: USER
DOCKED: USER    (1) Final Intermolecular Energy     = -10.15 kcal/mol
DOCKED: USER        vdW + Hbond + desolv Energy     =  -9.48 kcal/mol
DOCKED: USER        Electrostatic Energy            =  -0.68 kcal/mol
DOCKED: USER        Moving Ligand-Fixed Receptor    = -10.15 kcal/mol
DOCKED: USER        Moving Ligand-Moving Receptor   =  +0.00 kcal/mol
DOCKED: USER    (2) Final Total Internal Energy     =  -2.44 kcal/mol
DOCKED: USER    (3) Torsional Free Energy           =  +2.68 kcal/mol
DOCKED: USER    (4) Unbound System's Energy         =  -2.44 kcal/mol
DOCKED: USER
DOCKED: USER
DOCKED: REMARK SMILES C/C=C(\O)N(c1ccccc1)[C@H]1CC[N@@H+](C(=O)[C@@H](N)C2Cc3ccccc3C2)CC1
DOCKED: REMARK SMILES IDX 12 1 13 2 14 3 15 4 29 6 30 7 5 8 3 9 4 10 2 12 1 13 6 14
DOCKED: REMARK SMILES IDX 7 15 11 16 8 17 10 18 9 19 16 20 17 21 18 22 19 23 20 26
DOCKED: REMARK SMILES IDX 21 27 28 28 22 29 27 30 23 31 26 32 24 33 25 34
DOCKED: REMARK H PARENT 15 5 4 11 19 24 19 25
DOCKED: USER                              x       y       z     vdW  Elec       q    Type
DOCKED: USER                           _______ _______ _______ _____ _____    ______ ____
DOCKED: ROOT
DOCKED: ATOM      1  C   UNL     1     142.035  74.247 218.075 -0.05 -0.03    +0.102 C  
DOCKED: ATOM      2  C   UNL     1     143.072  74.848 217.094 -0.11 -0.03    +0.087 C  
DOCKED: ATOM      3  C   UNL     1     143.185  76.371 217.264 -0.16 -0.16    +0.272 C  
DOCKED: ATOM      4  N   UNL     1     141.876  77.029 217.058 -0.06 +0.14    -0.270 N  
DOCKED: ATOM      5  H   UNL     1     141.552  76.792 216.088 +0.05 -0.17    +0.356 HD 
DOCKED: ATOM      6  C   UNL     1     140.879  76.513 218.022 -0.03 -0.10    +0.272 C  
DOCKED: ATOM      7  C   UNL     1     140.696  74.993 217.867 -0.03 -0.02    +0.087 C  
DOCKED: ENDROOT
DOCKED: BRANCH   1   8
DOCKED: ATOM      8  N   UNL     1     142.486  74.304 219.492 -0.07 +0.09    -0.310 N  
DOCKED: BRANCH   8   9
DOCKED: ATOM      9  C   UNL     1     141.542  74.478 220.565 -0.20 -0.05    +0.187 C  
DOCKED: BRANCH   9  10
DOCKED: ATOM     10  O   UNL     1     141.489  75.720 221.206 -0.14 +0.20    -0.495 OA 
DOCKED: ATOM     11  H   UNL     1     142.156  76.014 221.908 -0.44 -0.23    +0.295 HD 
DOCKED: ENDBRANCH   9  10
DOCKED: BRANCH   9  12
DOCKED: ATOM     12  C   UNL     1     140.765  73.449 220.947 -0.23 -0.01    +0.036 C  
DOCKED: ATOM     13  C   UNL     1     139.651  73.588 221.939 -0.26 -0.01    +0.041 C  
DOCKED: ENDBRANCH   9  12
DOCKED: ENDBRANCH   8   9
DOCKED: BRANCH   8  14
DOCKED: ATOM     14  C   UNL     1     143.771  73.788 219.884 -0.32 -0.01    +0.044 A  
DOCKED: ATOM     15  C   UNL     1     144.724  74.631 220.479 -0.44 -0.01    +0.026 A  
DOCKED: ATOM     16  C   UNL     1     144.095  72.443 219.640 -0.26 -0.00    +0.026 A  
DOCKED: ATOM     17  C   UNL     1     145.976  74.128 220.845 -0.64 -0.00    +0.002 A  
DOCKED: ATOM     18  C   UNL     1     145.349  71.946 220.002 -0.33 +0.00    +0.002 A  
DOCKED: ATOM     19  C   UNL     1     146.288  72.787 220.605 -0.52 +0.00    +0.000 A  
DOCKED: ENDBRANCH   8  14
DOCKED: ENDBRANCH   1   8
DOCKED: BRANCH   4  20
DOCKED: ATOM     20  C   UNL     1     141.909  78.488 217.131 -0.12 -0.24    +0.329 C  
DOCKED: ATOM     21  O   UNL     1     141.396  79.123 216.219 -0.08 +0.16    -0.229 OA 
DOCKED: BRANCH  20  22
DOCKED: ATOM     22  C   UNL     1     142.521  79.286 218.285 -0.23 -0.16    +0.186 C  
DOCKED: BRANCH  22  23
DOCKED: ATOM     23  N   UNL     1     143.162  80.501 217.763 -0.06 +0.40    -0.316 NA 
DOCKED: ATOM     24  H   UNL     1     144.199  80.391 217.825 -0.47 -0.23    +0.119 HD 
DOCKED: ATOM     25  H   UNL     1     142.943  80.576 216.745 -0.48 -0.19    +0.119 HD 
DOCKED: ENDBRANCH  22  23
DOCKED: BRANCH  22  26
DOCKED: ATOM     26  C   UNL     1     141.430  79.631 219.337 -0.24 -0.01    +0.028 C  
DOCKED: ATOM     27  C   UNL     1     141.210  78.489 220.369 -0.26 -0.02    +0.042 C  
DOCKED: ATOM     28  C   UNL     1     141.744  80.917 220.153 -0.28 -0.02    +0.042 C  
DOCKED: ATOM     29  C   UNL     1     141.530  79.114 221.674 -0.38 +0.02    -0.044 A  
DOCKED: ATOM     30  C   UNL     1     141.824  80.449 221.554 -0.41 +0.02    -0.044 A  
DOCKED: ATOM     31  C   UNL     1     141.530  78.485 222.922 -0.52 -0.00    +0.004 A  
DOCKED: ATOM     32  C   UNL     1     142.155  81.219 222.673 -0.52 -0.00    +0.004 A  
DOCKED: ATOM     33  C   UNL     1     141.857  79.240 224.058 -0.58 -0.00    +0.000 A  
DOCKED: ATOM     34  C   UNL     1     142.170  80.605 223.934 -0.60 -0.00    +0.000 A  
DOCKED: ENDBRANCH  22  26
DOCKED: ENDBRANCH  20  22
DOCKED: ENDBRANCH   4  20
DOCKED: TORSDOF 9
DOCKED: TER
DOCKED: ENDMDL
________________________________________________________________________________


    FINAL DOCKED STATE:
    ________________________


Run:   3 / 20
Time taken for this run:   0.077s

DOCKED: MODEL        3
DOCKED: USER    Run = 3
DOCKED: USER
DOCKED: USER    Estimated Free Energy of Binding    =  -7.39 kcal/mol  [=(1)+(2)+(3)-(4)]
DOCKED: USER
DOCKED: USER    (1) Final Intermolecular Energy     = -10.08 kcal/mol
DOCKED: USER        vdW + Hbond + desolv Energy     =  -9.60 kcal/mol
DOCKED: USER        Electrostatic Energy            =  -0.48 kcal/mol
DOCKED: USER        Moving Ligand-Fixed Receptor    = -10.08 kcal/mol
DOCKED: USER        Moving Ligand-Moving Receptor   =  +0.00 kcal/mol
DOCKED: USER    (2) Final Total Internal Energy     =  -2.36 kcal/mol
DOCKED: USER    (3) Torsional Free Energy           =  +2.68 kcal/mol
DOCKED: USER    (4) Unbound System's Energy         =  -2.36 kcal/mol
DOCKED: USER
DOCKED: USER
DOCKED: REMARK SMILES C/C=C(\O)N(c1ccccc1)[C@H]1CC[N@@H+](C(=O)[C@@H](N)C2Cc3ccccc3C2)CC1
DOCKED: REMARK SMILES IDX 12 1 13 2 14 3 15 4 29 6 30 7 5 8 3 9 4 10 2 12 1 13 6 14
DOCKED: REMARK SMILES IDX 7 15 11 16 8 17 10 18 9 19 16 20 17 21 18 22 19 23 20 26
DOCKED: REMARK SMILES IDX 21 27 28 28 22 29 27 30 23 31 26 32 24 33 25 34
DOCKED: REMARK H PARENT 15 5 4 11 19 24 19 25
DOCKED: USER                              x       y       z     vdW  Elec       q    Type
DOCKED: USER                           _______ _______ _______ _____ _____    ______ ____
DOCKED: ROOT
DOCKED: ATOM      1  C   UNL     1     140.729  73.610 218.790 -0.04 -0.02    +0.102 C  
DOCKED: ATOM      2  C   UNL     1     141.753  73.867 217.657 -0.03 -0.02    +0.087 C  
DOCKED: ATOM      3  C   UNL     1     142.198  75.338 217.627 -0.05 -0.10    +0.272 C  
DOCKED: ATOM      4  N   UNL     1     141.038  76.242 217.455 -0.01 +0.10    -0.270 N  
DOCKED: ATOM      5  H   UNL     1     140.568  75.983 216.553 +0.03 -0.12    +0.356 HD 
DOCKED: ATOM      6  C   UNL     1     140.069  76.057 218.557 -0.01 -0.08    +0.272 C  
DOCKED: ATOM      7  C   UNL     1     139.559  74.605 218.608 -0.02 -0.02    +0.087 C  
DOCKED: ENDROOT
DOCKED: BRANCH   1   8
DOCKED: ATOM      8  N   UNL     1     141.336  73.712 220.145 -0.06 +0.06    -0.310 N  
DOCKED: BRANCH   8   9
DOCKED: ATOM      9  C   UNL     1     140.563  73.432 221.327 -0.21 -0.03    +0.187 C  
DOCKED: BRANCH   9  10
DOCKED: ATOM     10  O   UNL     1     139.998  74.508 222.019 -0.70 +0.05    -0.495 OA 
DOCKED: ATOM     11  H   UNL     1     139.279  74.401 222.724 -0.39 -0.07    +0.295 HD 
DOCKED: ENDBRANCH   9  10
DOCKED: BRANCH   9  12
DOCKED: ATOM     12  C   UNL     1     140.429  72.165 221.756 -0.26 -0.00    +0.036 C  
DOCKED: ATOM     13  C   UNL     1     140.317  71.797 223.203 -0.35 -0.01    +0.041 C  
DOCKED: ENDBRANCH   9  12
DOCKED: ENDBRANCH   8   9
DOCKED: BRANCH   8  14
DOCKED: ATOM     14  C   UNL     1     142.764  73.680 220.324 -0.27 -0.01    +0.044 A  
DOCKED: ATOM     15  C   UNL     1     143.509  74.871 220.310 -0.36 -0.01    +0.026 A  
DOCKED: ATOM     16  C   UNL     1     143.427  72.451 220.478 -0.30 -0.00    +0.026 A  
DOCKED: ATOM     17  C   UNL     1     144.898  74.832 220.470 -0.37 -0.00    +0.002 A  
DOCKED: ATOM     18  C   UNL     1     144.815  72.417 220.631 -0.41 -0.00    +0.002 A  
DOCKED: ATOM     19  C   UNL     1     145.549  73.606 220.629 -0.64 -0.00    +0.000 A  
DOCKED: ENDBRANCH   8  14
DOCKED: ENDBRANCH   1   8
DOCKED: BRANCH   4  20
DOCKED: ATOM     20  C   UNL     1     141.381  77.658 217.344 -0.06 -0.17    +0.329 C  
DOCKED: ATOM     21  O   UNL     1     140.978  78.273 216.365 -0.04 +0.12    -0.229 OA 
DOCKED: BRANCH  20  22
DOCKED: ATOM     22  C   UNL     1     142.190  78.439 218.382 -0.23 -0.13    +0.186 C  
DOCKED: BRANCH  22  23
DOCKED: ATOM     23  N   UNL     1     142.976  79.485 217.713 -0.11 +0.39    -0.316 NA 
DOCKED: ATOM     24  H   UNL     1     143.993  79.285 217.849 -0.47 -0.20    +0.119 HD 
DOCKED: ATOM     25  H   UNL     1     142.807  79.417 216.685 -0.41 -0.18    +0.119 HD 
DOCKED: ENDBRANCH  22  23
DOCKED: BRANCH  22  26
DOCKED: ATOM     26  C   UNL     1     141.243  79.045 219.455 -0.22 -0.01    +0.028 C  
DOCKED: ATOM     27  C   UNL     1     140.945  78.057 220.618 -0.25 -0.02    +0.042 C  
DOCKED: ATOM     28  C   UNL     1     141.797  80.346 220.104 -0.31 -0.02    +0.042 C  
DOCKED: ATOM     29  C   UNL     1     141.450  78.754 221.824 -0.39 +0.02    -0.044 A  
DOCKED: ATOM     30  C   UNL     1     141.919  80.013 221.540 -0.41 +0.02    -0.044 A  
DOCKED: ATOM     31  C   UNL     1     141.458  78.260 223.131 -0.54 -0.00    +0.004 A  
DOCKED: ATOM     32  C   UNL     1     142.440  80.834 222.545 -0.55 -0.00    +0.004 A  
DOCKED: ATOM     33  C   UNL     1     141.975  79.068 224.155 -0.51 -0.00    +0.000 A  
DOCKED: ATOM     34  C   UNL     1     142.466  80.353 223.862 -0.66 -0.00    +0.000 A  
DOCKED: ENDBRANCH  22  26
DOCKED: ENDBRANCH  20  22
DOCKED: ENDBRANCH   4  20
DOCKED: TORSDOF 9
DOCKED: TER
DOCKED: ENDMDL
________________________________________________________________________________


    FINAL DOCKED STATE:
    ________________________


Run:   4 / 20
Time taken for this run:   0.077s

DOCKED: MODEL        4
DOCKED: USER    Run = 4
DOCKED: USER
DOCKED: USER    Estimated Free Energy of Binding    =  -7.69 kcal/mol  [=(1)+(2)+(3)-(4)]
DOCKED: USER
DOCKED: USER    (1) Final Intermolecular Energy     = -10.38 kcal/mol
DOCKED: USER        vdW + Hbond + desolv Energy     =  -9.72 kcal/mol
DOCKED: USER        Electrostatic Energy            =  -0.66 kcal/mol
DOCKED: USER        Moving Ligand-Fixed Receptor    = -10.38 kcal/mol
DOCKED: USER        Moving Ligand-Moving Receptor   =  +0.00 kcal/mol
DOCKED: USER    (2) Final Total Internal Energy     =  -2.65 kcal/mol
DOCKED: USER    (3) Torsional Free Energy           =  +2.68 kcal/mol
DOCKED: USER    (4) Unbound System's Energy         =  -2.65 kcal/mol
DOCKED: USER
DOCKED: USER
DOCKED: REMARK SMILES C/C=C(\O)N(c1ccccc1)[C@H]1CC[N@@H+](C(=O)[C@@H](N)C2Cc3ccccc3C2)CC1
DOCKED: REMARK SMILES IDX 12 1 13 2 14 3 15 4 29 6 30 7 5 8 3 9 4 10 2 12 1 13 6 14
DOCKED: REMARK SMILES IDX 7 15 11 16 8 17 10 18 9 19 16 20 17 21 18 22 19 23 20 26
DOCKED: REMARK SMILES IDX 21 27 28 28 22 29 27 30 23 31 26 32 24 33 25 34
DOCKED: REMARK H PARENT 15 5 4 11 19 24 19 25
DOCKED: USER                              x       y       z     vdW  Elec       q    Type
DOCKED: USER                           _______ _______ _______ _____ _____    ______ ____
DOCKED: ROOT
DOCKED: ATOM      1  C   UNL     1     143.069  72.274 218.936 -0.09 -0.01    +0.102 C  
DOCKED: ATOM      2  C   UNL     1     141.725  72.754 218.337 -0.03 -0.02    +0.087 C  
DOCKED: ATOM      3  C   UNL     1     140.934  73.601 219.346 -0.03 -0.06    +0.272 C  
DOCKED: ATOM      4  N   UNL     1     140.673  72.843 220.591 -0.08 +0.04    -0.270 N  
DOCKED: ATOM      5  H   UNL     1     140.130  71.984 220.329 +0.07 -0.06    +0.356 HD 
DOCKED: ATOM      6  C   UNL     1     141.946  72.420 221.215 -0.12 -0.03    +0.272 C  
DOCKED: ATOM      7  C   UNL     1     142.763  71.532 220.259 -0.19 -0.01    +0.087 C  
DOCKED: ENDROOT
DOCKED: BRANCH   1   8
DOCKED: ATOM      8  N   UNL     1     144.038  73.386 219.137 -0.09 +0.05    -0.310 N  
DOCKED: BRANCH   8   9
DOCKED: ATOM      9  C   UNL     1     145.444  73.124 219.303 -0.28 +0.04    +0.187 C  
DOCKED: BRANCH   9  10
DOCKED: ATOM     10  O   UNL     1     146.294  73.360 218.219 -0.56 -0.42    -0.495 OA 
DOCKED: ATOM     11  H   UNL     1     146.424  74.273 217.801 -0.39 -0.06    +0.295 HD 
DOCKED: ENDBRANCH   9  10
DOCKED: BRANCH   9  12
DOCKED: ATOM     12  C   UNL     1     145.901  72.633 220.469 -0.50 +0.00    +0.036 C  
DOCKED: ATOM     13  C   UNL     1     146.328  73.500 221.613 -0.67 -0.01    +0.041 C  
DOCKED: ENDBRANCH   9  12
DOCKED: ENDBRANCH   8   9
DOCKED: BRANCH   8  14
DOCKED: ATOM     14  C   UNL     1     143.704  74.737 218.769 -0.25 -0.02    +0.044 A  
DOCKED: ATOM     15  C   UNL     1     143.366  75.679 219.755 -0.39 -0.02    +0.026 A  
DOCKED: ATOM     16  C   UNL     1     143.679  75.112 217.416 -0.18 -0.01    +0.026 A  
DOCKED: ATOM     17  C   UNL     1     143.030  76.986 219.391 -0.33 -0.00    +0.002 A  
DOCKED: ATOM     18  C   UNL     1     143.336  76.418 217.057 -0.25 -0.00    +0.002 A  
DOCKED: ATOM     19  C   UNL     1     143.014  77.354 218.042 -0.30 -0.00    +0.000 A  
DOCKED: ENDBRANCH   8  14
DOCKED: ENDBRANCH   1   8
DOCKED: BRANCH   4  20
DOCKED: ATOM     20  C   UNL     1     139.863  73.553 221.578 -0.16 -0.05    +0.329 C  
DOCKED: ATOM     21  O   UNL     1     139.908  73.172 222.741 -0.71 +0.02    -0.229 OA 
DOCKED: BRANCH  20  22
DOCKED: ATOM     22  C   UNL     1     138.975  74.760 221.266 -0.16 -0.04    +0.186 C  
DOCKED: BRANCH  22  23
DOCKED: ATOM     23  N   UNL     1     138.089  75.031 222.407 -0.04 +0.11    -0.316 NA 
DOCKED: ATOM     24  H   UNL     1     137.811  74.123 222.845 -0.53 -0.07    +0.119 HD 
DOCKED: ATOM     25  H   UNL     1     138.637  75.542 223.135 -0.38 -0.04    +0.119 HD 
DOCKED: ENDBRANCH  22  23
DOCKED: BRANCH  22  26
DOCKED: ATOM     26  C   UNL     1     139.852  75.998 220.927 -0.22 -0.01    +0.028 C  
DOCKED: ATOM     27  C   UNL     1     139.046  77.326 220.947 -0.14 -0.01    +0.042 C  
DOCKED: ATOM     28  C   UNL     1     141.053  76.187 221.897 -0.33 -0.01    +0.042 C  
DOCKED: ATOM     29  C   UNL     1     139.715  78.139 221.990 -0.27 +0.01    -0.044 A  
DOCKED: ATOM     30  C   UNL     1     140.818  77.512 222.512 -0.41 +0.02    -0.044 A  
DOCKED: ATOM     31  C   UNL     1     139.336  79.413 222.426 -0.28 -0.00    +0.004 A  
DOCKED: ATOM     32  C   UNL     1     141.587  78.115 223.512 -0.45 -0.00    +0.004 A  
DOCKED: ATOM     33  C   UNL     1     140.095  80.037 223.427 -0.45 -0.00    +0.000 A  
DOCKED: ATOM     34  C   UNL     1     141.219  79.389 223.970 -0.54 -0.00    +0.000 A  
DOCKED: ENDBRANCH  22  26
DOCKED: ENDBRANCH  20  22
DOCKED: ENDBRANCH   4  20
DOCKED: TORSDOF 9
DOCKED: TER
DOCKED: ENDMDL
________________________________________________________________________________


    FINAL DOCKED STATE:
    ________________________


Run:   5 / 20
Time taken for this run:   0.077s

DOCKED: MODEL        5
DOCKED: USER    Run = 5
DOCKED: USER
DOCKED: USER    Estimated Free Energy of Binding    =  -6.93 kcal/mol  [=(1)+(2)+(3)-(4)]
DOCKED: USER
DOCKED: USER    (1) Final Intermolecular Energy     =  -9.61 kcal/mol
DOCKED: USER        vdW + Hbond + desolv Energy     =  -8.88 kcal/mol
DOCKED: USER        Electrostatic Energy            =  -0.73 kcal/mol
DOCKED: USER        Moving Ligand-Fixed Receptor    =  -9.61 kcal/mol
DOCKED: USER        Moving Ligand-Moving Receptor   =  +0.00 kcal/mol
DOCKED: USER    (2) Final Total Internal Energy     =  -2.82 kcal/mol
DOCKED: USER    (3) Torsional Free Energy           =  +2.68 kcal/mol
DOCKED: USER    (4) Unbound System's Energy         =  -2.82 kcal/mol
DOCKED: USER
DOCKED: USER
DOCKED: REMARK SMILES C/C=C(\O)N(c1ccccc1)[C@H]1CC[N@@H+](C(=O)[C@@H](N)C2Cc3ccccc3C2)CC1
DOCKED: REMARK SMILES IDX 12 1 13 2 14 3 15 4 29 6 30 7 5 8 3 9 4 10 2 12 1 13 6 14
DOCKED: REMARK SMILES IDX 7 15 11 16 8 17 10 18 9 19 16 20 17 21 18 22 19 23 20 26
DOCKED: REMARK SMILES IDX 21 27 28 28 22 29 27 30 23 31 26 32 24 33 25 34
DOCKED: REMARK H PARENT 15 5 4 11 19 24 19 25
DOCKED: USER                              x       y       z     vdW  Elec       q    Type
DOCKED: USER                           _______ _______ _______ _____ _____    ______ ____
DOCKED: ROOT
DOCKED: ATOM      1  C   UNL     1     142.599  74.298 218.046 -0.08 -0.03    +0.102 C  
DOCKED: ATOM      2  C   UNL     1     143.707  75.019 217.239 -0.15 -0.04    +0.087 C  
DOCKED: ATOM      3  C   UNL     1     143.595  76.545 217.375 -0.07 -0.18    +0.272 C  
DOCKED: ATOM      4  N   UNL     1     142.268  77.025 216.924 -0.09 +0.16    -0.270 N  
DOCKED: ATOM      5  H   UNL     1     142.152  76.738 215.922 +0.06 -0.19    +0.356 HD 
DOCKED: ATOM      6  C   UNL     1     141.192  76.393 217.719 -0.03 -0.11    +0.272 C  
DOCKED: ATOM      7  C   UNL     1     141.234  74.860 217.586 -0.03 -0.03    +0.087 C  
DOCKED: ENDROOT
DOCKED: BRANCH   1   8
DOCKED: ATOM      8  N   UNL     1     142.785  74.429 219.517 -0.10 +0.10    -0.310 N  
DOCKED: BRANCH   8   9
DOCKED: ATOM      9  C   UNL     1     143.992  74.991 220.065 -0.30 -0.09    +0.187 C  
DOCKED: BRANCH   9  10
DOCKED: ATOM     10  O   UNL     1     144.122  76.383 220.089 -0.17 +0.41    -0.495 OA 
DOCKED: ATOM     11  H   UNL     1     143.769  76.963 220.840 -0.31 -0.39    +0.295 HD 
DOCKED: ENDBRANCH   9  10
DOCKED: BRANCH   9  12
DOCKED: ATOM     12  C   UNL     1     144.970  74.180 220.505 -0.50 -0.01    +0.036 C  
DOCKED: ATOM     13  C   UNL     1     144.752  72.734 220.827 -0.44 -0.01    +0.041 C  
DOCKED: ENDBRANCH   9  12
DOCKED: ENDBRANCH   8   9
DOCKED: BRANCH   8  14
DOCKED: ATOM     14  C   UNL     1     141.659  74.400 220.413 -0.23 -0.01    +0.044 A  
DOCKED: ATOM     15  C   UNL     1     140.903  73.226 220.566 -0.18 -0.00    +0.026 A  
DOCKED: ATOM     16  C   UNL     1     141.287  75.558 221.114 -0.31 -0.01    +0.026 A  
DOCKED: ATOM     17  C   UNL     1     139.802  73.207 221.428 -0.23 -0.00    +0.002 A  
DOCKED: ATOM     18  C   UNL     1     140.183  75.537 221.969 -0.35 -0.00    +0.002 A  
DOCKED: ATOM     19  C   UNL     1     139.442  74.363 222.127 -0.20 -0.00    +0.000 A  
DOCKED: ENDBRANCH   8  14
DOCKED: ENDBRANCH   1   8
DOCKED: BRANCH   4  20
DOCKED: ATOM     20  C   UNL     1     142.103  78.476 216.954 -0.13 -0.27    +0.329 C  
DOCKED: ATOM     21  O   UNL     1     141.518  79.008 216.019 -0.08 +0.17    -0.229 OA 
DOCKED: BRANCH  20  22
DOCKED: ATOM     22  C   UNL     1     142.589  79.383 218.087 -0.24 -0.17    +0.186 C  
DOCKED: BRANCH  22  23
DOCKED: ATOM     23  N   UNL     1     143.038  80.669 217.536 -0.06 +0.40    -0.316 NA 
DOCKED: ATOM     24  H   UNL     1     144.063  80.773 217.709 -0.42 -0.22    +0.119 HD 
DOCKED: ATOM     25  H   UNL     1     142.926  80.639 216.498 -0.47 -0.20    +0.119 HD 
DOCKED: ENDBRANCH  22  23
DOCKED: BRANCH  22  26
DOCKED: ATOM     26  C   UNL     1     141.459  79.583 219.136 -0.24 -0.01    +0.028 C  
DOCKED: ATOM     27  C   UNL     1     141.444  78.468 220.219 -0.27 -0.02    +0.042 C  
DOCKED: ATOM     28  C   UNL     1     141.550  80.939 219.891 -0.28 -0.02    +0.042 C  
DOCKED: ATOM     29  C   UNL     1     141.658  79.196 221.492 -0.37 +0.02    -0.044 A  
DOCKED: ATOM     30  C   UNL     1     141.717  80.556 221.310 -0.38 +0.02    -0.044 A  
DOCKED: ATOM     31  C   UNL     1     141.771  78.634 222.767 -0.51 -0.00    +0.004 A  
DOCKED: ATOM     32  C   UNL     1     141.915  81.421 222.390 -0.47 -0.00    +0.004 A  
DOCKED: ATOM     33  C   UNL     1     141.969  79.485 223.865 -0.61 -0.00    +0.000 A  
DOCKED: ATOM     34  C   UNL     1     142.041  80.877 223.677 -0.63 -0.00    +0.000 A  
DOCKED: ENDBRANCH  22  26
DOCKED: ENDBRANCH  20  22
DOCKED: ENDBRANCH   4  20
DOCKED: TORSDOF 9
DOCKED: TER
DOCKED: ENDMDL
________________________________________________________________________________


    FINAL DOCKED STATE:
    ________________________


Run:   6 / 20
Time taken for this run:   0.077s

DOCKED: MODEL        6
DOCKED: USER    Run = 6
DOCKED: USER
DOCKED: USER    Estimated Free Energy of Binding    =  -7.08 kcal/mol  [=(1)+(2)+(3)-(4)]
DOCKED: USER
DOCKED: USER    (1) Final Intermolecular Energy     =  -9.76 kcal/mol
DOCKED: USER        vdW + Hbond + desolv Energy     =  -9.06 kcal/mol
DOCKED: USER        Electrostatic Energy            =  -0.70 kcal/mol
DOCKED: USER        Moving Ligand-Fixed Receptor    =  -9.76 kcal/mol
DOCKED: USER        Moving Ligand-Moving Receptor   =  +0.00 kcal/mol
DOCKED: USER    (2) Final Total Internal Energy     =  -2.74 kcal/mol
DOCKED: USER    (3) Torsional Free Energy           =  +2.68 kcal/mol
DOCKED: USER    (4) Unbound System's Energy         =  -2.74 kcal/mol
DOCKED: USER
DOCKED: USER
DOCKED: REMARK SMILES C/C=C(\O)N(c1ccccc1)[C@H]1CC[N@@H+](C(=O)[C@@H](N)C2Cc3ccccc3C2)CC1
DOCKED: REMARK SMILES IDX 12 1 13 2 14 3 15 4 29 6 30 7 5 8 3 9 4 10 2 12 1 13 6 14
DOCKED: REMARK SMILES IDX 7 15 11 16 8 17 10 18 9 19 16 20 17 21 18 22 19 23 20 26
DOCKED: REMARK SMILES IDX 21 27 28 28 22 29 27 30 23 31 26 32 24 33 25 34
DOCKED: REMARK H PARENT 15 5 4 11 19 24 19 25
DOCKED: USER                              x       y       z     vdW  Elec       q    Type
DOCKED: USER                           _______ _______ _______ _____ _____    ______ ____
DOCKED: ROOT
DOCKED: ATOM      1  C   UNL     1     142.682  74.132 218.075 -0.08 -0.03    +0.102 C  
DOCKED: ATOM      2  C   UNL     1     143.756  74.878 217.245 -0.14 -0.03    +0.087 C  
DOCKED: ATOM      3  C   UNL     1     143.630  76.401 217.408 -0.09 -0.18    +0.272 C  
DOCKED: ATOM      4  N   UNL     1     142.285  76.871 217.006 -0.09 +0.15    -0.270 N  
DOCKED: ATOM      5  H   UNL     1     142.142  76.597 216.003 +0.06 -0.19    +0.356 HD 
DOCKED: ATOM      6  C   UNL     1     141.242  76.214 217.823 -0.03 -0.10    +0.272 C  
DOCKED: ATOM      7  C   UNL     1     141.297  74.684 217.666 -0.03 -0.02    +0.087 C  
DOCKED: ENDROOT
DOCKED: BRANCH   1   8
DOCKED: ATOM      8  N   UNL     1     142.911  74.244 219.541 -0.10 +0.09    -0.310 N  
DOCKED: BRANCH   8   9
DOCKED: ATOM      9  C   UNL     1     143.999  75.029 220.065 -0.30 -0.10    +0.187 C  
DOCKED: BRANCH   9  10
DOCKED: ATOM     10  O   UNL     1     143.866  76.421 220.077 -0.16 +0.41    -0.495 OA 
DOCKED: ATOM     11  H   UNL     1     144.217  77.008 220.823 -0.33 -0.38    +0.295 HD 
DOCKED: ENDBRANCH   9  10
DOCKED: BRANCH   9  12
DOCKED: ATOM     12  C   UNL     1     145.119  74.420 220.493 -0.43 -0.01    +0.036 C  
DOCKED: ATOM     13  C   UNL     1     145.178  72.967 220.850 -0.53 -0.01    +0.041 C  
DOCKED: ENDBRANCH   9  12
DOCKED: ENDBRANCH   8   9
DOCKED: BRANCH   8  14
DOCKED: ATOM     14  C   UNL     1     141.865  73.942 220.482 -0.23 -0.01    +0.044 A  
DOCKED: ATOM     15  C   UNL     1     141.068  74.970 221.013 -0.29 -0.01    +0.026 A  
DOCKED: ATOM     16  C   UNL     1     141.657  72.619 220.904 -0.23 -0.00    +0.026 A  
DOCKED: ATOM     17  C   UNL     1     140.062  74.673 221.937 -0.27 -0.00    +0.002 A  
DOCKED: ATOM     18  C   UNL     1     140.655  72.327 221.833 -0.29 -0.00    +0.002 A  
DOCKED: ATOM     19  C   UNL     1     139.857  73.353 222.347 -0.23 -0.00    +0.000 A  
DOCKED: ENDBRANCH   8  14
DOCKED: ENDBRANCH   1   8
DOCKED: BRANCH   4  20
DOCKED: ATOM     20  C   UNL     1     142.104  78.320 217.062 -0.13 -0.26    +0.329 C  
DOCKED: ATOM     21  O   UNL     1     141.514  78.863 216.137 -0.08 +0.16    -0.229 OA 
DOCKED: BRANCH  20  22
DOCKED: ATOM     22  C   UNL     1     142.579  79.210 218.213 -0.25 -0.17    +0.186 C  
DOCKED: BRANCH  22  23
DOCKED: ATOM     23  N   UNL     1     143.086  80.482 217.679 -0.04 +0.40    -0.316 NA 
DOCKED: ATOM     24  H   UNL     1     144.120  80.524 217.824 -0.47 -0.22    +0.119 HD 
DOCKED: ATOM     25  H   UNL     1     142.943  80.485 216.644 -0.51 -0.20    +0.119 HD 
DOCKED: ENDBRANCH  22  23
DOCKED: BRANCH  22  26
DOCKED: ATOM     26  C   UNL     1     141.421  79.444 219.224 -0.24 -0.01    +0.028 C  
DOCKED: ATOM     27  C   UNL     1     141.272  78.281 220.243 -0.25 -0.02    +0.042 C  
DOCKED: ATOM     28  C   UNL     1     141.581  80.750 220.053 -0.29 -0.02    +0.042 C  
DOCKED: ATOM     29  C   UNL     1     141.483  78.926 221.561 -0.36 +0.02    -0.044 A  
DOCKED: ATOM     30  C   UNL     1     141.653  80.284 221.456 -0.38 +0.02    -0.044 A  
DOCKED: ATOM     31  C   UNL     1     141.496  78.292 222.807 -0.49 -0.00    +0.004 A  
DOCKED: ATOM     32  C   UNL     1     141.867  81.075 222.588 -0.53 -0.00    +0.004 A  
DOCKED: ATOM     33  C   UNL     1     141.707  79.069 223.957 -0.61 -0.00    +0.000 A  
DOCKED: ATOM     34  C   UNL     1     141.893  80.458 223.847 -0.61 -0.00    +0.000 A  
DOCKED: ENDBRANCH  22  26
DOCKED: ENDBRANCH  20  22
DOCKED: ENDBRANCH   4  20
DOCKED: TORSDOF 9
DOCKED: TER
DOCKED: ENDMDL
________________________________________________________________________________


    FINAL DOCKED STATE:
    ________________________


Run:   7 / 20
Time taken for this run:   0.077s

DOCKED: MODEL        7
DOCKED: USER    Run = 7
DOCKED: USER
DOCKED: USER    Estimated Free Energy of Binding    =  -6.89 kcal/mol  [=(1)+(2)+(3)-(4)]
DOCKED: USER
DOCKED: USER    (1) Final Intermolecular Energy     =  -9.58 kcal/mol
DOCKED: USER        vdW + Hbond + desolv Energy     =  -9.20 kcal/mol
DOCKED: USER        Electrostatic Energy            =  -0.38 kcal/mol
DOCKED: USER        Moving Ligand-Fixed Receptor    =  -9.58 kcal/mol
DOCKED: USER        Moving Ligand-Moving Receptor   =  +0.00 kcal/mol
DOCKED: USER    (2) Final Total Internal Energy     =  -2.94 kcal/mol
DOCKED: USER    (3) Torsional Free Energy           =  +2.68 kcal/mol
DOCKED: USER    (4) Unbound System's Energy         =  -2.94 kcal/mol
DOCKED: USER
DOCKED: USER
DOCKED: REMARK SMILES C/C=C(\O)N(c1ccccc1)[C@H]1CC[N@@H+](C(=O)[C@@H](N)C2Cc3ccccc3C2)CC1
DOCKED: REMARK SMILES IDX 12 1 13 2 14 3 15 4 29 6 30 7 5 8 3 9 4 10 2 12 1 13 6 14
DOCKED: REMARK SMILES IDX 7 15 11 16 8 17 10 18 9 19 16 20 17 21 18 22 19 23 20 26
DOCKED: REMARK SMILES IDX 21 27 28 28 22 29 27 30 23 31 26 32 24 33 25 34
DOCKED: REMARK H PARENT 15 5 4 11 19 24 19 25
DOCKED: USER                              x       y       z     vdW  Elec       q    Type
DOCKED: USER                           _______ _______ _______ _____ _____    ______ ____
DOCKED: ROOT
DOCKED: ATOM      1  C   UNL     1     138.759  74.709 219.551 -0.04 -0.02    +0.102 C  
DOCKED: ATOM      2  C   UNL     1     137.588  74.140 220.389 -0.06 -0.02    +0.087 C  
DOCKED: ATOM      3  C   UNL     1     138.087  73.135 221.439 -0.08 -0.07    +0.272 C  
DOCKED: ATOM      4  N   UNL     1     138.823  72.019 220.802 -0.03 +0.05    -0.270 N  
DOCKED: ATOM      5  H   UNL     1     138.166  71.551 220.131 +0.04 -0.07    +0.356 HD 
DOCKED: ATOM      6  C   UNL     1     139.983  72.532 220.040 -0.04 -0.05    +0.272 C  
DOCKED: ATOM      7  C   UNL     1     139.534  73.515 218.944 -0.03 -0.02    +0.087 C  
DOCKED: ENDROOT
DOCKED: BRANCH   1   8
DOCKED: ATOM      8  N   UNL     1     139.649  75.601 220.342 -0.04 +0.08    -0.310 N  
DOCKED: BRANCH   8   9
DOCKED: ATOM      9  C   UNL     1     139.343  75.930 221.710 -0.23 -0.04    +0.187 C  
DOCKED: BRANCH   9  10
DOCKED: ATOM     10  O   UNL     1     139.736  75.035 222.711 -0.35 +0.02    -0.495 OA 
DOCKED: ATOM     11  H   UNL     1     139.129  74.318 223.087 -0.49 -0.12    +0.295 HD 
DOCKED: ENDBRANCH   9  10
DOCKED: BRANCH   9  12
DOCKED: ATOM     12  C   UNL     1     138.666  77.057 221.994 -0.26 -0.01    +0.036 C  
DOCKED: ATOM     13  C   UNL     1     139.302  78.261 222.617 -0.31 -0.01    +0.041 C  
DOCKED: ENDBRANCH   9  12
DOCKED: ENDBRANCH   8   9
DOCKED: BRANCH   8  14
DOCKED: ATOM     14  C   UNL     1     141.014  75.830 219.947 -0.17 -0.02    +0.044 A  
DOCKED: ATOM     15  C   UNL     1     141.323  76.821 219.000 -0.15 -0.01    +0.026 A  
DOCKED: ATOM     16  C   UNL     1     142.044  75.036 220.479 -0.29 -0.01    +0.026 A  
DOCKED: ATOM     17  C   UNL     1     142.650  77.029 218.610 -0.32 -0.00    +0.002 A  
DOCKED: ATOM     18  C   UNL     1     143.366  75.244 220.081 -0.39 -0.00    +0.002 A  
DOCKED: ATOM     19  C   UNL     1     143.669  76.240 219.149 -0.34 -0.00    +0.000 A  
DOCKED: ENDBRANCH   8  14
DOCKED: ENDBRANCH   1   8
DOCKED: BRANCH   4  20
DOCKED: ATOM     20  C   UNL     1     139.271  70.980 221.726 -0.08 -0.06    +0.329 C  
DOCKED: ATOM     21  O   UNL     1     138.964  69.820 221.481 -0.08 +0.04    -0.229 OA 
DOCKED: BRANCH  20  22
DOCKED: ATOM     22  C   UNL     1     140.124  71.234 222.971 -0.23 -0.03    +0.186 C  
DOCKED: BRANCH  22  23
DOCKED: ATOM     23  N   UNL     1     140.536  72.644 223.011 -0.40 +0.01    -0.316 NA 
DOCKED: ATOM     24  H   UNL     1     140.371  73.072 222.072 +0.02 -0.01    +0.119 HD 
DOCKED: ATOM     25  H   UNL     1     139.906  73.152 223.671 -0.35 -0.02    +0.119 HD 
DOCKED: ENDBRANCH  22  23
DOCKED: BRANCH  22  26
DOCKED: ATOM     26  C   UNL     1     139.334  70.841 224.251 -0.38 -0.01    +0.028 C  
DOCKED: ATOM     27  C   UNL     1     139.229  69.303 224.442 -0.33 -0.01    +0.042 C  
DOCKED: ATOM     28  C   UNL     1     139.953  71.413 225.558 -0.37 -0.01    +0.042 C  
DOCKED: ATOM     29  C   UNL     1     139.893  69.052 225.742 -0.45 +0.01    -0.044 A  
DOCKED: ATOM     30  C   UNL     1     140.292  70.214 226.356 -0.52 +0.01    -0.044 A  
DOCKED: ATOM     31  C   UNL     1     140.103  67.810 226.347 -0.66 -0.00    +0.004 A  
DOCKED: ATOM     32  C   UNL     1     140.940  70.192 227.594 -0.61 -0.00    +0.004 A  
DOCKED: ATOM     33  C   UNL     1     140.750  67.765 227.591 -0.59 -0.00    +0.000 A  
DOCKED: ATOM     34  C   UNL     1     141.169  68.954 228.214 -0.58 -0.00    +0.000 A  
DOCKED: ENDBRANCH  22  26
DOCKED: ENDBRANCH  20  22
DOCKED: ENDBRANCH   4  20
DOCKED: TORSDOF 9
DOCKED: TER
DOCKED: ENDMDL
________________________________________________________________________________


    FINAL DOCKED STATE:
    ________________________


Run:   8 / 20
Time taken for this run:   0.077s

DOCKED: MODEL        8
DOCKED: USER    Run = 8
DOCKED: USER
DOCKED: USER    Estimated Free Energy of Binding    =  -7.65 kcal/mol  [=(1)+(2)+(3)-(4)]
DOCKED: USER
DOCKED: USER    (1) Final Intermolecular Energy     = -10.34 kcal/mol
DOCKED: USER        vdW + Hbond + desolv Energy     =  -9.69 kcal/mol
DOCKED: USER        Electrostatic Energy            =  -0.65 kcal/mol
DOCKED: USER        Moving Ligand-Fixed Receptor    = -10.34 kcal/mol
DOCKED: USER        Moving Ligand-Moving Receptor   =  +0.00 kcal/mol
DOCKED: USER    (2) Final Total Internal Energy     =  -2.67 kcal/mol
DOCKED: USER    (3) Torsional Free Energy           =  +2.68 kcal/mol
DOCKED: USER    (4) Unbound System's Energy         =  -2.67 kcal/mol
DOCKED: USER
DOCKED: USER
DOCKED: REMARK SMILES C/C=C(\O)N(c1ccccc1)[C@H]1CC[N@@H+](C(=O)[C@@H](N)C2Cc3ccccc3C2)CC1
DOCKED: REMARK SMILES IDX 12 1 13 2 14 3 15 4 29 6 30 7 5 8 3 9 4 10 2 12 1 13 6 14
DOCKED: REMARK SMILES IDX 7 15 11 16 8 17 10 18 9 19 16 20 17 21 18 22 19 23 20 26
DOCKED: REMARK SMILES IDX 21 27 28 28 22 29 27 30 23 31 26 32 24 33 25 34
DOCKED: REMARK H PARENT 15 5 4 11 19 24 19 25
DOCKED: USER                              x       y       z     vdW  Elec       q    Type
DOCKED: USER                           _______ _______ _______ _____ _____    ______ ____
DOCKED: ROOT
DOCKED: ATOM      1  C   UNL     1     143.068  72.234 218.970 -0.10 -0.01    +0.102 C  
DOCKED: ATOM      2  C   UNL     1     141.721  72.690 218.355 -0.03 -0.02    +0.087 C  
DOCKED: ATOM      3  C   UNL     1     140.918  73.551 219.342 -0.03 -0.06    +0.272 C  
DOCKED: ATOM      4  N   UNL     1     140.659  72.817 220.601 -0.08 +0.04    -0.270 N  
DOCKED: ATOM      5  H   UNL     1     140.125  71.948 220.356 +0.07 -0.06    +0.356 HD 
DOCKED: ATOM      6  C   UNL     1     141.932  72.418 221.240 -0.11 -0.03    +0.272 C  
DOCKED: ATOM      7  C   UNL     1     142.761  71.518 220.306 -0.19 -0.01    +0.087 C  
DOCKED: ENDROOT
DOCKED: BRANCH   1   8
DOCKED: ATOM      8  N   UNL     1     144.025  73.359 219.152 -0.09 +0.05    -0.310 N  
DOCKED: BRANCH   8   9
DOCKED: ATOM      9  C   UNL     1     145.434  73.114 219.317 -0.28 +0.04    +0.187 C  
DOCKED: BRANCH   9  10
DOCKED: ATOM     10  O   UNL     1     146.278  73.337 218.224 -0.56 -0.42    -0.495 OA 
DOCKED: ATOM     11  H   UNL     1     146.427  74.250 217.812 -0.39 -0.05    +0.295 HD 
DOCKED: ENDBRANCH   9  10
DOCKED: BRANCH   9  12
DOCKED: ATOM     12  C   UNL     1     145.901  72.650 220.490 -0.51 +0.00    +0.036 C  
DOCKED: ATOM     13  C   UNL     1     146.279  73.542 221.632 -0.64 -0.01    +0.041 C  
DOCKED: ENDBRANCH   9  12
DOCKED: ENDBRANCH   8   9
DOCKED: BRANCH   8  14
DOCKED: ATOM     14  C   UNL     1     143.677  74.701 218.766 -0.24 -0.02    +0.044 A  
DOCKED: ATOM     15  C   UNL     1     143.681  75.075 217.412 -0.18 -0.01    +0.026 A  
DOCKED: ATOM     16  C   UNL     1     143.366  75.658 219.746 -0.39 -0.01    +0.026 A  
DOCKED: ATOM     17  C   UNL     1     143.355  76.384 217.043 -0.25 -0.00    +0.002 A  
DOCKED: ATOM     18  C   UNL     1     143.047  76.966 219.374 -0.33 -0.00    +0.002 A  
DOCKED: ATOM     19  C   UNL     1     143.040  77.328 218.025 -0.29 -0.00    +0.000 A  
DOCKED: ENDBRANCH   8  14
DOCKED: ENDBRANCH   1   8
DOCKED: BRANCH   4  20
DOCKED: ATOM     20  C   UNL     1     139.837  73.540 221.570 -0.16 -0.05    +0.329 C  
DOCKED: ATOM     21  O   UNL     1     139.853  73.162 222.734 -0.70 +0.03    -0.229 OA 
DOCKED: BRANCH  20  22
DOCKED: ATOM     22  C   UNL     1     138.972  74.758 221.237 -0.16 -0.04    +0.186 C  
DOCKED: BRANCH  22  23
DOCKED: ATOM     23  N   UNL     1     138.076  75.052 222.364 -0.09 +0.10    -0.316 NA 
DOCKED: ATOM     24  H   UNL     1     137.772  74.152 222.800 -0.53 -0.07    +0.119 HD 
DOCKED: ATOM     25  H   UNL     1     138.625  75.553 223.098 -0.36 -0.04    +0.119 HD 
DOCKED: ENDBRANCH  22  23
DOCKED: BRANCH  22  26
DOCKED: ATOM     26  C   UNL     1     139.873  75.979 220.899 -0.21 -0.01    +0.028 C  
DOCKED: ATOM     27  C   UNL     1     139.079  77.314 220.853 -0.13 -0.01    +0.042 C  
DOCKED: ATOM     28  C   UNL     1     141.038  76.185 221.909 -0.33 -0.01    +0.042 C  
DOCKED: ATOM     29  C   UNL     1     139.714  78.150 221.900 -0.26 +0.01    -0.044 A  
DOCKED: ATOM     30  C   UNL     1     140.792  77.528 222.480 -0.41 +0.02    -0.044 A  
DOCKED: ATOM     31  C   UNL     1     139.331  79.437 222.286 -0.26 -0.00    +0.004 A  
DOCKED: ATOM     32  C   UNL     1     141.527  78.151 223.492 -0.48 -0.00    +0.004 A  
DOCKED: ATOM     33  C   UNL     1     140.057  80.082 223.299 -0.43 -0.00    +0.000 A  
DOCKED: ATOM     34  C   UNL     1     141.153  79.439 223.902 -0.55 -0.00    +0.000 A  
DOCKED: ENDBRANCH  22  26
DOCKED: ENDBRANCH  20  22
DOCKED: ENDBRANCH   4  20
DOCKED: TORSDOF 9
DOCKED: TER
DOCKED: ENDMDL
________________________________________________________________________________


    FINAL DOCKED STATE:
    ________________________


Run:   9 / 20
Time taken for this run:   0.077s

DOCKED: MODEL        9
DOCKED: USER    Run = 9
DOCKED: USER
DOCKED: USER    Estimated Free Energy of Binding    =  -6.67 kcal/mol  [=(1)+(2)+(3)-(4)]
DOCKED: USER
DOCKED: USER    (1) Final Intermolecular Energy     =  -9.35 kcal/mol
DOCKED: USER        vdW + Hbond + desolv Energy     =  -9.10 kcal/mol
DOCKED: USER        Electrostatic Energy            =  -0.25 kcal/mol
DOCKED: USER        Moving Ligand-Fixed Receptor    =  -9.35 kcal/mol
DOCKED: USER        Moving Ligand-Moving Receptor   =  +0.00 kcal/mol
DOCKED: USER    (2) Final Total Internal Energy     =  -3.06 kcal/mol
DOCKED: USER    (3) Torsional Free Energy           =  +2.68 kcal/mol
DOCKED: USER    (4) Unbound System's Energy         =  -3.06 kcal/mol
DOCKED: USER
DOCKED: USER
DOCKED: REMARK SMILES C/C=C(\O)N(c1ccccc1)[C@H]1CC[N@@H+](C(=O)[C@@H](N)C2Cc3ccccc3C2)CC1
DOCKED: REMARK SMILES IDX 12 1 13 2 14 3 15 4 29 6 30 7 5 8 3 9 4 10 2 12 1 13 6 14
DOCKED: REMARK SMILES IDX 7 15 11 16 8 17 10 18 9 19 16 20 17 21 18 22 19 23 20 26
DOCKED: REMARK SMILES IDX 21 27 28 28 22 29 27 30 23 31 26 32 24 33 25 34
DOCKED: REMARK H PARENT 15 5 4 11 19 24 19 25
DOCKED: USER                              x       y       z     vdW  Elec       q    Type
DOCKED: USER                           _______ _______ _______ _____ _____    ______ ____
DOCKED: ROOT
DOCKED: ATOM      1  C   UNL     1     139.538  76.784 220.512 -0.11 -0.03    +0.102 C  
DOCKED: ATOM      2  C   UNL     1     138.520  76.437 221.626 -0.21 -0.02    +0.087 C  
DOCKED: ATOM      3  C   UNL     1     138.751  75.020 222.173 -0.08 -0.07    +0.272 C  
DOCKED: ATOM      4  N   UNL     1     138.660  74.010 221.094 -0.08 +0.06    -0.270 N  
DOCKED: ATOM      5  H   UNL     1     137.703  74.087 220.669 +0.06 -0.08    +0.356 HD 
DOCKED: ATOM      6  C   UNL     1     139.662  74.286 220.041 -0.05 -0.06    +0.272 C  
DOCKED: ATOM      7  C   UNL     1     139.451  75.683 219.429 -0.05 -0.02    +0.087 C  
DOCKED: ENDROOT
DOCKED: BRANCH   1   8
DOCKED: ATOM      8  N   UNL     1     140.924  76.942 221.030 -0.13 +0.13    -0.310 N  
DOCKED: BRANCH   8   9
DOCKED: ATOM      9  C   UNL     1     142.014  76.184 220.475 -0.15 -0.10    +0.187 C  
DOCKED: BRANCH   9  10
DOCKED: ATOM     10  O   UNL     1     142.253  74.901 220.978 -0.12 +0.18    -0.495 OA 
DOCKED: ATOM     11  H   UNL     1     142.459  74.713 221.952 -0.08 -0.08    +0.295 HD 
DOCKED: ENDBRANCH   9  10
DOCKED: BRANCH   9  12
DOCKED: ATOM     12  C   UNL     1     142.792  76.727 219.522 -0.35 -0.02    +0.036 C  
DOCKED: ATOM     13  C   UNL     1     142.244  77.454 218.333 -0.26 -0.03    +0.041 C  
DOCKED: ENDBRANCH   9  12
DOCKED: ENDBRANCH   8   9
DOCKED: BRANCH   8  14
DOCKED: ATOM     14  C   UNL     1     141.307  78.108 221.782 -0.36 -0.02    +0.044 A  
DOCKED: ATOM     15  C   UNL     1     141.589  79.317 221.123 -0.34 -0.01    +0.026 A  
DOCKED: ATOM     16  C   UNL     1     141.439  78.034 223.178 -0.47 -0.01    +0.026 A  
DOCKED: ATOM     17  C   UNL     1     141.975  80.443 221.857 -0.47 -0.00    +0.002 A  
DOCKED: ATOM     18  C   UNL     1     141.831  79.160 223.906 -0.62 -0.00    +0.002 A  
DOCKED: ATOM     19  C   UNL     1     142.097  80.363 223.247 -0.62 -0.00    +0.000 A  
DOCKED: ENDBRANCH   8  14
DOCKED: ENDBRANCH   1   8
DOCKED: BRANCH   4  20
DOCKED: ATOM     20  C   UNL     1     138.796  72.626 221.541 -0.09 -0.07    +0.329 C  
DOCKED: ATOM     21  O   UNL     1     137.921  71.830 221.227 -0.05 +0.05    -0.229 OA 
DOCKED: BRANCH  20  22
DOCKED: ATOM     22  C   UNL     1     139.974  72.090 222.359 -0.24 -0.03    +0.186 C  
DOCKED: BRANCH  22  23
DOCKED: ATOM     23  N   UNL     1     141.072  73.067 222.347 -0.42 -0.01    -0.316 NA 
DOCKED: ATOM     24  H   UNL     1     141.685  72.879 221.522 +0.04 -0.01    +0.119 HD 
DOCKED: ATOM     25  H   UNL     1     140.665  74.017 222.189 +0.01 +0.01    +0.119 HD 
DOCKED: ENDBRANCH  22  23
DOCKED: BRANCH  22  26
DOCKED: ATOM     26  C   UNL     1     139.518  71.772 223.811 -0.15 -0.01    +0.028 C  
DOCKED: ATOM     27  C   UNL     1     138.653  70.484 223.898 -0.29 -0.01    +0.042 C  
DOCKED: ATOM     28  C   UNL     1     140.702  71.584 224.802 -0.42 -0.01    +0.042 C  
DOCKED: ATOM     29  C   UNL     1     139.422  69.591 224.797 -0.35 +0.01    -0.044 A  
DOCKED: ATOM     30  C   UNL     1     140.550  70.197 225.293 -0.45 +0.01    -0.044 A  
DOCKED: ATOM     31  C   UNL     1     139.088  68.283 225.160 -0.43 -0.00    +0.004 A  
DOCKED: ATOM     32  C   UNL     1     141.412  69.520 226.160 -0.51 -0.00    +0.004 A  
DOCKED: ATOM     33  C   UNL     1     139.939  67.586 226.031 -0.63 -0.00    +0.000 A  
DOCKED: ATOM     34  C   UNL     1     141.100  68.203 226.530 -0.63 -0.00    +0.000 A  
DOCKED: ENDBRANCH  22  26
DOCKED: ENDBRANCH  20  22
DOCKED: ENDBRANCH   4  20
DOCKED: TORSDOF 9
DOCKED: TER
DOCKED: ENDMDL
________________________________________________________________________________


    FINAL DOCKED STATE:
    ________________________


Run:   10 / 20
Time taken for this run:   0.077s

DOCKED: MODEL        10
DOCKED: USER    Run = 10
DOCKED: USER
DOCKED: USER    Estimated Free Energy of Binding    =  -6.99 kcal/mol  [=(1)+(2)+(3)-(4)]
DOCKED: USER
DOCKED: USER    (1) Final Intermolecular Energy     =  -9.67 kcal/mol
DOCKED: USER        vdW + Hbond + desolv Energy     =  -9.00 kcal/mol
DOCKED: USER        Electrostatic Energy            =  -0.67 kcal/mol
DOCKED: USER        Moving Ligand-Fixed Receptor    =  -9.67 kcal/mol
DOCKED: USER        Moving Ligand-Moving Receptor   =  +0.00 kcal/mol
DOCKED: USER    (2) Final Total Internal Energy     =  -2.80 kcal/mol
DOCKED: USER    (3) Torsional Free Energy           =  +2.68 kcal/mol
DOCKED: USER    (4) Unbound System's Energy         =  -2.80 kcal/mol
DOCKED: USER
DOCKED: USER
DOCKED: REMARK SMILES C/C=C(\O)N(c1ccccc1)[C@H]1CC[N@@H+](C(=O)[C@@H](N)C2Cc3ccccc3C2)CC1
DOCKED: REMARK SMILES IDX 12 1 13 2 14 3 15 4 29 6 30 7 5 8 3 9 4 10 2 12 1 13 6 14
DOCKED: REMARK SMILES IDX 7 15 11 16 8 17 10 18 9 19 16 20 17 21 18 22 19 23 20 26
DOCKED: REMARK SMILES IDX 21 27 28 28 22 29 27 30 23 31 26 32 24 33 25 34
DOCKED: REMARK H PARENT 15 5 4 11 19 24 19 25
DOCKED: USER                              x       y       z     vdW  Elec       q    Type
DOCKED: USER                           _______ _______ _______ _____ _____    ______ ____
DOCKED: ROOT
DOCKED: ATOM      1  C   UNL     1     142.666  74.123 218.070 -0.08 -0.03    +0.102 C  
DOCKED: ATOM      2  C   UNL     1     143.754  74.870 217.259 -0.14 -0.03    +0.087 C  
DOCKED: ATOM      3  C   UNL     1     143.625  76.393 217.421 -0.10 -0.17    +0.272 C  
DOCKED: ATOM      4  N   UNL     1     142.287  76.864 216.997 -0.09 +0.15    -0.270 N  
DOCKED: ATOM      5  H   UNL     1     142.160  76.591 215.992 +0.06 -0.19    +0.356 HD 
DOCKED: ATOM      6  C   UNL     1     141.230  76.206 217.796 -0.03 -0.10    +0.272 C  
DOCKED: ATOM      7  C   UNL     1     141.287  74.676 217.638 -0.03 -0.02    +0.087 C  
DOCKED: ENDROOT
DOCKED: BRANCH   1   8
DOCKED: ATOM      8  N   UNL     1     142.870  74.233 219.540 -0.10 +0.09    -0.310 N  
DOCKED: BRANCH   8   9
DOCKED: ATOM      9  C   UNL     1     144.030  74.893 220.080 -0.32 -0.09    +0.187 C  
DOCKED: BRANCH   9  10
DOCKED: ATOM     10  O   UNL     1     144.058  76.291 220.077 -0.19 +0.40    -0.495 OA 
DOCKED: ATOM     11  H   UNL     1     144.443  76.842 220.835 -0.29 -0.34    +0.295 HD 
DOCKED: ENDBRANCH   9  10
DOCKED: BRANCH   9  12
DOCKED: ATOM     12  C   UNL     1     145.063  74.164 220.539 -0.51 -0.01    +0.036 C  
DOCKED: ATOM     13  C   UNL     1     145.138  72.674 220.406 -0.47 -0.00    +0.041 C  
DOCKED: ENDBRANCH   9  12
DOCKED: ENDBRANCH   8   9
DOCKED: BRANCH   8  14
DOCKED: ATOM     14  C   UNL     1     141.772  74.074 220.456 -0.23 -0.01    +0.044 A  
DOCKED: ATOM     15  C   UNL     1     141.259  72.796 220.735 -0.20 -0.00    +0.026 A  
DOCKED: ATOM     16  C   UNL     1     141.182  75.201 221.051 -0.30 -0.01    +0.026 A  
DOCKED: ATOM     17  C   UNL     1     140.183  72.649 221.616 -0.26 -0.00    +0.002 A  
DOCKED: ATOM     18  C   UNL     1     140.103  75.050 221.925 -0.30 -0.00    +0.002 A  
DOCKED: ATOM     19  C   UNL     1     139.605  73.776 222.209 -0.19 -0.00    +0.000 A  
DOCKED: ENDBRANCH   8  14
DOCKED: ENDBRANCH   1   8
DOCKED: BRANCH   4  20
DOCKED: ATOM     20  C   UNL     1     142.105  78.312 217.052 -0.13 -0.26    +0.329 C  
DOCKED: ATOM     21  O   UNL     1     141.503  78.853 216.133 -0.08 +0.16    -0.229 OA 
DOCKED: BRANCH  20  22
DOCKED: ATOM     22  C   UNL     1     142.593  79.206 218.195 -0.24 -0.17    +0.186 C  
DOCKED: BRANCH  22  23
DOCKED: ATOM     23  N   UNL     1     143.106  80.471 217.651 -0.00 +0.41    -0.316 NA 
DOCKED: ATOM     24  H   UNL     1     144.142  80.504 217.787 -0.47 -0.23    +0.119 HD 
DOCKED: ATOM     25  H   UNL     1     142.955  80.470 216.617 -0.52 -0.20    +0.119 HD 
DOCKED: ENDBRANCH  22  23
DOCKED: BRANCH  22  26
DOCKED: ATOM     26  C   UNL     1     141.443  79.454 219.211 -0.24 -0.01    +0.028 C  
DOCKED: ATOM     27  C   UNL     1     141.273  78.286 220.221 -0.25 -0.02    +0.042 C  
DOCKED: ATOM     28  C   UNL     1     141.630  80.750 220.051 -0.29 -0.02    +0.042 C  
DOCKED: ATOM     29  C   UNL     1     141.500  78.915 221.544 -0.36 +0.02    -0.044 A  
DOCKED: ATOM     30  C   UNL     1     141.697  80.270 221.449 -0.39 +0.02    -0.044 A  
DOCKED: ATOM     31  C   UNL     1     141.504  78.271 222.784 -0.48 -0.00    +0.004 A  
DOCKED: ATOM     32  C   UNL     1     141.929  81.048 222.587 -0.53 -0.00    +0.004 A  
DOCKED: ATOM     33  C   UNL     1     141.733  79.033 223.940 -0.61 -0.00    +0.000 A  
DOCKED: ATOM     34  C   UNL     1     141.946  80.420 223.842 -0.62 -0.00    +0.000 A  
DOCKED: ENDBRANCH  22  26
DOCKED: ENDBRANCH  20  22
DOCKED: ENDBRANCH   4  20
DOCKED: TORSDOF 9
DOCKED: TER
DOCKED: ENDMDL
________________________________________________________________________________


    FINAL DOCKED STATE:
    ________________________


Run:   11 / 20
Time taken for this run:   0.077s

DOCKED: MODEL        11
DOCKED: USER    Run = 11
DOCKED: USER
DOCKED: USER    Estimated Free Energy of Binding    =  -7.22 kcal/mol  [=(1)+(2)+(3)-(4)]
DOCKED: USER
DOCKED: USER    (1) Final Intermolecular Energy     =  -9.91 kcal/mol
DOCKED: USER        vdW + Hbond + desolv Energy     =  -9.45 kcal/mol
DOCKED: USER        Electrostatic Energy            =  -0.46 kcal/mol
DOCKED: USER        Moving Ligand-Fixed Receptor    =  -9.91 kcal/mol
DOCKED: USER        Moving Ligand-Moving Receptor   =  +0.00 kcal/mol
DOCKED: USER    (2) Final Total Internal Energy     =  -2.48 kcal/mol
DOCKED: USER    (3) Torsional Free Energy           =  +2.68 kcal/mol
DOCKED: USER    (4) Unbound System's Energy         =  -2.48 kcal/mol
DOCKED: USER
DOCKED: USER
DOCKED: REMARK SMILES C/C=C(\O)N(c1ccccc1)[C@H]1CC[N@@H+](C(=O)[C@@H](N)C2Cc3ccccc3C2)CC1
DOCKED: REMARK SMILES IDX 12 1 13 2 14 3 15 4 29 6 30 7 5 8 3 9 4 10 2 12 1 13 6 14
DOCKED: REMARK SMILES IDX 7 15 11 16 8 17 10 18 9 19 16 20 17 21 18 22 19 23 20 26
DOCKED: REMARK SMILES IDX 21 27 28 28 22 29 27 30 23 31 26 32 24 33 25 34
DOCKED: REMARK H PARENT 15 5 4 11 19 24 19 25
DOCKED: USER                              x       y       z     vdW  Elec       q    Type
DOCKED: USER                           _______ _______ _______ _____ _____    ______ ____
DOCKED: ROOT
DOCKED: ATOM      1  C   UNL     1     139.689  79.848 219.378 -0.07 -0.03    +0.102 C  
DOCKED: ATOM      2  C   UNL     1     138.798  79.649 220.629 -0.08 -0.02    +0.087 C  
DOCKED: ATOM      3  C   UNL     1     139.019  78.264 221.259 -0.08 -0.06    +0.272 C  
DOCKED: ATOM      4  N   UNL     1     138.744  77.185 220.284 -0.02 +0.06    -0.270 N  
DOCKED: ATOM      5  H   UNL     1     137.749  77.289 219.970 +0.04 -0.07    +0.356 HD 
DOCKED: ATOM      6  C   UNL     1     139.624  77.319 219.102 -0.02 -0.08    +0.272 C  
DOCKED: ATOM      7  C   UNL     1     139.413  78.676 218.407 -0.03 -0.03    +0.087 C  
DOCKED: ENDROOT
DOCKED: BRANCH   1   8
DOCKED: ATOM      8  N   UNL     1     141.134  79.959 219.716 -0.10 +0.13    -0.310 N  
DOCKED: BRANCH   8   9
DOCKED: ATOM      9  C   UNL     1     142.105  80.305 218.711 -0.24 -0.12    +0.187 C  
DOCKED: BRANCH   9  10
DOCKED: ATOM     10  O   UNL     1     142.953  79.300 218.235 -0.17 +0.51    -0.495 OA 
DOCKED: ATOM     11  H   UNL     1     143.629  79.445 217.496 -0.46 -0.55    +0.295 HD 
DOCKED: ENDBRANCH   9  10
DOCKED: BRANCH   9  12
DOCKED: ATOM     12  C   UNL     1     142.202  81.576 218.281 -0.27 -0.02    +0.036 C  
DOCKED: ATOM     13  C   UNL     1     143.322  82.066 217.416 -0.32 -0.04    +0.041 C  
DOCKED: ENDBRANCH   9  12
DOCKED: ENDBRANCH   8   9
DOCKED: BRANCH   8  14
DOCKED: ATOM     14  C   UNL     1     141.568  80.138 221.076 -0.34 -0.02    +0.044 A  
DOCKED: ATOM     15  C   UNL     1     141.473  81.397 221.692 -0.40 -0.01    +0.026 A  
DOCKED: ATOM     16  C   UNL     1     142.123  79.061 221.786 -0.40 -0.02    +0.026 A  
DOCKED: ATOM     17  C   UNL     1     141.910  81.569 223.010 -0.51 -0.00    +0.002 A  
DOCKED: ATOM     18  C   UNL     1     142.563  79.238 223.100 -0.57 -0.00    +0.002 A  
DOCKED: ATOM     19  C   UNL     1     142.455  80.490 223.711 -0.67 -0.00    +0.000 A  
DOCKED: ENDBRANCH   8  14
DOCKED: ENDBRANCH   1   8
DOCKED: BRANCH   4  20
DOCKED: ATOM     20  C   UNL     1     138.862  75.832 220.824 -0.07 -0.07    +0.329 C  
DOCKED: ATOM     21  O   UNL     1     137.877  75.107 220.781 -0.06 +0.05    -0.229 OA 
DOCKED: BRANCH  20  22
DOCKED: ATOM     22  C   UNL     1     140.143  75.244 221.420 -0.24 -0.04    +0.186 C  
DOCKED: BRANCH  22  23
DOCKED: ATOM     23  N   UNL     1     139.806  74.137 222.325 -0.73 +0.02    -0.316 NA 
DOCKED: ATOM     24  H   UNL     1     139.465  74.531 223.231 -0.53 -0.02    +0.119 HD 
DOCKED: ATOM     25  H   UNL     1     138.997  73.615 221.919 -0.03 -0.03    +0.119 HD 
DOCKED: ENDBRANCH  22  23
DOCKED: BRANCH  22  26
DOCKED: ATOM     26  C   UNL     1     141.096  74.773 220.285 -0.20 -0.01    +0.028 C  
DOCKED: ATOM     27  C   UNL     1     142.377  75.647 220.178 -0.27 -0.02    +0.042 C  
DOCKED: ATOM     28  C   UNL     1     141.571  73.301 220.448 -0.20 -0.01    +0.042 C  
DOCKED: ATOM     29  C   UNL     1     143.487  74.693 220.414 -0.35 +0.02    -0.044 A  
DOCKED: ATOM     30  C   UNL     1     143.042  73.403 220.562 -0.28 +0.01    -0.044 A  
DOCKED: ATOM     31  C   UNL     1     144.850  74.996 220.467 -0.27 -0.00    +0.004 A  
DOCKED: ATOM     32  C   UNL     1     143.935  72.353 220.794 -0.35 -0.00    +0.004 A  
DOCKED: ATOM     33  C   UNL     1     145.764  73.957 220.697 -0.64 -0.00    +0.000 A  
DOCKED: ATOM     34  C   UNL     1     145.307  72.637 220.861 -0.50 -0.00    +0.000 A  
DOCKED: ENDBRANCH  22  26
DOCKED: ENDBRANCH  20  22
DOCKED: ENDBRANCH   4  20
DOCKED: TORSDOF 9
DOCKED: TER
DOCKED: ENDMDL
________________________________________________________________________________


    FINAL DOCKED STATE:
    ________________________


Run:   12 / 20
Time taken for this run:   0.077s

DOCKED: MODEL        12
DOCKED: USER    Run = 12
DOCKED: USER
DOCKED: USER    Estimated Free Energy of Binding    =  -7.51 kcal/mol  [=(1)+(2)+(3)-(4)]
DOCKED: USER
DOCKED: USER    (1) Final Intermolecular Energy     = -10.19 kcal/mol
DOCKED: USER        vdW + Hbond + desolv Energy     =  -9.54 kcal/mol
DOCKED: USER        Electrostatic Energy            =  -0.65 kcal/mol
DOCKED: USER        Moving Ligand-Fixed Receptor    = -10.19 kcal/mol
DOCKED: USER        Moving Ligand-Moving Receptor   =  +0.00 kcal/mol
DOCKED: USER    (2) Final Total Internal Energy     =  -2.43 kcal/mol
DOCKED: USER    (3) Torsional Free Energy           =  +2.68 kcal/mol
DOCKED: USER    (4) Unbound System's Energy         =  -2.43 kcal/mol
DOCKED: USER
DOCKED: USER
DOCKED: REMARK SMILES C/C=C(\O)N(c1ccccc1)[C@H]1CC[N@@H+](C(=O)[C@@H](N)C2Cc3ccccc3C2)CC1
DOCKED: REMARK SMILES IDX 12 1 13 2 14 3 15 4 29 6 30 7 5 8 3 9 4 10 2 12 1 13 6 14
DOCKED: REMARK SMILES IDX 7 15 11 16 8 17 10 18 9 19 16 20 17 21 18 22 19 23 20 26
DOCKED: REMARK SMILES IDX 21 27 28 28 22 29 27 30 23 31 26 32 24 33 25 34
DOCKED: REMARK H PARENT 15 5 4 11 19 24 19 25
DOCKED: USER                              x       y       z     vdW  Elec       q    Type
DOCKED: USER                           _______ _______ _______ _____ _____    ______ ____
DOCKED: ROOT
DOCKED: ATOM      1  C   UNL     1     141.438  74.158 218.459 -0.04 -0.03    +0.102 C  
DOCKED: ATOM      2  C   UNL     1     142.495  74.534 217.391 -0.07 -0.03    +0.087 C  
DOCKED: ATOM      3  C   UNL     1     142.837  76.032 217.447 -0.13 -0.14    +0.272 C  
DOCKED: ATOM      4  N   UNL     1     141.627  76.862 217.254 -0.04 +0.13    -0.270 N  
DOCKED: ATOM      5  H   UNL     1     141.219  76.615 216.320 +0.05 -0.15    +0.356 HD 
DOCKED: ATOM      6  C   UNL     1     140.621  76.562 218.297 -0.02 -0.10    +0.272 C  
DOCKED: ATOM      7  C   UNL     1     140.212  75.079 218.260 -0.03 -0.02    +0.087 C  
DOCKED: ENDROOT
DOCKED: BRANCH   1   8
DOCKED: ATOM      8  N   UNL     1     141.971  74.238 219.846 -0.07 +0.08    -0.310 N  
DOCKED: BRANCH   8   9
DOCKED: ATOM      9  C   UNL     1     141.085  74.277 220.980 -0.21 -0.04    +0.187 C  
DOCKED: BRANCH   9  10
DOCKED: ATOM     10  O   UNL     1     141.142  75.388 221.827 -0.33 +0.12    -0.495 OA 
DOCKED: ATOM     11  H   UNL     1     141.997  75.891 222.030 -0.43 -0.18    +0.295 HD 
DOCKED: ENDBRANCH   9  10
DOCKED: BRANCH   9  12
DOCKED: ATOM     12  C   UNL     1     140.255  73.246 221.219 -0.23 -0.01    +0.036 C  
DOCKED: ATOM     13  C   UNL     1     140.444  72.288 222.355 -0.31 -0.00    +0.041 C  
DOCKED: ENDBRANCH   9  12
DOCKED: ENDBRANCH   8   9
DOCKED: BRANCH   8  14
DOCKED: ATOM     14  C   UNL     1     143.330  73.868 220.142 -0.31 -0.01    +0.044 A  
DOCKED: ATOM     15  C   UNL     1     143.713  72.516 220.151 -0.29 -0.00    +0.026 A  
DOCKED: ATOM     16  C   UNL     1     144.275  74.856 220.463 -0.37 -0.01    +0.026 A  
DOCKED: ATOM     17  C   UNL     1     145.031  72.161 220.453 -0.32 -0.00    +0.002 A  
DOCKED: ATOM     18  C   UNL     1     145.589  74.497 220.770 -0.46 -0.00    +0.002 A  
DOCKED: ATOM     19  C   UNL     1     145.967  73.152 220.764 -0.67 -0.00    +0.000 A  
DOCKED: ENDBRANCH   8  14
DOCKED: ENDBRANCH   1   8
DOCKED: BRANCH   4  20
DOCKED: ATOM     20  C   UNL     1     141.875  78.302 217.222 -0.12 -0.23    +0.329 C  
DOCKED: ATOM     21  O   UNL     1     141.534  78.923 216.224 -0.09 +0.17    -0.229 OA 
DOCKED: BRANCH  20  22
DOCKED: ATOM     22  C   UNL     1     142.513  79.099 218.362 -0.22 -0.16    +0.186 C  
DOCKED: BRANCH  22  23
DOCKED: ATOM     23  N   UNL     1     143.141  80.315 217.827 -0.09 +0.40    -0.316 NA 
DOCKED: ATOM     24  H   UNL     1     144.179  80.230 217.920 -0.42 -0.22    +0.119 HD 
DOCKED: ATOM     25  H   UNL     1     142.950  80.360 216.801 -0.50 -0.20    +0.119 HD 
DOCKED: ENDBRANCH  22  23
DOCKED: BRANCH  22  26
DOCKED: ATOM     26  C   UNL     1     141.445  79.443 219.439 -0.25 -0.01    +0.028 C  
DOCKED: ATOM     27  C   UNL     1     141.383  78.389 220.579 -0.29 -0.02    +0.042 C  
DOCKED: ATOM     28  C   UNL     1     141.675  80.824 220.117 -0.29 -0.02    +0.042 C  
DOCKED: ATOM     29  C   UNL     1     141.705  79.160 221.803 -0.41 +0.02    -0.044 A  
DOCKED: ATOM     30  C   UNL     1     141.866  80.499 221.548 -0.41 +0.02    -0.044 A  
DOCKED: ATOM     31  C   UNL     1     141.824  78.654 223.101 -0.56 -0.00    +0.004 A  
DOCKED: ATOM     32  C   UNL     1     142.176  81.398 222.573 -0.45 -0.00    +0.004 A  
DOCKED: ATOM     33  C   UNL     1     142.132  79.539 224.145 -0.51 -0.00    +0.000 A  
DOCKED: ATOM     34  C   UNL     1     142.309  80.909 223.881 -0.65 -0.00    +0.000 A  
DOCKED: ENDBRANCH  22  26
DOCKED: ENDBRANCH  20  22
DOCKED: ENDBRANCH   4  20
DOCKED: TORSDOF 9
DOCKED: TER
DOCKED: ENDMDL
________________________________________________________________________________


    FINAL DOCKED STATE:
    ________________________


Run:   13 / 20
Time taken for this run:   0.077s

DOCKED: MODEL        13
DOCKED: USER    Run = 13
DOCKED: USER
DOCKED: USER    Estimated Free Energy of Binding    =  -7.68 kcal/mol  [=(1)+(2)+(3)-(4)]
DOCKED: USER
DOCKED: USER    (1) Final Intermolecular Energy     = -10.37 kcal/mol
DOCKED: USER        vdW + Hbond + desolv Energy     =  -9.73 kcal/mol
DOCKED: USER        Electrostatic Energy            =  -0.63 kcal/mol
DOCKED: USER        Moving Ligand-Fixed Receptor    = -10.37 kcal/mol
DOCKED: USER        Moving Ligand-Moving Receptor   =  +0.00 kcal/mol
DOCKED: USER    (2) Final Total Internal Energy     =  -2.59 kcal/mol
DOCKED: USER    (3) Torsional Free Energy           =  +2.68 kcal/mol
DOCKED: USER    (4) Unbound System's Energy         =  -2.59 kcal/mol
DOCKED: USER
DOCKED: USER
DOCKED: REMARK SMILES C/C=C(\O)N(c1ccccc1)[C@H]1CC[N@@H+](C(=O)[C@@H](N)C2Cc3ccccc3C2)CC1
DOCKED: REMARK SMILES IDX 12 1 13 2 14 3 15 4 29 6 30 7 5 8 3 9 4 10 2 12 1 13 6 14
DOCKED: REMARK SMILES IDX 7 15 11 16 8 17 10 18 9 19 16 20 17 21 18 22 19 23 20 26
DOCKED: REMARK SMILES IDX 21 27 28 28 22 29 27 30 23 31 26 32 24 33 25 34
DOCKED: REMARK H PARENT 15 5 4 11 19 24 19 25
DOCKED: USER                              x       y       z     vdW  Elec       q    Type
DOCKED: USER                           _______ _______ _______ _____ _____    ______ ____
DOCKED: ROOT
DOCKED: ATOM      1  C   UNL     1     142.977  72.382 218.927 -0.09 -0.01    +0.102 C  
DOCKED: ATOM      2  C   UNL     1     141.633  72.898 218.356 -0.03 -0.02    +0.087 C  
DOCKED: ATOM      3  C   UNL     1     140.874  73.746 219.389 -0.03 -0.06    +0.272 C  
DOCKED: ATOM      4  N   UNL     1     140.618  72.975 220.627 -0.08 +0.05    -0.270 N  
DOCKED: ATOM      5  H   UNL     1     140.054  72.131 220.362 +0.07 -0.06    +0.356 HD 
DOCKED: ATOM      6  C   UNL     1     141.892  72.518 221.225 -0.13 -0.03    +0.272 C  
DOCKED: ATOM      7  C   UNL     1     142.676  71.628 220.244 -0.19 -0.01    +0.087 C  
DOCKED: ENDROOT
DOCKED: BRANCH   1   8
DOCKED: ATOM      8  N   UNL     1     143.970  73.472 219.128 -0.09 +0.06    -0.310 N  
DOCKED: BRANCH   8   9
DOCKED: ATOM      9  C   UNL     1     145.367  73.178 219.312 -0.28 +0.03    +0.187 C  
DOCKED: BRANCH   9  10
DOCKED: ATOM     10  O   UNL     1     146.232  73.368 218.231 -0.57 -0.38    -0.495 OA 
DOCKED: ATOM     11  H   UNL     1     146.349  74.257 217.759 -0.39 -0.06    +0.295 HD 
DOCKED: ENDBRANCH   9  10
DOCKED: BRANCH   9  12
DOCKED: ATOM     12  C   UNL     1     145.801  72.700 220.492 -0.51 +0.00    +0.036 C  
DOCKED: ATOM     13  C   UNL     1     146.309  73.578 221.595 -0.65 -0.01    +0.041 C  
DOCKED: ENDBRANCH   9  12
DOCKED: ENDBRANCH   8   9
DOCKED: BRANCH   8  14
DOCKED: ATOM     14  C   UNL     1     143.674  74.827 218.743 -0.25 -0.02    +0.044 A  
DOCKED: ATOM     15  C   UNL     1     143.330  75.783 219.714 -0.39 -0.02    +0.026 A  
DOCKED: ATOM     16  C   UNL     1     143.691  75.194 217.387 -0.19 -0.01    +0.026 A  
DOCKED: ATOM     17  C   UNL     1     143.030  77.094 219.333 -0.32 -0.00    +0.002 A  
DOCKED: ATOM     18  C   UNL     1     143.385  76.504 217.011 -0.25 -0.00    +0.002 A  
DOCKED: ATOM     19  C   UNL     1     143.056  77.453 217.982 -0.28 -0.00    +0.000 A  
DOCKED: ENDBRANCH   8  14
DOCKED: ENDBRANCH   1   8
DOCKED: BRANCH   4  20
DOCKED: ATOM     20  C   UNL     1     139.837  73.687 221.636 -0.16 -0.05    +0.329 C  
DOCKED: ATOM     21  O   UNL     1     139.889  73.286 222.792 -0.67 +0.02    -0.229 OA 
DOCKED: BRANCH  20  22
DOCKED: ATOM     22  C   UNL     1     138.973  74.918 221.356 -0.17 -0.04    +0.186 C  
DOCKED: BRANCH  22  23
DOCKED: ATOM     23  N   UNL     1     138.146  75.222 222.533 -0.02 +0.10    -0.316 NA 
DOCKED: ATOM     24  H   UNL     1     137.536  74.399 222.740 -0.42 -0.06    +0.119 HD 
DOCKED: ATOM     25  H   UNL     1     138.776  75.325 223.360 -0.48 -0.05    +0.119 HD 
DOCKED: ENDBRANCH  22  23
DOCKED: BRANCH  22  26
DOCKED: ATOM     26  C   UNL     1     139.871  76.128 220.971 -0.22 -0.01    +0.028 C  
DOCKED: ATOM     27  C   UNL     1     139.093  77.473 220.966 -0.14 -0.01    +0.042 C  
DOCKED: ATOM     28  C   UNL     1     141.089  76.318 221.919 -0.31 -0.02    +0.042 C  
DOCKED: ATOM     29  C   UNL     1     139.793  78.300 221.977 -0.27 +0.01    -0.044 A  
DOCKED: ATOM     30  C   UNL     1     140.891  77.664 222.501 -0.42 +0.02    -0.044 A  
DOCKED: ATOM     31  C   UNL     1     139.448  79.592 222.383 -0.28 -0.00    +0.004 A  
DOCKED: ATOM     32  C   UNL     1     141.686  78.277 223.473 -0.53 -0.00    +0.004 A  
DOCKED: ATOM     33  C   UNL     1     140.234  80.227 223.356 -0.45 -0.00    +0.000 A  
DOCKED: ATOM     34  C   UNL     1     141.351  79.571 223.901 -0.56 -0.00    +0.000 A  
DOCKED: ENDBRANCH  22  26
DOCKED: ENDBRANCH  20  22
DOCKED: ENDBRANCH   4  20
DOCKED: TORSDOF 9
DOCKED: TER
DOCKED: ENDMDL
________________________________________________________________________________


    FINAL DOCKED STATE:
    ________________________


Run:   14 / 20
Time taken for this run:   0.077s

DOCKED: MODEL        14
DOCKED: USER    Run = 14
DOCKED: USER
DOCKED: USER    Estimated Free Energy of Binding    =  -7.48 kcal/mol  [=(1)+(2)+(3)-(4)]
DOCKED: USER
DOCKED: USER    (1) Final Intermolecular Energy     = -10.16 kcal/mol
DOCKED: USER        vdW + Hbond + desolv Energy     =  -9.47 kcal/mol
DOCKED: USER        Electrostatic Energy            =  -0.69 kcal/mol
DOCKED: USER        Moving Ligand-Fixed Receptor    = -10.16 kcal/mol
DOCKED: USER        Moving Ligand-Moving Receptor   =  +0.00 kcal/mol
DOCKED: USER    (2) Final Total Internal Energy     =  -2.45 kcal/mol
DOCKED: USER    (3) Torsional Free Energy           =  +2.68 kcal/mol
DOCKED: USER    (4) Unbound System's Energy         =  -2.45 kcal/mol
DOCKED: USER
DOCKED: USER
DOCKED: REMARK SMILES C/C=C(\O)N(c1ccccc1)[C@H]1CC[N@@H+](C(=O)[C@@H](N)C2Cc3ccccc3C2)CC1
DOCKED: REMARK SMILES IDX 12 1 13 2 14 3 15 4 29 6 30 7 5 8 3 9 4 10 2 12 1 13 6 14
DOCKED: REMARK SMILES IDX 7 15 11 16 8 17 10 18 9 19 16 20 17 21 18 22 19 23 20 26
DOCKED: REMARK SMILES IDX 21 27 28 28 22 29 27 30 23 31 26 32 24 33 25 34
DOCKED: REMARK H PARENT 15 5 4 11 19 24 19 25
DOCKED: USER                              x       y       z     vdW  Elec       q    Type
DOCKED: USER                           _______ _______ _______ _____ _____    ______ ____
DOCKED: ROOT
DOCKED: ATOM      1  C   UNL     1     142.105  74.241 217.989 -0.05 -0.03    +0.102 C  
DOCKED: ATOM      2  C   UNL     1     143.154  74.878 217.046 -0.11 -0.03    +0.087 C  
DOCKED: ATOM      3  C   UNL     1     143.237  76.399 217.248 -0.16 -0.16    +0.272 C  
DOCKED: ATOM      4  N   UNL     1     141.922  77.040 217.023 -0.07 +0.15    -0.270 N  
DOCKED: ATOM      5  H   UNL     1     141.626  76.817 216.041 +0.05 -0.17    +0.356 HD 
DOCKED: ATOM      6  C   UNL     1     140.911  76.488 217.952 -0.03 -0.10    +0.272 C  
DOCKED: ATOM      7  C   UNL     1     140.758  74.968 217.763 -0.03 -0.02    +0.087 C  
DOCKED: ENDROOT
DOCKED: BRANCH   1   8
DOCKED: ATOM      8  N   UNL     1     142.521  74.277 219.417 -0.07 +0.09    -0.310 N  
DOCKED: BRANCH   8   9
DOCKED: ATOM      9  C   UNL     1     141.547  74.408 220.470 -0.19 -0.05    +0.187 C  
DOCKED: BRANCH   9  10
DOCKED: ATOM     10  O   UNL     1     141.485  75.617 221.169 -0.14 +0.19    -0.495 OA 
DOCKED: ATOM     11  H   UNL     1     142.213  75.936 221.797 -0.44 -0.22    +0.295 HD 
DOCKED: ENDBRANCH   9  10
DOCKED: BRANCH   9  12
DOCKED: ATOM     12  C   UNL     1     140.751  73.369 220.780 -0.21 -0.01    +0.036 C  
DOCKED: ATOM     13  C   UNL     1     139.836  73.362 221.966 -0.27 -0.01    +0.041 C  
DOCKED: ENDBRANCH   9  12
DOCKED: ENDBRANCH   8   9
DOCKED: BRANCH   8  14
DOCKED: ATOM     14  C   UNL     1     143.807  73.780 219.829 -0.32 -0.01    +0.044 A  
DOCKED: ATOM     15  C   UNL     1     144.724  74.630 220.471 -0.45 -0.01    +0.026 A  
DOCKED: ATOM     16  C   UNL     1     144.168  72.450 219.559 -0.26 -0.00    +0.026 A  
DOCKED: ATOM     17  C   UNL     1     145.978  74.145 220.857 -0.63 -0.00    +0.002 A  
DOCKED: ATOM     18  C   UNL     1     145.424  71.973 219.941 -0.35 +0.00    +0.002 A  
DOCKED: ATOM     19  C   UNL     1     146.327  72.818 220.590 -0.52 +0.00    +0.000 A  
DOCKED: ENDBRANCH   8  14
DOCKED: ENDBRANCH   1   8
DOCKED: BRANCH   4  20
DOCKED: ATOM     20  C   UNL     1     141.929  78.497 217.125 -0.12 -0.25    +0.329 C  
DOCKED: ATOM     21  O   UNL     1     141.388  79.140 216.235 -0.08 +0.16    -0.229 OA 
DOCKED: BRANCH  20  22
DOCKED: ATOM     22  C   UNL     1     142.545  79.283 218.285 -0.23 -0.16    +0.186 C  
DOCKED: BRANCH  22  23
DOCKED: ATOM     23  N   UNL     1     143.186  80.502 217.773 -0.06 +0.40    -0.316 NA 
DOCKED: ATOM     24  H   UNL     1     144.224  80.379 217.805 -0.47 -0.24    +0.119 HD 
DOCKED: ATOM     25  H   UNL     1     142.942  80.603 216.763 -0.46 -0.19    +0.119 HD 
DOCKED: ENDBRANCH  22  23
DOCKED: BRANCH  22  26
DOCKED: ATOM     26  C   UNL     1     141.456  79.621 219.343 -0.25 -0.01    +0.028 C  
DOCKED: ATOM     27  C   UNL     1     141.181  78.441 220.316 -0.25 -0.02    +0.042 C  
DOCKED: ATOM     28  C   UNL     1     141.811  80.854 220.222 -0.29 -0.02    +0.042 C  
DOCKED: ATOM     29  C   UNL     1     141.511  78.990 221.653 -0.37 +0.02    -0.044 A  
DOCKED: ATOM     30  C   UNL     1     141.858  80.317 221.600 -0.41 +0.02    -0.044 A  
DOCKED: ATOM     31  C   UNL     1     141.473  78.303 222.869 -0.51 -0.00    +0.004 A  
DOCKED: ATOM     32  C   UNL     1     142.206  81.019 222.757 -0.56 -0.00    +0.004 A  
DOCKED: ATOM     33  C   UNL     1     141.817  78.989 224.044 -0.60 -0.00    +0.000 A  
DOCKED: ATOM     34  C   UNL     1     142.184  80.346 223.988 -0.58 -0.00    +0.000 A  
DOCKED: ENDBRANCH  22  26
DOCKED: ENDBRANCH  20  22
DOCKED: ENDBRANCH   4  20
DOCKED: TORSDOF 9
DOCKED: TER
DOCKED: ENDMDL
________________________________________________________________________________


    FINAL DOCKED STATE:
    ________________________


Run:   15 / 20
Time taken for this run:   0.077s

DOCKED: MODEL        15
DOCKED: USER    Run = 15
DOCKED: USER
DOCKED: USER    Estimated Free Energy of Binding    =  -6.94 kcal/mol  [=(1)+(2)+(3)-(4)]
DOCKED: USER
DOCKED: USER    (1) Final Intermolecular Energy     =  -9.62 kcal/mol
DOCKED: USER        vdW + Hbond + desolv Energy     =  -9.23 kcal/mol
DOCKED: USER        Electrostatic Energy            =  -0.39 kcal/mol
DOCKED: USER        Moving Ligand-Fixed Receptor    =  -9.62 kcal/mol
DOCKED: USER        Moving Ligand-Moving Receptor   =  +0.00 kcal/mol
DOCKED: USER    (2) Final Total Internal Energy     =  -2.90 kcal/mol
DOCKED: USER    (3) Torsional Free Energy           =  +2.68 kcal/mol
DOCKED: USER    (4) Unbound System's Energy         =  -2.90 kcal/mol
DOCKED: USER
DOCKED: USER
DOCKED: REMARK SMILES C/C=C(\O)N(c1ccccc1)[C@H]1CC[N@@H+](C(=O)[C@@H](N)C2Cc3ccccc3C2)CC1
DOCKED: REMARK SMILES IDX 12 1 13 2 14 3 15 4 29 6 30 7 5 8 3 9 4 10 2 12 1 13 6 14
DOCKED: REMARK SMILES IDX 7 15 11 16 8 17 10 18 9 19 16 20 17 21 18 22 19 23 20 26
DOCKED: REMARK SMILES IDX 21 27 28 28 22 29 27 30 23 31 26 32 24 33 25 34
DOCKED: REMARK H PARENT 15 5 4 11 19 24 19 25
DOCKED: USER                              x       y       z     vdW  Elec       q    Type
DOCKED: USER                           _______ _______ _______ _____ _____    ______ ____
DOCKED: ROOT
DOCKED: ATOM      1  C   UNL     1     138.765  74.522 219.475 -0.04 -0.02    +0.102 C  
DOCKED: ATOM      2  C   UNL     1     137.543  73.992 220.265 -0.05 -0.02    +0.087 C  
DOCKED: ATOM      3  C   UNL     1     137.975  73.047 221.396 -0.08 -0.06    +0.272 C  
DOCKED: ATOM      4  N   UNL     1     138.751  71.902 220.868 -0.03 +0.05    -0.270 N  
DOCKED: ATOM      5  H   UNL     1     138.139  71.396 220.182 +0.04 -0.07    +0.356 HD 
DOCKED: ATOM      6  C   UNL     1     139.957  72.379 220.155 -0.05 -0.05    +0.272 C  
DOCKED: ATOM      7  C   UNL     1     139.578  73.301 218.983 -0.03 -0.02    +0.087 C  
DOCKED: ENDROOT
DOCKED: BRANCH   1   8
DOCKED: ATOM      8  N   UNL     1     139.602  75.458 220.273 -0.03 +0.08    -0.310 N  
DOCKED: BRANCH   8   9
DOCKED: ATOM      9  C   UNL     1     139.218  75.842 221.607 -0.21 -0.04    +0.187 C  
DOCKED: BRANCH   9  10
DOCKED: ATOM     10  O   UNL     1     139.598  75.016 222.669 -0.45 +0.04    -0.495 OA 
DOCKED: ATOM     11  H   UNL     1     138.984  74.327 223.086 -0.49 -0.14    +0.295 HD 
DOCKED: ENDBRANCH   9  10
DOCKED: BRANCH   9  12
DOCKED: ATOM     12  C   UNL     1     138.485  76.953 221.800 -0.23 -0.01    +0.036 C  
DOCKED: ATOM     13  C   UNL     1     139.028  78.192 222.443 -0.28 -0.01    +0.041 C  
DOCKED: ENDBRANCH   9  12
DOCKED: ENDBRANCH   8   9
DOCKED: BRANCH   8  14
DOCKED: ATOM     14  C   UNL     1     140.984  75.686 219.943 -0.16 -0.01    +0.044 A  
DOCKED: ATOM     15  C   UNL     1     141.340  76.702 219.040 -0.15 -0.01    +0.026 A  
DOCKED: ATOM     16  C   UNL     1     141.984  74.869 220.494 -0.28 -0.01    +0.026 A  
DOCKED: ATOM     17  C   UNL     1     142.684  76.910 218.712 -0.32 -0.00    +0.002 A  
DOCKED: ATOM     18  C   UNL     1     143.324  75.076 220.159 -0.36 -0.00    +0.002 A  
DOCKED: ATOM     19  C   UNL     1     143.674  76.096 219.270 -0.37 -0.00    +0.000 A  
DOCKED: ENDBRANCH   8  14
DOCKED: ENDBRANCH   1   8
DOCKED: BRANCH   4  20
DOCKED: ATOM     20  C   UNL     1     139.140  70.914 221.872 -0.08 -0.06    +0.329 C  
DOCKED: ATOM     21  O   UNL     1     138.751  69.763 221.728 -0.08 +0.04    -0.229 OA 
DOCKED: BRANCH  20  22
DOCKED: ATOM     22  C   UNL     1     140.026  71.212 223.084 -0.25 -0.03    +0.186 C  
DOCKED: BRANCH  22  23
DOCKED: ATOM     23  N   UNL     1     140.378  72.638 223.103 -0.42 +0.02    -0.316 NA 
DOCKED: ATOM     24  H   UNL     1     140.265  73.028 222.140 +0.01 -0.01    +0.119 HD 
DOCKED: ATOM     25  H   UNL     1     139.683  73.141 223.698 -0.37 -0.04    +0.119 HD 
DOCKED: ENDBRANCH  22  23
DOCKED: BRANCH  22  26
DOCKED: ATOM     26  C   UNL     1     139.300  70.793 224.394 -0.38 -0.01    +0.028 C  
DOCKED: ATOM     27  C   UNL     1     139.260  69.252 224.590 -0.35 -0.01    +0.042 C  
DOCKED: ATOM     28  C   UNL     1     139.946  71.392 225.676 -0.37 -0.01    +0.042 C  
DOCKED: ATOM     29  C   UNL     1     139.982  69.031 225.866 -0.47 +0.01    -0.044 A  
DOCKED: ATOM     30  C   UNL     1     140.359  70.209 226.462 -0.52 +0.01    -0.044 A  
DOCKED: ATOM     31  C   UNL     1     140.261  67.799 226.464 -0.67 -0.00    +0.004 A  
DOCKED: ATOM     32  C   UNL     1     141.054  70.215 227.675 -0.61 -0.00    +0.004 A  
DOCKED: ATOM     33  C   UNL     1     140.956  67.782 227.682 -0.59 -0.00    +0.000 A  
DOCKED: ATOM     34  C   UNL     1     141.353  68.988 228.287 -0.51 -0.00    +0.000 A  
DOCKED: ENDBRANCH  22  26
DOCKED: ENDBRANCH  20  22
DOCKED: ENDBRANCH   4  20
DOCKED: TORSDOF 9
DOCKED: TER
DOCKED: ENDMDL
________________________________________________________________________________


    FINAL DOCKED STATE:
    ________________________


Run:   16 / 20
Time taken for this run:   0.077s

DOCKED: MODEL        16
DOCKED: USER    Run = 16
DOCKED: USER
DOCKED: USER    Estimated Free Energy of Binding    =  -7.49 kcal/mol  [=(1)+(2)+(3)-(4)]
DOCKED: USER
DOCKED: USER    (1) Final Intermolecular Energy     = -10.18 kcal/mol
DOCKED: USER        vdW + Hbond + desolv Energy     =  -9.54 kcal/mol
DOCKED: USER        Electrostatic Energy            =  -0.64 kcal/mol
DOCKED: USER        Moving Ligand-Fixed Receptor    = -10.18 kcal/mol
DOCKED: USER        Moving Ligand-Moving Receptor   =  +0.00 kcal/mol
DOCKED: USER    (2) Final Total Internal Energy     =  -2.68 kcal/mol
DOCKED: USER    (3) Torsional Free Energy           =  +2.68 kcal/mol
DOCKED: USER    (4) Unbound System's Energy         =  -2.68 kcal/mol
DOCKED: USER
DOCKED: USER
DOCKED: REMARK SMILES C/C=C(\O)N(c1ccccc1)[C@H]1CC[N@@H+](C(=O)[C@@H](N)C2Cc3ccccc3C2)CC1
DOCKED: REMARK SMILES IDX 12 1 13 2 14 3 15 4 29 6 30 7 5 8 3 9 4 10 2 12 1 13 6 14
DOCKED: REMARK SMILES IDX 7 15 11 16 8 17 10 18 9 19 16 20 17 21 18 22 19 23 20 26
DOCKED: REMARK SMILES IDX 21 27 28 28 22 29 27 30 23 31 26 32 24 33 25 34
DOCKED: REMARK H PARENT 15 5 4 11 19 24 19 25
DOCKED: USER                              x       y       z     vdW  Elec       q    Type
DOCKED: USER                           _______ _______ _______ _____ _____    ______ ____
DOCKED: ROOT
DOCKED: ATOM      1  C   UNL     1     143.046  72.304 218.939 -0.09 -0.01    +0.102 C  
DOCKED: ATOM      2  C   UNL     1     141.697  72.782 218.348 -0.03 -0.02    +0.087 C  
DOCKED: ATOM      3  C   UNL     1     140.928  73.660 219.347 -0.03 -0.06    +0.272 C  
DOCKED: ATOM      4  N   UNL     1     140.679  72.934 220.613 -0.08 +0.04    -0.270 N  
DOCKED: ATOM      5  H   UNL     1     140.125  72.073 220.380 +0.07 -0.06    +0.356 HD 
DOCKED: ATOM      6  C   UNL     1     141.957  72.514 221.229 -0.11 -0.03    +0.272 C  
DOCKED: ATOM      7  C   UNL     1     142.752  71.597 220.283 -0.19 -0.01    +0.087 C  
DOCKED: ENDROOT
DOCKED: BRANCH   1   8
DOCKED: ATOM      8  N   UNL     1     144.026  73.412 219.100 -0.09 +0.05    -0.310 N  
DOCKED: BRANCH   8   9
DOCKED: ATOM      9  C   UNL     1     145.436  73.144 219.220 -0.26 +0.04    +0.187 C  
DOCKED: BRANCH   9  10
DOCKED: ATOM     10  O   UNL     1     146.253  73.382 218.111 -0.55 -0.38    -0.495 OA 
DOCKED: ATOM     11  H   UNL     1     146.374  74.296 217.693 -0.39 -0.06    +0.295 HD 
DOCKED: ENDBRANCH   9  10
DOCKED: BRANCH   9  12
DOCKED: ATOM     12  C   UNL     1     145.927  72.646 220.369 -0.50 +0.01    +0.036 C  
DOCKED: ATOM     13  C   UNL     1     146.096  73.464 221.612 -0.64 -0.01    +0.041 C  
DOCKED: ENDBRANCH   9  12
DOCKED: ENDBRANCH   8   9
DOCKED: BRANCH   8  14
DOCKED: ATOM     14  C   UNL     1     143.688  74.762 218.733 -0.24 -0.02    +0.044 A  
DOCKED: ATOM     15  C   UNL     1     143.678  75.151 217.383 -0.18 -0.01    +0.026 A  
DOCKED: ATOM     16  C   UNL     1     143.401  75.711 219.728 -0.40 -0.02    +0.026 A  
DOCKED: ATOM     17  C   UNL     1     143.363  76.468 217.034 -0.25 -0.00    +0.002 A  
DOCKED: ATOM     18  C   UNL     1     143.092  77.027 219.375 -0.30 -0.00    +0.002 A  
DOCKED: ATOM     19  C   UNL     1     143.072  77.404 218.030 -0.28 -0.00    +0.000 A  
DOCKED: ENDBRANCH   8  14
DOCKED: ENDBRANCH   1   8
DOCKED: BRANCH   4  20
DOCKED: ATOM     20  C   UNL     1     139.888  73.673 221.595 -0.16 -0.05    +0.329 C  
DOCKED: ATOM     21  O   UNL     1     139.963  73.334 222.768 -0.71 +0.01    -0.229 OA 
DOCKED: BRANCH  20  22
DOCKED: ATOM     22  C   UNL     1     138.987  74.865 221.263 -0.16 -0.04    +0.186 C  
DOCKED: BRANCH  22  23
DOCKED: ATOM     23  N   UNL     1     138.098  75.145 222.399 -0.08 +0.10    -0.316 NA 
DOCKED: ATOM     24  H   UNL     1     137.422  74.355 222.504 -0.23 -0.05    +0.119 HD 
DOCKED: ATOM     25  H   UNL     1     138.671  75.147 223.273 -0.50 -0.06    +0.119 HD 
DOCKED: ENDBRANCH  22  23
DOCKED: BRANCH  22  26
DOCKED: ATOM     26  C   UNL     1     139.851  76.107 220.903 -0.21 -0.01    +0.028 C  
DOCKED: ATOM     27  C   UNL     1     139.041  77.432 220.947 -0.14 -0.01    +0.042 C  
DOCKED: ATOM     28  C   UNL     1     141.076  76.300 221.842 -0.32 -0.02    +0.042 C  
DOCKED: ATOM     29  C   UNL     1     139.733  78.246 221.974 -0.26 +0.01    -0.044 A  
DOCKED: ATOM     30  C   UNL     1     140.852  77.622 222.466 -0.42 +0.02    -0.044 A  
DOCKED: ATOM     31  C   UNL     1     139.361  79.517 222.422 -0.28 -0.00    +0.004 A  
DOCKED: ATOM     32  C   UNL     1     141.644  78.226 223.446 -0.51 -0.00    +0.004 A  
DOCKED: ATOM     33  C   UNL     1     140.143  80.143 223.404 -0.45 -0.00    +0.000 A  
DOCKED: ATOM     34  C   UNL     1     141.283  79.498 223.917 -0.55 -0.00    +0.000 A  
DOCKED: ENDBRANCH  22  26
DOCKED: ENDBRANCH  20  22
DOCKED: ENDBRANCH   4  20
DOCKED: TORSDOF 9
DOCKED: TER
DOCKED: ENDMDL
________________________________________________________________________________


    FINAL DOCKED STATE:
    ________________________


Run:   17 / 20
Time taken for this run:   0.077s

DOCKED: MODEL        17
DOCKED: USER    Run = 17
DOCKED: USER
DOCKED: USER    Estimated Free Energy of Binding    =  -7.65 kcal/mol  [=(1)+(2)+(3)-(4)]
DOCKED: USER
DOCKED: USER    (1) Final Intermolecular Energy     = -10.33 kcal/mol
DOCKED: USER        vdW + Hbond + desolv Energy     =  -9.69 kcal/mol
DOCKED: USER        Electrostatic Energy            =  -0.65 kcal/mol
DOCKED: USER        Moving Ligand-Fixed Receptor    = -10.33 kcal/mol
DOCKED: USER        Moving Ligand-Moving Receptor   =  +0.00 kcal/mol
DOCKED: USER    (2) Final Total Internal Energy     =  -2.67 kcal/mol
DOCKED: USER    (3) Torsional Free Energy           =  +2.68 kcal/mol
DOCKED: USER    (4) Unbound System's Energy         =  -2.67 kcal/mol
DOCKED: USER
DOCKED: USER
DOCKED: REMARK SMILES C/C=C(\O)N(c1ccccc1)[C@H]1CC[N@@H+](C(=O)[C@@H](N)C2Cc3ccccc3C2)CC1
DOCKED: REMARK SMILES IDX 12 1 13 2 14 3 15 4 29 6 30 7 5 8 3 9 4 10 2 12 1 13 6 14
DOCKED: REMARK SMILES IDX 7 15 11 16 8 17 10 18 9 19 16 20 17 21 18 22 19 23 20 26
DOCKED: REMARK SMILES IDX 21 27 28 28 22 29 27 30 23 31 26 32 24 33 25 34
DOCKED: REMARK H PARENT 15 5 4 11 19 24 19 25
DOCKED: USER                              x       y       z     vdW  Elec       q    Type
DOCKED: USER                           _______ _______ _______ _____ _____    ______ ____
DOCKED: ROOT
DOCKED: ATOM      1  C   UNL     1     143.074  72.218 218.914 -0.09 -0.01    +0.102 C  
DOCKED: ATOM      2  C   UNL     1     141.722  72.679 218.316 -0.03 -0.02    +0.087 C  
DOCKED: ATOM      3  C   UNL     1     140.926  73.528 219.319 -0.03 -0.06    +0.272 C  
DOCKED: ATOM      4  N   UNL     1     140.679  72.780 220.573 -0.07 +0.04    -0.270 N  
DOCKED: ATOM      5  H   UNL     1     140.143  71.913 220.323 +0.07 -0.06    +0.356 HD 
DOCKED: ATOM      6  C   UNL     1     141.958  72.376 221.196 -0.12 -0.03    +0.272 C  
DOCKED: ATOM      7  C   UNL     1     142.780  71.487 220.246 -0.19 -0.01    +0.087 C  
DOCKED: ENDROOT
DOCKED: BRANCH   1   8
DOCKED: ATOM      8  N   UNL     1     144.031  73.342 219.100 -0.08 +0.05    -0.310 N  
DOCKED: BRANCH   8   9
DOCKED: ATOM      9  C   UNL     1     145.442  73.097 219.247 -0.27 +0.04    +0.187 C  
DOCKED: BRANCH   9  10
DOCKED: ATOM     10  O   UNL     1     146.275  73.340 218.149 -0.55 -0.42    -0.495 OA 
DOCKED: ATOM     11  H   UNL     1     146.407  74.258 217.743 -0.39 -0.05    +0.295 HD 
DOCKED: ENDBRANCH   9  10
DOCKED: BRANCH   9  12
DOCKED: ATOM     12  C   UNL     1     145.922  72.615 220.407 -0.49 +0.01    +0.036 C  
DOCKED: ATOM     13  C   UNL     1     146.302  73.488 221.563 -0.67 -0.01    +0.041 C  
DOCKED: ENDBRANCH   9  12
DOCKED: ENDBRANCH   8   9
DOCKED: BRANCH   8  14
DOCKED: ATOM     14  C   UNL     1     143.677  74.688 218.735 -0.24 -0.02    +0.044 A  
DOCKED: ATOM     15  C   UNL     1     143.657  75.076 217.384 -0.18 -0.01    +0.026 A  
DOCKED: ATOM     16  C   UNL     1     143.384  75.634 219.730 -0.39 -0.01    +0.026 A  
DOCKED: ATOM     17  C   UNL     1     143.326  76.389 217.036 -0.25 -0.00    +0.002 A  
DOCKED: ATOM     18  C   UNL     1     143.060  76.946 219.378 -0.34 -0.00    +0.002 A  
DOCKED: ATOM     19  C   UNL     1     143.029  77.323 218.033 -0.30 -0.00    +0.000 A  
DOCKED: ENDBRANCH   8  14
DOCKED: ENDBRANCH   1   8
DOCKED: BRANCH   4  20
DOCKED: ATOM     20  C   UNL     1     139.865  73.491 221.556 -0.16 -0.05    +0.329 C  
DOCKED: ATOM     21  O   UNL     1     139.934  73.137 222.726 -0.73 +0.02    -0.229 OA 
DOCKED: BRANCH  20  22
DOCKED: ATOM     22  C   UNL     1     138.945  74.671 221.232 -0.16 -0.04    +0.186 C  
DOCKED: BRANCH  22  23
DOCKED: ATOM     23  N   UNL     1     138.042  74.921 222.364 -0.07 +0.11    -0.316 NA 
DOCKED: ATOM     24  H   UNL     1     137.825  74.012 222.832 -0.53 -0.07    +0.119 HD 
DOCKED: ATOM     25  H   UNL     1     138.554  75.492 223.073 -0.38 -0.04    +0.119 HD 
DOCKED: ENDBRANCH  22  23
DOCKED: BRANCH  22  26
DOCKED: ATOM     26  C   UNL     1     139.789  75.932 220.894 -0.21 -0.01    +0.028 C  
DOCKED: ATOM     27  C   UNL     1     138.961  77.245 220.972 -0.14 -0.01    +0.042 C  
DOCKED: ATOM     28  C   UNL     1     141.018  76.121 221.829 -0.33 -0.01    +0.042 C  
DOCKED: ATOM     29  C   UNL     1     139.649  78.046 222.013 -0.27 +0.01    -0.044 A  
DOCKED: ATOM     30  C   UNL     1     140.780  77.426 222.484 -0.41 +0.01    -0.044 A  
DOCKED: ATOM     31  C   UNL     1     139.263  79.301 222.491 -0.28 -0.00    +0.004 A  
DOCKED: ATOM     32  C   UNL     1     141.570  78.020 223.472 -0.42 -0.00    +0.004 A  
DOCKED: ATOM     33  C   UNL     1     140.043  79.915 223.482 -0.45 -0.00    +0.000 A  
DOCKED: ATOM     34  C   UNL     1     141.195  79.275 223.973 -0.54 -0.00    +0.000 A  
DOCKED: ENDBRANCH  22  26
DOCKED: ENDBRANCH  20  22
DOCKED: ENDBRANCH   4  20
DOCKED: TORSDOF 9
DOCKED: TER
DOCKED: ENDMDL
________________________________________________________________________________


    FINAL DOCKED STATE:
    ________________________


Run:   18 / 20
Time taken for this run:   0.077s

DOCKED: MODEL        18
DOCKED: USER    Run = 18
DOCKED: USER
DOCKED: USER    Estimated Free Energy of Binding    =  -6.63 kcal/mol  [=(1)+(2)+(3)-(4)]
DOCKED: USER
DOCKED: USER    (1) Final Intermolecular Energy     =  -9.31 kcal/mol
DOCKED: USER        vdW + Hbond + desolv Energy     =  -9.06 kcal/mol
DOCKED: USER        Electrostatic Energy            =  -0.25 kcal/mol
DOCKED: USER        Moving Ligand-Fixed Receptor    =  -9.31 kcal/mol
DOCKED: USER        Moving Ligand-Moving Receptor   =  +0.00 kcal/mol
DOCKED: USER    (2) Final Total Internal Energy     =  -3.07 kcal/mol
DOCKED: USER    (3) Torsional Free Energy           =  +2.68 kcal/mol
DOCKED: USER    (4) Unbound System's Energy         =  -3.07 kcal/mol
DOCKED: USER
DOCKED: USER
DOCKED: REMARK SMILES C/C=C(\O)N(c1ccccc1)[C@H]1CC[N@@H+](C(=O)[C@@H](N)C2Cc3ccccc3C2)CC1
DOCKED: REMARK SMILES IDX 12 1 13 2 14 3 15 4 29 6 30 7 5 8 3 9 4 10 2 12 1 13 6 14
DOCKED: REMARK SMILES IDX 7 15 11 16 8 17 10 18 9 19 16 20 17 21 18 22 19 23 20 26
DOCKED: REMARK SMILES IDX 21 27 28 28 22 29 27 30 23 31 26 32 24 33 25 34
DOCKED: REMARK H PARENT 15 5 4 11 19 24 19 25
DOCKED: USER                              x       y       z     vdW  Elec       q    Type
DOCKED: USER                           _______ _______ _______ _____ _____    ______ ____
DOCKED: ROOT
DOCKED: ATOM      1  C   UNL     1     139.506  76.864 220.578 -0.12 -0.03    +0.102 C  
DOCKED: ATOM      2  C   UNL     1     138.513  76.515 221.714 -0.22 -0.02    +0.087 C  
DOCKED: ATOM      3  C   UNL     1     138.749  75.093 222.247 -0.07 -0.07    +0.272 C  
DOCKED: ATOM      4  N   UNL     1     138.629  74.091 221.164 -0.08 +0.06    -0.270 N  
DOCKED: ATOM      5  H   UNL     1     137.663  74.175 220.762 +0.06 -0.08    +0.356 HD 
DOCKED: ATOM      6  C   UNL     1     139.607  74.369 220.089 -0.05 -0.06    +0.272 C  
DOCKED: ATOM      7  C   UNL     1     139.389  75.770 219.491 -0.05 -0.02    +0.087 C  
DOCKED: ENDROOT
DOCKED: BRANCH   1   8
DOCKED: ATOM      8  N   UNL     1     140.904  77.013 221.065 -0.13 +0.13    -0.310 N  
DOCKED: BRANCH   8   9
DOCKED: ATOM      9  C   UNL     1     141.977  76.248 220.485 -0.14 -0.10    +0.187 C  
DOCKED: BRANCH   9  10
DOCKED: ATOM     10  O   UNL     1     142.228  74.969 220.992 -0.12 +0.19    -0.495 OA 
DOCKED: ATOM     11  H   UNL     1     142.454  74.788 221.962 -0.14 -0.08    +0.295 HD 
DOCKED: ENDBRANCH   9  10
DOCKED: BRANCH   9  12
DOCKED: ATOM     12  C   UNL     1     142.728  76.782 219.506 -0.34 -0.02    +0.036 C  
DOCKED: ATOM     13  C   UNL     1     142.150  77.545 218.353 -0.25 -0.02    +0.041 C  
DOCKED: ENDBRANCH   9  12
DOCKED: ENDBRANCH   8   9
DOCKED: BRANCH   8  14
DOCKED: ATOM     14  C   UNL     1     141.312  78.176 221.808 -0.37 -0.02    +0.044 A  
DOCKED: ATOM     15  C   UNL     1     141.443  78.116 223.206 -0.49 -0.01    +0.026 A  
DOCKED: ATOM     16  C   UNL     1     141.547  79.391 221.143 -0.34 -0.01    +0.026 A  
DOCKED: ATOM     17  C   UNL     1     141.827  79.253 223.924 -0.61 -0.00    +0.002 A  
DOCKED: ATOM     18  C   UNL     1     141.924  80.525 221.866 -0.47 -0.00    +0.002 A  
DOCKED: ATOM     19  C   UNL     1     142.065  80.456 223.254 -0.62 -0.00    +0.000 A  
DOCKED: ENDBRANCH   8  14
DOCKED: ENDBRANCH   1   8
DOCKED: BRANCH   4  20
DOCKED: ATOM     20  C   UNL     1     138.769  72.704 221.599 -0.10 -0.07    +0.329 C  
DOCKED: ATOM     21  O   UNL     1     137.883  71.914 221.300 -0.05 +0.05    -0.229 OA 
DOCKED: BRANCH  20  22
DOCKED: ATOM     22  C   UNL     1     139.963  72.157 222.386 -0.24 -0.03    +0.186 C  
DOCKED: BRANCH  22  23
DOCKED: ATOM     23  N   UNL     1     141.078  73.113 222.322 -0.41 -0.01    -0.316 NA 
DOCKED: ATOM     24  H   UNL     1     141.620  72.944 221.444 +0.04 -0.01    +0.119 HD 
DOCKED: ATOM     25  H   UNL     1     140.682  74.075 222.231 +0.01 +0.01    +0.119 HD 
DOCKED: ENDBRANCH  22  23
DOCKED: BRANCH  22  26
DOCKED: ATOM     26  C   UNL     1     139.550  71.870 223.857 -0.08 -0.01    +0.028 C  
DOCKED: ATOM     27  C   UNL     1     138.591  70.654 223.983 -0.30 -0.01    +0.042 C  
DOCKED: ATOM     28  C   UNL     1     140.760  71.585 224.793 -0.38 -0.01    +0.042 C  
DOCKED: ATOM     29  C   UNL     1     139.327  69.699 224.845 -0.36 +0.01    -0.044 A  
DOCKED: ATOM     30  C   UNL     1     140.520  70.212 225.290 -0.45 +0.01    -0.044 A  
DOCKED: ATOM     31  C   UNL     1     138.907  68.421 225.223 -0.43 -0.00    +0.004 A  
DOCKED: ATOM     32  C   UNL     1     141.365  69.466 226.116 -0.51 -0.00    +0.004 A  
DOCKED: ATOM     33  C   UNL     1     139.739  67.655 226.053 -0.62 -0.00    +0.000 A  
DOCKED: ATOM     34  C   UNL     1     140.966  68.176 226.499 -0.64 -0.00    +0.000 A  
DOCKED: ENDBRANCH  22  26
DOCKED: ENDBRANCH  20  22
DOCKED: ENDBRANCH   4  20
DOCKED: TORSDOF 9
DOCKED: TER
DOCKED: ENDMDL
________________________________________________________________________________


    FINAL DOCKED STATE:
    ________________________


Run:   19 / 20
Time taken for this run:   0.077s

DOCKED: MODEL        19
DOCKED: USER    Run = 19
DOCKED: USER
DOCKED: USER    Estimated Free Energy of Binding    =  -7.75 kcal/mol  [=(1)+(2)+(3)-(4)]
DOCKED: USER
DOCKED: USER    (1) Final Intermolecular Energy     = -10.44 kcal/mol
DOCKED: USER        vdW + Hbond + desolv Energy     =  -9.78 kcal/mol
DOCKED: USER        Electrostatic Energy            =  -0.66 kcal/mol
DOCKED: USER        Moving Ligand-Fixed Receptor    = -10.44 kcal/mol
DOCKED: USER        Moving Ligand-Moving Receptor   =  +0.00 kcal/mol
DOCKED: USER    (2) Final Total Internal Energy     =  -2.64 kcal/mol
DOCKED: USER    (3) Torsional Free Energy           =  +2.68 kcal/mol
DOCKED: USER    (4) Unbound System's Energy         =  -2.64 kcal/mol
DOCKED: USER
DOCKED: USER
DOCKED: REMARK SMILES C/C=C(\O)N(c1ccccc1)[C@H]1CC[N@@H+](C(=O)[C@@H](N)C2Cc3ccccc3C2)CC1
DOCKED: REMARK SMILES IDX 12 1 13 2 14 3 15 4 29 6 30 7 5 8 3 9 4 10 2 12 1 13 6 14
DOCKED: REMARK SMILES IDX 7 15 11 16 8 17 10 18 9 19 16 20 17 21 18 22 19 23 20 26
DOCKED: REMARK SMILES IDX 21 27 28 28 22 29 27 30 23 31 26 32 24 33 25 34
DOCKED: REMARK H PARENT 15 5 4 11 19 24 19 25
DOCKED: USER                              x       y       z     vdW  Elec       q    Type
DOCKED: USER                           _______ _______ _______ _____ _____    ______ ____
DOCKED: ROOT
DOCKED: ATOM      1  C   UNL     1     143.148  72.195 218.954 -0.10 -0.01    +0.102 C  
DOCKED: ATOM      2  C   UNL     1     141.794  72.628 218.338 -0.03 -0.02    +0.087 C  
DOCKED: ATOM      3  C   UNL     1     140.975  73.474 219.326 -0.03 -0.06    +0.272 C  
DOCKED: ATOM      4  N   UNL     1     140.728  72.734 220.584 -0.08 +0.04    -0.270 N  
DOCKED: ATOM      5  H   UNL     1     140.209  71.856 220.337 +0.07 -0.06    +0.356 HD 
DOCKED: ATOM      6  C   UNL     1     142.008  72.357 221.223 -0.11 -0.03    +0.272 C  
DOCKED: ATOM      7  C   UNL     1     142.853  71.473 220.290 -0.19 -0.01    +0.087 C  
DOCKED: ENDROOT
DOCKED: BRANCH   1   8
DOCKED: ATOM      8  N   UNL     1     144.085  73.337 219.138 -0.09 +0.05    -0.310 N  
DOCKED: BRANCH   8   9
DOCKED: ATOM      9  C   UNL     1     145.499  73.117 219.299 -0.28 +0.04    +0.187 C  
DOCKED: BRANCH   9  10
DOCKED: ATOM     10  O   UNL     1     146.338  73.379 218.211 -0.54 -0.43    -0.495 OA 
DOCKED: ATOM     11  H   UNL     1     146.474  74.304 217.823 -0.39 -0.06    +0.295 HD 
DOCKED: ENDBRANCH   9  10
DOCKED: BRANCH   9  12
DOCKED: ATOM     12  C   UNL     1     145.975  72.638 220.462 -0.50 +0.01    +0.036 C  
DOCKED: ATOM     13  C   UNL     1     146.310  73.512 221.632 -0.66 -0.01    +0.041 C  
DOCKED: ENDBRANCH   9  12
DOCKED: ENDBRANCH   8   9
DOCKED: BRANCH   8  14
DOCKED: ATOM     14  C   UNL     1     143.712  74.673 218.757 -0.24 -0.02    +0.044 A  
DOCKED: ATOM     15  C   UNL     1     143.698  75.049 217.404 -0.18 -0.01    +0.026 A  
DOCKED: ATOM     16  C   UNL     1     143.394  75.623 219.742 -0.39 -0.01    +0.026 A  
DOCKED: ATOM     17  C   UNL     1     143.348  76.353 217.041 -0.25 -0.00    +0.002 A  
DOCKED: ATOM     18  C   UNL     1     143.051  76.927 219.375 -0.34 -0.00    +0.002 A  
DOCKED: ATOM     19  C   UNL     1     143.026  77.291 218.026 -0.30 -0.00    +0.000 A  
DOCKED: ENDBRANCH   8  14
DOCKED: ENDBRANCH   1   8
DOCKED: BRANCH   4  20
DOCKED: ATOM     20  C   UNL     1     139.893  73.442 221.552 -0.16 -0.05    +0.329 C  
DOCKED: ATOM     21  O   UNL     1     139.911  73.060 222.715 -0.72 +0.03    -0.229 OA 
DOCKED: BRANCH  20  22
DOCKED: ATOM     22  C   UNL     1     139.011  74.648 221.221 -0.16 -0.04    +0.186 C  
DOCKED: BRANCH  22  23
DOCKED: ATOM     23  N   UNL     1     138.115  74.933 222.351 -0.09 +0.10    -0.316 NA 
DOCKED: ATOM     24  H   UNL     1     137.758  74.029 222.737 -0.53 -0.06    +0.119 HD 
DOCKED: ATOM     25  H   UNL     1     138.679  75.367 223.116 -0.46 -0.04    +0.119 HD 
DOCKED: ENDBRANCH  22  23
DOCKED: BRANCH  22  26
DOCKED: ATOM     26  C   UNL     1     139.894  75.880 220.877 -0.21 -0.01    +0.028 C  
DOCKED: ATOM     27  C   UNL     1     139.080  77.203 220.819 -0.13 -0.01    +0.042 C  
DOCKED: ATOM     28  C   UNL     1     141.052  76.111 221.890 -0.33 -0.01    +0.042 C  
DOCKED: ATOM     29  C   UNL     1     139.699  78.055 221.861 -0.25 +0.01    -0.044 A  
DOCKED: ATOM     30  C   UNL     1     140.784  77.454 222.450 -0.41 +0.02    -0.044 A  
DOCKED: ATOM     31  C   UNL     1     139.295  79.339 222.237 -0.25 -0.00    +0.004 A  
DOCKED: ATOM     32  C   UNL     1     141.506  78.095 223.460 -0.47 -0.00    +0.004 A  
DOCKED: ATOM     33  C   UNL     1     140.007  80.002 223.248 -0.42 -0.00    +0.000 A  
DOCKED: ATOM     34  C   UNL     1     141.111  79.381 223.860 -0.57 -0.00    +0.000 A  
DOCKED: ENDBRANCH  22  26
DOCKED: ENDBRANCH  20  22
DOCKED: ENDBRANCH   4  20
DOCKED: TORSDOF 9
DOCKED: TER
DOCKED: ENDMDL
________________________________________________________________________________


    FINAL DOCKED STATE:
    ________________________


Run:   20 / 20
Time taken for this run:   0.077s

DOCKED: MODEL        20
DOCKED: USER    Run = 20
DOCKED: USER
DOCKED: USER    Estimated Free Energy of Binding    =  -7.67 kcal/mol  [=(1)+(2)+(3)-(4)]
DOCKED: USER
DOCKED: USER    (1) Final Intermolecular Energy     = -10.35 kcal/mol
DOCKED: USER        vdW + Hbond + desolv Energy     =  -9.71 kcal/mol
DOCKED: USER        Electrostatic Energy            =  -0.65 kcal/mol
DOCKED: USER        Moving Ligand-Fixed Receptor    = -10.35 kcal/mol
DOCKED: USER        Moving Ligand-Moving Receptor   =  +0.00 kcal/mol
DOCKED: USER    (2) Final Total Internal Energy     =  -2.66 kcal/mol
DOCKED: USER    (3) Torsional Free Energy           =  +2.68 kcal/mol
DOCKED: USER    (4) Unbound System's Energy         =  -2.66 kcal/mol
DOCKED: USER
DOCKED: USER
DOCKED: REMARK SMILES C/C=C(\O)N(c1ccccc1)[C@H]1CC[N@@H+](C(=O)[C@@H](N)C2Cc3ccccc3C2)CC1
DOCKED: REMARK SMILES IDX 12 1 13 2 14 3 15 4 29 6 30 7 5 8 3 9 4 10 2 12 1 13 6 14
DOCKED: REMARK SMILES IDX 7 15 11 16 8 17 10 18 9 19 16 20 17 21 18 22 19 23 20 26
DOCKED: REMARK SMILES IDX 21 27 28 28 22 29 27 30 23 31 26 32 24 33 25 34
DOCKED: REMARK H PARENT 15 5 4 11 19 24 19 25
DOCKED: USER                              x       y       z     vdW  Elec       q    Type
DOCKED: USER                           _______ _______ _______ _____ _____    ______ ____
DOCKED: ROOT
DOCKED: ATOM      1  C   UNL     1     143.032  72.305 218.937 -0.09 -0.01    +0.102 C  
DOCKED: ATOM      2  C   UNL     1     141.685  72.781 218.339 -0.03 -0.02    +0.087 C  
DOCKED: ATOM      3  C   UNL     1     140.898  73.636 219.344 -0.03 -0.06    +0.272 C  
DOCKED: ATOM      4  N   UNL     1     140.643  72.888 220.596 -0.08 +0.04    -0.270 N  
DOCKED: ATOM      5  H   UNL     1     140.099  72.027 220.344 +0.07 -0.06    +0.356 HD 
DOCKED: ATOM      6  C   UNL     1     141.918  72.469 221.218 -0.12 -0.03    +0.272 C  
DOCKED: ATOM      7  C   UNL     1     142.730  71.574 220.266 -0.19 -0.01    +0.087 C  
DOCKED: ENDROOT
DOCKED: BRANCH   1   8
DOCKED: ATOM      8  N   UNL     1     144.001  73.418 219.124 -0.09 +0.05    -0.310 N  
DOCKED: BRANCH   8   9
DOCKED: ATOM      9  C   UNL     1     145.407  73.157 219.294 -0.27 +0.03    +0.187 C  
DOCKED: BRANCH   9  10
DOCKED: ATOM     10  O   UNL     1     146.258  73.380 218.208 -0.56 -0.39    -0.495 OA 
DOCKED: ATOM     11  H   UNL     1     146.410  74.293 217.797 -0.39 -0.07    +0.295 HD 
DOCKED: ENDBRANCH   9  10
DOCKED: BRANCH   9  12
DOCKED: ATOM     12  C   UNL     1     145.863  72.678 220.465 -0.51 +0.00    +0.036 C  
DOCKED: ATOM     13  C   UNL     1     146.264  73.557 221.610 -0.64 -0.01    +0.041 C  
DOCKED: ENDBRANCH   9  12
DOCKED: ENDBRANCH   8   9
DOCKED: BRANCH   8  14
DOCKED: ATOM     14  C   UNL     1     143.669  74.765 218.740 -0.24 -0.02    +0.044 A  
DOCKED: ATOM     15  C   UNL     1     143.321  75.716 219.713 -0.39 -0.02    +0.026 A  
DOCKED: ATOM     16  C   UNL     1     143.656  75.127 217.383 -0.18 -0.01    +0.026 A  
DOCKED: ATOM     17  C   UNL     1     142.986  77.020 219.332 -0.34 -0.00    +0.002 A  
DOCKED: ATOM     18  C   UNL     1     143.315  76.428 217.007 -0.25 -0.00    +0.002 A  
DOCKED: ATOM     19  C   UNL     1     142.982  77.374 217.980 -0.31 -0.00    +0.000 A  
DOCKED: ENDBRANCH   8  14
DOCKED: ENDBRANCH   1   8
DOCKED: BRANCH   4  20
DOCKED: ATOM     20  C   UNL     1     139.836  73.606 221.581 -0.16 -0.05    +0.329 C  
DOCKED: ATOM     21  O   UNL     1     139.903  73.249 222.750 -0.71 +0.02    -0.229 OA 
DOCKED: BRANCH  20  22
DOCKED: ATOM     22  C   UNL     1     138.928  74.795 221.259 -0.16 -0.04    +0.186 C  
DOCKED: BRANCH  22  23
DOCKED: ATOM     23  N   UNL     1     138.036  75.060 222.397 -0.06 +0.10    -0.316 NA 
DOCKED: ATOM     24  H   UNL     1     137.815  74.156 222.872 -0.53 -0.07    +0.119 HD 
DOCKED: ATOM     25  H   UNL     1     138.558  75.631 223.098 -0.33 -0.04    +0.119 HD 
DOCKED: ENDBRANCH  22  23
DOCKED: BRANCH  22  26
DOCKED: ATOM     26  C   UNL     1     139.785  76.045 220.911 -0.21 -0.01    +0.028 C  
DOCKED: ATOM     27  C   UNL     1     138.964  77.364 220.954 -0.14 -0.01    +0.042 C  
DOCKED: ATOM     28  C   UNL     1     141.001  76.244 221.861 -0.33 -0.01    +0.042 C  
DOCKED: ATOM     29  C   UNL     1     139.641  78.179 221.990 -0.26 +0.01    -0.044 A  
DOCKED: ATOM     30  C   UNL     1     140.761  77.562 222.489 -0.41 +0.01    -0.044 A  
DOCKED: ATOM     31  C   UNL     1     139.255  79.445 222.439 -0.28 -0.00    +0.004 A  
DOCKED: ATOM     32  C   UNL     1     141.540  78.169 223.478 -0.49 -0.00    +0.004 A  
DOCKED: ATOM     33  C   UNL     1     140.024  80.073 223.430 -0.44 -0.00    +0.000 A  
DOCKED: ATOM     34  C   UNL     1     141.165  79.436 223.950 -0.54 -0.00    +0.000 A  
DOCKED: ENDBRANCH  22  26
DOCKED: ENDBRANCH  20  22
DOCKED: ENDBRANCH   4  20
DOCKED: TORSDOF 9
DOCKED: TER
DOCKED: ENDMDL
________________________________________________________________________________


    CLUSTERING HISTOGRAM
    ____________________


________________________________________________________________________________
     |           |     |           |     |
Clus | Lowest    | Run | Mean      | Num | Histogram
-ter | Binding   |     | Binding   | in  |
Rank | Energy    |     | Energy    | Clus|    5    10   15   20   25   30   35
_____|___________|_____|___________|_____|____:____|____:____|____:____|____:___
   1 |     -7.75 |  19 |     -7.66 |   7 |#######
   2 |     -7.52 |   1 |     -7.34 |   7 |#######
   3 |     -7.22 |  11 |     -7.22 |   1 |#
   4 |     -6.99 |  10 |     -6.99 |   1 |#
   5 |     -6.94 |  15 |     -6.91 |   2 |##
   6 |     -6.67 |   9 |     -6.65 |   2 |##
_____|___________|_____|___________|_____|______________________________________


    RMSD TABLE
    __________


_______________________________________________________________________
     |      |      |           |         |                 |
Rank | Sub- | Run  | Binding   | Cluster | Reference       | Grep
     | Rank |      | Energy    | RMSD    | RMSD            | Pattern
_____|______|______|___________|_________|_________________|___________
   1      1     19       -7.75      0.00    271.65           RANKING
   1      2      4       -7.69      0.12    271.69           RANKING
   1      3     13       -7.68      0.25    271.72           RANKING
   1      4     20       -7.67      0.16    271.67           RANKING
   1      5      8       -7.65      0.10    271.67           RANKING
   1      6     17       -7.65      0.11    271.65           RANKING
   1      7     16       -7.49      0.21    271.68           RANKING
   2      1      1       -7.52      0.00    271.84           RANKING
   2      2     12       -7.51      0.25    271.82           RANKING
   2      3     14       -7.48      0.59    271.74           RANKING
   2      4      2       -7.47      0.53    271.76           RANKING
   2      5      3       -7.39      1.04    271.56           RANKING
   2      6      6       -7.08      1.96    271.74           RANKING
   2      7      5       -6.93      1.99    271.71           RANKING
   3      1     11       -7.22      0.00    271.99           RANKING
   4      1     10       -6.99      0.00    271.71           RANKING
   5      1     15       -6.94      0.00    271.66           RANKING
   5      2      7       -6.89      0.19    271.66           RANKING
   6      1      9       -6.67      0.00    272.18           RANKING
   6      2     18       -6.63      0.12    272.20           RANKING

Run time 1.489 sec
Idle time 0.000 sec
