AutoDock-GPU version: v1.6

**********************************************************
**    AutoDock-GPU AUTODOCKTOOLS-COMPATIBLE DLG FILE    **
**********************************************************


    DOCKING PARAMETERS
    ________________________


Ligand file:                               /home/a/REINVENT4/ReinventStudies/scoringData/graph-dock/graph-DockGPU/node-autodockgpu/inputs/OOSPKVZPLIIQRF-GHJPQISKNA-N.pdbqt
Grid fld file:                             /home/a/REINVENT4/ReinventStudies/mols/Rad51/maps/rad51_receptor.maps.fld

Random seed:                               42
Number of runs:                            20
Number of energy evaluations:              1132076
Number of generations:                     42000
Size of population:                        150
Rate of crossover:                         80.000000%
Tournament selection probability limit:    60.000000%
Rate of mutation:                          2.000000%
Maximal allowed delta movement:            +/- 6.000000A
Maximal allowed delta angle:               +/- 90.000000

Rate of local search:                      100.000000%
Maximal number of local search iterations: 300
Rho lower bound:                           0.010000
Spread of local search delta movement:     2.000000A
Spread of local search delta angle:        74.999999
Limit of consecutive successes/failures:   4

Handle symmetry during clustering:         YES
RMSD tolerance:                            2.000000A

Program call in command line was:          /home/a/REINVENT4/ReinventStudies/adgpu-v1.6_linux_x64_cuda12_128wi --filelist batch.txt --heuristics 1 --nrun 20 --psize 150 --lsit 300 --seed 42 --heurmax 12000000 


    GRID PARAMETERS
    ________________________


Receptor name:                             rad51_receptor
Number of grid points (x, y, z):           53, 53, 53
Grid center (x, y, z):                     139.950000, 75.640000, 221.970000A
Grid size (x, y, z):                       19.500000, 19.500000, 19.500000A
Grid spacing:                              0.375000A


    LIGAND PARAMETERS
    ________________________


Ligand name:                               /home/a/REINVENT4/ReinventStudies/scoringData/graph-dock/graph-DockGPU/node-autodockgpu/inputs/OOSPKVZPLIIQRF-GHJPQISKNA-N
Number of atoms:                           30
Number of rotatable bonds:                 6
Number of atom types:                      6


    DUMMY DATA (only for ADT-compatibility)
    ________________________


DPF> outlev 1
DPF> ga_run 20
DPF> fld /home/a/REINVENT4/ReinventStudies/mols/Rad51/maps/rad51_receptor.maps.fld
DPF> move /home/a/REINVENT4/ReinventStudies/scoringData/graph-dock/graph-DockGPU/node-autodockgpu/inputs/OOSPKVZPLIIQRF-GHJPQISKNA-N.pdbqt


    COUNTER STATES
    ________________________


Number of energy evaluations performed:    760453
Number of generations used:                35


    INPUT LIGAND PDBQT FILE:
    ________________________


INPUT-LIGAND-PDBQT: REMARK SMILES [H]/N=c1/[nH]c2nc3ccccn3c(=O)c2cc1/C(O)=N\[C@@H](C)c1ccccc1
INPUT-LIGAND-PDBQT: REMARK SMILES IDX 18 1 17 2 3 3 4 4 16 5 5 6 15 7 6 8 13 9 7 10 12 11 8 12
INPUT-LIGAND-PDBQT: REMARK SMILES IDX 11 13 9 14 10 15 14 17 2 18 1 19 20 20 21 21 22 22 23 23
INPUT-LIGAND-PDBQT: REMARK SMILES IDX 24 24 28 25 25 26 27 27 26 28 19 29
INPUT-LIGAND-PDBQT: REMARK H PARENT 4 16 19 30
INPUT-LIGAND-PDBQT: ROOT
INPUT-LIGAND-PDBQT: ATOM      1  C   UNL     1       1.440  -0.838  -2.855  1.00  0.00     0.218 C 
INPUT-LIGAND-PDBQT: ENDROOT
INPUT-LIGAND-PDBQT: BRANCH   1   2
INPUT-LIGAND-PDBQT: ATOM      2  C   UNL     1       1.605  -0.429  -1.445  1.00  0.00     0.079 A 
INPUT-LIGAND-PDBQT: ATOM      3  C   UNL     1       2.184   0.807  -1.074  1.00  0.00     0.136 A 
INPUT-LIGAND-PDBQT: ATOM      4  N   UNL     1       2.215   1.168   0.241  1.00  0.00    -0.324 N 
INPUT-LIGAND-PDBQT: ATOM      5  C   UNL     1       1.109  -1.274  -0.445  1.00  0.00     0.035 A 
INPUT-LIGAND-PDBQT: ATOM      6  C   UNL     1       1.698   0.373   1.218  1.00  0.00     0.146 A 
INPUT-LIGAND-PDBQT: ATOM      7  C   UNL     1       1.134  -0.871   0.896  1.00  0.00     0.084 A 
INPUT-LIGAND-PDBQT: ATOM      8  N   UNL     1       1.717   0.787   2.508  1.00  0.00    -0.212 NA
INPUT-LIGAND-PDBQT: ATOM      9  C   UNL     1       0.595  -1.654   1.932  1.00  0.00     0.267 A 
INPUT-LIGAND-PDBQT: ATOM     10  C   UNL     1       1.197   0.028   3.506  1.00  0.00     0.142 A 
INPUT-LIGAND-PDBQT: ATOM     11  N   UNL     1       0.629  -1.198   3.228  1.00  0.00    -0.267 N 
INPUT-LIGAND-PDBQT: ATOM     12  C   UNL     1       1.242   0.510   4.819  1.00  0.00     0.048 A 
INPUT-LIGAND-PDBQT: ATOM     13  C   UNL     1       0.101  -1.951   4.249  1.00  0.00     0.096 A 
INPUT-LIGAND-PDBQT: ATOM     14  C   UNL     1       0.707  -0.256   5.851  1.00  0.00     0.005 A 
INPUT-LIGAND-PDBQT: ATOM     15  C   UNL     1       0.134  -1.492   5.568  1.00  0.00     0.019 A 
INPUT-LIGAND-PDBQT: ATOM     16  H   UNL     1       2.637   2.087   0.509  1.00  0.00     0.170 HD
INPUT-LIGAND-PDBQT: ATOM     17  O   UNL     1       0.077  -2.775   1.660  1.00  0.00    -0.268 OA
INPUT-LIGAND-PDBQT: BRANCH   3  18
INPUT-LIGAND-PDBQT: ATOM     18  N   UNL     1       2.691   1.613  -1.959  1.00  0.00    -0.284 NA
INPUT-LIGAND-PDBQT: ATOM     19  H   UNL     1       2.712   1.413  -2.984  1.00  0.00     0.189 HD
INPUT-LIGAND-PDBQT: ENDBRANCH   3  18
INPUT-LIGAND-PDBQT: ENDBRANCH   1   2
INPUT-LIGAND-PDBQT: BRANCH   1  20
INPUT-LIGAND-PDBQT: ATOM     20  N   UNL     1       0.488  -0.357  -3.606  1.00  0.00    -0.243 NA
INPUT-LIGAND-PDBQT: BRANCH  20  21
INPUT-LIGAND-PDBQT: ATOM     21  C   UNL     1      -0.517   0.631  -3.197  1.00  0.00     0.136 C 
INPUT-LIGAND-PDBQT: ATOM     22  C   UNL     1      -1.375   1.009  -4.404  1.00  0.00     0.038 C 
INPUT-LIGAND-PDBQT: BRANCH  21  23
INPUT-LIGAND-PDBQT: ATOM     23  C   UNL     1      -1.388   0.094  -2.078  1.00  0.00    -0.024 A 
INPUT-LIGAND-PDBQT: ATOM     24  C   UNL     1      -1.995  -1.172  -2.182  1.00  0.00     0.006 A 
INPUT-LIGAND-PDBQT: ATOM     25  C   UNL     1      -1.569   0.845  -0.903  1.00  0.00     0.006 A 
INPUT-LIGAND-PDBQT: ATOM     26  C   UNL     1      -2.748  -1.683  -1.120  1.00  0.00     0.000 A 
INPUT-LIGAND-PDBQT: ATOM     27  C   UNL     1      -2.320   0.328   0.157  1.00  0.00     0.000 A 
INPUT-LIGAND-PDBQT: ATOM     28  C   UNL     1      -2.906  -0.935   0.050  1.00  0.00     0.000 A 
INPUT-LIGAND-PDBQT: ENDBRANCH  21  23
INPUT-LIGAND-PDBQT: ENDBRANCH  20  21
INPUT-LIGAND-PDBQT: ENDBRANCH   1  20
INPUT-LIGAND-PDBQT: BRANCH   1  29
INPUT-LIGAND-PDBQT: ATOM     29  O   UNL     1       2.312  -1.787  -3.378  1.00  0.00    -0.493 OA
INPUT-LIGAND-PDBQT: ATOM     30  H   UNL     1       2.228  -2.102  -4.337  1.00  0.00     0.295 HD
INPUT-LIGAND-PDBQT: ENDBRANCH   1  29
INPUT-LIGAND-PDBQT: TORSDOF 6


    FINAL DOCKED STATE:
    ________________________


Run:   1 / 20
Time taken for this run:   0.028s

DOCKED: MODEL        1
DOCKED: USER    Run = 1
DOCKED: USER
DOCKED: USER    Estimated Free Energy of Binding    =  -7.50 kcal/mol  [=(1)+(2)+(3)-(4)]
DOCKED: USER
DOCKED: USER    (1) Final Intermolecular Energy     =  -9.29 kcal/mol
DOCKED: USER        vdW + Hbond + desolv Energy     =  -9.26 kcal/mol
DOCKED: USER        Electrostatic Energy            =  -0.02 kcal/mol
DOCKED: USER        Moving Ligand-Fixed Receptor    =  -9.29 kcal/mol
DOCKED: USER        Moving Ligand-Moving Receptor   =  +0.00 kcal/mol
DOCKED: USER    (2) Final Total Internal Energy     =  -1.48 kcal/mol
DOCKED: USER    (3) Torsional Free Energy           =  +1.79 kcal/mol
DOCKED: USER    (4) Unbound System's Energy         =  -1.48 kcal/mol
DOCKED: USER
DOCKED: USER
DOCKED: REMARK SMILES [H]/N=c1/[nH]c2nc3ccccn3c(=O)c2cc1/C(O)=N\[C@@H](C)c1ccccc1
DOCKED: REMARK SMILES IDX 18 1 17 2 3 3 4 4 16 5 5 6 15 7 6 8 13 9 7 10 12 11 8 12
DOCKED: REMARK SMILES IDX 11 13 9 14 10 15 14 17 2 18 1 19 20 20 21 21 22 22 23 23
DOCKED: REMARK SMILES IDX 24 24 28 25 25 26 27 27 26 28 19 29
DOCKED: REMARK H PARENT 4 16 19 30
DOCKED: USER                              x       y       z     vdW  Elec       q    Type
DOCKED: USER                           _______ _______ _______ _____ _____    ______ ____
DOCKED: ROOT
DOCKED: ATOM      1  C   UNL     1     135.888  69.785 224.594 -0.16 -0.02    +0.218 C  
DOCKED: ENDROOT
DOCKED: BRANCH   1   2
DOCKED: ATOM      2  C   UNL     1     134.970  70.743 225.245 -0.16 -0.01    +0.079 A  
DOCKED: ATOM      3  C   UNL     1     133.993  70.340 226.185 -0.27 -0.01    +0.136 A  
DOCKED: ATOM      4  N   UNL     1     133.245  71.285 226.825 -0.21 +0.03    -0.324 N  
DOCKED: ATOM      5  C   UNL     1     135.121  72.106 224.963 -0.13 -0.00    +0.035 A  
DOCKED: ATOM      6  C   UNL     1     133.412  72.616 226.589 -0.31 -0.00    +0.146 A  
DOCKED: ATOM      7  C   UNL     1     134.355  73.057 225.649 -0.25 -0.00    +0.084 A  
DOCKED: ATOM      8  N   UNL     1     132.673  73.522 227.274 -0.62 +0.01    -0.212 NA 
DOCKED: ATOM      9  C   UNL     1     134.509  74.440 225.448 -0.23 -0.01    +0.267 A  
DOCKED: ATOM     10  C   UNL     1     132.823  74.857 227.077 -0.31 +0.00    +0.142 A  
DOCKED: ATOM     11  N   UNL     1     133.744  75.329 226.165 -0.22 +0.00    -0.267 N  
DOCKED: ATOM     12  C   UNL     1     132.034  75.745 227.816 -0.31 +0.00    +0.048 A  
DOCKED: ATOM     13  C   UNL     1     133.889  76.683 225.982 -0.23 -0.01    +0.096 A  
DOCKED: ATOM     14  C   UNL     1     132.183  77.116 227.628 -0.33 +0.00    +0.005 A  
DOCKED: ATOM     15  C   UNL     1     133.113  77.590 226.708 -0.28 -0.00    +0.019 A  
DOCKED: ATOM     16  H   UNL     1     132.529  70.983 227.525 +0.07 -0.02    +0.170 HD 
DOCKED: ATOM     17  O   UNL     1     135.358  74.856 224.609 -0.26 +0.05    -0.268 OA 
DOCKED: BRANCH   3  18
DOCKED: ATOM     18  N   UNL     1     133.787  69.086 226.457 -0.70 -0.02    -0.284 NA 
DOCKED: ATOM     19  H   UNL     1     134.437  68.317 226.182 +0.08 -0.01    +0.189 HD 
DOCKED: ENDBRANCH   3  18
DOCKED: ENDBRANCH   1   2
DOCKED: BRANCH   1  20
DOCKED: ATOM     20  N   UNL     1     137.120  70.100 224.304 -0.13 +0.03    -0.243 NA 
DOCKED: BRANCH  20  21
DOCKED: ATOM     21  C   UNL     1     138.300  69.257 224.530 -0.28 -0.01    +0.136 C  
DOCKED: ATOM     22  C   UNL     1     139.087  69.130 223.226 -0.22 -0.01    +0.038 C  
DOCKED: BRANCH  21  23
DOCKED: ATOM     23  C   UNL     1     139.181  69.830 225.623 -0.40 +0.00    -0.024 A  
DOCKED: ATOM     24  C   UNL     1     139.955  70.984 225.395 -0.51 -0.00    +0.006 A  
DOCKED: ATOM     25  C   UNL     1     139.204  69.232 226.896 -0.48 -0.00    +0.006 A  
DOCKED: ATOM     26  C   UNL     1     140.717  71.538 226.428 -0.68 -0.00    +0.000 A  
DOCKED: ATOM     27  C   UNL     1     139.965  69.792 227.926 -0.63 -0.00    +0.000 A  
DOCKED: ATOM     28  C   UNL     1     140.718  70.945 227.693 -0.72 -0.00    +0.000 A  
DOCKED: ENDBRANCH  21  23
DOCKED: ENDBRANCH  20  21
DOCKED: ENDBRANCH   1  20
DOCKED: BRANCH   1  29
DOCKED: ATOM     29  O   UNL     1     135.404  68.526 224.257 -0.47 -0.03    -0.493 OA 
DOCKED: ATOM     30  H   UNL     1     134.500  68.207 224.584 +0.09 -0.00    +0.295 HD 
DOCKED: ENDBRANCH   1  29
DOCKED: TORSDOF 6
DOCKED: TER
DOCKED: ENDMDL
________________________________________________________________________________


    FINAL DOCKED STATE:
    ________________________


Run:   2 / 20
Time taken for this run:   0.028s

DOCKED: MODEL        2
DOCKED: USER    Run = 2
DOCKED: USER
DOCKED: USER    Estimated Free Energy of Binding    =  -6.56 kcal/mol  [=(1)+(2)+(3)-(4)]
DOCKED: USER
DOCKED: USER    (1) Final Intermolecular Energy     =  -8.35 kcal/mol
DOCKED: USER        vdW + Hbond + desolv Energy     =  -8.38 kcal/mol
DOCKED: USER        Electrostatic Energy            =  +0.03 kcal/mol
DOCKED: USER        Moving Ligand-Fixed Receptor    =  -8.35 kcal/mol
DOCKED: USER        Moving Ligand-Moving Receptor   =  +0.00 kcal/mol
DOCKED: USER    (2) Final Total Internal Energy     =  -2.23 kcal/mol
DOCKED: USER    (3) Torsional Free Energy           =  +1.79 kcal/mol
DOCKED: USER    (4) Unbound System's Energy         =  -2.23 kcal/mol
DOCKED: USER
DOCKED: USER
DOCKED: REMARK SMILES [H]/N=c1/[nH]c2nc3ccccn3c(=O)c2cc1/C(O)=N\[C@@H](C)c1ccccc1
DOCKED: REMARK SMILES IDX 18 1 17 2 3 3 4 4 16 5 5 6 15 7 6 8 13 9 7 10 12 11 8 12
DOCKED: REMARK SMILES IDX 11 13 9 14 10 15 14 17 2 18 1 19 20 20 21 21 22 22 23 23
DOCKED: REMARK SMILES IDX 24 24 28 25 25 26 27 27 26 28 19 29
DOCKED: REMARK H PARENT 4 16 19 30
DOCKED: USER                              x       y       z     vdW  Elec       q    Type
DOCKED: USER                           _______ _______ _______ _____ _____    ______ ____
DOCKED: ROOT
DOCKED: ATOM      1  C   UNL     1     137.607  78.987 221.931 -0.10 -0.04    +0.218 C  
DOCKED: ENDROOT
DOCKED: BRANCH   1   2
DOCKED: ATOM      2  C   UNL     1     138.450  77.774 221.929 -0.19 -0.02    +0.079 A  
DOCKED: ATOM      3  C   UNL     1     138.016  76.545 222.478 -0.24 -0.03    +0.136 A  
DOCKED: ATOM      4  N   UNL     1     138.802  75.437 222.354 -0.16 +0.08    -0.324 N  
DOCKED: ATOM      5  C   UNL     1     139.701  77.834 221.303 -0.20 -0.01    +0.035 A  
DOCKED: ATOM      6  C   UNL     1     140.001  75.474 221.710 -0.27 -0.03    +0.146 A  
DOCKED: ATOM      7  C   UNL     1     140.480  76.677 221.171 -0.25 -0.03    +0.084 A  
DOCKED: ATOM      8  N   UNL     1     140.733  74.341 221.579 -0.52 +0.03    -0.212 NA 
DOCKED: ATOM      9  C   UNL     1     141.714  76.669 220.497 -0.17 -0.14    +0.267 A  
DOCKED: ATOM     10  C   UNL     1     141.925  74.337 220.929 -0.22 -0.03    +0.142 A  
DOCKED: ATOM     11  N   UNL     1     142.426  75.499 220.381 -0.17 +0.13    -0.267 N  
DOCKED: ATOM     12  C   UNL     1     142.635  73.136 220.822 -0.26 -0.01    +0.048 A  
DOCKED: ATOM     13  C   UNL     1     143.631  75.476 219.721 -0.37 -0.05    +0.096 A  
DOCKED: ATOM     14  C   UNL     1     143.856  73.117 220.154 -0.35 -0.00    +0.005 A  
DOCKED: ATOM     15  C   UNL     1     144.359  74.290 219.600 -0.35 -0.01    +0.019 A  
DOCKED: ATOM     16  H   UNL     1     138.472  74.529 222.755 -0.54 -0.08    +0.170 HD 
DOCKED: ATOM     17  O   UNL     1     142.159  77.743 219.999 -0.22 +0.18    -0.268 OA 
DOCKED: BRANCH   3  18
DOCKED: ATOM     18  N   UNL     1     136.879  76.443 223.101 -0.16 +0.06    -0.284 NA 
DOCKED: ATOM     19  H   UNL     1     136.340  77.260 223.465 +0.05 -0.03    +0.189 HD 
DOCKED: ENDBRANCH   3  18
DOCKED: ENDBRANCH   1   2
DOCKED: BRANCH   1  20
DOCKED: ATOM     20  N   UNL     1     138.122  80.185 221.896 -0.06 +0.04    -0.243 NA 
DOCKED: BRANCH  20  21
DOCKED: ATOM     21  C   UNL     1     138.795  80.868 223.007 -0.26 -0.02    +0.136 C  
DOCKED: ATOM     22  C   UNL     1     138.105  80.497 224.320 -0.37 -0.00    +0.038 C  
DOCKED: BRANCH  21  23
DOCKED: ATOM     23  C   UNL     1     140.266  80.503 223.063 -0.40 +0.00    -0.024 A  
DOCKED: ATOM     24  C   UNL     1     140.710  79.417 223.842 -0.52 -0.00    +0.006 A  
DOCKED: ATOM     25  C   UNL     1     141.201  81.228 222.304 -0.43 -0.00    +0.006 A  
DOCKED: ATOM     26  C   UNL     1     142.060  79.053 223.840 -0.58 -0.00    +0.000 A  
DOCKED: ATOM     27  C   UNL     1     142.550  80.857 222.303 -0.50 -0.00    +0.000 A  
DOCKED: ATOM     28  C   UNL     1     142.978  79.770 223.068 -0.62 -0.00    +0.000 A  
DOCKED: ENDBRANCH  21  23
DOCKED: ENDBRANCH  20  21
DOCKED: ENDBRANCH   1  20
DOCKED: BRANCH   1  29
DOCKED: ATOM     29  O   UNL     1     136.226  78.837 222.003 -0.01 +0.07    -0.493 OA 
DOCKED: ATOM     30  H   UNL     1     135.797  77.921 221.953 +0.05 -0.05    +0.295 HD 
DOCKED: ENDBRANCH   1  29
DOCKED: TORSDOF 6
DOCKED: TER
DOCKED: ENDMDL
________________________________________________________________________________


    FINAL DOCKED STATE:
    ________________________


Run:   3 / 20
Time taken for this run:   0.028s

DOCKED: MODEL        3
DOCKED: USER    Run = 3
DOCKED: USER
DOCKED: USER    Estimated Free Energy of Binding    =  -7.38 kcal/mol  [=(1)+(2)+(3)-(4)]
DOCKED: USER
DOCKED: USER    (1) Final Intermolecular Energy     =  -9.17 kcal/mol
DOCKED: USER        vdW + Hbond + desolv Energy     =  -9.14 kcal/mol
DOCKED: USER        Electrostatic Energy            =  -0.03 kcal/mol
DOCKED: USER        Moving Ligand-Fixed Receptor    =  -9.17 kcal/mol
DOCKED: USER        Moving Ligand-Moving Receptor   =  +0.00 kcal/mol
DOCKED: USER    (2) Final Total Internal Energy     =  -1.51 kcal/mol
DOCKED: USER    (3) Torsional Free Energy           =  +1.79 kcal/mol
DOCKED: USER    (4) Unbound System's Energy         =  -1.51 kcal/mol
DOCKED: USER
DOCKED: USER
DOCKED: REMARK SMILES [H]/N=c1/[nH]c2nc3ccccn3c(=O)c2cc1/C(O)=N\[C@@H](C)c1ccccc1
DOCKED: REMARK SMILES IDX 18 1 17 2 3 3 4 4 16 5 5 6 15 7 6 8 13 9 7 10 12 11 8 12
DOCKED: REMARK SMILES IDX 11 13 9 14 10 15 14 17 2 18 1 19 20 20 21 21 22 22 23 23
DOCKED: REMARK SMILES IDX 24 24 28 25 25 26 27 27 26 28 19 29
DOCKED: REMARK H PARENT 4 16 19 30
DOCKED: USER                              x       y       z     vdW  Elec       q    Type
DOCKED: USER                           _______ _______ _______ _____ _____    ______ ____
DOCKED: ROOT
DOCKED: ATOM      1  C   UNL     1     135.861  69.823 224.594 -0.16 -0.02    +0.218 C  
DOCKED: ENDROOT
DOCKED: BRANCH   1   2
DOCKED: ATOM      2  C   UNL     1     134.940  70.767 225.259 -0.16 -0.01    +0.079 A  
DOCKED: ATOM      3  C   UNL     1     133.965  70.348 226.194 -0.27 -0.01    +0.136 A  
DOCKED: ATOM      4  N   UNL     1     133.214  71.280 226.848 -0.21 +0.03    -0.324 N  
DOCKED: ATOM      5  C   UNL     1     135.086  72.135 224.998 -0.13 -0.00    +0.035 A  
DOCKED: ATOM      6  C   UNL     1     133.376  72.615 226.632 -0.31 -0.01    +0.146 A  
DOCKED: ATOM      7  C   UNL     1     134.317  73.073 225.697 -0.26 -0.00    +0.084 A  
DOCKED: ATOM      8  N   UNL     1     132.634  73.508 227.330 -0.58 +0.02    -0.212 NA 
DOCKED: ATOM      9  C   UNL     1     134.466  74.460 225.517 -0.23 -0.00    +0.267 A  
DOCKED: ATOM     10  C   UNL     1     132.779  74.846 227.153 -0.32 +0.00    +0.142 A  
DOCKED: ATOM     11  N   UNL     1     133.698  75.335 226.247 -0.22 -0.00    -0.267 N  
DOCKED: ATOM     12  C   UNL     1     131.987  75.720 227.905 -0.30 +0.00    +0.048 A  
DOCKED: ATOM     13  C   UNL     1     133.837  76.692 226.084 -0.24 -0.01    +0.096 A  
DOCKED: ATOM     14  C   UNL     1     132.131  77.095 227.737 -0.33 +0.00    +0.005 A  
DOCKED: ATOM     15  C   UNL     1     133.058  77.586 226.823 -0.29 -0.00    +0.019 A  
DOCKED: ATOM     16  H   UNL     1     132.500  70.965 227.544 +0.07 -0.02    +0.170 HD 
DOCKED: ATOM     17  O   UNL     1     135.313  74.891 224.683 -0.27 +0.04    -0.268 OA 
DOCKED: BRANCH   3  18
DOCKED: ATOM     18  N   UNL     1     133.764  69.089 226.448 -0.70 -0.02    -0.284 NA 
DOCKED: ATOM     19  H   UNL     1     134.486  68.346 226.316 +0.08 -0.01    +0.189 HD 
DOCKED: ENDBRANCH   3  18
DOCKED: ENDBRANCH   1   2
DOCKED: BRANCH   1  20
DOCKED: ATOM     20  N   UNL     1     137.041  70.190 224.175 -0.13 +0.03    -0.243 NA 
DOCKED: BRANCH  20  21
DOCKED: ATOM     21  C   UNL     1     138.274  69.401 224.273 -0.26 -0.02    +0.136 C  
DOCKED: ATOM     22  C   UNL     1     139.023  69.466 222.942 -0.21 -0.01    +0.038 C  
DOCKED: BRANCH  21  23
DOCKED: ATOM     23  C   UNL     1     139.156  69.904 225.399 -0.39 +0.00    -0.024 A  
DOCKED: ATOM     24  C   UNL     1     139.927  71.072 225.245 -0.50 -0.00    +0.006 A  
DOCKED: ATOM     25  C   UNL     1     139.184  69.223 226.630 -0.48 -0.00    +0.006 A  
DOCKED: ATOM     26  C   UNL     1     140.691  71.559 226.310 -0.66 -0.00    +0.000 A  
DOCKED: ATOM     27  C   UNL     1     139.947  69.717 227.692 -0.62 -0.00    +0.000 A  
DOCKED: ATOM     28  C   UNL     1     140.697  70.884 227.534 -0.70 -0.00    +0.000 A  
DOCKED: ENDBRANCH  21  23
DOCKED: ENDBRANCH  20  21
DOCKED: ENDBRANCH   1  20
DOCKED: BRANCH   1  29
DOCKED: ATOM     29  O   UNL     1     135.436  68.515 224.387 -0.46 -0.03    -0.493 OA 
DOCKED: ATOM     30  H   UNL     1     134.484  68.236 224.590 +0.09 -0.00    +0.295 HD 
DOCKED: ENDBRANCH   1  29
DOCKED: TORSDOF 6
DOCKED: TER
DOCKED: ENDMDL
________________________________________________________________________________


    FINAL DOCKED STATE:
    ________________________


Run:   4 / 20
Time taken for this run:   0.028s

DOCKED: MODEL        4
DOCKED: USER    Run = 4
DOCKED: USER
DOCKED: USER    Estimated Free Energy of Binding    =  -6.58 kcal/mol  [=(1)+(2)+(3)-(4)]
DOCKED: USER
DOCKED: USER    (1) Final Intermolecular Energy     =  -8.37 kcal/mol
DOCKED: USER        vdW + Hbond + desolv Energy     =  -8.39 kcal/mol
DOCKED: USER        Electrostatic Energy            =  +0.03 kcal/mol
DOCKED: USER        Moving Ligand-Fixed Receptor    =  -8.37 kcal/mol
DOCKED: USER        Moving Ligand-Moving Receptor   =  +0.00 kcal/mol
DOCKED: USER    (2) Final Total Internal Energy     =  -2.23 kcal/mol
DOCKED: USER    (3) Torsional Free Energy           =  +1.79 kcal/mol
DOCKED: USER    (4) Unbound System's Energy         =  -2.23 kcal/mol
DOCKED: USER
DOCKED: USER
DOCKED: REMARK SMILES [H]/N=c1/[nH]c2nc3ccccn3c(=O)c2cc1/C(O)=N\[C@@H](C)c1ccccc1
DOCKED: REMARK SMILES IDX 18 1 17 2 3 3 4 4 16 5 5 6 15 7 6 8 13 9 7 10 12 11 8 12
DOCKED: REMARK SMILES IDX 11 13 9 14 10 15 14 17 2 18 1 19 20 20 21 21 22 22 23 23
DOCKED: REMARK SMILES IDX 24 24 28 25 25 26 27 27 26 28 19 29
DOCKED: REMARK H PARENT 4 16 19 30
DOCKED: USER                              x       y       z     vdW  Elec       q    Type
DOCKED: USER                           _______ _______ _______ _____ _____    ______ ____
DOCKED: ROOT
DOCKED: ATOM      1  C   UNL     1     137.614  79.006 221.924 -0.10 -0.04    +0.218 C  
DOCKED: ENDROOT
DOCKED: BRANCH   1   2
DOCKED: ATOM      2  C   UNL     1     138.456  77.792 221.932 -0.19 -0.02    +0.079 A  
DOCKED: ATOM      3  C   UNL     1     138.017  76.566 222.484 -0.24 -0.03    +0.136 A  
DOCKED: ATOM      4  N   UNL     1     138.802  75.456 222.370 -0.16 +0.08    -0.324 N  
DOCKED: ATOM      5  C   UNL     1     139.709  77.847 221.312 -0.20 -0.01    +0.035 A  
DOCKED: ATOM      6  C   UNL     1     140.004  75.488 221.732 -0.27 -0.03    +0.146 A  
DOCKED: ATOM      7  C   UNL     1     140.488  76.689 221.189 -0.25 -0.03    +0.084 A  
DOCKED: ATOM      8  N   UNL     1     140.736  74.355 221.609 -0.54 +0.02    -0.212 NA 
DOCKED: ATOM      9  C   UNL     1     141.726  76.676 220.522 -0.16 -0.14    +0.267 A  
DOCKED: ATOM     10  C   UNL     1     141.931  74.346 220.966 -0.21 -0.03    +0.142 A  
DOCKED: ATOM     11  N   UNL     1     142.437  75.505 220.415 -0.17 +0.13    -0.267 N  
DOCKED: ATOM     12  C   UNL     1     142.640  73.143 220.867 -0.24 -0.01    +0.048 A  
DOCKED: ATOM     13  C   UNL     1     143.645  75.478 219.761 -0.36 -0.05    +0.096 A  
DOCKED: ATOM     14  C   UNL     1     143.865  73.119 220.206 -0.35 -0.00    +0.005 A  
DOCKED: ATOM     15  C   UNL     1     144.372  74.290 219.650 -0.36 -0.01    +0.019 A  
DOCKED: ATOM     16  H   UNL     1     138.469  74.550 222.772 -0.54 -0.08    +0.170 HD 
DOCKED: ATOM     17  O   UNL     1     142.174  77.747 220.022 -0.22 +0.18    -0.268 OA 
DOCKED: BRANCH   3  18
DOCKED: ATOM     18  N   UNL     1     136.877  76.468 223.102 -0.16 +0.06    -0.284 NA 
DOCKED: ATOM     19  H   UNL     1     136.332  77.287 223.451 +0.05 -0.03    +0.189 HD 
DOCKED: ENDBRANCH   3  18
DOCKED: ENDBRANCH   1   2
DOCKED: BRANCH   1  20
DOCKED: ATOM     20  N   UNL     1     138.131  80.203 221.895 -0.06 +0.04    -0.243 NA 
DOCKED: BRANCH  20  21
DOCKED: ATOM     21  C   UNL     1     138.804  80.879 223.011 -0.26 -0.02    +0.136 C  
DOCKED: ATOM     22  C   UNL     1     138.106  80.511 224.320 -0.37 -0.00    +0.038 C  
DOCKED: BRANCH  21  23
DOCKED: ATOM     23  C   UNL     1     140.272  80.504 223.072 -0.40 +0.00    -0.024 A  
DOCKED: ATOM     24  C   UNL     1     140.704  79.408 223.843 -0.52 -0.00    +0.006 A  
DOCKED: ATOM     25  C   UNL     1     141.217  81.231 222.326 -0.44 -0.00    +0.006 A  
DOCKED: ATOM     26  C   UNL     1     142.052  79.035 223.845 -0.58 -0.00    +0.000 A  
DOCKED: ATOM     27  C   UNL     1     142.563  80.851 222.329 -0.51 -0.00    +0.000 A  
DOCKED: ATOM     28  C   UNL     1     142.979  79.754 223.085 -0.62 -0.00    +0.000 A  
DOCKED: ENDBRANCH  21  23
DOCKED: ENDBRANCH  20  21
DOCKED: ENDBRANCH   1  20
DOCKED: BRANCH   1  29
DOCKED: ATOM     29  O   UNL     1     136.233  78.858 221.979 -0.01 +0.07    -0.493 OA 
DOCKED: ATOM     30  H   UNL     1     135.803  77.941 221.943 +0.05 -0.05    +0.295 HD 
DOCKED: ENDBRANCH   1  29
DOCKED: TORSDOF 6
DOCKED: TER
DOCKED: ENDMDL
________________________________________________________________________________


    FINAL DOCKED STATE:
    ________________________


Run:   5 / 20
Time taken for this run:   0.028s

DOCKED: MODEL        5
DOCKED: USER    Run = 5
DOCKED: USER
DOCKED: USER    Estimated Free Energy of Binding    =  -6.99 kcal/mol  [=(1)+(2)+(3)-(4)]
DOCKED: USER
DOCKED: USER    (1) Final Intermolecular Energy     =  -8.78 kcal/mol
DOCKED: USER        vdW + Hbond + desolv Energy     =  -8.75 kcal/mol
DOCKED: USER        Electrostatic Energy            =  -0.03 kcal/mol
DOCKED: USER        Moving Ligand-Fixed Receptor    =  -8.78 kcal/mol
DOCKED: USER        Moving Ligand-Moving Receptor   =  +0.00 kcal/mol
DOCKED: USER    (2) Final Total Internal Energy     =  -1.87 kcal/mol
DOCKED: USER    (3) Torsional Free Energy           =  +1.79 kcal/mol
DOCKED: USER    (4) Unbound System's Energy         =  -1.87 kcal/mol
DOCKED: USER
DOCKED: USER
DOCKED: REMARK SMILES [H]/N=c1/[nH]c2nc3ccccn3c(=O)c2cc1/C(O)=N\[C@@H](C)c1ccccc1
DOCKED: REMARK SMILES IDX 18 1 17 2 3 3 4 4 16 5 5 6 15 7 6 8 13 9 7 10 12 11 8 12
DOCKED: REMARK SMILES IDX 11 13 9 14 10 15 14 17 2 18 1 19 20 20 21 21 22 22 23 23
DOCKED: REMARK SMILES IDX 24 24 28 25 25 26 27 27 26 28 19 29
DOCKED: REMARK H PARENT 4 16 19 30
DOCKED: USER                              x       y       z     vdW  Elec       q    Type
DOCKED: USER                           _______ _______ _______ _____ _____    ______ ____
DOCKED: ROOT
DOCKED: ATOM      1  C   UNL     1     138.627  68.819 224.693 -0.25 -0.02    +0.218 C  
DOCKED: ENDROOT
DOCKED: BRANCH   1   2
DOCKED: ATOM      2  C   UNL     1     137.611  69.892 224.703 -0.24 -0.01    +0.079 A  
DOCKED: ATOM      3  C   UNL     1     137.804  71.128 224.043 -0.18 -0.03    +0.136 A  
DOCKED: ATOM      4  N   UNL     1     136.787  72.037 224.006 +0.00 +0.10    -0.324 N  
DOCKED: ATOM      5  C   UNL     1     136.389  69.645 225.339 -0.14 -0.00    +0.035 A  
DOCKED: ATOM      6  C   UNL     1     135.579  71.790 224.585 -0.08 -0.02    +0.146 A  
DOCKED: ATOM      7  C   UNL     1     135.353  70.585 225.269 -0.06 -0.01    +0.084 A  
DOCKED: ATOM      8  N   UNL     1     134.585  72.705 224.492 -0.12 +0.02    -0.212 NA 
DOCKED: ATOM      9  C   UNL     1     134.087  70.361 225.837 -0.18 -0.02    +0.267 A  
DOCKED: ATOM     10  C   UNL     1     133.364  72.487 225.043 -0.14 -0.01    +0.142 A  
DOCKED: ATOM     11  N   UNL     1     133.102  71.312 225.718 -0.11 +0.02    -0.267 N  
DOCKED: ATOM     12  C   UNL     1     132.375  73.468 224.912 -0.11 -0.00    +0.048 A  
DOCKED: ATOM     13  C   UNL     1     131.858  71.104 226.265 -0.20 -0.01    +0.096 A  
DOCKED: ATOM     14  C   UNL     1     131.116  73.253 225.468 -0.14 -0.00    +0.005 A  
DOCKED: ATOM     15  C   UNL     1     130.854  72.068 226.148 -0.20 -0.00    +0.019 A  
DOCKED: ATOM     16  H   UNL     1     136.932  72.946 223.509 -0.48 -0.08    +0.170 HD 
DOCKED: ATOM     17  O   UNL     1     133.863  69.279 226.451 -0.75 -0.01    -0.268 OA 
DOCKED: BRANCH   3  18
DOCKED: ATOM     18  N   UNL     1     138.931  71.423 223.468 -0.16 +0.07    -0.284 NA 
DOCKED: ATOM     19  H   UNL     1     139.778  70.812 223.499 +0.09 -0.03    +0.189 HD 
DOCKED: ENDBRANCH   3  18
DOCKED: ENDBRANCH   1   2
DOCKED: BRANCH   1  20
DOCKED: ATOM     20  N   UNL     1     138.811  68.034 225.718 -0.66 -0.00    -0.243 NA 
DOCKED: BRANCH  20  21
DOCKED: ATOM     21  C   UNL     1     139.900  68.134 226.696 -0.55 -0.02    +0.136 C  
DOCKED: ATOM     22  C   UNL     1     141.126  67.391 226.166 -0.35 -0.01    +0.038 C  
DOCKED: BRANCH  21  23
DOCKED: ATOM     23  C   UNL     1     140.245  69.582 226.985 -0.55 +0.00    -0.024 A  
DOCKED: ATOM     24  C   UNL     1     141.065  70.316 226.106 -0.57 -0.00    +0.006 A  
DOCKED: ATOM     25  C   UNL     1     139.716  70.220 228.121 -0.59 -0.00    +0.006 A  
DOCKED: ATOM     26  C   UNL     1     141.328  71.668 226.350 -0.68 -0.00    +0.000 A  
DOCKED: ATOM     27  C   UNL     1     139.980  71.572 228.358 -0.65 -0.00    +0.000 A  
DOCKED: ATOM     28  C   UNL     1     140.782  72.296 227.473 -0.74 -0.00    +0.000 A  
DOCKED: ENDBRANCH  21  23
DOCKED: ENDBRANCH  20  21
DOCKED: ENDBRANCH   1  20
DOCKED: BRANCH   1  29
DOCKED: ATOM     29  O   UNL     1     139.425  68.670 223.564 -0.00 +0.10    -0.493 OA 
DOCKED: ATOM     30  H   UNL     1     139.479  69.399 222.862 +0.08 -0.06    +0.295 HD 
DOCKED: ENDBRANCH   1  29
DOCKED: TORSDOF 6
DOCKED: TER
DOCKED: ENDMDL
________________________________________________________________________________


    FINAL DOCKED STATE:
    ________________________


Run:   6 / 20
Time taken for this run:   0.028s

DOCKED: MODEL        6
DOCKED: USER    Run = 6
DOCKED: USER
DOCKED: USER    Estimated Free Energy of Binding    =  -6.56 kcal/mol  [=(1)+(2)+(3)-(4)]
DOCKED: USER
DOCKED: USER    (1) Final Intermolecular Energy     =  -8.35 kcal/mol
DOCKED: USER        vdW + Hbond + desolv Energy     =  -8.37 kcal/mol
DOCKED: USER        Electrostatic Energy            =  +0.02 kcal/mol
DOCKED: USER        Moving Ligand-Fixed Receptor    =  -8.35 kcal/mol
DOCKED: USER        Moving Ligand-Moving Receptor   =  +0.00 kcal/mol
DOCKED: USER    (2) Final Total Internal Energy     =  -2.22 kcal/mol
DOCKED: USER    (3) Torsional Free Energy           =  +1.79 kcal/mol
DOCKED: USER    (4) Unbound System's Energy         =  -2.22 kcal/mol
DOCKED: USER
DOCKED: USER
DOCKED: REMARK SMILES [H]/N=c1/[nH]c2nc3ccccn3c(=O)c2cc1/C(O)=N\[C@@H](C)c1ccccc1
DOCKED: REMARK SMILES IDX 18 1 17 2 3 3 4 4 16 5 5 6 15 7 6 8 13 9 7 10 12 11 8 12
DOCKED: REMARK SMILES IDX 11 13 9 14 10 15 14 17 2 18 1 19 20 20 21 21 22 22 23 23
DOCKED: REMARK SMILES IDX 24 24 28 25 25 26 27 27 26 28 19 29
DOCKED: REMARK H PARENT 4 16 19 30
DOCKED: USER                              x       y       z     vdW  Elec       q    Type
DOCKED: USER                           _______ _______ _______ _____ _____    ______ ____
DOCKED: ROOT
DOCKED: ATOM      1  C   UNL     1     137.570  79.029 221.904 -0.10 -0.04    +0.218 C  
DOCKED: ENDROOT
DOCKED: BRANCH   1   2
DOCKED: ATOM      2  C   UNL     1     138.413  77.815 221.913 -0.19 -0.02    +0.079 A  
DOCKED: ATOM      3  C   UNL     1     137.978  76.592 222.474 -0.24 -0.03    +0.136 A  
DOCKED: ATOM      4  N   UNL     1     138.763  75.483 222.360 -0.16 +0.08    -0.324 N  
DOCKED: ATOM      5  C   UNL     1     139.662  77.868 221.284 -0.19 -0.01    +0.035 A  
DOCKED: ATOM      6  C   UNL     1     139.961  75.512 221.714 -0.27 -0.03    +0.146 A  
DOCKED: ATOM      7  C   UNL     1     140.440  76.710 221.161 -0.24 -0.03    +0.084 A  
DOCKED: ATOM      8  N   UNL     1     140.693  74.378 221.592 -0.54 +0.03    -0.212 NA 
DOCKED: ATOM      9  C   UNL     1     141.673  76.695 220.487 -0.17 -0.14    +0.267 A  
DOCKED: ATOM     10  C   UNL     1     141.884  74.367 220.941 -0.22 -0.03    +0.142 A  
DOCKED: ATOM     11  N   UNL     1     142.385  75.523 220.380 -0.17 +0.13    -0.267 N  
DOCKED: ATOM     12  C   UNL     1     142.593  73.164 220.843 -0.26 -0.01    +0.048 A  
DOCKED: ATOM     13  C   UNL     1     143.589  75.493 219.718 -0.37 -0.05    +0.096 A  
DOCKED: ATOM     14  C   UNL     1     143.813  73.138 220.173 -0.34 -0.00    +0.005 A  
DOCKED: ATOM     15  C   UNL     1     144.315  74.305 219.608 -0.35 -0.01    +0.019 A  
DOCKED: ATOM     16  H   UNL     1     138.433  74.578 222.770 -0.53 -0.08    +0.170 HD 
DOCKED: ATOM     17  O   UNL     1     142.118  77.763 219.977 -0.22 +0.18    -0.268 OA 
DOCKED: BRANCH   3  18
DOCKED: ATOM     18  N   UNL     1     136.843  76.496 223.100 -0.16 +0.06    -0.284 NA 
DOCKED: ATOM     19  H   UNL     1     136.294  77.318 223.439 +0.05 -0.03    +0.189 HD 
DOCKED: ENDBRANCH   3  18
DOCKED: ENDBRANCH   1   2
DOCKED: BRANCH   1  20
DOCKED: ATOM     20  N   UNL     1     138.087  80.227 221.881 -0.06 +0.04    -0.243 NA 
DOCKED: BRANCH  20  21
DOCKED: ATOM     21  C   UNL     1     138.761  80.897 222.999 -0.25 -0.02    +0.136 C  
DOCKED: ATOM     22  C   UNL     1     138.062  80.527 224.306 -0.37 -0.00    +0.038 C  
DOCKED: BRANCH  21  23
DOCKED: ATOM     23  C   UNL     1     140.228  80.518 223.059 -0.40 +0.00    -0.024 A  
DOCKED: ATOM     24  C   UNL     1     140.658  79.422 223.830 -0.51 -0.00    +0.006 A  
DOCKED: ATOM     25  C   UNL     1     141.174  81.241 222.311 -0.43 -0.00    +0.006 A  
DOCKED: ATOM     26  C   UNL     1     142.004  79.044 223.832 -0.59 -0.00    +0.000 A  
DOCKED: ATOM     27  C   UNL     1     142.519  80.858 222.314 -0.51 -0.00    +0.000 A  
DOCKED: ATOM     28  C   UNL     1     142.933  79.760 223.070 -0.63 -0.00    +0.000 A  
DOCKED: ENDBRANCH  21  23
DOCKED: ENDBRANCH  20  21
DOCKED: ENDBRANCH   1  20
DOCKED: BRANCH   1  29
DOCKED: ATOM     29  O   UNL     1     136.189  78.880 221.953 -0.01 +0.07    -0.493 OA 
DOCKED: ATOM     30  H   UNL     1     135.761  77.962 221.930 +0.05 -0.05    +0.295 HD 
DOCKED: ENDBRANCH   1  29
DOCKED: TORSDOF 6
DOCKED: TER
DOCKED: ENDMDL
________________________________________________________________________________


    FINAL DOCKED STATE:
    ________________________


Run:   7 / 20
Time taken for this run:   0.028s

DOCKED: MODEL        7
DOCKED: USER    Run = 7
DOCKED: USER
DOCKED: USER    Estimated Free Energy of Binding    =  -6.56 kcal/mol  [=(1)+(2)+(3)-(4)]
DOCKED: USER
DOCKED: USER    (1) Final Intermolecular Energy     =  -8.35 kcal/mol
DOCKED: USER        vdW + Hbond + desolv Energy     =  -8.38 kcal/mol
DOCKED: USER        Electrostatic Energy            =  +0.02 kcal/mol
DOCKED: USER        Moving Ligand-Fixed Receptor    =  -8.35 kcal/mol
DOCKED: USER        Moving Ligand-Moving Receptor   =  +0.00 kcal/mol
DOCKED: USER    (2) Final Total Internal Energy     =  -2.23 kcal/mol
DOCKED: USER    (3) Torsional Free Energy           =  +1.79 kcal/mol
DOCKED: USER    (4) Unbound System's Energy         =  -2.23 kcal/mol
DOCKED: USER
DOCKED: USER
DOCKED: REMARK SMILES [H]/N=c1/[nH]c2nc3ccccn3c(=O)c2cc1/C(O)=N\[C@@H](C)c1ccccc1
DOCKED: REMARK SMILES IDX 18 1 17 2 3 3 4 4 16 5 5 6 15 7 6 8 13 9 7 10 12 11 8 12
DOCKED: REMARK SMILES IDX 11 13 9 14 10 15 14 17 2 18 1 19 20 20 21 21 22 22 23 23
DOCKED: REMARK SMILES IDX 24 24 28 25 25 26 27 27 26 28 19 29
DOCKED: REMARK H PARENT 4 16 19 30
DOCKED: USER                              x       y       z     vdW  Elec       q    Type
DOCKED: USER                           _______ _______ _______ _____ _____    ______ ____
DOCKED: ROOT
DOCKED: ATOM      1  C   UNL     1     137.589  79.096 221.918 -0.10 -0.04    +0.218 C  
DOCKED: ENDROOT
DOCKED: BRANCH   1   2
DOCKED: ATOM      2  C   UNL     1     138.435  77.885 221.929 -0.19 -0.02    +0.079 A  
DOCKED: ATOM      3  C   UNL     1     138.005  76.662 222.494 -0.24 -0.03    +0.136 A  
DOCKED: ATOM      4  N   UNL     1     138.793  75.554 222.381 -0.16 +0.08    -0.324 N  
DOCKED: ATOM      5  C   UNL     1     139.683  77.940 221.297 -0.19 -0.01    +0.035 A  
DOCKED: ATOM      6  C   UNL     1     139.990  75.586 221.732 -0.27 -0.03    +0.146 A  
DOCKED: ATOM      7  C   UNL     1     140.464  76.784 221.177 -0.25 -0.03    +0.084 A  
DOCKED: ATOM      8  N   UNL     1     140.725  74.454 221.612 -0.55 +0.03    -0.212 NA 
DOCKED: ATOM      9  C   UNL     1     141.697  76.771 220.500 -0.16 -0.14    +0.267 A  
DOCKED: ATOM     10  C   UNL     1     141.915  74.444 220.959 -0.21 -0.04    +0.142 A  
DOCKED: ATOM     11  N   UNL     1     142.411  75.601 220.395 -0.16 +0.14    -0.267 N  
DOCKED: ATOM     12  C   UNL     1     142.627  73.244 220.864 -0.25 -0.01    +0.048 A  
DOCKED: ATOM     13  C   UNL     1     143.614  75.573 219.731 -0.37 -0.06    +0.096 A  
DOCKED: ATOM     14  C   UNL     1     143.846  73.219 220.192 -0.35 -0.00    +0.005 A  
DOCKED: ATOM     15  C   UNL     1     144.344  74.387 219.623 -0.35 -0.01    +0.019 A  
DOCKED: ATOM     16  H   UNL     1     138.467  74.650 222.793 -0.52 -0.08    +0.170 HD 
DOCKED: ATOM     17  O   UNL     1     142.137  77.839 219.987 -0.22 +0.18    -0.268 OA 
DOCKED: BRANCH   3  18
DOCKED: ATOM     18  N   UNL     1     136.871  76.564 223.122 -0.15 +0.06    -0.284 NA 
DOCKED: ATOM     19  H   UNL     1     136.293  77.385 223.411 +0.05 -0.03    +0.189 HD 
DOCKED: ENDBRANCH   3  18
DOCKED: ENDBRANCH   1   2
DOCKED: BRANCH   1  20
DOCKED: ATOM     20  N   UNL     1     138.101  80.296 221.937 -0.06 +0.04    -0.243 NA 
DOCKED: BRANCH  20  21
DOCKED: ATOM     21  C   UNL     1     138.781  80.925 223.075 -0.26 -0.02    +0.136 C  
DOCKED: ATOM     22  C   UNL     1     138.086  80.512 224.372 -0.37 -0.00    +0.038 C  
DOCKED: BRANCH  21  23
DOCKED: ATOM     23  C   UNL     1     140.247  80.540 223.117 -0.40 +0.00    -0.024 A  
DOCKED: ATOM     24  C   UNL     1     140.678  79.425 223.861 -0.51 -0.00    +0.006 A  
DOCKED: ATOM     25  C   UNL     1     141.191  81.275 222.378 -0.44 -0.00    +0.006 A  
DOCKED: ATOM     26  C   UNL     1     142.023  79.043 223.846 -0.59 -0.00    +0.000 A  
DOCKED: ATOM     27  C   UNL     1     142.534  80.887 222.364 -0.51 -0.00    +0.000 A  
DOCKED: ATOM     28  C   UNL     1     142.949  79.771 223.094 -0.64 -0.00    +0.000 A  
DOCKED: ENDBRANCH  21  23
DOCKED: ENDBRANCH  20  21
DOCKED: ENDBRANCH   1  20
DOCKED: BRANCH   1  29
DOCKED: ATOM     29  O   UNL     1     136.207  78.941 221.919 -0.01 +0.07    -0.493 OA 
DOCKED: ATOM     30  H   UNL     1     135.783  78.022 221.945 +0.05 -0.05    +0.295 HD 
DOCKED: ENDBRANCH   1  29
DOCKED: TORSDOF 6
DOCKED: TER
DOCKED: ENDMDL
________________________________________________________________________________


    FINAL DOCKED STATE:
    ________________________


Run:   8 / 20
Time taken for this run:   0.028s

DOCKED: MODEL        8
DOCKED: USER    Run = 8
DOCKED: USER
DOCKED: USER    Estimated Free Energy of Binding    =  -7.12 kcal/mol  [=(1)+(2)+(3)-(4)]
DOCKED: USER
DOCKED: USER    (1) Final Intermolecular Energy     =  -8.91 kcal/mol
DOCKED: USER        vdW + Hbond + desolv Energy     =  -8.88 kcal/mol
DOCKED: USER        Electrostatic Energy            =  -0.03 kcal/mol
DOCKED: USER        Moving Ligand-Fixed Receptor    =  -8.91 kcal/mol
DOCKED: USER        Moving Ligand-Moving Receptor   =  +0.00 kcal/mol
DOCKED: USER    (2) Final Total Internal Energy     =  -1.84 kcal/mol
DOCKED: USER    (3) Torsional Free Energy           =  +1.79 kcal/mol
DOCKED: USER    (4) Unbound System's Energy         =  -1.84 kcal/mol
DOCKED: USER
DOCKED: USER
DOCKED: REMARK SMILES [H]/N=c1/[nH]c2nc3ccccn3c(=O)c2cc1/C(O)=N\[C@@H](C)c1ccccc1
DOCKED: REMARK SMILES IDX 18 1 17 2 3 3 4 4 16 5 5 6 15 7 6 8 13 9 7 10 12 11 8 12
DOCKED: REMARK SMILES IDX 11 13 9 14 10 15 14 17 2 18 1 19 20 20 21 21 22 22 23 23
DOCKED: REMARK SMILES IDX 24 24 28 25 25 26 27 27 26 28 19 29
DOCKED: REMARK H PARENT 4 16 19 30
DOCKED: USER                              x       y       z     vdW  Elec       q    Type
DOCKED: USER                           _______ _______ _______ _____ _____    ______ ____
DOCKED: ROOT
DOCKED: ATOM      1  C   UNL     1     138.624  68.884 224.588 -0.25 -0.02    +0.218 C  
DOCKED: ENDROOT
DOCKED: BRANCH   1   2
DOCKED: ATOM      2  C   UNL     1     137.563  69.908 224.678 -0.24 -0.01    +0.079 A  
DOCKED: ATOM      3  C   UNL     1     137.681  71.180 224.071 -0.15 -0.03    +0.136 A  
DOCKED: ATOM      4  N   UNL     1     136.625  72.043 224.106 -0.03 +0.09    -0.324 N  
DOCKED: ATOM      5  C   UNL     1     136.373  69.577 225.336 -0.14 -0.00    +0.035 A  
DOCKED: ATOM      6  C   UNL     1     135.448  71.716 224.707 -0.05 -0.02    +0.146 A  
DOCKED: ATOM      7  C   UNL     1     135.296  70.472 225.340 -0.11 -0.01    +0.084 A  
DOCKED: ATOM      8  N   UNL     1     134.412  72.589 224.687 -0.12 +0.02    -0.212 NA 
DOCKED: ATOM      9  C   UNL     1     134.059  70.166 225.934 -0.19 -0.01    +0.267 A  
DOCKED: ATOM     10  C   UNL     1     133.219  72.290 225.262 -0.15 -0.01    +0.142 A  
DOCKED: ATOM     11  N   UNL     1     133.030  71.076 225.888 -0.12 +0.02    -0.267 N  
DOCKED: ATOM     12  C   UNL     1     132.184  73.231 225.206 -0.13 -0.00    +0.048 A  
DOCKED: ATOM     13  C   UNL     1     131.814  70.787 226.460 -0.21 -0.01    +0.096 A  
DOCKED: ATOM     14  C   UNL     1     130.954  72.935 225.787 -0.17 -0.00    +0.005 A  
DOCKED: ATOM     15  C   UNL     1     130.766  71.709 226.417 -0.23 -0.00    +0.019 A  
DOCKED: ATOM     16  H   UNL     1     136.714  72.979 223.648 -0.41 -0.08    +0.170 HD 
DOCKED: ATOM     17  O   UNL     1     133.901  69.048 226.503 -0.77 -0.01    -0.268 OA 
DOCKED: BRANCH   3  18
DOCKED: ATOM     18  N   UNL     1     138.776  71.552 223.477 -0.14 +0.08    -0.284 NA 
DOCKED: ATOM     19  H   UNL     1     139.675  71.021 223.529 +0.08 -0.04    +0.189 HD 
DOCKED: ENDBRANCH   3  18
DOCKED: ENDBRANCH   1   2
DOCKED: BRANCH   1  20
DOCKED: ATOM     20  N   UNL     1     138.826  68.015 225.540 -0.68 -0.00    -0.243 NA 
DOCKED: BRANCH  20  21
DOCKED: ATOM     21  C   UNL     1     139.790  68.149 226.639 -0.53 -0.02    +0.136 C  
DOCKED: ATOM     22  C   UNL     1     141.065  67.383 226.289 -0.43 -0.01    +0.038 C  
DOCKED: BRANCH  21  23
DOCKED: ATOM     23  C   UNL     1     140.108  69.606 226.912 -0.54 +0.00    -0.024 A  
DOCKED: ATOM     24  C   UNL     1     139.638  70.239 228.078 -0.58 -0.00    +0.006 A  
DOCKED: ATOM     25  C   UNL     1     140.912  70.333 226.016 -0.56 -0.00    +0.006 A  
DOCKED: ATOM     26  C   UNL     1     139.986  71.566 228.350 -0.65 -0.00    +0.000 A  
DOCKED: ATOM     27  C   UNL     1     141.260  71.658 226.294 -0.68 -0.00    +0.000 A  
DOCKED: ATOM     28  C   UNL     1     140.800  72.273 227.461 -0.77 -0.00    +0.000 A  
DOCKED: ENDBRANCH  21  23
DOCKED: ENDBRANCH  20  21
DOCKED: ENDBRANCH   1  20
DOCKED: BRANCH   1  29
DOCKED: ATOM     29  O   UNL     1     139.444  68.873 223.465 -0.02 +0.10    -0.493 OA 
DOCKED: ATOM     30  H   UNL     1     139.373  69.595 222.758 +0.09 -0.05    +0.295 HD 
DOCKED: ENDBRANCH   1  29
DOCKED: TORSDOF 6
DOCKED: TER
DOCKED: ENDMDL
________________________________________________________________________________


    FINAL DOCKED STATE:
    ________________________


Run:   9 / 20
Time taken for this run:   0.028s

DOCKED: MODEL        9
DOCKED: USER    Run = 9
DOCKED: USER
DOCKED: USER    Estimated Free Energy of Binding    =  -6.56 kcal/mol  [=(1)+(2)+(3)-(4)]
DOCKED: USER
DOCKED: USER    (1) Final Intermolecular Energy     =  -8.35 kcal/mol
DOCKED: USER        vdW + Hbond + desolv Energy     =  -8.37 kcal/mol
DOCKED: USER        Electrostatic Energy            =  +0.03 kcal/mol
DOCKED: USER        Moving Ligand-Fixed Receptor    =  -8.35 kcal/mol
DOCKED: USER        Moving Ligand-Moving Receptor   =  +0.00 kcal/mol
DOCKED: USER    (2) Final Total Internal Energy     =  -2.23 kcal/mol
DOCKED: USER    (3) Torsional Free Energy           =  +1.79 kcal/mol
DOCKED: USER    (4) Unbound System's Energy         =  -2.23 kcal/mol
DOCKED: USER
DOCKED: USER
DOCKED: REMARK SMILES [H]/N=c1/[nH]c2nc3ccccn3c(=O)c2cc1/C(O)=N\[C@@H](C)c1ccccc1
DOCKED: REMARK SMILES IDX 18 1 17 2 3 3 4 4 16 5 5 6 15 7 6 8 13 9 7 10 12 11 8 12
DOCKED: REMARK SMILES IDX 11 13 9 14 10 15 14 17 2 18 1 19 20 20 21 21 22 22 23 23
DOCKED: REMARK SMILES IDX 24 24 28 25 25 26 27 27 26 28 19 29
DOCKED: REMARK H PARENT 4 16 19 30
DOCKED: USER                              x       y       z     vdW  Elec       q    Type
DOCKED: USER                           _______ _______ _______ _____ _____    ______ ____
DOCKED: ROOT
DOCKED: ATOM      1  C   UNL     1     137.583  78.938 221.947 -0.10 -0.04    +0.218 C  
DOCKED: ENDROOT
DOCKED: BRANCH   1   2
DOCKED: ATOM      2  C   UNL     1     138.428  77.726 221.947 -0.19 -0.02    +0.079 A  
DOCKED: ATOM      3  C   UNL     1     137.996  76.496 222.497 -0.24 -0.03    +0.136 A  
DOCKED: ATOM      4  N   UNL     1     138.784  75.390 222.375 -0.15 +0.08    -0.324 N  
DOCKED: ATOM      5  C   UNL     1     139.679  77.787 221.321 -0.20 -0.01    +0.035 A  
DOCKED: ATOM      6  C   UNL     1     139.983  75.428 221.731 -0.27 -0.03    +0.146 A  
DOCKED: ATOM      7  C   UNL     1     140.460  76.632 221.191 -0.25 -0.03    +0.084 A  
DOCKED: ATOM      8  N   UNL     1     140.718  74.297 221.601 -0.54 +0.02    -0.212 NA 
DOCKED: ATOM      9  C   UNL     1     141.695  76.625 220.519 -0.16 -0.14    +0.267 A  
DOCKED: ATOM     10  C   UNL     1     141.910  74.294 220.953 -0.21 -0.03    +0.142 A  
DOCKED: ATOM     11  N   UNL     1     142.410  75.457 220.404 -0.17 +0.13    -0.267 N  
DOCKED: ATOM     12  C   UNL     1     142.622  73.094 220.847 -0.26 -0.01    +0.048 A  
DOCKED: ATOM     13  C   UNL     1     143.615  75.435 219.745 -0.36 -0.05    +0.096 A  
DOCKED: ATOM     14  C   UNL     1     143.844  73.076 220.180 -0.34 -0.00    +0.005 A  
DOCKED: ATOM     15  C   UNL     1     144.345  74.250 219.626 -0.36 -0.01    +0.019 A  
DOCKED: ATOM     16  H   UNL     1     138.455  74.481 222.776 -0.54 -0.08    +0.170 HD 
DOCKED: ATOM     17  O   UNL     1     142.138  77.699 220.020 -0.22 +0.18    -0.268 OA 
DOCKED: BRANCH   3  18
DOCKED: ATOM     18  N   UNL     1     136.859  76.393 223.119 -0.16 +0.06    -0.284 NA 
DOCKED: ATOM     19  H   UNL     1     136.329  77.207 223.503 +0.05 -0.03    +0.189 HD 
DOCKED: ENDBRANCH   3  18
DOCKED: ENDBRANCH   1   2
DOCKED: BRANCH   1  20
DOCKED: ATOM     20  N   UNL     1     138.096  80.136 221.886 -0.06 +0.04    -0.243 NA 
DOCKED: BRANCH  20  21
DOCKED: ATOM     21  C   UNL     1     138.775  80.839 222.980 -0.25 -0.02    +0.136 C  
DOCKED: ATOM     22  C   UNL     1     138.093  80.495 224.304 -0.37 -0.00    +0.038 C  
DOCKED: BRANCH  21  23
DOCKED: ATOM     23  C   UNL     1     140.246  80.474 223.035 -0.40 +0.00    -0.024 A  
DOCKED: ATOM     24  C   UNL     1     140.695  79.410 223.839 -0.52 -0.00    +0.006 A  
DOCKED: ATOM     25  C   UNL     1     141.176  81.177 222.249 -0.43 -0.00    +0.006 A  
DOCKED: ATOM     26  C   UNL     1     142.045  79.044 223.837 -0.58 -0.00    +0.000 A  
DOCKED: ATOM     27  C   UNL     1     142.524  80.805 222.247 -0.50 -0.00    +0.000 A  
DOCKED: ATOM     28  C   UNL     1     142.957  79.739 223.038 -0.62 -0.00    +0.000 A  
DOCKED: ENDBRANCH  21  23
DOCKED: ENDBRANCH  20  21
DOCKED: ENDBRANCH   1  20
DOCKED: BRANCH   1  29
DOCKED: ATOM     29  O   UNL     1     136.204  78.786 222.044 -0.01 +0.07    -0.493 OA 
DOCKED: ATOM     30  H   UNL     1     135.773  77.872 221.978 +0.05 -0.05    +0.295 HD 
DOCKED: ENDBRANCH   1  29
DOCKED: TORSDOF 6
DOCKED: TER
DOCKED: ENDMDL
________________________________________________________________________________


    FINAL DOCKED STATE:
    ________________________


Run:   10 / 20
Time taken for this run:   0.028s

DOCKED: MODEL        10
DOCKED: USER    Run = 10
DOCKED: USER
DOCKED: USER    Estimated Free Energy of Binding    =  -6.55 kcal/mol  [=(1)+(2)+(3)-(4)]
DOCKED: USER
DOCKED: USER    (1) Final Intermolecular Energy     =  -8.34 kcal/mol
DOCKED: USER        vdW + Hbond + desolv Energy     =  -8.37 kcal/mol
DOCKED: USER        Electrostatic Energy            =  +0.02 kcal/mol
DOCKED: USER        Moving Ligand-Fixed Receptor    =  -8.34 kcal/mol
DOCKED: USER        Moving Ligand-Moving Receptor   =  +0.00 kcal/mol
DOCKED: USER    (2) Final Total Internal Energy     =  -2.23 kcal/mol
DOCKED: USER    (3) Torsional Free Energy           =  +1.79 kcal/mol
DOCKED: USER    (4) Unbound System's Energy         =  -2.23 kcal/mol
DOCKED: USER
DOCKED: USER
DOCKED: REMARK SMILES [H]/N=c1/[nH]c2nc3ccccn3c(=O)c2cc1/C(O)=N\[C@@H](C)c1ccccc1
DOCKED: REMARK SMILES IDX 18 1 17 2 3 3 4 4 16 5 5 6 15 7 6 8 13 9 7 10 12 11 8 12
DOCKED: REMARK SMILES IDX 11 13 9 14 10 15 14 17 2 18 1 19 20 20 21 21 22 22 23 23
DOCKED: REMARK SMILES IDX 24 24 28 25 25 26 27 27 26 28 19 29
DOCKED: REMARK H PARENT 4 16 19 30
DOCKED: USER                              x       y       z     vdW  Elec       q    Type
DOCKED: USER                           _______ _______ _______ _____ _____    ______ ____
DOCKED: ROOT
DOCKED: ATOM      1  C   UNL     1     137.561  78.998 221.916 -0.10 -0.04    +0.218 C  
DOCKED: ENDROOT
DOCKED: BRANCH   1   2
DOCKED: ATOM      2  C   UNL     1     138.405  77.786 221.926 -0.19 -0.02    +0.079 A  
DOCKED: ATOM      3  C   UNL     1     137.976  76.564 222.494 -0.24 -0.03    +0.136 A  
DOCKED: ATOM      4  N   UNL     1     138.762  75.455 222.380 -0.15 +0.08    -0.324 N  
DOCKED: ATOM      5  C   UNL     1     139.652  77.838 221.290 -0.19 -0.01    +0.035 A  
DOCKED: ATOM      6  C   UNL     1     139.957  75.484 221.728 -0.27 -0.03    +0.146 A  
DOCKED: ATOM      7  C   UNL     1     140.431  76.681 221.168 -0.24 -0.03    +0.084 A  
DOCKED: ATOM      8  N   UNL     1     140.690  74.351 221.607 -0.55 +0.02    -0.212 NA 
DOCKED: ATOM      9  C   UNL     1     141.661  76.665 220.488 -0.17 -0.14    +0.267 A  
DOCKED: ATOM     10  C   UNL     1     141.878  74.339 220.950 -0.22 -0.03    +0.142 A  
DOCKED: ATOM     11  N   UNL     1     142.374  75.494 220.382 -0.17 +0.13    -0.267 N  
DOCKED: ATOM     12  C   UNL     1     142.588  73.137 220.854 -0.25 -0.01    +0.048 A  
DOCKED: ATOM     13  C   UNL     1     143.575  75.464 219.715 -0.36 -0.05    +0.096 A  
DOCKED: ATOM     14  C   UNL     1     143.805  73.110 220.178 -0.34 -0.00    +0.005 A  
DOCKED: ATOM     15  C   UNL     1     144.303  74.276 219.606 -0.35 -0.01    +0.019 A  
DOCKED: ATOM     16  H   UNL     1     138.436  74.552 222.795 -0.53 -0.08    +0.170 HD 
DOCKED: ATOM     17  O   UNL     1     142.101  77.732 219.972 -0.21 +0.18    -0.268 OA 
DOCKED: BRANCH   3  18
DOCKED: ATOM     18  N   UNL     1     136.844  76.469 223.126 -0.16 +0.06    -0.284 NA 
DOCKED: ATOM     19  H   UNL     1     136.295  77.291 223.464 +0.05 -0.03    +0.189 HD 
DOCKED: ENDBRANCH   3  18
DOCKED: ENDBRANCH   1   2
DOCKED: BRANCH   1  20
DOCKED: ATOM     20  N   UNL     1     138.075  80.197 221.887 -0.06 +0.04    -0.243 NA 
DOCKED: BRANCH  20  21
DOCKED: ATOM     21  C   UNL     1     138.750  80.873 223.001 -0.25 -0.02    +0.136 C  
DOCKED: ATOM     22  C   UNL     1     138.052  80.508 224.311 -0.37 -0.00    +0.038 C  
DOCKED: BRANCH  21  23
DOCKED: ATOM     23  C   UNL     1     140.217  80.495 223.062 -0.40 +0.00    -0.024 A  
DOCKED: ATOM     24  C   UNL     1     140.648  79.405 223.842 -0.51 -0.00    +0.006 A  
DOCKED: ATOM     25  C   UNL     1     141.162  81.212 222.307 -0.43 -0.00    +0.006 A  
DOCKED: ATOM     26  C   UNL     1     141.995  79.028 223.845 -0.59 -0.00    +0.000 A  
DOCKED: ATOM     27  C   UNL     1     142.507  80.829 222.311 -0.51 -0.00    +0.000 A  
DOCKED: ATOM     28  C   UNL     1     142.922  79.737 223.076 -0.63 -0.00    +0.000 A  
DOCKED: ENDBRANCH  21  23
DOCKED: ENDBRANCH  20  21
DOCKED: ENDBRANCH   1  20
DOCKED: BRANCH   1  29
DOCKED: ATOM     29  O   UNL     1     136.180  78.846 221.970 -0.01 +0.07    -0.493 OA 
DOCKED: ATOM     30  H   UNL     1     135.753  77.928 221.952 +0.05 -0.05    +0.295 HD 
DOCKED: ENDBRANCH   1  29
DOCKED: TORSDOF 6
DOCKED: TER
DOCKED: ENDMDL
________________________________________________________________________________


    FINAL DOCKED STATE:
    ________________________


Run:   11 / 20
Time taken for this run:   0.028s

DOCKED: MODEL        11
DOCKED: USER    Run = 11
DOCKED: USER
DOCKED: USER    Estimated Free Energy of Binding    =  -6.58 kcal/mol  [=(1)+(2)+(3)-(4)]
DOCKED: USER
DOCKED: USER    (1) Final Intermolecular Energy     =  -8.37 kcal/mol
DOCKED: USER        vdW + Hbond + desolv Energy     =  -8.40 kcal/mol
DOCKED: USER        Electrostatic Energy            =  +0.03 kcal/mol
DOCKED: USER        Moving Ligand-Fixed Receptor    =  -8.37 kcal/mol
DOCKED: USER        Moving Ligand-Moving Receptor   =  +0.00 kcal/mol
DOCKED: USER    (2) Final Total Internal Energy     =  -2.22 kcal/mol
DOCKED: USER    (3) Torsional Free Energy           =  +1.79 kcal/mol
DOCKED: USER    (4) Unbound System's Energy         =  -2.22 kcal/mol
DOCKED: USER
DOCKED: USER
DOCKED: REMARK SMILES [H]/N=c1/[nH]c2nc3ccccn3c(=O)c2cc1/C(O)=N\[C@@H](C)c1ccccc1
DOCKED: REMARK SMILES IDX 18 1 17 2 3 3 4 4 16 5 5 6 15 7 6 8 13 9 7 10 12 11 8 12
DOCKED: REMARK SMILES IDX 11 13 9 14 10 15 14 17 2 18 1 19 20 20 21 21 22 22 23 23
DOCKED: REMARK SMILES IDX 24 24 28 25 25 26 27 27 26 28 19 29
DOCKED: REMARK H PARENT 4 16 19 30
DOCKED: USER                              x       y       z     vdW  Elec       q    Type
DOCKED: USER                           _______ _______ _______ _____ _____    ______ ____
DOCKED: ROOT
DOCKED: ATOM      1  C   UNL     1     137.600  78.958 221.931 -0.10 -0.04    +0.218 C  
DOCKED: ENDROOT
DOCKED: BRANCH   1   2
DOCKED: ATOM      2  C   UNL     1     138.442  77.744 221.931 -0.19 -0.02    +0.079 A  
DOCKED: ATOM      3  C   UNL     1     138.005  76.515 222.480 -0.24 -0.03    +0.136 A  
DOCKED: ATOM      4  N   UNL     1     138.791  75.407 222.357 -0.16 +0.08    -0.324 N  
DOCKED: ATOM      5  C   UNL     1     139.693  77.802 221.306 -0.20 -0.01    +0.035 A  
DOCKED: ATOM      6  C   UNL     1     139.991  75.442 221.714 -0.27 -0.03    +0.146 A  
DOCKED: ATOM      7  C   UNL     1     140.471  76.645 221.175 -0.25 -0.03    +0.084 A  
DOCKED: ATOM      8  N   UNL     1     140.722  74.309 221.584 -0.53 +0.03    -0.212 NA 
DOCKED: ATOM      9  C   UNL     1     141.707  76.636 220.504 -0.16 -0.14    +0.267 A  
DOCKED: ATOM     10  C   UNL     1     141.915  74.304 220.936 -0.21 -0.03    +0.142 A  
DOCKED: ATOM     11  N   UNL     1     142.418  75.465 220.388 -0.17 +0.13    -0.267 N  
DOCKED: ATOM     12  C   UNL     1     142.624  73.102 220.830 -0.26 -0.01    +0.048 A  
DOCKED: ATOM     13  C   UNL     1     143.624  75.441 219.730 -0.37 -0.05    +0.096 A  
DOCKED: ATOM     14  C   UNL     1     143.846  73.081 220.163 -0.34 -0.00    +0.005 A  
DOCKED: ATOM     15  C   UNL     1     144.351  74.254 219.610 -0.36 -0.01    +0.019 A  
DOCKED: ATOM     16  H   UNL     1     138.459  74.499 222.757 -0.54 -0.08    +0.170 HD 
DOCKED: ATOM     17  O   UNL     1     142.153  77.709 220.006 -0.22 +0.18    -0.268 OA 
DOCKED: BRANCH   3  18
DOCKED: ATOM     18  N   UNL     1     136.868  76.414 223.101 -0.17 +0.06    -0.284 NA 
DOCKED: ATOM     19  H   UNL     1     136.339  77.230 223.482 +0.05 -0.03    +0.189 HD 
DOCKED: ENDBRANCH   3  18
DOCKED: ENDBRANCH   1   2
DOCKED: BRANCH   1  20
DOCKED: ATOM     20  N   UNL     1     138.116  80.155 221.878 -0.06 +0.04    -0.243 NA 
DOCKED: BRANCH  20  21
DOCKED: ATOM     21  C   UNL     1     138.779  80.858 222.983 -0.25 -0.02    +0.136 C  
DOCKED: ATOM     22  C   UNL     1     138.081  80.508 224.297 -0.37 -0.00    +0.038 C  
DOCKED: BRANCH  21  23
DOCKED: ATOM     23  C   UNL     1     140.250  80.498 223.055 -0.40 +0.00    -0.024 A  
DOCKED: ATOM     24  C   UNL     1     140.689  79.411 223.835 -0.52 -0.00    +0.006 A  
DOCKED: ATOM     25  C   UNL     1     141.192  81.229 222.309 -0.43 -0.00    +0.006 A  
DOCKED: ATOM     26  C   UNL     1     142.040  79.051 223.848 -0.58 -0.00    +0.000 A  
DOCKED: ATOM     27  C   UNL     1     142.542  80.863 222.323 -0.51 -0.00    +0.000 A  
DOCKED: ATOM     28  C   UNL     1     142.964  79.774 223.088 -0.63 -0.00    +0.000 A  
DOCKED: ENDBRANCH  21  23
DOCKED: ENDBRANCH  20  21
DOCKED: ENDBRANCH   1  20
DOCKED: BRANCH   1  29
DOCKED: ATOM     29  O   UNL     1     136.220  78.810 222.022 -0.01 +0.07    -0.493 OA 
DOCKED: ATOM     30  H   UNL     1     135.787  77.896 221.962 +0.05 -0.05    +0.295 HD 
DOCKED: ENDBRANCH   1  29
DOCKED: TORSDOF 6
DOCKED: TER
DOCKED: ENDMDL
________________________________________________________________________________


    FINAL DOCKED STATE:
    ________________________


Run:   12 / 20
Time taken for this run:   0.028s

DOCKED: MODEL        12
DOCKED: USER    Run = 12
DOCKED: USER
DOCKED: USER    Estimated Free Energy of Binding    =  -7.46 kcal/mol  [=(1)+(2)+(3)-(4)]
DOCKED: USER
DOCKED: USER    (1) Final Intermolecular Energy     =  -9.25 kcal/mol
DOCKED: USER        vdW + Hbond + desolv Energy     =  -9.22 kcal/mol
DOCKED: USER        Electrostatic Energy            =  -0.02 kcal/mol
DOCKED: USER        Moving Ligand-Fixed Receptor    =  -9.25 kcal/mol
DOCKED: USER        Moving Ligand-Moving Receptor   =  +0.00 kcal/mol
DOCKED: USER    (2) Final Total Internal Energy     =  -1.50 kcal/mol
DOCKED: USER    (3) Torsional Free Energy           =  +1.79 kcal/mol
DOCKED: USER    (4) Unbound System's Energy         =  -1.50 kcal/mol
DOCKED: USER
DOCKED: USER
DOCKED: REMARK SMILES [H]/N=c1/[nH]c2nc3ccccn3c(=O)c2cc1/C(O)=N\[C@@H](C)c1ccccc1
DOCKED: REMARK SMILES IDX 18 1 17 2 3 3 4 4 16 5 5 6 15 7 6 8 13 9 7 10 12 11 8 12
DOCKED: REMARK SMILES IDX 11 13 9 14 10 15 14 17 2 18 1 19 20 20 21 21 22 22 23 23
DOCKED: REMARK SMILES IDX 24 24 28 25 25 26 27 27 26 28 19 29
DOCKED: REMARK H PARENT 4 16 19 30
DOCKED: USER                              x       y       z     vdW  Elec       q    Type
DOCKED: USER                           _______ _______ _______ _____ _____    ______ ____
DOCKED: ROOT
DOCKED: ATOM      1  C   UNL     1     135.913  69.813 224.539 -0.15 -0.02    +0.218 C  
DOCKED: ENDROOT
DOCKED: BRANCH   1   2
DOCKED: ATOM      2  C   UNL     1     134.998  70.771 225.195 -0.16 -0.01    +0.079 A  
DOCKED: ATOM      3  C   UNL     1     134.050  70.374 226.166 -0.27 -0.01    +0.136 A  
DOCKED: ATOM      4  N   UNL     1     133.305  71.320 226.806 -0.21 +0.03    -0.324 N  
DOCKED: ATOM      5  C   UNL     1     135.124  72.130 224.884 -0.14 -0.00    +0.035 A  
DOCKED: ATOM      6  C   UNL     1     133.449  72.648 226.542 -0.31 -0.00    +0.146 A  
DOCKED: ATOM      7  C   UNL     1     134.363  73.084 225.571 -0.25 -0.00    +0.084 A  
DOCKED: ATOM      8  N   UNL     1     132.714  73.558 227.228 -0.66 +0.01    -0.212 NA 
DOCKED: ATOM      9  C   UNL     1     134.494  74.465 225.341 -0.23 -0.01    +0.267 A  
DOCKED: ATOM     10  C   UNL     1     132.842  74.890 227.002 -0.31 +0.00    +0.142 A  
DOCKED: ATOM     11  N   UNL     1     133.734  75.357 226.059 -0.21 +0.00    -0.267 N  
DOCKED: ATOM     12  C   UNL     1     132.059  75.782 227.744 -0.33 +0.00    +0.048 A  
DOCKED: ATOM     13  C   UNL     1     133.856  76.709 225.848 -0.23 -0.01    +0.096 A  
DOCKED: ATOM     14  C   UNL     1     132.185  77.151 227.527 -0.32 -0.00    +0.005 A  
DOCKED: ATOM     15  C   UNL     1     133.086  77.620 226.576 -0.26 -0.00    +0.019 A  
DOCKED: ATOM     16  H   UNL     1     132.611  71.022 227.529 +0.06 -0.02    +0.170 HD 
DOCKED: ATOM     17  O   UNL     1     135.317  74.877 224.474 -0.25 +0.05    -0.268 OA 
DOCKED: BRANCH   3  18
DOCKED: ATOM     18  N   UNL     1     133.868  69.122 226.466 -0.70 -0.01    -0.284 NA 
DOCKED: ATOM     19  H   UNL     1     134.534  68.359 226.210 +0.08 -0.01    +0.189 HD 
DOCKED: ENDBRANCH   3  18
DOCKED: ENDBRANCH   1   2
DOCKED: BRANCH   1  20
DOCKED: ATOM     20  N   UNL     1     137.128  70.144 224.197 -0.13 +0.03    -0.243 NA 
DOCKED: BRANCH  20  21
DOCKED: ATOM     21  C   UNL     1     138.331  69.325 224.388 -0.27 -0.02    +0.136 C  
DOCKED: ATOM     22  C   UNL     1     139.125  69.281 223.083 -0.22 -0.01    +0.038 C  
DOCKED: BRANCH  21  23
DOCKED: ATOM     23  C   UNL     1     139.191  69.871 225.511 -0.40 +0.00    -0.024 A  
DOCKED: ATOM     24  C   UNL     1     139.970  71.029 225.324 -0.51 -0.00    +0.006 A  
DOCKED: ATOM     25  C   UNL     1     139.190  69.243 226.769 -0.48 -0.00    +0.006 A  
DOCKED: ATOM     26  C   UNL     1     140.714  71.558 226.384 -0.67 -0.00    +0.000 A  
DOCKED: ATOM     27  C   UNL     1     139.932  69.778 227.826 -0.62 -0.00    +0.000 A  
DOCKED: ATOM     28  C   UNL     1     140.690  70.935 227.635 -0.72 -0.00    +0.000 A  
DOCKED: ENDBRANCH  21  23
DOCKED: ENDBRANCH  20  21
DOCKED: ENDBRANCH   1  20
DOCKED: BRANCH   1  29
DOCKED: ATOM     29  O   UNL     1     135.446  68.534 224.256 -0.46 -0.03    -0.493 OA 
DOCKED: ATOM     30  H   UNL     1     134.545  68.220 224.597 +0.09 +0.00    +0.295 HD 
DOCKED: ENDBRANCH   1  29
DOCKED: TORSDOF 6
DOCKED: TER
DOCKED: ENDMDL
________________________________________________________________________________


    FINAL DOCKED STATE:
    ________________________


Run:   13 / 20
Time taken for this run:   0.028s

DOCKED: MODEL        13
DOCKED: USER    Run = 13
DOCKED: USER
DOCKED: USER    Estimated Free Energy of Binding    =  -6.57 kcal/mol  [=(1)+(2)+(3)-(4)]
DOCKED: USER
DOCKED: USER    (1) Final Intermolecular Energy     =  -8.36 kcal/mol
DOCKED: USER        vdW + Hbond + desolv Energy     =  -8.39 kcal/mol
DOCKED: USER        Electrostatic Energy            =  +0.03 kcal/mol
DOCKED: USER        Moving Ligand-Fixed Receptor    =  -8.36 kcal/mol
DOCKED: USER        Moving Ligand-Moving Receptor   =  +0.00 kcal/mol
DOCKED: USER    (2) Final Total Internal Energy     =  -2.23 kcal/mol
DOCKED: USER    (3) Torsional Free Energy           =  +1.79 kcal/mol
DOCKED: USER    (4) Unbound System's Energy         =  -2.23 kcal/mol
DOCKED: USER
DOCKED: USER
DOCKED: REMARK SMILES [H]/N=c1/[nH]c2nc3ccccn3c(=O)c2cc1/C(O)=N\[C@@H](C)c1ccccc1
DOCKED: REMARK SMILES IDX 18 1 17 2 3 3 4 4 16 5 5 6 15 7 6 8 13 9 7 10 12 11 8 12
DOCKED: REMARK SMILES IDX 11 13 9 14 10 15 14 17 2 18 1 19 20 20 21 21 22 22 23 23
DOCKED: REMARK SMILES IDX 24 24 28 25 25 26 27 27 26 28 19 29
DOCKED: REMARK H PARENT 4 16 19 30
DOCKED: USER                              x       y       z     vdW  Elec       q    Type
DOCKED: USER                           _______ _______ _______ _____ _____    ______ ____
DOCKED: ROOT
DOCKED: ATOM      1  C   UNL     1     137.604  79.007 221.911 -0.10 -0.04    +0.218 C  
DOCKED: ENDROOT
DOCKED: BRANCH   1   2
DOCKED: ATOM      2  C   UNL     1     138.449  77.795 221.918 -0.19 -0.02    +0.079 A  
DOCKED: ATOM      3  C   UNL     1     138.015  76.569 222.475 -0.24 -0.03    +0.136 A  
DOCKED: ATOM      4  N   UNL     1     138.803  75.461 222.360 -0.16 +0.08    -0.324 N  
DOCKED: ATOM      5  C   UNL     1     139.699  77.851 221.291 -0.19 -0.01    +0.035 A  
DOCKED: ATOM      6  C   UNL     1     140.002  75.495 221.715 -0.27 -0.03    +0.146 A  
DOCKED: ATOM      7  C   UNL     1     140.480  76.695 221.167 -0.25 -0.03    +0.084 A  
DOCKED: ATOM      8  N   UNL     1     140.735  74.362 221.592 -0.53 +0.03    -0.212 NA 
DOCKED: ATOM      9  C   UNL     1     141.714  76.683 220.494 -0.17 -0.14    +0.267 A  
DOCKED: ATOM     10  C   UNL     1     141.928  74.354 220.943 -0.21 -0.03    +0.142 A  
DOCKED: ATOM     11  N   UNL     1     142.427  75.513 220.386 -0.17 +0.13    -0.267 N  
DOCKED: ATOM     12  C   UNL     1     142.639  73.153 220.844 -0.26 -0.01    +0.048 A  
DOCKED: ATOM     13  C   UNL     1     143.633  75.487 219.727 -0.37 -0.05    +0.096 A  
DOCKED: ATOM     14  C   UNL     1     143.860  73.131 220.176 -0.35 -0.00    +0.005 A  
DOCKED: ATOM     15  C   UNL     1     144.362  74.301 219.615 -0.35 -0.01    +0.019 A  
DOCKED: ATOM     16  H   UNL     1     138.474  74.555 222.767 -0.54 -0.08    +0.170 HD 
DOCKED: ATOM     17  O   UNL     1     142.157  77.754 219.989 -0.22 +0.18    -0.268 OA 
DOCKED: BRANCH   3  18
DOCKED: ATOM     18  N   UNL     1     136.879  76.470 223.099 -0.16 +0.06    -0.284 NA 
DOCKED: ATOM     19  H   UNL     1     136.333  77.289 223.448 +0.05 -0.03    +0.189 HD 
DOCKED: ENDBRANCH   3  18
DOCKED: ENDBRANCH   1   2
DOCKED: BRANCH   1  20
DOCKED: ATOM     20  N   UNL     1     138.118  80.205 221.877 -0.06 +0.04    -0.243 NA 
DOCKED: BRANCH  20  21
DOCKED: ATOM     21  C   UNL     1     138.793  80.886 222.988 -0.25 -0.02    +0.136 C  
DOCKED: ATOM     22  C   UNL     1     138.093  80.529 224.299 -0.37 -0.00    +0.038 C  
DOCKED: BRANCH  21  23
DOCKED: ATOM     23  C   UNL     1     140.259  80.507 223.053 -0.40 +0.00    -0.024 A  
DOCKED: ATOM     24  C   UNL     1     140.688  79.420 223.839 -0.52 -0.00    +0.006 A  
DOCKED: ATOM     25  C   UNL     1     141.206  81.218 222.295 -0.43 -0.00    +0.006 A  
DOCKED: ATOM     26  C   UNL     1     142.035  79.042 223.845 -0.59 -0.00    +0.000 A  
DOCKED: ATOM     27  C   UNL     1     142.550  80.834 222.302 -0.51 -0.00    +0.000 A  
DOCKED: ATOM     28  C   UNL     1     142.964  79.746 223.073 -0.62 -0.00    +0.000 A  
DOCKED: ENDBRANCH  21  23
DOCKED: ENDBRANCH  20  21
DOCKED: ENDBRANCH   1  20
DOCKED: BRANCH   1  29
DOCKED: ATOM     29  O   UNL     1     136.223  78.855 221.972 -0.01 +0.07    -0.493 OA 
DOCKED: ATOM     30  H   UNL     1     135.796  77.937 221.939 +0.05 -0.05    +0.295 HD 
DOCKED: ENDBRANCH   1  29
DOCKED: TORSDOF 6
DOCKED: TER
DOCKED: ENDMDL
________________________________________________________________________________


    FINAL DOCKED STATE:
    ________________________


Run:   14 / 20
Time taken for this run:   0.028s

DOCKED: MODEL        14
DOCKED: USER    Run = 14
DOCKED: USER
DOCKED: USER    Estimated Free Energy of Binding    =  -6.55 kcal/mol  [=(1)+(2)+(3)-(4)]
DOCKED: USER
DOCKED: USER    (1) Final Intermolecular Energy     =  -8.34 kcal/mol
DOCKED: USER        vdW + Hbond + desolv Energy     =  -8.37 kcal/mol
DOCKED: USER        Electrostatic Energy            =  +0.02 kcal/mol
DOCKED: USER        Moving Ligand-Fixed Receptor    =  -8.34 kcal/mol
DOCKED: USER        Moving Ligand-Moving Receptor   =  +0.00 kcal/mol
DOCKED: USER    (2) Final Total Internal Energy     =  -2.23 kcal/mol
DOCKED: USER    (3) Torsional Free Energy           =  +1.79 kcal/mol
DOCKED: USER    (4) Unbound System's Energy         =  -2.23 kcal/mol
DOCKED: USER
DOCKED: USER
DOCKED: REMARK SMILES [H]/N=c1/[nH]c2nc3ccccn3c(=O)c2cc1/C(O)=N\[C@@H](C)c1ccccc1
DOCKED: REMARK SMILES IDX 18 1 17 2 3 3 4 4 16 5 5 6 15 7 6 8 13 9 7 10 12 11 8 12
DOCKED: REMARK SMILES IDX 11 13 9 14 10 15 14 17 2 18 1 19 20 20 21 21 22 22 23 23
DOCKED: REMARK SMILES IDX 24 24 28 25 25 26 27 27 26 28 19 29
DOCKED: REMARK H PARENT 4 16 19 30
DOCKED: USER                              x       y       z     vdW  Elec       q    Type
DOCKED: USER                           _______ _______ _______ _____ _____    ______ ____
DOCKED: ROOT
DOCKED: ATOM      1  C   UNL     1     137.596  79.043 221.927 -0.10 -0.04    +0.218 C  
DOCKED: ENDROOT
DOCKED: BRANCH   1   2
DOCKED: ATOM      2  C   UNL     1     138.434  77.826 221.934 -0.19 -0.02    +0.079 A  
DOCKED: ATOM      3  C   UNL     1     137.995  76.602 222.491 -0.24 -0.03    +0.136 A  
DOCKED: ATOM      4  N   UNL     1     138.777  75.491 222.375 -0.16 +0.08    -0.324 N  
DOCKED: ATOM      5  C   UNL     1     139.685  77.877 221.307 -0.19 -0.01    +0.035 A  
DOCKED: ATOM      6  C   UNL     1     139.976  75.518 221.731 -0.27 -0.03    +0.146 A  
DOCKED: ATOM      7  C   UNL     1     140.460  76.716 221.183 -0.25 -0.03    +0.084 A  
DOCKED: ATOM      8  N   UNL     1     140.704  74.382 221.607 -0.55 +0.03    -0.212 NA 
DOCKED: ATOM      9  C   UNL     1     141.694  76.699 220.510 -0.16 -0.14    +0.267 A  
DOCKED: ATOM     10  C   UNL     1     141.896  74.369 220.959 -0.21 -0.03    +0.142 A  
DOCKED: ATOM     11  N   UNL     1     142.402  75.526 220.402 -0.17 +0.13    -0.267 N  
DOCKED: ATOM     12  C   UNL     1     142.601  73.164 220.859 -0.25 -0.01    +0.048 A  
DOCKED: ATOM     13  C   UNL     1     143.607  75.493 219.742 -0.36 -0.05    +0.096 A  
DOCKED: ATOM     14  C   UNL     1     143.822  73.136 220.192 -0.35 -0.00    +0.005 A  
DOCKED: ATOM     15  C   UNL     1     144.330  74.304 219.630 -0.36 -0.01    +0.019 A  
DOCKED: ATOM     16  H   UNL     1     138.443  74.587 222.782 -0.53 -0.08    +0.170 HD 
DOCKED: ATOM     17  O   UNL     1     142.143  77.767 220.005 -0.22 +0.18    -0.268 OA 
DOCKED: BRANCH   3  18
DOCKED: ATOM     18  N   UNL     1     136.858  76.509 223.115 -0.16 +0.06    -0.284 NA 
DOCKED: ATOM     19  H   UNL     1     136.301  77.332 223.436 +0.05 -0.03    +0.189 HD 
DOCKED: ENDBRANCH   3  18
DOCKED: ENDBRANCH   1   2
DOCKED: BRANCH   1  20
DOCKED: ATOM     20  N   UNL     1     138.116  80.239 221.922 -0.06 +0.04    -0.243 NA 
DOCKED: BRANCH  20  21
DOCKED: ATOM     21  C   UNL     1     138.792  80.890 223.051 -0.26 -0.02    +0.136 C  
DOCKED: ATOM     22  C   UNL     1     138.097  80.493 224.353 -0.36 -0.00    +0.038 C  
DOCKED: BRANCH  21  23
DOCKED: ATOM     23  C   UNL     1     140.260  80.513 223.100 -0.40 +0.00    -0.024 A  
DOCKED: ATOM     24  C   UNL     1     140.697  79.421 223.873 -0.50 -0.00    +0.006 A  
DOCKED: ATOM     25  C   UNL     1     141.198  81.234 222.341 -0.44 -0.00    +0.006 A  
DOCKED: ATOM     26  C   UNL     1     142.045  79.046 223.865 -0.58 -0.00    +0.000 A  
DOCKED: ATOM     27  C   UNL     1     142.543  80.852 222.334 -0.51 -0.00    +0.000 A  
DOCKED: ATOM     28  C   UNL     1     142.965  79.759 223.092 -0.63 -0.00    +0.000 A  
DOCKED: ENDBRANCH  21  23
DOCKED: ENDBRANCH  20  21
DOCKED: ENDBRANCH   1  20
DOCKED: BRANCH   1  29
DOCKED: ATOM     29  O   UNL     1     136.213  78.897 221.957 -0.01 +0.07    -0.493 OA 
DOCKED: ATOM     30  H   UNL     1     135.784  77.979 221.950 +0.05 -0.05    +0.295 HD 
DOCKED: ENDBRANCH   1  29
DOCKED: TORSDOF 6
DOCKED: TER
DOCKED: ENDMDL
________________________________________________________________________________


    FINAL DOCKED STATE:
    ________________________


Run:   15 / 20
Time taken for this run:   0.028s

DOCKED: MODEL        15
DOCKED: USER    Run = 15
DOCKED: USER
DOCKED: USER    Estimated Free Energy of Binding    =  -7.49 kcal/mol  [=(1)+(2)+(3)-(4)]
DOCKED: USER
DOCKED: USER    (1) Final Intermolecular Energy     =  -9.28 kcal/mol
DOCKED: USER        vdW + Hbond + desolv Energy     =  -9.26 kcal/mol
DOCKED: USER        Electrostatic Energy            =  -0.02 kcal/mol
DOCKED: USER        Moving Ligand-Fixed Receptor    =  -9.28 kcal/mol
DOCKED: USER        Moving Ligand-Moving Receptor   =  +0.00 kcal/mol
DOCKED: USER    (2) Final Total Internal Energy     =  -1.47 kcal/mol
DOCKED: USER    (3) Torsional Free Energy           =  +1.79 kcal/mol
DOCKED: USER    (4) Unbound System's Energy         =  -1.47 kcal/mol
DOCKED: USER
DOCKED: USER
DOCKED: REMARK SMILES [H]/N=c1/[nH]c2nc3ccccn3c(=O)c2cc1/C(O)=N\[C@@H](C)c1ccccc1
DOCKED: REMARK SMILES IDX 18 1 17 2 3 3 4 4 16 5 5 6 15 7 6 8 13 9 7 10 12 11 8 12
DOCKED: REMARK SMILES IDX 11 13 9 14 10 15 14 17 2 18 1 19 20 20 21 21 22 22 23 23
DOCKED: REMARK SMILES IDX 24 24 28 25 25 26 27 27 26 28 19 29
DOCKED: REMARK H PARENT 4 16 19 30
DOCKED: USER                              x       y       z     vdW  Elec       q    Type
DOCKED: USER                           _______ _______ _______ _____ _____    ______ ____
DOCKED: ROOT
DOCKED: ATOM      1  C   UNL     1     135.885  69.785 224.592 -0.16 -0.02    +0.218 C  
DOCKED: ENDROOT
DOCKED: BRANCH   1   2
DOCKED: ATOM      2  C   UNL     1     134.970  70.746 225.242 -0.16 -0.01    +0.079 A  
DOCKED: ATOM      3  C   UNL     1     133.996  70.348 226.188 -0.27 -0.01    +0.136 A  
DOCKED: ATOM      4  N   UNL     1     133.252  71.296 226.826 -0.21 +0.03    -0.324 N  
DOCKED: ATOM      5  C   UNL     1     135.122  72.108 224.955 -0.13 -0.00    +0.035 A  
DOCKED: ATOM      6  C   UNL     1     133.419  72.626 226.585 -0.31 -0.00    +0.146 A  
DOCKED: ATOM      7  C   UNL     1     134.359  73.063 225.639 -0.24 -0.00    +0.084 A  
DOCKED: ATOM      8  N   UNL     1     132.684  73.536 227.269 -0.63 +0.01    -0.212 NA 
DOCKED: ATOM      9  C   UNL     1     134.514  74.445 225.433 -0.23 -0.01    +0.267 A  
DOCKED: ATOM     10  C   UNL     1     132.835  74.869 227.066 -0.31 +0.00    +0.142 A  
DOCKED: ATOM     11  N   UNL     1     133.753  75.337 226.148 -0.22 +0.00    -0.267 N  
DOCKED: ATOM     12  C   UNL     1     132.049  75.761 227.805 -0.32 +0.00    +0.048 A  
DOCKED: ATOM     13  C   UNL     1     133.898  76.690 225.960 -0.23 -0.01    +0.096 A  
DOCKED: ATOM     14  C   UNL     1     132.198  77.132 227.610 -0.33 +0.00    +0.005 A  
DOCKED: ATOM     15  C   UNL     1     133.125  77.601 226.685 -0.28 -0.00    +0.019 A  
DOCKED: ATOM     16  H   UNL     1     132.539  70.997 227.531 +0.07 -0.02    +0.170 HD 
DOCKED: ATOM     17  O   UNL     1     135.361  74.857 224.588 -0.26 +0.05    -0.268 OA 
DOCKED: BRANCH   3  18
DOCKED: ATOM     18  N   UNL     1     133.791  69.095 226.466 -0.70 -0.02    -0.284 NA 
DOCKED: ATOM     19  H   UNL     1     134.439  68.324 226.191 +0.08 -0.01    +0.189 HD 
DOCKED: ENDBRANCH   3  18
DOCKED: ENDBRANCH   1   2
DOCKED: BRANCH   1  20
DOCKED: ATOM     20  N   UNL     1     137.117  70.097 224.297 -0.13 +0.03    -0.243 NA 
DOCKED: BRANCH  20  21
DOCKED: ATOM     21  C   UNL     1     138.297  69.253 224.520 -0.28 -0.01    +0.136 C  
DOCKED: ATOM     22  C   UNL     1     139.082  69.127 223.215 -0.22 -0.01    +0.038 C  
DOCKED: BRANCH  21  23
DOCKED: ATOM     23  C   UNL     1     139.179  69.824 225.614 -0.40 +0.00    -0.024 A  
DOCKED: ATOM     24  C   UNL     1     139.961  70.972 225.382 -0.51 -0.00    +0.006 A  
DOCKED: ATOM     25  C   UNL     1     139.195  69.231 226.888 -0.48 -0.00    +0.006 A  
DOCKED: ATOM     26  C   UNL     1     140.725  71.525 226.415 -0.68 -0.00    +0.000 A  
DOCKED: ATOM     27  C   UNL     1     139.959  69.790 227.918 -0.63 -0.00    +0.000 A  
DOCKED: ATOM     28  C   UNL     1     140.720  70.936 227.683 -0.72 -0.00    +0.000 A  
DOCKED: ENDBRANCH  21  23
DOCKED: ENDBRANCH  20  21
DOCKED: ENDBRANCH   1  20
DOCKED: BRANCH   1  29
DOCKED: ATOM     29  O   UNL     1     135.399  68.525 224.261 -0.48 -0.03    -0.493 OA 
DOCKED: ATOM     30  H   UNL     1     134.498  68.207 224.597 +0.09 -0.00    +0.295 HD 
DOCKED: ENDBRANCH   1  29
DOCKED: TORSDOF 6
DOCKED: TER
DOCKED: ENDMDL
________________________________________________________________________________


    FINAL DOCKED STATE:
    ________________________


Run:   16 / 20
Time taken for this run:   0.028s

DOCKED: MODEL        16
DOCKED: USER    Run = 16
DOCKED: USER
DOCKED: USER    Estimated Free Energy of Binding    =  -6.55 kcal/mol  [=(1)+(2)+(3)-(4)]
DOCKED: USER
DOCKED: USER    (1) Final Intermolecular Energy     =  -8.34 kcal/mol
DOCKED: USER        vdW + Hbond + desolv Energy     =  -8.36 kcal/mol
DOCKED: USER        Electrostatic Energy            =  +0.02 kcal/mol
DOCKED: USER        Moving Ligand-Fixed Receptor    =  -8.34 kcal/mol
DOCKED: USER        Moving Ligand-Moving Receptor   =  +0.00 kcal/mol
DOCKED: USER    (2) Final Total Internal Energy     =  -2.23 kcal/mol
DOCKED: USER    (3) Torsional Free Energy           =  +1.79 kcal/mol
DOCKED: USER    (4) Unbound System's Energy         =  -2.23 kcal/mol
DOCKED: USER
DOCKED: USER
DOCKED: REMARK SMILES [H]/N=c1/[nH]c2nc3ccccn3c(=O)c2cc1/C(O)=N\[C@@H](C)c1ccccc1
DOCKED: REMARK SMILES IDX 18 1 17 2 3 3 4 4 16 5 5 6 15 7 6 8 13 9 7 10 12 11 8 12
DOCKED: REMARK SMILES IDX 11 13 9 14 10 15 14 17 2 18 1 19 20 20 21 21 22 22 23 23
DOCKED: REMARK SMILES IDX 24 24 28 25 25 26 27 27 26 28 19 29
DOCKED: REMARK H PARENT 4 16 19 30
DOCKED: USER                              x       y       z     vdW  Elec       q    Type
DOCKED: USER                           _______ _______ _______ _____ _____    ______ ____
DOCKED: ROOT
DOCKED: ATOM      1  C   UNL     1     137.587  79.109 221.898 -0.10 -0.04    +0.218 C  
DOCKED: ENDROOT
DOCKED: BRANCH   1   2
DOCKED: ATOM      2  C   UNL     1     138.437  77.902 221.914 -0.19 -0.02    +0.079 A  
DOCKED: ATOM      3  C   UNL     1     138.011  76.678 222.482 -0.24 -0.03    +0.136 A  
DOCKED: ATOM      4  N   UNL     1     138.805  75.574 222.374 -0.17 +0.08    -0.324 N  
DOCKED: ATOM      5  C   UNL     1     139.687  77.959 221.285 -0.19 -0.01    +0.035 A  
DOCKED: ATOM      6  C   UNL     1     140.003  75.608 221.728 -0.27 -0.03    +0.146 A  
DOCKED: ATOM      7  C   UNL     1     140.473  76.806 221.169 -0.24 -0.03    +0.084 A  
DOCKED: ATOM      8  N   UNL     1     140.742  74.479 221.613 -0.55 +0.03    -0.212 NA 
DOCKED: ATOM      9  C   UNL     1     141.707  76.796 220.495 -0.17 -0.14    +0.267 A  
DOCKED: ATOM     10  C   UNL     1     141.933  74.472 220.962 -0.21 -0.04    +0.142 A  
DOCKED: ATOM     11  N   UNL     1     142.426  75.629 220.395 -0.16 +0.14    -0.267 N  
DOCKED: ATOM     12  C   UNL     1     142.651  73.274 220.872 -0.24 -0.01    +0.048 A  
DOCKED: ATOM     13  C   UNL     1     143.630  75.604 219.734 -0.37 -0.06    +0.096 A  
DOCKED: ATOM     14  C   UNL     1     143.871  73.252 220.202 -0.36 -0.00    +0.005 A  
DOCKED: ATOM     15  C   UNL     1     144.366  74.420 219.630 -0.34 -0.01    +0.019 A  
DOCKED: ATOM     16  H   UNL     1     138.481  74.670 222.789 -0.52 -0.08    +0.170 HD 
DOCKED: ATOM     17  O   UNL     1     142.144  77.864 219.979 -0.22 +0.18    -0.268 OA 
DOCKED: BRANCH   3  18
DOCKED: ATOM     18  N   UNL     1     136.877  76.578 223.108 -0.15 +0.06    -0.284 NA 
DOCKED: ATOM     19  H   UNL     1     136.288  77.397 223.381 +0.05 -0.03    +0.189 HD 
DOCKED: ENDBRANCH   3  18
DOCKED: ENDBRANCH   1   2
DOCKED: BRANCH   1  20
DOCKED: ATOM     20  N   UNL     1     138.094  80.311 221.927 -0.06 +0.04    -0.243 NA 
DOCKED: BRANCH  20  21
DOCKED: ATOM     21  C   UNL     1     138.774  80.932 223.070 -0.26 -0.02    +0.136 C  
DOCKED: ATOM     22  C   UNL     1     138.073  80.517 224.363 -0.37 -0.00    +0.038 C  
DOCKED: BRANCH  21  23
DOCKED: ATOM     23  C   UNL     1     140.238  80.539 223.114 -0.40 +0.00    -0.024 A  
DOCKED: ATOM     24  C   UNL     1     140.662  79.424 223.862 -0.50 -0.00    +0.006 A  
DOCKED: ATOM     25  C   UNL     1     141.186  81.268 222.375 -0.44 -0.00    +0.006 A  
DOCKED: ATOM     26  C   UNL     1     142.005  79.036 223.849 -0.59 -0.00    +0.000 A  
DOCKED: ATOM     27  C   UNL     1     142.528  80.872 222.362 -0.52 -0.00    +0.000 A  
DOCKED: ATOM     28  C   UNL     1     142.936  79.757 223.096 -0.63 -0.00    +0.000 A  
DOCKED: ENDBRANCH  21  23
DOCKED: ENDBRANCH  20  21
DOCKED: ENDBRANCH   1  20
DOCKED: BRANCH   1  29
DOCKED: ATOM     29  O   UNL     1     136.205  78.949 221.882 -0.01 +0.07    -0.493 OA 
DOCKED: ATOM     30  H   UNL     1     135.785  78.028 221.925 +0.05 -0.05    +0.295 HD 
DOCKED: ENDBRANCH   1  29
DOCKED: TORSDOF 6
DOCKED: TER
DOCKED: ENDMDL
________________________________________________________________________________


    FINAL DOCKED STATE:
    ________________________


Run:   17 / 20
Time taken for this run:   0.028s

DOCKED: MODEL        17
DOCKED: USER    Run = 17
DOCKED: USER
DOCKED: USER    Estimated Free Energy of Binding    =  -7.49 kcal/mol  [=(1)+(2)+(3)-(4)]
DOCKED: USER
DOCKED: USER    (1) Final Intermolecular Energy     =  -9.28 kcal/mol
DOCKED: USER        vdW + Hbond + desolv Energy     =  -9.25 kcal/mol
DOCKED: USER        Electrostatic Energy            =  -0.02 kcal/mol
DOCKED: USER        Moving Ligand-Fixed Receptor    =  -9.28 kcal/mol
DOCKED: USER        Moving Ligand-Moving Receptor   =  +0.00 kcal/mol
DOCKED: USER    (2) Final Total Internal Energy     =  -1.49 kcal/mol
DOCKED: USER    (3) Torsional Free Energy           =  +1.79 kcal/mol
DOCKED: USER    (4) Unbound System's Energy         =  -1.49 kcal/mol
DOCKED: USER
DOCKED: USER
DOCKED: REMARK SMILES [H]/N=c1/[nH]c2nc3ccccn3c(=O)c2cc1/C(O)=N\[C@@H](C)c1ccccc1
DOCKED: REMARK SMILES IDX 18 1 17 2 3 3 4 4 16 5 5 6 15 7 6 8 13 9 7 10 12 11 8 12
DOCKED: REMARK SMILES IDX 11 13 9 14 10 15 14 17 2 18 1 19 20 20 21 21 22 22 23 23
DOCKED: REMARK SMILES IDX 24 24 28 25 25 26 27 27 26 28 19 29
DOCKED: REMARK H PARENT 4 16 19 30
DOCKED: USER                              x       y       z     vdW  Elec       q    Type
DOCKED: USER                           _______ _______ _______ _____ _____    ______ ____
DOCKED: ROOT
DOCKED: ATOM      1  C   UNL     1     135.877  69.787 224.586 -0.16 -0.02    +0.218 C  
DOCKED: ENDROOT
DOCKED: BRANCH   1   2
DOCKED: ATOM      2  C   UNL     1     134.959  70.739 225.244 -0.16 -0.01    +0.079 A  
DOCKED: ATOM      3  C   UNL     1     133.989  70.332 226.189 -0.27 -0.01    +0.136 A  
DOCKED: ATOM      4  N   UNL     1     133.241  71.273 226.834 -0.21 +0.03    -0.324 N  
DOCKED: ATOM      5  C   UNL     1     135.104  72.104 224.964 -0.14 -0.00    +0.035 A  
DOCKED: ATOM      6  C   UNL     1     133.403  72.605 226.601 -0.31 -0.00    +0.146 A  
DOCKED: ATOM      7  C   UNL     1     134.339  73.051 225.656 -0.25 -0.00    +0.084 A  
DOCKED: ATOM      8  N   UNL     1     132.664  73.507 227.291 -0.60 +0.01    -0.212 NA 
DOCKED: ATOM      9  C   UNL     1     134.487  74.435 225.457 -0.23 -0.01    +0.267 A  
DOCKED: ATOM     10  C   UNL     1     132.809  74.842 227.096 -0.31 +0.00    +0.142 A  
DOCKED: ATOM     11  N   UNL     1     133.723  75.319 226.180 -0.22 -0.00    -0.267 N  
DOCKED: ATOM     12  C   UNL     1     132.021  75.726 227.842 -0.31 +0.00    +0.048 A  
DOCKED: ATOM     13  C   UNL     1     133.862  76.675 225.999 -0.24 -0.01    +0.096 A  
DOCKED: ATOM     14  C   UNL     1     132.164  77.099 227.655 -0.33 +0.00    +0.005 A  
DOCKED: ATOM     15  C   UNL     1     133.087  77.577 226.731 -0.28 -0.00    +0.019 A  
DOCKED: ATOM     16  H   UNL     1     132.531  70.966 227.538 +0.07 -0.02    +0.170 HD 
DOCKED: ATOM     17  O   UNL     1     135.330  74.856 224.614 -0.26 +0.04    -0.268 OA 
DOCKED: BRANCH   3  18
DOCKED: ATOM     18  N   UNL     1     133.789  69.076 226.460 -0.70 -0.02    -0.284 NA 
DOCKED: ATOM     19  H   UNL     1     134.452  68.312 226.199 +0.08 -0.01    +0.189 HD 
DOCKED: ENDBRANCH   3  18
DOCKED: ENDBRANCH   1   2
DOCKED: BRANCH   1  20
DOCKED: ATOM     20  N   UNL     1     137.101  70.112 224.272 -0.13 +0.03    -0.243 NA 
DOCKED: BRANCH  20  21
DOCKED: ATOM     21  C   UNL     1     138.293  69.281 224.473 -0.27 -0.01    +0.136 C  
DOCKED: ATOM     22  C   UNL     1     139.072  69.189 223.161 -0.22 -0.01    +0.038 C  
DOCKED: BRANCH  21  23
DOCKED: ATOM     23  C   UNL     1     139.174  69.844 225.571 -0.39 +0.00    -0.024 A  
DOCKED: ATOM     24  C   UNL     1     139.947  71.000 225.352 -0.51 -0.00    +0.006 A  
DOCKED: ATOM     25  C   UNL     1     139.198  69.235 226.838 -0.48 -0.00    +0.006 A  
DOCKED: ATOM     26  C   UNL     1     140.710  71.546 226.389 -0.67 -0.00    +0.000 A  
DOCKED: ATOM     27  C   UNL     1     139.960  69.786 227.872 -0.63 -0.00    +0.000 A  
DOCKED: ATOM     28  C   UNL     1     140.713  70.941 227.649 -0.72 -0.00    +0.000 A  
DOCKED: ENDBRANCH  21  23
DOCKED: ENDBRANCH  20  21
DOCKED: ENDBRANCH   1  20
DOCKED: BRANCH   1  29
DOCKED: ATOM     29  O   UNL     1     135.403  68.518 224.269 -0.47 -0.03    -0.493 OA 
DOCKED: ATOM     30  H   UNL     1     134.493  68.205 224.587 +0.09 -0.00    +0.295 HD 
DOCKED: ENDBRANCH   1  29
DOCKED: TORSDOF 6
DOCKED: TER
DOCKED: ENDMDL
________________________________________________________________________________


    FINAL DOCKED STATE:
    ________________________


Run:   18 / 20
Time taken for this run:   0.028s

DOCKED: MODEL        18
DOCKED: USER    Run = 18
DOCKED: USER
DOCKED: USER    Estimated Free Energy of Binding    =  -7.50 kcal/mol  [=(1)+(2)+(3)-(4)]
DOCKED: USER
DOCKED: USER    (1) Final Intermolecular Energy     =  -9.29 kcal/mol
DOCKED: USER        vdW + Hbond + desolv Energy     =  -9.26 kcal/mol
DOCKED: USER        Electrostatic Energy            =  -0.03 kcal/mol
DOCKED: USER        Moving Ligand-Fixed Receptor    =  -9.29 kcal/mol
DOCKED: USER        Moving Ligand-Moving Receptor   =  +0.00 kcal/mol
DOCKED: USER    (2) Final Total Internal Energy     =  -1.46 kcal/mol
DOCKED: USER    (3) Torsional Free Energy           =  +1.79 kcal/mol
DOCKED: USER    (4) Unbound System's Energy         =  -1.46 kcal/mol
DOCKED: USER
DOCKED: USER
DOCKED: REMARK SMILES [H]/N=c1/[nH]c2nc3ccccn3c(=O)c2cc1/C(O)=N\[C@@H](C)c1ccccc1
DOCKED: REMARK SMILES IDX 18 1 17 2 3 3 4 4 16 5 5 6 15 7 6 8 13 9 7 10 12 11 8 12
DOCKED: REMARK SMILES IDX 11 13 9 14 10 15 14 17 2 18 1 19 20 20 21 21 22 22 23 23
DOCKED: REMARK SMILES IDX 24 24 28 25 25 26 27 27 26 28 19 29
DOCKED: REMARK H PARENT 4 16 19 30
DOCKED: USER                              x       y       z     vdW  Elec       q    Type
DOCKED: USER                           _______ _______ _______ _____ _____    ______ ____
DOCKED: ROOT
DOCKED: ATOM      1  C   UNL     1     135.834  69.744 224.598 -0.16 -0.02    +0.218 C  
DOCKED: ENDROOT
DOCKED: BRANCH   1   2
DOCKED: ATOM      2  C   UNL     1     134.925  70.710 225.250 -0.17 -0.01    +0.079 A  
DOCKED: ATOM      3  C   UNL     1     133.943  70.317 226.189 -0.27 -0.01    +0.136 A  
DOCKED: ATOM      4  N   UNL     1     133.204  71.268 226.829 -0.20 +0.03    -0.324 N  
DOCKED: ATOM      5  C   UNL     1     135.091  72.072 224.971 -0.14 -0.00    +0.035 A  
DOCKED: ATOM      6  C   UNL     1     133.386  72.597 226.596 -0.31 -0.01    +0.146 A  
DOCKED: ATOM      7  C   UNL     1     134.334  73.030 225.657 -0.25 -0.00    +0.084 A  
DOCKED: ATOM      8  N   UNL     1     132.655  73.510 227.281 -0.60 +0.01    -0.212 NA 
DOCKED: ATOM      9  C   UNL     1     134.503  74.412 225.459 -0.23 -0.01    +0.267 A  
DOCKED: ATOM     10  C   UNL     1     132.820  74.843 227.087 -0.31 +0.00    +0.142 A  
DOCKED: ATOM     11  N   UNL     1     133.746  75.307 226.176 -0.22 -0.00    -0.267 N  
DOCKED: ATOM     12  C   UNL     1     132.039  75.738 227.826 -0.31 +0.00    +0.048 A  
DOCKED: ATOM     13  C   UNL     1     133.905  76.660 225.996 -0.23 -0.01    +0.096 A  
DOCKED: ATOM     14  C   UNL     1     132.202  77.108 227.641 -0.33 +0.00    +0.005 A  
DOCKED: ATOM     15  C   UNL     1     133.138  77.574 226.722 -0.28 -0.00    +0.019 A  
DOCKED: ATOM     16  H   UNL     1     132.485  70.972 227.528 +0.07 -0.02    +0.170 HD 
DOCKED: ATOM     17  O   UNL     1     135.357  74.821 224.621 -0.26 +0.05    -0.268 OA 
DOCKED: BRANCH   3  18
DOCKED: ATOM     18  N   UNL     1     133.724  69.064 226.459 -0.70 -0.02    -0.284 NA 
DOCKED: ATOM     19  H   UNL     1     134.351  68.285 226.156 +0.07 -0.01    +0.189 HD 
DOCKED: ENDBRANCH   3  18
DOCKED: ENDBRANCH   1   2
DOCKED: BRANCH   1  20
DOCKED: ATOM     20  N   UNL     1     137.077  70.038 224.333 -0.13 +0.03    -0.243 NA 
DOCKED: BRANCH  20  21
DOCKED: ATOM     21  C   UNL     1     138.242  69.194 224.621 -0.28 -0.01    +0.136 C  
DOCKED: ATOM     22  C   UNL     1     139.038  68.974 223.335 -0.23 -0.01    +0.038 C  
DOCKED: BRANCH  21  23
DOCKED: ATOM     23  C   UNL     1     139.122  69.822 225.685 -0.38 +0.00    -0.024 A  
DOCKED: ATOM     24  C   UNL     1     139.195  69.268 226.978 -0.48 -0.00    +0.006 A  
DOCKED: ATOM     25  C   UNL     1     139.905  70.948 225.378 -0.50 -0.00    +0.006 A  
DOCKED: ATOM     26  C   UNL     1     140.054  69.819 227.934 -0.63 -0.00    +0.000 A  
DOCKED: ATOM     27  C   UNL     1     140.765  71.493 226.337 -0.67 -0.00    +0.000 A  
DOCKED: ATOM     28  C   UNL     1     140.841  70.928 227.611 -0.71 -0.00    +0.000 A  
DOCKED: ENDBRANCH  21  23
DOCKED: ENDBRANCH  20  21
DOCKED: ENDBRANCH   1  20
DOCKED: BRANCH   1  29
DOCKED: ATOM     29  O   UNL     1     135.331  68.500 224.234 -0.49 -0.02    -0.493 OA 
DOCKED: ATOM     30  H   UNL     1     134.437  68.175 224.583 +0.09 -0.00    +0.295 HD 
DOCKED: ENDBRANCH   1  29
DOCKED: TORSDOF 6
DOCKED: TER
DOCKED: ENDMDL
________________________________________________________________________________


    FINAL DOCKED STATE:
    ________________________


Run:   19 / 20
Time taken for this run:   0.028s

DOCKED: MODEL        19
DOCKED: USER    Run = 19
DOCKED: USER
DOCKED: USER    Estimated Free Energy of Binding    =  -7.51 kcal/mol  [=(1)+(2)+(3)-(4)]
DOCKED: USER
DOCKED: USER    (1) Final Intermolecular Energy     =  -9.30 kcal/mol
DOCKED: USER        vdW + Hbond + desolv Energy     =  -9.28 kcal/mol
DOCKED: USER        Electrostatic Energy            =  -0.02 kcal/mol
DOCKED: USER        Moving Ligand-Fixed Receptor    =  -9.30 kcal/mol
DOCKED: USER        Moving Ligand-Moving Receptor   =  +0.00 kcal/mol
DOCKED: USER    (2) Final Total Internal Energy     =  -1.45 kcal/mol
DOCKED: USER    (3) Torsional Free Energy           =  +1.79 kcal/mol
DOCKED: USER    (4) Unbound System's Energy         =  -1.45 kcal/mol
DOCKED: USER
DOCKED: USER
DOCKED: REMARK SMILES [H]/N=c1/[nH]c2nc3ccccn3c(=O)c2cc1/C(O)=N\[C@@H](C)c1ccccc1
DOCKED: REMARK SMILES IDX 18 1 17 2 3 3 4 4 16 5 5 6 15 7 6 8 13 9 7 10 12 11 8 12
DOCKED: REMARK SMILES IDX 11 13 9 14 10 15 14 17 2 18 1 19 20 20 21 21 22 22 23 23
DOCKED: REMARK SMILES IDX 24 24 28 25 25 26 27 27 26 28 19 29
DOCKED: REMARK H PARENT 4 16 19 30
DOCKED: USER                              x       y       z     vdW  Elec       q    Type
DOCKED: USER                           _______ _______ _______ _____ _____    ______ ____
DOCKED: ROOT
DOCKED: ATOM      1  C   UNL     1     135.829  69.792 224.606 -0.16 -0.02    +0.218 C  
DOCKED: ENDROOT
DOCKED: BRANCH   1   2
DOCKED: ATOM      2  C   UNL     1     134.922  70.760 225.256 -0.17 -0.01    +0.079 A  
DOCKED: ATOM      3  C   UNL     1     133.933  70.368 226.189 -0.27 -0.01    +0.136 A  
DOCKED: ATOM      4  N   UNL     1     133.196  71.322 226.829 -0.20 +0.03    -0.324 N  
DOCKED: ATOM      5  C   UNL     1     135.097  72.122 224.983 -0.13 -0.00    +0.035 A  
DOCKED: ATOM      6  C   UNL     1     133.386  72.651 226.602 -0.31 -0.00    +0.146 A  
DOCKED: ATOM      7  C   UNL     1     134.342  73.082 225.669 -0.25 -0.00    +0.084 A  
DOCKED: ATOM      8  N   UNL     1     132.657  73.565 227.286 -0.61 +0.01    -0.212 NA 
DOCKED: ATOM      9  C   UNL     1     134.520  74.463 225.477 -0.23 -0.01    +0.267 A  
DOCKED: ATOM     10  C   UNL     1     132.830  74.898 227.097 -0.31 +0.00    +0.142 A  
DOCKED: ATOM     11  N   UNL     1     133.764  75.360 226.193 -0.22 -0.00    -0.267 N  
DOCKED: ATOM     12  C   UNL     1     132.051  75.795 227.837 -0.31 +0.00    +0.048 A  
DOCKED: ATOM     13  C   UNL     1     133.932  76.713 226.019 -0.22 -0.01    +0.096 A  
DOCKED: ATOM     14  C   UNL     1     132.223  77.165 227.657 -0.33 +0.00    +0.005 A  
DOCKED: ATOM     15  C   UNL     1     133.166  77.628 226.744 -0.28 -0.00    +0.019 A  
DOCKED: ATOM     16  H   UNL     1     132.472  71.027 227.523 +0.06 -0.02    +0.170 HD 
DOCKED: ATOM     17  O   UNL     1     135.381  74.870 224.645 -0.27 +0.05    -0.268 OA 
DOCKED: BRANCH   3  18
DOCKED: ATOM     18  N   UNL     1     133.705  69.116 226.453 -0.69 -0.02    -0.284 NA 
DOCKED: ATOM     19  H   UNL     1     134.328  68.335 226.148 +0.07 -0.01    +0.189 HD 
DOCKED: ENDBRANCH   3  18
DOCKED: ENDBRANCH   1   2
DOCKED: BRANCH   1  20
DOCKED: ATOM     20  N   UNL     1     137.075  70.078 224.351 -0.13 +0.03    -0.243 NA 
DOCKED: BRANCH  20  21
DOCKED: ATOM     21  C   UNL     1     138.229  69.205 224.597 -0.28 -0.01    +0.136 C  
DOCKED: ATOM     22  C   UNL     1     138.963  68.953 223.281 -0.23 -0.01    +0.038 C  
DOCKED: BRANCH  21  23
DOCKED: ATOM     23  C   UNL     1     139.169  69.816 225.618 -0.40 +0.00    -0.024 A  
DOCKED: ATOM     24  C   UNL     1     139.940  70.950 225.298 -0.50 -0.00    +0.006 A  
DOCKED: ATOM     25  C   UNL     1     139.253  69.275 226.913 -0.49 -0.00    +0.006 A  
DOCKED: ATOM     26  C   UNL     1     140.760  71.541 226.264 -0.66 -0.00    +0.000 A  
DOCKED: ATOM     27  C   UNL     1     140.072  69.872 227.876 -0.63 -0.00    +0.000 A  
DOCKED: ATOM     28  C   UNL     1     140.822  71.005 227.553 -0.72 -0.00    +0.000 A  
DOCKED: ENDBRANCH  21  23
DOCKED: ENDBRANCH  20  21
DOCKED: ENDBRANCH   1  20
DOCKED: BRANCH   1  29
DOCKED: ATOM     29  O   UNL     1     135.319  68.552 224.232 -0.49 -0.02    -0.493 OA 
DOCKED: ATOM     30  H   UNL     1     134.421  68.231 224.573 +0.09 -0.00    +0.295 HD 
DOCKED: ENDBRANCH   1  29
DOCKED: TORSDOF 6
DOCKED: TER
DOCKED: ENDMDL
________________________________________________________________________________


    FINAL DOCKED STATE:
    ________________________


Run:   20 / 20
Time taken for this run:   0.028s

DOCKED: MODEL        20
DOCKED: USER    Run = 20
DOCKED: USER
DOCKED: USER    Estimated Free Energy of Binding    =  -6.57 kcal/mol  [=(1)+(2)+(3)-(4)]
DOCKED: USER
DOCKED: USER    (1) Final Intermolecular Energy     =  -8.36 kcal/mol
DOCKED: USER        vdW + Hbond + desolv Energy     =  -8.38 kcal/mol
DOCKED: USER        Electrostatic Energy            =  +0.02 kcal/mol
DOCKED: USER        Moving Ligand-Fixed Receptor    =  -8.36 kcal/mol
DOCKED: USER        Moving Ligand-Moving Receptor   =  +0.00 kcal/mol
DOCKED: USER    (2) Final Total Internal Energy     =  -2.23 kcal/mol
DOCKED: USER    (3) Torsional Free Energy           =  +1.79 kcal/mol
DOCKED: USER    (4) Unbound System's Energy         =  -2.23 kcal/mol
DOCKED: USER
DOCKED: USER
DOCKED: REMARK SMILES [H]/N=c1/[nH]c2nc3ccccn3c(=O)c2cc1/C(O)=N\[C@@H](C)c1ccccc1
DOCKED: REMARK SMILES IDX 18 1 17 2 3 3 4 4 16 5 5 6 15 7 6 8 13 9 7 10 12 11 8 12
DOCKED: REMARK SMILES IDX 11 13 9 14 10 15 14 17 2 18 1 19 20 20 21 21 22 22 23 23
DOCKED: REMARK SMILES IDX 24 24 28 25 25 26 27 27 26 28 19 29
DOCKED: REMARK H PARENT 4 16 19 30
DOCKED: USER                              x       y       z     vdW  Elec       q    Type
DOCKED: USER                           _______ _______ _______ _____ _____    ______ ____
DOCKED: ROOT
DOCKED: ATOM      1  C   UNL     1     137.585  79.008 221.932 -0.10 -0.04    +0.218 C  
DOCKED: ENDROOT
DOCKED: BRANCH   1   2
DOCKED: ATOM      2  C   UNL     1     138.435  77.800 221.936 -0.19 -0.02    +0.079 A  
DOCKED: ATOM      3  C   UNL     1     138.010  76.572 222.495 -0.24 -0.03    +0.136 A  
DOCKED: ATOM      4  N   UNL     1     138.802  75.468 222.377 -0.16 +0.08    -0.324 N  
DOCKED: ATOM      5  C   UNL     1     139.683  77.862 221.304 -0.19 -0.01    +0.035 A  
DOCKED: ATOM      6  C   UNL     1     139.999  75.507 221.728 -0.27 -0.03    +0.146 A  
DOCKED: ATOM      7  C   UNL     1     140.468  76.709 221.178 -0.25 -0.03    +0.084 A  
DOCKED: ATOM      8  N   UNL     1     140.737  74.378 221.602 -0.54 +0.03    -0.212 NA 
DOCKED: ATOM      9  C   UNL     1     141.700  76.704 220.500 -0.16 -0.14    +0.267 A  
DOCKED: ATOM     10  C   UNL     1     141.927  74.376 220.948 -0.21 -0.03    +0.142 A  
DOCKED: ATOM     11  N   UNL     1     142.419  75.537 220.389 -0.16 +0.13    -0.267 N  
DOCKED: ATOM     12  C   UNL     1     142.643  73.178 220.847 -0.26 -0.01    +0.048 A  
DOCKED: ATOM     13  C   UNL     1     143.622  75.517 219.725 -0.37 -0.05    +0.096 A  
DOCKED: ATOM     14  C   UNL     1     143.862  73.162 220.174 -0.35 -0.00    +0.005 A  
DOCKED: ATOM     15  C   UNL     1     144.356  74.334 219.611 -0.35 -0.01    +0.019 A  
DOCKED: ATOM     16  H   UNL     1     138.479  74.561 222.785 -0.54 -0.08    +0.170 HD 
DOCKED: ATOM     17  O   UNL     1     142.137  77.776 219.993 -0.22 +0.18    -0.268 OA 
DOCKED: BRANCH   3  18
DOCKED: ATOM     18  N   UNL     1     136.877  76.467 223.124 -0.16 +0.06    -0.284 NA 
DOCKED: ATOM     19  H   UNL     1     136.331  77.284 223.479 +0.05 -0.03    +0.189 HD 
DOCKED: ENDBRANCH   3  18
DOCKED: ENDBRANCH   1   2
DOCKED: BRANCH   1  20
DOCKED: ATOM     20  N   UNL     1     138.093  80.209 221.891 -0.06 +0.04    -0.243 NA 
DOCKED: BRANCH  20  21
DOCKED: ATOM     21  C   UNL     1     138.757  80.902 223.001 -0.25 -0.02    +0.136 C  
DOCKED: ATOM     22  C   UNL     1     138.058  80.545 224.312 -0.37 -0.00    +0.038 C  
DOCKED: BRANCH  21  23
DOCKED: ATOM     23  C   UNL     1     140.228  80.538 223.071 -0.40 +0.00    -0.024 A  
DOCKED: ATOM     24  C   UNL     1     140.664  79.450 223.850 -0.51 -0.00    +0.006 A  
DOCKED: ATOM     25  C   UNL     1     141.171  81.268 222.325 -0.43 -0.00    +0.006 A  
DOCKED: ATOM     26  C   UNL     1     142.015  79.087 223.861 -0.59 -0.00    +0.000 A  
DOCKED: ATOM     27  C   UNL     1     142.519  80.898 222.337 -0.51 -0.00    +0.000 A  
DOCKED: ATOM     28  C   UNL     1     142.940  79.808 223.101 -0.64 -0.00    +0.000 A  
DOCKED: ENDBRANCH  21  23
DOCKED: ENDBRANCH  20  21
DOCKED: ENDBRANCH   1  20
DOCKED: BRANCH   1  29
DOCKED: ATOM     29  O   UNL     1     136.205  78.850 222.005 -0.01 +0.07    -0.493 OA 
DOCKED: ATOM     30  H   UNL     1     135.781  77.930 221.966 +0.05 -0.05    +0.295 HD 
DOCKED: ENDBRANCH   1  29
DOCKED: TORSDOF 6
DOCKED: TER
DOCKED: ENDMDL
________________________________________________________________________________


    CLUSTERING HISTOGRAM
    ____________________


________________________________________________________________________________
     |           |     |           |     |
Clus | Lowest    | Run | Mean      | Num | Histogram
-ter | Binding   |     | Binding   | in  |
Rank | Energy    |     | Energy    | Clus|    5    10   15   20   25   30   35
_____|___________|_____|___________|_____|____:____|____:____|____:____|____:___
   1 |     -7.51 |  19 |     -7.48 |   7 |#######
   2 |     -7.12 |   8 |     -7.05 |   2 |##
   3 |     -6.58 |  11 |     -6.56 |  11 |###########
_____|___________|_____|___________|_____|______________________________________


    RMSD TABLE
    __________


_______________________________________________________________________
     |      |      |           |         |                 |
Rank | Sub- | Run  | Binding   | Cluster | Reference       | Grep
     | Rank |      | Energy    | RMSD    | RMSD            | Pattern
_____|______|______|___________|_________|_________________|___________
   1      1     19       -7.51      0.00    269.71           RANKING
   1      2     18       -7.50      0.06    269.71           RANKING
   1      3      1       -7.50      0.09    269.71           RANKING
   1      4     15       -7.49      0.09    269.71           RANKING
   1      5     17       -7.49      0.10    269.70           RANKING
   1      6     12       -7.46      0.16    269.67           RANKING
   1      7      3       -7.38      0.19    269.69           RANKING
   2      1      8       -7.12      0.00    269.65           RANKING
   2      2      5       -6.99      0.24    269.66           RANKING
   3      1     11       -6.58      0.00    270.25           RANKING
   3      2      4       -6.58      0.05    270.28           RANKING
   3      3     13       -6.57      0.05    270.26           RANKING
   3      4     20       -6.57      0.06    270.27           RANKING
   3      5      2       -6.56      0.03    270.26           RANKING
   3      6      7       -6.56      0.13    270.29           RANKING
   3      7      6       -6.56      0.07    270.24           RANKING
   3      8      9       -6.56      0.03    270.25           RANKING
   3      9     10       -6.55      0.06    270.24           RANKING
   3     10     14       -6.55      0.07    270.27           RANKING
   3     11     16       -6.55      0.15    270.29           RANKING

Run time 0.544 sec
Idle time 0.000 sec
