AutoDock-GPU version: v1.6

**********************************************************
**    AutoDock-GPU AUTODOCKTOOLS-COMPATIBLE DLG FILE    **
**********************************************************


    DOCKING PARAMETERS
    ________________________


Ligand file:                               /home/a/REINVENT4/ReinventStudies/scoringData/graph-dock/graph-DockGPU/node-autodockgpu/inputs/QFPZKQQOUZJSQV-AZXADDSMNA-N.pdbqt
Grid fld file:                             /home/a/REINVENT4/ReinventStudies/mols/Rad51/maps/rad51_receptor.maps.fld

Random seed:                               42
Number of runs:                            20
Number of energy evaluations:              2542121
Number of generations:                     42000
Size of population:                        150
Rate of crossover:                         80.000000%
Tournament selection probability limit:    60.000000%
Rate of mutation:                          2.000000%
Maximal allowed delta movement:            +/- 6.000000A
Maximal allowed delta angle:               +/- 90.000000

Rate of local search:                      100.000000%
Maximal number of local search iterations: 300
Rho lower bound:                           0.010000
Spread of local search delta movement:     2.000000A
Spread of local search delta angle:        74.999999
Limit of consecutive successes/failures:   4

Handle symmetry during clustering:         YES
RMSD tolerance:                            2.000000A

Program call in command line was:          /home/a/REINVENT4/ReinventStudies/adgpu-v1.6_linux_x64_cuda12_128wi --filelist batch.txt --heuristics 1 --nrun 20 --psize 150 --lsit 300 --seed 42 --heurmax 12000000 


    GRID PARAMETERS
    ________________________


Receptor name:                             rad51_receptor
Number of grid points (x, y, z):           53, 53, 53
Grid center (x, y, z):                     139.950000, 75.640000, 221.970000A
Grid size (x, y, z):                       19.500000, 19.500000, 19.500000A
Grid spacing:                              0.375000A


    LIGAND PARAMETERS
    ________________________


Ligand name:                               /home/a/REINVENT4/ReinventStudies/scoringData/graph-dock/graph-DockGPU/node-autodockgpu/inputs/QFPZKQQOUZJSQV-AZXADDSMNA-N
Number of atoms:                           25
Number of rotatable bonds:                 10
Number of atom types:                      7


    DUMMY DATA (only for ADT-compatibility)
    ________________________


DPF> outlev 1
DPF> ga_run 20
DPF> fld /home/a/REINVENT4/ReinventStudies/mols/Rad51/maps/rad51_receptor.maps.fld
DPF> move /home/a/REINVENT4/ReinventStudies/scoringData/graph-dock/graph-DockGPU/node-autodockgpu/inputs/QFPZKQQOUZJSQV-AZXADDSMNA-N.pdbqt


    COUNTER STATES
    ________________________


Number of energy evaluations performed:    2565635
Number of generations used:                115


    INPUT LIGAND PDBQT FILE:
    ________________________


INPUT-LIGAND-PDBQT: REMARK SMILES O/C(=C/CCOc1ccc(Cl)cc1Cl)[N-]/N=C/c1cccnc1F
INPUT-LIGAND-PDBQT: REMARK SMILES IDX 2 1 1 2 15 4 16 5 17 6 18 7 23 8 19 9 22 10 20 11 21 12
INPUT-LIGAND-PDBQT: REMARK SMILES IDX 24 13 3 14 4 15 5 16 6 17 7 18 8 19 13 20 9 21 12 22 10 23
INPUT-LIGAND-PDBQT: REMARK SMILES IDX 14 24 11 25
INPUT-LIGAND-PDBQT: REMARK H PARENT 1 3
INPUT-LIGAND-PDBQT: ROOT
INPUT-LIGAND-PDBQT: ATOM      1  C   UNL     1      -1.367  -0.627   1.677  1.00  0.00     0.023 C 
INPUT-LIGAND-PDBQT: ENDROOT
INPUT-LIGAND-PDBQT: BRANCH   1   2
INPUT-LIGAND-PDBQT: ATOM      2  O   UNL     1      -2.369  -0.906   2.608  1.00  0.00    -0.530 OA
INPUT-LIGAND-PDBQT: ATOM      3  H   UNL     1      -2.512  -0.332   3.431  1.00  0.00     0.290 HD
INPUT-LIGAND-PDBQT: ENDBRANCH   1   2
INPUT-LIGAND-PDBQT: BRANCH   1   4
INPUT-LIGAND-PDBQT: ATOM      4  N   UNL     1      -1.219  -1.474   0.537  1.00  0.00    -0.546 NA
INPUT-LIGAND-PDBQT: BRANCH   4   5
INPUT-LIGAND-PDBQT: ATOM      5  N   UNL     1      -2.059  -2.578   0.349  1.00  0.00    -0.372 NA
INPUT-LIGAND-PDBQT: BRANCH   5   6
INPUT-LIGAND-PDBQT: ATOM      6  C   UNL     1      -1.920  -3.345  -0.684  1.00  0.00     0.099 C 
INPUT-LIGAND-PDBQT: BRANCH   6   7
INPUT-LIGAND-PDBQT: ATOM      7  C   UNL     1      -2.806  -4.510  -0.905  1.00  0.00     0.046 A 
INPUT-LIGAND-PDBQT: ATOM      8  C   UNL     1      -3.813  -4.884   0.009  1.00  0.00     0.221 A 
INPUT-LIGAND-PDBQT: ATOM      9  C   UNL     1      -2.646  -5.275  -2.070  1.00  0.00     0.016 A 
INPUT-LIGAND-PDBQT: ATOM     10  N   UNL     1      -4.603  -5.960  -0.251  1.00  0.00    -0.228 NA
INPUT-LIGAND-PDBQT: ATOM     11  C   UNL     1      -3.472  -6.374  -2.308  1.00  0.00     0.021 A 
INPUT-LIGAND-PDBQT: ATOM     12  C   UNL     1      -4.456  -6.704  -1.378  1.00  0.00     0.114 A 
INPUT-LIGAND-PDBQT: ATOM     13  F   UNL     1      -4.014  -4.190   1.158  1.00  0.00    -0.184 F 
INPUT-LIGAND-PDBQT: ENDBRANCH   6   7
INPUT-LIGAND-PDBQT: ENDBRANCH   5   6
INPUT-LIGAND-PDBQT: ENDBRANCH   4   5
INPUT-LIGAND-PDBQT: ENDBRANCH   1   4
INPUT-LIGAND-PDBQT: BRANCH   1  14
INPUT-LIGAND-PDBQT: ATOM     14  C   UNL     1      -0.560   0.428   1.852  1.00  0.00    -0.001 C 
INPUT-LIGAND-PDBQT: BRANCH  14  15
INPUT-LIGAND-PDBQT: ATOM     15  C   UNL     1       0.536   0.795   0.891  1.00  0.00     0.071 C 
INPUT-LIGAND-PDBQT: BRANCH  15  16
INPUT-LIGAND-PDBQT: ATOM     16  C   UNL     1       1.749  -0.128   1.054  1.00  0.00     0.234 C 
INPUT-LIGAND-PDBQT: BRANCH  16  17
INPUT-LIGAND-PDBQT: ATOM     17  O   UNL     1       2.787   0.241   0.146  1.00  0.00    -0.492 OA
INPUT-LIGAND-PDBQT: BRANCH  17  18
INPUT-LIGAND-PDBQT: ATOM     18  C   UNL     1       3.648   1.343   0.287  1.00  0.00     0.137 A 
INPUT-LIGAND-PDBQT: ATOM     19  C   UNL     1       3.648   2.162   1.434  1.00  0.00     0.049 A 
INPUT-LIGAND-PDBQT: ATOM     20  C   UNL     1       4.547   1.628  -0.755  1.00  0.00     0.084 A 
INPUT-LIGAND-PDBQT: ATOM     21  C   UNL     1       4.529   3.244   1.529  1.00  0.00     0.024 A 
INPUT-LIGAND-PDBQT: ATOM     22  C   UNL     1       5.425   2.713  -0.653  1.00  0.00     0.045 A 
INPUT-LIGAND-PDBQT: ATOM     23  C   UNL     1       5.417   3.521   0.487  1.00  0.00     0.042 A 
INPUT-LIGAND-PDBQT: ATOM     24  Cl  UNL     1       4.583   0.629  -2.200  1.00  0.00    -0.080 Cl
INPUT-LIGAND-PDBQT: ATOM     25  Cl  UNL     1       6.522   4.877   0.611  1.00  0.00    -0.084 Cl
INPUT-LIGAND-PDBQT: ENDBRANCH  17  18
INPUT-LIGAND-PDBQT: ENDBRANCH  16  17
INPUT-LIGAND-PDBQT: ENDBRANCH  15  16
INPUT-LIGAND-PDBQT: ENDBRANCH  14  15
INPUT-LIGAND-PDBQT: ENDBRANCH   1  14
INPUT-LIGAND-PDBQT: TORSDOF 10


    FINAL DOCKED STATE:
    ________________________


Run:   1 / 20
Time taken for this run:   0.094s

DOCKED: MODEL        1
DOCKED: USER    Run = 1
DOCKED: USER
DOCKED: USER    Estimated Free Energy of Binding    =  -6.76 kcal/mol  [=(1)+(2)+(3)-(4)]
DOCKED: USER
DOCKED: USER    (1) Final Intermolecular Energy     =  -9.74 kcal/mol
DOCKED: USER        vdW + Hbond + desolv Energy     =  -9.67 kcal/mol
DOCKED: USER        Electrostatic Energy            =  -0.08 kcal/mol
DOCKED: USER        Moving Ligand-Fixed Receptor    =  -9.74 kcal/mol
DOCKED: USER        Moving Ligand-Moving Receptor   =  +0.00 kcal/mol
DOCKED: USER    (2) Final Total Internal Energy     =  -0.70 kcal/mol
DOCKED: USER    (3) Torsional Free Energy           =  +2.98 kcal/mol
DOCKED: USER    (4) Unbound System's Energy         =  -0.70 kcal/mol
DOCKED: USER
DOCKED: USER
DOCKED: REMARK SMILES O/C(=C/CCOc1ccc(Cl)cc1Cl)[N-]/N=C/c1cccnc1F
DOCKED: REMARK SMILES IDX 2 1 1 2 15 4 16 5 17 6 18 7 23 8 19 9 22 10 20 11 21 12
DOCKED: REMARK SMILES IDX 24 13 3 14 4 15 5 16 6 17 7 18 8 19 13 20 9 21 12 22 10 23
DOCKED: REMARK SMILES IDX 14 24 11 25
DOCKED: REMARK H PARENT 1 3
DOCKED: USER                              x       y       z     vdW  Elec       q    Type
DOCKED: USER                           _______ _______ _______ _____ _____    ______ ____
DOCKED: ROOT
DOCKED: ATOM      1  C   UNL     1     140.756  73.119 221.952 -0.28 -0.00    +0.023 C  
DOCKED: ENDROOT
DOCKED: BRANCH   1   2
DOCKED: ATOM      2  O   UNL     1     139.807  74.060 222.356 -0.71 +0.04    -0.530 OA 
DOCKED: ATOM      3  H   UNL     1     139.093  73.842 223.041 -0.48 -0.14    +0.290 HD 
DOCKED: ENDBRANCH   1   2
DOCKED: BRANCH   1   4
DOCKED: ATOM      4  N   UNL     1     140.729  71.811 222.525 -0.08 +0.05    -0.546 NA 
DOCKED: BRANCH   4   5
DOCKED: ATOM      5  N   UNL     1     139.814  71.488 223.534 -0.18 +0.07    -0.372 NA 
DOCKED: BRANCH   5   6
DOCKED: ATOM      6  C   UNL     1     140.217  71.271 224.745 -0.42 -0.02    +0.099 C  
DOCKED: BRANCH   6   7
DOCKED: ATOM      7  C   UNL     1     140.153  69.921 225.348 -0.42 -0.01    +0.046 A  
DOCKED: ATOM      8  C   UNL     1     139.208  68.953 224.949 -0.27 -0.03    +0.221 A  
DOCKED: ATOM      9  C   UNL     1     141.069  69.582 226.356 -0.53 -0.00    +0.016 A  
DOCKED: ATOM     10  N   UNL     1     139.202  67.725 225.534 -0.83 +0.00    -0.228 NA 
DOCKED: ATOM     11  C   UNL     1     141.037  68.314 226.937 -0.63 -0.01    +0.021 A  
DOCKED: ATOM     12  C   UNL     1     140.087  67.389 226.508 -0.57 -0.02    +0.114 A  
DOCKED: ATOM     13  F   UNL     1     138.291  69.220 223.985 -0.07 +0.02    -0.184 F  
DOCKED: ENDBRANCH   6   7
DOCKED: ENDBRANCH   5   6
DOCKED: ENDBRANCH   4   5
DOCKED: ENDBRANCH   1   4
DOCKED: BRANCH   1  14
DOCKED: ATOM     14  C   UNL     1     141.677  73.442 221.034 -0.26 +0.00    -0.001 C  
DOCKED: BRANCH  14  15
DOCKED: ATOM     15  C   UNL     1     142.174  74.845 220.824 -0.26 -0.02    +0.071 C  
DOCKED: BRANCH  15  16
DOCKED: ATOM     16  C   UNL     1     141.309  75.594 219.804 -0.12 -0.08    +0.234 C  
DOCKED: BRANCH  16  17
DOCKED: ATOM     17  O   UNL     1     140.536  76.608 220.447 -0.02 +0.17    -0.492 OA 
DOCKED: BRANCH  17  18
DOCKED: ATOM     18  C   UNL     1     141.038  77.603 221.303 -0.27 -0.06    +0.137 A  
DOCKED: ATOM     19  C   UNL     1     140.973  77.497 222.707 -0.42 -0.02    +0.049 A  
DOCKED: ATOM     20  C   UNL     1     141.633  78.740 220.732 -0.28 -0.05    +0.084 A  
DOCKED: ATOM     21  C   UNL     1     141.492  78.512 223.517 -0.55 -0.01    +0.024 A  
DOCKED: ATOM     22  C   UNL     1     142.150  79.753 221.549 -0.39 -0.02    +0.045 A  
DOCKED: ATOM     23  C   UNL     1     142.080  79.640 222.940 -0.57 -0.01    +0.042 A  
DOCKED: ATOM     24  Cl  UNL     1     141.739  78.910 218.986 -0.33 +0.05    -0.080 Cl 
DOCKED: ATOM     25  Cl  UNL     1     142.732  80.910 223.958 -0.73 +0.01    -0.084 Cl 
DOCKED: ENDBRANCH  17  18
DOCKED: ENDBRANCH  16  17
DOCKED: ENDBRANCH  15  16
DOCKED: ENDBRANCH  14  15
DOCKED: ENDBRANCH   1  14
DOCKED: TORSDOF 10
DOCKED: TER
DOCKED: ENDMDL
________________________________________________________________________________


    FINAL DOCKED STATE:
    ________________________


Run:   2 / 20
Time taken for this run:   0.094s

DOCKED: MODEL        2
DOCKED: USER    Run = 2
DOCKED: USER
DOCKED: USER    Estimated Free Energy of Binding    =  -5.94 kcal/mol  [=(1)+(2)+(3)-(4)]
DOCKED: USER
DOCKED: USER    (1) Final Intermolecular Energy     =  -8.92 kcal/mol
DOCKED: USER        vdW + Hbond + desolv Energy     =  -9.04 kcal/mol
DOCKED: USER        Electrostatic Energy            =  +0.12 kcal/mol
DOCKED: USER        Moving Ligand-Fixed Receptor    =  -8.92 kcal/mol
DOCKED: USER        Moving Ligand-Moving Receptor   =  +0.00 kcal/mol
DOCKED: USER    (2) Final Total Internal Energy     =  -1.26 kcal/mol
DOCKED: USER    (3) Torsional Free Energy           =  +2.98 kcal/mol
DOCKED: USER    (4) Unbound System's Energy         =  -1.26 kcal/mol
DOCKED: USER
DOCKED: USER
DOCKED: REMARK SMILES O/C(=C/CCOc1ccc(Cl)cc1Cl)[N-]/N=C/c1cccnc1F
DOCKED: REMARK SMILES IDX 2 1 1 2 15 4 16 5 17 6 18 7 23 8 19 9 22 10 20 11 21 12
DOCKED: REMARK SMILES IDX 24 13 3 14 4 15 5 16 6 17 7 18 8 19 13 20 9 21 12 22 10 23
DOCKED: REMARK SMILES IDX 14 24 11 25
DOCKED: REMARK H PARENT 1 3
DOCKED: USER                              x       y       z     vdW  Elec       q    Type
DOCKED: USER                           _______ _______ _______ _____ _____    ______ ____
DOCKED: ROOT
DOCKED: ATOM      1  C   UNL     1     139.983  74.206 221.036 -0.23 -0.00    +0.023 C  
DOCKED: ENDROOT
DOCKED: BRANCH   1   2
DOCKED: ATOM      2  O   UNL     1     139.577  74.502 222.338 -0.66 +0.07    -0.530 OA 
DOCKED: ATOM      3  H   UNL     1     139.145  73.807 222.937 -0.47 -0.12    +0.290 HD 
DOCKED: ENDBRANCH   1   2
DOCKED: BRANCH   1   4
DOCKED: ATOM      4  N   UNL     1     140.644  75.210 220.266 +0.01 +0.15    -0.546 NA 
DOCKED: BRANCH   4   5
DOCKED: ATOM      5  N   UNL     1     142.039  75.322 220.279 -0.10 +0.15    -0.372 NA 
DOCKED: BRANCH   5   6
DOCKED: ATOM      6  C   UNL     1     142.748  74.851 219.304 -0.22 -0.04    +0.099 C  
DOCKED: BRANCH   6   7
DOCKED: ATOM      7  C   UNL     1     143.975  74.061 219.553 -0.32 -0.01    +0.046 A  
DOCKED: ATOM      8  C   UNL     1     144.646  73.356 218.532 -0.14 -0.01    +0.221 A  
DOCKED: ATOM      9  C   UNL     1     144.500  74.011 220.853 -0.44 -0.00    +0.016 A  
DOCKED: ATOM     10  N   UNL     1     145.775  72.654 218.818 -0.72 -0.17    -0.228 NA 
DOCKED: ATOM     11  C   UNL     1     145.659  73.281 221.115 -0.66 -0.00    +0.021 A  
DOCKED: ATOM     12  C   UNL     1     146.290  72.602 220.074 -0.32 +0.06    +0.114 A  
DOCKED: ATOM     13  F   UNL     1     144.186  73.359 217.255 -0.01 +0.02    -0.184 F  
DOCKED: ENDBRANCH   6   7
DOCKED: ENDBRANCH   5   6
DOCKED: ENDBRANCH   4   5
DOCKED: ENDBRANCH   1   4
DOCKED: BRANCH   1  14
DOCKED: ATOM     14  C   UNL     1     139.757  72.990 220.520 -0.13 +0.00    -0.001 C  
DOCKED: BRANCH  14  15
DOCKED: ATOM     15  C   UNL     1     139.918  71.719 221.306 -0.16 -0.01    +0.071 C  
DOCKED: BRANCH  15  16
DOCKED: ATOM     16  C   UNL     1     140.826  71.931 222.523 -0.16 -0.02    +0.234 C  
DOCKED: BRANCH  16  17
DOCKED: ATOM     17  O   UNL     1     140.051  72.017 223.719 -0.22 +0.09    -0.492 OA 
DOCKED: BRANCH  17  18
DOCKED: ATOM     18  C   UNL     1     140.212  71.215 224.862 -0.41 -0.02    +0.137 A  
DOCKED: ATOM     19  C   UNL     1     140.927  71.648 225.996 -0.59 -0.01    +0.049 A  
DOCKED: ATOM     20  C   UNL     1     139.628  69.936 224.870 -0.35 -0.01    +0.084 A  
DOCKED: ATOM     21  C   UNL     1     141.054  70.813 227.112 -0.64 -0.00    +0.024 A  
DOCKED: ATOM     22  C   UNL     1     139.760  69.107 225.989 -0.46 -0.01    +0.045 A  
DOCKED: ATOM     23  C   UNL     1     140.472  69.543 227.109 -0.55 -0.01    +0.042 A  
DOCKED: ATOM     24  Cl  UNL     1     138.725  69.360 223.477 -0.33 +0.01    -0.080 Cl 
DOCKED: ATOM     25  Cl  UNL     1     140.631  68.501 228.511 -0.76 +0.02    -0.084 Cl 
DOCKED: ENDBRANCH  17  18
DOCKED: ENDBRANCH  16  17
DOCKED: ENDBRANCH  15  16
DOCKED: ENDBRANCH  14  15
DOCKED: ENDBRANCH   1  14
DOCKED: TORSDOF 10
DOCKED: TER
DOCKED: ENDMDL
________________________________________________________________________________


    FINAL DOCKED STATE:
    ________________________


Run:   3 / 20
Time taken for this run:   0.094s

DOCKED: MODEL        3
DOCKED: USER    Run = 3
DOCKED: USER
DOCKED: USER    Estimated Free Energy of Binding    =  -6.27 kcal/mol  [=(1)+(2)+(3)-(4)]
DOCKED: USER
DOCKED: USER    (1) Final Intermolecular Energy     =  -9.25 kcal/mol
DOCKED: USER        vdW + Hbond + desolv Energy     =  -9.46 kcal/mol
DOCKED: USER        Electrostatic Energy            =  +0.22 kcal/mol
DOCKED: USER        Moving Ligand-Fixed Receptor    =  -9.25 kcal/mol
DOCKED: USER        Moving Ligand-Moving Receptor   =  +0.00 kcal/mol
DOCKED: USER    (2) Final Total Internal Energy     =  -1.00 kcal/mol
DOCKED: USER    (3) Torsional Free Energy           =  +2.98 kcal/mol
DOCKED: USER    (4) Unbound System's Energy         =  -1.00 kcal/mol
DOCKED: USER
DOCKED: USER
DOCKED: REMARK SMILES O/C(=C/CCOc1ccc(Cl)cc1Cl)[N-]/N=C/c1cccnc1F
DOCKED: REMARK SMILES IDX 2 1 1 2 15 4 16 5 17 6 18 7 23 8 19 9 22 10 20 11 21 12
DOCKED: REMARK SMILES IDX 24 13 3 14 4 15 5 16 6 17 7 18 8 19 13 20 9 21 12 22 10 23
DOCKED: REMARK SMILES IDX 14 24 11 25
DOCKED: REMARK H PARENT 1 3
DOCKED: USER                              x       y       z     vdW  Elec       q    Type
DOCKED: USER                           _______ _______ _______ _____ _____    ______ ____
DOCKED: ROOT
DOCKED: ATOM      1  C   UNL     1     140.455  74.362 221.706 -0.25 -0.00    +0.023 C  
DOCKED: ENDROOT
DOCKED: BRANCH   1   2
DOCKED: ATOM      2  O   UNL     1     139.208  74.383 222.333 -0.55 +0.12    -0.530 OA 
DOCKED: ATOM      3  H   UNL     1     138.972  73.741 223.081 -0.48 -0.16    +0.290 HD 
DOCKED: ENDBRANCH   1   2
DOCKED: BRANCH   1   4
DOCKED: ATOM      4  N   UNL     1     141.385  75.413 221.968 -0.14 +0.14    -0.546 NA 
DOCKED: BRANCH   4   5
DOCKED: ATOM      5  N   UNL     1     141.045  76.750 221.726 -0.16 +0.15    -0.372 NA 
DOCKED: BRANCH   5   6
DOCKED: ATOM      6  C   UNL     1     140.532  77.480 222.663 -0.33 -0.03    +0.099 C  
DOCKED: BRANCH   6   7
DOCKED: ATOM      7  C   UNL     1     141.096  78.805 223.005 -0.49 -0.01    +0.046 A  
DOCKED: ATOM      8  C   UNL     1     140.314  79.849 223.543 -0.32 -0.04    +0.221 A  
DOCKED: ATOM      9  C   UNL     1     142.463  79.038 222.792 -0.50 -0.01    +0.016 A  
DOCKED: ATOM     10  N   UNL     1     140.889  81.044 223.845 -0.27 +0.03    -0.228 NA 
DOCKED: ATOM     11  C   UNL     1     143.023  80.276 223.112 -0.64 -0.01    +0.021 A  
DOCKED: ATOM     12  C   UNL     1     142.212  81.276 223.644 -0.53 -0.02    +0.114 A  
DOCKED: ATOM     13  F   UNL     1     138.985  79.690 223.766 -0.13 +0.02    -0.184 F  
DOCKED: ENDBRANCH   6   7
DOCKED: ENDBRANCH   5   6
DOCKED: ENDBRANCH   4   5
DOCKED: ENDBRANCH   1   4
DOCKED: BRANCH   1  14
DOCKED: ATOM     14  C   UNL     1     140.773  73.362 220.873 -0.23 +0.00    -0.001 C  
DOCKED: BRANCH  14  15
DOCKED: ATOM     15  C   UNL     1     141.200  72.001 221.346 -0.21 -0.01    +0.071 C  
DOCKED: BRANCH  15  16
DOCKED: ATOM     16  C   UNL     1     140.031  71.242 221.984 -0.15 -0.04    +0.234 C  
DOCKED: BRANCH  16  17
DOCKED: ATOM     17  O   UNL     1     139.758  71.747 223.291 -0.17 +0.10    -0.492 OA 
DOCKED: BRANCH  17  18
DOCKED: ATOM     18  C   UNL     1     139.966  71.056 224.498 -0.37 -0.02    +0.137 A  
DOCKED: ATOM     19  C   UNL     1     140.939  71.452 225.438 -0.53 -0.01    +0.049 A  
DOCKED: ATOM     20  C   UNL     1     139.165  69.935 224.775 -0.33 -0.01    +0.084 A  
DOCKED: ATOM     21  C   UNL     1     141.103  70.735 226.627 -0.60 -0.00    +0.024 A  
DOCKED: ATOM     22  C   UNL     1     139.336  69.222 225.967 -0.44 -0.01    +0.045 A  
DOCKED: ATOM     23  C   UNL     1     140.304  69.620 226.893 -0.53 -0.01    +0.042 A  
DOCKED: ATOM     24  Cl  UNL     1     137.938  69.412 223.632 -0.33 +0.01    -0.080 Cl 
DOCKED: ATOM     25  Cl  UNL     1     140.512  68.725 228.386 -0.78 +0.02    -0.084 Cl 
DOCKED: ENDBRANCH  17  18
DOCKED: ENDBRANCH  16  17
DOCKED: ENDBRANCH  15  16
DOCKED: ENDBRANCH  14  15
DOCKED: ENDBRANCH   1  14
DOCKED: TORSDOF 10
DOCKED: TER
DOCKED: ENDMDL
________________________________________________________________________________


    FINAL DOCKED STATE:
    ________________________


Run:   4 / 20
Time taken for this run:   0.094s

DOCKED: MODEL        4
DOCKED: USER    Run = 4
DOCKED: USER
DOCKED: USER    Estimated Free Energy of Binding    =  -6.12 kcal/mol  [=(1)+(2)+(3)-(4)]
DOCKED: USER
DOCKED: USER    (1) Final Intermolecular Energy     =  -9.10 kcal/mol
DOCKED: USER        vdW + Hbond + desolv Energy     =  -9.04 kcal/mol
DOCKED: USER        Electrostatic Energy            =  -0.07 kcal/mol
DOCKED: USER        Moving Ligand-Fixed Receptor    =  -9.10 kcal/mol
DOCKED: USER        Moving Ligand-Moving Receptor   =  +0.00 kcal/mol
DOCKED: USER    (2) Final Total Internal Energy     =  -0.95 kcal/mol
DOCKED: USER    (3) Torsional Free Energy           =  +2.98 kcal/mol
DOCKED: USER    (4) Unbound System's Energy         =  -0.95 kcal/mol
DOCKED: USER
DOCKED: USER
DOCKED: REMARK SMILES O/C(=C/CCOc1ccc(Cl)cc1Cl)[N-]/N=C/c1cccnc1F
DOCKED: REMARK SMILES IDX 2 1 1 2 15 4 16 5 17 6 18 7 23 8 19 9 22 10 20 11 21 12
DOCKED: REMARK SMILES IDX 24 13 3 14 4 15 5 16 6 17 7 18 8 19 13 20 9 21 12 22 10 23
DOCKED: REMARK SMILES IDX 14 24 11 25
DOCKED: REMARK H PARENT 1 3
DOCKED: USER                              x       y       z     vdW  Elec       q    Type
DOCKED: USER                           _______ _______ _______ _____ _____    ______ ____
DOCKED: ROOT
DOCKED: ATOM      1  C   UNL     1     138.481  68.983 224.303 -0.33 -0.00    +0.023 C  
DOCKED: ENDROOT
DOCKED: BRANCH   1   2
DOCKED: ATOM      2  O   UNL     1     137.214  69.392 224.721 -0.06 +0.04    -0.530 OA 
DOCKED: ATOM      3  H   UNL     1     136.733  68.945 225.493 +0.14 -0.01    +0.290 HD 
DOCKED: ENDBRANCH   1   2
DOCKED: BRANCH   1   4
DOCKED: ATOM      4  N   UNL     1     138.978  67.712 224.723 -0.45 -0.02    -0.546 NA 
DOCKED: BRANCH   4   5
DOCKED: ATOM      5  N   UNL     1     139.199  67.439 226.078 -0.73 +0.01    -0.372 NA 
DOCKED: BRANCH   5   6
DOCKED: ATOM      6  C   UNL     1     140.266  67.867 226.672 -0.60 -0.02    +0.099 C  
DOCKED: BRANCH   6   7
DOCKED: ATOM      7  C   UNL     1     140.469  69.306 226.953 -0.54 -0.01    +0.046 A  
DOCKED: ATOM      8  C   UNL     1     139.931  69.942 228.091 -0.43 -0.04    +0.221 A  
DOCKED: ATOM      9  C   UNL     1     141.228  70.074 226.057 -0.53 -0.00    +0.016 A  
DOCKED: ATOM     10  N   UNL     1     140.158  71.267 228.302 -0.45 +0.05    -0.228 NA 
DOCKED: ATOM     11  C   UNL     1     141.442  71.431 226.300 -0.64 -0.00    +0.021 A  
DOCKED: ATOM     12  C   UNL     1     140.894  72.016 227.440 -0.70 -0.02    +0.114 A  
DOCKED: ATOM     13  F   UNL     1     139.182  69.258 228.992 -0.14 +0.02    -0.184 F  
DOCKED: ENDBRANCH   6   7
DOCKED: ENDBRANCH   5   6
DOCKED: ENDBRANCH   4   5
DOCKED: ENDBRANCH   1   4
DOCKED: BRANCH   1  14
DOCKED: ATOM     14  C   UNL     1     139.217  69.774 223.510 -0.28 +0.00    -0.001 C  
DOCKED: BRANCH  14  15
DOCKED: ATOM     15  C   UNL     1     138.820  71.178 223.150 -0.25 -0.02    +0.071 C  
DOCKED: BRANCH  15  16
DOCKED: ATOM     16  C   UNL     1     139.948  72.170 223.455 -0.10 -0.04    +0.234 C  
DOCKED: BRANCH  16  17
DOCKED: ATOM     17  O   UNL     1     140.200  73.007 222.327 -0.57 +0.04    -0.492 OA 
DOCKED: BRANCH  17  18
DOCKED: ATOM     18  C   UNL     1     141.399  73.058 221.594 -0.20 -0.01    +0.137 A  
DOCKED: ATOM     19  C   UNL     1     142.136  71.902 221.267 -0.19 -0.00    +0.049 A  
DOCKED: ATOM     20  C   UNL     1     141.869  74.311 221.166 -0.21 -0.02    +0.084 A  
DOCKED: ATOM     21  C   UNL     1     143.320  72.006 220.530 -0.28 -0.00    +0.024 A  
DOCKED: ATOM     22  C   UNL     1     143.055  74.407 220.430 -0.33 -0.02    +0.045 A  
DOCKED: ATOM     23  C   UNL     1     143.781  73.256 220.112 -0.32 -0.01    +0.042 A  
DOCKED: ATOM     24  Cl  UNL     1     140.977  75.776 221.549 -0.43 +0.02    -0.080 Cl 
DOCKED: ATOM     25  Cl  UNL     1     145.265  73.381 219.186 -0.42 -0.00    -0.084 Cl 
DOCKED: ENDBRANCH  17  18
DOCKED: ENDBRANCH  16  17
DOCKED: ENDBRANCH  15  16
DOCKED: ENDBRANCH  14  15
DOCKED: ENDBRANCH   1  14
DOCKED: TORSDOF 10
DOCKED: TER
DOCKED: ENDMDL
________________________________________________________________________________


    FINAL DOCKED STATE:
    ________________________


Run:   5 / 20
Time taken for this run:   0.094s

DOCKED: MODEL        5
DOCKED: USER    Run = 5
DOCKED: USER
DOCKED: USER    Estimated Free Energy of Binding    =  -6.04 kcal/mol  [=(1)+(2)+(3)-(4)]
DOCKED: USER
DOCKED: USER    (1) Final Intermolecular Energy     =  -9.02 kcal/mol
DOCKED: USER        vdW + Hbond + desolv Energy     =  -7.89 kcal/mol
DOCKED: USER        Electrostatic Energy            =  -1.13 kcal/mol
DOCKED: USER        Moving Ligand-Fixed Receptor    =  -9.02 kcal/mol
DOCKED: USER        Moving Ligand-Moving Receptor   =  +0.00 kcal/mol
DOCKED: USER    (2) Final Total Internal Energy     =  -0.82 kcal/mol
DOCKED: USER    (3) Torsional Free Energy           =  +2.98 kcal/mol
DOCKED: USER    (4) Unbound System's Energy         =  -0.82 kcal/mol
DOCKED: USER
DOCKED: USER
DOCKED: REMARK SMILES O/C(=C/CCOc1ccc(Cl)cc1Cl)[N-]/N=C/c1cccnc1F
DOCKED: REMARK SMILES IDX 2 1 1 2 15 4 16 5 17 6 18 7 23 8 19 9 22 10 20 11 21 12
DOCKED: REMARK SMILES IDX 24 13 3 14 4 15 5 16 6 17 7 18 8 19 13 20 9 21 12 22 10 23
DOCKED: REMARK SMILES IDX 14 24 11 25
DOCKED: REMARK H PARENT 1 3
DOCKED: USER                              x       y       z     vdW  Elec       q    Type
DOCKED: USER                           _______ _______ _______ _____ _____    ______ ____
DOCKED: ROOT
DOCKED: ATOM      1  C   UNL     1     145.765  73.219 220.265 -0.57 +0.00    +0.023 C  
DOCKED: ENDROOT
DOCKED: BRANCH   1   2
DOCKED: ATOM      2  O   UNL     1     146.514  72.952 221.412 -0.26 +0.03    -0.530 OA 
DOCKED: ATOM      3  H   UNL     1     146.380  72.108 221.957 -0.32 -0.18    +0.290 HD 
DOCKED: ENDBRANCH   1   2
DOCKED: BRANCH   1   4
DOCKED: ATOM      4  N   UNL     1     146.302  72.879 218.987 -0.45 -0.62    -0.546 NA 
DOCKED: BRANCH   4   5
DOCKED: ATOM      5  N   UNL     1     145.475  72.393 217.967 -0.46 -0.23    -0.372 NA 
DOCKED: BRANCH   5   6
DOCKED: ATOM      6  C   UNL     1     145.642  71.200 217.493 -0.06 +0.07    +0.099 C  
DOCKED: BRANCH   6   7
DOCKED: ATOM      7  C   UNL     1     145.267  70.000 218.273 -0.23 +0.01    +0.046 A  
DOCKED: ATOM      8  C   UNL     1     146.092  69.459 219.280 -0.20 +0.13    +0.221 A  
DOCKED: ATOM      9  C   UNL     1     144.040  69.373 218.008 -0.12 -0.00    +0.016 A  
DOCKED: ATOM     10  N   UNL     1     145.691  68.358 219.971 -0.87 -0.09    -0.228 NA 
DOCKED: ATOM     11  C   UNL     1     143.657  68.244 218.733 -0.21 -0.00    +0.021 A  
DOCKED: ATOM     12  C   UNL     1     144.503  67.747 219.722 -0.32 -0.01    +0.114 A  
DOCKED: ATOM     13  F   UNL     1     147.294  70.014 219.580 -0.05 -0.23    -0.184 F  
DOCKED: ENDBRANCH   6   7
DOCKED: ENDBRANCH   5   6
DOCKED: ENDBRANCH   4   5
DOCKED: ENDBRANCH   1   4
DOCKED: BRANCH   1  14
DOCKED: ATOM     14  C   UNL     1     144.554  73.782 220.368 -0.50 +0.00    -0.001 C  
DOCKED: BRANCH  14  15
DOCKED: ATOM     15  C   UNL     1     143.330  73.030 220.810 -0.24 -0.01    +0.071 C  
DOCKED: BRANCH  15  16
DOCKED: ATOM     16  C   UNL     1     142.206  73.141 219.774 -0.10 -0.05    +0.234 C  
DOCKED: BRANCH  16  17
DOCKED: ATOM     17  O   UNL     1     141.991  74.504 219.410 -0.01 +0.15    -0.492 OA 
DOCKED: BRANCH  17  18
DOCKED: ATOM     18  C   UNL     1     141.672  75.550 220.293 -0.21 -0.05    +0.137 A  
DOCKED: ATOM     19  C   UNL     1     140.974  75.336 221.499 -0.33 -0.01    +0.049 A  
DOCKED: ATOM     20  C   UNL     1     142.075  76.854 219.961 -0.27 -0.05    +0.084 A  
DOCKED: ATOM     21  C   UNL     1     140.686  76.409 222.348 -0.40 -0.01    +0.024 A  
DOCKED: ATOM     22  C   UNL     1     141.782  77.923 220.815 -0.31 -0.03    +0.045 A  
DOCKED: ATOM     23  C   UNL     1     141.088  77.702 222.007 -0.38 -0.02    +0.042 A  
DOCKED: ATOM     24  Cl  UNL     1     142.951  77.164 218.469 -0.41 +0.05    -0.080 Cl 
DOCKED: ATOM     25  Cl  UNL     1     140.727  79.045 223.076 -0.60 +0.02    -0.084 Cl 
DOCKED: ENDBRANCH  17  18
DOCKED: ENDBRANCH  16  17
DOCKED: ENDBRANCH  15  16
DOCKED: ENDBRANCH  14  15
DOCKED: ENDBRANCH   1  14
DOCKED: TORSDOF 10
DOCKED: TER
DOCKED: ENDMDL
________________________________________________________________________________


    FINAL DOCKED STATE:
    ________________________


Run:   6 / 20
Time taken for this run:   0.094s

DOCKED: MODEL        6
DOCKED: USER    Run = 6
DOCKED: USER
DOCKED: USER    Estimated Free Energy of Binding    =  -5.93 kcal/mol  [=(1)+(2)+(3)-(4)]
DOCKED: USER
DOCKED: USER    (1) Final Intermolecular Energy     =  -8.91 kcal/mol
DOCKED: USER        vdW + Hbond + desolv Energy     =  -8.91 kcal/mol
DOCKED: USER        Electrostatic Energy            =  -0.00 kcal/mol
DOCKED: USER        Moving Ligand-Fixed Receptor    =  -8.91 kcal/mol
DOCKED: USER        Moving Ligand-Moving Receptor   =  +0.00 kcal/mol
DOCKED: USER    (2) Final Total Internal Energy     =  -1.05 kcal/mol
DOCKED: USER    (3) Torsional Free Energy           =  +2.98 kcal/mol
DOCKED: USER    (4) Unbound System's Energy         =  -1.05 kcal/mol
DOCKED: USER
DOCKED: USER
DOCKED: REMARK SMILES O/C(=C/CCOc1ccc(Cl)cc1Cl)[N-]/N=C/c1cccnc1F
DOCKED: REMARK SMILES IDX 2 1 1 2 15 4 16 5 17 6 18 7 23 8 19 9 22 10 20 11 21 12
DOCKED: REMARK SMILES IDX 24 13 3 14 4 15 5 16 6 17 7 18 8 19 13 20 9 21 12 22 10 23
DOCKED: REMARK SMILES IDX 14 24 11 25
DOCKED: REMARK H PARENT 1 3
DOCKED: USER                              x       y       z     vdW  Elec       q    Type
DOCKED: USER                           _______ _______ _______ _____ _____    ______ ____
DOCKED: ROOT
DOCKED: ATOM      1  C   UNL     1     138.459  68.854 223.752 -0.29 -0.00    +0.023 C  
DOCKED: ENDROOT
DOCKED: BRANCH   1   2
DOCKED: ATOM      2  O   UNL     1     139.182  68.015 222.902 -0.05 +0.11    -0.530 OA 
DOCKED: ATOM      3  H   UNL     1     139.699  67.216 223.250 +0.03 -0.08    +0.290 HD 
DOCKED: ENDBRANCH   1   2
DOCKED: BRANCH   1   4
DOCKED: ATOM      4  N   UNL     1     138.345  68.516 225.134 -0.24 +0.01    -0.546 NA 
DOCKED: BRANCH   4   5
DOCKED: ATOM      5  N   UNL     1     139.206  67.580 225.718 -0.74 -0.00    -0.372 NA 
DOCKED: BRANCH   5   6
DOCKED: ATOM      6  C   UNL     1     140.031  67.932 226.651 -0.59 -0.02    +0.099 C  
DOCKED: BRANCH   6   7
DOCKED: ATOM      7  C   UNL     1     140.362  69.355 226.890 -0.54 -0.01    +0.046 A  
DOCKED: ATOM      8  C   UNL     1     139.975  70.040 228.060 -0.43 -0.04    +0.221 A  
DOCKED: ATOM      9  C   UNL     1     141.094  70.055 225.919 -0.52 -0.00    +0.016 A  
DOCKED: ATOM     10  N   UNL     1     140.315  71.346 228.230 -0.47 +0.05    -0.228 NA 
DOCKED: ATOM     11  C   UNL     1     141.428  71.395 226.122 -0.63 -0.00    +0.021 A  
DOCKED: ATOM     12  C   UNL     1     141.026  72.030 227.296 -0.70 -0.02    +0.114 A  
DOCKED: ATOM     13  F   UNL     1     139.259  69.421 229.034 -0.15 +0.02    -0.184 F  
DOCKED: ENDBRANCH   6   7
DOCKED: ENDBRANCH   5   6
DOCKED: ENDBRANCH   4   5
DOCKED: ENDBRANCH   1   4
DOCKED: BRANCH   1  14
DOCKED: ATOM     14  C   UNL     1     137.886  69.966 223.272 -0.23 +0.00    -0.001 C  
DOCKED: BRANCH  14  15
DOCKED: ATOM     15  C   UNL     1     138.434  71.345 223.511 -0.21 -0.02    +0.071 C  
DOCKED: BRANCH  15  16
DOCKED: ATOM     16  C   UNL     1     139.402  71.758 222.397 -0.19 -0.05    +0.234 C  
DOCKED: BRANCH  16  17
DOCKED: ATOM     17  O   UNL     1     140.031  73.000 222.712 -0.59 +0.05    -0.492 OA 
DOCKED: BRANCH  17  18
DOCKED: ATOM     18  C   UNL     1     140.832  73.759 221.841 -0.19 -0.01    +0.137 A  
DOCKED: ATOM     19  C   UNL     1     141.986  73.236 221.224 -0.21 -0.01    +0.049 A  
DOCKED: ATOM     20  C   UNL     1     140.458  75.087 221.573 -0.30 -0.02    +0.084 A  
DOCKED: ATOM     21  C   UNL     1     142.747  74.030 220.361 -0.29 -0.01    +0.024 A  
DOCKED: ATOM     22  C   UNL     1     141.225  75.876 220.708 -0.26 -0.02    +0.045 A  
DOCKED: ATOM     23  C   UNL     1     142.369  75.349 220.102 -0.29 -0.02    +0.042 A  
DOCKED: ATOM     24  Cl  UNL     1     139.023  75.777 222.317 -0.37 +0.02    -0.080 Cl 
DOCKED: ATOM     25  Cl  UNL     1     143.324  76.341 219.017 -0.46 +0.05    -0.084 Cl 
DOCKED: ENDBRANCH  17  18
DOCKED: ENDBRANCH  16  17
DOCKED: ENDBRANCH  15  16
DOCKED: ENDBRANCH  14  15
DOCKED: ENDBRANCH   1  14
DOCKED: TORSDOF 10
DOCKED: TER
DOCKED: ENDMDL
________________________________________________________________________________


    FINAL DOCKED STATE:
    ________________________


Run:   7 / 20
Time taken for this run:   0.094s

DOCKED: MODEL        7
DOCKED: USER    Run = 7
DOCKED: USER
DOCKED: USER    Estimated Free Energy of Binding    =  -6.19 kcal/mol  [=(1)+(2)+(3)-(4)]
DOCKED: USER
DOCKED: USER    (1) Final Intermolecular Energy     =  -9.18 kcal/mol
DOCKED: USER        vdW + Hbond + desolv Energy     =  -9.30 kcal/mol
DOCKED: USER        Electrostatic Energy            =  +0.12 kcal/mol
DOCKED: USER        Moving Ligand-Fixed Receptor    =  -9.18 kcal/mol
DOCKED: USER        Moving Ligand-Moving Receptor   =  +0.00 kcal/mol
DOCKED: USER    (2) Final Total Internal Energy     =  -0.57 kcal/mol
DOCKED: USER    (3) Torsional Free Energy           =  +2.98 kcal/mol
DOCKED: USER    (4) Unbound System's Energy         =  -0.57 kcal/mol
DOCKED: USER
DOCKED: USER
DOCKED: REMARK SMILES O/C(=C/CCOc1ccc(Cl)cc1Cl)[N-]/N=C/c1cccnc1F
DOCKED: REMARK SMILES IDX 2 1 1 2 15 4 16 5 17 6 18 7 23 8 19 9 22 10 20 11 21 12
DOCKED: REMARK SMILES IDX 24 13 3 14 4 15 5 16 6 17 7 18 8 19 13 20 9 21 12 22 10 23
DOCKED: REMARK SMILES IDX 14 24 11 25
DOCKED: REMARK H PARENT 1 3
DOCKED: USER                              x       y       z     vdW  Elec       q    Type
DOCKED: USER                           _______ _______ _______ _____ _____    ______ ____
DOCKED: ROOT
DOCKED: ATOM      1  C   UNL     1     141.080  74.388 221.324 -0.29 -0.00    +0.023 C  
DOCKED: ENDROOT
DOCKED: BRANCH   1   2
DOCKED: ATOM      2  O   UNL     1     142.207  75.089 220.890 -0.10 +0.21    -0.530 OA 
DOCKED: ATOM      3  H   UNL     1     142.465  75.987 221.283 -0.39 -0.23    +0.290 HD 
DOCKED: ENDBRANCH   1   2
DOCKED: BRANCH   1   4
DOCKED: ATOM      4  N   UNL     1     140.083  75.072 222.083 -0.48 +0.06    -0.546 NA 
DOCKED: BRANCH   4   5
DOCKED: ATOM      5  N   UNL     1     140.349  76.321 222.657 -0.17 +0.07    -0.372 NA 
DOCKED: BRANCH   5   6
DOCKED: ATOM      6  C   UNL     1     140.440  77.381 221.920 -0.33 -0.03    +0.099 C  
DOCKED: BRANCH   6   7
DOCKED: ATOM      7  C   UNL     1     141.252  78.545 222.340 -0.42 -0.02    +0.046 A  
DOCKED: ATOM      8  C   UNL     1     141.807  79.457 221.419 -0.28 -0.11    +0.221 A  
DOCKED: ATOM      9  C   UNL     1     141.478  78.759 223.708 -0.58 -0.00    +0.016 A  
DOCKED: ATOM     10  N   UNL     1     142.538  80.515 221.863 -0.30 +0.09    -0.228 NA 
DOCKED: ATOM     11  C   UNL     1     142.233  79.853 224.133 -0.50 -0.00    +0.021 A  
DOCKED: ATOM     12  C   UNL     1     142.759  80.730 223.186 -0.53 -0.03    +0.114 A  
DOCKED: ATOM     13  F   UNL     1     141.632  79.302 220.082 -0.08 +0.10    -0.184 F  
DOCKED: ENDBRANCH   6   7
DOCKED: ENDBRANCH   5   6
DOCKED: ENDBRANCH   4   5
DOCKED: ENDBRANCH   1   4
DOCKED: BRANCH   1  14
DOCKED: ATOM     14  C   UNL     1     140.938  73.090 221.023 -0.25 +0.00    -0.001 C  
DOCKED: BRANCH  14  15
DOCKED: ATOM     15  C   UNL     1     139.799  72.249 221.527 -0.20 -0.01    +0.071 C  
DOCKED: BRANCH  15  16
DOCKED: ATOM     16  C   UNL     1     140.292  71.174 222.503 -0.15 -0.03    +0.234 C  
DOCKED: BRANCH  16  17
DOCKED: ATOM     17  O   UNL     1     139.657  71.319 223.773 -0.15 +0.10    -0.492 OA 
DOCKED: BRANCH  17  18
DOCKED: ATOM     18  C   UNL     1     140.014  70.641 224.952 -0.38 -0.02    +0.137 A  
DOCKED: ATOM     19  C   UNL     1     140.756  71.252 225.982 -0.59 -0.01    +0.049 A  
DOCKED: ATOM     20  C   UNL     1     139.604  69.306 225.106 -0.35 -0.01    +0.084 A  
DOCKED: ATOM     21  C   UNL     1     141.081  70.536 227.139 -0.60 -0.00    +0.024 A  
DOCKED: ATOM     22  C   UNL     1     139.933  68.595 226.266 -0.54 -0.01    +0.045 A  
DOCKED: ATOM     23  C   UNL     1     140.671  69.208 227.282 -0.58 -0.01    +0.042 A  
DOCKED: ATOM     24  Cl  UNL     1     138.672  68.508 223.847 -0.37 +0.01    -0.080 Cl 
DOCKED: ATOM     25  Cl  UNL     1     141.078  68.314 228.734 -0.69 +0.02    -0.084 Cl 
DOCKED: ENDBRANCH  17  18
DOCKED: ENDBRANCH  16  17
DOCKED: ENDBRANCH  15  16
DOCKED: ENDBRANCH  14  15
DOCKED: ENDBRANCH   1  14
DOCKED: TORSDOF 10
DOCKED: TER
DOCKED: ENDMDL
________________________________________________________________________________


    FINAL DOCKED STATE:
    ________________________


Run:   8 / 20
Time taken for this run:   0.094s

DOCKED: MODEL        8
DOCKED: USER    Run = 8
DOCKED: USER
DOCKED: USER    Estimated Free Energy of Binding    =  -6.11 kcal/mol  [=(1)+(2)+(3)-(4)]
DOCKED: USER
DOCKED: USER    (1) Final Intermolecular Energy     =  -9.09 kcal/mol
DOCKED: USER        vdW + Hbond + desolv Energy     =  -9.31 kcal/mol
DOCKED: USER        Electrostatic Energy            =  +0.22 kcal/mol
DOCKED: USER        Moving Ligand-Fixed Receptor    =  -9.09 kcal/mol
DOCKED: USER        Moving Ligand-Moving Receptor   =  +0.00 kcal/mol
DOCKED: USER    (2) Final Total Internal Energy     =  -1.01 kcal/mol
DOCKED: USER    (3) Torsional Free Energy           =  +2.98 kcal/mol
DOCKED: USER    (4) Unbound System's Energy         =  -1.01 kcal/mol
DOCKED: USER
DOCKED: USER
DOCKED: REMARK SMILES O/C(=C/CCOc1ccc(Cl)cc1Cl)[N-]/N=C/c1cccnc1F
DOCKED: REMARK SMILES IDX 2 1 1 2 15 4 16 5 17 6 18 7 23 8 19 9 22 10 20 11 21 12
DOCKED: REMARK SMILES IDX 24 13 3 14 4 15 5 16 6 17 7 18 8 19 13 20 9 21 12 22 10 23
DOCKED: REMARK SMILES IDX 14 24 11 25
DOCKED: REMARK H PARENT 1 3
DOCKED: USER                              x       y       z     vdW  Elec       q    Type
DOCKED: USER                           _______ _______ _______ _____ _____    ______ ____
DOCKED: ROOT
DOCKED: ATOM      1  C   UNL     1     140.233  74.721 221.494 -0.30 -0.00    +0.023 C  
DOCKED: ENDROOT
DOCKED: BRANCH   1   2
DOCKED: ATOM      2  O   UNL     1     139.573  74.601 222.718 -0.45 +0.05    -0.530 OA 
DOCKED: ATOM      3  H   UNL     1     139.284  73.702 223.086 -0.46 -0.11    +0.290 HD 
DOCKED: ENDBRANCH   1   2
DOCKED: BRANCH   1   4
DOCKED: ATOM      4  N   UNL     1     140.402  76.016 220.917 -0.03 +0.16    -0.546 NA 
DOCKED: BRANCH   4   5
DOCKED: ATOM      5  N   UNL     1     141.119  77.013 221.589 -0.14 +0.17    -0.372 NA 
DOCKED: BRANCH   5   6
DOCKED: ATOM      6  C   UNL     1     140.521  77.820 222.405 -0.37 -0.03    +0.099 C  
DOCKED: BRANCH   6   7
DOCKED: ATOM      7  C   UNL     1     141.181  79.050 222.897 -0.47 -0.01    +0.046 A  
DOCKED: ATOM      8  C   UNL     1     140.467  80.114 223.485 -0.32 -0.04    +0.221 A  
DOCKED: ATOM      9  C   UNL     1     142.574  79.167 222.781 -0.52 -0.01    +0.016 A  
DOCKED: ATOM     10  N   UNL     1     141.128  81.216 223.927 -0.26 +0.02    -0.228 NA 
DOCKED: ATOM     11  C   UNL     1     143.225  80.311 223.243 -0.62 -0.01    +0.021 A  
DOCKED: ATOM     12  C   UNL     1     142.477  81.336 223.821 -0.51 -0.02    +0.114 A  
DOCKED: ATOM     13  F   UNL     1     139.117  80.066 223.620 -0.13 +0.02    -0.184 F  
DOCKED: ENDBRANCH   6   7
DOCKED: ENDBRANCH   5   6
DOCKED: ENDBRANCH   4   5
DOCKED: ENDBRANCH   1   4
DOCKED: BRANCH   1  14
DOCKED: ATOM     14  C   UNL     1     140.706  73.631 220.874 -0.24 +0.00    -0.001 C  
DOCKED: BRANCH  14  15
DOCKED: ATOM     15  C   UNL     1     140.124  72.258 221.063 -0.17 -0.01    +0.071 C  
DOCKED: BRANCH  15  16
DOCKED: ATOM     16  C   UNL     1     140.780  71.536 222.246 -0.14 -0.02    +0.234 C  
DOCKED: BRANCH  16  17
DOCKED: ATOM     17  O   UNL     1     139.989  71.680 223.425 -0.18 +0.09    -0.492 OA 
DOCKED: BRANCH  17  18
DOCKED: ATOM     18  C   UNL     1     140.173  70.978 224.629 -0.39 -0.02    +0.137 A  
DOCKED: ATOM     19  C   UNL     1     140.911  71.505 225.707 -0.58 -0.01    +0.049 A  
DOCKED: ATOM     20  C   UNL     1     139.588  69.707 224.758 -0.33 -0.01    +0.084 A  
DOCKED: ATOM     21  C   UNL     1     141.060  70.769 226.887 -0.62 -0.00    +0.024 A  
DOCKED: ATOM     22  C   UNL     1     139.743  68.976 225.942 -0.47 -0.01    +0.045 A  
DOCKED: ATOM     23  C   UNL     1     140.478  69.505 227.006 -0.54 -0.01    +0.042 A  
DOCKED: ATOM     24  Cl  UNL     1     138.656  69.015 223.439 -0.33 +0.01    -0.080 Cl 
DOCKED: ATOM     25  Cl  UNL     1     140.665  68.586 228.488 -0.76 +0.02    -0.084 Cl 
DOCKED: ENDBRANCH  17  18
DOCKED: ENDBRANCH  16  17
DOCKED: ENDBRANCH  15  16
DOCKED: ENDBRANCH  14  15
DOCKED: ENDBRANCH   1  14
DOCKED: TORSDOF 10
DOCKED: TER
DOCKED: ENDMDL
________________________________________________________________________________


    FINAL DOCKED STATE:
    ________________________


Run:   9 / 20
Time taken for this run:   0.094s

DOCKED: MODEL        9
DOCKED: USER    Run = 9
DOCKED: USER
DOCKED: USER    Estimated Free Energy of Binding    =  -6.55 kcal/mol  [=(1)+(2)+(3)-(4)]
DOCKED: USER
DOCKED: USER    (1) Final Intermolecular Energy     =  -9.53 kcal/mol
DOCKED: USER        vdW + Hbond + desolv Energy     =  -9.49 kcal/mol
DOCKED: USER        Electrostatic Energy            =  -0.04 kcal/mol
DOCKED: USER        Moving Ligand-Fixed Receptor    =  -9.53 kcal/mol
DOCKED: USER        Moving Ligand-Moving Receptor   =  +0.00 kcal/mol
DOCKED: USER    (2) Final Total Internal Energy     =  -0.69 kcal/mol
DOCKED: USER    (3) Torsional Free Energy           =  +2.98 kcal/mol
DOCKED: USER    (4) Unbound System's Energy         =  -0.69 kcal/mol
DOCKED: USER
DOCKED: USER
DOCKED: REMARK SMILES O/C(=C/CCOc1ccc(Cl)cc1Cl)[N-]/N=C/c1cccnc1F
DOCKED: REMARK SMILES IDX 2 1 1 2 15 4 16 5 17 6 18 7 23 8 19 9 22 10 20 11 21 12
DOCKED: REMARK SMILES IDX 24 13 3 14 4 15 5 16 6 17 7 18 8 19 13 20 9 21 12 22 10 23
DOCKED: REMARK SMILES IDX 14 24 11 25
DOCKED: REMARK H PARENT 1 3
DOCKED: USER                              x       y       z     vdW  Elec       q    Type
DOCKED: USER                           _______ _______ _______ _____ _____    ______ ____
DOCKED: ROOT
DOCKED: ATOM      1  C   UNL     1     140.606  73.296 221.982 -0.27 -0.00    +0.023 C  
DOCKED: ENDROOT
DOCKED: BRANCH   1   2
DOCKED: ATOM      2  O   UNL     1     139.563  74.166 222.305 -0.68 +0.08    -0.530 OA 
DOCKED: ATOM      3  H   UNL     1     138.930  73.983 223.074 -0.49 -0.16    +0.290 HD 
DOCKED: ENDBRANCH   1   2
DOCKED: BRANCH   1   4
DOCKED: ATOM      4  N   UNL     1     140.911  72.216 222.866 -0.06 +0.02    -0.546 NA 
DOCKED: BRANCH   4   5
DOCKED: ATOM      5  N   UNL     1     140.067  71.905 223.938 -0.19 +0.07    -0.372 NA 
DOCKED: BRANCH   5   6
DOCKED: ATOM      6  C   UNL     1     139.946  70.685 224.351 -0.37 -0.02    +0.099 C  
DOCKED: BRANCH   6   7
DOCKED: ATOM      7  C   UNL     1     140.293  70.302 225.738 -0.49 -0.01    +0.046 A  
DOCKED: ATOM      8  C   UNL     1     140.215  68.972 226.202 -0.37 -0.04    +0.221 A  
DOCKED: ATOM      9  C   UNL     1     140.720  71.295 226.632 -0.67 -0.00    +0.016 A  
DOCKED: ATOM     10  N   UNL     1     140.554  68.678 227.486 -0.39 +0.05    -0.228 NA 
DOCKED: ATOM     11  C   UNL     1     141.061  70.962 227.943 -0.70 -0.00    +0.021 A  
DOCKED: ATOM     12  C   UNL     1     140.972  69.634 228.356 -0.47 -0.02    +0.114 A  
DOCKED: ATOM     13  F   UNL     1     139.802  67.966 225.390 -0.15 +0.03    -0.184 F  
DOCKED: ENDBRANCH   6   7
DOCKED: ENDBRANCH   5   6
DOCKED: ENDBRANCH   4   5
DOCKED: ENDBRANCH   1   4
DOCKED: BRANCH   1  14
DOCKED: ATOM     14  C   UNL     1     141.304  73.471 220.853 -0.26 +0.00    -0.001 C  
DOCKED: BRANCH  14  15
DOCKED: ATOM     15  C   UNL     1     141.092  74.634 219.925 -0.15 -0.02    +0.071 C  
DOCKED: BRANCH  15  16
DOCKED: ATOM     16  C   UNL     1     141.910  75.853 220.367 -0.18 -0.11    +0.234 C  
DOCKED: BRANCH  16  17
DOCKED: ATOM     17  O   UNL     1     141.049  76.941 220.705 -0.06 +0.21    -0.492 OA 
DOCKED: BRANCH  17  18
DOCKED: ATOM     18  C   UNL     1     141.371  78.007 221.563 -0.29 -0.07    +0.137 A  
DOCKED: ATOM     19  C   UNL     1     141.328  77.888 222.967 -0.42 -0.02    +0.049 A  
DOCKED: ATOM     20  C   UNL     1     141.758  79.232 220.994 -0.31 -0.04    +0.084 A  
DOCKED: ATOM     21  C   UNL     1     141.662  78.976 223.778 -0.60 -0.01    +0.024 A  
DOCKED: ATOM     22  C   UNL     1     142.091  80.317 221.812 -0.45 -0.02    +0.045 A  
DOCKED: ATOM     23  C   UNL     1     142.043  80.191 223.203 -0.58 -0.01    +0.042 A  
DOCKED: ATOM     24  Cl  UNL     1     141.829  79.421 219.248 -0.35 +0.05    -0.080 Cl 
DOCKED: ATOM     25  Cl  UNL     1     142.465  81.553 224.224 -0.55 +0.01    -0.084 Cl 
DOCKED: ENDBRANCH  17  18
DOCKED: ENDBRANCH  16  17
DOCKED: ENDBRANCH  15  16
DOCKED: ENDBRANCH  14  15
DOCKED: ENDBRANCH   1  14
DOCKED: TORSDOF 10
DOCKED: TER
DOCKED: ENDMDL
________________________________________________________________________________


    FINAL DOCKED STATE:
    ________________________


Run:   10 / 20
Time taken for this run:   0.094s

DOCKED: MODEL        10
DOCKED: USER    Run = 10
DOCKED: USER
DOCKED: USER    Estimated Free Energy of Binding    =  -6.11 kcal/mol  [=(1)+(2)+(3)-(4)]
DOCKED: USER
DOCKED: USER    (1) Final Intermolecular Energy     =  -9.10 kcal/mol
DOCKED: USER        vdW + Hbond + desolv Energy     =  -7.91 kcal/mol
DOCKED: USER        Electrostatic Energy            =  -1.19 kcal/mol
DOCKED: USER        Moving Ligand-Fixed Receptor    =  -9.10 kcal/mol
DOCKED: USER        Moving Ligand-Moving Receptor   =  +0.00 kcal/mol
DOCKED: USER    (2) Final Total Internal Energy     =  -0.74 kcal/mol
DOCKED: USER    (3) Torsional Free Energy           =  +2.98 kcal/mol
DOCKED: USER    (4) Unbound System's Energy         =  -0.74 kcal/mol
DOCKED: USER
DOCKED: USER
DOCKED: REMARK SMILES O/C(=C/CCOc1ccc(Cl)cc1Cl)[N-]/N=C/c1cccnc1F
DOCKED: REMARK SMILES IDX 2 1 1 2 15 4 16 5 17 6 18 7 23 8 19 9 22 10 20 11 21 12
DOCKED: REMARK SMILES IDX 24 13 3 14 4 15 5 16 6 17 7 18 8 19 13 20 9 21 12 22 10 23
DOCKED: REMARK SMILES IDX 14 24 11 25
DOCKED: REMARK H PARENT 1 3
DOCKED: USER                              x       y       z     vdW  Elec       q    Type
DOCKED: USER                           _______ _______ _______ _____ _____    ______ ____
DOCKED: ROOT
DOCKED: ATOM      1  C   UNL     1     145.668  73.087 220.176 -0.55 +0.00    +0.023 C  
DOCKED: ENDROOT
DOCKED: BRANCH   1   2
DOCKED: ATOM      2  O   UNL     1     146.198  74.180 220.863 -0.27 +0.08    -0.530 OA 
DOCKED: ATOM      3  H   UNL     1     146.354  75.074 220.411 -0.21 -0.12    +0.290 HD 
DOCKED: ENDBRANCH   1   2
DOCKED: BRANCH   1   4
DOCKED: ATOM      4  N   UNL     1     146.315  72.629 218.988 -0.33 -0.75    -0.546 NA 
DOCKED: BRANCH   4   5
DOCKED: ATOM      5  N   UNL     1     145.572  72.126 217.914 -0.47 -0.28    -0.372 NA 
DOCKED: BRANCH   5   6
DOCKED: ATOM      6  C   UNL     1     145.810  70.944 217.443 -0.03 +0.08    +0.099 C  
DOCKED: BRANCH   6   7
DOCKED: ATOM      7  C   UNL     1     145.517  69.726 218.231 -0.25 +0.02    +0.046 A  
DOCKED: ATOM      8  C   UNL     1     146.308  69.320 219.326 -0.21 +0.14    +0.221 A  
DOCKED: ATOM      9  C   UNL     1     144.407  68.942 217.883 -0.15 -0.00    +0.016 A  
DOCKED: ATOM     10  N   UNL     1     145.985  68.195 220.019 -0.91 -0.08    -0.228 NA 
DOCKED: ATOM     11  C   UNL     1     144.102  67.792 218.614 -0.26 -0.01    +0.021 A  
DOCKED: ATOM     12  C   UNL     1     144.910  67.432 219.690 -0.37 -0.01    +0.114 A  
DOCKED: ATOM     13  F   UNL     1     147.399  70.031 219.708 -0.06 -0.23    -0.184 F  
DOCKED: ENDBRANCH   6   7
DOCKED: ENDBRANCH   5   6
DOCKED: ENDBRANCH   4   5
DOCKED: ENDBRANCH   1   4
DOCKED: BRANCH   1  14
DOCKED: ATOM     14  C   UNL     1     144.568  72.473 220.632 -0.40 +0.00    -0.001 C  
DOCKED: BRANCH  14  15
DOCKED: ATOM     15  C   UNL     1     143.191  73.068 220.532 -0.27 -0.01    +0.071 C  
DOCKED: BRANCH  15  16
DOCKED: ATOM     16  C   UNL     1     143.133  74.152 219.450 -0.17 -0.07    +0.234 C  
DOCKED: BRANCH  16  17
DOCKED: ATOM     17  O   UNL     1     141.920  74.898 219.552 -0.02 +0.16    -0.492 OA 
DOCKED: BRANCH  17  18
DOCKED: ATOM     18  C   UNL     1     141.670  75.941 220.461 -0.23 -0.06    +0.137 A  
DOCKED: ATOM     19  C   UNL     1     141.074  75.721 221.719 -0.34 -0.01    +0.049 A  
DOCKED: ATOM     20  C   UNL     1     142.041  77.247 220.100 -0.28 -0.05    +0.084 A  
DOCKED: ATOM     21  C   UNL     1     140.852  76.791 222.592 -0.36 -0.01    +0.024 A  
DOCKED: ATOM     22  C   UNL     1     141.815  78.313 220.979 -0.33 -0.03    +0.045 A  
DOCKED: ATOM     23  C   UNL     1     141.221  78.087 222.223 -0.40 -0.02    +0.042 A  
DOCKED: ATOM     24  Cl  UNL     1     142.792  77.564 218.544 -0.38 +0.06    -0.080 Cl 
DOCKED: ATOM     25  Cl  UNL     1     140.944  79.426 223.321 -0.65 +0.02    -0.084 Cl 
DOCKED: ENDBRANCH  17  18
DOCKED: ENDBRANCH  16  17
DOCKED: ENDBRANCH  15  16
DOCKED: ENDBRANCH  14  15
DOCKED: ENDBRANCH   1  14
DOCKED: TORSDOF 10
DOCKED: TER
DOCKED: ENDMDL
________________________________________________________________________________


    FINAL DOCKED STATE:
    ________________________


Run:   11 / 20
Time taken for this run:   0.094s

DOCKED: MODEL        11
DOCKED: USER    Run = 11
DOCKED: USER
DOCKED: USER    Estimated Free Energy of Binding    =  -6.38 kcal/mol  [=(1)+(2)+(3)-(4)]
DOCKED: USER
DOCKED: USER    (1) Final Intermolecular Energy     =  -9.36 kcal/mol
DOCKED: USER        vdW + Hbond + desolv Energy     =  -9.32 kcal/mol
DOCKED: USER        Electrostatic Energy            =  -0.04 kcal/mol
DOCKED: USER        Moving Ligand-Fixed Receptor    =  -9.36 kcal/mol
DOCKED: USER        Moving Ligand-Moving Receptor   =  +0.00 kcal/mol
DOCKED: USER    (2) Final Total Internal Energy     =  -0.85 kcal/mol
DOCKED: USER    (3) Torsional Free Energy           =  +2.98 kcal/mol
DOCKED: USER    (4) Unbound System's Energy         =  -0.85 kcal/mol
DOCKED: USER
DOCKED: USER
DOCKED: REMARK SMILES O/C(=C/CCOc1ccc(Cl)cc1Cl)[N-]/N=C/c1cccnc1F
DOCKED: REMARK SMILES IDX 2 1 1 2 15 4 16 5 17 6 18 7 23 8 19 9 22 10 20 11 21 12
DOCKED: REMARK SMILES IDX 24 13 3 14 4 15 5 16 6 17 7 18 8 19 13 20 9 21 12 22 10 23
DOCKED: REMARK SMILES IDX 14 24 11 25
DOCKED: REMARK H PARENT 1 3
DOCKED: USER                              x       y       z     vdW  Elec       q    Type
DOCKED: USER                           _______ _______ _______ _____ _____    ______ ____
DOCKED: ROOT
DOCKED: ATOM      1  C   UNL     1     140.592  73.894 221.949 -0.17 -0.00    +0.023 C  
DOCKED: ENDROOT
DOCKED: BRANCH   1   2
DOCKED: ATOM      2  O   UNL     1     139.458  74.602 222.353 -0.61 +0.08    -0.530 OA 
DOCKED: ATOM      3  H   UNL     1     138.811  74.233 223.040 -0.50 -0.17    +0.290 HD 
DOCKED: ENDBRANCH   1   2
DOCKED: BRANCH   1   4
DOCKED: ATOM      4  N   UNL     1     140.823  72.589 222.479 -0.23 +0.02    -0.546 NA 
DOCKED: BRANCH   4   5
DOCKED: ATOM      5  N   UNL     1     139.953  72.032 223.424 -0.23 +0.07    -0.372 NA 
DOCKED: BRANCH   5   6
DOCKED: ATOM      6  C   UNL     1     140.280  70.961 224.072 -0.35 -0.02    +0.099 C  
DOCKED: BRANCH   6   7
DOCKED: ATOM      7  C   UNL     1     140.290  70.927 225.552 -0.52 -0.01    +0.046 A  
DOCKED: ATOM      8  C   UNL     1     139.604  69.944 226.295 -0.31 -0.03    +0.221 A  
DOCKED: ATOM      9  C   UNL     1     141.012  71.907 226.250 -0.63 -0.00    +0.016 A  
DOCKED: ATOM     10  N   UNL     1     139.656  69.958 227.653 -0.33 +0.03    -0.228 NA 
DOCKED: ATOM     11  C   UNL     1     141.045  71.895 227.644 -0.83 -0.00    +0.021 A  
DOCKED: ATOM     12  C   UNL     1     140.355  70.901 228.336 -0.53 -0.02    +0.114 A  
DOCKED: ATOM     13  F   UNL     1     138.882  68.973 225.680 -0.11 +0.02    -0.184 F  
DOCKED: ENDBRANCH   6   7
DOCKED: ENDBRANCH   5   6
DOCKED: ENDBRANCH   4   5
DOCKED: ENDBRANCH   1   4
DOCKED: BRANCH   1  14
DOCKED: ATOM     14  C   UNL     1     141.446  74.435 221.070 -0.29 +0.00    -0.001 C  
DOCKED: BRANCH  14  15
DOCKED: ATOM     15  C   UNL     1     141.005  75.108 219.801 -0.14 -0.02    +0.071 C  
DOCKED: BRANCH  15  16
DOCKED: ATOM     16  C   UNL     1     139.927  76.163 220.077 -0.07 -0.07    +0.234 C  
DOCKED: BRANCH  16  17
DOCKED: ATOM     17  O   UNL     1     140.462  77.478 219.932 +0.00 +0.18    -0.492 OA 
DOCKED: BRANCH  17  18
DOCKED: ATOM     18  C   UNL     1     141.005  78.262 220.965 -0.22 -0.06    +0.137 A  
DOCKED: ATOM     19  C   UNL     1     140.938  77.881 222.320 -0.41 -0.02    +0.049 A  
DOCKED: ATOM     20  C   UNL     1     141.647  79.465 220.625 -0.28 -0.04    +0.084 A  
DOCKED: ATOM     21  C   UNL     1     141.499  78.694 223.310 -0.57 -0.01    +0.024 A  
DOCKED: ATOM     22  C   UNL     1     142.206  80.273 221.622 -0.43 -0.02    +0.045 A  
DOCKED: ATOM     23  C   UNL     1     142.133  79.889 222.963 -0.58 -0.01    +0.042 A  
DOCKED: ATOM     24  Cl  UNL     1     141.758  79.974 218.947 -0.35 +0.05    -0.080 Cl 
DOCKED: ATOM     25  Cl  UNL     1     142.839  80.903 224.208 -0.63 +0.01    -0.084 Cl 
DOCKED: ENDBRANCH  17  18
DOCKED: ENDBRANCH  16  17
DOCKED: ENDBRANCH  15  16
DOCKED: ENDBRANCH  14  15
DOCKED: ENDBRANCH   1  14
DOCKED: TORSDOF 10
DOCKED: TER
DOCKED: ENDMDL
________________________________________________________________________________


    FINAL DOCKED STATE:
    ________________________


Run:   12 / 20
Time taken for this run:   0.094s

DOCKED: MODEL        12
DOCKED: USER    Run = 12
DOCKED: USER
DOCKED: USER    Estimated Free Energy of Binding    =  -6.42 kcal/mol  [=(1)+(2)+(3)-(4)]
DOCKED: USER
DOCKED: USER    (1) Final Intermolecular Energy     =  -9.41 kcal/mol
DOCKED: USER        vdW + Hbond + desolv Energy     =  -9.60 kcal/mol
DOCKED: USER        Electrostatic Energy            =  +0.19 kcal/mol
DOCKED: USER        Moving Ligand-Fixed Receptor    =  -9.41 kcal/mol
DOCKED: USER        Moving Ligand-Moving Receptor   =  +0.00 kcal/mol
DOCKED: USER    (2) Final Total Internal Energy     =  -0.98 kcal/mol
DOCKED: USER    (3) Torsional Free Energy           =  +2.98 kcal/mol
DOCKED: USER    (4) Unbound System's Energy         =  -0.98 kcal/mol
DOCKED: USER
DOCKED: USER
DOCKED: REMARK SMILES O/C(=C/CCOc1ccc(Cl)cc1Cl)[N-]/N=C/c1cccnc1F
DOCKED: REMARK SMILES IDX 2 1 1 2 15 4 16 5 17 6 18 7 23 8 19 9 22 10 20 11 21 12
DOCKED: REMARK SMILES IDX 24 13 3 14 4 15 5 16 6 17 7 18 8 19 13 20 9 21 12 22 10 23
DOCKED: REMARK SMILES IDX 14 24 11 25
DOCKED: REMARK H PARENT 1 3
DOCKED: USER                              x       y       z     vdW  Elec       q    Type
DOCKED: USER                           _______ _______ _______ _____ _____    ______ ____
DOCKED: ROOT
DOCKED: ATOM      1  C   UNL     1     140.470  74.481 221.723 -0.24 -0.00    +0.023 C  
DOCKED: ENDROOT
DOCKED: BRANCH   1   2
DOCKED: ATOM      2  O   UNL     1     139.244  74.235 222.342 -0.56 +0.12    -0.530 OA 
DOCKED: ATOM      3  H   UNL     1     139.155  73.592 223.120 -0.44 -0.14    +0.290 HD 
DOCKED: ENDBRANCH   1   2
DOCKED: BRANCH   1   4
DOCKED: ATOM      4  N   UNL     1     141.071  75.769 221.853 -0.18 +0.16    -0.546 NA 
DOCKED: BRANCH   4   5
DOCKED: ATOM      5  N   UNL     1     140.528  76.731 222.713 -0.17 +0.09    -0.372 NA 
DOCKED: BRANCH   5   6
DOCKED: ATOM      6  C   UNL     1     140.301  77.936 222.297 -0.34 -0.03    +0.099 C  
DOCKED: BRANCH   6   7
DOCKED: ATOM      7  C   UNL     1     141.073  79.088 222.813 -0.45 -0.01    +0.046 A  
DOCKED: ATOM      8  C   UNL     1     140.466  80.171 223.485 -0.32 -0.04    +0.221 A  
DOCKED: ATOM      9  C   UNL     1     142.464  79.110 222.635 -0.50 -0.01    +0.016 A  
DOCKED: ATOM     10  N   UNL     1     141.228  81.199 223.945 -0.27 +0.03    -0.228 NA 
DOCKED: ATOM     11  C   UNL     1     143.218  80.181 223.118 -0.63 -0.01    +0.021 A  
DOCKED: ATOM     12  C   UNL     1     142.575  81.226 223.778 -0.52 -0.02    +0.114 A  
DOCKED: ATOM     13  F   UNL     1     139.124  80.213 223.682 -0.13 +0.02    -0.184 F  
DOCKED: ENDBRANCH   6   7
DOCKED: ENDBRANCH   5   6
DOCKED: ENDBRANCH   4   5
DOCKED: ENDBRANCH   1   4
DOCKED: BRANCH   1  14
DOCKED: ATOM     14  C   UNL     1     141.075  73.514 221.020 -0.26 +0.00    -0.001 C  
DOCKED: BRANCH  14  15
DOCKED: ATOM     15  C   UNL     1     141.433  72.174 221.601 -0.22 -0.01    +0.071 C  
DOCKED: BRANCH  15  16
DOCKED: ATOM     16  C   UNL     1     140.187  71.441 222.112 -0.18 -0.03    +0.234 C  
DOCKED: BRANCH  16  17
DOCKED: ATOM     17  O   UNL     1     139.863  71.862 223.437 -0.20 +0.10    -0.492 OA 
DOCKED: BRANCH  17  18
DOCKED: ATOM     18  C   UNL     1     140.058  71.111 224.608 -0.39 -0.02    +0.137 A  
DOCKED: ATOM     19  C   UNL     1     140.965  71.499 225.615 -0.56 -0.01    +0.049 A  
DOCKED: ATOM     20  C   UNL     1     139.310  69.934 224.781 -0.33 -0.01    +0.084 A  
DOCKED: ATOM     21  C   UNL     1     141.118  70.719 226.766 -0.60 -0.00    +0.024 A  
DOCKED: ATOM     22  C   UNL     1     139.469  69.158 225.935 -0.44 -0.01    +0.045 A  
DOCKED: ATOM     23  C   UNL     1     140.372  69.549 226.927 -0.54 -0.01    +0.042 A  
DOCKED: ATOM     24  Cl  UNL     1     138.164  69.417 223.552 -0.33 +0.01    -0.080 Cl 
DOCKED: ATOM     25  Cl  UNL     1     140.565  68.576 228.373 -0.79 +0.02    -0.084 Cl 
DOCKED: ENDBRANCH  17  18
DOCKED: ENDBRANCH  16  17
DOCKED: ENDBRANCH  15  16
DOCKED: ENDBRANCH  14  15
DOCKED: ENDBRANCH   1  14
DOCKED: TORSDOF 10
DOCKED: TER
DOCKED: ENDMDL
________________________________________________________________________________


    FINAL DOCKED STATE:
    ________________________


Run:   13 / 20
Time taken for this run:   0.094s

DOCKED: MODEL        13
DOCKED: USER    Run = 13
DOCKED: USER
DOCKED: USER    Estimated Free Energy of Binding    =  -5.40 kcal/mol  [=(1)+(2)+(3)-(4)]
DOCKED: USER
DOCKED: USER    (1) Final Intermolecular Energy     =  -8.38 kcal/mol
DOCKED: USER        vdW + Hbond + desolv Energy     =  -8.35 kcal/mol
DOCKED: USER        Electrostatic Energy            =  -0.03 kcal/mol
DOCKED: USER        Moving Ligand-Fixed Receptor    =  -8.38 kcal/mol
DOCKED: USER        Moving Ligand-Moving Receptor   =  +0.00 kcal/mol
DOCKED: USER    (2) Final Total Internal Energy     =  -1.45 kcal/mol
DOCKED: USER    (3) Torsional Free Energy           =  +2.98 kcal/mol
DOCKED: USER    (4) Unbound System's Energy         =  -1.45 kcal/mol
DOCKED: USER
DOCKED: USER
DOCKED: REMARK SMILES O/C(=C/CCOc1ccc(Cl)cc1Cl)[N-]/N=C/c1cccnc1F
DOCKED: REMARK SMILES IDX 2 1 1 2 15 4 16 5 17 6 18 7 23 8 19 9 22 10 20 11 21 12
DOCKED: REMARK SMILES IDX 24 13 3 14 4 15 5 16 6 17 7 18 8 19 13 20 9 21 12 22 10 23
DOCKED: REMARK SMILES IDX 14 24 11 25
DOCKED: REMARK H PARENT 1 3
DOCKED: USER                              x       y       z     vdW  Elec       q    Type
DOCKED: USER                           _______ _______ _______ _____ _____    ______ ____
DOCKED: ROOT
DOCKED: ATOM      1  C   UNL     1     138.043  69.007 224.411 -0.31 -0.00    +0.023 C  
DOCKED: ENDROOT
DOCKED: BRANCH   1   2
DOCKED: ATOM      2  O   UNL     1     137.306  69.497 225.491 +0.02 +0.03    -0.530 OA 
DOCKED: ATOM      3  H   UNL     1     136.567  70.180 225.370 +0.13 -0.02    +0.290 HD 
DOCKED: ENDBRANCH   1   2
DOCKED: BRANCH   1   4
DOCKED: ATOM      4  N   UNL     1     138.859  67.849 224.593 -0.41 -0.01    -0.546 NA 
DOCKED: BRANCH   4   5
DOCKED: ATOM      5  N   UNL     1     139.199  67.405 225.876 -0.75 -0.00    -0.372 NA 
DOCKED: BRANCH   5   6
DOCKED: ATOM      6  C   UNL     1     140.286  67.811 226.449 -0.60 -0.02    +0.099 C  
DOCKED: BRANCH   6   7
DOCKED: ATOM      7  C   UNL     1     140.486  69.235 226.803 -0.54 -0.01    +0.046 A  
DOCKED: ATOM      8  C   UNL     1     140.135  69.763 228.063 -0.43 -0.04    +0.221 A  
DOCKED: ATOM      9  C   UNL     1     141.050  70.099 225.852 -0.52 -0.00    +0.016 A  
DOCKED: ATOM     10  N   UNL     1     140.350  71.078 228.334 -0.44 +0.05    -0.228 NA 
DOCKED: ATOM     11  C   UNL     1     141.257  71.444 226.160 -0.65 -0.00    +0.021 A  
DOCKED: ATOM     12  C   UNL     1     140.898  71.920 227.420 -0.70 -0.02    +0.114 A  
DOCKED: ATOM     13  F   UNL     1     139.579  68.981 229.023 -0.15 +0.03    -0.184 F  
DOCKED: ENDBRANCH   6   7
DOCKED: ENDBRANCH   5   6
DOCKED: ENDBRANCH   4   5
DOCKED: ENDBRANCH   1   4
DOCKED: BRANCH   1  14
DOCKED: ATOM     14  C   UNL     1     137.977  69.614 223.219 -0.23 +0.00    -0.001 C  
DOCKED: BRANCH  14  15
DOCKED: ATOM     15  C   UNL     1     136.683  69.895 222.508 -0.10 -0.01    +0.071 C  
DOCKED: BRANCH  15  16
DOCKED: ATOM     16  C   UNL     1     136.110  71.257 222.916 -0.08 -0.04    +0.234 C  
DOCKED: BRANCH  16  17
DOCKED: ATOM     17  O   UNL     1     135.825  71.284 224.315 -0.05 +0.07    -0.492 OA 
DOCKED: BRANCH  17  18
DOCKED: ATOM     18  C   UNL     1     135.024  72.234 224.971 -0.13 -0.01    +0.137 A  
DOCKED: ATOM     19  C   UNL     1     135.072  73.608 224.662 -0.26 -0.01    +0.049 A  
DOCKED: ATOM     20  C   UNL     1     134.137  71.789 225.967 -0.26 -0.00    +0.084 A  
DOCKED: ATOM     21  C   UNL     1     134.249  74.514 225.341 -0.33 -0.00    +0.024 A  
DOCKED: ATOM     22  C   UNL     1     133.318  72.701 226.642 -0.37 -0.00    +0.045 A  
DOCKED: ATOM     23  C   UNL     1     133.373  74.062 226.330 -0.31 +0.00    +0.042 A  
DOCKED: ATOM     24  Cl  UNL     1     134.042  70.084 226.379 -0.41 +0.00    -0.080 Cl 
DOCKED: ATOM     25  Cl  UNL     1     132.342  75.200 227.176 -0.48 +0.00    -0.084 Cl 
DOCKED: ENDBRANCH  17  18
DOCKED: ENDBRANCH  16  17
DOCKED: ENDBRANCH  15  16
DOCKED: ENDBRANCH  14  15
DOCKED: ENDBRANCH   1  14
DOCKED: TORSDOF 10
DOCKED: TER
DOCKED: ENDMDL
________________________________________________________________________________


    FINAL DOCKED STATE:
    ________________________


Run:   14 / 20
Time taken for this run:   0.094s

DOCKED: MODEL        14
DOCKED: USER    Run = 14
DOCKED: USER
DOCKED: USER    Estimated Free Energy of Binding    =  -5.69 kcal/mol  [=(1)+(2)+(3)-(4)]
DOCKED: USER
DOCKED: USER    (1) Final Intermolecular Energy     =  -8.68 kcal/mol
DOCKED: USER        vdW + Hbond + desolv Energy     =  -8.57 kcal/mol
DOCKED: USER        Electrostatic Energy            =  -0.11 kcal/mol
DOCKED: USER        Moving Ligand-Fixed Receptor    =  -8.68 kcal/mol
DOCKED: USER        Moving Ligand-Moving Receptor   =  +0.00 kcal/mol
DOCKED: USER    (2) Final Total Internal Energy     =  -0.63 kcal/mol
DOCKED: USER    (3) Torsional Free Energy           =  +2.98 kcal/mol
DOCKED: USER    (4) Unbound System's Energy         =  -0.63 kcal/mol
DOCKED: USER
DOCKED: USER
DOCKED: REMARK SMILES O/C(=C/CCOc1ccc(Cl)cc1Cl)[N-]/N=C/c1cccnc1F
DOCKED: REMARK SMILES IDX 2 1 1 2 15 4 16 5 17 6 18 7 23 8 19 9 22 10 20 11 21 12
DOCKED: REMARK SMILES IDX 24 13 3 14 4 15 5 16 6 17 7 18 8 19 13 20 9 21 12 22 10 23
DOCKED: REMARK SMILES IDX 14 24 11 25
DOCKED: REMARK H PARENT 1 3
DOCKED: USER                              x       y       z     vdW  Elec       q    Type
DOCKED: USER                           _______ _______ _______ _____ _____    ______ ____
DOCKED: ROOT
DOCKED: ATOM      1  C   UNL     1     140.528  74.386 221.681 -0.26 -0.00    +0.023 C  
DOCKED: ENDROOT
DOCKED: BRANCH   1   2
DOCKED: ATOM      2  O   UNL     1     141.728  74.900 221.187 -0.14 +0.16    -0.530 OA 
DOCKED: ATOM      3  H   UNL     1     142.227  75.646 221.659 -0.44 -0.18    +0.290 HD 
DOCKED: ENDBRANCH   1   2
DOCKED: BRANCH   1   4
DOCKED: ATOM      4  N   UNL     1     140.565  73.388 222.702 -0.32 -0.06    -0.546 NA 
DOCKED: BRANCH   4   5
DOCKED: ATOM      5  N   UNL     1     140.186  72.068 222.430 -0.19 +0.05    -0.372 NA 
DOCKED: BRANCH   5   6
DOCKED: ATOM      6  C   UNL     1     139.381  71.436 223.221 -0.28 -0.02    +0.099 C  
DOCKED: BRANCH   6   7
DOCKED: ATOM      7  C   UNL     1     139.803  71.014 224.576 -0.42 -0.01    +0.046 A  
DOCKED: ATOM      8  C   UNL     1     139.371  69.808 225.166 -0.27 -0.03    +0.221 A  
DOCKED: ATOM      9  C   UNL     1     140.671  71.839 225.306 -0.43 -0.00    +0.016 A  
DOCKED: ATOM     10  N   UNL     1     139.799  69.467 226.411 -0.28 +0.03    -0.228 NA 
DOCKED: ATOM     11  C   UNL     1     141.092  71.462 226.582 -0.70 -0.00    +0.021 A  
DOCKED: ATOM     12  C   UNL     1     140.641  70.260 227.123 -0.51 -0.02    +0.114 A  
DOCKED: ATOM     13  F   UNL     1     138.525  68.969 224.515 -0.09 +0.02    -0.184 F  
DOCKED: ENDBRANCH   6   7
DOCKED: ENDBRANCH   5   6
DOCKED: ENDBRANCH   4   5
DOCKED: ENDBRANCH   1   4
DOCKED: BRANCH   1  14
DOCKED: ATOM     14  C   UNL     1     139.358  74.831 221.205 -0.23 +0.00    -0.001 C  
DOCKED: BRANCH  14  15
DOCKED: ATOM     15  C   UNL     1     138.279  75.407 222.078 -0.22 -0.02    +0.071 C  
DOCKED: BRANCH  15  16
DOCKED: ATOM     16  C   UNL     1     137.853  76.797 221.590 -0.12 -0.05    +0.234 C  
DOCKED: BRANCH  16  17
DOCKED: ATOM     17  O   UNL     1     138.022  77.766 222.624 -0.09 +0.08    -0.492 OA 
DOCKED: BRANCH  17  18
DOCKED: ATOM     18  C   UNL     1     139.210  78.459 222.914 -0.25 -0.02    +0.137 A  
DOCKED: ATOM     19  C   UNL     1     140.485  77.914 222.662 -0.40 -0.01    +0.049 A  
DOCKED: ATOM     20  C   UNL     1     139.115  79.747 223.469 -0.35 -0.01    +0.084 A  
DOCKED: ATOM     21  C   UNL     1     141.638  78.646 222.963 -0.53 -0.01    +0.024 A  
DOCKED: ATOM     22  C   UNL     1     140.274  80.473 223.768 -0.39 -0.01    +0.045 A  
DOCKED: ATOM     23  C   UNL     1     141.534  79.925 223.516 -0.55 -0.01    +0.042 A  
DOCKED: ATOM     24  Cl  UNL     1     137.545  80.465 223.794 -0.38 +0.01    -0.080 Cl 
DOCKED: ATOM     25  Cl  UNL     1     142.982  80.841 223.890 -0.72 +0.02    -0.084 Cl 
DOCKED: ENDBRANCH  17  18
DOCKED: ENDBRANCH  16  17
DOCKED: ENDBRANCH  15  16
DOCKED: ENDBRANCH  14  15
DOCKED: ENDBRANCH   1  14
DOCKED: TORSDOF 10
DOCKED: TER
DOCKED: ENDMDL
________________________________________________________________________________


    FINAL DOCKED STATE:
    ________________________


Run:   15 / 20
Time taken for this run:   0.094s

DOCKED: MODEL        15
DOCKED: USER    Run = 15
DOCKED: USER
DOCKED: USER    Estimated Free Energy of Binding    =  -6.31 kcal/mol  [=(1)+(2)+(3)-(4)]
DOCKED: USER
DOCKED: USER    (1) Final Intermolecular Energy     =  -9.29 kcal/mol
DOCKED: USER        vdW + Hbond + desolv Energy     =  -9.40 kcal/mol
DOCKED: USER        Electrostatic Energy            =  +0.11 kcal/mol
DOCKED: USER        Moving Ligand-Fixed Receptor    =  -9.29 kcal/mol
DOCKED: USER        Moving Ligand-Moving Receptor   =  +0.00 kcal/mol
DOCKED: USER    (2) Final Total Internal Energy     =  -0.59 kcal/mol
DOCKED: USER    (3) Torsional Free Energy           =  +2.98 kcal/mol
DOCKED: USER    (4) Unbound System's Energy         =  -0.59 kcal/mol
DOCKED: USER
DOCKED: USER
DOCKED: REMARK SMILES O/C(=C/CCOc1ccc(Cl)cc1Cl)[N-]/N=C/c1cccnc1F
DOCKED: REMARK SMILES IDX 2 1 1 2 15 4 16 5 17 6 18 7 23 8 19 9 22 10 20 11 21 12
DOCKED: REMARK SMILES IDX 24 13 3 14 4 15 5 16 6 17 7 18 8 19 13 20 9 21 12 22 10 23
DOCKED: REMARK SMILES IDX 14 24 11 25
DOCKED: REMARK H PARENT 1 3
DOCKED: USER                              x       y       z     vdW  Elec       q    Type
DOCKED: USER                           _______ _______ _______ _____ _____    ______ ____
DOCKED: ROOT
DOCKED: ATOM      1  C   UNL     1     141.123  74.401 221.378 -0.28 -0.00    +0.023 C  
DOCKED: ENDROOT
DOCKED: BRANCH   1   2
DOCKED: ATOM      2  O   UNL     1     142.328  74.936 220.918 -0.10 +0.21    -0.530 OA 
DOCKED: ATOM      3  H   UNL     1     142.669  75.837 221.232 -0.36 -0.24    +0.290 HD 
DOCKED: ENDBRANCH   1   2
DOCKED: BRANCH   1   4
DOCKED: ATOM      4  N   UNL     1     140.194  75.251 222.051 -0.44 +0.07    -0.546 NA 
DOCKED: BRANCH   4   5
DOCKED: ATOM      5  N   UNL     1     140.625  76.420 222.691 -0.17 +0.09    -0.372 NA 
DOCKED: BRANCH   5   6
DOCKED: ATOM      6  C   UNL     1     140.217  77.581 222.289 -0.34 -0.03    +0.099 C  
DOCKED: BRANCH   6   7
DOCKED: ATOM      7  C   UNL     1     140.885  78.827 222.726 -0.43 -0.01    +0.046 A  
DOCKED: ATOM      8  C   UNL     1     140.211  79.844 223.433 -0.32 -0.04    +0.221 A  
DOCKED: ATOM      9  C   UNL     1     142.245  79.009 222.433 -0.49 -0.01    +0.016 A  
DOCKED: ATOM     10  N   UNL     1     140.879  80.965 223.817 -0.28 +0.03    -0.228 NA 
DOCKED: ATOM     11  C   UNL     1     142.903  80.170 222.839 -0.63 -0.01    +0.021 A  
DOCKED: ATOM     12  C   UNL     1     142.196  81.147 223.539 -0.53 -0.02    +0.114 A  
DOCKED: ATOM     13  F   UNL     1     138.894  79.733 223.742 -0.13 +0.02    -0.184 F  
DOCKED: ENDBRANCH   6   7
DOCKED: ENDBRANCH   5   6
DOCKED: ENDBRANCH   4   5
DOCKED: ENDBRANCH   1   4
DOCKED: BRANCH   1  14
DOCKED: ATOM     14  C   UNL     1     140.842  73.106 221.180 -0.26 +0.00    -0.001 C  
DOCKED: BRANCH  14  15
DOCKED: ATOM     15  C   UNL     1     141.056  72.048 222.227 -0.21 -0.00    +0.071 C  
DOCKED: BRANCH  15  16
DOCKED: ATOM     16  C   UNL     1     139.744  71.335 222.571 -0.20 -0.04    +0.234 C  
DOCKED: BRANCH  16  17
DOCKED: ATOM     17  O   UNL     1     139.361  71.611 223.919 -0.13 +0.13    -0.492 OA 
DOCKED: BRANCH  17  18
DOCKED: ATOM     18  C   UNL     1     139.786  70.901 225.055 -0.38 -0.02    +0.137 A  
DOCKED: ATOM     19  C   UNL     1     140.688  71.443 225.993 -0.59 -0.01    +0.049 A  
DOCKED: ATOM     20  C   UNL     1     139.281  69.606 225.264 -0.36 -0.01    +0.084 A  
DOCKED: ATOM     21  C   UNL     1     141.076  70.699 227.111 -0.62 -0.00    +0.024 A  
DOCKED: ATOM     22  C   UNL     1     139.674  68.867 226.385 -0.51 -0.01    +0.045 A  
DOCKED: ATOM     23  C   UNL     1     140.571  69.412 227.308 -0.57 -0.01    +0.042 A  
DOCKED: ATOM     24  Cl  UNL     1     138.150  68.895 224.122 -0.38 +0.01    -0.080 Cl 
DOCKED: ATOM     25  Cl  UNL     1     141.057  68.482 228.714 -0.71 +0.02    -0.084 Cl 
DOCKED: ENDBRANCH  17  18
DOCKED: ENDBRANCH  16  17
DOCKED: ENDBRANCH  15  16
DOCKED: ENDBRANCH  14  15
DOCKED: ENDBRANCH   1  14
DOCKED: TORSDOF 10
DOCKED: TER
DOCKED: ENDMDL
________________________________________________________________________________


    FINAL DOCKED STATE:
    ________________________


Run:   16 / 20
Time taken for this run:   0.094s

DOCKED: MODEL        16
DOCKED: USER    Run = 16
DOCKED: USER
DOCKED: USER    Estimated Free Energy of Binding    =  -5.96 kcal/mol  [=(1)+(2)+(3)-(4)]
DOCKED: USER
DOCKED: USER    (1) Final Intermolecular Energy     =  -8.94 kcal/mol
DOCKED: USER        vdW + Hbond + desolv Energy     =  -8.94 kcal/mol
DOCKED: USER        Electrostatic Energy            =  -0.00 kcal/mol
DOCKED: USER        Moving Ligand-Fixed Receptor    =  -8.94 kcal/mol
DOCKED: USER        Moving Ligand-Moving Receptor   =  +0.00 kcal/mol
DOCKED: USER    (2) Final Total Internal Energy     =  -0.84 kcal/mol
DOCKED: USER    (3) Torsional Free Energy           =  +2.98 kcal/mol
DOCKED: USER    (4) Unbound System's Energy         =  -0.84 kcal/mol
DOCKED: USER
DOCKED: USER
DOCKED: REMARK SMILES O/C(=C/CCOc1ccc(Cl)cc1Cl)[N-]/N=C/c1cccnc1F
DOCKED: REMARK SMILES IDX 2 1 1 2 15 4 16 5 17 6 18 7 23 8 19 9 22 10 20 11 21 12
DOCKED: REMARK SMILES IDX 24 13 3 14 4 15 5 16 6 17 7 18 8 19 13 20 9 21 12 22 10 23
DOCKED: REMARK SMILES IDX 14 24 11 25
DOCKED: REMARK H PARENT 1 3
DOCKED: USER                              x       y       z     vdW  Elec       q    Type
DOCKED: USER                           _______ _______ _______ _____ _____    ______ ____
DOCKED: ROOT
DOCKED: ATOM      1  C   UNL     1     138.726  69.276 223.820 -0.29 -0.00    +0.023 C  
DOCKED: ENDROOT
DOCKED: BRANCH   1   2
DOCKED: ATOM      2  O   UNL     1     139.012  68.609 222.627 -0.04 +0.10    -0.530 OA 
DOCKED: ATOM      3  H   UNL     1     139.503  67.722 222.613 +0.01 -0.07    +0.290 HD 
DOCKED: ENDBRANCH   1   2
DOCKED: BRANCH   1   4
DOCKED: ATOM      4  N   UNL     1     138.319  68.520 224.961 -0.23 +0.01    -0.546 NA 
DOCKED: BRANCH   4   5
DOCKED: ATOM      5  N   UNL     1     139.232  67.711 225.649 -0.71 +0.01    -0.372 NA 
DOCKED: BRANCH   5   6
DOCKED: ATOM      6  C   UNL     1     139.701  68.075 226.799 -0.56 -0.02    +0.099 C  
DOCKED: BRANCH   6   7
DOCKED: ATOM      7  C   UNL     1     140.144  69.465 227.047 -0.54 -0.01    +0.046 A  
DOCKED: ATOM      8  C   UNL     1     139.723  70.209 228.169 -0.40 -0.03    +0.221 A  
DOCKED: ATOM      9  C   UNL     1     141.020  70.073 226.135 -0.54 -0.00    +0.016 A  
DOCKED: ATOM     10  N   UNL     1     140.170  71.481 228.349 -0.47 +0.05    -0.228 NA 
DOCKED: ATOM     11  C   UNL     1     141.460  71.380 226.347 -0.63 -0.00    +0.021 A  
DOCKED: ATOM     12  C   UNL     1     141.020  72.075 227.473 -0.72 -0.02    +0.114 A  
DOCKED: ATOM     13  F   UNL     1     138.871  69.681 229.084 -0.15 +0.02    -0.184 F  
DOCKED: ENDBRANCH   6   7
DOCKED: ENDBRANCH   5   6
DOCKED: ENDBRANCH   4   5
DOCKED: ENDBRANCH   1   4
DOCKED: BRANCH   1  14
DOCKED: ATOM     14  C   UNL     1     138.838  70.609 223.890 -0.33 +0.00    -0.001 C  
DOCKED: BRANCH  14  15
DOCKED: ATOM     15  C   UNL     1     139.951  71.377 223.235 -0.33 -0.01    +0.071 C  
DOCKED: BRANCH  15  16
DOCKED: ATOM     16  C   UNL     1     139.403  72.489 222.334 -0.18 -0.05    +0.234 C  
DOCKED: BRANCH  16  17
DOCKED: ATOM     17  O   UNL     1     140.116  72.532 221.097 -0.05 +0.08    -0.492 OA 
DOCKED: BRANCH  17  18
DOCKED: ATOM     18  C   UNL     1     141.501  72.720 220.954 -0.19 -0.02    +0.137 A  
DOCKED: ATOM     19  C   UNL     1     142.407  71.643 220.867 -0.20 -0.01    +0.049 A  
DOCKED: ATOM     20  C   UNL     1     141.995  74.034 220.887 -0.24 -0.02    +0.084 A  
DOCKED: ATOM     21  C   UNL     1     143.777  71.883 220.719 -0.30 -0.00    +0.024 A  
DOCKED: ATOM     22  C   UNL     1     143.368  74.266 220.740 -0.28 -0.02    +0.045 A  
DOCKED: ATOM     23  C   UNL     1     144.258  73.192 220.656 -0.40 -0.01    +0.042 A  
DOCKED: ATOM     24  Cl  UNL     1     140.900  75.405 220.988 -0.37 +0.02    -0.080 Cl 
DOCKED: ATOM     25  Cl  UNL     1     145.976  73.489 220.468 -0.80 -0.00    -0.084 Cl 
DOCKED: ENDBRANCH  17  18
DOCKED: ENDBRANCH  16  17
DOCKED: ENDBRANCH  15  16
DOCKED: ENDBRANCH  14  15
DOCKED: ENDBRANCH   1  14
DOCKED: TORSDOF 10
DOCKED: TER
DOCKED: ENDMDL
________________________________________________________________________________


    FINAL DOCKED STATE:
    ________________________


Run:   17 / 20
Time taken for this run:   0.094s

DOCKED: MODEL        17
DOCKED: USER    Run = 17
DOCKED: USER
DOCKED: USER    Estimated Free Energy of Binding    =  -6.42 kcal/mol  [=(1)+(2)+(3)-(4)]
DOCKED: USER
DOCKED: USER    (1) Final Intermolecular Energy     =  -9.41 kcal/mol
DOCKED: USER        vdW + Hbond + desolv Energy     =  -9.31 kcal/mol
DOCKED: USER        Electrostatic Energy            =  -0.10 kcal/mol
DOCKED: USER        Moving Ligand-Fixed Receptor    =  -9.41 kcal/mol
DOCKED: USER        Moving Ligand-Moving Receptor   =  +0.00 kcal/mol
DOCKED: USER    (2) Final Total Internal Energy     =  -0.71 kcal/mol
DOCKED: USER    (3) Torsional Free Energy           =  +2.98 kcal/mol
DOCKED: USER    (4) Unbound System's Energy         =  -0.71 kcal/mol
DOCKED: USER
DOCKED: USER
DOCKED: REMARK SMILES O/C(=C/CCOc1ccc(Cl)cc1Cl)[N-]/N=C/c1cccnc1F
DOCKED: REMARK SMILES IDX 2 1 1 2 15 4 16 5 17 6 18 7 23 8 19 9 22 10 20 11 21 12
DOCKED: REMARK SMILES IDX 24 13 3 14 4 15 5 16 6 17 7 18 8 19 13 20 9 21 12 22 10 23
DOCKED: REMARK SMILES IDX 14 24 11 25
DOCKED: REMARK H PARENT 1 3
DOCKED: USER                              x       y       z     vdW  Elec       q    Type
DOCKED: USER                           _______ _______ _______ _____ _____    ______ ____
DOCKED: ROOT
DOCKED: ATOM      1  C   UNL     1     140.663  73.165 222.031 -0.25 -0.00    +0.023 C  
DOCKED: ENDROOT
DOCKED: BRANCH   1   2
DOCKED: ATOM      2  O   UNL     1     139.636  74.058 222.342 -0.70 +0.07    -0.530 OA 
DOCKED: ATOM      3  H   UNL     1     138.950  73.858 223.062 -0.49 -0.16    +0.290 HD 
DOCKED: ENDBRANCH   1   2
DOCKED: BRANCH   1   4
DOCKED: ATOM      4  N   UNL     1     140.855  72.011 222.850 -0.07 +0.03    -0.546 NA 
DOCKED: BRANCH   4   5
DOCKED: ATOM      5  N   UNL     1     139.952  71.697 223.873 -0.19 +0.07    -0.372 NA 
DOCKED: BRANCH   5   6
DOCKED: ATOM      6  C   UNL     1     140.376  71.344 225.043 -0.45 -0.02    +0.099 C  
DOCKED: BRANCH   6   7
DOCKED: ATOM      7  C   UNL     1     140.209  69.959 225.538 -0.44 -0.01    +0.046 A  
DOCKED: ATOM      8  C   UNL     1     139.316  69.042 224.946 -0.27 -0.03    +0.221 A  
DOCKED: ATOM      9  C   UNL     1     140.968  69.534 226.639 -0.55 -0.00    +0.016 A  
DOCKED: ATOM     10  N   UNL     1     139.210  67.779 225.440 -0.82 +0.00    -0.228 NA 
DOCKED: ATOM     11  C   UNL     1     140.836  68.232 227.123 -0.65 -0.01    +0.021 A  
DOCKED: ATOM     12  C   UNL     1     139.944  67.359 226.503 -0.55 -0.02    +0.114 A  
DOCKED: ATOM     13  F   UNL     1     138.548  69.393 223.884 -0.07 +0.03    -0.184 F  
DOCKED: ENDBRANCH   6   7
DOCKED: ENDBRANCH   5   6
DOCKED: ENDBRANCH   4   5
DOCKED: ENDBRANCH   1   4
DOCKED: BRANCH   1  14
DOCKED: ATOM     14  C   UNL     1     141.452  73.389 220.972 -0.27 +0.00    -0.001 C  
DOCKED: BRANCH  14  15
DOCKED: ATOM     15  C   UNL     1     142.006  74.744 220.630 -0.26 -0.02    +0.071 C  
DOCKED: BRANCH  15  16
DOCKED: ATOM     16  C   UNL     1     141.084  75.492 219.661 -0.09 -0.08    +0.234 C  
DOCKED: BRANCH  16  17
DOCKED: ATOM     17  O   UNL     1     140.240  76.399 220.370 -0.01 +0.15    -0.492 OA 
DOCKED: BRANCH  17  18
DOCKED: ATOM     18  C   UNL     1     140.674  77.474 221.164 -0.22 -0.05    +0.137 A  
DOCKED: ATOM     19  C   UNL     1     141.829  78.223 220.860 -0.32 -0.03    +0.049 A  
DOCKED: ATOM     20  C   UNL     1     139.919  77.817 222.299 -0.32 -0.02    +0.084 A  
DOCKED: ATOM     21  C   UNL     1     142.217  79.288 221.680 -0.37 -0.01    +0.024 A  
DOCKED: ATOM     22  C   UNL     1     140.313  78.883 223.114 -0.41 -0.01    +0.045 A  
DOCKED: ATOM     23  C   UNL     1     141.460  79.619 222.806 -0.49 -0.01    +0.042 A  
DOCKED: ATOM     24  Cl  UNL     1     138.469  76.913 222.711 -0.33 +0.01    -0.080 Cl 
DOCKED: ATOM     25  Cl  UNL     1     141.948  80.957 223.830 -0.72 +0.01    -0.084 Cl 
DOCKED: ENDBRANCH  17  18
DOCKED: ENDBRANCH  16  17
DOCKED: ENDBRANCH  15  16
DOCKED: ENDBRANCH  14  15
DOCKED: ENDBRANCH   1  14
DOCKED: TORSDOF 10
DOCKED: TER
DOCKED: ENDMDL
________________________________________________________________________________


    FINAL DOCKED STATE:
    ________________________


Run:   18 / 20
Time taken for this run:   0.094s

DOCKED: MODEL        18
DOCKED: USER    Run = 18
DOCKED: USER
DOCKED: USER    Estimated Free Energy of Binding    =  -6.69 kcal/mol  [=(1)+(2)+(3)-(4)]
DOCKED: USER
DOCKED: USER    (1) Final Intermolecular Energy     =  -9.67 kcal/mol
DOCKED: USER        vdW + Hbond + desolv Energy     =  -9.62 kcal/mol
DOCKED: USER        Electrostatic Energy            =  -0.04 kcal/mol
DOCKED: USER        Moving Ligand-Fixed Receptor    =  -9.67 kcal/mol
DOCKED: USER        Moving Ligand-Moving Receptor   =  +0.00 kcal/mol
DOCKED: USER    (2) Final Total Internal Energy     =  -0.84 kcal/mol
DOCKED: USER    (3) Torsional Free Energy           =  +2.98 kcal/mol
DOCKED: USER    (4) Unbound System's Energy         =  -0.84 kcal/mol
DOCKED: USER
DOCKED: USER
DOCKED: REMARK SMILES O/C(=C/CCOc1ccc(Cl)cc1Cl)[N-]/N=C/c1cccnc1F
DOCKED: REMARK SMILES IDX 2 1 1 2 15 4 16 5 17 6 18 7 23 8 19 9 22 10 20 11 21 12
DOCKED: REMARK SMILES IDX 24 13 3 14 4 15 5 16 6 17 7 18 8 19 13 20 9 21 12 22 10 23
DOCKED: REMARK SMILES IDX 14 24 11 25
DOCKED: REMARK H PARENT 1 3
DOCKED: USER                              x       y       z     vdW  Elec       q    Type
DOCKED: USER                           _______ _______ _______ _____ _____    ______ ____
DOCKED: ROOT
DOCKED: ATOM      1  C   UNL     1     140.694  73.183 221.958 -0.29 -0.00    +0.023 C  
DOCKED: ENDROOT
DOCKED: BRANCH   1   2
DOCKED: ATOM      2  O   UNL     1     139.696  74.080 222.343 -0.71 +0.06    -0.530 OA 
DOCKED: ATOM      3  H   UNL     1     138.990  73.835 223.028 -0.48 -0.15    +0.290 HD 
DOCKED: ENDBRANCH   1   2
DOCKED: BRANCH   1   4
DOCKED: ATOM      4  N   UNL     1     140.768  71.907 222.594 -0.09 +0.04    -0.546 NA 
DOCKED: BRANCH   4   5
DOCKED: ATOM      5  N   UNL     1     139.733  71.456 223.421 -0.17 +0.07    -0.372 NA 
DOCKED: BRANCH   5   6
DOCKED: ATOM      6  C   UNL     1     139.931  70.490 224.259 -0.34 -0.02    +0.099 C  
DOCKED: BRANCH   6   7
DOCKED: ATOM      7  C   UNL     1     140.308  70.755 225.666 -0.52 -0.01    +0.046 A  
DOCKED: ATOM      8  C   UNL     1     139.954  69.892 226.724 -0.36 -0.03    +0.221 A  
DOCKED: ATOM      9  C   UNL     1     141.051  71.907 225.966 -0.56 -0.00    +0.016 A  
DOCKED: ATOM     10  N   UNL     1     140.335  70.183 227.997 -0.37 +0.04    -0.228 NA 
DOCKED: ATOM     11  C   UNL     1     141.427  72.178 227.282 -0.79 -0.00    +0.021 A  
DOCKED: ATOM     12  C   UNL     1     141.057  71.295 228.294 -0.61 -0.02    +0.114 A  
DOCKED: ATOM     13  F   UNL     1     139.230  68.766 226.502 -0.14 +0.02    -0.184 F  
DOCKED: ENDBRANCH   6   7
DOCKED: ENDBRANCH   5   6
DOCKED: ENDBRANCH   4   5
DOCKED: ENDBRANCH   1   4
DOCKED: BRANCH   1  14
DOCKED: ATOM     14  C   UNL     1     141.566  73.518 220.998 -0.27 +0.00    -0.001 C  
DOCKED: BRANCH  14  15
DOCKED: ATOM     15  C   UNL     1     142.133  74.902 220.846 -0.26 -0.03    +0.071 C  
DOCKED: BRANCH  15  16
DOCKED: ATOM     16  C   UNL     1     141.341  75.718 219.818 -0.12 -0.09    +0.234 C  
DOCKED: BRANCH  16  17
DOCKED: ATOM     17  O   UNL     1     140.572  76.731 220.466 -0.02 +0.17    -0.492 OA 
DOCKED: BRANCH  17  18
DOCKED: ATOM     18  C   UNL     1     141.074  77.710 221.341 -0.27 -0.06    +0.137 A  
DOCKED: ATOM     19  C   UNL     1     141.012  77.577 222.742 -0.42 -0.02    +0.049 A  
DOCKED: ATOM     20  C   UNL     1     141.668  78.859 220.790 -0.28 -0.05    +0.084 A  
DOCKED: ATOM     21  C   UNL     1     141.532  78.577 223.570 -0.56 -0.01    +0.024 A  
DOCKED: ATOM     22  C   UNL     1     142.186  79.856 221.625 -0.41 -0.02    +0.045 A  
DOCKED: ATOM     23  C   UNL     1     142.118  79.716 223.014 -0.58 -0.01    +0.042 A  
DOCKED: ATOM     24  Cl  UNL     1     141.771  79.062 219.048 -0.34 +0.05    -0.080 Cl 
DOCKED: ATOM     25  Cl  UNL     1     142.771  80.967 224.056 -0.66 +0.01    -0.084 Cl 
DOCKED: ENDBRANCH  17  18
DOCKED: ENDBRANCH  16  17
DOCKED: ENDBRANCH  15  16
DOCKED: ENDBRANCH  14  15
DOCKED: ENDBRANCH   1  14
DOCKED: TORSDOF 10
DOCKED: TER
DOCKED: ENDMDL
________________________________________________________________________________


    FINAL DOCKED STATE:
    ________________________


Run:   19 / 20
Time taken for this run:   0.094s

DOCKED: MODEL        19
DOCKED: USER    Run = 19
DOCKED: USER
DOCKED: USER    Estimated Free Energy of Binding    =  -5.27 kcal/mol  [=(1)+(2)+(3)-(4)]
DOCKED: USER
DOCKED: USER    (1) Final Intermolecular Energy     =  -8.26 kcal/mol
DOCKED: USER        vdW + Hbond + desolv Energy     =  -8.24 kcal/mol
DOCKED: USER        Electrostatic Energy            =  -0.01 kcal/mol
DOCKED: USER        Moving Ligand-Fixed Receptor    =  -8.26 kcal/mol
DOCKED: USER        Moving Ligand-Moving Receptor   =  +0.00 kcal/mol
DOCKED: USER    (2) Final Total Internal Energy     =  -1.55 kcal/mol
DOCKED: USER    (3) Torsional Free Energy           =  +2.98 kcal/mol
DOCKED: USER    (4) Unbound System's Energy         =  -1.55 kcal/mol
DOCKED: USER
DOCKED: USER
DOCKED: REMARK SMILES O/C(=C/CCOc1ccc(Cl)cc1Cl)[N-]/N=C/c1cccnc1F
DOCKED: REMARK SMILES IDX 2 1 1 2 15 4 16 5 17 6 18 7 23 8 19 9 22 10 20 11 21 12
DOCKED: REMARK SMILES IDX 24 13 3 14 4 15 5 16 6 17 7 18 8 19 13 20 9 21 12 22 10 23
DOCKED: REMARK SMILES IDX 14 24 11 25
DOCKED: REMARK H PARENT 1 3
DOCKED: USER                              x       y       z     vdW  Elec       q    Type
DOCKED: USER                           _______ _______ _______ _____ _____    ______ ____
DOCKED: ROOT
DOCKED: ATOM      1  C   UNL     1     138.408  68.744 224.590 -0.32 -0.00    +0.023 C  
DOCKED: ENDROOT
DOCKED: BRANCH   1   2
DOCKED: ATOM      2  O   UNL     1     137.846  68.412 223.356 -0.06 +0.05    -0.530 OA 
DOCKED: ATOM      3  H   UNL     1     137.094  68.954 222.945 +0.08 -0.03    +0.290 HD 
DOCKED: ENDBRANCH   1   2
DOCKED: BRANCH   1   4
DOCKED: ATOM      4  N   UNL     1     138.833  67.700 225.466 -0.50 -0.05    -0.546 NA 
DOCKED: BRANCH   4   5
DOCKED: ATOM      5  N   UNL     1     140.186  67.537 225.786 -0.31 +0.07    -0.372 NA 
DOCKED: BRANCH   5   6
DOCKED: ATOM      6  C   UNL     1     140.670  68.029 226.882 -0.60 -0.02    +0.099 C  
DOCKED: BRANCH   6   7
DOCKED: ATOM      7  C   UNL     1     140.679  69.487 227.135 -0.55 -0.01    +0.046 A  
DOCKED: ATOM      8  C   UNL     1     139.981  70.077 228.209 -0.42 -0.04    +0.221 A  
DOCKED: ATOM      9  C   UNL     1     141.412  70.322 226.279 -0.52 -0.00    +0.016 A  
DOCKED: ATOM     10  N   UNL     1     140.032  71.423 228.398 -0.43 +0.05    -0.228 NA 
DOCKED: ATOM     11  C   UNL     1     141.445  71.699 226.498 -0.68 -0.00    +0.021 A  
DOCKED: ATOM     12  C   UNL     1     140.742  72.237 227.575 -0.67 -0.03    +0.114 A  
DOCKED: ATOM     13  F   UNL     1     139.246  69.326 229.069 -0.15 +0.02    -0.184 F  
DOCKED: ENDBRANCH   6   7
DOCKED: ENDBRANCH   5   6
DOCKED: ENDBRANCH   4   5
DOCKED: ENDBRANCH   1   4
DOCKED: BRANCH   1  14
DOCKED: ATOM     14  C   UNL     1     138.551  70.029 224.941 -0.34 +0.00    -0.001 C  
DOCKED: BRANCH  14  15
DOCKED: ATOM     15  C   UNL     1     138.807  71.130 223.949 -0.29 -0.02    +0.071 C  
DOCKED: BRANCH  15  16
DOCKED: ATOM     16  C   UNL     1     137.548  71.445 223.134 -0.13 -0.06    +0.234 C  
DOCKED: BRANCH  16  17
DOCKED: ATOM     17  O   UNL     1     136.397  70.850 223.735 -0.04 +0.08    -0.492 OA 
DOCKED: BRANCH  17  18
DOCKED: ATOM     18  C   UNL     1     135.450  71.516 224.532 -0.13 -0.02    +0.137 A  
DOCKED: ATOM     19  C   UNL     1     135.333  72.920 224.555 -0.21 -0.01    +0.049 A  
DOCKED: ATOM     20  C   UNL     1     134.585  70.745 225.328 -0.20 -0.01    +0.084 A  
DOCKED: ATOM     21  C   UNL     1     134.369  73.535 225.361 -0.29 -0.00    +0.024 A  
DOCKED: ATOM     22  C   UNL     1     133.624  71.368 226.133 -0.31 -0.00    +0.045 A  
DOCKED: ATOM     23  C   UNL     1     133.516  72.761 226.150 -0.32 -0.00    +0.042 A  
DOCKED: ATOM     24  Cl  UNL     1     134.695  68.992 225.325 -0.32 +0.00    -0.080 Cl 
DOCKED: ATOM     25  Cl  UNL     1     132.307  73.535 227.158 -0.51 +0.01    -0.084 Cl 
DOCKED: ENDBRANCH  17  18
DOCKED: ENDBRANCH  16  17
DOCKED: ENDBRANCH  15  16
DOCKED: ENDBRANCH  14  15
DOCKED: ENDBRANCH   1  14
DOCKED: TORSDOF 10
DOCKED: TER
DOCKED: ENDMDL
________________________________________________________________________________


    FINAL DOCKED STATE:
    ________________________


Run:   20 / 20
Time taken for this run:   0.094s

DOCKED: MODEL        20
DOCKED: USER    Run = 20
DOCKED: USER
DOCKED: USER    Estimated Free Energy of Binding    =  -6.09 kcal/mol  [=(1)+(2)+(3)-(4)]
DOCKED: USER
DOCKED: USER    (1) Final Intermolecular Energy     =  -9.07 kcal/mol
DOCKED: USER        vdW + Hbond + desolv Energy     =  -9.16 kcal/mol
DOCKED: USER        Electrostatic Energy            =  +0.09 kcal/mol
DOCKED: USER        Moving Ligand-Fixed Receptor    =  -9.07 kcal/mol
DOCKED: USER        Moving Ligand-Moving Receptor   =  +0.00 kcal/mol
DOCKED: USER    (2) Final Total Internal Energy     =  -0.97 kcal/mol
DOCKED: USER    (3) Torsional Free Energy           =  +2.98 kcal/mol
DOCKED: USER    (4) Unbound System's Energy         =  -0.97 kcal/mol
DOCKED: USER
DOCKED: USER
DOCKED: REMARK SMILES O/C(=C/CCOc1ccc(Cl)cc1Cl)[N-]/N=C/c1cccnc1F
DOCKED: REMARK SMILES IDX 2 1 1 2 15 4 16 5 17 6 18 7 23 8 19 9 22 10 20 11 21 12
DOCKED: REMARK SMILES IDX 24 13 3 14 4 15 5 16 6 17 7 18 8 19 13 20 9 21 12 22 10 23
DOCKED: REMARK SMILES IDX 14 24 11 25
DOCKED: REMARK H PARENT 1 3
DOCKED: USER                              x       y       z     vdW  Elec       q    Type
DOCKED: USER                           _______ _______ _______ _____ _____    ______ ____
DOCKED: ROOT
DOCKED: ATOM      1  C   UNL     1     140.561  72.542 222.240 -0.30 -0.00    +0.023 C  
DOCKED: ENDROOT
DOCKED: BRANCH   1   2
DOCKED: ATOM      2  O   UNL     1     139.462  73.391 222.387 -0.51 +0.11    -0.530 OA 
DOCKED: ATOM      3  H   UNL     1     139.444  74.131 223.079 -0.46 -0.06    +0.290 HD 
DOCKED: ENDBRANCH   1   2
DOCKED: BRANCH   1   4
DOCKED: ATOM      4  N   UNL     1     140.710  71.435 223.129 -0.04 +0.05    -0.546 NA 
DOCKED: BRANCH   4   5
DOCKED: ATOM      5  N   UNL     1     140.043  71.406 224.359 -0.20 +0.07    -0.372 NA 
DOCKED: BRANCH   5   6
DOCKED: ATOM      6  C   UNL     1     140.704  71.468 225.470 -0.50 -0.01    +0.099 C  
DOCKED: BRANCH   6   7
DOCKED: ATOM      7  C   UNL     1     140.731  70.330 226.416 -0.54 -0.01    +0.046 A  
DOCKED: ATOM      8  C   UNL     1     140.993  70.492 227.793 -0.43 -0.04    +0.221 A  
DOCKED: ATOM      9  C   UNL     1     140.484  69.037 225.932 -0.50 -0.00    +0.016 A  
DOCKED: ATOM     10  N   UNL     1     140.997  69.409 228.617 -0.28 +0.05    -0.228 NA 
DOCKED: ATOM     11  C   UNL     1     140.496  67.946 226.803 -0.66 -0.00    +0.021 A  
DOCKED: ATOM     12  C   UNL     1     140.756  68.154 228.156 -0.55 -0.03    +0.114 A  
DOCKED: ATOM     13  F   UNL     1     141.247  71.715 228.323 -0.29 +0.04    -0.184 F  
DOCKED: ENDBRANCH   6   7
DOCKED: ENDBRANCH   5   6
DOCKED: ENDBRANCH   4   5
DOCKED: ENDBRANCH   1   4
DOCKED: BRANCH   1  14
DOCKED: ATOM     14  C   UNL     1     141.458  72.765 221.271 -0.27 +0.00    -0.001 C  
DOCKED: BRANCH  14  15
DOCKED: ATOM     15  C   UNL     1     141.345  73.896 220.287 -0.18 -0.02    +0.071 C  
DOCKED: BRANCH  15  16
DOCKED: ATOM     16  C   UNL     1     141.648  75.243 220.952 -0.19 -0.08    +0.234 C  
DOCKED: BRANCH  16  17
DOCKED: ATOM     17  O   UNL     1     140.712  75.511 221.996 -0.41 +0.09    -0.492 OA 
DOCKED: BRANCH  17  18
DOCKED: ATOM     18  C   UNL     1     140.290  76.785 222.414 -0.32 -0.03    +0.137 A  
DOCKED: ATOM     19  C   UNL     1     141.196  77.792 222.804 -0.41 -0.02    +0.049 A  
DOCKED: ATOM     20  C   UNL     1     138.912  77.061 222.433 -0.28 -0.02    +0.084 A  
DOCKED: ATOM     21  C   UNL     1     140.726  79.046 223.207 -0.48 -0.01    +0.024 A  
DOCKED: ATOM     22  C   UNL     1     138.450  78.318 222.838 -0.26 -0.01    +0.045 A  
DOCKED: ATOM     23  C   UNL     1     139.355  79.311 223.225 -0.35 -0.01    +0.042 A  
DOCKED: ATOM     24  Cl  UNL     1     137.750  75.835 221.950 -0.29 +0.02    -0.080 Cl 
DOCKED: ATOM     25  Cl  UNL     1     138.770  80.886 223.728 -0.44 +0.01    -0.084 Cl 
DOCKED: ENDBRANCH  17  18
DOCKED: ENDBRANCH  16  17
DOCKED: ENDBRANCH  15  16
DOCKED: ENDBRANCH  14  15
DOCKED: ENDBRANCH   1  14
DOCKED: TORSDOF 10
DOCKED: TER
DOCKED: ENDMDL
________________________________________________________________________________


    CLUSTERING HISTOGRAM
    ____________________


________________________________________________________________________________
     |           |     |           |     |
Clus | Lowest    | Run | Mean      | Num | Histogram
-ter | Binding   |     | Binding   | in  |
Rank | Energy    |     | Energy    | Clus|    5    10   15   20   25   30   35
_____|___________|_____|___________|_____|____:____|____:____|____:____|____:___
   1 |     -6.76 |   1 |     -6.56 |   5 |#####
   2 |     -6.42 |  12 |     -6.26 |   5 |#####
   3 |     -6.12 |   4 |     -6.00 |   3 |###
   4 |     -6.11 |  10 |     -6.07 |   2 |##
   5 |     -6.09 |  20 |     -6.09 |   1 |#
   6 |     -5.94 |   2 |     -5.94 |   1 |#
   7 |     -5.69 |  14 |     -5.69 |   1 |#
   8 |     -5.40 |  13 |     -5.33 |   2 |##
_____|___________|_____|___________|_____|______________________________________


    RMSD TABLE
    __________


_______________________________________________________________________
     |      |      |           |         |                 |
Rank | Sub- | Run  | Binding   | Cluster | Reference       | Grep
     | Rank |      | Energy    | RMSD    | RMSD            | Pattern
_____|______|______|___________|_________|_________________|___________
   1      1      1       -6.76      0.00    271.21           RANKING
   1      2     18       -6.69      1.32    271.72           RANKING
   1      3      9       -6.55      1.13    271.77           RANKING
   1      4     17       -6.42      1.18    271.15           RANKING
   1      5     11       -6.38      1.33    271.58           RANKING
   2      1     12       -6.42      0.00    271.83           RANKING
   2      2     15       -6.31      1.27    271.89           RANKING
   2      3      3       -6.27      0.36    271.72           RANKING
   2      4      7       -6.19      1.71    271.71           RANKING
   2      5      8       -6.11      0.53    271.79           RANKING
   3      1      4       -6.12      0.00    271.23           RANKING
   3      2     16       -5.96      1.23    271.13           RANKING
   3      3      6       -5.93      1.51    271.02           RANKING
   4      1     10       -6.11      0.00    270.25           RANKING
   4      2      5       -6.04      0.89    270.16           RANKING
   5      1     20       -6.09      0.00    271.72           RANKING
   6      1      2       -5.94      0.00    270.71           RANKING
   7      1     14       -5.69      0.00    271.51           RANKING
   8      1     13       -5.40      0.00    270.91           RANKING
   8      2     19       -5.27      1.20    270.97           RANKING

Run time 1.838 sec
Idle time 0.000 sec
