AutoDock-GPU version: v1.6

**********************************************************
**    AutoDock-GPU AUTODOCKTOOLS-COMPATIBLE DLG FILE    **
**********************************************************


    DOCKING PARAMETERS
    ________________________


Ligand file:                               /home/a/REINVENT4/ReinventStudies/scoringData/graph-dock/graph-DockGPU/node-autodockgpu/inputs/QFPZKQQOUZJSQV-JVRHHQCGNA-N.pdbqt
Grid fld file:                             /home/a/REINVENT4/ReinventStudies/mols/Rad51/maps/rad51_receptor.maps.fld

Random seed:                               42
Number of runs:                            20
Number of energy evaluations:              2542121
Number of generations:                     42000
Size of population:                        150
Rate of crossover:                         80.000000%
Tournament selection probability limit:    60.000000%
Rate of mutation:                          2.000000%
Maximal allowed delta movement:            +/- 6.000000A
Maximal allowed delta angle:               +/- 90.000000

Rate of local search:                      100.000000%
Maximal number of local search iterations: 300
Rho lower bound:                           0.010000
Spread of local search delta movement:     2.000000A
Spread of local search delta angle:        74.999999
Limit of consecutive successes/failures:   4

Handle symmetry during clustering:         YES
RMSD tolerance:                            2.000000A

Program call in command line was:          /home/a/REINVENT4/ReinventStudies/adgpu-v1.6_linux_x64_cuda12_128wi --filelist batch.txt --heuristics 1 --nrun 20 --psize 150 --lsit 300 --seed 42 --heurmax 12000000 


    GRID PARAMETERS
    ________________________


Receptor name:                             rad51_receptor
Number of grid points (x, y, z):           53, 53, 53
Grid center (x, y, z):                     139.950000, 75.640000, 221.970000A
Grid size (x, y, z):                       19.500000, 19.500000, 19.500000A
Grid spacing:                              0.375000A


    LIGAND PARAMETERS
    ________________________


Ligand name:                               /home/a/REINVENT4/ReinventStudies/scoringData/graph-dock/graph-DockGPU/node-autodockgpu/inputs/QFPZKQQOUZJSQV-JVRHHQCGNA-N
Number of atoms:                           25
Number of rotatable bonds:                 10
Number of atom types:                      7


    DUMMY DATA (only for ADT-compatibility)
    ________________________


DPF> outlev 1
DPF> ga_run 20
DPF> fld /home/a/REINVENT4/ReinventStudies/mols/Rad51/maps/rad51_receptor.maps.fld
DPF> move /home/a/REINVENT4/ReinventStudies/scoringData/graph-dock/graph-DockGPU/node-autodockgpu/inputs/QFPZKQQOUZJSQV-JVRHHQCGNA-N.pdbqt


    COUNTER STATES
    ________________________


Number of energy evaluations performed:    1597988
Number of generations used:                75


    INPUT LIGAND PDBQT FILE:
    ________________________


INPUT-LIGAND-PDBQT: REMARK SMILES O/C(=C\CCOc1ccc(Cl)cc1Cl)[N-]/N=C\c1cccnc1F
INPUT-LIGAND-PDBQT: REMARK SMILES IDX 2 1 1 2 15 4 16 5 17 6 18 7 23 8 19 9 22 10 20 11 21 12
INPUT-LIGAND-PDBQT: REMARK SMILES IDX 24 13 3 14 4 15 5 16 6 17 7 18 8 19 13 20 9 21 12 22 10 23
INPUT-LIGAND-PDBQT: REMARK SMILES IDX 14 24 11 25
INPUT-LIGAND-PDBQT: REMARK H PARENT 1 3
INPUT-LIGAND-PDBQT: ROOT
INPUT-LIGAND-PDBQT: ATOM      1  C   UNL     1       1.937  -1.033  -0.023  1.00  0.00     0.023 C 
INPUT-LIGAND-PDBQT: ENDROOT
INPUT-LIGAND-PDBQT: BRANCH   1   2
INPUT-LIGAND-PDBQT: ATOM      2  O   UNL     1       2.985  -0.859  -0.929  1.00  0.00    -0.530 OA
INPUT-LIGAND-PDBQT: ATOM      3  H   UNL     1       2.915  -1.170  -1.890  1.00  0.00     0.290 HD
INPUT-LIGAND-PDBQT: ENDBRANCH   1   2
INPUT-LIGAND-PDBQT: BRANCH   1   4
INPUT-LIGAND-PDBQT: ATOM      4  N   UNL     1       0.714  -1.645  -0.433  1.00  0.00    -0.546 NA
INPUT-LIGAND-PDBQT: BRANCH   4   5
INPUT-LIGAND-PDBQT: ATOM      5  N   UNL     1       0.523  -2.118  -1.738  1.00  0.00    -0.372 NA
INPUT-LIGAND-PDBQT: BRANCH   5   6
INPUT-LIGAND-PDBQT: ATOM      6  C   UNL     1      -0.642  -2.480  -2.183  1.00  0.00     0.099 C 
INPUT-LIGAND-PDBQT: BRANCH   6   7
INPUT-LIGAND-PDBQT: ATOM      7  C   UNL     1      -1.878  -2.372  -1.379  1.00  0.00     0.046 A 
INPUT-LIGAND-PDBQT: ATOM      8  C   UNL     1      -1.986  -2.938  -0.095  1.00  0.00     0.221 A 
INPUT-LIGAND-PDBQT: ATOM      9  C   UNL     1      -2.993  -1.721  -1.923  1.00  0.00     0.016 A 
INPUT-LIGAND-PDBQT: ATOM     10  N   UNL     1      -3.144  -2.812   0.608  1.00  0.00    -0.228 NA
INPUT-LIGAND-PDBQT: ATOM     11  C   UNL     1      -4.167  -1.604  -1.178  1.00  0.00     0.021 A 
INPUT-LIGAND-PDBQT: ATOM     12  C   UNL     1      -4.222  -2.155   0.103  1.00  0.00     0.114 A 
INPUT-LIGAND-PDBQT: ATOM     13  F   UNL     1      -0.964  -3.650   0.441  1.00  0.00    -0.184 F 
INPUT-LIGAND-PDBQT: ENDBRANCH   6   7
INPUT-LIGAND-PDBQT: ENDBRANCH   5   6
INPUT-LIGAND-PDBQT: ENDBRANCH   4   5
INPUT-LIGAND-PDBQT: ENDBRANCH   1   4
INPUT-LIGAND-PDBQT: BRANCH   1  14
INPUT-LIGAND-PDBQT: ATOM     14  C   UNL     1       2.047  -0.590   1.231  1.00  0.00    -0.001 C 
INPUT-LIGAND-PDBQT: BRANCH  14  15
INPUT-LIGAND-PDBQT: ATOM     15  C   UNL     1       3.222   0.214   1.709  1.00  0.00     0.071 C 
INPUT-LIGAND-PDBQT: BRANCH  15  16
INPUT-LIGAND-PDBQT: ATOM     16  C   UNL     1       3.180   1.659   1.191  1.00  0.00     0.234 C 
INPUT-LIGAND-PDBQT: BRANCH  16  17
INPUT-LIGAND-PDBQT: ATOM     17  O   UNL     1       2.036   2.355   1.695  1.00  0.00    -0.492 OA
INPUT-LIGAND-PDBQT: BRANCH  17  18
INPUT-LIGAND-PDBQT: ATOM     18  C   UNL     1       0.725   2.257   1.194  1.00  0.00     0.137 A 
INPUT-LIGAND-PDBQT: ATOM     19  C   UNL     1       0.450   1.876  -0.135  1.00  0.00     0.049 A 
INPUT-LIGAND-PDBQT: ATOM     20  C   UNL     1      -0.346   2.552   2.053  1.00  0.00     0.084 A 
INPUT-LIGAND-PDBQT: ATOM     21  C   UNL     1      -0.870   1.745  -0.575  1.00  0.00     0.024 A 
INPUT-LIGAND-PDBQT: ATOM     22  C   UNL     1      -1.667   2.426   1.605  1.00  0.00     0.045 A 
INPUT-LIGAND-PDBQT: ATOM     23  C   UNL     1      -1.929   2.015   0.295  1.00  0.00     0.042 A 
INPUT-LIGAND-PDBQT: ATOM     24  Cl  UNL     1      -0.047   3.047   3.712  1.00  0.00    -0.080 Cl
INPUT-LIGAND-PDBQT: ATOM     25  Cl  UNL     1      -3.585   1.846  -0.258  1.00  0.00    -0.084 Cl
INPUT-LIGAND-PDBQT: ENDBRANCH  17  18
INPUT-LIGAND-PDBQT: ENDBRANCH  16  17
INPUT-LIGAND-PDBQT: ENDBRANCH  15  16
INPUT-LIGAND-PDBQT: ENDBRANCH  14  15
INPUT-LIGAND-PDBQT: ENDBRANCH   1  14
INPUT-LIGAND-PDBQT: TORSDOF 10


    FINAL DOCKED STATE:
    ________________________


Run:   1 / 20
Time taken for this run:   0.059s

DOCKED: MODEL        1
DOCKED: USER    Run = 1
DOCKED: USER
DOCKED: USER    Estimated Free Energy of Binding    =  -4.78 kcal/mol  [=(1)+(2)+(3)-(4)]
DOCKED: USER
DOCKED: USER    (1) Final Intermolecular Energy     =  -7.76 kcal/mol
DOCKED: USER        vdW + Hbond + desolv Energy     =  -7.80 kcal/mol
DOCKED: USER        Electrostatic Energy            =  +0.04 kcal/mol
DOCKED: USER        Moving Ligand-Fixed Receptor    =  -7.76 kcal/mol
DOCKED: USER        Moving Ligand-Moving Receptor   =  +0.00 kcal/mol
DOCKED: USER    (2) Final Total Internal Energy     =  -1.53 kcal/mol
DOCKED: USER    (3) Torsional Free Energy           =  +2.98 kcal/mol
DOCKED: USER    (4) Unbound System's Energy         =  -1.53 kcal/mol
DOCKED: USER
DOCKED: USER
DOCKED: REMARK SMILES O/C(=C\CCOc1ccc(Cl)cc1Cl)[N-]/N=C\c1cccnc1F
DOCKED: REMARK SMILES IDX 2 1 1 2 15 4 16 5 17 6 18 7 23 8 19 9 22 10 20 11 21 12
DOCKED: REMARK SMILES IDX 24 13 3 14 4 15 5 16 6 17 7 18 8 19 13 20 9 21 12 22 10 23
DOCKED: REMARK SMILES IDX 14 24 11 25
DOCKED: REMARK H PARENT 1 3
DOCKED: USER                              x       y       z     vdW  Elec       q    Type
DOCKED: USER                           _______ _______ _______ _____ _____    ______ ____
DOCKED: ROOT
DOCKED: ATOM      1  C   UNL     1     140.548  74.356 221.597 -0.30 -0.00    +0.023 C  
DOCKED: ENDROOT
DOCKED: BRANCH   1   2
DOCKED: ATOM      2  O   UNL     1     139.684  73.548 222.340 -0.66 +0.08    -0.530 OA 
DOCKED: ATOM      3  H   UNL     1     139.029  73.940 223.005 -0.49 -0.14    +0.290 HD 
DOCKED: ENDBRANCH   1   2
DOCKED: BRANCH   1   4
DOCKED: ATOM      4  N   UNL     1     140.806  75.703 221.993 -0.25 +0.12    -0.546 NA 
DOCKED: BRANCH   4   5
DOCKED: ATOM      5  N   UNL     1     139.860  76.464 222.693 -0.16 +0.07    -0.372 NA 
DOCKED: BRANCH   5   6
DOCKED: ATOM      6  C   UNL     1     139.579  77.691 222.372 -0.30 -0.02    +0.099 C  
DOCKED: BRANCH   6   7
DOCKED: ATOM      7  C   UNL     1     140.430  78.837 222.758 -0.39 -0.01    +0.046 A  
DOCKED: ATOM      8  C   UNL     1     139.979  80.166 222.665 -0.23 -0.04    +0.221 A  
DOCKED: ATOM      9  C   UNL     1     141.740  78.600 223.194 -0.55 -0.01    +0.016 A  
DOCKED: ATOM     10  N   UNL     1     140.797  81.189 223.034 -0.26 +0.03    -0.228 NA 
DOCKED: ATOM     11  C   UNL     1     142.556  79.668 223.568 -0.58 -0.01    +0.021 A  
DOCKED: ATOM     12  C   UNL     1     142.060  80.969 223.488 -0.53 -0.02    +0.114 A  
DOCKED: ATOM     13  F   UNL     1     138.749  80.452 222.170 -0.04 +0.03    -0.184 F  
DOCKED: ENDBRANCH   6   7
DOCKED: ENDBRANCH   5   6
DOCKED: ENDBRANCH   4   5
DOCKED: ENDBRANCH   1   4
DOCKED: BRANCH   1  14
DOCKED: ATOM     14  C   UNL     1     141.113  73.893 220.480 -0.22 +0.00    -0.001 C  
DOCKED: BRANCH  14  15
DOCKED: ATOM     15  C   UNL     1     142.535  73.413 220.427 -0.25 -0.01    +0.071 C  
DOCKED: BRANCH  15  16
DOCKED: ATOM     16  C   UNL     1     143.527  74.571 220.245 -0.25 -0.09    +0.234 C  
DOCKED: BRANCH  16  17
DOCKED: ATOM     17  O   UNL     1     143.288  75.267 219.018 -0.09 +0.23    -0.492 OA 
DOCKED: BRANCH  17  18
DOCKED: ATOM     18  C   UNL     1     142.831  76.592 218.899 -0.28 -0.08    +0.137 A  
DOCKED: ATOM     19  C   UNL     1     142.252  77.293 219.977 -0.30 -0.03    +0.049 A  
DOCKED: ATOM     20  C   UNL     1     142.956  77.237 217.657 -0.27 -0.06    +0.084 A  
DOCKED: ATOM     21  C   UNL     1     141.856  78.624 219.824 -0.27 -0.01    +0.024 A  
DOCKED: ATOM     22  C   UNL     1     142.551  78.569 217.508 -0.28 -0.04    +0.045 A  
DOCKED: ATOM     23  C   UNL     1     142.009  79.265 218.593 -0.28 -0.03    +0.042 A  
DOCKED: ATOM     24  Cl  UNL     1     143.656  76.395 216.283 -0.28 +0.05    -0.080 Cl 
DOCKED: ATOM     25  Cl  UNL     1     141.516  80.938 218.405 -0.30 +0.04    -0.084 Cl 
DOCKED: ENDBRANCH  17  18
DOCKED: ENDBRANCH  16  17
DOCKED: ENDBRANCH  15  16
DOCKED: ENDBRANCH  14  15
DOCKED: ENDBRANCH   1  14
DOCKED: TORSDOF 10
DOCKED: TER
DOCKED: ENDMDL
________________________________________________________________________________


    FINAL DOCKED STATE:
    ________________________


Run:   2 / 20
Time taken for this run:   0.059s

DOCKED: MODEL        2
DOCKED: USER    Run = 2
DOCKED: USER
DOCKED: USER    Estimated Free Energy of Binding    =  -5.75 kcal/mol  [=(1)+(2)+(3)-(4)]
DOCKED: USER
DOCKED: USER    (1) Final Intermolecular Energy     =  -8.73 kcal/mol
DOCKED: USER        vdW + Hbond + desolv Energy     =  -8.73 kcal/mol
DOCKED: USER        Electrostatic Energy            =  -0.01 kcal/mol
DOCKED: USER        Moving Ligand-Fixed Receptor    =  -8.73 kcal/mol
DOCKED: USER        Moving Ligand-Moving Receptor   =  +0.00 kcal/mol
DOCKED: USER    (2) Final Total Internal Energy     =  -1.11 kcal/mol
DOCKED: USER    (3) Torsional Free Energy           =  +2.98 kcal/mol
DOCKED: USER    (4) Unbound System's Energy         =  -1.11 kcal/mol
DOCKED: USER
DOCKED: USER
DOCKED: REMARK SMILES O/C(=C\CCOc1ccc(Cl)cc1Cl)[N-]/N=C\c1cccnc1F
DOCKED: REMARK SMILES IDX 2 1 1 2 15 4 16 5 17 6 18 7 23 8 19 9 22 10 20 11 21 12
DOCKED: REMARK SMILES IDX 24 13 3 14 4 15 5 16 6 17 7 18 8 19 13 20 9 21 12 22 10 23
DOCKED: REMARK SMILES IDX 14 24 11 25
DOCKED: REMARK H PARENT 1 3
DOCKED: USER                              x       y       z     vdW  Elec       q    Type
DOCKED: USER                           _______ _______ _______ _____ _____    ______ ____
DOCKED: ROOT
DOCKED: ATOM      1  C   UNL     1     139.581  73.338 222.218 -0.20 -0.00    +0.023 C  
DOCKED: ENDROOT
DOCKED: BRANCH   1   2
DOCKED: ATOM      2  O   UNL     1     140.734  74.125 222.252 -0.58 -0.05    -0.530 OA 
DOCKED: ATOM      3  H   UNL     1     140.755  75.057 221.856 +0.10 -0.04    +0.290 HD 
DOCKED: ENDBRANCH   1   2
DOCKED: BRANCH   1   4
DOCKED: ATOM      4  N   UNL     1     139.556  72.056 222.846 -0.11 +0.12    -0.546 NA 
DOCKED: BRANCH   4   5
DOCKED: ATOM      5  N   UNL     1     140.490  71.692 223.824 -0.19 +0.05    -0.372 NA 
DOCKED: BRANCH   5   6
DOCKED: ATOM      6  C   UNL     1     140.141  71.372 225.034 -0.41 -0.02    +0.099 C  
DOCKED: BRANCH   6   7
DOCKED: ATOM      7  C   UNL     1     140.126  69.977 225.523 -0.44 -0.01    +0.046 A  
DOCKED: ATOM      8  C   UNL     1     139.187  69.034 225.065 -0.27 -0.03    +0.221 A  
DOCKED: ATOM      9  C   UNL     1     141.048  69.586 226.502 -0.54 -0.00    +0.016 A  
DOCKED: ATOM     10  N   UNL     1     139.212  67.761 225.544 -0.82 +0.00    -0.228 NA 
DOCKED: ATOM     11  C   UNL     1     141.054  68.273 226.973 -0.63 -0.01    +0.021 A  
DOCKED: ATOM     12  C   UNL     1     140.123  67.362 226.471 -0.57 -0.02    +0.114 A  
DOCKED: ATOM     13  F   UNL     1     138.221  69.386 224.181 -0.08 +0.02    -0.184 F  
DOCKED: ENDBRANCH   6   7
DOCKED: ENDBRANCH   5   6
DOCKED: ENDBRANCH   4   5
DOCKED: ENDBRANCH   1   4
DOCKED: BRANCH   1  14
DOCKED: ATOM     14  C   UNL     1     138.498  73.755 221.559 -0.19 +0.00    -0.001 C  
DOCKED: BRANCH  14  15
DOCKED: ATOM     15  C   UNL     1     137.715  74.970 221.968 -0.19 -0.02    +0.071 C  
DOCKED: BRANCH  15  16
DOCKED: ATOM     16  C   UNL     1     138.196  76.236 221.244 -0.11 -0.05    +0.234 C  
DOCKED: BRANCH  16  17
DOCKED: ATOM     17  O   UNL     1     139.608  76.412 221.395 -0.07 +0.12    -0.492 OA 
DOCKED: BRANCH  17  18
DOCKED: ATOM     18  C   UNL     1     140.242  77.529 221.968 -0.28 -0.04    +0.137 A  
DOCKED: ATOM     19  C   UNL     1     139.687  78.241 223.051 -0.27 -0.01    +0.049 A  
DOCKED: ATOM     20  C   UNL     1     141.473  77.948 221.438 -0.30 -0.04    +0.084 A  
DOCKED: ATOM     21  C   UNL     1     140.377  79.315 223.620 -0.46 -0.00    +0.024 A  
DOCKED: ATOM     22  C   UNL     1     142.156  79.030 222.007 -0.44 -0.03    +0.045 A  
DOCKED: ATOM     23  C   UNL     1     141.613  79.708 223.102 -0.53 -0.01    +0.042 A  
DOCKED: ATOM     24  Cl  UNL     1     142.191  77.100 220.077 -0.39 +0.05    -0.080 Cl 
DOCKED: ATOM     25  Cl  UNL     1     142.479  81.054 223.820 -0.75 +0.01    -0.084 Cl 
DOCKED: ENDBRANCH  17  18
DOCKED: ENDBRANCH  16  17
DOCKED: ENDBRANCH  15  16
DOCKED: ENDBRANCH  14  15
DOCKED: ENDBRANCH   1  14
DOCKED: TORSDOF 10
DOCKED: TER
DOCKED: ENDMDL
________________________________________________________________________________


    FINAL DOCKED STATE:
    ________________________


Run:   3 / 20
Time taken for this run:   0.059s

DOCKED: MODEL        3
DOCKED: USER    Run = 3
DOCKED: USER
DOCKED: USER    Estimated Free Energy of Binding    =  -6.29 kcal/mol  [=(1)+(2)+(3)-(4)]
DOCKED: USER
DOCKED: USER    (1) Final Intermolecular Energy     =  -9.27 kcal/mol
DOCKED: USER        vdW + Hbond + desolv Energy     =  -9.20 kcal/mol
DOCKED: USER        Electrostatic Energy            =  -0.07 kcal/mol
DOCKED: USER        Moving Ligand-Fixed Receptor    =  -9.27 kcal/mol
DOCKED: USER        Moving Ligand-Moving Receptor   =  +0.00 kcal/mol
DOCKED: USER    (2) Final Total Internal Energy     =  -0.53 kcal/mol
DOCKED: USER    (3) Torsional Free Energy           =  +2.98 kcal/mol
DOCKED: USER    (4) Unbound System's Energy         =  -0.53 kcal/mol
DOCKED: USER
DOCKED: USER
DOCKED: REMARK SMILES O/C(=C\CCOc1ccc(Cl)cc1Cl)[N-]/N=C\c1cccnc1F
DOCKED: REMARK SMILES IDX 2 1 1 2 15 4 16 5 17 6 18 7 23 8 19 9 22 10 20 11 21 12
DOCKED: REMARK SMILES IDX 24 13 3 14 4 15 5 16 6 17 7 18 8 19 13 20 9 21 12 22 10 23
DOCKED: REMARK SMILES IDX 14 24 11 25
DOCKED: REMARK H PARENT 1 3
DOCKED: USER                              x       y       z     vdW  Elec       q    Type
DOCKED: USER                           _______ _______ _______ _____ _____    ______ ____
DOCKED: ROOT
DOCKED: ATOM      1  C   UNL     1     140.111  73.386 221.970 -0.28 -0.00    +0.023 C  
DOCKED: ENDROOT
DOCKED: BRANCH   1   2
DOCKED: ATOM      2  O   UNL     1     139.564  74.524 222.566 -0.53 +0.06    -0.530 OA 
DOCKED: ATOM      3  H   UNL     1     138.681  74.494 223.061 -0.49 -0.17    +0.290 HD 
DOCKED: ENDBRANCH   1   2
DOCKED: BRANCH   1   4
DOCKED: ATOM      4  N   UNL     1     140.839  72.435 222.748 -0.18 +0.01    -0.546 NA 
DOCKED: BRANCH   4   5
DOCKED: ATOM      5  N   UNL     1     140.247  71.738 223.809 -0.20 +0.06    -0.372 NA 
DOCKED: BRANCH   5   6
DOCKED: ATOM      6  C   UNL     1     140.682  71.829 225.029 -0.27 -0.01    +0.099 C  
DOCKED: BRANCH   6   7
DOCKED: ATOM      7  C   UNL     1     140.543  70.736 226.015 -0.55 -0.01    +0.046 A  
DOCKED: ATOM      8  C   UNL     1     140.664  70.958 227.399 -0.50 -0.04    +0.221 A  
DOCKED: ATOM      9  C   UNL     1     140.323  69.429 225.560 -0.45 -0.00    +0.016 A  
DOCKED: ATOM     10  N   UNL     1     140.528  69.920 228.269 -0.35 +0.04    -0.228 NA 
DOCKED: ATOM     11  C   UNL     1     140.184  68.384 226.475 -0.60 -0.00    +0.021 A  
DOCKED: ATOM     12  C   UNL     1     140.283  68.653 227.841 -0.56 -0.02    +0.114 A  
DOCKED: ATOM     13  F   UNL     1     140.961  72.189 227.884 -0.32 +0.05    -0.184 F  
DOCKED: ENDBRANCH   6   7
DOCKED: ENDBRANCH   5   6
DOCKED: ENDBRANCH   4   5
DOCKED: ENDBRANCH   1   4
DOCKED: BRANCH   1  14
DOCKED: ATOM     14  C   UNL     1     139.998  73.191 220.655 -0.16 +0.00    -0.001 C  
DOCKED: BRANCH  14  15
DOCKED: ATOM     15  C   UNL     1     140.236  74.280 219.648 -0.08 -0.02    +0.071 C  
DOCKED: BRANCH  15  16
DOCKED: ATOM     16  C   UNL     1     141.268  75.305 220.141 -0.14 -0.08    +0.234 C  
DOCKED: BRANCH  16  17
DOCKED: ATOM     17  O   UNL     1     140.671  76.592 220.325 -0.02 +0.17    -0.492 OA 
DOCKED: BRANCH  17  18
DOCKED: ATOM     18  C   UNL     1     141.124  77.592 221.204 -0.26 -0.06    +0.137 A  
DOCKED: ATOM     19  C   UNL     1     141.013  77.475 222.605 -0.42 -0.02    +0.049 A  
DOCKED: ATOM     20  C   UNL     1     141.705  78.750 220.662 -0.28 -0.05    +0.084 A  
DOCKED: ATOM     21  C   UNL     1     141.521  78.473 223.441 -0.55 -0.01    +0.024 A  
DOCKED: ATOM     22  C   UNL     1     142.206  79.751 221.505 -0.36 -0.02    +0.045 A  
DOCKED: ATOM     23  C   UNL     1     142.121  79.609 222.893 -0.57 -0.02    +0.042 A  
DOCKED: ATOM     24  Cl  UNL     1     141.846  78.945 218.922 -0.34 +0.05    -0.080 Cl 
DOCKED: ATOM     25  Cl  UNL     1     142.762  80.858 223.944 -0.74 +0.01    -0.084 Cl 
DOCKED: ENDBRANCH  17  18
DOCKED: ENDBRANCH  16  17
DOCKED: ENDBRANCH  15  16
DOCKED: ENDBRANCH  14  15
DOCKED: ENDBRANCH   1  14
DOCKED: TORSDOF 10
DOCKED: TER
DOCKED: ENDMDL
________________________________________________________________________________


    FINAL DOCKED STATE:
    ________________________


Run:   4 / 20
Time taken for this run:   0.059s

DOCKED: MODEL        4
DOCKED: USER    Run = 4
DOCKED: USER
DOCKED: USER    Estimated Free Energy of Binding    =  -5.70 kcal/mol  [=(1)+(2)+(3)-(4)]
DOCKED: USER
DOCKED: USER    (1) Final Intermolecular Energy     =  -8.68 kcal/mol
DOCKED: USER        vdW + Hbond + desolv Energy     =  -8.69 kcal/mol
DOCKED: USER        Electrostatic Energy            =  +0.01 kcal/mol
DOCKED: USER        Moving Ligand-Fixed Receptor    =  -8.68 kcal/mol
DOCKED: USER        Moving Ligand-Moving Receptor   =  +0.00 kcal/mol
DOCKED: USER    (2) Final Total Internal Energy     =  -0.88 kcal/mol
DOCKED: USER    (3) Torsional Free Energy           =  +2.98 kcal/mol
DOCKED: USER    (4) Unbound System's Energy         =  -0.88 kcal/mol
DOCKED: USER
DOCKED: USER
DOCKED: REMARK SMILES O/C(=C\CCOc1ccc(Cl)cc1Cl)[N-]/N=C\c1cccnc1F
DOCKED: REMARK SMILES IDX 2 1 1 2 15 4 16 5 17 6 18 7 23 8 19 9 22 10 20 11 21 12
DOCKED: REMARK SMILES IDX 24 13 3 14 4 15 5 16 6 17 7 18 8 19 13 20 9 21 12 22 10 23
DOCKED: REMARK SMILES IDX 14 24 11 25
DOCKED: REMARK H PARENT 1 3
DOCKED: USER                              x       y       z     vdW  Elec       q    Type
DOCKED: USER                           _______ _______ _______ _____ _____    ______ ____
DOCKED: ROOT
DOCKED: ATOM      1  C   UNL     1     140.062  73.479 221.591 -0.27 -0.00    +0.023 C  
DOCKED: ENDROOT
DOCKED: BRANCH   1   2
DOCKED: ATOM      2  O   UNL     1     139.767  74.623 222.336 -0.65 +0.04    -0.530 OA 
DOCKED: ATOM      3  H   UNL     1     139.224  74.576 223.190 -0.47 -0.10    +0.290 HD 
DOCKED: ENDBRANCH   1   2
DOCKED: BRANCH   1   4
DOCKED: ATOM      4  N   UNL     1     140.631  72.329 222.217 -0.14 +0.05    -0.546 NA 
DOCKED: BRANCH   4   5
DOCKED: ATOM      5  N   UNL     1     140.665  72.184 223.611 -0.17 +0.02    -0.372 NA 
DOCKED: BRANCH   5   6
DOCKED: ATOM      6  C   UNL     1     140.038  71.228 224.226 -0.39 -0.02    +0.099 C  
DOCKED: BRANCH   6   7
DOCKED: ATOM      7  C   UNL     1     140.336  70.840 225.621 -0.52 -0.01    +0.046 A  
DOCKED: ATOM      8  C   UNL     1     140.152  69.524 226.085 -0.34 -0.04    +0.221 A  
DOCKED: ATOM      9  C   UNL     1     140.779  71.816 226.523 -0.66 -0.00    +0.016 A  
DOCKED: ATOM     10  N   UNL     1     140.441  69.213 227.378 -0.35 +0.04    -0.228 NA 
DOCKED: ATOM     11  C   UNL     1     141.070  71.468 227.842 -0.78 -0.00    +0.021 A  
DOCKED: ATOM     12  C   UNL     1     140.901  70.145 228.254 -0.47 -0.02    +0.114 A  
DOCKED: ATOM     13  F   UNL     1     139.646  68.563 225.274 -0.12 +0.03    -0.184 F  
DOCKED: ENDBRANCH   6   7
DOCKED: ENDBRANCH   5   6
DOCKED: ENDBRANCH   4   5
DOCKED: ENDBRANCH   1   4
DOCKED: BRANCH   1  14
DOCKED: ATOM     14  C   UNL     1     139.857  73.460 220.273 -0.12 +0.00    -0.001 C  
DOCKED: BRANCH  14  15
DOCKED: ATOM     15  C   UNL     1     140.658  72.599 219.338 -0.06 -0.01    +0.071 C  
DOCKED: BRANCH  15  16
DOCKED: ATOM     16  C   UNL     1     140.962  73.316 218.014 -0.00 -0.05    +0.234 C  
DOCKED: BRANCH  16  17
DOCKED: ATOM     17  O   UNL     1     142.372  73.429 217.800 +0.03 +0.11    -0.492 OA 
DOCKED: BRANCH  17  18
DOCKED: ATOM     18  C   UNL     1     143.363  73.375 218.797 -0.12 -0.03    +0.137 A  
DOCKED: ATOM     19  C   UNL     1     144.069  72.193 219.099 -0.19 -0.00    +0.049 A  
DOCKED: ATOM     20  C   UNL     1     143.656  74.545 219.517 -0.30 -0.03    +0.084 A  
DOCKED: ATOM     21  C   UNL     1     145.080  72.198 220.064 -0.38 +0.00    +0.024 A  
DOCKED: ATOM     22  C   UNL     1     144.666  74.544 220.488 -0.45 -0.02    +0.045 A  
DOCKED: ATOM     23  C   UNL     1     145.382  73.374 220.756 -0.59 -0.01    +0.042 A  
DOCKED: ATOM     24  Cl  UNL     1     142.789  76.036 219.184 -0.41 +0.04    -0.080 Cl 
DOCKED: ATOM     25  Cl  UNL     1     146.654  73.380 221.964 -0.77 +0.01    -0.084 Cl 
DOCKED: ENDBRANCH  17  18
DOCKED: ENDBRANCH  16  17
DOCKED: ENDBRANCH  15  16
DOCKED: ENDBRANCH  14  15
DOCKED: ENDBRANCH   1  14
DOCKED: TORSDOF 10
DOCKED: TER
DOCKED: ENDMDL
________________________________________________________________________________


    FINAL DOCKED STATE:
    ________________________


Run:   5 / 20
Time taken for this run:   0.059s

DOCKED: MODEL        5
DOCKED: USER    Run = 5
DOCKED: USER
DOCKED: USER    Estimated Free Energy of Binding    =  -6.13 kcal/mol  [=(1)+(2)+(3)-(4)]
DOCKED: USER
DOCKED: USER    (1) Final Intermolecular Energy     =  -9.11 kcal/mol
DOCKED: USER        vdW + Hbond + desolv Energy     =  -9.10 kcal/mol
DOCKED: USER        Electrostatic Energy            =  -0.01 kcal/mol
DOCKED: USER        Moving Ligand-Fixed Receptor    =  -9.11 kcal/mol
DOCKED: USER        Moving Ligand-Moving Receptor   =  +0.00 kcal/mol
DOCKED: USER    (2) Final Total Internal Energy     =  -0.71 kcal/mol
DOCKED: USER    (3) Torsional Free Energy           =  +2.98 kcal/mol
DOCKED: USER    (4) Unbound System's Energy         =  -0.71 kcal/mol
DOCKED: USER
DOCKED: USER
DOCKED: REMARK SMILES O/C(=C\CCOc1ccc(Cl)cc1Cl)[N-]/N=C\c1cccnc1F
DOCKED: REMARK SMILES IDX 2 1 1 2 15 4 16 5 17 6 18 7 23 8 19 9 22 10 20 11 21 12
DOCKED: REMARK SMILES IDX 24 13 3 14 4 15 5 16 6 17 7 18 8 19 13 20 9 21 12 22 10 23
DOCKED: REMARK SMILES IDX 14 24 11 25
DOCKED: REMARK H PARENT 1 3
DOCKED: USER                              x       y       z     vdW  Elec       q    Type
DOCKED: USER                           _______ _______ _______ _____ _____    ______ ____
DOCKED: ROOT
DOCKED: ATOM      1  C   UNL     1     140.278  74.418 221.923 -0.17 -0.00    +0.023 C  
DOCKED: ENDROOT
DOCKED: BRANCH   1   2
DOCKED: ATOM      2  O   UNL     1     139.049  74.914 222.364 -0.38 +0.13    -0.530 OA 
DOCKED: ATOM      3  H   UNL     1     138.494  74.425 223.055 -0.49 -0.19    +0.290 HD 
DOCKED: ENDBRANCH   1   2
DOCKED: BRANCH   1   4
DOCKED: ATOM      4  N   UNL     1     140.748  73.143 222.362 -0.46 -0.01    -0.546 NA 
DOCKED: BRANCH   4   5
DOCKED: ATOM      5  N   UNL     1     140.010  72.346 223.247 -0.28 +0.06    -0.372 NA 
DOCKED: BRANCH   5   6
DOCKED: ATOM      6  C   UNL     1     140.509  71.287 223.809 -0.31 -0.01    +0.099 C  
DOCKED: BRANCH   6   7
DOCKED: ATOM      7  C   UNL     1     140.428  71.036 225.264 -0.51 -0.01    +0.046 A  
DOCKED: ATOM      8  C   UNL     1     139.650  69.993 225.800 -0.31 -0.03    +0.221 A  
DOCKED: ATOM      9  C   UNL     1     141.115  71.883 226.143 -0.63 -0.00    +0.016 A  
DOCKED: ATOM     10  N   UNL     1     139.608  69.800 227.146 -0.30 +0.03    -0.228 NA 
DOCKED: ATOM     11  C   UNL     1     141.056  71.660 227.519 -0.79 -0.00    +0.021 A  
DOCKED: ATOM     12  C   UNL     1     140.295  70.597 228.007 -0.57 -0.02    +0.114 A  
DOCKED: ATOM     13  F   UNL     1     138.901  69.198 224.997 -0.10 +0.02    -0.184 F  
DOCKED: ENDBRANCH   6   7
DOCKED: ENDBRANCH   5   6
DOCKED: ENDBRANCH   4   5
DOCKED: ENDBRANCH   1   4
DOCKED: BRANCH   1  14
DOCKED: ATOM     14  C   UNL     1     141.052  75.148 221.118 -0.32 +0.00    -0.001 C  
DOCKED: BRANCH  14  15
DOCKED: ATOM     15  C   UNL     1     140.657  76.510 220.625 -0.21 -0.02    +0.071 C  
DOCKED: BRANCH  15  16
DOCKED: ATOM     16  C   UNL     1     141.842  77.486 220.615 -0.17 -0.15    +0.234 C  
DOCKED: BRANCH  16  17
DOCKED: ATOM     17  O   UNL     1     141.396  78.842 220.711 -0.07 +0.24    -0.492 OA 
DOCKED: BRANCH  17  18
DOCKED: ATOM     18  C   UNL     1     140.494  79.347 221.665 -0.22 -0.04    +0.137 A  
DOCKED: ATOM     19  C   UNL     1     139.096  79.265 221.501 -0.15 -0.01    +0.049 A  
DOCKED: ATOM     20  C   UNL     1     141.009  79.956 222.820 -0.41 -0.02    +0.084 A  
DOCKED: ATOM     21  C   UNL     1     138.238  79.737 222.498 -0.22 -0.00    +0.024 A  
DOCKED: ATOM     22  C   UNL     1     140.145  80.434 223.813 -0.39 -0.01    +0.045 A  
DOCKED: ATOM     23  C   UNL     1     138.761  80.317 223.656 -0.37 -0.01    +0.042 A  
DOCKED: ATOM     24  Cl  UNL     1     142.745  80.094 223.056 -0.80 +0.03    -0.080 Cl 
DOCKED: ATOM     25  Cl  UNL     1     137.682  80.905 224.908 -0.47 +0.01    -0.084 Cl 
DOCKED: ENDBRANCH  17  18
DOCKED: ENDBRANCH  16  17
DOCKED: ENDBRANCH  15  16
DOCKED: ENDBRANCH  14  15
DOCKED: ENDBRANCH   1  14
DOCKED: TORSDOF 10
DOCKED: TER
DOCKED: ENDMDL
________________________________________________________________________________


    FINAL DOCKED STATE:
    ________________________


Run:   6 / 20
Time taken for this run:   0.059s

DOCKED: MODEL        6
DOCKED: USER    Run = 6
DOCKED: USER
DOCKED: USER    Estimated Free Energy of Binding    =  -5.90 kcal/mol  [=(1)+(2)+(3)-(4)]
DOCKED: USER
DOCKED: USER    (1) Final Intermolecular Energy     =  -8.88 kcal/mol
DOCKED: USER        vdW + Hbond + desolv Energy     =  -9.03 kcal/mol
DOCKED: USER        Electrostatic Energy            =  +0.14 kcal/mol
DOCKED: USER        Moving Ligand-Fixed Receptor    =  -8.88 kcal/mol
DOCKED: USER        Moving Ligand-Moving Receptor   =  +0.00 kcal/mol
DOCKED: USER    (2) Final Total Internal Energy     =  -1.08 kcal/mol
DOCKED: USER    (3) Torsional Free Energy           =  +2.98 kcal/mol
DOCKED: USER    (4) Unbound System's Energy         =  -1.08 kcal/mol
DOCKED: USER
DOCKED: USER
DOCKED: REMARK SMILES O/C(=C\CCOc1ccc(Cl)cc1Cl)[N-]/N=C\c1cccnc1F
DOCKED: REMARK SMILES IDX 2 1 1 2 15 4 16 5 17 6 18 7 23 8 19 9 22 10 20 11 21 12
DOCKED: REMARK SMILES IDX 24 13 3 14 4 15 5 16 6 17 7 18 8 19 13 20 9 21 12 22 10 23
DOCKED: REMARK SMILES IDX 14 24 11 25
DOCKED: REMARK H PARENT 1 3
DOCKED: USER                              x       y       z     vdW  Elec       q    Type
DOCKED: USER                           _______ _______ _______ _____ _____    ______ ____
DOCKED: ROOT
DOCKED: ATOM      1  C   UNL     1     139.903  75.106 221.752 -0.30 -0.00    +0.023 C  
DOCKED: ENDROOT
DOCKED: BRANCH   1   2
DOCKED: ATOM      2  O   UNL     1     138.770  74.542 222.342 -0.23 +0.16    -0.530 OA 
DOCKED: ATOM      3  H   UNL     1     138.840  73.800 223.027 -0.49 -0.17    +0.290 HD 
DOCKED: ENDBRANCH   1   2
DOCKED: BRANCH   1   4
DOCKED: ATOM      4  N   UNL     1     140.041  76.523 221.647 -0.07 +0.14    -0.546 NA 
DOCKED: BRANCH   4   5
DOCKED: ATOM      5  N   UNL     1     139.383  77.398 222.521 -0.13 +0.07    -0.372 NA 
DOCKED: BRANCH   5   6
DOCKED: ATOM      6  C   UNL     1     139.468  78.689 222.408 -0.27 -0.02    +0.099 C  
DOCKED: BRANCH   6   7
DOCKED: ATOM      7  C   UNL     1     140.631  79.463 222.893 -0.41 -0.01    +0.046 A  
DOCKED: ATOM      8  C   UNL     1     140.482  80.632 223.662 -0.28 -0.03    +0.221 A  
DOCKED: ATOM      9  C   UNL     1     141.923  79.046 222.547 -0.52 -0.01    +0.016 A  
DOCKED: ATOM     10  N   UNL     1     141.582  81.310 224.088 -0.30 +0.02    -0.228 NA 
DOCKED: ATOM     11  C   UNL     1     143.033  79.760 223.000 -0.58 -0.01    +0.021 A  
DOCKED: ATOM     12  C   UNL     1     142.841  80.897 223.784 -0.56 -0.02    +0.114 A  
DOCKED: ATOM     13  F   UNL     1     139.252  81.123 223.953 -0.11 +0.02    -0.184 F  
DOCKED: ENDBRANCH   6   7
DOCKED: ENDBRANCH   5   6
DOCKED: ENDBRANCH   4   5
DOCKED: ENDBRANCH   1   4
DOCKED: BRANCH   1  14
DOCKED: ATOM     14  C   UNL     1     140.856  74.326 221.237 -0.30 +0.00    -0.001 C  
DOCKED: BRANCH  14  15
DOCKED: ATOM     15  C   UNL     1     140.659  72.857 220.991 -0.20 -0.01    +0.071 C  
DOCKED: BRANCH  15  16
DOCKED: ATOM     16  C   UNL     1     141.124  72.007 222.182 -0.10 -0.02    +0.234 C  
DOCKED: BRANCH  16  17
DOCKED: ATOM     17  O   UNL     1     140.325  72.262 223.341 -0.30 +0.06    -0.492 OA 
DOCKED: BRANCH  17  18
DOCKED: ATOM     18  C   UNL     1     140.325  71.503 224.526 -0.39 -0.02    +0.137 A  
DOCKED: ATOM     19  C   UNL     1     141.065  71.881 225.665 -0.45 -0.01    +0.049 A  
DOCKED: ATOM     20  C   UNL     1     139.561  70.326 224.570 -0.35 -0.01    +0.084 A  
DOCKED: ATOM     21  C   UNL     1     140.997  71.121 226.837 -0.67 -0.00    +0.024 A  
DOCKED: ATOM     22  C   UNL     1     139.502  69.565 225.744 -0.42 -0.01    +0.045 A  
DOCKED: ATOM     23  C   UNL     1     140.212  69.966 226.879 -0.53 -0.01    +0.042 A  
DOCKED: ATOM     24  Cl  UNL     1     138.638  69.811 223.166 -0.30 +0.01    -0.080 Cl 
DOCKED: ATOM     25  Cl  UNL     1     140.125  69.017 228.351 -0.76 +0.02    -0.084 Cl 
DOCKED: ENDBRANCH  17  18
DOCKED: ENDBRANCH  16  17
DOCKED: ENDBRANCH  15  16
DOCKED: ENDBRANCH  14  15
DOCKED: ENDBRANCH   1  14
DOCKED: TORSDOF 10
DOCKED: TER
DOCKED: ENDMDL
________________________________________________________________________________


    FINAL DOCKED STATE:
    ________________________


Run:   7 / 20
Time taken for this run:   0.059s

DOCKED: MODEL        7
DOCKED: USER    Run = 7
DOCKED: USER
DOCKED: USER    Estimated Free Energy of Binding    =  -6.15 kcal/mol  [=(1)+(2)+(3)-(4)]
DOCKED: USER
DOCKED: USER    (1) Final Intermolecular Energy     =  -9.13 kcal/mol
DOCKED: USER        vdW + Hbond + desolv Energy     =  -9.11 kcal/mol
DOCKED: USER        Electrostatic Energy            =  -0.01 kcal/mol
DOCKED: USER        Moving Ligand-Fixed Receptor    =  -9.13 kcal/mol
DOCKED: USER        Moving Ligand-Moving Receptor   =  +0.00 kcal/mol
DOCKED: USER    (2) Final Total Internal Energy     =  -0.74 kcal/mol
DOCKED: USER    (3) Torsional Free Energy           =  +2.98 kcal/mol
DOCKED: USER    (4) Unbound System's Energy         =  -0.74 kcal/mol
DOCKED: USER
DOCKED: USER
DOCKED: REMARK SMILES O/C(=C\CCOc1ccc(Cl)cc1Cl)[N-]/N=C\c1cccnc1F
DOCKED: REMARK SMILES IDX 2 1 1 2 15 4 16 5 17 6 18 7 23 8 19 9 22 10 20 11 21 12
DOCKED: REMARK SMILES IDX 24 13 3 14 4 15 5 16 6 17 7 18 8 19 13 20 9 21 12 22 10 23
DOCKED: REMARK SMILES IDX 14 24 11 25
DOCKED: REMARK H PARENT 1 3
DOCKED: USER                              x       y       z     vdW  Elec       q    Type
DOCKED: USER                           _______ _______ _______ _____ _____    ______ ____
DOCKED: ROOT
DOCKED: ATOM      1  C   UNL     1     140.266  74.299 221.812 -0.22 -0.00    +0.023 C  
DOCKED: ENDROOT
DOCKED: BRANCH   1   2
DOCKED: ATOM      2  O   UNL     1     139.559  75.200 222.611 -0.44 +0.06    -0.530 OA 
DOCKED: ATOM      3  H   UNL     1     139.043  74.895 223.427 -0.44 -0.13    +0.290 HD 
DOCKED: ENDBRANCH   1   2
DOCKED: BRANCH   1   4
DOCKED: ATOM      4  N   UNL     1     140.654  73.023 222.320 -0.48 +0.01    -0.546 NA 
DOCKED: BRANCH   4   5
DOCKED: ATOM      5  N   UNL     1     140.038  72.454 223.443 -0.21 +0.06    -0.372 NA 
DOCKED: BRANCH   5   6
DOCKED: ATOM      6  C   UNL     1     140.406  71.309 223.932 -0.35 -0.01    +0.099 C  
DOCKED: BRANCH   6   7
DOCKED: ATOM      7  C   UNL     1     140.379  71.008 225.380 -0.52 -0.01    +0.046 A  
DOCKED: ATOM      8  C   UNL     1     139.694  69.894 225.898 -0.31 -0.03    +0.221 A  
DOCKED: ATOM      9  C   UNL     1     141.021  71.878 226.271 -0.65 -0.00    +0.016 A  
DOCKED: ATOM     10  N   UNL     1     139.698  69.657 227.238 -0.31 +0.03    -0.228 NA 
DOCKED: ATOM     11  C   UNL     1     141.012  71.608 227.640 -0.79 -0.00    +0.021 A  
DOCKED: ATOM     12  C   UNL     1     140.344  70.476 228.110 -0.53 -0.02    +0.114 A  
DOCKED: ATOM     13  F   UNL     1     138.988  69.070 225.086 -0.10 +0.02    -0.184 F  
DOCKED: ENDBRANCH   6   7
DOCKED: ENDBRANCH   5   6
DOCKED: ENDBRANCH   4   5
DOCKED: ENDBRANCH   1   4
DOCKED: BRANCH   1  14
DOCKED: ATOM     14  C   UNL     1     140.628  74.636 220.572 -0.22 +0.00    -0.001 C  
DOCKED: BRANCH  14  15
DOCKED: ATOM     15  C   UNL     1     139.644  75.102 219.537 -0.06 -0.02    +0.071 C  
DOCKED: BRANCH  15  16
DOCKED: ATOM     16  C   UNL     1     139.726  76.618 219.306 -0.03 -0.07    +0.234 C  
DOCKED: BRANCH  16  17
DOCKED: ATOM     17  O   UNL     1     141.022  77.122 219.643 -0.01 +0.21    -0.492 OA 
DOCKED: BRANCH  17  18
DOCKED: ATOM     18  C   UNL     1     141.308  78.036 220.674 -0.23 -0.07    +0.137 A  
DOCKED: ATOM     19  C   UNL     1     141.112  77.727 222.035 -0.38 -0.02    +0.049 A  
DOCKED: ATOM     20  C   UNL     1     141.805  79.304 220.329 -0.26 -0.05    +0.084 A  
DOCKED: ATOM     21  C   UNL     1     141.455  78.649 223.027 -0.54 -0.01    +0.024 A  
DOCKED: ATOM     22  C   UNL     1     142.141  80.227 221.327 -0.38 -0.02    +0.045 A  
DOCKED: ATOM     23  C   UNL     1     141.974  79.897 222.675 -0.54 -0.01    +0.042 A  
DOCKED: ATOM     24  Cl  UNL     1     142.048  79.737 218.644 -0.38 +0.05    -0.080 Cl 
DOCKED: ATOM     25  Cl  UNL     1     142.408  81.051 223.922 -0.72 +0.01    -0.084 Cl 
DOCKED: ENDBRANCH  17  18
DOCKED: ENDBRANCH  16  17
DOCKED: ENDBRANCH  15  16
DOCKED: ENDBRANCH  14  15
DOCKED: ENDBRANCH   1  14
DOCKED: TORSDOF 10
DOCKED: TER
DOCKED: ENDMDL
________________________________________________________________________________


    FINAL DOCKED STATE:
    ________________________


Run:   8 / 20
Time taken for this run:   0.059s

DOCKED: MODEL        8
DOCKED: USER    Run = 8
DOCKED: USER
DOCKED: USER    Estimated Free Energy of Binding    =  -5.94 kcal/mol  [=(1)+(2)+(3)-(4)]
DOCKED: USER
DOCKED: USER    (1) Final Intermolecular Energy     =  -8.92 kcal/mol
DOCKED: USER        vdW + Hbond + desolv Energy     =  -8.92 kcal/mol
DOCKED: USER        Electrostatic Energy            =  +0.00 kcal/mol
DOCKED: USER        Moving Ligand-Fixed Receptor    =  -8.92 kcal/mol
DOCKED: USER        Moving Ligand-Moving Receptor   =  +0.00 kcal/mol
DOCKED: USER    (2) Final Total Internal Energy     =  -1.16 kcal/mol
DOCKED: USER    (3) Torsional Free Energy           =  +2.98 kcal/mol
DOCKED: USER    (4) Unbound System's Energy         =  -1.16 kcal/mol
DOCKED: USER
DOCKED: USER
DOCKED: REMARK SMILES O/C(=C\CCOc1ccc(Cl)cc1Cl)[N-]/N=C\c1cccnc1F
DOCKED: REMARK SMILES IDX 2 1 1 2 15 4 16 5 17 6 18 7 23 8 19 9 22 10 20 11 21 12
DOCKED: REMARK SMILES IDX 24 13 3 14 4 15 5 16 6 17 7 18 8 19 13 20 9 21 12 22 10 23
DOCKED: REMARK SMILES IDX 14 24 11 25
DOCKED: REMARK H PARENT 1 3
DOCKED: USER                              x       y       z     vdW  Elec       q    Type
DOCKED: USER                           _______ _______ _______ _____ _____    ______ ____
DOCKED: ROOT
DOCKED: ATOM      1  C   UNL     1     140.198  73.355 221.962 -0.28 -0.00    +0.023 C  
DOCKED: ENDROOT
DOCKED: BRANCH   1   2
DOCKED: ATOM      2  O   UNL     1     139.512  74.510 222.339 -0.64 +0.08    -0.530 OA 
DOCKED: ATOM      3  H   UNL     1     139.676  75.400 221.884 +0.09 -0.05    +0.290 HD 
DOCKED: ENDBRANCH   1   2
DOCKED: BRANCH   1   4
DOCKED: ATOM      4  N   UNL     1     140.653  72.425 222.945 -0.22 +0.02    -0.546 NA 
DOCKED: BRANCH   4   5
DOCKED: ATOM      5  N   UNL     1     139.914  71.284 223.285 -0.16 +0.06    -0.372 NA 
DOCKED: BRANCH   5   6
DOCKED: ATOM      6  C   UNL     1     139.490  71.065 224.493 -0.37 -0.02    +0.099 C  
DOCKED: BRANCH   6   7
DOCKED: ATOM      7  C   UNL     1     139.715  69.788 225.204 -0.39 -0.01    +0.046 A  
DOCKED: ATOM      8  C   UNL     1     138.935  68.644 224.951 -0.28 -0.02    +0.221 A  
DOCKED: ATOM      9  C   UNL     1     140.708  69.720 226.189 -0.52 -0.00    +0.016 A  
DOCKED: ATOM     10  N   UNL     1     139.180  67.491 225.629 -0.85 -0.01    -0.228 NA 
DOCKED: ATOM     11  C   UNL     1     140.940  68.523 226.867 -0.61 -0.00    +0.021 A  
DOCKED: ATOM     12  C   UNL     1     140.162  67.404 226.565 -0.56 -0.02    +0.114 A  
DOCKED: ATOM     13  F   UNL     1     137.907  68.683 224.067 -0.08 +0.01    -0.184 F  
DOCKED: ENDBRANCH   6   7
DOCKED: ENDBRANCH   5   6
DOCKED: ENDBRANCH   4   5
DOCKED: ENDBRANCH   1   4
DOCKED: BRANCH   1  14
DOCKED: ATOM     14  C   UNL     1     140.478  73.123 220.678 -0.18 +0.00    -0.001 C  
DOCKED: BRANCH  14  15
DOCKED: ATOM     15  C   UNL     1     141.331  74.044 219.853 -0.14 -0.02    +0.071 C  
DOCKED: BRANCH  15  16
DOCKED: ATOM     16  C   UNL     1     141.943  75.172 220.696 -0.19 -0.09    +0.234 C  
DOCKED: BRANCH  16  17
DOCKED: ATOM     17  O   UNL     1     140.988  76.208 220.944 -0.09 +0.18    -0.492 OA 
DOCKED: BRANCH  17  18
DOCKED: ATOM     18  C   UNL     1     141.230  77.400 221.652 -0.26 -0.07    +0.137 A  
DOCKED: ATOM     19  C   UNL     1     141.088  77.490 223.051 -0.33 -0.02    +0.049 A  
DOCKED: ATOM     20  C   UNL     1     141.626  78.539 220.933 -0.30 -0.05    +0.084 A  
DOCKED: ATOM     21  C   UNL     1     141.386  78.681 223.718 -0.54 -0.01    +0.024 A  
DOCKED: ATOM     22  C   UNL     1     141.917  79.733 221.605 -0.41 -0.02    +0.045 A  
DOCKED: ATOM     23  C   UNL     1     141.805  79.802 222.997 -0.55 -0.01    +0.042 A  
DOCKED: ATOM     24  Cl  UNL     1     141.799  78.475 219.186 -0.34 +0.05    -0.080 Cl 
DOCKED: ATOM     25  Cl  UNL     1     142.183  81.296 223.836 -0.74 +0.01    -0.084 Cl 
DOCKED: ENDBRANCH  17  18
DOCKED: ENDBRANCH  16  17
DOCKED: ENDBRANCH  15  16
DOCKED: ENDBRANCH  14  15
DOCKED: ENDBRANCH   1  14
DOCKED: TORSDOF 10
DOCKED: TER
DOCKED: ENDMDL
________________________________________________________________________________


    FINAL DOCKED STATE:
    ________________________


Run:   9 / 20
Time taken for this run:   0.059s

DOCKED: MODEL        9
DOCKED: USER    Run = 9
DOCKED: USER
DOCKED: USER    Estimated Free Energy of Binding    =  -5.96 kcal/mol  [=(1)+(2)+(3)-(4)]
DOCKED: USER
DOCKED: USER    (1) Final Intermolecular Energy     =  -8.94 kcal/mol
DOCKED: USER        vdW + Hbond + desolv Energy     =  -9.16 kcal/mol
DOCKED: USER        Electrostatic Energy            =  +0.22 kcal/mol
DOCKED: USER        Moving Ligand-Fixed Receptor    =  -8.94 kcal/mol
DOCKED: USER        Moving Ligand-Moving Receptor   =  +0.00 kcal/mol
DOCKED: USER    (2) Final Total Internal Energy     =  -1.11 kcal/mol
DOCKED: USER    (3) Torsional Free Energy           =  +2.98 kcal/mol
DOCKED: USER    (4) Unbound System's Energy         =  -1.11 kcal/mol
DOCKED: USER
DOCKED: USER
DOCKED: REMARK SMILES O/C(=C\CCOc1ccc(Cl)cc1Cl)[N-]/N=C\c1cccnc1F
DOCKED: REMARK SMILES IDX 2 1 1 2 15 4 16 5 17 6 18 7 23 8 19 9 22 10 20 11 21 12
DOCKED: REMARK SMILES IDX 24 13 3 14 4 15 5 16 6 17 7 18 8 19 13 20 9 21 12 22 10 23
DOCKED: REMARK SMILES IDX 14 24 11 25
DOCKED: REMARK H PARENT 1 3
DOCKED: USER                              x       y       z     vdW  Elec       q    Type
DOCKED: USER                           _______ _______ _______ _____ _____    ______ ____
DOCKED: ROOT
DOCKED: ATOM      1  C   UNL     1     140.396  74.661 221.576 -0.31 -0.00    +0.023 C  
DOCKED: ENDROOT
DOCKED: BRANCH   1   2
DOCKED: ATOM      2  O   UNL     1     139.551  74.645 222.688 -0.45 +0.05    -0.530 OA 
DOCKED: ATOM      3  H   UNL     1     139.202  73.778 223.078 -0.47 -0.12    +0.290 HD 
DOCKED: ENDBRANCH   1   2
DOCKED: BRANCH   1   4
DOCKED: ATOM      4  N   UNL     1     141.200  75.806 221.289 -0.08 +0.19    -0.546 NA 
DOCKED: BRANCH   4   5
DOCKED: ATOM      5  N   UNL     1     140.656  76.975 220.741 -0.07 +0.14    -0.372 NA 
DOCKED: BRANCH   5   6
DOCKED: ATOM      6  C   UNL     1     141.347  78.065 220.602 -0.26 -0.05    +0.099 C  
DOCKED: BRANCH   6   7
DOCKED: ATOM      7  C   UNL     1     141.618  78.992 221.722 -0.39 -0.02    +0.046 A  
DOCKED: ATOM      8  C   UNL     1     141.966  80.339 221.509 -0.30 -0.09    +0.221 A  
DOCKED: ATOM      9  C   UNL     1     141.569  78.510 223.036 -0.53 -0.01    +0.016 A  
DOCKED: ATOM     10  N   UNL     1     142.205  81.155 222.571 -0.33 +0.05    -0.228 NA 
DOCKED: ATOM     11  C   UNL     1     141.816  79.370 224.106 -0.55 -0.00    +0.021 A  
DOCKED: ATOM     12  C   UNL     1     142.129  80.706 223.852 -0.54 -0.02    +0.114 A  
DOCKED: ATOM     13  F   UNL     1     142.109  80.832 220.254 -0.10 +0.08    -0.184 F  
DOCKED: ENDBRANCH   6   7
DOCKED: ENDBRANCH   5   6
DOCKED: ENDBRANCH   4   5
DOCKED: ENDBRANCH   1   4
DOCKED: BRANCH   1  14
DOCKED: ATOM     14  C   UNL     1     140.433  73.622 220.739 -0.20 +0.00    -0.001 C  
DOCKED: BRANCH  14  15
DOCKED: ATOM     15  C   UNL     1     140.006  72.239 221.141 -0.17 -0.01    +0.071 C  
DOCKED: BRANCH  15  16
DOCKED: ATOM     16  C   UNL     1     140.803  71.718 222.346 -0.16 -0.02    +0.234 C  
DOCKED: BRANCH  16  17
DOCKED: ATOM     17  O   UNL     1     140.049  71.840 223.556 -0.20 +0.09    -0.492 OA 
DOCKED: BRANCH  17  18
DOCKED: ATOM     18  C   UNL     1     140.229  71.071 224.720 -0.40 -0.02    +0.137 A  
DOCKED: ATOM     19  C   UNL     1     140.966  71.537 225.827 -0.59 -0.01    +0.049 A  
DOCKED: ATOM     20  C   UNL     1     139.653  69.791 224.775 -0.33 -0.01    +0.084 A  
DOCKED: ATOM     21  C   UNL     1     141.078  70.757 226.982 -0.62 -0.00    +0.024 A  
DOCKED: ATOM     22  C   UNL     1     139.774  69.011 225.932 -0.47 -0.01    +0.045 A  
DOCKED: ATOM     23  C   UNL     1     140.479  69.497 227.037 -0.55 -0.01    +0.042 A  
DOCKED: ATOM     24  Cl  UNL     1     138.741  69.165 223.411 -0.33 +0.01    -0.080 Cl 
DOCKED: ATOM     25  Cl  UNL     1     140.617  68.521 228.489 -0.77 +0.02    -0.084 Cl 
DOCKED: ENDBRANCH  17  18
DOCKED: ENDBRANCH  16  17
DOCKED: ENDBRANCH  15  16
DOCKED: ENDBRANCH  14  15
DOCKED: ENDBRANCH   1  14
DOCKED: TORSDOF 10
DOCKED: TER
DOCKED: ENDMDL
________________________________________________________________________________


    FINAL DOCKED STATE:
    ________________________


Run:   10 / 20
Time taken for this run:   0.059s

DOCKED: MODEL        10
DOCKED: USER    Run = 10
DOCKED: USER
DOCKED: USER    Estimated Free Energy of Binding    =  -6.67 kcal/mol  [=(1)+(2)+(3)-(4)]
DOCKED: USER
DOCKED: USER    (1) Final Intermolecular Energy     =  -9.66 kcal/mol
DOCKED: USER        vdW + Hbond + desolv Energy     =  -9.63 kcal/mol
DOCKED: USER        Electrostatic Energy            =  -0.03 kcal/mol
DOCKED: USER        Moving Ligand-Fixed Receptor    =  -9.66 kcal/mol
DOCKED: USER        Moving Ligand-Moving Receptor   =  +0.00 kcal/mol
DOCKED: USER    (2) Final Total Internal Energy     =  -0.70 kcal/mol
DOCKED: USER    (3) Torsional Free Energy           =  +2.98 kcal/mol
DOCKED: USER    (4) Unbound System's Energy         =  -0.70 kcal/mol
DOCKED: USER
DOCKED: USER
DOCKED: REMARK SMILES O/C(=C\CCOc1ccc(Cl)cc1Cl)[N-]/N=C\c1cccnc1F
DOCKED: REMARK SMILES IDX 2 1 1 2 15 4 16 5 17 6 18 7 23 8 19 9 22 10 20 11 21 12
DOCKED: REMARK SMILES IDX 24 13 3 14 4 15 5 16 6 17 7 18 8 19 13 20 9 21 12 22 10 23
DOCKED: REMARK SMILES IDX 14 24 11 25
DOCKED: REMARK H PARENT 1 3
DOCKED: USER                              x       y       z     vdW  Elec       q    Type
DOCKED: USER                           _______ _______ _______ _____ _____    ______ ____
DOCKED: ROOT
DOCKED: ATOM      1  C   UNL     1     140.565  73.240 221.936 -0.28 -0.00    +0.023 C  
DOCKED: ENDROOT
DOCKED: BRANCH   1   2
DOCKED: ATOM      2  O   UNL     1     139.570  74.132 222.341 -0.69 +0.08    -0.530 OA 
DOCKED: ATOM      3  H   UNL     1     138.872  73.874 223.028 -0.49 -0.17    +0.290 HD 
DOCKED: ENDBRANCH   1   2
DOCKED: BRANCH   1   4
DOCKED: ATOM      4  N   UNL     1     140.689  71.958 222.552 -0.11 +0.05    -0.546 NA 
DOCKED: BRANCH   4   5
DOCKED: ATOM      5  N   UNL     1     139.727  71.469 223.445 -0.17 +0.07    -0.372 NA 
DOCKED: BRANCH   5   6
DOCKED: ATOM      6  C   UNL     1     139.982  70.514 224.288 -0.34 -0.02    +0.099 C  
DOCKED: BRANCH   6   7
DOCKED: ATOM      7  C   UNL     1     140.335  70.764 225.702 -0.53 -0.01    +0.046 A  
DOCKED: ATOM      8  C   UNL     1     139.940  69.895 226.735 -0.36 -0.03    +0.221 A  
DOCKED: ATOM      9  C   UNL     1     141.052  71.921 226.033 -0.56 -0.00    +0.016 A  
DOCKED: ATOM     10  N   UNL     1     140.289  70.165 228.022 -0.37 +0.04    -0.228 NA 
DOCKED: ATOM     11  C   UNL     1     141.399  72.172 227.361 -0.79 -0.00    +0.021 A  
DOCKED: ATOM     12  C   UNL     1     141.012  71.269 228.352 -0.58 -0.02    +0.114 A  
DOCKED: ATOM     13  F   UNL     1     139.173  68.806 226.476 -0.13 +0.02    -0.184 F  
DOCKED: ENDBRANCH   6   7
DOCKED: ENDBRANCH   5   6
DOCKED: ENDBRANCH   4   5
DOCKED: ENDBRANCH   1   4
DOCKED: BRANCH   1  14
DOCKED: ATOM     14  C   UNL     1     141.444  73.590 220.994 -0.27 +0.00    -0.001 C  
DOCKED: BRANCH  14  15
DOCKED: ATOM     15  C   UNL     1     141.157  74.649 219.969 -0.16 -0.02    +0.071 C  
DOCKED: BRANCH  15  16
DOCKED: ATOM     16  C   UNL     1     141.948  75.938 220.235 -0.18 -0.11    +0.234 C  
DOCKED: BRANCH  16  17
DOCKED: ATOM     17  O   UNL     1     141.074  77.018 220.577 -0.05 +0.21    -0.492 OA 
DOCKED: BRANCH  17  18
DOCKED: ATOM     18  C   UNL     1     141.371  78.069 221.465 -0.29 -0.07    +0.137 A  
DOCKED: ATOM     19  C   UNL     1     141.296  77.921 222.864 -0.43 -0.02    +0.049 A  
DOCKED: ATOM     20  C   UNL     1     141.755  79.310 220.931 -0.30 -0.04    +0.084 A  
DOCKED: ATOM     21  C   UNL     1     141.647  78.978 223.708 -0.60 -0.01    +0.024 A  
DOCKED: ATOM     22  C   UNL     1     142.099  80.369 221.781 -0.44 -0.02    +0.045 A  
DOCKED: ATOM     23  C   UNL     1     142.053  80.201 223.168 -0.58 -0.01    +0.042 A  
DOCKED: ATOM     24  Cl  UNL     1     141.845  79.543 219.192 -0.35 +0.05    -0.080 Cl 
DOCKED: ATOM     25  Cl  UNL     1     142.497  81.525 224.228 -0.55 +0.01    -0.084 Cl 
DOCKED: ENDBRANCH  17  18
DOCKED: ENDBRANCH  16  17
DOCKED: ENDBRANCH  15  16
DOCKED: ENDBRANCH  14  15
DOCKED: ENDBRANCH   1  14
DOCKED: TORSDOF 10
DOCKED: TER
DOCKED: ENDMDL
________________________________________________________________________________


    FINAL DOCKED STATE:
    ________________________


Run:   11 / 20
Time taken for this run:   0.059s

DOCKED: MODEL        11
DOCKED: USER    Run = 11
DOCKED: USER
DOCKED: USER    Estimated Free Energy of Binding    =  -5.95 kcal/mol  [=(1)+(2)+(3)-(4)]
DOCKED: USER
DOCKED: USER    (1) Final Intermolecular Energy     =  -8.94 kcal/mol
DOCKED: USER        vdW + Hbond + desolv Energy     =  -9.00 kcal/mol
DOCKED: USER        Electrostatic Energy            =  +0.07 kcal/mol
DOCKED: USER        Moving Ligand-Fixed Receptor    =  -8.94 kcal/mol
DOCKED: USER        Moving Ligand-Moving Receptor   =  +0.00 kcal/mol
DOCKED: USER    (2) Final Total Internal Energy     =  -1.42 kcal/mol
DOCKED: USER    (3) Torsional Free Energy           =  +2.98 kcal/mol
DOCKED: USER    (4) Unbound System's Energy         =  -1.42 kcal/mol
DOCKED: USER
DOCKED: USER
DOCKED: REMARK SMILES O/C(=C\CCOc1ccc(Cl)cc1Cl)[N-]/N=C\c1cccnc1F
DOCKED: REMARK SMILES IDX 2 1 1 2 15 4 16 5 17 6 18 7 23 8 19 9 22 10 20 11 21 12
DOCKED: REMARK SMILES IDX 24 13 3 14 4 15 5 16 6 17 7 18 8 19 13 20 9 21 12 22 10 23
DOCKED: REMARK SMILES IDX 14 24 11 25
DOCKED: REMARK H PARENT 1 3
DOCKED: USER                              x       y       z     vdW  Elec       q    Type
DOCKED: USER                           _______ _______ _______ _____ _____    ______ ____
DOCKED: ROOT
DOCKED: ATOM      1  C   UNL     1     140.687  73.846 221.390 -0.28 -0.00    +0.023 C  
DOCKED: ENDROOT
DOCKED: BRANCH   1   2
DOCKED: ATOM      2  O   UNL     1     139.781  74.375 222.312 -0.69 +0.04    -0.530 OA 
DOCKED: ATOM      3  H   UNL     1     139.152  73.782 222.840 -0.46 -0.11    +0.290 HD 
DOCKED: ENDBRANCH   1   2
DOCKED: BRANCH   1   4
DOCKED: ATOM      4  N   UNL     1     140.883  74.471 220.122 +0.01 +0.13    -0.546 NA 
DOCKED: BRANCH   4   5
DOCKED: ATOM      5  N   UNL     1     141.975  75.313 219.871 -0.08 +0.14    -0.372 NA 
DOCKED: BRANCH   5   6
DOCKED: ATOM      6  C   UNL     1     142.931  74.988 219.056 -0.23 -0.04    +0.099 C  
DOCKED: BRANCH   6   7
DOCKED: ATOM      7  C   UNL     1     144.102  74.186 219.470 -0.32 -0.01    +0.046 A  
DOCKED: ATOM      8  C   UNL     1     144.854  73.431 218.551 -0.15 -0.01    +0.221 A  
DOCKED: ATOM      9  C   UNL     1     144.455  74.141 220.825 -0.43 -0.01    +0.016 A  
DOCKED: ATOM     10  N   UNL     1     145.925  72.709 218.979 -0.75 -0.18    -0.228 NA 
DOCKED: ATOM     11  C   UNL     1     145.560  73.394 221.236 -0.66 -0.00    +0.021 A  
DOCKED: ATOM     12  C   UNL     1     146.296  72.683 220.287 -0.37 +0.04    +0.114 A  
DOCKED: ATOM     13  F   UNL     1     144.503  73.375 217.242 -0.02 +0.01    -0.184 F  
DOCKED: ENDBRANCH   6   7
DOCKED: ENDBRANCH   5   6
DOCKED: ENDBRANCH   4   5
DOCKED: ENDBRANCH   1   4
DOCKED: BRANCH   1  14
DOCKED: ATOM     14  C   UNL     1     141.353  72.723 221.665 -0.22 +0.00    -0.001 C  
DOCKED: BRANCH  14  15
DOCKED: ATOM     15  C   UNL     1     140.707  71.367 221.634 -0.17 -0.01    +0.071 C  
DOCKED: BRANCH  15  16
DOCKED: ATOM     16  C   UNL     1     139.244  71.416 222.099 -0.14 -0.04    +0.234 C  
DOCKED: BRANCH  16  17
DOCKED: ATOM     17  O   UNL     1     139.149  71.849 223.459 -0.12 +0.15    -0.492 OA 
DOCKED: BRANCH  17  18
DOCKED: ATOM     18  C   UNL     1     139.582  71.127 224.586 -0.36 -0.03    +0.137 A  
DOCKED: ATOM     19  C   UNL     1     140.704  71.514 225.347 -0.54 -0.01    +0.049 A  
DOCKED: ATOM     20  C   UNL     1     138.868  69.978 224.962 -0.33 -0.01    +0.084 A  
DOCKED: ATOM     21  C   UNL     1     141.068  70.794 226.487 -0.62 -0.00    +0.024 A  
DOCKED: ATOM     22  C   UNL     1     139.242  69.255 226.102 -0.44 -0.01    +0.045 A  
DOCKED: ATOM     23  C   UNL     1     140.336  69.667 226.869 -0.53 -0.01    +0.042 A  
DOCKED: ATOM     24  Cl  UNL     1     137.474  69.450 224.032 -0.33 +0.01    -0.080 Cl 
DOCKED: ATOM     25  Cl  UNL     1     140.793  68.767 228.303 -0.79 +0.02    -0.084 Cl 
DOCKED: ENDBRANCH  17  18
DOCKED: ENDBRANCH  16  17
DOCKED: ENDBRANCH  15  16
DOCKED: ENDBRANCH  14  15
DOCKED: ENDBRANCH   1  14
DOCKED: TORSDOF 10
DOCKED: TER
DOCKED: ENDMDL
________________________________________________________________________________


    FINAL DOCKED STATE:
    ________________________


Run:   12 / 20
Time taken for this run:   0.059s

DOCKED: MODEL        12
DOCKED: USER    Run = 12
DOCKED: USER
DOCKED: USER    Estimated Free Energy of Binding    =  -5.84 kcal/mol  [=(1)+(2)+(3)-(4)]
DOCKED: USER
DOCKED: USER    (1) Final Intermolecular Energy     =  -8.82 kcal/mol
DOCKED: USER        vdW + Hbond + desolv Energy     =  -8.83 kcal/mol
DOCKED: USER        Electrostatic Energy            =  +0.01 kcal/mol
DOCKED: USER        Moving Ligand-Fixed Receptor    =  -8.82 kcal/mol
DOCKED: USER        Moving Ligand-Moving Receptor   =  +0.00 kcal/mol
DOCKED: USER    (2) Final Total Internal Energy     =  -1.22 kcal/mol
DOCKED: USER    (3) Torsional Free Energy           =  +2.98 kcal/mol
DOCKED: USER    (4) Unbound System's Energy         =  -1.22 kcal/mol
DOCKED: USER
DOCKED: USER
DOCKED: REMARK SMILES O/C(=C\CCOc1ccc(Cl)cc1Cl)[N-]/N=C\c1cccnc1F
DOCKED: REMARK SMILES IDX 2 1 1 2 15 4 16 5 17 6 18 7 23 8 19 9 22 10 20 11 21 12
DOCKED: REMARK SMILES IDX 24 13 3 14 4 15 5 16 6 17 7 18 8 19 13 20 9 21 12 22 10 23
DOCKED: REMARK SMILES IDX 14 24 11 25
DOCKED: REMARK H PARENT 1 3
DOCKED: USER                              x       y       z     vdW  Elec       q    Type
DOCKED: USER                           _______ _______ _______ _____ _____    ______ ____
DOCKED: ROOT
DOCKED: ATOM      1  C   UNL     1     140.633  75.236 221.699 -0.31 -0.00    +0.023 C  
DOCKED: ENDROOT
DOCKED: BRANCH   1   2
DOCKED: ATOM      2  O   UNL     1     141.122  76.095 222.685 -0.06 +0.14    -0.530 OA 
DOCKED: ATOM      3  H   UNL     1     141.873  76.747 222.498 -0.39 -0.22    +0.290 HD 
DOCKED: ENDBRANCH   1   2
DOCKED: BRANCH   1   4
DOCKED: ATOM      4  N   UNL     1     139.938  74.040 222.053 -0.66 +0.05    -0.546 NA 
DOCKED: BRANCH   4   5
DOCKED: ATOM      5  N   UNL     1     140.578  72.976 222.703 -0.48 -0.01    -0.372 NA 
DOCKED: BRANCH   5   6
DOCKED: ATOM      6  C   UNL     1     139.952  71.890 223.041 -0.31 -0.02    +0.099 C  
DOCKED: BRANCH   6   7
DOCKED: ATOM      7  C   UNL     1     140.046  71.295 224.391 -0.43 -0.01    +0.046 A  
DOCKED: ATOM      8  C   UNL     1     139.266  70.188 224.776 -0.26 -0.04    +0.221 A  
DOCKED: ATOM      9  C   UNL     1     140.907  71.872 225.334 -0.39 -0.00    +0.016 A  
DOCKED: ATOM     10  N   UNL     1     139.388  69.675 226.030 -0.24 +0.03    -0.228 NA 
DOCKED: ATOM     11  C   UNL     1     141.013  71.322 226.612 -0.68 -0.00    +0.021 A  
DOCKED: ATOM     12  C   UNL     1     140.243  70.206 226.943 -0.48 -0.02    +0.114 A  
DOCKED: ATOM     13  F   UNL     1     138.357  69.647 223.928 -0.06 +0.03    -0.184 F  
DOCKED: ENDBRANCH   6   7
DOCKED: ENDBRANCH   5   6
DOCKED: ENDBRANCH   4   5
DOCKED: ENDBRANCH   1   4
DOCKED: BRANCH   1  14
DOCKED: ATOM     14  C   UNL     1     140.847  75.498 220.408 -0.22 +0.00    -0.001 C  
DOCKED: BRANCH  14  15
DOCKED: ATOM     15  C   UNL     1     141.997  76.336 219.928 -0.26 -0.04    +0.071 C  
DOCKED: BRANCH  15  16
DOCKED: ATOM     16  C   UNL     1     141.710  77.838 220.058 -0.19 -0.13    +0.234 C  
DOCKED: BRANCH  16  17
DOCKED: ATOM     17  O   UNL     1     141.810  78.267 221.419 -0.12 +0.30    -0.492 OA 
DOCKED: BRANCH  17  18
DOCKED: ATOM     18  C   UNL     1     140.798  78.906 222.159 -0.30 -0.04    +0.137 A  
DOCKED: ATOM     19  C   UNL     1     139.443  78.523 222.074 -0.25 -0.01    +0.049 A  
DOCKED: ATOM     20  C   UNL     1     141.154  79.963 223.011 -0.44 -0.02    +0.084 A  
DOCKED: ATOM     21  C   UNL     1     138.479  79.154 222.864 -0.28 -0.00    +0.024 A  
DOCKED: ATOM     22  C   UNL     1     140.182  80.597 223.796 -0.38 -0.01    +0.045 A  
DOCKED: ATOM     23  C   UNL     1     138.847  80.188 223.728 -0.39 -0.01    +0.042 A  
DOCKED: ATOM     24  Cl  UNL     1     142.828  80.483 223.134 -0.79 +0.02    -0.080 Cl 
DOCKED: ATOM     25  Cl  UNL     1     137.636  80.976 224.722 -0.47 +0.01    -0.084 Cl 
DOCKED: ENDBRANCH  17  18
DOCKED: ENDBRANCH  16  17
DOCKED: ENDBRANCH  15  16
DOCKED: ENDBRANCH  14  15
DOCKED: ENDBRANCH   1  14
DOCKED: TORSDOF 10
DOCKED: TER
DOCKED: ENDMDL
________________________________________________________________________________


    FINAL DOCKED STATE:
    ________________________


Run:   13 / 20
Time taken for this run:   0.059s

DOCKED: MODEL        13
DOCKED: USER    Run = 13
DOCKED: USER
DOCKED: USER    Estimated Free Energy of Binding    =  -5.67 kcal/mol  [=(1)+(2)+(3)-(4)]
DOCKED: USER
DOCKED: USER    (1) Final Intermolecular Energy     =  -8.66 kcal/mol
DOCKED: USER        vdW + Hbond + desolv Energy     =  -8.73 kcal/mol
DOCKED: USER        Electrostatic Energy            =  +0.07 kcal/mol
DOCKED: USER        Moving Ligand-Fixed Receptor    =  -8.66 kcal/mol
DOCKED: USER        Moving Ligand-Moving Receptor   =  +0.00 kcal/mol
DOCKED: USER    (2) Final Total Internal Energy     =  -0.72 kcal/mol
DOCKED: USER    (3) Torsional Free Energy           =  +2.98 kcal/mol
DOCKED: USER    (4) Unbound System's Energy         =  -0.72 kcal/mol
DOCKED: USER
DOCKED: USER
DOCKED: REMARK SMILES O/C(=C\CCOc1ccc(Cl)cc1Cl)[N-]/N=C\c1cccnc1F
DOCKED: REMARK SMILES IDX 2 1 1 2 15 4 16 5 17 6 18 7 23 8 19 9 22 10 20 11 21 12
DOCKED: REMARK SMILES IDX 24 13 3 14 4 15 5 16 6 17 7 18 8 19 13 20 9 21 12 22 10 23
DOCKED: REMARK SMILES IDX 14 24 11 25
DOCKED: REMARK H PARENT 1 3
DOCKED: USER                              x       y       z     vdW  Elec       q    Type
DOCKED: USER                           _______ _______ _______ _____ _____    ______ ____
DOCKED: ROOT
DOCKED: ATOM      1  C   UNL     1     140.481  73.847 221.593 -0.29 -0.00    +0.023 C  
DOCKED: ENDROOT
DOCKED: BRANCH   1   2
DOCKED: ATOM      2  O   UNL     1     141.555  73.348 220.853 -0.07 +0.08    -0.530 OA 
DOCKED: ATOM      3  H   UNL     1     142.011  72.478 221.098 +0.11 -0.03    +0.290 HD 
DOCKED: ENDBRANCH   1   2
DOCKED: BRANCH   1   4
DOCKED: ATOM      4  N   UNL     1     139.977  73.130 222.719 -0.49 +0.05    -0.546 NA 
DOCKED: BRANCH   4   5
DOCKED: ATOM      5  N   UNL     1     140.687  72.071 223.302 -0.21 +0.02    -0.372 NA 
DOCKED: BRANCH   5   6
DOCKED: ATOM      6  C   UNL     1     140.099  71.119 223.961 -0.36 -0.02    +0.099 C  
DOCKED: BRANCH   6   7
DOCKED: ATOM      7  C   UNL     1     140.372  70.842 225.387 -0.51 -0.01    +0.046 A  
DOCKED: ATOM      8  C   UNL     1     140.134  69.579 225.961 -0.33 -0.04    +0.221 A  
DOCKED: ATOM      9  C   UNL     1     140.845  71.875 226.206 -0.61 -0.00    +0.016 A  
DOCKED: ATOM     10  N   UNL     1     140.401  69.370 227.279 -0.34 +0.04    -0.228 NA 
DOCKED: ATOM     11  C   UNL     1     141.114  71.632 227.554 -0.78 -0.00    +0.021 A  
DOCKED: ATOM     12  C   UNL     1     140.891  70.357 228.076 -0.51 -0.02    +0.114 A  
DOCKED: ATOM     13  F   UNL     1     139.597  68.571 225.230 -0.12 +0.03    -0.184 F  
DOCKED: ENDBRANCH   6   7
DOCKED: ENDBRANCH   5   6
DOCKED: ENDBRANCH   4   5
DOCKED: ENDBRANCH   1   4
DOCKED: BRANCH   1  14
DOCKED: ATOM     14  C   UNL     1     139.881  74.983 221.231 -0.27 +0.00    -0.001 C  
DOCKED: BRANCH  14  15
DOCKED: ATOM     15  C   UNL     1     138.456  75.297 221.585 -0.21 -0.02    +0.071 C  
DOCKED: BRANCH  15  16
DOCKED: ATOM     16  C   UNL     1     138.090  76.754 221.263 -0.10 -0.05    +0.234 C  
DOCKED: BRANCH  16  17
DOCKED: ATOM     17  O   UNL     1     138.221  77.586 222.419 -0.09 +0.09    -0.492 OA 
DOCKED: BRANCH  17  18
DOCKED: ATOM     18  C   UNL     1     139.361  78.331 222.775 -0.26 -0.03    +0.137 A  
DOCKED: ATOM     19  C   UNL     1     140.670  77.844 222.588 -0.41 -0.02    +0.049 A  
DOCKED: ATOM     20  C   UNL     1     139.182  79.605 223.337 -0.34 -0.01    +0.084 A  
DOCKED: ATOM     21  C   UNL     1     141.774  78.638 222.911 -0.52 -0.01    +0.024 A  
DOCKED: ATOM     22  C   UNL     1     140.291  80.394 223.666 -0.41 -0.01    +0.045 A  
DOCKED: ATOM     23  C   UNL     1     141.586  79.915 223.445 -0.55 -0.01    +0.042 A  
DOCKED: ATOM     24  Cl  UNL     1     137.567  80.243 223.603 -0.35 +0.01    -0.080 Cl 
DOCKED: ATOM     25  Cl  UNL     1     142.972  80.912 223.846 -0.72 +0.02    -0.084 Cl 
DOCKED: ENDBRANCH  17  18
DOCKED: ENDBRANCH  16  17
DOCKED: ENDBRANCH  15  16
DOCKED: ENDBRANCH  14  15
DOCKED: ENDBRANCH   1  14
DOCKED: TORSDOF 10
DOCKED: TER
DOCKED: ENDMDL
________________________________________________________________________________


    FINAL DOCKED STATE:
    ________________________


Run:   14 / 20
Time taken for this run:   0.059s

DOCKED: MODEL        14
DOCKED: USER    Run = 14
DOCKED: USER
DOCKED: USER    Estimated Free Energy of Binding    =  -5.10 kcal/mol  [=(1)+(2)+(3)-(4)]
DOCKED: USER
DOCKED: USER    (1) Final Intermolecular Energy     =  -8.09 kcal/mol
DOCKED: USER        vdW + Hbond + desolv Energy     =  -6.89 kcal/mol
DOCKED: USER        Electrostatic Energy            =  -1.20 kcal/mol
DOCKED: USER        Moving Ligand-Fixed Receptor    =  -8.09 kcal/mol
DOCKED: USER        Moving Ligand-Moving Receptor   =  +0.00 kcal/mol
DOCKED: USER    (2) Final Total Internal Energy     =  -1.33 kcal/mol
DOCKED: USER    (3) Torsional Free Energy           =  +2.98 kcal/mol
DOCKED: USER    (4) Unbound System's Energy         =  -1.33 kcal/mol
DOCKED: USER
DOCKED: USER
DOCKED: REMARK SMILES O/C(=C\CCOc1ccc(Cl)cc1Cl)[N-]/N=C\c1cccnc1F
DOCKED: REMARK SMILES IDX 2 1 1 2 15 4 16 5 17 6 18 7 23 8 19 9 22 10 20 11 21 12
DOCKED: REMARK SMILES IDX 24 13 3 14 4 15 5 16 6 17 7 18 8 19 13 20 9 21 12 22 10 23
DOCKED: REMARK SMILES IDX 14 24 11 25
DOCKED: REMARK H PARENT 1 3
DOCKED: USER                              x       y       z     vdW  Elec       q    Type
DOCKED: USER                           _______ _______ _______ _____ _____    ______ ____
DOCKED: ROOT
DOCKED: ATOM      1  C   UNL     1     145.429  73.101 220.086 -0.52 +0.00    +0.023 C  
DOCKED: ENDROOT
DOCKED: BRANCH   1   2
DOCKED: ATOM      2  O   UNL     1     145.682  74.360 220.634 -0.24 +0.15    -0.530 OA 
DOCKED: ATOM      3  H   UNL     1     145.431  75.212 220.148 -0.09 -0.19    +0.290 HD 
DOCKED: ENDBRANCH   1   2
DOCKED: BRANCH   1   4
DOCKED: ATOM      4  N   UNL     1     146.277  72.566 219.069 -0.32 -0.70    -0.546 NA 
DOCKED: BRANCH   4   5
DOCKED: ATOM      5  N   UNL     1     145.774  72.144 217.831 -0.41 -0.36    -0.372 NA 
DOCKED: BRANCH   5   6
DOCKED: ATOM      6  C   UNL     1     145.904  70.924 217.406 -0.00 +0.08    +0.099 C  
DOCKED: BRANCH   6   7
DOCKED: ATOM      7  C   UNL     1     145.553  69.746 218.228 -0.25 +0.02    +0.046 A  
DOCKED: ATOM      8  C   UNL     1     146.317  69.361 219.346 -0.21 +0.14    +0.221 A  
DOCKED: ATOM      9  C   UNL     1     144.450  68.962 217.865 -0.15 -0.00    +0.016 A  
DOCKED: ATOM     10  N   UNL     1     145.955  68.269 220.073 -0.91 -0.10    -0.228 NA 
DOCKED: ATOM     11  C   UNL     1     144.100  67.850 218.630 -0.26 -0.01    +0.021 A  
DOCKED: ATOM     12  C   UNL     1     144.868  67.519 219.748 -0.35 -0.01    +0.114 A  
DOCKED: ATOM     13  F   UNL     1     147.441  70.037 219.688 -0.04 -0.24    -0.184 F  
DOCKED: ENDBRANCH   6   7
DOCKED: ENDBRANCH   5   6
DOCKED: ENDBRANCH   4   5
DOCKED: ENDBRANCH   1   4
DOCKED: BRANCH   1  14
DOCKED: ATOM     14  C   UNL     1     144.366  72.395 220.475 -0.40 +0.00    -0.001 C  
DOCKED: BRANCH  14  15
DOCKED: ATOM     15  C   UNL     1     143.056  73.033 220.839 -0.23 -0.01    +0.071 C  
DOCKED: BRANCH  15  16
DOCKED: ATOM     16  C   UNL     1     142.610  74.069 219.797 -0.16 -0.06    +0.234 C  
DOCKED: BRANCH  16  17
DOCKED: ATOM     17  O   UNL     1     143.283  75.317 219.988 -0.16 +0.26    -0.492 OA 
DOCKED: BRANCH  17  18
DOCKED: ATOM     18  C   UNL     1     142.826  76.574 219.554 -0.30 -0.09    +0.137 A  
DOCKED: ATOM     19  C   UNL     1     142.214  77.498 220.425 -0.25 -0.04    +0.049 A  
DOCKED: ATOM     20  C   UNL     1     142.988  76.918 218.201 -0.28 -0.05    +0.084 A  
DOCKED: ATOM     21  C   UNL     1     141.819  78.755 219.959 -0.28 -0.01    +0.024 A  
DOCKED: ATOM     22  C   UNL     1     142.584  78.176 217.739 -0.29 -0.04    +0.045 A  
DOCKED: ATOM     23  C   UNL     1     142.008  79.097 218.618 -0.27 -0.03    +0.042 A  
DOCKED: ATOM     24  Cl  UNL     1     143.731  75.789 217.079 -0.25 +0.04    -0.080 Cl 
DOCKED: ATOM     25  Cl  UNL     1     141.516  80.678 218.037 -0.28 +0.05    -0.084 Cl 
DOCKED: ENDBRANCH  17  18
DOCKED: ENDBRANCH  16  17
DOCKED: ENDBRANCH  15  16
DOCKED: ENDBRANCH  14  15
DOCKED: ENDBRANCH   1  14
DOCKED: TORSDOF 10
DOCKED: TER
DOCKED: ENDMDL
________________________________________________________________________________


    FINAL DOCKED STATE:
    ________________________


Run:   15 / 20
Time taken for this run:   0.059s

DOCKED: MODEL        15
DOCKED: USER    Run = 15
DOCKED: USER
DOCKED: USER    Estimated Free Energy of Binding    =  -5.90 kcal/mol  [=(1)+(2)+(3)-(4)]
DOCKED: USER
DOCKED: USER    (1) Final Intermolecular Energy     =  -8.88 kcal/mol
DOCKED: USER        vdW + Hbond + desolv Energy     =  -8.92 kcal/mol
DOCKED: USER        Electrostatic Energy            =  +0.04 kcal/mol
DOCKED: USER        Moving Ligand-Fixed Receptor    =  -8.88 kcal/mol
DOCKED: USER        Moving Ligand-Moving Receptor   =  +0.00 kcal/mol
DOCKED: USER    (2) Final Total Internal Energy     =  -1.42 kcal/mol
DOCKED: USER    (3) Torsional Free Energy           =  +2.98 kcal/mol
DOCKED: USER    (4) Unbound System's Energy         =  -1.42 kcal/mol
DOCKED: USER
DOCKED: USER
DOCKED: REMARK SMILES O/C(=C\CCOc1ccc(Cl)cc1Cl)[N-]/N=C\c1cccnc1F
DOCKED: REMARK SMILES IDX 2 1 1 2 15 4 16 5 17 6 18 7 23 8 19 9 22 10 20 11 21 12
DOCKED: REMARK SMILES IDX 24 13 3 14 4 15 5 16 6 17 7 18 8 19 13 20 9 21 12 22 10 23
DOCKED: REMARK SMILES IDX 14 24 11 25
DOCKED: REMARK H PARENT 1 3
DOCKED: USER                              x       y       z     vdW  Elec       q    Type
DOCKED: USER                           _______ _______ _______ _____ _____    ______ ____
DOCKED: ROOT
DOCKED: ATOM      1  C   UNL     1     140.803  73.559 221.372 -0.28 -0.00    +0.023 C  
DOCKED: ENDROOT
DOCKED: BRANCH   1   2
DOCKED: ATOM      2  O   UNL     1     140.039  74.232 222.327 -0.71 +0.01    -0.530 OA 
DOCKED: ATOM      3  H   UNL     1     139.232  73.803 222.763 -0.44 -0.09    +0.290 HD 
DOCKED: ENDBRANCH   1   2
DOCKED: BRANCH   1   4
DOCKED: ATOM      4  N   UNL     1     140.999  74.115 220.072 +0.01 +0.12    -0.546 NA 
DOCKED: BRANCH   4   5
DOCKED: ATOM      5  N   UNL     1     141.903  75.161 219.842 -0.07 +0.13    -0.372 NA 
DOCKED: BRANCH   5   6
DOCKED: ATOM      6  C   UNL     1     142.954  75.020 219.093 -0.23 -0.04    +0.099 C  
DOCKED: BRANCH   6   7
DOCKED: ATOM      7  C   UNL     1     144.122  74.205 219.492 -0.33 -0.01    +0.046 A  
DOCKED: ATOM      8  C   UNL     1     144.871  73.465 218.558 -0.14 -0.01    +0.221 A  
DOCKED: ATOM      9  C   UNL     1     144.474  74.133 220.846 -0.43 -0.01    +0.016 A  
DOCKED: ATOM     10  N   UNL     1     145.938  72.731 218.972 -0.75 -0.18    -0.228 NA 
DOCKED: ATOM     11  C   UNL     1     145.576  73.374 221.242 -0.66 -0.00    +0.021 A  
DOCKED: ATOM     12  C   UNL     1     146.309  72.678 220.280 -0.36 +0.04    +0.114 A  
DOCKED: ATOM     13  F   UNL     1     144.519  73.436 217.249 -0.02 +0.02    -0.184 F  
DOCKED: ENDBRANCH   6   7
DOCKED: ENDBRANCH   5   6
DOCKED: ENDBRANCH   4   5
DOCKED: ENDBRANCH   1   4
DOCKED: BRANCH   1  14
DOCKED: ATOM     14  C   UNL     1     141.326  72.362 221.646 -0.25 +0.00    -0.001 C  
DOCKED: BRANCH  14  15
DOCKED: ATOM     15  C   UNL     1     140.498  71.111 221.719 -0.13 -0.01    +0.071 C  
DOCKED: BRANCH  15  16
DOCKED: ATOM     16  C   UNL     1     139.052  71.401 222.148 -0.14 -0.05    +0.234 C  
DOCKED: BRANCH  16  17
DOCKED: ATOM     17  O   UNL     1     138.991  71.804 223.519 -0.09 +0.15    -0.492 OA 
DOCKED: BRANCH  17  18
DOCKED: ATOM     18  C   UNL     1     139.501  71.083 224.614 -0.35 -0.03    +0.137 A  
DOCKED: ATOM     19  C   UNL     1     140.649  71.493 225.322 -0.53 -0.01    +0.049 A  
DOCKED: ATOM     20  C   UNL     1     138.839  69.910 225.012 -0.33 -0.01    +0.084 A  
DOCKED: ATOM     21  C   UNL     1     141.090  70.771 226.434 -0.61 -0.00    +0.024 A  
DOCKED: ATOM     22  C   UNL     1     139.290  69.186 226.123 -0.45 -0.01    +0.045 A  
DOCKED: ATOM     23  C   UNL     1     140.409  69.620 226.838 -0.53 -0.01    +0.042 A  
DOCKED: ATOM     24  Cl  UNL     1     137.414  69.354 224.147 -0.33 +0.01    -0.080 Cl 
DOCKED: ATOM     25  Cl  UNL     1     140.963  68.718 228.236 -0.77 +0.02    -0.084 Cl 
DOCKED: ENDBRANCH  17  18
DOCKED: ENDBRANCH  16  17
DOCKED: ENDBRANCH  15  16
DOCKED: ENDBRANCH  14  15
DOCKED: ENDBRANCH   1  14
DOCKED: TORSDOF 10
DOCKED: TER
DOCKED: ENDMDL
________________________________________________________________________________


    FINAL DOCKED STATE:
    ________________________


Run:   16 / 20
Time taken for this run:   0.059s

DOCKED: MODEL        16
DOCKED: USER    Run = 16
DOCKED: USER
DOCKED: USER    Estimated Free Energy of Binding    =  -6.23 kcal/mol  [=(1)+(2)+(3)-(4)]
DOCKED: USER
DOCKED: USER    (1) Final Intermolecular Energy     =  -9.21 kcal/mol
DOCKED: USER        vdW + Hbond + desolv Energy     =  -9.38 kcal/mol
DOCKED: USER        Electrostatic Energy            =  +0.17 kcal/mol
DOCKED: USER        Moving Ligand-Fixed Receptor    =  -9.21 kcal/mol
DOCKED: USER        Moving Ligand-Moving Receptor   =  +0.00 kcal/mol
DOCKED: USER    (2) Final Total Internal Energy     =  -0.96 kcal/mol
DOCKED: USER    (3) Torsional Free Energy           =  +2.98 kcal/mol
DOCKED: USER    (4) Unbound System's Energy         =  -0.96 kcal/mol
DOCKED: USER
DOCKED: USER
DOCKED: REMARK SMILES O/C(=C\CCOc1ccc(Cl)cc1Cl)[N-]/N=C\c1cccnc1F
DOCKED: REMARK SMILES IDX 2 1 1 2 15 4 16 5 17 6 18 7 23 8 19 9 22 10 20 11 21 12
DOCKED: REMARK SMILES IDX 24 13 3 14 4 15 5 16 6 17 7 18 8 19 13 20 9 21 12 22 10 23
DOCKED: REMARK SMILES IDX 14 24 11 25
DOCKED: REMARK H PARENT 1 3
DOCKED: USER                              x       y       z     vdW  Elec       q    Type
DOCKED: USER                           _______ _______ _______ _____ _____    ______ ____
DOCKED: ROOT
DOCKED: ATOM      1  C   UNL     1     140.379  74.564 221.702 -0.26 -0.00    +0.023 C  
DOCKED: ENDROOT
DOCKED: BRANCH   1   2
DOCKED: ATOM      2  O   UNL     1     139.158  74.325 222.337 -0.51 +0.13    -0.530 OA 
DOCKED: ATOM      3  H   UNL     1     139.074  73.658 223.095 -0.47 -0.14    +0.290 HD 
DOCKED: ENDBRANCH   1   2
DOCKED: BRANCH   1   4
DOCKED: ATOM      4  N   UNL     1     141.091  75.780 221.928 -0.18 +0.16    -0.546 NA 
DOCKED: BRANCH   4   5
DOCKED: ATOM      5  N   UNL     1     140.568  76.809 222.722 -0.17 +0.10    -0.372 NA 
DOCKED: BRANCH   5   6
DOCKED: ATOM      6  C   UNL     1     140.443  78.027 222.289 -0.35 -0.03    +0.099 C  
DOCKED: BRANCH   6   7
DOCKED: ATOM      7  C   UNL     1     141.195  79.164 222.861 -0.47 -0.01    +0.046 A  
DOCKED: ATOM      8  C   UNL     1     140.554  80.219 223.537 -0.32 -0.04    +0.221 A  
DOCKED: ATOM      9  C   UNL     1     142.585  79.218 222.694 -0.52 -0.01    +0.016 A  
DOCKED: ATOM     10  N   UNL     1     141.288  81.245 224.047 -0.25 +0.02    -0.228 NA 
DOCKED: ATOM     11  C   UNL     1     143.313  80.280 223.231 -0.60 -0.01    +0.021 A  
DOCKED: ATOM     12  C   UNL     1     142.641  81.292 223.919 -0.50 -0.02    +0.114 A  
DOCKED: ATOM     13  F   UNL     1     139.203  80.255 223.651 -0.13 +0.02    -0.184 F  
DOCKED: ENDBRANCH   6   7
DOCKED: ENDBRANCH   5   6
DOCKED: ENDBRANCH   4   5
DOCKED: ENDBRANCH   1   4
DOCKED: BRANCH   1  14
DOCKED: ATOM     14  C   UNL     1     140.878  73.675 220.840 -0.24 +0.00    -0.001 C  
DOCKED: BRANCH  14  15
DOCKED: ATOM     15  C   UNL     1     141.622  72.447 221.279 -0.22 -0.01    +0.071 C  
DOCKED: BRANCH  15  16
DOCKED: ATOM     16  C   UNL     1     140.711  71.452 222.012 -0.13 -0.03    +0.234 C  
DOCKED: BRANCH  16  17
DOCKED: ATOM     17  O   UNL     1     140.312  71.962 223.288 -0.23 +0.06    -0.492 OA 
DOCKED: BRANCH  17  18
DOCKED: ATOM     18  C   UNL     1     140.288  71.237 224.494 -0.39 -0.02    +0.137 A  
DOCKED: ATOM     19  C   UNL     1     141.149  71.530 225.571 -0.51 -0.01    +0.049 A  
DOCKED: ATOM     20  C   UNL     1     139.370  70.182 224.624 -0.34 -0.01    +0.084 A  
DOCKED: ATOM     21  C   UNL     1     141.055  70.814 226.767 -0.62 -0.00    +0.024 A  
DOCKED: ATOM     22  C   UNL     1     139.285  69.463 225.823 -0.42 -0.01    +0.045 A  
DOCKED: ATOM     23  C   UNL     1     140.121  69.784 226.897 -0.53 -0.01    +0.042 A  
DOCKED: ATOM     24  Cl  UNL     1     138.290  69.772 223.301 -0.30 +0.01    -0.080 Cl 
DOCKED: ATOM     25  Cl  UNL     1     140.002  68.890 228.401 -0.72 +0.01    -0.084 Cl 
DOCKED: ENDBRANCH  17  18
DOCKED: ENDBRANCH  16  17
DOCKED: ENDBRANCH  15  16
DOCKED: ENDBRANCH  14  15
DOCKED: ENDBRANCH   1  14
DOCKED: TORSDOF 10
DOCKED: TER
DOCKED: ENDMDL
________________________________________________________________________________


    FINAL DOCKED STATE:
    ________________________


Run:   17 / 20
Time taken for this run:   0.059s

DOCKED: MODEL        17
DOCKED: USER    Run = 17
DOCKED: USER
DOCKED: USER    Estimated Free Energy of Binding    =  -5.96 kcal/mol  [=(1)+(2)+(3)-(4)]
DOCKED: USER
DOCKED: USER    (1) Final Intermolecular Energy     =  -8.94 kcal/mol
DOCKED: USER        vdW + Hbond + desolv Energy     =  -9.07 kcal/mol
DOCKED: USER        Electrostatic Energy            =  +0.13 kcal/mol
DOCKED: USER        Moving Ligand-Fixed Receptor    =  -8.94 kcal/mol
DOCKED: USER        Moving Ligand-Moving Receptor   =  +0.00 kcal/mol
DOCKED: USER    (2) Final Total Internal Energy     =  -1.03 kcal/mol
DOCKED: USER    (3) Torsional Free Energy           =  +2.98 kcal/mol
DOCKED: USER    (4) Unbound System's Energy         =  -1.03 kcal/mol
DOCKED: USER
DOCKED: USER
DOCKED: REMARK SMILES O/C(=C\CCOc1ccc(Cl)cc1Cl)[N-]/N=C\c1cccnc1F
DOCKED: REMARK SMILES IDX 2 1 1 2 15 4 16 5 17 6 18 7 23 8 19 9 22 10 20 11 21 12
DOCKED: REMARK SMILES IDX 24 13 3 14 4 15 5 16 6 17 7 18 8 19 13 20 9 21 12 22 10 23
DOCKED: REMARK SMILES IDX 14 24 11 25
DOCKED: REMARK H PARENT 1 3
DOCKED: USER                              x       y       z     vdW  Elec       q    Type
DOCKED: USER                           _______ _______ _______ _____ _____    ______ ____
DOCKED: ROOT
DOCKED: ATOM      1  C   UNL     1     139.822  74.867 221.649 -0.29 -0.00    +0.023 C  
DOCKED: ENDROOT
DOCKED: BRANCH   1   2
DOCKED: ATOM      2  O   UNL     1     138.653  74.270 222.124 -0.16 +0.16    -0.530 OA 
DOCKED: ATOM      3  H   UNL     1     138.621  73.803 223.022 -0.49 -0.19    +0.290 HD 
DOCKED: ENDBRANCH   1   2
DOCKED: BRANCH   1   4
DOCKED: ATOM      4  N   UNL     1     140.036  76.271 221.798 -0.10 +0.13    -0.546 NA 
DOCKED: BRANCH   4   5
DOCKED: ATOM      5  N   UNL     1     139.315  77.036 222.725 -0.12 +0.07    -0.372 NA 
DOCKED: BRANCH   5   6
DOCKED: ATOM      6  C   UNL     1     139.294  78.334 222.688 -0.28 -0.02    +0.099 C  
DOCKED: BRANCH   6   7
DOCKED: ATOM      7  C   UNL     1     140.478  79.165 222.994 -0.42 -0.01    +0.046 A  
DOCKED: ATOM      8  C   UNL     1     140.362  80.464 223.522 -0.31 -0.03    +0.221 A  
DOCKED: ATOM      9  C   UNL     1     141.756  78.664 222.715 -0.50 -0.01    +0.016 A  
DOCKED: ATOM     10  N   UNL     1     141.480  81.192 223.789 -0.34 +0.03    -0.228 NA 
DOCKED: ATOM     11  C   UNL     1     142.886  79.431 223.002 -0.54 -0.01    +0.021 A  
DOCKED: ATOM     12  C   UNL     1     142.727  80.704 223.552 -0.57 -0.02    +0.114 A  
DOCKED: ATOM     13  F   UNL     1     139.145  81.026 223.731 -0.12 +0.02    -0.184 F  
DOCKED: ENDBRANCH   6   7
DOCKED: ENDBRANCH   5   6
DOCKED: ENDBRANCH   4   5
DOCKED: ENDBRANCH   1   4
DOCKED: BRANCH   1  14
DOCKED: ATOM     14  C   UNL     1     140.740  74.140 221.009 -0.27 +0.00    -0.001 C  
DOCKED: BRANCH  14  15
DOCKED: ATOM     15  C   UNL     1     141.432  72.966 221.640 -0.17 -0.01    +0.071 C  
DOCKED: BRANCH  15  16
DOCKED: ATOM     16  C   UNL     1     140.434  71.932 222.182 -0.21 -0.03    +0.234 C  
DOCKED: BRANCH  16  17
DOCKED: ATOM     17  O   UNL     1     140.031  72.255 223.516 -0.27 +0.09    -0.492 OA 
DOCKED: BRANCH  17  18
DOCKED: ATOM     18  C   UNL     1     140.174  71.425 224.644 -0.39 -0.02    +0.137 A  
DOCKED: ATOM     19  C   UNL     1     141.073  71.719 225.689 -0.51 -0.01    +0.049 A  
DOCKED: ATOM     20  C   UNL     1     139.391  70.263 224.725 -0.35 -0.01    +0.084 A  
DOCKED: ATOM     21  C   UNL     1     141.146  70.891 226.813 -0.61 -0.00    +0.024 A  
DOCKED: ATOM     22  C   UNL     1     139.473  69.433 225.851 -0.43 -0.01    +0.045 A  
DOCKED: ATOM     23  C   UNL     1     140.343  69.751 226.897 -0.53 -0.01    +0.042 A  
DOCKED: ATOM     24  Cl  UNL     1     138.270  69.851 223.437 -0.32 +0.01    -0.080 Cl 
DOCKED: ATOM     25  Cl  UNL     1     140.434  68.715 228.310 -0.79 +0.02    -0.084 Cl 
DOCKED: ENDBRANCH  17  18
DOCKED: ENDBRANCH  16  17
DOCKED: ENDBRANCH  15  16
DOCKED: ENDBRANCH  14  15
DOCKED: ENDBRANCH   1  14
DOCKED: TORSDOF 10
DOCKED: TER
DOCKED: ENDMDL
________________________________________________________________________________


    FINAL DOCKED STATE:
    ________________________


Run:   18 / 20
Time taken for this run:   0.059s

DOCKED: MODEL        18
DOCKED: USER    Run = 18
DOCKED: USER
DOCKED: USER    Estimated Free Energy of Binding    =  -5.94 kcal/mol  [=(1)+(2)+(3)-(4)]
DOCKED: USER
DOCKED: USER    (1) Final Intermolecular Energy     =  -8.92 kcal/mol
DOCKED: USER        vdW + Hbond + desolv Energy     =  -8.95 kcal/mol
DOCKED: USER        Electrostatic Energy            =  +0.03 kcal/mol
DOCKED: USER        Moving Ligand-Fixed Receptor    =  -8.92 kcal/mol
DOCKED: USER        Moving Ligand-Moving Receptor   =  +0.00 kcal/mol
DOCKED: USER    (2) Final Total Internal Energy     =  -0.93 kcal/mol
DOCKED: USER    (3) Torsional Free Energy           =  +2.98 kcal/mol
DOCKED: USER    (4) Unbound System's Energy         =  -0.93 kcal/mol
DOCKED: USER
DOCKED: USER
DOCKED: REMARK SMILES O/C(=C\CCOc1ccc(Cl)cc1Cl)[N-]/N=C\c1cccnc1F
DOCKED: REMARK SMILES IDX 2 1 1 2 15 4 16 5 17 6 18 7 23 8 19 9 22 10 20 11 21 12
DOCKED: REMARK SMILES IDX 24 13 3 14 4 15 5 16 6 17 7 18 8 19 13 20 9 21 12 22 10 23
DOCKED: REMARK SMILES IDX 14 24 11 25
DOCKED: REMARK H PARENT 1 3
DOCKED: USER                              x       y       z     vdW  Elec       q    Type
DOCKED: USER                           _______ _______ _______ _____ _____    ______ ____
DOCKED: ROOT
DOCKED: ATOM      1  C   UNL     1     138.828  68.738 223.423 -0.27 -0.00    +0.023 C  
DOCKED: ENDROOT
DOCKED: BRANCH   1   2
DOCKED: ATOM      2  O   UNL     1     138.507  67.759 222.480 -0.08 +0.09    -0.530 OA 
DOCKED: ATOM      3  H   UNL     1     139.083  66.936 222.351 +0.04 -0.06    +0.290 HD 
DOCKED: ENDBRANCH   1   2
DOCKED: BRANCH   1   4
DOCKED: ATOM      4  N   UNL     1     138.468  68.575 224.794 -0.22 +0.02    -0.546 NA 
DOCKED: BRANCH   4   5
DOCKED: ATOM      5  N   UNL     1     139.201  67.753 225.660 -0.72 +0.01    -0.372 NA 
DOCKED: BRANCH   5   6
DOCKED: ATOM      6  C   UNL     1     139.665  68.178 226.796 -0.55 -0.02    +0.099 C  
DOCKED: BRANCH   6   7
DOCKED: ATOM      7  C   UNL     1     140.161  69.556 226.996 -0.53 -0.01    +0.046 A  
DOCKED: ATOM      8  C   UNL     1     139.812  70.319 228.126 -0.41 -0.04    +0.221 A  
DOCKED: ATOM      9  C   UNL     1     140.972  70.140 226.015 -0.54 -0.00    +0.016 A  
DOCKED: ATOM     10  N   UNL     1     140.293  71.584 228.267 -0.49 +0.05    -0.228 NA 
DOCKED: ATOM     11  C   UNL     1     141.455  71.438 226.187 -0.63 -0.00    +0.021 A  
DOCKED: ATOM     12  C   UNL     1     141.107  72.150 227.336 -0.71 -0.02    +0.114 A  
DOCKED: ATOM     13  F   UNL     1     138.962  69.830 229.062 -0.16 +0.02    -0.184 F  
DOCKED: ENDBRANCH   6   7
DOCKED: ENDBRANCH   5   6
DOCKED: ENDBRANCH   4   5
DOCKED: ENDBRANCH   1   4
DOCKED: BRANCH   1  14
DOCKED: ATOM     14  C   UNL     1     139.439  69.863 223.047 -0.22 +0.00    -0.001 C  
DOCKED: BRANCH  14  15
DOCKED: ATOM     15  C   UNL     1     139.052  71.215 223.575 -0.29 -0.02    +0.071 C  
DOCKED: BRANCH  15  16
DOCKED: ATOM     16  C   UNL     1     138.676  72.188 222.449 -0.12 -0.06    +0.234 C  
DOCKED: BRANCH  16  17
DOCKED: ATOM     17  O   UNL     1     139.586  73.291 222.394 -0.56 +0.09    -0.492 OA 
DOCKED: BRANCH  17  18
DOCKED: ATOM     18  C   UNL     1     140.857  73.281 221.791 -0.23 -0.01    +0.137 A  
DOCKED: ATOM     19  C   UNL     1     141.579  72.092 221.567 -0.22 -0.00    +0.049 A  
DOCKED: ATOM     20  C   UNL     1     141.423  74.505 221.399 -0.23 -0.02    +0.084 A  
DOCKED: ATOM     21  C   UNL     1     142.817  72.126 220.920 -0.24 -0.00    +0.024 A  
DOCKED: ATOM     22  C   UNL     1     142.668  74.535 220.757 -0.27 -0.02    +0.045 A  
DOCKED: ATOM     23  C   UNL     1     143.360  73.346 220.510 -0.31 -0.01    +0.042 A  
DOCKED: ATOM     24  Cl  UNL     1     140.565  76.013 221.675 -0.45 +0.02    -0.080 Cl 
DOCKED: ATOM     25  Cl  UNL     1     144.912  73.387 219.694 -0.55 +0.01    -0.084 Cl 
DOCKED: ENDBRANCH  17  18
DOCKED: ENDBRANCH  16  17
DOCKED: ENDBRANCH  15  16
DOCKED: ENDBRANCH  14  15
DOCKED: ENDBRANCH   1  14
DOCKED: TORSDOF 10
DOCKED: TER
DOCKED: ENDMDL
________________________________________________________________________________


    FINAL DOCKED STATE:
    ________________________


Run:   19 / 20
Time taken for this run:   0.059s

DOCKED: MODEL        19
DOCKED: USER    Run = 19
DOCKED: USER
DOCKED: USER    Estimated Free Energy of Binding    =  -5.69 kcal/mol  [=(1)+(2)+(3)-(4)]
DOCKED: USER
DOCKED: USER    (1) Final Intermolecular Energy     =  -8.67 kcal/mol
DOCKED: USER        vdW + Hbond + desolv Energy     =  -8.74 kcal/mol
DOCKED: USER        Electrostatic Energy            =  +0.07 kcal/mol
DOCKED: USER        Moving Ligand-Fixed Receptor    =  -8.67 kcal/mol
DOCKED: USER        Moving Ligand-Moving Receptor   =  +0.00 kcal/mol
DOCKED: USER    (2) Final Total Internal Energy     =  -1.23 kcal/mol
DOCKED: USER    (3) Torsional Free Energy           =  +2.98 kcal/mol
DOCKED: USER    (4) Unbound System's Energy         =  -1.23 kcal/mol
DOCKED: USER
DOCKED: USER
DOCKED: REMARK SMILES O/C(=C\CCOc1ccc(Cl)cc1Cl)[N-]/N=C\c1cccnc1F
DOCKED: REMARK SMILES IDX 2 1 1 2 15 4 16 5 17 6 18 7 23 8 19 9 22 10 20 11 21 12
DOCKED: REMARK SMILES IDX 24 13 3 14 4 15 5 16 6 17 7 18 8 19 13 20 9 21 12 22 10 23
DOCKED: REMARK SMILES IDX 14 24 11 25
DOCKED: REMARK H PARENT 1 3
DOCKED: USER                              x       y       z     vdW  Elec       q    Type
DOCKED: USER                           _______ _______ _______ _____ _____    ______ ____
DOCKED: ROOT
DOCKED: ATOM      1  C   UNL     1     139.666  71.901 222.430 -0.29 -0.00    +0.023 C  
DOCKED: ENDROOT
DOCKED: BRANCH   1   2
DOCKED: ATOM      2  O   UNL     1     138.524  72.668 222.667 -0.02 +0.19    -0.530 OA 
DOCKED: ATOM      3  H   UNL     1     138.575  73.670 222.804 -0.49 -0.15    +0.290 HD 
DOCKED: ENDBRANCH   1   2
DOCKED: BRANCH   1   4
DOCKED: ATOM      4  N   UNL     1     140.156  70.998 223.422 -0.05 +0.08    -0.546 NA 
DOCKED: BRANCH   4   5
DOCKED: ATOM      5  N   UNL     1     141.070  71.401 224.405 -0.10 +0.03    -0.372 NA 
DOCKED: BRANCH   5   6
DOCKED: ATOM      6  C   UNL     1     140.743  71.512 225.656 -0.52 -0.01    +0.099 C  
DOCKED: BRANCH   6   7
DOCKED: ATOM      7  C   UNL     1     140.620  70.349 226.560 -0.55 -0.01    +0.046 A  
DOCKED: ATOM      8  C   UNL     1     140.231  70.487 227.906 -0.46 -0.04    +0.221 A  
DOCKED: ATOM      9  C   UNL     1     140.936  69.072 226.079 -0.52 -0.00    +0.016 A  
DOCKED: ATOM     10  N   UNL     1     140.131  69.387 228.700 -0.31 +0.04    -0.228 NA 
DOCKED: ATOM     11  C   UNL     1     140.821  67.961 226.915 -0.66 -0.01    +0.021 A  
DOCKED: ATOM     12  C   UNL     1     140.405  68.139 228.235 -0.51 -0.03    +0.114 A  
DOCKED: ATOM     13  F   UNL     1     139.996  71.710 228.442 -0.27 +0.05    -0.184 F  
DOCKED: ENDBRANCH   6   7
DOCKED: ENDBRANCH   5   6
DOCKED: ENDBRANCH   4   5
DOCKED: ENDBRANCH   1   4
DOCKED: BRANCH   1  14
DOCKED: ATOM     14  C   UNL     1     140.344  72.032 221.288 -0.21 +0.00    -0.001 C  
DOCKED: BRANCH  14  15
DOCKED: ATOM     15  C   UNL     1     141.486  72.994 221.126 -0.24 -0.01    +0.071 C  
DOCKED: BRANCH  15  16
DOCKED: ATOM     16  C   UNL     1     140.999  74.434 220.907 -0.19 -0.05    +0.234 C  
DOCKED: BRANCH  16  17
DOCKED: ATOM     17  O   UNL     1     140.202  74.882 222.007 -0.63 +0.05    -0.492 OA 
DOCKED: BRANCH  17  18
DOCKED: ATOM     18  C   UNL     1     140.004  76.221 222.389 -0.28 -0.03    +0.137 A  
DOCKED: ATOM     19  C   UNL     1     141.074  77.092 222.677 -0.37 -0.02    +0.049 A  
DOCKED: ATOM     20  C   UNL     1     138.689  76.704 222.487 -0.27 -0.02    +0.084 A  
DOCKED: ATOM     21  C   UNL     1     140.831  78.428 223.006 -0.47 -0.01    +0.024 A  
DOCKED: ATOM     22  C   UNL     1     138.450  78.043 222.824 -0.25 -0.01    +0.045 A  
DOCKED: ATOM     23  C   UNL     1     139.521  78.906 223.075 -0.35 -0.01    +0.042 A  
DOCKED: ATOM     24  Cl  UNL     1     137.325  75.648 222.153 -0.28 +0.02    -0.080 Cl 
DOCKED: ATOM     25  Cl  UNL     1     139.218  80.585 223.484 -0.48 +0.01    -0.084 Cl 
DOCKED: ENDBRANCH  17  18
DOCKED: ENDBRANCH  16  17
DOCKED: ENDBRANCH  15  16
DOCKED: ENDBRANCH  14  15
DOCKED: ENDBRANCH   1  14
DOCKED: TORSDOF 10
DOCKED: TER
DOCKED: ENDMDL
________________________________________________________________________________


    FINAL DOCKED STATE:
    ________________________


Run:   20 / 20
Time taken for this run:   0.059s

DOCKED: MODEL        20
DOCKED: USER    Run = 20
DOCKED: USER
DOCKED: USER    Estimated Free Energy of Binding    =  -6.48 kcal/mol  [=(1)+(2)+(3)-(4)]
DOCKED: USER
DOCKED: USER    (1) Final Intermolecular Energy     =  -9.47 kcal/mol
DOCKED: USER        vdW + Hbond + desolv Energy     =  -9.54 kcal/mol
DOCKED: USER        Electrostatic Energy            =  +0.07 kcal/mol
DOCKED: USER        Moving Ligand-Fixed Receptor    =  -9.47 kcal/mol
DOCKED: USER        Moving Ligand-Moving Receptor   =  +0.00 kcal/mol
DOCKED: USER    (2) Final Total Internal Energy     =  -0.70 kcal/mol
DOCKED: USER    (3) Torsional Free Energy           =  +2.98 kcal/mol
DOCKED: USER    (4) Unbound System's Energy         =  -0.70 kcal/mol
DOCKED: USER
DOCKED: USER
DOCKED: REMARK SMILES O/C(=C\CCOc1ccc(Cl)cc1Cl)[N-]/N=C\c1cccnc1F
DOCKED: REMARK SMILES IDX 2 1 1 2 15 4 16 5 17 6 18 7 23 8 19 9 22 10 20 11 21 12
DOCKED: REMARK SMILES IDX 24 13 3 14 4 15 5 16 6 17 7 18 8 19 13 20 9 21 12 22 10 23
DOCKED: REMARK SMILES IDX 14 24 11 25
DOCKED: REMARK H PARENT 1 3
DOCKED: USER                              x       y       z     vdW  Elec       q    Type
DOCKED: USER                           _______ _______ _______ _____ _____    ______ ____
DOCKED: ROOT
DOCKED: ATOM      1  C   UNL     1     140.362  73.773 221.943 -0.23 -0.00    +0.023 C  
DOCKED: ENDROOT
DOCKED: BRANCH   1   2
DOCKED: ATOM      2  O   UNL     1     139.291  74.578 222.334 -0.56 +0.11    -0.530 OA 
DOCKED: ATOM      3  H   UNL     1     138.654  74.296 223.069 -0.50 -0.18    +0.290 HD 
DOCKED: ENDBRANCH   1   2
DOCKED: BRANCH   1   4
DOCKED: ATOM      4  N   UNL     1     140.726  72.623 222.707 -0.32 +0.01    -0.546 NA 
DOCKED: BRANCH   4   5
DOCKED: ATOM      5  N   UNL     1     139.804  71.952 223.521 -0.19 +0.08    -0.372 NA 
DOCKED: BRANCH   5   6
DOCKED: ATOM      6  C   UNL     1     140.093  70.842 224.130 -0.35 -0.02    +0.099 C  
DOCKED: BRANCH   6   7
DOCKED: ATOM      7  C   UNL     1     140.329  70.764 225.588 -0.52 -0.01    +0.046 A  
DOCKED: ATOM      8  C   UNL     1     139.997  69.621 226.339 -0.34 -0.04    +0.221 A  
DOCKED: ATOM      9  C   UNL     1     140.864  71.874 226.254 -0.62 -0.00    +0.016 A  
DOCKED: ATOM     10  N   UNL     1     140.234  69.595 227.678 -0.35 +0.04    -0.228 NA 
DOCKED: ATOM     11  C   UNL     1     141.100  71.818 227.628 -0.81 -0.00    +0.021 A  
DOCKED: ATOM     12  C   UNL     1     140.782  70.655 228.330 -0.49 -0.02    +0.114 A  
DOCKED: ATOM     13  F   UNL     1     139.399  68.553 225.755 -0.13 +0.02    -0.184 F  
DOCKED: ENDBRANCH   6   7
DOCKED: ENDBRANCH   5   6
DOCKED: ENDBRANCH   4   5
DOCKED: ENDBRANCH   1   4
DOCKED: BRANCH   1  14
DOCKED: ATOM     14  C   UNL     1     141.091  74.090 220.871 -0.27 +0.00    -0.001 C  
DOCKED: BRANCH  14  15
DOCKED: ATOM     15  C   UNL     1     141.952  75.319 220.808 -0.23 -0.03    +0.071 C  
DOCKED: BRANCH  15  16
DOCKED: ATOM     16  C   UNL     1     141.118  76.601 220.680 -0.19 -0.10    +0.234 C  
DOCKED: BRANCH  16  17
DOCKED: ATOM     17  O   UNL     1     141.448  77.537 221.712 -0.12 +0.27    -0.492 OA 
DOCKED: BRANCH  17  18
DOCKED: ATOM     18  C   UNL     1     140.539  78.367 222.393 -0.32 -0.04    +0.137 A  
DOCKED: ATOM     19  C   UNL     1     139.150  78.124 222.397 -0.27 -0.01    +0.049 A  
DOCKED: ATOM     20  C   UNL     1     141.038  79.477 223.092 -0.44 -0.02    +0.084 A  
DOCKED: ATOM     21  C   UNL     1     138.290  78.948 223.128 -0.26 -0.00    +0.024 A  
DOCKED: ATOM     22  C   UNL     1     140.170  80.304 223.817 -0.39 -0.01    +0.045 A  
DOCKED: ATOM     23  C   UNL     1     138.799  80.035 223.842 -0.39 -0.01    +0.042 A  
DOCKED: ATOM     24  Cl  UNL     1     142.760  79.826 223.099 -0.76 +0.03    -0.080 Cl 
DOCKED: ATOM     25  Cl  UNL     1     137.718  81.066 224.762 -0.46 +0.01    -0.084 Cl 
DOCKED: ENDBRANCH  17  18
DOCKED: ENDBRANCH  16  17
DOCKED: ENDBRANCH  15  16
DOCKED: ENDBRANCH  14  15
DOCKED: ENDBRANCH   1  14
DOCKED: TORSDOF 10
DOCKED: TER
DOCKED: ENDMDL
________________________________________________________________________________


    CLUSTERING HISTOGRAM
    ____________________


________________________________________________________________________________
     |           |     |           |     |
Clus | Lowest    | Run | Mean      | Num | Histogram
-ter | Binding   |     | Binding   | in  |
Rank | Energy    |     | Energy    | Clus|    5    10   15   20   25   30   35
_____|___________|_____|___________|_____|____:____|____:____|____:____|____:___
   1 |     -6.67 |  10 |     -6.20 |   7 |#######
   2 |     -6.23 |  16 |     -6.01 |   4 |####
   3 |     -5.95 |  11 |     -5.93 |   2 |##
   4 |     -5.94 |  18 |     -5.94 |   1 |#
   5 |     -5.84 |  12 |     -5.76 |   2 |##
   6 |     -5.70 |   4 |     -5.70 |   1 |#
   7 |     -5.69 |  19 |     -5.69 |   1 |#
   8 |     -5.10 |  14 |     -5.10 |   1 |#
   9 |     -4.78 |   1 |     -4.78 |   1 |#
_____|___________|_____|___________|_____|______________________________________


    RMSD TABLE
    __________


_______________________________________________________________________
     |      |      |           |         |                 |
Rank | Sub- | Run  | Binding   | Cluster | Reference       | Grep
     | Rank |      | Energy    | RMSD    | RMSD            | Pattern
_____|______|______|___________|_________|_________________|___________
   1      1     10       -6.67      0.00    272.52           RANKING
   1      2     20       -6.48      1.62    272.54           RANKING
   1      3      3       -6.29      1.21    272.36           RANKING
   1      4      7       -6.15      1.03    272.11           RANKING
   1      5      5       -6.13      1.87    272.39           RANKING
   1      6      8       -5.94      1.44    271.83           RANKING
   1      7      2       -5.75      1.95    271.90           RANKING
   2      1     16       -6.23      0.00    272.55           RANKING
   2      2      9       -5.96      1.32    272.29           RANKING
   2      3     17       -5.96      0.63    272.46           RANKING
   2      4      6       -5.90      0.65    272.51           RANKING
   3      1     11       -5.95      0.00    271.35           RANKING
   3      2     15       -5.90      0.18    271.34           RANKING
   4      1     18       -5.94      0.00    271.74           RANKING
   5      1     12       -5.84      0.00    272.28           RANKING
   5      2     13       -5.67      1.81    272.40           RANKING
   6      1      4       -5.70      0.00    271.52           RANKING
   7      1     19       -5.69      0.00    272.24           RANKING
   8      1     14       -5.10      0.00    270.52           RANKING
   9      1      1       -4.78      0.00    271.47           RANKING

Run time 1.155 sec
Idle time 0.000 sec
