AutoDock-GPU version: v1.6

**********************************************************
**    AutoDock-GPU AUTODOCKTOOLS-COMPATIBLE DLG FILE    **
**********************************************************


    DOCKING PARAMETERS
    ________________________


Ligand file:                               /home/a/REINVENT4/ReinventStudies/scoringData/graph-dock/graph-DockGPU/node-autodockgpu/inputs/RUYQROVMPDWUPI-ZYMSVLFVNA-N.pdbqt
Grid fld file:                             /home/a/REINVENT4/ReinventStudies/mols/Rad51/maps/rad51_receptor.maps.fld

Random seed:                               42
Number of runs:                            20
Number of energy evaluations:              3119281
Number of generations:                     42000
Size of population:                        150
Rate of crossover:                         80.000000%
Tournament selection probability limit:    60.000000%
Rate of mutation:                          2.000000%
Maximal allowed delta movement:            +/- 6.000000A
Maximal allowed delta angle:               +/- 90.000000

Rate of local search:                      100.000000%
Maximal number of local search iterations: 300
Rho lower bound:                           0.010000
Spread of local search delta movement:     2.000000A
Spread of local search delta angle:        74.999999
Limit of consecutive successes/failures:   4

Handle symmetry during clustering:         YES
RMSD tolerance:                            2.000000A

Program call in command line was:          /home/a/REINVENT4/ReinventStudies/adgpu-v1.6_linux_x64_cuda12_128wi --filelist batch.txt --heuristics 1 --nrun 20 --psize 150 --lsit 300 --seed 42 --heurmax 12000000 


    GRID PARAMETERS
    ________________________


Receptor name:                             rad51_receptor
Number of grid points (x, y, z):           53, 53, 53
Grid center (x, y, z):                     139.950000, 75.640000, 221.970000A
Grid size (x, y, z):                       19.500000, 19.500000, 19.500000A
Grid spacing:                              0.375000A


    LIGAND PARAMETERS
    ________________________


Ligand name:                               /home/a/REINVENT4/ReinventStudies/scoringData/graph-dock/graph-DockGPU/node-autodockgpu/inputs/RUYQROVMPDWUPI-ZYMSVLFVNA-N
Number of atoms:                           38
Number of rotatable bonds:                 11
Number of atom types:                      8


    DUMMY DATA (only for ADT-compatibility)
    ________________________


DPF> outlev 1
DPF> ga_run 20
DPF> fld /home/a/REINVENT4/ReinventStudies/mols/Rad51/maps/rad51_receptor.maps.fld
DPF> move /home/a/REINVENT4/ReinventStudies/scoringData/graph-dock/graph-DockGPU/node-autodockgpu/inputs/RUYQROVMPDWUPI-ZYMSVLFVNA-N.pdbqt


    COUNTER STATES
    ________________________


Number of energy evaluations performed:    829308
Number of generations used:                85


    INPUT LIGAND PDBQT FILE:
    ________________________


INPUT-LIGAND-PDBQT: REMARK SMILES CN1CCN(C(=O)c2cccc(C3=Nc4ccc(C#Cc5ccccc5)cc4N=C(O)C3)c2)CC1
INPUT-LIGAND-PDBQT: REMARK SMILES IDX 15 1 16 2 17 3 18 4 27 5 28 6 14 7 13 8 12 9 8 10 9 11 33 12
INPUT-LIGAND-PDBQT: REMARK SMILES IDX 10 13 11 14 6 15 2 16 3 17 35 18 4 19 34 20 5 21 1 22 7 23
INPUT-LIGAND-PDBQT: REMARK SMILES IDX 32 24 29 26 30 27 31 29 19 31 20 32 21 33 22 34 26 35 23 36
INPUT-LIGAND-PDBQT: REMARK SMILES IDX 25 37 24 38
INPUT-LIGAND-PDBQT: REMARK H PARENT 31 30
INPUT-LIGAND-PDBQT: REMARK Flexibility Score:  140.900
INPUT-LIGAND-PDBQT: ROOT
INPUT-LIGAND-PDBQT: ATOM      1  C   UNL     1       0.344   0.842   2.099  1.00  0.00     0.089 A 
INPUT-LIGAND-PDBQT: ATOM      2  C   UNL     1       0.118   1.623   3.241  1.00  0.00     0.032 A 
INPUT-LIGAND-PDBQT: ATOM      3  C   UNL     1      -0.042   1.031   4.494  1.00  0.00     0.019 A 
INPUT-LIGAND-PDBQT: ATOM      4  C   UNL     1       0.052  -0.356   4.628  1.00  0.00     0.027 A 
INPUT-LIGAND-PDBQT: ATOM      5  C   UNL     1       0.301  -1.150   3.503  1.00  0.00     0.048 A 
INPUT-LIGAND-PDBQT: ATOM      6  C   UNL     1       0.434  -0.572   2.233  1.00  0.00     0.094 A 
INPUT-LIGAND-PDBQT: ENDROOT
INPUT-LIGAND-PDBQT: BRANCH   1   7
INPUT-LIGAND-PDBQT: ATOM      7  N   UNL     1       0.587   1.535   0.863  1.00  0.00    -0.250 NA
INPUT-LIGAND-PDBQT: BRANCH   7   8
INPUT-LIGAND-PDBQT: ATOM      8  C   UNL     1       0.296   1.126  -0.337  1.00  0.00     0.058 C 
INPUT-LIGAND-PDBQT: BRANCH   8   9
INPUT-LIGAND-PDBQT: ATOM      9  C   UNL     1       0.692   1.964  -1.495  1.00  0.00    -0.003 A 
INPUT-LIGAND-PDBQT: ATOM     10  C   UNL     1       1.439   2.171  -3.813  1.00  0.00     0.040 A 
INPUT-LIGAND-PDBQT: ATOM     11  C   UNL     1       1.467   3.567  -3.671  1.00  0.00     0.014 A 
INPUT-LIGAND-PDBQT: ATOM     12  C   UNL     1       1.073   1.376  -2.715  1.00  0.00     0.023 A 
INPUT-LIGAND-PDBQT: ATOM     13  C   UNL     1       1.110   4.158  -2.457  1.00  0.00     0.002 A 
INPUT-LIGAND-PDBQT: ATOM     14  C   UNL     1       0.723   3.365  -1.375  1.00  0.00     0.010 A 
INPUT-LIGAND-PDBQT: BRANCH  10  15
INPUT-LIGAND-PDBQT: ATOM     15  C   UNL     1       1.831   1.547  -5.097  1.00  0.00     0.253 C 
INPUT-LIGAND-PDBQT: ATOM     16  N   UNL     1      -0.205  -0.434  -7.820  1.00  0.00    -0.303 NA
INPUT-LIGAND-PDBQT: ATOM     17  C   UNL     1      -0.825  -0.738  -6.512  1.00  0.00     0.105 C 
INPUT-LIGAND-PDBQT: ATOM     18  C   UNL     1       1.267  -0.640  -7.836  1.00  0.00     0.105 C 
INPUT-LIGAND-PDBQT: ATOM     19  C   UNL     1      -0.248   0.140  -5.388  1.00  0.00     0.135 C 
INPUT-LIGAND-PDBQT: ATOM     20  C   UNL     1       1.921  -0.587  -6.442  1.00  0.00     0.135 C 
INPUT-LIGAND-PDBQT: ATOM     21  N   UNL     1       1.195   0.344  -5.575  1.00  0.00    -0.336 N 
INPUT-LIGAND-PDBQT: ATOM     22  C   UNL     1      -0.577   0.908  -8.303  1.00  0.00     0.105 C 
INPUT-LIGAND-PDBQT: ATOM     23  O   UNL     1       2.727   2.095  -5.795  1.00  0.00    -0.269 OA
INPUT-LIGAND-PDBQT: ENDBRANCH  10  15
INPUT-LIGAND-PDBQT: ENDBRANCH   8   9
INPUT-LIGAND-PDBQT: BRANCH   8  24
INPUT-LIGAND-PDBQT: ATOM     24  C   UNL     1      -0.459  -0.157  -0.538  1.00  0.00     0.153 CG0
INPUT-LIGAND-PDBQT: ATOM     25  G   UNL     1       0.397  -1.299  -0.105  1.00  0.00     0.000 G0
INPUT-LIGAND-PDBQT: ENDBRANCH   8  24
INPUT-LIGAND-PDBQT: ENDBRANCH   7   8
INPUT-LIGAND-PDBQT: ENDBRANCH   1   7
INPUT-LIGAND-PDBQT: BRANCH   6  26
INPUT-LIGAND-PDBQT: ATOM     26  N   UNL     1       0.746  -1.452   1.137  1.00  0.00    -0.216 NA
INPUT-LIGAND-PDBQT: BRANCH  26  27
INPUT-LIGAND-PDBQT: ATOM     27  C   UNL     1       0.397  -1.299  -0.105  1.00  0.00     0.192 CG0
INPUT-LIGAND-PDBQT: ATOM     28  G   UNL     1      -0.459  -0.157  -0.538  1.00  0.00     0.000 G0
INPUT-LIGAND-PDBQT: BRANCH  27  29
INPUT-LIGAND-PDBQT: ATOM     29  O   UNL     1       0.815  -2.226  -1.054  1.00  0.00    -0.496 OA
INPUT-LIGAND-PDBQT: ATOM     30  H   UNL     1       1.394  -3.017  -0.795  1.00  0.00     0.294 HD
INPUT-LIGAND-PDBQT: ENDBRANCH  27  29
INPUT-LIGAND-PDBQT: ENDBRANCH  26  27
INPUT-LIGAND-PDBQT: ENDBRANCH   6  26
INPUT-LIGAND-PDBQT: BRANCH   4  31
INPUT-LIGAND-PDBQT: ATOM     31  C   UNL     1      -0.089  -0.966   5.924  1.00  0.00    -0.062 C 
INPUT-LIGAND-PDBQT: BRANCH  31  32
INPUT-LIGAND-PDBQT: ATOM     32  C   UNL     1      -0.204  -1.477   7.010  1.00  0.00    -0.062 C 
INPUT-LIGAND-PDBQT: BRANCH  32  33
INPUT-LIGAND-PDBQT: ATOM     33  C   UNL     1      -0.336  -2.088   8.306  1.00  0.00     0.025 A 
INPUT-LIGAND-PDBQT: ATOM     34  C   UNL     1       0.805  -2.363   9.073  1.00  0.00     0.017 A 
INPUT-LIGAND-PDBQT: ATOM     35  C   UNL     1      -1.606  -2.412   8.805  1.00  0.00     0.017 A 
INPUT-LIGAND-PDBQT: ATOM     36  C   UNL     1       0.675  -2.959  10.332  1.00  0.00     0.001 A 
INPUT-LIGAND-PDBQT: ATOM     37  C   UNL     1      -1.732  -3.007  10.065  1.00  0.00     0.001 A 
INPUT-LIGAND-PDBQT: ATOM     38  C   UNL     1      -0.592  -3.281  10.827  1.00  0.00     0.000 A 
INPUT-LIGAND-PDBQT: ENDBRANCH  32  33
INPUT-LIGAND-PDBQT: ENDBRANCH  31  32
INPUT-LIGAND-PDBQT: ENDBRANCH   4  31
INPUT-LIGAND-PDBQT: TORSDOF 6


    FINAL DOCKED STATE:
    ________________________


Run:   1 / 20
Time taken for this run:   0.048s

DOCKED: MODEL        1
DOCKED: USER    Run = 1
DOCKED: USER
DOCKED: USER    Estimated Free Energy of Binding    =  -5.42 kcal/mol  [=(1)+(2)+(3)-(4)]
DOCKED: USER
DOCKED: USER    (1) Final Intermolecular Energy     =  -8.70 kcal/mol
DOCKED: USER        vdW + Hbond + desolv Energy     =  -9.20 kcal/mol
DOCKED: USER        Electrostatic Energy            =  -0.04 kcal/mol
DOCKED: USER        Moving Ligand-Fixed Receptor    =  -9.24 kcal/mol
DOCKED: USER        Moving Ligand-Moving Receptor   =  +0.54 kcal/mol
DOCKED: USER    (2) Final Total Internal Energy     =  -1.17 kcal/mol
DOCKED: USER    (3) Torsional Free Energy           =  +3.28 kcal/mol
DOCKED: USER    (4) Unbound System's Energy         =  -1.17 kcal/mol
DOCKED: USER
DOCKED: USER
DOCKED: REMARK SMILES CN1CCN(C(=O)c2cccc(C3=Nc4ccc(C#Cc5ccccc5)cc4N=C(O)C3)c2)CC1
DOCKED: REMARK SMILES IDX 15 1 16 2 17 3 18 4 27 5 28 6 14 7 13 8 12 9 8 10 9 11 33 12
DOCKED: REMARK SMILES IDX 10 13 11 14 6 15 2 16 3 17 35 18 4 19 34 20 5 21 1 22 7 23
DOCKED: REMARK SMILES IDX 32 24 29 26 30 27 31 29 19 31 20 32 21 33 22 34 26 35 23 36
DOCKED: REMARK SMILES IDX 25 37 24 38
DOCKED: REMARK H PARENT 31 30
DOCKED: REMARK Flexibility Score:  140.900
DOCKED: USER                              x       y       z     vdW  Elec       q    Type
DOCKED: USER                           _______ _______ _______ _____ _____    ______ ____
DOCKED: ROOT
DOCKED: ATOM      1  C   UNL     1     142.011  74.940 221.194 -0.17 -0.03    +0.089 A  
DOCKED: ATOM      2  C   UNL     1     143.237  74.812 220.526 -0.29 -0.01    +0.032 A  
DOCKED: ATOM      3  C   UNL     1     143.743  73.556 220.190 -0.35 -0.00    +0.019 A  
DOCKED: ATOM      4  C   UNL     1     143.012  72.405 220.493 -0.27 -0.00    +0.027 A  
DOCKED: ATOM      5  C   UNL     1     141.775  72.514 221.139 -0.24 -0.01    +0.048 A  
DOCKED: ATOM      6  C   UNL     1     141.268  73.768 221.509 -0.22 -0.01    +0.094 A  
DOCKED: ENDROOT
DOCKED: BRANCH   1   7
DOCKED: ATOM      7  N   UNL     1     141.520  76.271 221.422 -0.09 +0.12    -0.250 NA 
DOCKED: BRANCH   7   8
DOCKED: ATOM      8  C   UNL     1     140.277  76.647 221.504 -0.30 -0.02    +0.058 C  
DOCKED: BRANCH   8   9
DOCKED: ATOM      9  C   UNL     1     139.957  77.917 222.199 -0.34 +0.00    -0.003 A  
DOCKED: ATOM     10  C   UNL     1     138.353  79.651 222.828 -0.26 -0.01    +0.040 A  
DOCKED: ATOM     11  C   UNL     1     139.374  80.341 223.499 -0.41 -0.00    +0.014 A  
DOCKED: ATOM     12  C   UNL     1     138.656  78.453 222.161 -0.23 -0.00    +0.023 A  
DOCKED: ATOM     13  C   UNL     1     140.672  79.827 223.524 -0.50 -0.00    +0.002 A  
DOCKED: ATOM     14  C   UNL     1     140.965  78.623 222.881 -0.49 -0.00    +0.010 A  
DOCKED: BRANCH  10  15
DOCKED: ATOM     15  C   UNL     1     136.980  80.205 222.792 -0.11 -0.03    +0.253 C  
DOCKED: ATOM     16  N   UNL     1     133.509  78.786 223.982 -0.04 +0.03    -0.303 NA 
DOCKED: ATOM     17  C   UNL     1     134.316  77.631 223.534 -0.11 -0.01    +0.105 C  
DOCKED: ATOM     18  C   UNL     1     133.450  79.886 222.983 -0.03 -0.01    +0.105 C  
DOCKED: ATOM     19  C   UNL     1     135.772  78.031 223.238 -0.11 -0.02    +0.135 C  
DOCKED: ATOM     20  C   UNL     1     134.615  79.878 221.975 -0.03 -0.02    +0.135 C  
DOCKED: ATOM     21  N   UNL     1     135.830  79.356 222.606 -0.04 +0.05    -0.336 N  
DOCKED: ATOM     22  C   UNL     1     133.934  79.270 225.307 -0.10 -0.01    +0.105 C  
DOCKED: ATOM     23  O   UNL     1     136.818  81.446 222.949 -0.08 +0.03    -0.269 OA 
DOCKED: ENDBRANCH  10  15
DOCKED: ENDBRANCH   8   9
DOCKED: BRANCH   8  24
DOCKED: ATOM     24  C   UNL     1     139.187  75.786 220.932 -0.14 -0.04    +0.153 CG0
DOCKED: ATOM     25  G   UNL     1     138.986  74.602 221.816 +0.00 +0.00    +0.000 G0 
DOCKED: ENDBRANCH   8  24
DOCKED: ENDBRANCH   7   8
DOCKED: ENDBRANCH   1   7
DOCKED: BRANCH   6  26
DOCKED: ATOM     26  N   UNL     1     139.963  73.798 222.117 -0.77 +0.02    -0.216 NA 
DOCKED: BRANCH  26  27
DOCKED: ATOM     27  C   UNL     1     138.985  74.598 221.816 -0.18 -0.04    +0.192 CG0
DOCKED: ATOM     28  G   UNL     1     139.191  75.782 220.932 +0.00 +0.00    +0.000 G0 
DOCKED: BRANCH  27  29
DOCKED: ATOM     29  O   UNL     1     137.718  74.360 222.339 -0.05 +0.18    -0.496 OA 
DOCKED: ATOM     30  H   UNL     1     137.582  73.712 223.107 -0.45 -0.20    +0.294 HD 
DOCKED: ENDBRANCH  27  29
DOCKED: ENDBRANCH  26  27
DOCKED: ENDBRANCH   6  26
DOCKED: BRANCH   4  31
DOCKED: ATOM     31  C   UNL     1     143.521  71.110 220.126 -0.22 +0.01    -0.062 C  
DOCKED: BRANCH  31  32
DOCKED: ATOM     32  C   UNL     1     143.950  70.025 219.821 -0.19 -0.00    -0.062 C  
DOCKED: BRANCH  32  33
DOCKED: ATOM     33  C   UNL     1     144.468  68.733 219.457 -0.32 +0.00    +0.025 A  
DOCKED: ATOM     34  C   UNL     1     145.851  68.538 219.335 -0.45 +0.00    +0.017 A  
DOCKED: ATOM     35  C   UNL     1     143.590  67.665 219.221 -0.26 -0.00    +0.017 A  
DOCKED: ATOM     36  C   UNL     1     146.352  67.281 218.979 -0.51 -0.00    +0.001 A  
DOCKED: ATOM     37  C   UNL     1     144.095  66.409 218.867 -0.38 -0.00    +0.001 A  
DOCKED: ATOM     38  C   UNL     1     145.475  66.218 218.744 -0.48 -0.00    +0.000 A  
DOCKED: ENDBRANCH  32  33
DOCKED: ENDBRANCH  31  32
DOCKED: ENDBRANCH   4  31
DOCKED: TORSDOF 6
DOCKED: TER
DOCKED: ENDMDL
________________________________________________________________________________


    FINAL DOCKED STATE:
    ________________________


Run:   2 / 20
Time taken for this run:   0.048s

DOCKED: MODEL        2
DOCKED: USER    Run = 2
DOCKED: USER
DOCKED: USER    Estimated Free Energy of Binding    =  -5.23 kcal/mol  [=(1)+(2)+(3)-(4)]
DOCKED: USER
DOCKED: USER    (1) Final Intermolecular Energy     =  -8.51 kcal/mol
DOCKED: USER        vdW + Hbond + desolv Energy     =  -8.44 kcal/mol
DOCKED: USER        Electrostatic Energy            =  -0.45 kcal/mol
DOCKED: USER        Moving Ligand-Fixed Receptor    =  -8.89 kcal/mol
DOCKED: USER        Moving Ligand-Moving Receptor   =  +0.39 kcal/mol
DOCKED: USER    (2) Final Total Internal Energy     =  -1.18 kcal/mol
DOCKED: USER    (3) Torsional Free Energy           =  +3.28 kcal/mol
DOCKED: USER    (4) Unbound System's Energy         =  -1.18 kcal/mol
DOCKED: USER
DOCKED: USER
DOCKED: REMARK SMILES CN1CCN(C(=O)c2cccc(C3=Nc4ccc(C#Cc5ccccc5)cc4N=C(O)C3)c2)CC1
DOCKED: REMARK SMILES IDX 15 1 16 2 17 3 18 4 27 5 28 6 14 7 13 8 12 9 8 10 9 11 33 12
DOCKED: REMARK SMILES IDX 10 13 11 14 6 15 2 16 3 17 35 18 4 19 34 20 5 21 1 22 7 23
DOCKED: REMARK SMILES IDX 32 24 29 26 30 27 31 29 19 31 20 32 21 33 22 34 26 35 23 36
DOCKED: REMARK SMILES IDX 25 37 24 38
DOCKED: REMARK H PARENT 31 30
DOCKED: REMARK Flexibility Score:  140.900
DOCKED: USER                              x       y       z     vdW  Elec       q    Type
DOCKED: USER                           _______ _______ _______ _____ _____    ______ ____
DOCKED: ROOT
DOCKED: ATOM      1  C   UNL     1     140.914  77.736 220.856 -0.23 -0.04    +0.089 A  
DOCKED: ATOM      2  C   UNL     1     140.049  77.176 221.808 -0.31 -0.01    +0.032 A  
DOCKED: ATOM      3  C   UNL     1     139.341  77.986 222.696 -0.32 -0.00    +0.019 A  
DOCKED: ATOM      4  C   UNL     1     139.466  79.375 222.626 -0.30 -0.01    +0.027 A  
DOCKED: ATOM      5  C   UNL     1     140.306  79.952 221.668 -0.24 -0.01    +0.048 A  
DOCKED: ATOM      6  C   UNL     1     141.046  79.151 220.788 -0.24 -0.04    +0.094 A  
DOCKED: ENDROOT
DOCKED: BRANCH   1   7
DOCKED: ATOM      7  N   UNL     1     141.536  76.838 219.921 -0.13 +0.12    -0.250 NA 
DOCKED: BRANCH   7   8
DOCKED: ATOM      8  C   UNL     1     141.890  77.101 218.698 -0.22 -0.03    +0.058 C  
DOCKED: BRANCH   8   9
DOCKED: ATOM      9  C   UNL     1     142.899  76.233 218.042 -0.26 +0.00    -0.003 A  
DOCKED: ATOM     10  C   UNL     1     144.261  74.204 218.013 -0.14 -0.01    +0.040 A  
DOCKED: ATOM     11  C   UNL     1     144.833  74.615 216.799 -0.08 -0.01    +0.014 A  
DOCKED: ATOM     12  C   UNL     1     143.313  75.029 218.640 -0.24 -0.01    +0.023 A  
DOCKED: ATOM     13  C   UNL     1     144.442  75.819 216.209 -0.21 -0.00    +0.002 A  
DOCKED: ATOM     14  C   UNL     1     143.481  76.624 216.823 -0.24 -0.01    +0.010 A  
DOCKED: BRANCH  10  15
DOCKED: ATOM     15  C   UNL     1     144.687  72.934 218.643 -0.14 +0.01    +0.253 C  
DOCKED: ATOM     16  N   UNL     1     143.242  69.277 218.489 -0.03 +0.04    -0.303 NA 
DOCKED: ATOM     17  C   UNL     1     142.092  70.200 218.378 -0.05 -0.02    +0.105 C  
DOCKED: ATOM     18  C   UNL     1     144.126  69.575 219.646 -0.22 +0.01    +0.105 C  
DOCKED: ATOM     19  C   UNL     1     142.545  71.661 218.217 -0.03 -0.02    +0.135 C  
DOCKED: ATOM     20  C   UNL     1     144.022  71.025 220.155 -0.16 -0.01    +0.135 C  
DOCKED: ATOM     21  N   UNL     1     143.728  71.934 219.045 -0.03 +0.01    -0.336 N  
DOCKED: ATOM     22  C   UNL     1     143.999  69.191 217.227 -0.06 -0.01    +0.105 C  
DOCKED: ATOM     23  O   UNL     1     145.918  72.716 218.810 -0.78 -0.23    -0.269 OA 
DOCKED: ENDBRANCH  10  15
DOCKED: ENDBRANCH   8   9
DOCKED: BRANCH   8  24
DOCKED: ATOM     24  C   UNL     1     141.309  78.285 217.978 -0.13 -0.08    +0.153 CG0
DOCKED: ATOM     25  G   UNL     1     141.913  79.533 218.528 +0.00 +0.00    +0.000 G0 
DOCKED: ENDBRANCH   8  24
DOCKED: ENDBRANCH   7   8
DOCKED: ENDBRANCH   1   7
DOCKED: BRANCH   6  26
DOCKED: ATOM     26  N   UNL     1     141.843  79.824 219.794 -0.19 +0.12    -0.216 NA 
DOCKED: BRANCH  26  27
DOCKED: ATOM     27  C   UNL     1     141.914  79.533 218.530 -0.22 -0.13    +0.192 CG0
DOCKED: ATOM     28  G   UNL     1     141.309  78.285 217.983 +0.00 +0.00    +0.000 G0 
DOCKED: BRANCH  27  29
DOCKED: ATOM     29  O   UNL     1     142.583  80.394 217.666 -0.15 +0.50    -0.496 OA 
DOCKED: ATOM     30  H   UNL     1     143.430  80.105 217.189 -0.47 -0.61    +0.294 HD 
DOCKED: ENDBRANCH  27  29
DOCKED: ENDBRANCH  26  27
DOCKED: ENDBRANCH   6  26
DOCKED: BRANCH   4  31
DOCKED: ATOM     31  C   UNL     1     138.717  80.212 223.527 -0.36 +0.01    -0.062 C  
DOCKED: BRANCH  31  32
DOCKED: ATOM     32  C   UNL     1     138.087  80.912 224.280 -0.37 +0.01    -0.062 C  
DOCKED: BRANCH  32  33
DOCKED: ATOM     33  C   UNL     1     137.336  81.742 225.183 -0.37 -0.00    +0.025 A  
DOCKED: ATOM     34  C   UNL     1     136.921  83.020 224.783 -0.16 -0.00    +0.017 A  
DOCKED: ATOM     35  C   UNL     1     137.019  81.278 226.468 -0.32 -0.00    +0.017 A  
DOCKED: ATOM     36  C   UNL     1     136.193  83.828 225.663 -0.24 -0.00    +0.001 A  
DOCKED: ATOM     37  C   UNL     1     136.289  82.087 227.345 -0.49 -0.00    +0.001 A  
DOCKED: ATOM     38  C   UNL     1     135.878  83.362 226.943 -0.33 -0.00    +0.000 A  
DOCKED: ENDBRANCH  32  33
DOCKED: ENDBRANCH  31  32
DOCKED: ENDBRANCH   4  31
DOCKED: TORSDOF 6
DOCKED: TER
DOCKED: ENDMDL
________________________________________________________________________________


    FINAL DOCKED STATE:
    ________________________


Run:   3 / 20
Time taken for this run:   0.048s

DOCKED: MODEL        3
DOCKED: USER    Run = 3
DOCKED: USER
DOCKED: USER    Estimated Free Energy of Binding    =  -6.29 kcal/mol  [=(1)+(2)+(3)-(4)]
DOCKED: USER
DOCKED: USER    (1) Final Intermolecular Energy     =  -9.57 kcal/mol
DOCKED: USER        vdW + Hbond + desolv Energy     =  -9.92 kcal/mol
DOCKED: USER        Electrostatic Energy            =  -0.18 kcal/mol
DOCKED: USER        Moving Ligand-Fixed Receptor    = -10.10 kcal/mol
DOCKED: USER        Moving Ligand-Moving Receptor   =  +0.52 kcal/mol
DOCKED: USER    (2) Final Total Internal Energy     =  -1.27 kcal/mol
DOCKED: USER    (3) Torsional Free Energy           =  +3.28 kcal/mol
DOCKED: USER    (4) Unbound System's Energy         =  -1.27 kcal/mol
DOCKED: USER
DOCKED: USER
DOCKED: REMARK SMILES CN1CCN(C(=O)c2cccc(C3=Nc4ccc(C#Cc5ccccc5)cc4N=C(O)C3)c2)CC1
DOCKED: REMARK SMILES IDX 15 1 16 2 17 3 18 4 27 5 28 6 14 7 13 8 12 9 8 10 9 11 33 12
DOCKED: REMARK SMILES IDX 10 13 11 14 6 15 2 16 3 17 35 18 4 19 34 20 5 21 1 22 7 23
DOCKED: REMARK SMILES IDX 32 24 29 26 30 27 31 29 19 31 20 32 21 33 22 34 26 35 23 36
DOCKED: REMARK SMILES IDX 25 37 24 38
DOCKED: REMARK H PARENT 31 30
DOCKED: REMARK Flexibility Score:  140.900
DOCKED: USER                              x       y       z     vdW  Elec       q    Type
DOCKED: USER                           _______ _______ _______ _____ _____    ______ ____
DOCKED: ROOT
DOCKED: ATOM      1  C   UNL     1     140.384  74.458 219.891 -0.09 -0.02    +0.089 A  
DOCKED: ATOM      2  C   UNL     1     139.464  74.714 220.917 -0.18 -0.01    +0.032 A  
DOCKED: ATOM      3  C   UNL     1     139.440  73.928 222.070 -0.22 -0.00    +0.019 A  
DOCKED: ATOM      4  C   UNL     1     140.360  72.889 222.226 -0.30 -0.00    +0.027 A  
DOCKED: ATOM      5  C   UNL     1     141.301  72.634 221.222 -0.24 -0.01    +0.048 A  
DOCKED: ATOM      6  C   UNL     1     141.318  73.396 220.046 -0.13 -0.02    +0.094 A  
DOCKED: ENDROOT
DOCKED: BRANCH   1   7
DOCKED: ATOM      7  N   UNL     1     140.402  75.369 218.779 -0.01 +0.07    -0.250 NA 
DOCKED: BRANCH   7   8
DOCKED: ATOM      8  C   UNL     1     141.447  75.815 218.145 -0.09 -0.02    +0.058 C  
DOCKED: BRANCH   8   9
DOCKED: ATOM      9  C   UNL     1     141.713  77.274 218.142 -0.18 +0.00    -0.003 A  
DOCKED: ATOM     10  C   UNL     1     141.594  79.460 219.229 -0.25 -0.02    +0.040 A  
DOCKED: ATOM     11  C   UNL     1     142.202  80.043 218.106 -0.31 -0.01    +0.014 A  
DOCKED: ATOM     12  C   UNL     1     141.332  78.080 219.230 -0.20 -0.01    +0.023 A  
DOCKED: ATOM     13  C   UNL     1     142.564  79.253 217.013 -0.13 -0.00    +0.002 A  
DOCKED: ATOM     14  C   UNL     1     142.325  77.878 217.028 -0.23 -0.01    +0.010 A  
DOCKED: BRANCH  10  15
DOCKED: ATOM     15  C   UNL     1     141.198  80.302 220.381 -0.18 -0.10    +0.253 C  
DOCKED: ATOM     16  N   UNL     1     141.848  79.989 224.249 -0.17 +0.06    -0.303 NA 
DOCKED: ATOM     17  C   UNL     1     141.747  78.613 223.716 -0.49 -0.03    +0.105 C  
DOCKED: ATOM     18  C   UNL     1     140.709  80.859 223.853 -0.29 -0.01    +0.105 C  
DOCKED: ATOM     19  C   UNL     1     141.700  78.598 222.178 -0.35 -0.07    +0.135 C  
DOCKED: ATOM     20  C   UNL     1     139.972  80.385 222.585 -0.28 -0.03    +0.135 C  
DOCKED: ATOM     21  N   UNL     1     140.907  79.726 221.670 -0.11 +0.11    -0.336 N  
DOCKED: ATOM     22  C   UNL     1     143.148  80.606 223.929 -0.48 -0.02    +0.105 C  
DOCKED: ATOM     23  O   UNL     1     141.136  81.553 220.231 -0.18 +0.08    -0.269 OA 
DOCKED: ENDBRANCH  10  15
DOCKED: ENDBRANCH   8   9
DOCKED: BRANCH   8  24
DOCKED: ATOM     24  C   UNL     1     142.344  74.867 217.403 -0.06 -0.05    +0.153 CG0
DOCKED: ATOM     25  G   UNL     1     143.020  73.968 218.382 +0.00 +0.00    +0.000 G0 
DOCKED: ENDBRANCH   8  24
DOCKED: ENDBRANCH   7   8
DOCKED: ENDBRANCH   1   7
DOCKED: BRANCH   6  26
DOCKED: ATOM     26  N   UNL     1     142.354  73.107 219.088 -0.04 +0.04    -0.216 NA 
DOCKED: BRANCH  26  27
DOCKED: ATOM     27  C   UNL     1     143.019  73.970 218.381 -0.08 -0.05    +0.192 CG0
DOCKED: ATOM     28  G   UNL     1     142.337  74.866 217.402 +0.00 +0.00    +0.000 G0 
DOCKED: BRANCH  27  29
DOCKED: ATOM     29  O   UNL     1     144.400  74.055 218.523 -0.04 +0.14    -0.496 OA 
DOCKED: ATOM     30  H   UNL     1     144.927  74.804 218.089 -0.41 -0.19    +0.294 HD 
DOCKED: ENDBRANCH  27  29
DOCKED: ENDBRANCH  26  27
DOCKED: ENDBRANCH   6  26
DOCKED: BRANCH   4  31
DOCKED: ATOM     31  C   UNL     1     140.351  72.093 223.425 -0.27 +0.01    -0.062 C  
DOCKED: BRANCH  31  32
DOCKED: ATOM     32  C   UNL     1     140.346  71.424 224.428 -0.43 +0.01    -0.062 C  
DOCKED: BRANCH  32  33
DOCKED: ATOM     33  C   UNL     1     140.344  70.622 225.623 -0.53 -0.00    +0.025 A  
DOCKED: ATOM     34  C   UNL     1     139.656  69.401 225.649 -0.44 -0.00    +0.017 A  
DOCKED: ATOM     35  C   UNL     1     141.027  71.062 226.766 -0.66 -0.00    +0.017 A  
DOCKED: ATOM     36  C   UNL     1     139.653  68.624 226.812 -0.59 -0.00    +0.001 A  
DOCKED: ATOM     37  C   UNL     1     141.023  70.281 227.927 -0.63 -0.00    +0.001 A  
DOCKED: ATOM     38  C   UNL     1     140.335  69.064 227.950 -0.65 -0.00    +0.000 A  
DOCKED: ENDBRANCH  32  33
DOCKED: ENDBRANCH  31  32
DOCKED: ENDBRANCH   4  31
DOCKED: TORSDOF 6
DOCKED: TER
DOCKED: ENDMDL
________________________________________________________________________________


    FINAL DOCKED STATE:
    ________________________


Run:   4 / 20
Time taken for this run:   0.048s

DOCKED: MODEL        4
DOCKED: USER    Run = 4
DOCKED: USER
DOCKED: USER    Estimated Free Energy of Binding    =  -6.35 kcal/mol  [=(1)+(2)+(3)-(4)]
DOCKED: USER
DOCKED: USER    (1) Final Intermolecular Energy     =  -9.63 kcal/mol
DOCKED: USER        vdW + Hbond + desolv Energy     = -10.24 kcal/mol
DOCKED: USER        Electrostatic Energy            =  -0.22 kcal/mol
DOCKED: USER        Moving Ligand-Fixed Receptor    = -10.46 kcal/mol
DOCKED: USER        Moving Ligand-Moving Receptor   =  +0.83 kcal/mol
DOCKED: USER    (2) Final Total Internal Energy     =  -1.29 kcal/mol
DOCKED: USER    (3) Torsional Free Energy           =  +3.28 kcal/mol
DOCKED: USER    (4) Unbound System's Energy         =  -1.29 kcal/mol
DOCKED: USER
DOCKED: USER
DOCKED: REMARK SMILES CN1CCN(C(=O)c2cccc(C3=Nc4ccc(C#Cc5ccccc5)cc4N=C(O)C3)c2)CC1
DOCKED: REMARK SMILES IDX 15 1 16 2 17 3 18 4 27 5 28 6 14 7 13 8 12 9 8 10 9 11 33 12
DOCKED: REMARK SMILES IDX 10 13 11 14 6 15 2 16 3 17 35 18 4 19 34 20 5 21 1 22 7 23
DOCKED: REMARK SMILES IDX 32 24 29 26 30 27 31 29 19 31 20 32 21 33 22 34 26 35 23 36
DOCKED: REMARK SMILES IDX 25 37 24 38
DOCKED: REMARK H PARENT 31 30
DOCKED: REMARK Flexibility Score:  140.900
DOCKED: USER                              x       y       z     vdW  Elec       q    Type
DOCKED: USER                           _______ _______ _______ _____ _____    ______ ____
DOCKED: ROOT
DOCKED: ATOM      1  C   UNL     1     140.937  73.604 220.065 -0.12 -0.02    +0.089 A  
DOCKED: ATOM      2  C   UNL     1     139.831  73.765 220.911 -0.18 -0.01    +0.032 A  
DOCKED: ATOM      3  C   UNL     1     139.717  73.026 222.089 -0.27 -0.00    +0.019 A  
DOCKED: ATOM      4  C   UNL     1     140.726  72.132 222.453 -0.31 -0.00    +0.027 A  
DOCKED: ATOM      5  C   UNL     1     141.849  71.976 221.632 -0.14 -0.00    +0.048 A  
DOCKED: ATOM      6  C   UNL     1     141.964  72.690 220.431 -0.18 -0.01    +0.094 A  
DOCKED: ENDROOT
DOCKED: BRANCH   1   7
DOCKED: ATOM      7  N   UNL     1     141.022  74.468 218.919 -0.02 +0.07    -0.250 NA 
DOCKED: BRANCH   7   8
DOCKED: ATOM      8  C   UNL     1     142.089  75.043 218.445 -0.12 -0.02    +0.058 C  
DOCKED: BRANCH   8   9
DOCKED: ATOM      9  C   UNL     1     142.146  76.524 218.403 -0.21 +0.00    -0.003 A  
DOCKED: ATOM     10  C   UNL     1     141.484  78.704 219.289 -0.23 -0.02    +0.040 A  
DOCKED: ATOM     11  C   UNL     1     142.243  79.332 218.290 -0.31 -0.01    +0.014 A  
DOCKED: ATOM     12  C   UNL     1     141.422  77.301 219.325 -0.20 -0.01    +0.023 A  
DOCKED: ATOM     13  C   UNL     1     142.948  78.568 217.357 -0.21 -0.00    +0.002 A  
DOCKED: ATOM     14  C   UNL     1     142.903  77.173 217.412 -0.28 -0.01    +0.010 A  
DOCKED: BRANCH  10  15
DOCKED: ATOM     15  C   UNL     1     140.726  79.516 220.268 -0.13 -0.10    +0.253 C  
DOCKED: ATOM     16  N   UNL     1     141.237  80.210 224.107 -0.14 +0.05    -0.303 NA 
DOCKED: ATOM     17  C   UNL     1     141.717  78.835 223.850 -0.52 -0.03    +0.105 C  
DOCKED: ATOM     18  C   UNL     1     139.871  80.465 223.580 -0.36 -0.01    +0.105 C  
DOCKED: ATOM     19  C   UNL     1     141.762  78.517 222.345 -0.30 -0.07    +0.135 C  
DOCKED: ATOM     20  C   UNL     1     139.450  79.512 222.446 -0.24 -0.03    +0.135 C  
DOCKED: ATOM     21  N   UNL     1     140.617  79.121 221.651 -0.09 +0.11    -0.336 N  
DOCKED: ATOM     22  C   UNL     1     142.203  81.222 223.643 -0.54 -0.02    +0.105 C  
DOCKED: ATOM     23  O   UNL     1     140.184  80.588 219.883 -0.06 +0.08    -0.269 OA 
DOCKED: ENDBRANCH  10  15
DOCKED: ENDBRANCH   8   9
DOCKED: BRANCH   8  24
DOCKED: ATOM     24  C   UNL     1     143.226  74.213 217.920 -0.10 -0.04    +0.153 CG0
DOCKED: ATOM     25  G   UNL     1     143.828  73.443 219.046 +0.00 +0.00    +0.000 G0 
DOCKED: ENDBRANCH   8  24
DOCKED: ENDBRANCH   7   8
DOCKED: ENDBRANCH   1   7
DOCKED: BRANCH   6  26
DOCKED: ATOM     26  N   UNL     1     143.175  72.515 219.673 -0.10 +0.03    -0.216 NA 
DOCKED: BRANCH  26  27
DOCKED: ATOM     27  C   UNL     1     143.838  73.439 219.045 -0.15 -0.03    +0.192 CG0
DOCKED: ATOM     28  G   UNL     1     143.226  74.211 217.925 +0.00 +0.00    +0.000 G0 
DOCKED: BRANCH  27  29
DOCKED: ATOM     29  O   UNL     1     145.153  73.709 219.410 -0.14 +0.06    -0.496 OA 
DOCKED: ATOM     30  H   UNL     1     145.682  74.446 218.958 -0.33 -0.17    +0.294 HD 
DOCKED: ENDBRANCH  27  29
DOCKED: ENDBRANCH  26  27
DOCKED: ENDBRANCH   6  26
DOCKED: BRANCH   4  31
DOCKED: ATOM     31  C   UNL     1     140.621  71.386 223.680 -0.30 +0.01    -0.062 C  
DOCKED: BRANCH  31  32
DOCKED: ATOM     32  C   UNL     1     140.535  70.760 224.706 -0.43 +0.01    -0.062 C  
DOCKED: BRANCH  32  33
DOCKED: ATOM     33  C   UNL     1     140.435  70.009 225.929 -0.50 -0.00    +0.025 A  
DOCKED: ATOM     34  C   UNL     1     140.597  70.652 227.165 -0.63 -0.00    +0.017 A  
DOCKED: ATOM     35  C   UNL     1     140.176  68.631 225.889 -0.51 -0.00    +0.017 A  
DOCKED: ATOM     36  C   UNL     1     140.502  69.919 228.353 -0.58 -0.00    +0.001 A  
DOCKED: ATOM     37  C   UNL     1     140.080  67.902 227.080 -0.66 -0.00    +0.001 A  
DOCKED: ATOM     38  C   UNL     1     140.244  68.546 228.310 -0.66 -0.00    +0.000 A  
DOCKED: ENDBRANCH  32  33
DOCKED: ENDBRANCH  31  32
DOCKED: ENDBRANCH   4  31
DOCKED: TORSDOF 6
DOCKED: TER
DOCKED: ENDMDL
________________________________________________________________________________


    FINAL DOCKED STATE:
    ________________________


Run:   5 / 20
Time taken for this run:   0.048s

DOCKED: MODEL        5
DOCKED: USER    Run = 5
DOCKED: USER
DOCKED: USER    Estimated Free Energy of Binding    =  -6.58 kcal/mol  [=(1)+(2)+(3)-(4)]
DOCKED: USER
DOCKED: USER    (1) Final Intermolecular Energy     =  -9.86 kcal/mol
DOCKED: USER        vdW + Hbond + desolv Energy     = -10.06 kcal/mol
DOCKED: USER        Electrostatic Energy            =  -0.26 kcal/mol
DOCKED: USER        Moving Ligand-Fixed Receptor    = -10.32 kcal/mol
DOCKED: USER        Moving Ligand-Moving Receptor   =  +0.46 kcal/mol
DOCKED: USER    (2) Final Total Internal Energy     =  -1.26 kcal/mol
DOCKED: USER    (3) Torsional Free Energy           =  +3.28 kcal/mol
DOCKED: USER    (4) Unbound System's Energy         =  -1.26 kcal/mol
DOCKED: USER
DOCKED: USER
DOCKED: REMARK SMILES CN1CCN(C(=O)c2cccc(C3=Nc4ccc(C#Cc5ccccc5)cc4N=C(O)C3)c2)CC1
DOCKED: REMARK SMILES IDX 15 1 16 2 17 3 18 4 27 5 28 6 14 7 13 8 12 9 8 10 9 11 33 12
DOCKED: REMARK SMILES IDX 10 13 11 14 6 15 2 16 3 17 35 18 4 19 34 20 5 21 1 22 7 23
DOCKED: REMARK SMILES IDX 32 24 29 26 30 27 31 29 19 31 20 32 21 33 22 34 26 35 23 36
DOCKED: REMARK SMILES IDX 25 37 24 38
DOCKED: REMARK H PARENT 31 30
DOCKED: REMARK Flexibility Score:  140.900
DOCKED: USER                              x       y       z     vdW  Elec       q    Type
DOCKED: USER                           _______ _______ _______ _____ _____    ______ ____
DOCKED: ROOT
DOCKED: ATOM      1  C   UNL     1     140.935  73.695 219.988 -0.11 -0.02    +0.089 A  
DOCKED: ATOM      2  C   UNL     1     139.768  73.834 220.753 -0.16 -0.01    +0.032 A  
DOCKED: ATOM      3  C   UNL     1     139.605  73.130 221.946 -0.27 -0.00    +0.019 A  
DOCKED: ATOM      4  C   UNL     1     140.625  72.296 222.409 -0.32 -0.00    +0.027 A  
DOCKED: ATOM      5  C   UNL     1     141.806  72.163 221.671 -0.12 -0.00    +0.048 A  
DOCKED: ATOM      6  C   UNL     1     141.972  72.840 220.455 -0.18 -0.02    +0.094 A  
DOCKED: ENDROOT
DOCKED: BRANCH   1   7
DOCKED: ATOM      7  N   UNL     1     141.060  74.523 218.819 -0.02 +0.07    -0.250 NA 
DOCKED: BRANCH   7   8
DOCKED: ATOM      8  C   UNL     1     142.134  75.121 218.392 -0.12 -0.02    +0.058 C  
DOCKED: BRANCH   8   9
DOCKED: ATOM      9  C   UNL     1     142.139  76.601 218.294 -0.21 +0.00    -0.003 A  
DOCKED: ATOM     10  C   UNL     1     141.529  78.793 219.187 -0.23 -0.02    +0.040 A  
DOCKED: ATOM     11  C   UNL     1     142.133  79.404 218.077 -0.29 -0.01    +0.014 A  
DOCKED: ATOM     12  C   UNL     1     141.516  77.392 219.277 -0.21 -0.01    +0.023 A  
DOCKED: ATOM     13  C   UNL     1     142.735  78.626 217.086 -0.19 -0.00    +0.002 A  
DOCKED: ATOM     14  C   UNL     1     142.741  77.234 217.192 -0.25 -0.01    +0.010 A  
DOCKED: BRANCH  10  15
DOCKED: ATOM     15  C   UNL     1     140.880  79.620 220.229 -0.14 -0.10    +0.253 C  
DOCKED: ATOM     16  N   UNL     1     141.499  79.991 224.097 -0.21 +0.06    -0.303 NA 
DOCKED: ATOM     17  C   UNL     1     141.813  78.589 223.742 -0.49 -0.03    +0.105 C  
DOCKED: ATOM     18  C   UNL     1     140.168  80.438 223.610 -0.37 -0.02    +0.105 C  
DOCKED: ATOM     19  C   UNL     1     141.809  78.371 222.220 -0.20 -0.08    +0.135 C  
DOCKED: ATOM     20  C   UNL     1     139.630  79.618 222.422 -0.25 -0.03    +0.135 C  
DOCKED: ATOM     21  N   UNL     1     140.736  79.149 221.584 -0.10 +0.11    -0.336 N  
DOCKED: ATOM     22  C   UNL     1     142.573  80.913 223.686 -0.57 -0.02    +0.105 C  
DOCKED: ATOM     23  O   UNL     1     140.464  80.771 219.925 -0.09 +0.09    -0.269 OA 
DOCKED: ENDBRANCH  10  15
DOCKED: ENDBRANCH   8   9
DOCKED: BRANCH   8  24
DOCKED: ATOM     24  C   UNL     1     143.333  74.318 217.974 -0.11 -0.05    +0.153 CG0
DOCKED: ATOM     25  G   UNL     1     143.895  73.624 219.168 +0.00 +0.00    +0.000 G0 
DOCKED: ENDBRANCH   8  24
DOCKED: ENDBRANCH   7   8
DOCKED: ENDBRANCH   1   7
DOCKED: BRANCH   6  26
DOCKED: ATOM     26  N   UNL     1     143.239  72.695 219.786 -0.11 +0.03    -0.216 NA 
DOCKED: BRANCH  26  27
DOCKED: ATOM     27  C   UNL     1     143.900  73.625 219.166 -0.18 -0.04    +0.192 CG0
DOCKED: ATOM     28  G   UNL     1     143.335  74.317 217.972 +0.00 +0.00    +0.000 G0 
DOCKED: BRANCH  27  29
DOCKED: ATOM     29  O   UNL     1     145.170  73.977 219.611 -0.12 +0.11    -0.496 OA 
DOCKED: ATOM     30  H   UNL     1     145.565  74.887 219.401 -0.21 -0.25    +0.294 HD 
DOCKED: ENDBRANCH  27  29
DOCKED: ENDBRANCH  26  27
DOCKED: ENDBRANCH   6  26
DOCKED: BRANCH   4  31
DOCKED: ATOM     31  C   UNL     1     140.468  71.587 223.652 -0.34 +0.01    -0.062 C  
DOCKED: BRANCH  31  32
DOCKED: ATOM     32  C   UNL     1     140.333  70.993 224.692 -0.45 +0.01    -0.062 C  
DOCKED: BRANCH  32  33
DOCKED: ATOM     33  C   UNL     1     140.176  70.279 225.931 -0.50 -0.00    +0.025 A  
DOCKED: ATOM     34  C   UNL     1     140.330  70.949 227.153 -0.63 -0.00    +0.017 A  
DOCKED: ATOM     35  C   UNL     1     139.869  68.910 225.921 -0.50 -0.00    +0.017 A  
DOCKED: ATOM     36  C   UNL     1     140.179  70.253 228.357 -0.58 -0.00    +0.001 A  
DOCKED: ATOM     37  C   UNL     1     139.718  68.218 227.127 -0.62 -0.00    +0.001 A  
DOCKED: ATOM     38  C   UNL     1     139.873  68.889 228.344 -0.62 -0.00    +0.000 A  
DOCKED: ENDBRANCH  32  33
DOCKED: ENDBRANCH  31  32
DOCKED: ENDBRANCH   4  31
DOCKED: TORSDOF 6
DOCKED: TER
DOCKED: ENDMDL
________________________________________________________________________________


    FINAL DOCKED STATE:
    ________________________


Run:   6 / 20
Time taken for this run:   0.048s

DOCKED: MODEL        6
DOCKED: USER    Run = 6
DOCKED: USER
DOCKED: USER    Estimated Free Energy of Binding    =  -5.07 kcal/mol  [=(1)+(2)+(3)-(4)]
DOCKED: USER
DOCKED: USER    (1) Final Intermolecular Energy     =  -8.36 kcal/mol
DOCKED: USER        vdW + Hbond + desolv Energy     =  -8.82 kcal/mol
DOCKED: USER        Electrostatic Energy            =  -0.02 kcal/mol
DOCKED: USER        Moving Ligand-Fixed Receptor    =  -8.84 kcal/mol
DOCKED: USER        Moving Ligand-Moving Receptor   =  +0.49 kcal/mol
DOCKED: USER    (2) Final Total Internal Energy     =  -1.28 kcal/mol
DOCKED: USER    (3) Torsional Free Energy           =  +3.28 kcal/mol
DOCKED: USER    (4) Unbound System's Energy         =  -1.28 kcal/mol
DOCKED: USER
DOCKED: USER
DOCKED: REMARK SMILES CN1CCN(C(=O)c2cccc(C3=Nc4ccc(C#Cc5ccccc5)cc4N=C(O)C3)c2)CC1
DOCKED: REMARK SMILES IDX 15 1 16 2 17 3 18 4 27 5 28 6 14 7 13 8 12 9 8 10 9 11 33 12
DOCKED: REMARK SMILES IDX 10 13 11 14 6 15 2 16 3 17 35 18 4 19 34 20 5 21 1 22 7 23
DOCKED: REMARK SMILES IDX 32 24 29 26 30 27 31 29 19 31 20 32 21 33 22 34 26 35 23 36
DOCKED: REMARK SMILES IDX 25 37 24 38
DOCKED: REMARK H PARENT 31 30
DOCKED: REMARK Flexibility Score:  140.900
DOCKED: USER                              x       y       z     vdW  Elec       q    Type
DOCKED: USER                           _______ _______ _______ _____ _____    ______ ____
DOCKED: ROOT
DOCKED: ATOM      1  C   UNL     1     140.042  73.616 220.127 -0.09 -0.02    +0.089 A  
DOCKED: ATOM      2  C   UNL     1     139.585  74.146 221.342 -0.23 -0.01    +0.032 A  
DOCKED: ATOM      3  C   UNL     1     139.661  73.404 222.521 +0.04 -0.00    +0.019 A  
DOCKED: ATOM      4  C   UNL     1     140.224  72.126 222.507 -0.32 -0.00    +0.027 A  
DOCKED: ATOM      5  C   UNL     1     140.707  71.590 221.308 -0.19 -0.01    +0.048 A  
DOCKED: ATOM      6  C   UNL     1     140.611  72.312 220.110 -0.09 -0.02    +0.094 A  
DOCKED: ENDROOT
DOCKED: BRANCH   1   7
DOCKED: ATOM      7  N   UNL     1     140.011  74.479 218.978 -0.01 +0.06    -0.250 NA 
DOCKED: BRANCH   7   8
DOCKED: ATOM      8  C   UNL     1     140.907  74.571 218.040 -0.04 -0.02    +0.058 C  
DOCKED: BRANCH   8   9
DOCKED: ATOM      9  C   UNL     1     141.591  75.870 217.826 -0.09 +0.00    -0.003 A  
DOCKED: ATOM     10  C   UNL     1     141.949  78.209 218.437 -0.24 -0.03    +0.040 A  
DOCKED: ATOM     11  C   UNL     1     142.875  78.332 217.390 -0.26 -0.01    +0.014 A  
DOCKED: ATOM     12  C   UNL     1     141.295  76.983 218.634 -0.14 -0.01    +0.023 A  
DOCKED: ATOM     13  C   UNL     1     143.160  77.238 216.570 -0.24 -0.00    +0.002 A  
DOCKED: ATOM     14  C   UNL     1     142.525  76.013 216.785 -0.14 -0.00    +0.010 A  
DOCKED: BRANCH  10  15
DOCKED: ATOM     15  C   UNL     1     141.639  79.375 219.296 -0.17 -0.14    +0.253 C  
DOCKED: ATOM     16  N   UNL     1     141.840  79.938 223.185 -0.30 +0.08    -0.303 NA 
DOCKED: ATOM     17  C   UNL     1     141.494  78.516 222.972 -0.47 -0.04    +0.105 C  
DOCKED: ATOM     18  C   UNL     1     140.960  80.876 222.440 -0.37 -0.02    +0.105 C  
DOCKED: ATOM     19  C   UNL     1     141.589  78.120 221.489 -0.24 -0.08    +0.135 C  
DOCKED: ATOM     20  C   UNL     1     140.260  80.243 221.223 -0.18 -0.04    +0.135 C  
DOCKED: ATOM     21  N   UNL     1     141.110  79.210 220.627 -0.09 +0.14    -0.336 N  
DOCKED: ATOM     22  C   UNL     1     143.267  80.199 222.923 -0.49 -0.04    +0.105 C  
DOCKED: ATOM     23  O   UNL     1     141.865  80.535 218.856 -0.20 +0.15    -0.269 OA 
DOCKED: ENDBRANCH  10  15
DOCKED: ENDBRANCH   8   9
DOCKED: BRANCH   8  24
DOCKED: ATOM     24  C   UNL     1     141.216  73.387 217.168 -0.00 -0.03    +0.153 CG0
DOCKED: ATOM     25  G   UNL     1     141.849  72.322 217.999 +0.00 +0.00    +0.000 G0 
DOCKED: ENDBRANCH   8  24
DOCKED: ENDBRANCH   7   8
DOCKED: ENDBRANCH   1   7
DOCKED: BRANCH   6  26
DOCKED: ATOM     26  N   UNL     1     141.183  71.714 218.932 -0.02 +0.04    -0.216 NA 
DOCKED: BRANCH  26  27
DOCKED: ATOM     27  C   UNL     1     141.848  72.324 217.996 -0.01 -0.03    +0.192 CG0
DOCKED: ATOM     28  G   UNL     1     141.220  73.389 217.163 +0.00 +0.00    +0.000 G0 
DOCKED: BRANCH  27  29
DOCKED: ATOM     29  O   UNL     1     143.170  71.969 217.752 +0.03 +0.05    -0.496 OA 
DOCKED: ATOM     30  H   UNL     1     143.603  71.191 218.238 +0.08 -0.01    +0.294 HD 
DOCKED: ENDBRANCH  27  29
DOCKED: ENDBRANCH  26  27
DOCKED: ENDBRANCH   6  26
DOCKED: BRANCH   4  31
DOCKED: ATOM     31  C   UNL     1     140.324  71.369 223.726 -0.37 +0.01    -0.062 C  
DOCKED: BRANCH  31  32
DOCKED: ATOM     32  C   UNL     1     140.411  70.735 224.749 -0.44 +0.01    -0.062 C  
DOCKED: BRANCH  32  33
DOCKED: ATOM     33  C   UNL     1     140.520  69.979 225.968 -0.50 -0.00    +0.025 A  
DOCKED: ATOM     34  C   UNL     1     140.758  70.636 227.184 -0.63 -0.00    +0.017 A  
DOCKED: ATOM     35  C   UNL     1     140.390  68.583 225.944 -0.52 -0.00    +0.017 A  
DOCKED: ATOM     36  C   UNL     1     140.866  69.899 228.368 -0.55 -0.00    +0.001 A  
DOCKED: ATOM     37  C   UNL     1     140.498  67.850 227.131 -0.67 -0.00    +0.001 A  
DOCKED: ATOM     38  C   UNL     1     140.736  68.508 228.341 -0.68 -0.00    +0.000 A  
DOCKED: ENDBRANCH  32  33
DOCKED: ENDBRANCH  31  32
DOCKED: ENDBRANCH   4  31
DOCKED: TORSDOF 6
DOCKED: TER
DOCKED: ENDMDL
________________________________________________________________________________


    FINAL DOCKED STATE:
    ________________________


Run:   7 / 20
Time taken for this run:   0.048s

DOCKED: MODEL        7
DOCKED: USER    Run = 7
DOCKED: USER
DOCKED: USER    Estimated Free Energy of Binding    =  -5.35 kcal/mol  [=(1)+(2)+(3)-(4)]
DOCKED: USER
DOCKED: USER    (1) Final Intermolecular Energy     =  -8.63 kcal/mol
DOCKED: USER        vdW + Hbond + desolv Energy     =  -9.50 kcal/mol
DOCKED: USER        Electrostatic Energy            =  -0.03 kcal/mol
DOCKED: USER        Moving Ligand-Fixed Receptor    =  -9.53 kcal/mol
DOCKED: USER        Moving Ligand-Moving Receptor   =  +0.91 kcal/mol
DOCKED: USER    (2) Final Total Internal Energy     =  -1.23 kcal/mol
DOCKED: USER    (3) Torsional Free Energy           =  +3.28 kcal/mol
DOCKED: USER    (4) Unbound System's Energy         =  -1.23 kcal/mol
DOCKED: USER
DOCKED: USER
DOCKED: REMARK SMILES CN1CCN(C(=O)c2cccc(C3=Nc4ccc(C#Cc5ccccc5)cc4N=C(O)C3)c2)CC1
DOCKED: REMARK SMILES IDX 15 1 16 2 17 3 18 4 27 5 28 6 14 7 13 8 12 9 8 10 9 11 33 12
DOCKED: REMARK SMILES IDX 10 13 11 14 6 15 2 16 3 17 35 18 4 19 34 20 5 21 1 22 7 23
DOCKED: REMARK SMILES IDX 32 24 29 26 30 27 31 29 19 31 20 32 21 33 22 34 26 35 23 36
DOCKED: REMARK SMILES IDX 25 37 24 38
DOCKED: REMARK H PARENT 31 30
DOCKED: REMARK Flexibility Score:  140.900
DOCKED: USER                              x       y       z     vdW  Elec       q    Type
DOCKED: USER                           _______ _______ _______ _____ _____    ______ ____
DOCKED: ROOT
DOCKED: ATOM      1  C   UNL     1     135.350  72.280 223.365 -0.13 -0.02    +0.089 A  
DOCKED: ATOM      2  C   UNL     1     134.300  71.987 224.246 -0.14 -0.00    +0.032 A  
DOCKED: ATOM      3  C   UNL     1     133.767  72.970 225.080 -0.22 -0.00    +0.019 A  
DOCKED: ATOM      4  C   UNL     1     134.261  74.275 225.024 -0.28 -0.00    +0.027 A  
DOCKED: ATOM      5  C   UNL     1     135.293  74.593 224.134 -0.27 -0.01    +0.048 A  
DOCKED: ATOM      6  C   UNL     1     135.858  73.609 223.311 -0.16 -0.03    +0.094 A  
DOCKED: ENDROOT
DOCKED: BRANCH   1   7
DOCKED: ATOM      7  N   UNL     1     135.780  71.234 222.478 -0.03 +0.04    -0.250 NA 
DOCKED: BRANCH   7   8
DOCKED: ATOM      8  C   UNL     1     136.978  71.044 222.010 -0.09 -0.01    +0.058 C  
DOCKED: BRANCH   8   9
DOCKED: ATOM      9  C   UNL     1     137.703  69.804 222.380 -0.13 +0.00    -0.003 A  
DOCKED: ATOM     10  C   UNL     1     138.839  68.422 224.046 -0.31 -0.00    +0.040 A  
DOCKED: ATOM     11  C   UNL     1     139.099  67.459 223.058 -0.12 -0.00    +0.014 A  
DOCKED: ATOM     12  C   UNL     1     138.161  69.600 223.695 -0.26 -0.00    +0.023 A  
DOCKED: ATOM     13  C   UNL     1     138.666  67.663 221.746 -0.20 -0.00    +0.002 A  
DOCKED: ATOM     14  C   UNL     1     137.971  68.825 221.407 -0.11 -0.00    +0.010 A  
DOCKED: BRANCH  10  15
DOCKED: ATOM     15  C   UNL     1     139.311  68.209 225.433 -0.32 -0.02    +0.253 C  
DOCKED: ATOM     16  N   UNL     1     140.947  70.616 228.081 -0.32 +0.06    -0.303 NA 
DOCKED: ATOM     17  C   UNL     1     141.398  71.072 226.748 -0.47 -0.01    +0.105 C  
DOCKED: ATOM     18  C   UNL     1     141.159  69.163 228.310 -0.47 -0.02    +0.105 C  
DOCKED: ATOM     19  C   UNL     1     140.661  70.338 225.614 -0.44 -0.02    +0.135 C  
DOCKED: ATOM     20  C   UNL     1     141.274  68.336 227.015 -0.43 -0.03    +0.135 C  
DOCKED: ATOM     21  N   UNL     1     140.446  68.926 225.960 -0.21 +0.06    -0.336 N  
DOCKED: ATOM     22  C   UNL     1     139.555  71.018 228.355 -0.18 -0.02    +0.105 C  
DOCKED: ATOM     23  O   UNL     1     138.691  67.398 226.173 -0.70 -0.02    -0.269 OA 
DOCKED: ENDBRANCH  10  15
DOCKED: ENDBRANCH   8   9
DOCKED: BRANCH   8  24
DOCKED: ATOM     24  C   UNL     1     137.626  72.082 221.139 -0.06 -0.03    +0.153 CG0
DOCKED: ATOM     25  G   UNL     1     137.868  73.313 221.946 +0.00 +0.00    +0.000 G0 
DOCKED: ENDBRANCH   8  24
DOCKED: ENDBRANCH   7   8
DOCKED: ENDBRANCH   1   7
DOCKED: BRANCH   6  26
DOCKED: ATOM     26  N   UNL     1     136.876  74.029 222.383 -0.09 +0.07    -0.216 NA 
DOCKED: BRANCH  26  27
DOCKED: ATOM     27  C   UNL     1     137.866  73.314 221.941 -0.11 -0.06    +0.192 CG0
DOCKED: ATOM     28  G   UNL     1     137.637  72.083 221.132 +0.00 +0.00    +0.000 G0 
DOCKED: BRANCH  27  29
DOCKED: ATOM     29  O   UNL     1     139.171  73.692 222.238 -0.39 +0.12    -0.496 OA 
DOCKED: ATOM     30  H   UNL     1     139.385  74.232 223.070 -0.47 -0.07    +0.294 HD 
DOCKED: ENDBRANCH  27  29
DOCKED: ENDBRANCH  26  27
DOCKED: ENDBRANCH   6  26
DOCKED: BRANCH   4  31
DOCKED: ATOM     31  C   UNL     1     133.696  75.296 225.867 -0.32 +0.00    -0.062 C  
DOCKED: BRANCH  31  32
DOCKED: ATOM     32  C   UNL     1     133.223  76.149 226.576 -0.34 +0.00    -0.062 C  
DOCKED: BRANCH  32  33
DOCKED: ATOM     33  C   UNL     1     132.653  77.166 227.420 -0.34 -0.00    +0.025 A  
DOCKED: ATOM     34  C   UNL     1     131.470  76.910 228.127 -0.32 +0.00    +0.017 A  
DOCKED: ATOM     35  C   UNL     1     133.279  78.415 227.536 -0.26 -0.00    +0.017 A  
DOCKED: ATOM     36  C   UNL     1     130.916  77.900 228.945 -0.29 +0.00    +0.001 A  
DOCKED: ATOM     37  C   UNL     1     132.723  79.403 228.356 -0.29 -0.00    +0.001 A  
DOCKED: ATOM     38  C   UNL     1     131.542  79.145 229.059 -0.24 +0.00    +0.000 A  
DOCKED: ENDBRANCH  32  33
DOCKED: ENDBRANCH  31  32
DOCKED: ENDBRANCH   4  31
DOCKED: TORSDOF 6
DOCKED: TER
DOCKED: ENDMDL
________________________________________________________________________________


    FINAL DOCKED STATE:
    ________________________


Run:   8 / 20
Time taken for this run:   0.048s

DOCKED: MODEL        8
DOCKED: USER    Run = 8
DOCKED: USER
DOCKED: USER    Estimated Free Energy of Binding    =  -5.66 kcal/mol  [=(1)+(2)+(3)-(4)]
DOCKED: USER
DOCKED: USER    (1) Final Intermolecular Energy     =  -8.94 kcal/mol
DOCKED: USER        vdW + Hbond + desolv Energy     =  -9.11 kcal/mol
DOCKED: USER        Electrostatic Energy            =  -0.29 kcal/mol
DOCKED: USER        Moving Ligand-Fixed Receptor    =  -9.40 kcal/mol
DOCKED: USER        Moving Ligand-Moving Receptor   =  +0.46 kcal/mol
DOCKED: USER    (2) Final Total Internal Energy     =  -1.19 kcal/mol
DOCKED: USER    (3) Torsional Free Energy           =  +3.28 kcal/mol
DOCKED: USER    (4) Unbound System's Energy         =  -1.19 kcal/mol
DOCKED: USER
DOCKED: USER
DOCKED: REMARK SMILES CN1CCN(C(=O)c2cccc(C3=Nc4ccc(C#Cc5ccccc5)cc4N=C(O)C3)c2)CC1
DOCKED: REMARK SMILES IDX 15 1 16 2 17 3 18 4 27 5 28 6 14 7 13 8 12 9 8 10 9 11 33 12
DOCKED: REMARK SMILES IDX 10 13 11 14 6 15 2 16 3 17 35 18 4 19 34 20 5 21 1 22 7 23
DOCKED: REMARK SMILES IDX 32 24 29 26 30 27 31 29 19 31 20 32 21 33 22 34 26 35 23 36
DOCKED: REMARK SMILES IDX 25 37 24 38
DOCKED: REMARK H PARENT 31 30
DOCKED: REMARK Flexibility Score:  140.900
DOCKED: USER                              x       y       z     vdW  Elec       q    Type
DOCKED: USER                           _______ _______ _______ _____ _____    ______ ____
DOCKED: ROOT
DOCKED: ATOM      1  C   UNL     1     138.443  79.093 222.529 -0.22 -0.02    +0.089 A  
DOCKED: ATOM      2  C   UNL     1     137.074  78.939 222.790 -0.19 -0.00    +0.032 A  
DOCKED: ATOM      3  C   UNL     1     136.454  79.658 223.812 -0.16 -0.00    +0.019 A  
DOCKED: ATOM      4  C   UNL     1     137.192  80.568 224.572 -0.31 -0.00    +0.027 A  
DOCKED: ATOM      5  C   UNL     1     138.554  80.753 224.310 -0.36 -0.00    +0.048 A  
DOCKED: ATOM      6  C   UNL     1     139.197  80.015 223.307 -0.33 -0.01    +0.094 A  
DOCKED: ENDROOT
DOCKED: BRANCH   1   7
DOCKED: ATOM      7  N   UNL     1     138.984  78.382 221.402 -0.07 +0.06    -0.250 NA 
DOCKED: BRANCH   7   8
DOCKED: ATOM      8  C   UNL     1     140.189  77.911 221.276 -0.23 -0.02    +0.058 C  
DOCKED: BRANCH   8   9
DOCKED: ATOM      9  C   UNL     1     140.377  76.444 221.166 -0.28 +0.00    -0.003 A  
DOCKED: ATOM     10  C   UNL     1     141.386  74.506 220.071 -0.18 -0.01    +0.040 A  
DOCKED: ATOM     11  C   UNL     1     140.700  73.659 220.955 -0.23 -0.00    +0.014 A  
DOCKED: ATOM     12  C   UNL     1     141.202  75.894 220.168 -0.21 -0.01    +0.023 A  
DOCKED: ATOM     13  C   UNL     1     139.863  74.195 221.936 -0.27 -0.00    +0.002 A  
DOCKED: ATOM     14  C   UNL     1     139.702  75.578 222.045 -0.32 -0.00    +0.010 A  
DOCKED: BRANCH  10  15
DOCKED: ATOM     15  C   UNL     1     142.262  73.933 219.024 -0.06 -0.06    +0.253 C  
DOCKED: ATOM     16  N   UNL     1     145.968  72.614 219.088 -0.69 -0.25    -0.303 NA 
DOCKED: ATOM     17  C   UNL     1     145.886  73.716 220.071 -0.42 -0.00    +0.105 C  
DOCKED: ATOM     18  C   UNL     1     145.435  72.978 217.750 -0.16 +0.04    +0.105 C  
DOCKED: ATOM     19  C   UNL     1     144.435  74.179 220.290 -0.39 -0.04    +0.135 C  
DOCKED: ATOM     20  C   UNL     1     144.442  74.156 217.771 -0.08 -0.04    +0.135 C  
DOCKED: ATOM     21  N   UNL     1     143.686  74.160 219.026 -0.09 +0.10    -0.336 N  
DOCKED: ATOM     22  C   UNL     1     145.360  71.374 219.604 -0.19 +0.03    +0.105 C  
DOCKED: ATOM     23  O   UNL     1     141.749  73.214 218.124 -0.01 +0.06    -0.269 OA 
DOCKED: ENDBRANCH  10  15
DOCKED: ENDBRANCH   8   9
DOCKED: BRANCH   8  24
DOCKED: ATOM     24  C   UNL     1     141.370  78.840 221.277 -0.28 -0.07    +0.153 CG0
DOCKED: ATOM     25  G   UNL     1     141.486  79.479 222.619 +0.00 +0.00    +0.000 G0 
DOCKED: ENDBRANCH   8  24
DOCKED: ENDBRANCH   7   8
DOCKED: ENDBRANCH   1   7
DOCKED: BRANCH   6  26
DOCKED: ATOM     26  N   UNL     1     140.586  80.306 223.062 -0.25 +0.04    -0.216 NA 
DOCKED: BRANCH  26  27
DOCKED: ATOM     27  C   UNL     1     141.487  79.478 222.624 -0.39 -0.06    +0.192 CG0
DOCKED: ATOM     28  G   UNL     1     141.369  78.839 221.281 +0.00 +0.00    +0.000 G0 
DOCKED: BRANCH  27  29
DOCKED: ATOM     29  O   UNL     1     142.579  79.165 223.426 -0.22 +0.20    -0.496 OA 
DOCKED: ATOM     30  H   UNL     1     143.356  78.622 223.066 -0.20 -0.21    +0.294 HD 
DOCKED: ENDBRANCH  27  29
DOCKED: ENDBRANCH  26  27
DOCKED: ENDBRANCH   6  26
DOCKED: BRANCH   4  31
DOCKED: ATOM     31  C   UNL     1     136.548  81.329 225.611 -0.35 +0.01    -0.062 C  
DOCKED: BRANCH  31  32
DOCKED: ATOM     32  C   UNL     1     136.009  81.963 226.483 -0.37 +0.01    -0.062 C  
DOCKED: BRANCH  32  33
DOCKED: ATOM     33  C   UNL     1     135.370  82.720 227.526 -0.33 -0.00    +0.025 A  
DOCKED: ATOM     34  C   UNL     1     135.121  84.089 227.350 -0.24 +0.00    +0.017 A  
DOCKED: ATOM     35  C   UNL     1     134.996  82.092 228.724 -0.42 -0.00    +0.017 A  
DOCKED: ATOM     36  C   UNL     1     134.501  84.824 228.367 -0.23 +0.00    +0.001 A  
DOCKED: ATOM     37  C   UNL     1     134.376  82.831 229.737 -0.39 +0.00    +0.001 A  
DOCKED: ATOM     38  C   UNL     1     134.130  84.195 229.559 +0.00 +0.00    +0.000 A  
DOCKED: ENDBRANCH  32  33
DOCKED: ENDBRANCH  31  32
DOCKED: ENDBRANCH   4  31
DOCKED: TORSDOF 6
DOCKED: TER
DOCKED: ENDMDL
________________________________________________________________________________


    FINAL DOCKED STATE:
    ________________________


Run:   9 / 20
Time taken for this run:   0.048s

DOCKED: MODEL        9
DOCKED: USER    Run = 9
DOCKED: USER
DOCKED: USER    Estimated Free Energy of Binding    =  -5.64 kcal/mol  [=(1)+(2)+(3)-(4)]
DOCKED: USER
DOCKED: USER    (1) Final Intermolecular Energy     =  -8.92 kcal/mol
DOCKED: USER        vdW + Hbond + desolv Energy     =  -9.25 kcal/mol
DOCKED: USER        Electrostatic Energy            =  -0.11 kcal/mol
DOCKED: USER        Moving Ligand-Fixed Receptor    =  -9.36 kcal/mol
DOCKED: USER        Moving Ligand-Moving Receptor   =  +0.44 kcal/mol
DOCKED: USER    (2) Final Total Internal Energy     =  -1.14 kcal/mol
DOCKED: USER    (3) Torsional Free Energy           =  +3.28 kcal/mol
DOCKED: USER    (4) Unbound System's Energy         =  -1.14 kcal/mol
DOCKED: USER
DOCKED: USER
DOCKED: REMARK SMILES CN1CCN(C(=O)c2cccc(C3=Nc4ccc(C#Cc5ccccc5)cc4N=C(O)C3)c2)CC1
DOCKED: REMARK SMILES IDX 15 1 16 2 17 3 18 4 27 5 28 6 14 7 13 8 12 9 8 10 9 11 33 12
DOCKED: REMARK SMILES IDX 10 13 11 14 6 15 2 16 3 17 35 18 4 19 34 20 5 21 1 22 7 23
DOCKED: REMARK SMILES IDX 32 24 29 26 30 27 31 29 19 31 20 32 21 33 22 34 26 35 23 36
DOCKED: REMARK SMILES IDX 25 37 24 38
DOCKED: REMARK H PARENT 31 30
DOCKED: REMARK Flexibility Score:  140.900
DOCKED: USER                              x       y       z     vdW  Elec       q    Type
DOCKED: USER                           _______ _______ _______ _____ _____    ______ ____
DOCKED: ROOT
DOCKED: ATOM      1  C   UNL     1     140.360  79.237 222.140 -0.27 -0.02    +0.089 A  
DOCKED: ATOM      2  C   UNL     1     140.674  80.527 222.591 -0.38 -0.01    +0.032 A  
DOCKED: ATOM      3  C   UNL     1     139.881  81.165 223.545 -0.26 -0.00    +0.019 A  
DOCKED: ATOM      4  C   UNL     1     138.774  80.508 224.085 -0.40 -0.00    +0.027 A  
DOCKED: ATOM      5  C   UNL     1     138.459  79.211 223.664 -0.14 -0.01    +0.048 A  
DOCKED: ATOM      6  C   UNL     1     139.229  78.569 222.685 -0.28 -0.02    +0.094 A  
DOCKED: ENDROOT
DOCKED: BRANCH   1   7
DOCKED: ATOM      7  N   UNL     1     141.278  78.617 221.224 -0.17 +0.12    -0.250 NA 
DOCKED: BRANCH   7   8
DOCKED: ATOM      8  C   UNL     1     141.546  77.348 221.119 -0.20 -0.03    +0.058 C  
DOCKED: BRANCH   8   9
DOCKED: ATOM      9  C   UNL     1     142.201  76.855 219.883 -0.32 +0.00    -0.003 A  
DOCKED: ATOM     10  C   UNL     1     143.511  75.163 218.701 -0.25 -0.02    +0.040 A  
DOCKED: ATOM     11  C   UNL     1     143.461  75.947 217.539 -0.23 -0.01    +0.014 A  
DOCKED: ATOM     12  C   UNL     1     142.899  75.633 219.874 -0.34 -0.01    +0.023 A  
DOCKED: ATOM     13  C   UNL     1     142.788  77.171 217.544 -0.28 -0.00    +0.002 A  
DOCKED: ATOM     14  C   UNL     1     142.160  77.624 218.706 -0.28 -0.01    +0.010 A  
DOCKED: BRANCH  10  15
DOCKED: ATOM     15  C   UNL     1     144.237  73.873 218.696 -0.12 -0.06    +0.253 C  
DOCKED: ATOM     16  N   UNL     1     143.114  70.188 219.499 -0.06 +0.02    -0.303 NA 
DOCKED: ATOM     17  C   UNL     1     142.319  71.080 220.370 -0.10 -0.01    +0.105 C  
DOCKED: ATOM     18  C   UNL     1     144.576  70.447 219.566 -0.16 +0.01    +0.105 C  
DOCKED: ATOM     19  C   UNL     1     142.518  72.561 220.005 -0.16 -0.02    +0.135 C  
DOCKED: ATOM     20  C   UNL     1     144.938  71.863 220.054 -0.22 +0.00    +0.135 C  
DOCKED: ATOM     21  N   UNL     1     143.915  72.823 219.632 -0.09 +0.04    -0.336 N  
DOCKED: ATOM     22  C   UNL     1     142.618  70.196 218.110 -0.05 -0.01    +0.105 C  
DOCKED: ATOM     23  O   UNL     1     145.143  73.684 217.839 -0.18 +0.01    -0.269 OA 
DOCKED: ENDBRANCH  10  15
DOCKED: ENDBRANCH   8   9
DOCKED: BRANCH   8  24
DOCKED: ATOM     24  C   UNL     1     141.164  76.400 222.219 -0.05 -0.06    +0.153 CG0
DOCKED: ATOM     25  G   UNL     1     139.685  76.211 222.208 +0.00 +0.00    +0.000 G0 
DOCKED: ENDBRANCH   8  24
DOCKED: ENDBRANCH   7   8
DOCKED: ENDBRANCH   1   7
DOCKED: BRANCH   6  26
DOCKED: ATOM     26  N   UNL     1     138.873  77.215 222.349 -0.19 +0.04    -0.216 NA 
DOCKED: BRANCH  26  27
DOCKED: ATOM     27  C   UNL     1     139.685  76.211 222.207 -0.26 -0.04    +0.192 CG0
DOCKED: ATOM     28  G   UNL     1     141.164  76.400 222.212 +0.00 +0.00    +0.000 G0 
DOCKED: BRANCH  27  29
DOCKED: ATOM     29  O   UNL     1     139.169  74.931 222.030 -0.32 +0.11    -0.496 OA 
DOCKED: ATOM     30  H   UNL     1     138.820  74.393 222.815 -0.50 -0.13    +0.294 HD 
DOCKED: ENDBRANCH  27  29
DOCKED: ENDBRANCH  26  27
DOCKED: ENDBRANCH   6  26
DOCKED: BRANCH   4  31
DOCKED: ATOM     31  C   UNL     1     137.969  81.157 225.087 -0.24 +0.00    -0.062 C  
DOCKED: BRANCH  31  32
DOCKED: ATOM     32  C   UNL     1     137.292  81.697 225.925 -0.37 +0.01    -0.062 C  
DOCKED: BRANCH  32  33
DOCKED: ATOM     33  C   UNL     1     136.489  82.345 226.928 -0.46 -0.00    +0.025 A  
DOCKED: ATOM     34  C   UNL     1     135.954  81.601 227.989 -0.46 -0.01    +0.017 A  
DOCKED: ATOM     35  C   UNL     1     136.239  83.723 226.847 -0.35 -0.00    +0.017 A  
DOCKED: ATOM     36  C   UNL     1     135.172  82.232 228.962 -0.46 -0.00    +0.001 A  
DOCKED: ATOM     37  C   UNL     1     135.457  84.350 227.823 -0.32 +0.00    +0.001 A  
DOCKED: ATOM     38  C   UNL     1     134.923  83.605 228.879 -0.31 +0.00    +0.000 A  
DOCKED: ENDBRANCH  32  33
DOCKED: ENDBRANCH  31  32
DOCKED: ENDBRANCH   4  31
DOCKED: TORSDOF 6
DOCKED: TER
DOCKED: ENDMDL
________________________________________________________________________________


    FINAL DOCKED STATE:
    ________________________


Run:   10 / 20
Time taken for this run:   0.048s

DOCKED: MODEL        10
DOCKED: USER    Run = 10
DOCKED: USER
DOCKED: USER    Estimated Free Energy of Binding    =  -4.65 kcal/mol  [=(1)+(2)+(3)-(4)]
DOCKED: USER
DOCKED: USER    (1) Final Intermolecular Energy     =  -7.93 kcal/mol
DOCKED: USER        vdW + Hbond + desolv Energy     =  -8.32 kcal/mol
DOCKED: USER        Electrostatic Energy            =  -0.18 kcal/mol
DOCKED: USER        Moving Ligand-Fixed Receptor    =  -8.50 kcal/mol
DOCKED: USER        Moving Ligand-Moving Receptor   =  +0.56 kcal/mol
DOCKED: USER    (2) Final Total Internal Energy     =  -1.17 kcal/mol
DOCKED: USER    (3) Torsional Free Energy           =  +3.28 kcal/mol
DOCKED: USER    (4) Unbound System's Energy         =  -1.17 kcal/mol
DOCKED: USER
DOCKED: USER
DOCKED: REMARK SMILES CN1CCN(C(=O)c2cccc(C3=Nc4ccc(C#Cc5ccccc5)cc4N=C(O)C3)c2)CC1
DOCKED: REMARK SMILES IDX 15 1 16 2 17 3 18 4 27 5 28 6 14 7 13 8 12 9 8 10 9 11 33 12
DOCKED: REMARK SMILES IDX 10 13 11 14 6 15 2 16 3 17 35 18 4 19 34 20 5 21 1 22 7 23
DOCKED: REMARK SMILES IDX 32 24 29 26 30 27 31 29 19 31 20 32 21 33 22 34 26 35 23 36
DOCKED: REMARK SMILES IDX 25 37 24 38
DOCKED: REMARK H PARENT 31 30
DOCKED: REMARK Flexibility Score:  140.900
DOCKED: USER                              x       y       z     vdW  Elec       q    Type
DOCKED: USER                           _______ _______ _______ _____ _____    ______ ____
DOCKED: ROOT
DOCKED: ATOM      1  C   UNL     1     140.103  79.110 221.881 -0.23 -0.02    +0.089 A  
DOCKED: ATOM      2  C   UNL     1     140.358  80.456 222.176 -0.31 -0.01    +0.032 A  
DOCKED: ATOM      3  C   UNL     1     139.615  81.131 223.145 -0.32 -0.00    +0.019 A  
DOCKED: ATOM      4  C   UNL     1     138.620  80.457 223.856 -0.39 -0.00    +0.027 A  
DOCKED: ATOM      5  C   UNL     1     138.367  79.106 223.592 -0.10 -0.01    +0.048 A  
DOCKED: ATOM      6  C   UNL     1     139.085  78.423 222.601 -0.26 -0.02    +0.094 A  
DOCKED: ENDROOT
DOCKED: BRANCH   1   7
DOCKED: ATOM      7  N   UNL     1     140.973  78.465 220.935 -0.13 +0.11    -0.250 NA 
DOCKED: BRANCH   7   8
DOCKED: ATOM      8  C   UNL     1     141.342  77.218 220.931 -0.28 -0.03    +0.058 C  
DOCKED: BRANCH   8   9
DOCKED: ATOM      9  C   UNL     1     141.939  76.652 219.697 -0.28 +0.00    -0.003 A  
DOCKED: ATOM     10  C   UNL     1     141.916  76.341 217.273 -0.11 -0.02    +0.040 A  
DOCKED: ATOM     11  C   UNL     1     143.069  75.548 217.371 -0.18 -0.01    +0.014 A  
DOCKED: ATOM     12  C   UNL     1     141.344  76.870 218.441 -0.13 -0.01    +0.023 A  
DOCKED: ATOM     13  C   UNL     1     143.654  75.309 218.616 -0.26 -0.00    +0.002 A  
DOCKED: ATOM     14  C   UNL     1     143.097  75.857 219.773 -0.37 -0.01    +0.010 A  
DOCKED: BRANCH  10  15
DOCKED: ATOM     15  C   UNL     1     141.290  76.582 215.953 -0.03 -0.11    +0.253 C  
DOCKED: ATOM     16  N   UNL     1     141.900  79.304 213.178 -0.02 +0.18    -0.303 NA 
DOCKED: ATOM     17  C   UNL     1     142.167  79.950 214.482 -0.09 -0.10    +0.105 C  
DOCKED: ATOM     18  C   UNL     1     140.588  78.608 213.123 -0.01 -0.04    +0.105 C  
DOCKED: ATOM     19  C   UNL     1     142.164  78.932 215.635 -0.09 -0.13    +0.135 C  
DOCKED: ATOM     20  C   UNL     1     140.028  78.220 214.505 -0.01 -0.05    +0.135 C  
DOCKED: ATOM     21  N   UNL     1     141.123  77.915 215.430 -0.02 +0.17    -0.336 N  
DOCKED: ATOM     22  C   UNL     1     143.008  78.423 212.768 -0.07 -0.07    +0.105 C  
DOCKED: ATOM     23  O   UNL     1     140.916  75.593 215.264 -0.01 +0.09    -0.269 OA 
DOCKED: ENDBRANCH  10  15
DOCKED: ENDBRANCH   8   9
DOCKED: BRANCH   8  24
DOCKED: ATOM     24  C   UNL     1     141.132  76.362 222.147 -0.13 -0.06    +0.153 CG0
DOCKED: ATOM     25  G   UNL     1     139.677  76.070 222.292 +0.00 +0.00    +0.000 G0 
DOCKED: ENDBRANCH   8  24
DOCKED: ENDBRANCH   7   8
DOCKED: ENDBRANCH   1   7
DOCKED: BRANCH   6  26
DOCKED: ATOM     26  N   UNL     1     138.805  77.021 222.431 -0.20 +0.04    -0.216 NA 
DOCKED: BRANCH  26  27
DOCKED: ATOM     27  C   UNL     1     139.675  76.067 222.293 -0.26 -0.04    +0.192 CG0
DOCKED: ATOM     28  G   UNL     1     141.130  76.355 222.144 +0.00 +0.00    +0.000 G0 
DOCKED: BRANCH  27  29
DOCKED: ATOM     29  O   UNL     1     139.244  74.744 222.268 -0.50 +0.10    -0.496 OA 
DOCKED: ATOM     30  H   UNL     1     138.416  74.453 222.777 -0.49 -0.15    +0.294 HD 
DOCKED: ENDBRANCH  27  29
DOCKED: ENDBRANCH  26  27
DOCKED: ENDBRANCH   6  26
DOCKED: BRANCH   4  31
DOCKED: ATOM     31  C   UNL     1     137.868  81.146 224.872 -0.34 +0.01    -0.062 C  
DOCKED: BRANCH  31  32
DOCKED: ATOM     32  C   UNL     1     137.240  81.725 225.723 -0.40 +0.01    -0.062 C  
DOCKED: BRANCH  32  33
DOCKED: ATOM     33  C   UNL     1     136.493  82.415 226.741 -0.45 -0.00    +0.025 A  
DOCKED: ATOM     34  C   UNL     1     136.289  83.799 226.648 -0.33 -0.00    +0.017 A  
DOCKED: ATOM     35  C   UNL     1     135.969  81.705 227.831 -0.47 -0.01    +0.017 A  
DOCKED: ATOM     36  C   UNL     1     135.565  84.468 227.640 -0.32 +0.00    +0.001 A  
DOCKED: ATOM     37  C   UNL     1     135.244  82.378 228.821 -0.44 -0.00    +0.001 A  
DOCKED: ATOM     38  C   UNL     1     135.043  83.758 228.725 -0.31 +0.00    +0.000 A  
DOCKED: ENDBRANCH  32  33
DOCKED: ENDBRANCH  31  32
DOCKED: ENDBRANCH   4  31
DOCKED: TORSDOF 6
DOCKED: TER
DOCKED: ENDMDL
________________________________________________________________________________


    FINAL DOCKED STATE:
    ________________________


Run:   11 / 20
Time taken for this run:   0.048s

DOCKED: MODEL        11
DOCKED: USER    Run = 11
DOCKED: USER
DOCKED: USER    Estimated Free Energy of Binding    =  -6.37 kcal/mol  [=(1)+(2)+(3)-(4)]
DOCKED: USER
DOCKED: USER    (1) Final Intermolecular Energy     =  -9.65 kcal/mol
DOCKED: USER        vdW + Hbond + desolv Energy     = -10.19 kcal/mol
DOCKED: USER        Electrostatic Energy            =  -0.22 kcal/mol
DOCKED: USER        Moving Ligand-Fixed Receptor    = -10.41 kcal/mol
DOCKED: USER        Moving Ligand-Moving Receptor   =  +0.76 kcal/mol
DOCKED: USER    (2) Final Total Internal Energy     =  -1.28 kcal/mol
DOCKED: USER    (3) Torsional Free Energy           =  +3.28 kcal/mol
DOCKED: USER    (4) Unbound System's Energy         =  -1.28 kcal/mol
DOCKED: USER
DOCKED: USER
DOCKED: REMARK SMILES CN1CCN(C(=O)c2cccc(C3=Nc4ccc(C#Cc5ccccc5)cc4N=C(O)C3)c2)CC1
DOCKED: REMARK SMILES IDX 15 1 16 2 17 3 18 4 27 5 28 6 14 7 13 8 12 9 8 10 9 11 33 12
DOCKED: REMARK SMILES IDX 10 13 11 14 6 15 2 16 3 17 35 18 4 19 34 20 5 21 1 22 7 23
DOCKED: REMARK SMILES IDX 32 24 29 26 30 27 31 29 19 31 20 32 21 33 22 34 26 35 23 36
DOCKED: REMARK SMILES IDX 25 37 24 38
DOCKED: REMARK H PARENT 31 30
DOCKED: REMARK Flexibility Score:  140.900
DOCKED: USER                              x       y       z     vdW  Elec       q    Type
DOCKED: USER                           _______ _______ _______ _____ _____    ______ ____
DOCKED: ROOT
DOCKED: ATOM      1  C   UNL     1     140.913  73.621 220.089 -0.12 -0.02    +0.089 A  
DOCKED: ATOM      2  C   UNL     1     139.806  73.772 220.937 -0.18 -0.01    +0.032 A  
DOCKED: ATOM      3  C   UNL     1     139.696  73.028 222.111 -0.27 -0.00    +0.019 A  
DOCKED: ATOM      4  C   UNL     1     140.711  72.138 222.472 -0.31 -0.00    +0.027 A  
DOCKED: ATOM      5  C   UNL     1     141.834  71.992 221.650 -0.13 -0.00    +0.048 A  
DOCKED: ATOM      6  C   UNL     1     141.944  72.710 220.452 -0.18 -0.01    +0.094 A  
DOCKED: ENDROOT
DOCKED: BRANCH   1   7
DOCKED: ATOM      7  N   UNL     1     140.992  74.489 218.946 -0.02 +0.07    -0.250 NA 
DOCKED: BRANCH   7   8
DOCKED: ATOM      8  C   UNL     1     142.056  75.069 218.473 -0.12 -0.02    +0.058 C  
DOCKED: BRANCH   8   9
DOCKED: ATOM      9  C   UNL     1     142.109  76.551 218.438 -0.21 +0.00    -0.003 A  
DOCKED: ATOM     10  C   UNL     1     141.393  78.725 219.295 -0.22 -0.02    +0.040 A  
DOCKED: ATOM     11  C   UNL     1     142.200  79.359 218.338 -0.31 -0.01    +0.014 A  
DOCKED: ATOM     12  C   UNL     1     141.335  77.322 219.324 -0.19 -0.01    +0.023 A  
DOCKED: ATOM     13  C   UNL     1     142.956  78.601 217.441 -0.23 -0.00    +0.002 A  
DOCKED: ATOM     14  C   UNL     1     142.915  77.206 217.489 -0.29 -0.01    +0.010 A  
DOCKED: BRANCH  10  15
DOCKED: ATOM     15  C   UNL     1     140.583  79.531 220.236 -0.11 -0.09    +0.253 C  
DOCKED: ATOM     16  N   UNL     1     141.125  80.574 223.991 -0.16 +0.05    -0.303 NA 
DOCKED: ATOM     17  C   UNL     1     141.738  79.239 223.822 -0.54 -0.03    +0.105 C  
DOCKED: ATOM     18  C   UNL     1     139.726  80.648 223.495 -0.36 -0.01    +0.105 C  
DOCKED: ATOM     19  C   UNL     1     141.774  78.810 222.345 -0.39 -0.06    +0.135 C  
DOCKED: ATOM     20  C   UNL     1     139.375  79.569 222.452 -0.24 -0.03    +0.135 C  
DOCKED: ATOM     21  N   UNL     1     140.554  79.238 221.648 -0.08 +0.11    -0.336 N  
DOCKED: ATOM     22  C   UNL     1     141.967  81.639 223.418 -0.41 -0.01    +0.105 C  
DOCKED: ATOM     23  O   UNL     1     139.922  80.509 219.791 -0.05 +0.08    -0.269 OA 
DOCKED: ENDBRANCH  10  15
DOCKED: ENDBRANCH   8   9
DOCKED: BRANCH   8  24
DOCKED: ATOM     24  C   UNL     1     143.194  74.245 217.940 -0.10 -0.05    +0.153 CG0
DOCKED: ATOM     25  G   UNL     1     143.808  73.479 219.062 +0.00 +0.00    +0.000 G0 
DOCKED: ENDBRANCH   8  24
DOCKED: ENDBRANCH   7   8
DOCKED: ENDBRANCH   1   7
DOCKED: BRANCH   6  26
DOCKED: ATOM     26  N   UNL     1     143.157  72.545 219.693 -0.10 +0.03    -0.216 NA 
DOCKED: BRANCH  26  27
DOCKED: ATOM     27  C   UNL     1     143.810  73.474 219.062 -0.16 -0.04    +0.192 CG0
DOCKED: ATOM     28  G   UNL     1     143.191  74.235 217.939 +0.00 +0.00    +0.000 G0 
DOCKED: BRANCH  27  29
DOCKED: ATOM     29  O   UNL     1     145.121  73.760 219.428 -0.14 +0.07    -0.496 OA 
DOCKED: ATOM     30  H   UNL     1     145.651  74.486 218.958 -0.33 -0.19    +0.294 HD 
DOCKED: ENDBRANCH  27  29
DOCKED: ENDBRANCH  26  27
DOCKED: ENDBRANCH   6  26
DOCKED: BRANCH   4  31
DOCKED: ATOM     31  C   UNL     1     140.610  71.388 223.696 -0.30 +0.01    -0.062 C  
DOCKED: BRANCH  31  32
DOCKED: ATOM     32  C   UNL     1     140.524  70.756 224.719 -0.43 +0.01    -0.062 C  
DOCKED: BRANCH  32  33
DOCKED: ATOM     33  C   UNL     1     140.427  70.000 225.940 -0.50 -0.00    +0.025 A  
DOCKED: ATOM     34  C   UNL     1     140.554  70.645 227.178 -0.63 -0.00    +0.017 A  
DOCKED: ATOM     35  C   UNL     1     140.207  68.616 225.894 -0.51 -0.00    +0.017 A  
DOCKED: ATOM     36  C   UNL     1     140.461  69.909 228.364 -0.56 -0.00    +0.001 A  
DOCKED: ATOM     37  C   UNL     1     140.114  67.883 227.082 -0.66 -0.00    +0.001 A  
DOCKED: ATOM     38  C   UNL     1     140.242  68.529 228.316 -0.66 -0.00    +0.000 A  
DOCKED: ENDBRANCH  32  33
DOCKED: ENDBRANCH  31  32
DOCKED: ENDBRANCH   4  31
DOCKED: TORSDOF 6
DOCKED: TER
DOCKED: ENDMDL
________________________________________________________________________________


    FINAL DOCKED STATE:
    ________________________


Run:   12 / 20
Time taken for this run:   0.048s

DOCKED: MODEL        12
DOCKED: USER    Run = 12
DOCKED: USER
DOCKED: USER    Estimated Free Energy of Binding    =  -4.65 kcal/mol  [=(1)+(2)+(3)-(4)]
DOCKED: USER
DOCKED: USER    (1) Final Intermolecular Energy     =  -7.94 kcal/mol
DOCKED: USER        vdW + Hbond + desolv Energy     =  -8.47 kcal/mol
DOCKED: USER        Electrostatic Energy            =  -0.08 kcal/mol
DOCKED: USER        Moving Ligand-Fixed Receptor    =  -8.55 kcal/mol
DOCKED: USER        Moving Ligand-Moving Receptor   =  +0.61 kcal/mol
DOCKED: USER    (2) Final Total Internal Energy     =  -1.12 kcal/mol
DOCKED: USER    (3) Torsional Free Energy           =  +3.28 kcal/mol
DOCKED: USER    (4) Unbound System's Energy         =  -1.12 kcal/mol
DOCKED: USER
DOCKED: USER
DOCKED: REMARK SMILES CN1CCN(C(=O)c2cccc(C3=Nc4ccc(C#Cc5ccccc5)cc4N=C(O)C3)c2)CC1
DOCKED: REMARK SMILES IDX 15 1 16 2 17 3 18 4 27 5 28 6 14 7 13 8 12 9 8 10 9 11 33 12
DOCKED: REMARK SMILES IDX 10 13 11 14 6 15 2 16 3 17 35 18 4 19 34 20 5 21 1 22 7 23
DOCKED: REMARK SMILES IDX 32 24 29 26 30 27 31 29 19 31 20 32 21 33 22 34 26 35 23 36
DOCKED: REMARK SMILES IDX 25 37 24 38
DOCKED: REMARK H PARENT 31 30
DOCKED: REMARK Flexibility Score:  140.900
DOCKED: USER                              x       y       z     vdW  Elec       q    Type
DOCKED: USER                           _______ _______ _______ _____ _____    ______ ____
DOCKED: ROOT
DOCKED: ATOM      1  C   UNL     1     140.832  74.056 220.757 -0.20 -0.02    +0.089 A  
DOCKED: ATOM      2  C   UNL     1     141.869  74.241 219.832 -0.18 -0.01    +0.032 A  
DOCKED: ATOM      3  C   UNL     1     142.688  73.177 219.452 -0.16 -0.00    +0.019 A  
DOCKED: ATOM      4  C   UNL     1     142.461  71.901 219.972 -0.17 -0.00    +0.027 A  
DOCKED: ATOM      5  C   UNL     1     141.416  71.693 220.879 -0.18 -0.01    +0.048 A  
DOCKED: ATOM      6  C   UNL     1     140.603  72.758 221.293 -0.21 -0.01    +0.094 A  
DOCKED: ENDROOT
DOCKED: BRANCH   1   7
DOCKED: ATOM      7  N   UNL     1     139.979  75.182 221.026 -0.16 +0.06    -0.250 NA 
DOCKED: BRANCH   7   8
DOCKED: ATOM      8  C   UNL     1     138.714  75.155 221.327 -0.19 -0.01    +0.058 C  
DOCKED: BRANCH   8   9
DOCKED: ATOM      9  C   UNL     1     138.097  76.358 221.937 -0.24 +0.00    -0.003 A  
DOCKED: ATOM     10  C   UNL     1     138.306  78.570 222.956 -0.25 -0.01    +0.040 A  
DOCKED: ATOM     11  C   UNL     1     136.912  78.619 223.116 -0.15 -0.00    +0.014 A  
DOCKED: ATOM     12  C   UNL     1     138.892  77.428 222.387 -0.29 -0.00    +0.023 A  
DOCKED: ATOM     13  C   UNL     1     136.117  77.552 222.691 -0.17 -0.00    +0.002 A  
DOCKED: ATOM     14  C   UNL     1     136.702  76.429 222.103 -0.18 -0.00    +0.010 A  
DOCKED: BRANCH  10  15
DOCKED: ATOM     15  C   UNL     1     139.147  79.696 223.421 -0.26 -0.04    +0.253 C  
DOCKED: ATOM     16  N   UNL     1     141.830  81.932 221.609 -0.19 +0.06    -0.303 NA 
DOCKED: ATOM     17  C   UNL     1     141.908  80.587 221.000 -0.31 -0.04    +0.105 C  
DOCKED: ATOM     18  C   UNL     1     141.901  81.912 223.094 -0.17 -0.01    +0.105 C  
DOCKED: ATOM     19  C   UNL     1     140.766  79.675 221.480 -0.24 -0.04    +0.135 C  
DOCKED: ATOM     20  C   UNL     1     141.498  80.563 223.720 -0.45 -0.02    +0.135 C  
DOCKED: ATOM     21  N   UNL     1     140.476  79.908 222.902 -0.16 +0.07    -0.336 N  
DOCKED: ATOM     22  C   UNL     1     140.659  82.685 221.125 -0.27 -0.02    +0.105 C  
DOCKED: ATOM     23  O   UNL     1     138.679  80.498 224.274 -0.31 +0.03    -0.269 OA 
DOCKED: ENDBRANCH  10  15
DOCKED: ENDBRANCH   8   9
DOCKED: BRANCH   8  24
DOCKED: ATOM     24  C   UNL     1     137.905  73.912 221.090 -0.10 -0.04    +0.153 CG0
DOCKED: ATOM     25  G   UNL     1     138.291  72.881 222.096 +0.00 +0.00    +0.000 G0 
DOCKED: ENDBRANCH   8  24
DOCKED: ENDBRANCH   7   8
DOCKED: ENDBRANCH   1   7
DOCKED: BRANCH   6  26
DOCKED: ATOM     26  N   UNL     1     139.514  72.449 222.182 -0.22 +0.04    -0.216 NA 
DOCKED: BRANCH  26  27
DOCKED: ATOM     27  C   UNL     1     138.294  72.887 222.096 -0.08 -0.06    +0.192 CG0
DOCKED: ATOM     28  G   UNL     1     137.905  73.917 221.090 +0.00 +0.00    +0.000 G0 
DOCKED: BRANCH  27  29
DOCKED: ATOM     29  O   UNL     1     137.328  72.400 222.970 -0.03 +0.18    -0.496 OA 
DOCKED: ATOM     30  H   UNL     1     137.421  72.515 223.973 -0.44 -0.18    +0.294 HD 
DOCKED: ENDBRANCH  27  29
DOCKED: ENDBRANCH  26  27
DOCKED: ENDBRANCH   6  26
DOCKED: BRANCH   4  31
DOCKED: ATOM     31  C   UNL     1     143.291  70.798 219.563 -0.17 +0.00    -0.062 C  
DOCKED: BRANCH  31  32
DOCKED: ATOM     32  C   UNL     1     143.988  69.876 219.221 -0.20 -0.00    -0.062 C  
DOCKED: BRANCH  32  33
DOCKED: ATOM     33  C   UNL     1     144.824  68.778 218.811 -0.29 +0.00    +0.025 A  
DOCKED: ATOM     34  C   UNL     1     145.425  68.788 217.545 -0.21 +0.00    +0.017 A  
DOCKED: ATOM     35  C   UNL     1     145.037  67.695 219.677 -0.46 -0.00    +0.017 A  
DOCKED: ATOM     36  C   UNL     1     146.236  67.719 217.147 -0.29 -0.00    +0.001 A  
DOCKED: ATOM     37  C   UNL     1     145.849  66.629 219.276 -0.56 -0.00    +0.001 A  
DOCKED: ATOM     38  C   UNL     1     146.447  66.641 218.012 -0.29 -0.00    +0.000 A  
DOCKED: ENDBRANCH  32  33
DOCKED: ENDBRANCH  31  32
DOCKED: ENDBRANCH   4  31
DOCKED: TORSDOF 6
DOCKED: TER
DOCKED: ENDMDL
________________________________________________________________________________


    FINAL DOCKED STATE:
    ________________________


Run:   13 / 20
Time taken for this run:   0.048s

DOCKED: MODEL        13
DOCKED: USER    Run = 13
DOCKED: USER
DOCKED: USER    Estimated Free Energy of Binding    =  -5.59 kcal/mol  [=(1)+(2)+(3)-(4)]
DOCKED: USER
DOCKED: USER    (1) Final Intermolecular Energy     =  -8.87 kcal/mol
DOCKED: USER        vdW + Hbond + desolv Energy     =  -9.58 kcal/mol
DOCKED: USER        Electrostatic Energy            =  -0.06 kcal/mol
DOCKED: USER        Moving Ligand-Fixed Receptor    =  -9.64 kcal/mol
DOCKED: USER        Moving Ligand-Moving Receptor   =  +0.77 kcal/mol
DOCKED: USER    (2) Final Total Internal Energy     =  -1.18 kcal/mol
DOCKED: USER    (3) Torsional Free Energy           =  +3.28 kcal/mol
DOCKED: USER    (4) Unbound System's Energy         =  -1.18 kcal/mol
DOCKED: USER
DOCKED: USER
DOCKED: REMARK SMILES CN1CCN(C(=O)c2cccc(C3=Nc4ccc(C#Cc5ccccc5)cc4N=C(O)C3)c2)CC1
DOCKED: REMARK SMILES IDX 15 1 16 2 17 3 18 4 27 5 28 6 14 7 13 8 12 9 8 10 9 11 33 12
DOCKED: REMARK SMILES IDX 10 13 11 14 6 15 2 16 3 17 35 18 4 19 34 20 5 21 1 22 7 23
DOCKED: REMARK SMILES IDX 32 24 29 26 30 27 31 29 19 31 20 32 21 33 22 34 26 35 23 36
DOCKED: REMARK SMILES IDX 25 37 24 38
DOCKED: REMARK H PARENT 31 30
DOCKED: REMARK Flexibility Score:  140.900
DOCKED: USER                              x       y       z     vdW  Elec       q    Type
DOCKED: USER                           _______ _______ _______ _____ _____    ______ ____
DOCKED: ROOT
DOCKED: ATOM      1  C   UNL     1     142.479  75.065 220.637 -0.22 -0.04    +0.089 A  
DOCKED: ATOM      2  C   UNL     1     143.610  74.797 219.853 -0.38 -0.01    +0.032 A  
DOCKED: ATOM      3  C   UNL     1     144.014  73.485 219.603 -0.31 -0.00    +0.019 A  
DOCKED: ATOM      4  C   UNL     1     143.272  72.417 220.112 -0.25 -0.00    +0.027 A  
DOCKED: ATOM      5  C   UNL     1     142.126  72.665 220.876 -0.24 -0.01    +0.048 A  
DOCKED: ATOM      6  C   UNL     1     141.725  73.978 221.161 -0.22 -0.02    +0.094 A  
DOCKED: ENDROOT
DOCKED: BRANCH   1   7
DOCKED: ATOM      7  N   UNL     1     142.080  76.440 220.771 +0.01 +0.16    -0.250 NA 
DOCKED: BRANCH   7   8
DOCKED: ATOM      8  C   UNL     1     140.875  76.893 220.958 -0.27 -0.02    +0.058 C  
DOCKED: BRANCH   8   9
DOCKED: ATOM      9  C   UNL     1     140.701  78.241 221.553 -0.31 +0.00    -0.003 A  
DOCKED: ATOM     10  C   UNL     1     139.378  79.840 222.843 -0.31 -0.01    +0.040 A  
DOCKED: ATOM     11  C   UNL     1     140.375  80.809 222.649 -0.37 -0.00    +0.014 A  
DOCKED: ATOM     12  C   UNL     1     139.537  78.567 222.273 -0.29 -0.01    +0.023 A  
DOCKED: ATOM     13  C   UNL     1     141.523  80.500 221.917 -0.44 -0.00    +0.002 A  
DOCKED: ATOM     14  C   UNL     1     141.689  79.225 221.373 -0.38 -0.00    +0.010 A  
DOCKED: BRANCH  10  15
DOCKED: ATOM     15  C   UNL     1     138.155  80.175 223.608 -0.23 -0.03    +0.253 C  
DOCKED: ATOM     16  N   UNL     1     134.405  79.035 223.257 -0.04 +0.04    -0.303 NA 
DOCKED: ATOM     17  C   UNL     1     134.977  79.063 221.893 -0.05 -0.01    +0.105 C  
DOCKED: ATOM     18  C   UNL     1     134.631  80.294 224.015 -0.11 -0.01    +0.105 C  
DOCKED: ATOM     19  C   UNL     1     136.498  79.294 221.915 -0.08 -0.02    +0.135 C  
DOCKED: ATOM     20  C   UNL     1     135.820  81.128 223.503 -0.12 -0.02    +0.135 C  
DOCKED: ATOM     21  N   UNL     1     136.864  80.250 222.969 -0.07 +0.04    -0.336 N  
DOCKED: ATOM     22  C   UNL     1     134.851  77.851 224.013 -0.08 -0.01    +0.105 C  
DOCKED: ATOM     23  O   UNL     1     138.247  80.378 224.849 -0.28 +0.02    -0.269 OA 
DOCKED: ENDBRANCH  10  15
DOCKED: ENDBRANCH   8   9
DOCKED: BRANCH   8  24
DOCKED: ATOM     24  C   UNL     1     139.684  76.047 220.607 -0.13 -0.04    +0.153 CG0
DOCKED: ATOM     25  G   UNL     1     139.535  74.969 221.627 +0.00 +0.00    +0.000 G0 
DOCKED: ENDBRANCH   8  24
DOCKED: ENDBRANCH   7   8
DOCKED: ENDBRANCH   1   7
DOCKED: BRANCH   6  26
DOCKED: ATOM     26  N   UNL     1     140.504  74.147 221.905 -0.73 +0.01    -0.216 NA 
DOCKED: BRANCH  26  27
DOCKED: ATOM     27  C   UNL     1     139.532  74.963 221.626 -0.22 -0.04    +0.192 CG0
DOCKED: ATOM     28  G   UNL     1     139.687  76.039 220.606 +0.00 +0.00    +0.000 G0 
DOCKED: BRANCH  27  29
DOCKED: ATOM     29  O   UNL     1     138.322  74.843 222.302 -0.12 +0.16    -0.496 OA 
DOCKED: ATOM     30  H   UNL     1     138.118  74.031 222.873 -0.49 -0.18    +0.294 HD 
DOCKED: ENDBRANCH  27  29
DOCKED: ENDBRANCH  26  27
DOCKED: ENDBRANCH   6  26
DOCKED: BRANCH   4  31
DOCKED: ATOM     31  C   UNL     1     143.674  71.063 219.835 -0.21 +0.00    -0.062 C  
DOCKED: BRANCH  31  32
DOCKED: ATOM     32  C   UNL     1     144.009  69.928 219.604 -0.22 -0.00    -0.062 C  
DOCKED: BRANCH  32  33
DOCKED: ATOM     33  C   UNL     1     144.405  68.572 219.332 -0.31 +0.00    +0.025 A  
DOCKED: ATOM     34  C   UNL     1     145.764  68.242 219.239 -0.47 +0.00    +0.017 A  
DOCKED: ATOM     35  C   UNL     1     143.432  67.576 219.158 -0.25 -0.00    +0.017 A  
DOCKED: ATOM     36  C   UNL     1     146.147  66.923 218.973 -0.57 -0.00    +0.001 A  
DOCKED: ATOM     37  C   UNL     1     143.819  66.258 218.893 -0.36 -0.00    +0.001 A  
DOCKED: ATOM     38  C   UNL     1     145.176  65.933 218.800 -0.45 -0.00    +0.000 A  
DOCKED: ENDBRANCH  32  33
DOCKED: ENDBRANCH  31  32
DOCKED: ENDBRANCH   4  31
DOCKED: TORSDOF 6
DOCKED: TER
DOCKED: ENDMDL
________________________________________________________________________________


    FINAL DOCKED STATE:
    ________________________


Run:   14 / 20
Time taken for this run:   0.048s

DOCKED: MODEL        14
DOCKED: USER    Run = 14
DOCKED: USER
DOCKED: USER    Estimated Free Energy of Binding    =  -5.87 kcal/mol  [=(1)+(2)+(3)-(4)]
DOCKED: USER
DOCKED: USER    (1) Final Intermolecular Energy     =  -9.15 kcal/mol
DOCKED: USER        vdW + Hbond + desolv Energy     = -10.19 kcal/mol
DOCKED: USER        Electrostatic Energy            =  -0.22 kcal/mol
DOCKED: USER        Moving Ligand-Fixed Receptor    = -10.41 kcal/mol
DOCKED: USER        Moving Ligand-Moving Receptor   =  +1.26 kcal/mol
DOCKED: USER    (2) Final Total Internal Energy     =  -1.27 kcal/mol
DOCKED: USER    (3) Torsional Free Energy           =  +3.28 kcal/mol
DOCKED: USER    (4) Unbound System's Energy         =  -1.27 kcal/mol
DOCKED: USER
DOCKED: USER
DOCKED: REMARK SMILES CN1CCN(C(=O)c2cccc(C3=Nc4ccc(C#Cc5ccccc5)cc4N=C(O)C3)c2)CC1
DOCKED: REMARK SMILES IDX 15 1 16 2 17 3 18 4 27 5 28 6 14 7 13 8 12 9 8 10 9 11 33 12
DOCKED: REMARK SMILES IDX 10 13 11 14 6 15 2 16 3 17 35 18 4 19 34 20 5 21 1 22 7 23
DOCKED: REMARK SMILES IDX 32 24 29 26 30 27 31 29 19 31 20 32 21 33 22 34 26 35 23 36
DOCKED: REMARK SMILES IDX 25 37 24 38
DOCKED: REMARK H PARENT 31 30
DOCKED: REMARK Flexibility Score:  140.900
DOCKED: USER                              x       y       z     vdW  Elec       q    Type
DOCKED: USER                           _______ _______ _______ _____ _____    ______ ____
DOCKED: ROOT
DOCKED: ATOM      1  C   UNL     1     140.858  73.835 219.928 -0.11 -0.02    +0.089 A  
DOCKED: ATOM      2  C   UNL     1     139.783  74.078 220.794 -0.17 -0.01    +0.032 A  
DOCKED: ATOM      3  C   UNL     1     139.654  73.375 221.992 -0.27 -0.00    +0.019 A  
DOCKED: ATOM      4  C   UNL     1     140.621  72.435 222.357 -0.31 -0.00    +0.027 A  
DOCKED: ATOM      5  C   UNL     1     141.714  72.197 221.517 -0.21 -0.00    +0.048 A  
DOCKED: ATOM      6  C   UNL     1     141.841  72.874 220.296 -0.16 -0.02    +0.094 A  
DOCKED: ENDROOT
DOCKED: BRANCH   1   7
DOCKED: ATOM      7  N   UNL     1     140.964  74.665 218.759 -0.01 +0.07    -0.250 NA 
DOCKED: BRANCH   7   8
DOCKED: ATOM      8  C   UNL     1     142.050  75.170 218.250 -0.11 -0.02    +0.058 C  
DOCKED: BRANCH   8   9
DOCKED: ATOM      9  C   UNL     1     142.181  76.645 218.166 -0.21 +0.00    -0.003 A  
DOCKED: ATOM     10  C   UNL     1     141.762  78.873 219.080 -0.25 -0.02    +0.040 A  
DOCKED: ATOM     11  C   UNL     1     142.416  79.440 217.975 -0.32 -0.01    +0.014 A  
DOCKED: ATOM     12  C   UNL     1     141.629  77.477 219.157 -0.22 -0.01    +0.023 A  
DOCKED: ATOM     13  C   UNL     1     142.949  78.622 216.976 -0.03 -0.00    +0.002 A  
DOCKED: ATOM     14  C   UNL     1     142.836  77.234 217.069 -0.26 -0.01    +0.010 A  
DOCKED: BRANCH  10  15
DOCKED: ATOM     15  C   UNL     1     141.186  79.743 220.129 -0.16 -0.11    +0.253 C  
DOCKED: ATOM     16  N   UNL     1     141.628  79.841 224.038 -0.25 +0.06    -0.303 NA 
DOCKED: ATOM     17  C   UNL     1     141.745  78.425 223.626 -0.43 -0.04    +0.105 C  
DOCKED: ATOM     18  C   UNL     1     140.411  80.509 223.508 -0.40 -0.02    +0.105 C  
DOCKED: ATOM     19  C   UNL     1     141.797  78.278 222.096 -0.17 -0.08    +0.135 C  
DOCKED: ATOM     20  C   UNL     1     139.824  79.836 222.252 -0.24 -0.03    +0.135 C  
DOCKED: ATOM     21  N   UNL     1     140.894  79.240 221.449 -0.10 +0.12    -0.336 N  
DOCKED: ATOM     22  C   UNL     1     142.851  80.603 223.731 -0.58 -0.02    +0.105 C  
DOCKED: ATOM     23  O   UNL     1     140.968  80.957 219.866 -0.13 +0.09    -0.269 OA 
DOCKED: ENDBRANCH  10  15
DOCKED: ENDBRANCH   8   9
DOCKED: BRANCH   8  24
DOCKED: ATOM     24  C   UNL     1     143.133  74.270 217.728 -0.09 -0.05    +0.153 CG0
DOCKED: ATOM     25  G   UNL     1     143.712  73.495 218.863 +0.00 +0.00    +0.000 G0 
DOCKED: ENDBRANCH   8  24
DOCKED: ENDBRANCH   7   8
DOCKED: ENDBRANCH   1   7
DOCKED: BRANCH   6  26
DOCKED: ATOM     26  N   UNL     1     143.024  72.613 219.517 -0.08 +0.03    -0.216 NA 
DOCKED: BRANCH  26  27
DOCKED: ATOM     27  C   UNL     1     143.722  73.484 218.852 -0.13 -0.04    +0.192 CG0
DOCKED: ATOM     28  G   UNL     1     143.127  74.266 217.730 +0.00 +0.00    +0.000 G0 
DOCKED: BRANCH  27  29
DOCKED: ATOM     29  O   UNL     1     145.059  73.684 219.179 -0.12 +0.06    -0.496 OA 
DOCKED: ATOM     30  H   UNL     1     145.611  74.398 218.717 -0.35 -0.16    +0.294 HD 
DOCKED: ENDBRANCH  27  29
DOCKED: ENDBRANCH  26  27
DOCKED: ENDBRANCH   6  26
DOCKED: BRANCH   4  31
DOCKED: ATOM     31  C   UNL     1     140.502  71.727 223.605 -0.31 +0.01    -0.062 C  
DOCKED: BRANCH  31  32
DOCKED: ATOM     32  C   UNL     1     140.400  71.133 224.649 -0.46 +0.01    -0.062 C  
DOCKED: BRANCH  32  33
DOCKED: ATOM     33  C   UNL     1     140.279  70.420 225.893 -0.52 -0.00    +0.025 A  
DOCKED: ATOM     34  C   UNL     1     140.343  71.113 227.110 -0.64 -0.00    +0.017 A  
DOCKED: ATOM     35  C   UNL     1     140.097  69.029 225.892 -0.49 -0.00    +0.017 A  
DOCKED: ATOM     36  C   UNL     1     140.227  70.418 228.318 -0.60 -0.00    +0.001 A  
DOCKED: ATOM     37  C   UNL     1     139.980  68.338 227.102 -0.65 -0.00    +0.001 A  
DOCKED: ATOM     38  C   UNL     1     140.047  69.032 228.314 -0.64 -0.00    +0.000 A  
DOCKED: ENDBRANCH  32  33
DOCKED: ENDBRANCH  31  32
DOCKED: ENDBRANCH   4  31
DOCKED: TORSDOF 6
DOCKED: TER
DOCKED: ENDMDL
________________________________________________________________________________


    FINAL DOCKED STATE:
    ________________________


Run:   15 / 20
Time taken for this run:   0.048s

DOCKED: MODEL        15
DOCKED: USER    Run = 15
DOCKED: USER
DOCKED: USER    Estimated Free Energy of Binding    =  -4.24 kcal/mol  [=(1)+(2)+(3)-(4)]
DOCKED: USER
DOCKED: USER    (1) Final Intermolecular Energy     =  -7.52 kcal/mol
DOCKED: USER        vdW + Hbond + desolv Energy     =  -8.31 kcal/mol
DOCKED: USER        Electrostatic Energy            =  -0.13 kcal/mol
DOCKED: USER        Moving Ligand-Fixed Receptor    =  -8.44 kcal/mol
DOCKED: USER        Moving Ligand-Moving Receptor   =  +0.92 kcal/mol
DOCKED: USER    (2) Final Total Internal Energy     =  -1.11 kcal/mol
DOCKED: USER    (3) Torsional Free Energy           =  +3.28 kcal/mol
DOCKED: USER    (4) Unbound System's Energy         =  -1.11 kcal/mol
DOCKED: USER
DOCKED: USER
DOCKED: REMARK SMILES CN1CCN(C(=O)c2cccc(C3=Nc4ccc(C#Cc5ccccc5)cc4N=C(O)C3)c2)CC1
DOCKED: REMARK SMILES IDX 15 1 16 2 17 3 18 4 27 5 28 6 14 7 13 8 12 9 8 10 9 11 33 12
DOCKED: REMARK SMILES IDX 10 13 11 14 6 15 2 16 3 17 35 18 4 19 34 20 5 21 1 22 7 23
DOCKED: REMARK SMILES IDX 32 24 29 26 30 27 31 29 19 31 20 32 21 33 22 34 26 35 23 36
DOCKED: REMARK SMILES IDX 25 37 24 38
DOCKED: REMARK H PARENT 31 30
DOCKED: REMARK Flexibility Score:  140.900
DOCKED: USER                              x       y       z     vdW  Elec       q    Type
DOCKED: USER                           _______ _______ _______ _____ _____    ______ ____
DOCKED: ROOT
DOCKED: ATOM      1  C   UNL     1     139.216  79.972 221.808 -0.17 -0.02    +0.089 A  
DOCKED: ATOM      2  C   UNL     1     137.869  79.605 221.935 -0.14 -0.01    +0.032 A  
DOCKED: ATOM      3  C   UNL     1     137.145  79.919 223.085 -0.21 -0.00    +0.019 A  
DOCKED: ATOM      4  C   UNL     1     137.753  80.636 224.118 -0.35 -0.00    +0.027 A  
DOCKED: ATOM      5  C   UNL     1     139.089  81.032 223.999 -0.24 -0.00    +0.048 A  
DOCKED: ATOM      6  C   UNL     1     139.838  80.697 222.863 -0.31 -0.01    +0.094 A  
DOCKED: ENDROOT
DOCKED: BRANCH   1   7
DOCKED: ATOM      7  N   UNL     1     139.862  79.689 220.555 -0.05 +0.07    -0.250 NA 
DOCKED: BRANCH   7   8
DOCKED: ATOM      8  C   UNL     1     141.117  79.407 220.366 -0.25 -0.02    +0.058 C  
DOCKED: BRANCH   8   9
DOCKED: ATOM      9  C   UNL     1     141.479  78.066 219.843 -0.26 +0.00    -0.003 A  
DOCKED: ATOM     10  C   UNL     1     141.084  75.658 219.711 -0.15 -0.01    +0.040 A  
DOCKED: ATOM     11  C   UNL     1     142.195  75.530 218.864 -0.19 -0.01    +0.014 A  
DOCKED: ATOM     12  C   UNL     1     140.746  76.925 220.215 -0.19 -0.01    +0.023 A  
DOCKED: ATOM     13  C   UNL     1     142.940  76.656 218.506 -0.33 -0.00    +0.002 A  
DOCKED: ATOM     14  C   UNL     1     142.586  77.917 218.989 -0.29 -0.01    +0.010 A  
DOCKED: BRANCH  10  15
DOCKED: ATOM     15  C   UNL     1     140.304  74.461 220.100 -0.07 -0.06    +0.253 C  
DOCKED: ATOM     16  N   UNL     1     136.778  74.020 221.790 -0.06 +0.08    -0.303 NA 
DOCKED: ATOM     17  C   UNL     1     137.366  75.262 222.337 -0.18 -0.03    +0.105 C  
DOCKED: ATOM     18  C   UNL     1     137.689  72.848 221.878 -0.13 -0.03    +0.105 C  
DOCKED: ATOM     19  C   UNL     1     138.658  75.655 221.600 -0.20 -0.03    +0.135 C  
DOCKED: ATOM     20  C   UNL     1     139.179  73.222 221.990 -0.19 -0.03    +0.135 C  
DOCKED: ATOM     21  N   UNL     1     139.447  74.464 221.260 -0.11 +0.07    -0.336 N  
DOCKED: ATOM     22  C   UNL     1     136.264  74.214 220.422 -0.03 -0.02    +0.105 C  
DOCKED: ATOM     23  O   UNL     1     140.377  73.425 219.385 -0.02 +0.06    -0.269 OA 
DOCKED: ENDBRANCH  10  15
DOCKED: ENDBRANCH   8   9
DOCKED: BRANCH   8  24
DOCKED: ATOM     24  C   UNL     1     142.180  80.412 220.706 -0.17 -0.07    +0.153 CG0
DOCKED: ATOM     25  G   UNL     1     142.193  80.627 222.182 +0.00 +0.00    +0.000 G0 
DOCKED: ENDBRANCH   8  24
DOCKED: ENDBRANCH   7   8
DOCKED: ENDBRANCH   1   7
DOCKED: BRANCH   6  26
DOCKED: ATOM     26  N   UNL     1     141.188  81.192 222.793 -0.29 +0.04    -0.216 NA 
DOCKED: BRANCH  26  27
DOCKED: ATOM     27  C   UNL     1     142.189  80.634 222.180 -0.40 -0.06    +0.192 CG0
DOCKED: ATOM     28  G   UNL     1     142.171  80.408 220.706 +0.00 +0.00    +0.000 G0 
DOCKED: BRANCH  27  29
DOCKED: ATOM     29  O   UNL     1     143.298  80.222 222.912 -0.28 +0.17    -0.496 OA 
DOCKED: ATOM     30  H   UNL     1     144.057  79.714 222.472 -0.27 -0.17    +0.294 HD 
DOCKED: ENDBRANCH  27  29
DOCKED: ENDBRANCH  26  27
DOCKED: ENDBRANCH   6  26
DOCKED: BRANCH   4  31
DOCKED: ATOM     31  C   UNL     1     137.000  80.981 225.295 -0.32 +0.01    -0.062 C  
DOCKED: BRANCH  31  32
DOCKED: ATOM     32  C   UNL     1     136.371  81.274 226.281 -0.35 +0.01    -0.062 C  
DOCKED: BRANCH  32  33
DOCKED: ATOM     33  C   UNL     1     135.617  81.627 227.455 -0.40 -0.01    +0.025 A  
DOCKED: ATOM     34  C   UNL     1     134.268  81.991 227.341 -0.21 -0.00    +0.017 A  
DOCKED: ATOM     35  C   UNL     1     136.230  81.611 228.716 -0.38 -0.01    +0.017 A  
DOCKED: ATOM     36  C   UNL     1     133.537  82.337 228.483 -0.18 +0.00    +0.001 A  
DOCKED: ATOM     37  C   UNL     1     135.496  81.955 229.856 -0.57 -0.00    +0.001 A  
DOCKED: ATOM     38  C   UNL     1     134.151  82.319 229.739 -0.39 +0.00    +0.000 A  
DOCKED: ENDBRANCH  32  33
DOCKED: ENDBRANCH  31  32
DOCKED: ENDBRANCH   4  31
DOCKED: TORSDOF 6
DOCKED: TER
DOCKED: ENDMDL
________________________________________________________________________________


    FINAL DOCKED STATE:
    ________________________


Run:   16 / 20
Time taken for this run:   0.048s

DOCKED: MODEL        16
DOCKED: USER    Run = 16
DOCKED: USER
DOCKED: USER    Estimated Free Energy of Binding    =  -6.11 kcal/mol  [=(1)+(2)+(3)-(4)]
DOCKED: USER
DOCKED: USER    (1) Final Intermolecular Energy     =  -9.39 kcal/mol
DOCKED: USER        vdW + Hbond + desolv Energy     = -10.09 kcal/mol
DOCKED: USER        Electrostatic Energy            =  -0.20 kcal/mol
DOCKED: USER        Moving Ligand-Fixed Receptor    = -10.29 kcal/mol
DOCKED: USER        Moving Ligand-Moving Receptor   =  +0.90 kcal/mol
DOCKED: USER    (2) Final Total Internal Energy     =  -1.28 kcal/mol
DOCKED: USER    (3) Torsional Free Energy           =  +3.28 kcal/mol
DOCKED: USER    (4) Unbound System's Energy         =  -1.28 kcal/mol
DOCKED: USER
DOCKED: USER
DOCKED: REMARK SMILES CN1CCN(C(=O)c2cccc(C3=Nc4ccc(C#Cc5ccccc5)cc4N=C(O)C3)c2)CC1
DOCKED: REMARK SMILES IDX 15 1 16 2 17 3 18 4 27 5 28 6 14 7 13 8 12 9 8 10 9 11 33 12
DOCKED: REMARK SMILES IDX 10 13 11 14 6 15 2 16 3 17 35 18 4 19 34 20 5 21 1 22 7 23
DOCKED: REMARK SMILES IDX 32 24 29 26 30 27 31 29 19 31 20 32 21 33 22 34 26 35 23 36
DOCKED: REMARK SMILES IDX 25 37 24 38
DOCKED: REMARK H PARENT 31 30
DOCKED: REMARK Flexibility Score:  140.900
DOCKED: USER                              x       y       z     vdW  Elec       q    Type
DOCKED: USER                           _______ _______ _______ _____ _____    ______ ____
DOCKED: ROOT
DOCKED: ATOM      1  C   UNL     1     140.492  74.087 220.035 -0.10 -0.02    +0.089 A  
DOCKED: ATOM      2  C   UNL     1     139.530  74.341 221.022 -0.19 -0.01    +0.032 A  
DOCKED: ATOM      3  C   UNL     1     139.488  73.585 222.194 -0.20 -0.00    +0.019 A  
DOCKED: ATOM      4  C   UNL     1     140.432  72.578 222.409 -0.31 -0.00    +0.027 A  
DOCKED: ATOM      5  C   UNL     1     141.415  72.326 221.445 -0.24 -0.00    +0.048 A  
DOCKED: ATOM      6  C   UNL     1     141.451  73.057 220.250 -0.15 -0.02    +0.094 A  
DOCKED: ENDROOT
DOCKED: BRANCH   1   7
DOCKED: ATOM      7  N   UNL     1     140.523  74.970 218.900 -0.01 +0.07    -0.250 NA 
DOCKED: BRANCH   7   8
DOCKED: ATOM      8  C   UNL     1     141.576  75.425 218.288 -0.09 -0.02    +0.058 C  
DOCKED: BRANCH   8   9
DOCKED: ATOM      9  C   UNL     1     141.801  76.891 218.244 -0.18 +0.00    -0.003 A  
DOCKED: ATOM     10  C   UNL     1     141.520  79.115 219.217 -0.23 -0.02    +0.040 A  
DOCKED: ATOM     11  C   UNL     1     142.213  79.669 218.130 -0.31 -0.01    +0.014 A  
DOCKED: ATOM     12  C   UNL     1     141.298  77.729 219.256 -0.19 -0.01    +0.023 A  
DOCKED: ATOM     13  C   UNL     1     142.698  78.847 217.111 -0.14 -0.00    +0.002 A  
DOCKED: ATOM     14  C   UNL     1     142.496  77.466 217.165 -0.24 -0.01    +0.010 A  
DOCKED: BRANCH  10  15
DOCKED: ATOM     15  C   UNL     1     140.996  79.991 220.289 -0.16 -0.10    +0.253 C  
DOCKED: ATOM     16  N   UNL     1     141.590  80.078 224.178 -0.18 +0.06    -0.303 NA 
DOCKED: ATOM     17  C   UNL     1     141.674  78.662 223.761 -0.50 -0.03    +0.105 C  
DOCKED: ATOM     18  C   UNL     1     140.362  80.763 223.696 -0.32 -0.01    +0.105 C  
DOCKED: ATOM     19  C   UNL     1     141.664  78.516 222.229 -0.32 -0.07    +0.135 C  
DOCKED: ATOM     20  C   UNL     1     139.719  80.098 222.463 -0.25 -0.03    +0.135 C  
DOCKED: ATOM     21  N   UNL     1     140.749  79.490 221.619 -0.09 +0.11    -0.336 N  
DOCKED: ATOM     22  C   UNL     1     142.810  80.826 223.825 -0.57 -0.02    +0.105 C  
DOCKED: ATOM     23  O   UNL     1     140.783  81.208 220.035 -0.12 +0.08    -0.269 OA 
DOCKED: ENDBRANCH  10  15
DOCKED: ENDBRANCH   8   9
DOCKED: BRANCH   8  24
DOCKED: ATOM     24  C   UNL     1     142.525  74.480 217.608 -0.06 -0.05    +0.153 CG0
DOCKED: ATOM     25  G   UNL     1     143.197  73.638 218.640 +0.00 +0.00    +0.000 G0 
DOCKED: ENDBRANCH   8  24
DOCKED: ENDBRANCH   7   8
DOCKED: ENDBRANCH   1   7
DOCKED: BRANCH   6  26
DOCKED: ATOM     26  N   UNL     1     142.528  72.776 219.336 -0.05 +0.04    -0.216 NA 
DOCKED: BRANCH  26  27
DOCKED: ATOM     27  C   UNL     1     143.194  73.641 218.632 -0.09 -0.04    +0.192 CG0
DOCKED: ATOM     28  G   UNL     1     142.525  74.488 217.603 +0.00 +0.00    +0.000 G0 
DOCKED: BRANCH  27  29
DOCKED: ATOM     29  O   UNL     1     144.565  73.773 218.827 -0.06 +0.09    -0.496 OA 
DOCKED: ATOM     30  H   UNL     1     145.058  74.609 218.534 -0.35 -0.18    +0.294 HD 
DOCKED: ENDBRANCH  27  29
DOCKED: ENDBRANCH  26  27
DOCKED: ENDBRANCH   6  26
DOCKED: BRANCH   4  31
DOCKED: ATOM     31  C   UNL     1     140.405  71.813 223.627 -0.33 +0.01    -0.062 C  
DOCKED: BRANCH  31  32
DOCKED: ATOM     32  C   UNL     1     140.385  71.172 224.648 -0.46 +0.01    -0.062 C  
DOCKED: BRANCH  32  33
DOCKED: ATOM     33  C   UNL     1     140.358  70.403 225.864 -0.52 -0.00    +0.025 A  
DOCKED: ATOM     34  C   UNL     1     140.469  71.046 227.105 -0.65 -0.00    +0.017 A  
DOCKED: ATOM     35  C   UNL     1     140.222  69.008 225.812 -0.48 -0.00    +0.017 A  
DOCKED: ATOM     36  C   UNL     1     140.445  70.297 228.287 -0.59 -0.00    +0.001 A  
DOCKED: ATOM     37  C   UNL     1     140.197  68.262 226.996 -0.66 -0.00    +0.001 A  
DOCKED: ATOM     38  C   UNL     1     140.310  68.907 228.232 -0.65 -0.00    +0.000 A  
DOCKED: ENDBRANCH  32  33
DOCKED: ENDBRANCH  31  32
DOCKED: ENDBRANCH   4  31
DOCKED: TORSDOF 6
DOCKED: TER
DOCKED: ENDMDL
________________________________________________________________________________


    FINAL DOCKED STATE:
    ________________________


Run:   17 / 20
Time taken for this run:   0.048s

DOCKED: MODEL        17
DOCKED: USER    Run = 17
DOCKED: USER
DOCKED: USER    Estimated Free Energy of Binding    =  -5.74 kcal/mol  [=(1)+(2)+(3)-(4)]
DOCKED: USER
DOCKED: USER    (1) Final Intermolecular Energy     =  -9.02 kcal/mol
DOCKED: USER        vdW + Hbond + desolv Energy     = -10.18 kcal/mol
DOCKED: USER        Electrostatic Energy            =  -0.19 kcal/mol
DOCKED: USER        Moving Ligand-Fixed Receptor    = -10.36 kcal/mol
DOCKED: USER        Moving Ligand-Moving Receptor   =  +1.34 kcal/mol
DOCKED: USER    (2) Final Total Internal Energy     =  -1.29 kcal/mol
DOCKED: USER    (3) Torsional Free Energy           =  +3.28 kcal/mol
DOCKED: USER    (4) Unbound System's Energy         =  -1.29 kcal/mol
DOCKED: USER
DOCKED: USER
DOCKED: REMARK SMILES CN1CCN(C(=O)c2cccc(C3=Nc4ccc(C#Cc5ccccc5)cc4N=C(O)C3)c2)CC1
DOCKED: REMARK SMILES IDX 15 1 16 2 17 3 18 4 27 5 28 6 14 7 13 8 12 9 8 10 9 11 33 12
DOCKED: REMARK SMILES IDX 10 13 11 14 6 15 2 16 3 17 35 18 4 19 34 20 5 21 1 22 7 23
DOCKED: REMARK SMILES IDX 32 24 29 26 30 27 31 29 19 31 20 32 21 33 22 34 26 35 23 36
DOCKED: REMARK SMILES IDX 25 37 24 38
DOCKED: REMARK H PARENT 31 30
DOCKED: REMARK Flexibility Score:  140.900
DOCKED: USER                              x       y       z     vdW  Elec       q    Type
DOCKED: USER                           _______ _______ _______ _____ _____    ______ ____
DOCKED: ROOT
DOCKED: ATOM      1  C   UNL     1     140.866  73.737 220.069 -0.12 -0.02    +0.089 A  
DOCKED: ATOM      2  C   UNL     1     139.727  73.886 220.874 -0.17 -0.01    +0.032 A  
DOCKED: ATOM      3  C   UNL     1     139.586  73.160 222.057 -0.26 -0.00    +0.019 A  
DOCKED: ATOM      4  C   UNL     1     140.599  72.293 222.469 -0.32 -0.00    +0.027 A  
DOCKED: ATOM      5  C   UNL     1     141.754  72.149 221.692 -0.12 -0.00    +0.048 A  
DOCKED: ATOM      6  C   UNL     1     141.897  72.848 220.486 -0.18 -0.01    +0.094 A  
DOCKED: ENDROOT
DOCKED: BRANCH   1   7
DOCKED: ATOM      7  N   UNL     1     140.974  74.586 218.915 -0.02 +0.07    -0.250 NA 
DOCKED: BRANCH   7   8
DOCKED: ATOM      8  C   UNL     1     142.051  75.153 218.455 -0.12 -0.02    +0.058 C  
DOCKED: BRANCH   8   9
DOCKED: ATOM      9  C   UNL     1     142.105  76.634 218.381 -0.21 +0.00    -0.003 A  
DOCKED: ATOM     10  C   UNL     1     141.516  78.830 219.276 -0.23 -0.02    +0.040 A  
DOCKED: ATOM     11  C   UNL     1     142.194  79.438 218.208 -0.30 -0.01    +0.014 A  
DOCKED: ATOM     12  C   UNL     1     141.456  77.429 219.343 -0.21 -0.01    +0.023 A  
DOCKED: ATOM     13  C   UNL     1     142.824  78.656 217.237 -0.19 -0.00    +0.002 A  
DOCKED: ATOM     14  C   UNL     1     142.783  77.263 217.321 -0.27 -0.01    +0.010 A  
DOCKED: BRANCH  10  15
DOCKED: ATOM     15  C   UNL     1     140.839  79.663 220.296 -0.14 -0.10    +0.253 C  
DOCKED: ATOM     16  N   UNL     1     141.354  80.052 224.177 -0.15 +0.05    -0.303 NA 
DOCKED: ATOM     17  C   UNL     1     141.678  78.650 223.838 -0.49 -0.03    +0.105 C  
DOCKED: ATOM     18  C   UNL     1     140.036  80.496 223.652 -0.35 -0.01    +0.105 C  
DOCKED: ATOM     19  C   UNL     1     141.715  78.423 222.316 -0.27 -0.07    +0.135 C  
DOCKED: ATOM     20  C   UNL     1     139.530  79.670 222.454 -0.24 -0.03    +0.135 C  
DOCKED: ATOM     21  N   UNL     1     140.659  79.198 221.649 -0.09 +0.11    -0.336 N  
DOCKED: ATOM     22  C   UNL     1     142.438  80.973 223.790 -0.57 -0.02    +0.105 C  
DOCKED: ATOM     23  O   UNL     1     140.430  80.812 219.974 -0.09 +0.08    -0.269 OA 
DOCKED: ENDBRANCH  10  15
DOCKED: ENDBRANCH   8   9
DOCKED: BRANCH   8  24
DOCKED: ATOM     24  C   UNL     1     143.203  74.316 217.977 -0.10 -0.05    +0.153 CG0
DOCKED: ATOM     25  G   UNL     1     143.803  73.603 219.141 +0.00 +0.00    +0.000 G0 
DOCKED: ENDBRANCH   8  24
DOCKED: ENDBRANCH   7   8
DOCKED: ENDBRANCH   1   7
DOCKED: BRANCH   6  26
DOCKED: ATOM     26  N   UNL     1     143.138  72.689 219.774 -0.11 +0.03    -0.216 NA 
DOCKED: BRANCH  26  27
DOCKED: ATOM     27  C   UNL     1     143.796  73.615 219.143 -0.17 -0.04    +0.192 CG0
DOCKED: ATOM     28  G   UNL     1     143.209  74.324 217.969 +0.00 +0.00    +0.000 G0 
DOCKED: BRANCH  27  29
DOCKED: ATOM     29  O   UNL     1     145.082  73.946 219.556 -0.11 +0.11    -0.496 OA 
DOCKED: ATOM     30  H   UNL     1     145.702  74.484 218.961 -0.33 -0.19    +0.294 HD 
DOCKED: ENDBRANCH  27  29
DOCKED: ENDBRANCH  26  27
DOCKED: ENDBRANCH   6  26
DOCKED: BRANCH   4  31
DOCKED: ATOM     31  C   UNL     1     140.465  71.562 223.702 -0.34 +0.01    -0.062 C  
DOCKED: BRANCH  31  32
DOCKED: ATOM     32  C   UNL     1     140.350  70.951 224.736 -0.45 +0.01    -0.062 C  
DOCKED: BRANCH  32  33
DOCKED: ATOM     33  C   UNL     1     140.215  70.219 225.966 -0.50 -0.00    +0.025 A  
DOCKED: ATOM     34  C   UNL     1     140.040  68.828 225.941 -0.51 -0.00    +0.017 A  
DOCKED: ATOM     35  C   UNL     1     140.254  70.894 227.195 -0.60 -0.00    +0.017 A  
DOCKED: ATOM     36  C   UNL     1     139.906  68.117 227.139 -0.65 -0.00    +0.001 A  
DOCKED: ATOM     37  C   UNL     1     140.121  70.179 228.391 -0.55 -0.00    +0.001 A  
DOCKED: ATOM     38  C   UNL     1     139.946  68.792 228.362 -0.63 -0.00    +0.000 A  
DOCKED: ENDBRANCH  32  33
DOCKED: ENDBRANCH  31  32
DOCKED: ENDBRANCH   4  31
DOCKED: TORSDOF 6
DOCKED: TER
DOCKED: ENDMDL
________________________________________________________________________________


    FINAL DOCKED STATE:
    ________________________


Run:   18 / 20
Time taken for this run:   0.048s

DOCKED: MODEL        18
DOCKED: USER    Run = 18
DOCKED: USER
DOCKED: USER    Estimated Free Energy of Binding    =  -5.71 kcal/mol  [=(1)+(2)+(3)-(4)]
DOCKED: USER
DOCKED: USER    (1) Final Intermolecular Energy     =  -8.99 kcal/mol
DOCKED: USER        vdW + Hbond + desolv Energy     =  -9.27 kcal/mol
DOCKED: USER        Electrostatic Energy            =  -0.15 kcal/mol
DOCKED: USER        Moving Ligand-Fixed Receptor    =  -9.41 kcal/mol
DOCKED: USER        Moving Ligand-Moving Receptor   =  +0.43 kcal/mol
DOCKED: USER    (2) Final Total Internal Energy     =  -1.18 kcal/mol
DOCKED: USER    (3) Torsional Free Energy           =  +3.28 kcal/mol
DOCKED: USER    (4) Unbound System's Energy         =  -1.18 kcal/mol
DOCKED: USER
DOCKED: USER
DOCKED: REMARK SMILES CN1CCN(C(=O)c2cccc(C3=Nc4ccc(C#Cc5ccccc5)cc4N=C(O)C3)c2)CC1
DOCKED: REMARK SMILES IDX 15 1 16 2 17 3 18 4 27 5 28 6 14 7 13 8 12 9 8 10 9 11 33 12
DOCKED: REMARK SMILES IDX 10 13 11 14 6 15 2 16 3 17 35 18 4 19 34 20 5 21 1 22 7 23
DOCKED: REMARK SMILES IDX 32 24 29 26 30 27 31 29 19 31 20 32 21 33 22 34 26 35 23 36
DOCKED: REMARK SMILES IDX 25 37 24 38
DOCKED: REMARK H PARENT 31 30
DOCKED: REMARK Flexibility Score:  140.900
DOCKED: USER                              x       y       z     vdW  Elec       q    Type
DOCKED: USER                           _______ _______ _______ _____ _____    ______ ____
DOCKED: ROOT
DOCKED: ATOM      1  C   UNL     1     140.372  79.087 221.885 -0.25 -0.03    +0.089 A  
DOCKED: ATOM      2  C   UNL     1     140.653  80.409 222.254 -0.34 -0.01    +0.032 A  
DOCKED: ATOM      3  C   UNL     1     139.871  81.071 223.201 -0.34 -0.00    +0.019 A  
DOCKED: ATOM      4  C   UNL     1     138.810  80.405 223.818 -0.40 -0.00    +0.027 A  
DOCKED: ATOM      5  C   UNL     1     138.529  79.076 223.480 -0.24 -0.01    +0.048 A  
DOCKED: ATOM      6  C   UNL     1     139.287  78.409 222.508 -0.26 -0.02    +0.094 A  
DOCKED: ENDROOT
DOCKED: BRANCH   1   7
DOCKED: ATOM      7  N   UNL     1     141.279  78.450 220.969 -0.16 +0.12    -0.250 NA 
DOCKED: BRANCH   7   8
DOCKED: ATOM      8  C   UNL     1     141.599  77.190 220.929 -0.20 -0.03    +0.058 C  
DOCKED: BRANCH   8   9
DOCKED: ATOM      9  C   UNL     1     142.246  76.653 219.707 -0.32 +0.00    -0.003 A  
DOCKED: ATOM     10  C   UNL     1     143.563  74.930 218.580 -0.23 -0.02    +0.040 A  
DOCKED: ATOM     11  C   UNL     1     143.488  75.664 217.386 -0.21 -0.01    +0.014 A  
DOCKED: ATOM     12  C   UNL     1     142.960  75.441 219.740 -0.35 -0.01    +0.023 A  
DOCKED: ATOM     13  C   UNL     1     142.799  76.879 217.350 -0.25 -0.00    +0.002 A  
DOCKED: ATOM     14  C   UNL     1     142.179  77.371 218.500 -0.26 -0.01    +0.010 A  
DOCKED: BRANCH  10  15
DOCKED: ATOM     15  C   UNL     1     144.306  73.650 218.619 -0.12 -0.04    +0.253 C  
DOCKED: ATOM     16  N   UNL     1     143.136  69.907 218.941 -0.04 +0.03    -0.303 NA 
DOCKED: ATOM     17  C   UNL     1     142.175  70.727 219.711 -0.11 -0.01    +0.105 C  
DOCKED: ATOM     18  C   UNL     1     144.555  70.174 219.295 -0.21 +0.02    +0.105 C  
DOCKED: ATOM     19  C   UNL     1     142.405  72.232 219.492 -0.10 -0.02    +0.135 C  
DOCKED: ATOM     20  C   UNL     1     144.789  71.554 219.939 -0.17 +0.01    +0.135 C  
DOCKED: ATOM     21  N   UNL     1     143.841  72.533 219.403 -0.06 +0.03    -0.336 N  
DOCKED: ATOM     22  C   UNL     1     142.904  70.011 217.489 -0.03 -0.01    +0.105 C  
DOCKED: ATOM     23  O   UNL     1     145.358  73.532 217.933 -0.27 -0.02    -0.269 OA 
DOCKED: ENDBRANCH  10  15
DOCKED: ENDBRANCH   8   9
DOCKED: BRANCH   8  24
DOCKED: ATOM     24  C   UNL     1     141.286  76.291 222.092 +0.10 -0.06    +0.153 CG0
DOCKED: ATOM     25  G   UNL     1     139.815  76.046 222.135 +0.00 +0.00    +0.000 G0 
DOCKED: ENDBRANCH   8  24
DOCKED: ENDBRANCH   7   8
DOCKED: ENDBRANCH   1   7
DOCKED: BRANCH   6  26
DOCKED: ATOM     26  N   UNL     1     138.971  77.026 222.259 -0.20 +0.04    -0.216 NA 
DOCKED: BRANCH  26  27
DOCKED: ATOM     27  C   UNL     1     139.815  76.047 222.136 -0.26 -0.04    +0.192 CG0
DOCKED: ATOM     28  G   UNL     1     141.286  76.288 222.085 +0.00 +0.00    +0.000 G0 
DOCKED: BRANCH  27  29
DOCKED: ATOM     29  O   UNL     1     139.342  74.742 222.034 -0.43 +0.10    -0.496 OA 
DOCKED: ATOM     30  H   UNL     1     138.792  74.324 222.777 -0.50 -0.13    +0.294 HD 
DOCKED: ENDBRANCH  27  29
DOCKED: ENDBRANCH  26  27
DOCKED: ENDBRANCH   6  26
DOCKED: BRANCH   4  31
DOCKED: ATOM     31  C   UNL     1     138.018  81.078 224.813 -0.32 +0.01    -0.062 C  
DOCKED: BRANCH  31  32
DOCKED: ATOM     32  C   UNL     1     137.356  81.643 225.648 -0.38 +0.01    -0.062 C  
DOCKED: BRANCH  32  33
DOCKED: ATOM     33  C   UNL     1     136.572  82.317 226.648 -0.45 -0.00    +0.025 A  
DOCKED: ATOM     34  C   UNL     1     136.245  83.672 226.490 -0.32 -0.00    +0.017 A  
DOCKED: ATOM     35  C   UNL     1     136.133  81.623 227.785 -0.49 -0.01    +0.017 A  
DOCKED: ATOM     36  C   UNL     1     135.484  84.326 227.464 -0.30 +0.00    +0.001 A  
DOCKED: ATOM     37  C   UNL     1     135.371  82.281 228.756 -0.45 -0.00    +0.001 A  
DOCKED: ATOM     38  C   UNL     1     135.048  83.632 228.596 -0.32 +0.00    +0.000 A  
DOCKED: ENDBRANCH  32  33
DOCKED: ENDBRANCH  31  32
DOCKED: ENDBRANCH   4  31
DOCKED: TORSDOF 6
DOCKED: TER
DOCKED: ENDMDL
________________________________________________________________________________


    FINAL DOCKED STATE:
    ________________________


Run:   19 / 20
Time taken for this run:   0.048s

DOCKED: MODEL        19
DOCKED: USER    Run = 19
DOCKED: USER
DOCKED: USER    Estimated Free Energy of Binding    =  -4.90 kcal/mol  [=(1)+(2)+(3)-(4)]
DOCKED: USER
DOCKED: USER    (1) Final Intermolecular Energy     =  -8.18 kcal/mol
DOCKED: USER        vdW + Hbond + desolv Energy     =  -9.06 kcal/mol
DOCKED: USER        Electrostatic Energy            =  -0.03 kcal/mol
DOCKED: USER        Moving Ligand-Fixed Receptor    =  -9.10 kcal/mol
DOCKED: USER        Moving Ligand-Moving Receptor   =  +0.92 kcal/mol
DOCKED: USER    (2) Final Total Internal Energy     =  -1.19 kcal/mol
DOCKED: USER    (3) Torsional Free Energy           =  +3.28 kcal/mol
DOCKED: USER    (4) Unbound System's Energy         =  -1.19 kcal/mol
DOCKED: USER
DOCKED: USER
DOCKED: REMARK SMILES CN1CCN(C(=O)c2cccc(C3=Nc4ccc(C#Cc5ccccc5)cc4N=C(O)C3)c2)CC1
DOCKED: REMARK SMILES IDX 15 1 16 2 17 3 18 4 27 5 28 6 14 7 13 8 12 9 8 10 9 11 33 12
DOCKED: REMARK SMILES IDX 10 13 11 14 6 15 2 16 3 17 35 18 4 19 34 20 5 21 1 22 7 23
DOCKED: REMARK SMILES IDX 32 24 29 26 30 27 31 29 19 31 20 32 21 33 22 34 26 35 23 36
DOCKED: REMARK SMILES IDX 25 37 24 38
DOCKED: REMARK H PARENT 31 30
DOCKED: REMARK Flexibility Score:  140.900
DOCKED: USER                              x       y       z     vdW  Elec       q    Type
DOCKED: USER                           _______ _______ _______ _____ _____    ______ ____
DOCKED: ROOT
DOCKED: ATOM      1  C   UNL     1     140.797  73.856 220.066 -0.12 -0.02    +0.089 A  
DOCKED: ATOM      2  C   UNL     1     141.923  73.257 220.648 -0.24 -0.01    +0.032 A  
DOCKED: ATOM      3  C   UNL     1     141.809  72.500 221.814 +0.09 -0.00    +0.019 A  
DOCKED: ATOM      4  C   UNL     1     140.557  72.306 222.401 -0.32 -0.00    +0.027 A  
DOCKED: ATOM      5  C   UNL     1     139.419  72.876 221.821 -0.23 -0.01    +0.048 A  
DOCKED: ATOM      6  C   UNL     1     139.521  73.664 220.666 -0.12 -0.02    +0.094 A  
DOCKED: ENDROOT
DOCKED: BRANCH   1   7
DOCKED: ATOM      7  N   UNL     1     140.986  74.544 218.817 -0.01 +0.07    -0.250 NA 
DOCKED: BRANCH   7   8
DOCKED: ATOM      8  C   UNL     1     140.324  75.574 218.379 -0.04 -0.02    +0.058 C  
DOCKED: BRANCH   8   9
DOCKED: ATOM      9  C   UNL     1     141.045  76.853 218.169 -0.10 +0.00    -0.003 A  
DOCKED: ATOM     10  C   UNL     1     141.627  79.110 218.903 -0.24 -0.02    +0.040 A  
DOCKED: ATOM     11  C   UNL     1     142.396  79.281 217.741 -0.30 -0.01    +0.014 A  
DOCKED: ATOM     12  C   UNL     1     140.937  77.904 219.099 -0.15 -0.01    +0.023 A  
DOCKED: ATOM     13  C   UNL     1     142.492  78.251 216.803 -0.23 -0.00    +0.002 A  
DOCKED: ATOM     14  C   UNL     1     141.823  77.043 217.014 -0.13 -0.01    +0.010 A  
DOCKED: BRANCH  10  15
DOCKED: ATOM     15  C   UNL     1     141.517  80.209 219.889 -0.19 -0.12    +0.253 C  
DOCKED: ATOM     16  N   UNL     1     142.218  80.391 223.757 -0.34 +0.06    -0.303 NA 
DOCKED: ATOM     17  C   UNL     1     141.734  79.023 223.470 -0.54 -0.03    +0.105 C  
DOCKED: ATOM     18  C   UNL     1     141.337  81.454 223.209 -0.39 -0.01    +0.105 C  
DOCKED: ATOM     19  C   UNL     1     141.622  78.762 221.958 -0.36 -0.07    +0.135 C  
DOCKED: ATOM     20  C   UNL     1     140.449  80.989 222.039 -0.27 -0.03    +0.135 C  
DOCKED: ATOM     21  N   UNL     1     141.136  79.959 221.257 -0.12 +0.12    -0.336 N  
DOCKED: ATOM     22  C   UNL     1     143.621  80.573 223.342 -0.32 -0.03    +0.105 C  
DOCKED: ATOM     23  O   UNL     1     141.784  81.387 219.525 -0.21 +0.11    -0.269 OA 
DOCKED: ENDBRANCH  10  15
DOCKED: ENDBRANCH   8   9
DOCKED: BRANCH   8  24
DOCKED: ATOM     24  C   UNL     1     138.846  75.473 218.126 -0.01 -0.04    +0.153 CG0
DOCKED: ATOM     25  G   UNL     1     138.142  75.264 219.424 +0.00 +0.00    +0.000 G0 
DOCKED: ENDBRANCH   8  24
DOCKED: ENDBRANCH   7   8
DOCKED: ENDBRANCH   1   7
DOCKED: BRANCH   6  26
DOCKED: ATOM     26  N   UNL     1     138.296  74.166 220.100 -0.03 +0.04    -0.216 NA 
DOCKED: BRANCH  26  27
DOCKED: ATOM     27  C   UNL     1     138.147  75.267 219.425 -0.02 -0.04    +0.192 CG0
DOCKED: ATOM     28  G   UNL     1     138.850  75.485 218.128 +0.00 +0.00    +0.000 G0 
DOCKED: BRANCH  27  29
DOCKED: ATOM     29  O   UNL     1     137.327  76.273 219.926 +0.01 +0.10    -0.496 OA 
DOCKED: ATOM     30  H   UNL     1     137.475  77.243 219.673 +0.02 -0.06    +0.294 HD 
DOCKED: ENDBRANCH  27  29
DOCKED: ENDBRANCH  26  27
DOCKED: ENDBRANCH   6  26
DOCKED: BRANCH   4  31
DOCKED: ATOM     31  C   UNL     1     140.436  71.505 223.591 -0.34 +0.01    -0.062 C  
DOCKED: BRANCH  31  32
DOCKED: ATOM     32  C   UNL     1     140.331  70.835 224.588 -0.43 +0.01    -0.062 C  
DOCKED: BRANCH  32  33
DOCKED: ATOM     33  C   UNL     1     140.200  70.035 225.777 -0.48 -0.00    +0.025 A  
DOCKED: ATOM     34  C   UNL     1     140.071  70.653 227.029 -0.54 -0.00    +0.017 A  
DOCKED: ATOM     35  C   UNL     1     140.203  68.636 225.687 -0.47 -0.00    +0.017 A  
DOCKED: ATOM     36  C   UNL     1     139.947  69.874 228.184 -0.62 -0.00    +0.001 A  
DOCKED: ATOM     37  C   UNL     1     140.077  67.860 226.845 -0.67 -0.00    +0.001 A  
DOCKED: ATOM     38  C   UNL     1     139.950  68.479 228.092 -0.63 -0.00    +0.000 A  
DOCKED: ENDBRANCH  32  33
DOCKED: ENDBRANCH  31  32
DOCKED: ENDBRANCH   4  31
DOCKED: TORSDOF 6
DOCKED: TER
DOCKED: ENDMDL
________________________________________________________________________________


    FINAL DOCKED STATE:
    ________________________


Run:   20 / 20
Time taken for this run:   0.048s

DOCKED: MODEL        20
DOCKED: USER    Run = 20
DOCKED: USER
DOCKED: USER    Estimated Free Energy of Binding    =  -4.77 kcal/mol  [=(1)+(2)+(3)-(4)]
DOCKED: USER
DOCKED: USER    (1) Final Intermolecular Energy     =  -8.06 kcal/mol
DOCKED: USER        vdW + Hbond + desolv Energy     =  -8.65 kcal/mol
DOCKED: USER        Electrostatic Energy            =  -0.12 kcal/mol
DOCKED: USER        Moving Ligand-Fixed Receptor    =  -8.77 kcal/mol
DOCKED: USER        Moving Ligand-Moving Receptor   =  +0.72 kcal/mol
DOCKED: USER    (2) Final Total Internal Energy     =  -1.15 kcal/mol
DOCKED: USER    (3) Torsional Free Energy           =  +3.28 kcal/mol
DOCKED: USER    (4) Unbound System's Energy         =  -1.15 kcal/mol
DOCKED: USER
DOCKED: USER
DOCKED: REMARK SMILES CN1CCN(C(=O)c2cccc(C3=Nc4ccc(C#Cc5ccccc5)cc4N=C(O)C3)c2)CC1
DOCKED: REMARK SMILES IDX 15 1 16 2 17 3 18 4 27 5 28 6 14 7 13 8 12 9 8 10 9 11 33 12
DOCKED: REMARK SMILES IDX 10 13 11 14 6 15 2 16 3 17 35 18 4 19 34 20 5 21 1 22 7 23
DOCKED: REMARK SMILES IDX 32 24 29 26 30 27 31 29 19 31 20 32 21 33 22 34 26 35 23 36
DOCKED: REMARK SMILES IDX 25 37 24 38
DOCKED: REMARK H PARENT 31 30
DOCKED: REMARK Flexibility Score:  140.900
DOCKED: USER                              x       y       z     vdW  Elec       q    Type
DOCKED: USER                           _______ _______ _______ _____ _____    ______ ____
DOCKED: ROOT
DOCKED: ATOM      1  C   UNL     1     140.898  78.393 221.996 -0.33 -0.03    +0.089 A  
DOCKED: ATOM      2  C   UNL     1     141.460  79.223 222.975 -0.52 -0.01    +0.032 A  
DOCKED: ATOM      3  C   UNL     1     140.651  79.972 223.831 -0.46 -0.00    +0.019 A  
DOCKED: ATOM      4  C   UNL     1     139.261  79.876 223.738 -0.41 -0.00    +0.027 A  
DOCKED: ATOM      5  C   UNL     1     138.682  79.034 222.783 -0.27 -0.01    +0.048 A  
DOCKED: ATOM      6  C   UNL     1     139.481  78.299 221.896 -0.22 -0.02    +0.094 A  
DOCKED: ENDROOT
DOCKED: BRANCH   1   7
DOCKED: ATOM      7  N   UNL     1     141.799  77.589 221.216 -0.12 +0.16    -0.250 NA 
DOCKED: BRANCH   7   8
DOCKED: ATOM      8  C   UNL     1     141.560  76.420 220.697 -0.24 -0.03    +0.058 C  
DOCKED: BRANCH   8   9
DOCKED: ATOM      9  C   UNL     1     142.415  75.942 219.583 -0.30 +0.00    -0.003 A  
DOCKED: ATOM     10  C   UNL     1     143.986  74.316 218.655 -0.21 -0.01    +0.040 A  
DOCKED: ATOM     11  C   UNL     1     144.051  75.067 217.471 -0.14 -0.01    +0.014 A  
DOCKED: ATOM     12  C   UNL     1     143.184  74.772 219.714 -0.33 -0.01    +0.023 A  
DOCKED: ATOM     13  C   UNL     1     143.306  76.241 217.341 -0.25 -0.00    +0.002 A  
DOCKED: ATOM     14  C   UNL     1     142.492  76.678 218.387 -0.26 -0.01    +0.010 A  
DOCKED: BRANCH  10  15
DOCKED: ATOM     15  C   UNL     1     144.787  73.079 218.795 -0.16 +0.01    +0.253 C  
DOCKED: ATOM     16  N   UNL     1     144.208  69.385 217.569 -0.01 +0.02    -0.303 NA 
DOCKED: ATOM     17  C   UNL     1     142.876  69.956 217.862 -0.04 -0.01    +0.105 C  
DOCKED: ATOM     18  C   UNL     1     145.178  69.553 218.683 -0.25 +0.02    +0.105 C  
DOCKED: ATOM     19  C   UNL     1     142.952  71.465 218.153 -0.03 -0.01    +0.135 C  
DOCKED: ATOM     20  C   UNL     1     144.831  70.703 219.647 -0.10 +0.02    +0.135 C  
DOCKED: ATOM     21  N   UNL     1     144.160  71.787 218.924 -0.05 -0.02    -0.336 N  
DOCKED: ATOM     22  C   UNL     1     144.748  69.883 216.291 -0.04 -0.00    +0.105 C  
DOCKED: ATOM     23  O   UNL     1     146.045  73.160 218.780 -0.78 -0.19    -0.269 OA 
DOCKED: ENDBRANCH  10  15
DOCKED: ENDBRANCH   8   9
DOCKED: BRANCH   8  24
DOCKED: ATOM     24  C   UNL     1     140.415  75.588 221.200 -0.25 -0.04    +0.153 CG0
DOCKED: ATOM     25  G   UNL     1     139.134  76.185 220.725 +0.00 +0.00    +0.000 G0 
DOCKED: ENDBRANCH   8  24
DOCKED: ENDBRANCH   7   8
DOCKED: ENDBRANCH   1   7
DOCKED: BRANCH   6  26
DOCKED: ATOM     26  N   UNL     1     138.809  77.413 220.982 -0.06 +0.05    -0.216 NA 
DOCKED: BRANCH  26  27
DOCKED: ATOM     27  C   UNL     1     139.128  76.181 220.719 -0.10 -0.05    +0.192 CG0
DOCKED: ATOM     28  G   UNL     1     140.411  75.590 221.197 +0.00 +0.00    +0.000 G0 
DOCKED: BRANCH  27  29
DOCKED: ATOM     29  O   UNL     1     138.265  75.396 219.963 +0.01 +0.11    -0.496 OA 
DOCKED: ATOM     30  H   UNL     1     137.273  75.355 220.172 +0.04 -0.06    +0.294 HD 
DOCKED: ENDBRANCH  27  29
DOCKED: ENDBRANCH  26  27
DOCKED: ENDBRANCH   6  26
DOCKED: BRANCH   4  31
DOCKED: ATOM     31  C   UNL     1     138.426  80.629 224.637 -0.25 +0.01    -0.062 C  
DOCKED: BRANCH  31  32
DOCKED: ATOM     32  C   UNL     1     137.724  81.260 225.387 -0.30 +0.01    -0.062 C  
DOCKED: BRANCH  32  33
DOCKED: ATOM     33  C   UNL     1     136.881  82.009 226.281 -0.45 -0.00    +0.025 A  
DOCKED: ATOM     34  C   UNL     1     136.600  83.357 226.018 -0.29 -0.00    +0.017 A  
DOCKED: ATOM     35  C   UNL     1     136.340  81.394 227.420 -0.42 -0.00    +0.017 A  
DOCKED: ATOM     36  C   UNL     1     135.783  84.085 226.889 -0.30 -0.00    +0.001 A  
DOCKED: ATOM     37  C   UNL     1     135.522  82.125 228.288 -0.45 -0.00    +0.001 A  
DOCKED: ATOM     38  C   UNL     1     135.245  83.470 228.023 -0.31 -0.00    +0.000 A  
DOCKED: ENDBRANCH  32  33
DOCKED: ENDBRANCH  31  32
DOCKED: ENDBRANCH   4  31
DOCKED: TORSDOF 6
DOCKED: TER
DOCKED: ENDMDL
________________________________________________________________________________


    CLUSTERING HISTOGRAM
    ____________________


________________________________________________________________________________
     |           |     |           |     |
Clus | Lowest    | Run | Mean      | Num | Histogram
-ter | Binding   |     | Binding   | in  |
Rank | Energy    |     | Energy    | Clus|    5    10   15   20   25   30   35
_____|___________|_____|___________|_____|____:____|____:____|____:____|____:___
   1 |     -6.58 |   5 |     -6.05 |   8 |########
   2 |     -5.71 |  18 |     -5.37 |   3 |###
   3 |     -5.66 |   8 |     -5.66 |   1 |#
   4 |     -5.59 |  13 |     -5.50 |   2 |##
   5 |     -5.35 |   7 |     -5.35 |   1 |#
   6 |     -5.23 |   2 |     -5.23 |   1 |#
   7 |     -4.90 |  19 |     -4.90 |   1 |#
   8 |     -4.65 |  12 |     -4.65 |   1 |#
   9 |     -4.65 |  10 |     -4.65 |   1 |#
  10 |     -4.24 |  15 |     -4.24 |   1 |#
_____|___________|_____|___________|_____|______________________________________


    RMSD TABLE
    __________


_______________________________________________________________________
     |      |      |           |         |                 |
Rank | Sub- | Run  | Binding   | Cluster | Reference       | Grep
     | Rank |      | Energy    | RMSD    | RMSD            | Pattern
_____|______|______|___________|_________|_________________|___________
   1      1      5       -6.58      0.00    268.65           RANKING
   1      2     11       -6.37      0.39    268.63           RANKING
   1      3      4       -6.35      0.30    268.63           RANKING
   1      4      3       -6.29      0.83    268.51           RANKING
   1      5     16       -6.11      0.55    268.54           RANKING
   1      6     14       -5.87      0.30    268.58           RANKING
   1      7     17       -5.74      0.16    268.66           RANKING
   1      8      6       -5.07      1.55    267.92           RANKING
   2      1     18       -5.71      0.00    269.01           RANKING
   2      2      9       -5.64      0.35    269.21           RANKING
   2      3     20       -4.77      1.21    268.58           RANKING
   3      1      8       -5.66      0.00    269.65           RANKING
   4      1     13       -5.59      0.00    268.05           RANKING
   4      2      1       -5.42      0.97    267.92           RANKING
   5      1      7       -5.35      0.00    268.14           RANKING
   6      1      2       -5.23      0.00    268.22           RANKING
   7      1     19       -4.90      0.00    268.13           RANKING
   8      1     12       -4.65      0.00    267.90           RANKING
   9      1     10       -4.65      0.00    268.29           RANKING
  10      1     15       -4.24      0.00    269.38           RANKING

Run time 1.005 sec
Idle time 0.000 sec
