AutoDock-GPU version: v1.6

**********************************************************
**    AutoDock-GPU AUTODOCKTOOLS-COMPATIBLE DLG FILE    **
**********************************************************


    DOCKING PARAMETERS
    ________________________


Ligand file:                               /home/a/REINVENT4/ReinventStudies/scoringData/graph-dock/graph-DockGPU/node-autodockgpu/inputs/VHXSVHVNRGGTDL-UPLQUKELNA-M.pdbqt
Grid fld file:                             /home/a/REINVENT4/ReinventStudies/mols/Rad51/maps/rad51_receptor.maps.fld

Random seed:                               42
Number of runs:                            20
Number of energy evaluations:              2542121
Number of generations:                     42000
Size of population:                        150
Rate of crossover:                         80.000000%
Tournament selection probability limit:    60.000000%
Rate of mutation:                          2.000000%
Maximal allowed delta movement:            +/- 6.000000A
Maximal allowed delta angle:               +/- 90.000000

Rate of local search:                      100.000000%
Maximal number of local search iterations: 300
Rho lower bound:                           0.010000
Spread of local search delta movement:     2.000000A
Spread of local search delta angle:        74.999999
Limit of consecutive successes/failures:   4

Handle symmetry during clustering:         YES
RMSD tolerance:                            2.000000A

Program call in command line was:          /home/a/REINVENT4/ReinventStudies/adgpu-v1.6_linux_x64_cuda12_128wi --filelist batch.txt --heuristics 1 --nrun 20 --psize 150 --lsit 300 --seed 42 --heurmax 12000000 


    GRID PARAMETERS
    ________________________


Receptor name:                             rad51_receptor
Number of grid points (x, y, z):           53, 53, 53
Grid center (x, y, z):                     139.950000, 75.640000, 221.970000A
Grid size (x, y, z):                       19.500000, 19.500000, 19.500000A
Grid spacing:                              0.375000A


    LIGAND PARAMETERS
    ________________________


Ligand name:                               /home/a/REINVENT4/ReinventStudies/scoringData/graph-dock/graph-DockGPU/node-autodockgpu/inputs/VHXSVHVNRGGTDL-UPLQUKELNA-M
Number of atoms:                           27
Number of rotatable bonds:                 10
Number of atom types:                      6


    DUMMY DATA (only for ADT-compatibility)
    ________________________


DPF> outlev 1
DPF> ga_run 20
DPF> fld /home/a/REINVENT4/ReinventStudies/mols/Rad51/maps/rad51_receptor.maps.fld
DPF> move /home/a/REINVENT4/ReinventStudies/scoringData/graph-dock/graph-DockGPU/node-autodockgpu/inputs/VHXSVHVNRGGTDL-UPLQUKELNA-M.pdbqt


    COUNTER STATES
    ________________________


Number of energy evaluations performed:    761005
Number of generations used:                45


    INPUT LIGAND PDBQT FILE:
    ________________________


INPUT-LIGAND-PDBQT: REMARK SMILES O=C(CCCOc1ccc(Cl)cc1Cl)[N-]/N=C\c1cccc(C(F)(F)F)c1
INPUT-LIGAND-PDBQT: REMARK SMILES IDX 2 1 1 2 15 3 16 4 17 5 18 6 19 7 27 8 20 9 22 10 21 11 23 12
INPUT-LIGAND-PDBQT: REMARK SMILES IDX 24 13 25 14 26 15 3 16 4 17 5 18 6 19 7 20 8 21 13 22 9 23
INPUT-LIGAND-PDBQT: REMARK SMILES IDX 12 24 10 25 14 26 11 27
INPUT-LIGAND-PDBQT: REMARK H PARENT
INPUT-LIGAND-PDBQT: ROOT
INPUT-LIGAND-PDBQT: ATOM      1  C   UNL     1      -1.363   0.002  -3.829  1.00  0.00     0.068 C 
INPUT-LIGAND-PDBQT: ATOM      2  O   UNL     1      -1.341   0.802  -4.802  1.00  0.00    -0.319 OA
INPUT-LIGAND-PDBQT: ENDROOT
INPUT-LIGAND-PDBQT: BRANCH   1   3
INPUT-LIGAND-PDBQT: ATOM      3  N   UNL     1      -1.376   0.532  -2.502  1.00  0.00    -0.545 NA
INPUT-LIGAND-PDBQT: BRANCH   3   4
INPUT-LIGAND-PDBQT: ATOM      4  N   UNL     1      -1.546  -0.289  -1.377  1.00  0.00    -0.372 NA
INPUT-LIGAND-PDBQT: BRANCH   4   5
INPUT-LIGAND-PDBQT: ATOM      5  C   UNL     1      -1.473   0.152  -0.157  1.00  0.00     0.094 C 
INPUT-LIGAND-PDBQT: BRANCH   5   6
INPUT-LIGAND-PDBQT: ATOM      6  C   UNL     1      -1.180   1.561   0.192  1.00  0.00    -0.009 A 
INPUT-LIGAND-PDBQT: ATOM      7  C   UNL     1      -1.775   2.635  -0.492  1.00  0.00     0.009 A 
INPUT-LIGAND-PDBQT: ATOM      8  C   UNL     1      -0.338   1.827   1.283  1.00  0.00     0.022 A 
INPUT-LIGAND-PDBQT: ATOM      9  C   UNL     1      -1.499   3.951  -0.114  1.00  0.00     0.001 A 
INPUT-LIGAND-PDBQT: ATOM     10  C   UNL     1      -0.028   3.148   1.648  1.00  0.00     0.056 A 
INPUT-LIGAND-PDBQT: ATOM     11  C   UNL     1      -0.632   4.209   0.950  1.00  0.00     0.013 A 
INPUT-LIGAND-PDBQT: BRANCH  10  12
INPUT-LIGAND-PDBQT: ATOM     12  C   UNL     1       0.868   3.412   2.832  1.00  0.00     0.416 C 
INPUT-LIGAND-PDBQT: ATOM     13  F   UNL     1       0.129   3.300   3.995  1.00  0.00    -0.166 F 
INPUT-LIGAND-PDBQT: ATOM     14  F   UNL     1       1.903   2.492   2.863  1.00  0.00    -0.166 F 
INPUT-LIGAND-PDBQT: ATOM     15  F   UNL     1       1.418   4.681   2.768  1.00  0.00    -0.166 F 
INPUT-LIGAND-PDBQT: ENDBRANCH  10  12
INPUT-LIGAND-PDBQT: ENDBRANCH   5   6
INPUT-LIGAND-PDBQT: ENDBRANCH   4   5
INPUT-LIGAND-PDBQT: ENDBRANCH   3   4
INPUT-LIGAND-PDBQT: ENDBRANCH   1   3
INPUT-LIGAND-PDBQT: BRANCH   1  16
INPUT-LIGAND-PDBQT: ATOM     16  C   UNL     1      -1.441  -1.482  -4.076  1.00  0.00     0.060 C 
INPUT-LIGAND-PDBQT: BRANCH  16  17
INPUT-LIGAND-PDBQT: ATOM     17  C   UNL     1      -0.609  -1.937  -5.286  1.00  0.00     0.048 C 
INPUT-LIGAND-PDBQT: BRANCH  17  18
INPUT-LIGAND-PDBQT: ATOM     18  C   UNL     1       0.900  -1.707  -5.127  1.00  0.00     0.230 C 
INPUT-LIGAND-PDBQT: BRANCH  18  19
INPUT-LIGAND-PDBQT: ATOM     19  O   UNL     1       1.427  -2.480  -4.044  1.00  0.00    -0.492 OA
INPUT-LIGAND-PDBQT: BRANCH  19  20
INPUT-LIGAND-PDBQT: ATOM     20  C   UNL     1       1.640  -2.045  -2.723  1.00  0.00     0.137 A 
INPUT-LIGAND-PDBQT: ATOM     21  C   UNL     1       1.691  -0.683  -2.361  1.00  0.00     0.049 A 
INPUT-LIGAND-PDBQT: ATOM     22  C   UNL     1       1.834  -3.019  -1.729  1.00  0.00     0.084 A 
INPUT-LIGAND-PDBQT: ATOM     23  C   UNL     1       1.925  -0.312  -1.034  1.00  0.00     0.024 A 
INPUT-LIGAND-PDBQT: ATOM     24  C   UNL     1       2.068  -2.641  -0.402  1.00  0.00     0.045 A 
INPUT-LIGAND-PDBQT: ATOM     25  C   UNL     1       2.115  -1.290  -0.054  1.00  0.00     0.042 A 
INPUT-LIGAND-PDBQT: ATOM     26  Cl  UNL     1       1.777  -4.728  -2.135  1.00  0.00    -0.080 Cl
INPUT-LIGAND-PDBQT: ATOM     27  Cl  UNL     1       2.422  -0.821   1.607  1.00  0.00    -0.084 Cl
INPUT-LIGAND-PDBQT: ENDBRANCH  19  20
INPUT-LIGAND-PDBQT: ENDBRANCH  18  19
INPUT-LIGAND-PDBQT: ENDBRANCH  17  18
INPUT-LIGAND-PDBQT: ENDBRANCH  16  17
INPUT-LIGAND-PDBQT: ENDBRANCH   1  16
INPUT-LIGAND-PDBQT: TORSDOF 10


    FINAL DOCKED STATE:
    ________________________


Run:   1 / 20
Time taken for this run:   0.031s

DOCKED: MODEL        1
DOCKED: USER    Run = 1
DOCKED: USER
DOCKED: USER    Estimated Free Energy of Binding    =  -4.92 kcal/mol  [=(1)+(2)+(3)-(4)]
DOCKED: USER
DOCKED: USER    (1) Final Intermolecular Energy     =  -7.90 kcal/mol
DOCKED: USER        vdW + Hbond + desolv Energy     =  -7.94 kcal/mol
DOCKED: USER        Electrostatic Energy            =  +0.04 kcal/mol
DOCKED: USER        Moving Ligand-Fixed Receptor    =  -7.90 kcal/mol
DOCKED: USER        Moving Ligand-Moving Receptor   =  +0.00 kcal/mol
DOCKED: USER    (2) Final Total Internal Energy     =  -1.85 kcal/mol
DOCKED: USER    (3) Torsional Free Energy           =  +2.98 kcal/mol
DOCKED: USER    (4) Unbound System's Energy         =  -1.85 kcal/mol
DOCKED: USER
DOCKED: USER
DOCKED: REMARK SMILES O=C(CCCOc1ccc(Cl)cc1Cl)[N-]/N=C\c1cccc(C(F)(F)F)c1
DOCKED: REMARK SMILES IDX 2 1 1 2 15 3 16 4 17 5 18 6 19 7 27 8 20 9 22 10 21 11 23 12
DOCKED: REMARK SMILES IDX 24 13 25 14 26 15 3 16 4 17 5 18 6 19 7 20 8 21 13 22 9 23
DOCKED: REMARK SMILES IDX 12 24 10 25 14 26 11 27
DOCKED: REMARK H PARENT
DOCKED: USER                              x       y       z     vdW  Elec       q    Type
DOCKED: USER                           _______ _______ _______ _____ _____    ______ ____
DOCKED: ROOT
DOCKED: ATOM      1  C   UNL     1     139.971  74.720 221.621 -0.28 -0.01    +0.068 C  
DOCKED: ATOM      2  O   UNL     1     140.137  74.307 220.442 -0.07 +0.07    -0.319 OA 
DOCKED: ENDROOT
DOCKED: BRANCH   1   3
DOCKED: ATOM      3  N   UNL     1     139.873  73.764 222.678 -0.42 +0.01    -0.545 NA 
DOCKED: BRANCH   3   4
DOCKED: ATOM      4  N   UNL     1     140.705  72.635 222.737 -0.43 +0.01    -0.372 NA 
DOCKED: BRANCH   4   5
DOCKED: ATOM      5  C   UNL     1     140.256  71.430 222.922 -0.29 -0.01    +0.094 C  
DOCKED: BRANCH   5   6
DOCKED: ATOM      6  C   UNL     1     140.004  70.843 224.257 -0.42 +0.00    -0.009 A  
DOCKED: ATOM      7  C   UNL     1     139.309  69.631 224.417 -0.34 -0.00    +0.009 A  
DOCKED: ATOM      8  C   UNL     1     140.537  71.480 225.389 -0.54 -0.00    +0.022 A  
DOCKED: ATOM      9  C   UNL     1     139.118  69.091 225.691 -0.45 -0.00    +0.001 A  
DOCKED: ATOM     10  C   UNL     1     140.319  70.962 226.677 -0.57 -0.01    +0.056 A  
DOCKED: ATOM     11  C   UNL     1     139.620  69.750 226.816 -0.50 -0.00    +0.013 A  
DOCKED: BRANCH  10  12
DOCKED: ATOM     12  C   UNL     1     140.911  71.655 227.878 -0.40 -0.09    +0.416 C  
DOCKED: ATOM     13  F   UNL     1     141.602  70.732 228.641 -0.14 +0.03    -0.166 F  
DOCKED: ATOM     14  F   UNL     1     141.784  72.651 227.473 -0.34 +0.03    -0.166 F  
DOCKED: ATOM     15  F   UNL     1     139.924  72.234 228.656 -0.29 +0.06    -0.166 F  
DOCKED: ENDBRANCH  10  12
DOCKED: ENDBRANCH   5   6
DOCKED: ENDBRANCH   4   5
DOCKED: ENDBRANCH   3   4
DOCKED: ENDBRANCH   1   3
DOCKED: BRANCH   1  16
DOCKED: ATOM     16  C   UNL     1     139.943  76.200 221.903 -0.33 -0.01    +0.060 C  
DOCKED: BRANCH  16  17
DOCKED: ATOM     17  C   UNL     1     138.530  76.733 222.188 -0.27 -0.01    +0.048 C  
DOCKED: BRANCH  17  18
DOCKED: ATOM     18  C   UNL     1     137.415  75.963 221.467 -0.11 -0.05    +0.230 C  
DOCKED: BRANCH  18  19
DOCKED: ATOM     19  O   UNL     1     136.439  75.482 222.395 -0.06 +0.11    -0.492 OA 
DOCKED: BRANCH  19  20
DOCKED: ATOM     20  C   UNL     1     136.317  74.169 222.886 -0.09 -0.04    +0.137 A  
DOCKED: ATOM     21  C   UNL     1     136.868  73.049 222.230 -0.13 -0.01    +0.049 A  
DOCKED: ATOM     22  C   UNL     1     135.591  73.970 224.072 -0.20 -0.02    +0.084 A  
DOCKED: ATOM     23  C   UNL     1     136.698  71.765 222.756 -0.15 -0.01    +0.024 A  
DOCKED: ATOM     24  C   UNL     1     135.424  72.683 224.594 -0.19 -0.01    +0.045 A  
DOCKED: ATOM     25  C   UNL     1     135.975  71.581 223.938 -0.19 -0.01    +0.042 A  
DOCKED: ATOM     26  Cl  UNL     1     134.888  75.337 224.924 -0.45 +0.01    -0.080 Cl 
DOCKED: ATOM     27  Cl  UNL     1     135.751  69.968 224.588 -0.28 +0.01    -0.084 Cl 
DOCKED: ENDBRANCH  19  20
DOCKED: ENDBRANCH  18  19
DOCKED: ENDBRANCH  17  18
DOCKED: ENDBRANCH  16  17
DOCKED: ENDBRANCH   1  16
DOCKED: TORSDOF 10
DOCKED: TER
DOCKED: ENDMDL
________________________________________________________________________________


    FINAL DOCKED STATE:
    ________________________


Run:   2 / 20
Time taken for this run:   0.031s

DOCKED: MODEL        2
DOCKED: USER    Run = 2
DOCKED: USER
DOCKED: USER    Estimated Free Energy of Binding    =  -6.55 kcal/mol  [=(1)+(2)+(3)-(4)]
DOCKED: USER
DOCKED: USER    (1) Final Intermolecular Energy     =  -9.53 kcal/mol
DOCKED: USER        vdW + Hbond + desolv Energy     =  -9.63 kcal/mol
DOCKED: USER        Electrostatic Energy            =  +0.10 kcal/mol
DOCKED: USER        Moving Ligand-Fixed Receptor    =  -9.53 kcal/mol
DOCKED: USER        Moving Ligand-Moving Receptor   =  +0.00 kcal/mol
DOCKED: USER    (2) Final Total Internal Energy     =  -0.77 kcal/mol
DOCKED: USER    (3) Torsional Free Energy           =  +2.98 kcal/mol
DOCKED: USER    (4) Unbound System's Energy         =  -0.77 kcal/mol
DOCKED: USER
DOCKED: USER
DOCKED: REMARK SMILES O=C(CCCOc1ccc(Cl)cc1Cl)[N-]/N=C\c1cccc(C(F)(F)F)c1
DOCKED: REMARK SMILES IDX 2 1 1 2 15 3 16 4 17 5 18 6 19 7 27 8 20 9 22 10 21 11 23 12
DOCKED: REMARK SMILES IDX 24 13 25 14 26 15 3 16 4 17 5 18 6 19 7 20 8 21 13 22 9 23
DOCKED: REMARK SMILES IDX 12 24 10 25 14 26 11 27
DOCKED: REMARK H PARENT
DOCKED: USER                              x       y       z     vdW  Elec       q    Type
DOCKED: USER                           _______ _______ _______ _____ _____    ______ ____
DOCKED: ROOT
DOCKED: ATOM      1  C   UNL     1     139.438  74.717 221.267 -0.22 -0.01    +0.068 C  
DOCKED: ATOM      2  O   UNL     1     139.511  74.800 220.012 -0.03 +0.07    -0.319 OA 
DOCKED: ENDROOT
DOCKED: BRANCH   1   3
DOCKED: ATOM      3  N   UNL     1     140.360  73.870 221.955 -0.64 +0.03    -0.545 NA 
DOCKED: BRANCH   3   4
DOCKED: ATOM      4  N   UNL     1     139.951  73.010 222.985 -0.39 +0.04    -0.372 NA 
DOCKED: BRANCH   4   5
DOCKED: ATOM      5  C   UNL     1     140.326  71.768 223.066 -0.32 -0.01    +0.094 C  
DOCKED: BRANCH   5   6
DOCKED: ATOM      6  C   UNL     1     140.273  70.973 224.314 -0.44 +0.00    -0.009 A  
DOCKED: ATOM      7  C   UNL     1     139.901  69.617 224.316 -0.27 -0.00    +0.009 A  
DOCKED: ATOM      8  C   UNL     1     140.673  71.574 225.518 -0.55 -0.00    +0.022 A  
DOCKED: ATOM      9  C   UNL     1     139.893  68.891 225.509 -0.46 -0.00    +0.001 A  
DOCKED: ATOM     10  C   UNL     1     140.635  70.860 226.727 -0.60 -0.01    +0.056 A  
DOCKED: ATOM     11  C   UNL     1     140.258  69.505 226.708 -0.54 -0.00    +0.013 A  
DOCKED: BRANCH  10  12
DOCKED: ATOM     12  C   UNL     1     141.082  71.521 228.007 -0.38 -0.09    +0.416 C  
DOCKED: ATOM     13  F   UNL     1     141.854  72.626 227.701 -0.32 +0.03    -0.166 F  
DOCKED: ATOM     14  F   UNL     1     139.982  71.927 228.745 -0.29 +0.05    -0.166 F  
DOCKED: ATOM     15  F   UNL     1     141.827  70.651 228.783 -0.09 +0.03    -0.166 F  
DOCKED: ENDBRANCH  10  12
DOCKED: ENDBRANCH   5   6
DOCKED: ENDBRANCH   4   5
DOCKED: ENDBRANCH   3   4
DOCKED: ENDBRANCH   1   3
DOCKED: BRANCH   1  16
DOCKED: ATOM     16  C   UNL     1     138.436  75.552 222.020 -0.25 -0.01    +0.060 C  
DOCKED: BRANCH  16  17
DOCKED: ATOM     17  C   UNL     1     137.598  76.461 221.105 -0.11 -0.01    +0.048 C  
DOCKED: BRANCH  17  18
DOCKED: ATOM     18  C   UNL     1     137.263  77.826 221.721 -0.09 -0.04    +0.230 C  
DOCKED: BRANCH  18  19
DOCKED: ATOM     19  O   UNL     1     137.977  78.028 222.945 -0.08 +0.08    -0.492 OA 
DOCKED: BRANCH  19  20
DOCKED: ATOM     20  C   UNL     1     139.250  78.609 223.092 -0.27 -0.02    +0.137 A  
DOCKED: ATOM     21  C   UNL     1     140.442  77.951 222.726 -0.39 -0.01    +0.049 A  
DOCKED: ATOM     22  C   UNL     1     139.329  79.895 223.653 -0.37 -0.01    +0.084 A  
DOCKED: ATOM     23  C   UNL     1     141.680  78.572 222.914 -0.50 -0.01    +0.024 A  
DOCKED: ATOM     24  C   UNL     1     140.572  80.512 223.838 -0.40 -0.01    +0.045 A  
DOCKED: ATOM     25  C   UNL     1     141.746  79.852 223.471 -0.57 -0.01    +0.042 A  
DOCKED: ATOM     26  Cl  UNL     1     137.869  80.753 224.122 -0.45 +0.01    -0.080 Cl 
DOCKED: ATOM     27  Cl  UNL     1     143.301  80.623 223.718 -0.61 +0.02    -0.084 Cl 
DOCKED: ENDBRANCH  19  20
DOCKED: ENDBRANCH  18  19
DOCKED: ENDBRANCH  17  18
DOCKED: ENDBRANCH  16  17
DOCKED: ENDBRANCH   1  16
DOCKED: TORSDOF 10
DOCKED: TER
DOCKED: ENDMDL
________________________________________________________________________________


    FINAL DOCKED STATE:
    ________________________


Run:   3 / 20
Time taken for this run:   0.031s

DOCKED: MODEL        3
DOCKED: USER    Run = 3
DOCKED: USER
DOCKED: USER    Estimated Free Energy of Binding    =  -5.40 kcal/mol  [=(1)+(2)+(3)-(4)]
DOCKED: USER
DOCKED: USER    (1) Final Intermolecular Energy     =  -8.38 kcal/mol
DOCKED: USER        vdW + Hbond + desolv Energy     =  -8.48 kcal/mol
DOCKED: USER        Electrostatic Energy            =  +0.10 kcal/mol
DOCKED: USER        Moving Ligand-Fixed Receptor    =  -8.38 kcal/mol
DOCKED: USER        Moving Ligand-Moving Receptor   =  +0.00 kcal/mol
DOCKED: USER    (2) Final Total Internal Energy     =  -1.21 kcal/mol
DOCKED: USER    (3) Torsional Free Energy           =  +2.98 kcal/mol
DOCKED: USER    (4) Unbound System's Energy         =  -1.21 kcal/mol
DOCKED: USER
DOCKED: USER
DOCKED: REMARK SMILES O=C(CCCOc1ccc(Cl)cc1Cl)[N-]/N=C\c1cccc(C(F)(F)F)c1
DOCKED: REMARK SMILES IDX 2 1 1 2 15 3 16 4 17 5 18 6 19 7 27 8 20 9 22 10 21 11 23 12
DOCKED: REMARK SMILES IDX 24 13 25 14 26 15 3 16 4 17 5 18 6 19 7 20 8 21 13 22 9 23
DOCKED: REMARK SMILES IDX 12 24 10 25 14 26 11 27
DOCKED: REMARK H PARENT
DOCKED: USER                              x       y       z     vdW  Elec       q    Type
DOCKED: USER                           _______ _______ _______ _____ _____    ______ ____
DOCKED: ROOT
DOCKED: ATOM      1  C   UNL     1     138.770  74.237 221.552 -0.20 -0.02    +0.068 C  
DOCKED: ATOM      2  O   UNL     1     138.465  75.413 221.886 -0.17 +0.08    -0.319 OA 
DOCKED: ENDROOT
DOCKED: BRANCH   1   3
DOCKED: ATOM      3  N   UNL     1     140.075  73.747 221.871 -0.54 +0.06    -0.545 NA 
DOCKED: BRANCH   3   4
DOCKED: ATOM      4  N   UNL     1     140.323  72.999 223.031 -0.35 -0.00    -0.372 NA 
DOCKED: BRANCH   4   5
DOCKED: ATOM      5  C   UNL     1     140.179  71.709 223.090 -0.31 -0.01    +0.094 C  
DOCKED: BRANCH   5   6
DOCKED: ATOM      6  C   UNL     1     140.022  70.956 224.356 -0.44 +0.00    -0.009 A  
DOCKED: ATOM      7  C   UNL     1     139.424  69.685 224.394 -0.34 -0.00    +0.009 A  
DOCKED: ATOM      8  C   UNL     1     140.549  71.501 225.537 -0.56 -0.00    +0.022 A  
DOCKED: ATOM      9  C   UNL     1     139.322  68.990 225.602 -0.46 -0.00    +0.001 A  
DOCKED: ATOM     10  C   UNL     1     140.420  70.824 226.762 -0.57 -0.01    +0.056 A  
DOCKED: ATOM     11  C   UNL     1     139.818  69.554 226.780 -0.53 -0.00    +0.013 A  
DOCKED: BRANCH  10  12
DOCKED: ATOM     12  C   UNL     1     141.006  71.420 228.017 -0.37 -0.09    +0.416 C  
DOCKED: ATOM     13  F   UNL     1     141.831  72.477 227.676 -0.33 +0.03    -0.166 F  
DOCKED: ATOM     14  F   UNL     1     139.996  71.883 228.843 -0.26 +0.05    -0.166 F  
DOCKED: ATOM     15  F   UNL     1     141.743  70.481 228.718 -0.12 +0.03    -0.166 F  
DOCKED: ENDBRANCH  10  12
DOCKED: ENDBRANCH   5   6
DOCKED: ENDBRANCH   4   5
DOCKED: ENDBRANCH   3   4
DOCKED: ENDBRANCH   1   3
DOCKED: BRANCH   1  16
DOCKED: ATOM     16  C   UNL     1     137.747  73.352 220.890 -0.09 -0.01    +0.060 C  
DOCKED: BRANCH  16  17
DOCKED: ATOM     17  C   UNL     1     136.544  73.038 221.795 -0.10 -0.01    +0.048 C  
DOCKED: BRANCH  17  18
DOCKED: ATOM     18  C   UNL     1     136.915  72.304 223.091 -0.06 -0.07    +0.230 C  
DOCKED: BRANCH  18  19
DOCKED: ATOM     19  O   UNL     1     135.781  72.184 223.956 -0.07 +0.10    -0.492 OA 
DOCKED: BRANCH  19  20
DOCKED: ATOM     20  C   UNL     1     135.151  73.222 224.667 -0.19 -0.02    +0.137 A  
DOCKED: ATOM     21  C   UNL     1     135.449  74.585 224.464 -0.31 -0.01    +0.049 A  
DOCKED: ATOM     22  C   UNL     1     134.198  72.873 225.640 -0.26 -0.00    +0.084 A  
DOCKED: ATOM     23  C   UNL     1     134.802  75.570 225.214 -0.37 -0.00    +0.024 A  
DOCKED: ATOM     24  C   UNL     1     133.554  73.865 226.389 -0.30 +0.00    +0.045 A  
DOCKED: ATOM     25  C   UNL     1     133.855  75.212 226.178 -0.36 +0.00    +0.042 A  
DOCKED: ATOM     26  Cl  UNL     1     133.795  71.187 225.926 -0.39 +0.01    -0.080 Cl 
DOCKED: ATOM     27  Cl  UNL     1     133.056  76.449 227.128 -0.45 +0.00    -0.084 Cl 
DOCKED: ENDBRANCH  19  20
DOCKED: ENDBRANCH  18  19
DOCKED: ENDBRANCH  17  18
DOCKED: ENDBRANCH  16  17
DOCKED: ENDBRANCH   1  16
DOCKED: TORSDOF 10
DOCKED: TER
DOCKED: ENDMDL
________________________________________________________________________________


    FINAL DOCKED STATE:
    ________________________


Run:   4 / 20
Time taken for this run:   0.031s

DOCKED: MODEL        4
DOCKED: USER    Run = 4
DOCKED: USER
DOCKED: USER    Estimated Free Energy of Binding    =  -6.00 kcal/mol  [=(1)+(2)+(3)-(4)]
DOCKED: USER
DOCKED: USER    (1) Final Intermolecular Energy     =  -8.98 kcal/mol
DOCKED: USER        vdW + Hbond + desolv Energy     =  -9.11 kcal/mol
DOCKED: USER        Electrostatic Energy            =  +0.13 kcal/mol
DOCKED: USER        Moving Ligand-Fixed Receptor    =  -8.98 kcal/mol
DOCKED: USER        Moving Ligand-Moving Receptor   =  +0.00 kcal/mol
DOCKED: USER    (2) Final Total Internal Energy     =  -0.80 kcal/mol
DOCKED: USER    (3) Torsional Free Energy           =  +2.98 kcal/mol
DOCKED: USER    (4) Unbound System's Energy         =  -0.80 kcal/mol
DOCKED: USER
DOCKED: USER
DOCKED: REMARK SMILES O=C(CCCOc1ccc(Cl)cc1Cl)[N-]/N=C\c1cccc(C(F)(F)F)c1
DOCKED: REMARK SMILES IDX 2 1 1 2 15 3 16 4 17 5 18 6 19 7 27 8 20 9 22 10 21 11 23 12
DOCKED: REMARK SMILES IDX 24 13 25 14 26 15 3 16 4 17 5 18 6 19 7 20 8 21 13 22 9 23
DOCKED: REMARK SMILES IDX 12 24 10 25 14 26 11 27
DOCKED: REMARK H PARENT
DOCKED: USER                              x       y       z     vdW  Elec       q    Type
DOCKED: USER                           _______ _______ _______ _____ _____    ______ ____
DOCKED: ROOT
DOCKED: ATOM      1  C   UNL     1     140.249  73.957 221.653 -0.26 -0.01    +0.068 C  
DOCKED: ATOM      2  O   UNL     1     141.176  73.938 220.801 -0.15 +0.06    -0.319 OA 
DOCKED: ENDROOT
DOCKED: BRANCH   1   3
DOCKED: ATOM      3  N   UNL     1     140.279  73.013 222.725 -0.47 +0.02    -0.545 NA 
DOCKED: BRANCH   3   4
DOCKED: ATOM      4  N   UNL     1     139.928  71.667 222.539 -0.14 +0.06    -0.372 NA 
DOCKED: BRANCH   4   5
DOCKED: ATOM      5  C   UNL     1     139.163  71.012 223.359 -0.28 -0.02    +0.094 C  
DOCKED: BRANCH   5   6
DOCKED: ATOM      6  C   UNL     1     139.626  70.467 224.657 -0.41 +0.00    -0.009 A  
DOCKED: ATOM      7  C   UNL     1     139.752  69.086 224.880 -0.35 -0.00    +0.009 A  
DOCKED: ATOM      8  C   UNL     1     140.014  71.362 225.666 -0.46 -0.00    +0.022 A  
DOCKED: ATOM      9  C   UNL     1     140.221  68.610 226.107 -0.56 -0.00    +0.001 A  
DOCKED: ATOM     10  C   UNL     1     140.455  70.891 226.915 -0.59 -0.01    +0.056 A  
DOCKED: ATOM     11  C   UNL     1     140.572  69.505 227.119 -0.58 -0.00    +0.013 A  
DOCKED: BRANCH  10  12
DOCKED: ATOM     12  C   UNL     1     140.880  71.869 227.981 -0.41 -0.10    +0.416 C  
DOCKED: ATOM     13  F   UNL     1     141.465  72.969 227.381 -0.31 +0.04    -0.166 F  
DOCKED: ATOM     14  F   UNL     1     139.782  72.285 228.715 -0.27 +0.06    -0.166 F  
DOCKED: ATOM     15  F   UNL     1     141.790  71.293 228.851 -0.17 +0.03    -0.166 F  
DOCKED: ENDBRANCH  10  12
DOCKED: ENDBRANCH   5   6
DOCKED: ENDBRANCH   4   5
DOCKED: ENDBRANCH   3   4
DOCKED: ENDBRANCH   1   3
DOCKED: BRANCH   1  16
DOCKED: ATOM     16  C   UNL     1     139.170  75.005 221.568 -0.24 -0.01    +0.060 C  
DOCKED: BRANCH  16  17
DOCKED: ATOM     17  C   UNL     1     139.531  76.305 222.305 -0.33 -0.01    +0.048 C  
DOCKED: BRANCH  17  18
DOCKED: ATOM     18  C   UNL     1     141.039  76.576 222.388 -0.16 -0.08    +0.230 C  
DOCKED: BRANCH  18  19
DOCKED: ATOM     19  O   UNL     1     141.304  77.978 222.506 -0.17 +0.22    -0.492 OA 
DOCKED: BRANCH  19  20
DOCKED: ATOM     20  C   UNL     1     141.488  78.893 221.454 -0.30 -0.07    +0.137 A  
DOCKED: ATOM     21  C   UNL     1     141.574  78.502 220.101 -0.26 -0.03    +0.049 A  
DOCKED: ATOM     22  C   UNL     1     141.614  80.255 221.776 -0.38 -0.03    +0.084 A  
DOCKED: ATOM     23  C   UNL     1     141.776  79.457 219.101 -0.27 -0.01    +0.024 A  
DOCKED: ATOM     24  C   UNL     1     141.816  81.206 220.769 -0.30 -0.01    +0.045 A  
DOCKED: ATOM     25  C   UNL     1     141.899  80.808 219.433 -0.27 -0.02    +0.042 A  
DOCKED: ATOM     26  Cl  UNL     1     141.510  80.787 223.448 -0.70 +0.01    -0.080 Cl 
DOCKED: ATOM     27  Cl  UNL     1     142.166  82.001 218.177 -0.32 +0.05    -0.084 Cl 
DOCKED: ENDBRANCH  19  20
DOCKED: ENDBRANCH  18  19
DOCKED: ENDBRANCH  17  18
DOCKED: ENDBRANCH  16  17
DOCKED: ENDBRANCH   1  16
DOCKED: TORSDOF 10
DOCKED: TER
DOCKED: ENDMDL
________________________________________________________________________________


    FINAL DOCKED STATE:
    ________________________


Run:   5 / 20
Time taken for this run:   0.031s

DOCKED: MODEL        5
DOCKED: USER    Run = 5
DOCKED: USER
DOCKED: USER    Estimated Free Energy of Binding    =  -4.02 kcal/mol  [=(1)+(2)+(3)-(4)]
DOCKED: USER
DOCKED: USER    (1) Final Intermolecular Energy     =  -7.01 kcal/mol
DOCKED: USER        vdW + Hbond + desolv Energy     =  -7.09 kcal/mol
DOCKED: USER        Electrostatic Energy            =  +0.08 kcal/mol
DOCKED: USER        Moving Ligand-Fixed Receptor    =  -7.01 kcal/mol
DOCKED: USER        Moving Ligand-Moving Receptor   =  +0.00 kcal/mol
DOCKED: USER    (2) Final Total Internal Energy     =  -2.56 kcal/mol
DOCKED: USER    (3) Torsional Free Energy           =  +2.98 kcal/mol
DOCKED: USER    (4) Unbound System's Energy         =  -2.56 kcal/mol
DOCKED: USER
DOCKED: USER
DOCKED: REMARK SMILES O=C(CCCOc1ccc(Cl)cc1Cl)[N-]/N=C\c1cccc(C(F)(F)F)c1
DOCKED: REMARK SMILES IDX 2 1 1 2 15 3 16 4 17 5 18 6 19 7 27 8 20 9 22 10 21 11 23 12
DOCKED: REMARK SMILES IDX 24 13 25 14 26 15 3 16 4 17 5 18 6 19 7 20 8 21 13 22 9 23
DOCKED: REMARK SMILES IDX 12 24 10 25 14 26 11 27
DOCKED: REMARK H PARENT
DOCKED: USER                              x       y       z     vdW  Elec       q    Type
DOCKED: USER                           _______ _______ _______ _____ _____    ______ ____
DOCKED: ROOT
DOCKED: ATOM      1  C   UNL     1     141.905  74.893 220.764 -0.27 -0.02    +0.068 C  
DOCKED: ATOM      2  O   UNL     1     142.963  74.218 220.875 -0.19 +0.10    -0.319 OA 
DOCKED: ENDROOT
DOCKED: BRANCH   1   3
DOCKED: ATOM      3  N   UNL     1     141.086  75.086 221.919 -0.32 +0.08    -0.545 NA 
DOCKED: BRANCH   3   4
DOCKED: ATOM      4  N   UNL     1     139.829  74.477 222.048 -0.67 +0.04    -0.372 NA 
DOCKED: BRANCH   4   5
DOCKED: ATOM      5  C   UNL     1     138.710  75.134 221.978 -0.23 -0.02    +0.094 C  
DOCKED: BRANCH   5   6
DOCKED: ATOM      6  C   UNL     1     138.622  76.576 221.652 -0.23 +0.00    -0.009 A  
DOCKED: ATOM      7  C   UNL     1     138.367  77.029 220.347 -0.07 -0.00    +0.009 A  
DOCKED: ATOM      8  C   UNL     1     138.726  77.512 222.693 -0.29 -0.00    +0.022 A  
DOCKED: ATOM      9  C   UNL     1     138.259  78.396 220.083 -0.05 -0.00    +0.001 A  
DOCKED: ATOM     10  C   UNL     1     138.653  78.890 222.432 -0.23 -0.01    +0.056 A  
DOCKED: ATOM     11  C   UNL     1     138.400  79.324 221.118 -0.11 -0.00    +0.013 A  
DOCKED: BRANCH  10  12
DOCKED: ATOM     12  C   UNL     1     138.754  79.879 223.566 -0.16 -0.05    +0.416 C  
DOCKED: ATOM     13  F   UNL     1     137.506  80.045 224.136 -0.11 +0.02    -0.166 F  
DOCKED: ATOM     14  F   UNL     1     139.634  79.413 224.529 -0.10 +0.02    -0.166 F  
DOCKED: ATOM     15  F   UNL     1     139.212  81.106 223.119 -0.10 +0.02    -0.166 F  
DOCKED: ENDBRANCH  10  12
DOCKED: ENDBRANCH   5   6
DOCKED: ENDBRANCH   4   5
DOCKED: ENDBRANCH   3   4
DOCKED: ENDBRANCH   1   3
DOCKED: BRANCH   1  16
DOCKED: ATOM     16  C   UNL     1     141.555  75.533 219.446 -0.16 -0.02    +0.060 C  
DOCKED: BRANCH  16  17
DOCKED: ATOM     17  C   UNL     1     142.707  76.360 218.852 -0.29 -0.03    +0.048 C  
DOCKED: BRANCH  17  18
DOCKED: ATOM     18  C   UNL     1     142.267  77.703 218.255 -0.20 -0.15    +0.230 C  
DOCKED: BRANCH  18  19
DOCKED: ATOM     19  O   UNL     1     141.348  78.375 219.121 -0.04 +0.25    -0.492 OA 
DOCKED: BRANCH  19  20
DOCKED: ATOM     20  C   UNL     1     141.649  79.014 220.338 -0.23 -0.08    +0.137 A  
DOCKED: ATOM     21  C   UNL     1     141.841  78.313 221.547 -0.31 -0.03    +0.049 A  
DOCKED: ATOM     22  C   UNL     1     141.735  80.416 220.345 -0.29 -0.04    +0.084 A  
DOCKED: ATOM     23  C   UNL     1     142.120  79.005 222.729 -0.53 -0.01    +0.024 A  
DOCKED: ATOM     24  C   UNL     1     142.014  81.103 221.532 -0.36 -0.01    +0.045 A  
DOCKED: ATOM     25  C   UNL     1     142.205  80.400 222.723 -0.56 -0.01    +0.042 A  
DOCKED: ATOM     26  Cl  UNL     1     141.504  81.329 218.862 -0.31 +0.04    -0.080 Cl 
DOCKED: ATOM     27  Cl  UNL     1     142.540  81.266 224.210 -0.64 +0.01    -0.084 Cl 
DOCKED: ENDBRANCH  19  20
DOCKED: ENDBRANCH  18  19
DOCKED: ENDBRANCH  17  18
DOCKED: ENDBRANCH  16  17
DOCKED: ENDBRANCH   1  16
DOCKED: TORSDOF 10
DOCKED: TER
DOCKED: ENDMDL
________________________________________________________________________________


    FINAL DOCKED STATE:
    ________________________


Run:   6 / 20
Time taken for this run:   0.031s

DOCKED: MODEL        6
DOCKED: USER    Run = 6
DOCKED: USER
DOCKED: USER    Estimated Free Energy of Binding    =  -6.39 kcal/mol  [=(1)+(2)+(3)-(4)]
DOCKED: USER
DOCKED: USER    (1) Final Intermolecular Energy     =  -9.37 kcal/mol
DOCKED: USER        vdW + Hbond + desolv Energy     =  -9.46 kcal/mol
DOCKED: USER        Electrostatic Energy            =  +0.09 kcal/mol
DOCKED: USER        Moving Ligand-Fixed Receptor    =  -9.37 kcal/mol
DOCKED: USER        Moving Ligand-Moving Receptor   =  +0.00 kcal/mol
DOCKED: USER    (2) Final Total Internal Energy     =  -0.70 kcal/mol
DOCKED: USER    (3) Torsional Free Energy           =  +2.98 kcal/mol
DOCKED: USER    (4) Unbound System's Energy         =  -0.70 kcal/mol
DOCKED: USER
DOCKED: USER
DOCKED: REMARK SMILES O=C(CCCOc1ccc(Cl)cc1Cl)[N-]/N=C\c1cccc(C(F)(F)F)c1
DOCKED: REMARK SMILES IDX 2 1 1 2 15 3 16 4 17 5 18 6 19 7 27 8 20 9 22 10 21 11 23 12
DOCKED: REMARK SMILES IDX 24 13 25 14 26 15 3 16 4 17 5 18 6 19 7 20 8 21 13 22 9 23
DOCKED: REMARK SMILES IDX 12 24 10 25 14 26 11 27
DOCKED: REMARK H PARENT
DOCKED: USER                              x       y       z     vdW  Elec       q    Type
DOCKED: USER                           _______ _______ _______ _____ _____    ______ ____
DOCKED: ROOT
DOCKED: ATOM      1  C   UNL     1     138.387  73.717 221.892 -0.14 -0.02    +0.068 C  
DOCKED: ATOM      2  O   UNL     1     137.846  72.662 222.319 -0.11 +0.10    -0.319 OA 
DOCKED: ENDROOT
DOCKED: BRANCH   1   3
DOCKED: ATOM      3  N   UNL     1     139.685  74.069 222.375 -0.59 +0.06    -0.545 NA 
DOCKED: BRANCH   3   4
DOCKED: ATOM      4  N   UNL     1     140.700  73.114 222.541 -0.49 -0.01    -0.372 NA 
DOCKED: BRANCH   4   5
DOCKED: ATOM      5  C   UNL     1     140.466  71.841 222.658 -0.29 -0.01    +0.094 C  
DOCKED: BRANCH   5   6
DOCKED: ATOM      6  C   UNL     1     140.140  71.180 223.942 -0.42 +0.00    -0.009 A  
DOCKED: ATOM      7  C   UNL     1     139.388  69.994 223.997 -0.32 -0.00    +0.009 A  
DOCKED: ATOM      8  C   UNL     1     140.658  71.718 225.131 -0.45 -0.00    +0.022 A  
DOCKED: ATOM      9  C   UNL     1     139.127  69.381 225.225 -0.41 -0.00    +0.001 A  
DOCKED: ATOM     10  C   UNL     1     140.371  71.127 226.373 -0.57 -0.01    +0.056 A  
DOCKED: ATOM     11  C   UNL     1     139.615  69.941 226.408 -0.47 -0.00    +0.013 A  
DOCKED: BRANCH  10  12
DOCKED: ATOM     12  C   UNL     1     140.949  71.713 227.637 -0.41 -0.08    +0.416 C  
DOCKED: ATOM     13  F   UNL     1     141.908  72.651 227.306 -0.33 +0.03    -0.166 F  
DOCKED: ATOM     14  F   UNL     1     139.952  72.326 228.379 -0.26 +0.06    -0.166 F  
DOCKED: ATOM     15  F   UNL     1     141.530  70.731 228.422 -0.16 +0.03    -0.166 F  
DOCKED: ENDBRANCH  10  12
DOCKED: ENDBRANCH   5   6
DOCKED: ENDBRANCH   4   5
DOCKED: ENDBRANCH   3   4
DOCKED: ENDBRANCH   1   3
DOCKED: BRANCH   1  16
DOCKED: ATOM     16  C   UNL     1     137.695  74.546 220.842 -0.10 -0.01    +0.060 C  
DOCKED: BRANCH  16  17
DOCKED: ATOM     17  C   UNL     1     136.993  75.786 221.419 -0.12 -0.01    +0.048 C  
DOCKED: BRANCH  17  18
DOCKED: ATOM     18  C   UNL     1     137.565  76.257 222.763 -0.19 -0.05    +0.230 C  
DOCKED: BRANCH  18  19
DOCKED: ATOM     19  O   UNL     1     137.804  77.668 222.754 -0.10 +0.08    -0.492 OA 
DOCKED: BRANCH  19  20
DOCKED: ATOM     20  C   UNL     1     139.045  78.314 222.901 -0.24 -0.02    +0.137 A  
DOCKED: ATOM     21  C   UNL     1     140.270  77.715 222.542 -0.36 -0.01    +0.049 A  
DOCKED: ATOM     22  C   UNL     1     139.058  79.606 223.453 -0.34 -0.01    +0.084 A  
DOCKED: ATOM     23  C   UNL     1     141.474  78.400 222.728 -0.48 -0.01    +0.024 A  
DOCKED: ATOM     24  C   UNL     1     140.266  80.287 223.638 -0.41 -0.01    +0.045 A  
DOCKED: ATOM     25  C   UNL     1     141.474  79.685 223.278 -0.53 -0.01    +0.042 A  
DOCKED: ATOM     26  Cl  UNL     1     137.554  80.391 223.913 -0.38 +0.01    -0.080 Cl 
DOCKED: ATOM     27  Cl  UNL     1     142.986  80.536 223.524 -0.79 +0.02    -0.084 Cl 
DOCKED: ENDBRANCH  19  20
DOCKED: ENDBRANCH  18  19
DOCKED: ENDBRANCH  17  18
DOCKED: ENDBRANCH  16  17
DOCKED: ENDBRANCH   1  16
DOCKED: TORSDOF 10
DOCKED: TER
DOCKED: ENDMDL
________________________________________________________________________________


    FINAL DOCKED STATE:
    ________________________


Run:   7 / 20
Time taken for this run:   0.031s

DOCKED: MODEL        7
DOCKED: USER    Run = 7
DOCKED: USER
DOCKED: USER    Estimated Free Energy of Binding    =  -6.55 kcal/mol  [=(1)+(2)+(3)-(4)]
DOCKED: USER
DOCKED: USER    (1) Final Intermolecular Energy     =  -9.53 kcal/mol
DOCKED: USER        vdW + Hbond + desolv Energy     =  -9.60 kcal/mol
DOCKED: USER        Electrostatic Energy            =  +0.07 kcal/mol
DOCKED: USER        Moving Ligand-Fixed Receptor    =  -9.53 kcal/mol
DOCKED: USER        Moving Ligand-Moving Receptor   =  +0.00 kcal/mol
DOCKED: USER    (2) Final Total Internal Energy     =  -1.03 kcal/mol
DOCKED: USER    (3) Torsional Free Energy           =  +2.98 kcal/mol
DOCKED: USER    (4) Unbound System's Energy         =  -1.03 kcal/mol
DOCKED: USER
DOCKED: USER
DOCKED: REMARK SMILES O=C(CCCOc1ccc(Cl)cc1Cl)[N-]/N=C\c1cccc(C(F)(F)F)c1
DOCKED: REMARK SMILES IDX 2 1 1 2 15 3 16 4 17 5 18 6 19 7 27 8 20 9 22 10 21 11 23 12
DOCKED: REMARK SMILES IDX 24 13 25 14 26 15 3 16 4 17 5 18 6 19 7 20 8 21 13 22 9 23
DOCKED: REMARK SMILES IDX 12 24 10 25 14 26 11 27
DOCKED: REMARK H PARENT
DOCKED: USER                              x       y       z     vdW  Elec       q    Type
DOCKED: USER                           _______ _______ _______ _____ _____    ______ ____
DOCKED: ROOT
DOCKED: ATOM      1  C   UNL     1     139.566  75.082 222.160 -0.19 -0.01    +0.068 C  
DOCKED: ATOM      2  O   UNL     1     140.357  76.038 222.379 -0.40 +0.06    -0.319 OA 
DOCKED: ENDROOT
DOCKED: BRANCH   1   3
DOCKED: ATOM      3  N   UNL     1     140.108  73.788 221.892 -0.57 +0.06    -0.545 NA 
DOCKED: BRANCH   3   4
DOCKED: ATOM      4  N   UNL     1     140.503  72.921 222.923 -0.35 -0.01    -0.372 NA 
DOCKED: BRANCH   4   5
DOCKED: ATOM      5  C   UNL     1     140.070  71.701 223.030 -0.31 -0.01    +0.094 C  
DOCKED: BRANCH   5   6
DOCKED: ATOM      6  C   UNL     1     140.010  70.960 224.311 -0.43 +0.00    -0.009 A  
DOCKED: ATOM      7  C   UNL     1     139.543  69.636 224.382 -0.34 -0.00    +0.009 A  
DOCKED: ATOM      8  C   UNL     1     140.499  71.576 225.473 -0.51 -0.00    +0.022 A  
DOCKED: ATOM      9  C   UNL     1     139.531  68.957 225.603 -0.47 -0.00    +0.001 A  
DOCKED: ATOM     10  C   UNL     1     140.458  70.913 226.712 -0.58 -0.01    +0.056 A  
DOCKED: ATOM     11  C   UNL     1     139.986  69.589 226.762 -0.54 -0.00    +0.013 A  
DOCKED: BRANCH  10  12
DOCKED: ATOM     12  C   UNL     1     141.001  71.588 227.946 -0.40 -0.09    +0.416 C  
DOCKED: ATOM     13  F   UNL     1     141.700  70.664 228.699 -0.13 +0.03    -0.166 F  
DOCKED: ATOM     14  F   UNL     1     141.853  72.621 227.591 -0.34 +0.03    -0.166 F  
DOCKED: ATOM     15  F   UNL     1     139.979  72.116 228.716 -0.29 +0.05    -0.166 F  
DOCKED: ENDBRANCH  10  12
DOCKED: ENDBRANCH   5   6
DOCKED: ENDBRANCH   4   5
DOCKED: ENDBRANCH   3   4
DOCKED: ENDBRANCH   1   3
DOCKED: BRANCH   1  16
DOCKED: ATOM     16  C   UNL     1     138.078  75.301 222.247 -0.18 -0.02    +0.060 C  
DOCKED: BRANCH  16  17
DOCKED: ATOM     17  C   UNL     1     137.703  76.696 222.773 -0.26 -0.01    +0.048 C  
DOCKED: BRANCH  17  18
DOCKED: ATOM     18  C   UNL     1     137.019  77.592 221.732 -0.09 -0.04    +0.230 C  
DOCKED: BRANCH  18  19
DOCKED: ATOM     19  O   UNL     1     137.569  78.912 221.748 -0.01 +0.09    -0.492 OA 
DOCKED: BRANCH  19  20
DOCKED: ATOM     20  C   UNL     1     138.861  79.283 222.166 -0.18 -0.03    +0.137 A  
DOCKED: ATOM     21  C   UNL     1     140.032  78.885 221.489 -0.21 -0.01    +0.049 A  
DOCKED: ATOM     22  C   UNL     1     138.981  80.064 223.328 -0.33 -0.01    +0.084 A  
DOCKED: ATOM     23  C   UNL     1     141.289  79.269 221.964 -0.39 -0.01    +0.024 A  
DOCKED: ATOM     24  C   UNL     1     140.242  80.445 223.799 -0.39 -0.01    +0.045 A  
DOCKED: ATOM     25  C   UNL     1     141.395  80.048 223.120 -0.51 -0.01    +0.042 A  
DOCKED: ATOM     26  Cl  UNL     1     137.548  80.584 224.202 -0.41 +0.01    -0.080 Cl 
DOCKED: ATOM     27  Cl  UNL     1     142.974  80.516 223.721 -0.79 +0.02    -0.084 Cl 
DOCKED: ENDBRANCH  19  20
DOCKED: ENDBRANCH  18  19
DOCKED: ENDBRANCH  17  18
DOCKED: ENDBRANCH  16  17
DOCKED: ENDBRANCH   1  16
DOCKED: TORSDOF 10
DOCKED: TER
DOCKED: ENDMDL
________________________________________________________________________________


    FINAL DOCKED STATE:
    ________________________


Run:   8 / 20
Time taken for this run:   0.031s

DOCKED: MODEL        8
DOCKED: USER    Run = 8
DOCKED: USER
DOCKED: USER    Estimated Free Energy of Binding    =  -6.56 kcal/mol  [=(1)+(2)+(3)-(4)]
DOCKED: USER
DOCKED: USER    (1) Final Intermolecular Energy     =  -9.54 kcal/mol
DOCKED: USER        vdW + Hbond + desolv Energy     =  -9.64 kcal/mol
DOCKED: USER        Electrostatic Energy            =  +0.10 kcal/mol
DOCKED: USER        Moving Ligand-Fixed Receptor    =  -9.54 kcal/mol
DOCKED: USER        Moving Ligand-Moving Receptor   =  +0.00 kcal/mol
DOCKED: USER    (2) Final Total Internal Energy     =  -1.07 kcal/mol
DOCKED: USER    (3) Torsional Free Energy           =  +2.98 kcal/mol
DOCKED: USER    (4) Unbound System's Energy         =  -1.07 kcal/mol
DOCKED: USER
DOCKED: USER
DOCKED: REMARK SMILES O=C(CCCOc1ccc(Cl)cc1Cl)[N-]/N=C\c1cccc(C(F)(F)F)c1
DOCKED: REMARK SMILES IDX 2 1 1 2 15 3 16 4 17 5 18 6 19 7 27 8 20 9 22 10 21 11 23 12
DOCKED: REMARK SMILES IDX 24 13 25 14 26 15 3 16 4 17 5 18 6 19 7 20 8 21 13 22 9 23
DOCKED: REMARK SMILES IDX 12 24 10 25 14 26 11 27
DOCKED: REMARK H PARENT
DOCKED: USER                              x       y       z     vdW  Elec       q    Type
DOCKED: USER                           _______ _______ _______ _____ _____    ______ ____
DOCKED: ROOT
DOCKED: ATOM      1  C   UNL     1     140.062  75.501 221.973 -0.29 -0.01    +0.068 C  
DOCKED: ATOM      2  O   UNL     1     140.634  76.340 222.720 -0.31 +0.07    -0.319 OA 
DOCKED: ENDROOT
DOCKED: BRANCH   1   3
DOCKED: ATOM      3  N   UNL     1     140.558  74.162 221.935 -0.59 +0.02    -0.545 NA 
DOCKED: BRANCH   3   4
DOCKED: ATOM      4  N   UNL     1     139.926  73.116 222.624 -0.57 +0.04    -0.372 NA 
DOCKED: BRANCH   4   5
DOCKED: ATOM      5  C   UNL     1     140.528  72.012 222.949 -0.27 -0.01    +0.094 C  
DOCKED: BRANCH   5   6
DOCKED: ATOM      6  C   UNL     1     140.245  71.256 224.190 -0.44 +0.00    -0.009 A  
DOCKED: ATOM      7  C   UNL     1     139.606  70.005 224.169 -0.33 -0.00    +0.009 A  
DOCKED: ATOM      8  C   UNL     1     140.693  71.775 225.416 -0.47 -0.00    +0.022 A  
DOCKED: ATOM      9  C   UNL     1     139.384  69.306 225.358 -0.42 -0.00    +0.001 A  
DOCKED: ATOM     10  C   UNL     1     140.444  71.095 226.620 -0.59 -0.01    +0.056 A  
DOCKED: ATOM     11  C   UNL     1     139.800  69.845 226.577 -0.50 -0.00    +0.013 A  
DOCKED: BRANCH  10  12
DOCKED: ATOM     12  C   UNL     1     140.945  71.662 227.924 -0.40 -0.09    +0.416 C  
DOCKED: ATOM     13  F   UNL     1     141.544  70.655 228.657 -0.15 +0.03    -0.166 F  
DOCKED: ATOM     14  F   UNL     1     141.874  72.662 227.684 -0.31 +0.03    -0.166 F  
DOCKED: ATOM     15  F   UNL     1     139.907  72.203 228.664 -0.29 +0.06    -0.166 F  
DOCKED: ENDBRANCH  10  12
DOCKED: ENDBRANCH   5   6
DOCKED: ENDBRANCH   4   5
DOCKED: ENDBRANCH   3   4
DOCKED: ENDBRANCH   1   3
DOCKED: BRANCH   1  16
DOCKED: ATOM     16  C   UNL     1     138.837  75.901 221.193 -0.18 -0.01    +0.060 C  
DOCKED: BRANCH  16  17
DOCKED: ATOM     17  C   UNL     1     137.852  76.753 222.009 -0.22 -0.01    +0.048 C  
DOCKED: BRANCH  17  18
DOCKED: ATOM     18  C   UNL     1     137.258  77.936 221.233 -0.06 -0.04    +0.230 C  
DOCKED: BRANCH  18  19
DOCKED: ATOM     19  O   UNL     1     137.738  79.182 221.747 -0.01 +0.09    -0.492 OA 
DOCKED: BRANCH  19  20
DOCKED: ATOM     20  C   UNL     1     139.063  79.492 222.105 -0.17 -0.03    +0.137 A  
DOCKED: ATOM     21  C   UNL     1     140.177  79.124 221.323 -0.20 -0.01    +0.049 A  
DOCKED: ATOM     22  C   UNL     1     139.278  80.179 223.312 -0.34 -0.01    +0.084 A  
DOCKED: ATOM     23  C   UNL     1     141.472  79.443 221.742 -0.40 -0.01    +0.024 A  
DOCKED: ATOM     24  C   UNL     1     140.577  80.496 223.725 -0.41 -0.01    +0.045 A  
DOCKED: ATOM     25  C   UNL     1     141.673  80.128 222.943 -0.53 -0.01    +0.042 A  
DOCKED: ATOM     26  Cl  UNL     1     137.919  80.659 224.317 -0.45 +0.01    -0.080 Cl 
DOCKED: ATOM     27  Cl  UNL     1     143.299  80.515 223.471 -0.71 +0.02    -0.084 Cl 
DOCKED: ENDBRANCH  19  20
DOCKED: ENDBRANCH  18  19
DOCKED: ENDBRANCH  17  18
DOCKED: ENDBRANCH  16  17
DOCKED: ENDBRANCH   1  16
DOCKED: TORSDOF 10
DOCKED: TER
DOCKED: ENDMDL
________________________________________________________________________________


    FINAL DOCKED STATE:
    ________________________


Run:   9 / 20
Time taken for this run:   0.031s

DOCKED: MODEL        9
DOCKED: USER    Run = 9
DOCKED: USER
DOCKED: USER    Estimated Free Energy of Binding    =  -6.25 kcal/mol  [=(1)+(2)+(3)-(4)]
DOCKED: USER
DOCKED: USER    (1) Final Intermolecular Energy     =  -9.24 kcal/mol
DOCKED: USER        vdW + Hbond + desolv Energy     =  -9.29 kcal/mol
DOCKED: USER        Electrostatic Energy            =  +0.05 kcal/mol
DOCKED: USER        Moving Ligand-Fixed Receptor    =  -9.24 kcal/mol
DOCKED: USER        Moving Ligand-Moving Receptor   =  +0.00 kcal/mol
DOCKED: USER    (2) Final Total Internal Energy     =  -1.31 kcal/mol
DOCKED: USER    (3) Torsional Free Energy           =  +2.98 kcal/mol
DOCKED: USER    (4) Unbound System's Energy         =  -1.31 kcal/mol
DOCKED: USER
DOCKED: USER
DOCKED: REMARK SMILES O=C(CCCOc1ccc(Cl)cc1Cl)[N-]/N=C\c1cccc(C(F)(F)F)c1
DOCKED: REMARK SMILES IDX 2 1 1 2 15 3 16 4 17 5 18 6 19 7 27 8 20 9 22 10 21 11 23 12
DOCKED: REMARK SMILES IDX 24 13 25 14 26 15 3 16 4 17 5 18 6 19 7 20 8 21 13 22 9 23
DOCKED: REMARK SMILES IDX 12 24 10 25 14 26 11 27
DOCKED: REMARK H PARENT
DOCKED: USER                              x       y       z     vdW  Elec       q    Type
DOCKED: USER                           _______ _______ _______ _____ _____    ______ ____
DOCKED: ROOT
DOCKED: ATOM      1  C   UNL     1     140.192  74.655 221.920 -0.18 -0.01    +0.068 C  
DOCKED: ATOM      2  O   UNL     1     140.788  75.714 222.250 -0.43 +0.06    -0.319 OA 
DOCKED: ENDROOT
DOCKED: BRANCH   1   3
DOCKED: ATOM      3  N   UNL     1     140.740  73.400 222.329 -0.49 -0.02    -0.545 NA 
DOCKED: BRANCH   3   4
DOCKED: ATOM      4  N   UNL     1     140.108  72.591 223.285 -0.28 +0.05    -0.372 NA 
DOCKED: BRANCH   4   5
DOCKED: ATOM      5  C   UNL     1     140.646  71.513 223.772 -0.30 -0.01    +0.094 C  
DOCKED: BRANCH   5   6
DOCKED: ATOM      6  C   UNL     1     140.776  71.242 225.222 -0.55 +0.00    -0.009 A  
DOCKED: ATOM      7  C   UNL     1     141.072  72.260 226.145 -0.30 -0.00    +0.009 A  
DOCKED: ATOM      8  C   UNL     1     140.526  69.943 225.693 -0.49 -0.00    +0.022 A  
DOCKED: ATOM      9  C   UNL     1     141.156  71.972 227.509 -0.83 -0.00    +0.001 A  
DOCKED: ATOM     10  C   UNL     1     140.641  69.638 227.060 -0.53 -0.01    +0.056 A  
DOCKED: ATOM     11  C   UNL     1     140.941  70.670 227.967 -0.67 -0.00    +0.013 A  
DOCKED: BRANCH  10  12
DOCKED: ATOM     12  C   UNL     1     140.355  68.240 227.546 -0.30 -0.10    +0.416 C  
DOCKED: ATOM     13  F   UNL     1     141.414  67.417 227.212 -0.19 +0.05    -0.166 F  
DOCKED: ATOM     14  F   UNL     1     140.195  68.236 228.922 -0.20 +0.04    -0.166 F  
DOCKED: ATOM     15  F   UNL     1     139.198  67.740 226.974 -0.20 +0.02    -0.166 F  
DOCKED: ENDBRANCH  10  12
DOCKED: ENDBRANCH   5   6
DOCKED: ENDBRANCH   4   5
DOCKED: ENDBRANCH   3   4
DOCKED: ENDBRANCH   1   3
DOCKED: BRANCH   1  16
DOCKED: ATOM     16  C   UNL     1     138.890  74.727 221.165 -0.18 -0.01    +0.060 C  
DOCKED: BRANCH  16  17
DOCKED: ATOM     17  C   UNL     1     139.019  74.287 219.697 -0.05 -0.01    +0.048 C  
DOCKED: BRANCH  17  18
DOCKED: ATOM     18  C   UNL     1     140.107  75.034 218.915 -0.02 -0.06    +0.230 C  
DOCKED: BRANCH  18  19
DOCKED: ATOM     19  O   UNL     1     141.172  74.152 218.545 +0.02 +0.12    -0.492 OA 
DOCKED: BRANCH  19  20
DOCKED: ATOM     20  C   UNL     1     142.365  73.926 219.255 -0.11 -0.04    +0.137 A  
DOCKED: ATOM     21  C   UNL     1     142.694  72.681 219.829 -0.18 -0.01    +0.049 A  
DOCKED: ATOM     22  C   UNL     1     143.253  75.003 219.417 -0.29 -0.04    +0.084 A  
DOCKED: ATOM     23  C   UNL     1     143.887  72.522 220.540 -0.34 -0.00    +0.024 A  
DOCKED: ATOM     24  C   UNL     1     144.446  74.838 220.130 -0.40 -0.02    +0.045 A  
DOCKED: ATOM     25  C   UNL     1     144.763  73.601 220.693 -0.50 -0.01    +0.042 A  
DOCKED: ATOM     26  Cl  UNL     1     142.884  76.573 218.717 -0.42 +0.05    -0.080 Cl 
DOCKED: ATOM     27  Cl  UNL     1     146.251  73.402 221.598 -0.88 +0.01    -0.084 Cl 
DOCKED: ENDBRANCH  19  20
DOCKED: ENDBRANCH  18  19
DOCKED: ENDBRANCH  17  18
DOCKED: ENDBRANCH  16  17
DOCKED: ENDBRANCH   1  16
DOCKED: TORSDOF 10
DOCKED: TER
DOCKED: ENDMDL
________________________________________________________________________________


    FINAL DOCKED STATE:
    ________________________


Run:   10 / 20
Time taken for this run:   0.031s

DOCKED: MODEL        10
DOCKED: USER    Run = 10
DOCKED: USER
DOCKED: USER    Estimated Free Energy of Binding    =  -6.57 kcal/mol  [=(1)+(2)+(3)-(4)]
DOCKED: USER
DOCKED: USER    (1) Final Intermolecular Energy     =  -9.56 kcal/mol
DOCKED: USER        vdW + Hbond + desolv Energy     =  -9.67 kcal/mol
DOCKED: USER        Electrostatic Energy            =  +0.12 kcal/mol
DOCKED: USER        Moving Ligand-Fixed Receptor    =  -9.56 kcal/mol
DOCKED: USER        Moving Ligand-Moving Receptor   =  +0.00 kcal/mol
DOCKED: USER    (2) Final Total Internal Energy     =  -1.00 kcal/mol
DOCKED: USER    (3) Torsional Free Energy           =  +2.98 kcal/mol
DOCKED: USER    (4) Unbound System's Energy         =  -1.00 kcal/mol
DOCKED: USER
DOCKED: USER
DOCKED: REMARK SMILES O=C(CCCOc1ccc(Cl)cc1Cl)[N-]/N=C\c1cccc(C(F)(F)F)c1
DOCKED: REMARK SMILES IDX 2 1 1 2 15 3 16 4 17 5 18 6 19 7 27 8 20 9 22 10 21 11 23 12
DOCKED: REMARK SMILES IDX 24 13 25 14 26 15 3 16 4 17 5 18 6 19 7 20 8 21 13 22 9 23
DOCKED: REMARK SMILES IDX 12 24 10 25 14 26 11 27
DOCKED: REMARK H PARENT
DOCKED: USER                              x       y       z     vdW  Elec       q    Type
DOCKED: USER                           _______ _______ _______ _____ _____    ______ ____
DOCKED: ROOT
DOCKED: ATOM      1  C   UNL     1     140.322  74.669 221.588 -0.29 -0.01    +0.068 C  
DOCKED: ATOM      2  O   UNL     1     141.351  75.276 221.989 -0.41 +0.07    -0.319 OA 
DOCKED: ENDROOT
DOCKED: BRANCH   1   3
DOCKED: ATOM      3  N   UNL     1     139.818  73.582 222.366 -0.61 +0.06    -0.545 NA 
DOCKED: BRANCH   3   4
DOCKED: ATOM      4  N   UNL     1     140.649  72.547 222.822 -0.37 +0.01    -0.372 NA 
DOCKED: BRANCH   4   5
DOCKED: ATOM      5  C   UNL     1     140.222  71.343 223.059 -0.29 -0.01    +0.094 C  
DOCKED: BRANCH   5   6
DOCKED: ATOM      6  C   UNL     1     140.094  70.768 224.418 -0.43 +0.00    -0.009 A  
DOCKED: ATOM      7  C   UNL     1     139.595  69.472 224.632 -0.36 -0.00    +0.009 A  
DOCKED: ATOM      8  C   UNL     1     140.551  71.516 225.515 -0.55 -0.00    +0.022 A  
DOCKED: ATOM      9  C   UNL     1     139.519  68.951 225.926 -0.49 -0.00    +0.001 A  
DOCKED: ATOM     10  C   UNL     1     140.446  71.013 226.822 -0.59 -0.01    +0.056 A  
DOCKED: ATOM     11  C   UNL     1     139.942  69.714 227.016 -0.55 -0.00    +0.013 A  
DOCKED: BRANCH  10  12
DOCKED: ATOM     12  C   UNL     1     140.955  71.827 227.986 -0.40 -0.10    +0.416 C  
DOCKED: ATOM     13  F   UNL     1     141.813  71.050 228.742 -0.16 +0.03    -0.166 F  
DOCKED: ATOM     14  F   UNL     1     141.638  72.941 227.527 -0.30 +0.04    -0.166 F  
DOCKED: ATOM     15  F   UNL     1     139.912  72.258 228.787 -0.27 +0.06    -0.166 F  
DOCKED: ENDBRANCH  10  12
DOCKED: ENDBRANCH   5   6
DOCKED: ENDBRANCH   4   5
DOCKED: ENDBRANCH   3   4
DOCKED: ENDBRANCH   1   3
DOCKED: BRANCH   1  16
DOCKED: ATOM     16  C   UNL     1     139.609  75.135 220.346 -0.12 -0.01    +0.060 C  
DOCKED: BRANCH  16  17
DOCKED: ATOM     17  C   UNL     1     138.147  75.536 220.604 -0.09 -0.01    +0.048 C  
DOCKED: BRANCH  17  18
DOCKED: ATOM     18  C   UNL     1     137.984  76.684 221.609 -0.13 -0.05    +0.230 C  
DOCKED: BRANCH  18  19
DOCKED: ATOM     19  O   UNL     1     138.693  77.850 221.178 -0.00 +0.11    -0.492 OA 
DOCKED: BRANCH  19  20
DOCKED: ATOM     20  C   UNL     1     139.664  78.564 221.905 -0.20 -0.03    +0.137 A  
DOCKED: ATOM     21  C   UNL     1     139.409  79.142 223.166 -0.35 -0.01    +0.049 A  
DOCKED: ATOM     22  C   UNL     1     140.935  78.724 221.329 -0.27 -0.03    +0.084 A  
DOCKED: ATOM     23  C   UNL     1     140.409  79.856 223.832 -0.45 -0.00    +0.024 A  
DOCKED: ATOM     24  C   UNL     1     141.932  79.441 222.001 -0.45 -0.02    +0.045 A  
DOCKED: ATOM     25  C   UNL     1     141.670  80.007 223.250 -0.55 -0.01    +0.042 A  
DOCKED: ATOM     26  Cl  UNL     1     141.297  78.020 219.760 -0.30 +0.04    -0.080 Cl 
DOCKED: ATOM     27  Cl  UNL     1     142.918  80.916 224.081 -0.66 +0.01    -0.084 Cl 
DOCKED: ENDBRANCH  19  20
DOCKED: ENDBRANCH  18  19
DOCKED: ENDBRANCH  17  18
DOCKED: ENDBRANCH  16  17
DOCKED: ENDBRANCH   1  16
DOCKED: TORSDOF 10
DOCKED: TER
DOCKED: ENDMDL
________________________________________________________________________________


    FINAL DOCKED STATE:
    ________________________


Run:   11 / 20
Time taken for this run:   0.031s

DOCKED: MODEL        11
DOCKED: USER    Run = 11
DOCKED: USER
DOCKED: USER    Estimated Free Energy of Binding    =  -6.57 kcal/mol  [=(1)+(2)+(3)-(4)]
DOCKED: USER
DOCKED: USER    (1) Final Intermolecular Energy     =  -9.56 kcal/mol
DOCKED: USER        vdW + Hbond + desolv Energy     =  -9.64 kcal/mol
DOCKED: USER        Electrostatic Energy            =  +0.08 kcal/mol
DOCKED: USER        Moving Ligand-Fixed Receptor    =  -9.56 kcal/mol
DOCKED: USER        Moving Ligand-Moving Receptor   =  +0.00 kcal/mol
DOCKED: USER    (2) Final Total Internal Energy     =  -0.98 kcal/mol
DOCKED: USER    (3) Torsional Free Energy           =  +2.98 kcal/mol
DOCKED: USER    (4) Unbound System's Energy         =  -0.98 kcal/mol
DOCKED: USER
DOCKED: USER
DOCKED: REMARK SMILES O=C(CCCOc1ccc(Cl)cc1Cl)[N-]/N=C\c1cccc(C(F)(F)F)c1
DOCKED: REMARK SMILES IDX 2 1 1 2 15 3 16 4 17 5 18 6 19 7 27 8 20 9 22 10 21 11 23 12
DOCKED: REMARK SMILES IDX 24 13 25 14 26 15 3 16 4 17 5 18 6 19 7 20 8 21 13 22 9 23
DOCKED: REMARK SMILES IDX 12 24 10 25 14 26 11 27
DOCKED: REMARK H PARENT
DOCKED: USER                              x       y       z     vdW  Elec       q    Type
DOCKED: USER                           _______ _______ _______ _____ _____    ______ ____
DOCKED: ROOT
DOCKED: ATOM      1  C   UNL     1     140.116  74.234 221.729 -0.24 -0.01    +0.068 C  
DOCKED: ATOM      2  O   UNL     1     141.289  74.684 221.631 -0.41 +0.05    -0.319 OA 
DOCKED: ENDROOT
DOCKED: BRANCH   1   3
DOCKED: ATOM      3  N   UNL     1     139.852  73.200 222.679 -0.47 +0.06    -0.545 NA 
DOCKED: BRANCH   3   4
DOCKED: ATOM      4  N   UNL     1     140.301  71.885 222.487 -0.17 +0.05    -0.372 NA 
DOCKED: BRANCH   4   5
DOCKED: ATOM      5  C   UNL     1     139.953  70.895 223.254 -0.27 -0.02    +0.094 C  
DOCKED: BRANCH   5   6
DOCKED: ATOM      6  C   UNL     1     140.333  70.788 224.682 -0.47 +0.00    -0.009 A  
DOCKED: ATOM      7  C   UNL     1     140.867  71.877 225.392 -0.41 -0.00    +0.009 A  
DOCKED: ATOM      8  C   UNL     1     140.085  69.585 225.360 -0.42 -0.00    +0.022 A  
DOCKED: ATOM      9  C   UNL     1     141.184  71.748 226.746 -0.74 -0.00    +0.001 A  
DOCKED: ATOM     10  C   UNL     1     140.432  69.436 226.713 -0.52 -0.01    +0.056 A  
DOCKED: ATOM     11  C   UNL     1     140.968  70.536 227.406 -0.62 -0.00    +0.013 A  
DOCKED: BRANCH  10  12
DOCKED: ATOM     12  C   UNL     1     140.145  68.139 227.426 -0.29 -0.09    +0.416 C  
DOCKED: ATOM     13  F   UNL     1     139.612  68.413 228.672 -0.12 +0.03    -0.166 F  
DOCKED: ATOM     14  F   UNL     1     139.236  67.385 226.702 -0.24 +0.02    -0.166 F  
DOCKED: ATOM     15  F   UNL     1     141.299  67.390 227.585 -0.16 +0.05    -0.166 F  
DOCKED: ENDBRANCH  10  12
DOCKED: ENDBRANCH   5   6
DOCKED: ENDBRANCH   4   5
DOCKED: ENDBRANCH   3   4
DOCKED: ENDBRANCH   1   3
DOCKED: BRANCH   1  16
DOCKED: ATOM     16  C   UNL     1     139.009  74.832 220.901 -0.15 -0.01    +0.060 C  
DOCKED: BRANCH  16  17
DOCKED: ATOM     17  C   UNL     1     137.728  75.101 221.708 -0.18 -0.01    +0.048 C  
DOCKED: BRANCH  17  18
DOCKED: ATOM     18  C   UNL     1     137.913  76.105 222.854 -0.13 -0.06    +0.230 C  
DOCKED: BRANCH  18  19
DOCKED: ATOM     19  O   UNL     1     138.241  77.405 222.352 -0.09 +0.09    -0.492 OA 
DOCKED: BRANCH  19  20
DOCKED: ATOM     20  C   UNL     1     139.368  78.178 222.685 -0.26 -0.03    +0.137 A  
DOCKED: ATOM     21  C   UNL     1     140.691  77.714 222.533 -0.41 -0.02    +0.049 A  
DOCKED: ATOM     22  C   UNL     1     139.156  79.461 223.217 -0.32 -0.01    +0.084 A  
DOCKED: ATOM     23  C   UNL     1     141.771  78.522 222.900 -0.47 -0.01    +0.024 A  
DOCKED: ATOM     24  C   UNL     1     140.241  80.265 223.583 -0.42 -0.01    +0.045 A  
DOCKED: ATOM     25  C   UNL     1     141.547  79.797 223.426 -0.55 -0.01    +0.042 A  
DOCKED: ATOM     26  Cl  UNL     1     137.524  80.080 223.422 -0.33 +0.01    -0.080 Cl 
DOCKED: ATOM     27  Cl  UNL     1     142.903  80.803 223.899 -0.74 +0.02    -0.084 Cl 
DOCKED: ENDBRANCH  19  20
DOCKED: ENDBRANCH  18  19
DOCKED: ENDBRANCH  17  18
DOCKED: ENDBRANCH  16  17
DOCKED: ENDBRANCH   1  16
DOCKED: TORSDOF 10
DOCKED: TER
DOCKED: ENDMDL
________________________________________________________________________________


    FINAL DOCKED STATE:
    ________________________


Run:   12 / 20
Time taken for this run:   0.031s

DOCKED: MODEL        12
DOCKED: USER    Run = 12
DOCKED: USER
DOCKED: USER    Estimated Free Energy of Binding    =  -6.31 kcal/mol  [=(1)+(2)+(3)-(4)]
DOCKED: USER
DOCKED: USER    (1) Final Intermolecular Energy     =  -9.30 kcal/mol
DOCKED: USER        vdW + Hbond + desolv Energy     =  -9.36 kcal/mol
DOCKED: USER        Electrostatic Energy            =  +0.07 kcal/mol
DOCKED: USER        Moving Ligand-Fixed Receptor    =  -9.30 kcal/mol
DOCKED: USER        Moving Ligand-Moving Receptor   =  +0.00 kcal/mol
DOCKED: USER    (2) Final Total Internal Energy     =  -0.66 kcal/mol
DOCKED: USER    (3) Torsional Free Energy           =  +2.98 kcal/mol
DOCKED: USER    (4) Unbound System's Energy         =  -0.66 kcal/mol
DOCKED: USER
DOCKED: USER
DOCKED: REMARK SMILES O=C(CCCOc1ccc(Cl)cc1Cl)[N-]/N=C\c1cccc(C(F)(F)F)c1
DOCKED: REMARK SMILES IDX 2 1 1 2 15 3 16 4 17 5 18 6 19 7 27 8 20 9 22 10 21 11 23 12
DOCKED: REMARK SMILES IDX 24 13 25 14 26 15 3 16 4 17 5 18 6 19 7 20 8 21 13 22 9 23
DOCKED: REMARK SMILES IDX 12 24 10 25 14 26 11 27
DOCKED: REMARK H PARENT
DOCKED: USER                              x       y       z     vdW  Elec       q    Type
DOCKED: USER                           _______ _______ _______ _____ _____    ______ ____
DOCKED: ROOT
DOCKED: ATOM      1  C   UNL     1     141.329  73.283 220.770 -0.22 -0.01    +0.068 C  
DOCKED: ATOM      2  O   UNL     1     141.532  72.146 220.268 -0.08 +0.05    -0.319 OA 
DOCKED: ENDROOT
DOCKED: BRANCH   1   3
DOCKED: ATOM      3  N   UNL     1     140.248  73.447 221.690 -0.31 +0.07    -0.545 NA 
DOCKED: BRANCH   3   4
DOCKED: ATOM      4  N   UNL     1     140.234  72.808 222.939 -0.43 +0.02    -0.372 NA 
DOCKED: BRANCH   4   5
DOCKED: ATOM      5  C   UNL     1     140.136  71.520 223.079 -0.31 -0.01    +0.094 C  
DOCKED: BRANCH   5   6
DOCKED: ATOM      6  C   UNL     1     140.062  70.839 224.391 -0.43 +0.00    -0.009 A  
DOCKED: ATOM      7  C   UNL     1     139.591  69.521 224.519 -0.35 -0.00    +0.009 A  
DOCKED: ATOM      8  C   UNL     1     140.541  71.507 225.529 -0.55 -0.00    +0.022 A  
DOCKED: ATOM      9  C   UNL     1     139.565  68.899 225.769 -0.49 -0.00    +0.001 A  
DOCKED: ATOM     10  C   UNL     1     140.487  70.901 226.796 -0.59 -0.01    +0.056 A  
DOCKED: ATOM     11  C   UNL     1     140.011  69.582 226.902 -0.55 -0.00    +0.013 A  
DOCKED: BRANCH  10  12
DOCKED: ATOM     12  C   UNL     1     141.020  71.631 228.003 -0.39 -0.09    +0.416 C  
DOCKED: ATOM     13  F   UNL     1     141.743  70.749 228.784 -0.10 +0.03    -0.166 F  
DOCKED: ATOM     14  F   UNL     1     141.848  72.669 227.608 -0.33 +0.03    -0.166 F  
DOCKED: ATOM     15  F   UNL     1     139.990  72.163 228.760 -0.28 +0.06    -0.166 F  
DOCKED: ENDBRANCH  10  12
DOCKED: ENDBRANCH   5   6
DOCKED: ENDBRANCH   4   5
DOCKED: ENDBRANCH   3   4
DOCKED: ENDBRANCH   1   3
DOCKED: BRANCH   1  16
DOCKED: ATOM     16  C   UNL     1     142.257  74.425 220.447 -0.27 -0.02    +0.060 C  
DOCKED: BRANCH  16  17
DOCKED: ATOM     17  C   UNL     1     141.749  75.310 219.297 -0.16 -0.02    +0.048 C  
DOCKED: BRANCH  17  18
DOCKED: ATOM     18  C   UNL     1     142.363  76.716 219.274 -0.22 -0.13    +0.230 C  
DOCKED: BRANCH  18  19
DOCKED: ATOM     19  O   UNL     1     141.410  77.701 219.689 -0.05 +0.25    -0.492 OA 
DOCKED: BRANCH  19  20
DOCKED: ATOM     20  C   UNL     1     141.571  78.649 220.715 -0.25 -0.07    +0.137 A  
DOCKED: ATOM     21  C   UNL     1     142.043  79.958 220.485 -0.24 -0.03    +0.049 A  
DOCKED: ATOM     22  C   UNL     1     141.268  78.259 222.030 -0.37 -0.04    +0.084 A  
DOCKED: ATOM     23  C   UNL     1     142.199  80.851 221.549 -0.40 -0.01    +0.024 A  
DOCKED: ATOM     24  C   UNL     1     141.427  79.157 223.091 -0.52 -0.01    +0.045 A  
DOCKED: ATOM     25  C   UNL     1     141.893  80.451 222.853 -0.54 -0.01    +0.042 A  
DOCKED: ATOM     26  Cl  UNL     1     140.676  76.638 222.363 -0.46 +0.02    -0.080 Cl 
DOCKED: ATOM     27  Cl  UNL     1     142.104  81.569 224.186 -0.49 +0.01    -0.084 Cl 
DOCKED: ENDBRANCH  19  20
DOCKED: ENDBRANCH  18  19
DOCKED: ENDBRANCH  17  18
DOCKED: ENDBRANCH  16  17
DOCKED: ENDBRANCH   1  16
DOCKED: TORSDOF 10
DOCKED: TER
DOCKED: ENDMDL
________________________________________________________________________________


    FINAL DOCKED STATE:
    ________________________


Run:   13 / 20
Time taken for this run:   0.031s

DOCKED: MODEL        13
DOCKED: USER    Run = 13
DOCKED: USER
DOCKED: USER    Estimated Free Energy of Binding    =  -6.27 kcal/mol  [=(1)+(2)+(3)-(4)]
DOCKED: USER
DOCKED: USER    (1) Final Intermolecular Energy     =  -9.25 kcal/mol
DOCKED: USER        vdW + Hbond + desolv Energy     =  -9.36 kcal/mol
DOCKED: USER        Electrostatic Energy            =  +0.11 kcal/mol
DOCKED: USER        Moving Ligand-Fixed Receptor    =  -9.25 kcal/mol
DOCKED: USER        Moving Ligand-Moving Receptor   =  +0.00 kcal/mol
DOCKED: USER    (2) Final Total Internal Energy     =  -0.88 kcal/mol
DOCKED: USER    (3) Torsional Free Energy           =  +2.98 kcal/mol
DOCKED: USER    (4) Unbound System's Energy         =  -0.88 kcal/mol
DOCKED: USER
DOCKED: USER
DOCKED: REMARK SMILES O=C(CCCOc1ccc(Cl)cc1Cl)[N-]/N=C\c1cccc(C(F)(F)F)c1
DOCKED: REMARK SMILES IDX 2 1 1 2 15 3 16 4 17 5 18 6 19 7 27 8 20 9 22 10 21 11 23 12
DOCKED: REMARK SMILES IDX 24 13 25 14 26 15 3 16 4 17 5 18 6 19 7 20 8 21 13 22 9 23
DOCKED: REMARK SMILES IDX 12 24 10 25 14 26 11 27
DOCKED: REMARK H PARENT
DOCKED: USER                              x       y       z     vdW  Elec       q    Type
DOCKED: USER                           _______ _______ _______ _____ _____    ______ ____
DOCKED: ROOT
DOCKED: ATOM      1  C   UNL     1     140.896  73.542 221.825 -0.19 -0.00    +0.068 C  
DOCKED: ATOM      2  O   UNL     1     141.782  73.011 221.104 -0.16 +0.04    -0.319 OA 
DOCKED: ENDROOT
DOCKED: BRANCH   1   3
DOCKED: ATOM      3  N   UNL     1     140.367  72.799 222.925 -0.33 +0.02    -0.545 NA 
DOCKED: BRANCH   3   4
DOCKED: ATOM      4  N   UNL     1     139.576  71.656 222.735 -0.14 +0.07    -0.372 NA 
DOCKED: BRANCH   4   5
DOCKED: ATOM      5  C   UNL     1     139.906  70.481 223.182 -0.19 -0.02    +0.094 C  
DOCKED: BRANCH   5   6
DOCKED: ATOM      6  C   UNL     1     139.903  70.116 224.617 -0.39 +0.00    -0.009 A  
DOCKED: ATOM      7  C   UNL     1     139.513  68.841 225.059 -0.41 -0.00    +0.009 A  
DOCKED: ATOM      8  C   UNL     1     140.371  71.051 225.554 -0.55 -0.00    +0.022 A  
DOCKED: ATOM      9  C   UNL     1     139.553  68.522 226.418 -0.58 -0.00    +0.001 A  
DOCKED: ATOM     10  C   UNL     1     140.382  70.751 226.927 -0.57 -0.01    +0.056 A  
DOCKED: ATOM     11  C   UNL     1     139.986  69.469 227.349 -0.58 -0.00    +0.013 A  
DOCKED: BRANCH  10  12
DOCKED: ATOM     12  C   UNL     1     140.901  71.765 227.915 -0.41 -0.09    +0.416 C  
DOCKED: ATOM     13  F   UNL     1     141.813  71.154 228.756 -0.17 +0.03    -0.166 F  
DOCKED: ATOM     14  F   UNL     1     141.527  72.806 227.249 -0.33 +0.04    -0.166 F  
DOCKED: ATOM     15  F   UNL     1     139.872  72.293 228.675 -0.27 +0.06    -0.166 F  
DOCKED: ENDBRANCH  10  12
DOCKED: ENDBRANCH   5   6
DOCKED: ENDBRANCH   4   5
DOCKED: ENDBRANCH   3   4
DOCKED: ENDBRANCH   1   3
DOCKED: BRANCH   1  16
DOCKED: ATOM     16  C   UNL     1     140.460  74.960 221.561 -0.31 -0.01    +0.060 C  
DOCKED: BRANCH  16  17
DOCKED: ATOM     17  C   UNL     1     139.176  75.347 222.313 -0.25 -0.01    +0.048 C  
DOCKED: BRANCH  17  18
DOCKED: ATOM     18  C   UNL     1     138.294  76.353 221.563 -0.15 -0.05    +0.230 C  
DOCKED: BRANCH  18  19
DOCKED: ATOM     19  O   UNL     1     139.068  77.453 221.074 -0.01 +0.12    -0.492 OA 
DOCKED: BRANCH  19  20
DOCKED: ATOM     20  C   UNL     1     139.958  78.252 221.815 -0.22 -0.04    +0.137 A  
DOCKED: ATOM     21  C   UNL     1     139.595  78.896 223.016 -0.34 -0.01    +0.049 A  
DOCKED: ATOM     22  C   UNL     1     141.259  78.432 221.316 -0.30 -0.04    +0.084 A  
DOCKED: ATOM     23  C   UNL     1     140.518  79.694 223.698 -0.47 -0.00    +0.024 A  
DOCKED: ATOM     24  C   UNL     1     142.179  79.232 222.003 -0.45 -0.02    +0.045 A  
DOCKED: ATOM     25  C   UNL     1     141.810  79.863 223.192 -0.56 -0.01    +0.042 A  
DOCKED: ATOM     26  Cl  UNL     1     141.755  77.647 219.823 -0.36 +0.05    -0.080 Cl 
DOCKED: ATOM     27  Cl  UNL     1     142.961  80.875 224.043 -0.68 +0.01    -0.084 Cl 
DOCKED: ENDBRANCH  19  20
DOCKED: ENDBRANCH  18  19
DOCKED: ENDBRANCH  17  18
DOCKED: ENDBRANCH  16  17
DOCKED: ENDBRANCH   1  16
DOCKED: TORSDOF 10
DOCKED: TER
DOCKED: ENDMDL
________________________________________________________________________________


    FINAL DOCKED STATE:
    ________________________


Run:   14 / 20
Time taken for this run:   0.031s

DOCKED: MODEL        14
DOCKED: USER    Run = 14
DOCKED: USER
DOCKED: USER    Estimated Free Energy of Binding    =  -6.19 kcal/mol  [=(1)+(2)+(3)-(4)]
DOCKED: USER
DOCKED: USER    (1) Final Intermolecular Energy     =  -9.17 kcal/mol
DOCKED: USER        vdW + Hbond + desolv Energy     =  -9.24 kcal/mol
DOCKED: USER        Electrostatic Energy            =  +0.07 kcal/mol
DOCKED: USER        Moving Ligand-Fixed Receptor    =  -9.17 kcal/mol
DOCKED: USER        Moving Ligand-Moving Receptor   =  +0.00 kcal/mol
DOCKED: USER    (2) Final Total Internal Energy     =  -0.82 kcal/mol
DOCKED: USER    (3) Torsional Free Energy           =  +2.98 kcal/mol
DOCKED: USER    (4) Unbound System's Energy         =  -0.82 kcal/mol
DOCKED: USER
DOCKED: USER
DOCKED: REMARK SMILES O=C(CCCOc1ccc(Cl)cc1Cl)[N-]/N=C\c1cccc(C(F)(F)F)c1
DOCKED: REMARK SMILES IDX 2 1 1 2 15 3 16 4 17 5 18 6 19 7 27 8 20 9 22 10 21 11 23 12
DOCKED: REMARK SMILES IDX 24 13 25 14 26 15 3 16 4 17 5 18 6 19 7 20 8 21 13 22 9 23
DOCKED: REMARK SMILES IDX 12 24 10 25 14 26 11 27
DOCKED: REMARK H PARENT
DOCKED: USER                              x       y       z     vdW  Elec       q    Type
DOCKED: USER                           _______ _______ _______ _____ _____    ______ ____
DOCKED: ROOT
DOCKED: ATOM      1  C   UNL     1     139.793  74.736 221.632 -0.27 -0.01    +0.068 C  
DOCKED: ATOM      2  O   UNL     1     139.800  75.387 222.711 -0.44 +0.02    -0.319 OA 
DOCKED: ENDROOT
DOCKED: BRANCH   1   3
DOCKED: ATOM      3  N   UNL     1     140.057  73.332 221.673 -0.24 +0.08    -0.545 NA 
DOCKED: BRANCH   3   4
DOCKED: ATOM      4  N   UNL     1     140.318  72.662 222.878 -0.45 +0.03    -0.372 NA 
DOCKED: BRANCH   4   5
DOCKED: ATOM      5  C   UNL     1     140.001  71.418 223.083 -0.30 -0.02    +0.094 C  
DOCKED: BRANCH   5   6
DOCKED: ATOM      6  C   UNL     1     140.013  70.777 224.418 -0.43 +0.00    -0.009 A  
DOCKED: ATOM      7  C   UNL     1     139.650  69.431 224.598 -0.34 -0.00    +0.009 A  
DOCKED: ATOM      8  C   UNL     1     140.466  71.517 225.521 -0.54 -0.00    +0.022 A  
DOCKED: ATOM      9  C   UNL     1     139.703  68.850 225.868 -0.50 -0.00    +0.001 A  
DOCKED: ATOM     10  C   UNL     1     140.490  70.951 226.807 -0.59 -0.01    +0.056 A  
DOCKED: ATOM     11  C   UNL     1     140.121  69.603 226.967 -0.56 -0.00    +0.013 A  
DOCKED: BRANCH  10  12
DOCKED: ATOM     12  C   UNL     1     140.994  71.759 227.976 -0.40 -0.09    +0.416 C  
DOCKED: ATOM     13  F   UNL     1     139.916  72.212 228.714 -0.29 +0.06    -0.166 F  
DOCKED: ATOM     14  F   UNL     1     141.800  70.976 228.787 -0.13 +0.03    -0.166 F  
DOCKED: ATOM     15  F   UNL     1     141.735  72.847 227.548 -0.32 +0.04    -0.166 F  
DOCKED: ENDBRANCH  10  12
DOCKED: ENDBRANCH   5   6
DOCKED: ENDBRANCH   4   5
DOCKED: ENDBRANCH   3   4
DOCKED: ENDBRANCH   1   3
DOCKED: BRANCH   1  16
DOCKED: ATOM     16  C   UNL     1     139.445  75.425 220.339 -0.12 -0.01    +0.060 C  
DOCKED: BRANCH  16  17
DOCKED: ATOM     17  C   UNL     1     138.057  76.085 220.361 -0.07 -0.01    +0.048 C  
DOCKED: BRANCH  17  18
DOCKED: ATOM     18  C   UNL     1     138.077  77.590 220.059 -0.02 -0.05    +0.230 C  
DOCKED: BRANCH  18  19
DOCKED: ATOM     19  O   UNL     1     138.191  78.355 221.263 -0.00 +0.10    -0.492 OA 
DOCKED: BRANCH  19  20
DOCKED: ATOM     20  C   UNL     1     139.373  78.869 221.826 -0.17 -0.03    +0.137 A  
DOCKED: ATOM     21  C   UNL     1     140.659  78.531 221.356 -0.26 -0.02    +0.049 A  
DOCKED: ATOM     22  C   UNL     1     139.259  79.740 222.923 -0.30 -0.01    +0.084 A  
DOCKED: ATOM     23  C   UNL     1     141.798  79.060 221.969 -0.45 -0.01    +0.024 A  
DOCKED: ATOM     24  C   UNL     1     140.403  80.266 223.533 -0.43 -0.01    +0.045 A  
DOCKED: ATOM     25  C   UNL     1     141.671  79.927 223.058 -0.53 -0.01    +0.042 A  
DOCKED: ATOM     26  Cl  UNL     1     137.676  80.190 223.540 -0.36 +0.01    -0.080 Cl 
DOCKED: ATOM     27  Cl  UNL     1     143.102  80.577 223.834 -0.71 +0.02    -0.084 Cl 
DOCKED: ENDBRANCH  19  20
DOCKED: ENDBRANCH  18  19
DOCKED: ENDBRANCH  17  18
DOCKED: ENDBRANCH  16  17
DOCKED: ENDBRANCH   1  16
DOCKED: TORSDOF 10
DOCKED: TER
DOCKED: ENDMDL
________________________________________________________________________________


    FINAL DOCKED STATE:
    ________________________


Run:   15 / 20
Time taken for this run:   0.031s

DOCKED: MODEL        15
DOCKED: USER    Run = 15
DOCKED: USER
DOCKED: USER    Estimated Free Energy of Binding    =  -6.56 kcal/mol  [=(1)+(2)+(3)-(4)]
DOCKED: USER
DOCKED: USER    (1) Final Intermolecular Energy     =  -9.54 kcal/mol
DOCKED: USER        vdW + Hbond + desolv Energy     =  -9.58 kcal/mol
DOCKED: USER        Electrostatic Energy            =  +0.04 kcal/mol
DOCKED: USER        Moving Ligand-Fixed Receptor    =  -9.54 kcal/mol
DOCKED: USER        Moving Ligand-Moving Receptor   =  +0.00 kcal/mol
DOCKED: USER    (2) Final Total Internal Energy     =  -0.77 kcal/mol
DOCKED: USER    (3) Torsional Free Energy           =  +2.98 kcal/mol
DOCKED: USER    (4) Unbound System's Energy         =  -0.77 kcal/mol
DOCKED: USER
DOCKED: USER
DOCKED: REMARK SMILES O=C(CCCOc1ccc(Cl)cc1Cl)[N-]/N=C\c1cccc(C(F)(F)F)c1
DOCKED: REMARK SMILES IDX 2 1 1 2 15 3 16 4 17 5 18 6 19 7 27 8 20 9 22 10 21 11 23 12
DOCKED: REMARK SMILES IDX 24 13 25 14 26 15 3 16 4 17 5 18 6 19 7 20 8 21 13 22 9 23
DOCKED: REMARK SMILES IDX 12 24 10 25 14 26 11 27
DOCKED: REMARK H PARENT
DOCKED: USER                              x       y       z     vdW  Elec       q    Type
DOCKED: USER                           _______ _______ _______ _____ _____    ______ ____
DOCKED: ROOT
DOCKED: ATOM      1  C   UNL     1     140.529  74.748 221.044 -0.25 -0.01    +0.068 C  
DOCKED: ATOM      2  O   UNL     1     139.527  75.036 220.337 -0.05 +0.07    -0.319 OA 
DOCKED: ENDROOT
DOCKED: BRANCH   1   3
DOCKED: ATOM      3  N   UNL     1     140.319  74.174 222.336 -0.58 -0.03    -0.545 NA 
DOCKED: BRANCH   3   4
DOCKED: ATOM      4  N   UNL     1     139.852  72.861 222.497 -0.45 +0.06    -0.372 NA 
DOCKED: BRANCH   4   5
DOCKED: ATOM      5  C   UNL     1     140.582  71.901 222.981 -0.28 -0.01    +0.094 C  
DOCKED: BRANCH   5   6
DOCKED: ATOM      6  C   UNL     1     140.264  71.176 224.232 -0.45 +0.00    -0.009 A  
DOCKED: ATOM      7  C   UNL     1     139.576  69.950 224.227 -0.34 -0.00    +0.009 A  
DOCKED: ATOM      8  C   UNL     1     140.725  71.697 225.451 -0.50 -0.00    +0.022 A  
DOCKED: ATOM      9  C   UNL     1     139.322  69.280 225.426 -0.43 -0.00    +0.001 A  
DOCKED: ATOM     10  C   UNL     1     140.443  71.047 226.665 -0.59 -0.01    +0.056 A  
DOCKED: ATOM     11  C   UNL     1     139.752  69.822 226.639 -0.50 -0.00    +0.013 A  
DOCKED: BRANCH  10  12
DOCKED: ATOM     12  C   UNL     1     140.960  71.616 227.962 -0.40 -0.09    +0.416 C  
DOCKED: ATOM     13  F   UNL     1     139.897  72.102 228.701 -0.29 +0.05    -0.166 F  
DOCKED: ATOM     14  F   UNL     1     141.606  70.632 228.692 -0.14 +0.03    -0.166 F  
DOCKED: ATOM     15  F   UNL     1     141.857  72.645 227.733 -0.31 +0.03    -0.166 F  
DOCKED: ENDBRANCH  10  12
DOCKED: ENDBRANCH   5   6
DOCKED: ENDBRANCH   4   5
DOCKED: ENDBRANCH   3   4
DOCKED: ENDBRANCH   1   3
DOCKED: BRANCH   1  16
DOCKED: ATOM     16  C   UNL     1     141.919  74.949 220.498 -0.27 -0.02    +0.060 C  
DOCKED: BRANCH  16  17
DOCKED: ATOM     17  C   UNL     1     141.930  75.543 219.080 -0.17 -0.02    +0.048 C  
DOCKED: BRANCH  17  18
DOCKED: ATOM     18  C   UNL     1     142.375  77.011 219.023 -0.22 -0.14    +0.230 C  
DOCKED: BRANCH  18  19
DOCKED: ATOM     19  O   UNL     1     141.403  77.868 219.632 -0.05 +0.25    -0.492 OA 
DOCKED: BRANCH  19  20
DOCKED: ATOM     20  C   UNL     1     141.602  78.716 220.737 -0.25 -0.07    +0.137 A  
DOCKED: ATOM     21  C   UNL     1     141.503  78.275 222.072 -0.38 -0.02    +0.049 A  
DOCKED: ATOM     22  C   UNL     1     141.887  80.069 220.488 -0.28 -0.04    +0.084 A  
DOCKED: ATOM     23  C   UNL     1     141.692  79.170 223.129 -0.56 -0.01    +0.024 A  
DOCKED: ATOM     24  C   UNL     1     142.075  80.961 221.551 -0.38 -0.01    +0.045 A  
DOCKED: ATOM     25  C   UNL     1     141.977  80.513 222.869 -0.55 -0.01    +0.042 A  
DOCKED: ATOM     26  Cl  UNL     1     142.020  80.662 218.839 -0.36 +0.05    -0.080 Cl 
DOCKED: ATOM     27  Cl  UNL     1     142.200  81.636 224.197 -0.54 +0.01    -0.084 Cl 
DOCKED: ENDBRANCH  19  20
DOCKED: ENDBRANCH  18  19
DOCKED: ENDBRANCH  17  18
DOCKED: ENDBRANCH  16  17
DOCKED: ENDBRANCH   1  16
DOCKED: TORSDOF 10
DOCKED: TER
DOCKED: ENDMDL
________________________________________________________________________________


    FINAL DOCKED STATE:
    ________________________


Run:   16 / 20
Time taken for this run:   0.031s

DOCKED: MODEL        16
DOCKED: USER    Run = 16
DOCKED: USER
DOCKED: USER    Estimated Free Energy of Binding    =  -5.20 kcal/mol  [=(1)+(2)+(3)-(4)]
DOCKED: USER
DOCKED: USER    (1) Final Intermolecular Energy     =  -8.18 kcal/mol
DOCKED: USER        vdW + Hbond + desolv Energy     =  -7.88 kcal/mol
DOCKED: USER        Electrostatic Energy            =  -0.30 kcal/mol
DOCKED: USER        Moving Ligand-Fixed Receptor    =  -8.18 kcal/mol
DOCKED: USER        Moving Ligand-Moving Receptor   =  +0.00 kcal/mol
DOCKED: USER    (2) Final Total Internal Energy     =  -1.31 kcal/mol
DOCKED: USER    (3) Torsional Free Energy           =  +2.98 kcal/mol
DOCKED: USER    (4) Unbound System's Energy         =  -1.31 kcal/mol
DOCKED: USER
DOCKED: USER
DOCKED: REMARK SMILES O=C(CCCOc1ccc(Cl)cc1Cl)[N-]/N=C\c1cccc(C(F)(F)F)c1
DOCKED: REMARK SMILES IDX 2 1 1 2 15 3 16 4 17 5 18 6 19 7 27 8 20 9 22 10 21 11 23 12
DOCKED: REMARK SMILES IDX 24 13 25 14 26 15 3 16 4 17 5 18 6 19 7 20 8 21 13 22 9 23
DOCKED: REMARK SMILES IDX 12 24 10 25 14 26 11 27
DOCKED: REMARK H PARENT
DOCKED: USER                              x       y       z     vdW  Elec       q    Type
DOCKED: USER                           _______ _______ _______ _____ _____    ______ ____
DOCKED: ROOT
DOCKED: ATOM      1  C   UNL     1     142.098  71.547 220.019 -0.15 -0.01    +0.068 C  
DOCKED: ATOM      2  O   UNL     1     142.047  72.747 219.638 -0.05 +0.06    -0.319 OA 
DOCKED: ENDROOT
DOCKED: BRANCH   1   3
DOCKED: ATOM      3  N   UNL     1     141.310  71.146 221.141 +0.04 +0.06    -0.545 NA 
DOCKED: BRANCH   3   4
DOCKED: ATOM      4  N   UNL     1     141.121  71.982 222.252 -0.12 +0.02    -0.372 NA 
DOCKED: BRANCH   4   5
DOCKED: ATOM      5  C   UNL     1     140.099  71.886 223.049 -0.31 -0.01    +0.094 C  
DOCKED: BRANCH   5   6
DOCKED: ATOM      6  C   UNL     1     140.095  71.072 224.286 -0.44 +0.00    -0.009 A  
DOCKED: ATOM      7  C   UNL     1     139.728  69.715 224.281 -0.31 -0.00    +0.009 A  
DOCKED: ATOM      8  C   UNL     1     140.538  71.656 225.482 -0.49 -0.00    +0.022 A  
DOCKED: ATOM      9  C   UNL     1     139.767  68.970 225.461 -0.45 -0.00    +0.001 A  
DOCKED: ATOM     10  C   UNL     1     140.548  70.923 226.681 -0.59 -0.01    +0.056 A  
DOCKED: ATOM     11  C   UNL     1     140.175  69.568 226.656 -0.54 -0.00    +0.013 A  
DOCKED: BRANCH  10  12
DOCKED: ATOM     12  C   UNL     1     141.041  71.566 227.953 -0.40 -0.09    +0.416 C  
DOCKED: ATOM     13  F   UNL     1     141.724  70.626 228.702 -0.12 +0.03    -0.166 F  
DOCKED: ATOM     14  F   UNL     1     141.894  72.617 227.659 -0.32 +0.03    -0.166 F  
DOCKED: ATOM     15  F   UNL     1     139.987  72.060 228.703 -0.29 +0.05    -0.166 F  
DOCKED: ENDBRANCH  10  12
DOCKED: ENDBRANCH   5   6
DOCKED: ENDBRANCH   4   5
DOCKED: ENDBRANCH   3   4
DOCKED: ENDBRANCH   1   3
DOCKED: BRANCH   1  16
DOCKED: ATOM     16  C   UNL     1     142.929  70.550 219.254 -0.13 -0.01    +0.060 C  
DOCKED: BRANCH  16  17
DOCKED: ATOM     17  C   UNL     1     144.378  70.460 219.758 -0.17 +0.00    +0.048 C  
DOCKED: BRANCH  17  18
DOCKED: ATOM     18  C   UNL     1     145.434  70.675 218.665 -0.17 +0.12    +0.230 C  
DOCKED: BRANCH  18  19
DOCKED: ATOM     19  O   UNL     1     145.902  72.027 218.661 -0.51 -0.55    -0.492 OA 
DOCKED: BRANCH  19  20
DOCKED: ATOM     20  C   UNL     1     145.149  73.181 218.943 -0.25 +0.01    +0.137 A  
DOCKED: ATOM     21  C   UNL     1     145.041  73.732 220.237 -0.50 -0.01    +0.049 A  
DOCKED: ATOM     22  C   UNL     1     144.454  73.793 217.886 -0.15 -0.02    +0.084 A  
DOCKED: ATOM     23  C   UNL     1     144.262  74.870 220.459 -0.37 -0.01    +0.024 A  
DOCKED: ATOM     24  C   UNL     1     143.675  74.932 218.114 -0.20 -0.02    +0.045 A  
DOCKED: ATOM     25  C   UNL     1     143.577  75.471 219.398 -0.35 -0.02    +0.042 A  
DOCKED: ATOM     26  Cl  UNL     1     144.561  73.141 216.257 -0.11 +0.00    -0.080 Cl 
DOCKED: ATOM     27  Cl  UNL     1     142.589  76.890 219.683 -0.42 +0.06    -0.084 Cl 
DOCKED: ENDBRANCH  19  20
DOCKED: ENDBRANCH  18  19
DOCKED: ENDBRANCH  17  18
DOCKED: ENDBRANCH  16  17
DOCKED: ENDBRANCH   1  16
DOCKED: TORSDOF 10
DOCKED: TER
DOCKED: ENDMDL
________________________________________________________________________________


    FINAL DOCKED STATE:
    ________________________


Run:   17 / 20
Time taken for this run:   0.031s

DOCKED: MODEL        17
DOCKED: USER    Run = 17
DOCKED: USER
DOCKED: USER    Estimated Free Energy of Binding    =  -6.08 kcal/mol  [=(1)+(2)+(3)-(4)]
DOCKED: USER
DOCKED: USER    (1) Final Intermolecular Energy     =  -9.07 kcal/mol
DOCKED: USER        vdW + Hbond + desolv Energy     =  -9.19 kcal/mol
DOCKED: USER        Electrostatic Energy            =  +0.12 kcal/mol
DOCKED: USER        Moving Ligand-Fixed Receptor    =  -9.07 kcal/mol
DOCKED: USER        Moving Ligand-Moving Receptor   =  +0.00 kcal/mol
DOCKED: USER    (2) Final Total Internal Energy     =  -0.64 kcal/mol
DOCKED: USER    (3) Torsional Free Energy           =  +2.98 kcal/mol
DOCKED: USER    (4) Unbound System's Energy         =  -0.64 kcal/mol
DOCKED: USER
DOCKED: USER
DOCKED: REMARK SMILES O=C(CCCOc1ccc(Cl)cc1Cl)[N-]/N=C\c1cccc(C(F)(F)F)c1
DOCKED: REMARK SMILES IDX 2 1 1 2 15 3 16 4 17 5 18 6 19 7 27 8 20 9 22 10 21 11 23 12
DOCKED: REMARK SMILES IDX 24 13 25 14 26 15 3 16 4 17 5 18 6 19 7 20 8 21 13 22 9 23
DOCKED: REMARK SMILES IDX 12 24 10 25 14 26 11 27
DOCKED: REMARK H PARENT
DOCKED: USER                              x       y       z     vdW  Elec       q    Type
DOCKED: USER                           _______ _______ _______ _____ _____    ______ ____
DOCKED: ROOT
DOCKED: ATOM      1  C   UNL     1     138.551  73.767 221.615 -0.18 -0.02    +0.068 C  
DOCKED: ATOM      2  O   UNL     1     137.653  74.535 221.178 -0.06 +0.07    -0.319 OA 
DOCKED: ENDROOT
DOCKED: BRANCH   1   3
DOCKED: ATOM      3  N   UNL     1     139.644  74.330 222.343 -0.60 +0.06    -0.545 NA 
DOCKED: BRANCH   3   4
DOCKED: ATOM      4  N   UNL     1     139.979  75.689 222.246 -0.39 +0.06    -0.372 NA 
DOCKED: BRANCH   4   5
DOCKED: ATOM      5  C   UNL     1     141.094  76.112 221.728 -0.29 -0.03    +0.094 C  
DOCKED: BRANCH   5   6
DOCKED: ATOM      6  C   UNL     1     141.371  77.534 221.423 -0.32 +0.00    -0.009 A  
DOCKED: ATOM      7  C   UNL     1     141.494  78.000 220.103 -0.27 -0.00    +0.009 A  
DOCKED: ATOM      8  C   UNL     1     141.444  78.452 222.482 -0.47 -0.01    +0.022 A  
DOCKED: ATOM      9  C   UNL     1     141.725  79.355 219.852 -0.29 -0.00    +0.001 A  
DOCKED: ATOM     10  C   UNL     1     141.710  79.811 222.241 -0.45 -0.02    +0.056 A  
DOCKED: ATOM     11  C   UNL     1     141.832  80.257 220.913 -0.37 -0.01    +0.013 A  
DOCKED: BRANCH  10  12
DOCKED: ATOM     12  C   UNL     1     141.770  80.783 223.392 -0.29 -0.08    +0.416 C  
DOCKED: ATOM     13  F   UNL     1     141.891  82.068 222.897 -0.15 +0.02    -0.166 F  
DOCKED: ATOM     14  F   UNL     1     140.614  80.697 224.151 -0.10 +0.02    -0.166 F  
DOCKED: ATOM     15  F   UNL     1     142.849  80.514 224.216 -0.23 +0.03    -0.166 F  
DOCKED: ENDBRANCH  10  12
DOCKED: ENDBRANCH   5   6
DOCKED: ENDBRANCH   4   5
DOCKED: ENDBRANCH   3   4
DOCKED: ENDBRANCH   1   3
DOCKED: BRANCH   1  16
DOCKED: ATOM     16  C   UNL     1     138.428  72.278 221.423 -0.12 -0.01    +0.060 C  
DOCKED: BRANCH  16  17
DOCKED: ATOM     17  C   UNL     1     139.783  71.582 221.218 -0.15 -0.01    +0.048 C  
DOCKED: BRANCH  17  18
DOCKED: ATOM     18  C   UNL     1     140.648  71.517 222.484 -0.18 -0.02    +0.230 C  
DOCKED: BRANCH  18  19
DOCKED: ATOM     19  O   UNL     1     139.838  71.539 223.663 -0.17 +0.10    -0.492 OA 
DOCKED: BRANCH  19  20
DOCKED: ATOM     20  C   UNL     1     140.095  70.872 224.875 -0.39 -0.02    +0.137 A  
DOCKED: ATOM     21  C   UNL     1     140.797  71.464 225.945 -0.59 -0.01    +0.049 A  
DOCKED: ATOM     22  C   UNL     1     139.648  69.546 225.007 -0.35 -0.01    +0.084 A  
DOCKED: ATOM     23  C   UNL     1     141.037  70.743 227.118 -0.63 -0.00    +0.024 A  
DOCKED: ATOM     24  C   UNL     1     139.893  68.829 226.184 -0.50 -0.01    +0.045 A  
DOCKED: ATOM     25  C   UNL     1     140.587  69.426 227.238 -0.56 -0.01    +0.042 A  
DOCKED: ATOM     26  Cl  UNL     1     138.768  68.769 223.699 -0.36 +0.01    -0.080 Cl 
DOCKED: ATOM     27  Cl  UNL     1     140.903  68.520 228.705 -0.71 +0.02    -0.084 Cl 
DOCKED: ENDBRANCH  19  20
DOCKED: ENDBRANCH  18  19
DOCKED: ENDBRANCH  17  18
DOCKED: ENDBRANCH  16  17
DOCKED: ENDBRANCH   1  16
DOCKED: TORSDOF 10
DOCKED: TER
DOCKED: ENDMDL
________________________________________________________________________________


    FINAL DOCKED STATE:
    ________________________


Run:   18 / 20
Time taken for this run:   0.031s

DOCKED: MODEL        18
DOCKED: USER    Run = 18
DOCKED: USER
DOCKED: USER    Estimated Free Energy of Binding    =  -5.55 kcal/mol  [=(1)+(2)+(3)-(4)]
DOCKED: USER
DOCKED: USER    (1) Final Intermolecular Energy     =  -8.53 kcal/mol
DOCKED: USER        vdW + Hbond + desolv Energy     =  -8.55 kcal/mol
DOCKED: USER        Electrostatic Energy            =  +0.02 kcal/mol
DOCKED: USER        Moving Ligand-Fixed Receptor    =  -8.53 kcal/mol
DOCKED: USER        Moving Ligand-Moving Receptor   =  +0.00 kcal/mol
DOCKED: USER    (2) Final Total Internal Energy     =  -1.24 kcal/mol
DOCKED: USER    (3) Torsional Free Energy           =  +2.98 kcal/mol
DOCKED: USER    (4) Unbound System's Energy         =  -1.24 kcal/mol
DOCKED: USER
DOCKED: USER
DOCKED: REMARK SMILES O=C(CCCOc1ccc(Cl)cc1Cl)[N-]/N=C\c1cccc(C(F)(F)F)c1
DOCKED: REMARK SMILES IDX 2 1 1 2 15 3 16 4 17 5 18 6 19 7 27 8 20 9 22 10 21 11 23 12
DOCKED: REMARK SMILES IDX 24 13 25 14 26 15 3 16 4 17 5 18 6 19 7 20 8 21 13 22 9 23
DOCKED: REMARK SMILES IDX 12 24 10 25 14 26 11 27
DOCKED: REMARK H PARENT
DOCKED: USER                              x       y       z     vdW  Elec       q    Type
DOCKED: USER                           _______ _______ _______ _____ _____    ______ ____
DOCKED: ROOT
DOCKED: ATOM      1  C   UNL     1     140.124  72.498 222.457 -0.29 -0.01    +0.068 C  
DOCKED: ATOM      2  O   UNL     1     140.180  72.264 223.693 -0.35 +0.05    -0.319 OA 
DOCKED: ENDROOT
DOCKED: BRANCH   1   3
DOCKED: ATOM      3  N   UNL     1     140.752  73.677 221.949 -0.54 +0.02    -0.545 NA 
DOCKED: BRANCH   3   4
DOCKED: ATOM      4  N   UNL     1     140.299  74.962 222.285 -0.52 +0.01    -0.372 NA 
DOCKED: BRANCH   4   5
DOCKED: ATOM      5  C   UNL     1     140.989  76.040 222.064 -0.26 -0.03    +0.094 C  
DOCKED: BRANCH   5   6
DOCKED: ATOM      6  C   UNL     1     140.546  77.396 222.460 -0.41 +0.00    -0.009 A  
DOCKED: ATOM      7  C   UNL     1     139.198  77.688 222.730 -0.30 -0.00    +0.009 A  
DOCKED: ATOM      8  C   UNL     1     141.512  78.399 222.639 -0.46 -0.01    +0.022 A  
DOCKED: ATOM      9  C   UNL     1     138.821  78.971 223.132 -0.33 -0.00    +0.001 A  
DOCKED: ATOM     10  C   UNL     1     141.138  79.701 223.010 -0.46 -0.01    +0.056 A  
DOCKED: ATOM     11  C   UNL     1     139.783  79.974 223.273 -0.41 -0.00    +0.013 A  
DOCKED: BRANCH  10  12
DOCKED: ATOM     12  C   UNL     1     142.193  80.760 223.210 -0.31 -0.09    +0.416 C  
DOCKED: ATOM     13  F   UNL     1     143.432  80.154 223.308 -0.25 +0.05    -0.166 F  
DOCKED: ATOM     14  F   UNL     1     142.201  81.636 222.137 -0.16 +0.03    -0.166 F  
DOCKED: ATOM     15  F   UNL     1     141.955  81.489 224.363 -0.20 +0.01    -0.166 F  
DOCKED: ENDBRANCH  10  12
DOCKED: ENDBRANCH   5   6
DOCKED: ENDBRANCH   4   5
DOCKED: ENDBRANCH   3   4
DOCKED: ENDBRANCH   1   3
DOCKED: BRANCH   1  16
DOCKED: ATOM     16  C   UNL     1     139.461  71.510 221.533 -0.16 -0.01    +0.060 C  
DOCKED: BRANCH  16  17
DOCKED: ATOM     17  C   UNL     1     140.045  71.527 220.111 -0.08 -0.01    +0.048 C  
DOCKED: BRANCH  17  18
DOCKED: ATOM     18  C   UNL     1     140.029  72.910 219.447 -0.03 -0.04    +0.230 C  
DOCKED: BRANCH  18  19
DOCKED: ATOM     19  O   UNL     1     141.304  73.222 218.877 +0.02 +0.10    -0.492 OA 
DOCKED: BRANCH  19  20
DOCKED: ATOM     20  C   UNL     1     142.547  73.212 219.536 -0.12 -0.03    +0.137 A  
DOCKED: ATOM     21  C   UNL     1     143.127  72.041 220.065 -0.22 -0.01    +0.049 A  
DOCKED: ATOM     22  C   UNL     1     143.223  74.434 219.691 -0.28 -0.03    +0.084 A  
DOCKED: ATOM     23  C   UNL     1     144.357  72.097 220.727 -0.31 -0.00    +0.024 A  
DOCKED: ATOM     24  C   UNL     1     144.454  74.483 220.355 -0.45 -0.02    +0.045 A  
DOCKED: ATOM     25  C   UNL     1     145.021  73.318 220.874 -0.54 -0.01    +0.042 A  
DOCKED: ATOM     26  Cl  UNL     1     142.538  75.918 219.047 -0.36 +0.04    -0.080 Cl 
DOCKED: ATOM     27  Cl  UNL     1     146.556  73.387 221.716 -0.79 +0.01    -0.084 Cl 
DOCKED: ENDBRANCH  19  20
DOCKED: ENDBRANCH  18  19
DOCKED: ENDBRANCH  17  18
DOCKED: ENDBRANCH  16  17
DOCKED: ENDBRANCH   1  16
DOCKED: TORSDOF 10
DOCKED: TER
DOCKED: ENDMDL
________________________________________________________________________________


    FINAL DOCKED STATE:
    ________________________


Run:   19 / 20
Time taken for this run:   0.031s

DOCKED: MODEL        19
DOCKED: USER    Run = 19
DOCKED: USER
DOCKED: USER    Estimated Free Energy of Binding    =  -6.18 kcal/mol  [=(1)+(2)+(3)-(4)]
DOCKED: USER
DOCKED: USER    (1) Final Intermolecular Energy     =  -9.17 kcal/mol
DOCKED: USER        vdW + Hbond + desolv Energy     =  -9.40 kcal/mol
DOCKED: USER        Electrostatic Energy            =  +0.24 kcal/mol
DOCKED: USER        Moving Ligand-Fixed Receptor    =  -9.17 kcal/mol
DOCKED: USER        Moving Ligand-Moving Receptor   =  +0.00 kcal/mol
DOCKED: USER    (2) Final Total Internal Energy     =  -0.78 kcal/mol
DOCKED: USER    (3) Torsional Free Energy           =  +2.98 kcal/mol
DOCKED: USER    (4) Unbound System's Energy         =  -0.78 kcal/mol
DOCKED: USER
DOCKED: USER
DOCKED: REMARK SMILES O=C(CCCOc1ccc(Cl)cc1Cl)[N-]/N=C\c1cccc(C(F)(F)F)c1
DOCKED: REMARK SMILES IDX 2 1 1 2 15 3 16 4 17 5 18 6 19 7 27 8 20 9 22 10 21 11 23 12
DOCKED: REMARK SMILES IDX 24 13 25 14 26 15 3 16 4 17 5 18 6 19 7 20 8 21 13 22 9 23
DOCKED: REMARK SMILES IDX 12 24 10 25 14 26 11 27
DOCKED: REMARK H PARENT
DOCKED: USER                              x       y       z     vdW  Elec       q    Type
DOCKED: USER                           _______ _______ _______ _____ _____    ______ ____
DOCKED: ROOT
DOCKED: ATOM      1  C   UNL     1     139.886  74.824 221.067 -0.22 -0.01    +0.068 C  
DOCKED: ATOM      2  O   UNL     1     139.086  75.548 221.718 -0.20 +0.07    -0.319 OA 
DOCKED: ENDROOT
DOCKED: BRANCH   1   3
DOCKED: ATOM      3  N   UNL     1     139.994  73.440 221.406 -0.15 +0.09    -0.545 NA 
DOCKED: BRANCH   3   4
DOCKED: ATOM      4  N   UNL     1     140.192  73.014 222.728 -0.56 +0.02    -0.372 NA 
DOCKED: BRANCH   4   5
DOCKED: ATOM      5  C   UNL     1     140.654  71.839 223.034 -0.27 -0.01    +0.094 C  
DOCKED: BRANCH   5   6
DOCKED: ATOM      6  C   UNL     1     140.298  71.113 224.275 -0.45 +0.00    -0.009 A  
DOCKED: ATOM      7  C   UNL     1     139.571  69.910 224.250 -0.34 -0.00    +0.009 A  
DOCKED: ATOM      8  C   UNL     1     140.761  71.607 225.505 -0.54 -0.00    +0.022 A  
DOCKED: ATOM      9  C   UNL     1     139.281  69.237 225.439 -0.43 -0.00    +0.001 A  
DOCKED: ATOM     10  C   UNL     1     140.444  70.954 226.708 -0.58 -0.01    +0.056 A  
DOCKED: ATOM     11  C   UNL     1     139.715  69.753 226.662 -0.50 -0.00    +0.013 A  
DOCKED: BRANCH  10  12
DOCKED: ATOM     12  C   UNL     1     140.964  71.493 228.017 -0.38 -0.09    +0.416 C  
DOCKED: ATOM     13  F   UNL     1     139.898  71.917 228.789 -0.27 +0.05    -0.166 F  
DOCKED: ATOM     14  F   UNL     1     141.654  70.506 228.701 -0.13 +0.03    -0.166 F  
DOCKED: ATOM     15  F   UNL     1     141.823  72.560 227.811 -0.31 +0.04    -0.166 F  
DOCKED: ENDBRANCH  10  12
DOCKED: ENDBRANCH   5   6
DOCKED: ENDBRANCH   4   5
DOCKED: ENDBRANCH   3   4
DOCKED: ENDBRANCH   1   3
DOCKED: BRANCH   1  16
DOCKED: ATOM     16  C   UNL     1     140.658  75.406 219.911 -0.14 -0.02    +0.060 C  
DOCKED: BRANCH  16  17
DOCKED: ATOM     17  C   UNL     1     141.944  76.126 220.347 -0.25 -0.02    +0.048 C  
DOCKED: BRANCH  17  18
DOCKED: ATOM     18  C   UNL     1     141.812  77.654 220.412 -0.21 -0.14    +0.230 C  
DOCKED: BRANCH  18  19
DOCKED: ATOM     19  O   UNL     1     141.853  78.117 221.765 -0.08 +0.31    -0.492 OA 
DOCKED: BRANCH  19  20
DOCKED: ATOM     20  C   UNL     1     140.838  78.810 222.450 -0.34 -0.04    +0.137 A  
DOCKED: ATOM     21  C   UNL     1     139.486  78.406 222.434 -0.29 -0.01    +0.049 A  
DOCKED: ATOM     22  C   UNL     1     141.191  79.970 223.159 -0.46 -0.02    +0.084 A  
DOCKED: ATOM     23  C   UNL     1     138.519  79.147 223.119 -0.30 -0.00    +0.024 A  
DOCKED: ATOM     24  C   UNL     1     140.218  80.707 223.843 -0.36 -0.01    +0.045 A  
DOCKED: ATOM     25  C   UNL     1     138.883  80.299 223.822 -0.39 -0.00    +0.042 A  
DOCKED: ATOM     26  Cl  UNL     1     142.864  80.508 223.207 -0.80 +0.02    -0.080 Cl 
DOCKED: ATOM     27  Cl  UNL     1     137.665  81.233 224.669 -0.46 +0.01    -0.084 Cl 
DOCKED: ENDBRANCH  19  20
DOCKED: ENDBRANCH  18  19
DOCKED: ENDBRANCH  17  18
DOCKED: ENDBRANCH  16  17
DOCKED: ENDBRANCH   1  16
DOCKED: TORSDOF 10
DOCKED: TER
DOCKED: ENDMDL
________________________________________________________________________________


    FINAL DOCKED STATE:
    ________________________


Run:   20 / 20
Time taken for this run:   0.031s

DOCKED: MODEL        20
DOCKED: USER    Run = 20
DOCKED: USER
DOCKED: USER    Estimated Free Energy of Binding    =  -6.40 kcal/mol  [=(1)+(2)+(3)-(4)]
DOCKED: USER
DOCKED: USER    (1) Final Intermolecular Energy     =  -9.38 kcal/mol
DOCKED: USER        vdW + Hbond + desolv Energy     =  -9.43 kcal/mol
DOCKED: USER        Electrostatic Energy            =  +0.05 kcal/mol
DOCKED: USER        Moving Ligand-Fixed Receptor    =  -9.38 kcal/mol
DOCKED: USER        Moving Ligand-Moving Receptor   =  +0.00 kcal/mol
DOCKED: USER    (2) Final Total Internal Energy     =  -0.75 kcal/mol
DOCKED: USER    (3) Torsional Free Energy           =  +2.98 kcal/mol
DOCKED: USER    (4) Unbound System's Energy         =  -0.75 kcal/mol
DOCKED: USER
DOCKED: USER
DOCKED: REMARK SMILES O=C(CCCOc1ccc(Cl)cc1Cl)[N-]/N=C\c1cccc(C(F)(F)F)c1
DOCKED: REMARK SMILES IDX 2 1 1 2 15 3 16 4 17 5 18 6 19 7 27 8 20 9 22 10 21 11 23 12
DOCKED: REMARK SMILES IDX 24 13 25 14 26 15 3 16 4 17 5 18 6 19 7 20 8 21 13 22 9 23
DOCKED: REMARK SMILES IDX 12 24 10 25 14 26 11 27
DOCKED: REMARK H PARENT
DOCKED: USER                              x       y       z     vdW  Elec       q    Type
DOCKED: USER                           _______ _______ _______ _____ _____    ______ ____
DOCKED: ROOT
DOCKED: ATOM      1  C   UNL     1     140.304  72.487 221.976 -0.28 -0.01    +0.068 C  
DOCKED: ATOM      2  O   UNL     1     141.517  72.200 221.794 -0.17 +0.02    -0.319 OA 
DOCKED: ENDROOT
DOCKED: BRANCH   1   3
DOCKED: ATOM      3  N   UNL     1     139.960  73.827 222.336 -0.66 +0.03    -0.545 NA 
DOCKED: BRANCH   3   4
DOCKED: ATOM      4  N   UNL     1     140.769  74.919 221.986 -0.53 +0.03    -0.372 NA 
DOCKED: BRANCH   4   5
DOCKED: ATOM      5  C   UNL     1     140.310  75.987 221.407 -0.29 -0.02    +0.094 C  
DOCKED: BRANCH   5   6
DOCKED: ATOM      6  C   UNL     1     140.102  77.277 222.105 -0.36 +0.00    -0.009 A  
DOCKED: ATOM      7  C   UNL     1     138.848  77.649 222.620 -0.30 -0.00    +0.009 A  
DOCKED: ATOM      8  C   UNL     1     141.205  78.117 222.318 -0.43 -0.01    +0.022 A  
DOCKED: ATOM      9  C   UNL     1     138.696  78.859 223.301 -0.28 -0.00    +0.001 A  
DOCKED: ATOM     10  C   UNL     1     141.055  79.352 222.972 -0.46 -0.02    +0.056 A  
DOCKED: ATOM     11  C   UNL     1     139.792  79.707 223.478 -0.43 -0.00    +0.013 A  
DOCKED: BRANCH  10  12
DOCKED: ATOM     12  C   UNL     1     142.256  80.234 223.202 -0.32 -0.11    +0.416 C  
DOCKED: ATOM     13  F   UNL     1     142.641  80.140 224.527 -0.13 +0.03    -0.166 F  
DOCKED: ATOM     14  F   UNL     1     143.308  79.830 222.396 -0.19 +0.09    -0.166 F  
DOCKED: ATOM     15  F   UNL     1     141.968  81.556 222.909 -0.18 +0.03    -0.166 F  
DOCKED: ENDBRANCH  10  12
DOCKED: ENDBRANCH   5   6
DOCKED: ENDBRANCH   4   5
DOCKED: ENDBRANCH   3   4
DOCKED: ENDBRANCH   1   3
DOCKED: BRANCH   1  16
DOCKED: ATOM     16  C   UNL     1     139.241  71.444 221.751 -0.17 -0.01    +0.060 C  
DOCKED: BRANCH  16  17
DOCKED: ATOM     17  C   UNL     1     138.008  71.635 222.649 -0.18 -0.01    +0.048 C  
DOCKED: BRANCH  17  18
DOCKED: ATOM     18  C   UNL     1     137.810  70.518 223.683 -0.17 -0.04    +0.230 C  
DOCKED: BRANCH  18  19
DOCKED: ATOM     19  O   UNL     1     139.007  69.751 223.847 -0.07 +0.08    -0.492 OA 
DOCKED: BRANCH  19  20
DOCKED: ATOM     20  C   UNL     1     139.570  69.318 225.062 -0.32 -0.02    +0.137 A  
DOCKED: ATOM     21  C   UNL     1     139.327  68.041 225.609 -0.49 -0.00    +0.049 A  
DOCKED: ATOM     22  C   UNL     1     140.393  70.213 225.766 -0.46 -0.01    +0.084 A  
DOCKED: ATOM     23  C   UNL     1     139.901  67.674 226.830 -0.64 -0.00    +0.024 A  
DOCKED: ATOM     24  C   UNL     1     140.964  69.840 226.988 -0.54 -0.01    +0.045 A  
DOCKED: ATOM     25  C   UNL     1     140.718  68.573 227.521 -0.63 -0.01    +0.042 A  
DOCKED: ATOM     26  Cl  UNL     1     140.724  71.814 225.120 -0.32 +0.01    -0.080 Cl 
DOCKED: ATOM     27  Cl  UNL     1     141.425  68.114 229.058 -0.47 +0.02    -0.084 Cl 
DOCKED: ENDBRANCH  19  20
DOCKED: ENDBRANCH  18  19
DOCKED: ENDBRANCH  17  18
DOCKED: ENDBRANCH  16  17
DOCKED: ENDBRANCH   1  16
DOCKED: TORSDOF 10
DOCKED: TER
DOCKED: ENDMDL
________________________________________________________________________________


    CLUSTERING HISTOGRAM
    ____________________


________________________________________________________________________________
     |           |     |           |     |
Clus | Lowest    | Run | Mean      | Num | Histogram
-ter | Binding   |     | Binding   | in  |
Rank | Energy    |     | Energy    | Clus|    5    10   15   20   25   30   35
_____|___________|_____|___________|_____|____:____|____:____|____:____|____:___
   1 |     -6.57 |  11 |     -6.47 |   6 |######
   2 |     -6.57 |  10 |     -6.31 |   6 |######
   3 |     -6.40 |  20 |     -6.24 |   2 |##
   4 |     -6.25 |   9 |     -6.25 |   1 |#
   5 |     -5.55 |  18 |     -5.55 |   1 |#
   6 |     -5.40 |   3 |     -5.16 |   2 |##
   7 |     -5.20 |  16 |     -5.20 |   1 |#
   8 |     -4.02 |   5 |     -4.02 |   1 |#
_____|___________|_____|___________|_____|______________________________________


    RMSD TABLE
    __________


_______________________________________________________________________
     |      |      |           |         |                 |
Rank | Sub- | Run  | Binding   | Cluster | Reference       | Grep
     | Rank |      | Energy    | RMSD    | RMSD            | Pattern
_____|______|______|___________|_________|_________________|___________
   1      1     11       -6.57      0.00    272.51           RANKING
   1      2      8       -6.56      1.89    272.66           RANKING
   1      3      7       -6.55      1.78    272.65           RANKING
   1      4      2       -6.55      1.73    272.68           RANKING
   1      5      6       -6.39      1.88    272.39           RANKING
   1      6     14       -6.19      1.87    272.48           RANKING
   2      1     10       -6.57      0.00    272.53           RANKING
   2      2     15       -6.56      1.51    272.50           RANKING
   2      3     12       -6.31      1.58    272.54           RANKING
   2      4     13       -6.27      0.79    272.59           RANKING
   2      5     19       -6.18      1.62    272.71           RANKING
   2      6      4       -6.00      1.61    272.48           RANKING
   3      1     20       -6.40      0.00    272.39           RANKING
   3      2     17       -6.08      1.75    272.19           RANKING
   4      1      9       -6.25      0.00    271.89           RANKING
   5      1     18       -5.55      0.00    271.74           RANKING
   6      1      3       -5.40      0.00    271.66           RANKING
   6      2      1       -4.92      1.64    271.49           RANKING
   7      1     16       -5.20      0.00    271.61           RANKING
   8      1      5       -4.02      0.00    271.64           RANKING

Run time 0.593 sec
Idle time 0.000 sec
