AutoDock-GPU version: v1.6

**********************************************************
**    AutoDock-GPU AUTODOCKTOOLS-COMPATIBLE DLG FILE    **
**********************************************************


    DOCKING PARAMETERS
    ________________________


Ligand file:                               /home/a/REINVENT4/ReinventStudies/scoringData/graph-dock/graph-DockGPU/node-autodockgpu/inputs/VHXSVHVNRGGTDL-PKHXXGQGNA-M.pdbqt
Grid fld file:                             /home/a/REINVENT4/ReinventStudies/mols/Rad51/maps/rad51_receptor.maps.fld

Random seed:                               42
Number of runs:                            20
Number of energy evaluations:              2542121
Number of generations:                     42000
Size of population:                        150
Rate of crossover:                         80.000000%
Tournament selection probability limit:    60.000000%
Rate of mutation:                          2.000000%
Maximal allowed delta movement:            +/- 6.000000A
Maximal allowed delta angle:               +/- 90.000000

Rate of local search:                      100.000000%
Maximal number of local search iterations: 300
Rho lower bound:                           0.010000
Spread of local search delta movement:     2.000000A
Spread of local search delta angle:        74.999999
Limit of consecutive successes/failures:   4

Handle symmetry during clustering:         YES
RMSD tolerance:                            2.000000A

Program call in command line was:          /home/a/REINVENT4/ReinventStudies/adgpu-v1.6_linux_x64_cuda12_128wi --filelist batch.txt --heuristics 1 --nrun 20 --psize 150 --lsit 300 --seed 42 --heurmax 12000000 


    GRID PARAMETERS
    ________________________


Receptor name:                             rad51_receptor
Number of grid points (x, y, z):           53, 53, 53
Grid center (x, y, z):                     139.950000, 75.640000, 221.970000A
Grid size (x, y, z):                       19.500000, 19.500000, 19.500000A
Grid spacing:                              0.375000A


    LIGAND PARAMETERS
    ________________________


Ligand name:                               /home/a/REINVENT4/ReinventStudies/scoringData/graph-dock/graph-DockGPU/node-autodockgpu/inputs/VHXSVHVNRGGTDL-PKHXXGQGNA-M
Number of atoms:                           27
Number of rotatable bonds:                 10
Number of atom types:                      6


    DUMMY DATA (only for ADT-compatibility)
    ________________________


DPF> outlev 1
DPF> ga_run 20
DPF> fld /home/a/REINVENT4/ReinventStudies/mols/Rad51/maps/rad51_receptor.maps.fld
DPF> move /home/a/REINVENT4/ReinventStudies/scoringData/graph-dock/graph-DockGPU/node-autodockgpu/inputs/VHXSVHVNRGGTDL-PKHXXGQGNA-M.pdbqt


    COUNTER STATES
    ________________________


Number of energy evaluations performed:    965487
Number of generations used:                55


    INPUT LIGAND PDBQT FILE:
    ________________________


INPUT-LIGAND-PDBQT: REMARK SMILES O=C(CCCOc1ccc(Cl)cc1Cl)[N-]/N=C/c1cccc(C(F)(F)F)c1
INPUT-LIGAND-PDBQT: REMARK SMILES IDX 2 1 1 2 15 3 16 4 17 5 18 6 19 7 27 8 20 9 22 10 21 11 23 12
INPUT-LIGAND-PDBQT: REMARK SMILES IDX 24 13 25 14 26 15 3 16 4 17 5 18 6 19 7 20 8 21 13 22 9 23
INPUT-LIGAND-PDBQT: REMARK SMILES IDX 12 24 10 25 14 26 11 27
INPUT-LIGAND-PDBQT: REMARK H PARENT
INPUT-LIGAND-PDBQT: ROOT
INPUT-LIGAND-PDBQT: ATOM      1  C   UNL     1      -0.999   2.915  -1.271  1.00  0.00     0.068 C 
INPUT-LIGAND-PDBQT: ATOM      2  O   UNL     1      -1.316   4.130  -1.367  1.00  0.00    -0.319 OA
INPUT-LIGAND-PDBQT: ENDROOT
INPUT-LIGAND-PDBQT: BRANCH   1   3
INPUT-LIGAND-PDBQT: ATOM      3  N   UNL     1      -2.036   1.934  -1.207  1.00  0.00    -0.545 NA
INPUT-LIGAND-PDBQT: BRANCH   3   4
INPUT-LIGAND-PDBQT: ATOM      4  N   UNL     1      -1.749   0.566  -1.127  1.00  0.00    -0.372 NA
INPUT-LIGAND-PDBQT: BRANCH   4   5
INPUT-LIGAND-PDBQT: ATOM      5  C   UNL     1      -2.695  -0.313  -1.048  1.00  0.00     0.094 C 
INPUT-LIGAND-PDBQT: BRANCH   5   6
INPUT-LIGAND-PDBQT: ATOM      6  C   UNL     1      -2.383  -1.749  -0.913  1.00  0.00    -0.009 A 
INPUT-LIGAND-PDBQT: ATOM      7  C   UNL     1      -3.430  -2.672  -0.781  1.00  0.00     0.009 A 
INPUT-LIGAND-PDBQT: ATOM      8  C   UNL     1      -1.052  -2.209  -0.889  1.00  0.00     0.022 A 
INPUT-LIGAND-PDBQT: ATOM      9  C   UNL     1      -3.156  -4.032  -0.629  1.00  0.00     0.001 A 
INPUT-LIGAND-PDBQT: ATOM     10  C   UNL     1      -0.770  -3.575  -0.704  1.00  0.00     0.056 A 
INPUT-LIGAND-PDBQT: ATOM     11  C   UNL     1      -1.835  -4.484  -0.597  1.00  0.00     0.013 A 
INPUT-LIGAND-PDBQT: BRANCH  10  12
INPUT-LIGAND-PDBQT: ATOM     12  C   UNL     1       0.653  -4.077  -0.705  1.00  0.00     0.416 C 
INPUT-LIGAND-PDBQT: ATOM     13  F   UNL     1       0.794  -5.118   0.196  1.00  0.00    -0.166 F 
INPUT-LIGAND-PDBQT: ATOM     14  F   UNL     1       1.537  -3.074  -0.350  1.00  0.00    -0.166 F 
INPUT-LIGAND-PDBQT: ATOM     15  F   UNL     1       0.974  -4.530  -1.971  1.00  0.00    -0.166 F 
INPUT-LIGAND-PDBQT: ENDBRANCH  10  12
INPUT-LIGAND-PDBQT: ENDBRANCH   5   6
INPUT-LIGAND-PDBQT: ENDBRANCH   4   5
INPUT-LIGAND-PDBQT: ENDBRANCH   3   4
INPUT-LIGAND-PDBQT: ENDBRANCH   1   3
INPUT-LIGAND-PDBQT: BRANCH   1  16
INPUT-LIGAND-PDBQT: ATOM     16  C   UNL     1       0.456   2.517  -1.305  1.00  0.00     0.060 C 
INPUT-LIGAND-PDBQT: BRANCH  16  17
INPUT-LIGAND-PDBQT: ATOM     17  C   UNL     1       1.347   3.431  -0.452  1.00  0.00     0.048 C 
INPUT-LIGAND-PDBQT: BRANCH  17  18
INPUT-LIGAND-PDBQT: ATOM     18  C   UNL     1       1.060   3.338   1.051  1.00  0.00     0.230 C 
INPUT-LIGAND-PDBQT: BRANCH  18  19
INPUT-LIGAND-PDBQT: ATOM     19  O   UNL     1       1.390   2.039   1.551  1.00  0.00    -0.492 OA
INPUT-LIGAND-PDBQT: BRANCH  19  20
INPUT-LIGAND-PDBQT: ATOM     20  C   UNL     1       0.501   0.982   1.818  1.00  0.00     0.137 A 
INPUT-LIGAND-PDBQT: ATOM     21  C   UNL     1      -0.891   1.165   1.960  1.00  0.00     0.049 A 
INPUT-LIGAND-PDBQT: ATOM     22  C   UNL     1       1.035  -0.309   1.974  1.00  0.00     0.084 A 
INPUT-LIGAND-PDBQT: ATOM     23  C   UNL     1      -1.719   0.078   2.255  1.00  0.00     0.024 A 
INPUT-LIGAND-PDBQT: ATOM     24  C   UNL     1       0.199  -1.392   2.266  1.00  0.00     0.045 A 
INPUT-LIGAND-PDBQT: ATOM     25  C   UNL     1      -1.176  -1.200   2.409  1.00  0.00     0.042 A 
INPUT-LIGAND-PDBQT: ATOM     26  Cl  UNL     1       2.761  -0.585   1.796  1.00  0.00    -0.080 Cl
INPUT-LIGAND-PDBQT: ATOM     27  Cl  UNL     1      -2.221  -2.561   2.773  1.00  0.00    -0.084 Cl
INPUT-LIGAND-PDBQT: ENDBRANCH  19  20
INPUT-LIGAND-PDBQT: ENDBRANCH  18  19
INPUT-LIGAND-PDBQT: ENDBRANCH  17  18
INPUT-LIGAND-PDBQT: ENDBRANCH  16  17
INPUT-LIGAND-PDBQT: ENDBRANCH   1  16
INPUT-LIGAND-PDBQT: TORSDOF 10


    FINAL DOCKED STATE:
    ________________________


Run:   1 / 20
Time taken for this run:   0.040s

DOCKED: MODEL        1
DOCKED: USER    Run = 1
DOCKED: USER
DOCKED: USER    Estimated Free Energy of Binding    =  -6.03 kcal/mol  [=(1)+(2)+(3)-(4)]
DOCKED: USER
DOCKED: USER    (1) Final Intermolecular Energy     =  -9.02 kcal/mol
DOCKED: USER        vdW + Hbond + desolv Energy     =  -9.23 kcal/mol
DOCKED: USER        Electrostatic Energy            =  +0.21 kcal/mol
DOCKED: USER        Moving Ligand-Fixed Receptor    =  -9.02 kcal/mol
DOCKED: USER        Moving Ligand-Moving Receptor   =  +0.00 kcal/mol
DOCKED: USER    (2) Final Total Internal Energy     =  -0.76 kcal/mol
DOCKED: USER    (3) Torsional Free Energy           =  +2.98 kcal/mol
DOCKED: USER    (4) Unbound System's Energy         =  -0.76 kcal/mol
DOCKED: USER
DOCKED: USER
DOCKED: REMARK SMILES O=C(CCCOc1ccc(Cl)cc1Cl)[N-]/N=C/c1cccc(C(F)(F)F)c1
DOCKED: REMARK SMILES IDX 2 1 1 2 15 3 16 4 17 5 18 6 19 7 27 8 20 9 22 10 21 11 23 12
DOCKED: REMARK SMILES IDX 24 13 25 14 26 15 3 16 4 17 5 18 6 19 7 20 8 21 13 22 9 23
DOCKED: REMARK SMILES IDX 12 24 10 25 14 26 11 27
DOCKED: REMARK H PARENT
DOCKED: USER                              x       y       z     vdW  Elec       q    Type
DOCKED: USER                           _______ _______ _______ _____ _____    ______ ____
DOCKED: ROOT
DOCKED: ATOM      1  C   UNL     1     138.605  74.010 221.762 -0.18 -0.02    +0.068 C  
DOCKED: ATOM      2  O   UNL     1     137.665  74.839 221.638 -0.10 +0.08    -0.319 OA 
DOCKED: ENDROOT
DOCKED: BRANCH   1   3
DOCKED: ATOM      3  N   UNL     1     139.952  74.481 221.700 -0.42 +0.08    -0.545 NA 
DOCKED: BRANCH   3   4
DOCKED: ATOM      4  N   UNL     1     140.249  75.833 221.489 -0.19 +0.09    -0.372 NA 
DOCKED: BRANCH   4   5
DOCKED: ATOM      5  C   UNL     1     140.988  76.493 222.321 -0.27 -0.03    +0.094 C  
DOCKED: BRANCH   5   6
DOCKED: ATOM      6  C   UNL     1     140.610  77.854 222.750 -0.43 +0.00    -0.009 A  
DOCKED: ATOM      7  C   UNL     1     139.271  78.134 223.053 -0.25 -0.00    +0.009 A  
DOCKED: ATOM      8  C   UNL     1     141.567  78.885 222.837 -0.52 -0.01    +0.022 A  
DOCKED: ATOM      9  C   UNL     1     138.889  79.420 223.438 -0.37 -0.00    +0.001 A  
DOCKED: ATOM     10  C   UNL     1     141.181  80.190 223.194 -0.48 -0.01    +0.056 A  
DOCKED: ATOM     11  C   UNL     1     139.838  80.442 223.516 -0.42 -0.00    +0.013 A  
DOCKED: BRANCH  10  12
DOCKED: ATOM     12  C   UNL     1     142.206  81.291 223.316 -0.24 -0.07    +0.416 C  
DOCKED: ATOM     13  F   UNL     1     141.898  82.328 222.452 -0.11 +0.02    -0.166 F  
DOCKED: ATOM     14  F   UNL     1     143.473  80.831 223.007 -0.18 +0.04    -0.166 F  
DOCKED: ATOM     15  F   UNL     1     142.206  81.770 224.613 -0.22 +0.01    -0.166 F  
DOCKED: ENDBRANCH  10  12
DOCKED: ENDBRANCH   5   6
DOCKED: ENDBRANCH   4   5
DOCKED: ENDBRANCH   3   4
DOCKED: ENDBRANCH   1   3
DOCKED: BRANCH   1  16
DOCKED: ATOM     16  C   UNL     1     138.292  72.562 222.049 -0.16 -0.02    +0.060 C  
DOCKED: BRANCH  16  17
DOCKED: ATOM     17  C   UNL     1     139.548  71.682 222.127 -0.23 -0.01    +0.048 C  
DOCKED: BRANCH  17  18
DOCKED: ATOM     18  C   UNL     1     140.361  71.886 223.411 -0.25 -0.03    +0.230 C  
DOCKED: BRANCH  18  19
DOCKED: ATOM     19  O   UNL     1     139.592  71.522 224.561 -0.17 +0.12    -0.492 OA 
DOCKED: BRANCH  19  20
DOCKED: ATOM     20  C   UNL     1     140.024  70.761 225.663 -0.42 -0.02    +0.137 A  
DOCKED: ATOM     21  C   UNL     1     140.710  71.320 226.762 -0.66 -0.01    +0.049 A  
DOCKED: ATOM     22  C   UNL     1     139.779  69.377 225.649 -0.40 -0.01    +0.084 A  
DOCKED: ATOM     23  C   UNL     1     141.140  70.505 227.814 -0.57 -0.00    +0.024 A  
DOCKED: ATOM     24  C   UNL     1     140.209  68.569 226.707 -0.58 -0.01    +0.045 A  
DOCKED: ATOM     25  C   UNL     1     140.891  69.131 227.787 -0.58 -0.01    +0.042 A  
DOCKED: ATOM     26  Cl  UNL     1     138.919  68.640 224.305 -0.42 +0.01    -0.080 Cl 
DOCKED: ATOM     27  Cl  UNL     1     141.427  68.115 229.113 -0.41 +0.02    -0.084 Cl 
DOCKED: ENDBRANCH  19  20
DOCKED: ENDBRANCH  18  19
DOCKED: ENDBRANCH  17  18
DOCKED: ENDBRANCH  16  17
DOCKED: ENDBRANCH   1  16
DOCKED: TORSDOF 10
DOCKED: TER
DOCKED: ENDMDL
________________________________________________________________________________


    FINAL DOCKED STATE:
    ________________________


Run:   2 / 20
Time taken for this run:   0.040s

DOCKED: MODEL        2
DOCKED: USER    Run = 2
DOCKED: USER
DOCKED: USER    Estimated Free Energy of Binding    =  -6.43 kcal/mol  [=(1)+(2)+(3)-(4)]
DOCKED: USER
DOCKED: USER    (1) Final Intermolecular Energy     =  -9.41 kcal/mol
DOCKED: USER        vdW + Hbond + desolv Energy     =  -9.58 kcal/mol
DOCKED: USER        Electrostatic Energy            =  +0.16 kcal/mol
DOCKED: USER        Moving Ligand-Fixed Receptor    =  -9.41 kcal/mol
DOCKED: USER        Moving Ligand-Moving Receptor   =  +0.00 kcal/mol
DOCKED: USER    (2) Final Total Internal Energy     =  -0.82 kcal/mol
DOCKED: USER    (3) Torsional Free Energy           =  +2.98 kcal/mol
DOCKED: USER    (4) Unbound System's Energy         =  -0.82 kcal/mol
DOCKED: USER
DOCKED: USER
DOCKED: REMARK SMILES O=C(CCCOc1ccc(Cl)cc1Cl)[N-]/N=C/c1cccc(C(F)(F)F)c1
DOCKED: REMARK SMILES IDX 2 1 1 2 15 3 16 4 17 5 18 6 19 7 27 8 20 9 22 10 21 11 23 12
DOCKED: REMARK SMILES IDX 24 13 25 14 26 15 3 16 4 17 5 18 6 19 7 20 8 21 13 22 9 23
DOCKED: REMARK SMILES IDX 12 24 10 25 14 26 11 27
DOCKED: REMARK H PARENT
DOCKED: USER                              x       y       z     vdW  Elec       q    Type
DOCKED: USER                           _______ _______ _______ _____ _____    ______ ____
DOCKED: ROOT
DOCKED: ATOM      1  C   UNL     1     140.094  74.982 221.971 -0.22 -0.01    +0.068 C  
DOCKED: ATOM      2  O   UNL     1     141.281  75.079 221.562 -0.36 +0.07    -0.319 OA 
DOCKED: ENDROOT
DOCKED: BRANCH   1   3
DOCKED: ATOM      3  N   UNL     1     139.596  73.696 222.346 -0.61 +0.09    -0.545 NA 
DOCKED: BRANCH   3   4
DOCKED: ATOM      4  N   UNL     1     140.446  72.688 222.817 -0.44 +0.02    -0.372 NA 
DOCKED: BRANCH   4   5
DOCKED: ATOM      5  C   UNL     1     140.021  71.477 222.981 -0.30 -0.02    +0.094 C  
DOCKED: BRANCH   5   6
DOCKED: ATOM      6  C   UNL     1     140.034  70.846 224.315 -0.43 +0.00    -0.009 A  
DOCKED: ATOM      7  C   UNL     1     139.527  69.548 224.469 -0.34 -0.00    +0.009 A  
DOCKED: ATOM      8  C   UNL     1     140.524  71.533 225.444 -0.54 -0.00    +0.022 A  
DOCKED: ATOM      9  C   UNL     1     139.509  68.943 225.726 -0.48 -0.00    +0.001 A  
DOCKED: ATOM     10  C   UNL     1     140.478  70.938 226.718 -0.59 -0.01    +0.056 A  
DOCKED: ATOM     11  C   UNL     1     139.987  69.629 226.844 -0.54 -0.00    +0.013 A  
DOCKED: BRANCH  10  12
DOCKED: ATOM     12  C   UNL     1     141.026  71.658 227.926 -0.40 -0.09    +0.416 C  
DOCKED: ATOM     13  F   UNL     1     141.757  70.785 228.712 -0.13 +0.03    -0.166 F  
DOCKED: ATOM     14  F   UNL     1     140.007  72.186 228.698 -0.29 +0.06    -0.166 F  
DOCKED: ATOM     15  F   UNL     1     141.850  72.686 227.508 -0.33 +0.03    -0.166 F  
DOCKED: ENDBRANCH  10  12
DOCKED: ENDBRANCH   5   6
DOCKED: ENDBRANCH   4   5
DOCKED: ENDBRANCH   3   4
DOCKED: ENDBRANCH   1   3
DOCKED: BRANCH   1  16
DOCKED: ATOM     16  C   UNL     1     139.254  76.225 222.130 -0.30 -0.01    +0.060 C  
DOCKED: BRANCH  16  17
DOCKED: ATOM     17  C   UNL     1     138.133  76.328 221.086 -0.13 -0.01    +0.048 C  
DOCKED: BRANCH  17  18
DOCKED: ATOM     18  C   UNL     1     137.801  77.770 220.684 -0.04 -0.05    +0.230 C  
DOCKED: BRANCH  18  19
DOCKED: ATOM     19  O   UNL     1     138.994  78.502 220.389 +0.02 +0.12    -0.492 OA 
DOCKED: BRANCH  19  20
DOCKED: ATOM     20  C   UNL     1     139.888  79.073 221.312 -0.15 -0.04    +0.137 A  
DOCKED: ATOM     21  C   UNL     1     139.470  79.883 222.390 -0.26 -0.01    +0.049 A  
DOCKED: ATOM     22  C   UNL     1     141.263  78.842 221.132 -0.29 -0.04    +0.084 A  
DOCKED: ATOM     23  C   UNL     1     140.411  80.446 223.256 -0.43 -0.00    +0.024 A  
DOCKED: ATOM     24  C   UNL     1     142.198  79.407 222.005 -0.46 -0.02    +0.045 A  
DOCKED: ATOM     25  C   UNL     1     141.775  80.210 223.065 -0.55 -0.01    +0.042 A  
DOCKED: ATOM     26  Cl  UNL     1     141.829  77.833 219.810 -0.36 +0.05    -0.080 Cl 
DOCKED: ATOM     27  Cl  UNL     1     142.950  80.914 224.160 -0.63 +0.01    -0.084 Cl 
DOCKED: ENDBRANCH  19  20
DOCKED: ENDBRANCH  18  19
DOCKED: ENDBRANCH  17  18
DOCKED: ENDBRANCH  16  17
DOCKED: ENDBRANCH   1  16
DOCKED: TORSDOF 10
DOCKED: TER
DOCKED: ENDMDL
________________________________________________________________________________


    FINAL DOCKED STATE:
    ________________________


Run:   3 / 20
Time taken for this run:   0.040s

DOCKED: MODEL        3
DOCKED: USER    Run = 3
DOCKED: USER
DOCKED: USER    Estimated Free Energy of Binding    =  -5.33 kcal/mol  [=(1)+(2)+(3)-(4)]
DOCKED: USER
DOCKED: USER    (1) Final Intermolecular Energy     =  -8.32 kcal/mol
DOCKED: USER        vdW + Hbond + desolv Energy     =  -8.37 kcal/mol
DOCKED: USER        Electrostatic Energy            =  +0.05 kcal/mol
DOCKED: USER        Moving Ligand-Fixed Receptor    =  -8.32 kcal/mol
DOCKED: USER        Moving Ligand-Moving Receptor   =  +0.00 kcal/mol
DOCKED: USER    (2) Final Total Internal Energy     =  -1.58 kcal/mol
DOCKED: USER    (3) Torsional Free Energy           =  +2.98 kcal/mol
DOCKED: USER    (4) Unbound System's Energy         =  -1.58 kcal/mol
DOCKED: USER
DOCKED: USER
DOCKED: REMARK SMILES O=C(CCCOc1ccc(Cl)cc1Cl)[N-]/N=C/c1cccc(C(F)(F)F)c1
DOCKED: REMARK SMILES IDX 2 1 1 2 15 3 16 4 17 5 18 6 19 7 27 8 20 9 22 10 21 11 23 12
DOCKED: REMARK SMILES IDX 24 13 25 14 26 15 3 16 4 17 5 18 6 19 7 20 8 21 13 22 9 23
DOCKED: REMARK SMILES IDX 12 24 10 25 14 26 11 27
DOCKED: REMARK H PARENT
DOCKED: USER                              x       y       z     vdW  Elec       q    Type
DOCKED: USER                           _______ _______ _______ _____ _____    ______ ____
DOCKED: ROOT
DOCKED: ATOM      1  C   UNL     1     140.234  73.225 221.938 -0.27 -0.01    +0.068 C  
DOCKED: ATOM      2  O   UNL     1     141.034  72.690 222.751 -0.39 -0.01    -0.319 OA 
DOCKED: ENDROOT
DOCKED: BRANCH   1   3
DOCKED: ATOM      3  N   UNL     1     139.832  74.579 222.155 -0.58 +0.05    -0.545 NA 
DOCKED: BRANCH   3   4
DOCKED: ATOM      4  N   UNL     1     140.754  75.632 222.132 -0.34 +0.07    -0.372 NA 
DOCKED: BRANCH   4   5
DOCKED: ATOM      5  C   UNL     1     140.467  76.761 221.569 -0.30 -0.03    +0.094 C  
DOCKED: BRANCH   5   6
DOCKED: ATOM      6  C   UNL     1     140.531  78.023 222.331 -0.40 +0.00    -0.009 A  
DOCKED: ATOM      7  C   UNL     1     141.776  78.511 222.752 -0.45 -0.00    +0.009 A  
DOCKED: ATOM      8  C   UNL     1     139.363  78.735 222.666 -0.31 -0.00    +0.022 A  
DOCKED: ATOM      9  C   UNL     1     141.857  79.690 223.493 -0.61 -0.00    +0.001 A  
DOCKED: ATOM     10  C   UNL     1     139.437  79.907 223.440 -0.38 -0.01    +0.056 A  
DOCKED: ATOM     11  C   UNL     1     140.696  80.390 223.831 -0.44 -0.00    +0.013 A  
DOCKED: BRANCH  10  12
DOCKED: ATOM     12  C   UNL     1     138.191  80.689 223.779 -0.17 -0.05    +0.416 C  
DOCKED: ATOM     13  F   UNL     1     137.074  79.879 223.670 -0.08 +0.02    -0.166 F  
DOCKED: ATOM     14  F   UNL     1     138.031  81.766 222.927 -0.06 +0.02    -0.166 F  
DOCKED: ATOM     15  F   UNL     1     138.286  81.154 225.077 -0.13 +0.01    -0.166 F  
DOCKED: ENDBRANCH  10  12
DOCKED: ENDBRANCH   5   6
DOCKED: ENDBRANCH   4   5
DOCKED: ENDBRANCH   3   4
DOCKED: ENDBRANCH   1   3
DOCKED: BRANCH   1  16
DOCKED: ATOM     16  C   UNL     1     139.784  72.458 220.719 -0.12 -0.01    +0.060 C  
DOCKED: BRANCH  16  17
DOCKED: ATOM     17  C   UNL     1     139.342  73.372 219.567 -0.05 -0.01    +0.048 C  
DOCKED: BRANCH  17  18
DOCKED: ATOM     18  C   UNL     1     140.378  74.441 219.201 -0.03 -0.06    +0.230 C  
DOCKED: BRANCH  18  19
DOCKED: ATOM     19  O   UNL     1     141.591  73.837 218.745 +0.02 +0.12    -0.492 OA 
DOCKED: BRANCH  19  20
DOCKED: ATOM     20  C   UNL     1     142.786  73.681 219.470 -0.15 -0.03    +0.137 A  
DOCKED: ATOM     21  C   UNL     1     143.231  72.435 219.960 -0.22 -0.01    +0.049 A  
DOCKED: ATOM     22  C   UNL     1     143.554  74.828 219.737 -0.34 -0.04    +0.084 A  
DOCKED: ATOM     23  C   UNL     1     144.414  72.349 220.701 -0.38 -0.00    +0.024 A  
DOCKED: ATOM     24  C   UNL     1     144.738  74.734 220.477 -0.39 -0.02    +0.045 A  
DOCKED: ATOM     25  C   UNL     1     145.167  73.497 220.961 -0.56 -0.01    +0.042 A  
DOCKED: ATOM     26  Cl  UNL     1     143.043  76.399 219.138 -0.46 +0.05    -0.080 Cl 
DOCKED: ATOM     27  Cl  UNL     1     146.653  73.383 221.886 -0.77 +0.01    -0.084 Cl 
DOCKED: ENDBRANCH  19  20
DOCKED: ENDBRANCH  18  19
DOCKED: ENDBRANCH  17  18
DOCKED: ENDBRANCH  16  17
DOCKED: ENDBRANCH   1  16
DOCKED: TORSDOF 10
DOCKED: TER
DOCKED: ENDMDL
________________________________________________________________________________


    FINAL DOCKED STATE:
    ________________________


Run:   4 / 20
Time taken for this run:   0.040s

DOCKED: MODEL        4
DOCKED: USER    Run = 4
DOCKED: USER
DOCKED: USER    Estimated Free Energy of Binding    =  -7.01 kcal/mol  [=(1)+(2)+(3)-(4)]
DOCKED: USER
DOCKED: USER    (1) Final Intermolecular Energy     = -10.00 kcal/mol
DOCKED: USER        vdW + Hbond + desolv Energy     = -10.10 kcal/mol
DOCKED: USER        Electrostatic Energy            =  +0.11 kcal/mol
DOCKED: USER        Moving Ligand-Fixed Receptor    = -10.00 kcal/mol
DOCKED: USER        Moving Ligand-Moving Receptor   =  +0.00 kcal/mol
DOCKED: USER    (2) Final Total Internal Energy     =  -0.81 kcal/mol
DOCKED: USER    (3) Torsional Free Energy           =  +2.98 kcal/mol
DOCKED: USER    (4) Unbound System's Energy         =  -0.81 kcal/mol
DOCKED: USER
DOCKED: USER
DOCKED: REMARK SMILES O=C(CCCOc1ccc(Cl)cc1Cl)[N-]/N=C/c1cccc(C(F)(F)F)c1
DOCKED: REMARK SMILES IDX 2 1 1 2 15 3 16 4 17 5 18 6 19 7 27 8 20 9 22 10 21 11 23 12
DOCKED: REMARK SMILES IDX 24 13 25 14 26 15 3 16 4 17 5 18 6 19 7 20 8 21 13 22 9 23
DOCKED: REMARK SMILES IDX 12 24 10 25 14 26 11 27
DOCKED: REMARK H PARENT
DOCKED: USER                              x       y       z     vdW  Elec       q    Type
DOCKED: USER                           _______ _______ _______ _____ _____    ______ ____
DOCKED: ROOT
DOCKED: ATOM      1  C   UNL     1     140.134  74.788 221.628 -0.28 -0.01    +0.068 C  
DOCKED: ATOM      2  O   UNL     1     141.321  75.198 221.726 -0.38 +0.08    -0.319 OA 
DOCKED: ENDROOT
DOCKED: BRANCH   1   3
DOCKED: ATOM      3  N   UNL     1     139.741  73.627 222.363 -0.61 +0.07    -0.545 NA 
DOCKED: BRANCH   3   4
DOCKED: ATOM      4  N   UNL     1     140.674  72.666 222.771 -0.42 +0.01    -0.372 NA 
DOCKED: BRANCH   4   5
DOCKED: ATOM      5  C   UNL     1     140.335  71.426 222.921 -0.28 -0.01    +0.094 C  
DOCKED: BRANCH   5   6
DOCKED: ATOM      6  C   UNL     1     140.144  70.852 224.267 -0.42 +0.00    -0.009 A  
DOCKED: ATOM      7  C   UNL     1     139.425  69.658 224.411 -0.34 -0.00    +0.009 A  
DOCKED: ATOM      8  C   UNL     1     140.650  71.495 225.414 -0.56 -0.00    +0.022 A  
DOCKED: ATOM      9  C   UNL     1     139.213  69.110 225.677 -0.45 -0.00    +0.001 A  
DOCKED: ATOM     10  C   UNL     1     140.412  70.964 226.695 -0.58 -0.01    +0.056 A  
DOCKED: ATOM     11  C   UNL     1     139.709  69.754 226.813 -0.51 -0.00    +0.013 A  
DOCKED: BRANCH  10  12
DOCKED: ATOM     12  C   UNL     1     140.974  71.633 227.925 -0.40 -0.09    +0.416 C  
DOCKED: ATOM     13  F   UNL     1     141.828  72.660 227.563 -0.34 +0.03    -0.166 F  
DOCKED: ATOM     14  F   UNL     1     141.683  70.734 228.703 -0.14 +0.03    -0.166 F  
DOCKED: ATOM     15  F   UNL     1     139.936  72.153 228.674 -0.29 +0.05    -0.166 F  
DOCKED: ENDBRANCH  10  12
DOCKED: ENDBRANCH   5   6
DOCKED: ENDBRANCH   4   5
DOCKED: ENDBRANCH   3   4
DOCKED: ENDBRANCH   1   3
DOCKED: BRANCH   1  16
DOCKED: ATOM     16  C   UNL     1     139.140  75.568 220.804 -0.15 -0.01    +0.060 C  
DOCKED: BRANCH  16  17
DOCKED: ATOM     17  C   UNL     1     137.809  75.800 221.534 -0.17 -0.01    +0.048 C  
DOCKED: BRANCH  17  18
DOCKED: ATOM     18  C   UNL     1     137.396  77.274 221.603 -0.10 -0.04    +0.230 C  
DOCKED: BRANCH  18  19
DOCKED: ATOM     19  O   UNL     1     137.867  77.877 222.812 -0.09 +0.08    -0.492 OA 
DOCKED: BRANCH  19  20
DOCKED: ATOM     20  C   UNL     1     139.096  78.532 223.010 -0.25 -0.02    +0.137 A  
DOCKED: ATOM     21  C   UNL     1     140.341  77.937 222.716 -0.38 -0.01    +0.049 A  
DOCKED: ATOM     22  C   UNL     1     139.076  79.830 223.550 -0.36 -0.01    +0.084 A  
DOCKED: ATOM     23  C   UNL     1     141.530  78.629 222.963 -0.53 -0.01    +0.024 A  
DOCKED: ATOM     24  C   UNL     1     140.270  80.517 223.791 -0.39 -0.01    +0.045 A  
DOCKED: ATOM     25  C   UNL     1     141.497  79.918 223.501 -0.54 -0.01    +0.042 A  
DOCKED: ATOM     26  Cl  UNL     1     137.548  80.614 223.922 -0.40 +0.01    -0.080 Cl 
DOCKED: ATOM     27  Cl  UNL     1     142.992  80.783 223.803 -0.73 +0.02    -0.084 Cl 
DOCKED: ENDBRANCH  19  20
DOCKED: ENDBRANCH  18  19
DOCKED: ENDBRANCH  17  18
DOCKED: ENDBRANCH  16  17
DOCKED: ENDBRANCH   1  16
DOCKED: TORSDOF 10
DOCKED: TER
DOCKED: ENDMDL
________________________________________________________________________________


    FINAL DOCKED STATE:
    ________________________


Run:   5 / 20
Time taken for this run:   0.040s

DOCKED: MODEL        5
DOCKED: USER    Run = 5
DOCKED: USER
DOCKED: USER    Estimated Free Energy of Binding    =  -6.28 kcal/mol  [=(1)+(2)+(3)-(4)]
DOCKED: USER
DOCKED: USER    (1) Final Intermolecular Energy     =  -9.27 kcal/mol
DOCKED: USER        vdW + Hbond + desolv Energy     =  -9.42 kcal/mol
DOCKED: USER        Electrostatic Energy            =  +0.16 kcal/mol
DOCKED: USER        Moving Ligand-Fixed Receptor    =  -9.27 kcal/mol
DOCKED: USER        Moving Ligand-Moving Receptor   =  +0.00 kcal/mol
DOCKED: USER    (2) Final Total Internal Energy     =  -1.48 kcal/mol
DOCKED: USER    (3) Torsional Free Energy           =  +2.98 kcal/mol
DOCKED: USER    (4) Unbound System's Energy         =  -1.48 kcal/mol
DOCKED: USER
DOCKED: USER
DOCKED: REMARK SMILES O=C(CCCOc1ccc(Cl)cc1Cl)[N-]/N=C/c1cccc(C(F)(F)F)c1
DOCKED: REMARK SMILES IDX 2 1 1 2 15 3 16 4 17 5 18 6 19 7 27 8 20 9 22 10 21 11 23 12
DOCKED: REMARK SMILES IDX 24 13 25 14 26 15 3 16 4 17 5 18 6 19 7 20 8 21 13 22 9 23
DOCKED: REMARK SMILES IDX 12 24 10 25 14 26 11 27
DOCKED: REMARK H PARENT
DOCKED: USER                              x       y       z     vdW  Elec       q    Type
DOCKED: USER                           _______ _______ _______ _____ _____    ______ ____
DOCKED: ROOT
DOCKED: ATOM      1  C   UNL     1     140.115  74.932 221.752 -0.26 -0.01    +0.068 C  
DOCKED: ATOM      2  O   UNL     1     141.304  75.283 221.973 -0.44 +0.07    -0.319 OA 
DOCKED: ENDROOT
DOCKED: BRANCH   1   3
DOCKED: ATOM      3  N   UNL     1     139.629  73.727 222.347 -0.62 +0.08    -0.545 NA 
DOCKED: BRANCH   3   4
DOCKED: ATOM      4  N   UNL     1     140.490  72.674 222.682 -0.46 +0.02    -0.372 NA 
DOCKED: BRANCH   4   5
DOCKED: ATOM      5  C   UNL     1     140.037  71.482 222.897 -0.29 -0.01    +0.094 C  
DOCKED: BRANCH   5   6
DOCKED: ATOM      6  C   UNL     1     140.086  70.887 224.247 -0.42 +0.00    -0.009 A  
DOCKED: ATOM      7  C   UNL     1     139.662  69.563 224.432 -0.33 -0.00    +0.009 A  
DOCKED: ATOM      8  C   UNL     1     140.528  71.631 225.358 -0.49 -0.00    +0.022 A  
DOCKED: ATOM      9  C   UNL     1     139.679  68.989 225.704 -0.48 -0.00    +0.001 A  
DOCKED: ATOM     10  C   UNL     1     140.517  71.067 226.647 -0.60 -0.01    +0.056 A  
DOCKED: ATOM     11  C   UNL     1     140.110  69.732 226.805 -0.54 -0.00    +0.013 A  
DOCKED: BRANCH  10  12
DOCKED: ATOM     12  C   UNL     1     141.016  71.850 227.837 -0.41 -0.09    +0.416 C  
DOCKED: ATOM     13  F   UNL     1     141.782  72.923 227.417 -0.30 +0.04    -0.166 F  
DOCKED: ATOM     14  F   UNL     1     141.793  71.060 228.665 -0.16 +0.03    -0.166 F  
DOCKED: ATOM     15  F   UNL     1     139.933  72.322 228.555 -0.26 +0.06    -0.166 F  
DOCKED: ENDBRANCH  10  12
DOCKED: ENDBRANCH   5   6
DOCKED: ENDBRANCH   4   5
DOCKED: ENDBRANCH   3   4
DOCKED: ENDBRANCH   1   3
DOCKED: BRANCH   1  16
DOCKED: ATOM     16  C   UNL     1     139.212  75.822 220.935 -0.17 -0.01    +0.060 C  
DOCKED: BRANCH  16  17
DOCKED: ATOM     17  C   UNL     1     139.330  75.572 219.425 -0.05 -0.01    +0.048 C  
DOCKED: BRANCH  17  18
DOCKED: ATOM     18  C   UNL     1     139.894  74.190 219.075 -0.02 -0.05    +0.230 C  
DOCKED: BRANCH  18  19
DOCKED: ATOM     19  O   UNL     1     141.229  74.299 218.573 +0.02 +0.13    -0.492 OA 
DOCKED: BRANCH  19  20
DOCKED: ATOM     20  C   UNL     1     142.421  74.029 219.268 -0.12 -0.04    +0.137 A  
DOCKED: ATOM     21  C   UNL     1     142.755  72.747 219.754 -0.18 -0.01    +0.049 A  
DOCKED: ATOM     22  C   UNL     1     143.305  75.096 219.508 -0.31 -0.04    +0.084 A  
DOCKED: ATOM     23  C   UNL     1     143.942  72.548 220.464 -0.35 -0.00    +0.024 A  
DOCKED: ATOM     24  C   UNL     1     144.492  74.888 220.217 -0.36 -0.02    +0.045 A  
DOCKED: ATOM     25  C   UNL     1     144.811  73.617 220.697 -0.51 -0.01    +0.042 A  
DOCKED: ATOM     26  Cl  UNL     1     142.935  76.707 218.913 -0.45 +0.05    -0.080 Cl 
DOCKED: ATOM     27  Cl  UNL     1     146.303  73.360 221.584 -0.88 +0.01    -0.084 Cl 
DOCKED: ENDBRANCH  19  20
DOCKED: ENDBRANCH  18  19
DOCKED: ENDBRANCH  17  18
DOCKED: ENDBRANCH  16  17
DOCKED: ENDBRANCH   1  16
DOCKED: TORSDOF 10
DOCKED: TER
DOCKED: ENDMDL
________________________________________________________________________________


    FINAL DOCKED STATE:
    ________________________


Run:   6 / 20
Time taken for this run:   0.040s

DOCKED: MODEL        6
DOCKED: USER    Run = 6
DOCKED: USER
DOCKED: USER    Estimated Free Energy of Binding    =  -6.49 kcal/mol  [=(1)+(2)+(3)-(4)]
DOCKED: USER
DOCKED: USER    (1) Final Intermolecular Energy     =  -9.47 kcal/mol
DOCKED: USER        vdW + Hbond + desolv Energy     =  -9.53 kcal/mol
DOCKED: USER        Electrostatic Energy            =  +0.06 kcal/mol
DOCKED: USER        Moving Ligand-Fixed Receptor    =  -9.47 kcal/mol
DOCKED: USER        Moving Ligand-Moving Receptor   =  +0.00 kcal/mol
DOCKED: USER    (2) Final Total Internal Energy     =  -0.76 kcal/mol
DOCKED: USER    (3) Torsional Free Energy           =  +2.98 kcal/mol
DOCKED: USER    (4) Unbound System's Energy         =  -0.76 kcal/mol
DOCKED: USER
DOCKED: USER
DOCKED: REMARK SMILES O=C(CCCOc1ccc(Cl)cc1Cl)[N-]/N=C/c1cccc(C(F)(F)F)c1
DOCKED: REMARK SMILES IDX 2 1 1 2 15 3 16 4 17 5 18 6 19 7 27 8 20 9 22 10 21 11 23 12
DOCKED: REMARK SMILES IDX 24 13 25 14 26 15 3 16 4 17 5 18 6 19 7 20 8 21 13 22 9 23
DOCKED: REMARK SMILES IDX 12 24 10 25 14 26 11 27
DOCKED: REMARK H PARENT
DOCKED: USER                              x       y       z     vdW  Elec       q    Type
DOCKED: USER                           _______ _______ _______ _____ _____    ______ ____
DOCKED: ROOT
DOCKED: ATOM      1  C   UNL     1     141.428  73.753 220.911 -0.25 -0.01    +0.068 C  
DOCKED: ATOM      2  O   UNL     1     142.528  73.142 220.863 -0.16 +0.05    -0.319 OA 
DOCKED: ENDROOT
DOCKED: BRANCH   1   3
DOCKED: ATOM      3  N   UNL     1     140.772  73.895 222.173 -0.47 -0.03    -0.545 NA 
DOCKED: BRANCH   3   4
DOCKED: ATOM      4  N   UNL     1     139.997  72.865 222.718 -0.52 +0.04    -0.372 NA 
DOCKED: BRANCH   4   5
DOCKED: ATOM      5  C   UNL     1     140.512  71.709 222.985 -0.28 -0.01    +0.094 C  
DOCKED: BRANCH   5   6
DOCKED: ATOM      6  C   UNL     1     140.261  71.050 224.281 -0.44 +0.00    -0.009 A  
DOCKED: ATOM      7  C   UNL     1     139.524  69.858 224.317 -0.34 -0.00    +0.009 A  
DOCKED: ATOM      8  C   UNL     1     140.727  71.609 225.487 -0.54 -0.00    +0.022 A  
DOCKED: ATOM      9  C   UNL     1     139.256  69.231 225.535 -0.44 -0.00    +0.001 A  
DOCKED: ATOM     10  C   UNL     1     140.432  70.998 226.720 -0.59 -0.01    +0.056 A  
DOCKED: ATOM     11  C   UNL     1     139.712  69.792 226.730 -0.51 -0.00    +0.013 A  
DOCKED: BRANCH  10  12
DOCKED: ATOM     12  C   UNL     1     140.951  71.577 228.013 -0.39 -0.09    +0.416 C  
DOCKED: ATOM     13  F   UNL     1     139.901  72.044 228.784 -0.27 +0.05    -0.166 F  
DOCKED: ATOM     14  F   UNL     1     141.817  72.630 227.777 -0.31 +0.04    -0.166 F  
DOCKED: ATOM     15  F   UNL     1     141.623  70.593 228.714 -0.14 +0.03    -0.166 F  
DOCKED: ENDBRANCH  10  12
DOCKED: ENDBRANCH   5   6
DOCKED: ENDBRANCH   4   5
DOCKED: ENDBRANCH   3   4
DOCKED: ENDBRANCH   1   3
DOCKED: BRANCH   1  16
DOCKED: ATOM     16  C   UNL     1     140.868  74.384 219.660 -0.11 -0.01    +0.060 C  
DOCKED: BRANCH  16  17
DOCKED: ATOM     17  C   UNL     1     139.455  74.953 219.858 -0.08 -0.01    +0.048 C  
DOCKED: BRANCH  17  18
DOCKED: ATOM     18  C   UNL     1     139.410  76.176 220.781 -0.11 -0.06    +0.230 C  
DOCKED: BRANCH  18  19
DOCKED: ATOM     19  O   UNL     1     140.570  76.993 220.597 -0.03 +0.18    -0.492 OA 
DOCKED: BRANCH  19  20
DOCKED: ATOM     20  C   UNL     1     141.074  77.962 221.484 -0.28 -0.06    +0.137 A  
DOCKED: ATOM     21  C   UNL     1     140.992  77.837 222.887 -0.42 -0.02    +0.049 A  
DOCKED: ATOM     22  C   UNL     1     141.662  79.117 220.938 -0.30 -0.04    +0.084 A  
DOCKED: ATOM     23  C   UNL     1     141.486  78.849 223.715 -0.58 -0.01    +0.024 A  
DOCKED: ATOM     24  C   UNL     1     142.156  80.123 221.774 -0.45 -0.02    +0.045 A  
DOCKED: ATOM     25  C   UNL     1     142.066  79.993 223.161 -0.58 -0.01    +0.042 A  
DOCKED: ATOM     26  Cl  UNL     1     141.794  79.310 219.197 -0.35 +0.05    -0.080 Cl 
DOCKED: ATOM     27  Cl  UNL     1     142.689  81.256 224.206 -0.59 +0.01    -0.084 Cl 
DOCKED: ENDBRANCH  19  20
DOCKED: ENDBRANCH  18  19
DOCKED: ENDBRANCH  17  18
DOCKED: ENDBRANCH  16  17
DOCKED: ENDBRANCH   1  16
DOCKED: TORSDOF 10
DOCKED: TER
DOCKED: ENDMDL
________________________________________________________________________________


    FINAL DOCKED STATE:
    ________________________


Run:   7 / 20
Time taken for this run:   0.040s

DOCKED: MODEL        7
DOCKED: USER    Run = 7
DOCKED: USER
DOCKED: USER    Estimated Free Energy of Binding    =  -6.17 kcal/mol  [=(1)+(2)+(3)-(4)]
DOCKED: USER
DOCKED: USER    (1) Final Intermolecular Energy     =  -9.15 kcal/mol
DOCKED: USER        vdW + Hbond + desolv Energy     =  -9.22 kcal/mol
DOCKED: USER        Electrostatic Energy            =  +0.07 kcal/mol
DOCKED: USER        Moving Ligand-Fixed Receptor    =  -9.15 kcal/mol
DOCKED: USER        Moving Ligand-Moving Receptor   =  +0.00 kcal/mol
DOCKED: USER    (2) Final Total Internal Energy     =  -0.87 kcal/mol
DOCKED: USER    (3) Torsional Free Energy           =  +2.98 kcal/mol
DOCKED: USER    (4) Unbound System's Energy         =  -0.87 kcal/mol
DOCKED: USER
DOCKED: USER
DOCKED: REMARK SMILES O=C(CCCOc1ccc(Cl)cc1Cl)[N-]/N=C/c1cccc(C(F)(F)F)c1
DOCKED: REMARK SMILES IDX 2 1 1 2 15 3 16 4 17 5 18 6 19 7 27 8 20 9 22 10 21 11 23 12
DOCKED: REMARK SMILES IDX 24 13 25 14 26 15 3 16 4 17 5 18 6 19 7 20 8 21 13 22 9 23
DOCKED: REMARK SMILES IDX 12 24 10 25 14 26 11 27
DOCKED: REMARK H PARENT
DOCKED: USER                              x       y       z     vdW  Elec       q    Type
DOCKED: USER                           _______ _______ _______ _____ _____    ______ ____
DOCKED: ROOT
DOCKED: ATOM      1  C   UNL     1     139.557  73.755 221.971 -0.24 -0.01    +0.068 C  
DOCKED: ATOM      2  O   UNL     1     140.385  74.644 222.301 -0.70 -0.01    -0.319 OA 
DOCKED: ENDROOT
DOCKED: BRANCH   1   3
DOCKED: ATOM      3  N   UNL     1     140.035  72.439 221.684 -0.08 +0.08    -0.545 NA 
DOCKED: BRANCH   3   4
DOCKED: ATOM      4  N   UNL     1     140.583  71.623 222.681 -0.15 +0.04    -0.372 NA 
DOCKED: BRANCH   4   5
DOCKED: ATOM      5  C   UNL     1     139.943  70.590 223.127 -0.20 -0.02    +0.094 C  
DOCKED: BRANCH   5   6
DOCKED: ATOM      6  C   UNL     1     139.967  70.249 224.563 -0.40 +0.00    -0.009 A  
DOCKED: ATOM      7  C   UNL     1     139.509  68.991 224.980 -0.40 -0.00    +0.009 A  
DOCKED: ATOM      8  C   UNL     1     140.418  71.173 225.526 -0.55 -0.00    +0.022 A  
DOCKED: ATOM      9  C   UNL     1     139.502  68.657 226.335 -0.55 -0.00    +0.001 A  
DOCKED: ATOM     10  C   UNL     1     140.382  70.852 226.896 -0.58 -0.01    +0.056 A  
DOCKED: ATOM     11  C   UNL     1     139.941  69.578 227.288 -0.58 -0.00    +0.013 A  
DOCKED: BRANCH  10  12
DOCKED: ATOM     12  C   UNL     1     140.890  71.827 227.930 -0.41 -0.10    +0.416 C  
DOCKED: ATOM     13  F   UNL     1     141.837  71.220 228.736 -0.18 +0.03    -0.166 F  
DOCKED: ATOM     14  F   UNL     1     139.861  72.279 228.737 -0.27 +0.06    -0.166 F  
DOCKED: ATOM     15  F   UNL     1     141.467  72.908 227.291 -0.32 +0.04    -0.166 F  
DOCKED: ENDBRANCH  10  12
DOCKED: ENDBRANCH   5   6
DOCKED: ENDBRANCH   4   5
DOCKED: ENDBRANCH   3   4
DOCKED: ENDBRANCH   1   3
DOCKED: BRANCH   1  16
DOCKED: ATOM     16  C   UNL     1     138.082  74.072 221.963 -0.14 -0.02    +0.060 C  
DOCKED: BRANCH  16  17
DOCKED: ATOM     17  C   UNL     1     137.787  75.542 221.634 -0.18 -0.01    +0.048 C  
DOCKED: BRANCH  17  18
DOCKED: ATOM     18  C   UNL     1     138.749  76.144 220.603 -0.07 -0.05    +0.230 C  
DOCKED: BRANCH  18  19
DOCKED: ATOM     19  O   UNL     1     138.839  77.563 220.761 +0.01 +0.12    -0.492 OA 
DOCKED: BRANCH  19  20
DOCKED: ATOM     20  C   UNL     1     139.775  78.273 221.535 -0.18 -0.04    +0.137 A  
DOCKED: ATOM     21  C   UNL     1     139.439  78.923 222.742 -0.31 -0.01    +0.049 A  
DOCKED: ATOM     22  C   UNL     1     141.097  78.354 221.066 -0.27 -0.04    +0.084 A  
DOCKED: ATOM     23  C   UNL     1     140.409  79.637 223.451 -0.46 -0.00    +0.024 A  
DOCKED: ATOM     24  C   UNL     1     142.062  79.069 221.783 -0.40 -0.03    +0.045 A  
DOCKED: ATOM     25  C   UNL     1     141.719  79.712 222.974 -0.53 -0.01    +0.042 A  
DOCKED: ATOM     26  Cl  UNL     1     141.562  77.552 219.573 -0.31 +0.04    -0.080 Cl 
DOCKED: ATOM     27  Cl  UNL     1     142.933  80.605 223.872 -0.77 +0.02    -0.084 Cl 
DOCKED: ENDBRANCH  19  20
DOCKED: ENDBRANCH  18  19
DOCKED: ENDBRANCH  17  18
DOCKED: ENDBRANCH  16  17
DOCKED: ENDBRANCH   1  16
DOCKED: TORSDOF 10
DOCKED: TER
DOCKED: ENDMDL
________________________________________________________________________________


    FINAL DOCKED STATE:
    ________________________


Run:   8 / 20
Time taken for this run:   0.040s

DOCKED: MODEL        8
DOCKED: USER    Run = 8
DOCKED: USER
DOCKED: USER    Estimated Free Energy of Binding    =  -6.65 kcal/mol  [=(1)+(2)+(3)-(4)]
DOCKED: USER
DOCKED: USER    (1) Final Intermolecular Energy     =  -9.63 kcal/mol
DOCKED: USER        vdW + Hbond + desolv Energy     =  -9.72 kcal/mol
DOCKED: USER        Electrostatic Energy            =  +0.09 kcal/mol
DOCKED: USER        Moving Ligand-Fixed Receptor    =  -9.63 kcal/mol
DOCKED: USER        Moving Ligand-Moving Receptor   =  +0.00 kcal/mol
DOCKED: USER    (2) Final Total Internal Energy     =  -0.93 kcal/mol
DOCKED: USER    (3) Torsional Free Energy           =  +2.98 kcal/mol
DOCKED: USER    (4) Unbound System's Energy         =  -0.93 kcal/mol
DOCKED: USER
DOCKED: USER
DOCKED: REMARK SMILES O=C(CCCOc1ccc(Cl)cc1Cl)[N-]/N=C/c1cccc(C(F)(F)F)c1
DOCKED: REMARK SMILES IDX 2 1 1 2 15 3 16 4 17 5 18 6 19 7 27 8 20 9 22 10 21 11 23 12
DOCKED: REMARK SMILES IDX 24 13 25 14 26 15 3 16 4 17 5 18 6 19 7 20 8 21 13 22 9 23
DOCKED: REMARK SMILES IDX 12 24 10 25 14 26 11 27
DOCKED: REMARK H PARENT
DOCKED: USER                              x       y       z     vdW  Elec       q    Type
DOCKED: USER                           _______ _______ _______ _____ _____    ______ ____
DOCKED: ROOT
DOCKED: ATOM      1  C   UNL     1     140.021  74.973 221.900 -0.24 -0.01    +0.068 C  
DOCKED: ATOM      2  O   UNL     1     141.033  75.575 222.346 -0.39 +0.05    -0.319 OA 
DOCKED: ENDROOT
DOCKED: BRANCH   1   3
DOCKED: ATOM      3  N   UNL     1     140.054  73.548 221.797 -0.40 +0.07    -0.545 NA 
DOCKED: BRANCH   3   4
DOCKED: ATOM      4  N   UNL     1     140.344  72.739 222.901 -0.44 +0.02    -0.372 NA 
DOCKED: BRANCH   4   5
DOCKED: ATOM      5  C   UNL     1     139.683  71.649 223.125 -0.30 -0.02    +0.094 C  
DOCKED: BRANCH   5   6
DOCKED: ATOM      6  C   UNL     1     139.868  70.897 224.381 -0.43 +0.00    -0.009 A  
DOCKED: ATOM      7  C   UNL     1     139.556  69.531 224.418 -0.34 -0.00    +0.009 A  
DOCKED: ATOM      8  C   UNL     1     140.329  71.530 225.552 -0.52 -0.00    +0.022 A  
DOCKED: ATOM      9  C   UNL     1     139.702  68.806 225.602 -0.48 -0.00    +0.001 A  
DOCKED: ATOM     10  C   UNL     1     140.448  70.811 226.755 -0.57 -0.01    +0.056 A  
DOCKED: ATOM     11  C   UNL     1     140.151  69.439 226.763 -0.55 -0.00    +0.013 A  
DOCKED: BRANCH  10  12
DOCKED: ATOM     12  C   UNL     1     140.968  71.478 228.005 -0.38 -0.09    +0.416 C  
DOCKED: ATOM     13  F   UNL     1     139.914  71.944 228.772 -0.28 +0.05    -0.166 F  
DOCKED: ATOM     14  F   UNL     1     141.786  72.549 227.697 -0.33 +0.03    -0.166 F  
DOCKED: ATOM     15  F   UNL     1     141.691  70.559 228.743 -0.11 +0.03    -0.166 F  
DOCKED: ENDBRANCH  10  12
DOCKED: ENDBRANCH   5   6
DOCKED: ENDBRANCH   4   5
DOCKED: ENDBRANCH   3   4
DOCKED: ENDBRANCH   1   3
DOCKED: BRANCH   1  16
DOCKED: ATOM     16  C   UNL     1     138.776  75.755 221.559 -0.23 -0.01    +0.060 C  
DOCKED: BRANCH  16  17
DOCKED: ATOM     17  C   UNL     1     138.107  76.381 222.791 -0.26 -0.01    +0.048 C  
DOCKED: BRANCH  17  18
DOCKED: ATOM     18  C   UNL     1     137.161  77.539 222.453 -0.14 -0.04    +0.230 C  
DOCKED: BRANCH  18  19
DOCKED: ATOM     19  O   UNL     1     137.890  78.654 221.932 -0.03 +0.09    -0.492 OA 
DOCKED: BRANCH  19  20
DOCKED: ATOM     20  C   UNL     1     139.174  79.082 222.317 -0.21 -0.03    +0.137 A  
DOCKED: ATOM     21  C   UNL     1     140.355  78.636 221.686 -0.26 -0.02    +0.049 A  
DOCKED: ATOM     22  C   UNL     1     139.278  79.976 223.397 -0.35 -0.01    +0.084 A  
DOCKED: ATOM     23  C   UNL     1     141.604  79.076 222.134 -0.45 -0.01    +0.024 A  
DOCKED: ATOM     24  C   UNL     1     140.532  80.413 223.838 -0.40 -0.01    +0.045 A  
DOCKED: ATOM     25  C   UNL     1     141.694  79.963 223.210 -0.55 -0.01    +0.042 A  
DOCKED: ATOM     26  Cl  UNL     1     137.834  80.565 224.206 -0.44 +0.01    -0.080 Cl 
DOCKED: ATOM     27  Cl  UNL     1     143.264  80.516 223.764 -0.66 +0.02    -0.084 Cl 
DOCKED: ENDBRANCH  19  20
DOCKED: ENDBRANCH  18  19
DOCKED: ENDBRANCH  17  18
DOCKED: ENDBRANCH  16  17
DOCKED: ENDBRANCH   1  16
DOCKED: TORSDOF 10
DOCKED: TER
DOCKED: ENDMDL
________________________________________________________________________________


    FINAL DOCKED STATE:
    ________________________


Run:   9 / 20
Time taken for this run:   0.040s

DOCKED: MODEL        9
DOCKED: USER    Run = 9
DOCKED: USER
DOCKED: USER    Estimated Free Energy of Binding    =  -6.07 kcal/mol  [=(1)+(2)+(3)-(4)]
DOCKED: USER
DOCKED: USER    (1) Final Intermolecular Energy     =  -9.06 kcal/mol
DOCKED: USER        vdW + Hbond + desolv Energy     =  -9.07 kcal/mol
DOCKED: USER        Electrostatic Energy            =  +0.02 kcal/mol
DOCKED: USER        Moving Ligand-Fixed Receptor    =  -9.06 kcal/mol
DOCKED: USER        Moving Ligand-Moving Receptor   =  +0.00 kcal/mol
DOCKED: USER    (2) Final Total Internal Energy     =  -1.07 kcal/mol
DOCKED: USER    (3) Torsional Free Energy           =  +2.98 kcal/mol
DOCKED: USER    (4) Unbound System's Energy         =  -1.07 kcal/mol
DOCKED: USER
DOCKED: USER
DOCKED: REMARK SMILES O=C(CCCOc1ccc(Cl)cc1Cl)[N-]/N=C/c1cccc(C(F)(F)F)c1
DOCKED: REMARK SMILES IDX 2 1 1 2 15 3 16 4 17 5 18 6 19 7 27 8 20 9 22 10 21 11 23 12
DOCKED: REMARK SMILES IDX 24 13 25 14 26 15 3 16 4 17 5 18 6 19 7 20 8 21 13 22 9 23
DOCKED: REMARK SMILES IDX 12 24 10 25 14 26 11 27
DOCKED: REMARK H PARENT
DOCKED: USER                              x       y       z     vdW  Elec       q    Type
DOCKED: USER                           _______ _______ _______ _____ _____    ______ ____
DOCKED: ROOT
DOCKED: ATOM      1  C   UNL     1     134.553  68.696 225.212 -0.22 -0.00    +0.068 C  
DOCKED: ATOM      2  O   UNL     1     134.151  67.729 224.512 -0.67 +0.01    -0.319 OA 
DOCKED: ENDROOT
DOCKED: BRANCH   1   3
DOCKED: ATOM      3  N   UNL     1     133.928  68.942 226.473 -0.57 -0.02    -0.545 NA 
DOCKED: BRANCH   3   4
DOCKED: ATOM      4  N   UNL     1     133.935  70.212 227.061 -0.35 +0.00    -0.372 NA 
DOCKED: BRANCH   4   5
DOCKED: ATOM      5  C   UNL     1     132.977  71.055 226.846 -0.30 -0.01    +0.094 C  
DOCKED: BRANCH   5   6
DOCKED: ATOM      6  C   UNL     1     133.270  72.463 226.517 -0.38 +0.00    -0.009 A  
DOCKED: ATOM      7  C   UNL     1     132.617  73.485 227.221 -0.41 -0.00    +0.009 A  
DOCKED: ATOM      8  C   UNL     1     134.173  72.802 225.491 -0.27 -0.00    +0.022 A  
DOCKED: ATOM      9  C   UNL     1     132.862  74.823 226.910 -0.38 +0.00    +0.001 A  
DOCKED: ATOM     10  C   UNL     1     134.399  74.149 225.152 -0.29 -0.00    +0.056 A  
DOCKED: ATOM     11  C   UNL     1     133.752  75.156 225.887 -0.35 -0.00    +0.013 A  
DOCKED: BRANCH  10  12
DOCKED: ATOM     12  C   UNL     1     135.387  74.519 224.073 -0.14 -0.09    +0.416 C  
DOCKED: ATOM     13  F   UNL     1     136.173  73.427 223.749 -0.06 +0.06    -0.166 F  
DOCKED: ATOM     14  F   UNL     1     136.218  75.544 224.487 -0.13 +0.04    -0.166 F  
DOCKED: ATOM     15  F   UNL     1     134.697  74.928 222.947 -0.02 +0.03    -0.166 F  
DOCKED: ENDBRANCH  10  12
DOCKED: ENDBRANCH   5   6
DOCKED: ENDBRANCH   4   5
DOCKED: ENDBRANCH   3   4
DOCKED: ENDBRANCH   1   3
DOCKED: BRANCH   1  16
DOCKED: ATOM     16  C   UNL     1     135.728  69.520 224.745 -0.22 -0.00    +0.060 C  
DOCKED: BRANCH  16  17
DOCKED: ATOM     17  C   UNL     1     136.090  69.267 223.274 -0.15 -0.00    +0.048 C  
DOCKED: BRANCH  17  18
DOCKED: ATOM     18  C   UNL     1     137.477  69.790 222.885 -0.11 -0.04    +0.230 C  
DOCKED: BRANCH  18  19
DOCKED: ATOM     19  O   UNL     1     138.493  69.176 223.683 -0.07 +0.07    -0.492 OA 
DOCKED: BRANCH  19  20
DOCKED: ATOM     20  C   UNL     1     139.143  69.729 224.801 -0.30 -0.02    +0.137 A  
DOCKED: ATOM     21  C   UNL     1     139.003  69.211 226.107 -0.42 -0.01    +0.049 A  
DOCKED: ATOM     22  C   UNL     1     139.949  70.864 224.605 -0.40 -0.01    +0.084 A  
DOCKED: ATOM     23  C   UNL     1     139.652  69.824 227.182 -0.52 -0.00    +0.024 A  
DOCKED: ATOM     24  C   UNL     1     140.598  71.469 225.686 -0.56 -0.01    +0.045 A  
DOCKED: ATOM     25  C   UNL     1     140.449  70.953 226.974 -0.61 -0.01    +0.042 A  
DOCKED: ATOM     26  Cl  UNL     1     140.160  71.536 222.995 -0.42 +0.01    -0.080 Cl 
DOCKED: ATOM     27  Cl  UNL     1     141.266  71.713 228.327 -0.74 +0.02    -0.084 Cl 
DOCKED: ENDBRANCH  19  20
DOCKED: ENDBRANCH  18  19
DOCKED: ENDBRANCH  17  18
DOCKED: ENDBRANCH  16  17
DOCKED: ENDBRANCH   1  16
DOCKED: TORSDOF 10
DOCKED: TER
DOCKED: ENDMDL
________________________________________________________________________________


    FINAL DOCKED STATE:
    ________________________


Run:   10 / 20
Time taken for this run:   0.040s

DOCKED: MODEL        10
DOCKED: USER    Run = 10
DOCKED: USER
DOCKED: USER    Estimated Free Energy of Binding    =  -6.00 kcal/mol  [=(1)+(2)+(3)-(4)]
DOCKED: USER
DOCKED: USER    (1) Final Intermolecular Energy     =  -8.98 kcal/mol
DOCKED: USER        vdW + Hbond + desolv Energy     =  -9.20 kcal/mol
DOCKED: USER        Electrostatic Energy            =  +0.21 kcal/mol
DOCKED: USER        Moving Ligand-Fixed Receptor    =  -8.98 kcal/mol
DOCKED: USER        Moving Ligand-Moving Receptor   =  +0.00 kcal/mol
DOCKED: USER    (2) Final Total Internal Energy     =  -0.84 kcal/mol
DOCKED: USER    (3) Torsional Free Energy           =  +2.98 kcal/mol
DOCKED: USER    (4) Unbound System's Energy         =  -0.84 kcal/mol
DOCKED: USER
DOCKED: USER
DOCKED: REMARK SMILES O=C(CCCOc1ccc(Cl)cc1Cl)[N-]/N=C/c1cccc(C(F)(F)F)c1
DOCKED: REMARK SMILES IDX 2 1 1 2 15 3 16 4 17 5 18 6 19 7 27 8 20 9 22 10 21 11 23 12
DOCKED: REMARK SMILES IDX 24 13 25 14 26 15 3 16 4 17 5 18 6 19 7 20 8 21 13 22 9 23
DOCKED: REMARK SMILES IDX 12 24 10 25 14 26 11 27
DOCKED: REMARK H PARENT
DOCKED: USER                              x       y       z     vdW  Elec       q    Type
DOCKED: USER                           _______ _______ _______ _____ _____    ______ ____
DOCKED: ROOT
DOCKED: ATOM      1  C   UNL     1     141.273  73.081 221.038 -0.24 -0.01    +0.068 C  
DOCKED: ATOM      2  O   UNL     1     142.479  72.732 221.140 -0.15 +0.04    -0.319 OA 
DOCKED: ENDROOT
DOCKED: BRANCH   1   3
DOCKED: ATOM      3  N   UNL     1     140.959  74.475 221.001 -0.10 +0.11    -0.545 NA 
DOCKED: BRANCH   3   4
DOCKED: ATOM      4  N   UNL     1     140.508  75.156 222.138 -0.48 +0.03    -0.372 NA 
DOCKED: BRANCH   4   5
DOCKED: ATOM      5  C   UNL     1     139.498  75.962 222.079 -0.30 -0.02    +0.094 C  
DOCKED: BRANCH   5   6
DOCKED: ATOM      6  C   UNL     1     139.628  77.369 222.504 -0.32 +0.00    -0.009 A  
DOCKED: ATOM      7  C   UNL     1     138.477  78.095 222.843 -0.27 -0.00    +0.009 A  
DOCKED: ATOM      8  C   UNL     1     140.883  78.006 222.551 -0.44 -0.01    +0.022 A  
DOCKED: ATOM      9  C   UNL     1     138.576  79.434 223.225 -0.33 -0.00    +0.001 A  
DOCKED: ATOM     10  C   UNL     1     140.984  79.364 222.905 -0.44 -0.02    +0.056 A  
DOCKED: ATOM     11  C   UNL     1     139.821  80.065 223.263 -0.41 -0.00    +0.013 A  
DOCKED: BRANCH  10  12
DOCKED: ATOM     12  C   UNL     1     142.329  80.044 222.985 -0.31 -0.13    +0.416 C  
DOCKED: ATOM     13  F   UNL     1     143.341  79.131 222.747 -0.15 +0.10    -0.166 F  
DOCKED: ATOM     14  F   UNL     1     142.534  80.602 224.234 -0.22 +0.03    -0.166 F  
DOCKED: ATOM     15  F   UNL     1     142.390  81.043 222.032 -0.17 +0.05    -0.166 F  
DOCKED: ENDBRANCH  10  12
DOCKED: ENDBRANCH   5   6
DOCKED: ENDBRANCH   4   5
DOCKED: ENDBRANCH   3   4
DOCKED: ENDBRANCH   1   3
DOCKED: BRANCH   1  16
DOCKED: ATOM     16  C   UNL     1     140.202  72.031 220.879 -0.15 -0.01    +0.060 C  
DOCKED: BRANCH  16  17
DOCKED: ATOM     17  C   UNL     1     139.952  71.230 222.165 -0.23 -0.01    +0.048 C  
DOCKED: BRANCH  17  18
DOCKED: ATOM     18  C   UNL     1     140.330  71.989 223.442 -0.22 -0.03    +0.230 C  
DOCKED: BRANCH  18  19
DOCKED: ATOM     19  O   UNL     1     139.544  71.541 224.550 -0.16 +0.12    -0.492 OA 
DOCKED: BRANCH  19  20
DOCKED: ATOM     20  C   UNL     1     139.981  70.777 225.647 -0.42 -0.02    +0.137 A  
DOCKED: ATOM     21  C   UNL     1     140.667  71.334 226.748 -0.65 -0.01    +0.049 A  
DOCKED: ATOM     22  C   UNL     1     139.742  69.392 225.627 -0.40 -0.01    +0.084 A  
DOCKED: ATOM     23  C   UNL     1     141.102  70.516 227.794 -0.60 -0.00    +0.024 A  
DOCKED: ATOM     24  C   UNL     1     140.178  68.581 226.680 -0.58 -0.01    +0.045 A  
DOCKED: ATOM     25  C   UNL     1     140.860  69.140 227.762 -0.59 -0.01    +0.042 A  
DOCKED: ATOM     26  Cl  UNL     1     138.883  68.657 224.281 -0.42 +0.01    -0.080 Cl 
DOCKED: ATOM     27  Cl  UNL     1     141.403  68.121 229.081 -0.47 +0.02    -0.084 Cl 
DOCKED: ENDBRANCH  19  20
DOCKED: ENDBRANCH  18  19
DOCKED: ENDBRANCH  17  18
DOCKED: ENDBRANCH  16  17
DOCKED: ENDBRANCH   1  16
DOCKED: TORSDOF 10
DOCKED: TER
DOCKED: ENDMDL
________________________________________________________________________________


    FINAL DOCKED STATE:
    ________________________


Run:   11 / 20
Time taken for this run:   0.040s

DOCKED: MODEL        11
DOCKED: USER    Run = 11
DOCKED: USER
DOCKED: USER    Estimated Free Energy of Binding    =  -6.59 kcal/mol  [=(1)+(2)+(3)-(4)]
DOCKED: USER
DOCKED: USER    (1) Final Intermolecular Energy     =  -9.58 kcal/mol
DOCKED: USER        vdW + Hbond + desolv Energy     =  -9.72 kcal/mol
DOCKED: USER        Electrostatic Energy            =  +0.14 kcal/mol
DOCKED: USER        Moving Ligand-Fixed Receptor    =  -9.58 kcal/mol
DOCKED: USER        Moving Ligand-Moving Receptor   =  +0.00 kcal/mol
DOCKED: USER    (2) Final Total Internal Energy     =  -1.05 kcal/mol
DOCKED: USER    (3) Torsional Free Energy           =  +2.98 kcal/mol
DOCKED: USER    (4) Unbound System's Energy         =  -1.05 kcal/mol
DOCKED: USER
DOCKED: USER
DOCKED: REMARK SMILES O=C(CCCOc1ccc(Cl)cc1Cl)[N-]/N=C/c1cccc(C(F)(F)F)c1
DOCKED: REMARK SMILES IDX 2 1 1 2 15 3 16 4 17 5 18 6 19 7 27 8 20 9 22 10 21 11 23 12
DOCKED: REMARK SMILES IDX 24 13 25 14 26 15 3 16 4 17 5 18 6 19 7 20 8 21 13 22 9 23
DOCKED: REMARK SMILES IDX 12 24 10 25 14 26 11 27
DOCKED: REMARK H PARENT
DOCKED: USER                              x       y       z     vdW  Elec       q    Type
DOCKED: USER                           _______ _______ _______ _____ _____    ______ ____
DOCKED: ROOT
DOCKED: ATOM      1  C   UNL     1     140.127  75.285 221.882 -0.27 -0.01    +0.068 C  
DOCKED: ATOM      2  O   UNL     1     140.982  76.054 222.395 -0.35 +0.09    -0.319 OA 
DOCKED: ENDROOT
DOCKED: BRANCH   1   3
DOCKED: ATOM      3  N   UNL     1     140.421  73.890 221.789 -0.50 +0.05    -0.545 NA 
DOCKED: BRANCH   3   4
DOCKED: ATOM      4  N   UNL     1     139.901  72.967 222.705 -0.54 +0.05    -0.372 NA 
DOCKED: BRANCH   4   5
DOCKED: ATOM      5  C   UNL     1     140.509  71.852 222.950 -0.29 -0.01    +0.094 C  
DOCKED: BRANCH   5   6
DOCKED: ATOM      6  C   UNL     1     140.265  71.119 224.207 -0.44 +0.00    -0.009 A  
DOCKED: ATOM      7  C   UNL     1     139.564  69.905 224.172 -0.33 -0.00    +0.009 A  
DOCKED: ATOM      8  C   UNL     1     140.701  71.626 225.446 -0.53 -0.00    +0.022 A  
DOCKED: ATOM      9  C   UNL     1     139.302  69.207 225.352 -0.43 -0.00    +0.001 A  
DOCKED: ATOM     10  C   UNL     1     140.413  70.943 226.642 -0.58 -0.01    +0.056 A  
DOCKED: ATOM     11  C   UNL     1     139.729  69.718 226.580 -0.50 -0.00    +0.013 A  
DOCKED: BRANCH  10  12
DOCKED: ATOM     12  C   UNL     1     140.901  71.468 227.969 -0.39 -0.09    +0.416 C  
DOCKED: ATOM     13  F   UNL     1     139.837  71.935 228.721 -0.29 +0.05    -0.166 F  
DOCKED: ATOM     14  F   UNL     1     141.798  72.507 227.796 -0.32 +0.03    -0.166 F  
DOCKED: ATOM     15  F   UNL     1     141.526  70.446 228.660 -0.14 +0.03    -0.166 F  
DOCKED: ENDBRANCH  10  12
DOCKED: ENDBRANCH   5   6
DOCKED: ENDBRANCH   4   5
DOCKED: ENDBRANCH   3   4
DOCKED: ENDBRANCH   1   3
DOCKED: BRANCH   1  16
DOCKED: ATOM     16  C   UNL     1     138.789  75.835 221.452 -0.21 -0.01    +0.060 C  
DOCKED: BRANCH  16  17
DOCKED: ATOM     17  C   UNL     1     138.143  76.737 222.514 -0.28 -0.01    +0.048 C  
DOCKED: BRANCH  17  18
DOCKED: ATOM     18  C   UNL     1     137.177  77.774 221.931 -0.11 -0.04    +0.230 C  
DOCKED: BRANCH  18  19
DOCKED: ATOM     19  O   UNL     1     137.853  79.009 221.673 -0.01 +0.09    -0.492 OA 
DOCKED: BRANCH  19  20
DOCKED: ATOM     20  C   UNL     1     139.155  79.361 222.071 -0.17 -0.03    +0.137 A  
DOCKED: ATOM     21  C   UNL     1     140.308  78.991 221.346 -0.22 -0.02    +0.049 A  
DOCKED: ATOM     22  C   UNL     1     139.308  80.095 223.260 -0.34 -0.01    +0.084 A  
DOCKED: ATOM     23  C   UNL     1     141.577  79.347 221.809 -0.41 -0.01    +0.024 A  
DOCKED: ATOM     24  C   UNL     1     140.583  80.450 223.715 -0.42 -0.01    +0.045 A  
DOCKED: ATOM     25  C   UNL     1     141.717  80.075 222.993 -0.54 -0.01    +0.042 A  
DOCKED: ATOM     26  Cl  UNL     1     137.901  80.587 224.190 -0.45 +0.01    -0.080 Cl 
DOCKED: ATOM     27  Cl  UNL     1     143.312  80.525 223.566 -0.68 +0.02    -0.084 Cl 
DOCKED: ENDBRANCH  19  20
DOCKED: ENDBRANCH  18  19
DOCKED: ENDBRANCH  17  18
DOCKED: ENDBRANCH  16  17
DOCKED: ENDBRANCH   1  16
DOCKED: TORSDOF 10
DOCKED: TER
DOCKED: ENDMDL
________________________________________________________________________________


    FINAL DOCKED STATE:
    ________________________


Run:   12 / 20
Time taken for this run:   0.040s

DOCKED: MODEL        12
DOCKED: USER    Run = 12
DOCKED: USER
DOCKED: USER    Estimated Free Energy of Binding    =  -6.51 kcal/mol  [=(1)+(2)+(3)-(4)]
DOCKED: USER
DOCKED: USER    (1) Final Intermolecular Energy     =  -9.49 kcal/mol
DOCKED: USER        vdW + Hbond + desolv Energy     =  -9.61 kcal/mol
DOCKED: USER        Electrostatic Energy            =  +0.12 kcal/mol
DOCKED: USER        Moving Ligand-Fixed Receptor    =  -9.49 kcal/mol
DOCKED: USER        Moving Ligand-Moving Receptor   =  +0.00 kcal/mol
DOCKED: USER    (2) Final Total Internal Energy     =  -1.01 kcal/mol
DOCKED: USER    (3) Torsional Free Energy           =  +2.98 kcal/mol
DOCKED: USER    (4) Unbound System's Energy         =  -1.01 kcal/mol
DOCKED: USER
DOCKED: USER
DOCKED: REMARK SMILES O=C(CCCOc1ccc(Cl)cc1Cl)[N-]/N=C/c1cccc(C(F)(F)F)c1
DOCKED: REMARK SMILES IDX 2 1 1 2 15 3 16 4 17 5 18 6 19 7 27 8 20 9 22 10 21 11 23 12
DOCKED: REMARK SMILES IDX 24 13 25 14 26 15 3 16 4 17 5 18 6 19 7 20 8 21 13 22 9 23
DOCKED: REMARK SMILES IDX 12 24 10 25 14 26 11 27
DOCKED: REMARK H PARENT
DOCKED: USER                              x       y       z     vdW  Elec       q    Type
DOCKED: USER                           _______ _______ _______ _____ _____    ______ ____
DOCKED: ROOT
DOCKED: ATOM      1  C   UNL     1     140.067  74.241 221.677 -0.25 -0.01    +0.068 C  
DOCKED: ATOM      2  O   UNL     1     141.122  74.924 221.604 -0.42 +0.06    -0.319 OA 
DOCKED: ENDROOT
DOCKED: BRANCH   1   3
DOCKED: ATOM      3  N   UNL     1     139.942  73.272 222.721 -0.49 +0.04    -0.545 NA 
DOCKED: BRANCH   3   4
DOCKED: ATOM      4  N   UNL     1     139.418  71.996 222.480 -0.14 +0.08    -0.372 NA 
DOCKED: BRANCH   4   5
DOCKED: ATOM      5  C   UNL     1     140.054  70.931 222.848 -0.21 -0.01    +0.094 C  
DOCKED: BRANCH   5   6
DOCKED: ATOM      6  C   UNL     1     140.018  70.478 224.252 -0.38 +0.00    -0.009 A  
DOCKED: ATOM      7  C   UNL     1     139.502  69.209 224.553 -0.34 -0.00    +0.009 A  
DOCKED: ATOM      8  C   UNL     1     140.469  71.305 225.299 -0.54 -0.00    +0.022 A  
DOCKED: ATOM      9  C   UNL     1     139.438  68.770 225.877 -0.50 -0.00    +0.001 A  
DOCKED: ATOM     10  C   UNL     1     140.377  70.880 226.637 -0.57 -0.01    +0.056 A  
DOCKED: ATOM     11  C   UNL     1     139.878  69.596 226.914 -0.54 -0.00    +0.013 A  
DOCKED: BRANCH  10  12
DOCKED: ATOM     12  C   UNL     1     140.883  71.750 227.761 -0.41 -0.09    +0.416 C  
DOCKED: ATOM     13  F   UNL     1     141.748  71.033 228.569 -0.15 +0.03    -0.166 F  
DOCKED: ATOM     14  F   UNL     1     139.841  72.212 228.544 -0.27 +0.05    -0.166 F  
DOCKED: ATOM     15  F   UNL     1     141.558  72.832 227.228 -0.32 +0.04    -0.166 F  
DOCKED: ENDBRANCH  10  12
DOCKED: ENDBRANCH   5   6
DOCKED: ENDBRANCH   4   5
DOCKED: ENDBRANCH   3   4
DOCKED: ENDBRANCH   1   3
DOCKED: BRANCH   1  16
DOCKED: ATOM     16  C   UNL     1     138.934  74.511 220.718 -0.13 -0.01    +0.060 C  
DOCKED: BRANCH  16  17
DOCKED: ATOM     17  C   UNL     1     137.798  75.328 221.349 -0.15 -0.01    +0.048 C  
DOCKED: BRANCH  17  18
DOCKED: ATOM     18  C   UNL     1     138.188  76.006 222.667 -0.17 -0.06    +0.230 C  
DOCKED: BRANCH  18  19
DOCKED: ATOM     19  O   UNL     1     138.309  77.421 222.494 -0.10 +0.09    -0.492 OA 
DOCKED: BRANCH  19  20
DOCKED: ATOM     20  C   UNL     1     139.427  78.220 222.792 -0.26 -0.03    +0.137 A  
DOCKED: ATOM     21  C   UNL     1     140.756  77.767 222.649 -0.42 -0.02    +0.049 A  
DOCKED: ATOM     22  C   UNL     1     139.202  79.519 223.279 -0.33 -0.01    +0.084 A  
DOCKED: ATOM     23  C   UNL     1     141.826  78.599 222.991 -0.51 -0.01    +0.024 A  
DOCKED: ATOM     24  C   UNL     1     140.278  80.347 223.616 -0.41 -0.01    +0.045 A  
DOCKED: ATOM     25  C   UNL     1     141.589  79.888 223.475 -0.55 -0.01    +0.042 A  
DOCKED: ATOM     26  Cl  UNL     1     137.565  80.128 223.465 -0.34 +0.01    -0.080 Cl 
DOCKED: ATOM     27  Cl  UNL     1     142.936  80.930 223.897 -0.70 +0.01    -0.084 Cl 
DOCKED: ENDBRANCH  19  20
DOCKED: ENDBRANCH  18  19
DOCKED: ENDBRANCH  17  18
DOCKED: ENDBRANCH  16  17
DOCKED: ENDBRANCH   1  16
DOCKED: TORSDOF 10
DOCKED: TER
DOCKED: ENDMDL
________________________________________________________________________________


    FINAL DOCKED STATE:
    ________________________


Run:   13 / 20
Time taken for this run:   0.040s

DOCKED: MODEL        13
DOCKED: USER    Run = 13
DOCKED: USER
DOCKED: USER    Estimated Free Energy of Binding    =  -6.46 kcal/mol  [=(1)+(2)+(3)-(4)]
DOCKED: USER
DOCKED: USER    (1) Final Intermolecular Energy     =  -9.44 kcal/mol
DOCKED: USER        vdW + Hbond + desolv Energy     =  -9.61 kcal/mol
DOCKED: USER        Electrostatic Energy            =  +0.16 kcal/mol
DOCKED: USER        Moving Ligand-Fixed Receptor    =  -9.44 kcal/mol
DOCKED: USER        Moving Ligand-Moving Receptor   =  +0.00 kcal/mol
DOCKED: USER    (2) Final Total Internal Energy     =  -0.80 kcal/mol
DOCKED: USER    (3) Torsional Free Energy           =  +2.98 kcal/mol
DOCKED: USER    (4) Unbound System's Energy         =  -0.80 kcal/mol
DOCKED: USER
DOCKED: USER
DOCKED: REMARK SMILES O=C(CCCOc1ccc(Cl)cc1Cl)[N-]/N=C/c1cccc(C(F)(F)F)c1
DOCKED: REMARK SMILES IDX 2 1 1 2 15 3 16 4 17 5 18 6 19 7 27 8 20 9 22 10 21 11 23 12
DOCKED: REMARK SMILES IDX 24 13 25 14 26 15 3 16 4 17 5 18 6 19 7 20 8 21 13 22 9 23
DOCKED: REMARK SMILES IDX 12 24 10 25 14 26 11 27
DOCKED: REMARK H PARENT
DOCKED: USER                              x       y       z     vdW  Elec       q    Type
DOCKED: USER                           _______ _______ _______ _____ _____    ______ ____
DOCKED: ROOT
DOCKED: ATOM      1  C   UNL     1     139.810  74.744 221.860 -0.25 -0.01    +0.068 C  
DOCKED: ATOM      2  O   UNL     1     138.641  75.202 221.763 -0.18 +0.08    -0.319 OA 
DOCKED: ENDROOT
DOCKED: BRANCH   1   3
DOCKED: ATOM      3  N   UNL     1     139.994  73.329 221.924 -0.39 +0.07    -0.545 NA 
DOCKED: BRANCH   3   4
DOCKED: ATOM      4  N   UNL     1     140.584  72.715 223.036 -0.32 +0.00    -0.372 NA 
DOCKED: BRANCH   4   5
DOCKED: ATOM      5  C   UNL     1     140.294  71.497 223.360 -0.33 -0.01    +0.094 C  
DOCKED: BRANCH   5   6
DOCKED: ATOM      6  C   UNL     1     140.441  71.029 224.752 -0.49 +0.00    -0.009 A  
DOCKED: ATOM      7  C   UNL     1     140.941  71.907 225.724 -0.48 -0.00    +0.009 A  
DOCKED: ATOM      8  C   UNL     1     140.112  69.710 225.119 -0.40 -0.00    +0.022 A  
DOCKED: ATOM      9  C   UNL     1     141.110  71.478 227.041 -0.74 -0.00    +0.001 A  
DOCKED: ATOM     10  C   UNL     1     140.311  69.263 226.438 -0.50 -0.01    +0.056 A  
DOCKED: ATOM     11  C   UNL     1     140.791  70.167 227.400 -0.60 -0.00    +0.013 A  
DOCKED: BRANCH  10  12
DOCKED: ATOM     12  C   UNL     1     139.935  67.859 226.844 -0.31 -0.08    +0.416 C  
DOCKED: ATOM     13  F   UNL     1     138.839  67.428 226.116 -0.20 -0.01    -0.166 F  
DOCKED: ATOM     14  F   UNL     1     139.614  67.796 228.188 -0.09 +0.04    -0.166 F  
DOCKED: ATOM     15  F   UNL     1     141.001  67.014 226.597 -0.21 +0.05    -0.166 F  
DOCKED: ENDBRANCH  10  12
DOCKED: ENDBRANCH   5   6
DOCKED: ENDBRANCH   4   5
DOCKED: ENDBRANCH   3   4
DOCKED: ENDBRANCH   1   3
DOCKED: BRANCH   1  16
DOCKED: ATOM     16  C   UNL     1     140.987  75.688 221.825 -0.30 -0.02    +0.060 C  
DOCKED: BRANCH  16  17
DOCKED: ATOM     17  C   UNL     1     141.189  76.344 220.452 -0.25 -0.02    +0.048 C  
DOCKED: BRANCH  17  18
DOCKED: ATOM     18  C   UNL     1     141.829  77.735 220.525 -0.21 -0.14    +0.230 C  
DOCKED: BRANCH  18  19
DOCKED: ATOM     19  O   UNL     1     141.778  78.247 221.860 -0.12 +0.29    -0.492 OA 
DOCKED: BRANCH  19  20
DOCKED: ATOM     20  C   UNL     1     140.701  78.912 222.473 -0.32 -0.04    +0.137 A  
DOCKED: ATOM     21  C   UNL     1     139.364  78.478 222.359 -0.27 -0.01    +0.049 A  
DOCKED: ATOM     22  C   UNL     1     140.976  80.076 223.212 -0.44 -0.02    +0.084 A  
DOCKED: ATOM     23  C   UNL     1     138.333  79.200 222.968 -0.28 -0.00    +0.024 A  
DOCKED: ATOM     24  C   UNL     1     139.939  80.791 223.820 -0.35 -0.01    +0.045 A  
DOCKED: ATOM     25  C   UNL     1     138.619  80.356 223.698 -0.37 -0.00    +0.042 A  
DOCKED: ATOM     26  Cl  UNL     1     142.628  80.648 223.389 -0.80 +0.02    -0.080 Cl 
DOCKED: ATOM     27  Cl  UNL     1     137.322  81.255 224.465 -0.42 +0.01    -0.084 Cl 
DOCKED: ENDBRANCH  19  20
DOCKED: ENDBRANCH  18  19
DOCKED: ENDBRANCH  17  18
DOCKED: ENDBRANCH  16  17
DOCKED: ENDBRANCH   1  16
DOCKED: TORSDOF 10
DOCKED: TER
DOCKED: ENDMDL
________________________________________________________________________________


    FINAL DOCKED STATE:
    ________________________


Run:   14 / 20
Time taken for this run:   0.040s

DOCKED: MODEL        14
DOCKED: USER    Run = 14
DOCKED: USER
DOCKED: USER    Estimated Free Energy of Binding    =  -6.34 kcal/mol  [=(1)+(2)+(3)-(4)]
DOCKED: USER
DOCKED: USER    (1) Final Intermolecular Energy     =  -9.33 kcal/mol
DOCKED: USER        vdW + Hbond + desolv Energy     =  -9.47 kcal/mol
DOCKED: USER        Electrostatic Energy            =  +0.14 kcal/mol
DOCKED: USER        Moving Ligand-Fixed Receptor    =  -9.33 kcal/mol
DOCKED: USER        Moving Ligand-Moving Receptor   =  +0.00 kcal/mol
DOCKED: USER    (2) Final Total Internal Energy     =  -0.65 kcal/mol
DOCKED: USER    (3) Torsional Free Energy           =  +2.98 kcal/mol
DOCKED: USER    (4) Unbound System's Energy         =  -0.65 kcal/mol
DOCKED: USER
DOCKED: USER
DOCKED: REMARK SMILES O=C(CCCOc1ccc(Cl)cc1Cl)[N-]/N=C/c1cccc(C(F)(F)F)c1
DOCKED: REMARK SMILES IDX 2 1 1 2 15 3 16 4 17 5 18 6 19 7 27 8 20 9 22 10 21 11 23 12
DOCKED: REMARK SMILES IDX 24 13 25 14 26 15 3 16 4 17 5 18 6 19 7 20 8 21 13 22 9 23
DOCKED: REMARK SMILES IDX 12 24 10 25 14 26 11 27
DOCKED: REMARK H PARENT
DOCKED: USER                              x       y       z     vdW  Elec       q    Type
DOCKED: USER                           _______ _______ _______ _____ _____    ______ ____
DOCKED: ROOT
DOCKED: ATOM      1  C   UNL     1     140.303  73.955 221.139 -0.23 -0.01    +0.068 C  
DOCKED: ATOM      2  O   UNL     1     139.579  74.145 220.126 -0.03 +0.07    -0.319 OA 
DOCKED: ENDROOT
DOCKED: BRANCH   1   3
DOCKED: ATOM      3  N   UNL     1     140.040  74.704 222.327 -0.53 +0.01    -0.545 NA 
DOCKED: BRANCH   3   4
DOCKED: ATOM      4  N   UNL     1     139.959  76.102 222.311 -0.29 +0.07    -0.372 NA 
DOCKED: BRANCH   4   5
DOCKED: ATOM      5  C   UNL     1     141.023  76.835 222.360 -0.30 -0.04    +0.094 C  
DOCKED: BRANCH   5   6
DOCKED: ATOM      6  C   UNL     1     140.955  78.236 222.818 -0.48 +0.00    -0.009 A  
DOCKED: ATOM      7  C   UNL     1     142.143  78.946 223.044 -0.55 -0.00    +0.009 A  
DOCKED: ATOM      8  C   UNL     1     139.720  78.869 223.056 -0.37 -0.00    +0.022 A  
DOCKED: ATOM      9  C   UNL     1     142.102  80.264 223.499 -0.64 -0.00    +0.001 A  
DOCKED: ATOM     10  C   UNL     1     139.673  80.187 223.545 -0.40 -0.01    +0.056 A  
DOCKED: ATOM     11  C   UNL     1     140.875  80.886 223.742 -0.45 -0.00    +0.013 A  
DOCKED: BRANCH  10  12
DOCKED: ATOM     12  C   UNL     1     138.352  80.879 223.776 -0.17 -0.04    +0.416 C  
DOCKED: ATOM     13  F   UNL     1     137.305  80.029 223.462 -0.08 +0.02    -0.166 F  
DOCKED: ATOM     14  F   UNL     1     138.238  82.014 222.993 -0.06 +0.02    -0.166 F  
DOCKED: ATOM     15  F   UNL     1     138.255  81.241 225.107 -0.13 +0.01    -0.166 F  
DOCKED: ENDBRANCH  10  12
DOCKED: ENDBRANCH   5   6
DOCKED: ENDBRANCH   4   5
DOCKED: ENDBRANCH   3   4
DOCKED: ENDBRANCH   1   3
DOCKED: BRANCH   1  16
DOCKED: ATOM     16  C   UNL     1     141.375  72.894 221.102 -0.24 -0.01    +0.060 C  
DOCKED: BRANCH  16  17
DOCKED: ATOM     17  C   UNL     1     141.118  71.750 222.094 -0.17 -0.00    +0.048 C  
DOCKED: BRANCH  17  18
DOCKED: ATOM     18  C   UNL     1     139.631  71.460 222.324 -0.18 -0.04    +0.230 C  
DOCKED: BRANCH  18  19
DOCKED: ATOM     19  O   UNL     1     139.270  71.710 223.686 -0.12 +0.14    -0.492 OA 
DOCKED: BRANCH  19  20
DOCKED: ATOM     20  C   UNL     1     139.703  71.001 224.821 -0.37 -0.03    +0.137 A  
DOCKED: ATOM     21  C   UNL     1     140.667  71.504 225.721 -0.57 -0.01    +0.049 A  
DOCKED: ATOM     22  C   UNL     1     139.164  69.723 225.049 -0.34 -0.01    +0.084 A  
DOCKED: ATOM     23  C   UNL     1     141.077  70.738 226.816 -0.61 -0.00    +0.024 A  
DOCKED: ATOM     24  C   UNL     1     139.578  68.964 226.149 -0.48 -0.01    +0.045 A  
DOCKED: ATOM     25  C   UNL     1     140.535  69.468 227.031 -0.55 -0.01    +0.042 A  
DOCKED: ATOM     26  Cl  UNL     1     137.954  69.061 223.960 -0.35 +0.01    -0.080 Cl 
DOCKED: ATOM     27  Cl  UNL     1     141.050  68.515 228.410 -0.77 +0.02    -0.084 Cl 
DOCKED: ENDBRANCH  19  20
DOCKED: ENDBRANCH  18  19
DOCKED: ENDBRANCH  17  18
DOCKED: ENDBRANCH  16  17
DOCKED: ENDBRANCH   1  16
DOCKED: TORSDOF 10
DOCKED: TER
DOCKED: ENDMDL
________________________________________________________________________________


    FINAL DOCKED STATE:
    ________________________


Run:   15 / 20
Time taken for this run:   0.040s

DOCKED: MODEL        15
DOCKED: USER    Run = 15
DOCKED: USER
DOCKED: USER    Estimated Free Energy of Binding    =  -5.51 kcal/mol  [=(1)+(2)+(3)-(4)]
DOCKED: USER
DOCKED: USER    (1) Final Intermolecular Energy     =  -8.50 kcal/mol
DOCKED: USER        vdW + Hbond + desolv Energy     =  -8.60 kcal/mol
DOCKED: USER        Electrostatic Energy            =  +0.10 kcal/mol
DOCKED: USER        Moving Ligand-Fixed Receptor    =  -8.50 kcal/mol
DOCKED: USER        Moving Ligand-Moving Receptor   =  +0.00 kcal/mol
DOCKED: USER    (2) Final Total Internal Energy     =  -1.63 kcal/mol
DOCKED: USER    (3) Torsional Free Energy           =  +2.98 kcal/mol
DOCKED: USER    (4) Unbound System's Energy         =  -1.63 kcal/mol
DOCKED: USER
DOCKED: USER
DOCKED: REMARK SMILES O=C(CCCOc1ccc(Cl)cc1Cl)[N-]/N=C/c1cccc(C(F)(F)F)c1
DOCKED: REMARK SMILES IDX 2 1 1 2 15 3 16 4 17 5 18 6 19 7 27 8 20 9 22 10 21 11 23 12
DOCKED: REMARK SMILES IDX 24 13 25 14 26 15 3 16 4 17 5 18 6 19 7 20 8 21 13 22 9 23
DOCKED: REMARK SMILES IDX 12 24 10 25 14 26 11 27
DOCKED: REMARK H PARENT
DOCKED: USER                              x       y       z     vdW  Elec       q    Type
DOCKED: USER                           _______ _______ _______ _____ _____    ______ ____
DOCKED: ROOT
DOCKED: ATOM      1  C   UNL     1     140.407  75.339 221.902 -0.27 -0.01    +0.068 C  
DOCKED: ATOM      2  O   UNL     1     141.100  76.179 222.534 -0.28 +0.10    -0.319 OA 
DOCKED: ENDROOT
DOCKED: BRANCH   1   3
DOCKED: ATOM      3  N   UNL     1     140.759  73.956 221.980 -0.56 +0.01    -0.545 NA 
DOCKED: BRANCH   3   4
DOCKED: ATOM      4  N   UNL     1     140.000  73.046 222.726 -0.57 +0.04    -0.372 NA 
DOCKED: BRANCH   4   5
DOCKED: ATOM      5  C   UNL     1     140.380  71.818 222.872 -0.30 -0.01    +0.094 C  
DOCKED: BRANCH   5   6
DOCKED: ATOM      6  C   UNL     1     140.236  71.132 224.170 -0.44 +0.00    -0.009 A  
DOCKED: ATOM      7  C   UNL     1     139.616  69.876 224.221 -0.33 -0.00    +0.009 A  
DOCKED: ATOM      8  C   UNL     1     140.689  71.725 225.365 -0.48 -0.00    +0.022 A  
DOCKED: ATOM      9  C   UNL     1     139.450  69.220 225.441 -0.44 -0.00    +0.001 A  
DOCKED: ATOM     10  C   UNL     1     140.495  71.082 226.602 -0.59 -0.01    +0.056 A  
DOCKED: ATOM     11  C   UNL     1     139.891  69.815 226.625 -0.52 -0.00    +0.013 A  
DOCKED: BRANCH  10  12
DOCKED: ATOM     12  C   UNL     1     141.001  71.701 227.881 -0.40 -0.09    +0.416 C  
DOCKED: ATOM     13  F   UNL     1     141.644  70.747 228.652 -0.14 +0.03    -0.166 F  
DOCKED: ATOM     14  F   UNL     1     139.963  72.231 228.626 -0.29 +0.06    -0.166 F  
DOCKED: ATOM     15  F   UNL     1     141.895  72.710 227.576 -0.32 +0.03    -0.166 F  
DOCKED: ENDBRANCH  10  12
DOCKED: ENDBRANCH   5   6
DOCKED: ENDBRANCH   4   5
DOCKED: ENDBRANCH   3   4
DOCKED: ENDBRANCH   1   3
DOCKED: BRANCH   1  16
DOCKED: ATOM     16  C   UNL     1     139.184  75.795 221.145 -0.20 -0.01    +0.060 C  
DOCKED: BRANCH  16  17
DOCKED: ATOM     17  C   UNL     1     138.999  75.064 219.809 -0.06 -0.01    +0.048 C  
DOCKED: BRANCH  17  18
DOCKED: ATOM     18  C   UNL     1     139.644  75.785 218.620 -0.01 -0.06    +0.230 C  
DOCKED: BRANCH  18  19
DOCKED: ATOM     19  O   UNL     1     140.786  75.064 218.148 +0.02 +0.14    -0.492 OA 
DOCKED: BRANCH  19  20
DOCKED: ATOM     20  C   UNL     1     141.934  74.718 218.883 -0.09 -0.04    +0.137 A  
DOCKED: ATOM     21  C   UNL     1     142.917  75.657 219.262 -0.30 -0.02    +0.049 A  
DOCKED: ATOM     22  C   UNL     1     142.115  73.368 219.231 -0.10 -0.02    +0.084 A  
DOCKED: ATOM     23  C   UNL     1     144.051  75.245 219.967 -0.40 -0.01    +0.024 A  
DOCKED: ATOM     24  C   UNL     1     143.252  72.965 219.940 -0.24 -0.01    +0.045 A  
DOCKED: ATOM     25  C   UNL     1     144.221  73.900 220.306 -0.42 -0.01    +0.042 A  
DOCKED: ATOM     26  Cl  UNL     1     140.912  72.166 218.789 -0.05 +0.01    -0.080 Cl 
DOCKED: ATOM     27  Cl  UNL     1     145.643  73.391 221.196 -0.83 +0.01    -0.084 Cl 
DOCKED: ENDBRANCH  19  20
DOCKED: ENDBRANCH  18  19
DOCKED: ENDBRANCH  17  18
DOCKED: ENDBRANCH  16  17
DOCKED: ENDBRANCH   1  16
DOCKED: TORSDOF 10
DOCKED: TER
DOCKED: ENDMDL
________________________________________________________________________________


    FINAL DOCKED STATE:
    ________________________


Run:   16 / 20
Time taken for this run:   0.040s

DOCKED: MODEL        16
DOCKED: USER    Run = 16
DOCKED: USER
DOCKED: USER    Estimated Free Energy of Binding    =  -6.38 kcal/mol  [=(1)+(2)+(3)-(4)]
DOCKED: USER
DOCKED: USER    (1) Final Intermolecular Energy     =  -9.36 kcal/mol
DOCKED: USER        vdW + Hbond + desolv Energy     =  -9.41 kcal/mol
DOCKED: USER        Electrostatic Energy            =  +0.05 kcal/mol
DOCKED: USER        Moving Ligand-Fixed Receptor    =  -9.36 kcal/mol
DOCKED: USER        Moving Ligand-Moving Receptor   =  +0.00 kcal/mol
DOCKED: USER    (2) Final Total Internal Energy     =  -0.74 kcal/mol
DOCKED: USER    (3) Torsional Free Energy           =  +2.98 kcal/mol
DOCKED: USER    (4) Unbound System's Energy         =  -0.74 kcal/mol
DOCKED: USER
DOCKED: USER
DOCKED: REMARK SMILES O=C(CCCOc1ccc(Cl)cc1Cl)[N-]/N=C/c1cccc(C(F)(F)F)c1
DOCKED: REMARK SMILES IDX 2 1 1 2 15 3 16 4 17 5 18 6 19 7 27 8 20 9 22 10 21 11 23 12
DOCKED: REMARK SMILES IDX 24 13 25 14 26 15 3 16 4 17 5 18 6 19 7 20 8 21 13 22 9 23
DOCKED: REMARK SMILES IDX 12 24 10 25 14 26 11 27
DOCKED: REMARK H PARENT
DOCKED: USER                              x       y       z     vdW  Elec       q    Type
DOCKED: USER                           _______ _______ _______ _____ _____    ______ ____
DOCKED: ROOT
DOCKED: ATOM      1  C   UNL     1     141.039  74.118 220.823 -0.24 -0.01    +0.068 C  
DOCKED: ATOM      2  O   UNL     1     142.252  74.020 220.498 -0.16 +0.08    -0.319 OA 
DOCKED: ENDROOT
DOCKED: BRANCH   1   3
DOCKED: ATOM      3  N   UNL     1     140.691  74.078 222.208 -0.49 -0.04    -0.545 NA 
DOCKED: BRANCH   3   4
DOCKED: ATOM      4  N   UNL     1     139.949  73.020 222.748 -0.56 +0.04    -0.372 NA 
DOCKED: BRANCH   4   5
DOCKED: ATOM      5  C   UNL     1     140.492  71.867 222.972 -0.29 -0.01    +0.094 C  
DOCKED: BRANCH   5   6
DOCKED: ATOM      6  C   UNL     1     140.252  71.153 224.241 -0.45 +0.00    -0.009 A  
DOCKED: ATOM      7  C   UNL     1     139.545  69.942 224.226 -0.34 -0.00    +0.009 A  
DOCKED: ATOM      8  C   UNL     1     140.697  71.675 225.470 -0.51 -0.00    +0.022 A  
DOCKED: ATOM      9  C   UNL     1     139.287  69.261 225.417 -0.43 -0.00    +0.001 A  
DOCKED: ATOM     10  C   UNL     1     140.411  71.010 226.677 -0.58 -0.01    +0.056 A  
DOCKED: ATOM     11  C   UNL     1     139.722  69.787 226.635 -0.50 -0.00    +0.013 A  
DOCKED: BRANCH  10  12
DOCKED: ATOM     12  C   UNL     1     140.909  71.551 227.994 -0.40 -0.09    +0.416 C  
DOCKED: ATOM     13  F   UNL     1     141.788  72.598 227.780 -0.31 +0.04    -0.166 F  
DOCKED: ATOM     14  F   UNL     1     141.567  70.574 228.719 -0.14 +0.03    -0.166 F  
DOCKED: ATOM     15  F   UNL     1     139.834  72.009 228.732 -0.28 +0.05    -0.166 F  
DOCKED: ENDBRANCH  10  12
DOCKED: ENDBRANCH   5   6
DOCKED: ENDBRANCH   4   5
DOCKED: ENDBRANCH   3   4
DOCKED: ENDBRANCH   1   3
DOCKED: BRANCH   1  16
DOCKED: ATOM     16  C   UNL     1     139.997  74.355 219.758 -0.08 -0.01    +0.060 C  
DOCKED: BRANCH  16  17
DOCKED: ATOM     17  C   UNL     1     140.373  75.488 218.793 -0.06 -0.01    +0.048 C  
DOCKED: BRANCH  17  18
DOCKED: ATOM     18  C   UNL     1     141.488  76.398 219.321 -0.12 -0.10    +0.230 C  
DOCKED: BRANCH  18  19
DOCKED: ATOM     19  O   UNL     1     140.966  77.679 219.688 -0.01 +0.21    -0.492 OA 
DOCKED: BRANCH  19  20
DOCKED: ATOM     20  C   UNL     1     141.354  78.470 220.784 -0.24 -0.07    +0.137 A  
DOCKED: ATOM     21  C   UNL     1     141.252  78.033 222.122 -0.38 -0.02    +0.049 A  
DOCKED: ATOM     22  C   UNL     1     141.840  79.764 220.528 -0.28 -0.04    +0.084 A  
DOCKED: ATOM     23  C   UNL     1     141.626  78.878 223.171 -0.56 -0.01    +0.024 A  
DOCKED: ATOM     24  C   UNL     1     142.215  80.602 221.583 -0.41 -0.02    +0.045 A  
DOCKED: ATOM     25  C   UNL     1     142.107  80.162 222.904 -0.57 -0.01    +0.042 A  
DOCKED: ATOM     26  Cl  UNL     1     141.992  80.346 218.878 -0.37 +0.05    -0.080 Cl 
DOCKED: ATOM     27  Cl  UNL     1     142.581  81.216 224.223 -0.64 +0.01    -0.084 Cl 
DOCKED: ENDBRANCH  19  20
DOCKED: ENDBRANCH  18  19
DOCKED: ENDBRANCH  17  18
DOCKED: ENDBRANCH  16  17
DOCKED: ENDBRANCH   1  16
DOCKED: TORSDOF 10
DOCKED: TER
DOCKED: ENDMDL
________________________________________________________________________________


    FINAL DOCKED STATE:
    ________________________


Run:   17 / 20
Time taken for this run:   0.040s

DOCKED: MODEL        17
DOCKED: USER    Run = 17
DOCKED: USER
DOCKED: USER    Estimated Free Energy of Binding    =  -6.29 kcal/mol  [=(1)+(2)+(3)-(4)]
DOCKED: USER
DOCKED: USER    (1) Final Intermolecular Energy     =  -9.27 kcal/mol
DOCKED: USER        vdW + Hbond + desolv Energy     =  -9.50 kcal/mol
DOCKED: USER        Electrostatic Energy            =  +0.23 kcal/mol
DOCKED: USER        Moving Ligand-Fixed Receptor    =  -9.27 kcal/mol
DOCKED: USER        Moving Ligand-Moving Receptor   =  +0.00 kcal/mol
DOCKED: USER    (2) Final Total Internal Energy     =  -0.69 kcal/mol
DOCKED: USER    (3) Torsional Free Energy           =  +2.98 kcal/mol
DOCKED: USER    (4) Unbound System's Energy         =  -0.69 kcal/mol
DOCKED: USER
DOCKED: USER
DOCKED: REMARK SMILES O=C(CCCOc1ccc(Cl)cc1Cl)[N-]/N=C/c1cccc(C(F)(F)F)c1
DOCKED: REMARK SMILES IDX 2 1 1 2 15 3 16 4 17 5 18 6 19 7 27 8 20 9 22 10 21 11 23 12
DOCKED: REMARK SMILES IDX 24 13 25 14 26 15 3 16 4 17 5 18 6 19 7 20 8 21 13 22 9 23
DOCKED: REMARK SMILES IDX 12 24 10 25 14 26 11 27
DOCKED: REMARK H PARENT
DOCKED: USER                              x       y       z     vdW  Elec       q    Type
DOCKED: USER                           _______ _______ _______ _____ _____    ______ ____
DOCKED: ROOT
DOCKED: ATOM      1  C   UNL     1     140.977  74.193 221.290 -0.27 -0.01    +0.068 C  
DOCKED: ATOM      2  O   UNL     1     142.080  74.510 220.772 -0.20 +0.09    -0.319 OA 
DOCKED: ENDROOT
DOCKED: BRANCH   1   3
DOCKED: ATOM      3  N   UNL     1     140.323  75.129 222.150 -0.44 +0.04    -0.545 NA 
DOCKED: BRANCH   3   4
DOCKED: ATOM      4  N   UNL     1     140.001  76.421 221.719 -0.15 +0.09    -0.372 NA 
DOCKED: BRANCH   4   5
DOCKED: ATOM      5  C   UNL     1     139.786  77.375 222.566 -0.26 -0.02    +0.094 C  
DOCKED: BRANCH   5   6
DOCKED: ATOM      6  C   UNL     1     140.641  78.578 222.583 -0.42 +0.00    -0.009 A  
DOCKED: ATOM      7  C   UNL     1     141.727  78.638 223.468 -0.60 -0.00    +0.009 A  
DOCKED: ATOM      8  C   UNL     1     140.372  79.678 221.745 -0.26 -0.01    +0.022 A  
DOCKED: ATOM      9  C   UNL     1     142.534  79.776 223.516 -0.64 -0.00    +0.001 A  
DOCKED: ATOM     10  C   UNL     1     141.164  80.839 221.813 -0.36 -0.01    +0.056 A  
DOCKED: ATOM     11  C   UNL     1     142.260  80.868 222.691 -0.57 -0.00    +0.013 A  
DOCKED: BRANCH  10  12
DOCKED: ATOM     12  C   UNL     1     140.898  82.010 220.899 -0.14 -0.10    +0.416 C  
DOCKED: ATOM     13  F   UNL     1     139.615  81.935 220.386 -0.03 +0.04    -0.166 F  
DOCKED: ATOM     14  F   UNL     1     141.787  82.029 219.840 -0.10 +0.05    -0.166 F  
DOCKED: ATOM     15  F   UNL     1     141.029  83.185 221.616 -0.13 +0.02    -0.166 F  
DOCKED: ENDBRANCH  10  12
DOCKED: ENDBRANCH   5   6
DOCKED: ENDBRANCH   4   5
DOCKED: ENDBRANCH   3   4
DOCKED: ENDBRANCH   1   3
DOCKED: BRANCH   1  16
DOCKED: ATOM     16  C   UNL     1     140.334  72.875 220.933 -0.18 -0.01    +0.060 C  
DOCKED: BRANCH  16  17
DOCKED: ATOM     17  C   UNL     1     139.528  72.269 222.091 -0.25 -0.01    +0.048 C  
DOCKED: BRANCH  17  18
DOCKED: ATOM     18  C   UNL     1     140.377  71.942 223.324 -0.23 -0.03    +0.230 C  
DOCKED: BRANCH  18  19
DOCKED: ATOM     19  O   UNL     1     139.551  71.505 224.407 -0.17 +0.12    -0.492 OA 
DOCKED: BRANCH  19  20
DOCKED: ATOM     20  C   UNL     1     139.950  70.760 225.532 -0.41 -0.02    +0.137 A  
DOCKED: ATOM     21  C   UNL     1     140.639  71.326 226.625 -0.63 -0.01    +0.049 A  
DOCKED: ATOM     22  C   UNL     1     139.668  69.382 225.547 -0.39 -0.01    +0.084 A  
DOCKED: ATOM     23  C   UNL     1     141.035  70.526 227.700 -0.62 -0.00    +0.024 A  
DOCKED: ATOM     24  C   UNL     1     140.066  68.589 226.629 -0.57 -0.01    +0.045 A  
DOCKED: ATOM     25  C   UNL     1     140.750  69.158 227.704 -0.59 -0.01    +0.042 A  
DOCKED: ATOM     26  Cl  UNL     1     138.804  68.636 224.212 -0.42 +0.01    -0.080 Cl 
DOCKED: ATOM     27  Cl  UNL     1     141.245  68.161 229.059 -0.47 +0.02    -0.084 Cl 
DOCKED: ENDBRANCH  19  20
DOCKED: ENDBRANCH  18  19
DOCKED: ENDBRANCH  17  18
DOCKED: ENDBRANCH  16  17
DOCKED: ENDBRANCH   1  16
DOCKED: TORSDOF 10
DOCKED: TER
DOCKED: ENDMDL
________________________________________________________________________________


    FINAL DOCKED STATE:
    ________________________


Run:   18 / 20
Time taken for this run:   0.040s

DOCKED: MODEL        18
DOCKED: USER    Run = 18
DOCKED: USER
DOCKED: USER    Estimated Free Energy of Binding    =  -6.50 kcal/mol  [=(1)+(2)+(3)-(4)]
DOCKED: USER
DOCKED: USER    (1) Final Intermolecular Energy     =  -9.48 kcal/mol
DOCKED: USER        vdW + Hbond + desolv Energy     =  -9.59 kcal/mol
DOCKED: USER        Electrostatic Energy            =  +0.11 kcal/mol
DOCKED: USER        Moving Ligand-Fixed Receptor    =  -9.48 kcal/mol
DOCKED: USER        Moving Ligand-Moving Receptor   =  +0.00 kcal/mol
DOCKED: USER    (2) Final Total Internal Energy     =  -0.76 kcal/mol
DOCKED: USER    (3) Torsional Free Energy           =  +2.98 kcal/mol
DOCKED: USER    (4) Unbound System's Energy         =  -0.76 kcal/mol
DOCKED: USER
DOCKED: USER
DOCKED: REMARK SMILES O=C(CCCOc1ccc(Cl)cc1Cl)[N-]/N=C/c1cccc(C(F)(F)F)c1
DOCKED: REMARK SMILES IDX 2 1 1 2 15 3 16 4 17 5 18 6 19 7 27 8 20 9 22 10 21 11 23 12
DOCKED: REMARK SMILES IDX 24 13 25 14 26 15 3 16 4 17 5 18 6 19 7 20 8 21 13 22 9 23
DOCKED: REMARK SMILES IDX 12 24 10 25 14 26 11 27
DOCKED: REMARK H PARENT
DOCKED: USER                              x       y       z     vdW  Elec       q    Type
DOCKED: USER                           _______ _______ _______ _____ _____    ______ ____
DOCKED: ROOT
DOCKED: ATOM      1  C   UNL     1     138.661  74.145 221.684 -0.19 -0.02    +0.068 C  
DOCKED: ATOM      2  O   UNL     1     137.749  73.554 222.322 -0.09 +0.12    -0.319 OA 
DOCKED: ENDROOT
DOCKED: BRANCH   1   3
DOCKED: ATOM      3  N   UNL     1     140.023  73.817 221.966 -0.63 +0.06    -0.545 NA 
DOCKED: BRANCH   3   4
DOCKED: ATOM      4  N   UNL     1     140.370  72.957 223.014 -0.35 -0.00    -0.372 NA 
DOCKED: BRANCH   4   5
DOCKED: ATOM      5  C   UNL     1     139.976  71.724 223.026 -0.31 -0.02    +0.094 C  
DOCKED: BRANCH   5   6
DOCKED: ATOM      6  C   UNL     1     140.009  70.933 224.271 -0.43 +0.00    -0.009 A  
DOCKED: ATOM      7  C   UNL     1     139.557  69.606 224.257 -0.32 -0.00    +0.009 A  
DOCKED: ATOM      8  C   UNL     1     140.463  71.493 225.482 -0.54 -0.00    +0.022 A  
DOCKED: ATOM      9  C   UNL     1     139.558  68.848 225.428 -0.46 -0.00    +0.001 A  
DOCKED: ATOM     10  C   UNL     1     140.436  70.743 226.672 -0.56 -0.01    +0.056 A  
DOCKED: ATOM     11  C   UNL     1     140.001  69.408 226.628 -0.53 -0.00    +0.013 A  
DOCKED: BRANCH  10  12
DOCKED: ATOM     12  C   UNL     1     140.946  71.328 227.966 -0.37 -0.08    +0.416 C  
DOCKED: ATOM     13  F   UNL     1     139.891  71.800 228.726 -0.28 +0.05    -0.166 F  
DOCKED: ATOM     14  F   UNL     1     141.815  72.379 227.731 -0.32 +0.03    -0.166 F  
DOCKED: ATOM     15  F   UNL     1     141.611  70.347 228.677 -0.12 +0.03    -0.166 F  
DOCKED: ENDBRANCH  10  12
DOCKED: ENDBRANCH   5   6
DOCKED: ENDBRANCH   4   5
DOCKED: ENDBRANCH   3   4
DOCKED: ENDBRANCH   1   3
DOCKED: BRANCH   1  16
DOCKED: ATOM     16  C   UNL     1     138.298  75.119 220.591 -0.10 -0.01    +0.060 C  
DOCKED: BRANCH  16  17
DOCKED: ATOM     17  C   UNL     1     137.493  76.322 221.104 -0.11 -0.01    +0.048 C  
DOCKED: BRANCH  17  18
DOCKED: ATOM     18  C   UNL     1     137.500  76.458 222.631 -0.20 -0.05    +0.230 C  
DOCKED: BRANCH  18  19
DOCKED: ATOM     19  O   UNL     1     137.789  77.804 223.019 -0.08 +0.07    -0.492 OA 
DOCKED: BRANCH  19  20
DOCKED: ATOM     20  C   UNL     1     139.056  78.412 223.090 -0.24 -0.02    +0.137 A  
DOCKED: ATOM     21  C   UNL     1     140.243  77.766 222.687 -0.36 -0.01    +0.049 A  
DOCKED: ATOM     22  C   UNL     1     139.136  79.716 223.611 -0.36 -0.01    +0.084 A  
DOCKED: ATOM     23  C   UNL     1     141.476  78.413 222.810 -0.50 -0.01    +0.024 A  
DOCKED: ATOM     24  C   UNL     1     140.373  80.358 223.728 -0.41 -0.01    +0.045 A  
DOCKED: ATOM     25  C   UNL     1     141.543  79.708 223.331 -0.54 -0.01    +0.042 A  
DOCKED: ATOM     26  Cl  UNL     1     137.682  80.563 224.116 -0.42 +0.01    -0.080 Cl 
DOCKED: ATOM     27  Cl  UNL     1     143.092  80.517 223.477 -0.77 +0.02    -0.084 Cl 
DOCKED: ENDBRANCH  19  20
DOCKED: ENDBRANCH  18  19
DOCKED: ENDBRANCH  17  18
DOCKED: ENDBRANCH  16  17
DOCKED: ENDBRANCH   1  16
DOCKED: TORSDOF 10
DOCKED: TER
DOCKED: ENDMDL
________________________________________________________________________________


    FINAL DOCKED STATE:
    ________________________


Run:   19 / 20
Time taken for this run:   0.040s

DOCKED: MODEL        19
DOCKED: USER    Run = 19
DOCKED: USER
DOCKED: USER    Estimated Free Energy of Binding    =  -6.05 kcal/mol  [=(1)+(2)+(3)-(4)]
DOCKED: USER
DOCKED: USER    (1) Final Intermolecular Energy     =  -9.03 kcal/mol
DOCKED: USER        vdW + Hbond + desolv Energy     =  -9.21 kcal/mol
DOCKED: USER        Electrostatic Energy            =  +0.18 kcal/mol
DOCKED: USER        Moving Ligand-Fixed Receptor    =  -9.03 kcal/mol
DOCKED: USER        Moving Ligand-Moving Receptor   =  +0.00 kcal/mol
DOCKED: USER    (2) Final Total Internal Energy     =  -0.83 kcal/mol
DOCKED: USER    (3) Torsional Free Energy           =  +2.98 kcal/mol
DOCKED: USER    (4) Unbound System's Energy         =  -0.83 kcal/mol
DOCKED: USER
DOCKED: USER
DOCKED: REMARK SMILES O=C(CCCOc1ccc(Cl)cc1Cl)[N-]/N=C/c1cccc(C(F)(F)F)c1
DOCKED: REMARK SMILES IDX 2 1 1 2 15 3 16 4 17 5 18 6 19 7 27 8 20 9 22 10 21 11 23 12
DOCKED: REMARK SMILES IDX 24 13 25 14 26 15 3 16 4 17 5 18 6 19 7 20 8 21 13 22 9 23
DOCKED: REMARK SMILES IDX 12 24 10 25 14 26 11 27
DOCKED: REMARK H PARENT
DOCKED: USER                              x       y       z     vdW  Elec       q    Type
DOCKED: USER                           _______ _______ _______ _____ _____    ______ ____
DOCKED: ROOT
DOCKED: ATOM      1  C   UNL     1     138.621  74.708 221.899 -0.20 -0.02    +0.068 C  
DOCKED: ATOM      2  O   UNL     1     137.763  75.356 221.244 -0.07 +0.07    -0.319 OA 
DOCKED: ENDROOT
DOCKED: BRANCH   1   3
DOCKED: ATOM      3  N   UNL     1     139.578  75.424 222.682 -0.26 +0.07    -0.545 NA 
DOCKED: BRANCH   3   4
DOCKED: ATOM      4  N   UNL     1     140.843  75.750 222.178 -0.29 +0.08    -0.372 NA 
DOCKED: BRANCH   4   5
DOCKED: ATOM      5  C   UNL     1     141.061  76.885 221.597 -0.31 -0.04    +0.094 C  
DOCKED: BRANCH   5   6
DOCKED: ATOM      6  C   UNL     1     140.908  78.153 222.335 -0.43 +0.00    -0.009 A  
DOCKED: ATOM      7  C   UNL     1     142.051  78.877 222.705 -0.49 -0.00    +0.009 A  
DOCKED: ATOM      8  C   UNL     1     139.638  78.640 222.699 -0.34 -0.00    +0.022 A  
DOCKED: ATOM      9  C   UNL     1     141.931  80.067 223.424 -0.62 -0.00    +0.001 A  
DOCKED: ATOM     10  C   UNL     1     139.513  79.823 223.451 -0.39 -0.01    +0.056 A  
DOCKED: ATOM     11  C   UNL     1     140.670  80.542 223.790 -0.43 -0.00    +0.013 A  
DOCKED: BRANCH  10  12
DOCKED: ATOM     12  C   UNL     1     138.153  80.363 223.819 -0.16 -0.05    +0.416 C  
DOCKED: ATOM     13  F   UNL     1     137.163  79.479 223.427 -0.08 +0.02    -0.166 F  
DOCKED: ATOM     14  F   UNL     1     137.915  81.580 223.205 -0.07 +0.02    -0.166 F  
DOCKED: ATOM     15  F   UNL     1     138.087  80.533 225.190 -0.16 +0.01    -0.166 F  
DOCKED: ENDBRANCH  10  12
DOCKED: ENDBRANCH   5   6
DOCKED: ENDBRANCH   4   5
DOCKED: ENDBRANCH   3   4
DOCKED: ENDBRANCH   1   3
DOCKED: BRANCH   1  16
DOCKED: ATOM     16  C   UNL     1     138.573  73.200 221.907 -0.17 -0.02    +0.060 C  
DOCKED: BRANCH  16  17
DOCKED: ATOM     17  C   UNL     1     139.920  72.555 221.551 -0.23 -0.01    +0.048 C  
DOCKED: BRANCH  17  18
DOCKED: ATOM     18  C   UNL     1     140.688  72.028 222.768 -0.20 -0.02    +0.230 C  
DOCKED: BRANCH  18  19
DOCKED: ATOM     19  O   UNL     1     139.793  71.730 223.843 -0.18 +0.11    -0.492 OA 
DOCKED: BRANCH  19  20
DOCKED: ATOM     20  C   UNL     1     140.087  71.015 225.018 -0.41 -0.02    +0.137 A  
DOCKED: ATOM     21  C   UNL     1     140.789  71.578 226.105 -0.60 -0.01    +0.049 A  
DOCKED: ATOM     22  C   UNL     1     139.682  69.671 225.095 -0.36 -0.01    +0.084 A  
DOCKED: ATOM     23  C   UNL     1     141.078  70.806 227.235 -0.64 -0.00    +0.024 A  
DOCKED: ATOM     24  C   UNL     1     139.972  68.907 226.231 -0.50 -0.01    +0.045 A  
DOCKED: ATOM     25  C   UNL     1     140.670  69.472 227.299 -0.56 -0.01    +0.042 A  
DOCKED: ATOM     26  Cl  UNL     1     138.797  68.932 223.770 -0.37 +0.01    -0.080 Cl 
DOCKED: ATOM     27  Cl  UNL     1     141.030  68.510 228.721 -0.71 +0.02    -0.084 Cl 
DOCKED: ENDBRANCH  19  20
DOCKED: ENDBRANCH  18  19
DOCKED: ENDBRANCH  17  18
DOCKED: ENDBRANCH  16  17
DOCKED: ENDBRANCH   1  16
DOCKED: TORSDOF 10
DOCKED: TER
DOCKED: ENDMDL
________________________________________________________________________________


    FINAL DOCKED STATE:
    ________________________


Run:   20 / 20
Time taken for this run:   0.040s

DOCKED: MODEL        20
DOCKED: USER    Run = 20
DOCKED: USER
DOCKED: USER    Estimated Free Energy of Binding    =  -6.44 kcal/mol  [=(1)+(2)+(3)-(4)]
DOCKED: USER
DOCKED: USER    (1) Final Intermolecular Energy     =  -9.43 kcal/mol
DOCKED: USER        vdW + Hbond + desolv Energy     =  -9.60 kcal/mol
DOCKED: USER        Electrostatic Energy            =  +0.17 kcal/mol
DOCKED: USER        Moving Ligand-Fixed Receptor    =  -9.43 kcal/mol
DOCKED: USER        Moving Ligand-Moving Receptor   =  +0.00 kcal/mol
DOCKED: USER    (2) Final Total Internal Energy     =  -0.55 kcal/mol
DOCKED: USER    (3) Torsional Free Energy           =  +2.98 kcal/mol
DOCKED: USER    (4) Unbound System's Energy         =  -0.55 kcal/mol
DOCKED: USER
DOCKED: USER
DOCKED: REMARK SMILES O=C(CCCOc1ccc(Cl)cc1Cl)[N-]/N=C/c1cccc(C(F)(F)F)c1
DOCKED: REMARK SMILES IDX 2 1 1 2 15 3 16 4 17 5 18 6 19 7 27 8 20 9 22 10 21 11 23 12
DOCKED: REMARK SMILES IDX 24 13 25 14 26 15 3 16 4 17 5 18 6 19 7 20 8 21 13 22 9 23
DOCKED: REMARK SMILES IDX 12 24 10 25 14 26 11 27
DOCKED: REMARK H PARENT
DOCKED: USER                              x       y       z     vdW  Elec       q    Type
DOCKED: USER                           _______ _______ _______ _____ _____    ______ ____
DOCKED: ROOT
DOCKED: ATOM      1  C   UNL     1     140.342  74.369 221.906 -0.15 -0.01    +0.068 C  
DOCKED: ATOM      2  O   UNL     1     139.133  74.695 222.049 -0.41 +0.07    -0.319 OA 
DOCKED: ENDROOT
DOCKED: BRANCH   1   3
DOCKED: ATOM      3  N   UNL     1     140.762  73.072 222.335 -0.46 +0.00    -0.545 NA 
DOCKED: BRANCH   3   4
DOCKED: ATOM      4  N   UNL     1     140.212  72.459 223.467 -0.22 +0.05    -0.372 NA 
DOCKED: BRANCH   4   5
DOCKED: ATOM      5  C   UNL     1     140.658  71.323 223.897 -0.30 -0.01    +0.094 C  
DOCKED: BRANCH   5   6
DOCKED: ATOM      6  C   UNL     1     140.758  71.049 225.343 -0.56 +0.00    -0.009 A  
DOCKED: ATOM      7  C   UNL     1     141.037  72.101 226.227 -0.47 -0.00    +0.009 A  
DOCKED: ATOM      8  C   UNL     1     140.602  69.745 225.853 -0.49 -0.00    +0.022 A  
DOCKED: ATOM      9  C   UNL     1     141.158  71.859 227.596 -0.83 -0.00    +0.001 A  
DOCKED: ATOM     10  C   UNL     1     140.754  69.490 227.228 -0.54 -0.01    +0.056 A  
DOCKED: ATOM     11  C   UNL     1     141.011  70.563 228.097 -0.62 -0.00    +0.013 A  
DOCKED: BRANCH  10  12
DOCKED: ATOM     12  C   UNL     1     140.561  68.100 227.783 -0.25 -0.11    +0.416 C  
DOCKED: ATOM     13  F   UNL     1     141.114  67.163 226.928 -0.20 +0.05    -0.166 F  
DOCKED: ATOM     14  F   UNL     1     139.219  67.806 227.938 -0.04 +0.03    -0.166 F  
DOCKED: ATOM     15  F   UNL     1     141.185  68.012 229.013 -0.23 +0.05    -0.166 F  
DOCKED: ENDBRANCH  10  12
DOCKED: ENDBRANCH   5   6
DOCKED: ENDBRANCH   4   5
DOCKED: ENDBRANCH   3   4
DOCKED: ENDBRANCH   1   3
DOCKED: BRANCH   1  16
DOCKED: ATOM     16  C   UNL     1     141.295  75.315 221.220 -0.30 -0.02    +0.060 C  
DOCKED: BRANCH  16  17
DOCKED: ATOM     17  C   UNL     1     140.948  76.792 221.457 -0.32 -0.02    +0.048 C  
DOCKED: BRANCH  17  18
DOCKED: ATOM     18  C   UNL     1     141.697  77.755 220.528 -0.20 -0.13    +0.230 C  
DOCKED: BRANCH  18  19
DOCKED: ATOM     19  O   UNL     1     142.176  78.890 221.254 -0.11 +0.33    -0.492 OA 
DOCKED: BRANCH  19  20
DOCKED: ATOM     20  C   UNL     1     141.740  80.222 221.131 -0.31 -0.06    +0.137 A  
DOCKED: ATOM     21  C   UNL     1     141.247  80.761 219.923 -0.25 -0.02    +0.049 A  
DOCKED: ATOM     22  C   UNL     1     141.825  81.054 222.260 -0.45 -0.02    +0.084 A  
DOCKED: ATOM     23  C   UNL     1     140.856  82.101 219.857 -0.23 -0.01    +0.024 A  
DOCKED: ATOM     24  C   UNL     1     141.429  82.394 222.186 -0.30 -0.01    +0.045 A  
DOCKED: ATOM     25  C   UNL     1     140.947  82.919 220.986 -0.28 -0.01    +0.042 A  
DOCKED: ATOM     26  Cl  UNL     1     142.424  80.423 223.787 -0.80 +0.02    -0.080 Cl 
DOCKED: ATOM     27  Cl  UNL     1     140.449  84.598 220.898 -0.28 +0.01    -0.084 Cl 
DOCKED: ENDBRANCH  19  20
DOCKED: ENDBRANCH  18  19
DOCKED: ENDBRANCH  17  18
DOCKED: ENDBRANCH  16  17
DOCKED: ENDBRANCH   1  16
DOCKED: TORSDOF 10
DOCKED: TER
DOCKED: ENDMDL
________________________________________________________________________________


    CLUSTERING HISTOGRAM
    ____________________


________________________________________________________________________________
     |           |     |           |     |
Clus | Lowest    | Run | Mean      | Num | Histogram
-ter | Binding   |     | Binding   | in  |
Rank | Energy    |     | Energy    | Clus|    5    10   15   20   25   30   35
_____|___________|_____|___________|_____|____:____|____:____|____:____|____:___
   1 |     -7.01 |   4 |     -6.52 |   9 |#########
   2 |     -6.46 |  13 |     -6.45 |   2 |##
   3 |     -6.34 |  14 |     -6.18 |   4 |####
   4 |     -6.28 |   5 |     -5.90 |   2 |##
   5 |     -6.07 |   9 |     -6.07 |   1 |#
   6 |     -6.00 |  10 |     -6.00 |   1 |#
   7 |     -5.33 |   3 |     -5.33 |   1 |#
_____|___________|_____|___________|_____|______________________________________


    RMSD TABLE
    __________


_______________________________________________________________________
     |      |      |           |         |                 |
Rank | Sub- | Run  | Binding   | Cluster | Reference       | Grep
     | Rank |      | Energy    | RMSD    | RMSD            | Pattern
_____|______|______|___________|_________|_________________|___________
   1      1      4       -7.01      0.00    273.05           RANKING
   1      2      8       -6.65      0.66    273.10           RANKING
   1      3     11       -6.59      0.79    273.03           RANKING
   1      4     12       -6.51      0.58    272.94           RANKING
   1      5     18       -6.50      0.94    272.89           RANKING
   1      6      6       -6.49      1.49    272.88           RANKING
   1      7      2       -6.43      1.35    272.88           RANKING
   1      8     16       -6.38      1.73    272.77           RANKING
   1      9      7       -6.17      1.46    272.74           RANKING
   2      1     13       -6.46      0.00    272.91           RANKING
   2      2     20       -6.44      1.85    273.28           RANKING
   3      1     14       -6.34      0.00    272.75           RANKING
   3      2     17       -6.29      1.79    272.86           RANKING
   3      3     19       -6.05      0.94    272.74           RANKING
   3      4      1       -6.03      1.94    273.10           RANKING
   4      1      5       -6.28      0.00    272.16           RANKING
   4      2     15       -5.51      1.14    271.97           RANKING
   5      1      9       -6.07      0.00    271.28           RANKING
   6      1     10       -6.00      0.00    272.93           RANKING
   7      1      3       -5.33      0.00    272.02           RANKING

Run time 0.750 sec
Idle time 0.000 sec
