AutoDock-GPU version: v1.6

**********************************************************
**    AutoDock-GPU AUTODOCKTOOLS-COMPATIBLE DLG FILE    **
**********************************************************


    DOCKING PARAMETERS
    ________________________


Ligand file:                               /home/a/REINVENT4/ReinventStudies/scoringData/graph-dock/graph-DockGPU/node-autodockgpu/inputs/XUFANRSCLZKORJ-OUKQBFOZNA-N.pdbqt
Grid fld file:                             /home/a/REINVENT4/ReinventStudies/mols/Rad51/maps/rad51_receptor.maps.fld

Random seed:                               42
Number of runs:                            20
Number of energy evaluations:              1132076
Number of generations:                     42000
Size of population:                        150
Rate of crossover:                         80.000000%
Tournament selection probability limit:    60.000000%
Rate of mutation:                          2.000000%
Maximal allowed delta movement:            +/- 6.000000A
Maximal allowed delta angle:               +/- 90.000000

Rate of local search:                      100.000000%
Maximal number of local search iterations: 300
Rho lower bound:                           0.010000
Spread of local search delta movement:     2.000000A
Spread of local search delta angle:        74.999999
Limit of consecutive successes/failures:   4

Handle symmetry during clustering:         YES
RMSD tolerance:                            2.000000A

Program call in command line was:          /home/a/REINVENT4/ReinventStudies/adgpu-v1.6_linux_x64_cuda12_128wi --filelist batch.txt --heuristics 1 --nrun 20 --psize 150 --lsit 300 --seed 42 --heurmax 12000000 


    GRID PARAMETERS
    ________________________


Receptor name:                             rad51_receptor
Number of grid points (x, y, z):           53, 53, 53
Grid center (x, y, z):                     139.950000, 75.640000, 221.970000A
Grid size (x, y, z):                       19.500000, 19.500000, 19.500000A
Grid spacing:                              0.375000A


    LIGAND PARAMETERS
    ________________________


Ligand name:                               /home/a/REINVENT4/ReinventStudies/scoringData/graph-dock/graph-DockGPU/node-autodockgpu/inputs/XUFANRSCLZKORJ-OUKQBFOZNA-N
Number of atoms:                           26
Number of rotatable bonds:                 5
Number of atom types:                      5


    DUMMY DATA (only for ADT-compatibility)
    ________________________


DPF> outlev 1
DPF> ga_run 20
DPF> fld /home/a/REINVENT4/ReinventStudies/mols/Rad51/maps/rad51_receptor.maps.fld
DPF> move /home/a/REINVENT4/ReinventStudies/scoringData/graph-dock/graph-DockGPU/node-autodockgpu/inputs/XUFANRSCLZKORJ-OUKQBFOZNA-N.pdbqt


    COUNTER STATES
    ________________________


Number of energy evaluations performed:    701172
Number of generations used:                30


    INPUT LIGAND PDBQT FILE:
    ________________________


INPUT-LIGAND-PDBQT: REMARK SMILES O=c1c2ccccc2nc(/C=C/c2cccnc2)n1CC1CCCCC1
INPUT-LIGAND-PDBQT: REMARK SMILES IDX 10 1 9 2 8 3 7 4 6 5 5 6 4 7 3 8 2 9 1 10 19 11 11 12 12 13
INPUT-LIGAND-PDBQT: REMARK SMILES IDX 13 14 18 15 14 16 17 17 15 18 16 19 20 20 21 21 22 22 26 23
INPUT-LIGAND-PDBQT: REMARK SMILES IDX 23 24 25 25 24 26
INPUT-LIGAND-PDBQT: REMARK H PARENT
INPUT-LIGAND-PDBQT: ROOT
INPUT-LIGAND-PDBQT: ATOM      1  C   UNL     1      -0.941  -0.937   0.398  1.00  0.00     0.136 A 
INPUT-LIGAND-PDBQT: ATOM      2  N   UNL     1      -0.685  -1.383   1.658  1.00  0.00    -0.230 NA
INPUT-LIGAND-PDBQT: ATOM      3  C   UNL     1      -0.935  -0.637   2.756  1.00  0.00     0.078 A 
INPUT-LIGAND-PDBQT: ATOM      4  C   UNL     1      -0.643  -1.143   4.028  1.00  0.00     0.029 A 
INPUT-LIGAND-PDBQT: ATOM      5  C   UNL     1      -0.912  -0.375   5.165  1.00  0.00     0.002 A 
INPUT-LIGAND-PDBQT: ATOM      6  C   UNL     1      -1.475   0.897   5.032  1.00  0.00     0.001 A 
INPUT-LIGAND-PDBQT: ATOM      7  C   UNL     1      -1.770   1.406   3.763  1.00  0.00     0.016 A 
INPUT-LIGAND-PDBQT: ATOM      8  C   UNL     1      -1.498   0.638   2.613  1.00  0.00     0.066 A 
INPUT-LIGAND-PDBQT: ATOM      9  C   UNL     1      -1.776   1.100   1.317  1.00  0.00     0.261 A 
INPUT-LIGAND-PDBQT: ATOM     10  O   UNL     1      -2.331   2.226   1.177  1.00  0.00    -0.269 OA
INPUT-LIGAND-PDBQT: ATOM     11  N   UNL     1      -1.465   0.333   0.213  1.00  0.00    -0.292 N 
INPUT-LIGAND-PDBQT: ENDROOT
INPUT-LIGAND-PDBQT: BRANCH   1  12
INPUT-LIGAND-PDBQT: ATOM     12  C   UNL     1      -0.622  -1.855  -0.734  1.00  0.00     0.048 C 
INPUT-LIGAND-PDBQT: BRANCH  12  13
INPUT-LIGAND-PDBQT: ATOM     13  C   UNL     1      -0.316  -3.148  -0.541  1.00  0.00     0.013 C 
INPUT-LIGAND-PDBQT: BRANCH  13  14
INPUT-LIGAND-PDBQT: ATOM     14  C   UNL     1       0.034  -4.083  -1.639  1.00  0.00    -0.007 A 
INPUT-LIGAND-PDBQT: ATOM     15  C   UNL     1      -0.367  -3.879  -2.974  1.00  0.00     0.119 A 
INPUT-LIGAND-PDBQT: ATOM     16  C   UNL     1       0.766  -5.242  -1.336  1.00  0.00     0.011 A 
INPUT-LIGAND-PDBQT: ATOM     17  N   UNL     1      -0.027  -4.779  -3.937  1.00  0.00    -0.264 NA
INPUT-LIGAND-PDBQT: ATOM     18  C   UNL     1       1.104  -6.146  -2.344  1.00  0.00     0.021 A 
INPUT-LIGAND-PDBQT: ATOM     19  C   UNL     1       0.697  -5.892  -3.653  1.00  0.00     0.111 A 
INPUT-LIGAND-PDBQT: ENDBRANCH  13  14
INPUT-LIGAND-PDBQT: ENDBRANCH  12  13
INPUT-LIGAND-PDBQT: ENDBRANCH   1  12
INPUT-LIGAND-PDBQT: BRANCH  11  20
INPUT-LIGAND-PDBQT: ATOM     20  C   UNL     1      -1.757   0.873  -1.141  1.00  0.00     0.131 C 
INPUT-LIGAND-PDBQT: BRANCH  20  21
INPUT-LIGAND-PDBQT: ATOM     21  C   UNL     1      -0.600   1.715  -1.758  1.00  0.00     0.009 C 
INPUT-LIGAND-PDBQT: ATOM     22  C   UNL     1       0.782   1.007  -1.718  1.00  0.00     0.005 C 
INPUT-LIGAND-PDBQT: ATOM     23  C   UNL     1      -0.536   3.170  -1.211  1.00  0.00     0.005 C 
INPUT-LIGAND-PDBQT: ATOM     24  C   UNL     1       1.923   2.003  -1.953  1.00  0.00     0.000 C 
INPUT-LIGAND-PDBQT: ATOM     25  C   UNL     1       0.605   3.363  -0.204  1.00  0.00     0.000 C 
INPUT-LIGAND-PDBQT: ATOM     26  C   UNL     1       1.978   3.073  -0.843  1.00  0.00     0.000 C 
INPUT-LIGAND-PDBQT: ENDBRANCH  20  21
INPUT-LIGAND-PDBQT: ENDBRANCH  11  20
INPUT-LIGAND-PDBQT: TORSDOF 5


    FINAL DOCKED STATE:
    ________________________


Run:   1 / 20
Time taken for this run:   0.024s

DOCKED: MODEL        1
DOCKED: USER    Run = 1
DOCKED: USER
DOCKED: USER    Estimated Free Energy of Binding    =  -6.92 kcal/mol  [=(1)+(2)+(3)-(4)]
DOCKED: USER
DOCKED: USER    (1) Final Intermolecular Energy     =  -8.41 kcal/mol
DOCKED: USER        vdW + Hbond + desolv Energy     =  -8.36 kcal/mol
DOCKED: USER        Electrostatic Energy            =  -0.05 kcal/mol
DOCKED: USER        Moving Ligand-Fixed Receptor    =  -8.41 kcal/mol
DOCKED: USER        Moving Ligand-Moving Receptor   =  +0.00 kcal/mol
DOCKED: USER    (2) Final Total Internal Energy     =  -1.84 kcal/mol
DOCKED: USER    (3) Torsional Free Energy           =  +1.49 kcal/mol
DOCKED: USER    (4) Unbound System's Energy         =  -1.84 kcal/mol
DOCKED: USER
DOCKED: USER
DOCKED: REMARK SMILES O=c1c2ccccc2nc(/C=C/c2cccnc2)n1CC1CCCCC1
DOCKED: REMARK SMILES IDX 10 1 9 2 8 3 7 4 6 5 5 6 4 7 3 8 2 9 1 10 19 11 11 12 12 13
DOCKED: REMARK SMILES IDX 13 14 18 15 14 16 17 17 15 18 16 19 20 20 21 21 22 22 26 23
DOCKED: REMARK SMILES IDX 23 24 25 25 24 26
DOCKED: REMARK H PARENT
DOCKED: USER                              x       y       z     vdW  Elec       q    Type
DOCKED: USER                           _______ _______ _______ _____ _____    ______ ____
DOCKED: ROOT
DOCKED: ATOM      1  C   UNL     1     139.675  70.381 223.447 -0.23 -0.02    +0.136 A  
DOCKED: ATOM      2  N   UNL     1     140.291  71.248 224.297 -0.29 +0.04    -0.230 NA 
DOCKED: ATOM      3  C   UNL     1     140.437  70.989 225.615 -0.51 -0.01    +0.078 A  
DOCKED: ATOM      4  C   UNL     1     141.070  71.921 226.445 -0.68 -0.00    +0.029 A  
DOCKED: ATOM      5  C   UNL     1     141.231  71.649 227.807 -0.77 -0.00    +0.002 A  
DOCKED: ATOM      6  C   UNL     1     140.761  70.445 228.339 -0.57 -0.00    +0.001 A  
DOCKED: ATOM      7  C   UNL     1     140.129  69.510 227.513 -0.60 -0.00    +0.016 A  
DOCKED: ATOM      8  C   UNL     1     139.961  69.781 226.140 -0.45 -0.01    +0.066 A  
DOCKED: ATOM      9  C   UNL     1     139.336  68.877 225.267 -0.27 -0.03    +0.261 A  
DOCKED: ATOM     10  O   UNL     1     138.949  67.762 225.717 -0.81 -0.01    -0.269 OA 
DOCKED: ATOM     11  N   UNL     1     139.160  69.191 223.934 -0.14 +0.05    -0.292 N  
DOCKED: ENDROOT
DOCKED: BRANCH   1  12
DOCKED: ATOM     12  C   UNL     1     139.577  70.780 222.012 -0.18 -0.01    +0.048 C  
DOCKED: BRANCH  12  13
DOCKED: ATOM     13  C   UNL     1     138.777  71.777 221.601 -0.15 -0.00    +0.013 C  
DOCKED: BRANCH  13  14
DOCKED: ATOM     14  C   UNL     1     139.103  73.215 221.770 -0.22 +0.00    -0.007 A  
DOCKED: ATOM     15  C   UNL     1     140.424  73.701 221.802 -0.24 -0.01    +0.119 A  
DOCKED: ATOM     16  C   UNL     1     138.054  74.133 221.943 -0.17 -0.00    +0.011 A  
DOCKED: ATOM     17  N   UNL     1     140.662  75.031 221.974 -0.60 +0.03    -0.264 NA 
DOCKED: ATOM     18  C   UNL     1     138.326  75.491 222.113 -0.25 -0.01    +0.021 A  
DOCKED: ATOM     19  C   UNL     1     139.651  75.925 222.122 -0.30 -0.02    +0.111 A  
DOCKED: ENDBRANCH  13  14
DOCKED: ENDBRANCH  12  13
DOCKED: ENDBRANCH   1  12
DOCKED: BRANCH  11  20
DOCKED: ATOM     20  C   UNL     1     138.472  68.212 223.052 -0.22 -0.02    +0.131 C  
DOCKED: BRANCH  20  21
DOCKED: ATOM     21  C   UNL     1     136.964  68.520 222.807 -0.16 -0.00    +0.009 C  
DOCKED: ATOM     22  C   UNL     1     136.673  69.171 221.427 -0.07 -0.00    +0.005 C  
DOCKED: ATOM     23  C   UNL     1     136.293  69.291 223.979 -0.21 -0.00    +0.005 C  
DOCKED: ATOM     24  C   UNL     1     135.280  69.810 221.398 -0.03 -0.00    +0.000 C  
DOCKED: ATOM     25  C   UNL     1     136.078  70.774 223.652 -0.18 -0.00    +0.000 C  
DOCKED: ATOM     26  C   UNL     1     135.161  70.955 222.426 -0.06 -0.00    +0.000 C  
DOCKED: ENDBRANCH  20  21
DOCKED: ENDBRANCH  11  20
DOCKED: TORSDOF 5
DOCKED: TER
DOCKED: ENDMDL
________________________________________________________________________________


    FINAL DOCKED STATE:
    ________________________


Run:   2 / 20
Time taken for this run:   0.024s

DOCKED: MODEL        2
DOCKED: USER    Run = 2
DOCKED: USER
DOCKED: USER    Estimated Free Energy of Binding    =  -7.07 kcal/mol  [=(1)+(2)+(3)-(4)]
DOCKED: USER
DOCKED: USER    (1) Final Intermolecular Energy     =  -8.56 kcal/mol
DOCKED: USER        vdW + Hbond + desolv Energy     =  -8.50 kcal/mol
DOCKED: USER        Electrostatic Energy            =  -0.06 kcal/mol
DOCKED: USER        Moving Ligand-Fixed Receptor    =  -8.56 kcal/mol
DOCKED: USER        Moving Ligand-Moving Receptor   =  +0.00 kcal/mol
DOCKED: USER    (2) Final Total Internal Energy     =  -1.67 kcal/mol
DOCKED: USER    (3) Torsional Free Energy           =  +1.49 kcal/mol
DOCKED: USER    (4) Unbound System's Energy         =  -1.67 kcal/mol
DOCKED: USER
DOCKED: USER
DOCKED: REMARK SMILES O=c1c2ccccc2nc(/C=C/c2cccnc2)n1CC1CCCCC1
DOCKED: REMARK SMILES IDX 10 1 9 2 8 3 7 4 6 5 5 6 4 7 3 8 2 9 1 10 19 11 11 12 12 13
DOCKED: REMARK SMILES IDX 13 14 18 15 14 16 17 17 15 18 16 19 20 20 21 21 22 22 26 23
DOCKED: REMARK SMILES IDX 23 24 25 25 24 26
DOCKED: REMARK H PARENT
DOCKED: USER                              x       y       z     vdW  Elec       q    Type
DOCKED: USER                           _______ _______ _______ _____ _____    ______ ____
DOCKED: ROOT
DOCKED: ATOM      1  C   UNL     1     139.790  70.252 223.409 -0.18 -0.02    +0.136 A  
DOCKED: ATOM      2  N   UNL     1     140.401  71.134 224.246 -0.28 +0.03    -0.230 NA 
DOCKED: ATOM      3  C   UNL     1     140.465  70.942 225.581 -0.51 -0.01    +0.078 A  
DOCKED: ATOM      4  C   UNL     1     141.099  71.888 226.396 -0.68 -0.00    +0.029 A  
DOCKED: ATOM      5  C   UNL     1     141.174  71.683 227.777 -0.79 -0.00    +0.002 A  
DOCKED: ATOM      6  C   UNL     1     140.618  70.534 228.344 -0.58 -0.00    +0.001 A  
DOCKED: ATOM      7  C   UNL     1     139.985  69.585 227.534 -0.59 -0.00    +0.016 A  
DOCKED: ATOM      8  C   UNL     1     139.903  69.787 226.142 -0.45 -0.01    +0.066 A  
DOCKED: ATOM      9  C   UNL     1     139.281  68.867 225.284 -0.27 -0.03    +0.261 A  
DOCKED: ATOM     10  O   UNL     1     138.817  67.798 225.770 -0.78 -0.01    -0.269 OA 
DOCKED: ATOM     11  N   UNL     1     139.191  69.115 223.929 -0.14 +0.05    -0.292 N  
DOCKED: ENDROOT
DOCKED: BRANCH   1  12
DOCKED: ATOM     12  C   UNL     1     139.787  70.576 221.953 -0.16 -0.01    +0.048 C  
DOCKED: BRANCH  12  13
DOCKED: ATOM     13  C   UNL     1     140.682  71.413 221.405 -0.19 -0.00    +0.013 C  
DOCKED: BRANCH  13  14
DOCKED: ATOM     14  C   UNL     1     140.635  72.887 221.565 -0.28 +0.00    -0.007 A  
DOCKED: ATOM     15  C   UNL     1     139.579  73.552 222.218 -0.18 -0.02    +0.119 A  
DOCKED: ATOM     16  C   UNL     1     141.667  73.663 221.014 -0.27 -0.00    +0.011 A  
DOCKED: ATOM     17  N   UNL     1     139.584  74.909 222.323 -0.63 +0.04    -0.264 NA 
DOCKED: ATOM     18  C   UNL     1     141.649  75.053 221.140 -0.29 -0.01    +0.021 A  
DOCKED: ATOM     19  C   UNL     1     140.589  75.663 221.808 -0.31 -0.02    +0.111 A  
DOCKED: ENDBRANCH  13  14
DOCKED: ENDBRANCH  12  13
DOCKED: ENDBRANCH   1  12
DOCKED: BRANCH  11  20
DOCKED: ATOM     20  C   UNL     1     138.503  68.123 223.062 -0.22 -0.02    +0.131 C  
DOCKED: BRANCH  20  21
DOCKED: ATOM     21  C   UNL     1     137.035  68.497 222.700 -0.17 -0.00    +0.009 C  
DOCKED: ATOM     22  C   UNL     1     136.885  69.184 221.315 -0.07 -0.00    +0.005 C  
DOCKED: ATOM     23  C   UNL     1     136.300  69.275 223.830 -0.21 -0.00    +0.005 C  
DOCKED: ATOM     24  C   UNL     1     135.526  69.881 221.185 -0.03 -0.00    +0.000 C  
DOCKED: ATOM     25  C   UNL     1     136.172  70.771 223.517 -0.17 -0.00    +0.000 C  
DOCKED: ATOM     26  C   UNL     1     135.368  71.012 222.223 -0.05 -0.00    +0.000 C  
DOCKED: ENDBRANCH  20  21
DOCKED: ENDBRANCH  11  20
DOCKED: TORSDOF 5
DOCKED: TER
DOCKED: ENDMDL
________________________________________________________________________________


    FINAL DOCKED STATE:
    ________________________


Run:   3 / 20
Time taken for this run:   0.024s

DOCKED: MODEL        3
DOCKED: USER    Run = 3
DOCKED: USER
DOCKED: USER    Estimated Free Energy of Binding    =  -6.97 kcal/mol  [=(1)+(2)+(3)-(4)]
DOCKED: USER
DOCKED: USER    (1) Final Intermolecular Energy     =  -8.46 kcal/mol
DOCKED: USER        vdW + Hbond + desolv Energy     =  -8.42 kcal/mol
DOCKED: USER        Electrostatic Energy            =  -0.04 kcal/mol
DOCKED: USER        Moving Ligand-Fixed Receptor    =  -8.46 kcal/mol
DOCKED: USER        Moving Ligand-Moving Receptor   =  +0.00 kcal/mol
DOCKED: USER    (2) Final Total Internal Energy     =  -1.77 kcal/mol
DOCKED: USER    (3) Torsional Free Energy           =  +1.49 kcal/mol
DOCKED: USER    (4) Unbound System's Energy         =  -1.77 kcal/mol
DOCKED: USER
DOCKED: USER
DOCKED: REMARK SMILES O=c1c2ccccc2nc(/C=C/c2cccnc2)n1CC1CCCCC1
DOCKED: REMARK SMILES IDX 10 1 9 2 8 3 7 4 6 5 5 6 4 7 3 8 2 9 1 10 19 11 11 12 12 13
DOCKED: REMARK SMILES IDX 13 14 18 15 14 16 17 17 15 18 16 19 20 20 21 21 22 22 26 23
DOCKED: REMARK SMILES IDX 23 24 25 25 24 26
DOCKED: REMARK H PARENT
DOCKED: USER                              x       y       z     vdW  Elec       q    Type
DOCKED: USER                           _______ _______ _______ _____ _____    ______ ____
DOCKED: ROOT
DOCKED: ATOM      1  C   UNL     1     139.697  70.469 223.472 -0.24 -0.02    +0.136 A  
DOCKED: ATOM      2  N   UNL     1     140.276  71.319 224.363 -0.29 +0.04    -0.230 NA 
DOCKED: ATOM      3  C   UNL     1     140.464  70.993 225.661 -0.52 -0.01    +0.078 A  
DOCKED: ATOM      4  C   UNL     1     141.056  71.911 226.535 -0.69 -0.00    +0.029 A  
DOCKED: ATOM      5  C   UNL     1     141.260  71.569 227.876 -0.75 -0.00    +0.002 A  
DOCKED: ATOM      6  C   UNL     1     140.875  70.309 228.342 -0.56 -0.00    +0.001 A  
DOCKED: ATOM      7  C   UNL     1     140.284  69.388 227.471 -0.60 -0.00    +0.016 A  
DOCKED: ATOM      8  C   UNL     1     140.073  69.728 226.120 -0.45 -0.01    +0.066 A  
DOCKED: ATOM      9  C   UNL     1     139.486  68.841 225.204 -0.26 -0.04    +0.261 A  
DOCKED: ATOM     10  O   UNL     1     139.176  67.680 225.592 -0.87 +0.00    -0.269 OA 
DOCKED: ATOM     11  N   UNL     1     139.265  69.222 223.896 -0.13 +0.05    -0.292 N  
DOCKED: ENDROOT
DOCKED: BRANCH   1  12
DOCKED: ATOM     12  C   UNL     1     139.547  70.945 222.066 -0.20 -0.01    +0.048 C  
DOCKED: BRANCH  12  13
DOCKED: ATOM     13  C   UNL     1     138.725  71.955 221.738 -0.16 -0.00    +0.013 C  
DOCKED: BRANCH  13  14
DOCKED: ATOM     14  C   UNL     1     139.100  73.387 221.841 -0.23 +0.00    -0.007 A  
DOCKED: ATOM     15  C   UNL     1     140.439  73.826 221.872 -0.22 -0.01    +0.119 A  
DOCKED: ATOM     16  C   UNL     1     138.084  74.349 221.947 -0.18 -0.00    +0.011 A  
DOCKED: ATOM     17  N   UNL     1     140.722  75.153 221.981 -0.56 +0.03    -0.264 NA 
DOCKED: ATOM     18  C   UNL     1     138.403  75.703 222.054 -0.27 -0.01    +0.021 A  
DOCKED: ATOM     19  C   UNL     1     139.743  76.089 222.066 -0.30 -0.02    +0.111 A  
DOCKED: ENDBRANCH  13  14
DOCKED: ENDBRANCH  12  13
DOCKED: ENDBRANCH   1  12
DOCKED: BRANCH  11  20
DOCKED: ATOM     20  C   UNL     1     138.620  68.257 222.967 -0.21 -0.02    +0.131 C  
DOCKED: BRANCH  20  21
DOCKED: ATOM     21  C   UNL     1     137.096  68.499 222.747 -0.17 -0.00    +0.009 C  
DOCKED: ATOM     22  C   UNL     1     136.752  69.116 221.364 -0.07 -0.00    +0.005 C  
DOCKED: ATOM     23  C   UNL     1     136.417  69.263 223.921 -0.21 -0.00    +0.005 C  
DOCKED: ATOM     24  C   UNL     1     135.334  69.698 221.353 -0.03 -0.00    +0.000 C  
DOCKED: ATOM     25  C   UNL     1     136.136  70.730 223.574 -0.18 -0.00    +0.000 C  
DOCKED: ATOM     26  C   UNL     1     135.189  70.854 222.364 -0.06 -0.00    +0.000 C  
DOCKED: ENDBRANCH  20  21
DOCKED: ENDBRANCH  11  20
DOCKED: TORSDOF 5
DOCKED: TER
DOCKED: ENDMDL
________________________________________________________________________________


    FINAL DOCKED STATE:
    ________________________


Run:   4 / 20
Time taken for this run:   0.024s

DOCKED: MODEL        4
DOCKED: USER    Run = 4
DOCKED: USER
DOCKED: USER    Estimated Free Energy of Binding    =  -6.57 kcal/mol  [=(1)+(2)+(3)-(4)]
DOCKED: USER
DOCKED: USER    (1) Final Intermolecular Energy     =  -8.06 kcal/mol
DOCKED: USER        vdW + Hbond + desolv Energy     =  -8.11 kcal/mol
DOCKED: USER        Electrostatic Energy            =  +0.05 kcal/mol
DOCKED: USER        Moving Ligand-Fixed Receptor    =  -8.06 kcal/mol
DOCKED: USER        Moving Ligand-Moving Receptor   =  +0.00 kcal/mol
DOCKED: USER    (2) Final Total Internal Energy     =  -1.78 kcal/mol
DOCKED: USER    (3) Torsional Free Energy           =  +1.49 kcal/mol
DOCKED: USER    (4) Unbound System's Energy         =  -1.78 kcal/mol
DOCKED: USER
DOCKED: USER
DOCKED: REMARK SMILES O=c1c2ccccc2nc(/C=C/c2cccnc2)n1CC1CCCCC1
DOCKED: REMARK SMILES IDX 10 1 9 2 8 3 7 4 6 5 5 6 4 7 3 8 2 9 1 10 19 11 11 12 12 13
DOCKED: REMARK SMILES IDX 13 14 18 15 14 16 17 17 15 18 16 19 20 20 21 21 22 22 26 23
DOCKED: REMARK SMILES IDX 23 24 25 25 24 26
DOCKED: REMARK H PARENT
DOCKED: USER                              x       y       z     vdW  Elec       q    Type
DOCKED: USER                           _______ _______ _______ _____ _____    ______ ____
DOCKED: ROOT
DOCKED: ATOM      1  C   UNL     1     140.125  76.070 221.852 -0.30 -0.03    +0.136 A  
DOCKED: ATOM      2  N   UNL     1     140.316  74.727 221.967 -0.72 +0.02    -0.230 NA 
DOCKED: ATOM      3  C   UNL     1     141.306  74.078 221.317 -0.25 -0.01    +0.078 A  
DOCKED: ATOM      4  C   UNL     1     141.450  72.693 221.465 -0.26 -0.00    +0.029 A  
DOCKED: ATOM      5  C   UNL     1     142.481  72.023 220.800 -0.25 -0.00    +0.002 A  
DOCKED: ATOM      6  C   UNL     1     143.370  72.735 219.991 -0.27 -0.00    +0.001 A  
DOCKED: ATOM      7  C   UNL     1     143.231  74.118 219.841 -0.30 -0.00    +0.016 A  
DOCKED: ATOM      8  C   UNL     1     142.191  74.799 220.506 -0.28 -0.02    +0.066 A  
DOCKED: ATOM      9  C   UNL     1     142.008  76.186 220.392 -0.15 -0.14    +0.261 A  
DOCKED: ATOM     10  O   UNL     1     142.830  76.856 219.705 -0.28 +0.19    -0.269 OA 
DOCKED: ATOM     11  N   UNL     1     140.958  76.814 221.031 -0.14 +0.12    -0.292 N  
DOCKED: ENDROOT
DOCKED: BRANCH   1  12
DOCKED: ATOM     12  C   UNL     1     138.997  76.672 222.622 -0.24 -0.01    +0.048 C  
DOCKED: BRANCH  12  13
DOCKED: ATOM     13  C   UNL     1     138.127  77.528 222.062 -0.23 -0.00    +0.013 C  
DOCKED: BRANCH  13  14
DOCKED: ATOM     14  C   UNL     1     138.050  78.968 222.413 -0.22 +0.00    -0.007 A  
DOCKED: ATOM     15  C   UNL     1     137.559  79.946 221.525 -0.08 -0.02    +0.119 A  
DOCKED: ATOM     16  C   UNL     1     138.518  79.387 223.669 -0.27 -0.00    +0.011 A  
DOCKED: ATOM     17  N   UNL     1     137.525  81.255 221.898 -0.05 +0.04    -0.264 NA 
DOCKED: ATOM     18  C   UNL     1     138.467  80.735 224.026 -0.39 -0.00    +0.021 A  
DOCKED: ATOM     19  C   UNL     1     137.958  81.663 223.119 -0.19 -0.01    +0.111 A  
DOCKED: ENDBRANCH  13  14
DOCKED: ENDBRANCH  12  13
DOCKED: ENDBRANCH   1  12
DOCKED: BRANCH  11  20
DOCKED: ATOM     20  C   UNL     1     140.790  78.281 220.864 -0.21 -0.05    +0.131 C  
DOCKED: BRANCH  20  21
DOCKED: ATOM     21  C   UNL     1     141.857  79.138 221.610 -0.42 -0.00    +0.009 C  
DOCKED: ATOM     22  C   UNL     1     141.813  78.987 223.156 -0.60 -0.00    +0.005 C  
DOCKED: ATOM     23  C   UNL     1     141.877  80.627 221.161 -0.39 -0.00    +0.005 C  
DOCKED: ATOM     24  C   UNL     1     142.580  80.121 223.846 -0.64 -0.00    +0.000 C  
DOCKED: ATOM     25  C   UNL     1     141.220  81.554 222.190 -0.44 -0.00    +0.000 C  
DOCKED: ATOM     26  C   UNL     1     141.946  81.496 223.549 -0.54 -0.00    +0.000 C  
DOCKED: ENDBRANCH  20  21
DOCKED: ENDBRANCH  11  20
DOCKED: TORSDOF 5
DOCKED: TER
DOCKED: ENDMDL
________________________________________________________________________________


    FINAL DOCKED STATE:
    ________________________


Run:   5 / 20
Time taken for this run:   0.024s

DOCKED: MODEL        5
DOCKED: USER    Run = 5
DOCKED: USER
DOCKED: USER    Estimated Free Energy of Binding    =  -6.86 kcal/mol  [=(1)+(2)+(3)-(4)]
DOCKED: USER
DOCKED: USER    (1) Final Intermolecular Energy     =  -8.35 kcal/mol
DOCKED: USER        vdW + Hbond + desolv Energy     =  -8.29 kcal/mol
DOCKED: USER        Electrostatic Energy            =  -0.06 kcal/mol
DOCKED: USER        Moving Ligand-Fixed Receptor    =  -8.35 kcal/mol
DOCKED: USER        Moving Ligand-Moving Receptor   =  +0.00 kcal/mol
DOCKED: USER    (2) Final Total Internal Energy     =  -1.88 kcal/mol
DOCKED: USER    (3) Torsional Free Energy           =  +1.49 kcal/mol
DOCKED: USER    (4) Unbound System's Energy         =  -1.88 kcal/mol
DOCKED: USER
DOCKED: USER
DOCKED: REMARK SMILES O=c1c2ccccc2nc(/C=C/c2cccnc2)n1CC1CCCCC1
DOCKED: REMARK SMILES IDX 10 1 9 2 8 3 7 4 6 5 5 6 4 7 3 8 2 9 1 10 19 11 11 12 12 13
DOCKED: REMARK SMILES IDX 13 14 18 15 14 16 17 17 15 18 16 19 20 20 21 21 22 22 26 23
DOCKED: REMARK SMILES IDX 23 24 25 25 24 26
DOCKED: REMARK H PARENT
DOCKED: USER                              x       y       z     vdW  Elec       q    Type
DOCKED: USER                           _______ _______ _______ _____ _____    ______ ____
DOCKED: ROOT
DOCKED: ATOM      1  C   UNL     1     139.696  70.263 223.438 -0.21 -0.02    +0.136 A  
DOCKED: ATOM      2  N   UNL     1     140.314  71.148 224.266 -0.29 +0.04    -0.230 NA 
DOCKED: ATOM      3  C   UNL     1     140.429  70.938 225.596 -0.51 -0.01    +0.078 A  
DOCKED: ATOM      4  C   UNL     1     141.068  71.887 226.402 -0.68 -0.00    +0.029 A  
DOCKED: ATOM      5  C   UNL     1     141.196  71.665 227.776 -0.78 -0.00    +0.002 A  
DOCKED: ATOM      6  C   UNL     1     140.690  70.493 228.345 -0.58 -0.00    +0.001 A  
DOCKED: ATOM      7  C   UNL     1     140.053  69.541 227.543 -0.60 -0.00    +0.016 A  
DOCKED: ATOM      8  C   UNL     1     139.917  69.761 226.157 -0.45 -0.01    +0.066 A  
DOCKED: ATOM      9  C   UNL     1     139.288  68.838 225.307 -0.27 -0.03    +0.261 A  
DOCKED: ATOM     10  O   UNL     1     138.868  67.750 225.792 -0.80 -0.01    -0.269 OA 
DOCKED: ATOM     11  N   UNL     1     139.145  69.104 223.960 -0.14 +0.05    -0.292 N  
DOCKED: ENDROOT
DOCKED: BRANCH   1  12
DOCKED: ATOM     12  C   UNL     1     139.634  70.608 221.987 -0.17 -0.01    +0.048 C  
DOCKED: BRANCH  12  13
DOCKED: ATOM     13  C   UNL     1     138.859  71.600 221.521 -0.14 -0.00    +0.013 C  
DOCKED: BRANCH  13  14
DOCKED: ATOM     14  C   UNL     1     139.152  73.040 221.731 -0.22 +0.00    -0.007 A  
DOCKED: ATOM     15  C   UNL     1     140.463  73.553 221.785 -0.24 -0.01    +0.119 A  
DOCKED: ATOM     16  C   UNL     1     138.083  73.930 221.920 -0.17 -0.00    +0.011 A  
DOCKED: ATOM     17  N   UNL     1     140.670  74.882 221.993 -0.62 +0.02    -0.264 NA 
DOCKED: ATOM     18  C   UNL     1     138.325  75.288 222.128 -0.23 -0.01    +0.021 A  
DOCKED: ATOM     19  C   UNL     1     139.640  75.751 222.158 -0.29 -0.02    +0.111 A  
DOCKED: ENDBRANCH  13  14
DOCKED: ENDBRANCH  12  13
DOCKED: ENDBRANCH   1  12
DOCKED: BRANCH  11  20
DOCKED: ATOM     20  C   UNL     1     138.452  68.106 223.102 -0.22 -0.02    +0.131 C  
DOCKED: BRANCH  20  21
DOCKED: ATOM     21  C   UNL     1     136.960  68.445 222.804 -0.14 -0.00    +0.009 C  
DOCKED: ATOM     22  C   UNL     1     136.727  69.070 221.401 -0.07 -0.00    +0.005 C  
DOCKED: ATOM     23  C   UNL     1     136.274  69.260 223.937 -0.21 -0.00    +0.005 C  
DOCKED: ATOM     24  C   UNL     1     135.352  69.742 221.315 -0.03 -0.00    +0.000 C  
DOCKED: ATOM     25  C   UNL     1     136.105  70.739 223.569 -0.17 -0.00    +0.000 C  
DOCKED: ATOM     26  C   UNL     1     135.231  70.913 222.311 -0.05 -0.00    +0.000 C  
DOCKED: ENDBRANCH  20  21
DOCKED: ENDBRANCH  11  20
DOCKED: TORSDOF 5
DOCKED: TER
DOCKED: ENDMDL
________________________________________________________________________________


    FINAL DOCKED STATE:
    ________________________


Run:   6 / 20
Time taken for this run:   0.024s

DOCKED: MODEL        6
DOCKED: USER    Run = 6
DOCKED: USER
DOCKED: USER    Estimated Free Energy of Binding    =  -7.05 kcal/mol  [=(1)+(2)+(3)-(4)]
DOCKED: USER
DOCKED: USER    (1) Final Intermolecular Energy     =  -8.54 kcal/mol
DOCKED: USER        vdW + Hbond + desolv Energy     =  -8.50 kcal/mol
DOCKED: USER        Electrostatic Energy            =  -0.04 kcal/mol
DOCKED: USER        Moving Ligand-Fixed Receptor    =  -8.54 kcal/mol
DOCKED: USER        Moving Ligand-Moving Receptor   =  +0.00 kcal/mol
DOCKED: USER    (2) Final Total Internal Energy     =  -1.45 kcal/mol
DOCKED: USER    (3) Torsional Free Energy           =  +1.49 kcal/mol
DOCKED: USER    (4) Unbound System's Energy         =  -1.45 kcal/mol
DOCKED: USER
DOCKED: USER
DOCKED: REMARK SMILES O=c1c2ccccc2nc(/C=C/c2cccnc2)n1CC1CCCCC1
DOCKED: REMARK SMILES IDX 10 1 9 2 8 3 7 4 6 5 5 6 4 7 3 8 2 9 1 10 19 11 11 12 12 13
DOCKED: REMARK SMILES IDX 13 14 18 15 14 16 17 17 15 18 16 19 20 20 21 21 22 22 26 23
DOCKED: REMARK SMILES IDX 23 24 25 25 24 26
DOCKED: REMARK H PARENT
DOCKED: USER                              x       y       z     vdW  Elec       q    Type
DOCKED: USER                           _______ _______ _______ _____ _____    ______ ____
DOCKED: ROOT
DOCKED: ATOM      1  C   UNL     1     141.744  77.515 220.328 -0.25 -0.08    +0.136 A  
DOCKED: ATOM      2  N   UNL     1     142.778  76.817 219.784 -0.24 +0.16    -0.230 NA 
DOCKED: ATOM      3  C   UNL     1     142.980  75.505 220.036 -0.31 -0.04    +0.078 A  
DOCKED: ATOM      4  C   UNL     1     144.066  74.840 219.456 -0.32 -0.01    +0.029 A  
DOCKED: ATOM      5  C   UNL     1     144.269  73.480 219.708 -0.36 -0.00    +0.002 A  
DOCKED: ATOM      6  C   UNL     1     143.385  72.783 220.537 -0.32 -0.00    +0.001 A  
DOCKED: ATOM      7  C   UNL     1     142.298  73.444 221.117 -0.17 -0.00    +0.016 A  
DOCKED: ATOM      8  C   UNL     1     142.090  74.816 220.870 -0.27 -0.02    +0.066 A  
DOCKED: ATOM      9  C   UNL     1     141.014  75.526 221.425 -0.23 -0.07    +0.261 A  
DOCKED: ATOM     10  O   UNL     1     140.176  74.904 222.137 -0.71 +0.02    -0.269 OA 
DOCKED: ATOM     11  N   UNL     1     140.862  76.876 221.187 -0.15 +0.11    -0.292 N  
DOCKED: ENDROOT
DOCKED: BRANCH   1  12
DOCKED: ATOM     12  C   UNL     1     141.627  78.959 219.973 -0.26 -0.03    +0.048 C  
DOCKED: BRANCH  12  13
DOCKED: ATOM     13  C   UNL     1     142.093  79.450 218.813 -0.29 -0.01    +0.013 C  
DOCKED: BRANCH  13  14
DOCKED: ATOM     14  C   UNL     1     142.153  80.899 218.499 -0.32 +0.00    -0.007 A  
DOCKED: ATOM     15  C   UNL     1     141.361  81.858 219.160 -0.20 -0.04    +0.119 A  
DOCKED: ATOM     16  C   UNL     1     143.008  81.335 217.474 -0.31 -0.01    +0.011 A  
DOCKED: ATOM     17  N   UNL     1     141.451  83.173 218.818 -0.10 +0.09    -0.264 NA 
DOCKED: ATOM     18  C   UNL     1     143.082  82.690 217.148 -0.34 -0.02    +0.021 A  
DOCKED: ATOM     19  C   UNL     1     142.289  83.604 217.841 -0.16 -0.05    +0.111 A  
DOCKED: ENDBRANCH  13  14
DOCKED: ENDBRANCH  12  13
DOCKED: ENDBRANCH   1  12
DOCKED: BRANCH  11  20
DOCKED: ATOM     20  C   UNL     1     139.720  77.592 221.814 -0.24 -0.03    +0.131 C  
DOCKED: BRANCH  20  21
DOCKED: ATOM     21  C   UNL     1     140.131  78.606 222.923 -0.40 -0.00    +0.009 C  
DOCKED: ATOM     22  C   UNL     1     139.881  80.090 222.540 -0.34 -0.00    +0.005 C  
DOCKED: ATOM     23  C   UNL     1     141.567  78.370 223.474 -0.53 -0.00    +0.005 C  
DOCKED: ATOM     24  C   UNL     1     140.654  81.040 223.463 -0.43 -0.00    +0.000 C  
DOCKED: ATOM     25  C   UNL     1     142.572  79.399 222.937 -0.61 -0.00    +0.000 C  
DOCKED: ATOM     26  C   UNL     1     142.178  80.835 223.337 -0.65 -0.00    +0.000 C  
DOCKED: ENDBRANCH  20  21
DOCKED: ENDBRANCH  11  20
DOCKED: TORSDOF 5
DOCKED: TER
DOCKED: ENDMDL
________________________________________________________________________________


    FINAL DOCKED STATE:
    ________________________


Run:   7 / 20
Time taken for this run:   0.024s

DOCKED: MODEL        7
DOCKED: USER    Run = 7
DOCKED: USER
DOCKED: USER    Estimated Free Energy of Binding    =  -6.65 kcal/mol  [=(1)+(2)+(3)-(4)]
DOCKED: USER
DOCKED: USER    (1) Final Intermolecular Energy     =  -8.14 kcal/mol
DOCKED: USER        vdW + Hbond + desolv Energy     =  -8.19 kcal/mol
DOCKED: USER        Electrostatic Energy            =  +0.05 kcal/mol
DOCKED: USER        Moving Ligand-Fixed Receptor    =  -8.14 kcal/mol
DOCKED: USER        Moving Ligand-Moving Receptor   =  +0.00 kcal/mol
DOCKED: USER    (2) Final Total Internal Energy     =  -1.71 kcal/mol
DOCKED: USER    (3) Torsional Free Energy           =  +1.49 kcal/mol
DOCKED: USER    (4) Unbound System's Energy         =  -1.71 kcal/mol
DOCKED: USER
DOCKED: USER
DOCKED: REMARK SMILES O=c1c2ccccc2nc(/C=C/c2cccnc2)n1CC1CCCCC1
DOCKED: REMARK SMILES IDX 10 1 9 2 8 3 7 4 6 5 5 6 4 7 3 8 2 9 1 10 19 11 11 12 12 13
DOCKED: REMARK SMILES IDX 13 14 18 15 14 16 17 17 15 18 16 19 20 20 21 21 22 22 26 23
DOCKED: REMARK SMILES IDX 23 24 25 25 24 26
DOCKED: REMARK H PARENT
DOCKED: USER                              x       y       z     vdW  Elec       q    Type
DOCKED: USER                           _______ _______ _______ _____ _____    ______ ____
DOCKED: ROOT
DOCKED: ATOM      1  C   UNL     1     140.105  76.132 221.865 -0.30 -0.03    +0.136 A  
DOCKED: ATOM      2  N   UNL     1     140.304  74.791 221.980 -0.71 +0.02    -0.230 NA 
DOCKED: ATOM      3  C   UNL     1     141.306  74.149 221.341 -0.24 -0.01    +0.078 A  
DOCKED: ATOM      4  C   UNL     1     141.458  72.765 221.488 -0.25 -0.00    +0.029 A  
DOCKED: ATOM      5  C   UNL     1     142.502  72.103 220.835 -0.26 -0.00    +0.002 A  
DOCKED: ATOM      6  C   UNL     1     143.395  72.822 220.036 -0.28 -0.00    +0.001 A  
DOCKED: ATOM      7  C   UNL     1     143.248  74.205 219.887 -0.31 -0.01    +0.016 A  
DOCKED: ATOM      8  C   UNL     1     142.196  74.878 220.541 -0.28 -0.02    +0.066 A  
DOCKED: ATOM      9  C   UNL     1     142.004  76.264 220.426 -0.15 -0.14    +0.261 A  
DOCKED: ATOM     10  O   UNL     1     142.829  76.940 219.750 -0.28 +0.20    -0.269 OA 
DOCKED: ATOM     11  N   UNL     1     140.943  76.883 221.054 -0.14 +0.12    -0.292 N  
DOCKED: ENDROOT
DOCKED: BRANCH   1  12
DOCKED: ATOM     12  C   UNL     1     138.965  76.725 222.622 -0.24 -0.01    +0.048 C  
DOCKED: BRANCH  12  13
DOCKED: ATOM     13  C   UNL     1     138.131  77.622 222.071 -0.23 -0.00    +0.013 C  
DOCKED: BRANCH  13  14
DOCKED: ATOM     14  C   UNL     1     137.970  79.010 222.571 -0.23 +0.00    -0.007 A  
DOCKED: ATOM     15  C   UNL     1     137.202  79.981 221.898 -0.09 -0.02    +0.119 A  
DOCKED: ATOM     16  C   UNL     1     138.637  79.390 223.746 -0.28 -0.00    +0.011 A  
DOCKED: ATOM     17  N   UNL     1     137.102  81.243 222.398 -0.06 +0.04    -0.264 NA 
DOCKED: ATOM     18  C   UNL     1     138.514  80.690 224.238 -0.39 -0.00    +0.021 A  
DOCKED: ATOM     19  C   UNL     1     137.730  81.611 223.544 -0.22 -0.01    +0.111 A  
DOCKED: ENDBRANCH  13  14
DOCKED: ENDBRANCH  12  13
DOCKED: ENDBRANCH   1  12
DOCKED: BRANCH  11  20
DOCKED: ATOM     20  C   UNL     1     140.767  78.350 220.887 -0.21 -0.05    +0.131 C  
DOCKED: BRANCH  20  21
DOCKED: ATOM     21  C   UNL     1     141.834  79.212 221.625 -0.43 -0.00    +0.009 C  
DOCKED: ATOM     22  C   UNL     1     141.855  79.002 223.164 -0.60 -0.00    +0.005 C  
DOCKED: ATOM     23  C   UNL     1     141.791  80.717 221.233 -0.40 -0.00    +0.005 C  
DOCKED: ATOM     24  C   UNL     1     142.612  80.134 223.869 -0.63 -0.00    +0.000 C  
DOCKED: ATOM     25  C   UNL     1     141.145  81.583 222.322 -0.44 -0.00    +0.000 C  
DOCKED: ATOM     26  C   UNL     1     141.924  81.497 223.649 -0.54 -0.00    +0.000 C  
DOCKED: ENDBRANCH  20  21
DOCKED: ENDBRANCH  11  20
DOCKED: TORSDOF 5
DOCKED: TER
DOCKED: ENDMDL
________________________________________________________________________________


    FINAL DOCKED STATE:
    ________________________


Run:   8 / 20
Time taken for this run:   0.024s

DOCKED: MODEL        8
DOCKED: USER    Run = 8
DOCKED: USER
DOCKED: USER    Estimated Free Energy of Binding    =  -6.91 kcal/mol  [=(1)+(2)+(3)-(4)]
DOCKED: USER
DOCKED: USER    (1) Final Intermolecular Energy     =  -8.40 kcal/mol
DOCKED: USER        vdW + Hbond + desolv Energy     =  -8.38 kcal/mol
DOCKED: USER        Electrostatic Energy            =  -0.01 kcal/mol
DOCKED: USER        Moving Ligand-Fixed Receptor    =  -8.40 kcal/mol
DOCKED: USER        Moving Ligand-Moving Receptor   =  +0.00 kcal/mol
DOCKED: USER    (2) Final Total Internal Energy     =  -1.60 kcal/mol
DOCKED: USER    (3) Torsional Free Energy           =  +1.49 kcal/mol
DOCKED: USER    (4) Unbound System's Energy         =  -1.60 kcal/mol
DOCKED: USER
DOCKED: USER
DOCKED: REMARK SMILES O=c1c2ccccc2nc(/C=C/c2cccnc2)n1CC1CCCCC1
DOCKED: REMARK SMILES IDX 10 1 9 2 8 3 7 4 6 5 5 6 4 7 3 8 2 9 1 10 19 11 11 12 12 13
DOCKED: REMARK SMILES IDX 13 14 18 15 14 16 17 17 15 18 16 19 20 20 21 21 22 22 26 23
DOCKED: REMARK SMILES IDX 23 24 25 25 24 26
DOCKED: REMARK H PARENT
DOCKED: USER                              x       y       z     vdW  Elec       q    Type
DOCKED: USER                           _______ _______ _______ _____ _____    ______ ____
DOCKED: ROOT
DOCKED: ATOM      1  C   UNL     1     139.768  70.817 223.510 -0.27 -0.02    +0.136 A  
DOCKED: ATOM      2  N   UNL     1     140.328  71.541 224.517 -0.31 +0.04    -0.230 NA 
DOCKED: ATOM      3  C   UNL     1     140.483  71.049 225.765 -0.53 -0.01    +0.078 A  
DOCKED: ATOM      4  C   UNL     1     141.057  71.842 226.765 -0.74 -0.00    +0.029 A  
DOCKED: ATOM      5  C   UNL     1     141.228  71.329 228.054 -0.70 -0.00    +0.002 A  
DOCKED: ATOM      6  C   UNL     1     140.828  70.022 228.344 -0.57 -0.00    +0.001 A  
DOCKED: ATOM      7  C   UNL     1     140.255  69.224 227.348 -0.60 -0.00    +0.016 A  
DOCKED: ATOM      8  C   UNL     1     140.077  69.738 226.047 -0.45 -0.01    +0.066 A  
DOCKED: ATOM      9  C   UNL     1     139.510  68.980 225.010 -0.24 -0.04    +0.261 A  
DOCKED: ATOM     10  O   UNL     1     139.187  67.780 225.238 -0.84 +0.00    -0.269 OA 
DOCKED: ATOM     11  N   UNL     1     139.321  69.528 223.758 -0.12 +0.05    -0.292 N  
DOCKED: ENDROOT
DOCKED: BRANCH   1  12
DOCKED: ATOM     12  C   UNL     1     139.652  71.471 222.174 -0.23 -0.01    +0.048 C  
DOCKED: BRANCH  12  13
DOCKED: ATOM     13  C   UNL     1     139.031  72.650 222.008 -0.22 -0.00    +0.013 C  
DOCKED: BRANCH  13  14
DOCKED: ATOM     14  C   UNL     1     139.747  73.941 221.846 -0.27 +0.00    -0.007 A  
DOCKED: ATOM     15  C   UNL     1     141.047  74.032 221.312 -0.25 -0.02    +0.119 A  
DOCKED: ATOM     16  C   UNL     1     139.121  75.122 222.274 -0.25 -0.00    +0.011 A  
DOCKED: ATOM     17  N   UNL     1     141.658  75.243 221.201 -0.21 +0.09    -0.264 NA 
DOCKED: ATOM     18  C   UNL     1     139.769  76.351 222.144 -0.35 -0.00    +0.021 A  
DOCKED: ATOM     19  C   UNL     1     141.050  76.391 221.596 -0.30 -0.04    +0.111 A  
DOCKED: ENDBRANCH  13  14
DOCKED: ENDBRANCH  12  13
DOCKED: ENDBRANCH   1  12
DOCKED: BRANCH  11  20
DOCKED: ATOM     20  C   UNL     1     138.695  68.695 222.698 -0.18 -0.02    +0.131 C  
DOCKED: BRANCH  20  21
DOCKED: ATOM     21  C   UNL     1     137.163  68.919 222.528 -0.16 -0.00    +0.009 C  
DOCKED: ATOM     22  C   UNL     1     136.795  69.898 221.379 -0.06 -0.00    +0.005 C  
DOCKED: ATOM     23  C   UNL     1     136.439  69.270 223.860 -0.21 -0.00    +0.005 C  
DOCKED: ATOM     24  C   UNL     1     135.349  70.390 221.511 -0.03 -0.00    +0.000 C  
DOCKED: ATOM     25  C   UNL     1     136.085  70.760 223.954 -0.20 -0.00    +0.000 C  
DOCKED: ATOM     26  C   UNL     1     135.139  71.189 222.814 -0.08 -0.00    +0.000 C  
DOCKED: ENDBRANCH  20  21
DOCKED: ENDBRANCH  11  20
DOCKED: TORSDOF 5
DOCKED: TER
DOCKED: ENDMDL
________________________________________________________________________________


    FINAL DOCKED STATE:
    ________________________


Run:   9 / 20
Time taken for this run:   0.024s

DOCKED: MODEL        9
DOCKED: USER    Run = 9
DOCKED: USER
DOCKED: USER    Estimated Free Energy of Binding    =  -7.03 kcal/mol  [=(1)+(2)+(3)-(4)]
DOCKED: USER
DOCKED: USER    (1) Final Intermolecular Energy     =  -8.52 kcal/mol
DOCKED: USER        vdW + Hbond + desolv Energy     =  -8.48 kcal/mol
DOCKED: USER        Electrostatic Energy            =  -0.04 kcal/mol
DOCKED: USER        Moving Ligand-Fixed Receptor    =  -8.52 kcal/mol
DOCKED: USER        Moving Ligand-Moving Receptor   =  +0.00 kcal/mol
DOCKED: USER    (2) Final Total Internal Energy     =  -1.74 kcal/mol
DOCKED: USER    (3) Torsional Free Energy           =  +1.49 kcal/mol
DOCKED: USER    (4) Unbound System's Energy         =  -1.74 kcal/mol
DOCKED: USER
DOCKED: USER
DOCKED: REMARK SMILES O=c1c2ccccc2nc(/C=C/c2cccnc2)n1CC1CCCCC1
DOCKED: REMARK SMILES IDX 10 1 9 2 8 3 7 4 6 5 5 6 4 7 3 8 2 9 1 10 19 11 11 12 12 13
DOCKED: REMARK SMILES IDX 13 14 18 15 14 16 17 17 15 18 16 19 20 20 21 21 22 22 26 23
DOCKED: REMARK SMILES IDX 23 24 25 25 24 26
DOCKED: REMARK H PARENT
DOCKED: USER                              x       y       z     vdW  Elec       q    Type
DOCKED: USER                           _______ _______ _______ _____ _____    ______ ____
DOCKED: ROOT
DOCKED: ATOM      1  C   UNL     1     139.579  70.439 223.546 -0.25 -0.02    +0.136 A  
DOCKED: ATOM      2  N   UNL     1     140.201  71.291 224.405 -0.29 +0.04    -0.230 NA 
DOCKED: ATOM      3  C   UNL     1     140.457  70.965 225.691 -0.52 -0.01    +0.078 A  
DOCKED: ATOM      4  C   UNL     1     141.092  71.885 226.534 -0.71 -0.00    +0.029 A  
DOCKED: ATOM      5  C   UNL     1     141.366  71.543 227.862 -0.71 -0.00    +0.002 A  
DOCKED: ATOM      6  C   UNL     1     141.009  70.282 228.347 -0.56 -0.00    +0.001 A  
DOCKED: ATOM      7  C   UNL     1     140.376  69.359 227.508 -0.60 -0.00    +0.016 A  
DOCKED: ATOM      8  C   UNL     1     140.094  69.699 226.169 -0.46 -0.01    +0.066 A  
DOCKED: ATOM      9  C   UNL     1     139.462  68.811 225.285 -0.27 -0.04    +0.261 A  
DOCKED: ATOM     10  O   UNL     1     139.177  67.648 225.689 -0.87 +0.00    -0.269 OA 
DOCKED: ATOM     11  N   UNL     1     139.172  69.191 223.991 -0.14 +0.05    -0.292 N  
DOCKED: ENDROOT
DOCKED: BRANCH   1  12
DOCKED: ATOM     12  C   UNL     1     139.353  70.915 222.150 -0.19 -0.01    +0.048 C  
DOCKED: BRANCH  12  13
DOCKED: ATOM     13  C   UNL     1     138.632  72.014 221.877 -0.17 -0.00    +0.013 C  
DOCKED: BRANCH  13  14
DOCKED: ATOM     14  C   UNL     1     139.185  73.390 221.909 -0.24 +0.00    -0.007 A  
DOCKED: ATOM     15  C   UNL     1     140.568  73.658 221.920 -0.23 -0.01    +0.119 A  
DOCKED: ATOM     16  C   UNL     1     138.299  74.477 221.968 -0.20 -0.00    +0.011 A  
DOCKED: ATOM     17  N   UNL     1     141.017  74.942 221.964 -0.52 +0.03    -0.264 NA 
DOCKED: ATOM     18  C   UNL     1     138.787  75.784 222.008 -0.28 -0.00    +0.021 A  
DOCKED: ATOM     19  C   UNL     1     140.164  75.998 222.001 -0.32 -0.02    +0.111 A  
DOCKED: ENDBRANCH  13  14
DOCKED: ENDBRANCH  12  13
DOCKED: ENDBRANCH   1  12
DOCKED: BRANCH  11  20
DOCKED: ATOM     20  C   UNL     1     138.482  68.224 223.097 -0.22 -0.02    +0.131 C  
DOCKED: BRANCH  20  21
DOCKED: ATOM     21  C   UNL     1     136.965  68.513 222.890 -0.16 -0.00    +0.009 C  
DOCKED: ATOM     22  C   UNL     1     136.634  69.187 221.531 -0.07 -0.00    +0.005 C  
DOCKED: ATOM     23  C   UNL     1     136.308  69.250 224.092 -0.21 -0.00    +0.005 C  
DOCKED: ATOM     24  C   UNL     1     135.231  69.805 221.544 -0.04 -0.00    +0.000 C  
DOCKED: ATOM     25  C   UNL     1     136.063  70.736 223.800 -0.19 -0.00    +0.000 C  
DOCKED: ATOM     26  C   UNL     1     135.117  70.927 222.597 -0.07 -0.00    +0.000 C  
DOCKED: ENDBRANCH  20  21
DOCKED: ENDBRANCH  11  20
DOCKED: TORSDOF 5
DOCKED: TER
DOCKED: ENDMDL
________________________________________________________________________________


    FINAL DOCKED STATE:
    ________________________


Run:   10 / 20
Time taken for this run:   0.024s

DOCKED: MODEL        10
DOCKED: USER    Run = 10
DOCKED: USER
DOCKED: USER    Estimated Free Energy of Binding    =  -6.96 kcal/mol  [=(1)+(2)+(3)-(4)]
DOCKED: USER
DOCKED: USER    (1) Final Intermolecular Energy     =  -8.45 kcal/mol
DOCKED: USER        vdW + Hbond + desolv Energy     =  -8.41 kcal/mol
DOCKED: USER        Electrostatic Energy            =  -0.05 kcal/mol
DOCKED: USER        Moving Ligand-Fixed Receptor    =  -8.45 kcal/mol
DOCKED: USER        Moving Ligand-Moving Receptor   =  +0.00 kcal/mol
DOCKED: USER    (2) Final Total Internal Energy     =  -1.81 kcal/mol
DOCKED: USER    (3) Torsional Free Energy           =  +1.49 kcal/mol
DOCKED: USER    (4) Unbound System's Energy         =  -1.81 kcal/mol
DOCKED: USER
DOCKED: USER
DOCKED: REMARK SMILES O=c1c2ccccc2nc(/C=C/c2cccnc2)n1CC1CCCCC1
DOCKED: REMARK SMILES IDX 10 1 9 2 8 3 7 4 6 5 5 6 4 7 3 8 2 9 1 10 19 11 11 12 12 13
DOCKED: REMARK SMILES IDX 13 14 18 15 14 16 17 17 15 18 16 19 20 20 21 21 22 22 26 23
DOCKED: REMARK SMILES IDX 23 24 25 25 24 26
DOCKED: REMARK H PARENT
DOCKED: USER                              x       y       z     vdW  Elec       q    Type
DOCKED: USER                           _______ _______ _______ _____ _____    ______ ____
DOCKED: ROOT
DOCKED: ATOM      1  C   UNL     1     139.643  70.382 223.493 -0.23 -0.02    +0.136 A  
DOCKED: ATOM      2  N   UNL     1     140.269  71.249 224.336 -0.29 +0.04    -0.230 NA 
DOCKED: ATOM      3  C   UNL     1     140.469  70.971 225.643 -0.51 -0.01    +0.078 A  
DOCKED: ATOM      4  C   UNL     1     141.111  71.904 226.466 -0.69 -0.00    +0.029 A  
DOCKED: ATOM      5  C   UNL     1     141.328  71.612 227.816 -0.73 -0.00    +0.002 A  
DOCKED: ATOM      6  C   UNL     1     140.907  70.389 228.344 -0.56 -0.00    +0.001 A  
DOCKED: ATOM      7  C   UNL     1     140.267  69.453 227.524 -0.60 -0.00    +0.016 A  
DOCKED: ATOM      8  C   UNL     1     140.042  69.743 226.163 -0.45 -0.01    +0.066 A  
DOCKED: ATOM      9  C   UNL     1     139.407  68.839 225.297 -0.27 -0.04    +0.261 A  
DOCKED: ATOM     10  O   UNL     1     139.064  67.707 225.741 -0.84 -0.00    -0.269 OA 
DOCKED: ATOM     11  N   UNL     1     139.174  69.171 223.978 -0.14 +0.05    -0.292 N  
DOCKED: ENDROOT
DOCKED: BRANCH   1  12
DOCKED: ATOM     12  C   UNL     1     139.482  70.803 222.071 -0.19 -0.01    +0.048 C  
DOCKED: BRANCH  12  13
DOCKED: ATOM     13  C   UNL     1     138.687  71.825 221.714 -0.15 -0.00    +0.013 C  
DOCKED: BRANCH  13  14
DOCKED: ATOM     14  C   UNL     1     139.080  73.251 221.831 -0.22 +0.00    -0.007 A  
DOCKED: ATOM     15  C   UNL     1     140.423  73.676 221.851 -0.24 -0.01    +0.119 A  
DOCKED: ATOM     16  C   UNL     1     138.075  74.223 221.963 -0.18 -0.00    +0.011 A  
DOCKED: ATOM     17  N   UNL     1     140.722  74.998 221.974 -0.60 +0.03    -0.264 NA 
DOCKED: ATOM     18  C   UNL     1     138.410  75.572 222.083 -0.26 -0.01    +0.021 A  
DOCKED: ATOM     19  C   UNL     1     139.754  75.944 222.083 -0.30 -0.02    +0.111 A  
DOCKED: ENDBRANCH  13  14
DOCKED: ENDBRANCH  12  13
DOCKED: ENDBRANCH   1  12
DOCKED: BRANCH  11  20
DOCKED: ATOM     20  C   UNL     1     138.477  68.191 223.104 -0.22 -0.02    +0.131 C  
DOCKED: BRANCH  20  21
DOCKED: ATOM     21  C   UNL     1     136.964  68.490 222.886 -0.15 -0.00    +0.009 C  
DOCKED: ATOM     22  C   UNL     1     136.644  69.146 221.515 -0.07 -0.00    +0.005 C  
DOCKED: ATOM     23  C   UNL     1     136.308  69.251 224.074 -0.21 -0.00    +0.005 C  
DOCKED: ATOM     24  C   UNL     1     135.247  69.777 221.513 -0.04 -0.00    +0.000 C  
DOCKED: ATOM     25  C   UNL     1     136.077  70.735 223.758 -0.19 -0.00    +0.000 C  
DOCKED: ATOM     26  C   UNL     1     135.138  70.915 222.548 -0.06 -0.00    +0.000 C  
DOCKED: ENDBRANCH  20  21
DOCKED: ENDBRANCH  11  20
DOCKED: TORSDOF 5
DOCKED: TER
DOCKED: ENDMDL
________________________________________________________________________________


    FINAL DOCKED STATE:
    ________________________


Run:   11 / 20
Time taken for this run:   0.024s

DOCKED: MODEL        11
DOCKED: USER    Run = 11
DOCKED: USER
DOCKED: USER    Estimated Free Energy of Binding    =  -7.18 kcal/mol  [=(1)+(2)+(3)-(4)]
DOCKED: USER
DOCKED: USER    (1) Final Intermolecular Energy     =  -8.67 kcal/mol
DOCKED: USER        vdW + Hbond + desolv Energy     =  -8.61 kcal/mol
DOCKED: USER        Electrostatic Energy            =  -0.06 kcal/mol
DOCKED: USER        Moving Ligand-Fixed Receptor    =  -8.67 kcal/mol
DOCKED: USER        Moving Ligand-Moving Receptor   =  +0.00 kcal/mol
DOCKED: USER    (2) Final Total Internal Energy     =  -1.57 kcal/mol
DOCKED: USER    (3) Torsional Free Energy           =  +1.49 kcal/mol
DOCKED: USER    (4) Unbound System's Energy         =  -1.57 kcal/mol
DOCKED: USER
DOCKED: USER
DOCKED: REMARK SMILES O=c1c2ccccc2nc(/C=C/c2cccnc2)n1CC1CCCCC1
DOCKED: REMARK SMILES IDX 10 1 9 2 8 3 7 4 6 5 5 6 4 7 3 8 2 9 1 10 19 11 11 12 12 13
DOCKED: REMARK SMILES IDX 13 14 18 15 14 16 17 17 15 18 16 19 20 20 21 21 22 22 26 23
DOCKED: REMARK SMILES IDX 23 24 25 25 24 26
DOCKED: REMARK H PARENT
DOCKED: USER                              x       y       z     vdW  Elec       q    Type
DOCKED: USER                           _______ _______ _______ _____ _____    ______ ____
DOCKED: ROOT
DOCKED: ATOM      1  C   UNL     1     139.652  70.346 223.485 -0.23 -0.02    +0.136 A  
DOCKED: ATOM      2  N   UNL     1     140.254  71.223 224.334 -0.29 +0.04    -0.230 NA 
DOCKED: ATOM      3  C   UNL     1     140.464  70.942 225.638 -0.51 -0.01    +0.078 A  
DOCKED: ATOM      4  C   UNL     1     141.081  71.886 226.468 -0.70 -0.00    +0.029 A  
DOCKED: ATOM      5  C   UNL     1     141.307  71.590 227.816 -0.73 -0.00    +0.002 A  
DOCKED: ATOM      6  C   UNL     1     140.921  70.351 228.334 -0.56 -0.00    +0.001 A  
DOCKED: ATOM      7  C   UNL     1     140.306  69.404 227.508 -0.60 -0.00    +0.016 A  
DOCKED: ATOM      8  C   UNL     1     140.072  69.698 226.150 -0.45 -0.01    +0.066 A  
DOCKED: ATOM      9  C   UNL     1     139.461  68.784 225.278 -0.27 -0.04    +0.261 A  
DOCKED: ATOM     10  O   UNL     1     139.149  67.640 225.713 -0.87 -0.00    -0.269 OA 
DOCKED: ATOM     11  N   UNL     1     139.217  69.119 223.961 -0.14 +0.05    -0.292 N  
DOCKED: ENDROOT
DOCKED: BRANCH   1  12
DOCKED: ATOM     12  C   UNL     1     139.478  70.773 222.066 -0.18 -0.01    +0.048 C  
DOCKED: BRANCH  12  13
DOCKED: ATOM     13  C   UNL     1     140.445  71.411 221.388 -0.19 -0.00    +0.013 C  
DOCKED: BRANCH  13  14
DOCKED: ATOM     14  C   UNL     1     140.652  72.880 221.436 -0.27 +0.00    -0.007 A  
DOCKED: ATOM     15  C   UNL     1     139.727  73.763 222.027 -0.21 -0.02    +0.119 A  
DOCKED: ATOM     16  C   UNL     1     141.800  73.423 220.838 -0.27 -0.00    +0.011 A  
DOCKED: ATOM     17  N   UNL     1     139.965  75.103 222.030 -0.61 +0.03    -0.264 NA 
DOCKED: ATOM     18  C   UNL     1     142.020  74.801 220.859 -0.30 -0.01    +0.021 A  
DOCKED: ATOM     19  C   UNL     1     141.083  75.633 221.469 -0.31 -0.03    +0.111 A  
DOCKED: ENDBRANCH  13  14
DOCKED: ENDBRANCH  12  13
DOCKED: ENDBRANCH   1  12
DOCKED: BRANCH  11  20
DOCKED: ATOM     20  C   UNL     1     138.547  68.127 223.080 -0.22 -0.02    +0.131 C  
DOCKED: BRANCH  20  21
DOCKED: ATOM     21  C   UNL     1     137.055  68.451 222.770 -0.16 -0.00    +0.009 C  
DOCKED: ATOM     22  C   UNL     1     136.826  69.072 221.366 -0.07 -0.00    +0.005 C  
DOCKED: ATOM     23  C   UNL     1     136.352  69.260 223.898 -0.21 -0.00    +0.005 C  
DOCKED: ATOM     24  C   UNL     1     135.445  69.731 221.268 -0.03 -0.00    +0.000 C  
DOCKED: ATOM     25  C   UNL     1     136.172  70.738 223.527 -0.17 -0.00    +0.000 C  
DOCKED: ATOM     26  C   UNL     1     135.305  70.902 222.263 -0.05 -0.00    +0.000 C  
DOCKED: ENDBRANCH  20  21
DOCKED: ENDBRANCH  11  20
DOCKED: TORSDOF 5
DOCKED: TER
DOCKED: ENDMDL
________________________________________________________________________________


    FINAL DOCKED STATE:
    ________________________


Run:   12 / 20
Time taken for this run:   0.024s

DOCKED: MODEL        12
DOCKED: USER    Run = 12
DOCKED: USER
DOCKED: USER    Estimated Free Energy of Binding    =  -6.97 kcal/mol  [=(1)+(2)+(3)-(4)]
DOCKED: USER
DOCKED: USER    (1) Final Intermolecular Energy     =  -8.47 kcal/mol
DOCKED: USER        vdW + Hbond + desolv Energy     =  -8.42 kcal/mol
DOCKED: USER        Electrostatic Energy            =  -0.05 kcal/mol
DOCKED: USER        Moving Ligand-Fixed Receptor    =  -8.47 kcal/mol
DOCKED: USER        Moving Ligand-Moving Receptor   =  +0.00 kcal/mol
DOCKED: USER    (2) Final Total Internal Energy     =  -1.80 kcal/mol
DOCKED: USER    (3) Torsional Free Energy           =  +1.49 kcal/mol
DOCKED: USER    (4) Unbound System's Energy         =  -1.80 kcal/mol
DOCKED: USER
DOCKED: USER
DOCKED: REMARK SMILES O=c1c2ccccc2nc(/C=C/c2cccnc2)n1CC1CCCCC1
DOCKED: REMARK SMILES IDX 10 1 9 2 8 3 7 4 6 5 5 6 4 7 3 8 2 9 1 10 19 11 11 12 12 13
DOCKED: REMARK SMILES IDX 13 14 18 15 14 16 17 17 15 18 16 19 20 20 21 21 22 22 26 23
DOCKED: REMARK SMILES IDX 23 24 25 25 24 26
DOCKED: REMARK H PARENT
DOCKED: USER                              x       y       z     vdW  Elec       q    Type
DOCKED: USER                           _______ _______ _______ _____ _____    ______ ____
DOCKED: ROOT
DOCKED: ATOM      1  C   UNL     1     139.631  70.373 223.502 -0.23 -0.02    +0.136 A  
DOCKED: ATOM      2  N   UNL     1     140.261  71.239 224.342 -0.29 +0.04    -0.230 NA 
DOCKED: ATOM      3  C   UNL     1     140.472  70.959 225.646 -0.51 -0.01    +0.078 A  
DOCKED: ATOM      4  C   UNL     1     141.117  71.891 226.467 -0.70 -0.00    +0.029 A  
DOCKED: ATOM      5  C   UNL     1     141.346  71.597 227.815 -0.72 -0.00    +0.002 A  
DOCKED: ATOM      6  C   UNL     1     140.933  70.370 228.342 -0.56 -0.00    +0.001 A  
DOCKED: ATOM      7  C   UNL     1     140.289  69.435 227.525 -0.60 -0.00    +0.016 A  
DOCKED: ATOM      8  C   UNL     1     140.053  69.727 226.167 -0.45 -0.01    +0.066 A  
DOCKED: ATOM      9  C   UNL     1     139.413  68.824 225.303 -0.27 -0.04    +0.261 A  
DOCKED: ATOM     10  O   UNL     1     139.077  67.690 225.747 -0.84 -0.00    -0.269 OA 
DOCKED: ATOM     11  N   UNL     1     139.170  69.159 223.987 -0.14 +0.05    -0.292 N  
DOCKED: ENDROOT
DOCKED: BRANCH   1  12
DOCKED: ATOM     12  C   UNL     1     139.458  70.797 222.082 -0.19 -0.01    +0.048 C  
DOCKED: BRANCH  12  13
DOCKED: ATOM     13  C   UNL     1     138.672  71.829 221.735 -0.16 -0.00    +0.013 C  
DOCKED: BRANCH  13  14
DOCKED: ATOM     14  C   UNL     1     139.086  73.250 221.842 -0.22 +0.00    -0.007 A  
DOCKED: ATOM     15  C   UNL     1     140.436  73.654 221.859 -0.24 -0.01    +0.119 A  
DOCKED: ATOM     16  C   UNL     1     138.096  74.238 221.967 -0.18 -0.00    +0.011 A  
DOCKED: ATOM     17  N   UNL     1     140.755  74.972 221.973 -0.59 +0.03    -0.264 NA 
DOCKED: ATOM     18  C   UNL     1     138.453  75.583 222.078 -0.27 -0.01    +0.021 A  
DOCKED: ATOM     19  C   UNL     1     139.802  75.934 222.075 -0.30 -0.02    +0.111 A  
DOCKED: ENDBRANCH  13  14
DOCKED: ENDBRANCH  12  13
DOCKED: ENDBRANCH   1  12
DOCKED: BRANCH  11  20
DOCKED: ATOM     20  C   UNL     1     138.469  68.180 223.115 -0.22 -0.02    +0.131 C  
DOCKED: BRANCH  20  21
DOCKED: ATOM     21  C   UNL     1     136.959  68.490 222.888 -0.15 -0.00    +0.009 C  
DOCKED: ATOM     22  C   UNL     1     136.652  69.139 221.511 -0.07 -0.00    +0.005 C  
DOCKED: ATOM     23  C   UNL     1     136.304  69.264 224.067 -0.22 -0.00    +0.005 C  
DOCKED: ATOM     24  C   UNL     1     135.260  69.781 221.498 -0.04 -0.00    +0.000 C  
DOCKED: ATOM     25  C   UNL     1     136.087  70.747 223.740 -0.19 -0.00    +0.000 C  
DOCKED: ATOM     26  C   UNL     1     135.156  70.928 222.525 -0.06 -0.00    +0.000 C  
DOCKED: ENDBRANCH  20  21
DOCKED: ENDBRANCH  11  20
DOCKED: TORSDOF 5
DOCKED: TER
DOCKED: ENDMDL
________________________________________________________________________________


    FINAL DOCKED STATE:
    ________________________


Run:   13 / 20
Time taken for this run:   0.024s

DOCKED: MODEL        13
DOCKED: USER    Run = 13
DOCKED: USER
DOCKED: USER    Estimated Free Energy of Binding    =  -7.07 kcal/mol  [=(1)+(2)+(3)-(4)]
DOCKED: USER
DOCKED: USER    (1) Final Intermolecular Energy     =  -8.57 kcal/mol
DOCKED: USER        vdW + Hbond + desolv Energy     =  -8.50 kcal/mol
DOCKED: USER        Electrostatic Energy            =  -0.06 kcal/mol
DOCKED: USER        Moving Ligand-Fixed Receptor    =  -8.57 kcal/mol
DOCKED: USER        Moving Ligand-Moving Receptor   =  +0.00 kcal/mol
DOCKED: USER    (2) Final Total Internal Energy     =  -1.64 kcal/mol
DOCKED: USER    (3) Torsional Free Energy           =  +1.49 kcal/mol
DOCKED: USER    (4) Unbound System's Energy         =  -1.64 kcal/mol
DOCKED: USER
DOCKED: USER
DOCKED: REMARK SMILES O=c1c2ccccc2nc(/C=C/c2cccnc2)n1CC1CCCCC1
DOCKED: REMARK SMILES IDX 10 1 9 2 8 3 7 4 6 5 5 6 4 7 3 8 2 9 1 10 19 11 11 12 12 13
DOCKED: REMARK SMILES IDX 13 14 18 15 14 16 17 17 15 18 16 19 20 20 21 21 22 22 26 23
DOCKED: REMARK SMILES IDX 23 24 25 25 24 26
DOCKED: REMARK H PARENT
DOCKED: USER                              x       y       z     vdW  Elec       q    Type
DOCKED: USER                           _______ _______ _______ _____ _____    ______ ____
DOCKED: ROOT
DOCKED: ATOM      1  C   UNL     1     139.743  70.332 223.436 -0.21 -0.02    +0.136 A  
DOCKED: ATOM      2  N   UNL     1     140.353  71.208 224.280 -0.29 +0.03    -0.230 NA 
DOCKED: ATOM      3  C   UNL     1     140.466  70.979 225.606 -0.51 -0.01    +0.078 A  
DOCKED: ATOM      4  C   UNL     1     141.095  71.920 226.429 -0.67 -0.00    +0.029 A  
DOCKED: ATOM      5  C   UNL     1     141.222  71.678 227.800 -0.78 -0.00    +0.002 A  
DOCKED: ATOM      6  C   UNL     1     140.721  70.494 228.349 -0.57 -0.00    +0.001 A  
DOCKED: ATOM      7  C   UNL     1     140.093  69.550 227.531 -0.60 -0.00    +0.016 A  
DOCKED: ATOM      8  C   UNL     1     139.959  69.790 226.149 -0.45 -0.01    +0.066 A  
DOCKED: ATOM      9  C   UNL     1     139.339  68.876 225.283 -0.27 -0.03    +0.261 A  
DOCKED: ATOM     10  O   UNL     1     138.925  67.778 225.750 -0.80 -0.01    -0.269 OA 
DOCKED: ATOM     11  N   UNL     1     139.198  69.161 223.940 -0.14 +0.05    -0.292 N  
DOCKED: ENDROOT
DOCKED: BRANCH   1  12
DOCKED: ATOM     12  C   UNL     1     139.683  70.698 221.991 -0.18 -0.01    +0.048 C  
DOCKED: BRANCH  12  13
DOCKED: ATOM     13  C   UNL     1     140.598  71.495 221.417 -0.20 -0.00    +0.013 C  
DOCKED: BRANCH  13  14
DOCKED: ATOM     14  C   UNL     1     140.611  72.971 221.565 -0.28 +0.00    -0.007 A  
DOCKED: ATOM     15  C   UNL     1     139.598  73.681 222.239 -0.15 -0.02    +0.119 A  
DOCKED: ATOM     16  C   UNL     1     141.656  73.703 220.979 -0.27 -0.00    +0.011 A  
DOCKED: ATOM     17  N   UNL     1     139.657  75.038 222.331 -0.61 +0.03    -0.264 NA 
DOCKED: ATOM     18  C   UNL     1     141.694  75.093 221.092 -0.29 -0.01    +0.021 A  
DOCKED: ATOM     19  C   UNL     1     140.676  75.749 221.782 -0.32 -0.03    +0.111 A  
DOCKED: ENDBRANCH  13  14
DOCKED: ENDBRANCH  12  13
DOCKED: ENDBRANCH   1  12
DOCKED: BRANCH  11  20
DOCKED: ATOM     20  C   UNL     1     138.514  68.172 223.065 -0.22 -0.02    +0.131 C  
DOCKED: BRANCH  20  21
DOCKED: ATOM     21  C   UNL     1     137.035  68.529 222.729 -0.17 -0.00    +0.009 C  
DOCKED: ATOM     22  C   UNL     1     136.850  69.195 221.338 -0.07 -0.00    +0.005 C  
DOCKED: ATOM     23  C   UNL     1     136.318  69.317 223.863 -0.21 -0.00    +0.005 C  
DOCKED: ATOM     24  C   UNL     1     135.483  69.879 221.227 -0.03 -0.00    +0.000 C  
DOCKED: ATOM     25  C   UNL     1     136.171  70.808 223.531 -0.18 -0.00    +0.000 C  
DOCKED: ATOM     26  C   UNL     1     135.338  71.023 222.251 -0.06 -0.00    +0.000 C  
DOCKED: ENDBRANCH  20  21
DOCKED: ENDBRANCH  11  20
DOCKED: TORSDOF 5
DOCKED: TER
DOCKED: ENDMDL
________________________________________________________________________________


    FINAL DOCKED STATE:
    ________________________


Run:   14 / 20
Time taken for this run:   0.024s

DOCKED: MODEL        14
DOCKED: USER    Run = 14
DOCKED: USER
DOCKED: USER    Estimated Free Energy of Binding    =  -7.18 kcal/mol  [=(1)+(2)+(3)-(4)]
DOCKED: USER
DOCKED: USER    (1) Final Intermolecular Energy     =  -8.68 kcal/mol
DOCKED: USER        vdW + Hbond + desolv Energy     =  -8.62 kcal/mol
DOCKED: USER        Electrostatic Energy            =  -0.06 kcal/mol
DOCKED: USER        Moving Ligand-Fixed Receptor    =  -8.68 kcal/mol
DOCKED: USER        Moving Ligand-Moving Receptor   =  +0.00 kcal/mol
DOCKED: USER    (2) Final Total Internal Energy     =  -1.56 kcal/mol
DOCKED: USER    (3) Torsional Free Energy           =  +1.49 kcal/mol
DOCKED: USER    (4) Unbound System's Energy         =  -1.56 kcal/mol
DOCKED: USER
DOCKED: USER
DOCKED: REMARK SMILES O=c1c2ccccc2nc(/C=C/c2cccnc2)n1CC1CCCCC1
DOCKED: REMARK SMILES IDX 10 1 9 2 8 3 7 4 6 5 5 6 4 7 3 8 2 9 1 10 19 11 11 12 12 13
DOCKED: REMARK SMILES IDX 13 14 18 15 14 16 17 17 15 18 16 19 20 20 21 21 22 22 26 23
DOCKED: REMARK SMILES IDX 23 24 25 25 24 26
DOCKED: REMARK H PARENT
DOCKED: USER                              x       y       z     vdW  Elec       q    Type
DOCKED: USER                           _______ _______ _______ _____ _____    ______ ____
DOCKED: ROOT
DOCKED: ATOM      1  C   UNL     1     139.638  70.362 223.491 -0.23 -0.02    +0.136 A  
DOCKED: ATOM      2  N   UNL     1     140.246  71.232 224.342 -0.29 +0.04    -0.230 NA 
DOCKED: ATOM      3  C   UNL     1     140.467  70.940 225.642 -0.51 -0.01    +0.078 A  
DOCKED: ATOM      4  C   UNL     1     141.090  71.877 226.475 -0.70 -0.00    +0.029 A  
DOCKED: ATOM      5  C   UNL     1     141.329  71.570 227.818 -0.72 -0.00    +0.002 A  
DOCKED: ATOM      6  C   UNL     1     140.949  70.326 228.329 -0.57 -0.00    +0.001 A  
DOCKED: ATOM      7  C   UNL     1     140.328  69.386 227.500 -0.60 -0.00    +0.016 A  
DOCKED: ATOM      8  C   UNL     1     140.082  69.691 226.146 -0.45 -0.01    +0.066 A  
DOCKED: ATOM      9  C   UNL     1     139.464  68.783 225.271 -0.27 -0.04    +0.261 A  
DOCKED: ATOM     10  O   UNL     1     139.159  67.635 225.700 -0.87 -0.00    -0.269 OA 
DOCKED: ATOM     11  N   UNL     1     139.209  69.130 223.960 -0.14 +0.05    -0.292 N  
DOCKED: ENDROOT
DOCKED: BRANCH   1  12
DOCKED: ATOM     12  C   UNL     1     139.450  70.801 222.078 -0.19 -0.01    +0.048 C  
DOCKED: BRANCH  12  13
DOCKED: ATOM     13  C   UNL     1     140.416  71.432 221.392 -0.19 -0.00    +0.013 C  
DOCKED: BRANCH  13  14
DOCKED: ATOM     14  C   UNL     1     140.631  72.900 221.436 -0.27 +0.00    -0.007 A  
DOCKED: ATOM     15  C   UNL     1     139.708  73.791 222.017 -0.22 -0.02    +0.119 A  
DOCKED: ATOM     16  C   UNL     1     141.786  73.435 220.843 -0.27 -0.00    +0.011 A  
DOCKED: ATOM     17  N   UNL     1     139.953  75.130 222.016 -0.60 +0.04    -0.264 NA 
DOCKED: ATOM     18  C   UNL     1     142.013  74.812 220.859 -0.30 -0.01    +0.021 A  
DOCKED: ATOM     19  C   UNL     1     141.077  75.651 221.461 -0.31 -0.03    +0.111 A  
DOCKED: ENDBRANCH  13  14
DOCKED: ENDBRANCH  12  13
DOCKED: ENDBRANCH   1  12
DOCKED: BRANCH  11  20
DOCKED: ATOM     20  C   UNL     1     138.533  68.144 223.076 -0.22 -0.02    +0.131 C  
DOCKED: BRANCH  20  21
DOCKED: ATOM     21  C   UNL     1     137.038  68.470 222.780 -0.16 -0.00    +0.009 C  
DOCKED: ATOM     22  C   UNL     1     136.800  69.109 221.384 -0.07 -0.00    +0.005 C  
DOCKED: ATOM     23  C   UNL     1     136.341  69.264 223.922 -0.21 -0.00    +0.005 C  
DOCKED: ATOM     24  C   UNL     1     135.418  69.767 221.304 -0.03 -0.00    +0.000 C  
DOCKED: ATOM     25  C   UNL     1     136.157  70.746 223.571 -0.18 -0.00    +0.000 C  
DOCKED: ATOM     26  C   UNL     1     135.282  70.925 222.314 -0.06 -0.00    +0.000 C  
DOCKED: ENDBRANCH  20  21
DOCKED: ENDBRANCH  11  20
DOCKED: TORSDOF 5
DOCKED: TER
DOCKED: ENDMDL
________________________________________________________________________________


    FINAL DOCKED STATE:
    ________________________


Run:   15 / 20
Time taken for this run:   0.024s

DOCKED: MODEL        15
DOCKED: USER    Run = 15
DOCKED: USER
DOCKED: USER    Estimated Free Energy of Binding    =  -6.84 kcal/mol  [=(1)+(2)+(3)-(4)]
DOCKED: USER
DOCKED: USER    (1) Final Intermolecular Energy     =  -8.33 kcal/mol
DOCKED: USER        vdW + Hbond + desolv Energy     =  -8.30 kcal/mol
DOCKED: USER        Electrostatic Energy            =  -0.02 kcal/mol
DOCKED: USER        Moving Ligand-Fixed Receptor    =  -8.33 kcal/mol
DOCKED: USER        Moving Ligand-Moving Receptor   =  +0.00 kcal/mol
DOCKED: USER    (2) Final Total Internal Energy     =  -1.72 kcal/mol
DOCKED: USER    (3) Torsional Free Energy           =  +1.49 kcal/mol
DOCKED: USER    (4) Unbound System's Energy         =  -1.72 kcal/mol
DOCKED: USER
DOCKED: USER
DOCKED: REMARK SMILES O=c1c2ccccc2nc(/C=C/c2cccnc2)n1CC1CCCCC1
DOCKED: REMARK SMILES IDX 10 1 9 2 8 3 7 4 6 5 5 6 4 7 3 8 2 9 1 10 19 11 11 12 12 13
DOCKED: REMARK SMILES IDX 13 14 18 15 14 16 17 17 15 18 16 19 20 20 21 21 22 22 26 23
DOCKED: REMARK SMILES IDX 23 24 25 25 24 26
DOCKED: REMARK H PARENT
DOCKED: USER                              x       y       z     vdW  Elec       q    Type
DOCKED: USER                           _______ _______ _______ _____ _____    ______ ____
DOCKED: ROOT
DOCKED: ATOM      1  C   UNL     1     139.618  70.418 223.514 -0.24 -0.02    +0.136 A  
DOCKED: ATOM      2  N   UNL     1     140.225  71.277 224.378 -0.29 +0.04    -0.230 NA 
DOCKED: ATOM      3  C   UNL     1     140.456  70.962 225.671 -0.52 -0.01    +0.078 A  
DOCKED: ATOM      4  C   UNL     1     141.076  71.888 226.517 -0.71 -0.00    +0.029 A  
DOCKED: ATOM      5  C   UNL     1     141.324  71.558 227.853 -0.72 -0.00    +0.002 A  
DOCKED: ATOM      6  C   UNL     1     140.955  70.303 228.343 -0.56 -0.00    +0.001 A  
DOCKED: ATOM      7  C   UNL     1     140.336  69.374 227.500 -0.60 -0.00    +0.016 A  
DOCKED: ATOM      8  C   UNL     1     140.080  69.702 226.154 -0.45 -0.01    +0.066 A  
DOCKED: ATOM      9  C   UNL     1     139.464  68.806 225.266 -0.27 -0.04    +0.261 A  
DOCKED: ATOM     10  O   UNL     1     139.168  67.649 225.675 -0.87 -0.00    -0.269 OA 
DOCKED: ATOM     11  N   UNL     1     139.200  69.175 223.963 -0.14 +0.05    -0.292 N  
DOCKED: ENDROOT
DOCKED: BRANCH   1  12
DOCKED: ATOM     12  C   UNL     1     139.421  70.882 222.109 -0.19 -0.01    +0.048 C  
DOCKED: BRANCH  12  13
DOCKED: ATOM     13  C   UNL     1     140.195  71.827 221.553 -0.22 -0.00    +0.013 C  
DOCKED: BRANCH  13  14
DOCKED: ATOM     14  C   UNL     1     139.958  73.284 221.714 -0.27 +0.00    -0.007 A  
DOCKED: ATOM     15  C   UNL     1     140.999  74.232 221.717 -0.19 -0.01    +0.119 A  
DOCKED: ATOM     16  C   UNL     1     138.644  73.740 221.909 -0.19 -0.00    +0.011 A  
DOCKED: ATOM     17  N   UNL     1     140.722  75.555 221.882 -0.42 +0.05    -0.264 NA 
DOCKED: ATOM     18  C   UNL     1     138.388  75.102 222.072 -0.22 -0.01    +0.021 A  
DOCKED: ATOM     19  C   UNL     1     139.452  76.004 222.051 -0.29 -0.02    +0.111 A  
DOCKED: ENDBRANCH  13  14
DOCKED: ENDBRANCH  12  13
DOCKED: ENDBRANCH   1  12
DOCKED: BRANCH  11  20
DOCKED: ATOM     20  C   UNL     1     138.525  68.202 223.064 -0.22 -0.02    +0.131 C  
DOCKED: BRANCH  20  21
DOCKED: ATOM     21  C   UNL     1     137.026  68.522 222.783 -0.17 -0.00    +0.009 C  
DOCKED: ATOM     22  C   UNL     1     136.772  69.160 221.389 -0.07 -0.00    +0.005 C  
DOCKED: ATOM     23  C   UNL     1     136.338  69.315 223.931 -0.21 -0.00    +0.005 C  
DOCKED: ATOM     24  C   UNL     1     135.387  69.813 221.322 -0.03 -0.00    +0.000 C  
DOCKED: ATOM     25  C   UNL     1     136.146  70.796 223.581 -0.18 -0.00    +0.000 C  
DOCKED: ATOM     26  C   UNL     1     135.258  70.972 222.333 -0.06 -0.00    +0.000 C  
DOCKED: ENDBRANCH  20  21
DOCKED: ENDBRANCH  11  20
DOCKED: TORSDOF 5
DOCKED: TER
DOCKED: ENDMDL
________________________________________________________________________________


    FINAL DOCKED STATE:
    ________________________


Run:   16 / 20
Time taken for this run:   0.024s

DOCKED: MODEL        16
DOCKED: USER    Run = 16
DOCKED: USER
DOCKED: USER    Estimated Free Energy of Binding    =  -6.99 kcal/mol  [=(1)+(2)+(3)-(4)]
DOCKED: USER
DOCKED: USER    (1) Final Intermolecular Energy     =  -8.48 kcal/mol
DOCKED: USER        vdW + Hbond + desolv Energy     =  -8.43 kcal/mol
DOCKED: USER        Electrostatic Energy            =  -0.05 kcal/mol
DOCKED: USER        Moving Ligand-Fixed Receptor    =  -8.48 kcal/mol
DOCKED: USER        Moving Ligand-Moving Receptor   =  +0.00 kcal/mol
DOCKED: USER    (2) Final Total Internal Energy     =  -1.77 kcal/mol
DOCKED: USER    (3) Torsional Free Energy           =  +1.49 kcal/mol
DOCKED: USER    (4) Unbound System's Energy         =  -1.77 kcal/mol
DOCKED: USER
DOCKED: USER
DOCKED: REMARK SMILES O=c1c2ccccc2nc(/C=C/c2cccnc2)n1CC1CCCCC1
DOCKED: REMARK SMILES IDX 10 1 9 2 8 3 7 4 6 5 5 6 4 7 3 8 2 9 1 10 19 11 11 12 12 13
DOCKED: REMARK SMILES IDX 13 14 18 15 14 16 17 17 15 18 16 19 20 20 21 21 22 22 26 23
DOCKED: REMARK SMILES IDX 23 24 25 25 24 26
DOCKED: REMARK H PARENT
DOCKED: USER                              x       y       z     vdW  Elec       q    Type
DOCKED: USER                           _______ _______ _______ _____ _____    ______ ____
DOCKED: ROOT
DOCKED: ATOM      1  C   UNL     1     139.613  70.386 223.522 -0.24 -0.02    +0.136 A  
DOCKED: ATOM      2  N   UNL     1     140.237  71.248 224.371 -0.29 +0.04    -0.230 NA 
DOCKED: ATOM      3  C   UNL     1     140.470  70.948 225.667 -0.52 -0.01    +0.078 A  
DOCKED: ATOM      4  C   UNL     1     141.107  71.877 226.498 -0.70 -0.00    +0.029 A  
DOCKED: ATOM      5  C   UNL     1     141.358  71.562 227.837 -0.71 -0.00    +0.002 A  
DOCKED: ATOM      6  C   UNL     1     140.976  70.318 228.345 -0.56 -0.00    +0.001 A  
DOCKED: ATOM      7  C   UNL     1     140.341  69.385 227.519 -0.60 -0.00    +0.016 A  
DOCKED: ATOM      8  C   UNL     1     140.082  69.699 226.169 -0.45 -0.01    +0.066 A  
DOCKED: ATOM      9  C   UNL     1     139.449  68.799 225.296 -0.27 -0.04    +0.261 A  
DOCKED: ATOM     10  O   UNL     1     139.141  67.651 225.722 -0.86 -0.00    -0.269 OA 
DOCKED: ATOM     11  N   UNL     1     139.182  69.154 223.990 -0.14 +0.05    -0.292 N  
DOCKED: ENDROOT
DOCKED: BRANCH   1  12
DOCKED: ATOM     12  C   UNL     1     139.414  70.833 222.113 -0.19 -0.01    +0.048 C  
DOCKED: BRANCH  12  13
DOCKED: ATOM     13  C   UNL     1     138.621  71.870 221.797 -0.16 -0.00    +0.013 C  
DOCKED: BRANCH  13  14
DOCKED: ATOM     14  C   UNL     1     139.053  73.287 221.871 -0.22 +0.00    -0.007 A  
DOCKED: ATOM     15  C   UNL     1     140.407  73.674 221.898 -0.23 -0.01    +0.119 A  
DOCKED: ATOM     16  C   UNL     1     138.075  74.291 221.954 -0.18 -0.00    +0.011 A  
DOCKED: ATOM     17  N   UNL     1     140.743  74.991 221.980 -0.59 +0.03    -0.264 NA 
DOCKED: ATOM     18  C   UNL     1     138.447  75.634 222.034 -0.27 -0.01    +0.021 A  
DOCKED: ATOM     19  C   UNL     1     139.801  75.967 222.041 -0.30 -0.02    +0.111 A  
DOCKED: ENDBRANCH  13  14
DOCKED: ENDBRANCH  12  13
DOCKED: ENDBRANCH   1  12
DOCKED: BRANCH  11  20
DOCKED: ATOM     20  C   UNL     1     138.490  68.178 223.108 -0.22 -0.02    +0.131 C  
DOCKED: BRANCH  20  21
DOCKED: ATOM     21  C   UNL     1     136.974  68.468 222.897 -0.14 -0.00    +0.009 C  
DOCKED: ATOM     22  C   UNL     1     136.646  69.125 221.528 -0.08 -0.00    +0.005 C  
DOCKED: ATOM     23  C   UNL     1     136.318  69.223 224.088 -0.21 -0.00    +0.005 C  
DOCKED: ATOM     24  C   UNL     1     135.245  69.747 221.532 -0.04 -0.00    +0.000 C  
DOCKED: ATOM     25  C   UNL     1     136.078  70.705 223.776 -0.19 -0.00    +0.000 C  
DOCKED: ATOM     26  C   UNL     1     135.133  70.883 222.570 -0.07 -0.00    +0.000 C  
DOCKED: ENDBRANCH  20  21
DOCKED: ENDBRANCH  11  20
DOCKED: TORSDOF 5
DOCKED: TER
DOCKED: ENDMDL
________________________________________________________________________________


    FINAL DOCKED STATE:
    ________________________


Run:   17 / 20
Time taken for this run:   0.024s

DOCKED: MODEL        17
DOCKED: USER    Run = 17
DOCKED: USER
DOCKED: USER    Estimated Free Energy of Binding    =  -6.56 kcal/mol  [=(1)+(2)+(3)-(4)]
DOCKED: USER
DOCKED: USER    (1) Final Intermolecular Energy     =  -8.05 kcal/mol
DOCKED: USER        vdW + Hbond + desolv Energy     =  -8.10 kcal/mol
DOCKED: USER        Electrostatic Energy            =  +0.05 kcal/mol
DOCKED: USER        Moving Ligand-Fixed Receptor    =  -8.05 kcal/mol
DOCKED: USER        Moving Ligand-Moving Receptor   =  +0.00 kcal/mol
DOCKED: USER    (2) Final Total Internal Energy     =  -1.79 kcal/mol
DOCKED: USER    (3) Torsional Free Energy           =  +1.49 kcal/mol
DOCKED: USER    (4) Unbound System's Energy         =  -1.79 kcal/mol
DOCKED: USER
DOCKED: USER
DOCKED: REMARK SMILES O=c1c2ccccc2nc(/C=C/c2cccnc2)n1CC1CCCCC1
DOCKED: REMARK SMILES IDX 10 1 9 2 8 3 7 4 6 5 5 6 4 7 3 8 2 9 1 10 19 11 11 12 12 13
DOCKED: REMARK SMILES IDX 13 14 18 15 14 16 17 17 15 18 16 19 20 20 21 21 22 22 26 23
DOCKED: REMARK SMILES IDX 23 24 25 25 24 26
DOCKED: REMARK H PARENT
DOCKED: USER                              x       y       z     vdW  Elec       q    Type
DOCKED: USER                           _______ _______ _______ _____ _____    ______ ____
DOCKED: ROOT
DOCKED: ATOM      1  C   UNL     1     140.162  76.068 221.849 -0.30 -0.03    +0.136 A  
DOCKED: ATOM      2  N   UNL     1     140.349  74.725 221.971 -0.72 +0.02    -0.230 NA 
DOCKED: ATOM      3  C   UNL     1     141.337  74.069 221.324 -0.24 -0.01    +0.078 A  
DOCKED: ATOM      4  C   UNL     1     141.478  72.685 221.479 -0.25 -0.00    +0.029 A  
DOCKED: ATOM      5  C   UNL     1     142.507  72.009 220.818 -0.26 -0.00    +0.002 A  
DOCKED: ATOM      6  C   UNL     1     143.397  72.714 220.003 -0.27 -0.00    +0.001 A  
DOCKED: ATOM      7  C   UNL     1     143.262  74.097 219.847 -0.30 -0.00    +0.016 A  
DOCKED: ATOM      8  C   UNL     1     142.224  74.785 220.508 -0.28 -0.02    +0.066 A  
DOCKED: ATOM      9  C   UNL     1     142.044  76.171 220.387 -0.15 -0.14    +0.261 A  
DOCKED: ATOM     10  O   UNL     1     142.867  76.835 219.696 -0.29 +0.19    -0.269 OA 
DOCKED: ATOM     11  N   UNL     1     140.996  76.805 221.023 -0.14 +0.12    -0.292 N  
DOCKED: ENDROOT
DOCKED: BRANCH   1  12
DOCKED: ATOM     12  C   UNL     1     139.036  76.676 222.615 -0.24 -0.01    +0.048 C  
DOCKED: BRANCH  12  13
DOCKED: ATOM     13  C   UNL     1     138.167  77.532 222.051 -0.23 -0.00    +0.013 C  
DOCKED: BRANCH  13  14
DOCKED: ATOM     14  C   UNL     1     138.086  78.971 222.403 -0.22 +0.00    -0.007 A  
DOCKED: ATOM     15  C   UNL     1     137.615  79.951 221.507 -0.08 -0.02    +0.119 A  
DOCKED: ATOM     16  C   UNL     1     138.528  79.387 223.669 -0.27 -0.00    +0.011 A  
DOCKED: ATOM     17  N   UNL     1     137.575  81.259 221.881 -0.05 +0.04    -0.264 NA 
DOCKED: ATOM     18  C   UNL     1     138.472  80.734 224.027 -0.39 -0.00    +0.021 A  
DOCKED: ATOM     19  C   UNL     1     137.984  81.665 223.111 -0.19 -0.01    +0.111 A  
DOCKED: ENDBRANCH  13  14
DOCKED: ENDBRANCH  12  13
DOCKED: ENDBRANCH   1  12
DOCKED: BRANCH  11  20
DOCKED: ATOM     20  C   UNL     1     140.832  78.272 220.847 -0.21 -0.05    +0.131 C  
DOCKED: BRANCH  20  21
DOCKED: ATOM     21  C   UNL     1     141.886  79.130 221.609 -0.41 -0.00    +0.009 C  
DOCKED: ATOM     22  C   UNL     1     141.821  78.978 223.154 -0.60 -0.00    +0.005 C  
DOCKED: ATOM     23  C   UNL     1     141.908  80.620 221.162 -0.38 -0.00    +0.005 C  
DOCKED: ATOM     24  C   UNL     1     142.575  80.113 223.856 -0.64 -0.00    +0.000 C  
DOCKED: ATOM     25  C   UNL     1     141.233  81.544 222.184 -0.44 -0.00    +0.000 C  
DOCKED: ATOM     26  C   UNL     1     141.941  81.486 223.553 -0.55 -0.00    +0.000 C  
DOCKED: ENDBRANCH  20  21
DOCKED: ENDBRANCH  11  20
DOCKED: TORSDOF 5
DOCKED: TER
DOCKED: ENDMDL
________________________________________________________________________________


    FINAL DOCKED STATE:
    ________________________


Run:   18 / 20
Time taken for this run:   0.024s

DOCKED: MODEL        18
DOCKED: USER    Run = 18
DOCKED: USER
DOCKED: USER    Estimated Free Energy of Binding    =  -6.89 kcal/mol  [=(1)+(2)+(3)-(4)]
DOCKED: USER
DOCKED: USER    (1) Final Intermolecular Energy     =  -8.38 kcal/mol
DOCKED: USER        vdW + Hbond + desolv Energy     =  -8.37 kcal/mol
DOCKED: USER        Electrostatic Energy            =  -0.01 kcal/mol
DOCKED: USER        Moving Ligand-Fixed Receptor    =  -8.38 kcal/mol
DOCKED: USER        Moving Ligand-Moving Receptor   =  +0.00 kcal/mol
DOCKED: USER    (2) Final Total Internal Energy     =  -1.55 kcal/mol
DOCKED: USER    (3) Torsional Free Energy           =  +1.49 kcal/mol
DOCKED: USER    (4) Unbound System's Energy         =  -1.55 kcal/mol
DOCKED: USER
DOCKED: USER
DOCKED: REMARK SMILES O=c1c2ccccc2nc(/C=C/c2cccnc2)n1CC1CCCCC1
DOCKED: REMARK SMILES IDX 10 1 9 2 8 3 7 4 6 5 5 6 4 7 3 8 2 9 1 10 19 11 11 12 12 13
DOCKED: REMARK SMILES IDX 13 14 18 15 14 16 17 17 15 18 16 19 20 20 21 21 22 22 26 23
DOCKED: REMARK SMILES IDX 23 24 25 25 24 26
DOCKED: REMARK H PARENT
DOCKED: USER                              x       y       z     vdW  Elec       q    Type
DOCKED: USER                           _______ _______ _______ _____ _____    ______ ____
DOCKED: ROOT
DOCKED: ATOM      1  C   UNL     1     141.694  77.512 220.285 -0.24 -0.08    +0.136 A  
DOCKED: ATOM      2  N   UNL     1     142.717  76.807 219.728 -0.24 +0.16    -0.230 NA 
DOCKED: ATOM      3  C   UNL     1     142.935  75.503 220.008 -0.31 -0.04    +0.078 A  
DOCKED: ATOM      4  C   UNL     1     144.008  74.830 219.413 -0.32 -0.01    +0.029 A  
DOCKED: ATOM      5  C   UNL     1     144.227  73.477 219.694 -0.35 -0.00    +0.002 A  
DOCKED: ATOM      6  C   UNL     1     143.373  72.798 220.566 -0.32 -0.00    +0.001 A  
DOCKED: ATOM      7  C   UNL     1     142.298  73.466 221.161 -0.15 -0.00    +0.016 A  
DOCKED: ATOM      8  C   UNL     1     142.074  74.830 220.885 -0.27 -0.02    +0.066 A  
DOCKED: ATOM      9  C   UNL     1     141.010  75.548 221.453 -0.23 -0.07    +0.261 A  
DOCKED: ATOM     10  O   UNL     1     140.197  74.940 222.204 -0.70 +0.01    -0.269 OA 
DOCKED: ATOM     11  N   UNL     1     140.842  76.891 221.185 -0.15 +0.11    -0.292 N  
DOCKED: ENDROOT
DOCKED: BRANCH   1  12
DOCKED: ATOM     12  C   UNL     1     141.557  78.946 219.896 -0.26 -0.03    +0.048 C  
DOCKED: BRANCH  12  13
DOCKED: ATOM     13  C   UNL     1     142.198  79.463 218.836 -0.30 -0.01    +0.013 C  
DOCKED: BRANCH  13  14
DOCKED: ATOM     14  C   UNL     1     142.198  80.909 218.500 -0.32 +0.00    -0.007 A  
DOCKED: ATOM     15  C   UNL     1     142.993  81.455 217.473 -0.28 -0.12    +0.119 A  
DOCKED: ATOM     16  C   UNL     1     141.400  81.782 219.257 -0.25 -0.00    +0.011 A  
DOCKED: ATOM     17  N   UNL     1     142.961  82.792 217.220 -0.19 +0.18    -0.264 NA 
DOCKED: ATOM     18  C   UNL     1     141.384  83.148 218.972 -0.18 -0.01    +0.021 A  
DOCKED: ATOM     19  C   UNL     1     142.177  83.638 217.936 -0.13 -0.04    +0.111 A  
DOCKED: ENDBRANCH  13  14
DOCKED: ENDBRANCH  12  13
DOCKED: ENDBRANCH   1  12
DOCKED: BRANCH  11  20
DOCKED: ATOM     20  C   UNL     1     139.714  77.615 221.827 -0.24 -0.03    +0.131 C  
DOCKED: BRANCH  20  21
DOCKED: ATOM     21  C   UNL     1     140.148  78.625 222.932 -0.40 -0.00    +0.009 C  
DOCKED: ATOM     22  C   UNL     1     139.903  80.112 222.555 -0.34 -0.00    +0.005 C  
DOCKED: ATOM     23  C   UNL     1     141.590  78.378 223.462 -0.53 -0.00    +0.005 C  
DOCKED: ATOM     24  C   UNL     1     140.695  81.054 223.468 -0.43 -0.00    +0.000 C  
DOCKED: ATOM     25  C   UNL     1     142.593  79.400 222.914 -0.60 -0.00    +0.000 C  
DOCKED: ATOM     26  C   UNL     1     142.216  80.839 223.321 -0.65 -0.00    +0.000 C  
DOCKED: ENDBRANCH  20  21
DOCKED: ENDBRANCH  11  20
DOCKED: TORSDOF 5
DOCKED: TER
DOCKED: ENDMDL
________________________________________________________________________________


    FINAL DOCKED STATE:
    ________________________


Run:   19 / 20
Time taken for this run:   0.024s

DOCKED: MODEL        19
DOCKED: USER    Run = 19
DOCKED: USER
DOCKED: USER    Estimated Free Energy of Binding    =  -7.06 kcal/mol  [=(1)+(2)+(3)-(4)]
DOCKED: USER
DOCKED: USER    (1) Final Intermolecular Energy     =  -8.55 kcal/mol
DOCKED: USER        vdW + Hbond + desolv Energy     =  -8.51 kcal/mol
DOCKED: USER        Electrostatic Energy            =  -0.04 kcal/mol
DOCKED: USER        Moving Ligand-Fixed Receptor    =  -8.55 kcal/mol
DOCKED: USER        Moving Ligand-Moving Receptor   =  +0.00 kcal/mol
DOCKED: USER    (2) Final Total Internal Energy     =  -1.46 kcal/mol
DOCKED: USER    (3) Torsional Free Energy           =  +1.49 kcal/mol
DOCKED: USER    (4) Unbound System's Energy         =  -1.46 kcal/mol
DOCKED: USER
DOCKED: USER
DOCKED: REMARK SMILES O=c1c2ccccc2nc(/C=C/c2cccnc2)n1CC1CCCCC1
DOCKED: REMARK SMILES IDX 10 1 9 2 8 3 7 4 6 5 5 6 4 7 3 8 2 9 1 10 19 11 11 12 12 13
DOCKED: REMARK SMILES IDX 13 14 18 15 14 16 17 17 15 18 16 19 20 20 21 21 22 22 26 23
DOCKED: REMARK SMILES IDX 23 24 25 25 24 26
DOCKED: REMARK H PARENT
DOCKED: USER                              x       y       z     vdW  Elec       q    Type
DOCKED: USER                           _______ _______ _______ _____ _____    ______ ____
DOCKED: ROOT
DOCKED: ATOM      1  C   UNL     1     141.754  77.509 220.320 -0.25 -0.08    +0.136 A  
DOCKED: ATOM      2  N   UNL     1     142.786  76.810 219.774 -0.24 +0.16    -0.230 NA 
DOCKED: ATOM      3  C   UNL     1     142.986  75.498 220.024 -0.31 -0.04    +0.078 A  
DOCKED: ATOM      4  C   UNL     1     144.070  74.830 219.442 -0.32 -0.01    +0.029 A  
DOCKED: ATOM      5  C   UNL     1     144.270  73.469 219.693 -0.36 -0.00    +0.002 A  
DOCKED: ATOM      6  C   UNL     1     143.386  72.774 220.522 -0.32 -0.00    +0.001 A  
DOCKED: ATOM      7  C   UNL     1     142.301  73.437 221.105 -0.17 -0.00    +0.016 A  
DOCKED: ATOM      8  C   UNL     1     142.096  74.809 220.859 -0.27 -0.02    +0.066 A  
DOCKED: ATOM      9  C   UNL     1     141.022  75.521 221.416 -0.23 -0.07    +0.261 A  
DOCKED: ATOM     10  O   UNL     1     140.183  74.900 222.128 -0.71 +0.02    -0.269 OA 
DOCKED: ATOM     11  N   UNL     1     140.872  76.872 221.179 -0.15 +0.12    -0.292 N  
DOCKED: ENDROOT
DOCKED: BRANCH   1  12
DOCKED: ATOM     12  C   UNL     1     141.640  78.954 219.966 -0.26 -0.03    +0.048 C  
DOCKED: BRANCH  12  13
DOCKED: ATOM     13  C   UNL     1     142.169  79.458 218.840 -0.30 -0.01    +0.013 C  
DOCKED: BRANCH  13  14
DOCKED: ATOM     14  C   UNL     1     142.190  80.906 218.518 -0.32 +0.00    -0.007 A  
DOCKED: ATOM     15  C   UNL     1     141.400  81.853 219.199 -0.21 -0.04    +0.119 A  
DOCKED: ATOM     16  C   UNL     1     143.003  81.356 217.465 -0.32 -0.01    +0.011 A  
DOCKED: ATOM     17  N   UNL     1     141.451  83.167 218.850 -0.10 +0.09    -0.264 NA 
DOCKED: ATOM     18  C   UNL     1     143.039  82.710 217.131 -0.33 -0.02    +0.021 A  
DOCKED: ATOM     19  C   UNL     1     142.250  83.611 217.845 -0.16 -0.05    +0.111 A  
DOCKED: ENDBRANCH  13  14
DOCKED: ENDBRANCH  12  13
DOCKED: ENDBRANCH   1  12
DOCKED: BRANCH  11  20
DOCKED: ATOM     20  C   UNL     1     139.733  77.589 221.809 -0.24 -0.03    +0.131 C  
DOCKED: BRANCH  20  21
DOCKED: ATOM     21  C   UNL     1     140.147  78.595 222.925 -0.40 -0.00    +0.009 C  
DOCKED: ATOM     22  C   UNL     1     139.903  80.083 222.550 -0.34 -0.00    +0.005 C  
DOCKED: ATOM     23  C   UNL     1     141.582  78.351 223.475 -0.52 -0.00    +0.005 C  
DOCKED: ATOM     24  C   UNL     1     140.679  81.024 223.479 -0.44 -0.00    +0.000 C  
DOCKED: ATOM     25  C   UNL     1     142.590  79.378 222.945 -0.60 -0.00    +0.000 C  
DOCKED: ATOM     26  C   UNL     1     142.202  80.813 223.353 -0.65 -0.00    +0.000 C  
DOCKED: ENDBRANCH  20  21
DOCKED: ENDBRANCH  11  20
DOCKED: TORSDOF 5
DOCKED: TER
DOCKED: ENDMDL
________________________________________________________________________________


    FINAL DOCKED STATE:
    ________________________


Run:   20 / 20
Time taken for this run:   0.024s

DOCKED: MODEL        20
DOCKED: USER    Run = 20
DOCKED: USER
DOCKED: USER    Estimated Free Energy of Binding    =  -6.96 kcal/mol  [=(1)+(2)+(3)-(4)]
DOCKED: USER
DOCKED: USER    (1) Final Intermolecular Energy     =  -8.45 kcal/mol
DOCKED: USER        vdW + Hbond + desolv Energy     =  -8.40 kcal/mol
DOCKED: USER        Electrostatic Energy            =  -0.05 kcal/mol
DOCKED: USER        Moving Ligand-Fixed Receptor    =  -8.45 kcal/mol
DOCKED: USER        Moving Ligand-Moving Receptor   =  +0.00 kcal/mol
DOCKED: USER    (2) Final Total Internal Energy     =  -1.53 kcal/mol
DOCKED: USER    (3) Torsional Free Energy           =  +1.49 kcal/mol
DOCKED: USER    (4) Unbound System's Energy         =  -1.53 kcal/mol
DOCKED: USER
DOCKED: USER
DOCKED: REMARK SMILES O=c1c2ccccc2nc(/C=C/c2cccnc2)n1CC1CCCCC1
DOCKED: REMARK SMILES IDX 10 1 9 2 8 3 7 4 6 5 5 6 4 7 3 8 2 9 1 10 19 11 11 12 12 13
DOCKED: REMARK SMILES IDX 13 14 18 15 14 16 17 17 15 18 16 19 20 20 21 21 22 22 26 23
DOCKED: REMARK SMILES IDX 23 24 25 25 24 26
DOCKED: REMARK H PARENT
DOCKED: USER                              x       y       z     vdW  Elec       q    Type
DOCKED: USER                           _______ _______ _______ _____ _____    ______ ____
DOCKED: ROOT
DOCKED: ATOM      1  C   UNL     1     141.634  77.511 220.280 -0.23 -0.08    +0.136 A  
DOCKED: ATOM      2  N   UNL     1     142.632  76.799 219.690 -0.23 +0.15    -0.230 NA 
DOCKED: ATOM      3  C   UNL     1     142.853  75.495 219.967 -0.31 -0.04    +0.078 A  
DOCKED: ATOM      4  C   UNL     1     143.901  74.813 219.337 -0.31 -0.01    +0.029 A  
DOCKED: ATOM      5  C   UNL     1     144.123  73.461 219.616 -0.33 -0.00    +0.002 A  
DOCKED: ATOM      6  C   UNL     1     143.298  72.790 220.521 -0.31 -0.00    +0.001 A  
DOCKED: ATOM      7  C   UNL     1     142.248  73.466 221.152 -0.17 -0.00    +0.016 A  
DOCKED: ATOM      8  C   UNL     1     142.022  74.830 220.878 -0.27 -0.02    +0.066 A  
DOCKED: ATOM      9  C   UNL     1     140.982  75.556 221.481 -0.24 -0.07    +0.261 A  
DOCKED: ATOM     10  O   UNL     1     140.194  74.955 222.264 -0.69 +0.01    -0.269 OA 
DOCKED: ATOM     11  N   UNL     1     140.812  76.898 221.213 -0.15 +0.11    -0.292 N  
DOCKED: ENDROOT
DOCKED: BRANCH   1  12
DOCKED: ATOM     12  C   UNL     1     141.490  78.944 219.890 -0.26 -0.03    +0.048 C  
DOCKED: BRANCH  12  13
DOCKED: ATOM     13  C   UNL     1     142.213  79.492 218.900 -0.28 -0.01    +0.013 C  
DOCKED: BRANCH  13  14
DOCKED: ATOM     14  C   UNL     1     142.187  80.937 218.565 -0.32 +0.00    -0.007 A  
DOCKED: ATOM     15  C   UNL     1     141.377  81.866 219.248 -0.21 -0.04    +0.119 A  
DOCKED: ATOM     16  C   UNL     1     142.973  81.401 217.498 -0.33 -0.01    +0.011 A  
DOCKED: ATOM     17  N   UNL     1     141.385  83.178 218.886 -0.10 +0.08    -0.264 NA 
DOCKED: ATOM     18  C   UNL     1     142.964  82.753 217.151 -0.32 -0.01    +0.021 A  
DOCKED: ATOM     19  C   UNL     1     142.157  83.636 217.868 -0.15 -0.04    +0.111 A  
DOCKED: ENDBRANCH  13  14
DOCKED: ENDBRANCH  12  13
DOCKED: ENDBRANCH   1  12
DOCKED: BRANCH  11  20
DOCKED: ATOM     20  C   UNL     1     139.711  77.631 221.892 -0.25 -0.03    +0.131 C  
DOCKED: BRANCH  20  21
DOCKED: ATOM     21  C   UNL     1     140.190  78.646 222.974 -0.41 -0.00    +0.009 C  
DOCKED: ATOM     22  C   UNL     1     139.958  80.132 222.587 -0.35 -0.00    +0.005 C  
DOCKED: ATOM     23  C   UNL     1     141.641  78.382 223.469 -0.52 -0.00    +0.005 C  
DOCKED: ATOM     24  C   UNL     1     140.789  81.071 223.469 -0.45 -0.00    +0.000 C  
DOCKED: ATOM     25  C   UNL     1     142.646  79.382 222.883 -0.58 -0.00    +0.000 C  
DOCKED: ATOM     26  C   UNL     1     142.302  80.830 223.284 -0.64 -0.00    +0.000 C  
DOCKED: ENDBRANCH  20  21
DOCKED: ENDBRANCH  11  20
DOCKED: TORSDOF 5
DOCKED: TER
DOCKED: ENDMDL
________________________________________________________________________________


    CLUSTERING HISTOGRAM
    ____________________


________________________________________________________________________________
     |           |     |           |     |
Clus | Lowest    | Run | Mean      | Num | Histogram
-ter | Binding   |     | Binding   | in  |
Rank | Energy    |     | Energy    | Clus|    5    10   15   20   25   30   35
_____|___________|_____|___________|_____|____:____|____:____|____:____|____:___
   1 |     -7.18 |  14 |     -7.00 |  13 |#############
   2 |     -7.06 |  19 |     -6.99 |   4 |####
   3 |     -6.65 |   7 |     -6.59 |   3 |###
_____|___________|_____|___________|_____|______________________________________


    RMSD TABLE
    __________


_______________________________________________________________________
     |      |      |           |         |                 |
Rank | Sub- | Run  | Binding   | Cluster | Reference       | Grep
     | Rank |      | Energy    | RMSD    | RMSD            | Pattern
_____|______|______|___________|_________|_________________|___________
   1      1     14       -7.18      0.00    270.69           RANKING
   1      2     11       -7.18      0.03    270.68           RANKING
   1      3     13       -7.07      0.24    270.70           RANKING
   1      4      2       -7.07      0.29    270.67           RANKING
   1      5      9       -7.03      0.72    270.69           RANKING
   1      6     16       -6.99      0.74    270.65           RANKING
   1      7     12       -6.97      0.73    270.64           RANKING
   1      8      3       -6.97      0.75    270.62           RANKING
   1      9     10       -6.96      0.73    270.64           RANKING
   1     10      1       -6.92      0.74    270.59           RANKING
   1     11      8       -6.91      0.83    270.80           RANKING
   1     12      5       -6.86      0.72    270.56           RANKING
   1     13     15       -6.84      0.66    270.67           RANKING
   2      1     19       -7.06      0.00    271.51           RANKING
   2      2      6       -7.05      0.03    271.50           RANKING
   2      3     20       -6.96      0.11    271.50           RANKING
   2      4     18       -6.89      0.52    271.51           RANKING
   3      1      7       -6.65      0.00    271.72           RANKING
   3      2      4       -6.57      0.21    271.65           RANKING
   3      3     17       -6.56      0.23    271.66           RANKING

Run time 0.458 sec
Idle time 0.000 sec
