AutoDock-GPU version: v1.6

**********************************************************
**    AutoDock-GPU AUTODOCKTOOLS-COMPATIBLE DLG FILE    **
**********************************************************


    DOCKING PARAMETERS
    ________________________


Ligand file:                               /home/a/REINVENT4/ReinventStudies/scoringData/graph-dock/graph-DockGPU/node-autodockgpu/inputs/YCOHEPDJLXZVBZ-XMMPIXPANA-N.pdbqt
Grid fld file:                             /home/a/REINVENT4/ReinventStudies/mols/Rad51/maps/rad51_receptor.maps.fld

Random seed:                               42
Number of runs:                            20
Number of energy evaluations:              1132076
Number of generations:                     42000
Size of population:                        150
Rate of crossover:                         80.000000%
Tournament selection probability limit:    60.000000%
Rate of mutation:                          2.000000%
Maximal allowed delta movement:            +/- 6.000000A
Maximal allowed delta angle:               +/- 90.000000

Rate of local search:                      100.000000%
Maximal number of local search iterations: 300
Rho lower bound:                           0.010000
Spread of local search delta movement:     2.000000A
Spread of local search delta angle:        74.999999
Limit of consecutive successes/failures:   4

Handle symmetry during clustering:         YES
RMSD tolerance:                            2.000000A

Program call in command line was:          /home/a/REINVENT4/ReinventStudies/adgpu-v1.6_linux_x64_cuda12_128wi --filelist batch.txt --heuristics 1 --nrun 20 --psize 150 --lsit 300 --seed 42 --heurmax 12000000 


    GRID PARAMETERS
    ________________________


Receptor name:                             rad51_receptor
Number of grid points (x, y, z):           53, 53, 53
Grid center (x, y, z):                     139.950000, 75.640000, 221.970000A
Grid size (x, y, z):                       19.500000, 19.500000, 19.500000A
Grid spacing:                              0.375000A


    LIGAND PARAMETERS
    ________________________


Ligand name:                               /home/a/REINVENT4/ReinventStudies/scoringData/graph-dock/graph-DockGPU/node-autodockgpu/inputs/YCOHEPDJLXZVBZ-XMMPIXPANA-N
Number of atoms:                           30
Number of rotatable bonds:                 4
Number of atom types:                      6


    DUMMY DATA (only for ADT-compatibility)
    ________________________


DPF> outlev 1
DPF> ga_run 20
DPF> fld /home/a/REINVENT4/ReinventStudies/mols/Rad51/maps/rad51_receptor.maps.fld
DPF> move /home/a/REINVENT4/ReinventStudies/scoringData/graph-dock/graph-DockGPU/node-autodockgpu/inputs/YCOHEPDJLXZVBZ-XMMPIXPANA-N.pdbqt


    COUNTER STATES
    ________________________


Number of energy evaluations performed:    685632
Number of generations used:                30


    INPUT LIGAND PDBQT FILE:
    ________________________


INPUT-LIGAND-PDBQT: REMARK SMILES O=S(=O)(Cc1ccccc1)N1C=Cc2ccccc2[C@@H]1c1c[nH]c2ccccc12
INPUT-LIGAND-PDBQT: REMARK SMILES IDX 11 1 12 2 13 3 14 4 15 5 16 6 17 7 18 8 19 9 20 10 2 11 1 12
INPUT-LIGAND-PDBQT: REMARK SMILES IDX 3 13 4 14 5 15 6 16 10 17 7 18 9 19 8 20 21 21 22 22 29 23
INPUT-LIGAND-PDBQT: REMARK SMILES IDX 23 24 28 25 24 26 27 27 25 28 26 29
INPUT-LIGAND-PDBQT: REMARK H PARENT 23 30
INPUT-LIGAND-PDBQT: ROOT
INPUT-LIGAND-PDBQT: ATOM      1  N   UNL     1       1.214   0.440   1.380  1.00  0.00    -0.265 N 
INPUT-LIGAND-PDBQT: ATOM      2  C   UNL     1       1.523   1.616   2.146  1.00  0.00     0.099 C 
INPUT-LIGAND-PDBQT: ATOM      3  C   UNL     1       2.538   2.408   1.806  1.00  0.00     0.027 C 
INPUT-LIGAND-PDBQT: ATOM      4  C   UNL     1       3.378   2.089   0.641  1.00  0.00    -0.019 A 
INPUT-LIGAND-PDBQT: ATOM      5  C   UNL     1       4.530   2.843   0.376  1.00  0.00     0.008 A 
INPUT-LIGAND-PDBQT: ATOM      6  C   UNL     1       5.340   2.528  -0.718  1.00  0.00     0.001 A 
INPUT-LIGAND-PDBQT: ATOM      7  C   UNL     1       5.004   1.460  -1.554  1.00  0.00     0.000 A 
INPUT-LIGAND-PDBQT: ATOM      8  C   UNL     1       3.855   0.707  -1.300  1.00  0.00     0.007 A 
INPUT-LIGAND-PDBQT: ATOM      9  C   UNL     1       3.035   1.012  -0.200  1.00  0.00    -0.013 A 
INPUT-LIGAND-PDBQT: ATOM     10  C   UNL     1       1.756   0.234   0.026  1.00  0.00     0.162 C 
INPUT-LIGAND-PDBQT: ENDROOT
INPUT-LIGAND-PDBQT: BRANCH   1  11
INPUT-LIGAND-PDBQT: ATOM     11  S   UNL     1      -0.026  -0.622   1.975  1.00  0.00     0.239 S 
INPUT-LIGAND-PDBQT: ATOM     12  O   UNL     1       0.176  -0.854   3.446  1.00  0.00    -0.206 OA
INPUT-LIGAND-PDBQT: ATOM     13  O   UNL     1       0.055  -1.945   1.265  1.00  0.00    -0.206 OA
INPUT-LIGAND-PDBQT: BRANCH  11  14
INPUT-LIGAND-PDBQT: ATOM     14  C   UNL     1      -1.625   0.127   1.699  1.00  0.00     0.195 C 
INPUT-LIGAND-PDBQT: BRANCH  14  15
INPUT-LIGAND-PDBQT: ATOM     15  C   UNL     1      -2.700  -0.921   1.654  1.00  0.00    -0.031 A 
INPUT-LIGAND-PDBQT: ATOM     16  C   UNL     1      -3.124  -1.449   0.423  1.00  0.00     0.005 A 
INPUT-LIGAND-PDBQT: ATOM     17  C   UNL     1      -3.251  -1.423   2.845  1.00  0.00     0.005 A 
INPUT-LIGAND-PDBQT: ATOM     18  C   UNL     1      -4.097  -2.452   0.384  1.00  0.00     0.000 A 
INPUT-LIGAND-PDBQT: ATOM     19  C   UNL     1      -4.225  -2.425   2.802  1.00  0.00     0.000 A 
INPUT-LIGAND-PDBQT: ATOM     20  C   UNL     1      -4.648  -2.939   1.573  1.00  0.00     0.000 A 
INPUT-LIGAND-PDBQT: ENDBRANCH  14  15
INPUT-LIGAND-PDBQT: ENDBRANCH  11  14
INPUT-LIGAND-PDBQT: ENDBRANCH   1  11
INPUT-LIGAND-PDBQT: BRANCH  10  21
INPUT-LIGAND-PDBQT: ATOM     21  C   UNL     1       0.724   0.640  -0.994  1.00  0.00     0.005 A 
INPUT-LIGAND-PDBQT: ATOM     22  C   UNL     1       0.245   1.930  -1.219  1.00  0.00     0.089 A 
INPUT-LIGAND-PDBQT: ATOM     23  C   UNL     1      -0.036  -0.184  -1.805  1.00  0.00     0.005 A 
INPUT-LIGAND-PDBQT: ATOM     24  N   UNL     1      -0.752   1.913  -2.131  1.00  0.00    -0.361 N 
INPUT-LIGAND-PDBQT: ATOM     25  C   UNL     1      -0.034  -1.569  -1.982  1.00  0.00     0.011 A 
INPUT-LIGAND-PDBQT: ATOM     26  C   UNL     1      -0.917   0.625  -2.478  1.00  0.00     0.046 A 
INPUT-LIGAND-PDBQT: ATOM     27  C   UNL     1      -0.970  -2.119  -2.875  1.00  0.00     0.001 A 
INPUT-LIGAND-PDBQT: ATOM     28  C   UNL     1      -1.857   0.106  -3.368  1.00  0.00     0.026 A 
INPUT-LIGAND-PDBQT: ATOM     29  C   UNL     1      -1.877  -1.286  -3.565  1.00  0.00     0.002 A 
INPUT-LIGAND-PDBQT: ATOM     30  H   UNL     1      -1.298   2.734  -2.475  1.00  0.00     0.166 HD
INPUT-LIGAND-PDBQT: ENDBRANCH  10  21
INPUT-LIGAND-PDBQT: TORSDOF 4


    FINAL DOCKED STATE:
    ________________________


Run:   1 / 20
Time taken for this run:   0.027s

DOCKED: MODEL        1
DOCKED: USER    Run = 1
DOCKED: USER
DOCKED: USER    Estimated Free Energy of Binding    =  -6.60 kcal/mol  [=(1)+(2)+(3)-(4)]
DOCKED: USER
DOCKED: USER    (1) Final Intermolecular Energy     =  -7.79 kcal/mol
DOCKED: USER        vdW + Hbond + desolv Energy     =  -7.77 kcal/mol
DOCKED: USER        Electrostatic Energy            =  -0.02 kcal/mol
DOCKED: USER        Moving Ligand-Fixed Receptor    =  -7.79 kcal/mol
DOCKED: USER        Moving Ligand-Moving Receptor   =  +0.00 kcal/mol
DOCKED: USER    (2) Final Total Internal Energy     =  -3.09 kcal/mol
DOCKED: USER    (3) Torsional Free Energy           =  +1.19 kcal/mol
DOCKED: USER    (4) Unbound System's Energy         =  -3.09 kcal/mol
DOCKED: USER
DOCKED: USER
DOCKED: REMARK SMILES O=S(=O)(Cc1ccccc1)N1C=Cc2ccccc2[C@@H]1c1c[nH]c2ccccc12
DOCKED: REMARK SMILES IDX 11 1 12 2 13 3 14 4 15 5 16 6 17 7 18 8 19 9 20 10 2 11 1 12
DOCKED: REMARK SMILES IDX 3 13 4 14 5 15 6 16 10 17 7 18 9 19 8 20 21 21 22 22 29 23
DOCKED: REMARK SMILES IDX 23 24 28 25 24 26 27 27 25 28 26 29
DOCKED: REMARK H PARENT 23 30
DOCKED: USER                              x       y       z     vdW  Elec       q    Type
DOCKED: USER                           _______ _______ _______ _____ _____    ______ ____
DOCKED: ROOT
DOCKED: ATOM      1  N   UNL     1     142.045  79.576 221.490 -0.23 +0.14    -0.265 N  
DOCKED: ATOM      2  C   UNL     1     141.651  80.649 220.618 -0.29 -0.04    +0.099 C  
DOCKED: ATOM      3  C   UNL     1     141.576  80.469 219.301 -0.27 -0.01    +0.027 C  
DOCKED: ATOM      4  C   UNL     1     141.909  79.166 218.704 -0.27 +0.01    -0.019 A  
DOCKED: ATOM      5  C   UNL     1     141.971  79.026 217.310 -0.23 -0.01    +0.008 A  
DOCKED: ATOM      6  C   UNL     1     142.307  77.795 216.742 -0.21 -0.00    +0.001 A  
DOCKED: ATOM      7  C   UNL     1     142.583  76.697 217.561 -0.23 -0.00    +0.000 A  
DOCKED: ATOM      8  C   UNL     1     142.519  76.827 218.951 -0.31 -0.00    +0.007 A  
DOCKED: ATOM      9  C   UNL     1     142.185  78.062 219.534 -0.27 +0.01    -0.013 A  
DOCKED: ATOM     10  C   UNL     1     142.051  78.174 221.037 -0.05 -0.11    +0.162 C  
DOCKED: ENDROOT
DOCKED: BRANCH   1  11
DOCKED: ATOM     11  S   UNL     1     142.265  79.931 223.177 -0.60 -0.07    +0.239 S  
DOCKED: ATOM     12  O   UNL     1     143.693  80.332 223.422 -0.51 +0.06    -0.206 OA 
DOCKED: ATOM     13  O   UNL     1     141.964  78.707 223.996 -0.49 +0.06    -0.206 OA 
DOCKED: BRANCH  11  14
DOCKED: ATOM     14  C   UNL     1     141.176  81.268 223.644 -0.30 -0.02    +0.195 C  
DOCKED: BRANCH  14  15
DOCKED: ATOM     15  C   UNL     1     139.755  80.944 223.284 -0.36 +0.00    -0.031 A  
DOCKED: ATOM     16  C   UNL     1     139.061  81.736 222.354 -0.22 -0.00    +0.005 A  
DOCKED: ATOM     17  C   UNL     1     139.125  79.814 223.831 -0.43 -0.00    +0.005 A  
DOCKED: ATOM     18  C   UNL     1     137.751  81.411 221.990 -0.14 -0.00    +0.000 A  
DOCKED: ATOM     19  C   UNL     1     137.814  79.493 223.466 -0.25 -0.00    +0.000 A  
DOCKED: ATOM     20  C   UNL     1     137.127  80.291 222.546 -0.16 -0.00    +0.000 A  
DOCKED: ENDBRANCH  14  15
DOCKED: ENDBRANCH  11  14
DOCKED: ENDBRANCH   1  11
DOCKED: BRANCH  10  21
DOCKED: ATOM     21  C   UNL     1     140.784  77.496 221.489 -0.33 -0.00    +0.005 A  
DOCKED: ATOM     22  C   UNL     1     140.687  76.441 222.397 -0.34 -0.02    +0.089 A  
DOCKED: ATOM     23  C   UNL     1     139.501  77.689 221.008 -0.17 -0.00    +0.005 A  
DOCKED: ATOM     24  N   UNL     1     139.411  76.008 222.486 -0.17 +0.07    -0.361 N  
DOCKED: ATOM     25  C   UNL     1     138.990  78.577 220.060 -0.07 -0.00    +0.011 A  
DOCKED: ATOM     26  C   UNL     1     138.699  76.770 221.637 -0.21 -0.01    +0.046 A  
DOCKED: ATOM     27  C   UNL     1     137.619  78.503 219.761 -0.03 -0.00    +0.001 A  
DOCKED: ATOM     28  C   UNL     1     137.336  76.673 221.358 -0.12 -0.01    +0.026 A  
DOCKED: ATOM     29  C   UNL     1     136.795  77.555 220.407 -0.04 -0.00    +0.002 A  
DOCKED: ATOM     30  H   UNL     1     139.057  75.224 223.077 -0.47 -0.05    +0.166 HD 
DOCKED: ENDBRANCH  10  21
DOCKED: TORSDOF 4
DOCKED: TER
DOCKED: ENDMDL
________________________________________________________________________________


    FINAL DOCKED STATE:
    ________________________


Run:   2 / 20
Time taken for this run:   0.027s

DOCKED: MODEL        2
DOCKED: USER    Run = 2
DOCKED: USER
DOCKED: USER    Estimated Free Energy of Binding    =  -6.58 kcal/mol  [=(1)+(2)+(3)-(4)]
DOCKED: USER
DOCKED: USER    (1) Final Intermolecular Energy     =  -7.77 kcal/mol
DOCKED: USER        vdW + Hbond + desolv Energy     =  -7.75 kcal/mol
DOCKED: USER        Electrostatic Energy            =  -0.02 kcal/mol
DOCKED: USER        Moving Ligand-Fixed Receptor    =  -7.77 kcal/mol
DOCKED: USER        Moving Ligand-Moving Receptor   =  +0.00 kcal/mol
DOCKED: USER    (2) Final Total Internal Energy     =  -3.09 kcal/mol
DOCKED: USER    (3) Torsional Free Energy           =  +1.19 kcal/mol
DOCKED: USER    (4) Unbound System's Energy         =  -3.09 kcal/mol
DOCKED: USER
DOCKED: USER
DOCKED: REMARK SMILES O=S(=O)(Cc1ccccc1)N1C=Cc2ccccc2[C@@H]1c1c[nH]c2ccccc12
DOCKED: REMARK SMILES IDX 11 1 12 2 13 3 14 4 15 5 16 6 17 7 18 8 19 9 20 10 2 11 1 12
DOCKED: REMARK SMILES IDX 3 13 4 14 5 15 6 16 10 17 7 18 9 19 8 20 21 21 22 22 29 23
DOCKED: REMARK SMILES IDX 23 24 28 25 24 26 27 27 25 28 26 29
DOCKED: REMARK H PARENT 23 30
DOCKED: USER                              x       y       z     vdW  Elec       q    Type
DOCKED: USER                           _______ _______ _______ _____ _____    ______ ____
DOCKED: ROOT
DOCKED: ATOM      1  N   UNL     1     142.046  79.563 221.482 -0.22 +0.14    -0.265 N  
DOCKED: ATOM      2  C   UNL     1     141.659  80.618 220.587 -0.29 -0.04    +0.099 C  
DOCKED: ATOM      3  C   UNL     1     141.590  80.411 219.273 -0.27 -0.01    +0.027 C  
DOCKED: ATOM      4  C   UNL     1     141.922  79.095 218.705 -0.27 +0.01    -0.019 A  
DOCKED: ATOM      5  C   UNL     1     141.989  78.925 217.315 -0.23 -0.01    +0.008 A  
DOCKED: ATOM      6  C   UNL     1     142.324  77.682 216.774 -0.20 -0.00    +0.001 A  
DOCKED: ATOM      7  C   UNL     1     142.594  76.601 217.617 -0.23 -0.00    +0.000 A  
DOCKED: ATOM      8  C   UNL     1     142.524  76.760 219.003 -0.32 -0.00    +0.007 A  
DOCKED: ATOM      9  C   UNL     1     142.191  78.008 219.559 -0.28 +0.01    -0.013 A  
DOCKED: ATOM     10  C   UNL     1     142.051  78.152 221.059 -0.03 -0.11    +0.162 C  
DOCKED: ENDROOT
DOCKED: BRANCH   1  11
DOCKED: ATOM     11  S   UNL     1     142.261  79.952 223.162 -0.60 -0.07    +0.239 S  
DOCKED: ATOM     12  O   UNL     1     143.687  80.360 223.404 -0.52 +0.06    -0.206 OA 
DOCKED: ATOM     13  O   UNL     1     141.957  78.745 224.006 -0.49 +0.06    -0.206 OA 
DOCKED: BRANCH  11  14
DOCKED: ATOM     14  C   UNL     1     141.169  81.298 223.599 -0.28 -0.02    +0.195 C  
DOCKED: BRANCH  14  15
DOCKED: ATOM     15  C   UNL     1     139.748  80.963 223.245 -0.35 +0.00    -0.031 A  
DOCKED: ATOM     16  C   UNL     1     139.126  79.834 223.802 -0.43 -0.00    +0.005 A  
DOCKED: ATOM     17  C   UNL     1     139.011  81.808 222.398 -0.21 -0.00    +0.005 A  
DOCKED: ATOM     18  C   UNL     1     137.791  79.544 223.503 -0.24 -0.00    +0.000 A  
DOCKED: ATOM     19  C   UNL     1     137.677  81.514 222.099 -0.14 -0.00    +0.000 A  
DOCKED: ATOM     20  C   UNL     1     137.068  80.383 222.651 -0.16 -0.00    +0.000 A  
DOCKED: ENDBRANCH  14  15
DOCKED: ENDBRANCH  11  14
DOCKED: ENDBRANCH   1  11
DOCKED: BRANCH  10  21
DOCKED: ATOM     21  C   UNL     1     140.780  77.486 221.520 -0.34 -0.00    +0.005 A  
DOCKED: ATOM     22  C   UNL     1     140.680  76.426 222.419 -0.32 -0.02    +0.089 A  
DOCKED: ATOM     23  C   UNL     1     139.494  77.700 221.055 -0.17 -0.00    +0.005 A  
DOCKED: ATOM     24  N   UNL     1     139.398  76.009 222.519 -0.17 +0.07    -0.361 N  
DOCKED: ATOM     25  C   UNL     1     138.985  78.603 220.120 -0.08 -0.00    +0.011 A  
DOCKED: ATOM     26  C   UNL     1     138.687  76.786 221.685 -0.22 -0.01    +0.046 A  
DOCKED: ATOM     27  C   UNL     1     137.609  78.549 219.836 -0.03 -0.00    +0.001 A  
DOCKED: ATOM     28  C   UNL     1     137.320  76.709 221.421 -0.13 -0.01    +0.026 A  
DOCKED: ATOM     29  C   UNL     1     136.781  77.607 220.483 -0.04 -0.00    +0.002 A  
DOCKED: ATOM     30  H   UNL     1     139.041  75.224 223.108 -0.48 -0.05    +0.166 HD 
DOCKED: ENDBRANCH  10  21
DOCKED: TORSDOF 4
DOCKED: TER
DOCKED: ENDMDL
________________________________________________________________________________


    FINAL DOCKED STATE:
    ________________________


Run:   3 / 20
Time taken for this run:   0.027s

DOCKED: MODEL        3
DOCKED: USER    Run = 3
DOCKED: USER
DOCKED: USER    Estimated Free Energy of Binding    =  -6.59 kcal/mol  [=(1)+(2)+(3)-(4)]
DOCKED: USER
DOCKED: USER    (1) Final Intermolecular Energy     =  -7.79 kcal/mol
DOCKED: USER        vdW + Hbond + desolv Energy     =  -7.77 kcal/mol
DOCKED: USER        Electrostatic Energy            =  -0.02 kcal/mol
DOCKED: USER        Moving Ligand-Fixed Receptor    =  -7.79 kcal/mol
DOCKED: USER        Moving Ligand-Moving Receptor   =  +0.00 kcal/mol
DOCKED: USER    (2) Final Total Internal Energy     =  -3.10 kcal/mol
DOCKED: USER    (3) Torsional Free Energy           =  +1.19 kcal/mol
DOCKED: USER    (4) Unbound System's Energy         =  -3.10 kcal/mol
DOCKED: USER
DOCKED: USER
DOCKED: REMARK SMILES O=S(=O)(Cc1ccccc1)N1C=Cc2ccccc2[C@@H]1c1c[nH]c2ccccc12
DOCKED: REMARK SMILES IDX 11 1 12 2 13 3 14 4 15 5 16 6 17 7 18 8 19 9 20 10 2 11 1 12
DOCKED: REMARK SMILES IDX 3 13 4 14 5 15 6 16 10 17 7 18 9 19 8 20 21 21 22 22 29 23
DOCKED: REMARK SMILES IDX 23 24 28 25 24 26 27 27 25 28 26 29
DOCKED: REMARK H PARENT 23 30
DOCKED: USER                              x       y       z     vdW  Elec       q    Type
DOCKED: USER                           _______ _______ _______ _____ _____    ______ ____
DOCKED: ROOT
DOCKED: ATOM      1  N   UNL     1     142.072  79.549 221.505 -0.23 +0.14    -0.265 N  
DOCKED: ATOM      2  C   UNL     1     141.703  80.617 220.616 -0.29 -0.04    +0.099 C  
DOCKED: ATOM      3  C   UNL     1     141.636  80.420 219.300 -0.28 -0.01    +0.027 C  
DOCKED: ATOM      4  C   UNL     1     141.950  79.104 218.723 -0.28 +0.01    -0.019 A  
DOCKED: ATOM      5  C   UNL     1     142.020  78.943 217.332 -0.24 -0.01    +0.008 A  
DOCKED: ATOM      6  C   UNL     1     142.340  77.699 216.783 -0.21 -0.00    +0.001 A  
DOCKED: ATOM      7  C   UNL     1     142.590  76.608 217.620 -0.23 -0.00    +0.000 A  
DOCKED: ATOM      8  C   UNL     1     142.518  76.758 219.007 -0.31 -0.00    +0.007 A  
DOCKED: ATOM      9  C   UNL     1     142.201  78.006 219.570 -0.28 +0.01    -0.013 A  
DOCKED: ATOM     10  C   UNL     1     142.057  78.142 221.071 -0.02 -0.11    +0.162 C  
DOCKED: ENDROOT
DOCKED: BRANCH   1  11
DOCKED: ATOM     11  S   UNL     1     142.286  79.923 223.188 -0.60 -0.07    +0.239 S  
DOCKED: ATOM     12  O   UNL     1     143.710  80.335 223.433 -0.51 +0.06    -0.206 OA 
DOCKED: ATOM     13  O   UNL     1     141.988  78.707 224.020 -0.48 +0.06    -0.206 OA 
DOCKED: BRANCH  11  14
DOCKED: ATOM     14  C   UNL     1     141.188  81.260 223.638 -0.31 -0.02    +0.195 C  
DOCKED: BRANCH  14  15
DOCKED: ATOM     15  C   UNL     1     139.774  80.938 223.248 -0.36 +0.00    -0.031 A  
DOCKED: ATOM     16  C   UNL     1     139.106  79.851 223.835 -0.43 -0.00    +0.005 A  
DOCKED: ATOM     17  C   UNL     1     139.088  81.755 222.333 -0.22 -0.00    +0.005 A  
DOCKED: ATOM     18  C   UNL     1     137.777  79.575 223.500 -0.25 -0.00    +0.000 A  
DOCKED: ATOM     19  C   UNL     1     137.760  81.475 221.999 -0.14 -0.00    +0.000 A  
DOCKED: ATOM     20  C   UNL     1     137.105  80.387 222.581 -0.16 -0.00    +0.000 A  
DOCKED: ENDBRANCH  14  15
DOCKED: ENDBRANCH  11  14
DOCKED: ENDBRANCH   1  11
DOCKED: BRANCH  10  21
DOCKED: ATOM     21  C   UNL     1     140.775  77.491 221.522 -0.34 -0.00    +0.005 A  
DOCKED: ATOM     22  C   UNL     1     140.655  76.441 222.431 -0.32 -0.02    +0.089 A  
DOCKED: ATOM     23  C   UNL     1     139.498  77.711 221.039 -0.17 -0.00    +0.005 A  
DOCKED: ATOM     24  N   UNL     1     139.369  76.035 222.519 -0.17 +0.07    -0.361 N  
DOCKED: ATOM     25  C   UNL     1     139.007  78.608 220.088 -0.08 -0.00    +0.011 A  
DOCKED: ATOM     26  C   UNL     1     138.675  76.810 221.668 -0.21 -0.01    +0.046 A  
DOCKED: ATOM     27  C   UNL     1     137.635  78.562 219.787 -0.03 -0.00    +0.001 A  
DOCKED: ATOM     28  C   UNL     1     137.311  76.742 221.387 -0.12 -0.01    +0.026 A  
DOCKED: ATOM     29  C   UNL     1     136.791  77.634 220.433 -0.04 -0.00    +0.002 A  
DOCKED: ATOM     30  H   UNL     1     138.998  75.259 223.112 -0.48 -0.05    +0.166 HD 
DOCKED: ENDBRANCH  10  21
DOCKED: TORSDOF 4
DOCKED: TER
DOCKED: ENDMDL
________________________________________________________________________________


    FINAL DOCKED STATE:
    ________________________


Run:   4 / 20
Time taken for this run:   0.027s

DOCKED: MODEL        4
DOCKED: USER    Run = 4
DOCKED: USER
DOCKED: USER    Estimated Free Energy of Binding    =  -6.60 kcal/mol  [=(1)+(2)+(3)-(4)]
DOCKED: USER
DOCKED: USER    (1) Final Intermolecular Energy     =  -7.79 kcal/mol
DOCKED: USER        vdW + Hbond + desolv Energy     =  -7.78 kcal/mol
DOCKED: USER        Electrostatic Energy            =  -0.01 kcal/mol
DOCKED: USER        Moving Ligand-Fixed Receptor    =  -7.79 kcal/mol
DOCKED: USER        Moving Ligand-Moving Receptor   =  +0.00 kcal/mol
DOCKED: USER    (2) Final Total Internal Energy     =  -3.09 kcal/mol
DOCKED: USER    (3) Torsional Free Energy           =  +1.19 kcal/mol
DOCKED: USER    (4) Unbound System's Energy         =  -3.09 kcal/mol
DOCKED: USER
DOCKED: USER
DOCKED: REMARK SMILES O=S(=O)(Cc1ccccc1)N1C=Cc2ccccc2[C@@H]1c1c[nH]c2ccccc12
DOCKED: REMARK SMILES IDX 11 1 12 2 13 3 14 4 15 5 16 6 17 7 18 8 19 9 20 10 2 11 1 12
DOCKED: REMARK SMILES IDX 3 13 4 14 5 15 6 16 10 17 7 18 9 19 8 20 21 21 22 22 29 23
DOCKED: REMARK SMILES IDX 23 24 28 25 24 26 27 27 25 28 26 29
DOCKED: REMARK H PARENT 23 30
DOCKED: USER                              x       y       z     vdW  Elec       q    Type
DOCKED: USER                           _______ _______ _______ _____ _____    ______ ____
DOCKED: ROOT
DOCKED: ATOM      1  N   UNL     1     142.187  79.513 221.299 -0.19 +0.15    -0.265 N  
DOCKED: ATOM      2  C   UNL     1     141.785  80.558 220.397 -0.29 -0.04    +0.099 C  
DOCKED: ATOM      3  C   UNL     1     141.649  80.323 219.093 -0.27 -0.01    +0.027 C  
DOCKED: ATOM      4  C   UNL     1     141.922  78.987 218.542 -0.27 +0.01    -0.019 A  
DOCKED: ATOM      5  C   UNL     1     141.920  78.784 217.154 -0.21 -0.01    +0.008 A  
DOCKED: ATOM      6  C   UNL     1     142.198  77.520 216.628 -0.18 -0.00    +0.001 A  
DOCKED: ATOM      7  C   UNL     1     142.479  76.451 217.484 -0.20 -0.00    +0.000 A  
DOCKED: ATOM      8  C   UNL     1     142.478  76.644 218.867 -0.29 -0.00    +0.007 A  
DOCKED: ATOM      9  C   UNL     1     142.203  77.912 219.408 -0.29 +0.01    -0.013 A  
DOCKED: ATOM     10  C   UNL     1     142.136  78.093 220.909 -0.00 -0.12    +0.162 C  
DOCKED: ENDROOT
DOCKED: BRANCH   1  11
DOCKED: ATOM     11  S   UNL     1     142.489  79.934 222.957 -0.59 -0.08    +0.239 S  
DOCKED: ATOM     12  O   UNL     1     143.942  80.277 223.131 -0.47 +0.06    -0.206 OA 
DOCKED: ATOM     13  O   UNL     1     142.162  78.766 223.845 -0.48 +0.07    -0.206 OA 
DOCKED: BRANCH  11  14
DOCKED: ATOM     14  C   UNL     1     141.483  81.344 223.399 -0.38 -0.03    +0.195 C  
DOCKED: BRANCH  14  15
DOCKED: ATOM     15  C   UNL     1     140.029  81.052 223.161 -0.35 +0.00    -0.031 A  
DOCKED: ATOM     16  C   UNL     1     139.394  80.004 223.848 -0.43 -0.00    +0.005 A  
DOCKED: ATOM     17  C   UNL     1     139.277  81.860 222.292 -0.22 -0.00    +0.005 A  
DOCKED: ATOM     18  C   UNL     1     138.032  79.757 223.655 -0.30 -0.00    +0.000 A  
DOCKED: ATOM     19  C   UNL     1     137.915  81.610 222.100 -0.16 -0.00    +0.000 A  
DOCKED: ATOM     20  C   UNL     1     137.293  80.559 222.780 -0.19 -0.00    +0.000 A  
DOCKED: ENDBRANCH  14  15
DOCKED: ENDBRANCH  11  14
DOCKED: ENDBRANCH   1  11
DOCKED: BRANCH  10  21
DOCKED: ATOM     21  C   UNL     1     140.872  77.472 221.444 -0.33 -0.00    +0.005 A  
DOCKED: ATOM     22  C   UNL     1     140.787  76.395 222.325 -0.35 -0.03    +0.089 A  
DOCKED: ATOM     23  C   UNL     1     139.568  77.752 221.074 -0.18 -0.00    +0.005 A  
DOCKED: ATOM     24  N   UNL     1     139.498  76.031 222.505 -0.17 +0.06    -0.361 N  
DOCKED: ATOM     25  C   UNL     1     139.036  78.699 220.197 -0.08 -0.00    +0.011 A  
DOCKED: ATOM     26  C   UNL     1     138.767  76.858 221.740 -0.23 -0.01    +0.046 A  
DOCKED: ATOM     27  C   UNL     1     137.643  78.710 220.009 -0.03 -0.00    +0.001 A  
DOCKED: ATOM     28  C   UNL     1     137.383  76.847 221.570 -0.14 -0.01    +0.026 A  
DOCKED: ATOM     29  C   UNL     1     136.820  77.789 220.692 -0.05 -0.00    +0.002 A  
DOCKED: ATOM     30  H   UNL     1     139.148  75.248 223.101 -0.46 -0.04    +0.166 HD 
DOCKED: ENDBRANCH  10  21
DOCKED: TORSDOF 4
DOCKED: TER
DOCKED: ENDMDL
________________________________________________________________________________


    FINAL DOCKED STATE:
    ________________________


Run:   5 / 20
Time taken for this run:   0.027s

DOCKED: MODEL        5
DOCKED: USER    Run = 5
DOCKED: USER
DOCKED: USER    Estimated Free Energy of Binding    =  -6.61 kcal/mol  [=(1)+(2)+(3)-(4)]
DOCKED: USER
DOCKED: USER    (1) Final Intermolecular Energy     =  -7.81 kcal/mol
DOCKED: USER        vdW + Hbond + desolv Energy     =  -7.79 kcal/mol
DOCKED: USER        Electrostatic Energy            =  -0.02 kcal/mol
DOCKED: USER        Moving Ligand-Fixed Receptor    =  -7.81 kcal/mol
DOCKED: USER        Moving Ligand-Moving Receptor   =  +0.00 kcal/mol
DOCKED: USER    (2) Final Total Internal Energy     =  -3.09 kcal/mol
DOCKED: USER    (3) Torsional Free Energy           =  +1.19 kcal/mol
DOCKED: USER    (4) Unbound System's Energy         =  -3.09 kcal/mol
DOCKED: USER
DOCKED: USER
DOCKED: REMARK SMILES O=S(=O)(Cc1ccccc1)N1C=Cc2ccccc2[C@@H]1c1c[nH]c2ccccc12
DOCKED: REMARK SMILES IDX 11 1 12 2 13 3 14 4 15 5 16 6 17 7 18 8 19 9 20 10 2 11 1 12
DOCKED: REMARK SMILES IDX 3 13 4 14 5 15 6 16 10 17 7 18 9 19 8 20 21 21 22 22 29 23
DOCKED: REMARK SMILES IDX 23 24 28 25 24 26 27 27 25 28 26 29
DOCKED: REMARK H PARENT 23 30
DOCKED: USER                              x       y       z     vdW  Elec       q    Type
DOCKED: USER                           _______ _______ _______ _____ _____    ______ ____
DOCKED: ROOT
DOCKED: ATOM      1  N   UNL     1     142.051  79.611 221.527 -0.23 +0.13    -0.265 N  
DOCKED: ATOM      2  C   UNL     1     141.652  80.691 220.667 -0.29 -0.04    +0.099 C  
DOCKED: ATOM      3  C   UNL     1     141.575  80.523 219.348 -0.27 -0.01    +0.027 C  
DOCKED: ATOM      4  C   UNL     1     141.910  79.227 218.738 -0.28 +0.01    -0.019 A  
DOCKED: ATOM      5  C   UNL     1     141.968  79.100 217.343 -0.23 -0.01    +0.008 A  
DOCKED: ATOM      6  C   UNL     1     142.307  77.875 216.762 -0.21 -0.00    +0.001 A  
DOCKED: ATOM      7  C   UNL     1     142.588  76.771 217.571 -0.24 -0.00    +0.000 A  
DOCKED: ATOM      8  C   UNL     1     142.527  76.888 218.962 -0.32 -0.00    +0.007 A  
DOCKED: ATOM      9  C   UNL     1     142.192  78.116 219.557 -0.27 +0.01    -0.013 A  
DOCKED: ATOM     10  C   UNL     1     142.061  78.214 221.062 -0.05 -0.11    +0.162 C  
DOCKED: ENDROOT
DOCKED: BRANCH   1  11
DOCKED: ATOM     11  S   UNL     1     142.275  79.951 223.217 -0.60 -0.07    +0.239 S  
DOCKED: ATOM     12  O   UNL     1     143.689  80.399 223.455 -0.53 +0.05    -0.206 OA 
DOCKED: ATOM     13  O   UNL     1     142.024  78.706 224.022 -0.48 +0.06    -0.206 OA 
DOCKED: BRANCH  11  14
DOCKED: ATOM     14  C   UNL     1     141.144  81.242 223.713 -0.28 -0.02    +0.195 C  
DOCKED: BRANCH  14  15
DOCKED: ATOM     15  C   UNL     1     139.743  80.913 223.284 -0.36 +0.00    -0.031 A  
DOCKED: ATOM     16  C   UNL     1     139.075  79.806 223.834 -0.43 -0.00    +0.005 A  
DOCKED: ATOM     17  C   UNL     1     139.067  81.740 222.371 -0.22 -0.00    +0.005 A  
DOCKED: ATOM     18  C   UNL     1     137.757  79.522 223.464 -0.25 -0.00    +0.000 A  
DOCKED: ATOM     19  C   UNL     1     137.750  81.452 222.002 -0.14 -0.00    +0.000 A  
DOCKED: ATOM     20  C   UNL     1     137.095  80.344 222.547 -0.15 -0.00    +0.000 A  
DOCKED: ENDBRANCH  14  15
DOCKED: ENDBRANCH  11  14
DOCKED: ENDBRANCH   1  11
DOCKED: BRANCH  10  21
DOCKED: ATOM     21  C   UNL     1     140.797  77.527 221.511 -0.33 -0.00    +0.005 A  
DOCKED: ATOM     22  C   UNL     1     140.705  76.469 222.414 -0.33 -0.02    +0.089 A  
DOCKED: ATOM     23  C   UNL     1     139.513  77.715 221.029 -0.17 -0.00    +0.005 A  
DOCKED: ATOM     24  N   UNL     1     139.431  76.029 222.501 -0.17 +0.07    -0.361 N  
DOCKED: ATOM     25  C   UNL     1     138.998  78.604 220.084 -0.08 -0.00    +0.011 A  
DOCKED: ATOM     26  C   UNL     1     138.716  76.790 221.654 -0.21 -0.01    +0.046 A  
DOCKED: ATOM     27  C   UNL     1     137.628  78.524 219.784 -0.03 -0.00    +0.001 A  
DOCKED: ATOM     28  C   UNL     1     137.353  76.686 221.374 -0.12 -0.01    +0.026 A  
DOCKED: ATOM     29  C   UNL     1     136.809  77.570 220.426 -0.04 -0.00    +0.002 A  
DOCKED: ATOM     30  H   UNL     1     139.081  75.240 223.089 -0.47 -0.04    +0.166 HD 
DOCKED: ENDBRANCH  10  21
DOCKED: TORSDOF 4
DOCKED: TER
DOCKED: ENDMDL
________________________________________________________________________________


    FINAL DOCKED STATE:
    ________________________


Run:   6 / 20
Time taken for this run:   0.027s

DOCKED: MODEL        6
DOCKED: USER    Run = 6
DOCKED: USER
DOCKED: USER    Estimated Free Energy of Binding    =  -6.61 kcal/mol  [=(1)+(2)+(3)-(4)]
DOCKED: USER
DOCKED: USER    (1) Final Intermolecular Energy     =  -7.80 kcal/mol
DOCKED: USER        vdW + Hbond + desolv Energy     =  -7.78 kcal/mol
DOCKED: USER        Electrostatic Energy            =  -0.02 kcal/mol
DOCKED: USER        Moving Ligand-Fixed Receptor    =  -7.80 kcal/mol
DOCKED: USER        Moving Ligand-Moving Receptor   =  +0.00 kcal/mol
DOCKED: USER    (2) Final Total Internal Energy     =  -3.09 kcal/mol
DOCKED: USER    (3) Torsional Free Energy           =  +1.19 kcal/mol
DOCKED: USER    (4) Unbound System's Energy         =  -3.09 kcal/mol
DOCKED: USER
DOCKED: USER
DOCKED: REMARK SMILES O=S(=O)(Cc1ccccc1)N1C=Cc2ccccc2[C@@H]1c1c[nH]c2ccccc12
DOCKED: REMARK SMILES IDX 11 1 12 2 13 3 14 4 15 5 16 6 17 7 18 8 19 9 20 10 2 11 1 12
DOCKED: REMARK SMILES IDX 3 13 4 14 5 15 6 16 10 17 7 18 9 19 8 20 21 21 22 22 29 23
DOCKED: REMARK SMILES IDX 23 24 28 25 24 26 27 27 25 28 26 29
DOCKED: REMARK H PARENT 23 30
DOCKED: USER                              x       y       z     vdW  Elec       q    Type
DOCKED: USER                           _______ _______ _______ _____ _____    ______ ____
DOCKED: ROOT
DOCKED: ATOM      1  N   UNL     1     142.041  79.626 221.532 -0.23 +0.13    -0.265 N  
DOCKED: ATOM      2  C   UNL     1     141.639  80.706 220.674 -0.29 -0.04    +0.099 C  
DOCKED: ATOM      3  C   UNL     1     141.558  80.539 219.355 -0.27 -0.01    +0.027 C  
DOCKED: ATOM      4  C   UNL     1     141.891  79.243 218.743 -0.27 +0.01    -0.019 A  
DOCKED: ATOM      5  C   UNL     1     141.945  79.116 217.348 -0.23 -0.01    +0.008 A  
DOCKED: ATOM      6  C   UNL     1     142.282  77.891 216.766 -0.21 -0.00    +0.001 A  
DOCKED: ATOM      7  C   UNL     1     142.566  76.786 217.573 -0.24 -0.00    +0.000 A  
DOCKED: ATOM      8  C   UNL     1     142.509  76.903 218.964 -0.32 -0.00    +0.007 A  
DOCKED: ATOM      9  C   UNL     1     142.175  78.131 219.561 -0.27 +0.01    -0.013 A  
DOCKED: ATOM     10  C   UNL     1     142.049  78.229 221.066 -0.07 -0.11    +0.162 C  
DOCKED: ENDROOT
DOCKED: BRANCH   1  11
DOCKED: ATOM     11  S   UNL     1     142.270  79.965 223.221 -0.60 -0.07    +0.239 S  
DOCKED: ATOM     12  O   UNL     1     143.686  80.412 223.455 -0.53 +0.05    -0.206 OA 
DOCKED: ATOM     13  O   UNL     1     142.021  78.721 224.027 -0.48 +0.06    -0.206 OA 
DOCKED: BRANCH  11  14
DOCKED: ATOM     14  C   UNL     1     141.142  81.258 223.721 -0.27 -0.02    +0.195 C  
DOCKED: BRANCH  14  15
DOCKED: ATOM     15  C   UNL     1     139.739  80.929 223.296 -0.36 +0.00    -0.031 A  
DOCKED: ATOM     16  C   UNL     1     139.066  79.833 223.862 -0.42 -0.00    +0.005 A  
DOCKED: ATOM     17  C   UNL     1     139.068  81.747 222.372 -0.22 -0.00    +0.005 A  
DOCKED: ATOM     18  C   UNL     1     137.747  79.551 223.495 -0.24 -0.00    +0.000 A  
DOCKED: ATOM     19  C   UNL     1     137.749  81.460 222.006 -0.14 -0.00    +0.000 A  
DOCKED: ATOM     20  C   UNL     1     137.089  80.363 222.567 -0.15 -0.00    +0.000 A  
DOCKED: ENDBRANCH  14  15
DOCKED: ENDBRANCH  11  14
DOCKED: ENDBRANCH   1  11
DOCKED: BRANCH  10  21
DOCKED: ATOM     21  C   UNL     1     140.787  77.542 221.519 -0.33 -0.00    +0.005 A  
DOCKED: ATOM     22  C   UNL     1     140.698  76.480 222.418 -0.33 -0.02    +0.089 A  
DOCKED: ATOM     23  C   UNL     1     139.501  77.735 221.046 -0.17 -0.00    +0.005 A  
DOCKED: ATOM     24  N   UNL     1     139.423  76.041 222.510 -0.17 +0.07    -0.361 N  
DOCKED: ATOM     25  C   UNL     1     138.982  78.629 220.107 -0.08 -0.00    +0.011 A  
DOCKED: ATOM     26  C   UNL     1     138.705  76.807 221.670 -0.22 -0.01    +0.046 A  
DOCKED: ATOM     27  C   UNL     1     137.609  78.552 219.814 -0.03 -0.00    +0.001 A  
DOCKED: ATOM     28  C   UNL     1     137.341  76.708 221.398 -0.13 -0.01    +0.026 A  
DOCKED: ATOM     29  C   UNL     1     136.792  77.597 220.456 -0.04 -0.00    +0.002 A  
DOCKED: ATOM     30  H   UNL     1     139.075  75.251 223.096 -0.47 -0.04    +0.166 HD 
DOCKED: ENDBRANCH  10  21
DOCKED: TORSDOF 4
DOCKED: TER
DOCKED: ENDMDL
________________________________________________________________________________


    FINAL DOCKED STATE:
    ________________________


Run:   7 / 20
Time taken for this run:   0.027s

DOCKED: MODEL        7
DOCKED: USER    Run = 7
DOCKED: USER
DOCKED: USER    Estimated Free Energy of Binding    =  -6.61 kcal/mol  [=(1)+(2)+(3)-(4)]
DOCKED: USER
DOCKED: USER    (1) Final Intermolecular Energy     =  -7.80 kcal/mol
DOCKED: USER        vdW + Hbond + desolv Energy     =  -7.78 kcal/mol
DOCKED: USER        Electrostatic Energy            =  -0.02 kcal/mol
DOCKED: USER        Moving Ligand-Fixed Receptor    =  -7.80 kcal/mol
DOCKED: USER        Moving Ligand-Moving Receptor   =  +0.00 kcal/mol
DOCKED: USER    (2) Final Total Internal Energy     =  -3.10 kcal/mol
DOCKED: USER    (3) Torsional Free Energy           =  +1.19 kcal/mol
DOCKED: USER    (4) Unbound System's Energy         =  -3.10 kcal/mol
DOCKED: USER
DOCKED: USER
DOCKED: REMARK SMILES O=S(=O)(Cc1ccccc1)N1C=Cc2ccccc2[C@@H]1c1c[nH]c2ccccc12
DOCKED: REMARK SMILES IDX 11 1 12 2 13 3 14 4 15 5 16 6 17 7 18 8 19 9 20 10 2 11 1 12
DOCKED: REMARK SMILES IDX 3 13 4 14 5 15 6 16 10 17 7 18 9 19 8 20 21 21 22 22 29 23
DOCKED: REMARK SMILES IDX 23 24 28 25 24 26 27 27 25 28 26 29
DOCKED: REMARK H PARENT 23 30
DOCKED: USER                              x       y       z     vdW  Elec       q    Type
DOCKED: USER                           _______ _______ _______ _____ _____    ______ ____
DOCKED: ROOT
DOCKED: ATOM      1  N   UNL     1     142.057  79.609 221.524 -0.23 +0.13    -0.265 N  
DOCKED: ATOM      2  C   UNL     1     141.664  80.686 220.657 -0.29 -0.04    +0.099 C  
DOCKED: ATOM      3  C   UNL     1     141.588  80.512 219.339 -0.27 -0.01    +0.027 C  
DOCKED: ATOM      4  C   UNL     1     141.918  79.211 218.736 -0.28 +0.01    -0.019 A  
DOCKED: ATOM      5  C   UNL     1     141.977  79.076 217.342 -0.23 -0.01    +0.008 A  
DOCKED: ATOM      6  C   UNL     1     142.311  77.847 216.768 -0.21 -0.00    +0.001 A  
DOCKED: ATOM      7  C   UNL     1     142.585  76.745 217.583 -0.24 -0.00    +0.000 A  
DOCKED: ATOM      8  C   UNL     1     142.522  76.870 218.973 -0.32 -0.00    +0.007 A  
DOCKED: ATOM      9  C   UNL     1     142.192  78.103 219.561 -0.27 +0.01    -0.013 A  
DOCKED: ATOM     10  C   UNL     1     142.060  78.210 221.065 -0.05 -0.11    +0.162 C  
DOCKED: ENDROOT
DOCKED: BRANCH   1  11
DOCKED: ATOM     11  S   UNL     1     142.280  79.957 223.211 -0.60 -0.07    +0.239 S  
DOCKED: ATOM     12  O   UNL     1     143.697  80.398 223.449 -0.53 +0.05    -0.206 OA 
DOCKED: ATOM     13  O   UNL     1     142.020  78.719 224.023 -0.48 +0.06    -0.206 OA 
DOCKED: BRANCH  11  14
DOCKED: ATOM     14  C   UNL     1     141.157  81.259 223.698 -0.29 -0.02    +0.195 C  
DOCKED: BRANCH  14  15
DOCKED: ATOM     15  C   UNL     1     139.751  80.926 223.288 -0.36 +0.00    -0.031 A  
DOCKED: ATOM     16  C   UNL     1     139.084  79.832 223.866 -0.42 -0.00    +0.005 A  
DOCKED: ATOM     17  C   UNL     1     139.071  81.737 222.364 -0.22 -0.00    +0.005 A  
DOCKED: ATOM     18  C   UNL     1     137.762  79.546 223.512 -0.24 -0.00    +0.000 A  
DOCKED: ATOM     19  C   UNL     1     137.749  81.447 222.011 -0.14 -0.00    +0.000 A  
DOCKED: ATOM     20  C   UNL     1     137.095  80.352 222.584 -0.16 -0.00    +0.000 A  
DOCKED: ENDBRANCH  14  15
DOCKED: ENDBRANCH  11  14
DOCKED: ENDBRANCH   1  11
DOCKED: BRANCH  10  21
DOCKED: ATOM     21  C   UNL     1     140.792  77.532 221.516 -0.33 -0.00    +0.005 A  
DOCKED: ATOM     22  C   UNL     1     140.695  76.470 222.414 -0.33 -0.02    +0.089 A  
DOCKED: ATOM     23  C   UNL     1     139.508  77.734 221.042 -0.17 -0.00    +0.005 A  
DOCKED: ATOM     24  N   UNL     1     139.416  76.041 222.504 -0.17 +0.07    -0.361 N  
DOCKED: ATOM     25  C   UNL     1     138.997  78.633 220.103 -0.08 -0.00    +0.011 A  
DOCKED: ATOM     26  C   UNL     1     138.705  76.813 221.665 -0.21 -0.01    +0.046 A  
DOCKED: ATOM     27  C   UNL     1     137.624  78.567 219.809 -0.03 -0.00    +0.001 A  
DOCKED: ATOM     28  C   UNL     1     137.340  76.723 221.391 -0.13 -0.01    +0.026 A  
DOCKED: ATOM     29  C   UNL     1     136.799  77.617 220.449 -0.04 -0.00    +0.002 A  
DOCKED: ATOM     30  H   UNL     1     139.062  75.252 223.090 -0.47 -0.04    +0.166 HD 
DOCKED: ENDBRANCH  10  21
DOCKED: TORSDOF 4
DOCKED: TER
DOCKED: ENDMDL
________________________________________________________________________________


    FINAL DOCKED STATE:
    ________________________


Run:   8 / 20
Time taken for this run:   0.027s

DOCKED: MODEL        8
DOCKED: USER    Run = 8
DOCKED: USER
DOCKED: USER    Estimated Free Energy of Binding    =  -6.79 kcal/mol  [=(1)+(2)+(3)-(4)]
DOCKED: USER
DOCKED: USER    (1) Final Intermolecular Energy     =  -7.98 kcal/mol
DOCKED: USER        vdW + Hbond + desolv Energy     =  -7.92 kcal/mol
DOCKED: USER        Electrostatic Energy            =  -0.06 kcal/mol
DOCKED: USER        Moving Ligand-Fixed Receptor    =  -7.98 kcal/mol
DOCKED: USER        Moving Ligand-Moving Receptor   =  +0.00 kcal/mol
DOCKED: USER    (2) Final Total Internal Energy     =  -2.77 kcal/mol
DOCKED: USER    (3) Torsional Free Energy           =  +1.19 kcal/mol
DOCKED: USER    (4) Unbound System's Energy         =  -2.77 kcal/mol
DOCKED: USER
DOCKED: USER
DOCKED: REMARK SMILES O=S(=O)(Cc1ccccc1)N1C=Cc2ccccc2[C@@H]1c1c[nH]c2ccccc12
DOCKED: REMARK SMILES IDX 11 1 12 2 13 3 14 4 15 5 16 6 17 7 18 8 19 9 20 10 2 11 1 12
DOCKED: REMARK SMILES IDX 3 13 4 14 5 15 6 16 10 17 7 18 9 19 8 20 21 21 22 22 29 23
DOCKED: REMARK SMILES IDX 23 24 28 25 24 26 27 27 25 28 26 29
DOCKED: REMARK H PARENT 23 30
DOCKED: USER                              x       y       z     vdW  Elec       q    Type
DOCKED: USER                           _______ _______ _______ _____ _____    ______ ____
DOCKED: ROOT
DOCKED: ATOM      1  N   UNL     1     139.849  77.479 222.290 -0.20 +0.06    -0.265 N  
DOCKED: ATOM      2  C   UNL     1     138.853  78.492 222.501 -0.25 -0.02    +0.099 C  
DOCKED: ATOM      3  C   UNL     1     139.190  79.705 222.937 -0.33 -0.00    +0.027 C  
DOCKED: ATOM      4  C   UNL     1     140.596  80.031 223.225 -0.45 +0.00    -0.019 A  
DOCKED: ATOM      5  C   UNL     1     140.925  81.257 223.821 -0.37 -0.00    +0.008 A  
DOCKED: ATOM      6  C   UNL     1     142.257  81.560 224.114 -0.59 -0.00    +0.001 A  
DOCKED: ATOM      7  C   UNL     1     143.267  80.642 223.814 -0.62 -0.00    +0.000 A  
DOCKED: ATOM      8  C   UNL     1     142.948  79.421 223.216 -0.45 -0.00    +0.007 A  
DOCKED: ATOM      9  C   UNL     1     141.611  79.103 222.920 -0.54 +0.00    -0.013 A  
DOCKED: ATOM     10  C   UNL     1     141.283  77.808 222.209 -0.26 -0.08    +0.162 C  
DOCKED: ENDROOT
DOCKED: BRANCH   1  11
DOCKED: ATOM     11  S   UNL     1     139.314  75.880 221.869 -0.29 -0.05    +0.239 S  
DOCKED: ATOM     12  O   UNL     1     138.009  75.591 222.555 -0.23 +0.06    -0.206 OA 
DOCKED: ATOM     13  O   UNL     1     140.329  74.868 222.323 -0.72 -0.00    -0.206 OA 
DOCKED: BRANCH  11  14
DOCKED: ATOM     14  C   UNL     1     139.097  75.779 220.098 -0.05 -0.05    +0.195 C  
DOCKED: BRANCH  14  15
DOCKED: ATOM     15  C   UNL     1     138.418  77.014 219.576 -0.03 +0.01    -0.031 A  
DOCKED: ATOM     16  C   UNL     1     137.169  77.404 220.086 -0.03 -0.00    +0.005 A  
DOCKED: ATOM     17  C   UNL     1     139.053  77.820 218.616 -0.03 -0.00    +0.005 A  
DOCKED: ATOM     18  C   UNL     1     136.555  78.574 219.628 -0.02 -0.00    +0.000 A  
DOCKED: ATOM     19  C   UNL     1     138.436  78.988 218.160 -0.01 -0.00    +0.000 A  
DOCKED: ATOM     20  C   UNL     1     137.188  79.365 218.665 -0.01 -0.00    +0.000 A  
DOCKED: ENDBRANCH  14  15
DOCKED: ENDBRANCH  11  14
DOCKED: ENDBRANCH   1  11
DOCKED: BRANCH  10  21
DOCKED: ATOM     21  C   UNL     1     141.695  77.900 220.763 -0.33 -0.00    +0.005 A  
DOCKED: ATOM     22  C   UNL     1     142.232  76.873 219.988 -0.28 -0.05    +0.089 A  
DOCKED: ATOM     23  C   UNL     1     141.745  79.030 219.966 -0.29 -0.00    +0.005 A  
DOCKED: ATOM     24  N   UNL     1     142.587  77.335 218.769 -0.15 +0.24    -0.361 N  
DOCKED: ATOM     25  C   UNL     1     141.378  80.354 220.211 -0.29 -0.00    +0.011 A  
DOCKED: ATOM     26  C   UNL     1     142.290  78.646 218.767 -0.27 -0.03    +0.046 A  
DOCKED: ATOM     27  C   UNL     1     141.586  81.295 219.187 -0.27 -0.00    +0.001 A  
DOCKED: ATOM     28  C   UNL     1     142.510  79.558 217.735 -0.30 -0.03    +0.026 A  
DOCKED: ATOM     29  C   UNL     1     142.149  80.899 217.955 -0.31 -0.00    +0.002 A  
DOCKED: ATOM     30  H   UNL     1     143.027  76.786 217.996 +0.05 -0.11    +0.166 HD 
DOCKED: ENDBRANCH  10  21
DOCKED: TORSDOF 4
DOCKED: TER
DOCKED: ENDMDL
________________________________________________________________________________


    FINAL DOCKED STATE:
    ________________________


Run:   9 / 20
Time taken for this run:   0.027s

DOCKED: MODEL        9
DOCKED: USER    Run = 9
DOCKED: USER
DOCKED: USER    Estimated Free Energy of Binding    =  -6.58 kcal/mol  [=(1)+(2)+(3)-(4)]
DOCKED: USER
DOCKED: USER    (1) Final Intermolecular Energy     =  -7.78 kcal/mol
DOCKED: USER        vdW + Hbond + desolv Energy     =  -7.76 kcal/mol
DOCKED: USER        Electrostatic Energy            =  -0.02 kcal/mol
DOCKED: USER        Moving Ligand-Fixed Receptor    =  -7.78 kcal/mol
DOCKED: USER        Moving Ligand-Moving Receptor   =  +0.00 kcal/mol
DOCKED: USER    (2) Final Total Internal Energy     =  -3.09 kcal/mol
DOCKED: USER    (3) Torsional Free Energy           =  +1.19 kcal/mol
DOCKED: USER    (4) Unbound System's Energy         =  -3.09 kcal/mol
DOCKED: USER
DOCKED: USER
DOCKED: REMARK SMILES O=S(=O)(Cc1ccccc1)N1C=Cc2ccccc2[C@@H]1c1c[nH]c2ccccc12
DOCKED: REMARK SMILES IDX 11 1 12 2 13 3 14 4 15 5 16 6 17 7 18 8 19 9 20 10 2 11 1 12
DOCKED: REMARK SMILES IDX 3 13 4 14 5 15 6 16 10 17 7 18 9 19 8 20 21 21 22 22 29 23
DOCKED: REMARK SMILES IDX 23 24 28 25 24 26 27 27 25 28 26 29
DOCKED: REMARK H PARENT 23 30
DOCKED: USER                              x       y       z     vdW  Elec       q    Type
DOCKED: USER                           _______ _______ _______ _____ _____    ______ ____
DOCKED: ROOT
DOCKED: ATOM      1  N   UNL     1     142.049  79.559 221.474 -0.22 +0.14    -0.265 N  
DOCKED: ATOM      2  C   UNL     1     141.666  80.630 220.595 -0.29 -0.04    +0.099 C  
DOCKED: ATOM      3  C   UNL     1     141.598  80.444 219.278 -0.27 -0.01    +0.027 C  
DOCKED: ATOM      4  C   UNL     1     141.928  79.137 218.689 -0.27 +0.01    -0.019 A  
DOCKED: ATOM      5  C   UNL     1     141.997  78.990 217.296 -0.23 -0.01    +0.008 A  
DOCKED: ATOM      6  C   UNL     1     142.331  77.754 216.736 -0.21 -0.00    +0.001 A  
DOCKED: ATOM      7  C   UNL     1     142.596  76.659 217.562 -0.23 -0.00    +0.000 A  
DOCKED: ATOM      8  C   UNL     1     142.525  76.796 218.950 -0.31 -0.00    +0.007 A  
DOCKED: ATOM      9  C   UNL     1     142.194  78.035 219.525 -0.28 +0.01    -0.013 A  
DOCKED: ATOM     10  C   UNL     1     142.052  78.155 221.028 -0.04 -0.11    +0.162 C  
DOCKED: ENDROOT
DOCKED: BRANCH   1  11
DOCKED: ATOM     11  S   UNL     1     142.262  79.921 223.160 -0.60 -0.07    +0.239 S  
DOCKED: ATOM     12  O   UNL     1     143.692  80.307 223.413 -0.51 +0.06    -0.206 OA 
DOCKED: ATOM     13  O   UNL     1     141.940  78.705 223.984 -0.49 +0.06    -0.206 OA 
DOCKED: BRANCH  11  14
DOCKED: ATOM     14  C   UNL     1     141.186  81.274 223.612 -0.31 -0.02    +0.195 C  
DOCKED: BRANCH  14  15
DOCKED: ATOM     15  C   UNL     1     139.759  80.952 223.271 -0.35 +0.00    -0.031 A  
DOCKED: ATOM     16  C   UNL     1     139.054  81.746 222.351 -0.22 -0.00    +0.005 A  
DOCKED: ATOM     17  C   UNL     1     139.135  79.822 223.824 -0.43 -0.00    +0.005 A  
DOCKED: ATOM     18  C   UNL     1     137.739  81.424 222.004 -0.14 -0.00    +0.000 A  
DOCKED: ATOM     19  C   UNL     1     137.819  79.503 223.476 -0.25 -0.00    +0.000 A  
DOCKED: ATOM     20  C   UNL     1     137.121  80.303 222.567 -0.16 -0.00    +0.000 A  
DOCKED: ENDBRANCH  14  15
DOCKED: ENDBRANCH  11  14
DOCKED: ENDBRANCH   1  11
DOCKED: BRANCH  10  21
DOCKED: ATOM     21  C   UNL     1     140.779  77.485 221.476 -0.33 -0.00    +0.005 A  
DOCKED: ATOM     22  C   UNL     1     140.673  76.424 222.374 -0.35 -0.02    +0.089 A  
DOCKED: ATOM     23  C   UNL     1     139.497  77.695 220.998 -0.17 -0.00    +0.005 A  
DOCKED: ATOM     24  N   UNL     1     139.392  76.002 222.461 -0.17 +0.07    -0.361 N  
DOCKED: ATOM     25  C   UNL     1     138.994  78.596 220.058 -0.07 -0.00    +0.011 A  
DOCKED: ATOM     26  C   UNL     1     138.687  76.778 221.620 -0.21 -0.01    +0.046 A  
DOCKED: ATOM     27  C   UNL     1     137.621  78.537 219.760 -0.03 -0.00    +0.001 A  
DOCKED: ATOM     28  C   UNL     1     137.323  76.696 221.342 -0.12 -0.01    +0.026 A  
DOCKED: ATOM     29  C   UNL     1     136.789  77.592 220.399 -0.04 -0.00    +0.002 A  
DOCKED: ATOM     30  H   UNL     1     139.032  75.216 223.046 -0.45 -0.05    +0.166 HD 
DOCKED: ENDBRANCH  10  21
DOCKED: TORSDOF 4
DOCKED: TER
DOCKED: ENDMDL
________________________________________________________________________________


    FINAL DOCKED STATE:
    ________________________


Run:   10 / 20
Time taken for this run:   0.027s

DOCKED: MODEL        10
DOCKED: USER    Run = 10
DOCKED: USER
DOCKED: USER    Estimated Free Energy of Binding    =  -6.62 kcal/mol  [=(1)+(2)+(3)-(4)]
DOCKED: USER
DOCKED: USER    (1) Final Intermolecular Energy     =  -7.81 kcal/mol
DOCKED: USER        vdW + Hbond + desolv Energy     =  -7.79 kcal/mol
DOCKED: USER        Electrostatic Energy            =  -0.02 kcal/mol
DOCKED: USER        Moving Ligand-Fixed Receptor    =  -7.81 kcal/mol
DOCKED: USER        Moving Ligand-Moving Receptor   =  +0.00 kcal/mol
DOCKED: USER    (2) Final Total Internal Energy     =  -3.09 kcal/mol
DOCKED: USER    (3) Torsional Free Energy           =  +1.19 kcal/mol
DOCKED: USER    (4) Unbound System's Energy         =  -3.09 kcal/mol
DOCKED: USER
DOCKED: USER
DOCKED: REMARK SMILES O=S(=O)(Cc1ccccc1)N1C=Cc2ccccc2[C@@H]1c1c[nH]c2ccccc12
DOCKED: REMARK SMILES IDX 11 1 12 2 13 3 14 4 15 5 16 6 17 7 18 8 19 9 20 10 2 11 1 12
DOCKED: REMARK SMILES IDX 3 13 4 14 5 15 6 16 10 17 7 18 9 19 8 20 21 21 22 22 29 23
DOCKED: REMARK SMILES IDX 23 24 28 25 24 26 27 27 25 28 26 29
DOCKED: REMARK H PARENT 23 30
DOCKED: USER                              x       y       z     vdW  Elec       q    Type
DOCKED: USER                           _______ _______ _______ _____ _____    ______ ____
DOCKED: ROOT
DOCKED: ATOM      1  N   UNL     1     142.038  79.642 221.545 -0.23 +0.13    -0.265 N  
DOCKED: ATOM      2  C   UNL     1     141.632  80.723 220.691 -0.30 -0.04    +0.099 C  
DOCKED: ATOM      3  C   UNL     1     141.552  80.561 219.372 -0.27 -0.01    +0.027 C  
DOCKED: ATOM      4  C   UNL     1     141.890  79.269 218.755 -0.27 +0.01    -0.019 A  
DOCKED: ATOM      5  C   UNL     1     141.945  79.148 217.359 -0.23 -0.01    +0.008 A  
DOCKED: ATOM      6  C   UNL     1     142.287  77.927 216.772 -0.21 -0.00    +0.001 A  
DOCKED: ATOM      7  C   UNL     1     142.575  76.821 217.575 -0.24 -0.00    +0.000 A  
DOCKED: ATOM      8  C   UNL     1     142.518  76.931 218.966 -0.32 -0.00    +0.007 A  
DOCKED: ATOM      9  C   UNL     1     142.179  78.155 219.568 -0.26 +0.01    -0.013 A  
DOCKED: ATOM     10  C   UNL     1     142.052  78.246 221.074 -0.07 -0.11    +0.162 C  
DOCKED: ENDROOT
DOCKED: BRANCH   1  11
DOCKED: ATOM     11  S   UNL     1     142.266  79.975 223.235 -0.60 -0.07    +0.239 S  
DOCKED: ATOM     12  O   UNL     1     143.678  80.432 223.470 -0.53 +0.05    -0.206 OA 
DOCKED: ATOM     13  O   UNL     1     142.027  78.725 224.036 -0.47 +0.06    -0.206 OA 
DOCKED: BRANCH  11  14
DOCKED: ATOM     14  C   UNL     1     141.128  81.256 223.742 -0.27 -0.02    +0.195 C  
DOCKED: BRANCH  14  15
DOCKED: ATOM     15  C   UNL     1     139.729  80.923 223.308 -0.36 +0.00    -0.031 A  
DOCKED: ATOM     16  C   UNL     1     139.059  79.820 223.863 -0.42 -0.00    +0.005 A  
DOCKED: ATOM     17  C   UNL     1     139.058  81.744 222.387 -0.22 -0.00    +0.005 A  
DOCKED: ATOM     18  C   UNL     1     137.743  79.533 223.488 -0.24 -0.00    +0.000 A  
DOCKED: ATOM     19  C   UNL     1     137.742  81.454 222.013 -0.14 -0.00    +0.000 A  
DOCKED: ATOM     20  C   UNL     1     137.085  80.349 222.562 -0.15 -0.00    +0.000 A  
DOCKED: ENDBRANCH  14  15
DOCKED: ENDBRANCH  11  14
DOCKED: ENDBRANCH   1  11
DOCKED: BRANCH  10  21
DOCKED: ATOM     21  C   UNL     1     140.792  77.553 221.523 -0.34 -0.00    +0.005 A  
DOCKED: ATOM     22  C   UNL     1     140.708  76.489 222.420 -0.33 -0.02    +0.089 A  
DOCKED: ATOM     23  C   UNL     1     139.506  77.740 221.048 -0.17 -0.00    +0.005 A  
DOCKED: ATOM     24  N   UNL     1     139.435  76.044 222.510 -0.17 +0.07    -0.361 N  
DOCKED: ATOM     25  C   UNL     1     138.985  78.633 220.111 -0.08 -0.00    +0.011 A  
DOCKED: ATOM     26  C   UNL     1     138.714  76.808 221.671 -0.22 -0.01    +0.046 A  
DOCKED: ATOM     27  C   UNL     1     137.613  78.550 219.816 -0.03 -0.00    +0.001 A  
DOCKED: ATOM     28  C   UNL     1     137.351  76.702 221.396 -0.13 -0.01    +0.026 A  
DOCKED: ATOM     29  C   UNL     1     136.800  77.589 220.455 -0.04 -0.00    +0.002 A  
DOCKED: ATOM     30  H   UNL     1     139.090  75.250 223.094 -0.47 -0.04    +0.166 HD 
DOCKED: ENDBRANCH  10  21
DOCKED: TORSDOF 4
DOCKED: TER
DOCKED: ENDMDL
________________________________________________________________________________


    FINAL DOCKED STATE:
    ________________________


Run:   11 / 20
Time taken for this run:   0.027s

DOCKED: MODEL        11
DOCKED: USER    Run = 11
DOCKED: USER
DOCKED: USER    Estimated Free Energy of Binding    =  -6.54 kcal/mol  [=(1)+(2)+(3)-(4)]
DOCKED: USER
DOCKED: USER    (1) Final Intermolecular Energy     =  -7.73 kcal/mol
DOCKED: USER        vdW + Hbond + desolv Energy     =  -7.72 kcal/mol
DOCKED: USER        Electrostatic Energy            =  -0.01 kcal/mol
DOCKED: USER        Moving Ligand-Fixed Receptor    =  -7.73 kcal/mol
DOCKED: USER        Moving Ligand-Moving Receptor   =  +0.00 kcal/mol
DOCKED: USER    (2) Final Total Internal Energy     =  -3.09 kcal/mol
DOCKED: USER    (3) Torsional Free Energy           =  +1.19 kcal/mol
DOCKED: USER    (4) Unbound System's Energy         =  -3.09 kcal/mol
DOCKED: USER
DOCKED: USER
DOCKED: REMARK SMILES O=S(=O)(Cc1ccccc1)N1C=Cc2ccccc2[C@@H]1c1c[nH]c2ccccc12
DOCKED: REMARK SMILES IDX 11 1 12 2 13 3 14 4 15 5 16 6 17 7 18 8 19 9 20 10 2 11 1 12
DOCKED: REMARK SMILES IDX 3 13 4 14 5 15 6 16 10 17 7 18 9 19 8 20 21 21 22 22 29 23
DOCKED: REMARK SMILES IDX 23 24 28 25 24 26 27 27 25 28 26 29
DOCKED: REMARK H PARENT 23 30
DOCKED: USER                              x       y       z     vdW  Elec       q    Type
DOCKED: USER                           _______ _______ _______ _____ _____    ______ ____
DOCKED: ROOT
DOCKED: ATOM      1  N   UNL     1     142.184  79.478 221.324 -0.19 +0.15    -0.265 N  
DOCKED: ATOM      2  C   UNL     1     141.795  80.514 220.407 -0.29 -0.04    +0.099 C  
DOCKED: ATOM      3  C   UNL     1     141.677  80.266 219.104 -0.27 -0.01    +0.027 C  
DOCKED: ATOM      4  C   UNL     1     141.955  78.924 218.570 -0.27 +0.01    -0.019 A  
DOCKED: ATOM      5  C   UNL     1     141.972  78.707 217.184 -0.22 -0.01    +0.008 A  
DOCKED: ATOM      6  C   UNL     1     142.257  77.437 216.675 -0.18 -0.00    +0.001 A  
DOCKED: ATOM      7  C   UNL     1     142.526  76.377 217.545 -0.20 -0.00    +0.000 A  
DOCKED: ATOM      8  C   UNL     1     142.506  76.584 218.927 -0.30 -0.00    +0.007 A  
DOCKED: ATOM      9  C   UNL     1     142.224  77.858 219.450 -0.29 +0.01    -0.013 A  
DOCKED: ATOM     10  C   UNL     1     142.137  78.054 220.949 +0.03 -0.12    +0.162 C  
DOCKED: ENDROOT
DOCKED: BRANCH   1  11
DOCKED: ATOM     11  S   UNL     1     142.464  79.916 222.982 -0.59 -0.08    +0.239 S  
DOCKED: ATOM     12  O   UNL     1     143.921  80.227 223.180 -0.46 +0.06    -0.206 OA 
DOCKED: ATOM     13  O   UNL     1     142.092  78.769 223.880 -0.48 +0.07    -0.206 OA 
DOCKED: BRANCH  11  14
DOCKED: ATOM     14  C   UNL     1     141.482  81.354 223.385 -0.38 -0.03    +0.195 C  
DOCKED: BRANCH  14  15
DOCKED: ATOM     15  C   UNL     1     140.021  81.070 223.191 -0.35 +0.00    -0.031 A  
DOCKED: ATOM     16  C   UNL     1     139.272  81.808 222.259 -0.22 -0.00    +0.005 A  
DOCKED: ATOM     17  C   UNL     1     139.402  80.025 223.898 -0.42 -0.00    +0.005 A  
DOCKED: ATOM     18  C   UNL     1     137.921  81.517 222.051 -0.15 -0.00    +0.000 A  
DOCKED: ATOM     19  C   UNL     1     138.050  79.738 223.689 -0.29 -0.00    +0.000 A  
DOCKED: ATOM     20  C   UNL     1     137.310  80.483 222.766 -0.19 -0.00    +0.000 A  
DOCKED: ENDBRANCH  14  15
DOCKED: ENDBRANCH  11  14
DOCKED: ENDBRANCH   1  11
DOCKED: BRANCH  10  21
DOCKED: ATOM     21  C   UNL     1     140.865  77.439 221.472 -0.34 -0.00    +0.005 A  
DOCKED: ATOM     22  C   UNL     1     140.768  76.374 222.367 -0.33 -0.03    +0.089 A  
DOCKED: ATOM     23  C   UNL     1     139.567  77.713 221.079 -0.18 -0.00    +0.005 A  
DOCKED: ATOM     24  N   UNL     1     139.477  76.011 222.533 -0.16 +0.06    -0.361 N  
DOCKED: ATOM     25  C   UNL     1     139.048  78.647 220.181 -0.08 -0.00    +0.011 A  
DOCKED: ATOM     26  C   UNL     1     138.757  76.828 221.744 -0.23 -0.01    +0.046 A  
DOCKED: ATOM     27  C   UNL     1     137.658  78.655 219.971 -0.03 -0.00    +0.001 A  
DOCKED: ATOM     28  C   UNL     1     137.375  76.813 221.554 -0.14 -0.01    +0.026 A  
DOCKED: ATOM     29  C   UNL     1     136.825  77.743 220.655 -0.05 -0.00    +0.002 A  
DOCKED: ATOM     30  H   UNL     1     139.118  75.236 223.133 -0.47 -0.04    +0.166 HD 
DOCKED: ENDBRANCH  10  21
DOCKED: TORSDOF 4
DOCKED: TER
DOCKED: ENDMDL
________________________________________________________________________________


    FINAL DOCKED STATE:
    ________________________


Run:   12 / 20
Time taken for this run:   0.027s

DOCKED: MODEL        12
DOCKED: USER    Run = 12
DOCKED: USER
DOCKED: USER    Estimated Free Energy of Binding    =  -7.71 kcal/mol  [=(1)+(2)+(3)-(4)]
DOCKED: USER
DOCKED: USER    (1) Final Intermolecular Energy     =  -8.91 kcal/mol
DOCKED: USER        vdW + Hbond + desolv Energy     =  -8.84 kcal/mol
DOCKED: USER        Electrostatic Energy            =  -0.07 kcal/mol
DOCKED: USER        Moving Ligand-Fixed Receptor    =  -8.91 kcal/mol
DOCKED: USER        Moving Ligand-Moving Receptor   =  +0.00 kcal/mol
DOCKED: USER    (2) Final Total Internal Energy     =  -2.02 kcal/mol
DOCKED: USER    (3) Torsional Free Energy           =  +1.19 kcal/mol
DOCKED: USER    (4) Unbound System's Energy         =  -2.02 kcal/mol
DOCKED: USER
DOCKED: USER
DOCKED: REMARK SMILES O=S(=O)(Cc1ccccc1)N1C=Cc2ccccc2[C@@H]1c1c[nH]c2ccccc12
DOCKED: REMARK SMILES IDX 11 1 12 2 13 3 14 4 15 5 16 6 17 7 18 8 19 9 20 10 2 11 1 12
DOCKED: REMARK SMILES IDX 3 13 4 14 5 15 6 16 10 17 7 18 9 19 8 20 21 21 22 22 29 23
DOCKED: REMARK SMILES IDX 23 24 28 25 24 26 27 27 25 28 26 29
DOCKED: REMARK H PARENT 23 30
DOCKED: USER                              x       y       z     vdW  Elec       q    Type
DOCKED: USER                           _______ _______ _______ _____ _____    ______ ____
DOCKED: ROOT
DOCKED: ATOM      1  N   UNL     1     136.977  69.808 223.522 -0.10 +0.03    -0.265 N  
DOCKED: ATOM      2  C   UNL     1     137.095  69.038 222.314 -0.12 -0.01    +0.099 C  
DOCKED: ATOM      3  C   UNL     1     138.114  69.225 221.478 -0.11 -0.00    +0.027 C  
DOCKED: ATOM      4  C   UNL     1     139.141  70.239 221.766 -0.15 +0.00    -0.019 A  
DOCKED: ATOM      5  C   UNL     1     140.127  70.532 220.814 -0.13 -0.00    +0.008 A  
DOCKED: ATOM      6  C   UNL     1     141.090  71.510 221.077 -0.19 -0.00    +0.001 A  
DOCKED: ATOM      7  C   UNL     1     141.075  72.198 222.293 -0.26 -0.00    +0.000 A  
DOCKED: ATOM      8  C   UNL     1     140.099  71.908 223.250 -0.36 -0.00    +0.007 A  
DOCKED: ATOM      9  C   UNL     1     139.123  70.930 222.994 -0.26 +0.00    -0.013 A  
DOCKED: ATOM     10  C   UNL     1     138.112  70.575 224.064 -0.22 -0.03    +0.162 C  
DOCKED: ENDROOT
DOCKED: BRANCH   1  11
DOCKED: ATOM     11  S   UNL     1     135.542  69.613 224.481 -0.20 -0.02    +0.239 S  
DOCKED: ATOM     12  O   UNL     1     135.859  69.898 225.922 +0.01 +0.01    -0.206 OA 
DOCKED: ATOM     13  O   UNL     1     135.046  68.197 224.370 -0.65 -0.02    -0.206 OA 
DOCKED: BRANCH  11  14
DOCKED: ATOM     14  C   UNL     1     134.289  70.750 223.905 -0.07 -0.02    +0.195 C  
DOCKED: BRANCH  14  15
DOCKED: ATOM     15  C   UNL     1     134.634  72.159 224.294 -0.17 +0.00    -0.031 A  
DOCKED: ATOM     16  C   UNL     1     135.516  72.916 223.504 -0.19 -0.00    +0.005 A  
DOCKED: ATOM     17  C   UNL     1     134.035  72.751 225.418 -0.27 -0.00    +0.005 A  
DOCKED: ATOM     18  C   UNL     1     135.807  74.240 223.845 -0.21 -0.00    +0.000 A  
DOCKED: ATOM     19  C   UNL     1     134.329  74.075 225.756 -0.34 +0.00    +0.000 A  
DOCKED: ATOM     20  C   UNL     1     135.214  74.819 224.971 -0.37 -0.00    +0.000 A  
DOCKED: ENDBRANCH  14  15
DOCKED: ENDBRANCH  11  14
DOCKED: ENDBRANCH   1  11
DOCKED: BRANCH  10  21
DOCKED: ATOM     21  C   UNL     1     138.781  69.777 225.153 -0.37 -0.00    +0.005 A  
DOCKED: ATOM     22  C   UNL     1     138.548  68.437 225.461 -0.31 -0.00    +0.089 A  
DOCKED: ATOM     23  C   UNL     1     139.645  70.237 226.132 -0.45 -0.00    +0.005 A  
DOCKED: ATOM     24  N   UNL     1     139.239  68.077 226.564 -0.25 +0.04    -0.361 N  
DOCKED: ATOM     25  C   UNL     1     140.201  71.497 226.361 -0.50 -0.00    +0.011 A  
DOCKED: ATOM     26  C   UNL     1     139.899  69.177 226.966 -0.53 -0.01    +0.046 A  
DOCKED: ATOM     27  C   UNL     1     141.034  71.654 227.482 -0.81 -0.00    +0.001 A  
DOCKED: ATOM     28  C   UNL     1     140.721  69.305 228.085 -0.61 -0.01    +0.026 A  
DOCKED: ATOM     29  C   UNL     1     141.294  70.563 228.340 -0.50 -0.00    +0.002 A  
DOCKED: ATOM     30  H   UNL     1     139.238  67.139 227.023 -0.17 -0.03    +0.166 HD 
DOCKED: ENDBRANCH  10  21
DOCKED: TORSDOF 4
DOCKED: TER
DOCKED: ENDMDL
________________________________________________________________________________


    FINAL DOCKED STATE:
    ________________________


Run:   13 / 20
Time taken for this run:   0.027s

DOCKED: MODEL        13
DOCKED: USER    Run = 13
DOCKED: USER
DOCKED: USER    Estimated Free Energy of Binding    =  -6.59 kcal/mol  [=(1)+(2)+(3)-(4)]
DOCKED: USER
DOCKED: USER    (1) Final Intermolecular Energy     =  -7.78 kcal/mol
DOCKED: USER        vdW + Hbond + desolv Energy     =  -7.76 kcal/mol
DOCKED: USER        Electrostatic Energy            =  -0.02 kcal/mol
DOCKED: USER        Moving Ligand-Fixed Receptor    =  -7.78 kcal/mol
DOCKED: USER        Moving Ligand-Moving Receptor   =  +0.00 kcal/mol
DOCKED: USER    (2) Final Total Internal Energy     =  -3.10 kcal/mol
DOCKED: USER    (3) Torsional Free Energy           =  +1.19 kcal/mol
DOCKED: USER    (4) Unbound System's Energy         =  -3.10 kcal/mol
DOCKED: USER
DOCKED: USER
DOCKED: REMARK SMILES O=S(=O)(Cc1ccccc1)N1C=Cc2ccccc2[C@@H]1c1c[nH]c2ccccc12
DOCKED: REMARK SMILES IDX 11 1 12 2 13 3 14 4 15 5 16 6 17 7 18 8 19 9 20 10 2 11 1 12
DOCKED: REMARK SMILES IDX 3 13 4 14 5 15 6 16 10 17 7 18 9 19 8 20 21 21 22 22 29 23
DOCKED: REMARK SMILES IDX 23 24 28 25 24 26 27 27 25 28 26 29
DOCKED: REMARK H PARENT 23 30
DOCKED: USER                              x       y       z     vdW  Elec       q    Type
DOCKED: USER                           _______ _______ _______ _____ _____    ______ ____
DOCKED: ROOT
DOCKED: ATOM      1  N   UNL     1     142.046  79.585 221.522 -0.23 +0.13    -0.265 N  
DOCKED: ATOM      2  C   UNL     1     141.672  80.664 220.649 -0.29 -0.04    +0.099 C  
DOCKED: ATOM      3  C   UNL     1     141.606  80.486 219.331 -0.28 -0.01    +0.027 C  
DOCKED: ATOM      4  C   UNL     1     141.926  79.180 218.735 -0.28 +0.01    -0.019 A  
DOCKED: ATOM      5  C   UNL     1     141.997  79.041 217.342 -0.23 -0.01    +0.008 A  
DOCKED: ATOM      6  C   UNL     1     142.322  77.806 216.774 -0.21 -0.00    +0.001 A  
DOCKED: ATOM      7  C   UNL     1     142.577  76.704 217.594 -0.23 -0.00    +0.000 A  
DOCKED: ATOM      8  C   UNL     1     142.504  76.833 218.983 -0.31 -0.00    +0.007 A  
DOCKED: ATOM      9  C   UNL     1     142.182  78.071 219.565 -0.27 +0.01    -0.013 A  
DOCKED: ATOM     10  C   UNL     1     142.038  78.184 221.068 -0.06 -0.11    +0.162 C  
DOCKED: ENDROOT
DOCKED: BRANCH   1  11
DOCKED: ATOM     11  S   UNL     1     142.259  79.935 223.211 -0.60 -0.07    +0.239 S  
DOCKED: ATOM     12  O   UNL     1     143.677  80.365 223.459 -0.52 +0.05    -0.206 OA 
DOCKED: ATOM     13  O   UNL     1     141.983  78.700 224.024 -0.48 +0.06    -0.206 OA 
DOCKED: BRANCH  11  14
DOCKED: ATOM     14  C   UNL     1     141.141  81.246 223.686 -0.29 -0.02    +0.195 C  
DOCKED: BRANCH  14  15
DOCKED: ATOM     15  C   UNL     1     139.738  80.927 223.256 -0.36 +0.00    -0.031 A  
DOCKED: ATOM     16  C   UNL     1     139.054  79.837 223.820 -0.42 -0.00    +0.005 A  
DOCKED: ATOM     17  C   UNL     1     139.076  81.750 222.329 -0.22 -0.00    +0.005 A  
DOCKED: ATOM     18  C   UNL     1     137.735  79.564 223.448 -0.25 -0.00    +0.000 A  
DOCKED: ATOM     19  C   UNL     1     137.757  81.473 221.958 -0.14 -0.00    +0.000 A  
DOCKED: ATOM     20  C   UNL     1     137.087  80.381 222.517 -0.15 -0.00    +0.000 A  
DOCKED: ENDBRANCH  14  15
DOCKED: ENDBRANCH  11  14
DOCKED: ENDBRANCH   1  11
DOCKED: BRANCH  10  21
DOCKED: ATOM     21  C   UNL     1     140.759  77.521 221.510 -0.33 -0.00    +0.005 A  
DOCKED: ATOM     22  C   UNL     1     140.642  76.472 222.421 -0.33 -0.02    +0.089 A  
DOCKED: ATOM     23  C   UNL     1     139.484  77.725 221.014 -0.17 -0.00    +0.005 A  
DOCKED: ATOM     24  N   UNL     1     139.359  76.053 222.499 -0.17 +0.07    -0.361 N  
DOCKED: ATOM     25  C   UNL     1     138.992  78.614 220.056 -0.07 -0.00    +0.011 A  
DOCKED: ATOM     26  C   UNL     1     138.665  76.818 221.638 -0.21 -0.01    +0.046 A  
DOCKED: ATOM     27  C   UNL     1     137.623  78.553 219.743 -0.03 -0.00    +0.001 A  
DOCKED: ATOM     28  C   UNL     1     137.304  76.734 221.346 -0.12 -0.01    +0.026 A  
DOCKED: ATOM     29  C   UNL     1     136.783  77.617 220.384 -0.04 -0.00    +0.002 A  
DOCKED: ATOM     30  H   UNL     1     138.991  75.275 223.090 -0.47 -0.05    +0.166 HD 
DOCKED: ENDBRANCH  10  21
DOCKED: TORSDOF 4
DOCKED: TER
DOCKED: ENDMDL
________________________________________________________________________________


    FINAL DOCKED STATE:
    ________________________


Run:   14 / 20
Time taken for this run:   0.027s

DOCKED: MODEL        14
DOCKED: USER    Run = 14
DOCKED: USER
DOCKED: USER    Estimated Free Energy of Binding    =  -7.83 kcal/mol  [=(1)+(2)+(3)-(4)]
DOCKED: USER
DOCKED: USER    (1) Final Intermolecular Energy     =  -9.02 kcal/mol
DOCKED: USER        vdW + Hbond + desolv Energy     =  -8.98 kcal/mol
DOCKED: USER        Electrostatic Energy            =  -0.04 kcal/mol
DOCKED: USER        Moving Ligand-Fixed Receptor    =  -9.02 kcal/mol
DOCKED: USER        Moving Ligand-Moving Receptor   =  +0.00 kcal/mol
DOCKED: USER    (2) Final Total Internal Energy     =  -1.80 kcal/mol
DOCKED: USER    (3) Torsional Free Energy           =  +1.19 kcal/mol
DOCKED: USER    (4) Unbound System's Energy         =  -1.80 kcal/mol
DOCKED: USER
DOCKED: USER
DOCKED: REMARK SMILES O=S(=O)(Cc1ccccc1)N1C=Cc2ccccc2[C@@H]1c1c[nH]c2ccccc12
DOCKED: REMARK SMILES IDX 11 1 12 2 13 3 14 4 15 5 16 6 17 7 18 8 19 9 20 10 2 11 1 12
DOCKED: REMARK SMILES IDX 3 13 4 14 5 15 6 16 10 17 7 18 9 19 8 20 21 21 22 22 29 23
DOCKED: REMARK SMILES IDX 23 24 28 25 24 26 27 27 25 28 26 29
DOCKED: REMARK H PARENT 23 30
DOCKED: USER                              x       y       z     vdW  Elec       q    Type
DOCKED: USER                           _______ _______ _______ _____ _____    ______ ____
DOCKED: ROOT
DOCKED: ATOM      1  N   UNL     1     140.175  77.662 221.200 -0.10 +0.08    -0.265 N  
DOCKED: ATOM      2  C   UNL     1     139.088  78.462 221.695 -0.18 -0.02    +0.099 C  
DOCKED: ATOM      3  C   UNL     1     139.314  79.511 222.483 -0.29 -0.01    +0.027 C  
DOCKED: ATOM      4  C   UNL     1     140.685  79.870 222.877 -0.42 +0.00    -0.019 A  
DOCKED: ATOM      5  C   UNL     1     140.904  80.883 223.822 -0.45 -0.00    +0.008 A  
DOCKED: ATOM      6  C   UNL     1     142.205  81.210 224.213 -0.58 -0.00    +0.001 A  
DOCKED: ATOM      7  C   UNL     1     143.294  80.529 223.663 -0.64 -0.00    +0.000 A  
DOCKED: ATOM      8  C   UNL     1     143.085  79.522 222.718 -0.49 -0.00    +0.007 A  
DOCKED: ATOM      9  C   UNL     1     141.780  79.181 222.320 -0.50 +0.01    -0.013 A  
DOCKED: ATOM     10  C   UNL     1     141.568  78.137 221.244 -0.25 -0.09    +0.162 C  
DOCKED: ENDROOT
DOCKED: BRANCH   1  11
DOCKED: ATOM     11  S   UNL     1     139.790  76.222 220.306 -0.12 -0.07    +0.239 S  
DOCKED: ATOM     12  O   UNL     1     140.527  76.235 218.996 -0.05 +0.07    -0.206 OA 
DOCKED: ATOM     13  O   UNL     1     138.314  76.178 220.026 -0.03 +0.05    -0.206 OA 
DOCKED: BRANCH  11  14
DOCKED: ATOM     14  C   UNL     1     140.279  74.790 221.256 -0.22 -0.04    +0.195 C  
DOCKED: BRANCH  14  15
DOCKED: ATOM     15  C   UNL     1     141.651  74.331 220.854 -0.28 +0.01    -0.031 A  
DOCKED: ATOM     16  C   UNL     1     141.955  72.960 220.808 -0.26 -0.00    +0.005 A  
DOCKED: ATOM     17  C   UNL     1     142.626  75.265 220.467 -0.29 -0.00    +0.005 A  
DOCKED: ATOM     18  C   UNL     1     143.220  72.531 220.396 -0.29 -0.00    +0.000 A  
DOCKED: ATOM     19  C   UNL     1     143.891  74.833 220.057 -0.44 -0.00    +0.000 A  
DOCKED: ATOM     20  C   UNL     1     144.188  73.468 220.022 -0.39 -0.00    +0.000 A  
DOCKED: ENDBRANCH  14  15
DOCKED: ENDBRANCH  11  14
DOCKED: ENDBRANCH   1  11
DOCKED: BRANCH  10  21
DOCKED: ATOM     21  C   UNL     1     141.947  78.703 219.900 -0.23 -0.00    +0.005 A  
DOCKED: ATOM     22  C   UNL     1     142.621  78.034 218.880 -0.22 -0.07    +0.089 A  
DOCKED: ATOM     23  C   UNL     1     141.822  80.011 219.466 -0.30 -0.00    +0.005 A  
DOCKED: ATOM     24  N   UNL     1     142.892  78.876 217.858 -0.17 +0.38    -0.361 N  
DOCKED: ATOM     25  C   UNL     1     141.267  81.140 220.071 -0.28 -0.00    +0.011 A  
DOCKED: ATOM     26  C   UNL     1     142.405  80.074 218.225 -0.32 -0.04    +0.046 A  
DOCKED: ATOM     27  C   UNL     1     141.324  82.357 219.370 -0.24 -0.00    +0.001 A  
DOCKED: ATOM     28  C   UNL     1     142.478  81.269 217.508 -0.31 -0.02    +0.026 A  
DOCKED: ATOM     29  C   UNL     1     141.926  82.422 218.095 -0.24 -0.00    +0.002 A  
DOCKED: ATOM     30  H   UNL     1     143.398  78.645 216.975 -0.41 -0.26    +0.166 HD 
DOCKED: ENDBRANCH  10  21
DOCKED: TORSDOF 4
DOCKED: TER
DOCKED: ENDMDL
________________________________________________________________________________


    FINAL DOCKED STATE:
    ________________________


Run:   15 / 20
Time taken for this run:   0.027s

DOCKED: MODEL        15
DOCKED: USER    Run = 15
DOCKED: USER
DOCKED: USER    Estimated Free Energy of Binding    =  -6.61 kcal/mol  [=(1)+(2)+(3)-(4)]
DOCKED: USER
DOCKED: USER    (1) Final Intermolecular Energy     =  -7.81 kcal/mol
DOCKED: USER        vdW + Hbond + desolv Energy     =  -7.79 kcal/mol
DOCKED: USER        Electrostatic Energy            =  -0.02 kcal/mol
DOCKED: USER        Moving Ligand-Fixed Receptor    =  -7.81 kcal/mol
DOCKED: USER        Moving Ligand-Moving Receptor   =  +0.00 kcal/mol
DOCKED: USER    (2) Final Total Internal Energy     =  -3.09 kcal/mol
DOCKED: USER    (3) Torsional Free Energy           =  +1.19 kcal/mol
DOCKED: USER    (4) Unbound System's Energy         =  -3.09 kcal/mol
DOCKED: USER
DOCKED: USER
DOCKED: REMARK SMILES O=S(=O)(Cc1ccccc1)N1C=Cc2ccccc2[C@@H]1c1c[nH]c2ccccc12
DOCKED: REMARK SMILES IDX 11 1 12 2 13 3 14 4 15 5 16 6 17 7 18 8 19 9 20 10 2 11 1 12
DOCKED: REMARK SMILES IDX 3 13 4 14 5 15 6 16 10 17 7 18 9 19 8 20 21 21 22 22 29 23
DOCKED: REMARK SMILES IDX 23 24 28 25 24 26 27 27 25 28 26 29
DOCKED: REMARK H PARENT 23 30
DOCKED: USER                              x       y       z     vdW  Elec       q    Type
DOCKED: USER                           _______ _______ _______ _____ _____    ______ ____
DOCKED: ROOT
DOCKED: ATOM      1  N   UNL     1     142.054  79.645 221.541 -0.23 +0.13    -0.265 N  
DOCKED: ATOM      2  C   UNL     1     141.646  80.726 220.685 -0.30 -0.04    +0.099 C  
DOCKED: ATOM      3  C   UNL     1     141.566  80.563 219.366 -0.27 -0.01    +0.027 C  
DOCKED: ATOM      4  C   UNL     1     141.906  79.271 218.750 -0.28 +0.01    -0.019 A  
DOCKED: ATOM      5  C   UNL     1     141.961  79.149 217.355 -0.23 -0.01    +0.008 A  
DOCKED: ATOM      6  C   UNL     1     142.304  77.928 216.769 -0.21 -0.00    +0.001 A  
DOCKED: ATOM      7  C   UNL     1     142.594  76.822 217.572 -0.24 -0.00    +0.000 A  
DOCKED: ATOM      8  C   UNL     1     142.537  76.934 218.964 -0.32 -0.00    +0.007 A  
DOCKED: ATOM      9  C   UNL     1     142.197  78.158 219.564 -0.26 +0.01    -0.013 A  
DOCKED: ATOM     10  C   UNL     1     142.070  78.250 221.070 -0.06 -0.11    +0.162 C  
DOCKED: ENDROOT
DOCKED: BRANCH   1  11
DOCKED: ATOM     11  S   UNL     1     142.282  79.980 223.230 -0.60 -0.07    +0.239 S  
DOCKED: ATOM     12  O   UNL     1     143.692  80.444 223.464 -0.54 +0.05    -0.206 OA 
DOCKED: ATOM     13  O   UNL     1     142.049  78.730 224.032 -0.47 +0.06    -0.206 OA 
DOCKED: BRANCH  11  14
DOCKED: ATOM     14  C   UNL     1     141.139  81.257 223.737 -0.27 -0.02    +0.195 C  
DOCKED: BRANCH  14  15
DOCKED: ATOM     15  C   UNL     1     139.740  80.914 223.311 -0.37 +0.00    -0.031 A  
DOCKED: ATOM     16  C   UNL     1     139.080  79.807 223.871 -0.42 -0.00    +0.005 A  
DOCKED: ATOM     17  C   UNL     1     139.058  81.730 222.393 -0.22 -0.00    +0.005 A  
DOCKED: ATOM     18  C   UNL     1     137.764  79.511 223.503 -0.23 -0.00    +0.000 A  
DOCKED: ATOM     19  C   UNL     1     137.743  81.430 222.026 -0.14 -0.00    +0.000 A  
DOCKED: ATOM     20  C   UNL     1     137.096  80.322 222.581 -0.16 -0.00    +0.000 A  
DOCKED: ENDBRANCH  14  15
DOCKED: ENDBRANCH  11  14
DOCKED: ENDBRANCH   1  11
DOCKED: BRANCH  10  21
DOCKED: ATOM     21  C   UNL     1     140.811  77.555 221.520 -0.34 -0.00    +0.005 A  
DOCKED: ATOM     22  C   UNL     1     140.728  76.493 222.421 -0.33 -0.03    +0.089 A  
DOCKED: ATOM     23  C   UNL     1     139.525  77.738 221.044 -0.17 -0.00    +0.005 A  
DOCKED: ATOM     24  N   UNL     1     139.456  76.046 222.510 -0.17 +0.07    -0.361 N  
DOCKED: ATOM     25  C   UNL     1     139.003  78.627 220.103 -0.08 -0.00    +0.011 A  
DOCKED: ATOM     26  C   UNL     1     138.735  76.806 221.668 -0.22 -0.01    +0.046 A  
DOCKED: ATOM     27  C   UNL     1     137.631  78.540 219.807 -0.03 -0.00    +0.001 A  
DOCKED: ATOM     28  C   UNL     1     137.372  76.696 221.392 -0.13 -0.01    +0.026 A  
DOCKED: ATOM     29  C   UNL     1     136.819  77.580 220.448 -0.04 -0.00    +0.002 A  
DOCKED: ATOM     30  H   UNL     1     139.112  75.254 223.097 -0.47 -0.04    +0.166 HD 
DOCKED: ENDBRANCH  10  21
DOCKED: TORSDOF 4
DOCKED: TER
DOCKED: ENDMDL
________________________________________________________________________________


    FINAL DOCKED STATE:
    ________________________


Run:   16 / 20
Time taken for this run:   0.027s

DOCKED: MODEL        16
DOCKED: USER    Run = 16
DOCKED: USER
DOCKED: USER    Estimated Free Energy of Binding    =  -6.59 kcal/mol  [=(1)+(2)+(3)-(4)]
DOCKED: USER
DOCKED: USER    (1) Final Intermolecular Energy     =  -7.78 kcal/mol
DOCKED: USER        vdW + Hbond + desolv Energy     =  -7.76 kcal/mol
DOCKED: USER        Electrostatic Energy            =  -0.02 kcal/mol
DOCKED: USER        Moving Ligand-Fixed Receptor    =  -7.78 kcal/mol
DOCKED: USER        Moving Ligand-Moving Receptor   =  +0.00 kcal/mol
DOCKED: USER    (2) Final Total Internal Energy     =  -3.11 kcal/mol
DOCKED: USER    (3) Torsional Free Energy           =  +1.19 kcal/mol
DOCKED: USER    (4) Unbound System's Energy         =  -3.11 kcal/mol
DOCKED: USER
DOCKED: USER
DOCKED: REMARK SMILES O=S(=O)(Cc1ccccc1)N1C=Cc2ccccc2[C@@H]1c1c[nH]c2ccccc12
DOCKED: REMARK SMILES IDX 11 1 12 2 13 3 14 4 15 5 16 6 17 7 18 8 19 9 20 10 2 11 1 12
DOCKED: REMARK SMILES IDX 3 13 4 14 5 15 6 16 10 17 7 18 9 19 8 20 21 21 22 22 29 23
DOCKED: REMARK SMILES IDX 23 24 28 25 24 26 27 27 25 28 26 29
DOCKED: REMARK H PARENT 23 30
DOCKED: USER                              x       y       z     vdW  Elec       q    Type
DOCKED: USER                           _______ _______ _______ _____ _____    ______ ____
DOCKED: ROOT
DOCKED: ATOM      1  N   UNL     1     142.057  79.528 221.519 -0.23 +0.14    -0.265 N  
DOCKED: ATOM      2  C   UNL     1     141.710  80.593 220.619 -0.30 -0.04    +0.099 C  
DOCKED: ATOM      3  C   UNL     1     141.657  80.388 219.304 -0.28 -0.01    +0.027 C  
DOCKED: ATOM      4  C   UNL     1     141.967  79.065 218.740 -0.28 +0.01    -0.019 A  
DOCKED: ATOM      5  C   UNL     1     142.053  78.894 217.351 -0.24 -0.01    +0.008 A  
DOCKED: ATOM      6  C   UNL     1     142.368  77.643 216.815 -0.21 -0.00    +0.001 A  
DOCKED: ATOM      7  C   UNL     1     142.598  76.555 217.662 -0.23 -0.00    +0.000 A  
DOCKED: ATOM      8  C   UNL     1     142.509  76.716 219.047 -0.31 -0.00    +0.007 A  
DOCKED: ATOM      9  C   UNL     1     142.197  77.971 219.597 -0.28 +0.01    -0.013 A  
DOCKED: ATOM     10  C   UNL     1     142.036  78.118 221.096 -0.02 -0.11    +0.162 C  
DOCKED: ENDROOT
DOCKED: BRANCH   1  11
DOCKED: ATOM     11  S   UNL     1     142.254  79.912 223.203 -0.60 -0.07    +0.239 S  
DOCKED: ATOM     12  O   UNL     1     143.680  80.306 223.464 -0.51 +0.06    -0.206 OA 
DOCKED: ATOM     13  O   UNL     1     141.928  78.706 224.040 -0.49 +0.06    -0.206 OA 
DOCKED: BRANCH  11  14
DOCKED: ATOM     14  C   UNL     1     141.169  81.267 223.628 -0.30 -0.02    +0.195 C  
DOCKED: BRANCH  14  15
DOCKED: ATOM     15  C   UNL     1     139.750  80.948 223.252 -0.35 +0.00    -0.031 A  
DOCKED: ATOM     16  C   UNL     1     139.082  79.870 223.855 -0.43 -0.00    +0.005 A  
DOCKED: ATOM     17  C   UNL     1     139.061  81.759 222.335 -0.22 -0.00    +0.005 A  
DOCKED: ATOM     18  C   UNL     1     137.750  79.597 223.533 -0.24 -0.00    +0.000 A  
DOCKED: ATOM     19  C   UNL     1     137.729  81.482 222.014 -0.14 -0.00    +0.000 A  
DOCKED: ATOM     20  C   UNL     1     137.073  80.402 222.612 -0.16 -0.00    +0.000 A  
DOCKED: ENDBRANCH  14  15
DOCKED: ENDBRANCH  11  14
DOCKED: ENDBRANCH   1  11
DOCKED: BRANCH  10  21
DOCKED: ATOM     21  C   UNL     1     140.742  77.482 221.535 -0.33 -0.00    +0.005 A  
DOCKED: ATOM     22  C   UNL     1     140.602  76.427 222.436 -0.31 -0.02    +0.089 A  
DOCKED: ATOM     23  C   UNL     1     139.471  77.723 221.046 -0.17 -0.00    +0.005 A  
DOCKED: ATOM     24  N   UNL     1     139.311  76.039 222.514 -0.17 +0.07    -0.361 N  
DOCKED: ATOM     25  C   UNL     1     138.998  78.633 220.099 -0.08 -0.00    +0.011 A  
DOCKED: ATOM     26  C   UNL     1     138.632  76.829 221.664 -0.21 -0.01    +0.046 A  
DOCKED: ATOM     27  C   UNL     1     137.627  78.609 219.790 -0.03 -0.00    +0.001 A  
DOCKED: ATOM     28  C   UNL     1     137.269  76.781 221.375 -0.12 -0.01    +0.026 A  
DOCKED: ATOM     29  C   UNL     1     136.766  77.688 220.425 -0.04 -0.00    +0.002 A  
DOCKED: ATOM     30  H   UNL     1     138.925  75.264 223.099 -0.49 -0.05    +0.166 HD 
DOCKED: ENDBRANCH  10  21
DOCKED: TORSDOF 4
DOCKED: TER
DOCKED: ENDMDL
________________________________________________________________________________


    FINAL DOCKED STATE:
    ________________________


Run:   17 / 20
Time taken for this run:   0.027s

DOCKED: MODEL        17
DOCKED: USER    Run = 17
DOCKED: USER
DOCKED: USER    Estimated Free Energy of Binding    =  -6.59 kcal/mol  [=(1)+(2)+(3)-(4)]
DOCKED: USER
DOCKED: USER    (1) Final Intermolecular Energy     =  -7.78 kcal/mol
DOCKED: USER        vdW + Hbond + desolv Energy     =  -7.76 kcal/mol
DOCKED: USER        Electrostatic Energy            =  -0.02 kcal/mol
DOCKED: USER        Moving Ligand-Fixed Receptor    =  -7.78 kcal/mol
DOCKED: USER        Moving Ligand-Moving Receptor   =  +0.00 kcal/mol
DOCKED: USER    (2) Final Total Internal Energy     =  -3.11 kcal/mol
DOCKED: USER    (3) Torsional Free Energy           =  +1.19 kcal/mol
DOCKED: USER    (4) Unbound System's Energy         =  -3.11 kcal/mol
DOCKED: USER
DOCKED: USER
DOCKED: REMARK SMILES O=S(=O)(Cc1ccccc1)N1C=Cc2ccccc2[C@@H]1c1c[nH]c2ccccc12
DOCKED: REMARK SMILES IDX 11 1 12 2 13 3 14 4 15 5 16 6 17 7 18 8 19 9 20 10 2 11 1 12
DOCKED: REMARK SMILES IDX 3 13 4 14 5 15 6 16 10 17 7 18 9 19 8 20 21 21 22 22 29 23
DOCKED: REMARK SMILES IDX 23 24 28 25 24 26 27 27 25 28 26 29
DOCKED: REMARK H PARENT 23 30
DOCKED: USER                              x       y       z     vdW  Elec       q    Type
DOCKED: USER                           _______ _______ _______ _____ _____    ______ ____
DOCKED: ROOT
DOCKED: ATOM      1  N   UNL     1     142.052  79.539 221.504 -0.23 +0.14    -0.265 N  
DOCKED: ATOM      2  C   UNL     1     141.697  80.604 220.607 -0.29 -0.04    +0.099 C  
DOCKED: ATOM      3  C   UNL     1     141.644  80.404 219.292 -0.28 -0.01    +0.027 C  
DOCKED: ATOM      4  C   UNL     1     141.961  79.085 218.723 -0.28 +0.01    -0.019 A  
DOCKED: ATOM      5  C   UNL     1     142.046  78.919 217.334 -0.24 -0.01    +0.008 A  
DOCKED: ATOM      6  C   UNL     1     142.368  77.671 216.793 -0.21 -0.00    +0.001 A  
DOCKED: ATOM      7  C   UNL     1     142.606  76.583 217.636 -0.23 -0.00    +0.000 A  
DOCKED: ATOM      8  C   UNL     1     142.518  76.738 219.021 -0.31 -0.00    +0.007 A  
DOCKED: ATOM      9  C   UNL     1     142.199  77.989 219.577 -0.28 +0.01    -0.013 A  
DOCKED: ATOM     10  C   UNL     1     142.038  78.130 221.076 -0.03 -0.11    +0.162 C  
DOCKED: ENDROOT
DOCKED: BRANCH   1  11
DOCKED: ATOM     11  S   UNL     1     142.248  79.918 223.189 -0.60 -0.07    +0.239 S  
DOCKED: ATOM     12  O   UNL     1     143.669  80.336 223.446 -0.51 +0.06    -0.206 OA 
DOCKED: ATOM     13  O   UNL     1     141.946  78.703 224.021 -0.49 +0.06    -0.206 OA 
DOCKED: BRANCH  11  14
DOCKED: ATOM     14  C   UNL     1     141.141  81.252 223.625 -0.30 -0.02    +0.195 C  
DOCKED: BRANCH  14  15
DOCKED: ATOM     15  C   UNL     1     139.732  80.924 223.223 -0.36 +0.00    -0.031 A  
DOCKED: ATOM     16  C   UNL     1     139.058  79.846 223.820 -0.42 -0.00    +0.005 A  
DOCKED: ATOM     17  C   UNL     1     139.056  81.725 222.287 -0.22 -0.00    +0.005 A  
DOCKED: ATOM     18  C   UNL     1     137.733  79.564 223.474 -0.25 -0.00    +0.000 A  
DOCKED: ATOM     19  C   UNL     1     137.732  81.440 221.943 -0.13 -0.00    +0.000 A  
DOCKED: ATOM     20  C   UNL     1     137.071  80.360 222.535 -0.15 -0.00    +0.000 A  
DOCKED: ENDBRANCH  14  15
DOCKED: ENDBRANCH  11  14
DOCKED: ENDBRANCH   1  11
DOCKED: BRANCH  10  21
DOCKED: ATOM     21  C   UNL     1     140.749  77.485 221.514 -0.33 -0.00    +0.005 A  
DOCKED: ATOM     22  C   UNL     1     140.615  76.439 222.426 -0.32 -0.02    +0.089 A  
DOCKED: ATOM     23  C   UNL     1     139.478  77.706 221.015 -0.17 -0.00    +0.005 A  
DOCKED: ATOM     24  N   UNL     1     139.327  76.037 222.501 -0.17 +0.07    -0.361 N  
DOCKED: ATOM     25  C   UNL     1     139.001  78.601 220.055 -0.07 -0.00    +0.011 A  
DOCKED: ATOM     26  C   UNL     1     138.646  76.810 221.638 -0.21 -0.01    +0.046 A  
DOCKED: ATOM     27  C   UNL     1     137.633  78.557 219.738 -0.03 -0.00    +0.001 A  
DOCKED: ATOM     28  C   UNL     1     137.285  76.744 221.342 -0.12 -0.01    +0.026 A  
DOCKED: ATOM     29  C   UNL     1     136.778  77.634 220.378 -0.04 -0.00    +0.002 A  
DOCKED: ATOM     30  H   UNL     1     138.947  75.265 223.092 -0.48 -0.05    +0.166 HD 
DOCKED: ENDBRANCH  10  21
DOCKED: TORSDOF 4
DOCKED: TER
DOCKED: ENDMDL
________________________________________________________________________________


    FINAL DOCKED STATE:
    ________________________


Run:   18 / 20
Time taken for this run:   0.027s

DOCKED: MODEL        18
DOCKED: USER    Run = 18
DOCKED: USER
DOCKED: USER    Estimated Free Energy of Binding    =  -6.58 kcal/mol  [=(1)+(2)+(3)-(4)]
DOCKED: USER
DOCKED: USER    (1) Final Intermolecular Energy     =  -7.78 kcal/mol
DOCKED: USER        vdW + Hbond + desolv Energy     =  -7.76 kcal/mol
DOCKED: USER        Electrostatic Energy            =  -0.02 kcal/mol
DOCKED: USER        Moving Ligand-Fixed Receptor    =  -7.78 kcal/mol
DOCKED: USER        Moving Ligand-Moving Receptor   =  +0.00 kcal/mol
DOCKED: USER    (2) Final Total Internal Energy     =  -3.10 kcal/mol
DOCKED: USER    (3) Torsional Free Energy           =  +1.19 kcal/mol
DOCKED: USER    (4) Unbound System's Energy         =  -3.10 kcal/mol
DOCKED: USER
DOCKED: USER
DOCKED: REMARK SMILES O=S(=O)(Cc1ccccc1)N1C=Cc2ccccc2[C@@H]1c1c[nH]c2ccccc12
DOCKED: REMARK SMILES IDX 11 1 12 2 13 3 14 4 15 5 16 6 17 7 18 8 19 9 20 10 2 11 1 12
DOCKED: REMARK SMILES IDX 3 13 4 14 5 15 6 16 10 17 7 18 9 19 8 20 21 21 22 22 29 23
DOCKED: REMARK SMILES IDX 23 24 28 25 24 26 27 27 25 28 26 29
DOCKED: REMARK H PARENT 23 30
DOCKED: USER                              x       y       z     vdW  Elec       q    Type
DOCKED: USER                           _______ _______ _______ _____ _____    ______ ____
DOCKED: ROOT
DOCKED: ATOM      1  N   UNL     1     142.053  79.593 221.500 -0.23 +0.14    -0.265 N  
DOCKED: ATOM      2  C   UNL     1     141.674  80.665 220.620 -0.29 -0.04    +0.099 C  
DOCKED: ATOM      3  C   UNL     1     141.601  80.478 219.304 -0.27 -0.01    +0.027 C  
DOCKED: ATOM      4  C   UNL     1     141.922  79.168 218.716 -0.27 +0.01    -0.019 A  
DOCKED: ATOM      5  C   UNL     1     141.987  79.019 217.323 -0.23 -0.01    +0.008 A  
DOCKED: ATOM      6  C   UNL     1     142.312  77.780 216.763 -0.21 -0.00    +0.001 A  
DOCKED: ATOM      7  C   UNL     1     142.573  76.685 217.590 -0.23 -0.00    +0.000 A  
DOCKED: ATOM      8  C   UNL     1     142.506  76.824 218.979 -0.31 -0.00    +0.007 A  
DOCKED: ATOM      9  C   UNL     1     142.184  78.066 219.553 -0.27 +0.01    -0.013 A  
DOCKED: ATOM     10  C   UNL     1     142.047  78.189 221.056 -0.05 -0.11    +0.162 C  
DOCKED: ENDROOT
DOCKED: BRANCH   1  11
DOCKED: ATOM     11  S   UNL     1     142.273  79.956 223.185 -0.60 -0.07    +0.239 S  
DOCKED: ATOM     12  O   UNL     1     143.699  80.363 223.428 -0.52 +0.05    -0.206 OA 
DOCKED: ATOM     13  O   UNL     1     141.974  78.735 224.010 -0.48 +0.06    -0.206 OA 
DOCKED: BRANCH  11  14
DOCKED: ATOM     14  C   UNL     1     141.180  81.293 223.646 -0.28 -0.02    +0.195 C  
DOCKED: BRANCH  14  15
DOCKED: ATOM     15  C   UNL     1     139.763  80.975 223.262 -0.35 +0.00    -0.031 A  
DOCKED: ATOM     16  C   UNL     1     139.097  79.886 223.847 -0.43 -0.00    +0.005 A  
DOCKED: ATOM     17  C   UNL     1     139.073  81.799 222.356 -0.22 -0.00    +0.005 A  
DOCKED: ATOM     18  C   UNL     1     137.766  79.614 223.517 -0.25 -0.00    +0.000 A  
DOCKED: ATOM     19  C   UNL     1     137.743  81.523 222.027 -0.14 -0.00    +0.000 A  
DOCKED: ATOM     20  C   UNL     1     137.090  80.431 222.607 -0.16 -0.00    +0.000 A  
DOCKED: ENDBRANCH  14  15
DOCKED: ENDBRANCH  11  14
DOCKED: ENDBRANCH   1  11
DOCKED: BRANCH  10  21
DOCKED: ATOM     21  C   UNL     1     140.771  77.527 221.508 -0.33 -0.00    +0.005 A  
DOCKED: ATOM     22  C   UNL     1     140.663  76.459 222.398 -0.34 -0.02    +0.089 A  
DOCKED: ATOM     23  C   UNL     1     139.488  77.752 221.042 -0.17 -0.00    +0.005 A  
DOCKED: ATOM     24  N   UNL     1     139.379  76.048 222.492 -0.17 +0.07    -0.361 N  
DOCKED: ATOM     25  C   UNL     1     138.985  78.666 220.114 -0.08 -0.00    +0.011 A  
DOCKED: ATOM     26  C   UNL     1     138.674  76.837 221.663 -0.21 -0.01    +0.046 A  
DOCKED: ATOM     27  C   UNL     1     137.610  78.623 219.827 -0.03 -0.00    +0.001 A  
DOCKED: ATOM     28  C   UNL     1     137.307  76.771 221.395 -0.12 -0.01    +0.026 A  
DOCKED: ATOM     29  C   UNL     1     136.774  77.680 220.464 -0.04 -0.00    +0.002 A  
DOCKED: ATOM     30  H   UNL     1     139.016  75.260 223.073 -0.46 -0.05    +0.166 HD 
DOCKED: ENDBRANCH  10  21
DOCKED: TORSDOF 4
DOCKED: TER
DOCKED: ENDMDL
________________________________________________________________________________


    FINAL DOCKED STATE:
    ________________________


Run:   19 / 20
Time taken for this run:   0.027s

DOCKED: MODEL        19
DOCKED: USER    Run = 19
DOCKED: USER
DOCKED: USER    Estimated Free Energy of Binding    =  -6.61 kcal/mol  [=(1)+(2)+(3)-(4)]
DOCKED: USER
DOCKED: USER    (1) Final Intermolecular Energy     =  -7.80 kcal/mol
DOCKED: USER        vdW + Hbond + desolv Energy     =  -7.78 kcal/mol
DOCKED: USER        Electrostatic Energy            =  -0.02 kcal/mol
DOCKED: USER        Moving Ligand-Fixed Receptor    =  -7.80 kcal/mol
DOCKED: USER        Moving Ligand-Moving Receptor   =  +0.00 kcal/mol
DOCKED: USER    (2) Final Total Internal Energy     =  -3.09 kcal/mol
DOCKED: USER    (3) Torsional Free Energy           =  +1.19 kcal/mol
DOCKED: USER    (4) Unbound System's Energy         =  -3.09 kcal/mol
DOCKED: USER
DOCKED: USER
DOCKED: REMARK SMILES O=S(=O)(Cc1ccccc1)N1C=Cc2ccccc2[C@@H]1c1c[nH]c2ccccc12
DOCKED: REMARK SMILES IDX 11 1 12 2 13 3 14 4 15 5 16 6 17 7 18 8 19 9 20 10 2 11 1 12
DOCKED: REMARK SMILES IDX 3 13 4 14 5 15 6 16 10 17 7 18 9 19 8 20 21 21 22 22 29 23
DOCKED: REMARK SMILES IDX 23 24 28 25 24 26 27 27 25 28 26 29
DOCKED: REMARK H PARENT 23 30
DOCKED: USER                              x       y       z     vdW  Elec       q    Type
DOCKED: USER                           _______ _______ _______ _____ _____    ______ ____
DOCKED: ROOT
DOCKED: ATOM      1  N   UNL     1     142.035  79.606 221.529 -0.23 +0.13    -0.265 N  
DOCKED: ATOM      2  C   UNL     1     141.643  80.683 220.661 -0.29 -0.04    +0.099 C  
DOCKED: ATOM      3  C   UNL     1     141.571  80.509 219.343 -0.27 -0.01    +0.027 C  
DOCKED: ATOM      4  C   UNL     1     141.903  79.208 218.741 -0.27 +0.01    -0.019 A  
DOCKED: ATOM      5  C   UNL     1     141.966  79.073 217.347 -0.23 -0.01    +0.008 A  
DOCKED: ATOM      6  C   UNL     1     142.301  77.843 216.774 -0.21 -0.00    +0.001 A  
DOCKED: ATOM      7  C   UNL     1     142.575  76.742 217.589 -0.24 -0.00    +0.000 A  
DOCKED: ATOM      8  C   UNL     1     142.509  76.867 218.979 -0.32 -0.00    +0.007 A  
DOCKED: ATOM      9  C   UNL     1     142.176  78.100 219.567 -0.27 +0.01    -0.013 A  
DOCKED: ATOM     10  C   UNL     1     142.040  78.206 221.071 -0.06 -0.11    +0.162 C  
DOCKED: ENDROOT
DOCKED: BRANCH   1  11
DOCKED: ATOM     11  S   UNL     1     142.254  79.954 223.217 -0.60 -0.07    +0.239 S  
DOCKED: ATOM     12  O   UNL     1     143.670  80.395 223.458 -0.53 +0.05    -0.206 OA 
DOCKED: ATOM     13  O   UNL     1     141.992  78.716 224.029 -0.48 +0.06    -0.206 OA 
DOCKED: BRANCH  11  14
DOCKED: ATOM     14  C   UNL     1     141.129  81.256 223.701 -0.28 -0.02    +0.195 C  
DOCKED: BRANCH  14  15
DOCKED: ATOM     15  C   UNL     1     139.726  80.928 223.277 -0.36 +0.00    -0.031 A  
DOCKED: ATOM     16  C   UNL     1     139.053  79.832 223.842 -0.43 -0.00    +0.005 A  
DOCKED: ATOM     17  C   UNL     1     139.054  81.747 222.354 -0.22 -0.00    +0.005 A  
DOCKED: ATOM     18  C   UNL     1     137.733  79.550 223.476 -0.25 -0.00    +0.000 A  
DOCKED: ATOM     19  C   UNL     1     137.735  81.462 221.989 -0.14 -0.00    +0.000 A  
DOCKED: ATOM     20  C   UNL     1     137.075  80.364 222.549 -0.15 -0.00    +0.000 A  
DOCKED: ENDBRANCH  14  15
DOCKED: ENDBRANCH  11  14
DOCKED: ENDBRANCH   1  11
DOCKED: BRANCH  10  21
DOCKED: ATOM     21  C   UNL     1     140.771  77.528 221.518 -0.33 -0.00    +0.005 A  
DOCKED: ATOM     22  C   UNL     1     140.672  76.471 222.423 -0.33 -0.02    +0.089 A  
DOCKED: ATOM     23  C   UNL     1     139.490  77.723 221.035 -0.17 -0.00    +0.005 A  
DOCKED: ATOM     24  N   UNL     1     139.395  76.039 222.508 -0.17 +0.07    -0.361 N  
DOCKED: ATOM     25  C   UNL     1     138.982  78.613 220.087 -0.07 -0.00    +0.011 A  
DOCKED: ATOM     26  C   UNL     1     138.686  76.803 221.659 -0.21 -0.01    +0.046 A  
DOCKED: ATOM     27  C   UNL     1     137.611  78.540 219.785 -0.03 -0.00    +0.001 A  
DOCKED: ATOM     28  C   UNL     1     137.323  76.707 221.377 -0.12 -0.01    +0.026 A  
DOCKED: ATOM     29  C   UNL     1     136.785  77.592 220.427 -0.04 -0.00    +0.002 A  
DOCKED: ATOM     30  H   UNL     1     139.040  75.253 223.097 -0.47 -0.05    +0.166 HD 
DOCKED: ENDBRANCH  10  21
DOCKED: TORSDOF 4
DOCKED: TER
DOCKED: ENDMDL
________________________________________________________________________________


    FINAL DOCKED STATE:
    ________________________


Run:   20 / 20
Time taken for this run:   0.027s

DOCKED: MODEL        20
DOCKED: USER    Run = 20
DOCKED: USER
DOCKED: USER    Estimated Free Energy of Binding    =  -6.79 kcal/mol  [=(1)+(2)+(3)-(4)]
DOCKED: USER
DOCKED: USER    (1) Final Intermolecular Energy     =  -7.98 kcal/mol
DOCKED: USER        vdW + Hbond + desolv Energy     =  -7.93 kcal/mol
DOCKED: USER        Electrostatic Energy            =  -0.06 kcal/mol
DOCKED: USER        Moving Ligand-Fixed Receptor    =  -7.98 kcal/mol
DOCKED: USER        Moving Ligand-Moving Receptor   =  +0.00 kcal/mol
DOCKED: USER    (2) Final Total Internal Energy     =  -2.77 kcal/mol
DOCKED: USER    (3) Torsional Free Energy           =  +1.19 kcal/mol
DOCKED: USER    (4) Unbound System's Energy         =  -2.77 kcal/mol
DOCKED: USER
DOCKED: USER
DOCKED: REMARK SMILES O=S(=O)(Cc1ccccc1)N1C=Cc2ccccc2[C@@H]1c1c[nH]c2ccccc12
DOCKED: REMARK SMILES IDX 11 1 12 2 13 3 14 4 15 5 16 6 17 7 18 8 19 9 20 10 2 11 1 12
DOCKED: REMARK SMILES IDX 3 13 4 14 5 15 6 16 10 17 7 18 9 19 8 20 21 21 22 22 29 23
DOCKED: REMARK SMILES IDX 23 24 28 25 24 26 27 27 25 28 26 29
DOCKED: REMARK H PARENT 23 30
DOCKED: USER                              x       y       z     vdW  Elec       q    Type
DOCKED: USER                           _______ _______ _______ _____ _____    ______ ____
DOCKED: ROOT
DOCKED: ATOM      1  N   UNL     1     139.836  77.463 222.308 -0.20 +0.06    -0.265 N  
DOCKED: ATOM      2  C   UNL     1     138.840  78.479 222.509 -0.25 -0.02    +0.099 C  
DOCKED: ATOM      3  C   UNL     1     139.178  79.695 222.934 -0.33 -0.00    +0.027 C  
DOCKED: ATOM      4  C   UNL     1     140.584  80.023 223.221 -0.45 +0.00    -0.019 A  
DOCKED: ATOM      5  C   UNL     1     140.914  81.253 223.806 -0.37 -0.00    +0.008 A  
DOCKED: ATOM      6  C   UNL     1     142.247  81.557 224.098 -0.59 -0.00    +0.001 A  
DOCKED: ATOM      7  C   UNL     1     143.256  80.636 223.807 -0.63 -0.00    +0.000 A  
DOCKED: ATOM      8  C   UNL     1     142.935  79.409 223.219 -0.45 -0.00    +0.007 A  
DOCKED: ATOM      9  C   UNL     1     141.598  79.091 222.925 -0.54 +0.00    -0.013 A  
DOCKED: ATOM     10  C   UNL     1     141.269  77.789 222.225 -0.26 -0.07    +0.162 C  
DOCKED: ENDROOT
DOCKED: BRANCH   1  11
DOCKED: ATOM     11  S   UNL     1     139.299  75.861 221.900 -0.29 -0.05    +0.239 S  
DOCKED: ATOM     12  O   UNL     1     138.005  75.571 222.607 -0.23 +0.06    -0.206 OA 
DOCKED: ATOM     13  O   UNL     1     140.324  74.854 222.343 -0.72 -0.00    -0.206 OA 
DOCKED: BRANCH  11  14
DOCKED: ATOM     14  C   UNL     1     139.056  75.753 220.133 -0.05 -0.05    +0.195 C  
DOCKED: BRANCH  14  15
DOCKED: ATOM     15  C   UNL     1     138.379  76.991 219.615 -0.04 +0.01    -0.031 A  
DOCKED: ATOM     16  C   UNL     1     137.120  77.370 220.110 -0.03 -0.00    +0.005 A  
DOCKED: ATOM     17  C   UNL     1     139.024  77.809 218.673 -0.03 -0.00    +0.005 A  
DOCKED: ATOM     18  C   UNL     1     136.509  78.542 219.657 -0.02 -0.00    +0.000 A  
DOCKED: ATOM     19  C   UNL     1     138.408  78.980 218.220 -0.01 -0.00    +0.000 A  
DOCKED: ATOM     20  C   UNL     1     137.152  79.346 218.711 -0.01 -0.00    +0.000 A  
DOCKED: ENDBRANCH  14  15
DOCKED: ENDBRANCH  11  14
DOCKED: ENDBRANCH   1  11
DOCKED: BRANCH  10  21
DOCKED: ATOM     21  C   UNL     1     141.683  77.868 220.778 -0.33 -0.00    +0.005 A  
DOCKED: ATOM     22  C   UNL     1     142.217  76.833 220.012 -0.28 -0.05    +0.089 A  
DOCKED: ATOM     23  C   UNL     1     141.738  78.992 219.973 -0.29 -0.00    +0.005 A  
DOCKED: ATOM     24  N   UNL     1     142.575  77.284 218.790 -0.15 +0.24    -0.361 N  
DOCKED: ATOM     25  C   UNL     1     141.375  80.319 220.207 -0.29 -0.00    +0.011 A  
DOCKED: ATOM     26  C   UNL     1     142.283  78.596 218.777 -0.27 -0.03    +0.046 A  
DOCKED: ATOM     27  C   UNL     1     141.587  81.251 219.175 -0.27 -0.00    +0.001 A  
DOCKED: ATOM     28  C   UNL     1     142.506  79.499 217.738 -0.30 -0.03    +0.026 A  
DOCKED: ATOM     29  C   UNL     1     142.150  80.843 217.947 -0.31 -0.00    +0.002 A  
DOCKED: ATOM     30  H   UNL     1     143.013  76.728 218.022 +0.05 -0.10    +0.166 HD 
DOCKED: ENDBRANCH  10  21
DOCKED: TORSDOF 4
DOCKED: TER
DOCKED: ENDMDL
________________________________________________________________________________


    CLUSTERING HISTOGRAM
    ____________________


________________________________________________________________________________
     |           |     |           |     |
Clus | Lowest    | Run | Mean      | Num | Histogram
-ter | Binding   |     | Binding   | in  |
Rank | Energy    |     | Energy    | Clus|    5    10   15   20   25   30   35
_____|___________|_____|___________|_____|____:____|____:____|____:____|____:___
   1 |     -7.83 |  14 |     -7.83 |   1 |#
   2 |     -7.71 |  12 |     -7.71 |   1 |#
   3 |     -6.79 |  20 |     -6.79 |   2 |##
   4 |     -6.62 |  10 |     -6.59 |  16 |################
_____|___________|_____|___________|_____|______________________________________


    RMSD TABLE
    __________


_______________________________________________________________________
     |      |      |           |         |                 |
Rank | Sub- | Run  | Binding   | Cluster | Reference       | Grep
     | Rank |      | Energy    | RMSD    | RMSD            | Pattern
_____|______|______|___________|_________|_________________|___________
   1      1     14       -7.83      0.00    270.50           RANKING
   2      1     12       -7.71      0.00    269.99           RANKING
   3      1     20       -6.79      0.00    270.23           RANKING
   3      2      8       -6.79      0.05    270.24           RANKING
   4      1     10       -6.62      0.00    270.59           RANKING
   4      2      5       -6.61      0.04    270.57           RANKING
   4      3     15       -6.61      0.02    270.59           RANKING
   4      4      6       -6.61      0.02    270.58           RANKING
   4      5     19       -6.61      0.05    270.57           RANKING
   4      6      7       -6.61      0.04    270.58           RANKING
   4      7      1       -6.60      0.09    270.54           RANKING
   4      8      4       -6.60      0.31    270.57           RANKING
   4      9      3       -6.59      0.12    270.56           RANKING
   4     10     16       -6.59      0.15    270.56           RANKING
   4     11     17       -6.59      0.14    270.54           RANKING
   4     12     13       -6.59      0.08    270.55           RANKING
   4     13      9       -6.58      0.11    270.53           RANKING
   4     14     18       -6.58      0.09    270.57           RANKING
   4     15      2       -6.58      0.12    270.56           RANKING
   4     16     11       -6.54      0.32    270.58           RANKING

Run time 0.506 sec
Idle time 0.000 sec
