AutoDock-GPU version: v1.6

**********************************************************
**    AutoDock-GPU AUTODOCKTOOLS-COMPATIBLE DLG FILE    **
**********************************************************


    DOCKING PARAMETERS
    ________________________


Ligand file:                               /home/a/REINVENT4/ReinventStudies/scoringData/graph-dock/graph-DockGPU/node-autodockgpu/inputs/YCOHEPDJLXZVBZ-DEOSSOPVNA-N.pdbqt
Grid fld file:                             /home/a/REINVENT4/ReinventStudies/mols/Rad51/maps/rad51_receptor.maps.fld

Random seed:                               42
Number of runs:                            20
Number of energy evaluations:              1132076
Number of generations:                     42000
Size of population:                        150
Rate of crossover:                         80.000000%
Tournament selection probability limit:    60.000000%
Rate of mutation:                          2.000000%
Maximal allowed delta movement:            +/- 6.000000A
Maximal allowed delta angle:               +/- 90.000000

Rate of local search:                      100.000000%
Maximal number of local search iterations: 300
Rho lower bound:                           0.010000
Spread of local search delta movement:     2.000000A
Spread of local search delta angle:        74.999999
Limit of consecutive successes/failures:   4

Handle symmetry during clustering:         YES
RMSD tolerance:                            2.000000A

Program call in command line was:          /home/a/REINVENT4/ReinventStudies/adgpu-v1.6_linux_x64_cuda12_128wi --filelist batch.txt --heuristics 1 --nrun 20 --psize 150 --lsit 300 --seed 42 --heurmax 12000000 


    GRID PARAMETERS
    ________________________


Receptor name:                             rad51_receptor
Number of grid points (x, y, z):           53, 53, 53
Grid center (x, y, z):                     139.950000, 75.640000, 221.970000A
Grid size (x, y, z):                       19.500000, 19.500000, 19.500000A
Grid spacing:                              0.375000A


    LIGAND PARAMETERS
    ________________________


Ligand name:                               /home/a/REINVENT4/ReinventStudies/scoringData/graph-dock/graph-DockGPU/node-autodockgpu/inputs/YCOHEPDJLXZVBZ-DEOSSOPVNA-N
Number of atoms:                           30
Number of rotatable bonds:                 4
Number of atom types:                      6


    DUMMY DATA (only for ADT-compatibility)
    ________________________


DPF> outlev 1
DPF> ga_run 20
DPF> fld /home/a/REINVENT4/ReinventStudies/mols/Rad51/maps/rad51_receptor.maps.fld
DPF> move /home/a/REINVENT4/ReinventStudies/scoringData/graph-dock/graph-DockGPU/node-autodockgpu/inputs/YCOHEPDJLXZVBZ-DEOSSOPVNA-N.pdbqt


    COUNTER STATES
    ________________________


Number of energy evaluations performed:    560150
Number of generations used:                25


    INPUT LIGAND PDBQT FILE:
    ________________________


INPUT-LIGAND-PDBQT: REMARK SMILES O=S(=O)(Cc1ccccc1)N1C=Cc2ccccc2[C@H]1c1c[nH]c2ccccc12
INPUT-LIGAND-PDBQT: REMARK SMILES IDX 11 1 12 2 13 3 14 4 15 5 16 6 17 7 18 8 19 9 20 10 2 11 1 12
INPUT-LIGAND-PDBQT: REMARK SMILES IDX 3 13 4 14 5 15 6 16 10 17 7 18 9 19 8 20 21 21 22 22 29 23
INPUT-LIGAND-PDBQT: REMARK SMILES IDX 23 24 28 25 24 26 27 27 25 28 26 29
INPUT-LIGAND-PDBQT: REMARK H PARENT 23 30
INPUT-LIGAND-PDBQT: ROOT
INPUT-LIGAND-PDBQT: ATOM      1  N   UNL     1       0.075   0.596  -1.214  1.00  0.00    -0.265 N 
INPUT-LIGAND-PDBQT: ATOM      2  C   UNL     1      -1.010   0.738  -2.144  1.00  0.00     0.099 C 
INPUT-LIGAND-PDBQT: ATOM      3  C   UNL     1      -2.136   1.359  -1.804  1.00  0.00     0.027 C 
INPUT-LIGAND-PDBQT: ATOM      4  C   UNL     1      -2.310   1.921  -0.458  1.00  0.00    -0.019 A 
INPUT-LIGAND-PDBQT: ATOM      5  C   UNL     1      -3.488   2.611  -0.136  1.00  0.00     0.008 A 
INPUT-LIGAND-PDBQT: ATOM      6  C   UNL     1      -3.656   3.162   1.137  1.00  0.00     0.001 A 
INPUT-LIGAND-PDBQT: ATOM      7  C   UNL     1      -2.648   3.031   2.094  1.00  0.00     0.000 A 
INPUT-LIGAND-PDBQT: ATOM      8  C   UNL     1      -1.472   2.343   1.783  1.00  0.00     0.007 A 
INPUT-LIGAND-PDBQT: ATOM      9  C   UNL     1      -1.295   1.774   0.509  1.00  0.00    -0.013 A 
INPUT-LIGAND-PDBQT: ATOM     10  C   UNL     1      -0.019   1.018   0.196  1.00  0.00     0.162 C 
INPUT-LIGAND-PDBQT: ENDROOT
INPUT-LIGAND-PDBQT: BRANCH   1  11
INPUT-LIGAND-PDBQT: ATOM     11  S   UNL     1       1.539  -0.146  -1.786  1.00  0.00     0.239 S 
INPUT-LIGAND-PDBQT: ATOM     12  O   UNL     1       1.913   0.440  -3.119  1.00  0.00    -0.206 OA
INPUT-LIGAND-PDBQT: ATOM     13  O   UNL     1       2.657   0.119  -0.815  1.00  0.00    -0.206 OA
INPUT-LIGAND-PDBQT: BRANCH  11  14
INPUT-LIGAND-PDBQT: ATOM     14  C   UNL     1       1.273  -1.905  -1.954  1.00  0.00     0.195 C 
INPUT-LIGAND-PDBQT: BRANCH  14  15
INPUT-LIGAND-PDBQT: ATOM     15  C   UNL     1       2.569  -2.653  -1.825  1.00  0.00    -0.031 A 
INPUT-LIGAND-PDBQT: ATOM     16  C   UNL     1       2.986  -3.134  -0.572  1.00  0.00     0.005 A 
INPUT-LIGAND-PDBQT: ATOM     17  C   UNL     1       3.402  -2.828  -2.943  1.00  0.00     0.005 A 
INPUT-LIGAND-PDBQT: ATOM     18  C   UNL     1       4.209  -3.799  -0.446  1.00  0.00     0.000 A 
INPUT-LIGAND-PDBQT: ATOM     19  C   UNL     1       4.624  -3.494  -2.812  1.00  0.00     0.000 A 
INPUT-LIGAND-PDBQT: ATOM     20  C   UNL     1       5.027  -3.981  -1.565  1.00  0.00     0.000 A 
INPUT-LIGAND-PDBQT: ENDBRANCH  14  15
INPUT-LIGAND-PDBQT: ENDBRANCH  11  14
INPUT-LIGAND-PDBQT: ENDBRANCH   1  11
INPUT-LIGAND-PDBQT: BRANCH  10  21
INPUT-LIGAND-PDBQT: ATOM     21  C   UNL     1       0.119  -0.179   1.105  1.00  0.00     0.005 A 
INPUT-LIGAND-PDBQT: ATOM     22  C   UNL     1       1.156  -0.405   2.005  1.00  0.00     0.089 A 
INPUT-LIGAND-PDBQT: ATOM     23  C   UNL     1      -0.697  -1.294   1.193  1.00  0.00     0.005 A 
INPUT-LIGAND-PDBQT: ATOM     24  N   UNL     1       0.999  -1.597   2.623  1.00  0.00    -0.361 N 
INPUT-LIGAND-PDBQT: ATOM     25  C   UNL     1      -1.870  -1.642   0.520  1.00  0.00     0.011 A 
INPUT-LIGAND-PDBQT: ATOM     26  C   UNL     1      -0.127  -2.129   2.121  1.00  0.00     0.046 A 
INPUT-LIGAND-PDBQT: ATOM     27  C   UNL     1      -2.459  -2.883   0.822  1.00  0.00     0.001 A 
INPUT-LIGAND-PDBQT: ATOM     28  C   UNL     1      -0.688  -3.366   2.438  1.00  0.00     0.026 A 
INPUT-LIGAND-PDBQT: ATOM     29  C   UNL     1      -1.870  -3.741   1.777  1.00  0.00     0.002 A 
INPUT-LIGAND-PDBQT: ATOM     30  H   UNL     1       1.635  -2.020   3.335  1.00  0.00     0.166 HD
INPUT-LIGAND-PDBQT: ENDBRANCH  10  21
INPUT-LIGAND-PDBQT: TORSDOF 4


    FINAL DOCKED STATE:
    ________________________


Run:   1 / 20
Time taken for this run:   0.022s

DOCKED: MODEL        1
DOCKED: USER    Run = 1
DOCKED: USER
DOCKED: USER    Estimated Free Energy of Binding    =  -6.74 kcal/mol  [=(1)+(2)+(3)-(4)]
DOCKED: USER
DOCKED: USER    (1) Final Intermolecular Energy     =  -7.93 kcal/mol
DOCKED: USER        vdW + Hbond + desolv Energy     =  -7.87 kcal/mol
DOCKED: USER        Electrostatic Energy            =  -0.06 kcal/mol
DOCKED: USER        Moving Ligand-Fixed Receptor    =  -7.93 kcal/mol
DOCKED: USER        Moving Ligand-Moving Receptor   =  +0.00 kcal/mol
DOCKED: USER    (2) Final Total Internal Energy     =  -2.68 kcal/mol
DOCKED: USER    (3) Torsional Free Energy           =  +1.19 kcal/mol
DOCKED: USER    (4) Unbound System's Energy         =  -2.68 kcal/mol
DOCKED: USER
DOCKED: USER
DOCKED: REMARK SMILES O=S(=O)(Cc1ccccc1)N1C=Cc2ccccc2[C@H]1c1c[nH]c2ccccc12
DOCKED: REMARK SMILES IDX 11 1 12 2 13 3 14 4 15 5 16 6 17 7 18 8 19 9 20 10 2 11 1 12
DOCKED: REMARK SMILES IDX 3 13 4 14 5 15 6 16 10 17 7 18 9 19 8 20 21 21 22 22 29 23
DOCKED: REMARK SMILES IDX 23 24 28 25 24 26 27 27 25 28 26 29
DOCKED: REMARK H PARENT 23 30
DOCKED: USER                              x       y       z     vdW  Elec       q    Type
DOCKED: USER                           _______ _______ _______ _____ _____    ______ ____
DOCKED: ROOT
DOCKED: ATOM      1  N   UNL     1     139.085  79.536 220.856 -0.03 +0.06    -0.265 N  
DOCKED: ATOM      2  C   UNL     1     138.522  80.565 221.686 -0.13 -0.02    +0.099 C  
DOCKED: ATOM      3  C   UNL     1     139.240  81.159 222.634 -0.28 -0.00    +0.027 C  
DOCKED: ATOM      4  C   UNL     1     140.640  80.780 222.869 -0.41 +0.00    -0.019 A  
DOCKED: ATOM      5  C   UNL     1     141.391  81.452 223.844 -0.39 -0.00    +0.008 A  
DOCKED: ATOM      6  C   UNL     1     142.728  81.109 224.064 -0.61 -0.00    +0.001 A  
DOCKED: ATOM      7  C   UNL     1     143.323  80.096 223.309 -0.56 -0.00    +0.000 A  
DOCKED: ATOM      8  C   UNL     1     142.581  79.420 222.337 -0.52 -0.00    +0.007 A  
DOCKED: ATOM      9  C   UNL     1     141.232  79.748 222.114 -0.41 +0.00    -0.013 A  
DOCKED: ATOM     10  C   UNL     1     140.440  78.992 221.066 -0.17 -0.05    +0.162 C  
DOCKED: ENDROOT
DOCKED: BRANCH   1  11
DOCKED: ATOM     11  S   UNL     1     138.094  78.890 219.583 -0.02 -0.05    +0.239 S  
DOCKED: ATOM     12  O   UNL     1     138.140  77.388 219.621 -0.02 +0.05    -0.206 OA 
DOCKED: ATOM     13  O   UNL     1     136.669  79.331 219.774 -0.01 +0.04    -0.206 OA 
DOCKED: BRANCH  11  14
DOCKED: ATOM     14  C   UNL     1     138.714  79.472 218.011 -0.01 -0.05    +0.195 C  
DOCKED: BRANCH  14  15
DOCKED: ATOM     15  C   UNL     1     140.169  79.828 218.113 -0.07 +0.01    -0.031 A  
DOCKED: ATOM     16  C   UNL     1     140.555  81.134 218.460 -0.12 -0.00    +0.005 A  
DOCKED: ATOM     17  C   UNL     1     141.156  78.876 217.806 -0.14 -0.00    +0.005 A  
DOCKED: ATOM     18  C   UNL     1     141.910  81.475 218.519 -0.28 -0.00    +0.000 A  
DOCKED: ATOM     19  C   UNL     1     142.509  79.221 217.868 -0.32 -0.00    +0.000 A  
DOCKED: ATOM     20  C   UNL     1     142.886  80.519 218.226 -0.32 -0.00    +0.000 A  
DOCKED: ENDBRANCH  14  15
DOCKED: ENDBRANCH  11  14
DOCKED: ENDBRANCH   1  11
DOCKED: BRANCH  10  21
DOCKED: ATOM     21  C   UNL     1     140.360  77.527 221.422 -0.28 -0.00    +0.005 A  
DOCKED: ATOM     22  C   UNL     1     139.479  76.957 222.336 -0.31 -0.02    +0.089 A  
DOCKED: ATOM     23  C   UNL     1     141.155  76.486 220.976 -0.30 -0.00    +0.005 A  
DOCKED: ATOM     24  N   UNL     1     139.709  75.630 222.456 -0.12 +0.05    -0.361 N  
DOCKED: ATOM     25  C   UNL     1     142.221  76.452 220.073 -0.31 -0.01    +0.011 A  
DOCKED: ATOM     26  C   UNL     1     140.730  75.356 221.628 -0.33 -0.01    +0.046 A  
DOCKED: ATOM     27  C   UNL     1     142.853  75.216 219.847 -0.34 -0.00    +0.001 A  
DOCKED: ATOM     28  C   UNL     1     141.340  74.118 221.425 -0.25 -0.00    +0.026 A  
DOCKED: ATOM     29  C   UNL     1     142.414  74.054 220.521 -0.29 -0.00    +0.002 A  
DOCKED: ATOM     30  H   UNL     1     139.203  74.962 223.078 -0.51 -0.04    +0.166 HD 
DOCKED: ENDBRANCH  10  21
DOCKED: TORSDOF 4
DOCKED: TER
DOCKED: ENDMDL
________________________________________________________________________________


    FINAL DOCKED STATE:
    ________________________


Run:   2 / 20
Time taken for this run:   0.022s

DOCKED: MODEL        2
DOCKED: USER    Run = 2
DOCKED: USER
DOCKED: USER    Estimated Free Energy of Binding    =  -7.59 kcal/mol  [=(1)+(2)+(3)-(4)]
DOCKED: USER
DOCKED: USER    (1) Final Intermolecular Energy     =  -8.78 kcal/mol
DOCKED: USER        vdW + Hbond + desolv Energy     =  -8.69 kcal/mol
DOCKED: USER        Electrostatic Energy            =  -0.09 kcal/mol
DOCKED: USER        Moving Ligand-Fixed Receptor    =  -8.78 kcal/mol
DOCKED: USER        Moving Ligand-Moving Receptor   =  +0.00 kcal/mol
DOCKED: USER    (2) Final Total Internal Energy     =  -2.17 kcal/mol
DOCKED: USER    (3) Torsional Free Energy           =  +1.19 kcal/mol
DOCKED: USER    (4) Unbound System's Energy         =  -2.17 kcal/mol
DOCKED: USER
DOCKED: USER
DOCKED: REMARK SMILES O=S(=O)(Cc1ccccc1)N1C=Cc2ccccc2[C@H]1c1c[nH]c2ccccc12
DOCKED: REMARK SMILES IDX 11 1 12 2 13 3 14 4 15 5 16 6 17 7 18 8 19 9 20 10 2 11 1 12
DOCKED: REMARK SMILES IDX 3 13 4 14 5 15 6 16 10 17 7 18 9 19 8 20 21 21 22 22 29 23
DOCKED: REMARK SMILES IDX 23 24 28 25 24 26 27 27 25 28 26 29
DOCKED: REMARK H PARENT 23 30
DOCKED: USER                              x       y       z     vdW  Elec       q    Type
DOCKED: USER                           _______ _______ _______ _____ _____    ______ ____
DOCKED: ROOT
DOCKED: ATOM      1  N   UNL     1     141.354  78.288 219.766 -0.11 +0.13    -0.265 N  
DOCKED: ATOM      2  C   UNL     1     141.125  79.631 219.311 -0.19 -0.05    +0.099 C  
DOCKED: ATOM      3  C   UNL     1     141.262  80.671 220.129 -0.28 -0.01    +0.027 C  
DOCKED: ATOM      4  C   UNL     1     141.650  80.481 221.532 -0.40 +0.01    -0.019 A  
DOCKED: ATOM      5  C   UNL     1     141.832  81.595 222.364 -0.46 -0.00    +0.008 A  
DOCKED: ATOM      6  C   UNL     1     142.216  81.424 223.697 -0.60 -0.00    +0.001 A  
DOCKED: ATOM      7  C   UNL     1     142.425  80.141 224.205 -0.51 -0.00    +0.000 A  
DOCKED: ATOM      8  C   UNL     1     142.244  79.024 223.384 -0.57 -0.00    +0.007 A  
DOCKED: ATOM      9  C   UNL     1     141.846  79.182 222.044 -0.47 +0.01    -0.013 A  
DOCKED: ATOM     10  C   UNL     1     141.640  77.958 221.174 -0.22 -0.09    +0.162 C  
DOCKED: ENDROOT
DOCKED: BRANCH   1  11
DOCKED: ATOM     11  S   UNL     1     141.243  77.008 218.595 -0.12 -0.10    +0.239 S  
DOCKED: ATOM     12  O   UNL     1     140.439  75.873 219.165 -0.05 +0.06    -0.206 OA 
DOCKED: ATOM     13  O   UNL     1     140.554  77.510 217.356 -0.03 +0.08    -0.206 OA 
DOCKED: BRANCH  11  14
DOCKED: ATOM     14  C   UNL     1     142.890  76.440 218.197 -0.21 -0.11    +0.195 C  
DOCKED: BRANCH  14  15
DOCKED: ATOM     15  C   UNL     1     143.226  75.199 218.974 -0.28 +0.01    -0.031 A  
DOCKED: ATOM     16  C   UNL     1     142.646  73.968 218.626 -0.13 -0.00    +0.005 A  
DOCKED: ATOM     17  C   UNL     1     144.077  75.269 220.090 -0.42 -0.00    +0.005 A  
DOCKED: ATOM     18  C   UNL     1     142.931  72.820 219.371 -0.16 -0.00    +0.000 A  
DOCKED: ATOM     19  C   UNL     1     144.360  74.119 220.832 -0.43 -0.00    +0.000 A  
DOCKED: ATOM     20  C   UNL     1     143.789  72.895 220.473 -0.36 -0.00    +0.000 A  
DOCKED: ENDBRANCH  14  15
DOCKED: ENDBRANCH  11  14
DOCKED: ENDBRANCH   1  11
DOCKED: BRANCH  10  21
DOCKED: ATOM     21  C   UNL     1     140.538  77.094 221.737 -0.35 -0.00    +0.005 A  
DOCKED: ATOM     22  C   UNL     1     140.622  75.728 221.994 -0.32 -0.02    +0.089 A  
DOCKED: ATOM     23  C   UNL     1     139.238  77.450 222.053 -0.29 -0.00    +0.005 A  
DOCKED: ATOM     24  N   UNL     1     139.439  75.255 222.445 -0.10 +0.06    -0.361 N  
DOCKED: ATOM     25  C   UNL     1     138.566  78.672 221.981 -0.20 -0.00    +0.011 A  
DOCKED: ATOM     26  C   UNL     1     138.606  76.307 222.475 -0.29 -0.01    +0.046 A  
DOCKED: ATOM     27  C   UNL     1     137.211  78.702 222.357 -0.18 -0.00    +0.001 A  
DOCKED: ATOM     28  C   UNL     1     137.263  76.307 222.851 -0.27 -0.01    +0.026 A  
DOCKED: ATOM     29  C   UNL     1     136.563  77.524 222.791 -0.20 -0.00    +0.002 A  
DOCKED: ATOM     30  H   UNL     1     139.220  74.267 222.703 -0.49 -0.04    +0.166 HD 
DOCKED: ENDBRANCH  10  21
DOCKED: TORSDOF 4
DOCKED: TER
DOCKED: ENDMDL
________________________________________________________________________________


    FINAL DOCKED STATE:
    ________________________


Run:   3 / 20
Time taken for this run:   0.022s

DOCKED: MODEL        3
DOCKED: USER    Run = 3
DOCKED: USER
DOCKED: USER    Estimated Free Energy of Binding    =  -7.76 kcal/mol  [=(1)+(2)+(3)-(4)]
DOCKED: USER
DOCKED: USER    (1) Final Intermolecular Energy     =  -8.95 kcal/mol
DOCKED: USER        vdW + Hbond + desolv Energy     =  -8.86 kcal/mol
DOCKED: USER        Electrostatic Energy            =  -0.09 kcal/mol
DOCKED: USER        Moving Ligand-Fixed Receptor    =  -8.95 kcal/mol
DOCKED: USER        Moving Ligand-Moving Receptor   =  +0.00 kcal/mol
DOCKED: USER    (2) Final Total Internal Energy     =  -2.01 kcal/mol
DOCKED: USER    (3) Torsional Free Energy           =  +1.19 kcal/mol
DOCKED: USER    (4) Unbound System's Energy         =  -2.01 kcal/mol
DOCKED: USER
DOCKED: USER
DOCKED: REMARK SMILES O=S(=O)(Cc1ccccc1)N1C=Cc2ccccc2[C@H]1c1c[nH]c2ccccc12
DOCKED: REMARK SMILES IDX 11 1 12 2 13 3 14 4 15 5 16 6 17 7 18 8 19 9 20 10 2 11 1 12
DOCKED: REMARK SMILES IDX 3 13 4 14 5 15 6 16 10 17 7 18 9 19 8 20 21 21 22 22 29 23
DOCKED: REMARK SMILES IDX 23 24 28 25 24 26 27 27 25 28 26 29
DOCKED: REMARK H PARENT 23 30
DOCKED: USER                              x       y       z     vdW  Elec       q    Type
DOCKED: USER                           _______ _______ _______ _____ _____    ______ ____
DOCKED: ROOT
DOCKED: ATOM      1  N   UNL     1     141.536  78.158 219.782 -0.13 +0.14    -0.265 N  
DOCKED: ATOM      2  C   UNL     1     141.321  79.482 219.268 -0.20 -0.05    +0.099 C  
DOCKED: ATOM      3  C   UNL     1     141.399  80.551 220.056 -0.29 -0.01    +0.027 C  
DOCKED: ATOM      4  C   UNL     1     141.706  80.412 221.486 -0.41 +0.01    -0.019 A  
DOCKED: ATOM      5  C   UNL     1     141.828  81.557 222.288 -0.46 -0.00    +0.008 A  
DOCKED: ATOM      6  C   UNL     1     142.135  81.436 223.646 -0.59 -0.00    +0.001 A  
DOCKED: ATOM      7  C   UNL     1     142.326  80.173 224.209 -0.50 -0.00    +0.000 A  
DOCKED: ATOM      8  C   UNL     1     142.204  79.027 223.418 -0.59 -0.00    +0.007 A  
DOCKED: ATOM      9  C   UNL     1     141.885  79.134 222.053 -0.47 +0.01    -0.013 A  
DOCKED: ATOM     10  C   UNL     1     141.742  77.879 221.215 -0.17 -0.10    +0.162 C  
DOCKED: ENDROOT
DOCKED: BRANCH   1  11
DOCKED: ATOM     11  S   UNL     1     141.507  76.838 218.652 -0.15 -0.11    +0.239 S  
DOCKED: ATOM     12  O   UNL     1     140.666  75.721 219.204 -0.05 +0.06    -0.206 OA 
DOCKED: ATOM     13  O   UNL     1     140.904  77.294 217.351 -0.04 +0.09    -0.206 OA 
DOCKED: BRANCH  11  14
DOCKED: ATOM     14  C   UNL     1     143.178  76.261 218.388 -0.22 -0.11    +0.195 C  
DOCKED: BRANCH  14  15
DOCKED: ATOM     15  C   UNL     1     143.437  75.006 219.172 -0.30 +0.01    -0.031 A  
DOCKED: ATOM     16  C   UNL     1     144.449  74.977 220.146 -0.39 -0.00    +0.005 A  
DOCKED: ATOM     17  C   UNL     1     142.709  73.835 218.898 -0.15 -0.00    +0.005 A  
DOCKED: ATOM     18  C   UNL     1     144.713  73.799 220.851 -0.53 -0.00    +0.000 A  
DOCKED: ATOM     19  C   UNL     1     142.977  72.660 219.605 -0.19 -0.00    +0.000 A  
DOCKED: ATOM     20  C   UNL     1     143.977  72.641 220.582 -0.37 -0.00    +0.000 A  
DOCKED: ENDBRANCH  14  15
DOCKED: ENDBRANCH  11  14
DOCKED: ENDBRANCH   1  11
DOCKED: BRANCH  10  21
DOCKED: ATOM     21  C   UNL     1     140.617  77.021 221.742 -0.36 -0.00    +0.005 A  
DOCKED: ATOM     22  C   UNL     1     140.680  75.652 221.983 -0.32 -0.02    +0.089 A  
DOCKED: ATOM     23  C   UNL     1     139.315  77.389 222.033 -0.29 -0.00    +0.005 A  
DOCKED: ATOM     24  N   UNL     1     139.481  75.187 222.402 -0.11 +0.06    -0.361 N  
DOCKED: ATOM     25  C   UNL     1     138.659  78.620 221.962 -0.21 -0.00    +0.011 A  
DOCKED: ATOM     26  C   UNL     1     138.660  76.249 222.426 -0.29 -0.01    +0.046 A  
DOCKED: ATOM     27  C   UNL     1     137.297  78.662 222.309 -0.18 -0.00    +0.001 A  
DOCKED: ATOM     28  C   UNL     1     137.309  76.261 222.773 -0.27 -0.01    +0.026 A  
DOCKED: ATOM     29  C   UNL     1     136.625  77.487 222.712 -0.21 -0.00    +0.002 A  
DOCKED: ATOM     30  H   UNL     1     139.244  74.199 222.642 -0.43 -0.04    +0.166 HD 
DOCKED: ENDBRANCH  10  21
DOCKED: TORSDOF 4
DOCKED: TER
DOCKED: ENDMDL
________________________________________________________________________________


    FINAL DOCKED STATE:
    ________________________


Run:   4 / 20
Time taken for this run:   0.022s

DOCKED: MODEL        4
DOCKED: USER    Run = 4
DOCKED: USER
DOCKED: USER    Estimated Free Energy of Binding    =  -7.24 kcal/mol  [=(1)+(2)+(3)-(4)]
DOCKED: USER
DOCKED: USER    (1) Final Intermolecular Energy     =  -8.43 kcal/mol
DOCKED: USER        vdW + Hbond + desolv Energy     =  -8.35 kcal/mol
DOCKED: USER        Electrostatic Energy            =  -0.08 kcal/mol
DOCKED: USER        Moving Ligand-Fixed Receptor    =  -8.43 kcal/mol
DOCKED: USER        Moving Ligand-Moving Receptor   =  +0.00 kcal/mol
DOCKED: USER    (2) Final Total Internal Energy     =  -2.41 kcal/mol
DOCKED: USER    (3) Torsional Free Energy           =  +1.19 kcal/mol
DOCKED: USER    (4) Unbound System's Energy         =  -2.41 kcal/mol
DOCKED: USER
DOCKED: USER
DOCKED: REMARK SMILES O=S(=O)(Cc1ccccc1)N1C=Cc2ccccc2[C@H]1c1c[nH]c2ccccc12
DOCKED: REMARK SMILES IDX 11 1 12 2 13 3 14 4 15 5 16 6 17 7 18 8 19 9 20 10 2 11 1 12
DOCKED: REMARK SMILES IDX 3 13 4 14 5 15 6 16 10 17 7 18 9 19 8 20 21 21 22 22 29 23
DOCKED: REMARK SMILES IDX 23 24 28 25 24 26 27 27 25 28 26 29
DOCKED: REMARK H PARENT 23 30
DOCKED: USER                              x       y       z     vdW  Elec       q    Type
DOCKED: USER                           _______ _______ _______ _____ _____    ______ ____
DOCKED: ROOT
DOCKED: ATOM      1  N   UNL     1     140.840  78.713 219.822 -0.08 +0.11    -0.265 N  
DOCKED: ATOM      2  C   UNL     1     140.569  80.096 219.545 -0.14 -0.04    +0.099 C  
DOCKED: ATOM      3  C   UNL     1     140.841  81.046 220.436 -0.26 -0.01    +0.027 C  
DOCKED: ATOM      4  C   UNL     1     141.427  80.711 221.741 -0.40 +0.01    -0.019 A  
DOCKED: ATOM      5  C   UNL     1     141.746  81.733 222.646 -0.46 -0.00    +0.008 A  
DOCKED: ATOM      6  C   UNL     1     142.318  81.425 223.883 -0.60 -0.00    +0.001 A  
DOCKED: ATOM      7  C   UNL     1     142.577  80.096 224.222 -0.49 -0.00    +0.000 A  
DOCKED: ATOM      8  C   UNL     1     142.260  79.071 223.327 -0.57 -0.00    +0.007 A  
DOCKED: ATOM      9  C   UNL     1     141.674  79.366 222.083 -0.46 +0.01    -0.013 A  
DOCKED: ATOM     10  C   UNL     1     141.323  78.239 221.133 -0.26 -0.08    +0.162 C  
DOCKED: ENDROOT
DOCKED: BRANCH   1  11
DOCKED: ATOM     11  S   UNL     1     140.539  77.561 218.556 -0.07 -0.09    +0.239 S  
DOCKED: ATOM     12  O   UNL     1     139.668  76.453 219.081 -0.03 +0.06    -0.206 OA 
DOCKED: ATOM     13  O   UNL     1     139.825  78.233 217.415 -0.02 +0.07    -0.206 OA 
DOCKED: BRANCH  11  14
DOCKED: ATOM     14  C   UNL     1     142.098  76.889 217.998 -0.15 -0.10    +0.195 C  
DOCKED: BRANCH  14  15
DOCKED: ATOM     15  C   UNL     1     142.555  75.782 218.904 -0.25 +0.01    -0.031 A  
DOCKED: ATOM     16  C   UNL     1     143.741  75.920 219.646 -0.40 -0.00    +0.005 A  
DOCKED: ATOM     17  C   UNL     1     141.833  74.579 218.974 -0.12 -0.00    +0.005 A  
DOCKED: ATOM     18  C   UNL     1     144.184  74.875 220.462 -0.38 -0.00    +0.000 A  
DOCKED: ATOM     19  C   UNL     1     142.281  73.537 219.792 -0.19 -0.00    +0.000 A  
DOCKED: ATOM     20  C   UNL     1     143.454  73.685 220.537 -0.35 -0.00    +0.000 A  
DOCKED: ENDBRANCH  14  15
DOCKED: ENDBRANCH  11  14
DOCKED: ENDBRANCH   1  11
DOCKED: BRANCH  10  21
DOCKED: ATOM     21  C   UNL     1     140.301  77.322 221.760 -0.33 -0.00    +0.005 A  
DOCKED: ATOM     22  C   UNL     1     140.460  75.959 221.989 -0.34 -0.02    +0.089 A  
DOCKED: ATOM     23  C   UNL     1     139.013  77.619 222.173 -0.28 -0.00    +0.005 A  
DOCKED: ATOM     24  N   UNL     1     139.333  75.430 222.517 -0.11 +0.07    -0.361 N  
DOCKED: ATOM     25  C   UNL     1     138.289  78.813 222.168 -0.21 -0.00    +0.011 A  
DOCKED: ATOM     26  C   UNL     1     138.461  76.446 222.622 -0.29 -0.01    +0.046 A  
DOCKED: ATOM     27  C   UNL     1     136.965  78.781 222.641 -0.18 -0.00    +0.001 A  
DOCKED: ATOM     28  C   UNL     1     137.150  76.385 223.094 -0.26 -0.01    +0.026 A  
DOCKED: ATOM     29  C   UNL     1     136.398  77.572 223.102 -0.17 -0.00    +0.002 A  
DOCKED: ATOM     30  H   UNL     1     139.173  74.431 222.775 -0.50 -0.05    +0.166 HD 
DOCKED: ENDBRANCH  10  21
DOCKED: TORSDOF 4
DOCKED: TER
DOCKED: ENDMDL
________________________________________________________________________________


    FINAL DOCKED STATE:
    ________________________


Run:   5 / 20
Time taken for this run:   0.022s

DOCKED: MODEL        5
DOCKED: USER    Run = 5
DOCKED: USER
DOCKED: USER    Estimated Free Energy of Binding    =  -7.58 kcal/mol  [=(1)+(2)+(3)-(4)]
DOCKED: USER
DOCKED: USER    (1) Final Intermolecular Energy     =  -8.77 kcal/mol
DOCKED: USER        vdW + Hbond + desolv Energy     =  -8.69 kcal/mol
DOCKED: USER        Electrostatic Energy            =  -0.09 kcal/mol
DOCKED: USER        Moving Ligand-Fixed Receptor    =  -8.77 kcal/mol
DOCKED: USER        Moving Ligand-Moving Receptor   =  +0.00 kcal/mol
DOCKED: USER    (2) Final Total Internal Energy     =  -2.21 kcal/mol
DOCKED: USER    (3) Torsional Free Energy           =  +1.19 kcal/mol
DOCKED: USER    (4) Unbound System's Energy         =  -2.21 kcal/mol
DOCKED: USER
DOCKED: USER
DOCKED: REMARK SMILES O=S(=O)(Cc1ccccc1)N1C=Cc2ccccc2[C@H]1c1c[nH]c2ccccc12
DOCKED: REMARK SMILES IDX 11 1 12 2 13 3 14 4 15 5 16 6 17 7 18 8 19 9 20 10 2 11 1 12
DOCKED: REMARK SMILES IDX 3 13 4 14 5 15 6 16 10 17 7 18 9 19 8 20 21 21 22 22 29 23
DOCKED: REMARK SMILES IDX 23 24 28 25 24 26 27 27 25 28 26 29
DOCKED: REMARK H PARENT 23 30
DOCKED: USER                              x       y       z     vdW  Elec       q    Type
DOCKED: USER                           _______ _______ _______ _____ _____    ______ ____
DOCKED: ROOT
DOCKED: ATOM      1  N   UNL     1     141.297  78.344 219.772 -0.11 +0.13    -0.265 N  
DOCKED: ATOM      2  C   UNL     1     141.057  79.689 219.330 -0.18 -0.04    +0.099 C  
DOCKED: ATOM      3  C   UNL     1     141.195  80.723 220.155 -0.27 -0.01    +0.027 C  
DOCKED: ATOM      4  C   UNL     1     141.597  80.523 221.554 -0.40 +0.01    -0.019 A  
DOCKED: ATOM      5  C   UNL     1     141.780  81.632 222.394 -0.46 -0.00    +0.008 A  
DOCKED: ATOM      6  C   UNL     1     142.176  81.452 223.721 -0.60 -0.00    +0.001 A  
DOCKED: ATOM      7  C   UNL     1     142.396  80.166 224.217 -0.51 -0.00    +0.000 A  
DOCKED: ATOM      8  C   UNL     1     142.214  79.055 223.389 -0.59 -0.00    +0.007 A  
DOCKED: ATOM      9  C   UNL     1     141.804  79.222 222.054 -0.47 +0.01    -0.013 A  
DOCKED: ATOM     10  C   UNL     1     141.597  78.004 221.176 -0.24 -0.09    +0.162 C  
DOCKED: ENDROOT
DOCKED: BRANCH   1  11
DOCKED: ATOM     11  S   UNL     1     141.183  77.072 218.593 -0.12 -0.10    +0.239 S  
DOCKED: ATOM     12  O   UNL     1     140.313  75.968 219.125 -0.04 +0.06    -0.206 OA 
DOCKED: ATOM     13  O   UNL     1     140.564  77.604 217.329 -0.03 +0.08    -0.206 OA 
DOCKED: BRANCH  11  14
DOCKED: ATOM     14  C   UNL     1     142.821  76.440 218.258 -0.21 -0.11    +0.195 C  
DOCKED: BRANCH  14  15
DOCKED: ATOM     15  C   UNL     1     143.105  75.228 219.098 -0.29 +0.01    -0.031 A  
DOCKED: ATOM     16  C   UNL     1     144.102  75.271 220.087 -0.41 -0.00    +0.005 A  
DOCKED: ATOM     17  C   UNL     1     142.416  74.026 218.864 -0.13 -0.00    +0.005 A  
DOCKED: ATOM     18  C   UNL     1     144.390  74.132 220.845 -0.43 -0.00    +0.000 A  
DOCKED: ATOM     19  C   UNL     1     142.708  72.890 219.625 -0.18 -0.00    +0.000 A  
DOCKED: ATOM     20  C   UNL     1     143.693  72.943 220.616 -0.35 -0.00    +0.000 A  
DOCKED: ENDBRANCH  14  15
DOCKED: ENDBRANCH  11  14
DOCKED: ENDBRANCH   1  11
DOCKED: BRANCH  10  21
DOCKED: ATOM     21  C   UNL     1     140.505  77.128 221.741 -0.35 -0.00    +0.005 A  
DOCKED: ATOM     22  C   UNL     1     140.604  75.765 222.000 -0.32 -0.02    +0.089 A  
DOCKED: ATOM     23  C   UNL     1     139.201  77.471 222.057 -0.28 -0.00    +0.005 A  
DOCKED: ATOM     24  N   UNL     1     139.427  75.279 222.453 -0.10 +0.06    -0.361 N  
DOCKED: ATOM     25  C   UNL     1     138.516  78.686 221.984 -0.20 -0.00    +0.011 A  
DOCKED: ATOM     26  C   UNL     1     138.582  76.322 222.482 -0.29 -0.01    +0.046 A  
DOCKED: ATOM     27  C   UNL     1     137.162  78.702 222.361 -0.17 -0.00    +0.001 A  
DOCKED: ATOM     28  C   UNL     1     137.239  76.309 222.859 -0.27 -0.01    +0.026 A  
DOCKED: ATOM     29  C   UNL     1     136.526  77.518 222.797 -0.19 -0.00    +0.002 A  
DOCKED: ATOM     30  H   UNL     1     139.218  74.290 222.713 -0.49 -0.04    +0.166 HD 
DOCKED: ENDBRANCH  10  21
DOCKED: TORSDOF 4
DOCKED: TER
DOCKED: ENDMDL
________________________________________________________________________________


    FINAL DOCKED STATE:
    ________________________


Run:   6 / 20
Time taken for this run:   0.022s

DOCKED: MODEL        6
DOCKED: USER    Run = 6
DOCKED: USER
DOCKED: USER    Estimated Free Energy of Binding    =  -7.77 kcal/mol  [=(1)+(2)+(3)-(4)]
DOCKED: USER
DOCKED: USER    (1) Final Intermolecular Energy     =  -8.96 kcal/mol
DOCKED: USER        vdW + Hbond + desolv Energy     =  -8.87 kcal/mol
DOCKED: USER        Electrostatic Energy            =  -0.09 kcal/mol
DOCKED: USER        Moving Ligand-Fixed Receptor    =  -8.96 kcal/mol
DOCKED: USER        Moving Ligand-Moving Receptor   =  +0.00 kcal/mol
DOCKED: USER    (2) Final Total Internal Energy     =  -1.98 kcal/mol
DOCKED: USER    (3) Torsional Free Energy           =  +1.19 kcal/mol
DOCKED: USER    (4) Unbound System's Energy         =  -1.98 kcal/mol
DOCKED: USER
DOCKED: USER
DOCKED: REMARK SMILES O=S(=O)(Cc1ccccc1)N1C=Cc2ccccc2[C@H]1c1c[nH]c2ccccc12
DOCKED: REMARK SMILES IDX 11 1 12 2 13 3 14 4 15 5 16 6 17 7 18 8 19 9 20 10 2 11 1 12
DOCKED: REMARK SMILES IDX 3 13 4 14 5 15 6 16 10 17 7 18 9 19 8 20 21 21 22 22 29 23
DOCKED: REMARK SMILES IDX 23 24 28 25 24 26 27 27 25 28 26 29
DOCKED: REMARK H PARENT 23 30
DOCKED: USER                              x       y       z     vdW  Elec       q    Type
DOCKED: USER                           _______ _______ _______ _____ _____    ______ ____
DOCKED: ROOT
DOCKED: ATOM      1  N   UNL     1     141.562  78.175 219.794 -0.13 +0.14    -0.265 N  
DOCKED: ATOM      2  C   UNL     1     141.361  79.494 219.264 -0.21 -0.05    +0.099 C  
DOCKED: ATOM      3  C   UNL     1     141.439  80.571 220.041 -0.29 -0.01    +0.027 C  
DOCKED: ATOM      4  C   UNL     1     141.731  80.446 221.475 -0.41 +0.01    -0.019 A  
DOCKED: ATOM      5  C   UNL     1     141.853  81.598 222.266 -0.45 -0.00    +0.008 A  
DOCKED: ATOM      6  C   UNL     1     142.146  81.490 223.628 -0.58 -0.00    +0.001 A  
DOCKED: ATOM      7  C   UNL     1     142.323  80.232 224.207 -0.51 -0.00    +0.000 A  
DOCKED: ATOM      8  C   UNL     1     142.201  79.078 223.427 -0.60 -0.00    +0.007 A  
DOCKED: ATOM      9  C   UNL     1     141.895  79.173 222.057 -0.47 +0.01    -0.013 A  
DOCKED: ATOM     10  C   UNL     1     141.752  77.910 221.232 -0.18 -0.10    +0.162 C  
DOCKED: ENDROOT
DOCKED: BRANCH   1  11
DOCKED: ATOM     11  S   UNL     1     141.535  76.842 218.678 -0.15 -0.11    +0.239 S  
DOCKED: ATOM     12  O   UNL     1     140.722  75.717 219.257 -0.06 +0.06    -0.206 OA 
DOCKED: ATOM     13  O   UNL     1     140.901  77.275 217.384 -0.04 +0.09    -0.206 OA 
DOCKED: BRANCH  11  14
DOCKED: ATOM     14  C   UNL     1     143.209  76.290 218.389 -0.23 -0.11    +0.195 C  
DOCKED: BRANCH  14  15
DOCKED: ATOM     15  C   UNL     1     143.485  75.017 219.138 -0.30 +0.01    -0.031 A  
DOCKED: ATOM     16  C   UNL     1     144.436  74.998 220.173 -0.38 -0.00    +0.005 A  
DOCKED: ATOM     17  C   UNL     1     142.839  73.824 218.772 -0.14 -0.00    +0.005 A  
DOCKED: ATOM     18  C   UNL     1     144.719  73.805 220.845 -0.53 -0.00    +0.000 A  
DOCKED: ATOM     19  C   UNL     1     143.125  72.634 219.448 -0.18 -0.00    +0.000 A  
DOCKED: ATOM     20  C   UNL     1     144.062  72.624 220.484 -0.38 -0.00    +0.000 A  
DOCKED: ENDBRANCH  14  15
DOCKED: ENDBRANCH  11  14
DOCKED: ENDBRANCH   1  11
DOCKED: BRANCH  10  21
DOCKED: ATOM     21  C   UNL     1     140.616  77.065 221.757 -0.36 -0.00    +0.005 A  
DOCKED: ATOM     22  C   UNL     1     140.664  75.697 222.005 -0.30 -0.02    +0.089 A  
DOCKED: ATOM     23  C   UNL     1     139.316  77.447 222.040 -0.29 -0.00    +0.005 A  
DOCKED: ATOM     24  N   UNL     1     139.459  75.246 222.420 -0.11 +0.06    -0.361 N  
DOCKED: ATOM     25  C   UNL     1     138.673  78.684 221.959 -0.21 -0.00    +0.011 A  
DOCKED: ATOM     26  C   UNL     1     138.648  76.315 222.435 -0.29 -0.01    +0.046 A  
DOCKED: ATOM     27  C   UNL     1     137.309  78.741 222.298 -0.17 -0.00    +0.001 A  
DOCKED: ATOM     28  C   UNL     1     137.295  76.342 222.774 -0.27 -0.01    +0.026 A  
DOCKED: ATOM     29  C   UNL     1     136.624  77.574 222.704 -0.20 -0.00    +0.002 A  
DOCKED: ATOM     30  H   UNL     1     139.211  74.261 222.664 -0.45 -0.04    +0.166 HD 
DOCKED: ENDBRANCH  10  21
DOCKED: TORSDOF 4
DOCKED: TER
DOCKED: ENDMDL
________________________________________________________________________________


    FINAL DOCKED STATE:
    ________________________


Run:   7 / 20
Time taken for this run:   0.022s

DOCKED: MODEL        7
DOCKED: USER    Run = 7
DOCKED: USER
DOCKED: USER    Estimated Free Energy of Binding    =  -7.62 kcal/mol  [=(1)+(2)+(3)-(4)]
DOCKED: USER
DOCKED: USER    (1) Final Intermolecular Energy     =  -8.81 kcal/mol
DOCKED: USER        vdW + Hbond + desolv Energy     =  -8.72 kcal/mol
DOCKED: USER        Electrostatic Energy            =  -0.09 kcal/mol
DOCKED: USER        Moving Ligand-Fixed Receptor    =  -8.81 kcal/mol
DOCKED: USER        Moving Ligand-Moving Receptor   =  +0.00 kcal/mol
DOCKED: USER    (2) Final Total Internal Energy     =  -2.16 kcal/mol
DOCKED: USER    (3) Torsional Free Energy           =  +1.19 kcal/mol
DOCKED: USER    (4) Unbound System's Energy         =  -2.16 kcal/mol
DOCKED: USER
DOCKED: USER
DOCKED: REMARK SMILES O=S(=O)(Cc1ccccc1)N1C=Cc2ccccc2[C@H]1c1c[nH]c2ccccc12
DOCKED: REMARK SMILES IDX 11 1 12 2 13 3 14 4 15 5 16 6 17 7 18 8 19 9 20 10 2 11 1 12
DOCKED: REMARK SMILES IDX 3 13 4 14 5 15 6 16 10 17 7 18 9 19 8 20 21 21 22 22 29 23
DOCKED: REMARK SMILES IDX 23 24 28 25 24 26 27 27 25 28 26 29
DOCKED: REMARK H PARENT 23 30
DOCKED: USER                              x       y       z     vdW  Elec       q    Type
DOCKED: USER                           _______ _______ _______ _____ _____    ______ ____
DOCKED: ROOT
DOCKED: ATOM      1  N   UNL     1     141.337  78.292 219.763 -0.11 +0.13    -0.265 N  
DOCKED: ATOM      2  C   UNL     1     141.113  79.633 219.302 -0.18 -0.05    +0.099 C  
DOCKED: ATOM      3  C   UNL     1     141.247  80.676 220.117 -0.28 -0.01    +0.027 C  
DOCKED: ATOM      4  C   UNL     1     141.627  80.490 221.524 -0.40 +0.01    -0.019 A  
DOCKED: ATOM      5  C   UNL     1     141.806  81.607 222.353 -0.46 -0.00    +0.008 A  
DOCKED: ATOM      6  C   UNL     1     142.183  81.440 223.688 -0.60 -0.00    +0.001 A  
DOCKED: ATOM      7  C   UNL     1     142.387  80.158 224.202 -0.51 -0.00    +0.000 A  
DOCKED: ATOM      8  C   UNL     1     142.208  79.039 223.384 -0.59 -0.00    +0.007 A  
DOCKED: ATOM      9  C   UNL     1     141.818  79.193 222.041 -0.47 +0.01    -0.013 A  
DOCKED: ATOM     10  C   UNL     1     141.615  77.966 221.174 -0.23 -0.09    +0.162 C  
DOCKED: ENDROOT
DOCKED: BRANCH   1  11
DOCKED: ATOM     11  S   UNL     1     141.231  77.007 218.597 -0.12 -0.10    +0.239 S  
DOCKED: ATOM     12  O   UNL     1     140.397  75.888 219.154 -0.05 +0.06    -0.206 OA 
DOCKED: ATOM     13  O   UNL     1     140.576  77.513 217.340 -0.03 +0.08    -0.206 OA 
DOCKED: BRANCH  11  14
DOCKED: ATOM     14  C   UNL     1     142.877  76.411 218.236 -0.21 -0.11    +0.195 C  
DOCKED: BRANCH  14  15
DOCKED: ATOM     15  C   UNL     1     143.187  75.186 219.048 -0.29 +0.01    -0.031 A  
DOCKED: ATOM     16  C   UNL     1     144.125  75.249 220.092 -0.41 -0.00    +0.005 A  
DOCKED: ATOM     17  C   UNL     1     142.587  73.955 218.734 -0.13 -0.00    +0.005 A  
DOCKED: ATOM     18  C   UNL     1     144.440  74.101 220.825 -0.45 -0.00    +0.000 A  
DOCKED: ATOM     19  C   UNL     1     142.905  72.810 219.469 -0.17 -0.00    +0.000 A  
DOCKED: ATOM     20  C   UNL     1     143.830  72.882 220.515 -0.36 -0.00    +0.000 A  
DOCKED: ENDBRANCH  14  15
DOCKED: ENDBRANCH  11  14
DOCKED: ENDBRANCH   1  11
DOCKED: BRANCH  10  21
DOCKED: ATOM     21  C   UNL     1     140.508  77.105 221.734 -0.35 -0.00    +0.005 A  
DOCKED: ATOM     22  C   UNL     1     140.592  75.742 222.004 -0.31 -0.02    +0.089 A  
DOCKED: ATOM     23  C   UNL     1     139.205  77.462 222.034 -0.28 -0.00    +0.005 A  
DOCKED: ATOM     24  N   UNL     1     139.405  75.271 222.448 -0.10 +0.06    -0.361 N  
DOCKED: ATOM     25  C   UNL     1     138.532  78.683 221.944 -0.20 -0.00    +0.011 A  
DOCKED: ATOM     26  C   UNL     1     138.570  76.322 222.460 -0.29 -0.01    +0.046 A  
DOCKED: ATOM     27  C   UNL     1     137.174  78.714 222.306 -0.17 -0.00    +0.001 A  
DOCKED: ATOM     28  C   UNL     1     137.224  76.324 222.823 -0.27 -0.01    +0.026 A  
DOCKED: ATOM     29  C   UNL     1     136.523  77.539 222.744 -0.20 -0.00    +0.002 A  
DOCKED: ATOM     30  H   UNL     1     139.184  74.285 222.713 -0.50 -0.05    +0.166 HD 
DOCKED: ENDBRANCH  10  21
DOCKED: TORSDOF 4
DOCKED: TER
DOCKED: ENDMDL
________________________________________________________________________________


    FINAL DOCKED STATE:
    ________________________


Run:   8 / 20
Time taken for this run:   0.022s

DOCKED: MODEL        8
DOCKED: USER    Run = 8
DOCKED: USER
DOCKED: USER    Estimated Free Energy of Binding    =  -6.71 kcal/mol  [=(1)+(2)+(3)-(4)]
DOCKED: USER
DOCKED: USER    (1) Final Intermolecular Energy     =  -7.90 kcal/mol
DOCKED: USER        vdW + Hbond + desolv Energy     =  -7.84 kcal/mol
DOCKED: USER        Electrostatic Energy            =  -0.06 kcal/mol
DOCKED: USER        Moving Ligand-Fixed Receptor    =  -7.90 kcal/mol
DOCKED: USER        Moving Ligand-Moving Receptor   =  +0.00 kcal/mol
DOCKED: USER    (2) Final Total Internal Energy     =  -2.72 kcal/mol
DOCKED: USER    (3) Torsional Free Energy           =  +1.19 kcal/mol
DOCKED: USER    (4) Unbound System's Energy         =  -2.72 kcal/mol
DOCKED: USER
DOCKED: USER
DOCKED: REMARK SMILES O=S(=O)(Cc1ccccc1)N1C=Cc2ccccc2[C@H]1c1c[nH]c2ccccc12
DOCKED: REMARK SMILES IDX 11 1 12 2 13 3 14 4 15 5 16 6 17 7 18 8 19 9 20 10 2 11 1 12
DOCKED: REMARK SMILES IDX 3 13 4 14 5 15 6 16 10 17 7 18 9 19 8 20 21 21 22 22 29 23
DOCKED: REMARK SMILES IDX 23 24 28 25 24 26 27 27 25 28 26 29
DOCKED: REMARK H PARENT 23 30
DOCKED: USER                              x       y       z     vdW  Elec       q    Type
DOCKED: USER                           _______ _______ _______ _____ _____    ______ ____
DOCKED: ROOT
DOCKED: ATOM      1  N   UNL     1     139.106  79.564 220.867 -0.03 +0.06    -0.265 N  
DOCKED: ATOM      2  C   UNL     1     138.550  80.594 221.699 -0.14 -0.02    +0.099 C  
DOCKED: ATOM      3  C   UNL     1     139.273  81.184 222.646 -0.28 -0.00    +0.027 C  
DOCKED: ATOM      4  C   UNL     1     140.672  80.799 222.876 -0.42 +0.00    -0.019 A  
DOCKED: ATOM      5  C   UNL     1     141.429  81.467 223.850 -0.40 -0.00    +0.008 A  
DOCKED: ATOM      6  C   UNL     1     142.765  81.117 224.066 -0.61 -0.00    +0.001 A  
DOCKED: ATOM      7  C   UNL     1     143.353  80.103 223.308 -0.54 -0.00    +0.000 A  
DOCKED: ATOM      8  C   UNL     1     142.606  79.431 222.337 -0.51 -0.00    +0.007 A  
DOCKED: ATOM      9  C   UNL     1     141.257  79.765 222.118 -0.41 +0.00    -0.013 A  
DOCKED: ATOM     10  C   UNL     1     140.459  79.013 221.072 -0.18 -0.05    +0.162 C  
DOCKED: ENDROOT
DOCKED: BRANCH   1  11
DOCKED: ATOM     11  S   UNL     1     138.108  78.924 219.596 -0.02 -0.05    +0.239 S  
DOCKED: ATOM     12  O   UNL     1     138.220  77.425 219.575 -0.02 +0.05    -0.206 OA 
DOCKED: ATOM     13  O   UNL     1     136.671  79.294 219.842 -0.01 +0.04    -0.206 OA 
DOCKED: BRANCH  11  14
DOCKED: ATOM     14  C   UNL     1     138.658  79.592 218.032 -0.01 -0.05    +0.195 C  
DOCKED: BRANCH  14  15
DOCKED: ATOM     15  C   UNL     1     140.131  79.885 218.068 -0.07 +0.01    -0.031 A  
DOCKED: ATOM     16  C   UNL     1     141.060  78.875 217.762 -0.13 -0.00    +0.005 A  
DOCKED: ATOM     17  C   UNL     1     140.593  81.151 218.463 -0.12 -0.00    +0.005 A  
DOCKED: ATOM     18  C   UNL     1     142.431  79.138 217.829 -0.31 -0.00    +0.000 A  
DOCKED: ATOM     19  C   UNL     1     141.965  81.409 218.529 -0.28 -0.00    +0.000 A  
DOCKED: ATOM     20  C   UNL     1     142.884  80.405 218.211 -0.32 -0.00    +0.000 A  
DOCKED: ENDBRANCH  14  15
DOCKED: ENDBRANCH  11  14
DOCKED: ENDBRANCH   1  11
DOCKED: BRANCH  10  21
DOCKED: ATOM     21  C   UNL     1     140.374  77.549 221.427 -0.28 -0.00    +0.005 A  
DOCKED: ATOM     22  C   UNL     1     139.487  76.980 222.336 -0.31 -0.02    +0.089 A  
DOCKED: ATOM     23  C   UNL     1     141.169  76.506 220.984 -0.30 -0.00    +0.005 A  
DOCKED: ATOM     24  N   UNL     1     139.714  75.653 222.456 -0.13 +0.05    -0.361 N  
DOCKED: ATOM     25  C   UNL     1     142.238  76.470 220.087 -0.31 -0.01    +0.011 A  
DOCKED: ATOM     26  C   UNL     1     140.738  75.376 221.634 -0.33 -0.01    +0.046 A  
DOCKED: ATOM     27  C   UNL     1     142.868  75.232 219.863 -0.34 -0.00    +0.001 A  
DOCKED: ATOM     28  C   UNL     1     141.346  74.137 221.433 -0.24 -0.00    +0.026 A  
DOCKED: ATOM     29  C   UNL     1     142.424  74.071 220.533 -0.29 -0.00    +0.002 A  
DOCKED: ATOM     30  H   UNL     1     139.203  74.985 223.076 -0.50 -0.04    +0.166 HD 
DOCKED: ENDBRANCH  10  21
DOCKED: TORSDOF 4
DOCKED: TER
DOCKED: ENDMDL
________________________________________________________________________________


    FINAL DOCKED STATE:
    ________________________


Run:   9 / 20
Time taken for this run:   0.022s

DOCKED: MODEL        9
DOCKED: USER    Run = 9
DOCKED: USER
DOCKED: USER    Estimated Free Energy of Binding    =  -7.57 kcal/mol  [=(1)+(2)+(3)-(4)]
DOCKED: USER
DOCKED: USER    (1) Final Intermolecular Energy     =  -8.77 kcal/mol
DOCKED: USER        vdW + Hbond + desolv Energy     =  -8.68 kcal/mol
DOCKED: USER        Electrostatic Energy            =  -0.09 kcal/mol
DOCKED: USER        Moving Ligand-Fixed Receptor    =  -8.77 kcal/mol
DOCKED: USER        Moving Ligand-Moving Receptor   =  +0.00 kcal/mol
DOCKED: USER    (2) Final Total Internal Energy     =  -2.21 kcal/mol
DOCKED: USER    (3) Torsional Free Energy           =  +1.19 kcal/mol
DOCKED: USER    (4) Unbound System's Energy         =  -2.21 kcal/mol
DOCKED: USER
DOCKED: USER
DOCKED: REMARK SMILES O=S(=O)(Cc1ccccc1)N1C=Cc2ccccc2[C@H]1c1c[nH]c2ccccc12
DOCKED: REMARK SMILES IDX 11 1 12 2 13 3 14 4 15 5 16 6 17 7 18 8 19 9 20 10 2 11 1 12
DOCKED: REMARK SMILES IDX 3 13 4 14 5 15 6 16 10 17 7 18 9 19 8 20 21 21 22 22 29 23
DOCKED: REMARK SMILES IDX 23 24 28 25 24 26 27 27 25 28 26 29
DOCKED: REMARK H PARENT 23 30
DOCKED: USER                              x       y       z     vdW  Elec       q    Type
DOCKED: USER                           _______ _______ _______ _____ _____    ______ ____
DOCKED: ROOT
DOCKED: ATOM      1  N   UNL     1     141.300  78.354 219.769 -0.11 +0.13    -0.265 N  
DOCKED: ATOM      2  C   UNL     1     141.069  79.701 219.327 -0.18 -0.04    +0.099 C  
DOCKED: ATOM      3  C   UNL     1     141.219  80.735 220.151 -0.28 -0.01    +0.027 C  
DOCKED: ATOM      4  C   UNL     1     141.626  80.532 221.548 -0.40 +0.01    -0.019 A  
DOCKED: ATOM      5  C   UNL     1     141.821  81.640 222.387 -0.46 -0.00    +0.008 A  
DOCKED: ATOM      6  C   UNL     1     142.222  81.457 223.713 -0.59 -0.00    +0.001 A  
DOCKED: ATOM      7  C   UNL     1     142.434  80.169 224.208 -0.51 -0.00    +0.000 A  
DOCKED: ATOM      8  C   UNL     1     142.239  79.060 223.381 -0.58 -0.00    +0.007 A  
DOCKED: ATOM      9  C   UNL     1     141.825  79.229 222.048 -0.47 +0.01    -0.013 A  
DOCKED: ATOM     10  C   UNL     1     141.604  78.012 221.171 -0.24 -0.09    +0.162 C  
DOCKED: ENDROOT
DOCKED: BRANCH   1  11
DOCKED: ATOM     11  S   UNL     1     141.171  77.083 218.590 -0.11 -0.10    +0.239 S  
DOCKED: ATOM     12  O   UNL     1     140.291  75.988 219.125 -0.04 +0.06    -0.206 OA 
DOCKED: ATOM     13  O   UNL     1     140.555  77.621 217.328 -0.03 +0.08    -0.206 OA 
DOCKED: BRANCH  11  14
DOCKED: ATOM     14  C   UNL     1     142.802  76.435 218.252 -0.21 -0.11    +0.195 C  
DOCKED: BRANCH  14  15
DOCKED: ATOM     15  C   UNL     1     143.084  75.233 219.107 -0.28 +0.01    -0.031 A  
DOCKED: ATOM     16  C   UNL     1     144.111  75.272 220.065 -0.40 -0.00    +0.005 A  
DOCKED: ATOM     17  C   UNL     1     142.362  74.042 218.918 -0.13 -0.00    +0.005 A  
DOCKED: ATOM     18  C   UNL     1     144.397  74.142 220.836 -0.43 -0.00    +0.000 A  
DOCKED: ATOM     19  C   UNL     1     142.651  72.915 219.692 -0.18 -0.00    +0.000 A  
DOCKED: ATOM     20  C   UNL     1     143.666  72.964 220.652 -0.34 -0.00    +0.000 A  
DOCKED: ENDBRANCH  14  15
DOCKED: ENDBRANCH  11  14
DOCKED: ENDBRANCH   1  11
DOCKED: BRANCH  10  21
DOCKED: ATOM     21  C   UNL     1     140.507  77.146 221.741 -0.35 -0.00    +0.005 A  
DOCKED: ATOM     22  C   UNL     1     140.598  75.783 222.007 -0.31 -0.02    +0.089 A  
DOCKED: ATOM     23  C   UNL     1     139.206  77.498 222.057 -0.28 -0.00    +0.005 A  
DOCKED: ATOM     24  N   UNL     1     139.419  75.307 222.464 -0.10 +0.06    -0.361 N  
DOCKED: ATOM     25  C   UNL     1     138.528  78.717 221.979 -0.20 -0.00    +0.011 A  
DOCKED: ATOM     26  C   UNL     1     138.580  76.355 222.488 -0.29 -0.01    +0.046 A  
DOCKED: ATOM     27  C   UNL     1     137.174  78.743 222.357 -0.17 -0.00    +0.001 A  
DOCKED: ATOM     28  C   UNL     1     137.238  76.351 222.867 -0.27 -0.01    +0.026 A  
DOCKED: ATOM     29  C   UNL     1     136.532  77.565 222.799 -0.19 -0.00    +0.002 A  
DOCKED: ATOM     30  H   UNL     1     139.204  74.320 222.729 -0.50 -0.05    +0.166 HD 
DOCKED: ENDBRANCH  10  21
DOCKED: TORSDOF 4
DOCKED: TER
DOCKED: ENDMDL
________________________________________________________________________________


    FINAL DOCKED STATE:
    ________________________


Run:   10 / 20
Time taken for this run:   0.022s

DOCKED: MODEL        10
DOCKED: USER    Run = 10
DOCKED: USER
DOCKED: USER    Estimated Free Energy of Binding    =  -7.57 kcal/mol  [=(1)+(2)+(3)-(4)]
DOCKED: USER
DOCKED: USER    (1) Final Intermolecular Energy     =  -8.76 kcal/mol
DOCKED: USER        vdW + Hbond + desolv Energy     =  -8.68 kcal/mol
DOCKED: USER        Electrostatic Energy            =  -0.09 kcal/mol
DOCKED: USER        Moving Ligand-Fixed Receptor    =  -8.76 kcal/mol
DOCKED: USER        Moving Ligand-Moving Receptor   =  +0.00 kcal/mol
DOCKED: USER    (2) Final Total Internal Energy     =  -2.19 kcal/mol
DOCKED: USER    (3) Torsional Free Energy           =  +1.19 kcal/mol
DOCKED: USER    (4) Unbound System's Energy         =  -2.19 kcal/mol
DOCKED: USER
DOCKED: USER
DOCKED: REMARK SMILES O=S(=O)(Cc1ccccc1)N1C=Cc2ccccc2[C@H]1c1c[nH]c2ccccc12
DOCKED: REMARK SMILES IDX 11 1 12 2 13 3 14 4 15 5 16 6 17 7 18 8 19 9 20 10 2 11 1 12
DOCKED: REMARK SMILES IDX 3 13 4 14 5 15 6 16 10 17 7 18 9 19 8 20 21 21 22 22 29 23
DOCKED: REMARK SMILES IDX 23 24 28 25 24 26 27 27 25 28 26 29
DOCKED: REMARK H PARENT 23 30
DOCKED: USER                              x       y       z     vdW  Elec       q    Type
DOCKED: USER                           _______ _______ _______ _____ _____    ______ ____
DOCKED: ROOT
DOCKED: ATOM      1  N   UNL     1     141.325  78.352 219.766 -0.11 +0.13    -0.265 N  
DOCKED: ATOM      2  C   UNL     1     141.093  79.700 219.326 -0.18 -0.05    +0.099 C  
DOCKED: ATOM      3  C   UNL     1     141.232  80.731 220.153 -0.28 -0.01    +0.027 C  
DOCKED: ATOM      4  C   UNL     1     141.627  80.527 221.553 -0.40 +0.01    -0.019 A  
DOCKED: ATOM      5  C   UNL     1     141.811  81.633 222.396 -0.46 -0.00    +0.008 A  
DOCKED: ATOM      6  C   UNL     1     142.201  81.449 223.725 -0.60 -0.00    +0.001 A  
DOCKED: ATOM      7  C   UNL     1     142.413  80.161 224.219 -0.51 -0.00    +0.000 A  
DOCKED: ATOM      8  C   UNL     1     142.229  79.053 223.388 -0.58 -0.00    +0.007 A  
DOCKED: ATOM      9  C   UNL     1     141.826  79.224 222.051 -0.47 +0.01    -0.013 A  
DOCKED: ATOM     10  C   UNL     1     141.617  78.008 221.170 -0.23 -0.09    +0.162 C  
DOCKED: ENDROOT
DOCKED: BRANCH   1  11
DOCKED: ATOM     11  S   UNL     1     141.211  77.084 218.583 -0.12 -0.10    +0.239 S  
DOCKED: ATOM     12  O   UNL     1     140.368  75.964 219.126 -0.04 +0.06    -0.206 OA 
DOCKED: ATOM     13  O   UNL     1     140.561  77.611 217.333 -0.03 +0.08    -0.206 OA 
DOCKED: BRANCH  11  14
DOCKED: ATOM     14  C   UNL     1     142.852  76.480 218.216 -0.21 -0.11    +0.195 C  
DOCKED: BRANCH  14  15
DOCKED: ATOM     15  C   UNL     1     143.152  75.241 219.010 -0.28 +0.01    -0.031 A  
DOCKED: ATOM     16  C   UNL     1     142.456  74.048 218.749 -0.13 -0.00    +0.005 A  
DOCKED: ATOM     17  C   UNL     1     144.088  75.278 220.058 -0.41 -0.00    +0.005 A  
DOCKED: ATOM     18  C   UNL     1     142.710  72.905 219.512 -0.17 -0.00    +0.000 A  
DOCKED: ATOM     19  C   UNL     1     144.339  74.132 220.817 -0.43 -0.00    +0.000 A  
DOCKED: ATOM     20  C   UNL     1     143.652  72.945 220.544 -0.35 -0.00    +0.000 A  
DOCKED: ENDBRANCH  14  15
DOCKED: ENDBRANCH  11  14
DOCKED: ENDBRANCH   1  11
DOCKED: BRANCH  10  21
DOCKED: ATOM     21  C   UNL     1     140.518  77.137 221.728 -0.35 -0.00    +0.005 A  
DOCKED: ATOM     22  C   UNL     1     140.610  75.772 221.985 -0.32 -0.02    +0.089 A  
DOCKED: ATOM     23  C   UNL     1     139.215  77.485 222.039 -0.28 -0.00    +0.005 A  
DOCKED: ATOM     24  N   UNL     1     139.429  75.291 222.432 -0.11 +0.06    -0.361 N  
DOCKED: ATOM     25  C   UNL     1     138.536  78.703 221.965 -0.20 -0.00    +0.011 A  
DOCKED: ATOM     26  C   UNL     1     138.589  76.338 222.459 -0.29 -0.01    +0.046 A  
DOCKED: ATOM     27  C   UNL     1     137.180  78.724 222.336 -0.17 -0.00    +0.001 A  
DOCKED: ATOM     28  C   UNL     1     137.244  76.330 222.830 -0.27 -0.01    +0.026 A  
DOCKED: ATOM     29  C   UNL     1     136.537  77.542 222.767 -0.20 -0.00    +0.002 A  
DOCKED: ATOM     30  H   UNL     1     139.214  74.302 222.690 -0.47 -0.04    +0.166 HD 
DOCKED: ENDBRANCH  10  21
DOCKED: TORSDOF 4
DOCKED: TER
DOCKED: ENDMDL
________________________________________________________________________________


    FINAL DOCKED STATE:
    ________________________


Run:   11 / 20
Time taken for this run:   0.022s

DOCKED: MODEL        11
DOCKED: USER    Run = 11
DOCKED: USER
DOCKED: USER    Estimated Free Energy of Binding    =  -7.62 kcal/mol  [=(1)+(2)+(3)-(4)]
DOCKED: USER
DOCKED: USER    (1) Final Intermolecular Energy     =  -8.81 kcal/mol
DOCKED: USER        vdW + Hbond + desolv Energy     =  -8.72 kcal/mol
DOCKED: USER        Electrostatic Energy            =  -0.09 kcal/mol
DOCKED: USER        Moving Ligand-Fixed Receptor    =  -8.81 kcal/mol
DOCKED: USER        Moving Ligand-Moving Receptor   =  +0.00 kcal/mol
DOCKED: USER    (2) Final Total Internal Energy     =  -2.16 kcal/mol
DOCKED: USER    (3) Torsional Free Energy           =  +1.19 kcal/mol
DOCKED: USER    (4) Unbound System's Energy         =  -2.16 kcal/mol
DOCKED: USER
DOCKED: USER
DOCKED: REMARK SMILES O=S(=O)(Cc1ccccc1)N1C=Cc2ccccc2[C@H]1c1c[nH]c2ccccc12
DOCKED: REMARK SMILES IDX 11 1 12 2 13 3 14 4 15 5 16 6 17 7 18 8 19 9 20 10 2 11 1 12
DOCKED: REMARK SMILES IDX 3 13 4 14 5 15 6 16 10 17 7 18 9 19 8 20 21 21 22 22 29 23
DOCKED: REMARK SMILES IDX 23 24 28 25 24 26 27 27 25 28 26 29
DOCKED: REMARK H PARENT 23 30
DOCKED: USER                              x       y       z     vdW  Elec       q    Type
DOCKED: USER                           _______ _______ _______ _____ _____    ______ ____
DOCKED: ROOT
DOCKED: ATOM      1  N   UNL     1     141.368  78.291 219.777 -0.12 +0.14    -0.265 N  
DOCKED: ATOM      2  C   UNL     1     141.145  79.633 219.318 -0.19 -0.05    +0.099 C  
DOCKED: ATOM      3  C   UNL     1     141.278  80.675 220.134 -0.28 -0.01    +0.027 C  
DOCKED: ATOM      4  C   UNL     1     141.657  80.487 221.541 -0.41 +0.01    -0.019 A  
DOCKED: ATOM      5  C   UNL     1     141.836  81.603 222.371 -0.46 -0.00    +0.008 A  
DOCKED: ATOM      6  C   UNL     1     142.211  81.435 223.706 -0.60 -0.00    +0.001 A  
DOCKED: ATOM      7  C   UNL     1     142.415  80.152 224.219 -0.51 -0.00    +0.000 A  
DOCKED: ATOM      8  C   UNL     1     142.237  79.034 223.400 -0.58 -0.00    +0.007 A  
DOCKED: ATOM      9  C   UNL     1     141.848  79.189 222.057 -0.47 +0.01    -0.013 A  
DOCKED: ATOM     10  C   UNL     1     141.645  77.964 221.189 -0.22 -0.09    +0.162 C  
DOCKED: ENDROOT
DOCKED: BRANCH   1  11
DOCKED: ATOM     11  S   UNL     1     141.263  77.008 218.609 -0.12 -0.10    +0.239 S  
DOCKED: ATOM     12  O   UNL     1     140.461  75.872 219.181 -0.05 +0.06    -0.206 OA 
DOCKED: ATOM     13  O   UNL     1     140.574  77.505 217.368 -0.03 +0.08    -0.206 OA 
DOCKED: BRANCH  11  14
DOCKED: ATOM     14  C   UNL     1     142.912  76.444 218.214 -0.21 -0.11    +0.195 C  
DOCKED: BRANCH  14  15
DOCKED: ATOM     15  C   UNL     1     143.249  75.204 218.991 -0.29 +0.01    -0.031 A  
DOCKED: ATOM     16  C   UNL     1     142.654  73.975 218.656 -0.13 -0.00    +0.005 A  
DOCKED: ATOM     17  C   UNL     1     144.118  75.271 220.094 -0.41 -0.00    +0.005 A  
DOCKED: ATOM     18  C   UNL     1     142.941  72.828 219.402 -0.17 -0.00    +0.000 A  
DOCKED: ATOM     19  C   UNL     1     144.402  74.121 220.837 -0.44 -0.00    +0.000 A  
DOCKED: ATOM     20  C   UNL     1     143.816  72.900 220.490 -0.36 -0.00    +0.000 A  
DOCKED: ENDBRANCH  14  15
DOCKED: ENDBRANCH  11  14
DOCKED: ENDBRANCH   1  11
DOCKED: BRANCH  10  21
DOCKED: ATOM     21  C   UNL     1     140.538  77.102 221.746 -0.35 -0.00    +0.005 A  
DOCKED: ATOM     22  C   UNL     1     140.617  75.737 222.004 -0.31 -0.02    +0.089 A  
DOCKED: ATOM     23  C   UNL     1     139.237  77.462 222.056 -0.29 -0.00    +0.005 A  
DOCKED: ATOM     24  N   UNL     1     139.431  75.267 222.450 -0.10 +0.06    -0.361 N  
DOCKED: ATOM     25  C   UNL     1     138.569  78.686 221.981 -0.20 -0.00    +0.011 A  
DOCKED: ATOM     26  C   UNL     1     138.600  76.321 222.475 -0.29 -0.01    +0.046 A  
DOCKED: ATOM     27  C   UNL     1     137.213  78.720 222.351 -0.17 -0.00    +0.001 A  
DOCKED: ATOM     28  C   UNL     1     137.256  76.325 222.846 -0.27 -0.01    +0.026 A  
DOCKED: ATOM     29  C   UNL     1     136.559  77.544 222.781 -0.20 -0.00    +0.002 A  
DOCKED: ATOM     30  H   UNL     1     139.207  74.280 222.707 -0.49 -0.04    +0.166 HD 
DOCKED: ENDBRANCH  10  21
DOCKED: TORSDOF 4
DOCKED: TER
DOCKED: ENDMDL
________________________________________________________________________________


    FINAL DOCKED STATE:
    ________________________


Run:   12 / 20
Time taken for this run:   0.022s

DOCKED: MODEL        12
DOCKED: USER    Run = 12
DOCKED: USER
DOCKED: USER    Estimated Free Energy of Binding    =  -7.58 kcal/mol  [=(1)+(2)+(3)-(4)]
DOCKED: USER
DOCKED: USER    (1) Final Intermolecular Energy     =  -8.77 kcal/mol
DOCKED: USER        vdW + Hbond + desolv Energy     =  -8.68 kcal/mol
DOCKED: USER        Electrostatic Energy            =  -0.09 kcal/mol
DOCKED: USER        Moving Ligand-Fixed Receptor    =  -8.77 kcal/mol
DOCKED: USER        Moving Ligand-Moving Receptor   =  +0.00 kcal/mol
DOCKED: USER    (2) Final Total Internal Energy     =  -2.20 kcal/mol
DOCKED: USER    (3) Torsional Free Energy           =  +1.19 kcal/mol
DOCKED: USER    (4) Unbound System's Energy         =  -2.20 kcal/mol
DOCKED: USER
DOCKED: USER
DOCKED: REMARK SMILES O=S(=O)(Cc1ccccc1)N1C=Cc2ccccc2[C@H]1c1c[nH]c2ccccc12
DOCKED: REMARK SMILES IDX 11 1 12 2 13 3 14 4 15 5 16 6 17 7 18 8 19 9 20 10 2 11 1 12
DOCKED: REMARK SMILES IDX 3 13 4 14 5 15 6 16 10 17 7 18 9 19 8 20 21 21 22 22 29 23
DOCKED: REMARK SMILES IDX 23 24 28 25 24 26 27 27 25 28 26 29
DOCKED: REMARK H PARENT 23 30
DOCKED: USER                              x       y       z     vdW  Elec       q    Type
DOCKED: USER                           _______ _______ _______ _____ _____    ______ ____
DOCKED: ROOT
DOCKED: ATOM      1  N   UNL     1     141.310  78.348 219.773 -0.11 +0.13    -0.265 N  
DOCKED: ATOM      2  C   UNL     1     141.073  79.696 219.338 -0.18 -0.04    +0.099 C  
DOCKED: ATOM      3  C   UNL     1     141.215  80.726 220.167 -0.28 -0.01    +0.027 C  
DOCKED: ATOM      4  C   UNL     1     141.619  80.519 221.565 -0.40 +0.01    -0.019 A  
DOCKED: ATOM      5  C   UNL     1     141.807  81.624 222.409 -0.47 -0.00    +0.008 A  
DOCKED: ATOM      6  C   UNL     1     142.205  81.437 223.735 -0.60 -0.00    +0.001 A  
DOCKED: ATOM      7  C   UNL     1     142.423  80.148 224.224 -0.50 -0.00    +0.000 A  
DOCKED: ATOM      8  C   UNL     1     142.236  79.041 223.391 -0.58 -0.00    +0.007 A  
DOCKED: ATOM      9  C   UNL     1     141.824  79.215 222.058 -0.47 +0.01    -0.013 A  
DOCKED: ATOM     10  C   UNL     1     141.612  78.001 221.175 -0.23 -0.09    +0.162 C  
DOCKED: ENDROOT
DOCKED: BRANCH   1  11
DOCKED: ATOM     11  S   UNL     1     141.191  77.083 218.588 -0.12 -0.10    +0.239 S  
DOCKED: ATOM     12  O   UNL     1     140.315  75.980 219.115 -0.04 +0.06    -0.206 OA 
DOCKED: ATOM     13  O   UNL     1     140.575  77.623 217.327 -0.03 +0.08    -0.206 OA 
DOCKED: BRANCH  11  14
DOCKED: ATOM     14  C   UNL     1     142.826  76.445 218.251 -0.21 -0.11    +0.195 C  
DOCKED: BRANCH  14  15
DOCKED: ATOM     15  C   UNL     1     143.108  75.233 219.093 -0.29 +0.01    -0.031 A  
DOCKED: ATOM     16  C   UNL     1     144.119  75.270 220.068 -0.40 -0.00    +0.005 A  
DOCKED: ATOM     17  C   UNL     1     142.403  74.038 218.874 -0.13 -0.00    +0.005 A  
DOCKED: ATOM     18  C   UNL     1     144.405  74.131 220.826 -0.44 -0.00    +0.000 A  
DOCKED: ATOM     19  C   UNL     1     142.692  72.902 219.635 -0.18 -0.00    +0.000 A  
DOCKED: ATOM     20  C   UNL     1     143.691  72.948 220.612 -0.35 -0.00    +0.000 A  
DOCKED: ENDBRANCH  14  15
DOCKED: ENDBRANCH  11  14
DOCKED: ENDBRANCH   1  11
DOCKED: BRANCH  10  21
DOCKED: ATOM     21  C   UNL     1     140.519  77.126 221.738 -0.35 -0.00    +0.005 A  
DOCKED: ATOM     22  C   UNL     1     140.613  75.760 221.986 -0.32 -0.02    +0.089 A  
DOCKED: ATOM     23  C   UNL     1     139.218  77.473 222.063 -0.29 -0.00    +0.005 A  
DOCKED: ATOM     24  N   UNL     1     139.435  75.276 222.441 -0.11 +0.06    -0.361 N  
DOCKED: ATOM     25  C   UNL     1     138.538  78.691 222.003 -0.20 -0.00    +0.011 A  
DOCKED: ATOM     26  C   UNL     1     138.596  76.323 222.481 -0.29 -0.01    +0.046 A  
DOCKED: ATOM     27  C   UNL     1     137.185  78.710 222.386 -0.18 -0.00    +0.001 A  
DOCKED: ATOM     28  C   UNL     1     137.255  76.313 222.865 -0.27 -0.01    +0.026 A  
DOCKED: ATOM     29  C   UNL     1     136.547  77.526 222.816 -0.19 -0.00    +0.002 A  
DOCKED: ATOM     30  H   UNL     1     139.223  74.286 222.694 -0.47 -0.04    +0.166 HD 
DOCKED: ENDBRANCH  10  21
DOCKED: TORSDOF 4
DOCKED: TER
DOCKED: ENDMDL
________________________________________________________________________________


    FINAL DOCKED STATE:
    ________________________


Run:   13 / 20
Time taken for this run:   0.022s

DOCKED: MODEL        13
DOCKED: USER    Run = 13
DOCKED: USER
DOCKED: USER    Estimated Free Energy of Binding    =  -7.58 kcal/mol  [=(1)+(2)+(3)-(4)]
DOCKED: USER
DOCKED: USER    (1) Final Intermolecular Energy     =  -8.77 kcal/mol
DOCKED: USER        vdW + Hbond + desolv Energy     =  -8.69 kcal/mol
DOCKED: USER        Electrostatic Energy            =  -0.09 kcal/mol
DOCKED: USER        Moving Ligand-Fixed Receptor    =  -8.77 kcal/mol
DOCKED: USER        Moving Ligand-Moving Receptor   =  +0.00 kcal/mol
DOCKED: USER    (2) Final Total Internal Energy     =  -2.20 kcal/mol
DOCKED: USER    (3) Torsional Free Energy           =  +1.19 kcal/mol
DOCKED: USER    (4) Unbound System's Energy         =  -2.20 kcal/mol
DOCKED: USER
DOCKED: USER
DOCKED: REMARK SMILES O=S(=O)(Cc1ccccc1)N1C=Cc2ccccc2[C@H]1c1c[nH]c2ccccc12
DOCKED: REMARK SMILES IDX 11 1 12 2 13 3 14 4 15 5 16 6 17 7 18 8 19 9 20 10 2 11 1 12
DOCKED: REMARK SMILES IDX 3 13 4 14 5 15 6 16 10 17 7 18 9 19 8 20 21 21 22 22 29 23
DOCKED: REMARK SMILES IDX 23 24 28 25 24 26 27 27 25 28 26 29
DOCKED: REMARK H PARENT 23 30
DOCKED: USER                              x       y       z     vdW  Elec       q    Type
DOCKED: USER                           _______ _______ _______ _____ _____    ______ ____
DOCKED: ROOT
DOCKED: ATOM      1  N   UNL     1     141.322  78.339 219.771 -0.11 +0.13    -0.265 N  
DOCKED: ATOM      2  C   UNL     1     141.088  79.683 219.325 -0.18 -0.04    +0.099 C  
DOCKED: ATOM      3  C   UNL     1     141.229  80.720 220.146 -0.28 -0.01    +0.027 C  
DOCKED: ATOM      4  C   UNL     1     141.629  80.523 221.546 -0.40 +0.01    -0.019 A  
DOCKED: ATOM      5  C   UNL     1     141.815  81.634 222.382 -0.46 -0.00    +0.008 A  
DOCKED: ATOM      6  C   UNL     1     142.210  81.458 223.710 -0.59 -0.00    +0.001 A  
DOCKED: ATOM      7  C   UNL     1     142.426  80.172 224.211 -0.51 -0.00    +0.000 A  
DOCKED: ATOM      8  C   UNL     1     142.240  79.059 223.386 -0.58 -0.00    +0.007 A  
DOCKED: ATOM      9  C   UNL     1     141.831  79.223 222.050 -0.47 +0.01    -0.013 A  
DOCKED: ATOM     10  C   UNL     1     141.620  78.002 221.176 -0.23 -0.09    +0.162 C  
DOCKED: ENDROOT
DOCKED: BRANCH   1  11
DOCKED: ATOM     11  S   UNL     1     141.205  77.064 218.596 -0.12 -0.10    +0.239 S  
DOCKED: ATOM     12  O   UNL     1     140.334  75.962 219.133 -0.04 +0.06    -0.206 OA 
DOCKED: ATOM     13  O   UNL     1     140.584  77.593 217.332 -0.03 +0.08    -0.206 OA 
DOCKED: BRANCH  11  14
DOCKED: ATOM     14  C   UNL     1     142.841  76.429 218.260 -0.21 -0.11    +0.195 C  
DOCKED: BRANCH  14  15
DOCKED: ATOM     15  C   UNL     1     143.124  75.217 219.100 -0.29 +0.01    -0.031 A  
DOCKED: ATOM     16  C   UNL     1     144.117  75.262 220.094 -0.41 -0.00    +0.005 A  
DOCKED: ATOM     17  C   UNL     1     142.440  74.013 218.862 -0.13 -0.00    +0.005 A  
DOCKED: ATOM     18  C   UNL     1     144.404  74.123 220.851 -0.42 -0.00    +0.000 A  
DOCKED: ATOM     19  C   UNL     1     142.731  72.877 219.622 -0.18 -0.00    +0.000 A  
DOCKED: ATOM     20  C   UNL     1     143.711  72.931 220.618 -0.35 -0.00    +0.000 A  
DOCKED: ENDBRANCH  14  15
DOCKED: ENDBRANCH  11  14
DOCKED: ENDBRANCH   1  11
DOCKED: BRANCH  10  21
DOCKED: ATOM     21  C   UNL     1     140.524  77.133 221.744 -0.35 -0.00    +0.005 A  
DOCKED: ATOM     22  C   UNL     1     140.618  75.770 222.008 -0.31 -0.02    +0.089 A  
DOCKED: ATOM     23  C   UNL     1     139.222  77.482 222.057 -0.28 -0.00    +0.005 A  
DOCKED: ATOM     24  N   UNL     1     139.439  75.290 222.461 -0.10 +0.06    -0.361 N  
DOCKED: ATOM     25  C   UNL     1     138.541  78.699 221.979 -0.20 -0.00    +0.011 A  
DOCKED: ATOM     26  C   UNL     1     138.598  76.337 222.485 -0.29 -0.01    +0.046 A  
DOCKED: ATOM     27  C   UNL     1     137.186  78.721 222.355 -0.17 -0.00    +0.001 A  
DOCKED: ATOM     28  C   UNL     1     137.255  76.330 222.862 -0.27 -0.01    +0.026 A  
DOCKED: ATOM     29  C   UNL     1     136.546  77.541 222.795 -0.19 -0.00    +0.002 A  
DOCKED: ATOM     30  H   UNL     1     139.226  74.303 222.725 -0.49 -0.04    +0.166 HD 
DOCKED: ENDBRANCH  10  21
DOCKED: TORSDOF 4
DOCKED: TER
DOCKED: ENDMDL
________________________________________________________________________________


    FINAL DOCKED STATE:
    ________________________


Run:   14 / 20
Time taken for this run:   0.022s

DOCKED: MODEL        14
DOCKED: USER    Run = 14
DOCKED: USER
DOCKED: USER    Estimated Free Energy of Binding    =  -7.76 kcal/mol  [=(1)+(2)+(3)-(4)]
DOCKED: USER
DOCKED: USER    (1) Final Intermolecular Energy     =  -8.96 kcal/mol
DOCKED: USER        vdW + Hbond + desolv Energy     =  -8.86 kcal/mol
DOCKED: USER        Electrostatic Energy            =  -0.09 kcal/mol
DOCKED: USER        Moving Ligand-Fixed Receptor    =  -8.96 kcal/mol
DOCKED: USER        Moving Ligand-Moving Receptor   =  +0.00 kcal/mol
DOCKED: USER    (2) Final Total Internal Energy     =  -2.01 kcal/mol
DOCKED: USER    (3) Torsional Free Energy           =  +1.19 kcal/mol
DOCKED: USER    (4) Unbound System's Energy         =  -2.01 kcal/mol
DOCKED: USER
DOCKED: USER
DOCKED: REMARK SMILES O=S(=O)(Cc1ccccc1)N1C=Cc2ccccc2[C@H]1c1c[nH]c2ccccc12
DOCKED: REMARK SMILES IDX 11 1 12 2 13 3 14 4 15 5 16 6 17 7 18 8 19 9 20 10 2 11 1 12
DOCKED: REMARK SMILES IDX 3 13 4 14 5 15 6 16 10 17 7 18 9 19 8 20 21 21 22 22 29 23
DOCKED: REMARK SMILES IDX 23 24 28 25 24 26 27 27 25 28 26 29
DOCKED: REMARK H PARENT 23 30
DOCKED: USER                              x       y       z     vdW  Elec       q    Type
DOCKED: USER                           _______ _______ _______ _____ _____    ______ ____
DOCKED: ROOT
DOCKED: ATOM      1  N   UNL     1     141.533  78.190 219.784 -0.13 +0.14    -0.265 N  
DOCKED: ATOM      2  C   UNL     1     141.326  79.514 219.268 -0.20 -0.05    +0.099 C  
DOCKED: ATOM      3  C   UNL     1     141.410  80.584 220.054 -0.29 -0.01    +0.027 C  
DOCKED: ATOM      4  C   UNL     1     141.716  80.447 221.484 -0.41 +0.01    -0.019 A  
DOCKED: ATOM      5  C   UNL     1     141.845  81.592 222.284 -0.45 -0.00    +0.008 A  
DOCKED: ATOM      6  C   UNL     1     142.151  81.472 223.642 -0.58 -0.00    +0.001 A  
DOCKED: ATOM      7  C   UNL     1     142.334  80.209 224.208 -0.51 -0.00    +0.000 A  
DOCKED: ATOM      8  C   UNL     1     142.206  79.062 223.419 -0.59 -0.00    +0.007 A  
DOCKED: ATOM      9  C   UNL     1     141.887  79.169 222.054 -0.47 +0.01    -0.013 A  
DOCKED: ATOM     10  C   UNL     1     141.737  77.913 221.218 -0.19 -0.10    +0.162 C  
DOCKED: ENDROOT
DOCKED: BRANCH   1  11
DOCKED: ATOM     11  S   UNL     1     141.497  76.867 218.657 -0.15 -0.11    +0.239 S  
DOCKED: ATOM     12  O   UNL     1     140.654  75.754 219.214 -0.05 +0.06    -0.206 OA 
DOCKED: ATOM     13  O   UNL     1     140.891  77.323 217.357 -0.04 +0.09    -0.206 OA 
DOCKED: BRANCH  11  14
DOCKED: ATOM     14  C   UNL     1     143.164  76.285 218.389 -0.22 -0.11    +0.195 C  
DOCKED: BRANCH  14  15
DOCKED: ATOM     15  C   UNL     1     143.421  75.030 219.174 -0.30 +0.01    -0.031 A  
DOCKED: ATOM     16  C   UNL     1     144.437  74.998 220.145 -0.38 -0.00    +0.005 A  
DOCKED: ATOM     17  C   UNL     1     142.688  73.862 218.905 -0.15 -0.00    +0.005 A  
DOCKED: ATOM     18  C   UNL     1     144.699  73.820 220.850 -0.52 -0.00    +0.000 A  
DOCKED: ATOM     19  C   UNL     1     142.954  72.686 219.613 -0.19 -0.00    +0.000 A  
DOCKED: ATOM     20  C   UNL     1     143.957  72.665 220.586 -0.37 -0.00    +0.000 A  
DOCKED: ENDBRANCH  14  15
DOCKED: ENDBRANCH  11  14
DOCKED: ENDBRANCH   1  11
DOCKED: BRANCH  10  21
DOCKED: ATOM     21  C   UNL     1     140.608  77.062 221.747 -0.36 -0.00    +0.005 A  
DOCKED: ATOM     22  C   UNL     1     140.662  75.693 221.991 -0.31 -0.02    +0.089 A  
DOCKED: ATOM     23  C   UNL     1     139.307  77.439 222.038 -0.29 -0.00    +0.005 A  
DOCKED: ATOM     24  N   UNL     1     139.461  75.236 222.410 -0.11 +0.06    -0.361 N  
DOCKED: ATOM     25  C   UNL     1     138.659  78.673 221.964 -0.21 -0.00    +0.011 A  
DOCKED: ATOM     26  C   UNL     1     138.646  76.303 222.433 -0.29 -0.01    +0.046 A  
DOCKED: ATOM     27  C   UNL     1     137.297  78.724 222.310 -0.18 -0.00    +0.001 A  
DOCKED: ATOM     28  C   UNL     1     137.295  76.323 222.779 -0.27 -0.01    +0.026 A  
DOCKED: ATOM     29  C   UNL     1     136.618  77.553 222.716 -0.20 -0.00    +0.002 A  
DOCKED: ATOM     30  H   UNL     1     139.218  74.250 222.653 -0.44 -0.04    +0.166 HD 
DOCKED: ENDBRANCH  10  21
DOCKED: TORSDOF 4
DOCKED: TER
DOCKED: ENDMDL
________________________________________________________________________________


    FINAL DOCKED STATE:
    ________________________


Run:   15 / 20
Time taken for this run:   0.022s

DOCKED: MODEL        15
DOCKED: USER    Run = 15
DOCKED: USER
DOCKED: USER    Estimated Free Energy of Binding    =  -7.61 kcal/mol  [=(1)+(2)+(3)-(4)]
DOCKED: USER
DOCKED: USER    (1) Final Intermolecular Energy     =  -8.81 kcal/mol
DOCKED: USER        vdW + Hbond + desolv Energy     =  -8.72 kcal/mol
DOCKED: USER        Electrostatic Energy            =  -0.09 kcal/mol
DOCKED: USER        Moving Ligand-Fixed Receptor    =  -8.81 kcal/mol
DOCKED: USER        Moving Ligand-Moving Receptor   =  +0.00 kcal/mol
DOCKED: USER    (2) Final Total Internal Energy     =  -2.16 kcal/mol
DOCKED: USER    (3) Torsional Free Energy           =  +1.19 kcal/mol
DOCKED: USER    (4) Unbound System's Energy         =  -2.16 kcal/mol
DOCKED: USER
DOCKED: USER
DOCKED: REMARK SMILES O=S(=O)(Cc1ccccc1)N1C=Cc2ccccc2[C@H]1c1c[nH]c2ccccc12
DOCKED: REMARK SMILES IDX 11 1 12 2 13 3 14 4 15 5 16 6 17 7 18 8 19 9 20 10 2 11 1 12
DOCKED: REMARK SMILES IDX 3 13 4 14 5 15 6 16 10 17 7 18 9 19 8 20 21 21 22 22 29 23
DOCKED: REMARK SMILES IDX 23 24 28 25 24 26 27 27 25 28 26 29
DOCKED: REMARK H PARENT 23 30
DOCKED: USER                              x       y       z     vdW  Elec       q    Type
DOCKED: USER                           _______ _______ _______ _____ _____    ______ ____
DOCKED: ROOT
DOCKED: ATOM      1  N   UNL     1     141.362  78.299 219.780 -0.12 +0.13    -0.265 N  
DOCKED: ATOM      2  C   UNL     1     141.135  79.641 219.323 -0.19 -0.05    +0.099 C  
DOCKED: ATOM      3  C   UNL     1     141.272  80.682 220.139 -0.28 -0.01    +0.027 C  
DOCKED: ATOM      4  C   UNL     1     141.659  80.494 221.543 -0.41 +0.01    -0.019 A  
DOCKED: ATOM      5  C   UNL     1     141.842  81.610 222.374 -0.46 -0.00    +0.008 A  
DOCKED: ATOM      6  C   UNL     1     142.225  81.440 223.707 -0.59 -0.00    +0.001 A  
DOCKED: ATOM      7  C   UNL     1     142.432  80.158 224.217 -0.51 -0.00    +0.000 A  
DOCKED: ATOM      8  C   UNL     1     142.251  79.040 223.398 -0.57 -0.00    +0.007 A  
DOCKED: ATOM      9  C   UNL     1     141.854  79.196 222.058 -0.47 +0.01    -0.013 A  
DOCKED: ATOM     10  C   UNL     1     141.647  77.971 221.189 -0.22 -0.09    +0.162 C  
DOCKED: ENDROOT
DOCKED: BRANCH   1  11
DOCKED: ATOM     11  S   UNL     1     141.251  77.017 218.612 -0.12 -0.10    +0.239 S  
DOCKED: ATOM     12  O   UNL     1     140.372  75.921 219.148 -0.04 +0.06    -0.206 OA 
DOCKED: ATOM     13  O   UNL     1     140.643  77.539 217.339 -0.03 +0.09    -0.206 OA 
DOCKED: BRANCH  11  14
DOCKED: ATOM     14  C   UNL     1     142.888  76.375 218.294 -0.21 -0.11    +0.195 C  
DOCKED: BRANCH  14  15
DOCKED: ATOM     15  C   UNL     1     143.157  75.163 219.139 -0.29 +0.01    -0.031 A  
DOCKED: ATOM     16  C   UNL     1     144.199  75.175 220.082 -0.39 -0.00    +0.005 A  
DOCKED: ATOM     17  C   UNL     1     142.408  73.989 218.955 -0.14 -0.00    +0.005 A  
DOCKED: ATOM     18  C   UNL     1     144.472  74.035 220.844 -0.46 -0.00    +0.000 A  
DOCKED: ATOM     19  C   UNL     1     142.684  72.851 219.719 -0.19 -0.00    +0.000 A  
DOCKED: ATOM     20  C   UNL     1     143.714  72.874 220.664 -0.34 -0.00    +0.000 A  
DOCKED: ENDBRANCH  14  15
DOCKED: ENDBRANCH  11  14
DOCKED: ENDBRANCH   1  11
DOCKED: BRANCH  10  21
DOCKED: ATOM     21  C   UNL     1     140.544  77.108 221.753 -0.36 -0.00    +0.005 A  
DOCKED: ATOM     22  C   UNL     1     140.626  75.742 222.009 -0.31 -0.02    +0.089 A  
DOCKED: ATOM     23  C   UNL     1     139.245  77.466 222.070 -0.29 -0.00    +0.005 A  
DOCKED: ATOM     24  N   UNL     1     139.443  75.271 222.462 -0.09 +0.06    -0.361 N  
DOCKED: ATOM     25  C   UNL     1     138.575  78.690 222.000 -0.20 -0.00    +0.011 A  
DOCKED: ATOM     26  C   UNL     1     138.611  76.324 222.492 -0.29 -0.01    +0.046 A  
DOCKED: ATOM     27  C   UNL     1     137.221  78.722 222.378 -0.18 -0.00    +0.001 A  
DOCKED: ATOM     28  C   UNL     1     137.269  76.327 222.870 -0.27 -0.01    +0.026 A  
DOCKED: ATOM     29  C   UNL     1     136.571  77.545 222.811 -0.19 -0.00    +0.002 A  
DOCKED: ATOM     30  H   UNL     1     139.222  74.283 222.720 -0.50 -0.04    +0.166 HD 
DOCKED: ENDBRANCH  10  21
DOCKED: TORSDOF 4
DOCKED: TER
DOCKED: ENDMDL
________________________________________________________________________________


    FINAL DOCKED STATE:
    ________________________


Run:   16 / 20
Time taken for this run:   0.022s

DOCKED: MODEL        16
DOCKED: USER    Run = 16
DOCKED: USER
DOCKED: USER    Estimated Free Energy of Binding    =  -7.49 kcal/mol  [=(1)+(2)+(3)-(4)]
DOCKED: USER
DOCKED: USER    (1) Final Intermolecular Energy     =  -8.69 kcal/mol
DOCKED: USER        vdW + Hbond + desolv Energy     =  -8.60 kcal/mol
DOCKED: USER        Electrostatic Energy            =  -0.09 kcal/mol
DOCKED: USER        Moving Ligand-Fixed Receptor    =  -8.69 kcal/mol
DOCKED: USER        Moving Ligand-Moving Receptor   =  +0.00 kcal/mol
DOCKED: USER    (2) Final Total Internal Energy     =  -2.21 kcal/mol
DOCKED: USER    (3) Torsional Free Energy           =  +1.19 kcal/mol
DOCKED: USER    (4) Unbound System's Energy         =  -2.21 kcal/mol
DOCKED: USER
DOCKED: USER
DOCKED: REMARK SMILES O=S(=O)(Cc1ccccc1)N1C=Cc2ccccc2[C@H]1c1c[nH]c2ccccc12
DOCKED: REMARK SMILES IDX 11 1 12 2 13 3 14 4 15 5 16 6 17 7 18 8 19 9 20 10 2 11 1 12
DOCKED: REMARK SMILES IDX 3 13 4 14 5 15 6 16 10 17 7 18 9 19 8 20 21 21 22 22 29 23
DOCKED: REMARK SMILES IDX 23 24 28 25 24 26 27 27 25 28 26 29
DOCKED: REMARK H PARENT 23 30
DOCKED: USER                              x       y       z     vdW  Elec       q    Type
DOCKED: USER                           _______ _______ _______ _____ _____    ______ ____
DOCKED: ROOT
DOCKED: ATOM      1  N   UNL     1     141.101  78.429 219.776 -0.09 +0.12    -0.265 N  
DOCKED: ATOM      2  C   UNL     1     140.872  79.793 219.390 -0.16 -0.04    +0.099 C  
DOCKED: ATOM      3  C   UNL     1     141.084  80.797 220.236 -0.27 -0.01    +0.027 C  
DOCKED: ATOM      4  C   UNL     1     141.560  80.543 221.602 -0.40 +0.01    -0.019 A  
DOCKED: ATOM      5  C   UNL     1     141.820  81.620 222.462 -0.47 -0.00    +0.008 A  
DOCKED: ATOM      6  C   UNL     1     142.287  81.390 223.759 -0.60 -0.00    +0.001 A  
DOCKED: ATOM      7  C   UNL     1     142.501  80.083 224.202 -0.50 -0.00    +0.000 A  
DOCKED: ATOM      8  C   UNL     1     142.243  79.004 223.353 -0.57 -0.00    +0.007 A  
DOCKED: ATOM      9  C   UNL     1     141.761  79.222 222.050 -0.47 +0.01    -0.013 A  
DOCKED: ATOM     10  C   UNL     1     141.472  78.038 221.149 -0.26 -0.09    +0.162 C  
DOCKED: ENDROOT
DOCKED: BRANCH   1  11
DOCKED: ATOM     11  S   UNL     1     140.886  77.198 218.568 -0.09 -0.10    +0.239 S  
DOCKED: ATOM     12  O   UNL     1     140.075  76.068 219.138 -0.04 +0.06    -0.206 OA 
DOCKED: ATOM     13  O   UNL     1     140.150  77.768 217.386 -0.02 +0.08    -0.206 OA 
DOCKED: BRANCH  11  14
DOCKED: ATOM     14  C   UNL     1     142.490  76.594 218.061 -0.18 -0.11    +0.195 C  
DOCKED: BRANCH  14  15
DOCKED: ATOM     15  C   UNL     1     142.921  75.443 218.925 -0.27 +0.01    -0.031 A  
DOCKED: ATOM     16  C   UNL     1     144.055  75.562 219.746 -0.34 -0.00    +0.005 A  
DOCKED: ATOM     17  C   UNL     1     142.229  74.221 218.877 -0.13 -0.00    +0.005 A  
DOCKED: ATOM     18  C   UNL     1     144.477  74.479 220.523 -0.46 -0.00    +0.000 A  
DOCKED: ATOM     19  C   UNL     1     142.654  73.141 219.657 -0.19 -0.00    +0.000 A  
DOCKED: ATOM     20  C   UNL     1     143.776  73.270 220.481 -0.38 -0.00    +0.000 A  
DOCKED: ENDBRANCH  14  15
DOCKED: ENDBRANCH  11  14
DOCKED: ENDBRANCH   1  11
DOCKED: BRANCH  10  21
DOCKED: ATOM     21  C   UNL     1     140.391  77.172 221.750 -0.34 -0.00    +0.005 A  
DOCKED: ATOM     22  C   UNL     1     140.472  75.801 221.970 -0.33 -0.02    +0.089 A  
DOCKED: ATOM     23  C   UNL     1     139.114  77.535 222.144 -0.29 -0.00    +0.005 A  
DOCKED: ATOM     24  N   UNL     1     139.310  75.329 222.474 -0.11 +0.07    -0.361 N  
DOCKED: ATOM     25  C   UNL     1     138.455  78.766 222.137 -0.21 -0.00    +0.011 A  
DOCKED: ATOM     26  C   UNL     1     138.492  76.390 222.573 -0.29 -0.01    +0.046 A  
DOCKED: ATOM     27  C   UNL     1     137.123  78.802 222.587 -0.19 -0.00    +0.001 A  
DOCKED: ATOM     28  C   UNL     1     137.171  76.396 223.022 -0.26 -0.01    +0.026 A  
DOCKED: ATOM     29  C   UNL     1     136.484  77.622 223.027 -0.17 -0.00    +0.002 A  
DOCKED: ATOM     30  H   UNL     1     139.092  74.338 222.720 -0.52 -0.05    +0.166 HD 
DOCKED: ENDBRANCH  10  21
DOCKED: TORSDOF 4
DOCKED: TER
DOCKED: ENDMDL
________________________________________________________________________________


    FINAL DOCKED STATE:
    ________________________


Run:   17 / 20
Time taken for this run:   0.022s

DOCKED: MODEL        17
DOCKED: USER    Run = 17
DOCKED: USER
DOCKED: USER    Estimated Free Energy of Binding    =  -7.74 kcal/mol  [=(1)+(2)+(3)-(4)]
DOCKED: USER
DOCKED: USER    (1) Final Intermolecular Energy     =  -8.93 kcal/mol
DOCKED: USER        vdW + Hbond + desolv Energy     =  -8.83 kcal/mol
DOCKED: USER        Electrostatic Energy            =  -0.10 kcal/mol
DOCKED: USER        Moving Ligand-Fixed Receptor    =  -8.93 kcal/mol
DOCKED: USER        Moving Ligand-Moving Receptor   =  +0.00 kcal/mol
DOCKED: USER    (2) Final Total Internal Energy     =  -1.99 kcal/mol
DOCKED: USER    (3) Torsional Free Energy           =  +1.19 kcal/mol
DOCKED: USER    (4) Unbound System's Energy         =  -1.99 kcal/mol
DOCKED: USER
DOCKED: USER
DOCKED: REMARK SMILES O=S(=O)(Cc1ccccc1)N1C=Cc2ccccc2[C@H]1c1c[nH]c2ccccc12
DOCKED: REMARK SMILES IDX 11 1 12 2 13 3 14 4 15 5 16 6 17 7 18 8 19 9 20 10 2 11 1 12
DOCKED: REMARK SMILES IDX 3 13 4 14 5 15 6 16 10 17 7 18 9 19 8 20 21 21 22 22 29 23
DOCKED: REMARK SMILES IDX 23 24 28 25 24 26 27 27 25 28 26 29
DOCKED: REMARK H PARENT 23 30
DOCKED: USER                              x       y       z     vdW  Elec       q    Type
DOCKED: USER                           _______ _______ _______ _____ _____    ______ ____
DOCKED: ROOT
DOCKED: ATOM      1  N   UNL     1     141.351  78.262 219.722 -0.11 +0.13    -0.265 N  
DOCKED: ATOM      2  C   UNL     1     141.132  79.603 219.257 -0.18 -0.05    +0.099 C  
DOCKED: ATOM      3  C   UNL     1     141.269  80.648 220.068 -0.28 -0.01    +0.027 C  
DOCKED: ATOM      4  C   UNL     1     141.646  80.465 221.476 -0.40 +0.01    -0.019 A  
DOCKED: ATOM      5  C   UNL     1     141.828  81.584 222.302 -0.46 -0.00    +0.008 A  
DOCKED: ATOM      6  C   UNL     1     142.202  81.421 223.638 -0.60 -0.00    +0.001 A  
DOCKED: ATOM      7  C   UNL     1     142.401  80.140 224.157 -0.53 -0.00    +0.000 A  
DOCKED: ATOM      8  C   UNL     1     142.219  79.019 223.342 -0.58 -0.00    +0.007 A  
DOCKED: ATOM      9  C   UNL     1     141.832  79.169 221.998 -0.47 +0.01    -0.013 A  
DOCKED: ATOM     10  C   UNL     1     141.625  77.940 221.135 -0.23 -0.09    +0.162 C  
DOCKED: ENDROOT
DOCKED: BRANCH   1  11
DOCKED: ATOM     11  S   UNL     1     141.242  76.974 218.560 -0.12 -0.10    +0.239 S  
DOCKED: ATOM     12  O   UNL     1     140.800  75.712 219.247 -0.06 +0.07    -0.206 OA 
DOCKED: ATOM     13  O   UNL     1     140.230  77.326 217.505 -0.02 +0.07    -0.206 OA 
DOCKED: BRANCH  11  14
DOCKED: ATOM     14  C   UNL     1     142.847  76.725 217.816 -0.21 -0.12    +0.195 C  
DOCKED: BRANCH  14  15
DOCKED: ATOM     15  C   UNL     1     143.566  75.581 218.472 -0.24 +0.02    -0.031 A  
DOCKED: ATOM     16  C   UNL     1     144.011  74.491 217.703 -0.17 -0.00    +0.005 A  
DOCKED: ATOM     17  C   UNL     1     143.747  75.562 219.865 -0.39 -0.00    +0.005 A  
DOCKED: ATOM     18  C   UNL     1     144.647  73.410 218.319 -0.22 -0.00    +0.000 A  
DOCKED: ATOM     19  C   UNL     1     144.385  74.479 220.477 -0.48 -0.00    +0.000 A  
DOCKED: ATOM     20  C   UNL     1     144.837  73.404 219.705 -0.42 -0.00    +0.000 A  
DOCKED: ENDBRANCH  14  15
DOCKED: ENDBRANCH  11  14
DOCKED: ENDBRANCH   1  11
DOCKED: BRANCH  10  21
DOCKED: ATOM     21  C   UNL     1     140.515  77.085 221.696 -0.35 -0.00    +0.005 A  
DOCKED: ATOM     22  C   UNL     1     140.593  75.723 221.968 -0.33 -0.02    +0.089 A  
DOCKED: ATOM     23  C   UNL     1     139.213  77.449 221.995 -0.28 -0.00    +0.005 A  
DOCKED: ATOM     24  N   UNL     1     139.404  75.257 222.413 -0.12 +0.06    -0.361 N  
DOCKED: ATOM     25  C   UNL     1     138.546  78.672 221.903 -0.19 -0.00    +0.011 A  
DOCKED: ATOM     26  C   UNL     1     138.573  76.312 222.423 -0.29 -0.01    +0.046 A  
DOCKED: ATOM     27  C   UNL     1     137.188  78.710 222.266 -0.17 -0.00    +0.001 A  
DOCKED: ATOM     28  C   UNL     1     137.227  76.321 222.786 -0.27 -0.01    +0.026 A  
DOCKED: ATOM     29  C   UNL     1     136.531  77.539 222.705 -0.20 -0.00    +0.002 A  
DOCKED: ATOM     30  H   UNL     1     139.179  74.273 222.679 -0.48 -0.05    +0.166 HD 
DOCKED: ENDBRANCH  10  21
DOCKED: TORSDOF 4
DOCKED: TER
DOCKED: ENDMDL
________________________________________________________________________________


    FINAL DOCKED STATE:
    ________________________


Run:   18 / 20
Time taken for this run:   0.022s

DOCKED: MODEL        18
DOCKED: USER    Run = 18
DOCKED: USER
DOCKED: USER    Estimated Free Energy of Binding    =  -7.59 kcal/mol  [=(1)+(2)+(3)-(4)]
DOCKED: USER
DOCKED: USER    (1) Final Intermolecular Energy     =  -8.78 kcal/mol
DOCKED: USER        vdW + Hbond + desolv Energy     =  -8.69 kcal/mol
DOCKED: USER        Electrostatic Energy            =  -0.09 kcal/mol
DOCKED: USER        Moving Ligand-Fixed Receptor    =  -8.78 kcal/mol
DOCKED: USER        Moving Ligand-Moving Receptor   =  +0.00 kcal/mol
DOCKED: USER    (2) Final Total Internal Energy     =  -2.20 kcal/mol
DOCKED: USER    (3) Torsional Free Energy           =  +1.19 kcal/mol
DOCKED: USER    (4) Unbound System's Energy         =  -2.20 kcal/mol
DOCKED: USER
DOCKED: USER
DOCKED: REMARK SMILES O=S(=O)(Cc1ccccc1)N1C=Cc2ccccc2[C@H]1c1c[nH]c2ccccc12
DOCKED: REMARK SMILES IDX 11 1 12 2 13 3 14 4 15 5 16 6 17 7 18 8 19 9 20 10 2 11 1 12
DOCKED: REMARK SMILES IDX 3 13 4 14 5 15 6 16 10 17 7 18 9 19 8 20 21 21 22 22 29 23
DOCKED: REMARK SMILES IDX 23 24 28 25 24 26 27 27 25 28 26 29
DOCKED: REMARK H PARENT 23 30
DOCKED: USER                              x       y       z     vdW  Elec       q    Type
DOCKED: USER                           _______ _______ _______ _____ _____    ______ ____
DOCKED: ROOT
DOCKED: ATOM      1  N   UNL     1     141.314  78.316 219.769 -0.11 +0.13    -0.265 N  
DOCKED: ATOM      2  C   UNL     1     141.080  79.662 219.327 -0.18 -0.04    +0.099 C  
DOCKED: ATOM      3  C   UNL     1     141.222  80.695 220.153 -0.28 -0.01    +0.027 C  
DOCKED: ATOM      4  C   UNL     1     141.622  80.494 221.551 -0.40 +0.01    -0.019 A  
DOCKED: ATOM      5  C   UNL     1     141.809  81.601 222.391 -0.47 -0.00    +0.008 A  
DOCKED: ATOM      6  C   UNL     1     142.204  81.420 223.719 -0.60 -0.00    +0.001 A  
DOCKED: ATOM      7  C   UNL     1     142.419  80.132 224.215 -0.51 -0.00    +0.000 A  
DOCKED: ATOM      8  C   UNL     1     142.232  79.023 223.386 -0.58 -0.00    +0.007 A  
DOCKED: ATOM      9  C   UNL     1     141.824  79.191 222.051 -0.47 +0.01    -0.013 A  
DOCKED: ATOM     10  C   UNL     1     141.612  77.974 221.172 -0.23 -0.09    +0.162 C  
DOCKED: ENDROOT
DOCKED: BRANCH   1  11
DOCKED: ATOM     11  S   UNL     1     141.196  77.045 218.589 -0.12 -0.10    +0.239 S  
DOCKED: ATOM     12  O   UNL     1     140.345  75.931 219.132 -0.04 +0.06    -0.206 OA 
DOCKED: ATOM     13  O   UNL     1     140.553  77.573 217.335 -0.03 +0.08    -0.206 OA 
DOCKED: BRANCH  11  14
DOCKED: ATOM     14  C   UNL     1     142.835  76.431 218.229 -0.21 -0.11    +0.195 C  
DOCKED: BRANCH  14  15
DOCKED: ATOM     15  C   UNL     1     143.138  75.212 219.053 -0.28 +0.01    -0.031 A  
DOCKED: ATOM     16  C   UNL     1     144.076  75.281 220.097 -0.42 -0.00    +0.005 A  
DOCKED: ATOM     17  C   UNL     1     142.531  73.981 218.751 -0.13 -0.00    +0.005 A  
DOCKED: ATOM     18  C   UNL     1     144.385  74.138 220.841 -0.43 -0.00    +0.000 A  
DOCKED: ATOM     19  C   UNL     1     142.843  72.842 219.498 -0.17 -0.00    +0.000 A  
DOCKED: ATOM     20  C   UNL     1     143.767  72.920 220.544 -0.36 -0.00    +0.000 A  
DOCKED: ENDBRANCH  14  15
DOCKED: ENDBRANCH  11  14
DOCKED: ENDBRANCH   1  11
DOCKED: BRANCH  10  21
DOCKED: ATOM     21  C   UNL     1     140.516  77.103 221.737 -0.35 -0.00    +0.005 A  
DOCKED: ATOM     22  C   UNL     1     140.607  75.738 221.991 -0.32 -0.02    +0.089 A  
DOCKED: ATOM     23  C   UNL     1     139.215  77.452 222.057 -0.29 -0.00    +0.005 A  
DOCKED: ATOM     24  N   UNL     1     139.428  75.258 222.445 -0.10 +0.06    -0.361 N  
DOCKED: ATOM     25  C   UNL     1     138.537  78.671 221.989 -0.20 -0.00    +0.011 A  
DOCKED: ATOM     26  C   UNL     1     138.590  76.306 222.478 -0.29 -0.01    +0.046 A  
DOCKED: ATOM     27  C   UNL     1     137.183  78.694 222.369 -0.17 -0.00    +0.001 A  
DOCKED: ATOM     28  C   UNL     1     137.248  76.299 222.859 -0.27 -0.01    +0.026 A  
DOCKED: ATOM     29  C   UNL     1     136.542  77.512 222.802 -0.19 -0.00    +0.002 A  
DOCKED: ATOM     30  H   UNL     1     139.214  74.269 222.702 -0.49 -0.04    +0.166 HD 
DOCKED: ENDBRANCH  10  21
DOCKED: TORSDOF 4
DOCKED: TER
DOCKED: ENDMDL
________________________________________________________________________________


    FINAL DOCKED STATE:
    ________________________


Run:   19 / 20
Time taken for this run:   0.022s

DOCKED: MODEL        19
DOCKED: USER    Run = 19
DOCKED: USER
DOCKED: USER    Estimated Free Energy of Binding    =  -7.59 kcal/mol  [=(1)+(2)+(3)-(4)]
DOCKED: USER
DOCKED: USER    (1) Final Intermolecular Energy     =  -8.78 kcal/mol
DOCKED: USER        vdW + Hbond + desolv Energy     =  -8.69 kcal/mol
DOCKED: USER        Electrostatic Energy            =  -0.09 kcal/mol
DOCKED: USER        Moving Ligand-Fixed Receptor    =  -8.78 kcal/mol
DOCKED: USER        Moving Ligand-Moving Receptor   =  +0.00 kcal/mol
DOCKED: USER    (2) Final Total Internal Energy     =  -2.17 kcal/mol
DOCKED: USER    (3) Torsional Free Energy           =  +1.19 kcal/mol
DOCKED: USER    (4) Unbound System's Energy         =  -2.17 kcal/mol
DOCKED: USER
DOCKED: USER
DOCKED: REMARK SMILES O=S(=O)(Cc1ccccc1)N1C=Cc2ccccc2[C@H]1c1c[nH]c2ccccc12
DOCKED: REMARK SMILES IDX 11 1 12 2 13 3 14 4 15 5 16 6 17 7 18 8 19 9 20 10 2 11 1 12
DOCKED: REMARK SMILES IDX 3 13 4 14 5 15 6 16 10 17 7 18 9 19 8 20 21 21 22 22 29 23
DOCKED: REMARK SMILES IDX 23 24 28 25 24 26 27 27 25 28 26 29
DOCKED: REMARK H PARENT 23 30
DOCKED: USER                              x       y       z     vdW  Elec       q    Type
DOCKED: USER                           _______ _______ _______ _____ _____    ______ ____
DOCKED: ROOT
DOCKED: ATOM      1  N   UNL     1     141.320  78.337 219.774 -0.11 +0.13    -0.265 N  
DOCKED: ATOM      2  C   UNL     1     141.101  79.682 219.321 -0.18 -0.05    +0.099 C  
DOCKED: ATOM      3  C   UNL     1     141.242  80.720 220.140 -0.28 -0.01    +0.027 C  
DOCKED: ATOM      4  C   UNL     1     141.627  80.525 221.545 -0.40 +0.01    -0.019 A  
DOCKED: ATOM      5  C   UNL     1     141.815  81.637 222.378 -0.46 -0.00    +0.008 A  
DOCKED: ATOM      6  C   UNL     1     142.196  81.461 223.711 -0.60 -0.00    +0.001 A  
DOCKED: ATOM      7  C   UNL     1     142.395  80.176 224.218 -0.51 -0.00    +0.000 A  
DOCKED: ATOM      8  C   UNL     1     142.208  79.062 223.395 -0.59 -0.00    +0.007 A  
DOCKED: ATOM      9  C   UNL     1     141.814  79.224 222.055 -0.47 +0.01    -0.013 A  
DOCKED: ATOM     10  C   UNL     1     141.601  78.003 221.183 -0.24 -0.09    +0.162 C  
DOCKED: ENDROOT
DOCKED: BRANCH   1  11
DOCKED: ATOM     11  S   UNL     1     141.203  77.059 218.602 -0.12 -0.10    +0.239 S  
DOCKED: ATOM     12  O   UNL     1     140.366  75.940 219.158 -0.04 +0.06    -0.206 OA 
DOCKED: ATOM     13  O   UNL     1     140.546  77.574 217.351 -0.03 +0.08    -0.206 OA 
DOCKED: BRANCH  11  14
DOCKED: ATOM     14  C   UNL     1     142.845  76.457 218.232 -0.21 -0.11    +0.195 C  
DOCKED: BRANCH  14  15
DOCKED: ATOM     15  C   UNL     1     143.151  75.224 219.032 -0.28 +0.01    -0.031 A  
DOCKED: ATOM     16  C   UNL     1     142.457  74.027 218.783 -0.13 -0.00    +0.005 A  
DOCKED: ATOM     17  C   UNL     1     144.092  75.270 220.075 -0.41 -0.00    +0.005 A  
DOCKED: ATOM     18  C   UNL     1     142.718  72.890 219.552 -0.17 -0.00    +0.000 A  
DOCKED: ATOM     19  C   UNL     1     144.350  74.130 220.841 -0.42 -0.00    +0.000 A  
DOCKED: ATOM     20  C   UNL     1     143.665  72.939 220.579 -0.35 -0.00    +0.000 A  
DOCKED: ENDBRANCH  14  15
DOCKED: ENDBRANCH  11  14
DOCKED: ENDBRANCH   1  11
DOCKED: BRANCH  10  21
DOCKED: ATOM     21  C   UNL     1     140.493  77.144 221.743 -0.35 -0.00    +0.005 A  
DOCKED: ATOM     22  C   UNL     1     140.571  75.780 222.006 -0.31 -0.02    +0.089 A  
DOCKED: ATOM     23  C   UNL     1     139.192  77.506 222.048 -0.28 -0.00    +0.005 A  
DOCKED: ATOM     24  N   UNL     1     139.384  75.312 222.452 -0.11 +0.06    -0.361 N  
DOCKED: ATOM     25  C   UNL     1     138.525  78.730 221.966 -0.20 -0.00    +0.011 A  
DOCKED: ATOM     26  C   UNL     1     138.554  76.367 222.471 -0.29 -0.01    +0.046 A  
DOCKED: ATOM     27  C   UNL     1     137.168  78.766 222.334 -0.17 -0.00    +0.001 A  
DOCKED: ATOM     28  C   UNL     1     137.208  76.374 222.839 -0.27 -0.01    +0.026 A  
DOCKED: ATOM     29  C   UNL     1     136.513  77.593 222.768 -0.19 -0.00    +0.002 A  
DOCKED: ATOM     30  H   UNL     1     139.159  74.327 222.713 -0.50 -0.05    +0.166 HD 
DOCKED: ENDBRANCH  10  21
DOCKED: TORSDOF 4
DOCKED: TER
DOCKED: ENDMDL
________________________________________________________________________________


    FINAL DOCKED STATE:
    ________________________


Run:   20 / 20
Time taken for this run:   0.022s

DOCKED: MODEL        20
DOCKED: USER    Run = 20
DOCKED: USER
DOCKED: USER    Estimated Free Energy of Binding    =  -7.58 kcal/mol  [=(1)+(2)+(3)-(4)]
DOCKED: USER
DOCKED: USER    (1) Final Intermolecular Energy     =  -8.78 kcal/mol
DOCKED: USER        vdW + Hbond + desolv Energy     =  -8.69 kcal/mol
DOCKED: USER        Electrostatic Energy            =  -0.09 kcal/mol
DOCKED: USER        Moving Ligand-Fixed Receptor    =  -8.78 kcal/mol
DOCKED: USER        Moving Ligand-Moving Receptor   =  +0.00 kcal/mol
DOCKED: USER    (2) Final Total Internal Energy     =  -2.20 kcal/mol
DOCKED: USER    (3) Torsional Free Energy           =  +1.19 kcal/mol
DOCKED: USER    (4) Unbound System's Energy         =  -2.20 kcal/mol
DOCKED: USER
DOCKED: USER
DOCKED: REMARK SMILES O=S(=O)(Cc1ccccc1)N1C=Cc2ccccc2[C@H]1c1c[nH]c2ccccc12
DOCKED: REMARK SMILES IDX 11 1 12 2 13 3 14 4 15 5 16 6 17 7 18 8 19 9 20 10 2 11 1 12
DOCKED: REMARK SMILES IDX 3 13 4 14 5 15 6 16 10 17 7 18 9 19 8 20 21 21 22 22 29 23
DOCKED: REMARK SMILES IDX 23 24 28 25 24 26 27 27 25 28 26 29
DOCKED: REMARK H PARENT 23 30
DOCKED: USER                              x       y       z     vdW  Elec       q    Type
DOCKED: USER                           _______ _______ _______ _____ _____    ______ ____
DOCKED: ROOT
DOCKED: ATOM      1  N   UNL     1     141.307  78.309 219.753 -0.11 +0.13    -0.265 N  
DOCKED: ATOM      2  C   UNL     1     141.073  79.653 219.303 -0.18 -0.04    +0.099 C  
DOCKED: ATOM      3  C   UNL     1     141.212  80.691 220.123 -0.27 -0.01    +0.027 C  
DOCKED: ATOM      4  C   UNL     1     141.609  80.497 221.524 -0.40 +0.01    -0.019 A  
DOCKED: ATOM      5  C   UNL     1     141.793  81.610 222.358 -0.46 -0.00    +0.008 A  
DOCKED: ATOM      6  C   UNL     1     142.185  81.436 223.688 -0.60 -0.00    +0.001 A  
DOCKED: ATOM      7  C   UNL     1     142.399  80.152 224.191 -0.52 -0.00    +0.000 A  
DOCKED: ATOM      8  C   UNL     1     142.216  79.037 223.368 -0.59 -0.00    +0.007 A  
DOCKED: ATOM      9  C   UNL     1     141.810  79.198 222.031 -0.47 +0.01    -0.013 A  
DOCKED: ATOM     10  C   UNL     1     141.601  77.976 221.159 -0.23 -0.09    +0.162 C  
DOCKED: ENDROOT
DOCKED: BRANCH   1  11
DOCKED: ATOM     11  S   UNL     1     141.193  77.032 218.579 -0.12 -0.10    +0.239 S  
DOCKED: ATOM     12  O   UNL     1     140.334  75.925 219.123 -0.04 +0.06    -0.206 OA 
DOCKED: ATOM     13  O   UNL     1     140.561  77.554 217.318 -0.03 +0.08    -0.206 OA 
DOCKED: BRANCH  11  14
DOCKED: ATOM     14  C   UNL     1     142.832  76.409 218.235 -0.21 -0.11    +0.195 C  
DOCKED: BRANCH  14  15
DOCKED: ATOM     15  C   UNL     1     143.125  75.195 219.069 -0.28 +0.01    -0.031 A  
DOCKED: ATOM     16  C   UNL     1     144.091  75.252 220.087 -0.42 -0.00    +0.005 A  
DOCKED: ATOM     17  C   UNL     1     142.478  73.977 218.800 -0.13 -0.00    +0.005 A  
DOCKED: ATOM     18  C   UNL     1     144.389  74.112 220.839 -0.43 -0.00    +0.000 A  
DOCKED: ATOM     19  C   UNL     1     142.779  72.839 219.555 -0.18 -0.00    +0.000 A  
DOCKED: ATOM     20  C   UNL     1     143.732  72.907 220.575 -0.35 -0.00    +0.000 A  
DOCKED: ENDBRANCH  14  15
DOCKED: ENDBRANCH  11  14
DOCKED: ENDBRANCH   1  11
DOCKED: BRANCH  10  21
DOCKED: ATOM     21  C   UNL     1     140.505  77.107 221.725 -0.35 -0.00    +0.005 A  
DOCKED: ATOM     22  C   UNL     1     140.600  75.746 221.996 -0.32 -0.02    +0.089 A  
DOCKED: ATOM     23  C   UNL     1     139.200  77.455 222.031 -0.28 -0.00    +0.005 A  
DOCKED: ATOM     24  N   UNL     1     139.419  75.266 222.447 -0.10 +0.06    -0.361 N  
DOCKED: ATOM     25  C   UNL     1     138.518  78.671 221.944 -0.20 -0.00    +0.011 A  
DOCKED: ATOM     26  C   UNL     1     138.576  76.311 222.462 -0.29 -0.01    +0.046 A  
DOCKED: ATOM     27  C   UNL     1     137.161  78.692 222.314 -0.17 -0.00    +0.001 A  
DOCKED: ATOM     28  C   UNL     1     137.232  76.303 222.832 -0.27 -0.01    +0.026 A  
DOCKED: ATOM     29  C   UNL     1     136.521  77.513 222.756 -0.20 -0.00    +0.002 A  
DOCKED: ATOM     30  H   UNL     1     139.207  74.279 222.714 -0.50 -0.05    +0.166 HD 
DOCKED: ENDBRANCH  10  21
DOCKED: TORSDOF 4
DOCKED: TER
DOCKED: ENDMDL
________________________________________________________________________________


    CLUSTERING HISTOGRAM
    ____________________


________________________________________________________________________________
     |           |     |           |     |
Clus | Lowest    | Run | Mean      | Num | Histogram
-ter | Binding   |     | Binding   | in  |
Rank | Energy    |     | Energy    | Clus|    5    10   15   20   25   30   35
_____|___________|_____|___________|_____|____:____|____:____|____:____|____:___
   1 |     -7.77 |   6 |     -7.60 |  18 |##################
   2 |     -6.74 |   1 |     -6.72 |   2 |##
_____|___________|_____|___________|_____|______________________________________


    RMSD TABLE
    __________


_______________________________________________________________________
     |      |      |           |         |                 |
Rank | Sub- | Run  | Binding   | Cluster | Reference       | Grep
     | Rank |      | Energy    | RMSD    | RMSD            | Pattern
_____|______|______|___________|_________|_________________|___________
   1      1      6       -7.77      0.00    271.73           RANKING
   1      2     14       -7.76      0.07    271.72           RANKING
   1      3      3       -7.76      0.08    271.71           RANKING
   1      4     17       -7.74      0.61    271.62           RANKING
   1      5      7       -7.62      0.24    271.66           RANKING
   1      6     11       -7.62      0.23    271.68           RANKING
   1      7     15       -7.61      0.26    271.70           RANKING
   1      8      2       -7.59      0.24    271.67           RANKING
   1      9     18       -7.59      0.28    271.67           RANKING
   1     10     19       -7.59      0.29    271.67           RANKING
   1     11     20       -7.58      0.28    271.65           RANKING
   1     12      5       -7.58      0.30    271.68           RANKING
   1     13     13       -7.58      0.29    271.69           RANKING
   1     14     12       -7.58      0.31    271.68           RANKING
   1     15      9       -7.57      0.32    271.68           RANKING
   1     16     10       -7.57      0.30    271.67           RANKING
   1     17     16       -7.49      0.50    271.66           RANKING
   1     18      4       -7.24      0.80    271.66           RANKING
   2      1      1       -6.74      0.00    271.62           RANKING
   2      2      8       -6.71      0.06    271.63           RANKING

Run time 0.416 sec
Idle time 0.000 sec
