REMARK SMILES [11C][11C][11C][11C][11C][11C][11C][11C][11C][11C][11C][11C]1[11C][11C][11C][11C][11C]1[11C][11C][11C][11C][11C][11C][11C]1[11C][11C][11C]1[11C][11C][11C][11C][11C][11C]1[11C][11C][11C][11C][11C][11C][11C][11C][11C][11C][11C][11C][11C][11C][11C][11C][11C][11C][11C][11C][11C]1[11C][11C][11C][11C][11C][11C][11C][11C][11C][11C][11C][11C][11C][11C][11C][11C][11C][11C][11C][11C][11C][11C][11C][11C][11C][11C][11C][11C][11C][11C][11C][11C][11C][11C][11C][11C][11C][11C][11C]1[11C][11C][11C][11C][11C][11C][11C][11C][11C][11C][11C][11C][11C][11C][11C][11C][11C][11C][11C][11C][11C][11C][11C][11C][11C][11C]1
REMARK SMILES IDX 67 1 66 2 65 3 64 4 63 5 62 6 61 7 60 8 59 9 58 10 57 11
REMARK SMILES IDX 56 12 55 13 54 14 33 15 32 16 31 17 30 18 29 19 28 20 27 21
REMARK SMILES IDX 24 22 25 23 26 24 23 25 22 26 21 27 20 28 19 29 18 30 17 31
REMARK SMILES IDX 12 32 13 33 14 34 16 35 15 36 11 37 10 38 9 39 8 40 7 41
REMARK SMILES IDX 6 42 5 43 4 44 3 45 2 46 1 47 34 48 35 49 36 50 37 51 38 52
REMARK SMILES IDX 39 53 40 54 41 55 42 56 43 57 53 59 52 60 51 61 50 62 49 63
REMARK SMILES IDX 48 64 47 65 46 66 45 67 44 68 68 70 69 71 70 72 71 73 72 74
REMARK SMILES IDX 73 75 74 76 75 77 76 78 77 79 78 80 79 81 80 82 81 83 82 84
REMARK SMILES IDX 83 85 84 86 85 87 86 88 87 89 88 90 89 91 90 92 91 93 92 94
REMARK SMILES IDX 93 95 94 96 95 97 96 98 97 99 98 100 99 101 100 102 101 103
REMARK SMILES IDX 102 104 103 105 104 106 105 107 106 108 119 110 118 111
REMARK SMILES IDX 117 112 116 113 115 114 114 115 113 116 112 117 111 118
REMARK SMILES IDX 110 119 109 120 108 121 107 122
REMARK H PARENT
REMARK Flexibility Score: 4844.800
ROOT
ATOM      1  C   UNL     1       3.596   5.713  -3.316  1.00  0.00     0.000 C 
ENDROOT
BRANCH   1   2
ATOM      2  C   UNL     1       3.369   6.736  -4.414  1.00  0.00     0.000 C 
BRANCH   2   3
ATOM      3  C   UNL     1       2.484   6.156  -5.509  1.00  0.00     0.000 C 
BRANCH   3   4
ATOM      4  C   UNL     1       1.026   6.139  -5.069  1.00  0.00     0.000 C 
BRANCH   4   5
ATOM      5  C   UNL     1       0.331   7.472  -5.341  1.00  0.00     0.000 C 
BRANCH   5   6
ATOM      6  C   UNL     1       0.772   8.567  -4.369  1.00  0.00     0.000 C 
BRANCH   6   7
ATOM      7  C   UNL     1       0.389   8.215  -2.942  1.00  0.00     0.000 C 
BRANCH   7   8
ATOM      8  C   UNL     1      -1.100   8.423  -2.708  1.00  0.00     0.000 C 
BRANCH   8   9
ATOM      9  C   UNL     1      -1.613   7.326  -1.796  1.00  0.00     0.000 C 
BRANCH   9  10
ATOM     10  C   UNL     1      -2.059   6.145  -2.637  1.00  0.00     0.000 C 
BRANCH  10  11
ATOM     11  C   UNL     1      -1.824   4.849  -1.887  1.00  0.00     0.000 C 
BRANCH  11  12
ATOM     12  C   UNL     1      -0.387   4.401  -2.068  1.00  0.00     0.000 C 
BRANCH  12  13
ATOM     13  C   UNL     1      -0.226   2.999  -1.522  1.00  0.00     0.000 C 
BRANCH  13  14
ATOM     14  C   UNL     1       1.174   2.483  -1.808  1.00  0.00     0.000 C 
BRANCH  14  15
ATOM     15  C   UNL     1       1.078   1.072  -2.405  1.00  0.00     0.000 C 
BRANCH  15  16
ATOM     16  C   UNL     1       2.437   0.371  -2.415  1.00  0.00     0.000 C 
BRANCH  16  17
ATOM     17  C   UNL     1       2.268  -1.137  -2.355  1.00  0.00     0.000 C 
BRANCH  17  18
ATOM     18  C   UNL     1       1.998  -1.577  -0.930  1.00  0.00     0.000 C 
BRANCH  18  19
ATOM     19  C   UNL     1       1.655  -3.051  -0.901  1.00  0.00     0.000 C 
BRANCH  19  20
ATOM     20  C   UNL     1       1.487  -3.510   0.538  1.00  0.00     0.000 C 
BRANCH  20  21
ATOM     21  C   UNL     1       0.209  -2.923   1.137  1.00  0.00     0.000 C 
ATOM     22  C   UNL     1      -1.039  -3.801   1.039  1.00  0.00     0.000 C 
ATOM     23  C   UNL     1      -1.059  -3.918   2.550  1.00  0.00     0.000 C 
ATOM     24  C   UNL     1       0.201  -3.083   2.638  1.00  0.00     0.000 C 
BRANCH  22  25
ATOM     25  C   UNL     1      -0.819  -5.190   0.441  1.00  0.00     0.000 C 
BRANCH  25  26
ATOM     26  C   UNL     1      -2.084  -5.700  -0.235  1.00  0.00     0.000 C 
BRANCH  26  27
ATOM     27  C   UNL     1      -3.167  -6.074   0.768  1.00  0.00     0.000 C 
BRANCH  27  28
ATOM     28  C   UNL     1      -4.366  -5.153   0.596  1.00  0.00     0.000 C 
BRANCH  28  29
ATOM     29  C   UNL     1      -4.163  -3.888   1.410  1.00  0.00     0.000 C 
BRANCH  29  30
ATOM     30  C   UNL     1      -5.218  -2.860   1.046  1.00  0.00     0.000 C 
BRANCH  30  31
ATOM     31  C   UNL     1      -4.933  -1.536   1.756  1.00  0.00     0.000 C 
ATOM     32  C   UNL     1      -5.828  -0.426   1.191  1.00  0.00     0.000 C 
ATOM     33  C   UNL     1      -5.596   0.891   1.943  1.00  0.00     0.000 C 
ATOM     34  C   UNL     1      -5.850   0.707   3.436  1.00  0.00     0.000 C 
ATOM     35  C   UNL     1      -5.201  -1.702   3.253  1.00  0.00     0.000 C 
ATOM     36  C   UNL     1      -4.945  -0.392   3.987  1.00  0.00     0.000 C 
BRANCH  32  37
ATOM     37  C   UNL     1      -5.591  -0.211  -0.298  1.00  0.00     0.000 C 
BRANCH  37  38
ATOM     38  C   UNL     1      -6.854   0.277  -0.988  1.00  0.00     0.000 C 
BRANCH  38  39
ATOM     39  C   UNL     1      -7.741  -0.894  -1.385  1.00  0.00     0.000 C 
BRANCH  39  40
ATOM     40  C   UNL     1      -8.919  -1.009  -0.438  1.00  0.00     0.000 C 
BRANCH  40  41
ATOM     41  C   UNL     1      -8.548  -1.834   0.782  1.00  0.00     0.000 C 
BRANCH  41  42
ATOM     42  C   UNL     1      -9.449  -1.467   1.953  1.00  0.00     0.000 C 
BRANCH  42  43
ATOM     43  C   UNL     1      -9.126  -0.060   2.428  1.00  0.00     0.000 C 
BRANCH  43  44
ATOM     44  C   UNL     1     -10.237   0.466   3.321  1.00  0.00     0.000 C 
BRANCH  44  45
ATOM     45  C   UNL     1     -10.237   1.990   3.312  1.00  0.00     0.000 C 
BRANCH  45  46
ATOM     46  C   UNL     1     -10.825   2.522   2.008  1.00  0.00     0.000 C 
ATOM     47  C   UNL     1      -9.733   2.692   0.966  1.00  0.00     0.000 C 
ENDBRANCH  45  46
ENDBRANCH  44  45
ENDBRANCH  43  44
ENDBRANCH  42  43
ENDBRANCH  41  42
ENDBRANCH  40  41
ENDBRANCH  39  40
ENDBRANCH  38  39
ENDBRANCH  37  38
ENDBRANCH  32  37
ENDBRANCH  30  31
ENDBRANCH  29  30
ENDBRANCH  28  29
ENDBRANCH  27  28
ENDBRANCH  26  27
ENDBRANCH  25  26
ENDBRANCH  22  25
ENDBRANCH  20  21
ENDBRANCH  19  20
ENDBRANCH  18  19
ENDBRANCH  17  18
ENDBRANCH  16  17
ENDBRANCH  15  16
BRANCH  15  48
ATOM     48  C   UNL     1       0.555   1.194  -3.832  1.00  0.00     0.000 C 
BRANCH  48  49
ATOM     49  C   UNL     1       0.126  -0.148  -4.393  1.00  0.00     0.000 C 
BRANCH  49  50
ATOM     50  C   UNL     1      -0.097  -0.042  -5.893  1.00  0.00     0.000 C 
BRANCH  50  51
ATOM     51  C   UNL     1       1.154  -0.423  -6.670  1.00  0.00     0.000 C 
BRANCH  51  52
ATOM     52  C   UNL     1       2.140   0.733  -6.752  1.00  0.00     0.000 C 
BRANCH  52  53
ATOM     53  C   UNL     1       3.143   0.633  -5.616  1.00  0.00     0.000 C 
BRANCH  53  54
ATOM     54  C   UNL     1       4.080   1.829  -5.627  1.00  0.00     0.000 C 
BRANCH  54  55
ATOM     55  C   UNL     1       4.996   1.817  -4.407  1.00  0.00     0.000 C 
BRANCH  55  56
ATOM     56  C   UNL     1       6.119   0.791  -4.568  1.00  0.00     0.000 C 
BRANCH  56  57
ATOM     57  C   UNL     1       5.672  -0.591  -4.123  1.00  0.00     0.000 CG0
ATOM     58  G   UNL     1       5.622  -0.701  -2.605  1.00  0.00     0.000 G0
ENDBRANCH  56  57
ENDBRANCH  55  56
ENDBRANCH  54  55
ENDBRANCH  53  54
ENDBRANCH  52  53
ENDBRANCH  51  52
ENDBRANCH  50  51
ENDBRANCH  49  50
ENDBRANCH  48  49
ENDBRANCH  15  48
ENDBRANCH  14  15
BRANCH  14  59
ATOM     59  C   UNL     1       1.956   2.531  -0.504  1.00  0.00     0.000 C 
BRANCH  59  60
ATOM     60  C   UNL     1       3.398   2.908  -0.779  1.00  0.00     0.000 C 
BRANCH  60  61
ATOM     61  C   UNL     1       4.100   3.177   0.535  1.00  0.00     0.000 C 
BRANCH  61  62
ATOM     62  C   UNL     1       5.481   3.751   0.282  1.00  0.00     0.000 C 
BRANCH  62  63
ATOM     63  C   UNL     1       6.552   2.678   0.419  1.00  0.00     0.000 C 
BRANCH  63  64
ATOM     64  C   UNL     1       6.623   1.831  -0.832  1.00  0.00     0.000 C 
BRANCH  64  65
ATOM     65  C   UNL     1       7.752   0.825  -0.686  1.00  0.00     0.000 C 
BRANCH  65  66
ATOM     66  C   UNL     1       7.948   0.024  -1.968  1.00  0.00     0.000 C 
BRANCH  66  67
ATOM     67  C   UNL     1       6.968  -1.135  -2.038  1.00  0.00     0.000 C 
BRANCH  67  68
ATOM     68  C   UNL     1       5.622  -0.701  -2.605  1.00  0.00     0.000 CG0
ATOM     69  G   UNL     1       5.672  -0.591  -4.123  1.00  0.00     0.000 G0
ENDBRANCH  67  68
ENDBRANCH  66  67
ENDBRANCH  65  66
ENDBRANCH  64  65
ENDBRANCH  63  64
ENDBRANCH  62  63
ENDBRANCH  61  62
ENDBRANCH  60  61
ENDBRANCH  59  60
ENDBRANCH  14  59
ENDBRANCH  13  14
ENDBRANCH  12  13
ENDBRANCH  11  12
ENDBRANCH  10  11
ENDBRANCH   9  10
ENDBRANCH   8   9
ENDBRANCH   7   8
ENDBRANCH   6   7
ENDBRANCH   5   6
ENDBRANCH   4   5
ENDBRANCH   3   4
ENDBRANCH   2   3
ENDBRANCH   1   2
BRANCH   1  70
ATOM     70  C   UNL     1       4.207   6.389  -2.095  1.00  0.00     0.000 C 
BRANCH  70  71
ATOM     71  C   UNL     1       3.133   7.087  -1.273  1.00  0.00     0.000 C 
BRANCH  71  72
ATOM     72  C   UNL     1       2.362   6.063  -0.465  1.00  0.00     0.000 C 
BRANCH  72  73
ATOM     73  C   UNL     1       1.208   6.736   0.254  1.00  0.00     0.000 C 
BRANCH  73  74
ATOM     74  C   UNL     1       0.604   5.765   1.242  1.00  0.00     0.000 C 
BRANCH  74  75
ATOM     75  C   UNL     1      -0.488   6.464   2.027  1.00  0.00     0.000 C 
BRANCH  75  76
ATOM     76  C   UNL     1      -0.755   5.720   3.325  1.00  0.00     0.000 C 
BRANCH  76  77
ATOM     77  C   UNL     1      -1.532   4.445   3.082  1.00  0.00     0.000 C 
BRANCH  77  78
ATOM     78  C   UNL     1      -1.479   3.586   4.323  1.00  0.00     0.000 C 
BRANCH  78  79
ATOM     79  C   UNL     1      -2.101   2.237   4.040  1.00  0.00     0.000 C 
BRANCH  79  80
ATOM     80  C   UNL     1      -1.524   1.206   4.983  1.00  0.00     0.000 C 
BRANCH  80  81
ATOM     81  C   UNL     1      -1.737  -0.170   4.401  1.00  0.00     0.000 C 
BRANCH  81  82
ATOM     82  C   UNL     1      -0.995  -1.207   5.223  1.00  0.00     0.000 C 
BRANCH  82  83
ATOM     83  C   UNL     1      -1.886  -1.749   6.319  1.00  0.00     0.000 C 
BRANCH  83  84
ATOM     84  C   UNL     1      -2.055  -3.250   6.104  1.00  0.00     0.000 C 
BRANCH  84  85
ATOM     85  C   UNL     1      -1.725  -4.030   7.371  1.00  0.00     0.000 C 
BRANCH  85  86
ATOM     86  C   UNL     1      -0.243  -3.943   7.740  1.00  0.00     0.000 C 
BRANCH  86  87
ATOM     87  C   UNL     1       0.630  -4.521   6.641  1.00  0.00     0.000 C 
BRANCH  87  88
ATOM     88  C   UNL     1       2.069  -4.610   7.120  1.00  0.00     0.000 C 
BRANCH  88  89
ATOM     89  C   UNL     1       3.033  -4.442   5.956  1.00  0.00     0.000 C 
BRANCH  89  90
ATOM     90  C   UNL     1       2.946  -5.613   4.989  1.00  0.00     0.000 C 
BRANCH  90  91
ATOM     91  C   UNL     1       2.522  -5.142   3.605  1.00  0.00     0.000 C 
BRANCH  91  92
ATOM     92  C   UNL     1       3.688  -4.486   2.878  1.00  0.00     0.000 C 
BRANCH  92  93
ATOM     93  C   UNL     1       3.738  -2.997   3.186  1.00  0.00     0.000 C 
BRANCH  93  94
ATOM     94  C   UNL     1       5.183  -2.522   3.150  1.00  0.00     0.000 C 
BRANCH  94  95
ATOM     95  C   UNL     1       5.605  -1.884   1.820  1.00  0.00     0.000 C 
BRANCH  95  96
ATOM     96  C   UNL     1       5.300  -0.388   1.725  1.00  0.00     0.000 C 
BRANCH  96  97
ATOM     97  C   UNL     1       3.832  -0.073   1.507  1.00  0.00     0.000 C 
BRANCH  97  98
ATOM     98  C   UNL     1       3.163   0.261   2.833  1.00  0.00     0.000 C 
BRANCH  98  99
ATOM     99  C   UNL     1       1.909   1.080   2.610  1.00  0.00     0.000 C 
BRANCH  99 100
ATOM    100  C   UNL     1       0.811   0.243   1.974  1.00  0.00     0.000 C 
BRANCH 100 101
ATOM    101  C   UNL     1      -0.322   1.152   1.541  1.00  0.00     0.000 C 
BRANCH 101 102
ATOM    102  C   UNL     1      -1.503   0.349   1.028  1.00  0.00     0.000 C 
BRANCH 102 103
ATOM    103  C   UNL     1      -1.182  -0.256  -0.321  1.00  0.00     0.000 C 
BRANCH 103 104
ATOM    104  C   UNL     1      -2.432  -0.869  -0.907  1.00  0.00     0.000 C 
BRANCH 104 105
ATOM    105  C   UNL     1      -2.084  -1.540  -2.221  1.00  0.00     0.000 C 
BRANCH 105 106
ATOM    106  C   UNL     1      -3.350  -1.950  -2.951  1.00  0.00     0.000 C 
BRANCH 106 107
ATOM    107  C   UNL     1      -3.984  -3.160  -2.292  1.00  0.00     0.000 C 
BRANCH 107 108
ATOM    108  C   UNL     1      -5.155  -3.631  -3.138  1.00  0.00     0.000 CG1
ATOM    109  G   UNL     1      -5.139  -5.144  -3.316  1.00  0.00     0.000 G1
ENDBRANCH 107 108
ENDBRANCH 106 107
ENDBRANCH 105 106
ENDBRANCH 104 105
ENDBRANCH 103 104
ENDBRANCH 102 103
ENDBRANCH 101 102
ENDBRANCH 100 101
ENDBRANCH  99 100
ENDBRANCH  98  99
ENDBRANCH  97  98
ENDBRANCH  96  97
ENDBRANCH  95  96
BRANCH  95 110
ATOM    110  C   UNL     1       5.231  -2.644   0.548  1.00  0.00     0.000 C 
BRANCH 110 111
ATOM    111  C   UNL     1       5.899  -4.010   0.506  1.00  0.00     0.000 C 
BRANCH 111 112
ATOM    112  C   UNL     1       5.934  -4.571  -0.906  1.00  0.00     0.000 C 
BRANCH 112 113
ATOM    113  C   UNL     1       4.537  -4.750  -1.466  1.00  0.00     0.000 C 
BRANCH 113 114
ATOM    114  C   UNL     1       4.610  -5.534  -2.766  1.00  0.00     0.000 C 
BRANCH 114 115
ATOM    115  C   UNL     1       3.378  -5.279  -3.622  1.00  0.00     0.000 C 
BRANCH 115 116
ATOM    116  C   UNL     1       2.127  -5.848  -2.977  1.00  0.00     0.000 C 
BRANCH 116 117
ATOM    117  C   UNL     1       0.952  -5.653  -3.912  1.00  0.00     0.000 C 
BRANCH 117 118
ATOM    118  C   UNL     1      -0.335  -5.996  -3.193  1.00  0.00     0.000 C 
BRANCH 118 119
ATOM    119  C   UNL     1      -1.510  -5.834  -4.130  1.00  0.00     0.000 C 
BRANCH 119 120
ATOM    120  C   UNL     1      -2.793  -5.942  -3.335  1.00  0.00     0.000 C 
BRANCH 120 121
ATOM    121  C   UNL     1      -3.978  -5.570  -4.202  1.00  0.00     0.000 C 
BRANCH 121 122
ATOM    122  C   UNL     1      -5.139  -5.144  -3.316  1.00  0.00     0.000 CG1
ATOM    123  G   UNL     1      -5.155  -3.631  -3.138  1.00  0.00     0.000 G1
ENDBRANCH 121 122
ENDBRANCH 120 121
ENDBRANCH 119 120
ENDBRANCH 118 119
ENDBRANCH 117 118
ENDBRANCH 116 117
ENDBRANCH 115 116
ENDBRANCH 114 115
ENDBRANCH 113 114
ENDBRANCH 112 113
ENDBRANCH 111 112
ENDBRANCH 110 111
ENDBRANCH  95 110
ENDBRANCH  94  95
ENDBRANCH  93  94
ENDBRANCH  92  93
ENDBRANCH  91  92
ENDBRANCH  90  91
ENDBRANCH  89  90
ENDBRANCH  88  89
ENDBRANCH  87  88
ENDBRANCH  86  87
ENDBRANCH  85  86
ENDBRANCH  84  85
ENDBRANCH  83  84
ENDBRANCH  82  83
ENDBRANCH  81  82
ENDBRANCH  80  81
ENDBRANCH  79  80
ENDBRANCH  78  79
ENDBRANCH  77  78
ENDBRANCH  76  77
ENDBRANCH  75  76
ENDBRANCH  74  75
ENDBRANCH  73  74
ENDBRANCH  72  73
ENDBRANCH  71  72
ENDBRANCH  70  71
ENDBRANCH   1  70
TORSDOF 62
