AutoDock-GPU version: v1.6

**********************************************************
**    AutoDock-GPU AUTODOCKTOOLS-COMPATIBLE DLG FILE    **
**********************************************************


    DOCKING PARAMETERS
    ________________________


Ligand file:                               /home/a/REINVENT4/ReinventStudies/pleaseWork/justmol2mol_4_Compounds_ontop/graph-dock-hn62wh/graph-DockGPU/node-autodockgpu/inputs/BJGQPMZDASVXPM-ZSWWDKBRNA-N.pdbqt
Grid fld file:                             /home/a/REINVENT4/ReinventStudies/mols/Rad51/maps/rad51_receptor.maps.fld

Random seed:                               42
Number of runs:                            20
Number of energy evaluations:              1132076
Number of generations:                     42000
Size of population:                        150
Rate of crossover:                         80.000000%
Tournament selection probability limit:    60.000000%
Rate of mutation:                          2.000000%
Maximal allowed delta movement:            +/- 6.000000A
Maximal allowed delta angle:               +/- 90.000000

Rate of local search:                      100.000000%
Maximal number of local search iterations: 300
Rho lower bound:                           0.010000
Spread of local search delta movement:     2.000000A
Spread of local search delta angle:        74.999999
Limit of consecutive successes/failures:   4

Handle symmetry during clustering:         YES
RMSD tolerance:                            2.000000A

Program call in command line was:          /home/a/REINVENT4/ReinventStudies/adgpu-v1.6_linux_x64_cuda12_128wi --filelist batch.txt --heuristics 1 --nrun 20 --psize 150 --lsit 300 --seed 42 --heurmax 12000000 


    GRID PARAMETERS
    ________________________


Receptor name:                             rad51_receptor
Number of grid points (x, y, z):           53, 53, 53
Grid center (x, y, z):                     139.950000, 75.640000, 221.970000A
Grid size (x, y, z):                       19.500000, 19.500000, 19.500000A
Grid spacing:                              0.375000A


    LIGAND PARAMETERS
    ________________________


Ligand name:                               /home/a/REINVENT4/ReinventStudies/pleaseWork/justmol2mol_4_Compounds_ontop/graph-dock-hn62wh/graph-DockGPU/node-autodockgpu/inputs/BJGQPMZDASVXPM-ZSWWDKBRNA-N
Number of atoms:                           29
Number of rotatable bonds:                 5
Number of atom types:                      7


    DUMMY DATA (only for ADT-compatibility)
    ________________________


DPF> outlev 1
DPF> ga_run 20
DPF> fld /home/a/REINVENT4/ReinventStudies/mols/Rad51/maps/rad51_receptor.maps.fld
DPF> move /home/a/REINVENT4/ReinventStudies/pleaseWork/justmol2mol_4_Compounds_ontop/graph-dock-hn62wh/graph-DockGPU/node-autodockgpu/inputs/BJGQPMZDASVXPM-ZSWWDKBRNA-N.pdbqt


    COUNTER STATES
    ________________________


Number of energy evaluations performed:    510139
Number of generations used:                30


    INPUT LIGAND PDBQT FILE:
    ________________________


INPUT-LIGAND-PDBQT: REMARK SMILES O=C(NCC(=O)N1CCC[C@H]1c1ccc(Cl)cc1)c1ccc2ccccc2n1
INPUT-LIGAND-PDBQT: REMARK SMILES IDX 5 1 6 2 4 3 3 4 2 5 1 6 19 8 20 9 28 10 21 11 27 12 22 13
INPUT-LIGAND-PDBQT: REMARK SMILES IDX 26 14 23 15 25 16 24 17 7 18 8 19 11 20 9 21 10 22 12 23
INPUT-LIGAND-PDBQT: REMARK SMILES IDX 13 24 18 25 14 26 17 27 15 28 16 29
INPUT-LIGAND-PDBQT: REMARK H PARENT 3 7
INPUT-LIGAND-PDBQT: ROOT
INPUT-LIGAND-PDBQT: ATOM      1  C   UNL     1      -1.067   1.101   0.055  1.00  0.00     0.242 C 
INPUT-LIGAND-PDBQT: ATOM      2  O   UNL     1      -0.156   1.850  -0.437  1.00  0.00    -0.273 OA
INPUT-LIGAND-PDBQT: ENDROOT
INPUT-LIGAND-PDBQT: BRANCH   1   3
INPUT-LIGAND-PDBQT: ATOM      3  C   UNL     1      -0.737  -0.238   0.547  1.00  0.00     0.216 C 
INPUT-LIGAND-PDBQT: BRANCH   3   4
INPUT-LIGAND-PDBQT: ATOM      4  N   UNL     1       0.678  -0.521   0.386  1.00  0.00    -0.342 N 
INPUT-LIGAND-PDBQT: ATOM      5  C   UNL     1       1.587   0.355   1.066  1.00  0.00     0.270 C 
INPUT-LIGAND-PDBQT: ATOM      6  O   UNL     1       1.189   1.323   1.769  1.00  0.00    -0.268 OA
INPUT-LIGAND-PDBQT: ATOM      7  H   UNL     1       1.049  -1.311  -0.186  1.00  0.00     0.164 HD
INPUT-LIGAND-PDBQT: BRANCH   5   8
INPUT-LIGAND-PDBQT: ATOM      8  C   UNL     1       3.018   0.094   0.922  1.00  0.00     0.128 A 
INPUT-LIGAND-PDBQT: ATOM      9  C   UNL     1       3.935   0.907   1.556  1.00  0.00     0.035 A 
INPUT-LIGAND-PDBQT: ATOM     10  N   UNL     1       3.488  -0.940   0.173  1.00  0.00    -0.243 NA
INPUT-LIGAND-PDBQT: ATOM     11  C   UNL     1       5.301   0.720   1.464  1.00  0.00     0.013 A 
INPUT-LIGAND-PDBQT: ATOM     12  C   UNL     1       4.828  -1.152   0.063  1.00  0.00     0.071 A 
INPUT-LIGAND-PDBQT: ATOM     13  C   UNL     1       5.745  -0.334   0.699  1.00  0.00     0.000 A 
INPUT-LIGAND-PDBQT: ATOM     14  C   UNL     1       5.329  -2.193  -0.691  1.00  0.00     0.029 A 
INPUT-LIGAND-PDBQT: ATOM     15  C   UNL     1       7.112  -0.529   0.602  1.00  0.00     0.010 A 
INPUT-LIGAND-PDBQT: ATOM     16  C   UNL     1       6.687  -2.434  -0.822  1.00  0.00     0.002 A 
INPUT-LIGAND-PDBQT: ATOM     17  C   UNL     1       7.593  -1.593  -0.169  1.00  0.00     0.001 A 
INPUT-LIGAND-PDBQT: ENDBRANCH   5   8
INPUT-LIGAND-PDBQT: ENDBRANCH   3   4
INPUT-LIGAND-PDBQT: ENDBRANCH   1   3
INPUT-LIGAND-PDBQT: BRANCH   1  18
INPUT-LIGAND-PDBQT: ATOM     18  N   UNL     1      -2.374   1.672   0.077  1.00  0.00    -0.334 N 
INPUT-LIGAND-PDBQT: ATOM     19  C   UNL     1      -2.606   3.029  -0.438  1.00  0.00     0.120 C 
INPUT-LIGAND-PDBQT: ATOM     20  C   UNL     1      -3.533   1.061   0.561  1.00  0.00     0.115 C 
INPUT-LIGAND-PDBQT: ATOM     21  C   UNL     1      -4.014   3.332   0.039  1.00  0.00     0.024 C 
INPUT-LIGAND-PDBQT: ATOM     22  C   UNL     1      -4.650   1.986   0.138  1.00  0.00     0.032 C 
INPUT-LIGAND-PDBQT: BRANCH  20  23
INPUT-LIGAND-PDBQT: ATOM     23  C   UNL     1      -3.882  -0.265   0.045  1.00  0.00    -0.025 A 
INPUT-LIGAND-PDBQT: ATOM     24  C   UNL     1      -3.806  -0.471  -1.338  1.00  0.00     0.007 A 
INPUT-LIGAND-PDBQT: ATOM     25  C   UNL     1      -4.285  -1.327   0.859  1.00  0.00     0.007 A 
INPUT-LIGAND-PDBQT: ATOM     26  C   UNL     1      -4.123  -1.704  -1.896  1.00  0.00     0.021 A 
INPUT-LIGAND-PDBQT: ATOM     27  C   UNL     1      -4.600  -2.554   0.298  1.00  0.00     0.021 A 
INPUT-LIGAND-PDBQT: ATOM     28  C   UNL     1      -4.518  -2.737  -1.071  1.00  0.00     0.041 A 
INPUT-LIGAND-PDBQT: ATOM     29  Cl  UNL     1      -4.938  -4.330  -1.689  1.00  0.00    -0.084 Cl
INPUT-LIGAND-PDBQT: ENDBRANCH  20  23
INPUT-LIGAND-PDBQT: ENDBRANCH   1  18
INPUT-LIGAND-PDBQT: TORSDOF 5


    FINAL DOCKED STATE:
    ________________________


Run:   1 / 20
Time taken for this run:   0.022s

DOCKED: MODEL        1
DOCKED: USER    Run = 1
DOCKED: USER
DOCKED: USER    Estimated Free Energy of Binding    =  -8.36 kcal/mol  [=(1)+(2)+(3)-(4)]
DOCKED: USER
DOCKED: USER    (1) Final Intermolecular Energy     =  -9.85 kcal/mol
DOCKED: USER        vdW + Hbond + desolv Energy     =  -9.69 kcal/mol
DOCKED: USER        Electrostatic Energy            =  -0.16 kcal/mol
DOCKED: USER        Moving Ligand-Fixed Receptor    =  -9.85 kcal/mol
DOCKED: USER        Moving Ligand-Moving Receptor   =  +0.00 kcal/mol
DOCKED: USER    (2) Final Total Internal Energy     =  -1.72 kcal/mol
DOCKED: USER    (3) Torsional Free Energy           =  +1.49 kcal/mol
DOCKED: USER    (4) Unbound System's Energy         =  -1.72 kcal/mol
DOCKED: USER
DOCKED: USER
DOCKED: REMARK SMILES O=C(NCC(=O)N1CCC[C@H]1c1ccc(Cl)cc1)c1ccc2ccccc2n1
DOCKED: REMARK SMILES IDX 5 1 6 2 4 3 3 4 2 5 1 6 19 8 20 9 28 10 21 11 27 12 22 13
DOCKED: REMARK SMILES IDX 26 14 23 15 25 16 24 17 7 18 8 19 11 20 9 21 10 22 12 23
DOCKED: REMARK SMILES IDX 13 24 18 25 14 26 17 27 15 28 16 29
DOCKED: REMARK H PARENT 3 7
DOCKED: USER                              x       y       z     vdW  Elec       q    Type
DOCKED: USER                           _______ _______ _______ _____ _____    ______ ____
DOCKED: ROOT
DOCKED: ATOM      1  C   UNL     1     140.431  75.705 221.511 -0.24 -0.06    +0.242 C  
DOCKED: ATOM      2  O   UNL     1     140.391  76.126 222.717 -0.34 +0.04    -0.273 OA 
DOCKED: ENDROOT
DOCKED: BRANCH   1   3
DOCKED: ATOM      3  C   UNL     1     139.791  74.438 221.149 -0.18 -0.04    +0.216 C  
DOCKED: BRANCH   3   4
DOCKED: ATOM      4  N   UNL     1     139.580  73.605 222.320 -0.13 +0.06    -0.342 N  
DOCKED: ATOM      5  C   UNL     1     140.435  72.463 222.455 -0.19 -0.02    +0.270 C  
DOCKED: ATOM      6  O   UNL     1     141.327  72.186 221.608 -0.19 +0.02    -0.268 OA 
DOCKED: ATOM      7  H   UNL     1     138.854  73.798 223.044 -0.55 -0.10    +0.164 HD 
DOCKED: BRANCH   5   8
DOCKED: ATOM      8  C   UNL     1     140.245  71.606 223.624 -0.33 -0.02    +0.128 A  
DOCKED: ATOM      9  C   UNL     1     139.587  70.400 223.496 -0.29 -0.01    +0.035 A  
DOCKED: ATOM     10  N   UNL     1     140.701  71.959 224.856 -0.21 +0.03    -0.243 NA 
DOCKED: ATOM     11  C   UNL     1     139.371  69.541 224.557 -0.35 -0.00    +0.013 A  
DOCKED: ATOM     12  C   UNL     1     140.506  71.135 225.921 -0.55 -0.01    +0.071 A  
DOCKED: ATOM     13  C   UNL     1     139.844  69.927 225.790 -0.47 -0.00    +0.000 A  
DOCKED: ATOM     14  C   UNL     1     140.958  71.472 227.180 -0.73 -0.01    +0.029 A  
DOCKED: ATOM     15  C   UNL     1     139.633  69.072 226.857 -0.55 -0.00    +0.010 A  
DOCKED: ATOM     16  C   UNL     1     140.774  70.654 228.283 -0.61 -0.00    +0.002 A  
DOCKED: ATOM     17  C   UNL     1     140.103  69.438 228.123 -0.63 -0.00    +0.001 A  
DOCKED: ENDBRANCH   5   8
DOCKED: ENDBRANCH   3   4
DOCKED: ENDBRANCH   1   3
DOCKED: BRANCH   1  18
DOCKED: ATOM     18  N   UNL     1     141.126  76.551 220.597 -0.10 +0.14    -0.334 N  
DOCKED: ATOM     19  C   UNL     1     141.313  77.978 220.893 -0.27 -0.06    +0.120 C  
DOCKED: ATOM     20  C   UNL     1     141.684  76.164 219.376 -0.18 -0.05    +0.115 C  
DOCKED: ATOM     21  C   UNL     1     141.813  78.531 219.572 -0.28 -0.01    +0.024 C  
DOCKED: ATOM     22  C   UNL     1     142.488  77.364 218.934 -0.31 -0.02    +0.032 C  
DOCKED: BRANCH  20  23
DOCKED: ATOM     23  C   UNL     1     142.608  75.027 219.369 -0.25 +0.01    -0.025 A  
DOCKED: ATOM     24  C   UNL     1     143.810  75.154 220.075 -0.42 -0.00    +0.007 A  
DOCKED: ATOM     25  C   UNL     1     142.351  73.830 218.695 -0.11 -0.00    +0.007 A  
DOCKED: ATOM     26  C   UNL     1     144.733  74.115 220.110 -0.47 -0.01    +0.021 A  
DOCKED: ATOM     27  C   UNL     1     143.274  72.797 218.733 -0.12 -0.00    +0.021 A  
DOCKED: ATOM     28  C   UNL     1     144.456  72.943 219.437 -0.29 -0.00    +0.041 A  
DOCKED: ATOM     29  Cl  UNL     1     145.564  71.577 219.426 -0.36 -0.04    -0.084 Cl 
DOCKED: ENDBRANCH  20  23
DOCKED: ENDBRANCH   1  18
DOCKED: TORSDOF 5
DOCKED: TER
DOCKED: ENDMDL
________________________________________________________________________________


    FINAL DOCKED STATE:
    ________________________


Run:   2 / 20
Time taken for this run:   0.022s

DOCKED: MODEL        2
DOCKED: USER    Run = 2
DOCKED: USER
DOCKED: USER    Estimated Free Energy of Binding    =  -7.57 kcal/mol  [=(1)+(2)+(3)-(4)]
DOCKED: USER
DOCKED: USER    (1) Final Intermolecular Energy     =  -9.06 kcal/mol
DOCKED: USER        vdW + Hbond + desolv Energy     =  -9.09 kcal/mol
DOCKED: USER        Electrostatic Energy            =  +0.04 kcal/mol
DOCKED: USER        Moving Ligand-Fixed Receptor    =  -9.06 kcal/mol
DOCKED: USER        Moving Ligand-Moving Receptor   =  +0.00 kcal/mol
DOCKED: USER    (2) Final Total Internal Energy     =  -2.31 kcal/mol
DOCKED: USER    (3) Torsional Free Energy           =  +1.49 kcal/mol
DOCKED: USER    (4) Unbound System's Energy         =  -2.31 kcal/mol
DOCKED: USER
DOCKED: USER
DOCKED: REMARK SMILES O=C(NCC(=O)N1CCC[C@H]1c1ccc(Cl)cc1)c1ccc2ccccc2n1
DOCKED: REMARK SMILES IDX 5 1 6 2 4 3 3 4 2 5 1 6 19 8 20 9 28 10 21 11 27 12 22 13
DOCKED: REMARK SMILES IDX 26 14 23 15 25 16 24 17 7 18 8 19 11 20 9 21 10 22 12 23
DOCKED: REMARK SMILES IDX 13 24 18 25 14 26 17 27 15 28 16 29
DOCKED: REMARK H PARENT 3 7
DOCKED: USER                              x       y       z     vdW  Elec       q    Type
DOCKED: USER                           _______ _______ _______ _____ _____    ______ ____
DOCKED: ROOT
DOCKED: ATOM      1  C   UNL     1     141.708  73.054 220.453 -0.13 -0.04    +0.242 C  
DOCKED: ATOM      2  O   UNL     1     141.227  72.452 219.433 -0.03 +0.05    -0.273 OA 
DOCKED: ENDROOT
DOCKED: BRANCH   1   3
DOCKED: ATOM      3  C   UNL     1     140.826  73.488 221.538 -0.21 -0.02    +0.216 C  
DOCKED: BRANCH   3   4
DOCKED: ATOM      4  N   UNL     1     141.070  74.876 221.887 -0.13 +0.04    -0.342 N  
DOCKED: ATOM      5  C   UNL     1     139.913  75.702 222.074 -0.20 -0.05    +0.270 C  
DOCKED: ATOM      6  O   UNL     1     138.741  75.256 221.944 -0.23 +0.06    -0.268 OA 
DOCKED: ATOM      7  H   UNL     1     142.023  75.285 222.005 -0.36 -0.06    +0.164 HD 
DOCKED: BRANCH   5   8
DOCKED: ATOM      8  C   UNL     1     140.128  77.104 222.426 -0.31 -0.03    +0.128 A  
DOCKED: ATOM      9  C   UNL     1     139.048  77.942 222.613 -0.29 -0.01    +0.035 A  
DOCKED: ATOM     10  N   UNL     1     141.376  77.622 222.581 -0.22 +0.11    -0.243 NA 
DOCKED: ATOM     11  C   UNL     1     139.176  79.277 222.946 -0.33 -0.00    +0.013 A  
DOCKED: ATOM     12  C   UNL     1     141.537  78.933 222.911 -0.49 -0.03    +0.071 A  
DOCKED: ATOM     13  C   UNL     1     140.452  79.772 223.095 -0.44 -0.00    +0.000 A  
DOCKED: ATOM     14  C   UNL     1     142.792  79.482 223.072 -0.56 -0.01    +0.029 A  
DOCKED: ATOM     15  C   UNL     1     140.590  81.108 223.430 -0.41 -0.00    +0.010 A  
DOCKED: ATOM     16  C   UNL     1     142.987  80.813 223.407 -0.61 -0.00    +0.002 A  
DOCKED: ATOM     17  C   UNL     1     141.874  81.639 223.589 -0.53 -0.00    +0.001 A  
DOCKED: ENDBRANCH   5   8
DOCKED: ENDBRANCH   3   4
DOCKED: ENDBRANCH   1   3
DOCKED: BRANCH   1  18
DOCKED: ATOM     18  N   UNL     1     143.120  73.250 220.430 -0.12 +0.06    -0.334 N  
DOCKED: ATOM     19  C   UNL     1     144.034  72.102 220.337 -0.27 -0.01    +0.120 C  
DOCKED: ATOM     20  C   UNL     1     143.784  74.478 220.491 -0.31 -0.05    +0.115 C  
DOCKED: ATOM     21  C   UNL     1     145.385  72.724 220.637 -0.50 -0.00    +0.024 C  
DOCKED: ATOM     22  C   UNL     1     145.227  74.141 220.197 -0.42 -0.01    +0.032 C  
DOCKED: BRANCH  20  23
DOCKED: ATOM     23  C   UNL     1     143.402  75.518 219.532 -0.37 +0.01    -0.025 A  
DOCKED: ATOM     24  C   UNL     1     142.710  76.634 220.016 -0.30 -0.00    +0.007 A  
DOCKED: ATOM     25  C   UNL     1     143.693  75.451 218.167 -0.22 -0.00    +0.007 A  
DOCKED: ATOM     26  C   UNL     1     142.317  77.658 219.163 -0.29 -0.01    +0.021 A  
DOCKED: ATOM     27  C   UNL     1     143.300  76.474 217.320 -0.26 -0.01    +0.021 A  
DOCKED: ATOM     28  C   UNL     1     142.616  77.569 217.819 -0.29 -0.03    +0.041 A  
DOCKED: ATOM     29  Cl  UNL     1     142.159  78.817 216.665 -0.23 +0.08    -0.084 Cl 
DOCKED: ENDBRANCH  20  23
DOCKED: ENDBRANCH   1  18
DOCKED: TORSDOF 5
DOCKED: TER
DOCKED: ENDMDL
________________________________________________________________________________


    FINAL DOCKED STATE:
    ________________________


Run:   3 / 20
Time taken for this run:   0.022s

DOCKED: MODEL        3
DOCKED: USER    Run = 3
DOCKED: USER
DOCKED: USER    Estimated Free Energy of Binding    =  -8.48 kcal/mol  [=(1)+(2)+(3)-(4)]
DOCKED: USER
DOCKED: USER    (1) Final Intermolecular Energy     =  -9.97 kcal/mol
DOCKED: USER        vdW + Hbond + desolv Energy     =  -9.95 kcal/mol
DOCKED: USER        Electrostatic Energy            =  -0.02 kcal/mol
DOCKED: USER        Moving Ligand-Fixed Receptor    =  -9.97 kcal/mol
DOCKED: USER        Moving Ligand-Moving Receptor   =  +0.00 kcal/mol
DOCKED: USER    (2) Final Total Internal Energy     =  -1.64 kcal/mol
DOCKED: USER    (3) Torsional Free Energy           =  +1.49 kcal/mol
DOCKED: USER    (4) Unbound System's Energy         =  -1.64 kcal/mol
DOCKED: USER
DOCKED: USER
DOCKED: REMARK SMILES O=C(NCC(=O)N1CCC[C@H]1c1ccc(Cl)cc1)c1ccc2ccccc2n1
DOCKED: REMARK SMILES IDX 5 1 6 2 4 3 3 4 2 5 1 6 19 8 20 9 28 10 21 11 27 12 22 13
DOCKED: REMARK SMILES IDX 26 14 23 15 25 16 24 17 7 18 8 19 11 20 9 21 10 22 12 23
DOCKED: REMARK SMILES IDX 13 24 18 25 14 26 17 27 15 28 16 29
DOCKED: REMARK H PARENT 3 7
DOCKED: USER                              x       y       z     vdW  Elec       q    Type
DOCKED: USER                           _______ _______ _______ _____ _____    ______ ____
DOCKED: ROOT
DOCKED: ATOM      1  C   UNL     1     139.449  74.914 221.789 -0.20 -0.05    +0.242 C  
DOCKED: ATOM      2  O   UNL     1     140.543  75.301 222.323 -0.55 +0.02    -0.273 OA 
DOCKED: ENDROOT
DOCKED: BRANCH   1   3
DOCKED: ATOM      3  C   UNL     1     139.203  73.489 221.557 -0.16 -0.05    +0.216 C  
DOCKED: BRANCH   3   4
DOCKED: ATOM      4  N   UNL     1     139.495  72.707 222.746 -0.10 +0.08    -0.342 N  
DOCKED: ATOM      5  C   UNL     1     139.102  71.329 222.717 -0.17 -0.06    +0.270 C  
DOCKED: ATOM      6  O   UNL     1     138.533  70.812 221.718 -0.06 +0.05    -0.268 OA 
DOCKED: ATOM      7  H   UNL     1     139.964  73.096 223.594 -0.31 -0.02    +0.164 HD 
DOCKED: BRANCH   5   8
DOCKED: ATOM      8  C   UNL     1     139.383  70.517 223.900 -0.28 -0.02    +0.128 A  
DOCKED: ATOM      9  C   UNL     1     139.052  69.178 223.913 -0.29 -0.01    +0.035 A  
DOCKED: ATOM     10  N   UNL     1     139.970  71.043 225.009 -0.29 +0.04    -0.243 NA 
DOCKED: ATOM     11  C   UNL     1     139.287  68.352 224.995 -0.41 -0.00    +0.013 A  
DOCKED: ATOM     12  C   UNL     1     140.216  70.256 226.092 -0.48 -0.01    +0.071 A  
DOCKED: ATOM     13  C   UNL     1     139.882  68.913 226.102 -0.52 -0.00    +0.000 A  
DOCKED: ATOM     14  C   UNL     1     140.810  70.766 227.228 -0.64 -0.00    +0.029 A  
DOCKED: ATOM     15  C   UNL     1     140.122  68.093 227.190 -0.66 -0.00    +0.010 A  
DOCKED: ATOM     16  C   UNL     1     141.073  69.990 228.345 -0.56 -0.00    +0.002 A  
DOCKED: ATOM     17  C   UNL     1     140.726  68.636 228.330 -0.67 -0.00    +0.001 A  
DOCKED: ENDBRANCH   5   8
DOCKED: ENDBRANCH   3   4
DOCKED: ENDBRANCH   1   3
DOCKED: BRANCH   1  18
DOCKED: ATOM     18  N   UNL     1     138.535  75.957 221.457 -0.09 +0.07    -0.334 N  
DOCKED: ATOM     19  C   UNL     1     137.092  75.786 221.679 -0.14 -0.03    +0.120 C  
DOCKED: ATOM     20  C   UNL     1     138.864  77.199 220.910 -0.11 -0.03    +0.115 C  
DOCKED: ATOM     21  C   UNL     1     136.496  76.967 220.937 -0.06 -0.00    +0.024 C  
DOCKED: ATOM     22  C   UNL     1     137.580  77.992 220.978 -0.08 -0.01    +0.032 C  
DOCKED: BRANCH  20  23
DOCKED: ATOM     23  C   UNL     1     139.880  78.006 221.591 -0.24 +0.01    -0.025 A  
DOCKED: ATOM     24  C   UNL     1     139.549  78.567 222.831 -0.34 -0.00    +0.007 A  
DOCKED: ATOM     25  C   UNL     1     141.153  78.243 221.067 -0.31 -0.00    +0.007 A  
DOCKED: ATOM     26  C   UNL     1     140.464  79.344 223.531 -0.47 -0.00    +0.021 A  
DOCKED: ATOM     27  C   UNL     1     142.062  79.019 221.770 -0.41 -0.01    +0.021 A  
DOCKED: ATOM     28  C   UNL     1     141.715  79.563 222.993 -0.54 -0.01    +0.041 A  
DOCKED: ATOM     29  Cl  UNL     1     142.936  80.533 223.809 -0.79 +0.02    -0.084 Cl 
DOCKED: ENDBRANCH  20  23
DOCKED: ENDBRANCH   1  18
DOCKED: TORSDOF 5
DOCKED: TER
DOCKED: ENDMDL
________________________________________________________________________________


    FINAL DOCKED STATE:
    ________________________


Run:   4 / 20
Time taken for this run:   0.022s

DOCKED: MODEL        4
DOCKED: USER    Run = 4
DOCKED: USER
DOCKED: USER    Estimated Free Energy of Binding    =  -9.19 kcal/mol  [=(1)+(2)+(3)-(4)]
DOCKED: USER
DOCKED: USER    (1) Final Intermolecular Energy     = -10.69 kcal/mol
DOCKED: USER        vdW + Hbond + desolv Energy     = -10.61 kcal/mol
DOCKED: USER        Electrostatic Energy            =  -0.07 kcal/mol
DOCKED: USER        Moving Ligand-Fixed Receptor    = -10.69 kcal/mol
DOCKED: USER        Moving Ligand-Moving Receptor   =  +0.00 kcal/mol
DOCKED: USER    (2) Final Total Internal Energy     =  -1.20 kcal/mol
DOCKED: USER    (3) Torsional Free Energy           =  +1.49 kcal/mol
DOCKED: USER    (4) Unbound System's Energy         =  -1.20 kcal/mol
DOCKED: USER
DOCKED: USER
DOCKED: REMARK SMILES O=C(NCC(=O)N1CCC[C@H]1c1ccc(Cl)cc1)c1ccc2ccccc2n1
DOCKED: REMARK SMILES IDX 5 1 6 2 4 3 3 4 2 5 1 6 19 8 20 9 28 10 21 11 27 12 22 13
DOCKED: REMARK SMILES IDX 26 14 23 15 25 16 24 17 7 18 8 19 11 20 9 21 10 22 12 23
DOCKED: REMARK SMILES IDX 13 24 18 25 14 26 17 27 15 28 16 29
DOCKED: REMARK H PARENT 3 7
DOCKED: USER                              x       y       z     vdW  Elec       q    Type
DOCKED: USER                           _______ _______ _______ _____ _____    ______ ____
DOCKED: ROOT
DOCKED: ATOM      1  C   UNL     1     139.175  75.185 222.031 -0.19 -0.05    +0.242 C  
DOCKED: ATOM      2  O   UNL     1     140.386  75.458 222.336 -0.55 +0.03    -0.273 OA 
DOCKED: ENDROOT
DOCKED: BRANCH   1   3
DOCKED: ATOM      3  C   UNL     1     138.827  73.866 221.498 -0.15 -0.05    +0.216 C  
DOCKED: BRANCH   3   4
DOCKED: ATOM      4  N   UNL     1     138.776  72.871 222.554 +0.07 +0.12    -0.342 N  
DOCKED: ATOM      5  C   UNL     1     140.004  72.194 222.854 -0.21 -0.04    +0.270 C  
DOCKED: ATOM      6  O   UNL     1     141.076  72.442 222.240 -0.31 +0.01    -0.268 OA 
DOCKED: ATOM      7  H   UNL     1     137.910  72.636 223.087 -0.40 -0.08    +0.164 HD 
DOCKED: BRANCH   5   8
DOCKED: ATOM      8  C   UNL     1     139.982  71.186 223.913 -0.34 -0.02    +0.128 A  
DOCKED: ATOM      9  C   UNL     1     139.392  69.960 223.687 -0.27 -0.01    +0.035 A  
DOCKED: ATOM     10  N   UNL     1     140.534  71.417 225.135 -0.33 +0.04    -0.243 NA 
DOCKED: ATOM     11  C   UNL     1     139.335  68.962 224.641 -0.36 -0.00    +0.013 A  
DOCKED: ATOM     12  C   UNL     1     140.495  70.454 226.096 -0.51 -0.01    +0.071 A  
DOCKED: ATOM     13  C   UNL     1     139.901  69.225 225.867 -0.48 -0.00    +0.000 A  
DOCKED: ATOM     14  C   UNL     1     141.047  70.663 227.343 -0.62 -0.00    +0.029 A  
DOCKED: ATOM     15  C   UNL     1     139.849  68.231 226.828 -0.63 -0.00    +0.010 A  
DOCKED: ATOM     16  C   UNL     1     141.023  69.703 228.341 -0.58 -0.00    +0.002 A  
DOCKED: ATOM     17  C   UNL     1     140.417  68.470 228.084 -0.66 -0.00    +0.001 A  
DOCKED: ENDBRANCH   5   8
DOCKED: ENDBRANCH   3   4
DOCKED: ENDBRANCH   1   3
DOCKED: BRANCH   1  18
DOCKED: ATOM     18  N   UNL     1     138.242  76.241 222.253 -0.15 +0.07    -0.334 N  
DOCKED: ATOM     19  C   UNL     1     136.980  75.987 222.963 -0.22 -0.03    +0.120 C  
DOCKED: ATOM     20  C   UNL     1     138.390  77.570 221.850 -0.18 -0.02    +0.115 C  
DOCKED: ATOM     21  C   UNL     1     136.195  77.261 222.716 -0.19 -0.00    +0.024 C  
DOCKED: ATOM     22  C   UNL     1     137.253  78.297 222.530 -0.19 -0.01    +0.032 C  
DOCKED: BRANCH  20  23
DOCKED: ATOM     23  C   UNL     1     139.615  78.276 222.234 -0.30 +0.01    -0.025 A  
DOCKED: ATOM     24  C   UNL     1     139.604  79.006 223.429 -0.38 -0.00    +0.007 A  
DOCKED: ATOM     25  C   UNL     1     140.786  78.258 221.471 -0.31 -0.00    +0.007 A  
DOCKED: ATOM     26  C   UNL     1     140.731  79.700 223.853 -0.49 -0.00    +0.021 A  
DOCKED: ATOM     27  C   UNL     1     141.906  78.951 221.898 -0.44 -0.01    +0.021 A  
DOCKED: ATOM     28  C   UNL     1     141.875  79.666 223.083 -0.56 -0.01    +0.041 A  
DOCKED: ATOM     29  Cl  UNL     1     143.347  80.514 223.541 -0.66 +0.02    -0.084 Cl 
DOCKED: ENDBRANCH  20  23
DOCKED: ENDBRANCH   1  18
DOCKED: TORSDOF 5
DOCKED: TER
DOCKED: ENDMDL
________________________________________________________________________________


    FINAL DOCKED STATE:
    ________________________


Run:   5 / 20
Time taken for this run:   0.022s

DOCKED: MODEL        5
DOCKED: USER    Run = 5
DOCKED: USER
DOCKED: USER    Estimated Free Energy of Binding    =  -7.10 kcal/mol  [=(1)+(2)+(3)-(4)]
DOCKED: USER
DOCKED: USER    (1) Final Intermolecular Energy     =  -8.60 kcal/mol
DOCKED: USER        vdW + Hbond + desolv Energy     =  -8.55 kcal/mol
DOCKED: USER        Electrostatic Energy            =  -0.05 kcal/mol
DOCKED: USER        Moving Ligand-Fixed Receptor    =  -8.60 kcal/mol
DOCKED: USER        Moving Ligand-Moving Receptor   =  +0.00 kcal/mol
DOCKED: USER    (2) Final Total Internal Energy     =  -2.56 kcal/mol
DOCKED: USER    (3) Torsional Free Energy           =  +1.49 kcal/mol
DOCKED: USER    (4) Unbound System's Energy         =  -2.56 kcal/mol
DOCKED: USER
DOCKED: USER
DOCKED: REMARK SMILES O=C(NCC(=O)N1CCC[C@H]1c1ccc(Cl)cc1)c1ccc2ccccc2n1
DOCKED: REMARK SMILES IDX 5 1 6 2 4 3 3 4 2 5 1 6 19 8 20 9 28 10 21 11 27 12 22 13
DOCKED: REMARK SMILES IDX 26 14 23 15 25 16 24 17 7 18 8 19 11 20 9 21 10 22 12 23
DOCKED: REMARK SMILES IDX 13 24 18 25 14 26 17 27 15 28 16 29
DOCKED: REMARK H PARENT 3 7
DOCKED: USER                              x       y       z     vdW  Elec       q    Type
DOCKED: USER                           _______ _______ _______ _____ _____    ______ ____
DOCKED: ROOT
DOCKED: ATOM      1  C   UNL     1     141.089  80.463 220.402 -0.18 -0.09    +0.242 C  
DOCKED: ATOM      2  O   UNL     1     140.087  81.255 220.382 -0.08 +0.07    -0.273 OA 
DOCKED: ENDROOT
DOCKED: BRANCH   1   3
DOCKED: ATOM      3  C   UNL     1     141.619  79.911 219.154 -0.19 -0.12    +0.216 C  
DOCKED: BRANCH   3   4
DOCKED: ATOM      4  N   UNL     1     142.260  78.627 219.379 -0.08 +0.25    -0.342 N  
DOCKED: ATOM      5  C   UNL     1     141.421  77.468 219.289 -0.13 -0.13    +0.270 C  
DOCKED: ATOM      6  O   UNL     1     140.190  77.548 219.028 -0.03 +0.09    -0.268 OA 
DOCKED: ATOM      7  H   UNL     1     143.275  78.518 219.598 -0.29 -0.21    +0.164 HD 
DOCKED: BRANCH   5   8
DOCKED: ATOM      8  C   UNL     1     142.040  76.163 219.511 -0.21 -0.06    +0.128 A  
DOCKED: ATOM      9  C   UNL     1     141.303  75.010 219.329 -0.12 -0.01    +0.035 A  
DOCKED: ATOM     10  N   UNL     1     143.338  76.039 219.898 -0.24 +0.16    -0.243 NA 
DOCKED: ATOM     11  C   UNL     1     141.822  73.744 219.521 -0.14 -0.00    +0.013 A  
DOCKED: ATOM     12  C   UNL     1     143.880  74.806 220.094 -0.40 -0.03    +0.071 A  
DOCKED: ATOM     13  C   UNL     1     143.138  73.652 219.912 -0.28 -0.00    +0.000 A  
DOCKED: ATOM     14  C   UNL     1     145.194  74.655 220.487 -0.36 -0.01    +0.029 A  
DOCKED: ATOM     15  C   UNL     1     143.666  72.388 220.106 -0.29 -0.00    +0.010 A  
DOCKED: ATOM     16  C   UNL     1     145.773  73.414 220.695 -0.66 -0.00    +0.002 A  
DOCKED: ATOM     17  C   UNL     1     145.002  72.263 220.504 -0.38 -0.00    +0.001 A  
DOCKED: ENDBRANCH   5   8
DOCKED: ENDBRANCH   3   4
DOCKED: ENDBRANCH   1   3
DOCKED: BRANCH   1  18
DOCKED: ATOM     18  N   UNL     1     141.616  80.185 221.698 -0.18 +0.12    -0.334 N  
DOCKED: ATOM     19  C   UNL     1     142.169  81.264 222.528 -0.40 -0.03    +0.120 C  
DOCKED: ATOM     20  C   UNL     1     141.677  78.932 222.312 -0.42 -0.05    +0.115 C  
DOCKED: ATOM     21  C   UNL     1     142.861  80.507 223.646 -0.67 -0.01    +0.024 C  
DOCKED: ATOM     22  C   UNL     1     142.095  79.230 223.733 -0.56 -0.01    +0.032 C  
DOCKED: BRANCH  20  23
DOCKED: ATOM     23  C   UNL     1     140.443  78.147 222.404 -0.39 +0.01    -0.025 A  
DOCKED: ATOM     24  C   UNL     1     140.543  76.754 222.299 -0.42 -0.00    +0.007 A  
DOCKED: ATOM     25  C   UNL     1     139.180  78.716 222.590 -0.30 -0.00    +0.007 A  
DOCKED: ATOM     26  C   UNL     1     139.413  75.948 222.377 -0.33 -0.00    +0.021 A  
DOCKED: ATOM     27  C   UNL     1     138.057  77.908 222.667 -0.26 -0.00    +0.021 A  
DOCKED: ATOM     28  C   UNL     1     138.178  76.534 222.561 -0.29 -0.01    +0.041 A  
DOCKED: ATOM     29  Cl  UNL     1     136.695  75.593 222.671 -0.29 +0.02    -0.084 Cl 
DOCKED: ENDBRANCH  20  23
DOCKED: ENDBRANCH   1  18
DOCKED: TORSDOF 5
DOCKED: TER
DOCKED: ENDMDL
________________________________________________________________________________


    FINAL DOCKED STATE:
    ________________________


Run:   6 / 20
Time taken for this run:   0.022s

DOCKED: MODEL        6
DOCKED: USER    Run = 6
DOCKED: USER
DOCKED: USER    Estimated Free Energy of Binding    =  -8.16 kcal/mol  [=(1)+(2)+(3)-(4)]
DOCKED: USER
DOCKED: USER    (1) Final Intermolecular Energy     =  -9.65 kcal/mol
DOCKED: USER        vdW + Hbond + desolv Energy     =  -9.59 kcal/mol
DOCKED: USER        Electrostatic Energy            =  -0.05 kcal/mol
DOCKED: USER        Moving Ligand-Fixed Receptor    =  -9.65 kcal/mol
DOCKED: USER        Moving Ligand-Moving Receptor   =  +0.00 kcal/mol
DOCKED: USER    (2) Final Total Internal Energy     =  -1.89 kcal/mol
DOCKED: USER    (3) Torsional Free Energy           =  +1.49 kcal/mol
DOCKED: USER    (4) Unbound System's Energy         =  -1.89 kcal/mol
DOCKED: USER
DOCKED: USER
DOCKED: REMARK SMILES O=C(NCC(=O)N1CCC[C@H]1c1ccc(Cl)cc1)c1ccc2ccccc2n1
DOCKED: REMARK SMILES IDX 5 1 6 2 4 3 3 4 2 5 1 6 19 8 20 9 28 10 21 11 27 12 22 13
DOCKED: REMARK SMILES IDX 26 14 23 15 25 16 24 17 7 18 8 19 11 20 9 21 10 22 12 23
DOCKED: REMARK SMILES IDX 13 24 18 25 14 26 17 27 15 28 16 29
DOCKED: REMARK H PARENT 3 7
DOCKED: USER                              x       y       z     vdW  Elec       q    Type
DOCKED: USER                           _______ _______ _______ _____ _____    ______ ____
DOCKED: ROOT
DOCKED: ATOM      1  C   UNL     1     139.844  74.433 221.219 -0.18 -0.05    +0.242 C  
DOCKED: ATOM      2  O   UNL     1     140.303  75.102 222.206 -0.65 +0.02    -0.273 OA 
DOCKED: ENDROOT
DOCKED: BRANCH   1   3
DOCKED: ATOM      3  C   UNL     1     138.923  73.317 221.447 -0.14 -0.05    +0.216 C  
DOCKED: BRANCH   3   4
DOCKED: ATOM      4  N   UNL     1     139.255  72.606 222.669 -0.10 +0.09    -0.342 N  
DOCKED: ATOM      5  C   UNL     1     138.968  71.201 222.689 -0.15 -0.06    +0.270 C  
DOCKED: ATOM      6  O   UNL     1     138.454  70.606 221.703 -0.06 +0.05    -0.268 OA 
DOCKED: ATOM      7  H   UNL     1     139.680  73.060 223.506 -0.36 -0.05    +0.164 HD 
DOCKED: BRANCH   5   8
DOCKED: ATOM      8  C   UNL     1     139.291  70.459 223.906 -0.27 -0.02    +0.128 A  
DOCKED: ATOM      9  C   UNL     1     138.992  69.115 223.994 -0.29 -0.01    +0.035 A  
DOCKED: ATOM     10  N   UNL     1     139.888  71.055 224.973 -0.29 +0.05    -0.243 NA 
DOCKED: ATOM     11  C   UNL     1     139.269  68.352 225.112 -0.43 -0.00    +0.013 A  
DOCKED: ATOM     12  C   UNL     1     140.175  70.330 226.090 -0.48 -0.01    +0.071 A  
DOCKED: ATOM     13  C   UNL     1     139.872  68.983 226.176 -0.52 -0.00    +0.000 A  
DOCKED: ATOM     14  C   UNL     1     140.779  70.912 227.185 -0.66 -0.00    +0.029 A  
DOCKED: ATOM     15  C   UNL     1     140.153  68.225 227.300 -0.66 -0.00    +0.010 A  
DOCKED: ATOM     16  C   UNL     1     141.083  70.201 228.335 -0.56 -0.00    +0.002 A  
DOCKED: ATOM     17  C   UNL     1     140.767  68.840 228.397 -0.64 -0.00    +0.001 A  
DOCKED: ENDBRANCH   5   8
DOCKED: ENDBRANCH   3   4
DOCKED: ENDBRANCH   1   3
DOCKED: BRANCH   1  18
DOCKED: ATOM     18  N   UNL     1     140.295  74.860 219.935 -0.02 +0.08    -0.334 N  
DOCKED: ATOM     19  C   UNL     1     139.709  76.045 219.293 -0.05 -0.03    +0.120 C  
DOCKED: ATOM     20  C   UNL     1     141.288  74.251 219.165 -0.07 -0.03    +0.115 C  
DOCKED: ATOM     21  C   UNL     1     140.247  75.959 217.877 -0.04 -0.01    +0.024 C  
DOCKED: ATOM     22  C   UNL     1     141.534  75.220 218.033 -0.07 -0.01    +0.032 C  
DOCKED: BRANCH  20  23
DOCKED: ATOM     23  C   UNL     1     142.592  74.007 219.786 -0.23 +0.01    -0.025 A  
DOCKED: ATOM     24  C   UNL     1     143.482  75.084 219.885 -0.39 -0.00    +0.007 A  
DOCKED: ATOM     25  C   UNL     1     142.990  72.761 220.279 -0.26 -0.00    +0.007 A  
DOCKED: ATOM     26  C   UNL     1     144.736  74.924 220.463 -0.34 -0.01    +0.021 A  
DOCKED: ATOM     27  C   UNL     1     144.242  72.607 220.853 -0.38 -0.00    +0.021 A  
DOCKED: ATOM     28  C   UNL     1     145.106  73.684 220.943 -0.54 -0.01    +0.041 A  
DOCKED: ATOM     29  Cl  UNL     1     146.672  73.389 221.688 -0.75 +0.01    -0.084 Cl 
DOCKED: ENDBRANCH  20  23
DOCKED: ENDBRANCH   1  18
DOCKED: TORSDOF 5
DOCKED: TER
DOCKED: ENDMDL
________________________________________________________________________________


    FINAL DOCKED STATE:
    ________________________


Run:   7 / 20
Time taken for this run:   0.022s

DOCKED: MODEL        7
DOCKED: USER    Run = 7
DOCKED: USER
DOCKED: USER    Estimated Free Energy of Binding    =  -8.32 kcal/mol  [=(1)+(2)+(3)-(4)]
DOCKED: USER
DOCKED: USER    (1) Final Intermolecular Energy     =  -9.81 kcal/mol
DOCKED: USER        vdW + Hbond + desolv Energy     =  -9.69 kcal/mol
DOCKED: USER        Electrostatic Energy            =  -0.12 kcal/mol
DOCKED: USER        Moving Ligand-Fixed Receptor    =  -9.81 kcal/mol
DOCKED: USER        Moving Ligand-Moving Receptor   =  +0.00 kcal/mol
DOCKED: USER    (2) Final Total Internal Energy     =  -1.84 kcal/mol
DOCKED: USER    (3) Torsional Free Energy           =  +1.49 kcal/mol
DOCKED: USER    (4) Unbound System's Energy         =  -1.84 kcal/mol
DOCKED: USER
DOCKED: USER
DOCKED: REMARK SMILES O=C(NCC(=O)N1CCC[C@H]1c1ccc(Cl)cc1)c1ccc2ccccc2n1
DOCKED: REMARK SMILES IDX 5 1 6 2 4 3 3 4 2 5 1 6 19 8 20 9 28 10 21 11 27 12 22 13
DOCKED: REMARK SMILES IDX 26 14 23 15 25 16 24 17 7 18 8 19 11 20 9 21 10 22 12 23
DOCKED: REMARK SMILES IDX 13 24 18 25 14 26 17 27 15 28 16 29
DOCKED: REMARK H PARENT 3 7
DOCKED: USER                              x       y       z     vdW  Elec       q    Type
DOCKED: USER                           _______ _______ _______ _____ _____    ______ ____
DOCKED: ROOT
DOCKED: ATOM      1  C   UNL     1     140.365  75.675 221.338 -0.22 -0.06    +0.242 C  
DOCKED: ATOM      2  O   UNL     1     139.845  76.226 222.367 -0.35 +0.05    -0.273 OA 
DOCKED: ENDROOT
DOCKED: BRANCH   1   3
DOCKED: ATOM      3  C   UNL     1     140.180  74.243 221.094 -0.18 -0.04    +0.216 C  
DOCKED: BRANCH   3   4
DOCKED: ATOM      4  N   UNL     1     139.978  73.521 222.337 -0.12 +0.03    -0.342 N  
DOCKED: ATOM      5  C   UNL     1     140.444  72.166 222.374 -0.21 -0.03    +0.270 C  
DOCKED: ATOM      6  O   UNL     1     141.002  71.620 221.383 -0.14 +0.03    -0.268 OA 
DOCKED: ATOM      7  H   UNL     1     139.522  73.936 223.180 -0.50 -0.03    +0.164 HD 
DOCKED: BRANCH   5   8
DOCKED: ATOM      8  C   UNL     1     140.254  71.415 223.613 -0.33 -0.02    +0.128 A  
DOCKED: ATOM      9  C   UNL     1     139.616  70.192 223.588 -0.28 -0.01    +0.035 A  
DOCKED: ATOM     10  N   UNL     1     140.692  71.885 224.813 -0.27 +0.03    -0.243 NA 
DOCKED: ATOM     11  C   UNL     1     139.402  69.428 224.720 -0.36 -0.00    +0.013 A  
DOCKED: ATOM     12  C   UNL     1     140.497  71.157 225.946 -0.55 -0.01    +0.071 A  
DOCKED: ATOM     13  C   UNL     1     139.856  69.931 225.917 -0.48 -0.00    +0.000 A  
DOCKED: ATOM     14  C   UNL     1     140.931  71.613 227.174 -0.75 -0.01    +0.029 A  
DOCKED: ATOM     15  C   UNL     1     139.646  69.172 227.056 -0.56 -0.00    +0.010 A  
DOCKED: ATOM     16  C   UNL     1     140.747  70.894 228.344 -0.63 -0.00    +0.002 A  
DOCKED: ATOM     17  C   UNL     1     140.097  69.658 228.288 -0.62 -0.00    +0.001 A  
DOCKED: ENDBRANCH   5   8
DOCKED: ENDBRANCH   3   4
DOCKED: ENDBRANCH   1   3
DOCKED: BRANCH   1  18
DOCKED: ATOM     18  N   UNL     1     141.107  76.551 220.492 -0.09 +0.14    -0.334 N  
DOCKED: ATOM     19  C   UNL     1     141.231  77.979 220.818 -0.25 -0.06    +0.120 C  
DOCKED: ATOM     20  C   UNL     1     141.771  76.195 219.315 -0.18 -0.05    +0.115 C  
DOCKED: ATOM     21  C   UNL     1     141.819  78.563 219.547 -0.28 -0.01    +0.024 C  
DOCKED: ATOM     22  C   UNL     1     142.574  77.422 218.951 -0.32 -0.02    +0.032 C  
DOCKED: BRANCH  20  23
DOCKED: ATOM     23  C   UNL     1     142.724  75.083 219.369 -0.26 +0.01    -0.025 A  
DOCKED: ATOM     24  C   UNL     1     142.416  73.922 218.649 -0.11 -0.00    +0.007 A  
DOCKED: ATOM     25  C   UNL     1     143.915  75.124 220.097 -0.42 -0.00    +0.007 A  
DOCKED: ATOM     26  C   UNL     1     143.275  72.829 218.655 -0.12 -0.00    +0.021 A  
DOCKED: ATOM     27  C   UNL     1     144.767  74.032 220.100 -0.47 -0.01    +0.021 A  
DOCKED: ATOM     28  C   UNL     1     144.446  72.894 219.382 -0.28 -0.00    +0.041 A  
DOCKED: ATOM     29  Cl  UNL     1     145.591  71.559 219.448 -0.35 -0.04    -0.084 Cl 
DOCKED: ENDBRANCH  20  23
DOCKED: ENDBRANCH   1  18
DOCKED: TORSDOF 5
DOCKED: TER
DOCKED: ENDMDL
________________________________________________________________________________


    FINAL DOCKED STATE:
    ________________________


Run:   8 / 20
Time taken for this run:   0.022s

DOCKED: MODEL        8
DOCKED: USER    Run = 8
DOCKED: USER
DOCKED: USER    Estimated Free Energy of Binding    =  -8.18 kcal/mol  [=(1)+(2)+(3)-(4)]
DOCKED: USER
DOCKED: USER    (1) Final Intermolecular Energy     =  -9.68 kcal/mol
DOCKED: USER        vdW + Hbond + desolv Energy     =  -9.58 kcal/mol
DOCKED: USER        Electrostatic Energy            =  -0.10 kcal/mol
DOCKED: USER        Moving Ligand-Fixed Receptor    =  -9.68 kcal/mol
DOCKED: USER        Moving Ligand-Moving Receptor   =  +0.00 kcal/mol
DOCKED: USER    (2) Final Total Internal Energy     =  -1.64 kcal/mol
DOCKED: USER    (3) Torsional Free Energy           =  +1.49 kcal/mol
DOCKED: USER    (4) Unbound System's Energy         =  -1.64 kcal/mol
DOCKED: USER
DOCKED: USER
DOCKED: REMARK SMILES O=C(NCC(=O)N1CCC[C@H]1c1ccc(Cl)cc1)c1ccc2ccccc2n1
DOCKED: REMARK SMILES IDX 5 1 6 2 4 3 3 4 2 5 1 6 19 8 20 9 28 10 21 11 27 12 22 13
DOCKED: REMARK SMILES IDX 26 14 23 15 25 16 24 17 7 18 8 19 11 20 9 21 10 22 12 23
DOCKED: REMARK SMILES IDX 13 24 18 25 14 26 17 27 15 28 16 29
DOCKED: REMARK H PARENT 3 7
DOCKED: USER                              x       y       z     vdW  Elec       q    Type
DOCKED: USER                           _______ _______ _______ _____ _____    ______ ____
DOCKED: ROOT
DOCKED: ATOM      1  C   UNL     1     139.190  73.979 220.299 -0.06 -0.05    +0.242 C  
DOCKED: ATOM      2  O   UNL     1     139.678  73.809 219.131 -0.01 +0.06    -0.273 OA 
DOCKED: ENDROOT
DOCKED: BRANCH   1   3
DOCKED: ATOM      3  C   UNL     1     138.188  73.050 220.824 -0.06 -0.05    +0.216 C  
DOCKED: BRANCH   3   4
DOCKED: ATOM      4  N   UNL     1     138.529  72.616 222.167 -0.08 +0.10    -0.342 N  
DOCKED: ATOM      5  C   UNL     1     139.182  71.345 222.282 -0.14 -0.05    +0.270 C  
DOCKED: ATOM      6  O   UNL     1     139.451  70.633 221.276 -0.07 +0.05    -0.268 OA 
DOCKED: ATOM      7  H   UNL     1     138.324  73.173 223.025 -0.48 -0.10    +0.164 HD 
DOCKED: BRANCH   5   8
DOCKED: ATOM      8  C   UNL     1     139.538  70.882 223.622 -0.29 -0.02    +0.128 A  
DOCKED: ATOM      9  C   UNL     1     139.285  69.576 223.991 -0.29 -0.01    +0.035 A  
DOCKED: ATOM     10  N   UNL     1     140.119  71.705 224.536 -0.26 +0.05    -0.243 NA 
DOCKED: ATOM     11  C   UNL     1     139.594  69.071 225.240 -0.42 -0.00    +0.013 A  
DOCKED: ATOM     12  C   UNL     1     140.436  71.238 225.775 -0.53 -0.01    +0.071 A  
DOCKED: ATOM     13  C   UNL     1     140.181  69.929 226.142 -0.52 -0.00    +0.000 A  
DOCKED: ATOM     14  C   UNL     1     141.025  72.054 226.719 -0.67 -0.00    +0.029 A  
DOCKED: ATOM     15  C   UNL     1     140.494  69.431 227.395 -0.60 -0.00    +0.010 A  
DOCKED: ATOM     16  C   UNL     1     141.359  71.607 227.987 -0.73 -0.00    +0.002 A  
DOCKED: ATOM     17  C   UNL     1     141.091  70.279 228.333 -0.56 -0.00    +0.001 A  
DOCKED: ENDBRANCH   5   8
DOCKED: ENDBRANCH   3   4
DOCKED: ENDBRANCH   1   3
DOCKED: BRANCH   1  18
DOCKED: ATOM     18  N   UNL     1     139.694  75.110 221.008 -0.09 +0.07    -0.334 N  
DOCKED: ATOM     19  C   UNL     1     138.982  75.637 222.180 -0.26 -0.03    +0.120 C  
DOCKED: ATOM     20  C   UNL     1     140.856  75.824 220.702 -0.22 -0.04    +0.115 C  
DOCKED: ATOM     21  C   UNL     1     139.675  76.964 222.425 -0.32 -0.01    +0.024 C  
DOCKED: ATOM     22  C   UNL     1     141.048  76.750 221.880 -0.34 -0.01    +0.032 C  
DOCKED: BRANCH  20  23
DOCKED: ATOM     23  C   UNL     1     142.108  75.077 220.560 -0.29 +0.01    -0.025 A  
DOCKED: ATOM     24  C   UNL     1     142.116  73.731 220.947 -0.25 -0.00    +0.007 A  
DOCKED: ATOM     25  C   UNL     1     143.287  75.638 220.063 -0.34 -0.00    +0.007 A  
DOCKED: ATOM     26  C   UNL     1     143.270  72.963 220.840 -0.29 -0.00    +0.021 A  
DOCKED: ATOM     27  C   UNL     1     144.435  74.869 219.958 -0.35 -0.01    +0.021 A  
DOCKED: ATOM     28  C   UNL     1     144.422  73.540 220.345 -0.43 -0.01    +0.041 A  
DOCKED: ATOM     29  Cl  UNL     1     145.927  72.645 220.174 -0.63 -0.02    -0.084 Cl 
DOCKED: ENDBRANCH  20  23
DOCKED: ENDBRANCH   1  18
DOCKED: TORSDOF 5
DOCKED: TER
DOCKED: ENDMDL
________________________________________________________________________________


    FINAL DOCKED STATE:
    ________________________


Run:   9 / 20
Time taken for this run:   0.022s

DOCKED: MODEL        9
DOCKED: USER    Run = 9
DOCKED: USER
DOCKED: USER    Estimated Free Energy of Binding    =  -8.81 kcal/mol  [=(1)+(2)+(3)-(4)]
DOCKED: USER
DOCKED: USER    (1) Final Intermolecular Energy     = -10.30 kcal/mol
DOCKED: USER        vdW + Hbond + desolv Energy     = -10.29 kcal/mol
DOCKED: USER        Electrostatic Energy            =  -0.01 kcal/mol
DOCKED: USER        Moving Ligand-Fixed Receptor    = -10.30 kcal/mol
DOCKED: USER        Moving Ligand-Moving Receptor   =  +0.00 kcal/mol
DOCKED: USER    (2) Final Total Internal Energy     =  -1.43 kcal/mol
DOCKED: USER    (3) Torsional Free Energy           =  +1.49 kcal/mol
DOCKED: USER    (4) Unbound System's Energy         =  -1.43 kcal/mol
DOCKED: USER
DOCKED: USER
DOCKED: REMARK SMILES O=C(NCC(=O)N1CCC[C@H]1c1ccc(Cl)cc1)c1ccc2ccccc2n1
DOCKED: REMARK SMILES IDX 5 1 6 2 4 3 3 4 2 5 1 6 19 8 20 9 28 10 21 11 27 12 22 13
DOCKED: REMARK SMILES IDX 26 14 23 15 25 16 24 17 7 18 8 19 11 20 9 21 10 22 12 23
DOCKED: REMARK SMILES IDX 13 24 18 25 14 26 17 27 15 28 16 29
DOCKED: REMARK H PARENT 3 7
DOCKED: USER                              x       y       z     vdW  Elec       q    Type
DOCKED: USER                           _______ _______ _______ _____ _____    ______ ____
DOCKED: ROOT
DOCKED: ATOM      1  C   UNL     1     139.538  74.893 221.829 -0.20 -0.04    +0.242 C  
DOCKED: ATOM      2  O   UNL     1     140.702  75.379 222.037 -0.56 +0.04    -0.273 OA 
DOCKED: ENDROOT
DOCKED: BRANCH   1   3
DOCKED: ATOM      3  C   UNL     1     139.372  73.464 221.555 -0.17 -0.04    +0.216 C  
DOCKED: BRANCH   3   4
DOCKED: ATOM      4  N   UNL     1     139.562  72.675 222.758 -0.12 +0.08    -0.342 N  
DOCKED: ATOM      5  C   UNL     1     139.312  71.267 222.646 -0.17 -0.05    +0.270 C  
DOCKED: ATOM      6  O   UNL     1     138.945  70.734 221.564 -0.07 +0.05    -0.268 OA 
DOCKED: ATOM      7  H   UNL     1     139.865  73.076 223.673 -0.32 -0.03    +0.164 HD 
DOCKED: BRANCH   5   8
DOCKED: ATOM      8  C   UNL     1     139.496  70.447 223.842 -0.28 -0.02    +0.128 A  
DOCKED: ATOM      9  C   UNL     1     139.067  69.136 223.852 -0.28 -0.01    +0.035 A  
DOCKED: ATOM     10  N   UNL     1     140.086  70.937 224.966 -0.29 +0.04    -0.243 NA 
DOCKED: ATOM     11  C   UNL     1     139.208  68.303 224.946 -0.42 -0.00    +0.013 A  
DOCKED: ATOM     12  C   UNL     1     140.241  70.142 226.060 -0.47 -0.01    +0.071 A  
DOCKED: ATOM     13  C   UNL     1     139.808  68.828 226.067 -0.53 -0.00    +0.000 A  
DOCKED: ATOM     14  C   UNL     1     140.835  70.616 227.211 -0.62 -0.00    +0.029 A  
DOCKED: ATOM     15  C   UNL     1     139.954  68.001 227.167 -0.65 -0.00    +0.010 A  
DOCKED: ATOM     16  C   UNL     1     141.006  69.832 228.340 -0.57 -0.00    +0.002 A  
DOCKED: ATOM     17  C   UNL     1     140.561  68.507 228.322 -0.67 -0.00    +0.001 A  
DOCKED: ENDBRANCH   5   8
DOCKED: ENDBRANCH   3   4
DOCKED: ENDBRANCH   1   3
DOCKED: BRANCH   1  18
DOCKED: ATOM     18  N   UNL     1     138.469  75.836 221.889 -0.13 +0.08    -0.334 N  
DOCKED: ATOM     19  C   UNL     1     137.142  75.431 222.374 -0.18 -0.03    +0.120 C  
DOCKED: ATOM     20  C   UNL     1     138.533  77.180 221.517 -0.16 -0.02    +0.115 C  
DOCKED: ATOM     21  C   UNL     1     136.272  76.616 221.998 -0.14 -0.00    +0.024 C  
DOCKED: ATOM     22  C   UNL     1     137.224  77.765 221.994 -0.16 -0.01    +0.032 C  
DOCKED: BRANCH  20  23
DOCKED: ATOM     23  C   UNL     1     139.590  78.009 222.104 -0.29 +0.01    -0.025 A  
DOCKED: ATOM     24  C   UNL     1     140.784  78.154 221.387 -0.30 -0.00    +0.007 A  
DOCKED: ATOM     25  C   UNL     1     139.465  78.659 223.335 -0.29 -0.00    +0.007 A  
DOCKED: ATOM     26  C   UNL     1     141.828  78.925 221.883 -0.44 -0.01    +0.021 A  
DOCKED: ATOM     27  C   UNL     1     140.509  79.427 223.826 -0.48 -0.00    +0.021 A  
DOCKED: ATOM     28  C   UNL     1     141.680  79.556 223.101 -0.54 -0.01    +0.041 A  
DOCKED: ATOM     29  Cl  UNL     1     142.948  80.552 223.807 -0.79 +0.02    -0.084 Cl 
DOCKED: ENDBRANCH  20  23
DOCKED: ENDBRANCH   1  18
DOCKED: TORSDOF 5
DOCKED: TER
DOCKED: ENDMDL
________________________________________________________________________________


    FINAL DOCKED STATE:
    ________________________


Run:   10 / 20
Time taken for this run:   0.022s

DOCKED: MODEL        10
DOCKED: USER    Run = 10
DOCKED: USER
DOCKED: USER    Estimated Free Energy of Binding    =  -9.18 kcal/mol  [=(1)+(2)+(3)-(4)]
DOCKED: USER
DOCKED: USER    (1) Final Intermolecular Energy     = -10.67 kcal/mol
DOCKED: USER        vdW + Hbond + desolv Energy     = -10.60 kcal/mol
DOCKED: USER        Electrostatic Energy            =  -0.08 kcal/mol
DOCKED: USER        Moving Ligand-Fixed Receptor    = -10.67 kcal/mol
DOCKED: USER        Moving Ligand-Moving Receptor   =  +0.00 kcal/mol
DOCKED: USER    (2) Final Total Internal Energy     =  -1.20 kcal/mol
DOCKED: USER    (3) Torsional Free Energy           =  +1.49 kcal/mol
DOCKED: USER    (4) Unbound System's Energy         =  -1.20 kcal/mol
DOCKED: USER
DOCKED: USER
DOCKED: REMARK SMILES O=C(NCC(=O)N1CCC[C@H]1c1ccc(Cl)cc1)c1ccc2ccccc2n1
DOCKED: REMARK SMILES IDX 5 1 6 2 4 3 3 4 2 5 1 6 19 8 20 9 28 10 21 11 27 12 22 13
DOCKED: REMARK SMILES IDX 26 14 23 15 25 16 24 17 7 18 8 19 11 20 9 21 10 22 12 23
DOCKED: REMARK SMILES IDX 13 24 18 25 14 26 17 27 15 28 16 29
DOCKED: REMARK H PARENT 3 7
DOCKED: USER                              x       y       z     vdW  Elec       q    Type
DOCKED: USER                           _______ _______ _______ _____ _____    ______ ____
DOCKED: ROOT
DOCKED: ATOM      1  C   UNL     1     139.101  75.188 222.035 -0.19 -0.05    +0.242 C  
DOCKED: ATOM      2  O   UNL     1     140.315  75.453 222.331 -0.56 +0.03    -0.273 OA 
DOCKED: ENDROOT
DOCKED: BRANCH   1   3
DOCKED: ATOM      3  C   UNL     1     138.744  73.881 221.480 -0.15 -0.05    +0.216 C  
DOCKED: BRANCH   3   4
DOCKED: ATOM      4  N   UNL     1     138.726  72.860 222.513 +0.04 +0.11    -0.342 N  
DOCKED: ATOM      5  C   UNL     1     139.996  72.318 222.899 -0.18 -0.04    +0.270 C  
DOCKED: ATOM      6  O   UNL     1     141.077  72.700 222.375 -0.41 +0.00    -0.268 OA 
DOCKED: ATOM      7  H   UNL     1     137.854  72.516 222.972 -0.26 -0.07    +0.164 HD 
DOCKED: BRANCH   5   8
DOCKED: ATOM      8  C   UNL     1     140.009  71.289 223.937 -0.35 -0.02    +0.128 A  
DOCKED: ATOM      9  C   UNL     1     139.467  70.045 223.682 -0.28 -0.01    +0.035 A  
DOCKED: ATOM     10  N   UNL     1     140.544  71.515 225.166 -0.34 +0.04    -0.243 NA 
DOCKED: ATOM     11  C   UNL     1     139.444  69.026 224.615 -0.34 -0.00    +0.013 A  
DOCKED: ATOM     12  C   UNL     1     140.538  70.532 226.107 -0.52 -0.01    +0.071 A  
DOCKED: ATOM     13  C   UNL     1     139.993  69.286 225.849 -0.48 -0.00    +0.000 A  
DOCKED: ATOM     14  C   UNL     1     141.075  70.737 227.362 -0.63 -0.00    +0.029 A  
DOCKED: ATOM     15  C   UNL     1     139.975  68.271 226.790 -0.64 -0.00    +0.010 A  
DOCKED: ATOM     16  C   UNL     1     141.083  69.756 228.340 -0.57 -0.00    +0.002 A  
DOCKED: ATOM     17  C   UNL     1     140.527  68.506 228.054 -0.67 -0.00    +0.001 A  
DOCKED: ENDBRANCH   5   8
DOCKED: ENDBRANCH   3   4
DOCKED: ENDBRANCH   1   3
DOCKED: BRANCH   1  18
DOCKED: ATOM     18  N   UNL     1     138.172  76.240 222.288 -0.15 +0.07    -0.334 N  
DOCKED: ATOM     19  C   UNL     1     136.924  75.977 223.017 -0.22 -0.03    +0.120 C  
DOCKED: ATOM     20  C   UNL     1     138.313  77.575 221.901 -0.18 -0.02    +0.115 C  
DOCKED: ATOM     21  C   UNL     1     136.134  77.255 222.802 -0.19 -0.00    +0.024 C  
DOCKED: ATOM     22  C   UNL     1     137.189  78.293 222.611 -0.19 -0.00    +0.032 C  
DOCKED: BRANCH  20  23
DOCKED: ATOM     23  C   UNL     1     139.545  78.276 222.272 -0.29 +0.01    -0.025 A  
DOCKED: ATOM     24  C   UNL     1     139.537  79.038 223.447 -0.39 -0.00    +0.007 A  
DOCKED: ATOM     25  C   UNL     1     140.719  78.222 221.516 -0.31 -0.00    +0.007 A  
DOCKED: ATOM     26  C   UNL     1     140.671  79.729 223.859 -0.47 -0.00    +0.021 A  
DOCKED: ATOM     27  C   UNL     1     141.846  78.913 221.931 -0.44 -0.01    +0.021 A  
DOCKED: ATOM     28  C   UNL     1     141.818  79.660 223.095 -0.55 -0.01    +0.041 A  
DOCKED: ATOM     29  Cl  UNL     1     143.298  80.501 223.539 -0.68 +0.02    -0.084 Cl 
DOCKED: ENDBRANCH  20  23
DOCKED: ENDBRANCH   1  18
DOCKED: TORSDOF 5
DOCKED: TER
DOCKED: ENDMDL
________________________________________________________________________________


    FINAL DOCKED STATE:
    ________________________


Run:   11 / 20
Time taken for this run:   0.022s

DOCKED: MODEL        11
DOCKED: USER    Run = 11
DOCKED: USER
DOCKED: USER    Estimated Free Energy of Binding    =  -8.52 kcal/mol  [=(1)+(2)+(3)-(4)]
DOCKED: USER
DOCKED: USER    (1) Final Intermolecular Energy     = -10.01 kcal/mol
DOCKED: USER        vdW + Hbond + desolv Energy     =  -9.95 kcal/mol
DOCKED: USER        Electrostatic Energy            =  -0.06 kcal/mol
DOCKED: USER        Moving Ligand-Fixed Receptor    = -10.01 kcal/mol
DOCKED: USER        Moving Ligand-Moving Receptor   =  +0.00 kcal/mol
DOCKED: USER    (2) Final Total Internal Energy     =  -1.57 kcal/mol
DOCKED: USER    (3) Torsional Free Energy           =  +1.49 kcal/mol
DOCKED: USER    (4) Unbound System's Energy         =  -1.57 kcal/mol
DOCKED: USER
DOCKED: USER
DOCKED: REMARK SMILES O=C(NCC(=O)N1CCC[C@H]1c1ccc(Cl)cc1)c1ccc2ccccc2n1
DOCKED: REMARK SMILES IDX 5 1 6 2 4 3 3 4 2 5 1 6 19 8 20 9 28 10 21 11 27 12 22 13
DOCKED: REMARK SMILES IDX 26 14 23 15 25 16 24 17 7 18 8 19 11 20 9 21 10 22 12 23
DOCKED: REMARK SMILES IDX 13 24 18 25 14 26 17 27 15 28 16 29
DOCKED: REMARK H PARENT 3 7
DOCKED: USER                              x       y       z     vdW  Elec       q    Type
DOCKED: USER                           _______ _______ _______ _____ _____    ______ ____
DOCKED: ROOT
DOCKED: ATOM      1  C   UNL     1     140.200  75.199 221.591 -0.23 -0.05    +0.242 C  
DOCKED: ATOM      2  O   UNL     1     139.615  75.673 222.623 -0.47 +0.04    -0.273 OA 
DOCKED: ENDROOT
DOCKED: BRANCH   1   3
DOCKED: ATOM      3  C   UNL     1     140.170  73.760 221.321 -0.19 -0.03    +0.216 C  
DOCKED: BRANCH   3   4
DOCKED: ATOM      4  N   UNL     1     140.018  73.000 222.549 -0.14 +0.04    -0.342 N  
DOCKED: ATOM      5  C   UNL     1     140.273  71.591 222.465 -0.20 -0.04    +0.270 C  
DOCKED: ATOM      6  O   UNL     1     140.612  71.032 221.387 -0.11 +0.04    -0.268 OA 
DOCKED: ATOM      7  H   UNL     1     139.740  73.423 223.461 -0.41 -0.03    +0.164 HD 
DOCKED: BRANCH   5   8
DOCKED: ATOM      8  C   UNL     1     140.128  70.801 223.686 -0.27 -0.02    +0.128 A  
DOCKED: ATOM      9  C   UNL     1     139.416  69.619 223.662 -0.25 -0.01    +0.035 A  
DOCKED: ATOM     10  N   UNL     1     140.679  71.194 224.866 -0.32 +0.03    -0.243 NA 
DOCKED: ATOM     11  C   UNL     1     139.238  68.822 224.777 -0.38 -0.00    +0.013 A  
DOCKED: ATOM     12  C   UNL     1     140.523  70.431 225.982 -0.50 -0.01    +0.071 A  
DOCKED: ATOM     13  C   UNL     1     139.808  69.247 225.956 -0.49 -0.00    +0.000 A  
DOCKED: ATOM     14  C   UNL     1     141.072  70.808 227.191 -0.63 -0.00    +0.029 A  
DOCKED: ATOM     15  C   UNL     1     139.635  68.454 227.077 -0.59 -0.00    +0.010 A  
DOCKED: ATOM     16  C   UNL     1     140.930  70.053 228.343 -0.56 -0.00    +0.002 A  
DOCKED: ATOM     17  C   UNL     1     140.202  68.860 228.290 -0.65 -0.00    +0.001 A  
DOCKED: ENDBRANCH   5   8
DOCKED: ENDBRANCH   3   4
DOCKED: ENDBRANCH   1   3
DOCKED: BRANCH   1  18
DOCKED: ATOM     18  N   UNL     1     140.851  76.164 220.766 -0.11 +0.12    -0.334 N  
DOCKED: ATOM     19  C   UNL     1     140.949  75.962 219.313 -0.10 -0.04    +0.120 C  
DOCKED: ATOM     20  C   UNL     1     141.447  77.350 221.199 -0.24 -0.06    +0.115 C  
DOCKED: ATOM     21  C   UNL     1     141.939  77.032 218.893 -0.24 -0.01    +0.024 C  
DOCKED: ATOM     22  C   UNL     1     141.768  78.096 219.925 -0.28 -0.02    +0.032 C  
DOCKED: BRANCH  20  23
DOCKED: ATOM     23  C   UNL     1     140.649  78.266 222.018 -0.35 +0.01    -0.025 A  
DOCKED: ATOM     24  C   UNL     1     139.301  78.443 221.680 -0.21 -0.00    +0.007 A  
DOCKED: ATOM     25  C   UNL     1     141.162  78.967 223.113 -0.53 -0.00    +0.007 A  
DOCKED: ATOM     26  C   UNL     1     138.486  79.296 222.414 -0.23 -0.00    +0.021 A  
DOCKED: ATOM     27  C   UNL     1     140.345  79.816 223.841 -0.45 -0.00    +0.021 A  
DOCKED: ATOM     28  C   UNL     1     139.016  79.977 223.490 -0.37 -0.01    +0.041 A  
DOCKED: ATOM     29  Cl  UNL     1     138.059  81.077 224.475 -0.43 +0.01    -0.084 Cl 
DOCKED: ENDBRANCH  20  23
DOCKED: ENDBRANCH   1  18
DOCKED: TORSDOF 5
DOCKED: TER
DOCKED: ENDMDL
________________________________________________________________________________


    FINAL DOCKED STATE:
    ________________________


Run:   12 / 20
Time taken for this run:   0.022s

DOCKED: MODEL        12
DOCKED: USER    Run = 12
DOCKED: USER
DOCKED: USER    Estimated Free Energy of Binding    =  -8.35 kcal/mol  [=(1)+(2)+(3)-(4)]
DOCKED: USER
DOCKED: USER    (1) Final Intermolecular Energy     =  -9.84 kcal/mol
DOCKED: USER        vdW + Hbond + desolv Energy     =  -9.71 kcal/mol
DOCKED: USER        Electrostatic Energy            =  -0.13 kcal/mol
DOCKED: USER        Moving Ligand-Fixed Receptor    =  -9.84 kcal/mol
DOCKED: USER        Moving Ligand-Moving Receptor   =  +0.00 kcal/mol
DOCKED: USER    (2) Final Total Internal Energy     =  -1.82 kcal/mol
DOCKED: USER    (3) Torsional Free Energy           =  +1.49 kcal/mol
DOCKED: USER    (4) Unbound System's Energy         =  -1.82 kcal/mol
DOCKED: USER
DOCKED: USER
DOCKED: REMARK SMILES O=C(NCC(=O)N1CCC[C@H]1c1ccc(Cl)cc1)c1ccc2ccccc2n1
DOCKED: REMARK SMILES IDX 5 1 6 2 4 3 3 4 2 5 1 6 19 8 20 9 28 10 21 11 27 12 22 13
DOCKED: REMARK SMILES IDX 26 14 23 15 25 16 24 17 7 18 8 19 11 20 9 21 10 22 12 23
DOCKED: REMARK SMILES IDX 13 24 18 25 14 26 17 27 15 28 16 29
DOCKED: REMARK H PARENT 3 7
DOCKED: USER                              x       y       z     vdW  Elec       q    Type
DOCKED: USER                           _______ _______ _______ _____ _____    ______ ____
DOCKED: ROOT
DOCKED: ATOM      1  C   UNL     1     140.426  75.697 221.406 -0.23 -0.06    +0.242 C  
DOCKED: ATOM      2  O   UNL     1     140.066  76.227 222.511 -0.36 +0.05    -0.273 OA 
DOCKED: ENDROOT
DOCKED: BRANCH   1   3
DOCKED: ATOM      3  C   UNL     1     140.100  74.300 221.114 -0.18 -0.04    +0.216 C  
DOCKED: BRANCH   3   4
DOCKED: ATOM      4  N   UNL     1     139.892  73.545 222.337 -0.12 +0.03    -0.342 N  
DOCKED: ATOM      5  C   UNL     1     140.450  72.224 222.376 -0.21 -0.03    +0.270 C  
DOCKED: ATOM      6  O   UNL     1     141.089  71.735 221.405 -0.15 +0.03    -0.268 OA 
DOCKED: ATOM      7  H   UNL     1     139.370  73.912 223.162 -0.51 -0.05    +0.164 HD 
DOCKED: BRANCH   5   8
DOCKED: ATOM      8  C   UNL     1     140.256  71.441 223.595 -0.33 -0.02    +0.128 A  
DOCKED: ATOM      9  C   UNL     1     139.629  70.213 223.533 -0.27 -0.01    +0.035 A  
DOCKED: ATOM     10  N   UNL     1     140.679  71.885 224.809 -0.27 +0.03    -0.243 NA 
DOCKED: ATOM     11  C   UNL     1     139.412  69.419 224.644 -0.36 -0.00    +0.013 A  
DOCKED: ATOM     12  C   UNL     1     140.481  71.127 225.922 -0.54 -0.01    +0.071 A  
DOCKED: ATOM     13  C   UNL     1     139.851  69.896 225.858 -0.48 -0.00    +0.000 A  
DOCKED: ATOM     14  C   UNL     1     140.900  71.555 227.165 -0.74 -0.01    +0.029 A  
DOCKED: ATOM     15  C   UNL     1     139.638  69.107 226.975 -0.55 -0.00    +0.010 A  
DOCKED: ATOM     16  C   UNL     1     140.713  70.806 228.315 -0.62 -0.00    +0.002 A  
DOCKED: ATOM     17  C   UNL     1     140.074  69.566 228.223 -0.63 -0.00    +0.001 A  
DOCKED: ENDBRANCH   5   8
DOCKED: ENDBRANCH   3   4
DOCKED: ENDBRANCH   1   3
DOCKED: BRANCH   1  18
DOCKED: ATOM     18  N   UNL     1     141.143  76.561 220.526 -0.10 +0.14    -0.334 N  
DOCKED: ATOM     19  C   UNL     1     141.277  77.993 220.829 -0.26 -0.06    +0.120 C  
DOCKED: ATOM     20  C   UNL     1     141.770  76.190 219.334 -0.18 -0.05    +0.115 C  
DOCKED: ATOM     21  C   UNL     1     141.827  78.560 219.533 -0.28 -0.01    +0.024 C  
DOCKED: ATOM     22  C   UNL     1     142.562  77.411 218.930 -0.32 -0.02    +0.032 C  
DOCKED: BRANCH  20  23
DOCKED: ATOM     23  C   UNL     1     142.723  75.077 219.373 -0.26 +0.01    -0.025 A  
DOCKED: ATOM     24  C   UNL     1     142.415  73.925 218.640 -0.11 -0.00    +0.007 A  
DOCKED: ATOM     25  C   UNL     1     143.915  75.110 220.101 -0.42 -0.00    +0.007 A  
DOCKED: ATOM     26  C   UNL     1     143.273  72.832 218.632 -0.12 -0.00    +0.021 A  
DOCKED: ATOM     27  C   UNL     1     144.768  74.017 220.089 -0.47 -0.01    +0.021 A  
DOCKED: ATOM     28  C   UNL     1     144.445  72.888 219.358 -0.28 -0.00    +0.041 A  
DOCKED: ATOM     29  Cl  UNL     1     145.590  71.553 219.406 -0.36 -0.04    -0.084 Cl 
DOCKED: ENDBRANCH  20  23
DOCKED: ENDBRANCH   1  18
DOCKED: TORSDOF 5
DOCKED: TER
DOCKED: ENDMDL
________________________________________________________________________________


    FINAL DOCKED STATE:
    ________________________


Run:   13 / 20
Time taken for this run:   0.022s

DOCKED: MODEL        13
DOCKED: USER    Run = 13
DOCKED: USER
DOCKED: USER    Estimated Free Energy of Binding    =  -8.84 kcal/mol  [=(1)+(2)+(3)-(4)]
DOCKED: USER
DOCKED: USER    (1) Final Intermolecular Energy     = -10.33 kcal/mol
DOCKED: USER        vdW + Hbond + desolv Energy     = -10.32 kcal/mol
DOCKED: USER        Electrostatic Energy            =  -0.01 kcal/mol
DOCKED: USER        Moving Ligand-Fixed Receptor    = -10.33 kcal/mol
DOCKED: USER        Moving Ligand-Moving Receptor   =  +0.00 kcal/mol
DOCKED: USER    (2) Final Total Internal Energy     =  -1.45 kcal/mol
DOCKED: USER    (3) Torsional Free Energy           =  +1.49 kcal/mol
DOCKED: USER    (4) Unbound System's Energy         =  -1.45 kcal/mol
DOCKED: USER
DOCKED: USER
DOCKED: REMARK SMILES O=C(NCC(=O)N1CCC[C@H]1c1ccc(Cl)cc1)c1ccc2ccccc2n1
DOCKED: REMARK SMILES IDX 5 1 6 2 4 3 3 4 2 5 1 6 19 8 20 9 28 10 21 11 27 12 22 13
DOCKED: REMARK SMILES IDX 26 14 23 15 25 16 24 17 7 18 8 19 11 20 9 21 10 22 12 23
DOCKED: REMARK SMILES IDX 13 24 18 25 14 26 17 27 15 28 16 29
DOCKED: REMARK H PARENT 3 7
DOCKED: USER                              x       y       z     vdW  Elec       q    Type
DOCKED: USER                           _______ _______ _______ _____ _____    ______ ____
DOCKED: ROOT
DOCKED: ATOM      1  C   UNL     1     139.569  74.866 221.865 -0.20 -0.04    +0.242 C  
DOCKED: ATOM      2  O   UNL     1     140.749  75.326 222.036 -0.57 +0.04    -0.273 OA 
DOCKED: ENDROOT
DOCKED: BRANCH   1   3
DOCKED: ATOM      3  C   UNL     1     139.362  73.441 221.600 -0.17 -0.04    +0.216 C  
DOCKED: BRANCH   3   4
DOCKED: ATOM      4  N   UNL     1     139.577  72.649 222.798 -0.11 +0.08    -0.342 N  
DOCKED: ATOM      5  C   UNL     1     139.280  71.250 222.702 -0.17 -0.05    +0.270 C  
DOCKED: ATOM      6  O   UNL     1     138.854  70.724 221.638 -0.07 +0.05    -0.268 OA 
DOCKED: ATOM      7  H   UNL     1     139.928  73.044 223.698 -0.31 -0.03    +0.164 HD 
DOCKED: BRANCH   5   8
DOCKED: ATOM      8  C   UNL     1     139.487  70.427 223.892 -0.28 -0.02    +0.128 A  
DOCKED: ATOM      9  C   UNL     1     139.065  69.114 223.906 -0.28 -0.01    +0.035 A  
DOCKED: ATOM     10  N   UNL     1     140.092  70.918 225.008 -0.29 +0.04    -0.243 NA 
DOCKED: ATOM     11  C   UNL     1     139.227  68.279 224.996 -0.42 -0.00    +0.013 A  
DOCKED: ATOM     12  C   UNL     1     140.268  70.121 226.098 -0.47 -0.01    +0.071 A  
DOCKED: ATOM     13  C   UNL     1     139.843  68.805 226.108 -0.53 -0.00    +0.000 A  
DOCKED: ATOM     14  C   UNL     1     140.878  70.596 227.240 -0.61 -0.00    +0.029 A  
DOCKED: ATOM     15  C   UNL     1     140.010  67.976 227.204 -0.64 -0.00    +0.010 A  
DOCKED: ATOM     16  C   UNL     1     141.072  69.810 228.365 -0.55 -0.00    +0.002 A  
DOCKED: ATOM     17  C   UNL     1     140.633  68.482 228.350 -0.67 -0.00    +0.001 A  
DOCKED: ENDBRANCH   5   8
DOCKED: ENDBRANCH   3   4
DOCKED: ENDBRANCH   1   3
DOCKED: BRANCH   1  18
DOCKED: ATOM     18  N   UNL     1     138.523  75.832 221.955 -0.14 +0.08    -0.334 N  
DOCKED: ATOM     19  C   UNL     1     137.210  75.465 222.505 -0.17 -0.03    +0.120 C  
DOCKED: ATOM     20  C   UNL     1     138.599  77.169 221.557 -0.17 -0.02    +0.115 C  
DOCKED: ATOM     21  C   UNL     1     136.350  76.662 222.146 -0.16 -0.00    +0.024 C  
DOCKED: ATOM     22  C   UNL     1     137.325  77.789 222.080 -0.18 -0.01    +0.032 C  
DOCKED: BRANCH  20  23
DOCKED: ATOM     23  C   UNL     1     139.697  77.985 222.082 -0.29 +0.01    -0.025 A  
DOCKED: ATOM     24  C   UNL     1     139.490  78.664 223.289 -0.31 -0.00    +0.007 A  
DOCKED: ATOM     25  C   UNL     1     140.932  78.118 221.442 -0.33 -0.00    +0.007 A  
DOCKED: ATOM     26  C   UNL     1     140.488  79.456 223.844 -0.48 -0.00    +0.021 A  
DOCKED: ATOM     27  C   UNL     1     141.924  78.909 222.000 -0.44 -0.01    +0.021 A  
DOCKED: ATOM     28  C   UNL     1     141.699  79.572 223.193 -0.55 -0.01    +0.041 A  
DOCKED: ATOM     29  Cl  UNL     1     143.018  80.551 223.822 -0.76 +0.02    -0.084 Cl 
DOCKED: ENDBRANCH  20  23
DOCKED: ENDBRANCH   1  18
DOCKED: TORSDOF 5
DOCKED: TER
DOCKED: ENDMDL
________________________________________________________________________________


    FINAL DOCKED STATE:
    ________________________


Run:   14 / 20
Time taken for this run:   0.022s

DOCKED: MODEL        14
DOCKED: USER    Run = 14
DOCKED: USER
DOCKED: USER    Estimated Free Energy of Binding    =  -8.23 kcal/mol  [=(1)+(2)+(3)-(4)]
DOCKED: USER
DOCKED: USER    (1) Final Intermolecular Energy     =  -9.72 kcal/mol
DOCKED: USER        vdW + Hbond + desolv Energy     =  -9.61 kcal/mol
DOCKED: USER        Electrostatic Energy            =  -0.11 kcal/mol
DOCKED: USER        Moving Ligand-Fixed Receptor    =  -9.72 kcal/mol
DOCKED: USER        Moving Ligand-Moving Receptor   =  +0.00 kcal/mol
DOCKED: USER    (2) Final Total Internal Energy     =  -1.84 kcal/mol
DOCKED: USER    (3) Torsional Free Energy           =  +1.49 kcal/mol
DOCKED: USER    (4) Unbound System's Energy         =  -1.84 kcal/mol
DOCKED: USER
DOCKED: USER
DOCKED: REMARK SMILES O=C(NCC(=O)N1CCC[C@H]1c1ccc(Cl)cc1)c1ccc2ccccc2n1
DOCKED: REMARK SMILES IDX 5 1 6 2 4 3 3 4 2 5 1 6 19 8 20 9 28 10 21 11 27 12 22 13
DOCKED: REMARK SMILES IDX 26 14 23 15 25 16 24 17 7 18 8 19 11 20 9 21 10 22 12 23
DOCKED: REMARK SMILES IDX 13 24 18 25 14 26 17 27 15 28 16 29
DOCKED: REMARK H PARENT 3 7
DOCKED: USER                              x       y       z     vdW  Elec       q    Type
DOCKED: USER                           _______ _______ _______ _____ _____    ______ ____
DOCKED: ROOT
DOCKED: ATOM      1  C   UNL     1     140.699  75.618 221.394 -0.24 -0.06    +0.242 C  
DOCKED: ATOM      2  O   UNL     1     140.581  76.138 222.555 -0.36 +0.06    -0.273 OA 
DOCKED: ENDROOT
DOCKED: BRANCH   1   3
DOCKED: ATOM      3  C   UNL     1     140.120  74.303 221.111 -0.18 -0.04    +0.216 C  
DOCKED: BRANCH   3   4
DOCKED: ATOM      4  N   UNL     1     139.925  73.543 222.332 -0.12 +0.03    -0.342 N  
DOCKED: ATOM      5  C   UNL     1     140.373  72.181 222.316 -0.21 -0.03    +0.270 C  
DOCKED: ATOM      6  O   UNL     1     140.909  71.661 221.300 -0.13 +0.03    -0.268 OA 
DOCKED: ATOM      7  H   UNL     1     139.486  73.934 223.194 -0.50 -0.04    +0.164 HD 
DOCKED: BRANCH   5   8
DOCKED: ATOM      8  C   UNL     1     140.190  71.391 223.532 -0.32 -0.02    +0.128 A  
DOCKED: ATOM      9  C   UNL     1     139.559  70.165 223.471 -0.27 -0.01    +0.035 A  
DOCKED: ATOM     10  N   UNL     1     140.627  71.827 224.745 -0.28 +0.03    -0.243 NA 
DOCKED: ATOM     11  C   UNL     1     139.352  69.366 224.579 -0.35 -0.00    +0.013 A  
DOCKED: ATOM     12  C   UNL     1     140.439  71.063 225.856 -0.53 -0.01    +0.071 A  
DOCKED: ATOM     13  C   UNL     1     139.805  69.835 225.791 -0.47 -0.00    +0.000 A  
DOCKED: ATOM     14  C   UNL     1     140.872  71.484 227.096 -0.73 -0.01    +0.029 A  
DOCKED: ATOM     15  C   UNL     1     139.601  69.040 226.906 -0.55 -0.00    +0.010 A  
DOCKED: ATOM     16  C   UNL     1     140.695  70.729 228.244 -0.63 -0.00    +0.002 A  
DOCKED: ATOM     17  C   UNL     1     140.051  69.491 228.152 -0.63 -0.00    +0.001 A  
DOCKED: ENDBRANCH   5   8
DOCKED: ENDBRANCH   3   4
DOCKED: ENDBRANCH   1   3
DOCKED: BRANCH   1  18
DOCKED: ATOM     18  N   UNL     1     141.416  76.407 220.446 -0.11 +0.15    -0.334 N  
DOCKED: ATOM     19  C   UNL     1     141.631  77.842 220.679 -0.26 -0.07    +0.120 C  
DOCKED: ATOM     20  C   UNL     1     141.970  75.955 219.247 -0.19 -0.05    +0.115 C  
DOCKED: ATOM     21  C   UNL     1     142.149  78.325 219.337 -0.25 -0.02    +0.024 C  
DOCKED: ATOM     22  C   UNL     1     142.801  77.117 218.755 -0.33 -0.02    +0.032 C  
DOCKED: BRANCH  20  23
DOCKED: ATOM     23  C   UNL     1     142.870  74.799 219.294 -0.25 +0.01    -0.025 A  
DOCKED: ATOM     24  C   UNL     1     142.583  73.710 218.463 -0.10 -0.00    +0.007 A  
DOCKED: ATOM     25  C   UNL     1     143.993  74.731 220.124 -0.44 -0.00    +0.007 A  
DOCKED: ATOM     26  C   UNL     1     143.394  72.581 218.457 -0.11 -0.00    +0.021 A  
DOCKED: ATOM     27  C   UNL     1     144.798  73.604 220.114 -0.47 -0.00    +0.021 A  
DOCKED: ATOM     28  C   UNL     1     144.497  72.538 219.285 -0.26 +0.00    +0.041 A  
DOCKED: ATOM     29  Cl  UNL     1     145.579  71.151 219.343 -0.35 -0.04    -0.084 Cl 
DOCKED: ENDBRANCH  20  23
DOCKED: ENDBRANCH   1  18
DOCKED: TORSDOF 5
DOCKED: TER
DOCKED: ENDMDL
________________________________________________________________________________


    FINAL DOCKED STATE:
    ________________________


Run:   15 / 20
Time taken for this run:   0.022s

DOCKED: MODEL        15
DOCKED: USER    Run = 15
DOCKED: USER
DOCKED: USER    Estimated Free Energy of Binding    =  -8.29 kcal/mol  [=(1)+(2)+(3)-(4)]
DOCKED: USER
DOCKED: USER    (1) Final Intermolecular Energy     =  -9.78 kcal/mol
DOCKED: USER        vdW + Hbond + desolv Energy     =  -9.66 kcal/mol
DOCKED: USER        Electrostatic Energy            =  -0.12 kcal/mol
DOCKED: USER        Moving Ligand-Fixed Receptor    =  -9.78 kcal/mol
DOCKED: USER        Moving Ligand-Moving Receptor   =  +0.00 kcal/mol
DOCKED: USER    (2) Final Total Internal Energy     =  -1.84 kcal/mol
DOCKED: USER    (3) Torsional Free Energy           =  +1.49 kcal/mol
DOCKED: USER    (4) Unbound System's Energy         =  -1.84 kcal/mol
DOCKED: USER
DOCKED: USER
DOCKED: REMARK SMILES O=C(NCC(=O)N1CCC[C@H]1c1ccc(Cl)cc1)c1ccc2ccccc2n1
DOCKED: REMARK SMILES IDX 5 1 6 2 4 3 3 4 2 5 1 6 19 8 20 9 28 10 21 11 27 12 22 13
DOCKED: REMARK SMILES IDX 26 14 23 15 25 16 24 17 7 18 8 19 11 20 9 21 10 22 12 23
DOCKED: REMARK SMILES IDX 13 24 18 25 14 26 17 27 15 28 16 29
DOCKED: REMARK H PARENT 3 7
DOCKED: USER                              x       y       z     vdW  Elec       q    Type
DOCKED: USER                           _______ _______ _______ _____ _____    ______ ____
DOCKED: ROOT
DOCKED: ATOM      1  C   UNL     1     140.364  75.671 221.347 -0.22 -0.06    +0.242 C  
DOCKED: ATOM      2  O   UNL     1     139.838  76.222 222.373 -0.35 +0.05    -0.273 OA 
DOCKED: ENDROOT
DOCKED: BRANCH   1   3
DOCKED: ATOM      3  C   UNL     1     140.169  74.242 221.095 -0.18 -0.04    +0.216 C  
DOCKED: BRANCH   3   4
DOCKED: ATOM      4  N   UNL     1     139.972  73.513 222.336 -0.12 +0.03    -0.342 N  
DOCKED: ATOM      5  C   UNL     1     140.440  72.158 222.363 -0.21 -0.03    +0.270 C  
DOCKED: ATOM      6  O   UNL     1     140.995  71.618 221.368 -0.14 +0.03    -0.268 OA 
DOCKED: ATOM      7  H   UNL     1     139.519  73.922 223.182 -0.50 -0.03    +0.164 HD 
DOCKED: BRANCH   5   8
DOCKED: ATOM      8  C   UNL     1     140.256  71.400 223.599 -0.33 -0.02    +0.128 A  
DOCKED: ATOM      9  C   UNL     1     139.652  70.160 223.565 -0.26 -0.01    +0.035 A  
DOCKED: ATOM     10  N   UNL     1     140.665  71.881 224.805 -0.27 +0.03    -0.243 NA 
DOCKED: ATOM     11  C   UNL     1     139.444  69.389 224.693 -0.36 -0.00    +0.013 A  
DOCKED: ATOM     12  C   UNL     1     140.477  71.145 225.935 -0.54 -0.01    +0.071 A  
DOCKED: ATOM     13  C   UNL     1     139.869  69.903 225.897 -0.48 -0.00    +0.000 A  
DOCKED: ATOM     14  C   UNL     1     140.883  71.611 227.168 -0.74 -0.01    +0.029 A  
DOCKED: ATOM     15  C   UNL     1     139.666  69.137 227.032 -0.56 -0.00    +0.010 A  
DOCKED: ATOM     16  C   UNL     1     140.704  70.886 228.335 -0.63 -0.00    +0.002 A  
DOCKED: ATOM     17  C   UNL     1     140.088  69.633 228.270 -0.62 -0.00    +0.001 A  
DOCKED: ENDBRANCH   5   8
DOCKED: ENDBRANCH   3   4
DOCKED: ENDBRANCH   1   3
DOCKED: BRANCH   1  18
DOCKED: ATOM     18  N   UNL     1     141.123  76.544 220.513 -0.10 +0.14    -0.334 N  
DOCKED: ATOM     19  C   UNL     1     141.291  77.960 220.868 -0.26 -0.06    +0.120 C  
DOCKED: ATOM     20  C   UNL     1     141.765  76.195 219.322 -0.18 -0.05    +0.115 C  
DOCKED: ATOM     21  C   UNL     1     141.883  78.554 219.604 -0.26 -0.01    +0.024 C  
DOCKED: ATOM     22  C   UNL     1     142.599  77.406 218.976 -0.32 -0.02    +0.032 C  
DOCKED: BRANCH  20  23
DOCKED: ATOM     23  C   UNL     1     142.685  75.055 219.341 -0.25 +0.01    -0.025 A  
DOCKED: ATOM     24  C   UNL     1     143.860  75.174 220.094 -0.42 -0.00    +0.007 A  
DOCKED: ATOM     25  C   UNL     1     142.451  73.864 218.650 -0.11 -0.00    +0.007 A  
DOCKED: ATOM     26  C   UNL     1     144.778  74.132 220.157 -0.48 -0.01    +0.021 A  
DOCKED: ATOM     27  C   UNL     1     143.369  72.828 218.715 -0.13 -0.00    +0.021 A  
DOCKED: ATOM     28  C   UNL     1     144.523  72.966 219.465 -0.30 -0.00    +0.041 A  
DOCKED: ATOM     29  Cl  UNL     1     145.628  71.596 219.487 -0.32 -0.04    -0.084 Cl 
DOCKED: ENDBRANCH  20  23
DOCKED: ENDBRANCH   1  18
DOCKED: TORSDOF 5
DOCKED: TER
DOCKED: ENDMDL
________________________________________________________________________________


    FINAL DOCKED STATE:
    ________________________


Run:   16 / 20
Time taken for this run:   0.022s

DOCKED: MODEL        16
DOCKED: USER    Run = 16
DOCKED: USER
DOCKED: USER    Estimated Free Energy of Binding    =  -8.58 kcal/mol  [=(1)+(2)+(3)-(4)]
DOCKED: USER
DOCKED: USER    (1) Final Intermolecular Energy     = -10.07 kcal/mol
DOCKED: USER        vdW + Hbond + desolv Energy     = -10.05 kcal/mol
DOCKED: USER        Electrostatic Energy            =  -0.02 kcal/mol
DOCKED: USER        Moving Ligand-Fixed Receptor    = -10.07 kcal/mol
DOCKED: USER        Moving Ligand-Moving Receptor   =  +0.00 kcal/mol
DOCKED: USER    (2) Final Total Internal Energy     =  -1.60 kcal/mol
DOCKED: USER    (3) Torsional Free Energy           =  +1.49 kcal/mol
DOCKED: USER    (4) Unbound System's Energy         =  -1.60 kcal/mol
DOCKED: USER
DOCKED: USER
DOCKED: REMARK SMILES O=C(NCC(=O)N1CCC[C@H]1c1ccc(Cl)cc1)c1ccc2ccccc2n1
DOCKED: REMARK SMILES IDX 5 1 6 2 4 3 3 4 2 5 1 6 19 8 20 9 28 10 21 11 27 12 22 13
DOCKED: REMARK SMILES IDX 26 14 23 15 25 16 24 17 7 18 8 19 11 20 9 21 10 22 12 23
DOCKED: REMARK SMILES IDX 13 24 18 25 14 26 17 27 15 28 16 29
DOCKED: REMARK H PARENT 3 7
DOCKED: USER                              x       y       z     vdW  Elec       q    Type
DOCKED: USER                           _______ _______ _______ _____ _____    ______ ____
DOCKED: ROOT
DOCKED: ATOM      1  C   UNL     1     139.392  74.896 221.880 -0.20 -0.05    +0.242 C  
DOCKED: ATOM      2  O   UNL     1     140.526  75.288 222.320 -0.56 +0.02    -0.273 OA 
DOCKED: ENDROOT
DOCKED: BRANCH   1   3
DOCKED: ATOM      3  C   UNL     1     139.151  73.476 221.619 -0.16 -0.05    +0.216 C  
DOCKED: BRANCH   3   4
DOCKED: ATOM      4  N   UNL     1     139.464  72.669 222.786 -0.07 +0.08    -0.342 N  
DOCKED: ATOM      5  C   UNL     1     139.000  71.313 222.768 -0.16 -0.06    +0.270 C  
DOCKED: ATOM      6  O   UNL     1     138.353  70.835 221.797 -0.06 +0.05    -0.268 OA 
DOCKED: ATOM      7  H   UNL     1     139.996  73.025 223.610 -0.29 -0.02    +0.164 HD 
DOCKED: BRANCH   5   8
DOCKED: ATOM      8  C   UNL     1     139.301  70.477 223.929 -0.28 -0.02    +0.128 A  
DOCKED: ATOM      9  C   UNL     1     138.971  69.137 223.919 -0.29 -0.01    +0.035 A  
DOCKED: ATOM     10  N   UNL     1     139.905  70.980 225.039 -0.29 +0.04    -0.243 NA 
DOCKED: ATOM     11  C   UNL     1     139.225  68.289 224.980 -0.42 -0.00    +0.013 A  
DOCKED: ATOM     12  C   UNL     1     140.170  70.171 226.101 -0.47 -0.01    +0.071 A  
DOCKED: ATOM     13  C   UNL     1     139.837  68.828 226.088 -0.53 -0.00    +0.000 A  
DOCKED: ATOM     14  C   UNL     1     140.781  70.657 227.238 -0.63 -0.00    +0.029 A  
DOCKED: ATOM     15  C   UNL     1     140.096  67.984 227.155 -0.65 -0.00    +0.010 A  
DOCKED: ATOM     16  C   UNL     1     141.064  69.858 228.334 -0.57 -0.00    +0.002 A  
DOCKED: ATOM     17  C   UNL     1     140.717  68.504 228.296 -0.68 -0.00    +0.001 A  
DOCKED: ENDBRANCH   5   8
DOCKED: ENDBRANCH   3   4
DOCKED: ENDBRANCH   1   3
DOCKED: BRANCH   1  18
DOCKED: ATOM     18  N   UNL     1     138.431  75.931 221.677 -0.11 +0.08    -0.334 N  
DOCKED: ATOM     19  C   UNL     1     137.017  75.715 222.015 -0.17 -0.03    +0.120 C  
DOCKED: ATOM     20  C   UNL     1     138.686  77.204 221.162 -0.13 -0.03    +0.115 C  
DOCKED: ATOM     21  C   UNL     1     136.335  76.914 221.383 -0.09 -0.00    +0.024 C  
DOCKED: ATOM     22  C   UNL     1     137.397  77.962 221.378 -0.11 -0.01    +0.032 C  
DOCKED: BRANCH  20  23
DOCKED: ATOM     23  C   UNL     1     139.741  78.005 221.789 -0.26 +0.01    -0.025 A  
DOCKED: ATOM     24  C   UNL     1     139.454  78.626 223.010 -0.35 -0.00    +0.007 A  
DOCKED: ATOM     25  C   UNL     1     141.011  78.178 221.232 -0.31 -0.00    +0.007 A  
DOCKED: ATOM     26  C   UNL     1     140.407  79.401 223.660 -0.47 -0.00    +0.021 A  
DOCKED: ATOM     27  C   UNL     1     141.958  78.951 221.883 -0.43 -0.01    +0.021 A  
DOCKED: ATOM     28  C   UNL     1     141.654  79.556 223.090 -0.54 -0.01    +0.041 A  
DOCKED: ATOM     29  Cl  UNL     1     142.922  80.518 223.841 -0.80 +0.02    -0.084 Cl 
DOCKED: ENDBRANCH  20  23
DOCKED: ENDBRANCH   1  18
DOCKED: TORSDOF 5
DOCKED: TER
DOCKED: ENDMDL
________________________________________________________________________________


    FINAL DOCKED STATE:
    ________________________


Run:   17 / 20
Time taken for this run:   0.022s

DOCKED: MODEL        17
DOCKED: USER    Run = 17
DOCKED: USER
DOCKED: USER    Estimated Free Energy of Binding    =  -8.43 kcal/mol  [=(1)+(2)+(3)-(4)]
DOCKED: USER
DOCKED: USER    (1) Final Intermolecular Energy     =  -9.92 kcal/mol
DOCKED: USER        vdW + Hbond + desolv Energy     =  -9.76 kcal/mol
DOCKED: USER        Electrostatic Energy            =  -0.16 kcal/mol
DOCKED: USER        Moving Ligand-Fixed Receptor    =  -9.92 kcal/mol
DOCKED: USER        Moving Ligand-Moving Receptor   =  +0.00 kcal/mol
DOCKED: USER    (2) Final Total Internal Energy     =  -1.72 kcal/mol
DOCKED: USER    (3) Torsional Free Energy           =  +1.49 kcal/mol
DOCKED: USER    (4) Unbound System's Energy         =  -1.72 kcal/mol
DOCKED: USER
DOCKED: USER
DOCKED: REMARK SMILES O=C(NCC(=O)N1CCC[C@H]1c1ccc(Cl)cc1)c1ccc2ccccc2n1
DOCKED: REMARK SMILES IDX 5 1 6 2 4 3 3 4 2 5 1 6 19 8 20 9 28 10 21 11 27 12 22 13
DOCKED: REMARK SMILES IDX 26 14 23 15 25 16 24 17 7 18 8 19 11 20 9 21 10 22 12 23
DOCKED: REMARK SMILES IDX 13 24 18 25 14 26 17 27 15 28 16 29
DOCKED: REMARK H PARENT 3 7
DOCKED: USER                              x       y       z     vdW  Elec       q    Type
DOCKED: USER                           _______ _______ _______ _____ _____    ______ ____
DOCKED: ROOT
DOCKED: ATOM      1  C   UNL     1     140.431  75.667 221.524 -0.24 -0.06    +0.242 C  
DOCKED: ATOM      2  O   UNL     1     140.309  76.112 222.715 -0.35 +0.04    -0.273 OA 
DOCKED: ENDROOT
DOCKED: BRANCH   1   3
DOCKED: ATOM      3  C   UNL     1     139.862  74.369 221.157 -0.18 -0.04    +0.216 C  
DOCKED: BRANCH   3   4
DOCKED: ATOM      4  N   UNL     1     139.641  73.544 222.332 -0.13 +0.05    -0.342 N  
DOCKED: ATOM      5  C   UNL     1     140.465  72.376 222.457 -0.20 -0.02    +0.270 C  
DOCKED: ATOM      6  O   UNL     1     141.337  72.073 221.598 -0.18 +0.02    -0.268 OA 
DOCKED: ATOM      7  H   UNL     1     138.931  73.758 223.065 -0.54 -0.09    +0.164 HD 
DOCKED: BRANCH   5   8
DOCKED: ATOM      8  C   UNL     1     140.265  71.527 223.630 -0.34 -0.02    +0.128 A  
DOCKED: ATOM      9  C   UNL     1     139.615  70.316 223.502 -0.28 -0.01    +0.035 A  
DOCKED: ATOM     10  N   UNL     1     140.704  71.892 224.865 -0.28 +0.03    -0.243 NA 
DOCKED: ATOM     11  C   UNL     1     139.391  69.463 224.566 -0.35 -0.00    +0.013 A  
DOCKED: ATOM     12  C   UNL     1     140.500  71.073 225.933 -0.54 -0.01    +0.071 A  
DOCKED: ATOM     13  C   UNL     1     139.847  69.860 225.802 -0.47 -0.00    +0.000 A  
DOCKED: ATOM     14  C   UNL     1     140.934  71.421 227.195 -0.73 -0.01    +0.029 A  
DOCKED: ATOM     15  C   UNL     1     139.627  69.012 226.873 -0.55 -0.00    +0.010 A  
DOCKED: ATOM     16  C   UNL     1     140.741  70.610 228.301 -0.60 -0.00    +0.002 A  
DOCKED: ATOM     17  C   UNL     1     140.079  69.389 228.142 -0.63 -0.00    +0.001 A  
DOCKED: ENDBRANCH   5   8
DOCKED: ENDBRANCH   3   4
DOCKED: ENDBRANCH   1   3
DOCKED: BRANCH   1  18
DOCKED: ATOM     18  N   UNL     1     141.143  76.520 220.629 -0.11 +0.14    -0.334 N  
DOCKED: ATOM     19  C   UNL     1     141.280  77.955 220.914 -0.26 -0.06    +0.120 C  
DOCKED: ATOM     20  C   UNL     1     141.762  76.134 219.438 -0.19 -0.05    +0.115 C  
DOCKED: ATOM     21  C   UNL     1     141.821  78.506 219.608 -0.28 -0.01    +0.024 C  
DOCKED: ATOM     22  C   UNL     1     142.552  77.350 219.014 -0.32 -0.02    +0.032 C  
DOCKED: BRANCH  20  23
DOCKED: ATOM     23  C   UNL     1     142.714  75.022 219.483 -0.27 +0.01    -0.025 A  
DOCKED: ATOM     24  C   UNL     1     143.940  75.235 220.126 -0.39 -0.00    +0.007 A  
DOCKED: ATOM     25  C   UNL     1     142.462  73.768 218.920 -0.13 -0.00    +0.007 A  
DOCKED: ATOM     26  C   UNL     1     144.890  74.224 220.207 -0.47 -0.01    +0.021 A  
DOCKED: ATOM     27  C   UNL     1     143.413  72.764 219.003 -0.15 -0.00    +0.021 A  
DOCKED: ATOM     28  C   UNL     1     144.618  72.994 219.643 -0.34 -0.00    +0.041 A  
DOCKED: ATOM     29  Cl  UNL     1     145.761  71.657 219.696 -0.27 -0.04    -0.084 Cl 
DOCKED: ENDBRANCH  20  23
DOCKED: ENDBRANCH   1  18
DOCKED: TORSDOF 5
DOCKED: TER
DOCKED: ENDMDL
________________________________________________________________________________


    FINAL DOCKED STATE:
    ________________________


Run:   18 / 20
Time taken for this run:   0.022s

DOCKED: MODEL        18
DOCKED: USER    Run = 18
DOCKED: USER
DOCKED: USER    Estimated Free Energy of Binding    =  -8.46 kcal/mol  [=(1)+(2)+(3)-(4)]
DOCKED: USER
DOCKED: USER    (1) Final Intermolecular Energy     =  -9.95 kcal/mol
DOCKED: USER        vdW + Hbond + desolv Energy     =  -9.80 kcal/mol
DOCKED: USER        Electrostatic Energy            =  -0.16 kcal/mol
DOCKED: USER        Moving Ligand-Fixed Receptor    =  -9.95 kcal/mol
DOCKED: USER        Moving Ligand-Moving Receptor   =  +0.00 kcal/mol
DOCKED: USER    (2) Final Total Internal Energy     =  -1.70 kcal/mol
DOCKED: USER    (3) Torsional Free Energy           =  +1.49 kcal/mol
DOCKED: USER    (4) Unbound System's Energy         =  -1.70 kcal/mol
DOCKED: USER
DOCKED: USER
DOCKED: REMARK SMILES O=C(NCC(=O)N1CCC[C@H]1c1ccc(Cl)cc1)c1ccc2ccccc2n1
DOCKED: REMARK SMILES IDX 5 1 6 2 4 3 3 4 2 5 1 6 19 8 20 9 28 10 21 11 27 12 22 13
DOCKED: REMARK SMILES IDX 26 14 23 15 25 16 24 17 7 18 8 19 11 20 9 21 10 22 12 23
DOCKED: REMARK SMILES IDX 13 24 18 25 14 26 17 27 15 28 16 29
DOCKED: REMARK H PARENT 3 7
DOCKED: USER                              x       y       z     vdW  Elec       q    Type
DOCKED: USER                           _______ _______ _______ _____ _____    ______ ____
DOCKED: ROOT
DOCKED: ATOM      1  C   UNL     1     140.338  75.696 221.546 -0.24 -0.06    +0.242 C  
DOCKED: ATOM      2  O   UNL     1     140.090  76.152 222.713 -0.37 +0.04    -0.273 OA 
DOCKED: ENDROOT
DOCKED: BRANCH   1   3
DOCKED: ATOM      3  C   UNL     1     139.879  74.359 221.162 -0.18 -0.04    +0.216 C  
DOCKED: BRANCH   3   4
DOCKED: ATOM      4  N   UNL     1     139.632  73.534 222.331 -0.13 +0.05    -0.342 N  
DOCKED: ATOM      5  C   UNL     1     140.487  72.396 222.502 -0.19 -0.02    +0.270 C  
DOCKED: ATOM      6  O   UNL     1     141.407  72.117 221.687 -0.19 +0.02    -0.268 OA 
DOCKED: ATOM      7  H   UNL     1     138.882  73.730 223.029 -0.54 -0.09    +0.164 HD 
DOCKED: BRANCH   5   8
DOCKED: ATOM      8  C   UNL     1     140.262  71.547 223.671 -0.34 -0.02    +0.128 A  
DOCKED: ATOM      9  C   UNL     1     139.570  70.361 223.539 -0.29 -0.01    +0.035 A  
DOCKED: ATOM     10  N   UNL     1     140.717  71.890 224.906 -0.28 +0.03    -0.243 NA 
DOCKED: ATOM     11  C   UNL     1     139.320  69.510 224.599 -0.35 -0.00    +0.013 A  
DOCKED: ATOM     12  C   UNL     1     140.489  71.073 225.971 -0.54 -0.01    +0.071 A  
DOCKED: ATOM     13  C   UNL     1     139.794  69.884 225.835 -0.47 -0.00    +0.000 A  
DOCKED: ATOM     14  C   UNL     1     140.940  71.399 227.233 -0.73 -0.01    +0.029 A  
DOCKED: ATOM     15  C   UNL     1     139.548  69.038 226.903 -0.54 -0.00    +0.010 A  
DOCKED: ATOM     16  C   UNL     1     140.722  70.589 228.336 -0.59 -0.00    +0.002 A  
DOCKED: ATOM     17  C   UNL     1     140.018  69.392 228.172 -0.63 -0.00    +0.001 A  
DOCKED: ENDBRANCH   5   8
DOCKED: ENDBRANCH   3   4
DOCKED: ENDBRANCH   1   3
DOCKED: BRANCH   1  18
DOCKED: ATOM     18  N   UNL     1     141.071  76.575 220.695 -0.11 +0.14    -0.334 N  
DOCKED: ATOM     19  C   UNL     1     141.196  78.002 221.024 -0.26 -0.06    +0.120 C  
DOCKED: ATOM     20  C   UNL     1     141.723  76.224 219.510 -0.19 -0.05    +0.115 C  
DOCKED: ATOM     21  C   UNL     1     141.770  78.591 219.749 -0.27 -0.01    +0.024 C  
DOCKED: ATOM     22  C   UNL     1     142.521  77.453 219.142 -0.30 -0.02    +0.032 C  
DOCKED: BRANCH  20  23
DOCKED: ATOM     23  C   UNL     1     142.677  75.113 219.551 -0.28 +0.01    -0.025 A  
DOCKED: ATOM     24  C   UNL     1     142.275  73.884 219.014 -0.13 -0.00    +0.007 A  
DOCKED: ATOM     25  C   UNL     1     143.960  75.219 220.095 -0.42 -0.00    +0.007 A  
DOCKED: ATOM     26  C   UNL     1     143.129  72.788 219.019 -0.14 -0.00    +0.021 A  
DOCKED: ATOM     27  C   UNL     1     144.808  74.123 220.098 -0.48 -0.01    +0.021 A  
DOCKED: ATOM     28  C   UNL     1     144.391  72.917 219.562 -0.30 -0.00    +0.041 A  
DOCKED: ATOM     29  Cl  UNL     1     145.538  71.584 219.611 -0.32 -0.03    -0.084 Cl 
DOCKED: ENDBRANCH  20  23
DOCKED: ENDBRANCH   1  18
DOCKED: TORSDOF 5
DOCKED: TER
DOCKED: ENDMDL
________________________________________________________________________________


    FINAL DOCKED STATE:
    ________________________


Run:   19 / 20
Time taken for this run:   0.022s

DOCKED: MODEL        19
DOCKED: USER    Run = 19
DOCKED: USER
DOCKED: USER    Estimated Free Energy of Binding    =  -7.55 kcal/mol  [=(1)+(2)+(3)-(4)]
DOCKED: USER
DOCKED: USER    (1) Final Intermolecular Energy     =  -9.05 kcal/mol
DOCKED: USER        vdW + Hbond + desolv Energy     =  -9.08 kcal/mol
DOCKED: USER        Electrostatic Energy            =  +0.03 kcal/mol
DOCKED: USER        Moving Ligand-Fixed Receptor    =  -9.05 kcal/mol
DOCKED: USER        Moving Ligand-Moving Receptor   =  +0.00 kcal/mol
DOCKED: USER    (2) Final Total Internal Energy     =  -2.29 kcal/mol
DOCKED: USER    (3) Torsional Free Energy           =  +1.49 kcal/mol
DOCKED: USER    (4) Unbound System's Energy         =  -2.29 kcal/mol
DOCKED: USER
DOCKED: USER
DOCKED: REMARK SMILES O=C(NCC(=O)N1CCC[C@H]1c1ccc(Cl)cc1)c1ccc2ccccc2n1
DOCKED: REMARK SMILES IDX 5 1 6 2 4 3 3 4 2 5 1 6 19 8 20 9 28 10 21 11 27 12 22 13
DOCKED: REMARK SMILES IDX 26 14 23 15 25 16 24 17 7 18 8 19 11 20 9 21 10 22 12 23
DOCKED: REMARK SMILES IDX 13 24 18 25 14 26 17 27 15 28 16 29
DOCKED: REMARK H PARENT 3 7
DOCKED: USER                              x       y       z     vdW  Elec       q    Type
DOCKED: USER                           _______ _______ _______ _____ _____    ______ ____
DOCKED: ROOT
DOCKED: ATOM      1  C   UNL     1     141.741  73.030 220.426 -0.13 -0.04    +0.242 C  
DOCKED: ATOM      2  O   UNL     1     141.350  72.346 219.420 -0.04 +0.05    -0.273 OA 
DOCKED: ENDROOT
DOCKED: BRANCH   1   3
DOCKED: ATOM      3  C   UNL     1     140.776  73.496 221.424 -0.20 -0.03    +0.216 C  
DOCKED: BRANCH   3   4
DOCKED: ATOM      4  N   UNL     1     141.059  74.861 221.828 -0.14 +0.04    -0.342 N  
DOCKED: ATOM      5  C   UNL     1     139.927  75.722 222.011 -0.22 -0.05    +0.270 C  
DOCKED: ATOM      6  O   UNL     1     138.744  75.324 221.832 -0.21 +0.06    -0.268 OA 
DOCKED: ATOM      7  H   UNL     1     142.022  75.230 221.987 -0.34 -0.06    +0.164 HD 
DOCKED: BRANCH   5   8
DOCKED: ATOM      8  C   UNL     1     140.181  77.102 222.418 -0.32 -0.03    +0.128 A  
DOCKED: ATOM      9  C   UNL     1     139.125  77.954 222.668 -0.30 -0.01    +0.035 A  
DOCKED: ATOM     10  N   UNL     1     141.444  77.587 222.564 -0.20 +0.12    -0.243 NA 
DOCKED: ATOM     11  C   UNL     1     139.291  79.270 223.056 -0.35 -0.00    +0.013 A  
DOCKED: ATOM     12  C   UNL     1     141.642  78.878 222.946 -0.50 -0.03    +0.071 A  
DOCKED: ATOM     13  C   UNL     1     140.580  79.731 223.194 -0.46 -0.00    +0.000 A  
DOCKED: ATOM     14  C   UNL     1     142.912  79.393 223.099 -0.51 -0.01    +0.029 A  
DOCKED: ATOM     15  C   UNL     1     140.756  81.047 223.583 -0.42 -0.00    +0.010 A  
DOCKED: ATOM     16  C   UNL     1     143.145  80.703 223.486 -0.61 -0.00    +0.002 A  
DOCKED: ATOM     17  C   UNL     1     142.056  81.544 223.732 -0.57 -0.00    +0.001 A  
DOCKED: ENDBRANCH   5   8
DOCKED: ENDBRANCH   3   4
DOCKED: ENDBRANCH   1   3
DOCKED: BRANCH   1  18
DOCKED: ATOM     18  N   UNL     1     143.144  73.281 220.479 -0.13 +0.07    -0.334 N  
DOCKED: ATOM     19  C   UNL     1     144.104  72.167 220.483 -0.29 -0.02    +0.120 C  
DOCKED: ATOM     20  C   UNL     1     143.756  74.535 220.532 -0.27 -0.05    +0.115 C  
DOCKED: ATOM     21  C   UNL     1     145.410  72.852 220.838 -0.53 -0.00    +0.024 C  
DOCKED: ATOM     22  C   UNL     1     145.226  74.245 220.336 -0.40 -0.01    +0.032 C  
DOCKED: BRANCH  20  23
DOCKED: ATOM     23  C   UNL     1     143.395  75.524 219.513 -0.37 +0.01    -0.025 A  
DOCKED: ATOM     24  C   UNL     1     142.722  76.679 219.930 -0.32 -0.00    +0.007 A  
DOCKED: ATOM     25  C   UNL     1     143.685  75.372 218.154 -0.22 -0.00    +0.007 A  
DOCKED: ATOM     26  C   UNL     1     142.349  77.659 219.017 -0.30 -0.01    +0.021 A  
DOCKED: ATOM     27  C   UNL     1     143.310  76.351 217.249 -0.25 -0.01    +0.021 A  
DOCKED: ATOM     28  C   UNL     1     142.647  77.486 217.681 -0.28 -0.03    +0.041 A  
DOCKED: ATOM     29  Cl  UNL     1     142.213  78.672 216.457 -0.21 +0.08    -0.084 Cl 
DOCKED: ENDBRANCH  20  23
DOCKED: ENDBRANCH   1  18
DOCKED: TORSDOF 5
DOCKED: TER
DOCKED: ENDMDL
________________________________________________________________________________


    FINAL DOCKED STATE:
    ________________________


Run:   20 / 20
Time taken for this run:   0.022s

DOCKED: MODEL        20
DOCKED: USER    Run = 20
DOCKED: USER
DOCKED: USER    Estimated Free Energy of Binding    =  -8.24 kcal/mol  [=(1)+(2)+(3)-(4)]
DOCKED: USER
DOCKED: USER    (1) Final Intermolecular Energy     =  -9.73 kcal/mol
DOCKED: USER        vdW + Hbond + desolv Energy     =  -9.71 kcal/mol
DOCKED: USER        Electrostatic Energy            =  -0.02 kcal/mol
DOCKED: USER        Moving Ligand-Fixed Receptor    =  -9.73 kcal/mol
DOCKED: USER        Moving Ligand-Moving Receptor   =  +0.00 kcal/mol
DOCKED: USER    (2) Final Total Internal Energy     =  -1.56 kcal/mol
DOCKED: USER    (3) Torsional Free Energy           =  +1.49 kcal/mol
DOCKED: USER    (4) Unbound System's Energy         =  -1.56 kcal/mol
DOCKED: USER
DOCKED: USER
DOCKED: REMARK SMILES O=C(NCC(=O)N1CCC[C@H]1c1ccc(Cl)cc1)c1ccc2ccccc2n1
DOCKED: REMARK SMILES IDX 5 1 6 2 4 3 3 4 2 5 1 6 19 8 20 9 28 10 21 11 27 12 22 13
DOCKED: REMARK SMILES IDX 26 14 23 15 25 16 24 17 7 18 8 19 11 20 9 21 10 22 12 23
DOCKED: REMARK SMILES IDX 13 24 18 25 14 26 17 27 15 28 16 29
DOCKED: REMARK H PARENT 3 7
DOCKED: USER                              x       y       z     vdW  Elec       q    Type
DOCKED: USER                           _______ _______ _______ _____ _____    ______ ____
DOCKED: ROOT
DOCKED: ATOM      1  C   UNL     1     142.240  72.169 219.368 -0.06 -0.04    +0.242 C  
DOCKED: ATOM      2  O   UNL     1     142.353  71.546 218.258 -0.01 +0.04    -0.273 OA 
DOCKED: ENDROOT
DOCKED: BRANCH   1   3
DOCKED: ATOM      3  C   UNL     1     140.927  72.330 219.995 -0.07 -0.04    +0.216 C  
DOCKED: BRANCH   3   4
DOCKED: ATOM      4  N   UNL     1     140.822  71.531 221.203 -0.08 +0.05    -0.342 N  
DOCKED: ATOM      5  C   UNL     1     140.364  72.208 222.381 -0.21 -0.03    +0.270 C  
DOCKED: ATOM      6  O   UNL     1     140.065  73.433 222.379 -0.80 +0.02    -0.268 OA 
DOCKED: ATOM      7  H   UNL     1     141.060  70.515 221.248 +0.05 -0.02    +0.164 HD 
DOCKED: BRANCH   5   8
DOCKED: ATOM      8  C   UNL     1     140.249  71.428 223.612 -0.33 -0.02    +0.128 A  
DOCKED: ATOM      9  C   UNL     1     139.660  70.180 223.585 -0.27 -0.01    +0.035 A  
DOCKED: ATOM     10  N   UNL     1     140.709  71.895 224.804 -0.27 +0.03    -0.243 NA 
DOCKED: ATOM     11  C   UNL     1     139.517  69.389 224.709 -0.36 -0.00    +0.013 A  
DOCKED: ATOM     12  C   UNL     1     140.584  71.139 225.929 -0.55 -0.01    +0.071 A  
DOCKED: ATOM     13  C   UNL     1     139.993  69.889 225.900 -0.49 -0.00    +0.000 A  
DOCKED: ATOM     14  C   UNL     1     141.043  71.591 227.149 -0.75 -0.01    +0.029 A  
DOCKED: ATOM     15  C   UNL     1     139.854  69.102 227.030 -0.57 -0.00    +0.010 A  
DOCKED: ATOM     16  C   UNL     1     140.930  70.845 228.312 -0.63 -0.00    +0.002 A  
DOCKED: ATOM     17  C   UNL     1     140.328  69.585 228.255 -0.62 -0.00    +0.001 A  
DOCKED: ENDBRANCH   5   8
DOCKED: ENDBRANCH   3   4
DOCKED: ENDBRANCH   1   3
DOCKED: BRANCH   1  18
DOCKED: ATOM     18  N   UNL     1     143.462  72.668 219.909 -0.09 +0.05    -0.334 N  
DOCKED: ATOM     19  C   UNL     1     144.739  72.004 219.608 -0.27 +0.01    +0.120 C  
DOCKED: ATOM     20  C   UNL     1     143.602  73.778 220.744 -0.24 -0.03    +0.115 C  
DOCKED: ATOM     21  C   UNL     1     145.694  72.656 220.590 -0.50 +0.00    +0.024 C  
DOCKED: ATOM     22  C   UNL     1     145.094  74.001 220.827 -0.52 -0.01    +0.032 C  
DOCKED: BRANCH  20  23
DOCKED: ATOM     23  C   UNL     1     143.022  75.050 220.306 -0.31 +0.01    -0.025 A  
DOCKED: ATOM     24  C   UNL     1     141.816  75.457 220.891 -0.29 -0.00    +0.007 A  
DOCKED: ATOM     25  C   UNL     1     143.607  75.872 219.339 -0.38 -0.00    +0.007 A  
DOCKED: ATOM     26  C   UNL     1     141.209  76.652 220.522 -0.26 -0.01    +0.021 A  
DOCKED: ATOM     27  C   UNL     1     142.998  77.062 218.975 -0.35 -0.01    +0.021 A  
DOCKED: ATOM     28  C   UNL     1     141.807  77.445 219.565 -0.26 -0.02    +0.041 A  
DOCKED: ATOM     29  Cl  UNL     1     141.112  78.973 219.037 -0.24 +0.04    -0.084 Cl 
DOCKED: ENDBRANCH  20  23
DOCKED: ENDBRANCH   1  18
DOCKED: TORSDOF 5
DOCKED: TER
DOCKED: ENDMDL
________________________________________________________________________________


    CLUSTERING HISTOGRAM
    ____________________


________________________________________________________________________________
     |           |     |           |     |
Clus | Lowest    | Run | Mean      | Num | Histogram
-ter | Binding   |     | Binding   | in  |
Rank | Energy    |     | Energy    | Clus|    5    10   15   20   25   30   35
_____|___________|_____|___________|_____|____:____|____:____|____:____|____:___
   1 |     -9.19 |   4 |     -8.80 |   7 |#######
   2 |     -8.46 |  18 |     -8.31 |   9 |#########
   3 |     -8.24 |  20 |     -8.24 |   1 |#
   4 |     -7.57 |   2 |     -7.56 |   2 |##
   5 |     -7.10 |   5 |     -7.10 |   1 |#
_____|___________|_____|___________|_____|______________________________________


    RMSD TABLE
    __________


_______________________________________________________________________
     |      |      |           |         |                 |
Rank | Sub- | Run  | Binding   | Cluster | Reference       | Grep
     | Rank |      | Energy    | RMSD    | RMSD            | Pattern
_____|______|______|___________|_________|_________________|___________
   1      1      4       -9.19      0.00    271.48           RANKING
   1      2     10       -9.18      0.11    271.49           RANKING
   1      3     13       -8.84      0.87    271.36           RANKING
   1      4      9       -8.81      0.86    271.30           RANKING
   1      5     16       -8.58      0.98    271.23           RANKING
   1      6     11       -8.52      1.99    271.37           RANKING
   1      7      3       -8.48      1.02    271.20           RANKING
   2      1     18       -8.46      0.00    270.94           RANKING
   2      2     17       -8.43      0.14    270.94           RANKING
   2      3      1       -8.36      0.16    270.88           RANKING
   2      4     12       -8.35      0.25    270.87           RANKING
   2      5      7       -8.32      0.30    270.88           RANKING
   2      6     15       -8.29      0.29    270.89           RANKING
   2      7     14       -8.23      0.44    270.82           RANKING
   2      8      8       -8.18      1.41    270.78           RANKING
   2      9      6       -8.16      1.48    270.66           RANKING
   3      1     20       -8.24      0.00    270.82           RANKING
   4      1      2       -7.57      0.00    271.02           RANKING
   4      2     19       -7.55      0.15    271.04           RANKING
   5      1      5       -7.10      0.00    270.97           RANKING

Run time 0.395 sec
Idle time 0.000 sec
