AutoDock-GPU version: v1.6

**********************************************************
**    AutoDock-GPU AUTODOCKTOOLS-COMPATIBLE DLG FILE    **
**********************************************************


    DOCKING PARAMETERS
    ________________________


Ligand file:                               /home/a/REINVENT4/ReinventStudies/pleaseWork/justmol2mol_4_Compounds_ontop/graph-dock-hn62wh/graph-DockGPU/node-autodockgpu/inputs/DCCARDAELLDDNW-LIJBUYAINA-N.pdbqt
Grid fld file:                             /home/a/REINVENT4/ReinventStudies/mols/Rad51/maps/rad51_receptor.maps.fld

Random seed:                               42
Number of runs:                            20
Number of energy evaluations:              3119281
Number of generations:                     42000
Size of population:                        150
Rate of crossover:                         80.000000%
Tournament selection probability limit:    60.000000%
Rate of mutation:                          2.000000%
Maximal allowed delta movement:            +/- 6.000000A
Maximal allowed delta angle:               +/- 90.000000

Rate of local search:                      100.000000%
Maximal number of local search iterations: 300
Rho lower bound:                           0.010000
Spread of local search delta movement:     2.000000A
Spread of local search delta angle:        74.999999
Limit of consecutive successes/failures:   4

Handle symmetry during clustering:         YES
RMSD tolerance:                            2.000000A

Program call in command line was:          /home/a/REINVENT4/ReinventStudies/adgpu-v1.6_linux_x64_cuda12_128wi --filelist batch.txt --heuristics 1 --nrun 20 --psize 150 --lsit 300 --seed 42 --heurmax 12000000 


    GRID PARAMETERS
    ________________________


Receptor name:                             rad51_receptor
Number of grid points (x, y, z):           53, 53, 53
Grid center (x, y, z):                     139.950000, 75.640000, 221.970000A
Grid size (x, y, z):                       19.500000, 19.500000, 19.500000A
Grid spacing:                              0.375000A


    LIGAND PARAMETERS
    ________________________


Ligand name:                               /home/a/REINVENT4/ReinventStudies/pleaseWork/justmol2mol_4_Compounds_ontop/graph-dock-hn62wh/graph-DockGPU/node-autodockgpu/inputs/DCCARDAELLDDNW-LIJBUYAINA-N
Number of atoms:                           33
Number of rotatable bonds:                 11
Number of atom types:                      9


    DUMMY DATA (only for ADT-compatibility)
    ________________________


DPF> outlev 1
DPF> ga_run 20
DPF> fld /home/a/REINVENT4/ReinventStudies/mols/Rad51/maps/rad51_receptor.maps.fld
DPF> move /home/a/REINVENT4/ReinventStudies/pleaseWork/justmol2mol_4_Compounds_ontop/graph-dock-hn62wh/graph-DockGPU/node-autodockgpu/inputs/DCCARDAELLDDNW-LIJBUYAINA-N.pdbqt


    COUNTER STATES
    ________________________


Number of energy evaluations performed:    1557949
Number of generations used:                115


    INPUT LIGAND PDBQT FILE:
    ________________________


INPUT-LIGAND-PDBQT: REMARK SMILES O=C(NCC(=O)N1CCCCC[C@H]1c1ccccc1)c1ccc2cc(Cl)ccc2n1
INPUT-LIGAND-PDBQT: REMARK SMILES IDX 5 1 6 2 4 3 3 4 2 5 1 6 20 8 21 9 30 10 22 11 29 12 23 13
INPUT-LIGAND-PDBQT: REMARK SMILES IDX 28 14 24 15 27 16 25 17 26 18 7 19 8 20 9 21 10 22 11 23
INPUT-LIGAND-PDBQT: REMARK SMILES IDX 13 25 12 26 14 28 15 29 19 30 16 31 18 32 17 33
INPUT-LIGAND-PDBQT: REMARK H PARENT 3 7
INPUT-LIGAND-PDBQT: REMARK Flexibility Score:   84.900
INPUT-LIGAND-PDBQT: ROOT
INPUT-LIGAND-PDBQT: ATOM      1  C   UNL     1      -0.545  -0.153  -0.346  1.00  0.00     0.242 C 
INPUT-LIGAND-PDBQT: ATOM      2  O   UNL     1      -0.034  -0.364   0.795  1.00  0.00    -0.273 OA
INPUT-LIGAND-PDBQT: ENDROOT
INPUT-LIGAND-PDBQT: BRANCH   1   3
INPUT-LIGAND-PDBQT: ATOM      3  C   UNL     1       0.298  -0.119  -1.563  1.00  0.00     0.216 C 
INPUT-LIGAND-PDBQT: BRANCH   3   4
INPUT-LIGAND-PDBQT: ATOM      4  N   UNL     1       1.684  -0.354  -1.198  1.00  0.00    -0.342 N 
INPUT-LIGAND-PDBQT: ATOM      5  C   UNL     1       2.306   0.559  -0.292  1.00  0.00     0.270 C 
INPUT-LIGAND-PDBQT: ATOM      6  O   UNL     1       1.668   1.553   0.186  1.00  0.00    -0.268 OA
INPUT-LIGAND-PDBQT: ATOM      7  H   UNL     1       2.205  -1.175  -1.595  1.00  0.00     0.164 HD
INPUT-LIGAND-PDBQT: BRANCH   5   8
INPUT-LIGAND-PDBQT: ATOM      8  C   UNL     1       3.701   0.347   0.094  1.00  0.00     0.128 A 
INPUT-LIGAND-PDBQT: ATOM      9  C   UNL     1       4.314   1.214   0.963  1.00  0.00     0.035 A 
INPUT-LIGAND-PDBQT: ATOM     10  N   UNL     1       4.436  -0.686  -0.375  1.00  0.00    -0.243 NA
INPUT-LIGAND-PDBQT: ATOM     11  C   UNL     1       5.617   1.099   1.384  1.00  0.00     0.013 A 
INPUT-LIGAND-PDBQT: ATOM     12  C   UNL     1       5.724  -0.845   0.008  1.00  0.00     0.071 A 
INPUT-LIGAND-PDBQT: ATOM     13  C   UNL     1       6.338   0.022   0.878  1.00  0.00     0.002 A 
INPUT-LIGAND-PDBQT: ATOM     14  C   UNL     1       6.465  -1.906  -0.479  1.00  0.00     0.030 A 
INPUT-LIGAND-PDBQT: ATOM     15  C   UNL     1       7.646  -0.101   1.294  1.00  0.00     0.030 A 
INPUT-LIGAND-PDBQT: ATOM     16  C   UNL     1       7.777  -2.047  -0.075  1.00  0.00     0.023 A 
INPUT-LIGAND-PDBQT: ATOM     17  C   UNL     1       8.384  -1.161   0.806  1.00  0.00     0.041 A 
INPUT-LIGAND-PDBQT: ATOM     18  Cl  UNL     1      10.046  -1.341   1.318  1.00  0.00    -0.084 Cl
INPUT-LIGAND-PDBQT: ENDBRANCH   5   8
INPUT-LIGAND-PDBQT: ENDBRANCH   3   4
INPUT-LIGAND-PDBQT: ENDBRANCH   1   3
INPUT-LIGAND-PDBQT: BRANCH   1  19
INPUT-LIGAND-PDBQT: ATOM     19  N   UNL     1      -1.944   0.047  -0.414  1.00  0.00    -0.334 N 
INPUT-LIGAND-PDBQT: BRANCH  19  20
INPUT-LIGAND-PDBQT: ATOM     20  C   UNL     1      -2.503   0.289  -1.752  1.00  0.00     0.120 C 
INPUT-LIGAND-PDBQT: BRANCH  20  21
INPUT-LIGAND-PDBQT: ATOM     21  C   UNL     1      -2.794   1.797  -1.727  1.00  0.00     0.022 C 
INPUT-LIGAND-PDBQT: BRANCH  21  22
INPUT-LIGAND-PDBQT: ATOM     22  C   UNL     1      -4.057   1.930  -0.932  1.00  0.00     0.002 C 
INPUT-LIGAND-PDBQT: BRANCH  22  23
INPUT-LIGAND-PDBQT: ATOM     23  C   UNL     1      -3.873   2.238   0.506  1.00  0.00     0.003 CG0
INPUT-LIGAND-PDBQT: ATOM     24  G   UNL     1      -3.106   1.311   1.341  1.00  0.00     0.000 G0
INPUT-LIGAND-PDBQT: ENDBRANCH  22  23
INPUT-LIGAND-PDBQT: ENDBRANCH  21  22
INPUT-LIGAND-PDBQT: ENDBRANCH  20  21
INPUT-LIGAND-PDBQT: ENDBRANCH  19  20
INPUT-LIGAND-PDBQT: BRANCH  19  25
INPUT-LIGAND-PDBQT: ATOM     25  C   UNL     1      -2.698   0.001   0.797  1.00  0.00     0.115 C 
INPUT-LIGAND-PDBQT: BRANCH  25  26
INPUT-LIGAND-PDBQT: ATOM     26  C   UNL     1      -3.106   1.311   1.341  1.00  0.00     0.030 CG0
INPUT-LIGAND-PDBQT: ATOM     27  G   UNL     1      -3.873   2.238   0.506  1.00  0.00     0.000 G0
INPUT-LIGAND-PDBQT: ENDBRANCH  25  26
INPUT-LIGAND-PDBQT: BRANCH  25  28
INPUT-LIGAND-PDBQT: ATOM     28  C   UNL     1      -3.785  -0.994   0.644  1.00  0.00    -0.025 A 
INPUT-LIGAND-PDBQT: ATOM     29  C   UNL     1      -5.088  -0.770   1.039  1.00  0.00     0.006 A 
INPUT-LIGAND-PDBQT: ATOM     30  C   UNL     1      -3.454  -2.204   0.071  1.00  0.00     0.006 A 
INPUT-LIGAND-PDBQT: ATOM     31  C   UNL     1      -6.037  -1.750   0.859  1.00  0.00     0.000 A 
INPUT-LIGAND-PDBQT: ATOM     32  C   UNL     1      -4.392  -3.193  -0.114  1.00  0.00     0.000 A 
INPUT-LIGAND-PDBQT: ATOM     33  C   UNL     1      -5.705  -2.980   0.279  1.00  0.00     0.000 A 
INPUT-LIGAND-PDBQT: ENDBRANCH  25  28
INPUT-LIGAND-PDBQT: ENDBRANCH  19  25
INPUT-LIGAND-PDBQT: ENDBRANCH   1  19
INPUT-LIGAND-PDBQT: TORSDOF 5


    FINAL DOCKED STATE:
    ________________________


Run:   1 / 20
Time taken for this run:   0.075s

DOCKED: MODEL        1
DOCKED: USER    Run = 1
DOCKED: USER
DOCKED: USER    Estimated Free Energy of Binding    =  -5.40 kcal/mol  [=(1)+(2)+(3)-(4)]
DOCKED: USER
DOCKED: USER    (1) Final Intermolecular Energy     =  -8.68 kcal/mol
DOCKED: USER        vdW + Hbond + desolv Energy     =  -8.68 kcal/mol
DOCKED: USER        Electrostatic Energy            =  -0.09 kcal/mol
DOCKED: USER        Moving Ligand-Fixed Receptor    =  -8.77 kcal/mol
DOCKED: USER        Moving Ligand-Moving Receptor   =  +0.09 kcal/mol
DOCKED: USER    (2) Final Total Internal Energy     =  -2.52 kcal/mol
DOCKED: USER    (3) Torsional Free Energy           =  +3.28 kcal/mol
DOCKED: USER    (4) Unbound System's Energy         =  -2.52 kcal/mol
DOCKED: USER
DOCKED: USER
DOCKED: REMARK SMILES O=C(NCC(=O)N1CCCCC[C@H]1c1ccccc1)c1ccc2cc(Cl)ccc2n1
DOCKED: REMARK SMILES IDX 5 1 6 2 4 3 3 4 2 5 1 6 20 8 21 9 30 10 22 11 29 12 23 13
DOCKED: REMARK SMILES IDX 28 14 24 15 27 16 25 17 26 18 7 19 8 20 9 21 10 22 11 23
DOCKED: REMARK SMILES IDX 13 25 12 26 14 28 15 29 19 30 16 31 18 32 17 33
DOCKED: REMARK H PARENT 3 7
DOCKED: REMARK Flexibility Score:   84.900
DOCKED: USER                              x       y       z     vdW  Elec       q    Type
DOCKED: USER                           _______ _______ _______ _____ _____    ______ ____
DOCKED: ROOT
DOCKED: ATOM      1  C   UNL     1     141.262  77.916 220.350 -0.17 -0.12    +0.242 C  
DOCKED: ATOM      2  O   UNL     1     140.293  78.156 219.568 -0.05 +0.10    -0.273 OA 
DOCKED: ENDROOT
DOCKED: BRANCH   1   3
DOCKED: ATOM      3  C   UNL     1     142.127  76.731 220.149 -0.19 -0.13    +0.216 C  
DOCKED: BRANCH   3   4
DOCKED: ATOM      4  N   UNL     1     141.639  75.632 220.963 -0.14 +0.14    -0.342 N  
DOCKED: ATOM      5  C   UNL     1     140.566  74.839 220.451 -0.12 -0.07    +0.270 C  
DOCKED: ATOM      6  O   UNL     1     140.048  75.085 219.313 -0.02 +0.07    -0.268 OA 
DOCKED: ATOM      7  H   UNL     1     142.070  75.434 221.900 -0.42 -0.08    +0.164 HD 
DOCKED: BRANCH   5   8
DOCKED: ATOM      8  C   UNL     1     140.054  73.725 221.248 -0.20 -0.02    +0.128 A  
DOCKED: ATOM      9  C   UNL     1     138.967  73.009 220.813 -0.11 -0.01    +0.035 A  
DOCKED: ATOM     10  N   UNL     1     140.612  73.355 222.423 -0.63 -0.01    -0.243 NA 
DOCKED: ATOM     11  C   UNL     1     138.415  71.949 221.490 -0.12 -0.00    +0.013 A  
DOCKED: ATOM     12  C   UNL     1     140.106  72.318 223.129 -0.27 -0.01    +0.071 A  
DOCKED: ATOM     13  C   UNL     1     139.019  71.601 222.694 -0.25 -0.00    +0.002 A  
DOCKED: ATOM     14  C   UNL     1     140.686  71.950 224.330 -0.23 -0.00    +0.030 A  
DOCKED: ATOM     15  C   UNL     1     138.471  70.539 223.381 -0.24 -0.01    +0.030 A  
DOCKED: ATOM     16  C   UNL     1     140.152  70.890 225.033 -0.49 -0.00    +0.023 A  
DOCKED: ATOM     17  C   UNL     1     139.051  70.174 224.580 -0.34 -0.01    +0.041 A  
DOCKED: ATOM     18  Cl  UNL     1     138.376  68.830 225.471 -0.41 +0.00    -0.084 Cl 
DOCKED: ENDBRANCH   5   8
DOCKED: ENDBRANCH   3   4
DOCKED: ENDBRANCH   1   3
DOCKED: BRANCH   1  19
DOCKED: ATOM     19  N   UNL     1     141.485  78.817 221.417 -0.15 +0.16    -0.334 N  
DOCKED: BRANCH  19  20
DOCKED: ATOM     20  C   UNL     1     142.109  80.101 221.065 -0.25 -0.06    +0.120 C  
DOCKED: BRANCH  20  21
DOCKED: ATOM     21  C   UNL     1     140.979  81.107 221.327 -0.34 -0.01    +0.022 C  
DOCKED: BRANCH  21  22
DOCKED: ATOM     22  C   UNL     1     141.250  81.638 222.702 -0.46 -0.00    +0.002 C  
DOCKED: BRANCH  22  23
DOCKED: ATOM     23  C   UNL     1     140.914  80.719 223.815 -0.44 -0.00    +0.003 CG0
DOCKED: ATOM     24  G   UNL     1     141.467  79.362 223.810 +0.00 +0.00    +0.000 G0 
DOCKED: ENDBRANCH  22  23
DOCKED: ENDBRANCH  21  22
DOCKED: ENDBRANCH  20  21
DOCKED: ENDBRANCH  19  20
DOCKED: BRANCH  19  25
DOCKED: ATOM     25  C   UNL     1     141.097  78.424 222.733 -0.43 -0.04    +0.115 C  
DOCKED: BRANCH  25  26
DOCKED: ATOM     26  C   UNL     1     141.467  79.362 223.811 -0.59 -0.01    +0.030 CG0
DOCKED: ATOM     27  G   UNL     1     140.915  80.719 223.815 +0.00 +0.00    +0.000 G0 
DOCKED: ENDBRANCH  25  26
DOCKED: BRANCH  25  28
DOCKED: ATOM     28  C   UNL     1     139.674  78.010 222.707 -0.34 +0.01    -0.025 A  
DOCKED: ATOM     29  C   UNL     1     138.620  78.899 222.658 -0.27 -0.00    +0.006 A  
DOCKED: ATOM     30  C   UNL     1     139.413  76.657 222.731 -0.23 -0.00    +0.006 A  
DOCKED: ATOM     31  C   UNL     1     137.327  78.429 222.635 -0.21 -0.00    +0.000 A  
DOCKED: ATOM     32  C   UNL     1     138.126  76.172 222.710 -0.30 -0.00    +0.000 A  
DOCKED: ATOM     33  C   UNL     1     137.057  77.055 222.661 -0.24 -0.00    +0.000 A  
DOCKED: ENDBRANCH  25  28
DOCKED: ENDBRANCH  19  25
DOCKED: ENDBRANCH   1  19
DOCKED: TORSDOF 5
DOCKED: TER
DOCKED: ENDMDL
________________________________________________________________________________


    FINAL DOCKED STATE:
    ________________________


Run:   2 / 20
Time taken for this run:   0.075s

DOCKED: MODEL        2
DOCKED: USER    Run = 2
DOCKED: USER
DOCKED: USER    Estimated Free Energy of Binding    =  -5.57 kcal/mol  [=(1)+(2)+(3)-(4)]
DOCKED: USER
DOCKED: USER    (1) Final Intermolecular Energy     =  -8.85 kcal/mol
DOCKED: USER        vdW + Hbond + desolv Energy     =  -9.04 kcal/mol
DOCKED: USER        Electrostatic Energy            =  +0.06 kcal/mol
DOCKED: USER        Moving Ligand-Fixed Receptor    =  -8.98 kcal/mol
DOCKED: USER        Moving Ligand-Moving Receptor   =  +0.13 kcal/mol
DOCKED: USER    (2) Final Total Internal Energy     =  -2.14 kcal/mol
DOCKED: USER    (3) Torsional Free Energy           =  +3.28 kcal/mol
DOCKED: USER    (4) Unbound System's Energy         =  -2.14 kcal/mol
DOCKED: USER
DOCKED: USER
DOCKED: REMARK SMILES O=C(NCC(=O)N1CCCCC[C@H]1c1ccccc1)c1ccc2cc(Cl)ccc2n1
DOCKED: REMARK SMILES IDX 5 1 6 2 4 3 3 4 2 5 1 6 20 8 21 9 30 10 22 11 29 12 23 13
DOCKED: REMARK SMILES IDX 28 14 24 15 27 16 25 17 26 18 7 19 8 20 9 21 10 22 11 23
DOCKED: REMARK SMILES IDX 13 25 12 26 14 28 15 29 19 30 16 31 18 32 17 33
DOCKED: REMARK H PARENT 3 7
DOCKED: REMARK Flexibility Score:   84.900
DOCKED: USER                              x       y       z     vdW  Elec       q    Type
DOCKED: USER                           _______ _______ _______ _____ _____    ______ ____
DOCKED: ROOT
DOCKED: ATOM      1  C   UNL     1     141.193  74.145 219.654 -0.07 -0.06    +0.242 C  
DOCKED: ATOM      2  O   UNL     1     140.919  74.045 218.420 -0.01 +0.07    -0.273 OA 
DOCKED: ENDROOT
DOCKED: BRANCH   1   3
DOCKED: ATOM      3  C   UNL     1     140.168  74.585 220.628 -0.14 -0.05    +0.216 C  
DOCKED: BRANCH   3   4
DOCKED: ATOM      4  N   UNL     1     140.269  73.780 221.833 -0.16 +0.03    -0.342 N  
DOCKED: ATOM      5  C   UNL     1     139.840  72.418 221.771 -0.17 -0.04    +0.270 C  
DOCKED: ATOM      6  O   UNL     1     139.381  71.919 220.692 -0.05 +0.05    -0.268 OA 
DOCKED: ATOM      7  H   UNL     1     140.648  74.197 222.719 +0.07 +0.07    +0.164 HD 
DOCKED: BRANCH   5   8
DOCKED: ATOM      8  C   UNL     1     139.930  71.583 222.968 -0.28 -0.02    +0.128 A  
DOCKED: ATOM      9  C   UNL     1     139.462  70.293 222.945 -0.23 -0.01    +0.035 A  
DOCKED: ATOM     10  N   UNL     1     140.463  72.030 224.127 -0.21 +0.03    -0.243 NA 
DOCKED: ATOM     11  C   UNL     1     139.502  69.433 224.016 -0.28 -0.00    +0.013 A  
DOCKED: ATOM     12  C   UNL     1     140.527  71.223 225.212 -0.50 -0.01    +0.071 A  
DOCKED: ATOM     13  C   UNL     1     140.060  69.932 225.189 -0.44 -0.00    +0.002 A  
DOCKED: ATOM     14  C   UNL     1     141.075  71.692 226.392 -0.68 -0.00    +0.030 A  
DOCKED: ATOM     15  C   UNL     1     140.104  69.077 226.269 -0.51 -0.01    +0.030 A  
DOCKED: ATOM     16  C   UNL     1     141.128  70.852 227.485 -0.62 -0.00    +0.023 A  
DOCKED: ATOM     17  C   UNL     1     140.651  69.548 227.446 -0.57 -0.01    +0.041 A  
DOCKED: ATOM     18  Cl  UNL     1     140.720  68.483 228.831 -0.55 +0.02    -0.084 Cl 
DOCKED: ENDBRANCH   5   8
DOCKED: ENDBRANCH   3   4
DOCKED: ENDBRANCH   1   3
DOCKED: BRANCH   1  19
DOCKED: ATOM     19  N   UNL     1     142.508  73.822 220.065 -0.09 +0.08    -0.334 N  
DOCKED: BRANCH  19  20
DOCKED: ATOM     20  C   UNL     1     142.755  72.414 220.409 -0.21 -0.02    +0.120 C  
DOCKED: BRANCH  20  21
DOCKED: ATOM     21  C   UNL     1     143.641  71.935 219.249 -0.18 -0.00    +0.022 C  
DOCKED: BRANCH  21  22
DOCKED: ATOM     22  C   UNL     1     145.043  72.062 219.761 -0.36 +0.00    +0.002 C  
DOCKED: BRANCH  22  23
DOCKED: ATOM     23  C   UNL     1     145.572  73.445 219.828 -0.49 +0.00    +0.003 CG0
DOCKED: ATOM     24  G   UNL     1     144.823  74.459 220.574 +0.00 +0.00    +0.000 G0 
DOCKED: ENDBRANCH  22  23
DOCKED: ENDBRANCH  21  22
DOCKED: ENDBRANCH  20  21
DOCKED: ENDBRANCH  19  20
DOCKED: BRANCH  19  25
DOCKED: ATOM     25  C   UNL     1     143.482  74.864 220.116 -0.33 -0.05    +0.115 C  
DOCKED: BRANCH  25  26
DOCKED: ATOM     26  C   UNL     1     144.824  74.458 220.575 -0.40 -0.01    +0.030 CG0
DOCKED: ATOM     27  G   UNL     1     145.573  73.445 219.828 +0.00 +0.00    +0.000 G0 
DOCKED: ENDBRANCH  25  26
DOCKED: BRANCH  25  28
DOCKED: ATOM     28  C   UNL     1     143.443  75.614 218.838 -0.30 +0.01    -0.025 A  
DOCKED: ATOM     29  C   UNL     1     143.801  75.071 217.621 -0.17 -0.00    +0.006 A  
DOCKED: ATOM     30  C   UNL     1     143.023  76.927 218.892 -0.35 -0.00    +0.006 A  
DOCKED: ATOM     31  C   UNL     1     143.735  75.839 216.482 -0.21 -0.00    +0.000 A  
DOCKED: ATOM     32  C   UNL     1     142.953  77.707 217.761 -0.30 -0.00    +0.000 A  
DOCKED: ATOM     33  C   UNL     1     143.310  77.172 216.532 -0.25 -0.00    +0.000 A  
DOCKED: ENDBRANCH  25  28
DOCKED: ENDBRANCH  19  25
DOCKED: ENDBRANCH   1  19
DOCKED: TORSDOF 5
DOCKED: TER
DOCKED: ENDMDL
________________________________________________________________________________


    FINAL DOCKED STATE:
    ________________________


Run:   3 / 20
Time taken for this run:   0.075s

DOCKED: MODEL        3
DOCKED: USER    Run = 3
DOCKED: USER
DOCKED: USER    Estimated Free Energy of Binding    =  -5.45 kcal/mol  [=(1)+(2)+(3)-(4)]
DOCKED: USER
DOCKED: USER    (1) Final Intermolecular Energy     =  -8.73 kcal/mol
DOCKED: USER        vdW + Hbond + desolv Energy     =  -8.90 kcal/mol
DOCKED: USER        Electrostatic Energy            =  -0.09 kcal/mol
DOCKED: USER        Moving Ligand-Fixed Receptor    =  -8.99 kcal/mol
DOCKED: USER        Moving Ligand-Moving Receptor   =  +0.26 kcal/mol
DOCKED: USER    (2) Final Total Internal Energy     =  -1.86 kcal/mol
DOCKED: USER    (3) Torsional Free Energy           =  +3.28 kcal/mol
DOCKED: USER    (4) Unbound System's Energy         =  -1.86 kcal/mol
DOCKED: USER
DOCKED: USER
DOCKED: REMARK SMILES O=C(NCC(=O)N1CCCCC[C@H]1c1ccccc1)c1ccc2cc(Cl)ccc2n1
DOCKED: REMARK SMILES IDX 5 1 6 2 4 3 3 4 2 5 1 6 20 8 21 9 30 10 22 11 29 12 23 13
DOCKED: REMARK SMILES IDX 28 14 24 15 27 16 25 17 26 18 7 19 8 20 9 21 10 22 11 23
DOCKED: REMARK SMILES IDX 13 25 12 26 14 28 15 29 19 30 16 31 18 32 17 33
DOCKED: REMARK H PARENT 3 7
DOCKED: REMARK Flexibility Score:   84.900
DOCKED: USER                              x       y       z     vdW  Elec       q    Type
DOCKED: USER                           _______ _______ _______ _____ _____    ______ ____
DOCKED: ROOT
DOCKED: ATOM      1  C   UNL     1     140.270  76.101 221.657 -0.25 -0.06    +0.242 C  
DOCKED: ATOM      2  O   UNL     1     140.477  74.914 222.054 -0.69 +0.02    -0.273 OA 
DOCKED: ENDROOT
DOCKED: BRANCH   1   3
DOCKED: ATOM      3  C   UNL     1     139.011  76.806 221.991 -0.22 -0.05    +0.216 C  
DOCKED: BRANCH   3   4
DOCKED: ATOM      4  N   UNL     1     138.148  75.920 222.752 -0.14 +0.09    -0.342 N  
DOCKED: ATOM      5  C   UNL     1     136.814  76.351 223.025 -0.16 -0.06    +0.270 C  
DOCKED: ATOM      6  O   UNL     1     136.387  77.479 222.614 -0.12 +0.04    -0.268 OA 
DOCKED: ATOM      7  H   UNL     1     138.505  74.991 223.088 -0.50 -0.08    +0.164 HD 
DOCKED: BRANCH   5   8
DOCKED: ATOM      8  C   UNL     1     135.921  75.480 223.790 -0.24 -0.03    +0.128 A  
DOCKED: ATOM      9  C   UNL     1     135.839  74.144 223.487 -0.20 -0.01    +0.035 A  
DOCKED: ATOM     10  N   UNL     1     135.154  75.936 224.804 -0.20 +0.03    -0.243 NA 
DOCKED: ATOM     11  C   UNL     1     135.032  73.248 224.146 -0.22 -0.00    +0.013 A  
DOCKED: ATOM     12  C   UNL     1     134.342  75.095 225.486 -0.34 -0.00    +0.071 A  
DOCKED: ATOM     13  C   UNL     1     134.259  73.758 225.184 -0.30 -0.00    +0.002 A  
DOCKED: ATOM     14  C   UNL     1     133.561  75.574 226.522 -0.38 +0.00    +0.030 A  
DOCKED: ATOM     15  C   UNL     1     133.446  72.866 225.850 -0.29 -0.00    +0.030 A  
DOCKED: ATOM     16  C   UNL     1     132.740  74.698 227.202 -0.38 +0.00    +0.023 A  
DOCKED: ATOM     17  C   UNL     1     132.667  73.347 226.884 -0.38 -0.00    +0.041 A  
DOCKED: ATOM     18  Cl  UNL     1     131.627  72.238 227.747 -0.27 +0.02    -0.084 Cl 
DOCKED: ENDBRANCH   5   8
DOCKED: ENDBRANCH   3   4
DOCKED: ENDBRANCH   1   3
DOCKED: BRANCH   1  19
DOCKED: ATOM     19  N   UNL     1     141.282  76.724 220.889 -0.13 +0.15    -0.334 N  
DOCKED: BRANCH  19  20
DOCKED: ATOM     20  C   UNL     1     141.810  77.992 221.413 -0.13 -0.08    +0.120 C  
DOCKED: BRANCH  20  21
DOCKED: ATOM     21  C   UNL     1     140.885  79.034 220.767 -0.26 -0.01    +0.022 C  
DOCKED: BRANCH  21  22
DOCKED: ATOM     22  C   UNL     1     141.507  79.326 219.436 -0.26 -0.00    +0.002 C  
DOCKED: BRANCH  22  23
DOCKED: ATOM     23  C   UNL     1     141.349  78.264 218.414 -0.19 -0.00    +0.003 CG0
DOCKED: ATOM     24  G   UNL     1     142.073  77.001 218.580 +0.00 +0.00    +0.000 G0 
DOCKED: ENDBRANCH  22  23
DOCKED: ENDBRANCH  21  22
DOCKED: ENDBRANCH  20  21
DOCKED: ENDBRANCH  19  20
DOCKED: BRANCH  19  25
DOCKED: ATOM     25  C   UNL     1     141.708  76.091 219.683 -0.20 -0.05    +0.115 C  
DOCKED: BRANCH  25  26
DOCKED: ATOM     26  C   UNL     1     142.072  77.003 218.581 -0.24 -0.02    +0.030 CG0
DOCKED: ATOM     27  G   UNL     1     141.351  78.266 218.415 +0.00 +0.00    +0.000 G0 
DOCKED: ENDBRANCH  25  26
DOCKED: BRANCH  25  28
DOCKED: ATOM     28  C   UNL     1     142.717  75.059 220.018 -0.31 +0.01    -0.025 A  
DOCKED: ATOM     29  C   UNL     1     144.073  75.308 220.086 -0.41 -0.00    +0.006 A  
DOCKED: ATOM     30  C   UNL     1     142.254  73.786 220.275 -0.25 -0.00    +0.006 A  
DOCKED: ATOM     31  C   UNL     1     144.942  74.291 220.405 -0.51 -0.00    +0.000 A  
DOCKED: ATOM     32  C   UNL     1     143.111  72.759 220.595 -0.30 -0.00    +0.000 A  
DOCKED: ATOM     33  C   UNL     1     144.476  72.997 220.666 -0.45 -0.00    +0.000 A  
DOCKED: ENDBRANCH  25  28
DOCKED: ENDBRANCH  19  25
DOCKED: ENDBRANCH   1  19
DOCKED: TORSDOF 5
DOCKED: TER
DOCKED: ENDMDL
________________________________________________________________________________


    FINAL DOCKED STATE:
    ________________________


Run:   4 / 20
Time taken for this run:   0.075s

DOCKED: MODEL        4
DOCKED: USER    Run = 4
DOCKED: USER
DOCKED: USER    Estimated Free Energy of Binding    =  -4.89 kcal/mol  [=(1)+(2)+(3)-(4)]
DOCKED: USER
DOCKED: USER    (1) Final Intermolecular Energy     =  -8.18 kcal/mol
DOCKED: USER        vdW + Hbond + desolv Energy     =  -8.22 kcal/mol
DOCKED: USER        Electrostatic Energy            =  +0.01 kcal/mol
DOCKED: USER        Moving Ligand-Fixed Receptor    =  -8.21 kcal/mol
DOCKED: USER        Moving Ligand-Moving Receptor   =  +0.04 kcal/mol
DOCKED: USER    (2) Final Total Internal Energy     =  -2.23 kcal/mol
DOCKED: USER    (3) Torsional Free Energy           =  +3.28 kcal/mol
DOCKED: USER    (4) Unbound System's Energy         =  -2.23 kcal/mol
DOCKED: USER
DOCKED: USER
DOCKED: REMARK SMILES O=C(NCC(=O)N1CCCCC[C@H]1c1ccccc1)c1ccc2cc(Cl)ccc2n1
DOCKED: REMARK SMILES IDX 5 1 6 2 4 3 3 4 2 5 1 6 20 8 21 9 30 10 22 11 29 12 23 13
DOCKED: REMARK SMILES IDX 28 14 24 15 27 16 25 17 26 18 7 19 8 20 9 21 10 22 11 23
DOCKED: REMARK SMILES IDX 13 25 12 26 14 28 15 29 19 30 16 31 18 32 17 33
DOCKED: REMARK H PARENT 3 7
DOCKED: REMARK Flexibility Score:   84.900
DOCKED: USER                              x       y       z     vdW  Elec       q    Type
DOCKED: USER                           _______ _______ _______ _____ _____    ______ ____
DOCKED: ROOT
DOCKED: ATOM      1  C   UNL     1     139.991  79.211 220.314 -0.07 -0.08    +0.242 C  
DOCKED: ATOM      2  O   UNL     1     140.051  78.251 219.488 -0.04 +0.09    -0.273 OA 
DOCKED: ENDROOT
DOCKED: BRANCH   1   3
DOCKED: ATOM      3  C   UNL     1     138.807  80.098 220.366 -0.04 -0.05    +0.216 C  
DOCKED: BRANCH   3   4
DOCKED: ATOM      4  N   UNL     1     138.537  80.463 221.746 -0.04 +0.06    -0.342 N  
DOCKED: ATOM      5  C   UNL     1     137.191  80.365 222.217 -0.08 -0.04    +0.270 C  
DOCKED: ATOM      6  O   UNL     1     136.251  79.969 221.454 -0.03 +0.04    -0.268 OA 
DOCKED: ATOM      7  H   UNL     1     139.315  80.789 222.370 +0.07 -0.03    +0.164 HD 
DOCKED: BRANCH   5   8
DOCKED: ATOM      8  C   UNL     1     136.889  80.726 223.602 -0.19 -0.01    +0.128 A  
DOCKED: ATOM      9  C   UNL     1     137.851  81.311 224.386 -0.34 -0.00    +0.035 A  
DOCKED: ATOM     10  N   UNL     1     135.679  80.506 224.163 -0.10 +0.03    -0.243 NA 
DOCKED: ATOM     11  C   UNL     1     137.664  81.685 225.695 -0.34 -0.00    +0.013 A  
DOCKED: ATOM     12  C   UNL     1     135.442  80.855 225.449 -0.19 -0.01    +0.071 A  
DOCKED: ATOM     13  C   UNL     1     136.404  81.441 226.234 -0.42 -0.00    +0.002 A  
DOCKED: ATOM     14  C   UNL     1     134.200  80.624 226.011 -0.18 -0.00    +0.030 A  
DOCKED: ATOM     15  C   UNL     1     136.207  81.812 227.547 -0.48 -0.01    +0.030 A  
DOCKED: ATOM     16  C   UNL     1     133.982  80.988 227.324 -0.21 -0.00    +0.023 A  
DOCKED: ATOM     17  C   UNL     1     134.966  81.580 228.106 -0.34 -0.01    +0.041 A  
DOCKED: ATOM     18  Cl  UNL     1     134.689  82.041 229.769 -0.65 +0.01    -0.084 Cl 
DOCKED: ENDBRANCH   5   8
DOCKED: ENDBRANCH   3   4
DOCKED: ENDBRANCH   1   3
DOCKED: BRANCH   1  19
DOCKED: ATOM     19  N   UNL     1     141.093  79.402 221.182 -0.11 +0.13    -0.334 N  
DOCKED: BRANCH  19  20
DOCKED: ATOM     20  C   UNL     1     141.991  80.519 220.858 -0.27 -0.05    +0.120 C  
DOCKED: BRANCH  20  21
DOCKED: ATOM     21  C   UNL     1     141.313  81.709 221.553 -0.38 -0.00    +0.022 C  
DOCKED: BRANCH  21  22
DOCKED: ATOM     22  C   UNL     1     141.736  81.607 222.986 -0.50 -0.00    +0.002 C  
DOCKED: BRANCH  22  23
DOCKED: ATOM     23  C   UNL     1     141.045  80.563 223.780 -0.47 -0.00    +0.003 CG0
DOCKED: ATOM     24  G   UNL     1     141.430  79.161 223.601 +0.00 +0.00    +0.000 G0 
DOCKED: ENDBRANCH  22  23
DOCKED: ENDBRANCH  21  22
DOCKED: ENDBRANCH  20  21
DOCKED: ENDBRANCH  19  20
DOCKED: BRANCH  19  25
DOCKED: ATOM     25  C   UNL     1     141.250  78.513 222.288 -0.39 -0.05    +0.115 C  
DOCKED: BRANCH  25  26
DOCKED: ATOM     26  C   UNL     1     141.429  79.161 223.602 -0.58 -0.01    +0.030 CG0
DOCKED: ATOM     27  G   UNL     1     141.045  80.563 223.780 +0.00 +0.00    +0.000 G0 
DOCKED: ENDBRANCH  25  26
DOCKED: BRANCH  25  28
DOCKED: ATOM     28  C   UNL     1     140.189  77.481 222.224 -0.37 +0.01    -0.025 A  
DOCKED: ATOM     29  C   UNL     1     138.915  77.661 222.722 -0.30 -0.00    +0.006 A  
DOCKED: ATOM     30  C   UNL     1     140.515  76.280 221.628 -0.35 -0.00    +0.006 A  
DOCKED: ATOM     31  C   UNL     1     137.989  76.648 222.620 -0.30 -0.00    +0.000 A  
DOCKED: ATOM     32  C   UNL     1     139.600  75.259 221.521 -0.29 -0.00    +0.000 A  
DOCKED: ATOM     33  C   UNL     1     138.316  75.428 222.018 -0.26 -0.00    +0.000 A  
DOCKED: ENDBRANCH  25  28
DOCKED: ENDBRANCH  19  25
DOCKED: ENDBRANCH   1  19
DOCKED: TORSDOF 5
DOCKED: TER
DOCKED: ENDMDL
________________________________________________________________________________


    FINAL DOCKED STATE:
    ________________________


Run:   5 / 20
Time taken for this run:   0.075s

DOCKED: MODEL        5
DOCKED: USER    Run = 5
DOCKED: USER
DOCKED: USER    Estimated Free Energy of Binding    =  -4.22 kcal/mol  [=(1)+(2)+(3)-(4)]
DOCKED: USER
DOCKED: USER    (1) Final Intermolecular Energy     =  -7.51 kcal/mol
DOCKED: USER        vdW + Hbond + desolv Energy     =  -8.08 kcal/mol
DOCKED: USER        Electrostatic Energy            =  -0.03 kcal/mol
DOCKED: USER        Moving Ligand-Fixed Receptor    =  -8.11 kcal/mol
DOCKED: USER        Moving Ligand-Moving Receptor   =  +0.61 kcal/mol
DOCKED: USER    (2) Final Total Internal Energy     =  -2.79 kcal/mol
DOCKED: USER    (3) Torsional Free Energy           =  +3.28 kcal/mol
DOCKED: USER    (4) Unbound System's Energy         =  -2.79 kcal/mol
DOCKED: USER
DOCKED: USER
DOCKED: REMARK SMILES O=C(NCC(=O)N1CCCCC[C@H]1c1ccccc1)c1ccc2cc(Cl)ccc2n1
DOCKED: REMARK SMILES IDX 5 1 6 2 4 3 3 4 2 5 1 6 20 8 21 9 30 10 22 11 29 12 23 13
DOCKED: REMARK SMILES IDX 28 14 24 15 27 16 25 17 26 18 7 19 8 20 9 21 10 22 11 23
DOCKED: REMARK SMILES IDX 13 25 12 26 14 28 15 29 19 30 16 31 18 32 17 33
DOCKED: REMARK H PARENT 3 7
DOCKED: REMARK Flexibility Score:   84.900
DOCKED: USER                              x       y       z     vdW  Elec       q    Type
DOCKED: USER                           _______ _______ _______ _____ _____    ______ ____
DOCKED: ROOT
DOCKED: ATOM      1  C   UNL     1     137.819  80.678 221.470 -0.06 -0.04    +0.242 C  
DOCKED: ATOM      2  O   UNL     1     138.441  81.715 221.090 -0.05 +0.05    -0.273 OA 
DOCKED: ENDROOT
DOCKED: BRANCH   1   3
DOCKED: ATOM      3  C   UNL     1     137.435  79.623 220.504 -0.03 -0.04    +0.216 C  
DOCKED: BRANCH   3   4
DOCKED: ATOM      4  N   UNL     1     138.530  78.682 220.354 -0.00 +0.08    -0.342 N  
DOCKED: ATOM      5  C   UNL     1     138.633  77.613 221.297 -0.09 -0.06    +0.270 C  
DOCKED: ATOM      6  O   UNL     1     137.790  77.484 222.244 -0.14 +0.05    -0.268 OA 
DOCKED: ATOM      7  H   UNL     1     139.222  78.793 219.572 +0.04 -0.05    +0.164 HD 
DOCKED: BRANCH   5   8
DOCKED: ATOM      8  C   UNL     1     139.726  76.649 221.171 -0.18 -0.03    +0.128 A  
DOCKED: ATOM      9  C   UNL     1     139.597  75.389 221.698 -0.29 -0.01    +0.035 A  
DOCKED: ATOM     10  N   UNL     1     140.888  76.945 220.546 -0.12 +0.10    -0.243 NA 
DOCKED: ATOM     11  C   UNL     1     140.565  74.416 221.630 -0.31 -0.00    +0.013 A  
DOCKED: ATOM     12  C   UNL     1     141.874  76.023 220.452 -0.25 -0.03    +0.071 A  
DOCKED: ATOM     13  C   UNL     1     141.745  74.761 220.978 -0.30 -0.00    +0.002 A  
DOCKED: ATOM     14  C   UNL     1     143.057  76.338 219.810 -0.34 -0.02    +0.030 A  
DOCKED: ATOM     15  C   UNL     1     142.722  73.792 220.907 -0.20 -0.01    +0.030 A  
DOCKED: ATOM     16  C   UNL     1     144.049  75.382 219.727 -0.35 -0.01    +0.023 A  
DOCKED: ATOM     17  C   UNL     1     143.903  74.110 220.265 -0.39 -0.01    +0.041 A  
DOCKED: ATOM     18  Cl  UNL     1     145.159  72.899 220.159 -0.63 +0.00    -0.084 Cl 
DOCKED: ENDBRANCH   5   8
DOCKED: ENDBRANCH   3   4
DOCKED: ENDBRANCH   1   3
DOCKED: BRANCH   1  19
DOCKED: ATOM     19  N   UNL     1     137.508  80.564 222.846 -0.08 +0.04    -0.334 N  
DOCKED: BRANCH  19  20
DOCKED: ATOM     20  C   UNL     1     136.221  79.931 223.172 -0.14 -0.02    +0.120 C  
DOCKED: BRANCH  20  21
DOCKED: ATOM     21  C   UNL     1     135.357  81.128 223.598 -0.12 -0.00    +0.022 C  
DOCKED: BRANCH  21  22
DOCKED: ATOM     22  C   UNL     1     135.475  81.174 225.091 -0.23 -0.00    +0.002 C  
DOCKED: BRANCH  22  23
DOCKED: ATOM     23  C   UNL     1     136.768  81.677 225.610 -0.41 -0.00    +0.003 CG0
DOCKED: ATOM     24  G   UNL     1     138.008  81.014 225.199 +0.00 +0.00    +0.000 G0 
DOCKED: ENDBRANCH  22  23
DOCKED: ENDBRANCH  21  22
DOCKED: ENDBRANCH  20  21
DOCKED: ENDBRANCH  19  20
DOCKED: BRANCH  19  25
DOCKED: ATOM     25  C   UNL     1     138.445  81.062 223.800 -0.29 -0.01    +0.115 C  
DOCKED: BRANCH  25  26
DOCKED: ATOM     26  C   UNL     1     138.008  81.007 225.208 -0.15 -0.00    +0.030 CG0
DOCKED: ATOM     27  G   UNL     1     136.768  81.676 225.611 +0.00 +0.00    +0.000 G0 
DOCKED: ENDBRANCH  25  26
DOCKED: BRANCH  25  28
DOCKED: ATOM     28  C   UNL     1     139.772  80.465 223.519 -0.41 +0.00    -0.025 A  
DOCKED: ATOM     29  C   UNL     1     140.085  79.144 223.767 -0.39 -0.00    +0.006 A  
DOCKED: ATOM     30  C   UNL     1     140.733  81.294 222.979 -0.42 -0.00    +0.006 A  
DOCKED: ATOM     31  C   UNL     1     141.344  78.671 223.476 -0.58 -0.00    +0.000 A  
DOCKED: ATOM     32  C   UNL     1     141.996  80.835 222.683 -0.56 -0.00    +0.000 A  
DOCKED: ATOM     33  C   UNL     1     142.322  79.509 222.928 -0.61 -0.00    +0.000 A  
DOCKED: ENDBRANCH  25  28
DOCKED: ENDBRANCH  19  25
DOCKED: ENDBRANCH   1  19
DOCKED: TORSDOF 5
DOCKED: TER
DOCKED: ENDMDL
________________________________________________________________________________


    FINAL DOCKED STATE:
    ________________________


Run:   6 / 20
Time taken for this run:   0.075s

DOCKED: MODEL        6
DOCKED: USER    Run = 6
DOCKED: USER
DOCKED: USER    Estimated Free Energy of Binding    =  -4.67 kcal/mol  [=(1)+(2)+(3)-(4)]
DOCKED: USER
DOCKED: USER    (1) Final Intermolecular Energy     =  -7.95 kcal/mol
DOCKED: USER        vdW + Hbond + desolv Energy     =  -8.24 kcal/mol
DOCKED: USER        Electrostatic Energy            =  +0.00 kcal/mol
DOCKED: USER        Moving Ligand-Fixed Receptor    =  -8.24 kcal/mol
DOCKED: USER        Moving Ligand-Moving Receptor   =  +0.28 kcal/mol
DOCKED: USER    (2) Final Total Internal Energy     =  -2.69 kcal/mol
DOCKED: USER    (3) Torsional Free Energy           =  +3.28 kcal/mol
DOCKED: USER    (4) Unbound System's Energy         =  -2.69 kcal/mol
DOCKED: USER
DOCKED: USER
DOCKED: REMARK SMILES O=C(NCC(=O)N1CCCCC[C@H]1c1ccccc1)c1ccc2cc(Cl)ccc2n1
DOCKED: REMARK SMILES IDX 5 1 6 2 4 3 3 4 2 5 1 6 20 8 21 9 30 10 22 11 29 12 23 13
DOCKED: REMARK SMILES IDX 28 14 24 15 27 16 25 17 26 18 7 19 8 20 9 21 10 22 11 23
DOCKED: REMARK SMILES IDX 13 25 12 26 14 28 15 29 19 30 16 31 18 32 17 33
DOCKED: REMARK H PARENT 3 7
DOCKED: REMARK Flexibility Score:   84.900
DOCKED: USER                              x       y       z     vdW  Elec       q    Type
DOCKED: USER                           _______ _______ _______ _____ _____    ______ ____
DOCKED: ROOT
DOCKED: ATOM      1  C   UNL     1     138.350  80.062 221.387 -0.07 -0.05    +0.242 C  
DOCKED: ATOM      2  O   UNL     1     138.984  80.346 220.326 -0.03 +0.06    -0.273 OA 
DOCKED: ENDROOT
DOCKED: BRANCH   1   3
DOCKED: ATOM      3  C   UNL     1     137.952  78.668 221.687 -0.10 -0.04    +0.216 C  
DOCKED: BRANCH   3   4
DOCKED: ATOM      4  N   UNL     1     139.035  77.768 221.329 -0.05 +0.08    -0.342 N  
DOCKED: ATOM      5  C   UNL     1     139.077  76.484 221.953 -0.20 -0.06    +0.270 C  
DOCKED: ATOM      6  O   UNL     1     138.193  76.131 222.799 -0.25 +0.06    -0.268 OA 
DOCKED: ATOM      7  H   UNL     1     139.761  78.064 220.630 +0.06 -0.05    +0.164 HD 
DOCKED: BRANCH   5   8
DOCKED: ATOM      8  C   UNL     1     140.156  75.557 221.611 -0.28 -0.03    +0.128 A  
DOCKED: ATOM      9  C   UNL     1     140.034  74.221 221.902 -0.25 -0.00    +0.035 A  
DOCKED: ATOM     10  N   UNL     1     141.297  75.959 221.009 -0.19 +0.10    -0.243 NA 
DOCKED: ATOM     11  C   UNL     1     140.990  73.275 221.621 -0.29 -0.00    +0.013 A  
DOCKED: ATOM     12  C   UNL     1     142.271  75.068 220.711 -0.25 -0.03    +0.071 A  
DOCKED: ATOM     13  C   UNL     1     142.149  73.731 221.001 -0.23 -0.00    +0.002 A  
DOCKED: ATOM     14  C   UNL     1     143.433  75.493 220.095 -0.34 -0.02    +0.030 A  
DOCKED: ATOM     15  C   UNL     1     143.114  72.789 220.716 -0.28 -0.00    +0.030 A  
DOCKED: ATOM     16  C   UNL     1     144.412  74.566 219.801 -0.37 -0.01    +0.023 A  
DOCKED: ATOM     17  C   UNL     1     144.274  73.216 220.101 -0.37 -0.01    +0.041 A  
DOCKED: ATOM     18  Cl  UNL     1     145.514  72.042 219.728 -0.46 -0.03    -0.084 Cl 
DOCKED: ENDBRANCH   5   8
DOCKED: ENDBRANCH   3   4
DOCKED: ENDBRANCH   1   3
DOCKED: BRANCH   1  19
DOCKED: ATOM     19  N   UNL     1     138.040  81.122 222.272 -0.06 +0.05    -0.334 N  
DOCKED: BRANCH  19  20
DOCKED: ATOM     20  C   UNL     1     136.948  82.016 221.859 -0.08 -0.02    +0.120 C  
DOCKED: BRANCH  20  21
DOCKED: ATOM     21  C   UNL     1     135.704  81.304 222.413 -0.07 -0.00    +0.022 C  
DOCKED: BRANCH  21  22
DOCKED: ATOM     22  C   UNL     1     135.744  81.557 223.889 -0.16 -0.00    +0.002 C  
DOCKED: BRANCH  22  23
DOCKED: ATOM     23  C   UNL     1     136.626  80.654 224.665 -0.27 -0.00    +0.003 CG0
DOCKED: ATOM     24  G   UNL     1     138.063  80.932 224.715 +0.00 +0.00    +0.000 G0 
DOCKED: ENDBRANCH  22  23
DOCKED: ENDBRANCH  21  22
DOCKED: ENDBRANCH  20  21
DOCKED: ENDBRANCH  19  20
DOCKED: BRANCH  19  25
DOCKED: ATOM     25  C   UNL     1     138.795  81.247 223.477 -0.23 -0.01    +0.115 C  
DOCKED: BRANCH  25  26
DOCKED: ATOM     26  C   UNL     1     138.063  80.932 224.719 -0.36 -0.00    +0.030 CG0
DOCKED: ATOM     27  G   UNL     1     136.626  80.654 224.666 +0.00 +0.00    +0.000 G0 
DOCKED: ENDBRANCH  25  26
DOCKED: BRANCH  25  28
DOCKED: ATOM     28  C   UNL     1     140.089  80.548 223.302 -0.41 +0.00    -0.025 A  
DOCKED: ATOM     29  C   UNL     1     140.359  79.297 223.819 -0.46 -0.00    +0.006 A  
DOCKED: ATOM     30  C   UNL     1     141.065  81.201 222.579 -0.44 -0.00    +0.006 A  
DOCKED: ATOM     31  C   UNL     1     141.590  78.719 223.609 -0.60 -0.00    +0.000 A  
DOCKED: ATOM     32  C   UNL     1     142.300  80.636 222.362 -0.55 -0.00    +0.000 A  
DOCKED: ATOM     33  C   UNL     1     142.583  79.379 222.876 -0.60 -0.00    +0.000 A  
DOCKED: ENDBRANCH  25  28
DOCKED: ENDBRANCH  19  25
DOCKED: ENDBRANCH   1  19
DOCKED: TORSDOF 5
DOCKED: TER
DOCKED: ENDMDL
________________________________________________________________________________


    FINAL DOCKED STATE:
    ________________________


Run:   7 / 20
Time taken for this run:   0.075s

DOCKED: MODEL        7
DOCKED: USER    Run = 7
DOCKED: USER
DOCKED: USER    Estimated Free Energy of Binding    =  -7.04 kcal/mol  [=(1)+(2)+(3)-(4)]
DOCKED: USER
DOCKED: USER    (1) Final Intermolecular Energy     = -10.32 kcal/mol
DOCKED: USER        vdW + Hbond + desolv Energy     = -10.52 kcal/mol
DOCKED: USER        Electrostatic Energy            =  -0.06 kcal/mol
DOCKED: USER        Moving Ligand-Fixed Receptor    = -10.58 kcal/mol
DOCKED: USER        Moving Ligand-Moving Receptor   =  +0.26 kcal/mol
DOCKED: USER    (2) Final Total Internal Energy     =  -1.55 kcal/mol
DOCKED: USER    (3) Torsional Free Energy           =  +3.28 kcal/mol
DOCKED: USER    (4) Unbound System's Energy         =  -1.55 kcal/mol
DOCKED: USER
DOCKED: USER
DOCKED: REMARK SMILES O=C(NCC(=O)N1CCCCC[C@H]1c1ccccc1)c1ccc2cc(Cl)ccc2n1
DOCKED: REMARK SMILES IDX 5 1 6 2 4 3 3 4 2 5 1 6 20 8 21 9 30 10 22 11 29 12 23 13
DOCKED: REMARK SMILES IDX 28 14 24 15 27 16 25 17 26 18 7 19 8 20 9 21 10 22 11 23
DOCKED: REMARK SMILES IDX 13 25 12 26 14 28 15 29 19 30 16 31 18 32 17 33
DOCKED: REMARK H PARENT 3 7
DOCKED: REMARK Flexibility Score:   84.900
DOCKED: USER                              x       y       z     vdW  Elec       q    Type
DOCKED: USER                           _______ _______ _______ _____ _____    ______ ____
DOCKED: ROOT
DOCKED: ATOM      1  C   UNL     1     139.632  76.451 221.482 -0.19 -0.06    +0.242 C  
DOCKED: ATOM      2  O   UNL     1     139.200  76.717 222.644 -0.26 +0.05    -0.273 OA 
DOCKED: ENDROOT
DOCKED: BRANCH   1   3
DOCKED: ATOM      3  C   UNL     1     139.735  75.051 221.010 -0.16 -0.05    +0.216 C  
DOCKED: BRANCH   3   4
DOCKED: ATOM      4  N   UNL     1     139.689  74.152 222.150 -0.11 +0.04    -0.342 N  
DOCKED: ATOM      5  C   UNL     1     140.194  72.826 221.983 -0.20 -0.03    +0.270 C  
DOCKED: ATOM      6  O   UNL     1     140.672  72.437 220.867 -0.11 +0.04    -0.268 OA 
DOCKED: ATOM      7  H   UNL     1     139.294  74.478 223.067 -0.54 -0.04    +0.164 HD 
DOCKED: BRANCH   5   8
DOCKED: ATOM      8  C   UNL     1     140.162  71.898 223.114 -0.30 -0.02    +0.128 A  
DOCKED: ATOM      9  C   UNL     1     139.627  70.644 222.960 -0.25 -0.01    +0.035 A  
DOCKED: ATOM     10  N   UNL     1     140.644  72.223 224.334 -0.04 +0.03    -0.243 NA 
DOCKED: ATOM     11  C   UNL     1     139.552  69.705 223.960 -0.29 -0.00    +0.013 A  
DOCKED: ATOM     12  C   UNL     1     140.594  71.335 225.353 -0.51 -0.01    +0.071 A  
DOCKED: ATOM     13  C   UNL     1     140.059  70.079 225.200 -0.45 -0.00    +0.002 A  
DOCKED: ATOM     14  C   UNL     1     141.090  71.680 226.597 -0.71 -0.00    +0.030 A  
DOCKED: ATOM     15  C   UNL     1     139.987  69.144 226.210 -0.50 -0.00    +0.030 A  
DOCKED: ATOM     16  C   UNL     1     141.028  70.757 227.622 -0.65 -0.00    +0.023 A  
DOCKED: ATOM     17  C   UNL     1     140.484  69.491 227.451 -0.57 -0.01    +0.041 A  
DOCKED: ATOM     18  Cl  UNL     1     140.405  68.323 228.749 -0.53 +0.02    -0.084 Cl 
DOCKED: ENDBRANCH   5   8
DOCKED: ENDBRANCH   3   4
DOCKED: ENDBRANCH   1   3
DOCKED: BRANCH   1  19
DOCKED: ATOM     19  N   UNL     1     140.011  77.535 220.656 -0.04 +0.10    -0.334 N  
DOCKED: BRANCH  19  20
DOCKED: ATOM     20  C   UNL     1     138.935  78.170 219.881 -0.05 -0.03    +0.120 C  
DOCKED: BRANCH  20  21
DOCKED: ATOM     21  C   UNL     1     139.164  79.665 220.151 -0.09 -0.01    +0.022 C  
DOCKED: BRANCH  21  22
DOCKED: ATOM     22  C   UNL     1     139.936  80.154 218.964 -0.09 -0.00    +0.002 C  
DOCKED: BRANCH  22  23
DOCKED: ATOM     23  C   UNL     1     141.390  79.873 218.992 -0.24 -0.00    +0.003 CG0
DOCKED: ATOM     24  G   UNL     1     141.851  78.535 219.369 +0.00 +0.00    +0.000 G0 
DOCKED: ENDBRANCH  22  23
DOCKED: ENDBRANCH  21  22
DOCKED: ENDBRANCH  20  21
DOCKED: ENDBRANCH  19  20
DOCKED: BRANCH  19  25
DOCKED: ATOM     25  C   UNL     1     141.383  77.927 220.633 -0.26 -0.06    +0.115 C  
DOCKED: BRANCH  25  26
DOCKED: ATOM     26  C   UNL     1     141.849  78.533 219.370 -0.27 -0.02    +0.030 CG0
DOCKED: ATOM     27  G   UNL     1     141.390  79.871 218.993 +0.00 +0.00    +0.000 G0 
DOCKED: ENDBRANCH  25  26
DOCKED: BRANCH  25  28
DOCKED: ATOM     28  C   UNL     1     141.678  78.702 221.861 -0.41 +0.01    -0.025 A  
DOCKED: ATOM     29  C   UNL     1     141.461  78.225 223.137 -0.53 -0.00    +0.006 A  
DOCKED: ATOM     30  C   UNL     1     142.198  79.969 221.695 -0.46 -0.00    +0.006 A  
DOCKED: ATOM     31  C   UNL     1     141.764  79.012 224.224 -0.57 -0.00    +0.000 A  
DOCKED: ATOM     32  C   UNL     1     142.505  80.767 222.773 -0.59 -0.00    +0.000 A  
DOCKED: ATOM     33  C   UNL     1     142.291  80.298 224.061 -0.56 -0.00    +0.000 A  
DOCKED: ENDBRANCH  25  28
DOCKED: ENDBRANCH  19  25
DOCKED: ENDBRANCH   1  19
DOCKED: TORSDOF 5
DOCKED: TER
DOCKED: ENDMDL
________________________________________________________________________________


    FINAL DOCKED STATE:
    ________________________


Run:   8 / 20
Time taken for this run:   0.075s

DOCKED: MODEL        8
DOCKED: USER    Run = 8
DOCKED: USER
DOCKED: USER    Estimated Free Energy of Binding    =  -6.13 kcal/mol  [=(1)+(2)+(3)-(4)]
DOCKED: USER
DOCKED: USER    (1) Final Intermolecular Energy     =  -9.41 kcal/mol
DOCKED: USER        vdW + Hbond + desolv Energy     =  -9.58 kcal/mol
DOCKED: USER        Electrostatic Energy            =  -0.07 kcal/mol
DOCKED: USER        Moving Ligand-Fixed Receptor    =  -9.65 kcal/mol
DOCKED: USER        Moving Ligand-Moving Receptor   =  +0.24 kcal/mol
DOCKED: USER    (2) Final Total Internal Energy     =  -1.55 kcal/mol
DOCKED: USER    (3) Torsional Free Energy           =  +3.28 kcal/mol
DOCKED: USER    (4) Unbound System's Energy         =  -1.55 kcal/mol
DOCKED: USER
DOCKED: USER
DOCKED: REMARK SMILES O=C(NCC(=O)N1CCCCC[C@H]1c1ccccc1)c1ccc2cc(Cl)ccc2n1
DOCKED: REMARK SMILES IDX 5 1 6 2 4 3 3 4 2 5 1 6 20 8 21 9 30 10 22 11 29 12 23 13
DOCKED: REMARK SMILES IDX 28 14 24 15 27 16 25 17 26 18 7 19 8 20 9 21 10 22 11 23
DOCKED: REMARK SMILES IDX 13 25 12 26 14 28 15 29 19 30 16 31 18 32 17 33
DOCKED: REMARK H PARENT 3 7
DOCKED: REMARK Flexibility Score:   84.900
DOCKED: USER                              x       y       z     vdW  Elec       q    Type
DOCKED: USER                           _______ _______ _______ _____ _____    ______ ____
DOCKED: ROOT
DOCKED: ATOM      1  C   UNL     1     136.415  70.152 224.651 -0.09 -0.02    +0.242 C  
DOCKED: ATOM      2  O   UNL     1     136.004  69.633 225.732 -0.09 +0.01    -0.273 OA 
DOCKED: ENDROOT
DOCKED: BRANCH   1   3
DOCKED: ATOM      3  C   UNL     1     135.479  70.840 223.733 -0.10 -0.03    +0.216 C  
DOCKED: BRANCH   3   4
DOCKED: ATOM      4  N   UNL     1     134.928  72.012 224.392 -0.07 +0.04    -0.342 N  
DOCKED: ATOM      5  C   UNL     1     133.977  71.810 225.439 -0.15 -0.02    +0.270 C  
DOCKED: ATOM      6  O   UNL     1     133.619  70.639 225.789 -0.18 +0.02    -0.268 OA 
DOCKED: ATOM      7  H   UNL     1     135.228  72.975 224.099 +0.03 -0.03    +0.164 HD 
DOCKED: BRANCH   5   8
DOCKED: ATOM      8  C   UNL     1     133.406  72.971 226.121 -0.27 -0.00    +0.128 A  
DOCKED: ATOM      9  C   UNL     1     132.266  72.836 226.873 -0.37 -0.00    +0.035 A  
DOCKED: ATOM     10  N   UNL     1     133.958  74.203 226.046 -0.66 -0.01    -0.243 NA 
DOCKED: ATOM     11  C   UNL     1     131.656  73.864 227.550 -0.41 -0.00    +0.013 A  
DOCKED: ATOM     12  C   UNL     1     133.396  75.250 226.693 -0.34 +0.00    +0.071 A  
DOCKED: ATOM     13  C   UNL     1     132.256  75.115 227.446 -0.40 -0.00    +0.002 A  
DOCKED: ATOM     14  C   UNL     1     133.971  76.505 226.608 -0.31 -0.00    +0.030 A  
DOCKED: ATOM     15  C   UNL     1     131.651  76.153 228.121 -0.30 +0.00    +0.030 A  
DOCKED: ATOM     16  C   UNL     1     133.380  77.558 227.276 -0.31 -0.00    +0.023 A  
DOCKED: ATOM     17  C   UNL     1     132.226  77.405 228.034 -0.31 +0.00    +0.041 A  
DOCKED: ATOM     18  Cl  UNL     1     131.478  78.740 228.880 -0.27 -0.03    -0.084 Cl 
DOCKED: ENDBRANCH   5   8
DOCKED: ENDBRANCH   3   4
DOCKED: ENDBRANCH   1   3
DOCKED: BRANCH   1  19
DOCKED: ATOM     19  N   UNL     1     137.795  70.052 224.356 -0.12 +0.05    -0.334 N  
DOCKED: BRANCH  19  20
DOCKED: ATOM     20  C   UNL     1     138.270  70.818 223.195 -0.20 -0.03    +0.120 C  
DOCKED: BRANCH  20  21
DOCKED: ATOM     21  C   UNL     1     138.008  69.856 222.027 -0.12 -0.00    +0.022 C  
DOCKED: BRANCH  21  22
DOCKED: ATOM     22  C   UNL     1     139.105  68.840 222.114 -0.17 -0.00    +0.002 C  
DOCKED: BRANCH  22  23
DOCKED: ATOM     23  C   UNL     1     138.905  67.775 223.125 -0.20 -0.00    +0.003 CG0
DOCKED: ATOM     24  G   UNL     1     139.216  68.057 224.528 +0.00 +0.00    +0.000 G0 
DOCKED: ENDBRANCH  22  23
DOCKED: ENDBRANCH  21  22
DOCKED: ENDBRANCH  20  21
DOCKED: ENDBRANCH  19  20
DOCKED: BRANCH  19  25
DOCKED: ATOM     25  C   UNL     1     138.611  69.229 225.189 -0.33 -0.01    +0.115 C  
DOCKED: BRANCH  25  26
DOCKED: ATOM     26  C   UNL     1     139.214  68.055 224.527 -0.29 -0.00    +0.030 CG0
DOCKED: ATOM     27  G   UNL     1     138.904  67.773 223.124 +0.00 +0.00    +0.000 G0 
DOCKED: ENDBRANCH  25  26
DOCKED: BRANCH  25  28
DOCKED: ATOM     28  C   UNL     1     139.553  70.094 225.937 -0.43 +0.00    -0.025 A  
DOCKED: ATOM     29  C   UNL     1     140.384  71.018 225.337 -0.54 -0.00    +0.006 A  
DOCKED: ATOM     30  C   UNL     1     139.583  69.953 227.309 -0.52 -0.00    +0.006 A  
DOCKED: ATOM     31  C   UNL     1     141.229  71.783 226.109 -0.64 -0.00    +0.000 A  
DOCKED: ATOM     32  C   UNL     1     140.423  70.710 228.092 -0.67 -0.00    +0.000 A  
DOCKED: ATOM     33  C   UNL     1     141.263  71.642 227.501 -0.75 -0.00    +0.000 A  
DOCKED: ENDBRANCH  25  28
DOCKED: ENDBRANCH  19  25
DOCKED: ENDBRANCH   1  19
DOCKED: TORSDOF 5
DOCKED: TER
DOCKED: ENDMDL
________________________________________________________________________________


    FINAL DOCKED STATE:
    ________________________


Run:   9 / 20
Time taken for this run:   0.075s

DOCKED: MODEL        9
DOCKED: USER    Run = 9
DOCKED: USER
DOCKED: USER    Estimated Free Energy of Binding    =  -5.94 kcal/mol  [=(1)+(2)+(3)-(4)]
DOCKED: USER
DOCKED: USER    (1) Final Intermolecular Energy     =  -9.22 kcal/mol
DOCKED: USER        vdW + Hbond + desolv Energy     = -10.46 kcal/mol
DOCKED: USER        Electrostatic Energy            =  -0.05 kcal/mol
DOCKED: USER        Moving Ligand-Fixed Receptor    = -10.51 kcal/mol
DOCKED: USER        Moving Ligand-Moving Receptor   =  +1.29 kcal/mol
DOCKED: USER    (2) Final Total Internal Energy     =  -1.95 kcal/mol
DOCKED: USER    (3) Torsional Free Energy           =  +3.28 kcal/mol
DOCKED: USER    (4) Unbound System's Energy         =  -1.95 kcal/mol
DOCKED: USER
DOCKED: USER
DOCKED: REMARK SMILES O=C(NCC(=O)N1CCCCC[C@H]1c1ccccc1)c1ccc2cc(Cl)ccc2n1
DOCKED: REMARK SMILES IDX 5 1 6 2 4 3 3 4 2 5 1 6 20 8 21 9 30 10 22 11 29 12 23 13
DOCKED: REMARK SMILES IDX 28 14 24 15 27 16 25 17 26 18 7 19 8 20 9 21 10 22 11 23
DOCKED: REMARK SMILES IDX 13 25 12 26 14 28 15 29 19 30 16 31 18 32 17 33
DOCKED: REMARK H PARENT 3 7
DOCKED: REMARK Flexibility Score:   84.900
DOCKED: USER                              x       y       z     vdW  Elec       q    Type
DOCKED: USER                           _______ _______ _______ _____ _____    ______ ____
DOCKED: ROOT
DOCKED: ATOM      1  C   UNL     1     139.556  76.375 221.543 -0.20 -0.06    +0.242 C  
DOCKED: ATOM      2  O   UNL     1     139.017  76.641 222.660 -0.26 +0.05    -0.273 OA 
DOCKED: ENDROOT
DOCKED: BRANCH   1   3
DOCKED: ATOM      3  C   UNL     1     139.664  74.978 221.063 -0.17 -0.05    +0.216 C  
DOCKED: BRANCH   3   4
DOCKED: ATOM      4  N   UNL     1     139.680  74.076 222.201 -0.10 +0.04    -0.342 N  
DOCKED: ATOM      5  C   UNL     1     140.060  72.717 221.977 -0.20 -0.04    +0.270 C  
DOCKED: ATOM      6  O   UNL     1     140.377  72.302 220.815 -0.09 +0.04    -0.268 OA 
DOCKED: ATOM      7  H   UNL     1     139.417  74.423 223.157 -0.52 -0.03    +0.164 HD 
DOCKED: BRANCH   5   8
DOCKED: ATOM      8  C   UNL     1     140.085  71.785 223.105 -0.30 -0.02    +0.128 A  
DOCKED: ATOM      9  C   UNL     1     139.599  70.511 222.955 -0.24 -0.01    +0.035 A  
DOCKED: ATOM     10  N   UNL     1     140.576  72.125 224.317 -0.11 +0.03    -0.243 NA 
DOCKED: ATOM     11  C   UNL     1     139.580  69.566 223.953 -0.27 -0.00    +0.013 A  
DOCKED: ATOM     12  C   UNL     1     140.581  71.231 225.334 -0.51 -0.01    +0.071 A  
DOCKED: ATOM     13  C   UNL     1     140.094  69.956 225.185 -0.44 -0.00    +0.002 A  
DOCKED: ATOM     14  C   UNL     1     141.086  71.591 226.569 -0.70 -0.00    +0.030 A  
DOCKED: ATOM     15  C   UNL     1     140.079  69.015 226.192 -0.51 -0.01    +0.030 A  
DOCKED: ATOM     16  C   UNL     1     141.079  70.664 227.591 -0.63 -0.00    +0.023 A  
DOCKED: ATOM     17  C   UNL     1     140.583  69.377 227.425 -0.58 -0.01    +0.041 A  
DOCKED: ATOM     18  Cl  UNL     1     140.576  68.202 228.720 -0.58 +0.02    -0.084 Cl 
DOCKED: ENDBRANCH   5   8
DOCKED: ENDBRANCH   3   4
DOCKED: ENDBRANCH   1   3
DOCKED: BRANCH   1  19
DOCKED: ATOM     19  N   UNL     1     140.047  77.457 220.776 -0.05 +0.10    -0.334 N  
DOCKED: BRANCH  19  20
DOCKED: ATOM     20  C   UNL     1     139.055  78.196 219.981 -0.05 -0.03    +0.120 C  
DOCKED: BRANCH  20  21
DOCKED: ATOM     21  C   UNL     1     139.416  77.799 218.541 -0.04 -0.01    +0.022 C  
DOCKED: BRANCH  21  22
DOCKED: ATOM     22  C   UNL     1     140.237  78.941 218.024 -0.07 -0.00    +0.002 C  
DOCKED: BRANCH  22  23
DOCKED: ATOM     23  C   UNL     1     141.556  79.121 218.676 -0.24 -0.00    +0.003 CG0
DOCKED: ATOM     24  G   UNL     1     142.083  78.051 219.525 +0.00 +0.00    +0.000 G0 
DOCKED: ENDBRANCH  22  23
DOCKED: ENDBRANCH  21  22
DOCKED: ENDBRANCH  20  21
DOCKED: ENDBRANCH  19  20
DOCKED: BRANCH  19  25
DOCKED: ATOM     25  C   UNL     1     141.444  77.749 220.826 -0.27 -0.06    +0.115 C  
DOCKED: BRANCH  25  26
DOCKED: ATOM     26  C   UNL     1     142.077  78.048 219.527 -0.26 -0.02    +0.030 CG0
DOCKED: ATOM     27  G   UNL     1     141.548  79.128 218.692 +0.00 +0.00    +0.000 G0 
DOCKED: ENDBRANCH  25  26
DOCKED: BRANCH  25  28
DOCKED: ATOM     28  C   UNL     1     141.684  78.743 221.898 -0.42 +0.01    -0.025 A  
DOCKED: ATOM     29  C   UNL     1     141.606  78.450 223.245 -0.54 -0.00    +0.006 A  
DOCKED: ATOM     30  C   UNL     1     142.004  80.026 221.506 -0.43 -0.00    +0.006 A  
DOCKED: ATOM     31  C   UNL     1     141.846  79.434 224.176 -0.54 -0.00    +0.000 A  
DOCKED: ATOM     32  C   UNL     1     142.245  81.020 222.426 -0.52 -0.00    +0.000 A  
DOCKED: ATOM     33  C   UNL     1     142.169  80.738 223.782 -0.64 -0.00    +0.000 A  
DOCKED: ENDBRANCH  25  28
DOCKED: ENDBRANCH  19  25
DOCKED: ENDBRANCH   1  19
DOCKED: TORSDOF 5
DOCKED: TER
DOCKED: ENDMDL
________________________________________________________________________________


    FINAL DOCKED STATE:
    ________________________


Run:   10 / 20
Time taken for this run:   0.075s

DOCKED: MODEL        10
DOCKED: USER    Run = 10
DOCKED: USER
DOCKED: USER    Estimated Free Energy of Binding    =  -4.80 kcal/mol  [=(1)+(2)+(3)-(4)]
DOCKED: USER
DOCKED: USER    (1) Final Intermolecular Energy     =  -8.08 kcal/mol
DOCKED: USER        vdW + Hbond + desolv Energy     =  -8.41 kcal/mol
DOCKED: USER        Electrostatic Energy            =  -0.01 kcal/mol
DOCKED: USER        Moving Ligand-Fixed Receptor    =  -8.42 kcal/mol
DOCKED: USER        Moving Ligand-Moving Receptor   =  +0.33 kcal/mol
DOCKED: USER    (2) Final Total Internal Energy     =  -1.93 kcal/mol
DOCKED: USER    (3) Torsional Free Energy           =  +3.28 kcal/mol
DOCKED: USER    (4) Unbound System's Energy         =  -1.93 kcal/mol
DOCKED: USER
DOCKED: USER
DOCKED: REMARK SMILES O=C(NCC(=O)N1CCCCC[C@H]1c1ccccc1)c1ccc2cc(Cl)ccc2n1
DOCKED: REMARK SMILES IDX 5 1 6 2 4 3 3 4 2 5 1 6 20 8 21 9 30 10 22 11 29 12 23 13
DOCKED: REMARK SMILES IDX 28 14 24 15 27 16 25 17 26 18 7 19 8 20 9 21 10 22 11 23
DOCKED: REMARK SMILES IDX 13 25 12 26 14 28 15 29 19 30 16 31 18 32 17 33
DOCKED: REMARK H PARENT 3 7
DOCKED: REMARK Flexibility Score:   84.900
DOCKED: USER                              x       y       z     vdW  Elec       q    Type
DOCKED: USER                           _______ _______ _______ _____ _____    ______ ____
DOCKED: ROOT
DOCKED: ATOM      1  C   UNL     1     138.735  79.184 222.976 -0.21 -0.04    +0.242 C  
DOCKED: ATOM      2  O   UNL     1     137.863  79.858 223.604 -0.21 +0.03    -0.273 OA 
DOCKED: ENDROOT
DOCKED: BRANCH   1   3
DOCKED: ATOM      3  C   UNL     1     138.378  77.910 222.311 -0.18 -0.04    +0.216 C  
DOCKED: BRANCH   3   4
DOCKED: ATOM      4  N   UNL     1     137.343  77.238 223.077 -0.09 +0.06    -0.342 N  
DOCKED: ATOM      5  C   UNL     1     137.179  75.830 222.898 -0.11 -0.07    +0.270 C  
DOCKED: ATOM      6  O   UNL     1     137.918  75.177 222.091 -0.17 +0.08    -0.268 OA 
DOCKED: ATOM      7  H   UNL     1     136.737  77.782 223.740 +0.06 -0.02    +0.164 HD 
DOCKED: BRANCH   5   8
DOCKED: ATOM      8  C   UNL     1     136.145  75.127 223.656 -0.17 -0.04    +0.128 A  
DOCKED: ATOM      9  C   UNL     1     135.827  73.829 223.346 -0.19 -0.01    +0.035 A  
DOCKED: ATOM     10  N   UNL     1     135.468  75.707 224.673 -0.22 +0.04    -0.243 NA 
DOCKED: ATOM     11  C   UNL     1     134.872  73.086 223.999 -0.20 -0.00    +0.013 A  
DOCKED: ATOM     12  C   UNL     1     134.518  75.020 225.348 -0.34 -0.00    +0.071 A  
DOCKED: ATOM     13  C   UNL     1     134.200  73.720 225.039 -0.28 -0.00    +0.002 A  
DOCKED: ATOM     14  C   UNL     1     133.833  75.624 226.386 -0.39 -0.00    +0.030 A  
DOCKED: ATOM     15  C   UNL     1     133.240  72.984 225.699 -0.26 -0.00    +0.030 A  
DOCKED: ATOM     16  C   UNL     1     132.868  74.904 227.060 -0.37 +0.00    +0.023 A  
DOCKED: ATOM     17  C   UNL     1     132.557  73.589 226.735 -0.36 -0.00    +0.041 A  
DOCKED: ATOM     18  Cl  UNL     1     131.335  72.677 227.589 -0.51 +0.02    -0.084 Cl 
DOCKED: ENDBRANCH   5   8
DOCKED: ENDBRANCH   3   4
DOCKED: ENDBRANCH   1   3
DOCKED: BRANCH   1  19
DOCKED: ATOM     19  N   UNL     1     140.055  79.692 222.934 -0.16 +0.07    -0.334 N  
DOCKED: BRANCH  19  20
DOCKED: ATOM     20  C   UNL     1     141.047  78.996 223.766 -0.44 -0.03    +0.120 C  
DOCKED: BRANCH  20  21
DOCKED: ATOM     21  C   UNL     1     142.314  79.057 222.899 -0.51 -0.01    +0.022 C  
DOCKED: BRANCH  21  22
DOCKED: ATOM     22  C   UNL     1     143.059  80.259 223.394 -0.63 -0.00    +0.002 C  
DOCKED: BRANCH  22  23
DOCKED: ATOM     23  C   UNL     1     142.227  81.456 223.664 -0.56 -0.00    +0.003 CG0
DOCKED: ATOM     24  G   UNL     1     141.205  81.847 222.691 +0.00 +0.00    +0.000 G0 
DOCKED: ENDBRANCH  22  23
DOCKED: ENDBRANCH  21  22
DOCKED: ENDBRANCH  20  21
DOCKED: ENDBRANCH  19  20
DOCKED: BRANCH  19  25
DOCKED: ATOM     25  C   UNL     1     140.323  80.822 222.104 -0.27 -0.02    +0.115 C  
DOCKED: BRANCH  25  26
DOCKED: ATOM     26  C   UNL     1     141.205  81.848 222.694 -0.34 -0.00    +0.030 CG0
DOCKED: ATOM     27  G   UNL     1     142.226  81.456 223.668 +0.00 +0.00    +0.000 G0 
DOCKED: ENDBRANCH  25  26
DOCKED: BRANCH  25  28
DOCKED: ATOM     28  C   UNL     1     140.713  80.342 220.757 -0.24 +0.01    -0.025 A  
DOCKED: ATOM     29  C   UNL     1     140.016  79.378 220.058 -0.13 -0.00    +0.006 A  
DOCKED: ATOM     30  C   UNL     1     141.837  80.904 220.190 -0.31 -0.00    +0.006 A  
DOCKED: ATOM     31  C   UNL     1     140.448  78.990 218.810 -0.11 -0.00    +0.000 A  
DOCKED: ATOM     32  C   UNL     1     142.281  80.525 218.944 -0.31 -0.00    +0.000 A  
DOCKED: ATOM     33  C   UNL     1     141.589  79.557 218.231 -0.23 -0.00    +0.000 A  
DOCKED: ENDBRANCH  25  28
DOCKED: ENDBRANCH  19  25
DOCKED: ENDBRANCH   1  19
DOCKED: TORSDOF 5
DOCKED: TER
DOCKED: ENDMDL
________________________________________________________________________________


    FINAL DOCKED STATE:
    ________________________


Run:   11 / 20
Time taken for this run:   0.075s

DOCKED: MODEL        11
DOCKED: USER    Run = 11
DOCKED: USER
DOCKED: USER    Estimated Free Energy of Binding    =  -5.70 kcal/mol  [=(1)+(2)+(3)-(4)]
DOCKED: USER
DOCKED: USER    (1) Final Intermolecular Energy     =  -8.98 kcal/mol
DOCKED: USER        vdW + Hbond + desolv Energy     =  -9.06 kcal/mol
DOCKED: USER        Electrostatic Energy            =  +0.00 kcal/mol
DOCKED: USER        Moving Ligand-Fixed Receptor    =  -9.06 kcal/mol
DOCKED: USER        Moving Ligand-Moving Receptor   =  +0.08 kcal/mol
DOCKED: USER    (2) Final Total Internal Energy     =  -1.93 kcal/mol
DOCKED: USER    (3) Torsional Free Energy           =  +3.28 kcal/mol
DOCKED: USER    (4) Unbound System's Energy         =  -1.93 kcal/mol
DOCKED: USER
DOCKED: USER
DOCKED: REMARK SMILES O=C(NCC(=O)N1CCCCC[C@H]1c1ccccc1)c1ccc2cc(Cl)ccc2n1
DOCKED: REMARK SMILES IDX 5 1 6 2 4 3 3 4 2 5 1 6 20 8 21 9 30 10 22 11 29 12 23 13
DOCKED: REMARK SMILES IDX 28 14 24 15 27 16 25 17 26 18 7 19 8 20 9 21 10 22 11 23
DOCKED: REMARK SMILES IDX 13 25 12 26 14 28 15 29 19 30 16 31 18 32 17 33
DOCKED: REMARK H PARENT 3 7
DOCKED: REMARK Flexibility Score:   84.900
DOCKED: USER                              x       y       z     vdW  Elec       q    Type
DOCKED: USER                           _______ _______ _______ _____ _____    ______ ____
DOCKED: ROOT
DOCKED: ATOM      1  C   UNL     1     140.862  77.040 221.878 -0.25 -0.09    +0.242 C  
DOCKED: ATOM      2  O   UNL     1     141.061  77.011 223.130 -0.25 +0.09    -0.273 OA 
DOCKED: ENDROOT
DOCKED: BRANCH   1   3
DOCKED: ATOM      3  C   UNL     1     139.995  76.035 221.221 -0.20 -0.06    +0.216 C  
DOCKED: BRANCH   3   4
DOCKED: ATOM      4  N   UNL     1     139.844  74.883 222.093 -0.12 +0.04    -0.342 N  
DOCKED: ATOM      5  C   UNL     1     139.988  73.582 221.521 -0.18 -0.04    +0.270 C  
DOCKED: ATOM      6  O   UNL     1     140.243  73.430 220.282 -0.06 +0.05    -0.268 OA 
DOCKED: ATOM      7  H   UNL     1     139.635  75.015 223.114 -0.37 +0.00    +0.164 HD 
DOCKED: BRANCH   5   8
DOCKED: ATOM      8  C   UNL     1     139.842  72.404 222.375 -0.26 -0.02    +0.128 A  
DOCKED: ATOM      9  C   UNL     1     139.140  71.312 221.928 -0.17 -0.01    +0.035 A  
DOCKED: ATOM     10  N   UNL     1     140.376  72.334 223.615 -0.27 +0.03    -0.243 NA 
DOCKED: ATOM     11  C   UNL     1     138.948  70.162 222.655 -0.20 -0.00    +0.013 A  
DOCKED: ATOM     12  C   UNL     1     140.216  71.224 224.372 -0.42 -0.01    +0.071 A  
DOCKED: ATOM     13  C   UNL     1     139.515  70.131 223.925 -0.32 -0.00    +0.002 A  
DOCKED: ATOM     14  C   UNL     1     140.768  71.165 225.639 -0.58 -0.00    +0.030 A  
DOCKED: ATOM     15  C   UNL     1     139.327  68.982 224.662 -0.35 -0.00    +0.030 A  
DOCKED: ATOM     16  C   UNL     1     140.591  70.023 226.393 -0.53 -0.00    +0.023 A  
DOCKED: ATOM     17  C   UNL     1     139.878  68.925 225.927 -0.48 -0.01    +0.041 A  
DOCKED: ATOM     18  Cl  UNL     1     139.655  67.478 226.882 -0.59 +0.02    -0.084 Cl 
DOCKED: ENDBRANCH   5   8
DOCKED: ENDBRANCH   3   4
DOCKED: ENDBRANCH   1   3
DOCKED: BRANCH   1  19
DOCKED: ATOM     19  N   UNL     1     141.495  78.064 221.135 -0.14 +0.18    -0.334 N  
DOCKED: BRANCH  19  20
DOCKED: ATOM     20  C   UNL     1     142.082  77.667 219.847 -0.24 -0.08    +0.120 C  
DOCKED: BRANCH  20  21
DOCKED: ATOM     21  C   UNL     1     141.036  78.159 218.835 -0.16 -0.01    +0.022 C  
DOCKED: BRANCH  21  22
DOCKED: ATOM     22  C   UNL     1     141.509  79.522 218.429 -0.23 -0.00    +0.002 C  
DOCKED: BRANCH  22  23
DOCKED: ATOM     23  C   UNL     1     141.325  80.587 219.444 -0.26 -0.00    +0.003 CG0
DOCKED: ATOM     24  G   UNL     1     141.968  80.444 220.752 +0.00 +0.00    +0.000 G0 
DOCKED: ENDBRANCH  22  23
DOCKED: ENDBRANCH  21  22
DOCKED: ENDBRANCH  20  21
DOCKED: ENDBRANCH  19  20
DOCKED: BRANCH  19  25
DOCKED: ATOM     25  C   UNL     1     141.519  79.384 221.678 -0.35 -0.05    +0.115 C  
DOCKED: BRANCH  25  26
DOCKED: ATOM     26  C   UNL     1     141.968  80.443 220.753 -0.31 -0.01    +0.030 CG0
DOCKED: ATOM     27  G   UNL     1     141.325  80.586 219.445 +0.00 +0.00    +0.000 G0 
DOCKED: ENDBRANCH  25  26
DOCKED: BRANCH  25  28
DOCKED: ATOM     28  C   UNL     1     140.232  79.640 222.366 -0.32 +0.01    -0.025 A  
DOCKED: ATOM     29  C   UNL     1     140.126  79.910 223.715 -0.45 -0.00    +0.006 A  
DOCKED: ATOM     30  C   UNL     1     139.089  79.602 221.595 -0.17 -0.00    +0.006 A  
DOCKED: ATOM     31  C   UNL     1     138.890  80.137 224.274 -0.36 -0.00    +0.000 A  
DOCKED: ATOM     32  C   UNL     1     137.846  79.826 222.141 -0.17 -0.00    +0.000 A  
DOCKED: ATOM     33  C   UNL     1     137.726  80.098 223.495 -0.30 -0.00    +0.000 A  
DOCKED: ENDBRANCH  25  28
DOCKED: ENDBRANCH  19  25
DOCKED: ENDBRANCH   1  19
DOCKED: TORSDOF 5
DOCKED: TER
DOCKED: ENDMDL
________________________________________________________________________________


    FINAL DOCKED STATE:
    ________________________


Run:   12 / 20
Time taken for this run:   0.075s

DOCKED: MODEL        12
DOCKED: USER    Run = 12
DOCKED: USER
DOCKED: USER    Estimated Free Energy of Binding    =  -6.29 kcal/mol  [=(1)+(2)+(3)-(4)]
DOCKED: USER
DOCKED: USER    (1) Final Intermolecular Energy     =  -9.57 kcal/mol
DOCKED: USER        vdW + Hbond + desolv Energy     = -10.41 kcal/mol
DOCKED: USER        Electrostatic Energy            =  +0.01 kcal/mol
DOCKED: USER        Moving Ligand-Fixed Receptor    = -10.40 kcal/mol
DOCKED: USER        Moving Ligand-Moving Receptor   =  +0.83 kcal/mol
DOCKED: USER    (2) Final Total Internal Energy     =  -1.60 kcal/mol
DOCKED: USER    (3) Torsional Free Energy           =  +3.28 kcal/mol
DOCKED: USER    (4) Unbound System's Energy         =  -1.60 kcal/mol
DOCKED: USER
DOCKED: USER
DOCKED: REMARK SMILES O=C(NCC(=O)N1CCCCC[C@H]1c1ccccc1)c1ccc2cc(Cl)ccc2n1
DOCKED: REMARK SMILES IDX 5 1 6 2 4 3 3 4 2 5 1 6 20 8 21 9 30 10 22 11 29 12 23 13
DOCKED: REMARK SMILES IDX 28 14 24 15 27 16 25 17 26 18 7 19 8 20 9 21 10 22 11 23
DOCKED: REMARK SMILES IDX 13 25 12 26 14 28 15 29 19 30 16 31 18 32 17 33
DOCKED: REMARK H PARENT 3 7
DOCKED: REMARK Flexibility Score:   84.900
DOCKED: USER                              x       y       z     vdW  Elec       q    Type
DOCKED: USER                           _______ _______ _______ _____ _____    ______ ____
DOCKED: ROOT
DOCKED: ATOM      1  C   UNL     1     139.919  76.249 221.262 -0.19 -0.06    +0.242 C  
DOCKED: ATOM      2  O   UNL     1     141.141  76.423 220.972 -0.19 +0.11    -0.273 OA 
DOCKED: ENDROOT
DOCKED: BRANCH   1   3
DOCKED: ATOM      3  C   UNL     1     139.242  74.967 220.962 -0.14 -0.05    +0.216 C  
DOCKED: BRANCH   3   4
DOCKED: ATOM      4  N   UNL     1     139.331  74.090 222.116 -0.12 +0.07    -0.342 N  
DOCKED: ATOM      5  C   UNL     1     139.845  72.771 221.923 -0.19 -0.04    +0.270 C  
DOCKED: ATOM      6  O   UNL     1     140.217  72.369 220.772 -0.08 +0.04    -0.268 OA 
DOCKED: ATOM      7  H   UNL     1     139.023  74.427 223.062 -0.55 -0.07    +0.164 HD 
DOCKED: BRANCH   5   8
DOCKED: ATOM      8  C   UNL     1     139.947  71.867 223.068 -0.30 -0.02    +0.128 A  
DOCKED: ATOM      9  C   UNL     1     139.521  70.567 222.959 -0.25 -0.01    +0.035 A  
DOCKED: ATOM     10  N   UNL     1     140.452  72.257 224.260 -0.08 +0.03    -0.243 NA 
DOCKED: ATOM     11  C   UNL     1     139.575  69.644 223.975 -0.29 -0.00    +0.013 A  
DOCKED: ATOM     12  C   UNL     1     140.528  71.387 225.294 -0.50 -0.01    +0.071 A  
DOCKED: ATOM     13  C   UNL     1     140.102  70.086 225.185 -0.45 -0.00    +0.002 A  
DOCKED: ATOM     14  C   UNL     1     141.046  71.799 226.508 -0.70 -0.00    +0.030 A  
DOCKED: ATOM     15  C   UNL     1     140.160  69.168 226.211 -0.50 -0.01    +0.030 A  
DOCKED: ATOM     16  C   UNL     1     141.113  70.895 227.548 -0.64 -0.00    +0.023 A  
DOCKED: ATOM     17  C   UNL     1     140.677  69.582 227.422 -0.57 -0.01    +0.041 A  
DOCKED: ATOM     18  Cl  UNL     1     140.763  68.436 228.740 -0.67 +0.02    -0.084 Cl 
DOCKED: ENDBRANCH   5   8
DOCKED: ENDBRANCH   3   4
DOCKED: ENDBRANCH   1   3
DOCKED: BRANCH   1  19
DOCKED: ATOM     19  N   UNL     1     139.230  77.318 221.881 -0.11 +0.08    -0.334 N  
DOCKED: BRANCH  19  20
DOCKED: ATOM     20  C   UNL     1     138.306  76.956 222.966 -0.10 -0.02    +0.120 C  
DOCKED: BRANCH  20  21
DOCKED: ATOM     21  C   UNL     1     136.929  77.154 222.314 -0.20 -0.00    +0.022 C  
DOCKED: BRANCH  21  22
DOCKED: ATOM     22  C   UNL     1     136.471  78.499 222.788 -0.17 -0.00    +0.002 C  
DOCKED: BRANCH  22  23
DOCKED: ATOM     23  C   UNL     1     137.397  79.621 222.506 -0.18 -0.00    +0.003 CG0
DOCKED: ATOM     24  G   UNL     1     138.300  79.529 221.357 +0.00 +0.00    +0.000 G0 
DOCKED: ENDBRANCH  22  23
DOCKED: ENDBRANCH  21  22
DOCKED: ENDBRANCH  20  21
DOCKED: ENDBRANCH  19  20
DOCKED: BRANCH  19  25
DOCKED: ATOM     25  C   UNL     1     139.475  78.645 221.417 -0.16 -0.03    +0.115 C  
DOCKED: BRANCH  25  26
DOCKED: ATOM     26  C   UNL     1     138.291  79.524 221.351 -0.12 -0.01    +0.030 CG0
DOCKED: ATOM     27  G   UNL     1     137.393  79.622 222.504 +0.00 +0.00    +0.000 G0 
DOCKED: ENDBRANCH  25  26
DOCKED: BRANCH  25  28
DOCKED: ATOM     28  C   UNL     1     140.640  79.197 222.147 -0.34 +0.01    -0.025 A  
DOCKED: ATOM     29  C   UNL     1     141.546  80.076 221.588 -0.40 -0.00    +0.006 A  
DOCKED: ATOM     30  C   UNL     1     140.809  78.799 223.456 -0.49 -0.00    +0.006 A  
DOCKED: ATOM     31  C   UNL     1     142.602  80.541 222.338 -0.56 -0.00    +0.000 A  
DOCKED: ATOM     32  C   UNL     1     141.860  79.255 224.217 -0.54 -0.00    +0.000 A  
DOCKED: ATOM     33  C   UNL     1     142.777  80.138 223.667 -0.64 -0.00    +0.000 A  
DOCKED: ENDBRANCH  25  28
DOCKED: ENDBRANCH  19  25
DOCKED: ENDBRANCH   1  19
DOCKED: TORSDOF 5
DOCKED: TER
DOCKED: ENDMDL
________________________________________________________________________________


    FINAL DOCKED STATE:
    ________________________


Run:   13 / 20
Time taken for this run:   0.075s

DOCKED: MODEL        13
DOCKED: USER    Run = 13
DOCKED: USER
DOCKED: USER    Estimated Free Energy of Binding    =  -4.26 kcal/mol  [=(1)+(2)+(3)-(4)]
DOCKED: USER
DOCKED: USER    (1) Final Intermolecular Energy     =  -7.54 kcal/mol
DOCKED: USER        vdW + Hbond + desolv Energy     =  -7.92 kcal/mol
DOCKED: USER        Electrostatic Energy            =  +0.03 kcal/mol
DOCKED: USER        Moving Ligand-Fixed Receptor    =  -7.89 kcal/mol
DOCKED: USER        Moving Ligand-Moving Receptor   =  +0.35 kcal/mol
DOCKED: USER    (2) Final Total Internal Energy     =  -2.67 kcal/mol
DOCKED: USER    (3) Torsional Free Energy           =  +3.28 kcal/mol
DOCKED: USER    (4) Unbound System's Energy         =  -2.67 kcal/mol
DOCKED: USER
DOCKED: USER
DOCKED: REMARK SMILES O=C(NCC(=O)N1CCCCC[C@H]1c1ccccc1)c1ccc2cc(Cl)ccc2n1
DOCKED: REMARK SMILES IDX 5 1 6 2 4 3 3 4 2 5 1 6 20 8 21 9 30 10 22 11 29 12 23 13
DOCKED: REMARK SMILES IDX 28 14 24 15 27 16 25 17 26 18 7 19 8 20 9 21 10 22 11 23
DOCKED: REMARK SMILES IDX 13 25 12 26 14 28 15 29 19 30 16 31 18 32 17 33
DOCKED: REMARK H PARENT 3 7
DOCKED: REMARK Flexibility Score:   84.900
DOCKED: USER                              x       y       z     vdW  Elec       q    Type
DOCKED: USER                           _______ _______ _______ _____ _____    ______ ____
DOCKED: ROOT
DOCKED: ATOM      1  C   UNL     1     140.618  79.680 219.894 -0.11 -0.09    +0.242 C  
DOCKED: ATOM      2  O   UNL     1     141.531  80.462 219.490 -0.18 +0.13    -0.273 OA 
DOCKED: ENDROOT
DOCKED: BRANCH   1   3
DOCKED: ATOM      3  C   UNL     1     139.190  79.989 219.653 -0.04 -0.06    +0.216 C  
DOCKED: BRANCH   3   4
DOCKED: ATOM      4  N   UNL     1     138.569  80.410 220.897 -0.01 +0.07    -0.342 N  
DOCKED: ATOM      5  C   UNL     1     137.673  79.505 221.543 -0.06 -0.05    +0.270 C  
DOCKED: ATOM      6  O   UNL     1     137.421  78.358 221.047 -0.04 +0.05    -0.268 OA 
DOCKED: ATOM      7  H   UNL     1     138.780  81.357 221.301 +0.04 -0.03    +0.164 HD 
DOCKED: BRANCH   5   8
DOCKED: ATOM      8  C   UNL     1     137.034  79.902 222.797 -0.14 -0.02    +0.128 A  
DOCKED: ATOM      9  C   UNL     1     135.780  79.439 223.107 -0.14 -0.00    +0.035 A  
DOCKED: ATOM     10  N   UNL     1     137.631  80.723 223.689 -0.18 +0.03    -0.243 NA 
DOCKED: ATOM     11  C   UNL     1     135.099  79.755 224.258 -0.16 -0.00    +0.013 A  
DOCKED: ATOM     12  C   UNL     1     137.004  81.065 224.838 -0.32 -0.01    +0.071 A  
DOCKED: ATOM     13  C   UNL     1     135.749  80.603 225.149 -0.17 -0.00    +0.002 A  
DOCKED: ATOM     14  C   UNL     1     137.626  81.906 225.742 -0.30 -0.00    +0.030 A  
DOCKED: ATOM     15  C   UNL     1     135.073  80.926 226.306 -0.22 -0.01    +0.030 A  
DOCKED: ATOM     16  C   UNL     1     136.966  82.242 226.907 -0.46 -0.00    +0.023 A  
DOCKED: ATOM     17  C   UNL     1     135.696  81.766 227.207 -0.39 -0.01    +0.041 A  
DOCKED: ATOM     18  Cl  UNL     1     134.862  82.191 228.683 -0.51 +0.01    -0.084 Cl 
DOCKED: ENDBRANCH   5   8
DOCKED: ENDBRANCH   3   4
DOCKED: ENDBRANCH   1   3
DOCKED: BRANCH   1  19
DOCKED: ATOM     19  N   UNL     1     141.011  78.507 220.579 -0.09 +0.15    -0.334 N  
DOCKED: BRANCH  19  20
DOCKED: ATOM     20  C   UNL     1     141.779  77.524 219.800 -0.24 -0.07    +0.120 C  
DOCKED: BRANCH  20  21
DOCKED: ATOM     21  C   UNL     1     140.681  76.606 219.243 -0.12 -0.01    +0.022 C  
DOCKED: BRANCH  21  22
DOCKED: ATOM     22  C   UNL     1     140.390  75.641 220.352 -0.19 -0.00    +0.002 C  
DOCKED: BRANCH  22  23
DOCKED: ATOM     23  C   UNL     1     141.126  75.885 221.615 -0.33 -0.00    +0.003 CG0
DOCKED: ATOM     24  G   UNL     1     140.706  76.987 222.484 +0.00 +0.00    +0.000 G0 
DOCKED: ENDBRANCH  22  23
DOCKED: ENDBRANCH  21  22
DOCKED: ENDBRANCH  20  21
DOCKED: ENDBRANCH  19  20
DOCKED: BRANCH  19  25
DOCKED: ATOM     25  C   UNL     1     140.643  78.363 221.950 -0.30 -0.04    +0.115 C  
DOCKED: BRANCH  25  26
DOCKED: ATOM     26  C   UNL     1     140.704  76.988 222.483 -0.38 -0.01    +0.030 CG0
DOCKED: ATOM     27  G   UNL     1     141.126  75.889 221.612 +0.00 +0.00    +0.000 G0 
DOCKED: ENDBRANCH  25  26
DOCKED: BRANCH  25  28
DOCKED: ATOM     28  C   UNL     1     141.356  79.389 222.746 -0.49 +0.01    -0.025 A  
DOCKED: ATOM     29  C   UNL     1     140.717  80.357 223.495 -0.48 -0.00    +0.006 A  
DOCKED: ATOM     30  C   UNL     1     142.734  79.357 222.724 -0.55 -0.00    +0.006 A  
DOCKED: ATOM     31  C   UNL     1     141.458  81.273 224.206 -0.31 -0.00    +0.000 A  
DOCKED: ATOM     32  C   UNL     1     143.487  80.267 223.429 -0.49 -0.00    +0.000 A  
DOCKED: ATOM     33  C   UNL     1     142.857  81.244 224.185 -0.57 -0.00    +0.000 A  
DOCKED: ENDBRANCH  25  28
DOCKED: ENDBRANCH  19  25
DOCKED: ENDBRANCH   1  19
DOCKED: TORSDOF 5
DOCKED: TER
DOCKED: ENDMDL
________________________________________________________________________________


    FINAL DOCKED STATE:
    ________________________


Run:   14 / 20
Time taken for this run:   0.075s

DOCKED: MODEL        14
DOCKED: USER    Run = 14
DOCKED: USER
DOCKED: USER    Estimated Free Energy of Binding    =  -6.26 kcal/mol  [=(1)+(2)+(3)-(4)]
DOCKED: USER
DOCKED: USER    (1) Final Intermolecular Energy     =  -9.54 kcal/mol
DOCKED: USER        vdW + Hbond + desolv Energy     =  -9.97 kcal/mol
DOCKED: USER        Electrostatic Energy            =  +0.01 kcal/mol
DOCKED: USER        Moving Ligand-Fixed Receptor    =  -9.96 kcal/mol
DOCKED: USER        Moving Ligand-Moving Receptor   =  +0.41 kcal/mol
DOCKED: USER    (2) Final Total Internal Energy     =  -2.19 kcal/mol
DOCKED: USER    (3) Torsional Free Energy           =  +3.28 kcal/mol
DOCKED: USER    (4) Unbound System's Energy         =  -2.19 kcal/mol
DOCKED: USER
DOCKED: USER
DOCKED: REMARK SMILES O=C(NCC(=O)N1CCCCC[C@H]1c1ccccc1)c1ccc2cc(Cl)ccc2n1
DOCKED: REMARK SMILES IDX 5 1 6 2 4 3 3 4 2 5 1 6 20 8 21 9 30 10 22 11 29 12 23 13
DOCKED: REMARK SMILES IDX 28 14 24 15 27 16 25 17 26 18 7 19 8 20 9 21 10 22 11 23
DOCKED: REMARK SMILES IDX 13 25 12 26 14 28 15 29 19 30 16 31 18 32 17 33
DOCKED: REMARK H PARENT 3 7
DOCKED: REMARK Flexibility Score:   84.900
DOCKED: USER                              x       y       z     vdW  Elec       q    Type
DOCKED: USER                           _______ _______ _______ _____ _____    ______ ____
DOCKED: ROOT
DOCKED: ATOM      1  C   UNL     1     140.918  75.968 221.075 -0.21 -0.08    +0.242 C  
DOCKED: ATOM      2  O   UNL     1     141.112  76.670 222.112 -0.30 +0.11    -0.273 OA 
DOCKED: ENDROOT
DOCKED: BRANCH   1   3
DOCKED: ATOM      3  C   UNL     1     139.760  75.049 220.983 -0.16 -0.05    +0.216 C  
DOCKED: BRANCH   3   4
DOCKED: ATOM      4  N   UNL     1     139.754  74.162 222.133 -0.10 +0.04    -0.342 N  
DOCKED: ATOM      5  C   UNL     1     140.081  72.787 221.924 -0.19 -0.04    +0.270 C  
DOCKED: ATOM      6  O   UNL     1     140.371  72.346 220.764 -0.09 +0.04    -0.268 OA 
DOCKED: ATOM      7  H   UNL     1     139.514  74.531 223.086 -0.53 -0.01    +0.164 HD 
DOCKED: BRANCH   5   8
DOCKED: ATOM      8  C   UNL     1     140.084  71.870 223.064 -0.30 -0.02    +0.128 A  
DOCKED: ATOM      9  C   UNL     1     139.590  70.597 222.924 -0.25 -0.01    +0.035 A  
DOCKED: ATOM     10  N   UNL     1     140.559  72.223 224.279 -0.07 +0.03    -0.243 NA 
DOCKED: ATOM     11  C   UNL     1     139.550  69.666 223.934 -0.29 -0.00    +0.013 A  
DOCKED: ATOM     12  C   UNL     1     140.542  71.343 225.307 -0.50 -0.01    +0.071 A  
DOCKED: ATOM     13  C   UNL     1     140.049  70.069 225.168 -0.44 -0.00    +0.002 A  
DOCKED: ATOM     14  C   UNL     1     141.032  71.716 226.545 -0.70 -0.00    +0.030 A  
DOCKED: ATOM     15  C   UNL     1     140.012  69.141 226.187 -0.50 -0.00    +0.030 A  
DOCKED: ATOM     16  C   UNL     1     141.003  70.802 227.579 -0.65 -0.00    +0.023 A  
DOCKED: ATOM     17  C   UNL     1     140.501  69.516 227.422 -0.57 -0.01    +0.041 A  
DOCKED: ATOM     18  Cl  UNL     1     140.466  68.359 228.732 -0.59 +0.02    -0.084 Cl 
DOCKED: ENDBRANCH   5   8
DOCKED: ENDBRANCH   3   4
DOCKED: ENDBRANCH   1   3
DOCKED: BRANCH   1  19
DOCKED: ATOM     19  N   UNL     1     141.843  76.094 220.012 -0.11 +0.15    -0.334 N  
DOCKED: BRANCH  19  20
DOCKED: ATOM     20  C   UNL     1     142.393  77.438 219.783 -0.21 -0.08    +0.120 C  
DOCKED: BRANCH  20  21
DOCKED: ATOM     21  C   UNL     1     141.380  78.054 218.807 -0.19 -0.01    +0.022 C  
DOCKED: BRANCH  21  22
DOCKED: ATOM     22  C   UNL     1     141.838  77.613 217.450 -0.19 -0.00    +0.002 C  
DOCKED: BRANCH  22  23
DOCKED: ATOM     23  C   UNL     1     141.576  76.191 217.122 -0.09 -0.00    +0.003 CG0
DOCKED: ATOM     24  G   UNL     1     142.349  75.149 217.802 +0.00 +0.00    +0.000 G0 
DOCKED: ENDBRANCH  22  23
DOCKED: ENDBRANCH  21  22
DOCKED: ENDBRANCH  20  21
DOCKED: ENDBRANCH  19  20
DOCKED: BRANCH  19  25
DOCKED: ATOM     25  C   UNL     1     142.171  74.931 219.253 -0.16 -0.04    +0.115 C  
DOCKED: BRANCH  25  26
DOCKED: ATOM     26  C   UNL     1     142.352  75.149 217.804 -0.12 -0.01    +0.030 CG0
DOCKED: ATOM     27  G   UNL     1     141.580  76.190 217.123 +0.00 +0.00    +0.000 G0 
DOCKED: ENDBRANCH  25  26
DOCKED: BRANCH  25  28
DOCKED: ATOM     28  C   UNL     1     143.272  74.211 219.934 -0.32 +0.01    -0.025 A  
DOCKED: ATOM     29  C   UNL     1     143.214  72.878 220.283 -0.29 -0.00    +0.006 A  
DOCKED: ATOM     30  C   UNL     1     144.411  74.934 220.223 -0.39 -0.00    +0.006 A  
DOCKED: ATOM     31  C   UNL     1     144.285  72.287 220.914 -0.34 -0.00    +0.000 A  
DOCKED: ATOM     32  C   UNL     1     145.488  74.356 220.854 -0.53 -0.00    +0.000 A  
DOCKED: ATOM     33  C   UNL     1     145.442  73.017 221.211 -0.61 -0.00    +0.000 A  
DOCKED: ENDBRANCH  25  28
DOCKED: ENDBRANCH  19  25
DOCKED: ENDBRANCH   1  19
DOCKED: TORSDOF 5
DOCKED: TER
DOCKED: ENDMDL
________________________________________________________________________________


    FINAL DOCKED STATE:
    ________________________


Run:   15 / 20
Time taken for this run:   0.075s

DOCKED: MODEL        15
DOCKED: USER    Run = 15
DOCKED: USER
DOCKED: USER    Estimated Free Energy of Binding    =  -5.57 kcal/mol  [=(1)+(2)+(3)-(4)]
DOCKED: USER
DOCKED: USER    (1) Final Intermolecular Energy     =  -8.85 kcal/mol
DOCKED: USER        vdW + Hbond + desolv Energy     =  -9.05 kcal/mol
DOCKED: USER        Electrostatic Energy            =  -0.03 kcal/mol
DOCKED: USER        Moving Ligand-Fixed Receptor    =  -9.08 kcal/mol
DOCKED: USER        Moving Ligand-Moving Receptor   =  +0.23 kcal/mol
DOCKED: USER    (2) Final Total Internal Energy     =  -1.88 kcal/mol
DOCKED: USER    (3) Torsional Free Energy           =  +3.28 kcal/mol
DOCKED: USER    (4) Unbound System's Energy         =  -1.88 kcal/mol
DOCKED: USER
DOCKED: USER
DOCKED: REMARK SMILES O=C(NCC(=O)N1CCCCC[C@H]1c1ccccc1)c1ccc2cc(Cl)ccc2n1
DOCKED: REMARK SMILES IDX 5 1 6 2 4 3 3 4 2 5 1 6 20 8 21 9 30 10 22 11 29 12 23 13
DOCKED: REMARK SMILES IDX 28 14 24 15 27 16 25 17 26 18 7 19 8 20 9 21 10 22 11 23
DOCKED: REMARK SMILES IDX 13 25 12 26 14 28 15 29 19 30 16 31 18 32 17 33
DOCKED: REMARK H PARENT 3 7
DOCKED: REMARK Flexibility Score:   84.900
DOCKED: USER                              x       y       z     vdW  Elec       q    Type
DOCKED: USER                           _______ _______ _______ _____ _____    ______ ____
DOCKED: ROOT
DOCKED: ATOM      1  C   UNL     1     139.934  77.105 222.208 -0.26 -0.06    +0.242 C  
DOCKED: ATOM      2  O   UNL     1     140.280  75.907 222.433 -0.44 +0.04    -0.273 OA 
DOCKED: ENDROOT
DOCKED: BRANCH   1   3
DOCKED: ATOM      3  C   UNL     1     138.505  77.480 222.112 -0.18 -0.04    +0.216 C  
DOCKED: BRANCH   3   4
DOCKED: ATOM      4  N   UNL     1     137.703  76.522 222.853 -0.15 +0.07    -0.342 N  
DOCKED: ATOM      5  C   UNL     1     136.352  76.870 223.161 -0.09 -0.05    +0.270 C  
DOCKED: ATOM      6  O   UNL     1     135.859  77.988 222.799 -0.10 +0.04    -0.268 OA 
DOCKED: ATOM      7  H   UNL     1     138.115  75.602 223.149 -0.30 -0.06    +0.164 HD 
DOCKED: BRANCH   5   8
DOCKED: ATOM      8  C   UNL     1     135.521  75.925 223.906 -0.23 -0.02    +0.128 A  
DOCKED: ATOM      9  C   UNL     1     135.561  74.587 223.605 -0.23 -0.01    +0.035 A  
DOCKED: ATOM     10  N   UNL     1     134.693  76.313 224.902 -0.17 +0.03    -0.243 NA 
DOCKED: ATOM     11  C   UNL     1     134.819  73.624 224.246 -0.23 -0.00    +0.013 A  
DOCKED: ATOM     12  C   UNL     1     133.940  75.405 225.565 -0.30 -0.00    +0.071 A  
DOCKED: ATOM     13  C   UNL     1     133.980  74.066 225.264 -0.29 -0.00    +0.002 A  
DOCKED: ATOM     14  C   UNL     1     133.097  75.815 226.582 -0.34 -0.00    +0.030 A  
DOCKED: ATOM     15  C   UNL     1     133.232  73.107 225.913 -0.29 -0.00    +0.030 A  
DOCKED: ATOM     16  C   UNL     1     132.339  74.871 227.244 -0.39 -0.00    +0.023 A  
DOCKED: ATOM     17  C   UNL     1     132.391  73.519 226.927 -0.37 -0.00    +0.041 A  
DOCKED: ATOM     18  Cl  UNL     1     131.430  72.323 227.767 -0.36 +0.02    -0.084 Cl 
DOCKED: ENDBRANCH   5   8
DOCKED: ENDBRANCH   3   4
DOCKED: ENDBRANCH   1   3
DOCKED: BRANCH   1  19
DOCKED: ATOM     19  N   UNL     1     140.959  78.068 222.054 -0.17 +0.13    -0.334 N  
DOCKED: BRANCH  19  20
DOCKED: ATOM     20  C   UNL     1     141.796  78.324 223.236 -0.34 -0.05    +0.120 C  
DOCKED: BRANCH  20  21
DOCKED: ATOM     21  C   UNL     1     141.043  79.462 223.941 -0.48 -0.00    +0.022 C  
DOCKED: BRANCH  21  22
DOCKED: ATOM     22  C   UNL     1     141.565  80.716 223.309 -0.58 -0.00    +0.002 C  
DOCKED: BRANCH  22  23
DOCKED: ATOM     23  C   UNL     1     141.080  80.983 221.934 -0.41 -0.00    +0.003 CG0
DOCKED: ATOM     24  G   UNL     1     141.534  80.124 220.838 +0.00 +0.00    +0.000 G0 
DOCKED: ENDBRANCH  22  23
DOCKED: ENDBRANCH  21  22
DOCKED: ENDBRANCH  20  21
DOCKED: ENDBRANCH  19  20
DOCKED: BRANCH  19  25
DOCKED: ATOM     25  C   UNL     1     141.105  78.711 220.788 -0.24 -0.05    +0.115 C  
DOCKED: BRANCH  25  26
DOCKED: ATOM     26  C   UNL     1     141.536  80.122 220.838 -0.34 -0.01    +0.030 CG0
DOCKED: ATOM     27  G   UNL     1     141.081  80.983 221.933 +0.00 +0.00    +0.000 G0 
DOCKED: ENDBRANCH  25  26
DOCKED: BRANCH  25  28
DOCKED: ATOM     28  C   UNL     1     141.897  77.832 219.896 -0.29 +0.02    -0.025 A  
DOCKED: ATOM     29  C   UNL     1     142.319  76.567 220.247 -0.24 -0.00    +0.006 A  
DOCKED: ATOM     30  C   UNL     1     142.217  78.327 218.649 -0.30 -0.00    +0.006 A  
DOCKED: ATOM     31  C   UNL     1     143.051  75.816 219.356 -0.36 -0.00    +0.000 A  
DOCKED: ATOM     32  C   UNL     1     142.949  77.588 217.748 -0.31 -0.00    +0.000 A  
DOCKED: ATOM     33  C   UNL     1     143.379  76.314 218.090 -0.29 -0.00    +0.000 A  
DOCKED: ENDBRANCH  25  28
DOCKED: ENDBRANCH  19  25
DOCKED: ENDBRANCH   1  19
DOCKED: TORSDOF 5
DOCKED: TER
DOCKED: ENDMDL
________________________________________________________________________________


    FINAL DOCKED STATE:
    ________________________


Run:   16 / 20
Time taken for this run:   0.075s

DOCKED: MODEL        16
DOCKED: USER    Run = 16
DOCKED: USER
DOCKED: USER    Estimated Free Energy of Binding    =  -5.61 kcal/mol  [=(1)+(2)+(3)-(4)]
DOCKED: USER
DOCKED: USER    (1) Final Intermolecular Energy     =  -8.89 kcal/mol
DOCKED: USER        vdW + Hbond + desolv Energy     =  -9.53 kcal/mol
DOCKED: USER        Electrostatic Energy            =  +0.02 kcal/mol
DOCKED: USER        Moving Ligand-Fixed Receptor    =  -9.51 kcal/mol
DOCKED: USER        Moving Ligand-Moving Receptor   =  +0.62 kcal/mol
DOCKED: USER    (2) Final Total Internal Energy     =  -1.89 kcal/mol
DOCKED: USER    (3) Torsional Free Energy           =  +3.28 kcal/mol
DOCKED: USER    (4) Unbound System's Energy         =  -1.89 kcal/mol
DOCKED: USER
DOCKED: USER
DOCKED: REMARK SMILES O=C(NCC(=O)N1CCCCC[C@H]1c1ccccc1)c1ccc2cc(Cl)ccc2n1
DOCKED: REMARK SMILES IDX 5 1 6 2 4 3 3 4 2 5 1 6 20 8 21 9 30 10 22 11 29 12 23 13
DOCKED: REMARK SMILES IDX 28 14 24 15 27 16 25 17 26 18 7 19 8 20 9 21 10 22 11 23
DOCKED: REMARK SMILES IDX 13 25 12 26 14 28 15 29 19 30 16 31 18 32 17 33
DOCKED: REMARK H PARENT 3 7
DOCKED: REMARK Flexibility Score:   84.900
DOCKED: USER                              x       y       z     vdW  Elec       q    Type
DOCKED: USER                           _______ _______ _______ _____ _____    ______ ____
DOCKED: ROOT
DOCKED: ATOM      1  C   UNL     1     140.200  76.977 221.642 -0.22 -0.07    +0.242 C  
DOCKED: ATOM      2  O   UNL     1     141.014  76.755 222.588 -0.34 +0.10    -0.273 OA 
DOCKED: ENDROOT
DOCKED: BRANCH   1   3
DOCKED: ATOM      3  C   UNL     1     139.130  76.008 221.314 -0.17 -0.05    +0.216 C  
DOCKED: BRANCH   3   4
DOCKED: ATOM      4  N   UNL     1     139.245  74.849 222.181 -0.14 +0.07    -0.342 N  
DOCKED: ATOM      5  C   UNL     1     139.065  73.554 221.604 -0.15 -0.06    +0.270 C  
DOCKED: ATOM      6  O   UNL     1     138.810  73.414 220.363 -0.04 +0.05    -0.268 OA 
DOCKED: ATOM      7  H   UNL     1     139.456  74.970 223.203 -0.46 -0.02    +0.164 HD 
DOCKED: BRANCH   5   8
DOCKED: ATOM      8  C   UNL     1     139.176  72.369 222.453 -0.19 -0.03    +0.128 A  
DOCKED: ATOM      9  C   UNL     1     138.483  71.228 222.136 -0.15 -0.01    +0.035 A  
DOCKED: ATOM     10  N   UNL     1     139.945  72.340 223.564 -0.22 +0.05    -0.243 NA 
DOCKED: ATOM     11  C   UNL     1     138.522  70.066 222.870 -0.20 -0.00    +0.013 A  
DOCKED: ATOM     12  C   UNL     1     140.019  71.222 224.323 -0.41 -0.01    +0.071 A  
DOCKED: ATOM     13  C   UNL     1     139.326  70.079 224.005 -0.32 -0.00    +0.002 A  
DOCKED: ATOM     14  C   UNL     1     140.810  71.205 225.457 -0.56 -0.00    +0.030 A  
DOCKED: ATOM     15  C   UNL     1     139.372  68.919 224.748 -0.36 -0.00    +0.030 A  
DOCKED: ATOM     16  C   UNL     1     140.869  70.054 226.215 -0.53 -0.00    +0.023 A  
DOCKED: ATOM     17  C   UNL     1     140.162  68.905 225.880 -0.48 -0.01    +0.041 A  
DOCKED: ATOM     18  Cl  UNL     1     140.238  67.447 226.841 -0.67 +0.02    -0.084 Cl 
DOCKED: ENDBRANCH   5   8
DOCKED: ENDBRANCH   3   4
DOCKED: ENDBRANCH   1   3
DOCKED: BRANCH   1  19
DOCKED: ATOM     19  N   UNL     1     140.351  78.181 220.914 -0.06 +0.11    -0.334 N  
DOCKED: BRANCH  19  20
DOCKED: ATOM     20  C   UNL     1     139.121  78.766 220.360 -0.07 -0.03    +0.120 C  
DOCKED: BRANCH  20  21
DOCKED: ATOM     21  C   UNL     1     139.301  78.559 218.849 -0.04 -0.01    +0.022 C  
DOCKED: BRANCH  21  22
DOCKED: ATOM     22  C   UNL     1     139.824  79.869 218.343 -0.06 -0.00    +0.002 C  
DOCKED: BRANCH  22  23
DOCKED: ATOM     23  C   UNL     1     141.215  80.193 218.738 -0.21 -0.00    +0.003 CG0
DOCKED: ATOM     24  G   UNL     1     142.018  79.175 219.418 +0.00 +0.00    +0.000 G0 
DOCKED: ENDBRANCH  22  23
DOCKED: ENDBRANCH  21  22
DOCKED: ENDBRANCH  20  21
DOCKED: ENDBRANCH  19  20
DOCKED: BRANCH  19  25
DOCKED: ATOM     25  C   UNL     1     141.660  78.731 220.771 -0.27 -0.06    +0.115 C  
DOCKED: BRANCH  25  26
DOCKED: ATOM     26  C   UNL     1     142.020  79.169 219.408 -0.22 -0.02    +0.030 CG0
DOCKED: ATOM     27  G   UNL     1     141.215  80.193 218.737 +0.00 +0.00    +0.000 G0 
DOCKED: ENDBRANCH  25  26
DOCKED: BRANCH  25  28
DOCKED: ATOM     28  C   UNL     1     141.876  79.733 221.841 -0.45 +0.01    -0.025 A  
DOCKED: ATOM     29  C   UNL     1     142.797  79.580 222.857 -0.59 -0.00    +0.006 A  
DOCKED: ATOM     30  C   UNL     1     141.103  80.874 221.800 -0.38 -0.00    +0.006 A  
DOCKED: ATOM     31  C   UNL     1     142.933  80.561 223.812 -0.69 -0.00    +0.000 A  
DOCKED: ATOM     32  C   UNL     1     141.228  81.862 222.749 -0.38 -0.00    +0.000 A  
DOCKED: ATOM     33  C   UNL     1     142.150  81.720 223.775 -0.50 -0.00    +0.000 A  
DOCKED: ENDBRANCH  25  28
DOCKED: ENDBRANCH  19  25
DOCKED: ENDBRANCH   1  19
DOCKED: TORSDOF 5
DOCKED: TER
DOCKED: ENDMDL
________________________________________________________________________________


    FINAL DOCKED STATE:
    ________________________


Run:   17 / 20
Time taken for this run:   0.075s

DOCKED: MODEL        17
DOCKED: USER    Run = 17
DOCKED: USER
DOCKED: USER    Estimated Free Energy of Binding    =  -4.97 kcal/mol  [=(1)+(2)+(3)-(4)]
DOCKED: USER
DOCKED: USER    (1) Final Intermolecular Energy     =  -8.25 kcal/mol
DOCKED: USER        vdW + Hbond + desolv Energy     =  -8.40 kcal/mol
DOCKED: USER        Electrostatic Energy            =  -0.01 kcal/mol
DOCKED: USER        Moving Ligand-Fixed Receptor    =  -8.41 kcal/mol
DOCKED: USER        Moving Ligand-Moving Receptor   =  +0.16 kcal/mol
DOCKED: USER    (2) Final Total Internal Energy     =  -2.58 kcal/mol
DOCKED: USER    (3) Torsional Free Energy           =  +3.28 kcal/mol
DOCKED: USER    (4) Unbound System's Energy         =  -2.58 kcal/mol
DOCKED: USER
DOCKED: USER
DOCKED: REMARK SMILES O=C(NCC(=O)N1CCCCC[C@H]1c1ccccc1)c1ccc2cc(Cl)ccc2n1
DOCKED: REMARK SMILES IDX 5 1 6 2 4 3 3 4 2 5 1 6 20 8 21 9 30 10 22 11 29 12 23 13
DOCKED: REMARK SMILES IDX 28 14 24 15 27 16 25 17 26 18 7 19 8 20 9 21 10 22 11 23
DOCKED: REMARK SMILES IDX 13 25 12 26 14 28 15 29 19 30 16 31 18 32 17 33
DOCKED: REMARK H PARENT 3 7
DOCKED: REMARK Flexibility Score:   84.900
DOCKED: USER                              x       y       z     vdW  Elec       q    Type
DOCKED: USER                           _______ _______ _______ _____ _____    ______ ____
DOCKED: ROOT
DOCKED: ATOM      1  C   UNL     1     140.184  77.103 221.958 -0.26 -0.07    +0.242 C  
DOCKED: ATOM      2  O   UNL     1     140.675  75.940 222.081 -0.40 +0.06    -0.273 OA 
DOCKED: ENDROOT
DOCKED: BRANCH   1   3
DOCKED: ATOM      3  C   UNL     1     138.721  77.301 221.832 -0.17 -0.05    +0.216 C  
DOCKED: BRANCH   3   4
DOCKED: ATOM      4  N   UNL     1     138.292  78.337 222.754 -0.11 +0.06    -0.342 N  
DOCKED: ATOM      5  C   UNL     1     138.072  79.651 222.237 -0.11 -0.04    +0.270 C  
DOCKED: ATOM      6  O   UNL     1     138.245  79.912 221.001 -0.04 +0.05    -0.268 OA 
DOCKED: ATOM      7  H   UNL     1     138.151  78.117 223.771 +0.08 -0.02    +0.164 HD 
DOCKED: BRANCH   5   8
DOCKED: ATOM      8  C   UNL     1     137.639  80.715 223.142 -0.20 -0.02    +0.128 A  
DOCKED: ATOM      9  C   UNL     1     137.442  81.986 222.666 -0.16 -0.00    +0.035 A  
DOCKED: ATOM     10  N   UNL     1     137.418  80.503 224.459 -0.22 +0.02    -0.243 NA 
DOCKED: ATOM     11  C   UNL     1     137.036  83.049 223.436 -0.14 -0.00    +0.013 A  
DOCKED: ATOM     12  C   UNL     1     137.018  81.516 225.262 -0.35 -0.01    +0.071 A  
DOCKED: ATOM     13  C   UNL     1     136.820  82.789 224.786 -0.22 -0.00    +0.002 A  
DOCKED: ATOM     14  C   UNL     1     136.795  81.286 226.607 -0.37 -0.01    +0.030 A  
DOCKED: ATOM     15  C   UNL     1     136.414  83.849 225.567 -0.22 -0.00    +0.030 A  
DOCKED: ATOM     16  C   UNL     1     136.388  82.335 227.407 -0.44 -0.00    +0.023 A  
DOCKED: ATOM     17  C   UNL     1     136.193  83.617 226.910 -0.34 -0.00    +0.041 A  
DOCKED: ATOM     18  Cl  UNL     1     135.676  84.945 227.923 -0.39 -0.02    -0.084 Cl 
DOCKED: ENDBRANCH   5   8
DOCKED: ENDBRANCH   3   4
DOCKED: ENDBRANCH   1   3
DOCKED: BRANCH   1  19
DOCKED: ATOM     19  N   UNL     1     141.078  78.198 221.948 -0.17 +0.14    -0.334 N  
DOCKED: BRANCH  19  20
DOCKED: ATOM     20  C   UNL     1     141.840  78.429 223.184 -0.35 -0.05    +0.120 C  
DOCKED: BRANCH  20  21
DOCKED: ATOM     21  C   UNL     1     141.000  79.495 223.903 -0.49 -0.00    +0.022 C  
DOCKED: BRANCH  21  22
DOCKED: ATOM     22  C   UNL     1     141.566  80.803 223.441 -0.59 -0.00    +0.002 C  
DOCKED: BRANCH  22  23
DOCKED: ATOM     23  C   UNL     1     141.235  81.182 222.047 -0.43 -0.00    +0.003 CG0
DOCKED: ATOM     24  G   UNL     1     141.721  80.347 220.947 +0.00 +0.00    +0.000 G0 
DOCKED: ENDBRANCH  22  23
DOCKED: ENDBRANCH  21  22
DOCKED: ENDBRANCH  20  21
DOCKED: ENDBRANCH  19  20
DOCKED: BRANCH  19  25
DOCKED: ATOM     25  C   UNL     1     141.176  78.987 220.762 -0.25 -0.05    +0.115 C  
DOCKED: BRANCH  25  26
DOCKED: ATOM     26  C   UNL     1     141.722  80.346 220.947 -0.36 -0.01    +0.030 CG0
DOCKED: ATOM     27  G   UNL     1     141.235  81.182 222.046 +0.00 +0.00    +0.000 G0 
DOCKED: ENDBRANCH  25  26
DOCKED: BRANCH  25  28
DOCKED: ATOM     28  C   UNL     1     141.822  78.177 219.703 -0.28 +0.01    -0.025 A  
DOCKED: ATOM     29  C   UNL     1     141.683  78.431 218.354 -0.22 -0.00    +0.006 A  
DOCKED: ATOM     30  C   UNL     1     142.602  77.115 220.111 -0.27 -0.00    +0.006 A  
DOCKED: ATOM     31  C   UNL     1     142.319  77.628 217.436 -0.24 -0.00    +0.000 A  
DOCKED: ATOM     32  C   UNL     1     143.243  76.303 219.204 -0.39 -0.00    +0.000 A  
DOCKED: ATOM     33  C   UNL     1     143.111  76.549 217.846 -0.28 -0.00    +0.000 A  
DOCKED: ENDBRANCH  25  28
DOCKED: ENDBRANCH  19  25
DOCKED: ENDBRANCH   1  19
DOCKED: TORSDOF 5
DOCKED: TER
DOCKED: ENDMDL
________________________________________________________________________________


    FINAL DOCKED STATE:
    ________________________


Run:   18 / 20
Time taken for this run:   0.075s

DOCKED: MODEL        18
DOCKED: USER    Run = 18
DOCKED: USER
DOCKED: USER    Estimated Free Energy of Binding    =  -5.91 kcal/mol  [=(1)+(2)+(3)-(4)]
DOCKED: USER
DOCKED: USER    (1) Final Intermolecular Energy     =  -9.19 kcal/mol
DOCKED: USER        vdW + Hbond + desolv Energy     =  -9.69 kcal/mol
DOCKED: USER        Electrostatic Energy            =  +0.05 kcal/mol
DOCKED: USER        Moving Ligand-Fixed Receptor    =  -9.64 kcal/mol
DOCKED: USER        Moving Ligand-Moving Receptor   =  +0.45 kcal/mol
DOCKED: USER    (2) Final Total Internal Energy     =  -2.29 kcal/mol
DOCKED: USER    (3) Torsional Free Energy           =  +3.28 kcal/mol
DOCKED: USER    (4) Unbound System's Energy         =  -2.29 kcal/mol
DOCKED: USER
DOCKED: USER
DOCKED: REMARK SMILES O=C(NCC(=O)N1CCCCC[C@H]1c1ccccc1)c1ccc2cc(Cl)ccc2n1
DOCKED: REMARK SMILES IDX 5 1 6 2 4 3 3 4 2 5 1 6 20 8 21 9 30 10 22 11 29 12 23 13
DOCKED: REMARK SMILES IDX 28 14 24 15 27 16 25 17 26 18 7 19 8 20 9 21 10 22 11 23
DOCKED: REMARK SMILES IDX 13 25 12 26 14 28 15 29 19 30 16 31 18 32 17 33
DOCKED: REMARK H PARENT 3 7
DOCKED: REMARK Flexibility Score:   84.900
DOCKED: USER                              x       y       z     vdW  Elec       q    Type
DOCKED: USER                           _______ _______ _______ _____ _____    ______ ____
DOCKED: ROOT
DOCKED: ATOM      1  C   UNL     1     140.613  75.501 220.829 -0.18 -0.07    +0.242 C  
DOCKED: ATOM      2  O   UNL     1     141.358  75.800 221.811 -0.32 +0.10    -0.273 OA 
DOCKED: ENDROOT
DOCKED: BRANCH   1   3
DOCKED: ATOM      3  C   UNL     1     139.394  74.683 221.019 -0.15 -0.05    +0.216 C  
DOCKED: BRANCH   3   4
DOCKED: ATOM      4  N   UNL     1     139.566  73.819 222.174 -0.13 +0.06    -0.342 N  
DOCKED: ATOM      5  C   UNL     1     139.606  72.407 221.960 -0.17 -0.05    +0.270 C  
DOCKED: ATOM      6  O   UNL     1     139.494  71.913 220.791 -0.05 +0.05    -0.268 OA 
DOCKED: ATOM      7  H   UNL     1     139.658  74.232 223.136 -0.44 +0.00    +0.164 HD 
DOCKED: BRANCH   5   8
DOCKED: ATOM      8  C   UNL     1     139.779  71.514 223.105 -0.29 -0.02    +0.128 A  
DOCKED: ATOM      9  C   UNL     1     139.472  70.181 222.991 -0.22 -0.01    +0.035 A  
DOCKED: ATOM     10  N   UNL     1     140.236  71.945 224.302 -0.23 +0.04    -0.243 NA 
DOCKED: ATOM     11  C   UNL     1     139.600  69.265 224.007 -0.23 -0.00    +0.013 A  
DOCKED: ATOM     12  C   UNL     1     140.382  71.084 225.335 -0.50 -0.01    +0.071 A  
DOCKED: ATOM     13  C   UNL     1     140.075  69.751 225.222 -0.43 -0.00    +0.002 A  
DOCKED: ATOM     14  C   UNL     1     140.851  71.539 226.554 -0.68 -0.00    +0.030 A  
DOCKED: ATOM     15  C   UNL     1     140.206  68.839 226.247 -0.53 -0.01    +0.030 A  
DOCKED: ATOM     16  C   UNL     1     140.990  70.642 227.594 -0.63 -0.00    +0.023 A  
DOCKED: ATOM     17  C   UNL     1     140.675  69.295 227.463 -0.58 -0.01    +0.041 A  
DOCKED: ATOM     18  Cl  UNL     1     140.852  68.160 228.781 -0.62 +0.02    -0.084 Cl 
DOCKED: ENDBRANCH   5   8
DOCKED: ENDBRANCH   3   4
DOCKED: ENDBRANCH   1   3
DOCKED: BRANCH   1  19
DOCKED: ATOM     19  N   UNL     1     140.988  75.977 219.550 -0.03 +0.12    -0.334 N  
DOCKED: BRANCH  19  20
DOCKED: ATOM     20  C   UNL     1     140.588  77.354 219.224 -0.09 -0.05    +0.120 C  
DOCKED: BRANCH  20  21
DOCKED: ATOM     21  C   UNL     1     141.907  78.129 219.364 -0.27 -0.01    +0.022 C  
DOCKED: BRANCH  21  22
DOCKED: ATOM     22  C   UNL     1     142.471  78.176 217.977 -0.30 -0.00    +0.002 C  
DOCKED: BRANCH  22  23
DOCKED: ATOM     23  C   UNL     1     143.044  76.902 217.480 -0.27 -0.00    +0.003 CG0
DOCKED: ATOM     24  G   UNL     1     142.193  75.710 217.429 +0.00 +0.00    +0.000 G0 
DOCKED: ENDBRANCH  22  23
DOCKED: ENDBRANCH  21  22
DOCKED: ENDBRANCH  20  21
DOCKED: ENDBRANCH  19  20
DOCKED: BRANCH  19  25
DOCKED: ATOM     25  C   UNL     1     141.713  75.104 218.684 -0.09 -0.04    +0.115 C  
DOCKED: BRANCH  25  26
DOCKED: ATOM     26  C   UNL     1     142.193  75.711 217.427 -0.12 -0.01    +0.030 CG0
DOCKED: ATOM     27  G   UNL     1     143.043  76.903 217.474 +0.00 +0.00    +0.000 G0 
DOCKED: ENDBRANCH  25  26
DOCKED: BRANCH  25  28
DOCKED: ATOM     28  C   UNL     1     142.737  74.387 219.479 -0.23 +0.01    -0.025 A  
DOCKED: ATOM     29  C   UNL     1     142.595  73.084 219.912 -0.21 -0.00    +0.006 A  
DOCKED: ATOM     30  C   UNL     1     143.889  75.078 219.791 -0.40 -0.00    +0.006 A  
DOCKED: ATOM     31  C   UNL     1     143.598  72.493 220.646 -0.32 -0.00    +0.000 A  
DOCKED: ATOM     32  C   UNL     1     144.898  74.500 220.525 -0.49 -0.00    +0.000 A  
DOCKED: ATOM     33  C   UNL     1     144.768  73.192 220.966 -0.49 -0.00    +0.000 A  
DOCKED: ENDBRANCH  25  28
DOCKED: ENDBRANCH  19  25
DOCKED: ENDBRANCH   1  19
DOCKED: TORSDOF 5
DOCKED: TER
DOCKED: ENDMDL
________________________________________________________________________________


    FINAL DOCKED STATE:
    ________________________


Run:   19 / 20
Time taken for this run:   0.075s

DOCKED: MODEL        19
DOCKED: USER    Run = 19
DOCKED: USER
DOCKED: USER    Estimated Free Energy of Binding    =  -6.38 kcal/mol  [=(1)+(2)+(3)-(4)]
DOCKED: USER
DOCKED: USER    (1) Final Intermolecular Energy     =  -9.66 kcal/mol
DOCKED: USER        vdW + Hbond + desolv Energy     = -10.22 kcal/mol
DOCKED: USER        Electrostatic Energy            =  +0.01 kcal/mol
DOCKED: USER        Moving Ligand-Fixed Receptor    = -10.21 kcal/mol
DOCKED: USER        Moving Ligand-Moving Receptor   =  +0.55 kcal/mol
DOCKED: USER    (2) Final Total Internal Energy     =  -2.21 kcal/mol
DOCKED: USER    (3) Torsional Free Energy           =  +3.28 kcal/mol
DOCKED: USER    (4) Unbound System's Energy         =  -2.21 kcal/mol
DOCKED: USER
DOCKED: USER
DOCKED: REMARK SMILES O=C(NCC(=O)N1CCCCC[C@H]1c1ccccc1)c1ccc2cc(Cl)ccc2n1
DOCKED: REMARK SMILES IDX 5 1 6 2 4 3 3 4 2 5 1 6 20 8 21 9 30 10 22 11 29 12 23 13
DOCKED: REMARK SMILES IDX 28 14 24 15 27 16 25 17 26 18 7 19 8 20 9 21 10 22 11 23
DOCKED: REMARK SMILES IDX 13 25 12 26 14 28 15 29 19 30 16 31 18 32 17 33
DOCKED: REMARK H PARENT 3 7
DOCKED: REMARK Flexibility Score:   84.900
DOCKED: USER                              x       y       z     vdW  Elec       q    Type
DOCKED: USER                           _______ _______ _______ _____ _____    ______ ____
DOCKED: ROOT
DOCKED: ATOM      1  C   UNL     1     140.855  75.905 221.080 -0.21 -0.08    +0.242 C  
DOCKED: ATOM      2  O   UNL     1     141.047  76.563 222.146 -0.32 +0.10    -0.273 OA 
DOCKED: ENDROOT
DOCKED: BRANCH   1   3
DOCKED: ATOM      3  C   UNL     1     139.738  74.939 220.973 -0.16 -0.05    +0.216 C  
DOCKED: BRANCH   3   4
DOCKED: ATOM      4  N   UNL     1     139.756  74.049 222.120 -0.11 +0.04    -0.342 N  
DOCKED: ATOM      5  C   UNL     1     140.061  72.671 221.898 -0.19 -0.04    +0.270 C  
DOCKED: ATOM      6  O   UNL     1     140.311  72.229 220.729 -0.08 +0.04    -0.268 OA 
DOCKED: ATOM      7  H   UNL     1     139.549  74.418 223.081 -0.52 -0.01    +0.164 HD 
DOCKED: BRANCH   5   8
DOCKED: ATOM      8  C   UNL     1     140.087  71.750 223.035 -0.30 -0.02    +0.128 A  
DOCKED: ATOM      9  C   UNL     1     139.590  70.478 222.902 -0.24 -0.01    +0.035 A  
DOCKED: ATOM     10  N   UNL     1     140.587  72.099 224.241 -0.14 +0.03    -0.243 NA 
DOCKED: ATOM     11  C   UNL     1     139.570  69.544 223.909 -0.27 -0.00    +0.013 A  
DOCKED: ATOM     12  C   UNL     1     140.591  71.217 225.267 -0.51 -0.01    +0.071 A  
DOCKED: ATOM     13  C   UNL     1     140.095  69.943 225.135 -0.43 -0.00    +0.002 A  
DOCKED: ATOM     14  C   UNL     1     141.106  71.586 226.496 -0.69 -0.00    +0.030 A  
DOCKED: ATOM     15  C   UNL     1     140.079  69.013 226.151 -0.51 -0.01    +0.030 A  
DOCKED: ATOM     16  C   UNL     1     141.099  70.669 227.527 -0.61 -0.00    +0.023 A  
DOCKED: ATOM     17  C   UNL     1     140.593  69.384 227.377 -0.57 -0.01    +0.041 A  
DOCKED: ATOM     18  Cl  UNL     1     140.585  68.223 228.684 -0.60 +0.02    -0.084 Cl 
DOCKED: ENDBRANCH   5   8
DOCKED: ENDBRANCH   3   4
DOCKED: ENDBRANCH   1   3
DOCKED: BRANCH   1  19
DOCKED: ATOM     19  N   UNL     1     141.743  76.125 220.001 -0.10 +0.15    -0.334 N  
DOCKED: BRANCH  19  20
DOCKED: ATOM     20  C   UNL     1     142.212  77.506 219.815 -0.26 -0.08    +0.120 C  
DOCKED: BRANCH  20  21
DOCKED: ATOM     21  C   UNL     1     141.394  77.979 218.604 -0.19 -0.01    +0.022 C  
DOCKED: BRANCH  21  22
DOCKED: ATOM     22  C   UNL     1     142.320  77.828 217.435 -0.25 -0.00    +0.002 C  
DOCKED: BRANCH  22  23
DOCKED: ATOM     23  C   UNL     1     142.995  76.514 217.325 -0.25 -0.00    +0.003 CG0
DOCKED: ATOM     24  G   UNL     1     142.280  75.307 217.746 +0.00 +0.00    +0.000 G0 
DOCKED: ENDBRANCH  22  23
DOCKED: ENDBRANCH  21  22
DOCKED: ENDBRANCH  20  21
DOCKED: ENDBRANCH  19  20
DOCKED: BRANCH  19  25
DOCKED: ATOM     25  C   UNL     1     142.114  75.014 219.185 -0.15 -0.04    +0.115 C  
DOCKED: BRANCH  25  26
DOCKED: ATOM     26  C   UNL     1     142.280  75.308 217.749 -0.12 -0.01    +0.030 CG0
DOCKED: ATOM     27  G   UNL     1     142.997  76.516 217.332 +0.00 +0.00    +0.000 G0 
DOCKED: ENDBRANCH  25  26
DOCKED: BRANCH  25  28
DOCKED: ATOM     28  C   UNL     1     143.246  74.307 219.828 -0.31 +0.01    -0.025 A  
DOCKED: ATOM     29  C   UNL     1     144.452  74.908 220.127 -0.41 -0.00    +0.006 A  
DOCKED: ATOM     30  C   UNL     1     143.062  72.976 220.139 -0.26 -0.00    +0.006 A  
DOCKED: ATOM     31  C   UNL     1     145.452  74.177 220.726 -0.59 -0.00    +0.000 A  
DOCKED: ATOM     32  C   UNL     1     144.053  72.233 220.737 -0.36 -0.00    +0.000 A  
DOCKED: ATOM     33  C   UNL     1     145.270  72.825 221.042 -0.52 -0.00    +0.000 A  
DOCKED: ENDBRANCH  25  28
DOCKED: ENDBRANCH  19  25
DOCKED: ENDBRANCH   1  19
DOCKED: TORSDOF 5
DOCKED: TER
DOCKED: ENDMDL
________________________________________________________________________________


    FINAL DOCKED STATE:
    ________________________


Run:   20 / 20
Time taken for this run:   0.075s

DOCKED: MODEL        20
DOCKED: USER    Run = 20
DOCKED: USER
DOCKED: USER    Estimated Free Energy of Binding    =  -6.22 kcal/mol  [=(1)+(2)+(3)-(4)]
DOCKED: USER
DOCKED: USER    (1) Final Intermolecular Energy     =  -9.51 kcal/mol
DOCKED: USER        vdW + Hbond + desolv Energy     =  -9.59 kcal/mol
DOCKED: USER        Electrostatic Energy            =  -0.03 kcal/mol
DOCKED: USER        Moving Ligand-Fixed Receptor    =  -9.62 kcal/mol
DOCKED: USER        Moving Ligand-Moving Receptor   =  +0.11 kcal/mol
DOCKED: USER    (2) Final Total Internal Energy     =  -1.91 kcal/mol
DOCKED: USER    (3) Torsional Free Energy           =  +3.28 kcal/mol
DOCKED: USER    (4) Unbound System's Energy         =  -1.91 kcal/mol
DOCKED: USER
DOCKED: USER
DOCKED: REMARK SMILES O=C(NCC(=O)N1CCCCC[C@H]1c1ccccc1)c1ccc2cc(Cl)ccc2n1
DOCKED: REMARK SMILES IDX 5 1 6 2 4 3 3 4 2 5 1 6 20 8 21 9 30 10 22 11 29 12 23 13
DOCKED: REMARK SMILES IDX 28 14 24 15 27 16 25 17 26 18 7 19 8 20 9 21 10 22 11 23
DOCKED: REMARK SMILES IDX 13 25 12 26 14 28 15 29 19 30 16 31 18 32 17 33
DOCKED: REMARK H PARENT 3 7
DOCKED: REMARK Flexibility Score:   84.900
DOCKED: USER                              x       y       z     vdW  Elec       q    Type
DOCKED: USER                           _______ _______ _______ _____ _____    ______ ____
DOCKED: ROOT
DOCKED: ATOM      1  C   UNL     1     138.005  71.461 223.129 -0.14 -0.06    +0.242 C  
DOCKED: ATOM      2  O   UNL     1     137.370  71.809 224.170 -0.07 +0.09    -0.273 OA 
DOCKED: ENDROOT
DOCKED: BRANCH   1   3
DOCKED: ATOM      3  C   UNL     1     137.869  72.220 221.865 -0.10 -0.05    +0.216 C  
DOCKED: BRANCH   3   4
DOCKED: ATOM      4  N   UNL     1     138.390  73.563 222.048 -0.06 +0.11    -0.342 N  
DOCKED: ATOM      5  C   UNL     1     139.483  73.980 221.227 -0.14 -0.05    +0.270 C  
DOCKED: ATOM      6  O   UNL     1     139.989  73.200 220.357 -0.06 +0.05    -0.268 OA 
DOCKED: ATOM      7  H   UNL     1     137.968  74.202 222.768 -0.52 -0.09    +0.164 HD 
DOCKED: BRANCH   5   8
DOCKED: ATOM      8  C   UNL     1     140.028  75.327 221.390 -0.25 -0.03    +0.128 A  
DOCKED: ATOM      9  C   UNL     1     141.160  75.698 220.709 -0.26 -0.01    +0.035 A  
DOCKED: ATOM     10  N   UNL     1     139.459  76.249 222.198 -0.25 +0.05    -0.243 NA 
DOCKED: ATOM     11  C   UNL     1     141.747  76.938 220.796 -0.23 -0.01    +0.013 A  
DOCKED: ATOM     12  C   UNL     1     139.996  77.485 222.320 -0.34 -0.02    +0.071 A  
DOCKED: ATOM     13  C   UNL     1     141.129  77.857 221.639 -0.37 -0.00    +0.002 A  
DOCKED: ATOM     14  C   UNL     1     139.404  78.419 223.150 -0.26 -0.00    +0.030 A  
DOCKED: ATOM     15  C   UNL     1     141.711  79.103 221.733 -0.41 -0.01    +0.030 A  
DOCKED: ATOM     16  C   UNL     1     139.971  79.672 223.258 -0.41 -0.00    +0.023 A  
DOCKED: ATOM     17  C   UNL     1     141.118  80.033 222.563 -0.42 -0.01    +0.041 A  
DOCKED: ATOM     18  Cl  UNL     1     141.835  81.622 222.700 -0.54 +0.01    -0.084 Cl 
DOCKED: ENDBRANCH   5   8
DOCKED: ENDBRANCH   3   4
DOCKED: ENDBRANCH   1   3
DOCKED: BRANCH   1  19
DOCKED: ATOM     19  N   UNL     1     138.845  70.326 223.219 -0.10 +0.06    -0.334 N  
DOCKED: BRANCH  19  20
DOCKED: ATOM     20  C   UNL     1     139.697  70.052 222.052 -0.09 -0.02    +0.120 C  
DOCKED: BRANCH  20  21
DOCKED: ATOM     21  C   UNL     1     138.825  69.105 221.214 -0.13 -0.00    +0.022 C  
DOCKED: BRANCH  21  22
DOCKED: ATOM     22  C   UNL     1     139.149  67.734 221.724 -0.17 -0.00    +0.002 C  
DOCKED: BRANCH  22  23
DOCKED: ATOM     23  C   UNL     1     138.588  67.403 223.055 -0.19 -0.00    +0.003 CG0
DOCKED: ATOM     24  G   UNL     1     139.092  68.106 224.236 +0.00 +0.00    +0.000 G0 
DOCKED: ENDBRANCH  22  23
DOCKED: ENDBRANCH  21  22
DOCKED: ENDBRANCH  20  21
DOCKED: ENDBRANCH  19  20
DOCKED: BRANCH  19  25
DOCKED: ATOM     25  C   UNL     1     138.807  69.543 224.412 -0.29 -0.02    +0.115 C  
DOCKED: BRANCH  25  26
DOCKED: ATOM     26  C   UNL     1     139.092  68.106 224.237 -0.25 -0.00    +0.030 CG0
DOCKED: ATOM     27  G   UNL     1     138.589  67.403 223.055 +0.00 +0.00    +0.000 G0 
DOCKED: ENDBRANCH  25  26
DOCKED: BRANCH  25  28
DOCKED: ATOM     28  C   UNL     1     139.601  70.230 225.458 -0.43 +0.00    -0.025 A  
DOCKED: ATOM     29  C   UNL     1     140.411  71.319 225.211 -0.54 -0.00    +0.006 A  
DOCKED: ATOM     30  C   UNL     1     139.509  69.736 226.742 -0.48 -0.00    +0.006 A  
DOCKED: ATOM     31  C   UNL     1     141.115  71.898 226.242 -0.66 -0.00    +0.000 A  
DOCKED: ATOM     32  C   UNL     1     140.207  70.304 227.783 -0.64 -0.00    +0.000 A  
DOCKED: ATOM     33  C   UNL     1     141.025  71.399 227.547 -0.77 -0.00    +0.000 A  
DOCKED: ENDBRANCH  25  28
DOCKED: ENDBRANCH  19  25
DOCKED: ENDBRANCH   1  19
DOCKED: TORSDOF 5
DOCKED: TER
DOCKED: ENDMDL
________________________________________________________________________________


    CLUSTERING HISTOGRAM
    ____________________


________________________________________________________________________________
     |           |     |           |     |
Clus | Lowest    | Run | Mean      | Num | Histogram
-ter | Binding   |     | Binding   | in  |
Rank | Energy    |     | Energy    | Clus|    5    10   15   20   25   30   35
_____|___________|_____|___________|_____|____:____|____:____|____:____|____:___
   1 |     -7.04 |   7 |     -6.11 |   5 |#####
   2 |     -6.38 |  19 |     -6.18 |   3 |###
   3 |     -6.22 |  20 |     -6.22 |   1 |#
   4 |     -6.13 |   8 |     -6.13 |   1 |#
   5 |     -5.57 |   2 |     -5.57 |   1 |#
   6 |     -5.57 |  15 |     -5.27 |   3 |###
   7 |     -5.40 |   1 |     -5.40 |   1 |#
   8 |     -4.97 |  17 |     -4.97 |   1 |#
   9 |     -4.89 |   4 |     -4.89 |   1 |#
  10 |     -4.67 |   6 |     -4.45 |   2 |##
  11 |     -4.26 |  13 |     -4.26 |   1 |#
_____|___________|_____|___________|_____|______________________________________


    RMSD TABLE
    __________


_______________________________________________________________________
     |      |      |           |         |                 |
Rank | Sub- | Run  | Binding   | Cluster | Reference       | Grep
     | Rank |      | Energy    | RMSD    | RMSD            | Pattern
_____|______|______|___________|_________|_________________|___________
   1      1      7       -7.04      0.00    271.26           RANKING
   1      2     12       -6.29      1.99    271.31           RANKING
   1      3      9       -5.94      0.49    271.14           RANKING
   1      4     11       -5.70      1.76    270.93           RANKING
   1      5     16       -5.61      1.13    270.87           RANKING
   2      1     19       -6.38      0.00    270.52           RANKING
   2      2     14       -6.26      0.37    270.51           RANKING
   2      3     18       -5.91      0.56    270.36           RANKING
   3      1     20       -6.22      0.00    270.55           RANKING
   4      1      8       -6.13      0.00    270.63           RANKING
   5      1      2       -5.57      0.00    270.42           RANKING
   6      1     15       -5.57      0.00    270.71           RANKING
   6      2      3       -5.45      1.83    270.13           RANKING
   6      3     10       -4.80      1.65    271.15           RANKING
   7      1      1       -5.40      0.00    270.92           RANKING
   8      1     17       -4.97      0.00    271.95           RANKING
   9      1      4       -4.89      0.00    272.10           RANKING
  10      1      6       -4.67      0.00    271.22           RANKING
  10      2      5       -4.22      1.01    271.28           RANKING
  11      1     13       -4.26      0.00    271.86           RANKING

Run time 1.465 sec
Idle time 0.000 sec
