AutoDock-GPU version: v1.6

**********************************************************
**    AutoDock-GPU AUTODOCKTOOLS-COMPATIBLE DLG FILE    **
**********************************************************


    DOCKING PARAMETERS
    ________________________


Ligand file:                               /home/a/REINVENT4/ReinventStudies/pleaseWork/justmol2mol_4_Compounds_ontop/graph-dock-hn62wh/graph-DockGPU/node-autodockgpu/inputs/DCCARDAELLDDNW-NJNQMDBZNA-N.pdbqt
Grid fld file:                             /home/a/REINVENT4/ReinventStudies/mols/Rad51/maps/rad51_receptor.maps.fld

Random seed:                               42
Number of runs:                            20
Number of energy evaluations:              3119281
Number of generations:                     42000
Size of population:                        150
Rate of crossover:                         80.000000%
Tournament selection probability limit:    60.000000%
Rate of mutation:                          2.000000%
Maximal allowed delta movement:            +/- 6.000000A
Maximal allowed delta angle:               +/- 90.000000

Rate of local search:                      100.000000%
Maximal number of local search iterations: 300
Rho lower bound:                           0.010000
Spread of local search delta movement:     2.000000A
Spread of local search delta angle:        74.999999
Limit of consecutive successes/failures:   4

Handle symmetry during clustering:         YES
RMSD tolerance:                            2.000000A

Program call in command line was:          /home/a/REINVENT4/ReinventStudies/adgpu-v1.6_linux_x64_cuda12_128wi --filelist batch.txt --heuristics 1 --nrun 20 --psize 150 --lsit 300 --seed 42 --heurmax 12000000 


    GRID PARAMETERS
    ________________________


Receptor name:                             rad51_receptor
Number of grid points (x, y, z):           53, 53, 53
Grid center (x, y, z):                     139.950000, 75.640000, 221.970000A
Grid size (x, y, z):                       19.500000, 19.500000, 19.500000A
Grid spacing:                              0.375000A


    LIGAND PARAMETERS
    ________________________


Ligand name:                               /home/a/REINVENT4/ReinventStudies/pleaseWork/justmol2mol_4_Compounds_ontop/graph-dock-hn62wh/graph-DockGPU/node-autodockgpu/inputs/DCCARDAELLDDNW-NJNQMDBZNA-N
Number of atoms:                           33
Number of rotatable bonds:                 11
Number of atom types:                      9


    DUMMY DATA (only for ADT-compatibility)
    ________________________


DPF> outlev 1
DPF> ga_run 20
DPF> fld /home/a/REINVENT4/ReinventStudies/mols/Rad51/maps/rad51_receptor.maps.fld
DPF> move /home/a/REINVENT4/ReinventStudies/pleaseWork/justmol2mol_4_Compounds_ontop/graph-dock-hn62wh/graph-DockGPU/node-autodockgpu/inputs/DCCARDAELLDDNW-NJNQMDBZNA-N.pdbqt


    COUNTER STATES
    ________________________


Number of energy evaluations performed:    968412
Number of generations used:                75


    INPUT LIGAND PDBQT FILE:
    ________________________


INPUT-LIGAND-PDBQT: REMARK SMILES O=C(NCC(=O)N1CCCCC[C@@H]1c1ccccc1)c1ccc2cc(Cl)ccc2n1
INPUT-LIGAND-PDBQT: REMARK SMILES IDX 5 1 6 2 4 3 3 4 2 5 1 6 20 8 21 9 30 10 22 11 29 12 23 13
INPUT-LIGAND-PDBQT: REMARK SMILES IDX 28 14 24 15 27 16 25 17 26 18 7 19 8 20 9 21 10 22 11 23
INPUT-LIGAND-PDBQT: REMARK SMILES IDX 13 25 12 26 14 28 15 29 19 30 16 31 18 32 17 33
INPUT-LIGAND-PDBQT: REMARK H PARENT 3 7
INPUT-LIGAND-PDBQT: REMARK Flexibility Score:   84.900
INPUT-LIGAND-PDBQT: ROOT
INPUT-LIGAND-PDBQT: ATOM      1  C   UNL     1      -0.633   0.425   0.324  1.00  0.00     0.242 C 
INPUT-LIGAND-PDBQT: ATOM      2  O   UNL     1       0.043   0.674   1.361  1.00  0.00    -0.273 OA
INPUT-LIGAND-PDBQT: ENDROOT
INPUT-LIGAND-PDBQT: BRANCH   1   3
INPUT-LIGAND-PDBQT: ATOM      3  C   UNL     1      -0.028  -0.105  -0.903  1.00  0.00     0.216 C 
INPUT-LIGAND-PDBQT: BRANCH   3   4
INPUT-LIGAND-PDBQT: ATOM      4  N   UNL     1       1.402  -0.295  -0.707  1.00  0.00    -0.342 N 
INPUT-LIGAND-PDBQT: ATOM      5  C   UNL     1       2.160   0.859  -0.378  1.00  0.00     0.270 C 
INPUT-LIGAND-PDBQT: ATOM      6  O   UNL     1       1.648   1.998  -0.256  1.00  0.00    -0.268 OA
INPUT-LIGAND-PDBQT: ATOM      7  H   UNL     1       1.812  -1.249  -0.813  1.00  0.00     0.164 HD
INPUT-LIGAND-PDBQT: BRANCH   5   8
INPUT-LIGAND-PDBQT: ATOM      8  C   UNL     1       3.609   0.704  -0.173  1.00  0.00     0.128 A 
INPUT-LIGAND-PDBQT: ATOM      9  C   UNL     1       4.403   1.777   0.147  1.00  0.00     0.035 A 
INPUT-LIGAND-PDBQT: ATOM     10  N   UNL     1       4.218  -0.501  -0.292  1.00  0.00    -0.243 NA
INPUT-LIGAND-PDBQT: ATOM     11  C   UNL     1       5.774   1.670   0.348  1.00  0.00     0.013 A 
INPUT-LIGAND-PDBQT: ATOM     12  C   UNL     1       5.548  -0.654  -0.106  1.00  0.00     0.071 A 
INPUT-LIGAND-PDBQT: ATOM     13  C   UNL     1       6.338   0.419   0.214  1.00  0.00     0.002 A 
INPUT-LIGAND-PDBQT: ATOM     14  C   UNL     1       6.122  -1.900  -0.237  1.00  0.00     0.030 A 
INPUT-LIGAND-PDBQT: ATOM     15  C   UNL     1       7.705   0.272   0.407  1.00  0.00     0.030 A 
INPUT-LIGAND-PDBQT: ATOM     16  C   UNL     1       7.476  -2.049  -0.046  1.00  0.00     0.023 A 
INPUT-LIGAND-PDBQT: ATOM     17  C   UNL     1       8.277  -0.974   0.276  1.00  0.00     0.041 A 
INPUT-LIGAND-PDBQT: ATOM     18  Cl  UNL     1       9.991  -1.128   0.523  1.00  0.00    -0.084 Cl
INPUT-LIGAND-PDBQT: ENDBRANCH   5   8
INPUT-LIGAND-PDBQT: ENDBRANCH   3   4
INPUT-LIGAND-PDBQT: ENDBRANCH   1   3
INPUT-LIGAND-PDBQT: BRANCH   1  19
INPUT-LIGAND-PDBQT: ATOM     19  N   UNL     1      -2.052   0.708   0.454  1.00  0.00    -0.334 N 
INPUT-LIGAND-PDBQT: BRANCH  19  20
INPUT-LIGAND-PDBQT: ATOM     20  C   UNL     1      -2.360   1.228   1.744  1.00  0.00     0.120 C 
INPUT-LIGAND-PDBQT: BRANCH  20  21
INPUT-LIGAND-PDBQT: ATOM     21  C   UNL     1      -3.639   1.835   2.034  1.00  0.00     0.022 C 
INPUT-LIGAND-PDBQT: BRANCH  21  22
INPUT-LIGAND-PDBQT: ATOM     22  C   UNL     1      -4.771   1.749   1.088  1.00  0.00     0.002 C 
INPUT-LIGAND-PDBQT: BRANCH  22  23
INPUT-LIGAND-PDBQT: ATOM     23  C   UNL     1      -4.500   2.213  -0.289  1.00  0.00     0.003 CG0
INPUT-LIGAND-PDBQT: ATOM     24  G   UNL     1      -3.765   1.369  -1.220  1.00  0.00     0.000 G0
INPUT-LIGAND-PDBQT: ENDBRANCH  22  23
INPUT-LIGAND-PDBQT: ENDBRANCH  21  22
INPUT-LIGAND-PDBQT: ENDBRANCH  20  21
INPUT-LIGAND-PDBQT: ENDBRANCH  19  20
INPUT-LIGAND-PDBQT: BRANCH  19  25
INPUT-LIGAND-PDBQT: ATOM     25  C   UNL     1      -2.778   0.383  -0.744  1.00  0.00     0.115 C 
INPUT-LIGAND-PDBQT: BRANCH  25  26
INPUT-LIGAND-PDBQT: ATOM     26  C   UNL     1      -3.765   1.369  -1.220  1.00  0.00     0.030 CG0
INPUT-LIGAND-PDBQT: ATOM     27  G   UNL     1      -4.500   2.213  -0.289  1.00  0.00     0.000 G0
INPUT-LIGAND-PDBQT: ENDBRANCH  25  26
INPUT-LIGAND-PDBQT: BRANCH  25  28
INPUT-LIGAND-PDBQT: ATOM     28  C   UNL     1      -3.281  -1.023  -0.642  1.00  0.00    -0.025 A 
INPUT-LIGAND-PDBQT: ATOM     29  C   UNL     1      -3.257  -1.889  -1.739  1.00  0.00     0.006 A 
INPUT-LIGAND-PDBQT: ATOM     30  C   UNL     1      -3.787  -1.556   0.522  1.00  0.00     0.006 A 
INPUT-LIGAND-PDBQT: ATOM     31  C   UNL     1      -3.706  -3.185  -1.669  1.00  0.00     0.000 A 
INPUT-LIGAND-PDBQT: ATOM     32  C   UNL     1      -4.247  -2.865   0.613  1.00  0.00     0.000 A 
INPUT-LIGAND-PDBQT: ATOM     33  C   UNL     1      -4.207  -3.689  -0.489  1.00  0.00     0.000 A 
INPUT-LIGAND-PDBQT: ENDBRANCH  25  28
INPUT-LIGAND-PDBQT: ENDBRANCH  19  25
INPUT-LIGAND-PDBQT: ENDBRANCH   1  19
INPUT-LIGAND-PDBQT: TORSDOF 5


    FINAL DOCKED STATE:
    ________________________


Run:   1 / 20
Time taken for this run:   0.048s

DOCKED: MODEL        1
DOCKED: USER    Run = 1
DOCKED: USER
DOCKED: USER    Estimated Free Energy of Binding    =  -6.05 kcal/mol  [=(1)+(2)+(3)-(4)]
DOCKED: USER
DOCKED: USER    (1) Final Intermolecular Energy     =  -9.33 kcal/mol
DOCKED: USER        vdW + Hbond + desolv Energy     = -10.61 kcal/mol
DOCKED: USER        Electrostatic Energy            =  -0.02 kcal/mol
DOCKED: USER        Moving Ligand-Fixed Receptor    = -10.63 kcal/mol
DOCKED: USER        Moving Ligand-Moving Receptor   =  +1.30 kcal/mol
DOCKED: USER    (2) Final Total Internal Energy     =  -1.71 kcal/mol
DOCKED: USER    (3) Torsional Free Energy           =  +3.28 kcal/mol
DOCKED: USER    (4) Unbound System's Energy         =  -1.71 kcal/mol
DOCKED: USER
DOCKED: USER
DOCKED: REMARK SMILES O=C(NCC(=O)N1CCCCC[C@@H]1c1ccccc1)c1ccc2cc(Cl)ccc2n1
DOCKED: REMARK SMILES IDX 5 1 6 2 4 3 3 4 2 5 1 6 20 8 21 9 30 10 22 11 29 12 23 13
DOCKED: REMARK SMILES IDX 28 14 24 15 27 16 25 17 26 18 7 19 8 20 9 21 10 22 11 23
DOCKED: REMARK SMILES IDX 13 25 12 26 14 28 15 29 19 30 16 31 18 32 17 33
DOCKED: REMARK H PARENT 3 7
DOCKED: REMARK Flexibility Score:   84.900
DOCKED: USER                              x       y       z     vdW  Elec       q    Type
DOCKED: USER                           _______ _______ _______ _____ _____    ______ ____
DOCKED: ROOT
DOCKED: ATOM      1  C   UNL     1     140.716  75.891 221.025 -0.20 -0.07    +0.242 C  
DOCKED: ATOM      2  O   UNL     1     141.449  75.862 222.053 -0.30 +0.10    -0.273 OA 
DOCKED: ENDROOT
DOCKED: BRANCH   1   3
DOCKED: ATOM      3  C   UNL     1     139.550  75.015 220.863 -0.14 -0.05    +0.216 C  
DOCKED: BRANCH   3   4
DOCKED: ATOM      4  N   UNL     1     139.471  74.086 221.981 -0.15 +0.06    -0.342 N  
DOCKED: ATOM      5  C   UNL     1     140.252  72.905 221.887 -0.20 -0.03    +0.270 C  
DOCKED: ATOM      6  O   UNL     1     140.985  72.650 220.901 -0.13 +0.04    -0.268 OA 
DOCKED: ATOM      7  H   UNL     1     138.856  74.313 222.793 -0.56 -0.07    +0.164 HD 
DOCKED: BRANCH   5   8
DOCKED: ATOM      8  C   UNL     1     140.196  71.944 223.000 -0.30 -0.02    +0.128 A  
DOCKED: ATOM      9  C   UNL     1     139.646  70.696 222.837 -0.25 -0.01    +0.035 A  
DOCKED: ATOM     10  N   UNL     1     140.682  72.249 224.227 -0.04 +0.02    -0.243 NA 
DOCKED: ATOM     11  C   UNL     1     139.575  69.762 223.863 -0.28 -0.00    +0.013 A  
DOCKED: ATOM     12  C   UNL     1     140.634  71.373 225.256 -0.51 -0.01    +0.071 A  
DOCKED: ATOM     13  C   UNL     1     140.086  70.128 225.090 -0.44 -0.00    +0.002 A  
DOCKED: ATOM     14  C   UNL     1     141.142  71.729 226.486 -0.69 -0.00    +0.030 A  
DOCKED: ATOM     15  C   UNL     1     140.032  69.222 226.140 -0.49 -0.00    +0.030 A  
DOCKED: ATOM     16  C   UNL     1     141.091  70.833 227.529 -0.64 -0.00    +0.023 A  
DOCKED: ATOM     17  C   UNL     1     140.541  69.579 227.369 -0.57 -0.01    +0.041 A  
DOCKED: ATOM     18  Cl  UNL     1     140.460  68.423 228.666 -0.65 +0.02    -0.084 Cl 
DOCKED: ENDBRANCH   5   8
DOCKED: ENDBRANCH   3   4
DOCKED: ENDBRANCH   1   3
DOCKED: BRANCH   1  19
DOCKED: ATOM     19  N   UNL     1     141.129  76.860 220.024 -0.07 +0.14    -0.334 N  
DOCKED: BRANCH  19  20
DOCKED: ATOM     20  C   UNL     1     142.074  76.299 219.118 -0.21 -0.06    +0.120 C  
DOCKED: BRANCH  20  21
DOCKED: ATOM     21  C   UNL     1     143.016  77.123 218.395 -0.31 -0.02    +0.022 C  
DOCKED: BRANCH  21  22
DOCKED: ATOM     22  C   UNL     1     142.664  78.482 217.934 -0.30 -0.00    +0.002 C  
DOCKED: BRANCH  22  23
DOCKED: ATOM     23  C   UNL     1     141.219  78.779 217.839 -0.16 -0.00    +0.003 CG0
DOCKED: ATOM     24  G   UNL     1     140.437  79.027 219.042 +0.00 +0.00    +0.000 G0 
DOCKED: ENDBRANCH  22  23
DOCKED: ENDBRANCH  21  22
DOCKED: ENDBRANCH  20  21
DOCKED: ENDBRANCH  19  20
DOCKED: BRANCH  19  25
DOCKED: ATOM     25  C   UNL     1     140.487  78.133 220.212 -0.15 -0.04    +0.115 C  
DOCKED: BRANCH  25  26
DOCKED: ATOM     26  C   UNL     1     140.425  79.033 219.046 -0.12 -0.01    +0.030 CG0
DOCKED: ATOM     27  G   UNL     1     141.219  78.779 217.852 +0.00 +0.00    +0.000 G0 
DOCKED: ENDBRANCH  25  26
DOCKED: BRANCH  25  28
DOCKED: ATOM     28  C   UNL     1     141.001  78.757 221.471 -0.32 +0.01    -0.025 A  
DOCKED: ATOM     29  C   UNL     1     140.247  78.756 222.648 -0.39 -0.00    +0.006 A  
DOCKED: ATOM     30  C   UNL     1     142.236  79.360 221.560 -0.31 -0.00    +0.006 A  
DOCKED: ATOM     31  C   UNL     1     140.700  79.316 223.818 -0.51 -0.00    +0.000 A  
DOCKED: ATOM     32  C   UNL     1     142.712  79.932 222.734 -0.62 -0.00    +0.000 A  
DOCKED: ATOM     33  C   UNL     1     141.940  79.911 223.874 -0.61 -0.00    +0.000 A  
DOCKED: ENDBRANCH  25  28
DOCKED: ENDBRANCH  19  25
DOCKED: ENDBRANCH   1  19
DOCKED: TORSDOF 5
DOCKED: TER
DOCKED: ENDMDL
________________________________________________________________________________


    FINAL DOCKED STATE:
    ________________________


Run:   2 / 20
Time taken for this run:   0.048s

DOCKED: MODEL        2
DOCKED: USER    Run = 2
DOCKED: USER
DOCKED: USER    Estimated Free Energy of Binding    =  -5.52 kcal/mol  [=(1)+(2)+(3)-(4)]
DOCKED: USER
DOCKED: USER    (1) Final Intermolecular Energy     =  -8.80 kcal/mol
DOCKED: USER        vdW + Hbond + desolv Energy     =  -9.23 kcal/mol
DOCKED: USER        Electrostatic Energy            =  -0.05 kcal/mol
DOCKED: USER        Moving Ligand-Fixed Receptor    =  -9.28 kcal/mol
DOCKED: USER        Moving Ligand-Moving Receptor   =  +0.48 kcal/mol
DOCKED: USER    (2) Final Total Internal Energy     =  -2.09 kcal/mol
DOCKED: USER    (3) Torsional Free Energy           =  +3.28 kcal/mol
DOCKED: USER    (4) Unbound System's Energy         =  -2.09 kcal/mol
DOCKED: USER
DOCKED: USER
DOCKED: REMARK SMILES O=C(NCC(=O)N1CCCCC[C@@H]1c1ccccc1)c1ccc2cc(Cl)ccc2n1
DOCKED: REMARK SMILES IDX 5 1 6 2 4 3 3 4 2 5 1 6 20 8 21 9 30 10 22 11 29 12 23 13
DOCKED: REMARK SMILES IDX 28 14 24 15 27 16 25 17 26 18 7 19 8 20 9 21 10 22 11 23
DOCKED: REMARK SMILES IDX 13 25 12 26 14 28 15 29 19 30 16 31 18 32 17 33
DOCKED: REMARK H PARENT 3 7
DOCKED: REMARK Flexibility Score:   84.900
DOCKED: USER                              x       y       z     vdW  Elec       q    Type
DOCKED: USER                           _______ _______ _______ _____ _____    ______ ____
DOCKED: ROOT
DOCKED: ATOM      1  C   UNL     1     138.580  77.452 222.020 -0.17 -0.05    +0.242 C  
DOCKED: ATOM      2  O   UNL     1     137.921  77.252 223.078 -0.21 +0.04    -0.273 OA 
DOCKED: ENDROOT
DOCKED: BRANCH   1   3
DOCKED: ATOM      3  C   UNL     1     139.405  76.411 221.397 -0.18 -0.05    +0.216 C  
DOCKED: BRANCH   3   4
DOCKED: ATOM      4  N   UNL     1     139.340  75.190 222.187 -0.16 +0.06    -0.342 N  
DOCKED: ATOM      5  C   UNL     1     139.790  73.999 221.560 -0.18 -0.04    +0.270 C  
DOCKED: ATOM      6  O   UNL     1     140.228  73.972 220.385 -0.08 +0.05    -0.268 OA 
DOCKED: ATOM      7  H   UNL     1     138.973  75.229 223.164 -0.48 -0.05    +0.164 HD 
DOCKED: BRANCH   5   8
DOCKED: ATOM      8  C   UNL     1     139.738  72.745 222.329 -0.25 -0.02    +0.128 A  
DOCKED: ATOM      9  C   UNL     1     139.029  71.660 221.878 -0.17 -0.01    +0.035 A  
DOCKED: ATOM     10  N   UNL     1     140.387  72.611 223.512 -0.19 +0.02    -0.243 NA 
DOCKED: ATOM     11  C   UNL     1     138.956  70.461 222.576 -0.20 -0.00    +0.013 A  
DOCKED: ATOM     12  C   UNL     1     140.345  71.464 224.227 -0.41 -0.01    +0.071 A  
DOCKED: ATOM     13  C   UNL     1     139.636  70.382 223.773 -0.33 -0.00    +0.002 A  
DOCKED: ATOM     14  C   UNL     1     141.022  71.375 225.424 -0.54 -0.00    +0.030 A  
DOCKED: ATOM     15  C   UNL     1     139.588  69.200 224.500 -0.31 -0.01    +0.030 A  
DOCKED: ATOM     16  C   UNL     1     140.976  70.205 226.146 -0.54 -0.00    +0.023 A  
DOCKED: ATOM     17  C   UNL     1     140.265  69.112 225.696 -0.45 -0.01    +0.041 A  
DOCKED: ATOM     18  Cl  UNL     1     140.185  67.620 226.584 -0.80 +0.02    -0.084 Cl 
DOCKED: ENDBRANCH   5   8
DOCKED: ENDBRANCH   3   4
DOCKED: ENDBRANCH   1   3
DOCKED: BRANCH   1  19
DOCKED: ATOM     19  N   UNL     1     138.449  78.793 221.479 -0.03 +0.07    -0.334 N  
DOCKED: BRANCH  19  20
DOCKED: ATOM     20  C   UNL     1     138.090  78.763 220.100 -0.03 -0.03    +0.120 C  
DOCKED: BRANCH  20  21
DOCKED: ATOM     21  C   UNL     1     138.294  79.902 219.235 -0.03 -0.01    +0.022 C  
DOCKED: BRANCH  21  22
DOCKED: ATOM     22  C   UNL     1     138.318  81.282 219.763 -0.05 -0.00    +0.002 C  
DOCKED: BRANCH  22  23
DOCKED: ATOM     23  C   UNL     1     137.540  81.516 220.997 -0.08 -0.00    +0.003 CG0
DOCKED: ATOM     24  G   UNL     1     138.070  81.110 222.291 +0.00 +0.00    +0.000 G0 
DOCKED: ENDBRANCH  22  23
DOCKED: ENDBRANCH  21  22
DOCKED: ENDBRANCH  20  21
DOCKED: ENDBRANCH  19  20
DOCKED: BRANCH  19  25
DOCKED: ATOM     25  C   UNL     1     138.723  79.802 222.466 -0.22 -0.02    +0.115 C  
DOCKED: BRANCH  25  26
DOCKED: ATOM     26  C   UNL     1     138.068  81.111 222.290 -0.18 -0.00    +0.030 CG0
DOCKED: ATOM     27  G   UNL     1     137.539  81.524 220.998 +0.00 +0.00    +0.000 G0 
DOCKED: ENDBRANCH  25  26
DOCKED: BRANCH  25  28
DOCKED: ATOM     28  C   UNL     1     140.198  79.856 222.710 -0.36 +0.01    -0.025 A  
DOCKED: ATOM     29  C   UNL     1     140.816  79.018 223.644 -0.51 -0.00    +0.006 A  
DOCKED: ATOM     30  C   UNL     1     141.039  80.714 222.038 -0.39 -0.00    +0.006 A  
DOCKED: ATOM     31  C   UNL     1     142.168  79.044 223.881 -0.54 -0.00    +0.000 A  
DOCKED: ATOM     32  C   UNL     1     142.410  80.756 222.264 -0.52 -0.00    +0.000 A  
DOCKED: ATOM     33  C   UNL     1     142.983  79.915 223.191 -0.62 -0.00    +0.000 A  
DOCKED: ENDBRANCH  25  28
DOCKED: ENDBRANCH  19  25
DOCKED: ENDBRANCH   1  19
DOCKED: TORSDOF 5
DOCKED: TER
DOCKED: ENDMDL
________________________________________________________________________________


    FINAL DOCKED STATE:
    ________________________


Run:   3 / 20
Time taken for this run:   0.048s

DOCKED: MODEL        3
DOCKED: USER    Run = 3
DOCKED: USER
DOCKED: USER    Estimated Free Energy of Binding    =  -5.72 kcal/mol  [=(1)+(2)+(3)-(4)]
DOCKED: USER
DOCKED: USER    (1) Final Intermolecular Energy     =  -9.01 kcal/mol
DOCKED: USER        vdW + Hbond + desolv Energy     =  -9.28 kcal/mol
DOCKED: USER        Electrostatic Energy            =  +0.09 kcal/mol
DOCKED: USER        Moving Ligand-Fixed Receptor    =  -9.18 kcal/mol
DOCKED: USER        Moving Ligand-Moving Receptor   =  +0.18 kcal/mol
DOCKED: USER    (2) Final Total Internal Energy     =  -2.08 kcal/mol
DOCKED: USER    (3) Torsional Free Energy           =  +3.28 kcal/mol
DOCKED: USER    (4) Unbound System's Energy         =  -2.08 kcal/mol
DOCKED: USER
DOCKED: USER
DOCKED: REMARK SMILES O=C(NCC(=O)N1CCCCC[C@@H]1c1ccccc1)c1ccc2cc(Cl)ccc2n1
DOCKED: REMARK SMILES IDX 5 1 6 2 4 3 3 4 2 5 1 6 20 8 21 9 30 10 22 11 29 12 23 13
DOCKED: REMARK SMILES IDX 28 14 24 15 27 16 25 17 26 18 7 19 8 20 9 21 10 22 11 23
DOCKED: REMARK SMILES IDX 13 25 12 26 14 28 15 29 19 30 16 31 18 32 17 33
DOCKED: REMARK H PARENT 3 7
DOCKED: REMARK Flexibility Score:   84.900
DOCKED: USER                              x       y       z     vdW  Elec       q    Type
DOCKED: USER                           _______ _______ _______ _____ _____    ______ ____
DOCKED: ROOT
DOCKED: ATOM      1  C   UNL     1     141.099  76.209 220.561 -0.17 -0.09    +0.242 C  
DOCKED: ATOM      2  O   UNL     1     142.083  77.001 220.571 -0.19 +0.18    -0.273 OA 
DOCKED: ENDROOT
DOCKED: BRANCH   1   3
DOCKED: ATOM      3  C   UNL     1     141.232  74.790 220.212 -0.14 -0.06    +0.216 C  
DOCKED: BRANCH   3   4
DOCKED: ATOM      4  N   UNL     1     141.089  73.972 221.408 -0.15 +0.04    -0.342 N  
DOCKED: ATOM      5  C   UNL     1     140.261  72.825 221.301 -0.16 -0.04    +0.270 C  
DOCKED: ATOM      6  O   UNL     1     139.669  72.509 220.240 -0.04 +0.05    -0.268 OA 
DOCKED: ATOM      7  H   UNL     1     141.587  74.250 222.282 +0.07 +0.01    +0.164 HD 
DOCKED: BRANCH   5   8
DOCKED: ATOM      8  C   UNL     1     140.093  71.975 222.490 -0.27 -0.02    +0.128 A  
DOCKED: ATOM      9  C   UNL     1     139.335  70.831 222.448 -0.21 -0.01    +0.035 A  
DOCKED: ATOM     10  N   UNL     1     140.677  72.285 223.673 -0.20 +0.01    -0.243 NA 
DOCKED: ATOM     11  C   UNL     1     139.153  70.004 223.550 -0.27 -0.00    +0.013 A  
DOCKED: ATOM     12  C   UNL     1     140.529  71.511 224.771 -0.45 -0.01    +0.071 A  
DOCKED: ATOM     13  C   UNL     1     139.773  70.370 224.726 -0.42 -0.00    +0.002 A  
DOCKED: ATOM     14  C   UNL     1     141.145  71.868 225.952 -0.55 -0.00    +0.030 A  
DOCKED: ATOM     15  C   UNL     1     139.615  69.569 225.849 -0.44 -0.00    +0.030 A  
DOCKED: ATOM     16  C   UNL     1     140.990  71.076 227.066 -0.68 -0.00    +0.023 A  
DOCKED: ATOM     17  C   UNL     1     140.230  69.926 227.028 -0.54 -0.01    +0.041 A  
DOCKED: ATOM     18  Cl  UNL     1     140.014  68.904 228.418 -0.71 +0.01    -0.084 Cl 
DOCKED: ENDBRANCH   5   8
DOCKED: ENDBRANCH   3   4
DOCKED: ENDBRANCH   1   3
DOCKED: BRANCH   1  19
DOCKED: ATOM     19  N   UNL     1     139.834  76.825 220.922 -0.06 +0.09    -0.334 N  
DOCKED: BRANCH  19  20
DOCKED: ATOM     20  C   UNL     1     139.044  77.100 219.769 -0.05 -0.03    +0.120 C  
DOCKED: BRANCH  20  21
DOCKED: ATOM     21  C   UNL     1     137.642  77.435 219.869 -0.03 -0.00    +0.022 C  
DOCKED: BRANCH  21  22
DOCKED: ATOM     22  C   UNL     1     136.792  76.902 220.954 -0.08 -0.00    +0.002 C  
DOCKED: BRANCH  22  23
DOCKED: ATOM     23  C   UNL     1     137.172  77.297 222.327 -0.22 -0.00    +0.003 CG0
DOCKED: ATOM     24  G   UNL     1     138.382  76.768 222.939 +0.00 +0.00    +0.000 G0 
DOCKED: ENDBRANCH  22  23
DOCKED: ENDBRANCH  21  22
DOCKED: ENDBRANCH  20  21
DOCKED: ENDBRANCH  19  20
DOCKED: BRANCH  19  25
DOCKED: ATOM     25  C   UNL     1     139.710  77.006 222.343 -0.31 -0.03    +0.115 C  
DOCKED: BRANCH  25  26
DOCKED: ATOM     26  C   UNL     1     138.382  76.766 222.937 -0.15 -0.01    +0.030 CG0
DOCKED: ATOM     27  G   UNL     1     137.172  77.297 222.326 +0.00 +0.00    +0.000 G0 
DOCKED: ENDBRANCH  25  26
DOCKED: BRANCH  25  28
DOCKED: ATOM     28  C   UNL     1     140.354  78.302 222.726 -0.41 +0.01    -0.025 A  
DOCKED: ATOM     29  C   UNL     1     141.565  78.338 223.423 -0.54 -0.00    +0.006 A  
DOCKED: ATOM     30  C   UNL     1     139.811  79.529 222.419 -0.30 -0.00    +0.006 A  
DOCKED: ATOM     31  C   UNL     1     142.179  79.513 223.780 -0.61 -0.00    +0.000 A  
DOCKED: ATOM     32  C   UNL     1     140.417  80.730 222.772 -0.39 -0.00    +0.000 A  
DOCKED: ATOM     33  C   UNL     1     141.611  80.726 223.457 -0.58 -0.00    +0.000 A  
DOCKED: ENDBRANCH  25  28
DOCKED: ENDBRANCH  19  25
DOCKED: ENDBRANCH   1  19
DOCKED: TORSDOF 5
DOCKED: TER
DOCKED: ENDMDL
________________________________________________________________________________


    FINAL DOCKED STATE:
    ________________________


Run:   4 / 20
Time taken for this run:   0.048s

DOCKED: MODEL        4
DOCKED: USER    Run = 4
DOCKED: USER
DOCKED: USER    Estimated Free Energy of Binding    =  -5.48 kcal/mol  [=(1)+(2)+(3)-(4)]
DOCKED: USER
DOCKED: USER    (1) Final Intermolecular Energy     =  -8.76 kcal/mol
DOCKED: USER        vdW + Hbond + desolv Energy     =  -9.19 kcal/mol
DOCKED: USER        Electrostatic Energy            =  +0.00 kcal/mol
DOCKED: USER        Moving Ligand-Fixed Receptor    =  -9.19 kcal/mol
DOCKED: USER        Moving Ligand-Moving Receptor   =  +0.43 kcal/mol
DOCKED: USER    (2) Final Total Internal Energy     =  -2.42 kcal/mol
DOCKED: USER    (3) Torsional Free Energy           =  +3.28 kcal/mol
DOCKED: USER    (4) Unbound System's Energy         =  -2.42 kcal/mol
DOCKED: USER
DOCKED: USER
DOCKED: REMARK SMILES O=C(NCC(=O)N1CCCCC[C@@H]1c1ccccc1)c1ccc2cc(Cl)ccc2n1
DOCKED: REMARK SMILES IDX 5 1 6 2 4 3 3 4 2 5 1 6 20 8 21 9 30 10 22 11 29 12 23 13
DOCKED: REMARK SMILES IDX 28 14 24 15 27 16 25 17 26 18 7 19 8 20 9 21 10 22 11 23
DOCKED: REMARK SMILES IDX 13 25 12 26 14 28 15 29 19 30 16 31 18 32 17 33
DOCKED: REMARK H PARENT 3 7
DOCKED: REMARK Flexibility Score:   84.900
DOCKED: USER                              x       y       z     vdW  Elec       q    Type
DOCKED: USER                           _______ _______ _______ _____ _____    ______ ____
DOCKED: ROOT
DOCKED: ATOM      1  C   UNL     1     140.266  75.686 221.068 -0.19 -0.06    +0.242 C  
DOCKED: ATOM      2  O   UNL     1     140.527  76.341 222.116 -0.33 +0.07    -0.273 OA 
DOCKED: ENDROOT
DOCKED: BRANCH   1   3
DOCKED: ATOM      3  C   UNL     1     139.276  74.603 221.042 -0.14 -0.05    +0.216 C  
DOCKED: BRANCH   3   4
DOCKED: ATOM      4  N   UNL     1     139.459  73.738 222.199 -0.12 +0.06    -0.342 N  
DOCKED: ATOM      5  C   UNL     1     139.495  72.341 221.951 -0.17 -0.05    +0.270 C  
DOCKED: ATOM      6  O   UNL     1     139.378  71.850 220.803 -0.05 +0.05    -0.268 OA 
DOCKED: ATOM      7  H   UNL     1     139.554  74.163 223.147 -0.52 -0.02    +0.164 HD 
DOCKED: BRANCH   5   8
DOCKED: ATOM      8  C   UNL     1     139.678  71.437 223.098 -0.28 -0.02    +0.128 A  
DOCKED: ATOM      9  C   UNL     1     139.337  70.109 223.021 -0.22 -0.01    +0.035 A  
DOCKED: ATOM     10  N   UNL     1     140.189  71.875 224.274 -0.26 +0.04    -0.243 NA 
DOCKED: ATOM     11  C   UNL     1     139.495  69.225 224.081 -0.26 -0.00    +0.013 A  
DOCKED: ATOM     12  C   UNL     1     140.361  71.053 225.332 -0.50 -0.01    +0.071 A  
DOCKED: ATOM     13  C   UNL     1     140.020  69.728 225.252 -0.43 -0.00    +0.002 A  
DOCKED: ATOM     14  C   UNL     1     140.886  71.546 226.508 -0.68 -0.00    +0.030 A  
DOCKED: ATOM     15  C   UNL     1     140.193  68.876 226.334 -0.53 -0.01    +0.030 A  
DOCKED: ATOM     16  C   UNL     1     141.059  70.703 227.582 -0.64 -0.00    +0.023 A  
DOCKED: ATOM     17  C   UNL     1     140.718  69.369 227.508 -0.58 -0.01    +0.041 A  
DOCKED: ATOM     18  Cl  UNL     1     140.923  68.279 228.846 -0.56 +0.02    -0.084 Cl 
DOCKED: ENDBRANCH   5   8
DOCKED: ENDBRANCH   3   4
DOCKED: ENDBRANCH   1   3
DOCKED: BRANCH   1  19
DOCKED: ATOM     19  N   UNL     1     141.026  76.098 219.901 -0.05 +0.12    -0.334 N  
DOCKED: BRANCH  19  20
DOCKED: ATOM     20  C   UNL     1     140.170  76.577 218.868 -0.05 -0.04    +0.120 C  
DOCKED: BRANCH  20  21
DOCKED: ATOM     21  C   UNL     1     140.575  76.572 217.481 -0.04 -0.01    +0.022 C  
DOCKED: BRANCH  21  22
DOCKED: ATOM     22  C   UNL     1     141.962  76.885 217.077 -0.15 -0.00    +0.002 C  
DOCKED: BRANCH  22  23
DOCKED: ATOM     23  C   UNL     1     142.818  77.491 218.118 -0.31 -0.00    +0.003 CG0
DOCKED: ATOM     24  G   UNL     1     143.339  76.678 219.208 +0.00 +0.00    +0.000 G0 
DOCKED: ENDBRANCH  22  23
DOCKED: ENDBRANCH  21  22
DOCKED: ENDBRANCH  20  21
DOCKED: ENDBRANCH  19  20
DOCKED: BRANCH  19  25
DOCKED: ATOM     25  C   UNL     1     142.440  75.908 220.085 -0.26 -0.06    +0.115 C  
DOCKED: BRANCH  25  26
DOCKED: ATOM     26  C   UNL     1     143.341  76.678 219.208 -0.34 -0.02    +0.030 CG0
DOCKED: ATOM     27  G   UNL     1     142.822  77.486 218.114 +0.00 +0.00    +0.000 G0 
DOCKED: ENDBRANCH  25  26
DOCKED: BRANCH  25  28
DOCKED: ATOM     28  C   UNL     1     142.728  74.441 220.162 -0.29 +0.01    -0.025 A  
DOCKED: ATOM     29  C   UNL     1     143.850  73.952 220.836 -0.35 -0.00    +0.006 A  
DOCKED: ATOM     30  C   UNL     1     141.916  73.486 219.592 -0.14 -0.00    +0.006 A  
DOCKED: ATOM     31  C   UNL     1     144.133  72.611 220.927 -0.33 -0.00    +0.000 A  
DOCKED: ATOM     32  C   UNL     1     142.185  72.124 219.673 -0.14 -0.00    +0.000 A  
DOCKED: ATOM     33  C   UNL     1     143.300  71.679 220.346 -0.27 -0.00    +0.000 A  
DOCKED: ENDBRANCH  25  28
DOCKED: ENDBRANCH  19  25
DOCKED: ENDBRANCH   1  19
DOCKED: TORSDOF 5
DOCKED: TER
DOCKED: ENDMDL
________________________________________________________________________________


    FINAL DOCKED STATE:
    ________________________


Run:   5 / 20
Time taken for this run:   0.048s

DOCKED: MODEL        5
DOCKED: USER    Run = 5
DOCKED: USER
DOCKED: USER    Estimated Free Energy of Binding    =  -5.27 kcal/mol  [=(1)+(2)+(3)-(4)]
DOCKED: USER
DOCKED: USER    (1) Final Intermolecular Energy     =  -8.55 kcal/mol
DOCKED: USER        vdW + Hbond + desolv Energy     =  -8.94 kcal/mol
DOCKED: USER        Electrostatic Energy            =  -0.02 kcal/mol
DOCKED: USER        Moving Ligand-Fixed Receptor    =  -8.96 kcal/mol
DOCKED: USER        Moving Ligand-Moving Receptor   =  +0.41 kcal/mol
DOCKED: USER    (2) Final Total Internal Energy     =  -1.79 kcal/mol
DOCKED: USER    (3) Torsional Free Energy           =  +3.28 kcal/mol
DOCKED: USER    (4) Unbound System's Energy         =  -1.79 kcal/mol
DOCKED: USER
DOCKED: USER
DOCKED: REMARK SMILES O=C(NCC(=O)N1CCCCC[C@@H]1c1ccccc1)c1ccc2cc(Cl)ccc2n1
DOCKED: REMARK SMILES IDX 5 1 6 2 4 3 3 4 2 5 1 6 20 8 21 9 30 10 22 11 29 12 23 13
DOCKED: REMARK SMILES IDX 28 14 24 15 27 16 25 17 26 18 7 19 8 20 9 21 10 22 11 23
DOCKED: REMARK SMILES IDX 13 25 12 26 14 28 15 29 19 30 16 31 18 32 17 33
DOCKED: REMARK H PARENT 3 7
DOCKED: REMARK Flexibility Score:   84.900
DOCKED: USER                              x       y       z     vdW  Elec       q    Type
DOCKED: USER                           _______ _______ _______ _____ _____    ______ ____
DOCKED: ROOT
DOCKED: ATOM      1  C   UNL     1     140.122  76.381 221.996 -0.27 -0.06    +0.242 C  
DOCKED: ATOM      2  O   UNL     1     141.139  75.669 222.226 -0.40 +0.06    -0.273 OA 
DOCKED: ENDROOT
DOCKED: BRANCH   1   3
DOCKED: ATOM      3  C   UNL     1     138.919  75.850 221.344 -0.16 -0.05    +0.216 C  
DOCKED: BRANCH   3   4
DOCKED: ATOM      4  N   UNL     1     137.992  75.351 222.349 -0.13 +0.10    -0.342 N  
DOCKED: ATOM      5  C   UNL     1     136.755  76.036 222.474 -0.15 -0.06    +0.270 C  
DOCKED: ATOM      6  O   UNL     1     136.451  77.026 221.766 -0.06 +0.05    -0.268 OA 
DOCKED: ATOM      7  H   UNL     1     138.261  74.527 222.931 -0.53 -0.10    +0.164 HD 
DOCKED: BRANCH   5   8
DOCKED: ATOM      8  C   UNL     1     135.794  75.558 223.481 -0.23 -0.03    +0.128 A  
DOCKED: ATOM      9  C   UNL     1     135.100  76.435 224.277 -0.22 -0.00    +0.035 A  
DOCKED: ATOM     10  N   UNL     1     135.555  74.237 223.663 -0.15 +0.06    -0.243 NA 
DOCKED: ATOM     11  C   UNL     1     134.185  76.022 225.238 -0.29 -0.00    +0.013 A  
DOCKED: ATOM     12  C   UNL     1     134.674  73.788 224.585 -0.24 -0.01    +0.071 A  
DOCKED: ATOM     13  C   UNL     1     133.983  74.665 225.378 -0.31 -0.00    +0.002 A  
DOCKED: ATOM     14  C   UNL     1     134.464  72.434 224.733 -0.21 -0.00    +0.030 A  
DOCKED: ATOM     15  C   UNL     1     133.076  74.214 226.328 -0.33 +0.00    +0.030 A  
DOCKED: ATOM     16  C   UNL     1     133.566  71.983 225.673 -0.26 -0.00    +0.023 A  
DOCKED: ATOM     17  C   UNL     1     132.867  72.860 226.474 -0.34 -0.00    +0.041 A  
DOCKED: ATOM     18  Cl  UNL     1     131.726  72.324 227.672 -0.34 +0.02    -0.084 Cl 
DOCKED: ENDBRANCH   5   8
DOCKED: ENDBRANCH   3   4
DOCKED: ENDBRANCH   1   3
DOCKED: BRANCH   1  19
DOCKED: ATOM     19  N   UNL     1     140.248  77.762 222.430 -0.18 +0.09    -0.334 N  
DOCKED: BRANCH  19  20
DOCKED: ATOM     20  C   UNL     1     138.999  78.280 222.878 -0.24 -0.02    +0.120 C  
DOCKED: BRANCH  20  21
DOCKED: ATOM     21  C   UNL     1     138.746  79.701 222.947 -0.31 -0.00    +0.022 C  
DOCKED: BRANCH  21  22
DOCKED: ATOM     22  C   UNL     1     139.841  80.677 223.124 -0.40 -0.00    +0.002 C  
DOCKED: BRANCH  22  23
DOCKED: ATOM     23  C   UNL     1     141.030  80.189 223.854 -0.47 -0.00    +0.003 CG0
DOCKED: ATOM     24  G   UNL     1     142.009  79.343 223.186 +0.00 +0.00    +0.000 G0 
DOCKED: ENDBRANCH  22  23
DOCKED: ENDBRANCH  21  22
DOCKED: ENDBRANCH  20  21
DOCKED: ENDBRANCH  19  20
DOCKED: BRANCH  19  25
DOCKED: ATOM     25  C   UNL     1     141.593  78.250 222.287 -0.27 -0.06    +0.115 C  
DOCKED: BRANCH  25  26
DOCKED: ATOM     26  C   UNL     1     142.010  79.343 223.184 -0.59 -0.01    +0.030 CG0
DOCKED: ATOM     27  G   UNL     1     141.030  80.191 223.848 +0.00 +0.00    +0.000 G0 
DOCKED: ENDBRANCH  25  26
DOCKED: BRANCH  25  28
DOCKED: ATOM     28  C   UNL     1     141.879  78.473 220.835 -0.30 +0.02    -0.025 A  
DOCKED: ATOM     29  C   UNL     1     141.775  79.742 220.257 -0.31 -0.00    +0.006 A  
DOCKED: ATOM     30  C   UNL     1     142.265  77.464 219.983 -0.31 -0.00    +0.006 A  
DOCKED: ATOM     31  C   UNL     1     142.038  79.974 218.929 -0.31 -0.00    +0.000 A  
DOCKED: ATOM     32  C   UNL     1     142.535  77.679 218.636 -0.33 -0.00    +0.000 A  
DOCKED: ATOM     33  C   UNL     1     142.422  78.942 218.102 -0.32 -0.00    +0.000 A  
DOCKED: ENDBRANCH  25  28
DOCKED: ENDBRANCH  19  25
DOCKED: ENDBRANCH   1  19
DOCKED: TORSDOF 5
DOCKED: TER
DOCKED: ENDMDL
________________________________________________________________________________


    FINAL DOCKED STATE:
    ________________________


Run:   6 / 20
Time taken for this run:   0.048s

DOCKED: MODEL        6
DOCKED: USER    Run = 6
DOCKED: USER
DOCKED: USER    Estimated Free Energy of Binding    =  -5.61 kcal/mol  [=(1)+(2)+(3)-(4)]
DOCKED: USER
DOCKED: USER    (1) Final Intermolecular Energy     =  -8.89 kcal/mol
DOCKED: USER        vdW + Hbond + desolv Energy     =  -9.65 kcal/mol
DOCKED: USER        Electrostatic Energy            =  -0.09 kcal/mol
DOCKED: USER        Moving Ligand-Fixed Receptor    =  -9.73 kcal/mol
DOCKED: USER        Moving Ligand-Moving Receptor   =  +0.84 kcal/mol
DOCKED: USER    (2) Final Total Internal Energy     =  -1.71 kcal/mol
DOCKED: USER    (3) Torsional Free Energy           =  +3.28 kcal/mol
DOCKED: USER    (4) Unbound System's Energy         =  -1.71 kcal/mol
DOCKED: USER
DOCKED: USER
DOCKED: REMARK SMILES O=C(NCC(=O)N1CCCCC[C@@H]1c1ccccc1)c1ccc2cc(Cl)ccc2n1
DOCKED: REMARK SMILES IDX 5 1 6 2 4 3 3 4 2 5 1 6 20 8 21 9 30 10 22 11 29 12 23 13
DOCKED: REMARK SMILES IDX 28 14 24 15 27 16 25 17 26 18 7 19 8 20 9 21 10 22 11 23
DOCKED: REMARK SMILES IDX 13 25 12 26 14 28 15 29 19 30 16 31 18 32 17 33
DOCKED: REMARK H PARENT 3 7
DOCKED: REMARK Flexibility Score:   84.900
DOCKED: USER                              x       y       z     vdW  Elec       q    Type
DOCKED: USER                           _______ _______ _______ _____ _____    ______ ____
DOCKED: ROOT
DOCKED: ATOM      1  C   UNL     1     139.331  77.563 222.438 -0.21 -0.05    +0.242 C  
DOCKED: ATOM      2  O   UNL     1     138.493  77.584 223.382 -0.03 +0.04    -0.273 OA 
DOCKED: ENDROOT
DOCKED: BRANCH   1   3
DOCKED: ATOM      3  C   UNL     1     139.463  76.422 221.525 -0.20 -0.05    +0.216 C  
DOCKED: BRANCH   3   4
DOCKED: ATOM      4  N   UNL     1     139.288  75.178 222.261 -0.16 +0.07    -0.342 N  
DOCKED: ATOM      5  C   UNL     1     139.799  74.001 221.655 -0.18 -0.04    +0.270 C  
DOCKED: ATOM      6  O   UNL     1     140.377  74.004 220.542 -0.10 +0.05    -0.268 OA 
DOCKED: ATOM      7  H   UNL     1     138.804  75.193 223.186 -0.49 -0.06    +0.164 HD 
DOCKED: BRANCH   5   8
DOCKED: ATOM      8  C   UNL     1     139.639  72.725 222.371 -0.24 -0.02    +0.128 A  
DOCKED: ATOM      9  C   UNL     1     138.745  71.775 221.944 -0.16 -0.01    +0.035 A  
DOCKED: ATOM     10  N   UNL     1     140.366  72.436 223.478 -0.30 +0.02    -0.243 NA 
DOCKED: ATOM     11  C   UNL     1     138.566  70.559 222.593 -0.19 -0.00    +0.013 A  
DOCKED: ATOM     12  C   UNL     1     140.226  71.267 224.142 -0.40 -0.01    +0.071 A  
DOCKED: ATOM     13  C   UNL     1     139.333  70.321 223.714 -0.31 -0.00    +0.002 A  
DOCKED: ATOM     14  C   UNL     1     140.988  71.018 225.263 -0.53 -0.00    +0.030 A  
DOCKED: ATOM     15  C   UNL     1     139.183  69.117 224.390 -0.33 -0.00    +0.030 A  
DOCKED: ATOM     16  C   UNL     1     140.842  69.827 225.935 -0.50 -0.00    +0.023 A  
DOCKED: ATOM     17  C   UNL     1     139.945  68.870 225.509 -0.43 -0.01    +0.041 A  
DOCKED: ATOM     18  Cl  UNL     1     139.736  67.354 226.336 -0.69 +0.01    -0.084 Cl 
DOCKED: ENDBRANCH   5   8
DOCKED: ENDBRANCH   3   4
DOCKED: ENDBRANCH   1   3
DOCKED: BRANCH   1  19
DOCKED: ATOM     19  N   UNL     1     140.146  78.762 222.337 -0.12 +0.09    -0.334 N  
DOCKED: BRANCH  19  20
DOCKED: ATOM     20  C   UNL     1     141.494  78.504 222.719 -0.42 -0.05    +0.120 C  
DOCKED: BRANCH  20  21
DOCKED: ATOM     21  C   UNL     1     142.401  79.571 223.076 -0.62 -0.01    +0.022 C  
DOCKED: BRANCH  21  22
DOCKED: ATOM     22  C   UNL     1     142.520  80.795 222.256 -0.49 -0.00    +0.002 C  
DOCKED: BRANCH  22  23
DOCKED: ATOM     23  C   UNL     1     141.284  81.589 222.096 -0.43 -0.00    +0.003 CG0
DOCKED: ATOM     24  G   UNL     1     140.149  81.047 221.364 +0.00 +0.00    +0.000 G0 
DOCKED: ENDBRANCH  22  23
DOCKED: ENDBRANCH  21  22
DOCKED: ENDBRANCH  20  21
DOCKED: ENDBRANCH  19  20
DOCKED: BRANCH  19  25
DOCKED: ATOM     25  C   UNL     1     139.384  79.896 221.888 -0.18 -0.02    +0.115 C  
DOCKED: BRANCH  25  26
DOCKED: ATOM     26  C   UNL     1     140.140  81.051 221.372 -0.24 -0.01    +0.030 CG0
DOCKED: ATOM     27  G   UNL     1     141.282  81.592 222.095 +0.00 +0.00    +0.000 G0 
DOCKED: ENDBRANCH  25  26
DOCKED: BRANCH  25  28
DOCKED: ATOM     28  C   UNL     1     138.346  80.221 222.916 -0.27 +0.00    -0.025 A  
DOCKED: ATOM     29  C   UNL     1     136.981  80.141 222.626 -0.16 -0.00    +0.006 A  
DOCKED: ATOM     30  C   UNL     1     138.657  80.609 224.200 -0.40 -0.00    +0.006 A  
DOCKED: ATOM     31  C   UNL     1     136.009  80.428 223.554 -0.17 -0.00    +0.000 A  
DOCKED: ATOM     32  C   UNL     1     137.688  80.904 225.153 -0.40 -0.00    +0.000 A  
DOCKED: ATOM     33  C   UNL     1     136.353  80.813 224.831 -0.28 -0.00    +0.000 A  
DOCKED: ENDBRANCH  25  28
DOCKED: ENDBRANCH  19  25
DOCKED: ENDBRANCH   1  19
DOCKED: TORSDOF 5
DOCKED: TER
DOCKED: ENDMDL
________________________________________________________________________________


    FINAL DOCKED STATE:
    ________________________


Run:   7 / 20
Time taken for this run:   0.048s

DOCKED: MODEL        7
DOCKED: USER    Run = 7
DOCKED: USER
DOCKED: USER    Estimated Free Energy of Binding    =  -5.05 kcal/mol  [=(1)+(2)+(3)-(4)]
DOCKED: USER
DOCKED: USER    (1) Final Intermolecular Energy     =  -8.33 kcal/mol
DOCKED: USER        vdW + Hbond + desolv Energy     =  -8.61 kcal/mol
DOCKED: USER        Electrostatic Energy            =  -0.04 kcal/mol
DOCKED: USER        Moving Ligand-Fixed Receptor    =  -8.64 kcal/mol
DOCKED: USER        Moving Ligand-Moving Receptor   =  +0.31 kcal/mol
DOCKED: USER    (2) Final Total Internal Energy     =  -1.82 kcal/mol
DOCKED: USER    (3) Torsional Free Energy           =  +3.28 kcal/mol
DOCKED: USER    (4) Unbound System's Energy         =  -1.82 kcal/mol
DOCKED: USER
DOCKED: USER
DOCKED: REMARK SMILES O=C(NCC(=O)N1CCCCC[C@@H]1c1ccccc1)c1ccc2cc(Cl)ccc2n1
DOCKED: REMARK SMILES IDX 5 1 6 2 4 3 3 4 2 5 1 6 20 8 21 9 30 10 22 11 29 12 23 13
DOCKED: REMARK SMILES IDX 28 14 24 15 27 16 25 17 26 18 7 19 8 20 9 21 10 22 11 23
DOCKED: REMARK SMILES IDX 13 25 12 26 14 28 15 29 19 30 16 31 18 32 17 33
DOCKED: REMARK H PARENT 3 7
DOCKED: REMARK Flexibility Score:   84.900
DOCKED: USER                              x       y       z     vdW  Elec       q    Type
DOCKED: USER                           _______ _______ _______ _____ _____    ______ ____
DOCKED: ROOT
DOCKED: ATOM      1  C   UNL     1     137.202  71.528 222.532 -0.09 -0.05    +0.242 C  
DOCKED: ATOM      2  O   UNL     1     136.814  71.791 223.704 -0.15 +0.07    -0.273 OA 
DOCKED: ENDROOT
DOCKED: BRANCH   1   3
DOCKED: ATOM      3  C   UNL     1     137.327  72.556 221.493 -0.07 -0.05    +0.216 C  
DOCKED: BRANCH   3   4
DOCKED: ATOM      4  N   UNL     1     138.216  73.614 221.950 -0.08 +0.10    -0.342 N  
DOCKED: ATOM      5  C   UNL     1     138.330  74.757 221.116 -0.10 -0.06    +0.270 C  
DOCKED: ATOM      6  O   UNL     1     137.706  74.875 220.034 -0.02 +0.05    -0.268 OA 
DOCKED: ATOM      7  H   UNL     1     138.728  73.500 222.853 -0.52 -0.08    +0.164 HD 
DOCKED: BRANCH   5   8
DOCKED: ATOM      8  C   UNL     1     139.220  75.847 221.547 -0.22 -0.03    +0.128 A  
DOCKED: ATOM      9  C   UNL     1     140.552  75.855 221.213 -0.29 -0.01    +0.035 A  
DOCKED: ATOM     10  N   UNL     1     138.764  76.885 222.291 -0.19 +0.05    -0.243 NA 
DOCKED: ATOM     11  C   UNL     1     141.423  76.865 221.602 -0.18 -0.01    +0.013 A  
DOCKED: ATOM     12  C   UNL     1     139.573  77.890 222.692 -0.30 -0.01    +0.071 A  
DOCKED: ATOM     13  C   UNL     1     140.902  77.895 222.356 -0.44 -0.00    +0.002 A  
DOCKED: ATOM     14  C   UNL     1     139.063  78.925 223.446 -0.31 -0.00    +0.030 A  
DOCKED: ATOM     15  C   UNL     1     141.741  78.923 222.763 -0.52 -0.01    +0.030 A  
DOCKED: ATOM     16  C   UNL     1     139.892  79.945 223.850 -0.42 -0.00    +0.023 A  
DOCKED: ATOM     17  C   UNL     1     141.230  79.957 223.517 -0.52 -0.01    +0.041 A  
DOCKED: ATOM     18  Cl  UNL     1     142.304  81.230 224.013 -0.67 +0.01    -0.084 Cl 
DOCKED: ENDBRANCH   5   8
DOCKED: ENDBRANCH   3   4
DOCKED: ENDBRANCH   1   3
DOCKED: BRANCH   1  19
DOCKED: ATOM     19  N   UNL     1     137.510  70.126 222.305 -0.03 +0.06    -0.334 N  
DOCKED: BRANCH  19  20
DOCKED: ATOM     20  C   UNL     1     136.326  69.367 222.074 -0.07 -0.02    +0.120 C  
DOCKED: BRANCH  20  21
DOCKED: ATOM     21  C   UNL     1     136.268  67.948 222.342 -0.12 -0.00    +0.022 C  
DOCKED: BRANCH  21  22
DOCKED: ATOM     22  C   UNL     1     137.393  67.049 222.011 -0.16 -0.00    +0.002 C  
DOCKED: BRANCH  22  23
DOCKED: ATOM     23  C   UNL     1     138.482  67.644 221.207 -0.16 -0.00    +0.003 CG0
DOCKED: ATOM     24  G   UNL     1     139.403  68.599 221.806 +0.00 +0.00    +0.000 G0 
DOCKED: ENDBRANCH  22  23
DOCKED: ENDBRANCH  21  22
DOCKED: ENDBRANCH  20  21
DOCKED: ENDBRANCH  19  20
DOCKED: BRANCH  19  25
DOCKED: ATOM     25  C   UNL     1     138.922  69.865 222.382 -0.15 -0.02    +0.115 C  
DOCKED: BRANCH  25  26
DOCKED: ATOM     26  C   UNL     1     139.403  68.596 221.807 -0.09 -0.01    +0.030 CG0
DOCKED: ATOM     27  G   UNL     1     138.483  67.641 221.207 +0.00 +0.00    +0.000 G0 
DOCKED: ENDBRANCH  25  26
DOCKED: BRANCH  25  28
DOCKED: ATOM     28  C   UNL     1     139.395  70.154 223.772 -0.30 +0.00    -0.025 A  
DOCKED: ATOM     29  C   UNL     1     140.257  71.221 224.044 -0.43 -0.00    +0.006 A  
DOCKED: ATOM     30  C   UNL     1     139.016  69.407 224.864 -0.38 -0.00    +0.006 A  
DOCKED: ATOM     31  C   UNL     1     140.699  71.511 225.311 -0.57 -0.00    +0.000 A  
DOCKED: ATOM     32  C   UNL     1     139.453  69.684 226.155 -0.46 -0.00    +0.000 A  
DOCKED: ATOM     33  C   UNL     1     140.301  70.744 226.384 -0.59 -0.00    +0.000 A  
DOCKED: ENDBRANCH  25  28
DOCKED: ENDBRANCH  19  25
DOCKED: ENDBRANCH   1  19
DOCKED: TORSDOF 5
DOCKED: TER
DOCKED: ENDMDL
________________________________________________________________________________


    FINAL DOCKED STATE:
    ________________________


Run:   8 / 20
Time taken for this run:   0.048s

DOCKED: MODEL        8
DOCKED: USER    Run = 8
DOCKED: USER
DOCKED: USER    Estimated Free Energy of Binding    =  -4.72 kcal/mol  [=(1)+(2)+(3)-(4)]
DOCKED: USER
DOCKED: USER    (1) Final Intermolecular Energy     =  -8.01 kcal/mol
DOCKED: USER        vdW + Hbond + desolv Energy     =  -9.03 kcal/mol
DOCKED: USER        Electrostatic Energy            =  -0.04 kcal/mol
DOCKED: USER        Moving Ligand-Fixed Receptor    =  -9.08 kcal/mol
DOCKED: USER        Moving Ligand-Moving Receptor   =  +1.07 kcal/mol
DOCKED: USER    (2) Final Total Internal Energy     =  -2.13 kcal/mol
DOCKED: USER    (3) Torsional Free Energy           =  +3.28 kcal/mol
DOCKED: USER    (4) Unbound System's Energy         =  -2.13 kcal/mol
DOCKED: USER
DOCKED: USER
DOCKED: REMARK SMILES O=C(NCC(=O)N1CCCCC[C@@H]1c1ccccc1)c1ccc2cc(Cl)ccc2n1
DOCKED: REMARK SMILES IDX 5 1 6 2 4 3 3 4 2 5 1 6 20 8 21 9 30 10 22 11 29 12 23 13
DOCKED: REMARK SMILES IDX 28 14 24 15 27 16 25 17 26 18 7 19 8 20 9 21 10 22 11 23
DOCKED: REMARK SMILES IDX 13 25 12 26 14 28 15 29 19 30 16 31 18 32 17 33
DOCKED: REMARK H PARENT 3 7
DOCKED: REMARK Flexibility Score:   84.900
DOCKED: USER                              x       y       z     vdW  Elec       q    Type
DOCKED: USER                           _______ _______ _______ _____ _____    ______ ____
DOCKED: ROOT
DOCKED: ATOM      1  C   UNL     1     140.696  73.059 219.190 -0.02 -0.05    +0.242 C  
DOCKED: ATOM      2  O   UNL     1     140.897  72.616 218.025 -0.00 +0.05    -0.273 OA 
DOCKED: ENDROOT
DOCKED: BRANCH   1   3
DOCKED: ATOM      3  C   UNL     1     139.399  72.940 219.865 -0.04 -0.04    +0.216 C  
DOCKED: BRANCH   3   4
DOCKED: ATOM      4  N   UNL     1     139.500  71.993 220.967 -0.04 +0.06    -0.342 N  
DOCKED: ATOM      5  C   UNL     1     139.775  72.533 222.250 -0.19 -0.05    +0.270 C  
DOCKED: ATOM      6  O   UNL     1     139.927  73.762 222.453 -0.81 +0.01    -0.268 OA 
DOCKED: ATOM      7  H   UNL     1     139.371  70.974 220.780 +0.03 -0.03    +0.164 HD 
DOCKED: BRANCH   5   8
DOCKED: ATOM      8  C   UNL     1     139.884  71.605 223.386 -0.31 -0.02    +0.128 A  
DOCKED: ATOM      9  C   UNL     1     139.446  70.307 223.292 -0.26 -0.01    +0.035 A  
DOCKED: ATOM     10  N   UNL     1     140.419  71.992 224.570 -0.18 +0.04    -0.243 NA 
DOCKED: ATOM     11  C   UNL     1     139.532  69.402 224.343 -0.32 -0.00    +0.013 A  
DOCKED: ATOM     12  C   UNL     1     140.524  71.147 225.620 -0.53 -0.01    +0.071 A  
DOCKED: ATOM     13  C   UNL     1     140.086  69.852 225.523 -0.46 -0.00    +0.002 A  
DOCKED: ATOM     14  C   UNL     1     141.076  71.586 226.804 -0.72 -0.00    +0.030 A  
DOCKED: ATOM     15  C   UNL     1     140.190  68.977 226.596 -0.55 -0.01    +0.030 A  
DOCKED: ATOM     16  C   UNL     1     141.180  70.721 227.868 -0.58 -0.00    +0.023 A  
DOCKED: ATOM     17  C   UNL     1     140.742  69.417 227.778 -0.59 -0.01    +0.041 A  
DOCKED: ATOM     18  Cl  UNL     1     140.858  68.299 229.104 -0.24 +0.02    -0.084 Cl 
DOCKED: ENDBRANCH   5   8
DOCKED: ENDBRANCH   3   4
DOCKED: ENDBRANCH   1   3
DOCKED: BRANCH   1  19
DOCKED: ATOM     19  N   UNL     1     141.854  73.691 219.797 -0.04 +0.07    -0.334 N  
DOCKED: BRANCH  19  20
DOCKED: ATOM     20  C   UNL     1     142.601  72.763 220.579 -0.21 -0.02    +0.120 C  
DOCKED: BRANCH  20  21
DOCKED: ATOM     21  C   UNL     1     144.037  72.657 220.467 -0.37 -0.00    +0.022 C  
DOCKED: BRANCH  21  22
DOCKED: ATOM     22  C   UNL     1     144.849  73.727 219.850 -0.46 -0.00    +0.002 C  
DOCKED: BRANCH  22  23
DOCKED: ATOM     23  C   UNL     1     144.409  75.111 220.123 -0.26 -0.00    +0.003 CG0
DOCKED: ATOM     24  G   UNL     1     143.292  75.688 219.390 +0.00 +0.00    +0.000 G0 
DOCKED: ENDBRANCH  22  23
DOCKED: ENDBRANCH  21  22
DOCKED: ENDBRANCH  20  21
DOCKED: ENDBRANCH  19  20
DOCKED: BRANCH  19  25
DOCKED: ATOM     25  C   UNL     1     141.943  75.087 219.462 -0.16 -0.04    +0.115 C  
DOCKED: BRANCH  25  26
DOCKED: ATOM     26  C   UNL     1     143.293  75.674 219.382 -0.36 -0.02    +0.030 CG0
DOCKED: ATOM     27  G   UNL     1     144.409  75.107 220.125 +0.00 +0.00    +0.000 G0 
DOCKED: ENDBRANCH  25  26
DOCKED: BRANCH  25  28
DOCKED: ATOM     28  C   UNL     1     140.966  75.852 220.298 -0.21 +0.01    -0.025 A  
DOCKED: ATOM     29  C   UNL     1     139.723  76.245 219.793 -0.09 -0.00    +0.006 A  
DOCKED: ATOM     30  C   UNL     1     141.214  76.208 221.605 -0.30 -0.00    +0.006 A  
DOCKED: ATOM     31  C   UNL     1     138.806  76.941 220.542 -0.10 -0.00    +0.000 A  
DOCKED: ATOM     32  C   UNL     1     140.299  76.913 222.379 -0.40 -0.00    +0.000 A  
DOCKED: ATOM     33  C   UNL     1     139.085  77.284 221.847 -0.26 -0.00    +0.000 A  
DOCKED: ENDBRANCH  25  28
DOCKED: ENDBRANCH  19  25
DOCKED: ENDBRANCH   1  19
DOCKED: TORSDOF 5
DOCKED: TER
DOCKED: ENDMDL
________________________________________________________________________________


    FINAL DOCKED STATE:
    ________________________


Run:   9 / 20
Time taken for this run:   0.048s

DOCKED: MODEL        9
DOCKED: USER    Run = 9
DOCKED: USER
DOCKED: USER    Estimated Free Energy of Binding    =  -4.70 kcal/mol  [=(1)+(2)+(3)-(4)]
DOCKED: USER
DOCKED: USER    (1) Final Intermolecular Energy     =  -7.99 kcal/mol
DOCKED: USER        vdW + Hbond + desolv Energy     =  -8.16 kcal/mol
DOCKED: USER        Electrostatic Energy            =  +0.03 kcal/mol
DOCKED: USER        Moving Ligand-Fixed Receptor    =  -8.13 kcal/mol
DOCKED: USER        Moving Ligand-Moving Receptor   =  +0.15 kcal/mol
DOCKED: USER    (2) Final Total Internal Energy     =  -1.68 kcal/mol
DOCKED: USER    (3) Torsional Free Energy           =  +3.28 kcal/mol
DOCKED: USER    (4) Unbound System's Energy         =  -1.68 kcal/mol
DOCKED: USER
DOCKED: USER
DOCKED: REMARK SMILES O=C(NCC(=O)N1CCCCC[C@@H]1c1ccccc1)c1ccc2cc(Cl)ccc2n1
DOCKED: REMARK SMILES IDX 5 1 6 2 4 3 3 4 2 5 1 6 20 8 21 9 30 10 22 11 29 12 23 13
DOCKED: REMARK SMILES IDX 28 14 24 15 27 16 25 17 26 18 7 19 8 20 9 21 10 22 11 23
DOCKED: REMARK SMILES IDX 13 25 12 26 14 28 15 29 19 30 16 31 18 32 17 33
DOCKED: REMARK H PARENT 3 7
DOCKED: REMARK Flexibility Score:   84.900
DOCKED: USER                              x       y       z     vdW  Elec       q    Type
DOCKED: USER                           _______ _______ _______ _____ _____    ______ ____
DOCKED: ROOT
DOCKED: ATOM      1  C   UNL     1     139.659  73.882 219.733 -0.03 -0.05    +0.242 C  
DOCKED: ATOM      2  O   UNL     1     139.763  74.641 218.729 -0.01 +0.06    -0.273 OA 
DOCKED: ENDROOT
DOCKED: BRANCH   1   3
DOCKED: ATOM      3  C   UNL     1     140.059  72.471 219.700 -0.04 -0.04    +0.216 C  
DOCKED: BRANCH   3   4
DOCKED: ATOM      4  N   UNL     1     140.480  72.045 221.027 -0.07 +0.05    -0.342 N  
DOCKED: ATOM      5  C   UNL     1     139.501  71.407 221.832 -0.13 -0.05    +0.270 C  
DOCKED: ATOM      6  O   UNL     1     138.325  71.207 221.444 -0.05 +0.05    -0.268 OA 
DOCKED: ATOM      7  H   UNL     1     141.462  72.220 221.334 +0.05 -0.02    +0.164 HD 
DOCKED: BRANCH   5   8
DOCKED: ATOM      8  C   UNL     1     139.892  70.963 223.180 -0.26 -0.02    +0.128 A  
DOCKED: ATOM      9  C   UNL     1     140.595  71.784 224.026 -0.35 -0.00    +0.035 A  
DOCKED: ATOM     10  N   UNL     1     139.574  69.728 223.641 -0.13 +0.04    -0.243 NA 
DOCKED: ATOM     11  C   UNL     1     140.981  71.401 225.304 -0.54 -0.00    +0.013 A  
DOCKED: ATOM     12  C   UNL     1     139.928  69.311 224.877 -0.31 -0.01    +0.071 A  
DOCKED: ATOM     13  C   UNL     1     140.630  70.133 225.719 -0.52 -0.00    +0.002 A  
DOCKED: ATOM     14  C   UNL     1     139.582  68.047 225.301 -0.45 -0.00    +0.030 A  
DOCKED: ATOM     15  C   UNL     1     140.998  69.714 226.990 -0.55 -0.01    +0.030 A  
DOCKED: ATOM     16  C   UNL     1     139.944  67.628 226.560 -0.65 -0.00    +0.023 A  
DOCKED: ATOM     17  C   UNL     1     140.651  68.450 227.413 -0.63 -0.01    +0.041 A  
DOCKED: ATOM     18  Cl  UNL     1     141.125  67.952 229.009 -0.32 +0.02    -0.084 Cl 
DOCKED: ENDBRANCH   5   8
DOCKED: ENDBRANCH   3   4
DOCKED: ENDBRANCH   1   3
DOCKED: BRANCH   1  19
DOCKED: ATOM     19  N   UNL     1     139.112  74.527 220.915 -0.06 +0.07    -0.334 N  
DOCKED: BRANCH  19  20
DOCKED: ATOM     20  C   UNL     1     137.718  74.265 221.049 -0.10 -0.03    +0.120 C  
DOCKED: BRANCH  20  21
DOCKED: ATOM     21  C   UNL     1     136.899  74.975 222.005 -0.17 -0.01    +0.022 C  
DOCKED: BRANCH  21  22
DOCKED: ATOM     22  C   UNL     1     137.161  76.387 222.353 -0.24 -0.00    +0.002 C  
DOCKED: BRANCH  22  23
DOCKED: ATOM     23  C   UNL     1     138.463  76.665 222.995 -0.11 -0.00    +0.003 CG0
DOCKED: ATOM     24  G   UNL     1     139.699  76.550 222.234 +0.00 +0.00    +0.000 G0 
DOCKED: ENDBRANCH  22  23
DOCKED: ENDBRANCH  21  22
DOCKED: ENDBRANCH  20  21
DOCKED: ENDBRANCH  19  20
DOCKED: BRANCH  19  25
DOCKED: ATOM     25  C   UNL     1     140.112  75.268 221.636 -0.28 -0.02    +0.115 C  
DOCKED: BRANCH  25  26
DOCKED: ATOM     26  C   UNL     1     139.698  76.550 222.233 -0.34 -0.01    +0.030 CG0
DOCKED: ATOM     27  G   UNL     1     138.463  76.666 222.994 +0.00 +0.00    +0.000 G0 
DOCKED: ENDBRANCH  25  26
DOCKED: BRANCH  25  28
DOCKED: ATOM     28  C   UNL     1     141.363  75.321 220.816 -0.29 +0.01    -0.025 A  
DOCKED: ATOM     29  C   UNL     1     141.611  76.372 219.928 -0.25 -0.00    +0.006 A  
DOCKED: ATOM     30  C   UNL     1     142.346  74.360 220.885 -0.27 -0.00    +0.006 A  
DOCKED: ATOM     31  C   UNL     1     142.754  76.447 219.171 -0.34 -0.00    +0.000 A  
DOCKED: ATOM     32  C   UNL     1     143.510  74.418 220.126 -0.38 -0.00    +0.000 A  
DOCKED: ATOM     33  C   UNL     1     143.719  75.469 219.262 -0.35 -0.00    +0.000 A  
DOCKED: ENDBRANCH  25  28
DOCKED: ENDBRANCH  19  25
DOCKED: ENDBRANCH   1  19
DOCKED: TORSDOF 5
DOCKED: TER
DOCKED: ENDMDL
________________________________________________________________________________


    FINAL DOCKED STATE:
    ________________________


Run:   10 / 20
Time taken for this run:   0.048s

DOCKED: MODEL        10
DOCKED: USER    Run = 10
DOCKED: USER
DOCKED: USER    Estimated Free Energy of Binding    =  -5.13 kcal/mol  [=(1)+(2)+(3)-(4)]
DOCKED: USER
DOCKED: USER    (1) Final Intermolecular Energy     =  -8.41 kcal/mol
DOCKED: USER        vdW + Hbond + desolv Energy     =  -8.81 kcal/mol
DOCKED: USER        Electrostatic Energy            =  +0.04 kcal/mol
DOCKED: USER        Moving Ligand-Fixed Receptor    =  -8.77 kcal/mol
DOCKED: USER        Moving Ligand-Moving Receptor   =  +0.36 kcal/mol
DOCKED: USER    (2) Final Total Internal Energy     =  -2.35 kcal/mol
DOCKED: USER    (3) Torsional Free Energy           =  +3.28 kcal/mol
DOCKED: USER    (4) Unbound System's Energy         =  -2.35 kcal/mol
DOCKED: USER
DOCKED: USER
DOCKED: REMARK SMILES O=C(NCC(=O)N1CCCCC[C@@H]1c1ccccc1)c1ccc2cc(Cl)ccc2n1
DOCKED: REMARK SMILES IDX 5 1 6 2 4 3 3 4 2 5 1 6 20 8 21 9 30 10 22 11 29 12 23 13
DOCKED: REMARK SMILES IDX 28 14 24 15 27 16 25 17 26 18 7 19 8 20 9 21 10 22 11 23
DOCKED: REMARK SMILES IDX 13 25 12 26 14 28 15 29 19 30 16 31 18 32 17 33
DOCKED: REMARK H PARENT 3 7
DOCKED: REMARK Flexibility Score:   84.900
DOCKED: USER                              x       y       z     vdW  Elec       q    Type
DOCKED: USER                           _______ _______ _______ _____ _____    ______ ____
DOCKED: ROOT
DOCKED: ATOM      1  C   UNL     1     141.027  75.180 220.826 -0.19 -0.07    +0.242 C  
DOCKED: ATOM      2  O   UNL     1     141.465  75.585 221.939 -0.35 +0.09    -0.273 OA 
DOCKED: ENDROOT
DOCKED: BRANCH   1   3
DOCKED: ATOM      3  C   UNL     1     140.232  73.954 220.690 -0.13 -0.04    +0.216 C  
DOCKED: BRANCH   3   4
DOCKED: ATOM      4  N   UNL     1     140.357  73.148 221.896 -0.16 +0.03    -0.342 N  
DOCKED: ATOM      5  C   UNL     1     139.673  71.904 221.906 -0.16 -0.05    +0.270 C  
DOCKED: ATOM      6  O   UNL     1     138.988  71.496 220.937 -0.04 +0.05    -0.268 OA 
DOCKED: ATOM      7  H   UNL     1     140.930  73.503 222.693 +0.04 +0.03    +0.164 HD 
DOCKED: BRANCH   5   8
DOCKED: ATOM      8  C   UNL     1     139.777  71.063 223.109 -0.26 -0.02    +0.128 A  
DOCKED: ATOM      9  C   UNL     1     139.276  69.785 223.131 -0.22 -0.01    +0.035 A  
DOCKED: ATOM     10  N   UNL     1     140.370  71.514 224.241 -0.29 +0.04    -0.243 NA 
DOCKED: ATOM     11  C   UNL     1     139.355  68.962 224.248 -0.29 -0.00    +0.013 A  
DOCKED: ATOM     12  C   UNL     1     140.470  70.749 225.351 -0.49 -0.01    +0.071 A  
DOCKED: ATOM     13  C   UNL     1     139.969  69.474 225.371 -0.44 -0.00    +0.002 A  
DOCKED: ATOM     14  C   UNL     1     141.083  71.252 226.479 -0.66 -0.00    +0.030 A  
DOCKED: ATOM     15  C   UNL     1     140.067  68.681 226.506 -0.56 -0.01    +0.030 A  
DOCKED: ATOM     16  C   UNL     1     141.182  70.468 227.605 -0.52 -0.00    +0.023 A  
DOCKED: ATOM     17  C   UNL     1     140.680  69.185 227.632 -0.59 -0.01    +0.041 A  
DOCKED: ATOM     18  Cl  UNL     1     140.788  68.169 229.039 -0.40 +0.02    -0.084 Cl 
DOCKED: ENDBRANCH   5   8
DOCKED: ENDBRANCH   3   4
DOCKED: ENDBRANCH   1   3
DOCKED: BRANCH   1  19
DOCKED: ATOM     19  N   UNL     1     141.377  76.030 219.701 -0.06 +0.13    -0.334 N  
DOCKED: BRANCH  19  20
DOCKED: ATOM     20  C   UNL     1     140.223  76.400 218.953 -0.05 -0.04    +0.120 C  
DOCKED: BRANCH  20  21
DOCKED: ATOM     21  C   UNL     1     140.041  77.742 218.448 -0.06 -0.01    +0.022 C  
DOCKED: BRANCH  21  22
DOCKED: ATOM     22  C   UNL     1     141.166  78.518 217.884 -0.15 -0.00    +0.002 C  
DOCKED: BRANCH  22  23
DOCKED: ATOM     23  C   UNL     1     142.395  77.753 217.588 -0.27 -0.00    +0.003 CG0
DOCKED: ATOM     24  G   UNL     1     143.253  77.290 218.669 +0.00 +0.00    +0.000 G0 
DOCKED: ENDBRANCH  22  23
DOCKED: ENDBRANCH  21  22
DOCKED: ENDBRANCH  20  21
DOCKED: ENDBRANCH  19  20
DOCKED: BRANCH  19  25
DOCKED: ATOM     25  C   UNL     1     142.793  76.270 219.628 -0.31 -0.07    +0.115 C  
DOCKED: BRANCH  25  26
DOCKED: ATOM     26  C   UNL     1     143.253  77.292 218.670 -0.17 -0.02    +0.030 CG0
DOCKED: ATOM     27  G   UNL     1     142.394  77.757 217.590 +0.00 +0.00    +0.000 G0 
DOCKED: ENDBRANCH  25  26
DOCKED: BRANCH  25  28
DOCKED: ATOM     28  C   UNL     1     143.506  74.956 219.548 -0.35 +0.01    -0.025 A  
DOCKED: ATOM     29  C   UNL     1     144.527  74.624 220.442 -0.46 -0.00    +0.006 A  
DOCKED: ATOM     30  C   UNL     1     143.205  73.996 218.609 -0.17 -0.00    +0.006 A  
DOCKED: ATOM     31  C   UNL     1     145.192  73.423 220.394 -0.56 -0.00    +0.000 A  
DOCKED: ATOM     32  C   UNL     1     143.866  72.774 218.544 -0.16 -0.00    +0.000 A  
DOCKED: ATOM     33  C   UNL     1     144.867  72.482 219.442 -0.33 +0.00    +0.000 A  
DOCKED: ENDBRANCH  25  28
DOCKED: ENDBRANCH  19  25
DOCKED: ENDBRANCH   1  19
DOCKED: TORSDOF 5
DOCKED: TER
DOCKED: ENDMDL
________________________________________________________________________________


    FINAL DOCKED STATE:
    ________________________


Run:   11 / 20
Time taken for this run:   0.048s

DOCKED: MODEL        11
DOCKED: USER    Run = 11
DOCKED: USER
DOCKED: USER    Estimated Free Energy of Binding    =  -6.26 kcal/mol  [=(1)+(2)+(3)-(4)]
DOCKED: USER
DOCKED: USER    (1) Final Intermolecular Energy     =  -9.54 kcal/mol
DOCKED: USER        vdW + Hbond + desolv Energy     = -10.74 kcal/mol
DOCKED: USER        Electrostatic Energy            =  -0.03 kcal/mol
DOCKED: USER        Moving Ligand-Fixed Receptor    = -10.76 kcal/mol
DOCKED: USER        Moving Ligand-Moving Receptor   =  +1.22 kcal/mol
DOCKED: USER    (2) Final Total Internal Energy     =  -1.68 kcal/mol
DOCKED: USER    (3) Torsional Free Energy           =  +3.28 kcal/mol
DOCKED: USER    (4) Unbound System's Energy         =  -1.68 kcal/mol
DOCKED: USER
DOCKED: USER
DOCKED: REMARK SMILES O=C(NCC(=O)N1CCCCC[C@@H]1c1ccccc1)c1ccc2cc(Cl)ccc2n1
DOCKED: REMARK SMILES IDX 5 1 6 2 4 3 3 4 2 5 1 6 20 8 21 9 30 10 22 11 29 12 23 13
DOCKED: REMARK SMILES IDX 28 14 24 15 27 16 25 17 26 18 7 19 8 20 9 21 10 22 11 23
DOCKED: REMARK SMILES IDX 13 25 12 26 14 28 15 29 19 30 16 31 18 32 17 33
DOCKED: REMARK H PARENT 3 7
DOCKED: REMARK Flexibility Score:   84.900
DOCKED: USER                              x       y       z     vdW  Elec       q    Type
DOCKED: USER                           _______ _______ _______ _____ _____    ______ ____
DOCKED: ROOT
DOCKED: ATOM      1  C   UNL     1     140.676  76.020 221.259 -0.22 -0.07    +0.242 C  
DOCKED: ATOM      2  O   UNL     1     141.205  76.233 222.385 -0.30 +0.10    -0.273 OA 
DOCKED: ENDROOT
DOCKED: BRANCH   1   3
DOCKED: ATOM      3  C   UNL     1     139.580  75.062 221.071 -0.16 -0.05    +0.216 C  
DOCKED: BRANCH   3   4
DOCKED: ATOM      4  N   UNL     1     139.544  74.127 222.186 -0.12 +0.05    -0.342 N  
DOCKED: ATOM      5  C   UNL     1     140.139  72.856 221.972 -0.20 -0.03    +0.270 C  
DOCKED: ATOM      6  O   UNL     1     140.675  72.529 220.886 -0.11 +0.04    -0.268 OA 
DOCKED: ATOM      7  H   UNL     1     139.093  74.415 223.082 -0.55 -0.07    +0.164 HD 
DOCKED: BRANCH   5   8
DOCKED: ATOM      8  C   UNL     1     140.120  71.885 223.078 -0.30 -0.02    +0.128 A  
DOCKED: ATOM      9  C   UNL     1     139.603  70.624 222.912 -0.25 -0.01    +0.035 A  
DOCKED: ATOM     10  N   UNL     1     140.611  72.195 224.303 -0.07 +0.03    -0.243 NA 
DOCKED: ATOM     11  C   UNL     1     139.568  69.681 223.932 -0.29 -0.00    +0.013 A  
DOCKED: ATOM     12  C   UNL     1     140.598  71.311 225.325 -0.51 -0.01    +0.071 A  
DOCKED: ATOM     13  C   UNL     1     140.082  70.053 225.157 -0.44 -0.00    +0.002 A  
DOCKED: ATOM     14  C   UNL     1     141.110  71.672 226.553 -0.70 -0.00    +0.030 A  
DOCKED: ATOM     15  C   UNL     1     140.064  69.138 226.200 -0.50 -0.01    +0.030 A  
DOCKED: ATOM     16  C   UNL     1     141.094  70.767 227.589 -0.63 -0.00    +0.023 A  
DOCKED: ATOM     17  C   UNL     1     140.576  69.500 227.427 -0.57 -0.01    +0.041 A  
DOCKED: ATOM     18  Cl  UNL     1     140.541  68.333 228.715 -0.62 +0.02    -0.084 Cl 
DOCKED: ENDBRANCH   5   8
DOCKED: ENDBRANCH   3   4
DOCKED: ENDBRANCH   1   3
DOCKED: BRANCH   1  19
DOCKED: ATOM     19  N   UNL     1     141.244  76.802 220.175 -0.09 +0.15    -0.334 N  
DOCKED: BRANCH  19  20
DOCKED: ATOM     20  C   UNL     1     142.215  76.053 219.449 -0.23 -0.06    +0.120 C  
DOCKED: BRANCH  20  21
DOCKED: ATOM     21  C   UNL     1     143.255  76.698 218.681 -0.32 -0.01    +0.022 C  
DOCKED: BRANCH  21  22
DOCKED: ATOM     22  C   UNL     1     142.958  77.810 217.753 -0.27 -0.00    +0.002 C  
DOCKED: BRANCH  22  23
DOCKED: ATOM     23  C   UNL     1     142.316  78.999 218.353 -0.31 -0.00    +0.003 CG0
DOCKED: ATOM     24  G   UNL     1     140.970  78.912 218.901 +0.00 +0.00    +0.000 G0 
DOCKED: ENDBRANCH  22  23
DOCKED: ENDBRANCH  21  22
DOCKED: ENDBRANCH  20  21
DOCKED: ENDBRANCH  19  20
DOCKED: BRANCH  19  25
DOCKED: ATOM     25  C   UNL     1     140.690  78.128 220.119 -0.16 -0.05    +0.115 C  
DOCKED: BRANCH  25  26
DOCKED: ATOM     26  C   UNL     1     140.974  78.925 218.912 -0.16 -0.01    +0.030 CG0
DOCKED: ATOM     27  G   UNL     1     142.318  79.003 218.357 +0.00 +0.00    +0.000 G0 
DOCKED: ENDBRANCH  25  26
DOCKED: BRANCH  25  28
DOCKED: ATOM     28  C   UNL     1     140.957  78.822 221.418 -0.31 +0.01    -0.025 A  
DOCKED: ATOM     29  C   UNL     1     139.922  79.139 222.303 -0.30 -0.00    +0.006 A  
DOCKED: ATOM     30  C   UNL     1     142.220  79.184 221.829 -0.41 -0.00    +0.006 A  
DOCKED: ATOM     31  C   UNL     1     140.142  79.769 223.504 -0.46 -0.00    +0.000 A  
DOCKED: ATOM     32  C   UNL     1     142.463  79.823 223.040 -0.64 -0.00    +0.000 A  
DOCKED: ATOM     33  C   UNL     1     141.418  80.118 223.887 -0.52 -0.00    +0.000 A  
DOCKED: ENDBRANCH  25  28
DOCKED: ENDBRANCH  19  25
DOCKED: ENDBRANCH   1  19
DOCKED: TORSDOF 5
DOCKED: TER
DOCKED: ENDMDL
________________________________________________________________________________


    FINAL DOCKED STATE:
    ________________________


Run:   12 / 20
Time taken for this run:   0.048s

DOCKED: MODEL        12
DOCKED: USER    Run = 12
DOCKED: USER
DOCKED: USER    Estimated Free Energy of Binding    =  -4.06 kcal/mol  [=(1)+(2)+(3)-(4)]
DOCKED: USER
DOCKED: USER    (1) Final Intermolecular Energy     =  -7.35 kcal/mol
DOCKED: USER        vdW + Hbond + desolv Energy     =  -7.49 kcal/mol
DOCKED: USER        Electrostatic Energy            =  +0.01 kcal/mol
DOCKED: USER        Moving Ligand-Fixed Receptor    =  -7.48 kcal/mol
DOCKED: USER        Moving Ligand-Moving Receptor   =  +0.14 kcal/mol
DOCKED: USER    (2) Final Total Internal Energy     =  -2.32 kcal/mol
DOCKED: USER    (3) Torsional Free Energy           =  +3.28 kcal/mol
DOCKED: USER    (4) Unbound System's Energy         =  -2.32 kcal/mol
DOCKED: USER
DOCKED: USER
DOCKED: REMARK SMILES O=C(NCC(=O)N1CCCCC[C@@H]1c1ccccc1)c1ccc2cc(Cl)ccc2n1
DOCKED: REMARK SMILES IDX 5 1 6 2 4 3 3 4 2 5 1 6 20 8 21 9 30 10 22 11 29 12 23 13
DOCKED: REMARK SMILES IDX 28 14 24 15 27 16 25 17 26 18 7 19 8 20 9 21 10 22 11 23
DOCKED: REMARK SMILES IDX 13 25 12 26 14 28 15 29 19 30 16 31 18 32 17 33
DOCKED: REMARK H PARENT 3 7
DOCKED: REMARK Flexibility Score:   84.900
DOCKED: USER                              x       y       z     vdW  Elec       q    Type
DOCKED: USER                           _______ _______ _______ _____ _____    ______ ____
DOCKED: ROOT
DOCKED: ATOM      1  C   UNL     1     140.773  73.167 218.648 -0.01 -0.05    +0.242 C  
DOCKED: ATOM      2  O   UNL     1     141.168  73.162 217.448 -0.00 +0.06    -0.273 OA 
DOCKED: ENDROOT
DOCKED: BRANCH   1   3
DOCKED: ATOM      3  C   UNL     1     139.851  72.156 219.178 -0.02 -0.04    +0.216 C  
DOCKED: BRANCH   3   4
DOCKED: ATOM      4  N   UNL     1     140.265  71.763 220.517 -0.04 +0.06    -0.342 N  
DOCKED: ATOM      5  C   UNL     1     139.232  71.537 221.464 -0.09 -0.05    +0.270 C  
DOCKED: ATOM      6  O   UNL     1     138.015  71.663 221.187 -0.04 +0.05    -0.268 OA 
DOCKED: ATOM      7  H   UNL     1     141.282  71.664 220.731 +0.05 -0.02    +0.164 HD 
DOCKED: BRANCH   5   8
DOCKED: ATOM      8  C   UNL     1     139.614  71.139 222.828 -0.24 -0.02    +0.128 A  
DOCKED: ATOM      9  C   UNL     1     140.321  71.984 223.646 -0.34 -0.00    +0.035 A  
DOCKED: ATOM     10  N   UNL     1     139.285  69.925 223.332 -0.13 +0.04    -0.243 NA 
DOCKED: ATOM     11  C   UNL     1     140.700  71.644 224.940 -0.47 -0.00    +0.013 A  
DOCKED: ATOM     12  C   UNL     1     139.631  69.549 224.583 -0.31 -0.01    +0.071 A  
DOCKED: ATOM     13  C   UNL     1     140.337  70.396 225.398 -0.51 -0.00    +0.002 A  
DOCKED: ATOM     14  C   UNL     1     139.273  68.304 225.052 -0.41 -0.00    +0.030 A  
DOCKED: ATOM     15  C   UNL     1     140.697  70.019 226.685 -0.54 -0.01    +0.030 A  
DOCKED: ATOM     16  C   UNL     1     139.628  67.928 226.326 -0.61 -0.00    +0.023 A  
DOCKED: ATOM     17  C   UNL     1     140.338  68.774 227.151 -0.60 -0.01    +0.041 A  
DOCKED: ATOM     18  Cl  UNL     1     140.803  68.330 228.767 -0.63 +0.02    -0.084 Cl 
DOCKED: ENDBRANCH   5   8
DOCKED: ENDBRANCH   3   4
DOCKED: ENDBRANCH   1   3
DOCKED: BRANCH   1  19
DOCKED: ATOM     19  N   UNL     1     141.308  74.254 219.449 -0.02 +0.09    -0.334 N  
DOCKED: BRANCH  19  20
DOCKED: ATOM     20  C   UNL     1     142.498  73.859 220.127 -0.21 -0.03    +0.120 C  
DOCKED: BRANCH  20  21
DOCKED: ATOM     21  C   UNL     1     143.649  74.729 220.212 -0.37 -0.01    +0.022 C  
DOCKED: BRANCH  21  22
DOCKED: ATOM     22  C   UNL     1     143.645  76.081 219.615 -0.38 -0.00    +0.002 C  
DOCKED: BRANCH  22  23
DOCKED: ATOM     23  C   UNL     1     142.485  76.933 219.950 -0.31 -0.00    +0.003 CG0
DOCKED: ATOM     24  G   UNL     1     141.206  76.731 219.285 +0.00 +0.00    +0.000 G0 
DOCKED: ENDBRANCH  22  23
DOCKED: ENDBRANCH  21  22
DOCKED: ENDBRANCH  20  21
DOCKED: ENDBRANCH  19  20
DOCKED: BRANCH  19  25
DOCKED: ATOM     25  C   UNL     1     140.499  75.439 219.359 -0.08 -0.03    +0.115 C  
DOCKED: BRANCH  25  26
DOCKED: ATOM     26  C   UNL     1     141.205  76.731 219.285 -0.17 -0.01    +0.030 CG0
DOCKED: ATOM     27  G   UNL     1     142.483  76.933 219.951 +0.00 +0.00    +0.000 G0 
DOCKED: ENDBRANCH  25  26
DOCKED: BRANCH  25  28
DOCKED: ATOM     28  C   UNL     1     139.412  75.365 220.386 -0.12 +0.01    -0.025 A  
DOCKED: ATOM     29  C   UNL     1     138.163  74.812 220.090 -0.06 -0.00    +0.006 A  
DOCKED: ATOM     30  C   UNL     1     139.567  75.821 221.676 -0.30 -0.00    +0.006 A  
DOCKED: ATOM     31  C   UNL     1     137.153  74.726 221.016 -0.10 -0.00    +0.000 A  
DOCKED: ATOM     32  C   UNL     1     138.556  75.744 222.628 -0.22 -0.00    +0.000 A  
DOCKED: ATOM     33  C   UNL     1     137.339  75.193 222.299 -0.21 -0.00    +0.000 A  
DOCKED: ENDBRANCH  25  28
DOCKED: ENDBRANCH  19  25
DOCKED: ENDBRANCH   1  19
DOCKED: TORSDOF 5
DOCKED: TER
DOCKED: ENDMDL
________________________________________________________________________________


    FINAL DOCKED STATE:
    ________________________


Run:   13 / 20
Time taken for this run:   0.048s

DOCKED: MODEL        13
DOCKED: USER    Run = 13
DOCKED: USER
DOCKED: USER    Estimated Free Energy of Binding    =  -6.40 kcal/mol  [=(1)+(2)+(3)-(4)]
DOCKED: USER
DOCKED: USER    (1) Final Intermolecular Energy     =  -9.68 kcal/mol
DOCKED: USER        vdW + Hbond + desolv Energy     = -10.01 kcal/mol
DOCKED: USER        Electrostatic Energy            =  -0.06 kcal/mol
DOCKED: USER        Moving Ligand-Fixed Receptor    = -10.07 kcal/mol
DOCKED: USER        Moving Ligand-Moving Receptor   =  +0.38 kcal/mol
DOCKED: USER    (2) Final Total Internal Energy     =  -1.49 kcal/mol
DOCKED: USER    (3) Torsional Free Energy           =  +3.28 kcal/mol
DOCKED: USER    (4) Unbound System's Energy         =  -1.49 kcal/mol
DOCKED: USER
DOCKED: USER
DOCKED: REMARK SMILES O=C(NCC(=O)N1CCCCC[C@@H]1c1ccccc1)c1ccc2cc(Cl)ccc2n1
DOCKED: REMARK SMILES IDX 5 1 6 2 4 3 3 4 2 5 1 6 20 8 21 9 30 10 22 11 29 12 23 13
DOCKED: REMARK SMILES IDX 28 14 24 15 27 16 25 17 26 18 7 19 8 20 9 21 10 22 11 23
DOCKED: REMARK SMILES IDX 13 25 12 26 14 28 15 29 19 30 16 31 18 32 17 33
DOCKED: REMARK H PARENT 3 7
DOCKED: REMARK Flexibility Score:   84.900
DOCKED: USER                              x       y       z     vdW  Elec       q    Type
DOCKED: USER                           _______ _______ _______ _____ _____    ______ ____
DOCKED: ROOT
DOCKED: ATOM      1  C   UNL     1     139.041  71.196 224.030 -0.21 -0.06    +0.242 C  
DOCKED: ATOM      2  O   UNL     1     137.816  71.502 224.052 -0.17 +0.08    -0.273 OA 
DOCKED: ENDROOT
DOCKED: BRANCH   1   3
DOCKED: ATOM      3  C   UNL     1     139.890  71.425 222.856 -0.23 -0.04    +0.216 C  
DOCKED: BRANCH   3   4
DOCKED: ATOM      4  N   UNL     1     140.055  72.855 222.636 -0.15 +0.04    -0.342 N  
DOCKED: ATOM      5  C   UNL     1     141.028  73.246 221.680 -0.16 -0.02    +0.270 C  
DOCKED: ATOM      6  O   UNL     1     141.725  72.421 221.041 -0.16 +0.03    -0.268 OA 
DOCKED: ATOM      7  H   UNL     1     139.468  73.528 223.176 -0.48 -0.05    +0.164 HD 
DOCKED: BRANCH   5   8
DOCKED: ATOM      8  C   UNL     1     141.221  74.684 221.432 -0.25 -0.02    +0.128 A  
DOCKED: ATOM      9  C   UNL     1     141.983  75.130 220.381 -0.27 -0.01    +0.035 A  
DOCKED: ATOM     10  N   UNL     1     140.658  75.624 222.230 -0.41 +0.04    -0.243 NA 
DOCKED: ATOM     11  C   UNL     1     142.188  76.479 220.115 -0.30 -0.01    +0.013 A  
DOCKED: ATOM     12  C   UNL     1     140.829  76.946 222.011 -0.36 -0.03    +0.071 A  
DOCKED: ATOM     13  C   UNL     1     141.590  77.389 220.960 -0.28 -0.00    +0.002 A  
DOCKED: ATOM     14  C   UNL     1     140.235  77.865 222.849 -0.31 -0.01    +0.030 A  
DOCKED: ATOM     15  C   UNL     1     141.772  78.746 220.728 -0.31 -0.02    +0.030 A  
DOCKED: ATOM     16  C   UNL     1     140.413  79.209 222.621 -0.37 -0.01    +0.023 A  
DOCKED: ATOM     17  C   UNL     1     141.177  79.662 221.566 -0.33 -0.01    +0.041 A  
DOCKED: ATOM     18  Cl  UNL     1     141.423  81.354 221.251 -0.46 +0.02    -0.084 Cl 
DOCKED: ENDBRANCH   5   8
DOCKED: ENDBRANCH   3   4
DOCKED: ENDBRANCH   1   3
DOCKED: BRANCH   1  19
DOCKED: ATOM     19  N   UNL     1     139.530  70.603 225.263 -0.19 +0.06    -0.334 N  
DOCKED: BRANCH  19  20
DOCKED: ATOM     20  C   UNL     1     140.454  71.464 225.922 -0.48 -0.02    +0.120 C  
DOCKED: BRANCH  20  21
DOCKED: ATOM     21  C   UNL     1     140.841  71.254 227.298 -0.73 -0.00    +0.022 C  
DOCKED: BRANCH  21  22
DOCKED: ATOM     22  C   UNL     1     140.579  69.976 227.991 -0.64 -0.00    +0.002 C  
DOCKED: BRANCH  22  23
DOCKED: ATOM     23  C   UNL     1     140.792  68.750 227.193 -0.65 -0.00    +0.003 CG0
DOCKED: ATOM     24  G   UNL     1     139.800  68.327 226.215 +0.00 +0.00    +0.000 G0 
DOCKED: ENDBRANCH  22  23
DOCKED: ENDBRANCH  21  22
DOCKED: ENDBRANCH  20  21
DOCKED: ENDBRANCH  19  20
DOCKED: BRANCH  19  25
DOCKED: ATOM     25  C   UNL     1     138.965  69.301 225.495 -0.36 -0.01    +0.115 C  
DOCKED: BRANCH  25  26
DOCKED: ATOM     26  C   UNL     1     139.802  68.323 226.213 -0.58 -0.00    +0.030 CG0
DOCKED: ATOM     27  G   UNL     1     140.794  68.750 227.190 +0.00 +0.00    +0.000 G0 
DOCKED: ENDBRANCH  25  26
DOCKED: BRANCH  25  28
DOCKED: ATOM     28  C   UNL     1     138.354  68.802 224.222 -0.31 +0.00    -0.025 A  
DOCKED: ATOM     29  C   UNL     1     139.129  68.206 223.224 -0.15 -0.00    +0.006 A  
DOCKED: ATOM     30  C   UNL     1     137.006  68.887 223.954 -0.20 -0.00    +0.006 A  
DOCKED: ATOM     31  C   UNL     1     138.591  67.734 222.052 -0.22 -0.00    +0.000 A  
DOCKED: ATOM     32  C   UNL     1     136.443  68.416 222.773 -0.14 -0.00    +0.000 A  
DOCKED: ATOM     33  C   UNL     1     137.238  67.834 221.813 -0.15 -0.00    +0.000 A  
DOCKED: ENDBRANCH  25  28
DOCKED: ENDBRANCH  19  25
DOCKED: ENDBRANCH   1  19
DOCKED: TORSDOF 5
DOCKED: TER
DOCKED: ENDMDL
________________________________________________________________________________


    FINAL DOCKED STATE:
    ________________________


Run:   14 / 20
Time taken for this run:   0.048s

DOCKED: MODEL        14
DOCKED: USER    Run = 14
DOCKED: USER
DOCKED: USER    Estimated Free Energy of Binding    =  -3.86 kcal/mol  [=(1)+(2)+(3)-(4)]
DOCKED: USER
DOCKED: USER    (1) Final Intermolecular Energy     =  -7.14 kcal/mol
DOCKED: USER        vdW + Hbond + desolv Energy     =  -7.98 kcal/mol
DOCKED: USER        Electrostatic Energy            =  -0.02 kcal/mol
DOCKED: USER        Moving Ligand-Fixed Receptor    =  -8.01 kcal/mol
DOCKED: USER        Moving Ligand-Moving Receptor   =  +0.87 kcal/mol
DOCKED: USER    (2) Final Total Internal Energy     =  -2.57 kcal/mol
DOCKED: USER    (3) Torsional Free Energy           =  +3.28 kcal/mol
DOCKED: USER    (4) Unbound System's Energy         =  -2.57 kcal/mol
DOCKED: USER
DOCKED: USER
DOCKED: REMARK SMILES O=C(NCC(=O)N1CCCCC[C@@H]1c1ccccc1)c1ccc2cc(Cl)ccc2n1
DOCKED: REMARK SMILES IDX 5 1 6 2 4 3 3 4 2 5 1 6 20 8 21 9 30 10 22 11 29 12 23 13
DOCKED: REMARK SMILES IDX 28 14 24 15 27 16 25 17 26 18 7 19 8 20 9 21 10 22 11 23
DOCKED: REMARK SMILES IDX 13 25 12 26 14 28 15 29 19 30 16 31 18 32 17 33
DOCKED: REMARK H PARENT 3 7
DOCKED: REMARK Flexibility Score:   84.900
DOCKED: USER                              x       y       z     vdW  Elec       q    Type
DOCKED: USER                           _______ _______ _______ _____ _____    ______ ____
DOCKED: ROOT
DOCKED: ATOM      1  C   UNL     1     137.460  80.181 221.243 -0.04 -0.04    +0.242 C  
DOCKED: ATOM      2  O   UNL     1     137.765  80.824 220.200 -0.02 +0.05    -0.273 OA 
DOCKED: ENDROOT
DOCKED: BRANCH   1   3
DOCKED: ATOM      3  C   UNL     1     137.142  78.749 221.222 -0.05 -0.04    +0.216 C  
DOCKED: BRANCH   3   4
DOCKED: ATOM      4  N   UNL     1     138.358  77.975 221.015 -0.02 +0.07    -0.342 N  
DOCKED: ATOM      5  C   UNL     1     138.352  76.638 221.490 -0.13 -0.06    +0.270 C  
DOCKED: ATOM      6  O   UNL     1     137.362  76.123 222.063 -0.14 +0.06    -0.268 OA 
DOCKED: ATOM      7  H   UNL     1     139.173  78.419 220.537 +0.05 -0.04    +0.164 HD 
DOCKED: BRANCH   5   8
DOCKED: ATOM      8  C   UNL     1     139.565  75.827 221.298 -0.21 -0.03    +0.128 A  
DOCKED: ATOM      9  C   UNL     1     139.627  74.524 221.726 -0.27 -0.01    +0.035 A  
DOCKED: ATOM     10  N   UNL     1     140.668  76.331 220.694 -0.12 +0.08    -0.243 NA 
DOCKED: ATOM     11  C   UNL     1     140.754  73.727 221.563 -0.30 -0.00    +0.013 A  
DOCKED: ATOM     12  C   UNL     1     141.787  75.595 220.513 -0.26 -0.03    +0.071 A  
DOCKED: ATOM     13  C   UNL     1     141.846  74.294 220.941 -0.28 -0.00    +0.002 A  
DOCKED: ATOM     14  C   UNL     1     142.884  76.152 219.892 -0.33 -0.02    +0.030 A  
DOCKED: ATOM     15  C   UNL     1     142.990  73.530 220.760 -0.27 -0.01    +0.030 A  
DOCKED: ATOM     16  C   UNL     1     144.020  75.397 219.711 -0.35 -0.01    +0.023 A  
DOCKED: ATOM     17  C   UNL     1     144.086  74.088 220.138 -0.40 -0.01    +0.041 A  
DOCKED: ATOM     18  Cl  UNL     1     145.505  73.107 219.925 -0.64 -0.01    -0.084 Cl 
DOCKED: ENDBRANCH   5   8
DOCKED: ENDBRANCH   3   4
DOCKED: ENDBRANCH   1   3
DOCKED: BRANCH   1  19
DOCKED: ATOM     19  N   UNL     1     137.452  80.980 222.456 -0.05 +0.05    -0.334 N  
DOCKED: BRANCH  19  20
DOCKED: ATOM     20  C   UNL     1     136.935  82.285 222.214 -0.09 -0.02    +0.120 C  
DOCKED: BRANCH  20  21
DOCKED: ATOM     21  C   UNL     1     136.961  83.314 223.228 -0.14 -0.00    +0.022 C  
DOCKED: BRANCH  21  22
DOCKED: ATOM     22  C   UNL     1     136.607  83.028 224.634 -0.21 -0.00    +0.002 C  
DOCKED: BRANCH  22  23
DOCKED: ATOM     23  C   UNL     1     137.472  82.053 225.332 -0.24 -0.00    +0.003 CG0
DOCKED: ATOM     24  G   UNL     1     137.493  80.657 224.918 +0.00 +0.00    +0.000 G0 
DOCKED: ENDBRANCH  22  23
DOCKED: ENDBRANCH  21  22
DOCKED: ENDBRANCH  20  21
DOCKED: ENDBRANCH  19  20
DOCKED: BRANCH  19  25
DOCKED: ATOM     25  C   UNL     1     137.976  80.254 223.582 -0.28 -0.01    +0.115 C  
DOCKED: BRANCH  25  26
DOCKED: ATOM     26  C   UNL     1     137.494  80.649 224.919 -0.29 -0.00    +0.030 CG0
DOCKED: ATOM     27  G   UNL     1     137.470  82.044 225.332 +0.00 +0.00    +0.000 G0 
DOCKED: ENDBRANCH  25  26
DOCKED: BRANCH  25  28
DOCKED: ATOM     28  C   UNL     1     139.463  80.151 223.446 -0.40 +0.00    -0.025 A  
DOCKED: ATOM     29  C   UNL     1     140.110  78.913 223.422 -0.40 -0.00    +0.006 A  
DOCKED: ATOM     30  C   UNL     1     140.283  81.251 223.329 -0.34 -0.00    +0.006 A  
DOCKED: ATOM     31  C   UNL     1     141.472  78.792 223.292 -0.58 -0.00    +0.000 A  
DOCKED: ATOM     32  C   UNL     1     141.664  81.149 223.197 -0.56 -0.00    +0.000 A  
DOCKED: ATOM     33  C   UNL     1     142.266  79.911 223.177 -0.63 -0.00    +0.000 A  
DOCKED: ENDBRANCH  25  28
DOCKED: ENDBRANCH  19  25
DOCKED: ENDBRANCH   1  19
DOCKED: TORSDOF 5
DOCKED: TER
DOCKED: ENDMDL
________________________________________________________________________________


    FINAL DOCKED STATE:
    ________________________


Run:   15 / 20
Time taken for this run:   0.048s

DOCKED: MODEL        15
DOCKED: USER    Run = 15
DOCKED: USER
DOCKED: USER    Estimated Free Energy of Binding    =  -4.50 kcal/mol  [=(1)+(2)+(3)-(4)]
DOCKED: USER
DOCKED: USER    (1) Final Intermolecular Energy     =  -7.78 kcal/mol
DOCKED: USER        vdW + Hbond + desolv Energy     =  -7.89 kcal/mol
DOCKED: USER        Electrostatic Energy            =  -0.01 kcal/mol
DOCKED: USER        Moving Ligand-Fixed Receptor    =  -7.90 kcal/mol
DOCKED: USER        Moving Ligand-Moving Receptor   =  +0.12 kcal/mol
DOCKED: USER    (2) Final Total Internal Energy     =  -2.59 kcal/mol
DOCKED: USER    (3) Torsional Free Energy           =  +3.28 kcal/mol
DOCKED: USER    (4) Unbound System's Energy         =  -2.59 kcal/mol
DOCKED: USER
DOCKED: USER
DOCKED: REMARK SMILES O=C(NCC(=O)N1CCCCC[C@@H]1c1ccccc1)c1ccc2cc(Cl)ccc2n1
DOCKED: REMARK SMILES IDX 5 1 6 2 4 3 3 4 2 5 1 6 20 8 21 9 30 10 22 11 29 12 23 13
DOCKED: REMARK SMILES IDX 28 14 24 15 27 16 25 17 26 18 7 19 8 20 9 21 10 22 11 23
DOCKED: REMARK SMILES IDX 13 25 12 26 14 28 15 29 19 30 16 31 18 32 17 33
DOCKED: REMARK H PARENT 3 7
DOCKED: REMARK Flexibility Score:   84.900
DOCKED: USER                              x       y       z     vdW  Elec       q    Type
DOCKED: USER                           _______ _______ _______ _____ _____    ______ ____
DOCKED: ROOT
DOCKED: ATOM      1  C   UNL     1     142.222  70.984 219.069 -0.05 -0.03    +0.242 C  
DOCKED: ATOM      2  O   UNL     1     141.847  71.259 217.895 -0.01 +0.04    -0.273 OA 
DOCKED: ENDROOT
DOCKED: BRANCH   1   3
DOCKED: ATOM      3  C   UNL     1     141.552  71.524 220.257 -0.10 -0.03    +0.216 C  
DOCKED: BRANCH   3   4
DOCKED: ATOM      4  N   UNL     1     141.529  72.978 220.194 -0.05 +0.06    -0.342 N  
DOCKED: ATOM      5  C   UNL     1     141.059  73.660 221.346 -0.18 -0.03    +0.270 C  
DOCKED: ATOM      6  O   UNL     1     140.676  73.064 222.382 -0.68 +0.00    -0.268 OA 
DOCKED: ATOM      7  H   UNL     1     141.850  73.459 219.325 +0.05 -0.04    +0.164 HD 
DOCKED: BRANCH   5   8
DOCKED: ATOM      8  C   UNL     1     141.022  75.131 221.317 -0.28 -0.03    +0.128 A  
DOCKED: ATOM      9  C   UNL     1     140.385  75.848 222.300 -0.26 -0.01    +0.035 A  
DOCKED: ATOM     10  N   UNL     1     141.612  75.837 220.322 -0.14 +0.10    -0.243 NA 
DOCKED: ATOM     11  C   UNL     1     140.329  77.237 222.306 -0.40 -0.00    +0.013 A  
DOCKED: ATOM     12  C   UNL     1     141.583  77.188 220.286 -0.25 -0.04    +0.071 A  
DOCKED: ATOM     13  C   UNL     1     140.947  77.901 221.268 -0.31 -0.00    +0.002 A  
DOCKED: ATOM     14  C   UNL     1     142.198  77.861 219.253 -0.29 -0.02    +0.030 A  
DOCKED: ATOM     15  C   UNL     1     140.912  79.288 221.240 -0.28 -0.01    +0.030 A  
DOCKED: ATOM     16  C   UNL     1     142.166  79.236 219.222 -0.26 -0.02    +0.023 A  
DOCKED: ATOM     17  C   UNL     1     141.528  79.960 220.207 -0.28 -0.02    +0.041 A  
DOCKED: ATOM     18  Cl  UNL     1     141.468  81.698 220.198 -0.33 +0.03    -0.084 Cl 
DOCKED: ENDBRANCH   5   8
DOCKED: ENDBRANCH   3   4
DOCKED: ENDBRANCH   1   3
DOCKED: BRANCH   1  19
DOCKED: ATOM     19  N   UNL     1     143.367  70.093 219.137 -0.05 +0.02    -0.334 N  
DOCKED: BRANCH  19  20
DOCKED: ATOM     20  C   UNL     1     142.986  68.794 219.582 -0.11 -0.01    +0.120 C  
DOCKED: BRANCH  20  21
DOCKED: ATOM     21  C   UNL     1     143.773  67.622 219.272 -0.28 -0.00    +0.022 C  
DOCKED: BRANCH  21  22
DOCKED: ATOM     22  C   UNL     1     145.240  67.603 219.452 -0.49 -0.00    +0.002 C  
DOCKED: BRANCH  22  23
DOCKED: ATOM     23  C   UNL     1     145.998  68.623 218.698 -0.39 +0.00    +0.003 CG0
DOCKED: ATOM     24  G   UNL     1     145.848  70.037 219.014 +0.00 +0.00    +0.000 G0 
DOCKED: ENDBRANCH  22  23
DOCKED: ENDBRANCH  21  22
DOCKED: ENDBRANCH  20  21
DOCKED: ENDBRANCH  19  20
DOCKED: BRANCH  19  25
DOCKED: ATOM     25  C   UNL     1     144.586  70.750 218.748 -0.17 +0.02    +0.115 C  
DOCKED: BRANCH  25  26
DOCKED: ATOM     26  C   UNL     1     145.848  70.037 219.014 -0.31 +0.02    +0.030 CG0
DOCKED: ATOM     27  G   UNL     1     145.999  68.624 218.699 +0.00 +0.00    +0.000 G0 
DOCKED: ENDBRANCH  25  26
DOCKED: BRANCH  25  28
DOCKED: ATOM     28  C   UNL     1     144.545  72.170 219.221 -0.25 -0.00    -0.025 A  
DOCKED: ATOM     29  C   UNL     1     144.922  72.518 220.521 -0.44 -0.00    +0.006 A  
DOCKED: ATOM     30  C   UNL     1     144.147  73.216 218.419 -0.18 -0.00    +0.006 A  
DOCKED: ATOM     31  C   UNL     1     144.900  73.814 220.975 -0.49 -0.00    +0.000 A  
DOCKED: ATOM     32  C   UNL     1     144.117  74.534 218.861 -0.21 -0.00    +0.000 A  
DOCKED: ATOM     33  C   UNL     1     144.496  74.839 220.148 -0.40 -0.00    +0.000 A  
DOCKED: ENDBRANCH  25  28
DOCKED: ENDBRANCH  19  25
DOCKED: ENDBRANCH   1  19
DOCKED: TORSDOF 5
DOCKED: TER
DOCKED: ENDMDL
________________________________________________________________________________


    FINAL DOCKED STATE:
    ________________________


Run:   16 / 20
Time taken for this run:   0.048s

DOCKED: MODEL        16
DOCKED: USER    Run = 16
DOCKED: USER
DOCKED: USER    Estimated Free Energy of Binding    =  -5.55 kcal/mol  [=(1)+(2)+(3)-(4)]
DOCKED: USER
DOCKED: USER    (1) Final Intermolecular Energy     =  -8.83 kcal/mol
DOCKED: USER        vdW + Hbond + desolv Energy     =  -9.25 kcal/mol
DOCKED: USER        Electrostatic Energy            =  -0.02 kcal/mol
DOCKED: USER        Moving Ligand-Fixed Receptor    =  -9.27 kcal/mol
DOCKED: USER        Moving Ligand-Moving Receptor   =  +0.44 kcal/mol
DOCKED: USER    (2) Final Total Internal Energy     =  -1.90 kcal/mol
DOCKED: USER    (3) Torsional Free Energy           =  +3.28 kcal/mol
DOCKED: USER    (4) Unbound System's Energy         =  -1.90 kcal/mol
DOCKED: USER
DOCKED: USER
DOCKED: REMARK SMILES O=C(NCC(=O)N1CCCCC[C@@H]1c1ccccc1)c1ccc2cc(Cl)ccc2n1
DOCKED: REMARK SMILES IDX 5 1 6 2 4 3 3 4 2 5 1 6 20 8 21 9 30 10 22 11 29 12 23 13
DOCKED: REMARK SMILES IDX 28 14 24 15 27 16 25 17 26 18 7 19 8 20 9 21 10 22 11 23
DOCKED: REMARK SMILES IDX 13 25 12 26 14 28 15 29 19 30 16 31 18 32 17 33
DOCKED: REMARK H PARENT 3 7
DOCKED: REMARK Flexibility Score:   84.900
DOCKED: USER                              x       y       z     vdW  Elec       q    Type
DOCKED: USER                           _______ _______ _______ _____ _____    ______ ____
DOCKED: ROOT
DOCKED: ATOM      1  C   UNL     1     140.294  76.461 221.562 -0.23 -0.07    +0.242 C  
DOCKED: ATOM      2  O   UNL     1     140.746  76.646 222.726 -0.33 +0.08    -0.273 OA 
DOCKED: ENDROOT
DOCKED: BRANCH   1   3
DOCKED: ATOM      3  C   UNL     1     139.889  75.138 221.074 -0.18 -0.05    +0.216 C  
DOCKED: BRANCH   3   4
DOCKED: ATOM      4  N   UNL     1     139.815  74.203 222.187 -0.07 +0.03    -0.342 N  
DOCKED: ATOM      5  C   UNL     1     140.187  72.860 221.919 -0.20 -0.03    +0.270 C  
DOCKED: ATOM      6  O   UNL     1     140.565  72.471 220.787 -0.10 +0.04    -0.268 OA 
DOCKED: ATOM      7  H   UNL     1     139.497  74.542 223.122 -0.52 -0.01    +0.164 HD 
DOCKED: BRANCH   5   8
DOCKED: ATOM      8  C   UNL     1     140.123  71.887 223.021 -0.30 -0.02    +0.128 A  
DOCKED: ATOM      9  C   UNL     1     139.571  70.642 222.843 -0.25 -0.01    +0.035 A  
DOCKED: ATOM     10  N   UNL     1     140.604  72.178 224.254 -0.09 +0.03    -0.243 NA 
DOCKED: ATOM     11  C   UNL     1     139.493  69.697 223.859 -0.28 -0.00    +0.013 A  
DOCKED: ATOM     12  C   UNL     1     140.550  71.292 225.273 -0.50 -0.01    +0.071 A  
DOCKED: ATOM     13  C   UNL     1     140.000  70.050 225.092 -0.43 -0.00    +0.002 A  
DOCKED: ATOM     14  C   UNL     1     141.054  71.634 226.509 -0.69 -0.00    +0.030 A  
DOCKED: ATOM     15  C   UNL     1     139.940  69.133 226.132 -0.49 -0.00    +0.030 A  
DOCKED: ATOM     16  C   UNL     1     140.996  70.727 227.542 -0.64 -0.00    +0.023 A  
DOCKED: ATOM     17  C   UNL     1     140.444  69.476 227.367 -0.57 -0.01    +0.041 A  
DOCKED: ATOM     18  Cl  UNL     1     140.355  68.307 228.652 -0.56 +0.02    -0.084 Cl 
DOCKED: ENDBRANCH   5   8
DOCKED: ENDBRANCH   3   4
DOCKED: ENDBRANCH   1   3
DOCKED: BRANCH   1  19
DOCKED: ATOM     19  N   UNL     1     140.212  77.666 220.754 -0.05 +0.11    -0.334 N  
DOCKED: BRANCH  19  20
DOCKED: ATOM     20  C   UNL     1     138.872  77.926 220.347 -0.06 -0.03    +0.120 C  
DOCKED: BRANCH  20  21
DOCKED: ATOM     21  C   UNL     1     138.282  79.240 220.465 -0.07 -0.00    +0.022 C  
DOCKED: BRANCH  21  22
DOCKED: ATOM     22  C   UNL     1     139.102  80.435 220.752 -0.12 -0.00    +0.002 C  
DOCKED: BRANCH  22  23
DOCKED: ATOM     23  C   UNL     1     140.396  80.518 220.043 -0.18 -0.00    +0.003 CG0
DOCKED: ATOM     24  G   UNL     1     141.543  79.753 220.510 +0.00 +0.00    +0.000 G0 
DOCKED: ENDBRANCH  22  23
DOCKED: ENDBRANCH  21  22
DOCKED: ENDBRANCH  20  21
DOCKED: ENDBRANCH  19  20
DOCKED: BRANCH  19  25
DOCKED: ATOM     25  C   UNL     1     141.500  78.278 220.568 -0.26 -0.06    +0.115 C  
DOCKED: BRANCH  25  26
DOCKED: ATOM     26  C   UNL     1     141.542  79.751 220.509 -0.30 -0.01    +0.030 CG0
DOCKED: ATOM     27  G   UNL     1     140.397  80.522 220.048 +0.00 +0.00    +0.000 G0 
DOCKED: ENDBRANCH  25  26
DOCKED: BRANCH  25  28
DOCKED: ATOM     28  C   UNL     1     142.216  77.576 219.457 -0.30 +0.02    -0.025 A  
DOCKED: ATOM     29  C   UNL     1     142.288  78.124 218.173 -0.29 -0.00    +0.006 A  
DOCKED: ATOM     30  C   UNL     1     142.851  76.366 219.620 -0.37 -0.00    +0.006 A  
DOCKED: ATOM     31  C   UNL     1     142.945  77.503 217.139 -0.28 -0.00    +0.000 A  
DOCKED: ATOM     32  C   UNL     1     143.520  75.721 218.586 -0.28 -0.00    +0.000 A  
DOCKED: ATOM     33  C   UNL     1     143.571  76.291 217.335 -0.24 -0.00    +0.000 A  
DOCKED: ENDBRANCH  25  28
DOCKED: ENDBRANCH  19  25
DOCKED: ENDBRANCH   1  19
DOCKED: TORSDOF 5
DOCKED: TER
DOCKED: ENDMDL
________________________________________________________________________________


    FINAL DOCKED STATE:
    ________________________


Run:   17 / 20
Time taken for this run:   0.048s

DOCKED: MODEL        17
DOCKED: USER    Run = 17
DOCKED: USER
DOCKED: USER    Estimated Free Energy of Binding    =  -4.42 kcal/mol  [=(1)+(2)+(3)-(4)]
DOCKED: USER
DOCKED: USER    (1) Final Intermolecular Energy     =  -7.70 kcal/mol
DOCKED: USER        vdW + Hbond + desolv Energy     =  -8.59 kcal/mol
DOCKED: USER        Electrostatic Energy            =  -0.03 kcal/mol
DOCKED: USER        Moving Ligand-Fixed Receptor    =  -8.62 kcal/mol
DOCKED: USER        Moving Ligand-Moving Receptor   =  +0.92 kcal/mol
DOCKED: USER    (2) Final Total Internal Energy     =  -1.90 kcal/mol
DOCKED: USER    (3) Torsional Free Energy           =  +3.28 kcal/mol
DOCKED: USER    (4) Unbound System's Energy         =  -1.90 kcal/mol
DOCKED: USER
DOCKED: USER
DOCKED: REMARK SMILES O=C(NCC(=O)N1CCCCC[C@@H]1c1ccccc1)c1ccc2cc(Cl)ccc2n1
DOCKED: REMARK SMILES IDX 5 1 6 2 4 3 3 4 2 5 1 6 20 8 21 9 30 10 22 11 29 12 23 13
DOCKED: REMARK SMILES IDX 28 14 24 15 27 16 25 17 26 18 7 19 8 20 9 21 10 22 11 23
DOCKED: REMARK SMILES IDX 13 25 12 26 14 28 15 29 19 30 16 31 18 32 17 33
DOCKED: REMARK H PARENT 3 7
DOCKED: REMARK Flexibility Score:   84.900
DOCKED: USER                              x       y       z     vdW  Elec       q    Type
DOCKED: USER                           _______ _______ _______ _____ _____    ______ ____
DOCKED: ROOT
DOCKED: ATOM      1  C   UNL     1     139.503  76.929 222.293 -0.24 -0.05    +0.242 C  
DOCKED: ATOM      2  O   UNL     1     140.195  75.947 222.682 -0.37 +0.04    -0.273 OA 
DOCKED: ENDROOT
DOCKED: BRANCH   1   3
DOCKED: ATOM      3  C   UNL     1     138.192  76.766 221.654 -0.15 -0.05    +0.216 C  
DOCKED: BRANCH   3   4
DOCKED: ATOM      4  N   UNL     1     137.276  76.101 222.570 -0.14 +0.08    -0.342 N  
DOCKED: ATOM      5  C   UNL     1     136.170  76.862 223.030 -0.13 -0.05    +0.270 C  
DOCKED: ATOM      6  O   UNL     1     135.969  78.051 222.681 -0.09 +0.04    -0.268 OA 
DOCKED: ATOM      7  H   UNL     1     137.458  75.113 222.851 -0.22 -0.06    +0.164 HD 
DOCKED: BRANCH   5   8
DOCKED: ATOM      8  C   UNL     1     135.223  76.223 223.957 -0.20 -0.02    +0.128 A  
DOCKED: ATOM      9  C   UNL     1     134.306  76.961 224.663 -0.19 -0.00    +0.035 A  
DOCKED: ATOM     10  N   UNL     1     135.217  74.881 224.152 -0.18 +0.04    -0.243 NA 
DOCKED: ATOM     11  C   UNL     1     133.396  76.393 225.547 -0.24 -0.00    +0.013 A  
DOCKED: ATOM     12  C   UNL     1     134.352  74.284 225.002 -0.27 -0.01    +0.071 A  
DOCKED: ATOM     13  C   UNL     1     133.437  75.024 225.704 -0.30 -0.00    +0.002 A  
DOCKED: ATOM     14  C   UNL     1     134.383  72.916 225.167 -0.25 -0.00    +0.030 A  
DOCKED: ATOM     15  C   UNL     1     132.544  74.420 226.579 -0.33 -0.00    +0.030 A  
DOCKED: ATOM     16  C   UNL     1     133.500  72.314 226.032 -0.31 -0.00    +0.023 A  
DOCKED: ATOM     17  C   UNL     1     132.577  73.053 226.742 -0.36 -0.00    +0.041 A  
DOCKED: ATOM     18  Cl  UNL     1     131.447  72.323 227.844 -0.29 +0.02    -0.084 Cl 
DOCKED: ENDBRANCH   5   8
DOCKED: ENDBRANCH   3   4
DOCKED: ENDBRANCH   1   3
DOCKED: BRANCH   1  19
DOCKED: ATOM     19  N   UNL     1     140.116  78.224 222.533 -0.16 +0.08    -0.334 N  
DOCKED: BRANCH  19  20
DOCKED: ATOM     20  C   UNL     1     139.143  79.196 222.905 -0.28 -0.02    +0.120 C  
DOCKED: BRANCH  20  21
DOCKED: ATOM     21  C   UNL     1     139.373  80.611 222.722 -0.32 -0.00    +0.022 C  
DOCKED: BRANCH  21  22
DOCKED: ATOM     22  C   UNL     1     140.682  81.229 223.020 -0.43 -0.00    +0.002 C  
DOCKED: BRANCH  22  23
DOCKED: ATOM     23  C   UNL     1     141.680  80.351 223.666 -0.59 -0.00    +0.003 CG0
DOCKED: ATOM     24  G   UNL     1     142.326  79.288 222.909 +0.00 +0.00    +0.000 G0 
DOCKED: ENDBRANCH  22  23
DOCKED: ENDBRANCH  21  22
DOCKED: ENDBRANCH  20  21
DOCKED: ENDBRANCH  19  20
DOCKED: BRANCH  19  25
DOCKED: ATOM     25  C   UNL     1     141.539  78.194 222.324 -0.27 -0.06    +0.115 C  
DOCKED: BRANCH  25  26
DOCKED: ATOM     26  C   UNL     1     142.327  79.293 222.909 -0.56 -0.01    +0.030 CG0
DOCKED: ATOM     27  G   UNL     1     141.690  80.360 223.667 +0.00 +0.00    +0.000 G0 
DOCKED: ENDBRANCH  25  26
DOCKED: BRANCH  25  28
DOCKED: ATOM     28  C   UNL     1     141.813  77.912 220.880 -0.32 +0.02    -0.025 A  
DOCKED: ATOM     29  C   UNL     1     141.851  78.938 219.930 -0.28 -0.00    +0.006 A  
DOCKED: ATOM     30  C   UNL     1     142.050  76.646 220.394 -0.26 -0.00    +0.006 A  
DOCKED: ATOM     31  C   UNL     1     142.107  78.706 218.601 -0.29 -0.00    +0.000 A  
DOCKED: ATOM     32  C   UNL     1     142.311  76.391 219.052 -0.28 -0.00    +0.000 A  
DOCKED: ATOM     33  C   UNL     1     142.341  77.427 218.146 -0.28 -0.00    +0.000 A  
DOCKED: ENDBRANCH  25  28
DOCKED: ENDBRANCH  19  25
DOCKED: ENDBRANCH   1  19
DOCKED: TORSDOF 5
DOCKED: TER
DOCKED: ENDMDL
________________________________________________________________________________


    FINAL DOCKED STATE:
    ________________________


Run:   18 / 20
Time taken for this run:   0.048s

DOCKED: MODEL        18
DOCKED: USER    Run = 18
DOCKED: USER
DOCKED: USER    Estimated Free Energy of Binding    =  -5.29 kcal/mol  [=(1)+(2)+(3)-(4)]
DOCKED: USER
DOCKED: USER    (1) Final Intermolecular Energy     =  -8.57 kcal/mol
DOCKED: USER        vdW + Hbond + desolv Energy     = -10.50 kcal/mol
DOCKED: USER        Electrostatic Energy            =  +0.00 kcal/mol
DOCKED: USER        Moving Ligand-Fixed Receptor    = -10.50 kcal/mol
DOCKED: USER        Moving Ligand-Moving Receptor   =  +1.93 kcal/mol
DOCKED: USER    (2) Final Total Internal Energy     =  -1.74 kcal/mol
DOCKED: USER    (3) Torsional Free Energy           =  +3.28 kcal/mol
DOCKED: USER    (4) Unbound System's Energy         =  -1.74 kcal/mol
DOCKED: USER
DOCKED: USER
DOCKED: REMARK SMILES O=C(NCC(=O)N1CCCCC[C@@H]1c1ccccc1)c1ccc2cc(Cl)ccc2n1
DOCKED: REMARK SMILES IDX 5 1 6 2 4 3 3 4 2 5 1 6 20 8 21 9 30 10 22 11 29 12 23 13
DOCKED: REMARK SMILES IDX 28 14 24 15 27 16 25 17 26 18 7 19 8 20 9 21 10 22 11 23
DOCKED: REMARK SMILES IDX 13 25 12 26 14 28 15 29 19 30 16 31 18 32 17 33
DOCKED: REMARK H PARENT 3 7
DOCKED: REMARK Flexibility Score:   84.900
DOCKED: USER                              x       y       z     vdW  Elec       q    Type
DOCKED: USER                           _______ _______ _______ _____ _____    ______ ____
DOCKED: ROOT
DOCKED: ATOM      1  C   UNL     1     140.684  75.944 221.243 -0.22 -0.07    +0.242 C  
DOCKED: ATOM      2  O   UNL     1     141.145  76.179 222.395 -0.33 +0.09    -0.273 OA 
DOCKED: ENDROOT
DOCKED: BRANCH   1   3
DOCKED: ATOM      3  C   UNL     1     139.799  74.808 220.964 -0.16 -0.05    +0.216 C  
DOCKED: BRANCH   3   4
DOCKED: ATOM      4  N   UNL     1     139.755  73.921 222.118 -0.12 +0.04    -0.342 N  
DOCKED: ATOM      5  C   UNL     1     140.090  72.560 221.891 -0.19 -0.04    +0.270 C  
DOCKED: ATOM      6  O   UNL     1     140.410  72.118 220.761 -0.09 +0.04    -0.268 OA 
DOCKED: ATOM      7  H   UNL     1     139.486  74.305 223.050 -0.51 -0.02    +0.164 HD 
DOCKED: BRANCH   5   8
DOCKED: ATOM      8  C   UNL     1     140.055  71.635 223.035 -0.29 -0.02    +0.128 A  
DOCKED: ATOM      9  C   UNL     1     139.483  70.392 222.930 -0.23 -0.01    +0.035 A  
DOCKED: ATOM     10  N   UNL     1     140.586  71.972 224.236 -0.21 +0.03    -0.243 NA 
DOCKED: ATOM     11  C   UNL     1     139.432  69.492 223.987 -0.28 -0.00    +0.013 A  
DOCKED: ATOM     12  C   UNL     1     140.560  71.130 225.293 -0.51 -0.01    +0.071 A  
DOCKED: ATOM     13  C   UNL     1     139.988  69.889 225.185 -0.43 -0.00    +0.002 A  
DOCKED: ATOM     14  C   UNL     1     141.113  71.516 226.494 -0.69 -0.00    +0.030 A  
DOCKED: ATOM     15  C   UNL     1     139.956  69.017 226.265 -0.51 -0.00    +0.030 A  
DOCKED: ATOM     16  C   UNL     1     141.083  70.654 227.566 -0.62 -0.00    +0.023 A  
DOCKED: ATOM     17  C   UNL     1     140.510  69.405 227.465 -0.58 -0.01    +0.041 A  
DOCKED: ATOM     18  Cl  UNL     1     140.455  68.292 228.799 -0.48 +0.02    -0.084 Cl 
DOCKED: ENDBRANCH   5   8
DOCKED: ENDBRANCH   3   4
DOCKED: ENDBRANCH   1   3
DOCKED: BRANCH   1  19
DOCKED: ATOM     19  N   UNL     1     141.104  76.894 220.227 -0.08 +0.14    -0.334 N  
DOCKED: BRANCH  19  20
DOCKED: ATOM     20  C   UNL     1     142.062  76.317 219.344 -0.22 -0.06    +0.120 C  
DOCKED: BRANCH  20  21
DOCKED: ATOM     21  C   UNL     1     142.977  77.131 218.577 -0.33 -0.02    +0.022 C  
DOCKED: BRANCH  21  22
DOCKED: ATOM     22  C   UNL     1     142.543  78.389 217.933 -0.31 -0.00    +0.002 C  
DOCKED: BRANCH  22  23
DOCKED: ATOM     23  C   UNL     1     141.090  78.658 217.953 -0.14 -0.00    +0.003 CG0
DOCKED: ATOM     24  G   UNL     1     140.428  79.038 219.193 +0.00 +0.00    +0.000 G0 
DOCKED: ENDBRANCH  22  23
DOCKED: ENDBRANCH  21  22
DOCKED: ENDBRANCH  20  21
DOCKED: ENDBRANCH  19  20
DOCKED: BRANCH  19  25
DOCKED: ATOM     25  C   UNL     1     140.455  78.168 220.378 -0.15 -0.04    +0.115 C  
DOCKED: BRANCH  25  26
DOCKED: ATOM     26  C   UNL     1     140.429  79.053 219.200 -0.12 -0.01    +0.030 CG0
DOCKED: ATOM     27  G   UNL     1     141.090  78.679 217.958 +0.00 +0.00    +0.000 G0 
DOCKED: ENDBRANCH  25  26
DOCKED: BRANCH  25  28
DOCKED: ATOM     28  C   UNL     1     140.928  78.808 221.645 -0.32 +0.01    -0.025 A  
DOCKED: ATOM     29  C   UNL     1     140.047  79.099 222.691 -0.37 -0.00    +0.006 A  
DOCKED: ATOM     30  C   UNL     1     142.245  79.143 221.870 -0.40 -0.00    +0.006 A  
DOCKED: ATOM     31  C   UNL     1     140.459  79.679 223.866 -0.47 -0.00    +0.000 A  
DOCKED: ATOM     32  C   UNL     1     142.681  79.731 223.052 -0.64 -0.00    +0.000 A  
DOCKED: ATOM     33  C   UNL     1     141.783  80.003 224.060 -0.49 -0.00    +0.000 A  
DOCKED: ENDBRANCH  25  28
DOCKED: ENDBRANCH  19  25
DOCKED: ENDBRANCH   1  19
DOCKED: TORSDOF 5
DOCKED: TER
DOCKED: ENDMDL
________________________________________________________________________________


    FINAL DOCKED STATE:
    ________________________


Run:   19 / 20
Time taken for this run:   0.048s

DOCKED: MODEL        19
DOCKED: USER    Run = 19
DOCKED: USER
DOCKED: USER    Estimated Free Energy of Binding    =  -5.82 kcal/mol  [=(1)+(2)+(3)-(4)]
DOCKED: USER
DOCKED: USER    (1) Final Intermolecular Energy     =  -9.10 kcal/mol
DOCKED: USER        vdW + Hbond + desolv Energy     =  -9.18 kcal/mol
DOCKED: USER        Electrostatic Energy            =  -0.02 kcal/mol
DOCKED: USER        Moving Ligand-Fixed Receptor    =  -9.20 kcal/mol
DOCKED: USER        Moving Ligand-Moving Receptor   =  +0.10 kcal/mol
DOCKED: USER    (2) Final Total Internal Energy     =  -2.15 kcal/mol
DOCKED: USER    (3) Torsional Free Energy           =  +3.28 kcal/mol
DOCKED: USER    (4) Unbound System's Energy         =  -2.15 kcal/mol
DOCKED: USER
DOCKED: USER
DOCKED: REMARK SMILES O=C(NCC(=O)N1CCCCC[C@@H]1c1ccccc1)c1ccc2cc(Cl)ccc2n1
DOCKED: REMARK SMILES IDX 5 1 6 2 4 3 3 4 2 5 1 6 20 8 21 9 30 10 22 11 29 12 23 13
DOCKED: REMARK SMILES IDX 28 14 24 15 27 16 25 17 26 18 7 19 8 20 9 21 10 22 11 23
DOCKED: REMARK SMILES IDX 13 25 12 26 14 28 15 29 19 30 16 31 18 32 17 33
DOCKED: REMARK H PARENT 3 7
DOCKED: REMARK Flexibility Score:   84.900
DOCKED: USER                              x       y       z     vdW  Elec       q    Type
DOCKED: USER                           _______ _______ _______ _____ _____    ______ ____
DOCKED: ROOT
DOCKED: ATOM      1  C   UNL     1     138.724  76.368 221.575 -0.16 -0.05    +0.242 C  
DOCKED: ATOM      2  O   UNL     1     138.297  76.529 222.753 -0.24 +0.06    -0.273 OA 
DOCKED: ENDROOT
DOCKED: BRANCH   1   3
DOCKED: ATOM      3  C   UNL     1     139.461  75.170 221.161 -0.17 -0.05    +0.216 C  
DOCKED: BRANCH   3   4
DOCKED: ATOM      4  N   UNL     1     139.536  74.228 222.268 -0.10 +0.05    -0.342 N  
DOCKED: ATOM      5  C   UNL     1     139.890  72.891 221.946 -0.19 -0.04    +0.270 C  
DOCKED: ATOM      6  O   UNL     1     140.132  72.514 220.774 -0.08 +0.04    -0.268 OA 
DOCKED: ATOM      7  H   UNL     1     139.331  74.557 223.237 -0.52 -0.04    +0.164 HD 
DOCKED: BRANCH   5   8
DOCKED: ATOM      8  C   UNL     1     139.975  71.912 223.041 -0.30 -0.02    +0.128 A  
DOCKED: ATOM      9  C   UNL     1     139.576  70.610 222.866 -0.24 -0.01    +0.035 A  
DOCKED: ATOM     10  N   UNL     1     140.447  72.253 224.265 -0.08 +0.03    -0.243 NA 
DOCKED: ATOM     11  C   UNL     1     139.641  69.656 223.875 -0.25 -0.00    +0.013 A  
DOCKED: ATOM     12  C   UNL     1     140.529  71.361 225.277 -0.50 -0.01    +0.071 A  
DOCKED: ATOM     13  C   UNL     1     140.131  70.062 225.098 -0.44 -0.00    +0.002 A  
DOCKED: ATOM     14  C   UNL     1     141.018  71.755 226.503 -0.69 -0.00    +0.030 A  
DOCKED: ATOM     15  C   UNL     1     140.211  69.138 226.132 -0.50 -0.01    +0.030 A  
DOCKED: ATOM     16  C   UNL     1     141.098  70.842 227.529 -0.64 -0.00    +0.023 A  
DOCKED: ATOM     17  C   UNL     1     140.700  69.534 227.357 -0.57 -0.01    +0.041 A  
DOCKED: ATOM     18  Cl  UNL     1     140.788  68.356 228.632 -0.71 +0.02    -0.084 Cl 
DOCKED: ENDBRANCH   5   8
DOCKED: ENDBRANCH   3   4
DOCKED: ENDBRANCH   1   3
DOCKED: BRANCH   1  19
DOCKED: ATOM     19  N   UNL     1     138.420  77.468 220.675 -0.02 +0.07    -0.334 N  
DOCKED: BRANCH  19  20
DOCKED: ATOM     20  C   UNL     1     138.184  77.001 219.350 -0.02 -0.03    +0.120 C  
DOCKED: BRANCH  20  21
DOCKED: ATOM     21  C   UNL     1     138.402  77.844 218.197 -0.01 -0.01    +0.022 C  
DOCKED: BRANCH  21  22
DOCKED: ATOM     22  C   UNL     1     137.893  79.230 218.141 -0.01 -0.00    +0.002 C  
DOCKED: BRANCH  22  23
DOCKED: ATOM     23  C   UNL     1     138.360  80.134 219.212 -0.04 -0.00    +0.003 CG0
DOCKED: ATOM     24  G   UNL     1     137.961  79.908 220.594 +0.00 +0.00    +0.000 G0 
DOCKED: ENDBRANCH  22  23
DOCKED: ENDBRANCH  21  22
DOCKED: ENDBRANCH  20  21
DOCKED: ENDBRANCH  19  20
DOCKED: BRANCH  19  25
DOCKED: ATOM     25  C   UNL     1     138.446  78.738 221.348 -0.11 -0.02    +0.115 C  
DOCKED: BRANCH  25  26
DOCKED: ATOM     26  C   UNL     1     137.962  79.908 220.594 -0.07 -0.01    +0.030 CG0
DOCKED: ATOM     27  G   UNL     1     138.361  80.135 219.213 +0.00 +0.00    +0.000 G0 
DOCKED: ENDBRANCH  25  26
DOCKED: BRANCH  25  28
DOCKED: ATOM     28  C   UNL     1     139.779  78.912 222.008 -0.26 +0.01    -0.025 A  
DOCKED: ATOM     29  C   UNL     1     139.890  79.129 223.384 -0.41 -0.00    +0.006 A  
DOCKED: ATOM     30  C   UNL     1     140.969  78.864 221.318 -0.31 -0.00    +0.006 A  
DOCKED: ATOM     31  C   UNL     1     141.101  79.285 224.013 -0.51 -0.00    +0.000 A  
DOCKED: ATOM     32  C   UNL     1     142.205  79.020 221.936 -0.45 -0.00    +0.000 A  
DOCKED: ATOM     33  C   UNL     1     142.275  79.232 223.294 -0.60 -0.00    +0.000 A  
DOCKED: ENDBRANCH  25  28
DOCKED: ENDBRANCH  19  25
DOCKED: ENDBRANCH   1  19
DOCKED: TORSDOF 5
DOCKED: TER
DOCKED: ENDMDL
________________________________________________________________________________


    FINAL DOCKED STATE:
    ________________________


Run:   20 / 20
Time taken for this run:   0.048s

DOCKED: MODEL        20
DOCKED: USER    Run = 20
DOCKED: USER
DOCKED: USER    Estimated Free Energy of Binding    =  -3.78 kcal/mol  [=(1)+(2)+(3)-(4)]
DOCKED: USER
DOCKED: USER    (1) Final Intermolecular Energy     =  -7.06 kcal/mol
DOCKED: USER        vdW + Hbond + desolv Energy     =  -7.73 kcal/mol
DOCKED: USER        Electrostatic Energy            =  -0.04 kcal/mol
DOCKED: USER        Moving Ligand-Fixed Receptor    =  -7.77 kcal/mol
DOCKED: USER        Moving Ligand-Moving Receptor   =  +0.71 kcal/mol
DOCKED: USER    (2) Final Total Internal Energy     =  -2.66 kcal/mol
DOCKED: USER    (3) Torsional Free Energy           =  +3.28 kcal/mol
DOCKED: USER    (4) Unbound System's Energy         =  -2.66 kcal/mol
DOCKED: USER
DOCKED: USER
DOCKED: REMARK SMILES O=C(NCC(=O)N1CCCCC[C@@H]1c1ccccc1)c1ccc2cc(Cl)ccc2n1
DOCKED: REMARK SMILES IDX 5 1 6 2 4 3 3 4 2 5 1 6 20 8 21 9 30 10 22 11 29 12 23 13
DOCKED: REMARK SMILES IDX 28 14 24 15 27 16 25 17 26 18 7 19 8 20 9 21 10 22 11 23
DOCKED: REMARK SMILES IDX 13 25 12 26 14 28 15 29 19 30 16 31 18 32 17 33
DOCKED: REMARK H PARENT 3 7
DOCKED: REMARK Flexibility Score:   84.900
DOCKED: USER                              x       y       z     vdW  Elec       q    Type
DOCKED: USER                           _______ _______ _______ _____ _____    ______ ____
DOCKED: ROOT
DOCKED: ATOM      1  C   UNL     1     139.535  76.443 221.572 -0.20 -0.06    +0.242 C  
DOCKED: ATOM      2  O   UNL     1     139.566  75.920 222.721 -0.41 +0.04    -0.273 OA 
DOCKED: ENDROOT
DOCKED: BRANCH   1   3
DOCKED: ATOM      3  C   UNL     1     138.390  77.225 221.092 -0.09 -0.05    +0.216 C  
DOCKED: BRANCH   3   4
DOCKED: ATOM      4  N   UNL     1     138.077  78.279 222.046 -0.07 +0.06    -0.342 N  
DOCKED: ATOM      5  C   UNL     1     137.641  79.518 221.508 -0.06 -0.05    +0.270 C  
DOCKED: ATOM      6  O   UNL     1     137.524  79.722 220.276 -0.01 +0.05    -0.268 OA 
DOCKED: ATOM      7  H   UNL     1     138.181  78.093 223.068 +0.05 -0.02    +0.164 HD 
DOCKED: BRANCH   5   8
DOCKED: ATOM      8  C   UNL     1     137.317  80.607 222.444 -0.12 -0.02    +0.128 A  
DOCKED: ATOM      9  C   UNL     1     136.855  81.819 221.995 -0.09 -0.00    +0.035 A  
DOCKED: ATOM     10  N   UNL     1     137.460  80.458 223.783 -0.18 +0.03    -0.243 NA 
DOCKED: ATOM     11  C   UNL     1     136.538  82.870 222.847 -0.12 -0.00    +0.013 A  
DOCKED: ATOM     12  C   UNL     1     137.164  81.451 224.651 -0.31 -0.01    +0.071 A  
DOCKED: ATOM     13  C   UNL     1     136.703  82.660 224.200 -0.20 -0.00    +0.002 A  
DOCKED: ATOM     14  C   UNL     1     137.325  81.252 226.005 -0.34 -0.00    +0.030 A  
DOCKED: ATOM     15  C   UNL     1     136.397  83.687 225.083 -0.20 -0.00    +0.030 A  
DOCKED: ATOM     16  C   UNL     1     137.022  82.267 226.883 -0.44 -0.00    +0.023 A  
DOCKED: ATOM     17  C   UNL     1     136.558  83.486 226.436 -0.32 -0.00    +0.041 A  
DOCKED: ATOM     18  Cl  UNL     1     136.168  84.790 227.519 -0.41 -0.01    -0.084 Cl 
DOCKED: ENDBRANCH   5   8
DOCKED: ENDBRANCH   3   4
DOCKED: ENDBRANCH   1   3
DOCKED: BRANCH   1  19
DOCKED: ATOM     19  N   UNL     1     140.725  76.203 220.773 -0.10 +0.11    -0.334 N  
DOCKED: BRANCH  19  20
DOCKED: ATOM     20  C   UNL     1     141.071  74.821 220.764 -0.23 -0.03    +0.120 C  
DOCKED: BRANCH  20  21
DOCKED: ATOM     21  C   UNL     1     142.446  74.382 220.697 -0.27 -0.01    +0.022 C  
DOCKED: BRANCH  21  22
DOCKED: ATOM     22  C   UNL     1     143.398  74.958 219.724 -0.38 -0.00    +0.002 C  
DOCKED: BRANCH  22  23
DOCKED: ATOM     23  C   UNL     1     143.563  76.426 219.772 -0.27 -0.00    +0.003 CG0
DOCKED: ATOM     24  G   UNL     1     142.469  77.305 219.386 +0.00 +0.00    +0.000 G0 
DOCKED: ENDBRANCH  22  23
DOCKED: ENDBRANCH  21  22
DOCKED: ENDBRANCH  20  21
DOCKED: ENDBRANCH  19  20
DOCKED: BRANCH  19  25
DOCKED: ATOM     25  C   UNL     1     141.249  77.417 220.209 -0.21 -0.05    +0.115 C  
DOCKED: BRANCH  25  26
DOCKED: ATOM     26  C   UNL     1     142.468  77.305 219.388 -0.30 -0.02    +0.030 CG0
DOCKED: ATOM     27  G   UNL     1     143.557  76.417 219.768 +0.00 +0.00    +0.000 G0 
DOCKED: ENDBRANCH  25  26
DOCKED: BRANCH  25  28
DOCKED: ATOM     28  C   UNL     1     141.293  78.469 221.273 -0.33 +0.01    -0.025 A  
DOCKED: ATOM     29  C   UNL     1     140.915  79.789 221.010 -0.28 -0.00    +0.006 A  
DOCKED: ATOM     30  C   UNL     1     141.694  78.213 222.564 -0.31 -0.00    +0.006 A  
DOCKED: ATOM     31  C   UNL     1     140.939  80.771 221.971 -0.37 -0.00    +0.000 A  
DOCKED: ATOM     32  C   UNL     1     141.726  79.193 223.550 -0.61 -0.00    +0.000 A  
DOCKED: ATOM     33  C   UNL     1     141.346  80.483 223.255 -0.54 -0.00    +0.000 A  
DOCKED: ENDBRANCH  25  28
DOCKED: ENDBRANCH  19  25
DOCKED: ENDBRANCH   1  19
DOCKED: TORSDOF 5
DOCKED: TER
DOCKED: ENDMDL
________________________________________________________________________________


    CLUSTERING HISTOGRAM
    ____________________


________________________________________________________________________________
     |           |     |           |     |
Clus | Lowest    | Run | Mean      | Num | Histogram
-ter | Binding   |     | Binding   | in  |
Rank | Energy    |     | Energy    | Clus|    5    10   15   20   25   30   35
_____|___________|_____|___________|_____|____:____|____:____|____:____|____:___
   1 |     -6.40 |  13 |     -6.40 |   1 |#
   2 |     -6.26 |  11 |     -5.86 |   4 |####
   3 |     -5.72 |   3 |     -5.72 |   1 |#
   4 |     -5.61 |   6 |     -5.57 |   2 |##
   5 |     -5.55 |  16 |     -5.55 |   1 |#
   6 |     -5.48 |   4 |     -5.30 |   2 |##
   7 |     -5.27 |   5 |     -4.84 |   2 |##
   8 |     -5.05 |   7 |     -5.05 |   1 |#
   9 |     -4.72 |   8 |     -4.39 |   2 |##
  10 |     -4.70 |   9 |     -4.70 |   1 |#
  11 |     -4.50 |  15 |     -4.50 |   1 |#
  12 |     -3.86 |  14 |     -3.86 |   1 |#
  13 |     -3.78 |  20 |     -3.78 |   1 |#
_____|___________|_____|___________|_____|______________________________________


    RMSD TABLE
    __________


_______________________________________________________________________
     |      |      |           |         |                 |
Rank | Sub- | Run  | Binding   | Cluster | Reference       | Grep
     | Rank |      | Energy    | RMSD    | RMSD            | Pattern
_____|______|______|___________|_________|_________________|___________
   1      1     13       -6.40      0.00    271.33           RANKING
   2      1     11       -6.26      0.00    271.60           RANKING
   2      2      1       -6.05      0.45    271.49           RANKING
   2      3     19       -5.82      1.76    271.22           RANKING
   2      4     18       -5.29      0.42    271.54           RANKING
   3      1      3       -5.72      0.00    271.45           RANKING
   4      1      6       -5.61      0.00    271.82           RANKING
   4      2      2       -5.52      1.95    271.41           RANKING
   5      1     16       -5.55      0.00    271.19           RANKING
   6      1      4       -5.48      0.00    270.85           RANKING
   6      2     10       -5.13      0.99    270.88           RANKING
   7      1      5       -5.27      0.00    271.21           RANKING
   7      2     17       -4.42      0.82    271.31           RANKING
   8      1      7       -5.05      0.00    270.44           RANKING
   9      1      8       -4.72      0.00    270.99           RANKING
   9      2     12       -4.06      1.62    270.32           RANKING
  10      1      9       -4.70      0.00    270.76           RANKING
  11      1     15       -4.50      0.00    270.21           RANKING
  12      1     14       -3.86      0.00    271.70           RANKING
  13      1     20       -3.78      0.00    272.04           RANKING

Run time 0.919 sec
Idle time 0.000 sec
