AutoDock-GPU version: v1.6

**********************************************************
**    AutoDock-GPU AUTODOCKTOOLS-COMPATIBLE DLG FILE    **
**********************************************************


    DOCKING PARAMETERS
    ________________________


Ligand file:                               /home/a/REINVENT4/ReinventStudies/pleaseWork/justmol2mol_4_Compounds_ontop/graph-dock-hn62wh/graph-DockGPU/node-autodockgpu/inputs/FRQDCGBJSINIAI-VKDSSWMGNA-N.pdbqt
Grid fld file:                             /home/a/REINVENT4/ReinventStudies/mols/Rad51/maps/rad51_receptor.maps.fld

Random seed:                               42
Number of runs:                            20
Number of energy evaluations:              1132076
Number of generations:                     42000
Size of population:                        150
Rate of crossover:                         80.000000%
Tournament selection probability limit:    60.000000%
Rate of mutation:                          2.000000%
Maximal allowed delta movement:            +/- 6.000000A
Maximal allowed delta angle:               +/- 90.000000

Rate of local search:                      100.000000%
Maximal number of local search iterations: 300
Rho lower bound:                           0.010000
Spread of local search delta movement:     2.000000A
Spread of local search delta angle:        74.999999
Limit of consecutive successes/failures:   4

Handle symmetry during clustering:         YES
RMSD tolerance:                            2.000000A

Program call in command line was:          /home/a/REINVENT4/ReinventStudies/adgpu-v1.6_linux_x64_cuda12_128wi --filelist batch.txt --heuristics 1 --nrun 20 --psize 150 --lsit 300 --seed 42 --heurmax 12000000 


    GRID PARAMETERS
    ________________________


Receptor name:                             rad51_receptor
Number of grid points (x, y, z):           53, 53, 53
Grid center (x, y, z):                     139.950000, 75.640000, 221.970000A
Grid size (x, y, z):                       19.500000, 19.500000, 19.500000A
Grid spacing:                              0.375000A


    LIGAND PARAMETERS
    ________________________


Ligand name:                               /home/a/REINVENT4/ReinventStudies/pleaseWork/justmol2mol_4_Compounds_ontop/graph-dock-hn62wh/graph-DockGPU/node-autodockgpu/inputs/FRQDCGBJSINIAI-VKDSSWMGNA-N
Number of atoms:                           26
Number of rotatable bonds:                 6
Number of atom types:                      7


    DUMMY DATA (only for ADT-compatibility)
    ________________________


DPF> outlev 1
DPF> ga_run 20
DPF> fld /home/a/REINVENT4/ReinventStudies/mols/Rad51/maps/rad51_receptor.maps.fld
DPF> move /home/a/REINVENT4/ReinventStudies/pleaseWork/justmol2mol_4_Compounds_ontop/graph-dock-hn62wh/graph-DockGPU/node-autodockgpu/inputs/FRQDCGBJSINIAI-VKDSSWMGNA-N.pdbqt


    COUNTER STATES
    ________________________


Number of energy evaluations performed:    656009
Number of generations used:                40


    INPUT LIGAND PDBQT FILE:
    ________________________


INPUT-LIGAND-PDBQT: REMARK SMILES O=C(NCC(=O)N1CCC[C@H]1CO)c1ccc2cc(F)ccc2n1
INPUT-LIGAND-PDBQT: REMARK SMILES IDX 5 1 6 2 4 3 3 4 2 5 1 6 14 8 15 9 24 10 16 11 23 12 17 13
INPUT-LIGAND-PDBQT: REMARK SMILES IDX 22 14 18 15 21 16 19 17 20 18 7 19 8 20 11 21 9 22 10 23
INPUT-LIGAND-PDBQT: REMARK SMILES IDX 12 24 13 25
INPUT-LIGAND-PDBQT: REMARK H PARENT 3 7 13 26
INPUT-LIGAND-PDBQT: ROOT
INPUT-LIGAND-PDBQT: ATOM      1  C   UNL     1      -1.955  -0.487  -0.373  1.00  0.00     0.242 C 
INPUT-LIGAND-PDBQT: ATOM      2  O   UNL     1      -1.484  -0.982  -1.443  1.00  0.00    -0.273 OA
INPUT-LIGAND-PDBQT: ENDROOT
INPUT-LIGAND-PDBQT: BRANCH   1   3
INPUT-LIGAND-PDBQT: ATOM      3  C   UNL     1      -1.110   0.109   0.684  1.00  0.00     0.216 C 
INPUT-LIGAND-PDBQT: BRANCH   3   4
INPUT-LIGAND-PDBQT: ATOM      4  N   UNL     1       0.297   0.062   0.357  1.00  0.00    -0.342 N 
INPUT-LIGAND-PDBQT: ATOM      5  C   UNL     1       1.205   0.617   1.321  1.00  0.00     0.270 C 
INPUT-LIGAND-PDBQT: ATOM      6  O   UNL     1       0.675   1.092   2.361  1.00  0.00    -0.268 OA
INPUT-LIGAND-PDBQT: ATOM      7  H   UNL     1       0.668  -0.354  -0.539  1.00  0.00     0.164 HD
INPUT-LIGAND-PDBQT: BRANCH   5   8
INPUT-LIGAND-PDBQT: ATOM      8  C   UNL     1       2.632   0.623   1.097  1.00  0.00     0.128 A 
INPUT-LIGAND-PDBQT: ATOM      9  C   UNL     1       3.440   1.174   2.069  1.00  0.00     0.035 A 
INPUT-LIGAND-PDBQT: ATOM     10  N   UNL     1       3.212   0.119  -0.011  1.00  0.00    -0.243 NA
INPUT-LIGAND-PDBQT: ATOM     11  C   UNL     1       4.808   1.229   1.953  1.00  0.00     0.013 A 
INPUT-LIGAND-PDBQT: ATOM     12  C   UNL     1       4.549   0.145  -0.179  1.00  0.00     0.071 A 
INPUT-LIGAND-PDBQT: ATOM     13  C   UNL     1       5.354   0.695   0.792  1.00  0.00     0.003 A 
INPUT-LIGAND-PDBQT: ATOM     14  C   UNL     1       5.102  -0.383  -1.331  1.00  0.00     0.032 A 
INPUT-LIGAND-PDBQT: ATOM     15  C   UNL     1       6.716   0.745   0.666  1.00  0.00     0.049 A 
INPUT-LIGAND-PDBQT: ATOM     16  C   UNL     1       6.475  -0.325  -1.442  1.00  0.00     0.041 A 
INPUT-LIGAND-PDBQT: ATOM     17  C   UNL     1       7.290   0.225  -0.473  1.00  0.00     0.123 A 
INPUT-LIGAND-PDBQT: ATOM     18  F   UNL     1       8.623   0.269  -0.604  1.00  0.00    -0.207 F 
INPUT-LIGAND-PDBQT: ENDBRANCH   5   8
INPUT-LIGAND-PDBQT: ENDBRANCH   3   4
INPUT-LIGAND-PDBQT: ENDBRANCH   1   3
INPUT-LIGAND-PDBQT: BRANCH   1  19
INPUT-LIGAND-PDBQT: ATOM     19  N   UNL     1      -3.357  -0.500  -0.167  1.00  0.00    -0.336 N 
INPUT-LIGAND-PDBQT: ATOM     20  C   UNL     1      -4.116  -0.000   0.962  1.00  0.00     0.120 C 
INPUT-LIGAND-PDBQT: ATOM     21  C   UNL     1      -4.367  -1.042  -1.087  1.00  0.00     0.110 C 
INPUT-LIGAND-PDBQT: ATOM     22  C   UNL     1      -5.096  -1.160   1.170  1.00  0.00     0.024 C 
INPUT-LIGAND-PDBQT: ATOM     23  C   UNL     1      -5.578  -1.348  -0.253  1.00  0.00     0.029 C 
INPUT-LIGAND-PDBQT: BRANCH  21  24
INPUT-LIGAND-PDBQT: ATOM     24  C   UNL     1      -4.700  -0.053  -2.155  1.00  0.00     0.181 C 
INPUT-LIGAND-PDBQT: BRANCH  24  25
INPUT-LIGAND-PDBQT: ATOM     25  O   UNL     1      -5.207   1.121  -1.587  1.00  0.00    -0.394 OA
INPUT-LIGAND-PDBQT: ATOM     26  H   UNL     1      -4.542   1.856  -1.626  1.00  0.00     0.210 HD
INPUT-LIGAND-PDBQT: ENDBRANCH  24  25
INPUT-LIGAND-PDBQT: ENDBRANCH  21  24
INPUT-LIGAND-PDBQT: ENDBRANCH   1  19
INPUT-LIGAND-PDBQT: TORSDOF 6


    FINAL DOCKED STATE:
    ________________________


Run:   1 / 20
Time taken for this run:   0.026s

DOCKED: MODEL        1
DOCKED: USER    Run = 1
DOCKED: USER
DOCKED: USER    Estimated Free Energy of Binding    =  -6.97 kcal/mol  [=(1)+(2)+(3)-(4)]
DOCKED: USER
DOCKED: USER    (1) Final Intermolecular Energy     =  -8.76 kcal/mol
DOCKED: USER        vdW + Hbond + desolv Energy     =  -8.72 kcal/mol
DOCKED: USER        Electrostatic Energy            =  -0.04 kcal/mol
DOCKED: USER        Moving Ligand-Fixed Receptor    =  -8.76 kcal/mol
DOCKED: USER        Moving Ligand-Moving Receptor   =  +0.00 kcal/mol
DOCKED: USER    (2) Final Total Internal Energy     =  -1.54 kcal/mol
DOCKED: USER    (3) Torsional Free Energy           =  +1.79 kcal/mol
DOCKED: USER    (4) Unbound System's Energy         =  -1.54 kcal/mol
DOCKED: USER
DOCKED: USER
DOCKED: REMARK SMILES O=C(NCC(=O)N1CCC[C@H]1CO)c1ccc2cc(F)ccc2n1
DOCKED: REMARK SMILES IDX 5 1 6 2 4 3 3 4 2 5 1 6 14 8 15 9 24 10 16 11 23 12 17 13
DOCKED: REMARK SMILES IDX 22 14 18 15 21 16 19 17 20 18 7 19 8 20 11 21 9 22 10 23
DOCKED: REMARK SMILES IDX 12 24 13 25
DOCKED: REMARK H PARENT 3 7 13 26
DOCKED: USER                              x       y       z     vdW  Elec       q    Type
DOCKED: USER                           _______ _______ _______ _____ _____    ______ ____
DOCKED: ROOT
DOCKED: ATOM      1  C   UNL     1     141.083  75.151 221.125 -0.22 -0.06    +0.242 C  
DOCKED: ATOM      2  O   UNL     1     142.273  74.713 221.061 -0.22 +0.09    -0.273 OA 
DOCKED: ENDROOT
DOCKED: BRANCH   1   3
DOCKED: ATOM      3  C   UNL     1     139.893  74.279 221.033 -0.16 -0.04    +0.216 C  
DOCKED: BRANCH   3   4
DOCKED: ATOM      4  N   UNL     1     139.654  73.543 222.254 -0.13 +0.05    -0.342 N  
DOCKED: ATOM      5  C   UNL     1     140.408  72.335 222.440 -0.21 -0.03    +0.270 C  
DOCKED: ATOM      6  O   UNL     1     141.207  72.041 221.511 -0.17 +0.03    -0.268 OA 
DOCKED: ATOM      7  H   UNL     1     138.964  73.853 222.990 -0.54 -0.08    +0.164 HD 
DOCKED: BRANCH   5   8
DOCKED: ATOM      8  C   UNL     1     140.248  71.521 223.623 -0.33 -0.02    +0.128 A  
DOCKED: ATOM      9  C   UNL     1     139.605  70.309 223.495 -0.28 -0.01    +0.035 A  
DOCKED: ATOM     10  N   UNL     1     140.695  71.887 224.842 -0.28 +0.03    -0.243 NA 
DOCKED: ATOM     11  C   UNL     1     139.402  69.461 224.557 -0.35 -0.00    +0.013 A  
DOCKED: ATOM     12  C   UNL     1     140.524  71.096 225.920 -0.55 -0.01    +0.071 A  
DOCKED: ATOM     13  C   UNL     1     139.882  69.885 225.790 -0.47 -0.00    +0.003 A  
DOCKED: ATOM     14  C   UNL     1     140.998  71.509 227.151 -0.73 -0.01    +0.032 A  
DOCKED: ATOM     15  C   UNL     1     139.685  69.049 226.856 -0.52 -0.01    +0.049 A  
DOCKED: ATOM     16  C   UNL     1     140.792  70.655 228.213 -0.59 -0.01    +0.041 A  
DOCKED: ATOM     17  C   UNL     1     140.149  69.439 228.092 -0.52 -0.02    +0.123 A  
DOCKED: ATOM     18  F   UNL     1     139.961  68.625 229.140 -0.12 +0.04    -0.207 F  
DOCKED: ENDBRANCH   5   8
DOCKED: ENDBRANCH   3   4
DOCKED: ENDBRANCH   1   3
DOCKED: BRANCH   1  19
DOCKED: ATOM     19  N   UNL     1     140.870  76.542 221.291 -0.15 +0.13    -0.336 N  
DOCKED: ATOM     20  C   UNL     1     141.211  77.630 220.396 -0.22 -0.06    +0.120 C  
DOCKED: ATOM     21  C   UNL     1     140.236  77.194 222.447 -0.32 -0.03    +0.110 C  
DOCKED: ATOM     22  C   UNL     1     141.805  78.631 221.392 -0.37 -0.01    +0.024 C  
DOCKED: ATOM     23  C   UNL     1     140.722  78.615 222.450 -0.41 -0.01    +0.029 C  
DOCKED: BRANCH  21  24
DOCKED: ATOM     24  C   UNL     1     138.748  77.147 222.335 -0.24 -0.04    +0.181 C  
DOCKED: BRANCH  24  25
DOCKED: ATOM     25  O   UNL     1     138.272  75.889 222.723 -0.20 +0.10    -0.394 OA 
DOCKED: ATOM     26  H   UNL     1     138.842  75.492 223.432 -0.41 -0.07    +0.210 HD 
DOCKED: ENDBRANCH  24  25
DOCKED: ENDBRANCH  21  24
DOCKED: ENDBRANCH   1  19
DOCKED: TORSDOF 6
DOCKED: TER
DOCKED: ENDMDL
________________________________________________________________________________


    FINAL DOCKED STATE:
    ________________________


Run:   2 / 20
Time taken for this run:   0.026s

DOCKED: MODEL        2
DOCKED: USER    Run = 2
DOCKED: USER
DOCKED: USER    Estimated Free Energy of Binding    =  -6.56 kcal/mol  [=(1)+(2)+(3)-(4)]
DOCKED: USER
DOCKED: USER    (1) Final Intermolecular Energy     =  -8.35 kcal/mol
DOCKED: USER        vdW + Hbond + desolv Energy     =  -8.28 kcal/mol
DOCKED: USER        Electrostatic Energy            =  -0.07 kcal/mol
DOCKED: USER        Moving Ligand-Fixed Receptor    =  -8.35 kcal/mol
DOCKED: USER        Moving Ligand-Moving Receptor   =  +0.00 kcal/mol
DOCKED: USER    (2) Final Total Internal Energy     =  -1.78 kcal/mol
DOCKED: USER    (3) Torsional Free Energy           =  +1.79 kcal/mol
DOCKED: USER    (4) Unbound System's Energy         =  -1.78 kcal/mol
DOCKED: USER
DOCKED: USER
DOCKED: REMARK SMILES O=C(NCC(=O)N1CCC[C@H]1CO)c1ccc2cc(F)ccc2n1
DOCKED: REMARK SMILES IDX 5 1 6 2 4 3 3 4 2 5 1 6 14 8 15 9 24 10 16 11 23 12 17 13
DOCKED: REMARK SMILES IDX 22 14 18 15 21 16 19 17 20 18 7 19 8 20 11 21 9 22 10 23
DOCKED: REMARK SMILES IDX 12 24 13 25
DOCKED: REMARK H PARENT 3 7 13 26
DOCKED: USER                              x       y       z     vdW  Elec       q    Type
DOCKED: USER                           _______ _______ _______ _____ _____    ______ ____
DOCKED: ROOT
DOCKED: ATOM      1  C   UNL     1     141.019  74.478 221.236 -0.21 -0.04    +0.242 C  
DOCKED: ATOM      2  O   UNL     1     140.996  75.642 221.741 -0.37 +0.07    -0.273 OA 
DOCKED: ENDROOT
DOCKED: BRANCH   1   3
DOCKED: ATOM      3  C   UNL     1     139.907  73.513 221.375 -0.18 -0.04    +0.216 C  
DOCKED: BRANCH   3   4
DOCKED: ATOM      4  N   UNL     1     139.823  72.957 222.706 -0.12 +0.05    -0.342 N  
DOCKED: ATOM      5  C   UNL     1     140.675  71.839 222.997 -0.18 -0.02    +0.270 C  
DOCKED: ATOM      6  O   UNL     1     141.415  71.455 222.052 -0.09 +0.02    -0.268 OA 
DOCKED: ATOM      7  H   UNL     1     139.175  73.335 223.449 -0.43 -0.10    +0.164 HD 
DOCKED: BRANCH   5   8
DOCKED: ATOM      8  C   UNL     1     140.673  71.206 224.296 -0.36 -0.02    +0.128 A  
DOCKED: ATOM      9  C   UNL     1     141.071  71.954 225.384 -0.20 -0.00    +0.035 A  
DOCKED: ATOM     10  N   UNL     1     140.302  69.926 224.497 -0.15 +0.04    -0.243 NA 
DOCKED: ATOM     11  C   UNL     1     141.104  71.446 226.660 -0.71 -0.00    +0.013 A  
DOCKED: ATOM     12  C   UNL     1     140.314  69.375 225.727 -0.43 -0.01    +0.071 A  
DOCKED: ATOM     13  C   UNL     1     140.711  70.122 226.812 -0.58 -0.00    +0.003 A  
DOCKED: ATOM     14  C   UNL     1     139.926  68.057 225.888 -0.56 -0.01    +0.032 A  
DOCKED: ATOM     15  C   UNL     1     140.741  69.606 228.079 -0.57 -0.01    +0.049 A  
DOCKED: ATOM     16  C   UNL     1     139.961  67.554 227.171 -0.43 -0.01    +0.041 A  
DOCKED: ATOM     17  C   UNL     1     140.359  68.296 228.264 -0.51 -0.03    +0.123 A  
DOCKED: ATOM     18  F   UNL     1     140.384  67.783 229.502 -0.06 +0.05    -0.207 F  
DOCKED: ENDBRANCH   5   8
DOCKED: ENDBRANCH   3   4
DOCKED: ENDBRANCH   1   3
DOCKED: BRANCH   1  19
DOCKED: ATOM     19  N   UNL     1     142.159  74.069 220.501 -0.12 +0.08    -0.336 N  
DOCKED: ATOM     20  C   UNL     1     142.319  72.917 219.635 -0.13 -0.02    +0.120 C  
DOCKED: ATOM     21  C   UNL     1     143.461  74.751 220.462 -0.26 -0.05    +0.110 C  
DOCKED: ATOM     22  C   UNL     1     143.692  72.416 220.096 -0.29 -0.00    +0.024 C  
DOCKED: ATOM     23  C   UNL     1     144.469  73.715 220.053 -0.43 -0.01    +0.029 C  
DOCKED: BRANCH  21  24
DOCKED: ATOM     24  C   UNL     1     143.442  75.880 219.485 -0.29 -0.11    +0.181 C  
DOCKED: BRANCH  24  25
DOCKED: ATOM     25  O   UNL     1     142.720  76.960 220.007 -0.20 +0.29    -0.394 OA 
DOCKED: ATOM     26  H   UNL     1     142.585  76.863 220.985 -0.42 -0.20    +0.210 HD 
DOCKED: ENDBRANCH  24  25
DOCKED: ENDBRANCH  21  24
DOCKED: ENDBRANCH   1  19
DOCKED: TORSDOF 6
DOCKED: TER
DOCKED: ENDMDL
________________________________________________________________________________


    FINAL DOCKED STATE:
    ________________________


Run:   3 / 20
Time taken for this run:   0.026s

DOCKED: MODEL        3
DOCKED: USER    Run = 3
DOCKED: USER
DOCKED: USER    Estimated Free Energy of Binding    =  -6.58 kcal/mol  [=(1)+(2)+(3)-(4)]
DOCKED: USER
DOCKED: USER    (1) Final Intermolecular Energy     =  -8.37 kcal/mol
DOCKED: USER        vdW + Hbond + desolv Energy     =  -8.28 kcal/mol
DOCKED: USER        Electrostatic Energy            =  -0.09 kcal/mol
DOCKED: USER        Moving Ligand-Fixed Receptor    =  -8.37 kcal/mol
DOCKED: USER        Moving Ligand-Moving Receptor   =  +0.00 kcal/mol
DOCKED: USER    (2) Final Total Internal Energy     =  -1.81 kcal/mol
DOCKED: USER    (3) Torsional Free Energy           =  +1.79 kcal/mol
DOCKED: USER    (4) Unbound System's Energy         =  -1.81 kcal/mol
DOCKED: USER
DOCKED: USER
DOCKED: REMARK SMILES O=C(NCC(=O)N1CCC[C@H]1CO)c1ccc2cc(F)ccc2n1
DOCKED: REMARK SMILES IDX 5 1 6 2 4 3 3 4 2 5 1 6 14 8 15 9 24 10 16 11 23 12 17 13
DOCKED: REMARK SMILES IDX 22 14 18 15 21 16 19 17 20 18 7 19 8 20 11 21 9 22 10 23
DOCKED: REMARK SMILES IDX 12 24 13 25
DOCKED: REMARK H PARENT 3 7 13 26
DOCKED: USER                              x       y       z     vdW  Elec       q    Type
DOCKED: USER                           _______ _______ _______ _____ _____    ______ ____
DOCKED: ROOT
DOCKED: ATOM      1  C   UNL     1     140.964  74.644 221.208 -0.21 -0.05    +0.242 C  
DOCKED: ATOM      2  O   UNL     1     141.082  75.652 221.970 -0.44 +0.07    -0.273 OA 
DOCKED: ENDROOT
DOCKED: BRANCH   1   3
DOCKED: ATOM      3  C   UNL     1     139.802  73.730 221.248 -0.17 -0.04    +0.216 C  
DOCKED: BRANCH   3   4
DOCKED: ATOM      4  N   UNL     1     139.690  73.035 222.510 -0.12 +0.06    -0.342 N  
DOCKED: ATOM      5  C   UNL     1     140.211  71.698 222.562 -0.21 -0.04    +0.270 C  
DOCKED: ATOM      6  O   UNL     1     140.715  71.266 221.491 -0.13 +0.03    -0.268 OA 
DOCKED: ATOM      7  H   UNL     1     139.252  73.465 223.369 -0.46 -0.09    +0.164 HD 
DOCKED: BRANCH   5   8
DOCKED: ATOM      8  C   UNL     1     140.152  70.912 223.772 -0.30 -0.02    +0.128 A  
DOCKED: ATOM      9  C   UNL     1     139.559  69.669 223.711 -0.25 -0.01    +0.035 A  
DOCKED: ATOM     10  N   UNL     1     140.645  71.331 224.955 -0.33 +0.03    -0.243 NA 
DOCKED: ATOM     11  C   UNL     1     139.452  68.843 224.805 -0.37 -0.00    +0.013 A  
DOCKED: ATOM     12  C   UNL     1     140.569  70.564 226.061 -0.52 -0.01    +0.071 A  
DOCKED: ATOM     13  C   UNL     1     139.978  69.323 225.998 -0.49 -0.00    +0.003 A  
DOCKED: ATOM     14  C   UNL     1     141.088  71.033 227.253 -0.66 -0.01    +0.032 A  
DOCKED: ATOM     15  C   UNL     1     139.876  68.509 227.094 -0.58 -0.01    +0.049 A  
DOCKED: ATOM     16  C   UNL     1     140.978  70.201 228.347 -0.52 -0.01    +0.041 A  
DOCKED: ATOM     17  C   UNL     1     140.386  68.955 228.293 -0.54 -0.02    +0.123 A  
DOCKED: ATOM     18  F   UNL     1     140.292  68.164 229.370 -0.10 +0.04    -0.207 F  
DOCKED: ENDBRANCH   5   8
DOCKED: ENDBRANCH   3   4
DOCKED: ENDBRANCH   1   3
DOCKED: BRANCH   1  19
DOCKED: ATOM     19  N   UNL     1     141.989  74.366 220.269 -0.10 +0.09    -0.336 N  
DOCKED: ATOM     20  C   UNL     1     141.996  73.399 219.189 -0.09 -0.03    +0.120 C  
DOCKED: ATOM     21  C   UNL     1     143.301  75.024 220.192 -0.28 -0.05    +0.110 C  
DOCKED: ATOM     22  C   UNL     1     143.395  72.799 219.368 -0.20 -0.00    +0.024 C  
DOCKED: ATOM     23  C   UNL     1     144.210  74.071 219.470 -0.33 -0.01    +0.029 C  
DOCKED: BRANCH  21  24
DOCKED: ATOM     24  C   UNL     1     143.205  76.319 219.455 -0.30 -0.12    +0.181 C  
DOCKED: BRANCH  24  25
DOCKED: ATOM     25  O   UNL     1     142.453  77.241 220.192 -0.17 +0.29    -0.394 OA 
DOCKED: ATOM     26  H   UNL     1     142.507  77.053 221.165 -0.42 -0.21    +0.210 HD 
DOCKED: ENDBRANCH  24  25
DOCKED: ENDBRANCH  21  24
DOCKED: ENDBRANCH   1  19
DOCKED: TORSDOF 6
DOCKED: TER
DOCKED: ENDMDL
________________________________________________________________________________


    FINAL DOCKED STATE:
    ________________________


Run:   4 / 20
Time taken for this run:   0.026s

DOCKED: MODEL        4
DOCKED: USER    Run = 4
DOCKED: USER
DOCKED: USER    Estimated Free Energy of Binding    =  -6.70 kcal/mol  [=(1)+(2)+(3)-(4)]
DOCKED: USER
DOCKED: USER    (1) Final Intermolecular Energy     =  -8.49 kcal/mol
DOCKED: USER        vdW + Hbond + desolv Energy     =  -8.43 kcal/mol
DOCKED: USER        Electrostatic Energy            =  -0.06 kcal/mol
DOCKED: USER        Moving Ligand-Fixed Receptor    =  -8.49 kcal/mol
DOCKED: USER        Moving Ligand-Moving Receptor   =  +0.00 kcal/mol
DOCKED: USER    (2) Final Total Internal Energy     =  -1.68 kcal/mol
DOCKED: USER    (3) Torsional Free Energy           =  +1.79 kcal/mol
DOCKED: USER    (4) Unbound System's Energy         =  -1.68 kcal/mol
DOCKED: USER
DOCKED: USER
DOCKED: REMARK SMILES O=C(NCC(=O)N1CCC[C@H]1CO)c1ccc2cc(F)ccc2n1
DOCKED: REMARK SMILES IDX 5 1 6 2 4 3 3 4 2 5 1 6 14 8 15 9 24 10 16 11 23 12 17 13
DOCKED: REMARK SMILES IDX 22 14 18 15 21 16 19 17 20 18 7 19 8 20 11 21 9 22 10 23
DOCKED: REMARK SMILES IDX 12 24 13 25
DOCKED: REMARK H PARENT 3 7 13 26
DOCKED: USER                              x       y       z     vdW  Elec       q    Type
DOCKED: USER                           _______ _______ _______ _____ _____    ______ ____
DOCKED: ROOT
DOCKED: ATOM      1  C   UNL     1     140.457  75.684 221.337 -0.23 -0.06    +0.242 C  
DOCKED: ATOM      2  O   UNL     1     141.659  75.977 221.053 -0.21 +0.13    -0.273 OA 
DOCKED: ENDROOT
DOCKED: BRANCH   1   3
DOCKED: ATOM      3  C   UNL     1     139.869  74.350 221.088 -0.17 -0.04    +0.216 C  
DOCKED: BRANCH   3   4
DOCKED: ATOM      4  N   UNL     1     139.650  73.608 222.309 -0.12 +0.05    -0.342 N  
DOCKED: ATOM      5  C   UNL     1     140.351  72.362 222.445 -0.21 -0.03    +0.270 C  
DOCKED: ATOM      6  O   UNL     1     141.091  72.043 221.476 -0.17 +0.03    -0.268 OA 
DOCKED: ATOM      7  H   UNL     1     139.011  73.941 223.081 -0.55 -0.09    +0.164 HD 
DOCKED: BRANCH   5   8
DOCKED: ATOM      8  C   UNL     1     140.206  71.539 223.623 -0.33 -0.02    +0.128 A  
DOCKED: ATOM      9  C   UNL     1     139.579  70.318 223.490 -0.28 -0.01    +0.035 A  
DOCKED: ATOM     10  N   UNL     1     140.650  71.904 224.843 -0.26 +0.03    -0.243 NA 
DOCKED: ATOM     11  C   UNL     1     139.391  69.462 224.547 -0.35 -0.00    +0.013 A  
DOCKED: ATOM     12  C   UNL     1     140.494  71.104 225.916 -0.54 -0.01    +0.071 A  
DOCKED: ATOM     13  C   UNL     1     139.869  69.886 225.781 -0.47 -0.00    +0.003 A  
DOCKED: ATOM     14  C   UNL     1     140.965  71.517 227.149 -0.73 -0.01    +0.032 A  
DOCKED: ATOM     15  C   UNL     1     139.686  69.040 226.842 -0.52 -0.01    +0.049 A  
DOCKED: ATOM     16  C   UNL     1     140.773  70.654 228.206 -0.59 -0.01    +0.041 A  
DOCKED: ATOM     17  C   UNL     1     140.147  69.430 228.080 -0.52 -0.02    +0.123 A  
DOCKED: ATOM     18  F   UNL     1     139.973  68.607 229.124 -0.13 +0.04    -0.207 F  
DOCKED: ENDBRANCH   5   8
DOCKED: ENDBRANCH   3   4
DOCKED: ENDBRANCH   1   3
DOCKED: BRANCH   1  19
DOCKED: ATOM     19  N   UNL     1     139.626  76.672 221.920 -0.16 +0.08    -0.336 N  
DOCKED: ATOM     20  C   UNL     1     138.432  76.500 222.723 -0.24 -0.02    +0.120 C  
DOCKED: ATOM     21  C   UNL     1     139.809  78.128 221.828 -0.24 -0.03    +0.110 C  
DOCKED: ATOM     22  C   UNL     1     137.519  77.555 222.088 -0.19 -0.00    +0.024 C  
DOCKED: ATOM     23  C   UNL     1     138.462  78.741 222.082 -0.21 -0.01    +0.029 C  
DOCKED: BRANCH  21  24
DOCKED: ATOM     24  C   UNL     1     140.802  78.605 222.836 -0.37 -0.05    +0.181 C  
DOCKED: BRANCH  24  25
DOCKED: ATOM     25  O   UNL     1     141.456  77.516 223.425 -0.24 +0.15    -0.394 OA 
DOCKED: ATOM     26  H   UNL     1     141.929  76.970 222.745 -0.39 -0.16    +0.210 HD 
DOCKED: ENDBRANCH  24  25
DOCKED: ENDBRANCH  21  24
DOCKED: ENDBRANCH   1  19
DOCKED: TORSDOF 6
DOCKED: TER
DOCKED: ENDMDL
________________________________________________________________________________


    FINAL DOCKED STATE:
    ________________________


Run:   5 / 20
Time taken for this run:   0.026s

DOCKED: MODEL        5
DOCKED: USER    Run = 5
DOCKED: USER
DOCKED: USER    Estimated Free Energy of Binding    =  -5.71 kcal/mol  [=(1)+(2)+(3)-(4)]
DOCKED: USER
DOCKED: USER    (1) Final Intermolecular Energy     =  -7.50 kcal/mol
DOCKED: USER        vdW + Hbond + desolv Energy     =  -7.37 kcal/mol
DOCKED: USER        Electrostatic Energy            =  -0.12 kcal/mol
DOCKED: USER        Moving Ligand-Fixed Receptor    =  -7.50 kcal/mol
DOCKED: USER        Moving Ligand-Moving Receptor   =  +0.00 kcal/mol
DOCKED: USER    (2) Final Total Internal Energy     =  -2.65 kcal/mol
DOCKED: USER    (3) Torsional Free Energy           =  +1.79 kcal/mol
DOCKED: USER    (4) Unbound System's Energy         =  -2.65 kcal/mol
DOCKED: USER
DOCKED: USER
DOCKED: REMARK SMILES O=C(NCC(=O)N1CCC[C@H]1CO)c1ccc2cc(F)ccc2n1
DOCKED: REMARK SMILES IDX 5 1 6 2 4 3 3 4 2 5 1 6 14 8 15 9 24 10 16 11 23 12 17 13
DOCKED: REMARK SMILES IDX 22 14 18 15 21 16 19 17 20 18 7 19 8 20 11 21 9 22 10 23
DOCKED: REMARK SMILES IDX 12 24 13 25
DOCKED: REMARK H PARENT 3 7 13 26
DOCKED: USER                              x       y       z     vdW  Elec       q    Type
DOCKED: USER                           _______ _______ _______ _____ _____    ______ ____
DOCKED: ROOT
DOCKED: ATOM      1  C   UNL     1     137.728  74.083 220.693 -0.05 -0.05    +0.242 C  
DOCKED: ATOM      2  O   UNL     1     137.267  74.705 219.686 -0.01 +0.05    -0.273 OA 
DOCKED: ENDROOT
DOCKED: BRANCH   1   3
DOCKED: ATOM      3  C   UNL     1     137.039  72.935 221.319 -0.06 -0.05    +0.216 C  
DOCKED: BRANCH   3   4
DOCKED: ATOM      4  N   UNL     1     137.735  72.446 222.488 -0.06 +0.11    -0.342 N  
DOCKED: ATOM      5  C   UNL     1     137.729  71.025 222.699 -0.10 -0.06    +0.270 C  
DOCKED: ATOM      6  O   UNL     1     137.111  70.347 221.834 -0.03 +0.05    -0.268 OA 
DOCKED: ATOM      7  H   UNL     1     138.232  73.078 223.171 -0.45 -0.11    +0.164 HD 
DOCKED: BRANCH   5   8
DOCKED: ATOM      8  C   UNL     1     138.393  70.428 223.834 -0.23 -0.02    +0.128 A  
DOCKED: ATOM      9  C   UNL     1     138.281  69.065 224.010 -0.29 -0.00    +0.035 A  
DOCKED: ATOM     10  N   UNL     1     139.114  71.134 224.729 -0.21 +0.05    -0.243 NA 
DOCKED: ATOM     11  C   UNL     1     138.873  68.401 225.056 -0.40 -0.00    +0.013 A  
DOCKED: ATOM     12  C   UNL     1     139.717  70.536 225.775 -0.41 -0.01    +0.071 A  
DOCKED: ATOM     13  C   UNL     1     139.605  69.176 225.948 -0.48 -0.00    +0.003 A  
DOCKED: ATOM     14  C   UNL     1     140.447  71.298 226.668 -0.62 -0.01    +0.032 A  
DOCKED: ATOM     15  C   UNL     1     140.199  68.524 226.995 -0.60 -0.01    +0.049 A  
DOCKED: ATOM     16  C   UNL     1     141.039  70.626 227.716 -0.62 -0.01    +0.041 A  
DOCKED: ATOM     17  C   UNL     1     140.931  69.262 227.898 -0.51 -0.03    +0.123 A  
DOCKED: ATOM     18  F   UNL     1     141.517  68.631 228.925 -0.15 +0.05    -0.207 F  
DOCKED: ENDBRANCH   5   8
DOCKED: ENDBRANCH   3   4
DOCKED: ENDBRANCH   1   3
DOCKED: BRANCH   1  19
DOCKED: ATOM     19  N   UNL     1     138.960  74.501 221.255 -0.09 +0.07    -0.336 N  
DOCKED: ATOM     20  C   UNL     1     139.208  75.538 222.237 -0.25 -0.02    +0.120 C  
DOCKED: ATOM     21  C   UNL     1     140.287  73.949 220.949 -0.20 -0.02    +0.110 C  
DOCKED: ATOM     22  C   UNL     1     140.424  76.227 221.608 -0.34 -0.01    +0.024 C  
DOCKED: ATOM     23  C   UNL     1     141.282  75.015 221.312 -0.30 -0.01    +0.029 C  
DOCKED: BRANCH  21  24
DOCKED: ATOM     24  C   UNL     1     140.541  72.704 221.733 -0.22 -0.02    +0.181 C  
DOCKED: BRANCH  24  25
DOCKED: ATOM     25  O   UNL     1     140.416  72.961 223.103 -0.42 -0.01    -0.394 OA 
DOCKED: ATOM     26  H   UNL     1     139.537  72.657 223.448 -0.27 -0.07    +0.210 HD 
DOCKED: ENDBRANCH  24  25
DOCKED: ENDBRANCH  21  24
DOCKED: ENDBRANCH   1  19
DOCKED: TORSDOF 6
DOCKED: TER
DOCKED: ENDMDL
________________________________________________________________________________


    FINAL DOCKED STATE:
    ________________________


Run:   6 / 20
Time taken for this run:   0.026s

DOCKED: MODEL        6
DOCKED: USER    Run = 6
DOCKED: USER
DOCKED: USER    Estimated Free Energy of Binding    =  -6.77 kcal/mol  [=(1)+(2)+(3)-(4)]
DOCKED: USER
DOCKED: USER    (1) Final Intermolecular Energy     =  -8.56 kcal/mol
DOCKED: USER        vdW + Hbond + desolv Energy     =  -8.48 kcal/mol
DOCKED: USER        Electrostatic Energy            =  -0.09 kcal/mol
DOCKED: USER        Moving Ligand-Fixed Receptor    =  -8.56 kcal/mol
DOCKED: USER        Moving Ligand-Moving Receptor   =  +0.00 kcal/mol
DOCKED: USER    (2) Final Total Internal Energy     =  -1.77 kcal/mol
DOCKED: USER    (3) Torsional Free Energy           =  +1.79 kcal/mol
DOCKED: USER    (4) Unbound System's Energy         =  -1.77 kcal/mol
DOCKED: USER
DOCKED: USER
DOCKED: REMARK SMILES O=C(NCC(=O)N1CCC[C@H]1CO)c1ccc2cc(F)ccc2n1
DOCKED: REMARK SMILES IDX 5 1 6 2 4 3 3 4 2 5 1 6 14 8 15 9 24 10 16 11 23 12 17 13
DOCKED: REMARK SMILES IDX 22 14 18 15 21 16 19 17 20 18 7 19 8 20 11 21 9 22 10 23
DOCKED: REMARK SMILES IDX 12 24 13 25
DOCKED: REMARK H PARENT 3 7 13 26
DOCKED: USER                              x       y       z     vdW  Elec       q    Type
DOCKED: USER                           _______ _______ _______ _____ _____    ______ ____
DOCKED: ROOT
DOCKED: ATOM      1  C   UNL     1     140.982  74.705 221.204 -0.21 -0.05    +0.242 C  
DOCKED: ATOM      2  O   UNL     1     141.125  75.715 221.960 -0.41 +0.08    -0.273 OA 
DOCKED: ENDROOT
DOCKED: BRANCH   1   3
DOCKED: ATOM      3  C   UNL     1     139.740  73.906 221.145 -0.16 -0.04    +0.216 C  
DOCKED: BRANCH   3   4
DOCKED: ATOM      4  N   UNL     1     139.508  73.157 222.359 -0.14 +0.07    -0.342 N  
DOCKED: ATOM      5  C   UNL     1     140.354  72.020 222.591 -0.21 -0.03    +0.270 C  
DOCKED: ATOM      6  O   UNL     1     141.218  71.792 221.702 -0.17 +0.03    -0.268 OA 
DOCKED: ATOM      7  H   UNL     1     138.761  73.410 223.060 -0.51 -0.10    +0.164 HD 
DOCKED: BRANCH   5   8
DOCKED: ATOM      8  C   UNL     1     140.210  71.201 223.772 -0.33 -0.02    +0.128 A  
DOCKED: ATOM      9  C   UNL     1     139.538  70.003 223.653 -0.27 -0.01    +0.035 A  
DOCKED: ATOM     10  N   UNL     1     140.699  71.547 224.980 -0.33 +0.03    -0.243 NA 
DOCKED: ATOM     11  C   UNL     1     139.347  69.151 224.715 -0.36 -0.00    +0.013 A  
DOCKED: ATOM     12  C   UNL     1     140.542  70.751 226.056 -0.54 -0.01    +0.071 A  
DOCKED: ATOM     13  C   UNL     1     139.871  69.556 225.937 -0.48 -0.00    +0.003 A  
DOCKED: ATOM     14  C   UNL     1     141.059  71.145 227.277 -0.69 -0.01    +0.032 A  
DOCKED: ATOM     15  C   UNL     1     139.686  68.716 227.001 -0.55 -0.01    +0.049 A  
DOCKED: ATOM     16  C   UNL     1     140.864  70.287 228.338 -0.53 -0.01    +0.041 A  
DOCKED: ATOM     17  C   UNL     1     140.192  69.087 228.227 -0.53 -0.02    +0.123 A  
DOCKED: ATOM     18  F   UNL     1     140.016  68.269 229.274 -0.06 +0.04    -0.207 F  
DOCKED: ENDBRANCH   5   8
DOCKED: ENDBRANCH   3   4
DOCKED: ENDBRANCH   1   3
DOCKED: BRANCH   1  19
DOCKED: ATOM     19  N   UNL     1     142.059  74.313 220.369 -0.11 +0.09    -0.336 N  
DOCKED: ATOM     20  C   UNL     1     142.092  73.282 219.351 -0.10 -0.02    +0.120 C  
DOCKED: ATOM     21  C   UNL     1     143.411  74.890 220.364 -0.26 -0.05    +0.110 C  
DOCKED: ATOM     22  C   UNL     1     143.433  72.616 219.678 -0.23 -0.00    +0.024 C  
DOCKED: ATOM     23  C   UNL     1     144.314  73.844 219.775 -0.38 -0.01    +0.029 C  
DOCKED: BRANCH  21  24
DOCKED: ATOM     24  C   UNL     1     143.453  76.141 219.549 -0.29 -0.12    +0.181 C  
DOCKED: BRANCH  24  25
DOCKED: ATOM     25  O   UNL     1     142.599  77.104 220.097 -0.20 +0.29    -0.394 OA 
DOCKED: ATOM     26  H   UNL     1     142.569  77.038 221.087 -0.42 -0.21    +0.210 HD 
DOCKED: ENDBRANCH  24  25
DOCKED: ENDBRANCH  21  24
DOCKED: ENDBRANCH   1  19
DOCKED: TORSDOF 6
DOCKED: TER
DOCKED: ENDMDL
________________________________________________________________________________


    FINAL DOCKED STATE:
    ________________________


Run:   7 / 20
Time taken for this run:   0.026s

DOCKED: MODEL        7
DOCKED: USER    Run = 7
DOCKED: USER
DOCKED: USER    Estimated Free Energy of Binding    =  -6.73 kcal/mol  [=(1)+(2)+(3)-(4)]
DOCKED: USER
DOCKED: USER    (1) Final Intermolecular Energy     =  -8.52 kcal/mol
DOCKED: USER        vdW + Hbond + desolv Energy     =  -8.45 kcal/mol
DOCKED: USER        Electrostatic Energy            =  -0.07 kcal/mol
DOCKED: USER        Moving Ligand-Fixed Receptor    =  -8.52 kcal/mol
DOCKED: USER        Moving Ligand-Moving Receptor   =  +0.00 kcal/mol
DOCKED: USER    (2) Final Total Internal Energy     =  -1.80 kcal/mol
DOCKED: USER    (3) Torsional Free Energy           =  +1.79 kcal/mol
DOCKED: USER    (4) Unbound System's Energy         =  -1.80 kcal/mol
DOCKED: USER
DOCKED: USER
DOCKED: REMARK SMILES O=C(NCC(=O)N1CCC[C@H]1CO)c1ccc2cc(F)ccc2n1
DOCKED: REMARK SMILES IDX 5 1 6 2 4 3 3 4 2 5 1 6 14 8 15 9 24 10 16 11 23 12 17 13
DOCKED: REMARK SMILES IDX 22 14 18 15 21 16 19 17 20 18 7 19 8 20 11 21 9 22 10 23
DOCKED: REMARK SMILES IDX 12 24 13 25
DOCKED: REMARK H PARENT 3 7 13 26
DOCKED: USER                              x       y       z     vdW  Elec       q    Type
DOCKED: USER                           _______ _______ _______ _____ _____    ______ ____
DOCKED: ROOT
DOCKED: ATOM      1  C   UNL     1     141.017  74.687 221.153 -0.21 -0.05    +0.242 C  
DOCKED: ATOM      2  O   UNL     1     141.076  75.766 221.820 -0.37 +0.08    -0.273 OA 
DOCKED: ENDROOT
DOCKED: BRANCH   1   3
DOCKED: ATOM      3  C   UNL     1     139.815  73.827 221.109 -0.16 -0.04    +0.216 C  
DOCKED: BRANCH   3   4
DOCKED: ATOM      4  N   UNL     1     139.594  73.125 222.353 -0.15 +0.06    -0.342 N  
DOCKED: ATOM      5  C   UNL     1     140.326  71.905 222.547 -0.21 -0.03    +0.270 C  
DOCKED: ATOM      6  O   UNL     1     141.092  71.571 221.604 -0.15 +0.03    -0.268 OA 
DOCKED: ATOM      7  H   UNL     1     138.932  73.468 223.100 -0.51 -0.09    +0.164 HD 
DOCKED: BRANCH   5   8
DOCKED: ATOM      8  C   UNL     1     140.182  71.122 223.752 -0.33 -0.02    +0.128 A  
DOCKED: ATOM      9  C   UNL     1     139.516  69.918 223.669 -0.27 -0.01    +0.035 A  
DOCKED: ATOM     10  N   UNL     1     140.663  71.509 224.951 -0.33 +0.03    -0.243 NA 
DOCKED: ATOM     11  C   UNL     1     139.325  69.099 224.756 -0.37 -0.00    +0.013 A  
DOCKED: ATOM     12  C   UNL     1     140.506  70.746 226.051 -0.53 -0.01    +0.071 A  
DOCKED: ATOM     13  C   UNL     1     139.842  69.544 225.966 -0.48 -0.00    +0.003 A  
DOCKED: ATOM     14  C   UNL     1     141.016  71.181 227.261 -0.69 -0.01    +0.032 A  
DOCKED: ATOM     15  C   UNL     1     139.657  68.736 227.056 -0.55 -0.01    +0.049 A  
DOCKED: ATOM     16  C   UNL     1     140.822  70.356 228.348 -0.52 -0.01    +0.041 A  
DOCKED: ATOM     17  C   UNL     1     140.156  69.148 228.271 -0.53 -0.02    +0.123 A  
DOCKED: ATOM     18  F   UNL     1     139.980  68.363 229.343 -0.05 +0.04    -0.207 F  
DOCKED: ENDBRANCH   5   8
DOCKED: ENDBRANCH   3   4
DOCKED: ENDBRANCH   1   3
DOCKED: BRANCH   1  19
DOCKED: ATOM     19  N   UNL     1     142.151  74.274 220.411 -0.12 +0.09    -0.336 N  
DOCKED: ATOM     20  C   UNL     1     142.273  73.181 219.467 -0.12 -0.02    +0.120 C  
DOCKED: ATOM     21  C   UNL     1     143.486  74.889 220.446 -0.24 -0.05    +0.110 C  
DOCKED: ATOM     22  C   UNL     1     143.608  72.578 219.915 -0.27 -0.00    +0.024 C  
DOCKED: ATOM     23  C   UNL     1     144.449  73.835 219.982 -0.43 -0.01    +0.029 C  
DOCKED: BRANCH  21  24
DOCKED: ATOM     24  C   UNL     1     143.544  76.085 219.554 -0.28 -0.12    +0.181 C  
DOCKED: BRANCH  24  25
DOCKED: ATOM     25  O   UNL     1     142.703  77.093 220.039 -0.20 +0.30    -0.394 OA 
DOCKED: ATOM     26  H   UNL     1     142.556  77.000 221.016 -0.41 -0.20    +0.210 HD 
DOCKED: ENDBRANCH  24  25
DOCKED: ENDBRANCH  21  24
DOCKED: ENDBRANCH   1  19
DOCKED: TORSDOF 6
DOCKED: TER
DOCKED: ENDMDL
________________________________________________________________________________


    FINAL DOCKED STATE:
    ________________________


Run:   8 / 20
Time taken for this run:   0.026s

DOCKED: MODEL        8
DOCKED: USER    Run = 8
DOCKED: USER
DOCKED: USER    Estimated Free Energy of Binding    =  -5.82 kcal/mol  [=(1)+(2)+(3)-(4)]
DOCKED: USER
DOCKED: USER    (1) Final Intermolecular Energy     =  -7.61 kcal/mol
DOCKED: USER        vdW + Hbond + desolv Energy     =  -7.48 kcal/mol
DOCKED: USER        Electrostatic Energy            =  -0.13 kcal/mol
DOCKED: USER        Moving Ligand-Fixed Receptor    =  -7.61 kcal/mol
DOCKED: USER        Moving Ligand-Moving Receptor   =  +0.00 kcal/mol
DOCKED: USER    (2) Final Total Internal Energy     =  -2.61 kcal/mol
DOCKED: USER    (3) Torsional Free Energy           =  +1.79 kcal/mol
DOCKED: USER    (4) Unbound System's Energy         =  -2.61 kcal/mol
DOCKED: USER
DOCKED: USER
DOCKED: REMARK SMILES O=C(NCC(=O)N1CCC[C@H]1CO)c1ccc2cc(F)ccc2n1
DOCKED: REMARK SMILES IDX 5 1 6 2 4 3 3 4 2 5 1 6 14 8 15 9 24 10 16 11 23 12 17 13
DOCKED: REMARK SMILES IDX 22 14 18 15 21 16 19 17 20 18 7 19 8 20 11 21 9 22 10 23
DOCKED: REMARK SMILES IDX 12 24 13 25
DOCKED: REMARK H PARENT 3 7 13 26
DOCKED: USER                              x       y       z     vdW  Elec       q    Type
DOCKED: USER                           _______ _______ _______ _____ _____    ______ ____
DOCKED: ROOT
DOCKED: ATOM      1  C   UNL     1     137.574  74.021 220.894 -0.06 -0.05    +0.242 C  
DOCKED: ATOM      2  O   UNL     1     136.992  74.696 219.990 -0.01 +0.05    -0.273 OA 
DOCKED: ENDROOT
DOCKED: BRANCH   1   3
DOCKED: ATOM      3  C   UNL     1     136.989  72.805 221.500 -0.06 -0.05    +0.216 C  
DOCKED: BRANCH   3   4
DOCKED: ATOM      4  N   UNL     1     137.734  72.350 222.652 -0.06 +0.11    -0.342 N  
DOCKED: ATOM      5  C   UNL     1     137.740  70.936 222.903 -0.11 -0.06    +0.270 C  
DOCKED: ATOM      6  O   UNL     1     137.088  70.233 222.085 -0.04 +0.05    -0.268 OA 
DOCKED: ATOM      7  H   UNL     1     138.257  73.002 223.295 -0.46 -0.12    +0.164 HD 
DOCKED: BRANCH   5   8
DOCKED: ATOM      8  C   UNL     1     138.451  70.373 224.026 -0.25 -0.02    +0.128 A  
DOCKED: ATOM      9  C   UNL     1     138.451  69.002 224.174 -0.31 -0.00    +0.035 A  
DOCKED: ATOM     10  N   UNL     1     139.113  71.117 224.935 -0.19 +0.05    -0.243 NA 
DOCKED: ATOM     11  C   UNL     1     139.097  68.367 225.207 -0.43 -0.00    +0.013 A  
DOCKED: ATOM     12  C   UNL     1     139.765  70.548 225.969 -0.40 -0.01    +0.071 A  
DOCKED: ATOM     13  C   UNL     1     139.764  69.180 226.115 -0.50 -0.00    +0.003 A  
DOCKED: ATOM     14  C   UNL     1     140.432  71.349 226.878 -0.63 -0.01    +0.032 A  
DOCKED: ATOM     15  C   UNL     1     140.411  68.558 227.148 -0.61 -0.01    +0.049 A  
DOCKED: ATOM     16  C   UNL     1     141.078  70.707 227.913 -0.63 -0.01    +0.041 A  
DOCKED: ATOM     17  C   UNL     1     141.082  69.335 228.066 -0.49 -0.03    +0.123 A  
DOCKED: ATOM     18  F   UNL     1     141.718  68.733 229.081 -0.13 +0.05    -0.207 F  
DOCKED: ENDBRANCH   5   8
DOCKED: ENDBRANCH   3   4
DOCKED: ENDBRANCH   1   3
DOCKED: BRANCH   1  19
DOCKED: ATOM     19  N   UNL     1     138.846  74.441 221.356 -0.09 +0.08    -0.336 N  
DOCKED: ATOM     20  C   UNL     1     139.170  75.480 222.313 -0.24 -0.02    +0.120 C  
DOCKED: ATOM     21  C   UNL     1     140.146  73.891 220.946 -0.19 -0.02    +0.110 C  
DOCKED: ATOM     22  C   UNL     1     140.331  76.170 221.588 -0.34 -0.01    +0.024 C  
DOCKED: ATOM     23  C   UNL     1     141.164  74.959 221.227 -0.31 -0.01    +0.029 C  
DOCKED: BRANCH  21  24
DOCKED: ATOM     24  C   UNL     1     140.463  72.648 221.710 -0.22 -0.02    +0.181 C  
DOCKED: BRANCH  24  25
DOCKED: ATOM     25  O   UNL     1     140.443  72.905 223.085 -0.43 -0.01    -0.394 OA 
DOCKED: ATOM     26  H   UNL     1     139.574  72.646 223.487 -0.27 -0.07    +0.210 HD 
DOCKED: ENDBRANCH  24  25
DOCKED: ENDBRANCH  21  24
DOCKED: ENDBRANCH   1  19
DOCKED: TORSDOF 6
DOCKED: TER
DOCKED: ENDMDL
________________________________________________________________________________


    FINAL DOCKED STATE:
    ________________________


Run:   9 / 20
Time taken for this run:   0.026s

DOCKED: MODEL        9
DOCKED: USER    Run = 9
DOCKED: USER
DOCKED: USER    Estimated Free Energy of Binding    =  -5.90 kcal/mol  [=(1)+(2)+(3)-(4)]
DOCKED: USER
DOCKED: USER    (1) Final Intermolecular Energy     =  -7.69 kcal/mol
DOCKED: USER        vdW + Hbond + desolv Energy     =  -7.54 kcal/mol
DOCKED: USER        Electrostatic Energy            =  -0.15 kcal/mol
DOCKED: USER        Moving Ligand-Fixed Receptor    =  -7.69 kcal/mol
DOCKED: USER        Moving Ligand-Moving Receptor   =  +0.00 kcal/mol
DOCKED: USER    (2) Final Total Internal Energy     =  -2.51 kcal/mol
DOCKED: USER    (3) Torsional Free Energy           =  +1.79 kcal/mol
DOCKED: USER    (4) Unbound System's Energy         =  -2.51 kcal/mol
DOCKED: USER
DOCKED: USER
DOCKED: REMARK SMILES O=C(NCC(=O)N1CCC[C@H]1CO)c1ccc2cc(F)ccc2n1
DOCKED: REMARK SMILES IDX 5 1 6 2 4 3 3 4 2 5 1 6 14 8 15 9 24 10 16 11 23 12 17 13
DOCKED: REMARK SMILES IDX 22 14 18 15 21 16 19 17 20 18 7 19 8 20 11 21 9 22 10 23
DOCKED: REMARK SMILES IDX 12 24 13 25
DOCKED: REMARK H PARENT 3 7 13 26
DOCKED: USER                              x       y       z     vdW  Elec       q    Type
DOCKED: USER                           _______ _______ _______ _____ _____    ______ ____
DOCKED: ROOT
DOCKED: ATOM      1  C   UNL     1     137.519  74.194 221.161 -0.07 -0.06    +0.242 C  
DOCKED: ATOM      2  O   UNL     1     136.762  75.019 220.563 -0.02 +0.05    -0.273 OA 
DOCKED: ENDROOT
DOCKED: BRANCH   1   3
DOCKED: ATOM      3  C   UNL     1     137.084  72.837 221.557 -0.07 -0.05    +0.216 C  
DOCKED: BRANCH   3   4
DOCKED: ATOM      4  N   UNL     1     137.790  72.350 222.720 -0.05 +0.12    -0.342 N  
DOCKED: ATOM      5  C   UNL     1     137.862  70.925 222.885 -0.12 -0.06    +0.270 C  
DOCKED: ATOM      6  O   UNL     1     137.296  70.242 221.989 -0.04 +0.05    -0.268 OA 
DOCKED: ATOM      7  H   UNL     1     138.241  72.986 223.430 -0.45 -0.13    +0.164 HD 
DOCKED: BRANCH   5   8
DOCKED: ATOM      8  C   UNL     1     138.542  70.329 224.011 -0.25 -0.02    +0.128 A  
DOCKED: ATOM      9  C   UNL     1     138.530  68.955 224.125 -0.31 -0.00    +0.035 A  
DOCKED: ATOM     10  N   UNL     1     139.187  71.046 224.954 -0.22 +0.05    -0.243 NA 
DOCKED: ATOM     11  C   UNL     1     139.147  68.291 225.157 -0.44 -0.00    +0.013 A  
DOCKED: ATOM     12  C   UNL     1     139.809  70.449 225.989 -0.42 -0.01    +0.071 A  
DOCKED: ATOM     13  C   UNL     1     139.796  69.077 226.101 -0.51 -0.00    +0.003 A  
DOCKED: ATOM     14  C   UNL     1     140.458  71.223 226.933 -0.64 -0.01    +0.032 A  
DOCKED: ATOM     15  C   UNL     1     140.414  68.426 227.134 -0.62 -0.01    +0.049 A  
DOCKED: ATOM     16  C   UNL     1     141.075  70.550 227.967 -0.61 -0.01    +0.041 A  
DOCKED: ATOM     17  C   UNL     1     141.067  69.175 228.087 -0.50 -0.03    +0.123 A  
DOCKED: ATOM     18  F   UNL     1     141.675  68.545 229.101 -0.15 +0.05    -0.207 F  
DOCKED: ENDBRANCH   5   8
DOCKED: ENDBRANCH   3   4
DOCKED: ENDBRANCH   1   3
DOCKED: BRANCH   1  19
DOCKED: ATOM     19  N   UNL     1     138.847  74.577 221.471 -0.10 +0.08    -0.336 N  
DOCKED: ATOM     20  C   UNL     1     139.308  75.632 222.352 -0.26 -0.02    +0.120 C  
DOCKED: ATOM     21  C   UNL     1     140.075  73.965 220.945 -0.19 -0.02    +0.110 C  
DOCKED: ATOM     22  C   UNL     1     140.409  76.253 221.485 -0.33 -0.01    +0.024 C  
DOCKED: ATOM     23  C   UNL     1     141.155  75.000 221.080 -0.30 -0.01    +0.029 C  
DOCKED: BRANCH  21  24
DOCKED: ATOM     24  C   UNL     1     140.428  72.734 221.714 -0.22 -0.02    +0.181 C  
DOCKED: BRANCH  24  25
DOCKED: ATOM     25  O   UNL     1     140.414  73.000 223.087 -0.43 -0.01    -0.394 OA 
DOCKED: ATOM     26  H   UNL     1     139.611  72.612 223.521 -0.24 -0.06    +0.210 HD 
DOCKED: ENDBRANCH  24  25
DOCKED: ENDBRANCH  21  24
DOCKED: ENDBRANCH   1  19
DOCKED: TORSDOF 6
DOCKED: TER
DOCKED: ENDMDL
________________________________________________________________________________


    FINAL DOCKED STATE:
    ________________________


Run:   10 / 20
Time taken for this run:   0.026s

DOCKED: MODEL        10
DOCKED: USER    Run = 10
DOCKED: USER
DOCKED: USER    Estimated Free Energy of Binding    =  -5.96 kcal/mol  [=(1)+(2)+(3)-(4)]
DOCKED: USER
DOCKED: USER    (1) Final Intermolecular Energy     =  -7.75 kcal/mol
DOCKED: USER        vdW + Hbond + desolv Energy     =  -7.77 kcal/mol
DOCKED: USER        Electrostatic Energy            =  +0.02 kcal/mol
DOCKED: USER        Moving Ligand-Fixed Receptor    =  -7.75 kcal/mol
DOCKED: USER        Moving Ligand-Moving Receptor   =  +0.00 kcal/mol
DOCKED: USER    (2) Final Total Internal Energy     =  -2.48 kcal/mol
DOCKED: USER    (3) Torsional Free Energy           =  +1.79 kcal/mol
DOCKED: USER    (4) Unbound System's Energy         =  -2.48 kcal/mol
DOCKED: USER
DOCKED: USER
DOCKED: REMARK SMILES O=C(NCC(=O)N1CCC[C@H]1CO)c1ccc2cc(F)ccc2n1
DOCKED: REMARK SMILES IDX 5 1 6 2 4 3 3 4 2 5 1 6 14 8 15 9 24 10 16 11 23 12 17 13
DOCKED: REMARK SMILES IDX 22 14 18 15 21 16 19 17 20 18 7 19 8 20 11 21 9 22 10 23
DOCKED: REMARK SMILES IDX 12 24 13 25
DOCKED: REMARK H PARENT 3 7 13 26
DOCKED: USER                              x       y       z     vdW  Elec       q    Type
DOCKED: USER                           _______ _______ _______ _____ _____    ______ ____
DOCKED: ROOT
DOCKED: ATOM      1  C   UNL     1     139.052  68.719 225.045 -0.28 -0.02    +0.242 C  
DOCKED: ATOM      2  O   UNL     1     139.138  67.557 224.541 -0.74 -0.00    -0.273 OA 
DOCKED: ENDROOT
DOCKED: BRANCH   1   3
DOCKED: ATOM      3  C   UNL     1     138.105  69.745 224.558 -0.23 -0.03    +0.216 C  
DOCKED: BRANCH   3   4
DOCKED: ATOM      4  N   UNL     1     138.778  70.892 223.991 -0.14 +0.08    -0.342 N  
DOCKED: ATOM      5  C   UNL     1     139.520  70.674 222.781 -0.15 -0.05    +0.270 C  
DOCKED: ATOM      6  O   UNL     1     139.508  69.495 222.337 -0.11 +0.05    -0.268 OA 
DOCKED: ATOM      7  H   UNL     1     138.742  71.854 224.422 -0.16 -0.07    +0.164 HD 
DOCKED: BRANCH   5   8
DOCKED: ATOM      8  C   UNL     1     140.231  71.749 222.128 -0.23 -0.02    +0.128 A  
DOCKED: ATOM      9  C   UNL     1     141.236  71.421 221.244 -0.15 -0.00    +0.035 A  
DOCKED: ATOM     10  N   UNL     1     139.962  73.053 222.340 -0.61 +0.03    -0.243 NA 
DOCKED: ATOM     11  C   UNL     1     141.971  72.367 220.571 -0.21 -0.00    +0.013 A  
DOCKED: ATOM     12  C   UNL     1     140.650  74.025 221.708 -0.25 -0.01    +0.071 A  
DOCKED: ATOM     13  C   UNL     1     141.652  73.696 220.825 -0.27 -0.00    +0.003 A  
DOCKED: ATOM     14  C   UNL     1     140.341  75.350 221.955 -0.31 -0.00    +0.032 A  
DOCKED: ATOM     15  C   UNL     1     142.379  74.647 220.161 -0.26 -0.02    +0.049 A  
DOCKED: ATOM     16  C   UNL     1     141.082  76.295 221.278 -0.32 -0.02    +0.041 A  
DOCKED: ATOM     17  C   UNL     1     142.089  75.974 220.391 -0.22 -0.06    +0.123 A  
DOCKED: ATOM     18  F   UNL     1     142.795  76.911 219.744 -0.11 +0.15    -0.207 F  
DOCKED: ENDBRANCH   5   8
DOCKED: ENDBRANCH   3   4
DOCKED: ENDBRANCH   1   3
DOCKED: BRANCH   1  19
DOCKED: ATOM     19  N   UNL     1     139.901  69.065 226.126 -0.20 +0.05    -0.336 N  
DOCKED: ATOM     20  C   UNL     1     140.681  68.197 226.984 -0.58 -0.03    +0.120 C  
DOCKED: ATOM     21  C   UNL     1     140.175  70.423 226.617 -0.49 -0.02    +0.110 C  
DOCKED: ATOM     22  C   UNL     1     140.374  68.814 228.353 -0.64 -0.00    +0.024 C  
DOCKED: ATOM     23  C   UNL     1     140.631  70.273 228.040 -0.62 -0.01    +0.029 C  
DOCKED: BRANCH  21  24
DOCKED: ATOM     24  C   UNL     1     141.231  71.084 225.794 -0.46 -0.02    +0.181 C  
DOCKED: BRANCH  24  25
DOCKED: ATOM     25  O   UNL     1     140.720  72.238 225.188 -0.10 +0.06    -0.394 OA 
DOCKED: ATOM     26  H   UNL     1     140.762  72.174 224.199 +0.08 -0.02    +0.210 HD 
DOCKED: ENDBRANCH  24  25
DOCKED: ENDBRANCH  21  24
DOCKED: ENDBRANCH   1  19
DOCKED: TORSDOF 6
DOCKED: TER
DOCKED: ENDMDL
________________________________________________________________________________


    FINAL DOCKED STATE:
    ________________________


Run:   11 / 20
Time taken for this run:   0.026s

DOCKED: MODEL        11
DOCKED: USER    Run = 11
DOCKED: USER
DOCKED: USER    Estimated Free Energy of Binding    =  -6.67 kcal/mol  [=(1)+(2)+(3)-(4)]
DOCKED: USER
DOCKED: USER    (1) Final Intermolecular Energy     =  -8.46 kcal/mol
DOCKED: USER        vdW + Hbond + desolv Energy     =  -8.39 kcal/mol
DOCKED: USER        Electrostatic Energy            =  -0.08 kcal/mol
DOCKED: USER        Moving Ligand-Fixed Receptor    =  -8.46 kcal/mol
DOCKED: USER        Moving Ligand-Moving Receptor   =  +0.00 kcal/mol
DOCKED: USER    (2) Final Total Internal Energy     =  -1.79 kcal/mol
DOCKED: USER    (3) Torsional Free Energy           =  +1.79 kcal/mol
DOCKED: USER    (4) Unbound System's Energy         =  -1.79 kcal/mol
DOCKED: USER
DOCKED: USER
DOCKED: REMARK SMILES O=C(NCC(=O)N1CCC[C@H]1CO)c1ccc2cc(F)ccc2n1
DOCKED: REMARK SMILES IDX 5 1 6 2 4 3 3 4 2 5 1 6 14 8 15 9 24 10 16 11 23 12 17 13
DOCKED: REMARK SMILES IDX 22 14 18 15 21 16 19 17 20 18 7 19 8 20 11 21 9 22 10 23
DOCKED: REMARK SMILES IDX 12 24 13 25
DOCKED: REMARK H PARENT 3 7 13 26
DOCKED: USER                              x       y       z     vdW  Elec       q    Type
DOCKED: USER                           _______ _______ _______ _____ _____    ______ ____
DOCKED: ROOT
DOCKED: ATOM      1  C   UNL     1     140.671  74.746 221.224 -0.21 -0.05    +0.242 C  
DOCKED: ATOM      2  O   UNL     1     140.712  75.759 221.989 -0.44 +0.06    -0.273 OA 
DOCKED: ENDROOT
DOCKED: BRANCH   1   3
DOCKED: ATOM      3  C   UNL     1     139.509  73.834 221.151 -0.15 -0.04    +0.216 C  
DOCKED: BRANCH   3   4
DOCKED: ATOM      4  N   UNL     1     139.326  73.076 222.368 -0.11 +0.08    -0.342 N  
DOCKED: ATOM      5  C   UNL     1     140.252  72.006 222.610 -0.22 -0.03    +0.270 C  
DOCKED: ATOM      6  O   UNL     1     141.135  71.837 221.728 -0.18 +0.03    -0.268 OA 
DOCKED: ATOM      7  H   UNL     1     138.558  73.277 223.063 -0.50 -0.10    +0.164 HD 
DOCKED: BRANCH   5   8
DOCKED: ATOM      8  C   UNL     1     140.161  71.184 223.795 -0.33 -0.02    +0.128 A  
DOCKED: ATOM      9  C   UNL     1     139.526  69.964 223.692 -0.27 -0.01    +0.035 A  
DOCKED: ATOM     10  N   UNL     1     140.665  71.548 224.991 -0.33 +0.03    -0.243 NA 
DOCKED: ATOM     11  C   UNL     1     139.386  69.109 224.758 -0.37 -0.00    +0.013 A  
DOCKED: ATOM     12  C   UNL     1     140.558  70.749 226.072 -0.54 -0.01    +0.071 A  
DOCKED: ATOM     13  C   UNL     1     139.924  69.532 225.968 -0.48 -0.00    +0.003 A  
DOCKED: ATOM     14  C   UNL     1     141.089  71.161 227.280 -0.68 -0.01    +0.032 A  
DOCKED: ATOM     15  C   UNL     1     139.790  68.687 227.037 -0.56 -0.01    +0.049 A  
DOCKED: ATOM     16  C   UNL     1     140.946  70.299 228.346 -0.52 -0.01    +0.041 A  
DOCKED: ATOM     17  C   UNL     1     140.311  69.076 228.251 -0.54 -0.02    +0.123 A  
DOCKED: ATOM     18  F   UNL     1     140.186  68.255 229.302 -0.08 +0.04    -0.207 F  
DOCKED: ENDBRANCH   5   8
DOCKED: ENDBRANCH   3   4
DOCKED: ENDBRANCH   1   3
DOCKED: BRANCH   1  19
DOCKED: ATOM     19  N   UNL     1     141.785  74.462 220.396 -0.11 +0.09    -0.336 N  
DOCKED: ATOM     20  C   UNL     1     141.914  73.462 219.355 -0.09 -0.03    +0.120 C  
DOCKED: ATOM     21  C   UNL     1     143.085  75.147 220.421 -0.16 -0.06    +0.110 C  
DOCKED: ATOM     22  C   UNL     1     143.302  72.900 219.685 -0.23 -0.00    +0.024 C  
DOCKED: ATOM     23  C   UNL     1     144.078  74.193 219.821 -0.38 -0.01    +0.029 C  
DOCKED: BRANCH  21  24
DOCKED: ATOM     24  C   UNL     1     143.034  76.416 219.635 -0.28 -0.12    +0.181 C  
DOCKED: BRANCH  24  25
DOCKED: ATOM     25  O   UNL     1     142.327  77.395 220.342 -0.16 +0.29    -0.394 OA 
DOCKED: ATOM     26  H   UNL     1     142.205  77.136 221.292 -0.45 -0.18    +0.210 HD 
DOCKED: ENDBRANCH  24  25
DOCKED: ENDBRANCH  21  24
DOCKED: ENDBRANCH   1  19
DOCKED: TORSDOF 6
DOCKED: TER
DOCKED: ENDMDL
________________________________________________________________________________


    FINAL DOCKED STATE:
    ________________________


Run:   12 / 20
Time taken for this run:   0.026s

DOCKED: MODEL        12
DOCKED: USER    Run = 12
DOCKED: USER
DOCKED: USER    Estimated Free Energy of Binding    =  -6.43 kcal/mol  [=(1)+(2)+(3)-(4)]
DOCKED: USER
DOCKED: USER    (1) Final Intermolecular Energy     =  -8.22 kcal/mol
DOCKED: USER        vdW + Hbond + desolv Energy     =  -8.20 kcal/mol
DOCKED: USER        Electrostatic Energy            =  -0.02 kcal/mol
DOCKED: USER        Moving Ligand-Fixed Receptor    =  -8.22 kcal/mol
DOCKED: USER        Moving Ligand-Moving Receptor   =  +0.00 kcal/mol
DOCKED: USER    (2) Final Total Internal Energy     =  -1.76 kcal/mol
DOCKED: USER    (3) Torsional Free Energy           =  +1.79 kcal/mol
DOCKED: USER    (4) Unbound System's Energy         =  -1.76 kcal/mol
DOCKED: USER
DOCKED: USER
DOCKED: REMARK SMILES O=C(NCC(=O)N1CCC[C@H]1CO)c1ccc2cc(F)ccc2n1
DOCKED: REMARK SMILES IDX 5 1 6 2 4 3 3 4 2 5 1 6 14 8 15 9 24 10 16 11 23 12 17 13
DOCKED: REMARK SMILES IDX 22 14 18 15 21 16 19 17 20 18 7 19 8 20 11 21 9 22 10 23
DOCKED: REMARK SMILES IDX 12 24 13 25
DOCKED: REMARK H PARENT 3 7 13 26
DOCKED: USER                              x       y       z     vdW  Elec       q    Type
DOCKED: USER                           _______ _______ _______ _____ _____    ______ ____
DOCKED: ROOT
DOCKED: ATOM      1  C   UNL     1     139.342  68.592 225.274 -0.30 -0.03    +0.242 C  
DOCKED: ATOM      2  O   UNL     1     139.219  67.345 225.065 -0.87 -0.02    -0.273 OA 
DOCKED: ENDROOT
DOCKED: BRANCH   1   3
DOCKED: ATOM      3  C   UNL     1     138.705  69.621 224.424 -0.24 -0.03    +0.216 C  
DOCKED: BRANCH   3   4
DOCKED: ATOM      4  N   UNL     1     139.672  70.411 223.697 -0.13 +0.06    -0.342 N  
DOCKED: ATOM      5  C   UNL     1     139.198  71.630 223.104 -0.18 -0.07    +0.270 C  
DOCKED: ATOM      6  O   UNL     1     137.977  71.886 223.283 -0.14 +0.09    -0.268 OA 
DOCKED: ATOM      7  H   UNL     1     140.683  70.130 223.589 +0.07 -0.02    +0.164 HD 
DOCKED: BRANCH   5   8
DOCKED: ATOM      8  C   UNL     1     140.078  72.497 222.355 -0.27 -0.02    +0.128 A  
DOCKED: ATOM      9  C   UNL     1     141.132  71.922 221.676 -0.24 -0.00    +0.035 A  
DOCKED: ATOM     10  N   UNL     1     139.922  73.834 222.286 -0.78 +0.02    -0.243 NA 
DOCKED: ATOM     11  C   UNL     1     142.025  72.657 220.935 -0.25 -0.00    +0.013 A  
DOCKED: ATOM     12  C   UNL     1     140.767  74.605 221.574 -0.30 -0.01    +0.071 A  
DOCKED: ATOM     13  C   UNL     1     141.818  74.030 220.897 -0.28 -0.00    +0.003 A  
DOCKED: ATOM     14  C   UNL     1     140.571  75.973 221.531 -0.33 -0.01    +0.032 A  
DOCKED: ATOM     15  C   UNL     1     142.703  74.772 220.161 -0.30 -0.02    +0.049 A  
DOCKED: ATOM     16  C   UNL     1     141.470  76.705 220.785 -0.28 -0.02    +0.041 A  
DOCKED: ATOM     17  C   UNL     1     142.527  76.137 220.103 -0.26 -0.07    +0.123 A  
DOCKED: ATOM     18  F   UNL     1     143.388  76.870 219.385 -0.13 +0.16    -0.207 F  
DOCKED: ENDBRANCH   5   8
DOCKED: ENDBRANCH   3   4
DOCKED: ENDBRANCH   1   3
DOCKED: BRANCH   1  19
DOCKED: ATOM     19  N   UNL     1     140.125  69.033 226.369 -0.22 +0.06    -0.336 N  
DOCKED: ATOM     20  C   UNL     1     141.056  68.279 227.185 -0.55 -0.03    +0.120 C  
DOCKED: ATOM     21  C   UNL     1     140.157  70.394 226.924 -0.50 -0.02    +0.110 C  
DOCKED: ATOM     22  C   UNL     1     140.656  68.768 228.581 -0.59 -0.01    +0.024 C  
DOCKED: ATOM     23  C   UNL     1     140.646  70.262 228.338 -0.52 -0.01    +0.029 C  
DOCKED: BRANCH  21  24
DOCKED: ATOM     24  C   UNL     1     141.070  71.271 226.131 -0.52 -0.02    +0.181 C  
DOCKED: BRANCH  24  25
DOCKED: ATOM     25  O   UNL     1     141.917  70.494 225.333 -0.22 +0.04    -0.394 OA 
DOCKED: ATOM     26  H   UNL     1     141.465  69.664 225.031 +0.11 -0.04    +0.210 HD 
DOCKED: ENDBRANCH  24  25
DOCKED: ENDBRANCH  21  24
DOCKED: ENDBRANCH   1  19
DOCKED: TORSDOF 6
DOCKED: TER
DOCKED: ENDMDL
________________________________________________________________________________


    FINAL DOCKED STATE:
    ________________________


Run:   13 / 20
Time taken for this run:   0.026s

DOCKED: MODEL        13
DOCKED: USER    Run = 13
DOCKED: USER
DOCKED: USER    Estimated Free Energy of Binding    =  -5.69 kcal/mol  [=(1)+(2)+(3)-(4)]
DOCKED: USER
DOCKED: USER    (1) Final Intermolecular Energy     =  -7.48 kcal/mol
DOCKED: USER        vdW + Hbond + desolv Energy     =  -7.34 kcal/mol
DOCKED: USER        Electrostatic Energy            =  -0.13 kcal/mol
DOCKED: USER        Moving Ligand-Fixed Receptor    =  -7.48 kcal/mol
DOCKED: USER        Moving Ligand-Moving Receptor   =  +0.00 kcal/mol
DOCKED: USER    (2) Final Total Internal Energy     =  -2.67 kcal/mol
DOCKED: USER    (3) Torsional Free Energy           =  +1.79 kcal/mol
DOCKED: USER    (4) Unbound System's Energy         =  -2.67 kcal/mol
DOCKED: USER
DOCKED: USER
DOCKED: REMARK SMILES O=C(NCC(=O)N1CCC[C@H]1CO)c1ccc2cc(F)ccc2n1
DOCKED: REMARK SMILES IDX 5 1 6 2 4 3 3 4 2 5 1 6 14 8 15 9 24 10 16 11 23 12 17 13
DOCKED: REMARK SMILES IDX 22 14 18 15 21 16 19 17 20 18 7 19 8 20 11 21 9 22 10 23
DOCKED: REMARK SMILES IDX 12 24 13 25
DOCKED: REMARK H PARENT 3 7 13 26
DOCKED: USER                              x       y       z     vdW  Elec       q    Type
DOCKED: USER                           _______ _______ _______ _____ _____    ______ ____
DOCKED: ROOT
DOCKED: ATOM      1  C   UNL     1     137.793  73.676 220.603 -0.05 -0.05    +0.242 C  
DOCKED: ATOM      2  O   UNL     1     137.466  73.946 219.407 -0.01 +0.05    -0.273 OA 
DOCKED: ENDROOT
DOCKED: BRANCH   1   3
DOCKED: ATOM      3  C   UNL     1     136.977  72.823 221.493 -0.06 -0.05    +0.216 C  
DOCKED: BRANCH   3   4
DOCKED: ATOM      4  N   UNL     1     137.717  72.365 222.648 -0.05 +0.11    -0.342 N  
DOCKED: ATOM      5  C   UNL     1     137.745  70.948 222.878 -0.11 -0.06    +0.270 C  
DOCKED: ATOM      6  O   UNL     1     137.116  70.245 222.043 -0.04 +0.05    -0.268 OA 
DOCKED: ATOM      7  H   UNL     1     138.221  73.017 223.306 -0.46 -0.12    +0.164 HD 
DOCKED: BRANCH   5   8
DOCKED: ATOM      8  C   UNL     1     138.454  70.381 224.002 -0.24 -0.02    +0.128 A  
DOCKED: ATOM      9  C   UNL     1     138.444  69.010 224.151 -0.31 -0.00    +0.035 A  
DOCKED: ATOM     10  N   UNL     1     139.121  71.121 224.910 -0.20 +0.05    -0.243 NA 
DOCKED: ATOM     11  C   UNL     1     139.087  68.372 225.185 -0.43 -0.00    +0.013 A  
DOCKED: ATOM     12  C   UNL     1     139.770  70.550 225.944 -0.40 -0.01    +0.071 A  
DOCKED: ATOM     13  C   UNL     1     139.760  69.182 226.091 -0.50 -0.00    +0.003 A  
DOCKED: ATOM     14  C   UNL     1     140.442  71.347 226.851 -0.63 -0.01    +0.032 A  
DOCKED: ATOM     15  C   UNL     1     140.403  68.557 227.125 -0.61 -0.01    +0.049 A  
DOCKED: ATOM     16  C   UNL     1     141.085  70.702 227.886 -0.63 -0.01    +0.041 A  
DOCKED: ATOM     17  C   UNL     1     141.080  69.330 228.042 -0.49 -0.03    +0.123 A  
DOCKED: ATOM     18  F   UNL     1     141.713  68.726 229.056 -0.13 +0.05    -0.207 F  
DOCKED: ENDBRANCH   5   8
DOCKED: ENDBRANCH   3   4
DOCKED: ENDBRANCH   1   3
DOCKED: BRANCH   1  19
DOCKED: ATOM     19  N   UNL     1     138.996  74.213 221.126 -0.08 +0.07    -0.336 N  
DOCKED: ATOM     20  C   UNL     1     139.181  75.365 221.985 -0.26 -0.03    +0.120 C  
DOCKED: ATOM     21  C   UNL     1     140.352  73.695 220.896 -0.19 -0.02    +0.110 C  
DOCKED: ATOM     22  C   UNL     1     140.373  76.037 221.293 -0.30 -0.01    +0.024 C  
DOCKED: ATOM     23  C   UNL     1     141.291  74.841 221.144 -0.30 -0.01    +0.029 C  
DOCKED: BRANCH  21  24
DOCKED: ATOM     24  C   UNL     1     140.652  72.561 221.819 -0.23 -0.02    +0.181 C  
DOCKED: BRANCH  24  25
DOCKED: ATOM     25  O   UNL     1     140.423  72.942 223.146 -0.37 -0.01    -0.394 OA 
DOCKED: ATOM     26  H   UNL     1     139.527  72.646 223.455 -0.27 -0.07    +0.210 HD 
DOCKED: ENDBRANCH  24  25
DOCKED: ENDBRANCH  21  24
DOCKED: ENDBRANCH   1  19
DOCKED: TORSDOF 6
DOCKED: TER
DOCKED: ENDMDL
________________________________________________________________________________


    FINAL DOCKED STATE:
    ________________________


Run:   14 / 20
Time taken for this run:   0.026s

DOCKED: MODEL        14
DOCKED: USER    Run = 14
DOCKED: USER
DOCKED: USER    Estimated Free Energy of Binding    =  -6.00 kcal/mol  [=(1)+(2)+(3)-(4)]
DOCKED: USER
DOCKED: USER    (1) Final Intermolecular Energy     =  -7.79 kcal/mol
DOCKED: USER        vdW + Hbond + desolv Energy     =  -7.57 kcal/mol
DOCKED: USER        Electrostatic Energy            =  -0.21 kcal/mol
DOCKED: USER        Moving Ligand-Fixed Receptor    =  -7.79 kcal/mol
DOCKED: USER        Moving Ligand-Moving Receptor   =  +0.00 kcal/mol
DOCKED: USER    (2) Final Total Internal Energy     =  -2.11 kcal/mol
DOCKED: USER    (3) Torsional Free Energy           =  +1.79 kcal/mol
DOCKED: USER    (4) Unbound System's Energy         =  -2.11 kcal/mol
DOCKED: USER
DOCKED: USER
DOCKED: REMARK SMILES O=C(NCC(=O)N1CCC[C@H]1CO)c1ccc2cc(F)ccc2n1
DOCKED: REMARK SMILES IDX 5 1 6 2 4 3 3 4 2 5 1 6 14 8 15 9 24 10 16 11 23 12 17 13
DOCKED: REMARK SMILES IDX 22 14 18 15 21 16 19 17 20 18 7 19 8 20 11 21 9 22 10 23
DOCKED: REMARK SMILES IDX 12 24 13 25
DOCKED: REMARK H PARENT 3 7 13 26
DOCKED: USER                              x       y       z     vdW  Elec       q    Type
DOCKED: USER                           _______ _______ _______ _____ _____    ______ ____
DOCKED: ROOT
DOCKED: ATOM      1  C   UNL     1     139.433  78.779 223.029 -0.23 -0.04    +0.242 C  
DOCKED: ATOM      2  O   UNL     1     138.601  79.531 223.624 -0.24 +0.04    -0.273 OA 
DOCKED: ENDROOT
DOCKED: BRANCH   1   3
DOCKED: ATOM      3  C   UNL     1     139.073  77.461 222.463 -0.21 -0.04    +0.216 C  
DOCKED: BRANCH   3   4
DOCKED: ATOM      4  N   UNL     1     140.232  76.703 222.049 -0.19 +0.09    -0.342 N  
DOCKED: ATOM      5  C   UNL     1     140.076  75.278 221.961 -0.18 -0.04    +0.270 C  
DOCKED: ATOM      6  O   UNL     1     138.935  74.834 222.256 -0.40 +0.07    -0.268 OA 
DOCKED: ATOM      7  H   UNL     1     141.160  77.148 221.817 -0.03 -0.08    +0.164 HD 
DOCKED: BRANCH   5   8
DOCKED: ATOM      8  C   UNL     1     141.169  74.424 221.557 -0.23 -0.02    +0.128 A  
DOCKED: ATOM      9  C   UNL     1     140.961  73.061 221.554 -0.28 -0.00    +0.035 A  
DOCKED: ATOM     10  N   UNL     1     142.378  74.890 221.186 -0.07 +0.09    -0.243 NA 
DOCKED: ATOM     11  C   UNL     1     141.934  72.163 221.188 -0.24 -0.00    +0.013 A  
DOCKED: ATOM     12  C   UNL     1     143.371  74.057 220.816 -0.26 -0.02    +0.071 A  
DOCKED: ATOM     13  C   UNL     1     143.161  72.697 220.813 -0.29 -0.00    +0.003 A  
DOCKED: ATOM     14  C   UNL     1     144.596  74.578 220.443 -0.45 -0.01    +0.032 A  
DOCKED: ATOM     15  C   UNL     1     144.138  71.811 220.447 -0.29 -0.01    +0.049 A  
DOCKED: ATOM     16  C   UNL     1     145.568  73.672 220.076 -0.51 -0.00    +0.041 A  
DOCKED: ATOM     17  C   UNL     1     145.367  72.306 220.070 -0.35 +0.02    +0.123 A  
DOCKED: ATOM     18  F   UNL     1     146.329  71.446 219.709 -0.09 -0.18    -0.207 F  
DOCKED: ENDBRANCH   5   8
DOCKED: ENDBRANCH   3   4
DOCKED: ENDBRANCH   1   3
DOCKED: BRANCH   1  19
DOCKED: ATOM     19  N   UNL     1     140.776  79.210 222.892 -0.19 +0.09    -0.336 N  
DOCKED: ATOM     20  C   UNL     1     141.919  78.907 223.731 -0.49 -0.04    +0.120 C  
DOCKED: ATOM     21  C   UNL     1     141.307  80.084 221.837 -0.35 -0.04    +0.110 C  
DOCKED: ATOM     22  C   UNL     1     142.550  80.298 223.848 -0.65 -0.01    +0.024 C  
DOCKED: ATOM     23  C   UNL     1     142.560  80.701 222.389 -0.52 -0.01    +0.029 C  
DOCKED: BRANCH  21  24
DOCKED: ATOM     24  C   UNL     1     141.606  79.303 220.599 -0.23 -0.09    +0.181 C  
DOCKED: BRANCH  24  25
DOCKED: ATOM     25  O   UNL     1     142.190  78.076 220.931 -0.15 +0.30    -0.394 OA 
DOCKED: ATOM     26  H   UNL     1     143.126  78.194 221.238 -0.45 -0.27    +0.210 HD 
DOCKED: ENDBRANCH  24  25
DOCKED: ENDBRANCH  21  24
DOCKED: ENDBRANCH   1  19
DOCKED: TORSDOF 6
DOCKED: TER
DOCKED: ENDMDL
________________________________________________________________________________


    FINAL DOCKED STATE:
    ________________________


Run:   15 / 20
Time taken for this run:   0.026s

DOCKED: MODEL        15
DOCKED: USER    Run = 15
DOCKED: USER
DOCKED: USER    Estimated Free Energy of Binding    =  -6.38 kcal/mol  [=(1)+(2)+(3)-(4)]
DOCKED: USER
DOCKED: USER    (1) Final Intermolecular Energy     =  -8.17 kcal/mol
DOCKED: USER        vdW + Hbond + desolv Energy     =  -8.06 kcal/mol
DOCKED: USER        Electrostatic Energy            =  -0.11 kcal/mol
DOCKED: USER        Moving Ligand-Fixed Receptor    =  -8.17 kcal/mol
DOCKED: USER        Moving Ligand-Moving Receptor   =  +0.00 kcal/mol
DOCKED: USER    (2) Final Total Internal Energy     =  -1.82 kcal/mol
DOCKED: USER    (3) Torsional Free Energy           =  +1.79 kcal/mol
DOCKED: USER    (4) Unbound System's Energy         =  -1.82 kcal/mol
DOCKED: USER
DOCKED: USER
DOCKED: REMARK SMILES O=C(NCC(=O)N1CCC[C@H]1CO)c1ccc2cc(F)ccc2n1
DOCKED: REMARK SMILES IDX 5 1 6 2 4 3 3 4 2 5 1 6 14 8 15 9 24 10 16 11 23 12 17 13
DOCKED: REMARK SMILES IDX 22 14 18 15 21 16 19 17 20 18 7 19 8 20 11 21 9 22 10 23
DOCKED: REMARK SMILES IDX 12 24 13 25
DOCKED: REMARK H PARENT 3 7 13 26
DOCKED: USER                              x       y       z     vdW  Elec       q    Type
DOCKED: USER                           _______ _______ _______ _____ _____    ______ ____
DOCKED: ROOT
DOCKED: ATOM      1  C   UNL     1     140.723  75.521 221.398 -0.24 -0.06    +0.242 C  
DOCKED: ATOM      2  O   UNL     1     140.555  76.252 222.422 -0.37 +0.06    -0.273 OA 
DOCKED: ENDROOT
DOCKED: BRANCH   1   3
DOCKED: ATOM      3  C   UNL     1     139.918  74.312 221.124 -0.18 -0.04    +0.216 C  
DOCKED: BRANCH   3   4
DOCKED: ATOM      4  N   UNL     1     139.660  73.539 222.318 -0.13 +0.05    -0.342 N  
DOCKED: ATOM      5  C   UNL     1     140.475  72.375 222.524 -0.19 -0.02    +0.270 C  
DOCKED: ATOM      6  O   UNL     1     141.338  72.147 221.634 -0.19 +0.02    -0.268 OA 
DOCKED: ATOM      7  H   UNL     1     138.916  73.794 223.021 -0.54 -0.09    +0.164 HD 
DOCKED: BRANCH   5   8
DOCKED: ATOM      8  C   UNL     1     140.304  71.530 223.683 -0.34 -0.02    +0.128 A  
DOCKED: ATOM      9  C   UNL     1     139.663  70.321 223.517 -0.28 -0.01    +0.035 A  
DOCKED: ATOM     10  N   UNL     1     140.738  71.863 224.916 -0.27 +0.03    -0.243 NA 
DOCKED: ATOM     11  C   UNL     1     139.450  69.445 224.554 -0.35 -0.00    +0.013 A  
DOCKED: ATOM     12  C   UNL     1     140.558  71.043 225.970 -0.55 -0.01    +0.071 A  
DOCKED: ATOM     13  C   UNL     1     139.918  69.837 225.802 -0.47 -0.00    +0.003 A  
DOCKED: ATOM     14  C   UNL     1     141.019  71.424 227.217 -0.73 -0.01    +0.032 A  
DOCKED: ATOM     15  C   UNL     1     139.710  68.972 226.843 -0.53 -0.01    +0.049 A  
DOCKED: ATOM     16  C   UNL     1     140.802  70.542 228.254 -0.56 -0.01    +0.041 A  
DOCKED: ATOM     17  C   UNL     1     140.161  69.330 228.094 -0.53 -0.02    +0.123 A  
DOCKED: ATOM     18  F   UNL     1     139.963  68.488 229.118 -0.13 +0.04    -0.207 F  
DOCKED: ENDBRANCH   5   8
DOCKED: ENDBRANCH   3   4
DOCKED: ENDBRANCH   1   3
DOCKED: BRANCH   1  19
DOCKED: ATOM     19  N   UNL     1     141.730  75.868 220.463 -0.13 +0.15    -0.336 N  
DOCKED: ATOM     20  C   UNL     1     142.193  77.184 220.070 -0.27 -0.08    +0.120 C  
DOCKED: ATOM     21  C   UNL     1     142.541  74.934 219.670 -0.23 -0.04    +0.110 C  
DOCKED: ATOM     22  C   UNL     1     142.263  77.008 218.549 -0.27 -0.01    +0.024 C  
DOCKED: ATOM     23  C   UNL     1     143.028  75.703 218.476 -0.26 -0.01    +0.029 C  
DOCKED: BRANCH  21  24
DOCKED: ATOM     24  C   UNL     1     143.693  74.419 220.469 -0.28 -0.07    +0.181 C  
DOCKED: BRANCH  24  25
DOCKED: ATOM     25  O   UNL     1     143.609  73.028 220.599 -0.15 +0.07    -0.394 OA 
DOCKED: ATOM     26  H   UNL     1     142.724  72.752 220.951 +0.09 -0.03    +0.210 HD 
DOCKED: ENDBRANCH  24  25
DOCKED: ENDBRANCH  21  24
DOCKED: ENDBRANCH   1  19
DOCKED: TORSDOF 6
DOCKED: TER
DOCKED: ENDMDL
________________________________________________________________________________


    FINAL DOCKED STATE:
    ________________________


Run:   16 / 20
Time taken for this run:   0.026s

DOCKED: MODEL        16
DOCKED: USER    Run = 16
DOCKED: USER
DOCKED: USER    Estimated Free Energy of Binding    =  -6.97 kcal/mol  [=(1)+(2)+(3)-(4)]
DOCKED: USER
DOCKED: USER    (1) Final Intermolecular Energy     =  -8.76 kcal/mol
DOCKED: USER        vdW + Hbond + desolv Energy     =  -8.72 kcal/mol
DOCKED: USER        Electrostatic Energy            =  -0.04 kcal/mol
DOCKED: USER        Moving Ligand-Fixed Receptor    =  -8.76 kcal/mol
DOCKED: USER        Moving Ligand-Moving Receptor   =  +0.00 kcal/mol
DOCKED: USER    (2) Final Total Internal Energy     =  -1.58 kcal/mol
DOCKED: USER    (3) Torsional Free Energy           =  +1.79 kcal/mol
DOCKED: USER    (4) Unbound System's Energy         =  -1.58 kcal/mol
DOCKED: USER
DOCKED: USER
DOCKED: REMARK SMILES O=C(NCC(=O)N1CCC[C@H]1CO)c1ccc2cc(F)ccc2n1
DOCKED: REMARK SMILES IDX 5 1 6 2 4 3 3 4 2 5 1 6 14 8 15 9 24 10 16 11 23 12 17 13
DOCKED: REMARK SMILES IDX 22 14 18 15 21 16 19 17 20 18 7 19 8 20 11 21 9 22 10 23
DOCKED: REMARK SMILES IDX 12 24 13 25
DOCKED: REMARK H PARENT 3 7 13 26
DOCKED: USER                              x       y       z     vdW  Elec       q    Type
DOCKED: USER                           _______ _______ _______ _____ _____    ______ ____
DOCKED: ROOT
DOCKED: ATOM      1  C   UNL     1     141.073  75.220 221.140 -0.22 -0.07    +0.242 C  
DOCKED: ATOM      2  O   UNL     1     142.254  74.801 220.939 -0.23 +0.10    -0.273 OA 
DOCKED: ENDROOT
DOCKED: BRANCH   1   3
DOCKED: ATOM      3  C   UNL     1     139.882  74.347 221.073 -0.17 -0.04    +0.216 C  
DOCKED: BRANCH   3   4
DOCKED: ATOM      4  N   UNL     1     139.675  73.600 222.293 -0.13 +0.05    -0.342 N  
DOCKED: ATOM      5  C   UNL     1     140.358  72.342 222.406 -0.21 -0.03    +0.270 C  
DOCKED: ATOM      6  O   UNL     1     141.073  72.018 221.420 -0.16 +0.03    -0.268 OA 
DOCKED: ATOM      7  H   UNL     1     139.059  73.938 223.079 -0.54 -0.08    +0.164 HD 
DOCKED: BRANCH   5   8
DOCKED: ATOM      8  C   UNL     1     140.224  71.514 223.581 -0.33 -0.02    +0.128 A  
DOCKED: ATOM      9  C   UNL     1     139.572  70.306 223.454 -0.28 -0.01    +0.035 A  
DOCKED: ATOM     10  N   UNL     1     140.702  71.862 224.793 -0.28 +0.03    -0.243 NA 
DOCKED: ATOM     11  C   UNL     1     139.392  69.445 224.510 -0.34 -0.00    +0.013 A  
DOCKED: ATOM     12  C   UNL     1     140.554  71.057 225.865 -0.54 -0.01    +0.071 A  
DOCKED: ATOM     13  C   UNL     1     139.904  69.852 225.736 -0.47 -0.00    +0.003 A  
DOCKED: ATOM     14  C   UNL     1     141.060  71.453 227.089 -0.72 -0.01    +0.032 A  
DOCKED: ATOM     15  C   UNL     1     139.729  69.002 226.795 -0.52 -0.01    +0.049 A  
DOCKED: ATOM     16  C   UNL     1     140.876  70.586 228.145 -0.59 -0.01    +0.041 A  
DOCKED: ATOM     17  C   UNL     1     140.224  69.374 228.025 -0.53 -0.02    +0.123 A  
DOCKED: ATOM     18  F   UNL     1     140.058  68.548 229.067 -0.15 +0.04    -0.207 F  
DOCKED: ENDBRANCH   5   8
DOCKED: ENDBRANCH   3   4
DOCKED: ENDBRANCH   1   3
DOCKED: BRANCH   1  19
DOCKED: ATOM     19  N   UNL     1     140.871  76.589 221.444 -0.16 +0.13    -0.336 N  
DOCKED: ATOM     20  C   UNL     1     141.260  77.758 220.681 -0.25 -0.06    +0.120 C  
DOCKED: ATOM     21  C   UNL     1     140.202  77.126 222.638 -0.24 -0.03    +0.110 C  
DOCKED: ATOM     22  C   UNL     1     141.828  78.640 221.799 -0.41 -0.01    +0.024 C  
DOCKED: ATOM     23  C   UNL     1     140.705  78.531 222.809 -0.45 -0.01    +0.029 C  
DOCKED: BRANCH  21  24
DOCKED: ATOM     24  C   UNL     1     138.718  77.116 222.467 -0.22 -0.03    +0.181 C  
DOCKED: BRANCH  24  25
DOCKED: ATOM     25  O   UNL     1     138.184  75.914 222.944 -0.16 +0.11    -0.394 OA 
DOCKED: ATOM     26  H   UNL     1     138.837  75.431 223.515 -0.41 -0.08    +0.210 HD 
DOCKED: ENDBRANCH  24  25
DOCKED: ENDBRANCH  21  24
DOCKED: ENDBRANCH   1  19
DOCKED: TORSDOF 6
DOCKED: TER
DOCKED: ENDMDL
________________________________________________________________________________


    FINAL DOCKED STATE:
    ________________________


Run:   17 / 20
Time taken for this run:   0.026s

DOCKED: MODEL        17
DOCKED: USER    Run = 17
DOCKED: USER
DOCKED: USER    Estimated Free Energy of Binding    =  -6.51 kcal/mol  [=(1)+(2)+(3)-(4)]
DOCKED: USER
DOCKED: USER    (1) Final Intermolecular Energy     =  -8.30 kcal/mol
DOCKED: USER        vdW + Hbond + desolv Energy     =  -8.27 kcal/mol
DOCKED: USER        Electrostatic Energy            =  -0.03 kcal/mol
DOCKED: USER        Moving Ligand-Fixed Receptor    =  -8.30 kcal/mol
DOCKED: USER        Moving Ligand-Moving Receptor   =  +0.00 kcal/mol
DOCKED: USER    (2) Final Total Internal Energy     =  -1.79 kcal/mol
DOCKED: USER    (3) Torsional Free Energy           =  +1.79 kcal/mol
DOCKED: USER    (4) Unbound System's Energy         =  -1.79 kcal/mol
DOCKED: USER
DOCKED: USER
DOCKED: REMARK SMILES O=C(NCC(=O)N1CCC[C@H]1CO)c1ccc2cc(F)ccc2n1
DOCKED: REMARK SMILES IDX 5 1 6 2 4 3 3 4 2 5 1 6 14 8 15 9 24 10 16 11 23 12 17 13
DOCKED: REMARK SMILES IDX 22 14 18 15 21 16 19 17 20 18 7 19 8 20 11 21 9 22 10 23
DOCKED: REMARK SMILES IDX 12 24 13 25
DOCKED: REMARK H PARENT 3 7 13 26
DOCKED: USER                              x       y       z     vdW  Elec       q    Type
DOCKED: USER                           _______ _______ _______ _____ _____    ______ ____
DOCKED: ROOT
DOCKED: ATOM      1  C   UNL     1     140.915  74.466 221.113 -0.20 -0.05    +0.242 C  
DOCKED: ATOM      2  O   UNL     1     140.837  75.658 221.541 -0.31 +0.07    -0.273 OA 
DOCKED: ENDROOT
DOCKED: BRANCH   1   3
DOCKED: ATOM      3  C   UNL     1     139.843  73.465 221.304 -0.17 -0.04    +0.216 C  
DOCKED: BRANCH   3   4
DOCKED: ATOM      4  N   UNL     1     139.805  72.949 222.653 -0.12 +0.05    -0.342 N  
DOCKED: ATOM      5  C   UNL     1     140.497  71.714 222.895 -0.20 -0.03    +0.270 C  
DOCKED: ATOM      6  O   UNL     1     141.070  71.204 221.896 -0.10 +0.03    -0.268 OA 
DOCKED: ATOM      7  H   UNL     1     139.301  73.435 223.443 -0.45 -0.09    +0.164 HD 
DOCKED: BRANCH   5   8
DOCKED: ATOM      8  C   UNL     1     140.523  71.109 224.206 -0.35 -0.02    +0.128 A  
DOCKED: ATOM      9  C   UNL     1     140.998  71.861 225.260 -0.32 -0.00    +0.035 A  
DOCKED: ATOM     10  N   UNL     1     140.109  69.850 224.451 -0.15 +0.04    -0.243 NA 
DOCKED: ATOM     11  C   UNL     1     141.065  71.379 226.545 -0.69 -0.00    +0.013 A  
DOCKED: ATOM     12  C   UNL     1     140.151  69.324 225.692 -0.42 -0.01    +0.071 A  
DOCKED: ATOM     13  C   UNL     1     140.625  70.076 226.742 -0.57 -0.00    +0.003 A  
DOCKED: ATOM     14  C   UNL     1     139.715  68.028 225.898 -0.56 -0.00    +0.032 A  
DOCKED: ATOM     15  C   UNL     1     140.687  69.585 228.018 -0.58 -0.01    +0.049 A  
DOCKED: ATOM     16  C   UNL     1     139.785  67.549 227.189 -0.42 -0.01    +0.041 A  
DOCKED: ATOM     17  C   UNL     1     140.259  68.297 228.249 -0.50 -0.03    +0.123 A  
DOCKED: ATOM     18  F   UNL     1     140.316  67.809 229.496 -0.05 +0.05    -0.207 F  
DOCKED: ENDBRANCH   5   8
DOCKED: ENDBRANCH   3   4
DOCKED: ENDBRANCH   1   3
DOCKED: BRANCH   1  19
DOCKED: ATOM     19  N   UNL     1     142.080  74.059 220.416 -0.11 +0.08    -0.336 N  
DOCKED: ATOM     20  C   UNL     1     142.269  72.912 219.550 -0.12 -0.02    +0.120 C  
DOCKED: ATOM     21  C   UNL     1     143.383  74.738 220.428 -0.27 -0.05    +0.110 C  
DOCKED: ATOM     22  C   UNL     1     143.624  72.405 220.056 -0.28 -0.00    +0.024 C  
DOCKED: ATOM     23  C   UNL     1     144.404  73.703 220.049 -0.42 -0.01    +0.029 C  
DOCKED: BRANCH  21  24
DOCKED: ATOM     24  C   UNL     1     143.401  75.874 219.459 -0.29 -0.11    +0.181 C  
DOCKED: BRANCH  24  25
DOCKED: ATOM     25  O   UNL     1     142.838  77.016 220.040 -0.20 +0.31    -0.394 OA 
DOCKED: ATOM     26  H   UNL     1     142.558  76.842 220.976 -0.41 -0.19    +0.210 HD 
DOCKED: ENDBRANCH  24  25
DOCKED: ENDBRANCH  21  24
DOCKED: ENDBRANCH   1  19
DOCKED: TORSDOF 6
DOCKED: TER
DOCKED: ENDMDL
________________________________________________________________________________


    FINAL DOCKED STATE:
    ________________________


Run:   18 / 20
Time taken for this run:   0.026s

DOCKED: MODEL        18
DOCKED: USER    Run = 18
DOCKED: USER
DOCKED: USER    Estimated Free Energy of Binding    =  -6.73 kcal/mol  [=(1)+(2)+(3)-(4)]
DOCKED: USER
DOCKED: USER    (1) Final Intermolecular Energy     =  -8.52 kcal/mol
DOCKED: USER        vdW + Hbond + desolv Energy     =  -8.43 kcal/mol
DOCKED: USER        Electrostatic Energy            =  -0.08 kcal/mol
DOCKED: USER        Moving Ligand-Fixed Receptor    =  -8.52 kcal/mol
DOCKED: USER        Moving Ligand-Moving Receptor   =  +0.00 kcal/mol
DOCKED: USER    (2) Final Total Internal Energy     =  -1.78 kcal/mol
DOCKED: USER    (3) Torsional Free Energy           =  +1.79 kcal/mol
DOCKED: USER    (4) Unbound System's Energy         =  -1.78 kcal/mol
DOCKED: USER
DOCKED: USER
DOCKED: REMARK SMILES O=C(NCC(=O)N1CCC[C@H]1CO)c1ccc2cc(F)ccc2n1
DOCKED: REMARK SMILES IDX 5 1 6 2 4 3 3 4 2 5 1 6 14 8 15 9 24 10 16 11 23 12 17 13
DOCKED: REMARK SMILES IDX 22 14 18 15 21 16 19 17 20 18 7 19 8 20 11 21 9 22 10 23
DOCKED: REMARK SMILES IDX 12 24 13 25
DOCKED: REMARK H PARENT 3 7 13 26
DOCKED: USER                              x       y       z     vdW  Elec       q    Type
DOCKED: USER                           _______ _______ _______ _____ _____    ______ ____
DOCKED: ROOT
DOCKED: ATOM      1  C   UNL     1     140.985  74.876 221.146 -0.21 -0.05    +0.242 C  
DOCKED: ATOM      2  O   UNL     1     141.221  75.814 221.968 -0.37 +0.09    -0.273 OA 
DOCKED: ENDROOT
DOCKED: BRANCH   1   3
DOCKED: ATOM      3  C   UNL     1     139.712  74.124 221.120 -0.16 -0.04    +0.216 C  
DOCKED: BRANCH   3   4
DOCKED: ATOM      4  N   UNL     1     139.488  73.376 222.337 -0.13 +0.07    -0.342 N  
DOCKED: ATOM      5  C   UNL     1     140.354  72.256 222.577 -0.21 -0.03    +0.270 C  
DOCKED: ATOM      6  O   UNL     1     141.227  72.040 221.693 -0.19 +0.02    -0.268 OA 
DOCKED: ATOM      7  H   UNL     1     138.734  73.618 223.033 -0.53 -0.10    +0.164 HD 
DOCKED: BRANCH   5   8
DOCKED: ATOM      8  C   UNL     1     140.221  71.439 223.760 -0.34 -0.02    +0.128 A  
DOCKED: ATOM      9  C   UNL     1     139.571  70.228 223.644 -0.29 -0.01    +0.035 A  
DOCKED: ATOM     10  N   UNL     1     140.697  71.799 224.969 -0.30 +0.03    -0.243 NA 
DOCKED: ATOM     11  C   UNL     1     139.391  69.378 224.708 -0.36 -0.00    +0.013 A  
DOCKED: ATOM     12  C   UNL     1     140.550  71.005 226.048 -0.55 -0.01    +0.071 A  
DOCKED: ATOM     13  C   UNL     1     139.902  69.797 225.931 -0.48 -0.00    +0.003 A  
DOCKED: ATOM     14  C   UNL     1     141.054  71.413 227.269 -0.73 -0.01    +0.032 A  
DOCKED: ATOM     15  C   UNL     1     139.728  68.957 226.997 -0.54 -0.01    +0.049 A  
DOCKED: ATOM     16  C   UNL     1     140.871  70.556 228.333 -0.55 -0.01    +0.041 A  
DOCKED: ATOM     17  C   UNL     1     140.221  69.343 228.224 -0.52 -0.02    +0.123 A  
DOCKED: ATOM     18  F   UNL     1     140.056  68.526 229.274 -0.08 +0.04    -0.207 F  
DOCKED: ENDBRANCH   5   8
DOCKED: ENDBRANCH   3   4
DOCKED: ENDBRANCH   1   3
DOCKED: BRANCH   1  19
DOCKED: ATOM     19  N   UNL     1     141.979  74.520 220.202 -0.10 +0.10    -0.336 N  
DOCKED: ATOM     20  C   UNL     1     141.908  73.553 219.125 -0.08 -0.03    +0.120 C  
DOCKED: ATOM     21  C   UNL     1     143.337  75.078 220.115 -0.31 -0.05    +0.110 C  
DOCKED: ATOM     22  C   UNL     1     143.260  72.850 219.297 -0.18 -0.00    +0.024 C  
DOCKED: ATOM     23  C   UNL     1     144.168  74.058 219.391 -0.32 -0.01    +0.029 C  
DOCKED: BRANCH  21  24
DOCKED: ATOM     24  C   UNL     1     143.333  76.375 219.376 -0.31 -0.12    +0.181 C  
DOCKED: BRANCH  24  25
DOCKED: ATOM     25  O   UNL     1     142.573  77.325 220.067 -0.19 +0.30    -0.394 OA 
DOCKED: ATOM     26  H   UNL     1     142.599  77.164 221.045 -0.41 -0.21    +0.210 HD 
DOCKED: ENDBRANCH  24  25
DOCKED: ENDBRANCH  21  24
DOCKED: ENDBRANCH   1  19
DOCKED: TORSDOF 6
DOCKED: TER
DOCKED: ENDMDL
________________________________________________________________________________


    FINAL DOCKED STATE:
    ________________________


Run:   19 / 20
Time taken for this run:   0.026s

DOCKED: MODEL        19
DOCKED: USER    Run = 19
DOCKED: USER
DOCKED: USER    Estimated Free Energy of Binding    =  -5.73 kcal/mol  [=(1)+(2)+(3)-(4)]
DOCKED: USER
DOCKED: USER    (1) Final Intermolecular Energy     =  -7.52 kcal/mol
DOCKED: USER        vdW + Hbond + desolv Energy     =  -7.48 kcal/mol
DOCKED: USER        Electrostatic Energy            =  -0.04 kcal/mol
DOCKED: USER        Moving Ligand-Fixed Receptor    =  -7.52 kcal/mol
DOCKED: USER        Moving Ligand-Moving Receptor   =  +0.00 kcal/mol
DOCKED: USER    (2) Final Total Internal Energy     =  -2.36 kcal/mol
DOCKED: USER    (3) Torsional Free Energy           =  +1.79 kcal/mol
DOCKED: USER    (4) Unbound System's Energy         =  -2.36 kcal/mol
DOCKED: USER
DOCKED: USER
DOCKED: REMARK SMILES O=C(NCC(=O)N1CCC[C@H]1CO)c1ccc2cc(F)ccc2n1
DOCKED: REMARK SMILES IDX 5 1 6 2 4 3 3 4 2 5 1 6 14 8 15 9 24 10 16 11 23 12 17 13
DOCKED: REMARK SMILES IDX 22 14 18 15 21 16 19 17 20 18 7 19 8 20 11 21 9 22 10 23
DOCKED: REMARK SMILES IDX 12 24 13 25
DOCKED: REMARK H PARENT 3 7 13 26
DOCKED: USER                              x       y       z     vdW  Elec       q    Type
DOCKED: USER                           _______ _______ _______ _____ _____    ______ ____
DOCKED: ROOT
DOCKED: ATOM      1  C   UNL     1     138.568  73.287 220.985 -0.08 -0.05    +0.242 C  
DOCKED: ATOM      2  O   UNL     1     137.541  73.578 221.672 -0.09 +0.07    -0.273 OA 
DOCKED: ENDROOT
DOCKED: BRANCH   1   3
DOCKED: ATOM      3  C   UNL     1     139.036  71.900 220.776 -0.06 -0.04    +0.216 C  
DOCKED: BRANCH   3   4
DOCKED: ATOM      4  N   UNL     1     139.184  71.175 222.017 -0.07 +0.06    -0.342 N  
DOCKED: ATOM      5  C   UNL     1     140.030  71.767 223.016 -0.23 -0.04    +0.270 C  
DOCKED: ATOM      6  O   UNL     1     140.559  72.867 222.702 -0.62 +0.00    -0.268 OA 
DOCKED: ATOM      7  H   UNL     1     138.707  70.254 222.209 +0.05 -0.03    +0.164 HD 
DOCKED: BRANCH   5   8
DOCKED: ATOM      8  C   UNL     1     140.249  71.129 224.293 -0.38 -0.02    +0.128 A  
DOCKED: ATOM      9  C   UNL     1     140.761  71.892 225.321 -0.39 -0.00    +0.035 A  
DOCKED: ATOM     10  N   UNL     1     139.980  69.829 224.530 -0.18 +0.04    -0.243 NA 
DOCKED: ATOM     11  C   UNL     1     141.006  71.381 226.573 -0.69 -0.00    +0.013 A  
DOCKED: ATOM     12  C   UNL     1     140.200  69.274 225.738 -0.43 -0.01    +0.071 A  
DOCKED: ATOM     13  C   UNL     1     140.710  70.037 226.763 -0.57 -0.00    +0.003 A  
DOCKED: ATOM     14  C   UNL     1     139.910  67.937 225.937 -0.57 -0.00    +0.032 A  
DOCKED: ATOM     15  C   UNL     1     140.951  69.518 228.007 -0.57 -0.01    +0.049 A  
DOCKED: ATOM     16  C   UNL     1     140.158  67.430 227.195 -0.34 -0.01    +0.041 A  
DOCKED: ATOM     17  C   UNL     1     140.670  68.188 228.229 -0.54 -0.03    +0.123 A  
DOCKED: ATOM     18  F   UNL     1     140.902  67.672 229.444 -0.11 +0.06    -0.207 F  
DOCKED: ENDBRANCH   5   8
DOCKED: ENDBRANCH   3   4
DOCKED: ENDBRANCH   1   3
DOCKED: BRANCH   1  19
DOCKED: ATOM     19  N   UNL     1     139.313  74.332 220.384 -0.03 +0.07    -0.336 N  
DOCKED: ATOM     20  C   UNL     1     139.045  75.049 219.153 -0.03 -0.03    +0.120 C  
DOCKED: ATOM     21  C   UNL     1     140.555  74.925 220.901 -0.22 -0.03    +0.110 C  
DOCKED: ATOM     22  C   UNL     1     140.447  75.063 218.533 -0.05 -0.01    +0.024 C  
DOCKED: ATOM     23  C   UNL     1     141.251  75.543 219.722 -0.17 -0.01    +0.029 C  
DOCKED: BRANCH  21  24
DOCKED: ATOM     24  C   UNL     1     140.260  75.956 221.939 -0.29 -0.04    +0.181 C  
DOCKED: BRANCH  24  25
DOCKED: ATOM     25  O   UNL     1     139.230  75.518 222.779 -0.35 +0.08    -0.394 OA 
DOCKED: ATOM     26  H   UNL     1     139.159  74.529 222.775 -0.47 -0.06    +0.210 HD 
DOCKED: ENDBRANCH  24  25
DOCKED: ENDBRANCH  21  24
DOCKED: ENDBRANCH   1  19
DOCKED: TORSDOF 6
DOCKED: TER
DOCKED: ENDMDL
________________________________________________________________________________


    FINAL DOCKED STATE:
    ________________________


Run:   20 / 20
Time taken for this run:   0.026s

DOCKED: MODEL        20
DOCKED: USER    Run = 20
DOCKED: USER
DOCKED: USER    Estimated Free Energy of Binding    =  -6.51 kcal/mol  [=(1)+(2)+(3)-(4)]
DOCKED: USER
DOCKED: USER    (1) Final Intermolecular Energy     =  -8.30 kcal/mol
DOCKED: USER        vdW + Hbond + desolv Energy     =  -8.29 kcal/mol
DOCKED: USER        Electrostatic Energy            =  -0.01 kcal/mol
DOCKED: USER        Moving Ligand-Fixed Receptor    =  -8.30 kcal/mol
DOCKED: USER        Moving Ligand-Moving Receptor   =  +0.00 kcal/mol
DOCKED: USER    (2) Final Total Internal Energy     =  -1.90 kcal/mol
DOCKED: USER    (3) Torsional Free Energy           =  +1.79 kcal/mol
DOCKED: USER    (4) Unbound System's Energy         =  -1.90 kcal/mol
DOCKED: USER
DOCKED: USER
DOCKED: REMARK SMILES O=C(NCC(=O)N1CCC[C@H]1CO)c1ccc2cc(F)ccc2n1
DOCKED: REMARK SMILES IDX 5 1 6 2 4 3 3 4 2 5 1 6 14 8 15 9 24 10 16 11 23 12 17 13
DOCKED: REMARK SMILES IDX 22 14 18 15 21 16 19 17 20 18 7 19 8 20 11 21 9 22 10 23
DOCKED: REMARK SMILES IDX 12 24 13 25
DOCKED: REMARK H PARENT 3 7 13 26
DOCKED: USER                              x       y       z     vdW  Elec       q    Type
DOCKED: USER                           _______ _______ _______ _____ _____    ______ ____
DOCKED: ROOT
DOCKED: ATOM      1  C   UNL     1     140.937  74.539 221.126 -0.20 -0.05    +0.242 C  
DOCKED: ATOM      2  O   UNL     1     140.950  75.771 221.433 -0.28 +0.08    -0.273 OA 
DOCKED: ENDROOT
DOCKED: BRANCH   1   3
DOCKED: ATOM      3  C   UNL     1     139.748  73.676 221.294 -0.17 -0.04    +0.216 C  
DOCKED: BRANCH   3   4
DOCKED: ATOM      4  N   UNL     1     139.731  73.003 222.573 -0.12 +0.06    -0.342 N  
DOCKED: ATOM      5  C   UNL     1     139.942  71.583 222.562 -0.20 -0.04    +0.270 C  
DOCKED: ATOM      6  O   UNL     1     140.120  71.066 221.426 -0.10 +0.04    -0.268 OA 
DOCKED: ATOM      7  H   UNL     1     139.574  73.506 223.488 -0.43 -0.05    +0.164 HD 
DOCKED: BRANCH   5   8
DOCKED: ATOM      8  C   UNL     1     139.945  70.811 223.783 -0.31 -0.02    +0.128 A  
DOCKED: ATOM      9  C   UNL     1     139.385  69.551 223.756 -0.25 -0.01    +0.035 A  
DOCKED: ATOM     10  N   UNL     1     140.465  71.259 224.943 -0.32 +0.04    -0.243 NA 
DOCKED: ATOM     11  C   UNL     1     139.338  68.737 224.862 -0.38 -0.00    +0.013 A  
DOCKED: ATOM     12  C   UNL     1     140.447  70.504 226.060 -0.51 -0.01    +0.071 A  
DOCKED: ATOM     13  C   UNL     1     139.888  69.247 226.031 -0.49 -0.00    +0.003 A  
DOCKED: ATOM     14  C   UNL     1     140.992  71.002 227.229 -0.66 -0.01    +0.032 A  
DOCKED: ATOM     15  C   UNL     1     139.846  68.444 227.139 -0.59 -0.01    +0.049 A  
DOCKED: ATOM     16  C   UNL     1     140.941  70.181 228.335 -0.53 -0.01    +0.041 A  
DOCKED: ATOM     17  C   UNL     1     140.383  68.919 228.316 -0.54 -0.02    +0.123 A  
DOCKED: ATOM     18  F   UNL     1     140.346  68.139 229.405 -0.11 +0.04    -0.207 F  
DOCKED: ENDBRANCH   5   8
DOCKED: ENDBRANCH   3   4
DOCKED: ENDBRANCH   1   3
DOCKED: BRANCH   1  19
DOCKED: ATOM     19  N   UNL     1     142.111  73.949 220.598 -0.12 +0.08    -0.336 N  
DOCKED: ATOM     20  C   UNL     1     142.259  72.694 219.887 -0.14 -0.02    +0.120 C  
DOCKED: ATOM     21  C   UNL     1     143.470  74.504 220.664 -0.19 -0.04    +0.110 C  
DOCKED: ATOM     22  C   UNL     1     143.506  72.132 220.578 -0.29 -0.00    +0.024 C  
DOCKED: ATOM     23  C   UNL     1     144.410  73.344 220.505 -0.45 -0.01    +0.029 C  
DOCKED: BRANCH  21  24
DOCKED: ATOM     24  C   UNL     1     143.688  75.510 219.581 -0.29 -0.10    +0.181 C  
DOCKED: BRANCH  24  25
DOCKED: ATOM     25  O   UNL     1     143.048  76.712 219.901 -0.22 +0.30    -0.394 OA 
DOCKED: ATOM     26  H   UNL     1     142.782  76.735 220.856 -0.38 -0.20    +0.210 HD 
DOCKED: ENDBRANCH  24  25
DOCKED: ENDBRANCH  21  24
DOCKED: ENDBRANCH   1  19
DOCKED: TORSDOF 6
DOCKED: TER
DOCKED: ENDMDL
________________________________________________________________________________


    CLUSTERING HISTOGRAM
    ____________________


________________________________________________________________________________
     |           |     |           |     |
Clus | Lowest    | Run | Mean      | Num | Histogram
-ter | Binding   |     | Binding   | in  |
Rank | Energy    |     | Energy    | Clus|    5    10   15   20   25   30   35
_____|___________|_____|___________|_____|____:____|____:____|____:____|____:___
   1 |     -6.97 |   1 |     -6.39 |  15 |###############
   2 |     -6.56 |   2 |     -6.53 |   2 |##
   3 |     -6.43 |  12 |     -6.19 |   2 |##
   4 |     -6.00 |  14 |     -6.00 |   1 |#
_____|___________|_____|___________|_____|______________________________________


    RMSD TABLE
    __________


_______________________________________________________________________
     |      |      |           |         |                 |
Rank | Sub- | Run  | Binding   | Cluster | Reference       | Grep
     | Rank |      | Energy    | RMSD    | RMSD            | Pattern
_____|______|______|___________|_________|_________________|___________
   1      1      1       -6.97      0.00    271.45           RANKING
   1      2     16       -6.97      0.17    271.49           RANKING
   1      3      6       -6.77      1.87    271.23           RANKING
   1      4      7       -6.73      1.90    271.25           RANKING
   1      5     18       -6.73      1.84    271.22           RANKING
   1      6      4       -6.70      1.19    271.54           RANKING
   1      7     11       -6.67      1.76    271.22           RANKING
   1      8      3       -6.58      1.89    271.21           RANKING
   1      9     20       -6.51      2.00    271.25           RANKING
   1     10     15       -6.38      1.53    271.22           RANKING
   1     11      9       -5.90      1.81    270.68           RANKING
   1     12      8       -5.82      1.87    270.64           RANKING
   1     13     19       -5.73      1.73    270.76           RANKING
   1     14      5       -5.71      1.85    270.54           RANKING
   1     15     13       -5.69      1.91    270.58           RANKING
   2      1      2       -6.56      0.00    271.45           RANKING
   2      2     17       -6.51      0.17    271.34           RANKING
   3      1     12       -6.43      0.00    271.20           RANKING
   3      2     10       -5.96      1.14    270.98           RANKING
   4      1     14       -6.00      0.00    271.42           RANKING

Run time 0.464 sec
Idle time 0.000 sec
