AutoDock-GPU version: v1.6

**********************************************************
**    AutoDock-GPU AUTODOCKTOOLS-COMPATIBLE DLG FILE    **
**********************************************************


    DOCKING PARAMETERS
    ________________________


Ligand file:                               /home/a/REINVENT4/ReinventStudies/pleaseWork/justmol2mol_4_Compounds_ontop/graph-dock-hn62wh/graph-DockGPU/node-autodockgpu/inputs/GABYHMWSGGSGHB-ZHBKPSIFNA-N.pdbqt
Grid fld file:                             /home/a/REINVENT4/ReinventStudies/mols/Rad51/maps/rad51_receptor.maps.fld

Random seed:                               42
Number of runs:                            20
Number of energy evaluations:              1132076
Number of generations:                     42000
Size of population:                        150
Rate of crossover:                         80.000000%
Tournament selection probability limit:    60.000000%
Rate of mutation:                          2.000000%
Maximal allowed delta movement:            +/- 6.000000A
Maximal allowed delta angle:               +/- 90.000000

Rate of local search:                      100.000000%
Maximal number of local search iterations: 300
Rho lower bound:                           0.010000
Spread of local search delta movement:     2.000000A
Spread of local search delta angle:        74.999999
Limit of consecutive successes/failures:   4

Handle symmetry during clustering:         YES
RMSD tolerance:                            2.000000A

Program call in command line was:          /home/a/REINVENT4/ReinventStudies/adgpu-v1.6_linux_x64_cuda12_128wi --filelist batch.txt --heuristics 1 --nrun 20 --psize 150 --lsit 300 --seed 42 --heurmax 12000000 


    GRID PARAMETERS
    ________________________


Receptor name:                             rad51_receptor
Number of grid points (x, y, z):           53, 53, 53
Grid center (x, y, z):                     139.950000, 75.640000, 221.970000A
Grid size (x, y, z):                       19.500000, 19.500000, 19.500000A
Grid spacing:                              0.375000A


    LIGAND PARAMETERS
    ________________________


Ligand name:                               /home/a/REINVENT4/ReinventStudies/pleaseWork/justmol2mol_4_Compounds_ontop/graph-dock-hn62wh/graph-DockGPU/node-autodockgpu/inputs/GABYHMWSGGSGHB-ZHBKPSIFNA-N
Number of atoms:                           29
Number of rotatable bonds:                 5
Number of atom types:                      6


    DUMMY DATA (only for ADT-compatibility)
    ________________________


DPF> outlev 1
DPF> ga_run 20
DPF> fld /home/a/REINVENT4/ReinventStudies/mols/Rad51/maps/rad51_receptor.maps.fld
DPF> move /home/a/REINVENT4/ReinventStudies/pleaseWork/justmol2mol_4_Compounds_ontop/graph-dock-hn62wh/graph-DockGPU/node-autodockgpu/inputs/GABYHMWSGGSGHB-ZHBKPSIFNA-N.pdbqt


    COUNTER STATES
    ________________________


Number of energy evaluations performed:    609851
Number of generations used:                30


    INPUT LIGAND PDBQT FILE:
    ________________________


INPUT-LIGAND-PDBQT: REMARK SMILES O=C(NCC(=O)N1CCCC[C@@H]1C1CCOCC1)c1ccc2ccccc2n1
INPUT-LIGAND-PDBQT: REMARK SMILES IDX 4 1 3 2 2 3 1 4 19 6 20 7 28 8 21 9 27 10 22 11 26 12 23 13
INPUT-LIGAND-PDBQT: REMARK SMILES IDX 25 14 24 15 5 16 6 17 7 18 8 19 12 20 9 21 11 22 10 23 13 24
INPUT-LIGAND-PDBQT: REMARK SMILES IDX 14 25 18 26 15 27 17 28 16 29
INPUT-LIGAND-PDBQT: REMARK H PARENT 3 5
INPUT-LIGAND-PDBQT: ROOT
INPUT-LIGAND-PDBQT: ATOM      1  C   UNL     1       0.385  -0.969   0.972  1.00  0.00     0.216 C 
INPUT-LIGAND-PDBQT: ENDROOT
INPUT-LIGAND-PDBQT: BRANCH   1   2
INPUT-LIGAND-PDBQT: ATOM      2  N   UNL     1       1.660  -0.465   0.436  1.00  0.00    -0.342 N 
INPUT-LIGAND-PDBQT: ATOM      3  C   UNL     1       2.840  -0.885   1.130  1.00  0.00     0.270 C 
INPUT-LIGAND-PDBQT: ATOM      4  O   UNL     1       2.661  -1.638   2.122  1.00  0.00    -0.268 OA
INPUT-LIGAND-PDBQT: ATOM      5  H   UNL     1       1.684   0.159  -0.400  1.00  0.00     0.164 HD
INPUT-LIGAND-PDBQT: BRANCH   3   6
INPUT-LIGAND-PDBQT: ATOM      6  C   UNL     1       4.139  -0.454   0.694  1.00  0.00     0.128 A 
INPUT-LIGAND-PDBQT: ATOM      7  C   UNL     1       5.266  -0.871   1.378  1.00  0.00     0.035 A 
INPUT-LIGAND-PDBQT: ATOM      8  N   UNL     1       4.300   0.363  -0.387  1.00  0.00    -0.243 NA
INPUT-LIGAND-PDBQT: ATOM      9  C   UNL     1       6.547  -0.484   0.999  1.00  0.00     0.013 A 
INPUT-LIGAND-PDBQT: ATOM     10  C   UNL     1       5.537   0.749  -0.770  1.00  0.00     0.071 A 
INPUT-LIGAND-PDBQT: ATOM     11  C   UNL     1       6.673   0.342  -0.098  1.00  0.00     0.000 A 
INPUT-LIGAND-PDBQT: ATOM     12  C   UNL     1       5.690   1.578  -1.867  1.00  0.00     0.029 A 
INPUT-LIGAND-PDBQT: ATOM     13  C   UNL     1       7.934   0.725  -0.474  1.00  0.00     0.010 A 
INPUT-LIGAND-PDBQT: ATOM     14  C   UNL     1       6.957   1.970  -2.254  1.00  0.00     0.002 A 
INPUT-LIGAND-PDBQT: ATOM     15  C   UNL     1       8.093   1.562  -1.581  1.00  0.00     0.001 A 
INPUT-LIGAND-PDBQT: ENDBRANCH   3   6
INPUT-LIGAND-PDBQT: ENDBRANCH   1   2
INPUT-LIGAND-PDBQT: BRANCH   1  16
INPUT-LIGAND-PDBQT: ATOM     16  C   UNL     1      -0.753  -0.452   0.152  1.00  0.00     0.242 C 
INPUT-LIGAND-PDBQT: ATOM     17  O   UNL     1      -0.438   0.286  -0.813  1.00  0.00    -0.273 OA
INPUT-LIGAND-PDBQT: BRANCH  16  18
INPUT-LIGAND-PDBQT: ATOM     18  N   UNL     1      -2.066  -0.820   0.511  1.00  0.00    -0.338 N 
INPUT-LIGAND-PDBQT: ATOM     19  C   UNL     1      -2.293  -1.710   1.677  1.00  0.00     0.120 C 
INPUT-LIGAND-PDBQT: ATOM     20  C   UNL     1      -3.275  -0.419  -0.168  1.00  0.00     0.088 C 
INPUT-LIGAND-PDBQT: ATOM     21  C   UNL     1      -3.345  -2.728   1.368  1.00  0.00     0.022 C 
INPUT-LIGAND-PDBQT: ATOM     22  C   UNL     1      -3.671  -1.662  -0.928  1.00  0.00     0.025 C 
INPUT-LIGAND-PDBQT: ATOM     23  C   UNL     1      -3.879  -2.795  -0.002  1.00  0.00     0.004 C 
INPUT-LIGAND-PDBQT: BRANCH  20  24
INPUT-LIGAND-PDBQT: ATOM     24  C   UNL     1      -3.246   0.839  -0.923  1.00  0.00     0.016 C 
INPUT-LIGAND-PDBQT: ATOM     25  C   UNL     1      -2.947   1.973   0.028  1.00  0.00     0.034 C 
INPUT-LIGAND-PDBQT: ATOM     26  C   UNL     1      -4.539   1.165  -1.635  1.00  0.00     0.034 C 
INPUT-LIGAND-PDBQT: ATOM     27  C   UNL     1      -4.172   2.426   0.809  1.00  0.00     0.160 C 
INPUT-LIGAND-PDBQT: ATOM     28  C   UNL     1      -5.598   1.747  -0.752  1.00  0.00     0.160 C 
INPUT-LIGAND-PDBQT: ATOM     29  O   UNL     1      -5.093   2.907  -0.119  1.00  0.00    -0.381 OA
INPUT-LIGAND-PDBQT: ENDBRANCH  20  24
INPUT-LIGAND-PDBQT: ENDBRANCH  16  18
INPUT-LIGAND-PDBQT: ENDBRANCH   1  16
INPUT-LIGAND-PDBQT: TORSDOF 5


    FINAL DOCKED STATE:
    ________________________


Run:   1 / 20
Time taken for this run:   0.026s

DOCKED: MODEL        1
DOCKED: USER    Run = 1
DOCKED: USER
DOCKED: USER    Estimated Free Energy of Binding    =  -8.77 kcal/mol  [=(1)+(2)+(3)-(4)]
DOCKED: USER
DOCKED: USER    (1) Final Intermolecular Energy     = -10.26 kcal/mol
DOCKED: USER        vdW + Hbond + desolv Energy     = -10.02 kcal/mol
DOCKED: USER        Electrostatic Energy            =  -0.24 kcal/mol
DOCKED: USER        Moving Ligand-Fixed Receptor    = -10.26 kcal/mol
DOCKED: USER        Moving Ligand-Moving Receptor   =  +0.00 kcal/mol
DOCKED: USER    (2) Final Total Internal Energy     =  -1.79 kcal/mol
DOCKED: USER    (3) Torsional Free Energy           =  +1.49 kcal/mol
DOCKED: USER    (4) Unbound System's Energy         =  -1.79 kcal/mol
DOCKED: USER
DOCKED: USER
DOCKED: REMARK SMILES O=C(NCC(=O)N1CCCC[C@@H]1C1CCOCC1)c1ccc2ccccc2n1
DOCKED: REMARK SMILES IDX 4 1 3 2 2 3 1 4 19 6 20 7 28 8 21 9 27 10 22 11 26 12 23 13
DOCKED: REMARK SMILES IDX 25 14 24 15 5 16 6 17 7 18 8 19 12 20 9 21 11 22 10 23 13 24
DOCKED: REMARK SMILES IDX 14 25 18 26 15 27 17 28 16 29
DOCKED: REMARK H PARENT 3 5
DOCKED: USER                              x       y       z     vdW  Elec       q    Type
DOCKED: USER                           _______ _______ _______ _____ _____    ______ ____
DOCKED: ROOT
DOCKED: ATOM      1  C   UNL     1     140.498  74.049 220.984 -0.18 -0.04    +0.216 C  
DOCKED: ENDROOT
DOCKED: BRANCH   1   2
DOCKED: ATOM      2  N   UNL     1     140.130  73.398 222.252 -0.14 +0.03    -0.342 N  
DOCKED: ATOM      3  C   UNL     1     140.603  72.058 222.428 -0.20 -0.03    +0.270 C  
DOCKED: ATOM      4  O   UNL     1     141.281  71.582 221.481 -0.15 +0.03    -0.268 OA 
DOCKED: ATOM      5  H   UNL     1     139.558  73.898 222.968 -0.46 -0.02    +0.164 HD 
DOCKED: BRANCH   3   6
DOCKED: ATOM      6  C   UNL     1     140.304  71.327 223.627 -0.32 -0.02    +0.128 A  
DOCKED: ATOM      7  C   UNL     1     139.600  70.139 223.549 -0.27 -0.01    +0.035 A  
DOCKED: ATOM      8  N   UNL     1     140.696  71.770 224.857 -0.29 +0.03    -0.243 NA 
DOCKED: ATOM      9  C   UNL     1     139.283  69.391 224.679 -0.36 -0.00    +0.013 A  
DOCKED: ATOM     10  C   UNL     1     140.398  71.057 225.965 -0.54 -0.01    +0.071 A  
DOCKED: ATOM     11  C   UNL     1     139.696  69.869 225.905 -0.47 -0.00    +0.000 A  
DOCKED: ATOM     12  C   UNL     1     140.800  71.515 227.207 -0.74 -0.01    +0.029 A  
DOCKED: ATOM     13  C   UNL     1     139.385  69.134 227.019 -0.51 -0.00    +0.010 A  
DOCKED: ATOM     14  C   UNL     1     140.492  70.782 228.336 -0.62 -0.00    +0.002 A  
DOCKED: ATOM     15  C   UNL     1     139.789  69.593 228.275 -0.62 -0.00    +0.001 A  
DOCKED: ENDBRANCH   3   6
DOCKED: ENDBRANCH   1   2
DOCKED: BRANCH   1  16
DOCKED: ATOM     16  C   UNL     1     141.326  75.264 221.256 -0.21 -0.07    +0.242 C  
DOCKED: ATOM     17  O   UNL     1     141.069  75.870 222.324 -0.40 +0.07    -0.273 OA 
DOCKED: BRANCH  16  18
DOCKED: ATOM     18  N   UNL     1     142.311  75.633 220.317 -0.13 +0.17    -0.338 N  
DOCKED: ATOM     19  C   UNL     1     142.395  77.039 219.847 -0.26 -0.08    +0.120 C  
DOCKED: ATOM     20  C   UNL     1     143.289  74.754 219.722 -0.31 -0.04    +0.088 C  
DOCKED: ATOM     21  C   UNL     1     142.641  77.089 218.372 -0.30 -0.01    +0.022 C  
DOCKED: ATOM     22  C   UNL     1     142.754  74.539 218.327 -0.14 -0.01    +0.025 C  
DOCKED: ATOM     23  C   UNL     1     142.629  75.828 217.613 -0.18 -0.00    +0.004 C  
DOCKED: BRANCH  20  24
DOCKED: ATOM     24  C   UNL     1     143.673  73.555 220.476 -0.37 -0.00    +0.016 C  
DOCKED: ATOM     25  C   UNL     1     145.094  73.717 220.960 -0.51 -0.01    +0.034 C  
DOCKED: ATOM     26  C   UNL     1     143.603  72.272 219.680 -0.23 -0.00    +0.034 C  
DOCKED: ATOM     27  C   UNL     1     146.123  73.414 219.881 -0.36 +0.04    +0.160 C  
DOCKED: ATOM     28  C   UNL     1     144.770  72.046 218.772 -0.18 +0.03    +0.160 C  
DOCKED: ATOM     29  O   UNL     1     145.965  72.076 219.530 -0.56 -0.27    -0.381 OA 
DOCKED: ENDBRANCH  20  24
DOCKED: ENDBRANCH  16  18
DOCKED: ENDBRANCH   1  16
DOCKED: TORSDOF 5
DOCKED: TER
DOCKED: ENDMDL
________________________________________________________________________________


    FINAL DOCKED STATE:
    ________________________


Run:   2 / 20
Time taken for this run:   0.026s

DOCKED: MODEL        2
DOCKED: USER    Run = 2
DOCKED: USER
DOCKED: USER    Estimated Free Energy of Binding    =  -8.76 kcal/mol  [=(1)+(2)+(3)-(4)]
DOCKED: USER
DOCKED: USER    (1) Final Intermolecular Energy     = -10.25 kcal/mol
DOCKED: USER        vdW + Hbond + desolv Energy     = -10.02 kcal/mol
DOCKED: USER        Electrostatic Energy            =  -0.23 kcal/mol
DOCKED: USER        Moving Ligand-Fixed Receptor    = -10.25 kcal/mol
DOCKED: USER        Moving Ligand-Moving Receptor   =  +0.00 kcal/mol
DOCKED: USER    (2) Final Total Internal Energy     =  -1.81 kcal/mol
DOCKED: USER    (3) Torsional Free Energy           =  +1.49 kcal/mol
DOCKED: USER    (4) Unbound System's Energy         =  -1.81 kcal/mol
DOCKED: USER
DOCKED: USER
DOCKED: REMARK SMILES O=C(NCC(=O)N1CCCC[C@@H]1C1CCOCC1)c1ccc2ccccc2n1
DOCKED: REMARK SMILES IDX 4 1 3 2 2 3 1 4 19 6 20 7 28 8 21 9 27 10 22 11 26 12 23 13
DOCKED: REMARK SMILES IDX 25 14 24 15 5 16 6 17 7 18 8 19 12 20 9 21 11 22 10 23 13 24
DOCKED: REMARK SMILES IDX 14 25 18 26 15 27 17 28 16 29
DOCKED: REMARK H PARENT 3 5
DOCKED: USER                              x       y       z     vdW  Elec       q    Type
DOCKED: USER                           _______ _______ _______ _____ _____    ______ ____
DOCKED: ROOT
DOCKED: ATOM      1  C   UNL     1     140.490  74.032 220.991 -0.18 -0.04    +0.216 C  
DOCKED: ENDROOT
DOCKED: BRANCH   1   2
DOCKED: ATOM      2  N   UNL     1     140.143  73.386 222.267 -0.14 +0.02    -0.342 N  
DOCKED: ATOM      3  C   UNL     1     140.587  72.034 222.425 -0.20 -0.03    +0.270 C  
DOCKED: ATOM      4  O   UNL     1     141.225  71.544 221.457 -0.14 +0.03    -0.268 OA 
DOCKED: ATOM      5  H   UNL     1     139.606  73.897 223.002 -0.45 -0.02    +0.164 HD 
DOCKED: BRANCH   3   6
DOCKED: ATOM      6  C   UNL     1     140.306  71.306 223.630 -0.32 -0.02    +0.128 A  
DOCKED: ATOM      7  C   UNL     1     139.606  70.114 223.565 -0.27 -0.01    +0.035 A  
DOCKED: ATOM      8  N   UNL     1     140.711  71.755 224.853 -0.29 +0.03    -0.243 NA 
DOCKED: ATOM      9  C   UNL     1     139.307  69.370 224.701 -0.36 -0.00    +0.013 A  
DOCKED: ATOM     10  C   UNL     1     140.429  71.045 225.967 -0.54 -0.01    +0.071 A  
DOCKED: ATOM     11  C   UNL     1     139.731  69.854 225.920 -0.47 -0.00    +0.000 A  
DOCKED: ATOM     12  C   UNL     1     140.844  71.509 227.203 -0.74 -0.01    +0.029 A  
DOCKED: ATOM     13  C   UNL     1     139.438  69.122 227.041 -0.52 -0.00    +0.010 A  
DOCKED: ATOM     14  C   UNL     1     140.552  70.779 228.339 -0.61 -0.00    +0.002 A  
DOCKED: ATOM     15  C   UNL     1     139.854  69.587 228.291 -0.62 -0.00    +0.001 A  
DOCKED: ENDBRANCH   3   6
DOCKED: ENDBRANCH   1   2
DOCKED: BRANCH   1  16
DOCKED: ATOM     16  C   UNL     1     141.309  75.257 221.245 -0.22 -0.07    +0.242 C  
DOCKED: ATOM     17  O   UNL     1     141.049  75.875 222.306 -0.40 +0.07    -0.273 OA 
DOCKED: BRANCH  16  18
DOCKED: ATOM     18  N   UNL     1     142.289  75.621 220.300 -0.13 +0.16    -0.338 N  
DOCKED: ATOM     19  C   UNL     1     142.368  77.023 219.817 -0.27 -0.08    +0.120 C  
DOCKED: ATOM     20  C   UNL     1     143.267  74.740 219.709 -0.30 -0.03    +0.088 C  
DOCKED: ATOM     21  C   UNL     1     142.608  77.061 218.341 -0.30 -0.01    +0.022 C  
DOCKED: ATOM     22  C   UNL     1     142.729  74.512 218.317 -0.14 -0.01    +0.025 C  
DOCKED: ATOM     23  C   UNL     1     142.597  75.793 217.593 -0.18 -0.00    +0.004 C  
DOCKED: BRANCH  20  24
DOCKED: ATOM     24  C   UNL     1     143.659  73.549 220.472 -0.37 -0.00    +0.016 C  
DOCKED: ATOM     25  C   UNL     1     145.079  73.721 220.953 -0.51 -0.01    +0.034 C  
DOCKED: ATOM     26  C   UNL     1     143.593  72.259 219.686 -0.23 -0.00    +0.034 C  
DOCKED: ATOM     27  C   UNL     1     146.108  73.415 219.875 -0.37 +0.04    +0.160 C  
DOCKED: ATOM     28  C   UNL     1     144.761  72.032 218.778 -0.17 +0.03    +0.160 C  
DOCKED: ATOM     29  O   UNL     1     145.956  72.073 219.534 -0.56 -0.27    -0.381 OA 
DOCKED: ENDBRANCH  20  24
DOCKED: ENDBRANCH  16  18
DOCKED: ENDBRANCH   1  16
DOCKED: TORSDOF 5
DOCKED: TER
DOCKED: ENDMDL
________________________________________________________________________________


    FINAL DOCKED STATE:
    ________________________


Run:   3 / 20
Time taken for this run:   0.026s

DOCKED: MODEL        3
DOCKED: USER    Run = 3
DOCKED: USER
DOCKED: USER    Estimated Free Energy of Binding    =  -8.46 kcal/mol  [=(1)+(2)+(3)-(4)]
DOCKED: USER
DOCKED: USER    (1) Final Intermolecular Energy     =  -9.95 kcal/mol
DOCKED: USER        vdW + Hbond + desolv Energy     =  -9.82 kcal/mol
DOCKED: USER        Electrostatic Energy            =  -0.13 kcal/mol
DOCKED: USER        Moving Ligand-Fixed Receptor    =  -9.95 kcal/mol
DOCKED: USER        Moving Ligand-Moving Receptor   =  +0.00 kcal/mol
DOCKED: USER    (2) Final Total Internal Energy     =  -1.81 kcal/mol
DOCKED: USER    (3) Torsional Free Energy           =  +1.49 kcal/mol
DOCKED: USER    (4) Unbound System's Energy         =  -1.81 kcal/mol
DOCKED: USER
DOCKED: USER
DOCKED: REMARK SMILES O=C(NCC(=O)N1CCCC[C@@H]1C1CCOCC1)c1ccc2ccccc2n1
DOCKED: REMARK SMILES IDX 4 1 3 2 2 3 1 4 19 6 20 7 28 8 21 9 27 10 22 11 26 12 23 13
DOCKED: REMARK SMILES IDX 25 14 24 15 5 16 6 17 7 18 8 19 12 20 9 21 11 22 10 23 13 24
DOCKED: REMARK SMILES IDX 14 25 18 26 15 27 17 28 16 29
DOCKED: REMARK H PARENT 3 5
DOCKED: USER                              x       y       z     vdW  Elec       q    Type
DOCKED: USER                           _______ _______ _______ _____ _____    ______ ____
DOCKED: ROOT
DOCKED: ATOM      1  C   UNL     1     139.858  74.742 221.279 -0.20 -0.04    +0.216 C  
DOCKED: ENDROOT
DOCKED: BRANCH   1   2
DOCKED: ATOM      2  N   UNL     1     139.571  73.797 222.371 -0.08 +0.05    -0.342 N  
DOCKED: ATOM      3  C   UNL     1     140.444  72.665 222.464 -0.17 -0.02    +0.270 C  
DOCKED: ATOM      4  O   UNL     1     141.360  72.600 221.605 -0.22 +0.02    -0.268 OA 
DOCKED: ATOM      5  H   UNL     1     138.777  73.958 223.028 -0.55 -0.10    +0.164 HD 
DOCKED: BRANCH   3   6
DOCKED: ATOM      6  C   UNL     1     140.257  71.679 223.492 -0.32 -0.02    +0.128 A  
DOCKED: ATOM      7  C   UNL     1     139.614  70.492 223.195 -0.26 -0.01    +0.035 A  
DOCKED: ATOM      8  N   UNL     1     140.700  71.878 224.767 -0.27 +0.03    -0.243 NA 
DOCKED: ATOM      9  C   UNL     1     139.408  69.503 224.152 -0.31 -0.00    +0.013 A  
DOCKED: ATOM     10  C   UNL     1     140.508  70.929 225.710 -0.53 -0.01    +0.071 A  
DOCKED: ATOM     11  C   UNL     1     139.867  69.737 225.430 -0.44 -0.00    +0.000 A  
DOCKED: ATOM     12  C   UNL     1     140.959  71.139 227.000 -0.68 -0.00    +0.029 A  
DOCKED: ATOM     13  C   UNL     1     139.665  68.765 226.375 -0.54 -0.00    +0.010 A  
DOCKED: ATOM     14  C   UNL     1     140.760  70.166 227.960 -0.63 -0.00    +0.002 A  
DOCKED: ATOM     15  C   UNL     1     140.119  68.974 227.679 -0.63 -0.00    +0.001 A  
DOCKED: ENDBRANCH   3   6
DOCKED: ENDBRANCH   1   2
DOCKED: BRANCH   1  16
DOCKED: ATOM     16  C   UNL     1     139.330  76.097 221.625 -0.20 -0.05    +0.242 C  
DOCKED: ATOM     17  O   UNL     1     138.524  76.138 222.585 -0.25 +0.06    -0.273 OA 
DOCKED: BRANCH  16  18
DOCKED: ATOM     18  N   UNL     1     139.764  77.204 220.867 -0.04 +0.10    -0.338 N  
DOCKED: ATOM     19  C   UNL     1     139.417  77.298 219.427 -0.04 -0.03    +0.120 C  
DOCKED: ATOM     20  C   UNL     1     140.557  78.307 221.355 -0.25 -0.03    +0.088 C  
DOCKED: ATOM     21  C   UNL     1     140.589  77.780 218.632 -0.10 -0.01    +0.022 C  
DOCKED: ATOM     22  C   UNL     1     141.928  78.021 220.791 -0.25 -0.02    +0.025 C  
DOCKED: ATOM     23  C   UNL     1     141.881  77.953 219.315 -0.28 -0.00    +0.004 C  
DOCKED: BRANCH  20  24
DOCKED: ATOM     24  C   UNL     1     140.481  78.619 222.787 -0.44 -0.00    +0.016 C  
DOCKED: ATOM     25  C   UNL     1     139.827  79.969 222.958 -0.37 -0.01    +0.034 C  
DOCKED: ATOM     26  C   UNL     1     141.821  78.666 223.484 -0.58 -0.01    +0.034 C  
DOCKED: ATOM     27  C   UNL     1     140.788  81.125 222.719 -0.34 -0.03    +0.160 C  
DOCKED: ATOM     28  C   UNL     1     142.581  79.938 223.271 -0.53 -0.05    +0.160 C  
DOCKED: ATOM     29  O   UNL     1     141.786  81.032 223.686 -0.30 +0.06    -0.381 OA 
DOCKED: ENDBRANCH  20  24
DOCKED: ENDBRANCH  16  18
DOCKED: ENDBRANCH   1  16
DOCKED: TORSDOF 5
DOCKED: TER
DOCKED: ENDMDL
________________________________________________________________________________


    FINAL DOCKED STATE:
    ________________________


Run:   4 / 20
Time taken for this run:   0.026s

DOCKED: MODEL        4
DOCKED: USER    Run = 4
DOCKED: USER
DOCKED: USER    Estimated Free Energy of Binding    =  -8.72 kcal/mol  [=(1)+(2)+(3)-(4)]
DOCKED: USER
DOCKED: USER    (1) Final Intermolecular Energy     = -10.22 kcal/mol
DOCKED: USER        vdW + Hbond + desolv Energy     =  -9.99 kcal/mol
DOCKED: USER        Electrostatic Energy            =  -0.22 kcal/mol
DOCKED: USER        Moving Ligand-Fixed Receptor    = -10.22 kcal/mol
DOCKED: USER        Moving Ligand-Moving Receptor   =  +0.00 kcal/mol
DOCKED: USER    (2) Final Total Internal Energy     =  -1.84 kcal/mol
DOCKED: USER    (3) Torsional Free Energy           =  +1.49 kcal/mol
DOCKED: USER    (4) Unbound System's Energy         =  -1.84 kcal/mol
DOCKED: USER
DOCKED: USER
DOCKED: REMARK SMILES O=C(NCC(=O)N1CCCC[C@@H]1C1CCOCC1)c1ccc2ccccc2n1
DOCKED: REMARK SMILES IDX 4 1 3 2 2 3 1 4 19 6 20 7 28 8 21 9 27 10 22 11 26 12 23 13
DOCKED: REMARK SMILES IDX 25 14 24 15 5 16 6 17 7 18 8 19 12 20 9 21 11 22 10 23 13 24
DOCKED: REMARK SMILES IDX 14 25 18 26 15 27 17 28 16 29
DOCKED: REMARK H PARENT 3 5
DOCKED: USER                              x       y       z     vdW  Elec       q    Type
DOCKED: USER                           _______ _______ _______ _____ _____    ______ ____
DOCKED: ROOT
DOCKED: ATOM      1  C   UNL     1     140.553  74.020 221.016 -0.18 -0.04    +0.216 C  
DOCKED: ENDROOT
DOCKED: BRANCH   1   2
DOCKED: ATOM      2  N   UNL     1     140.212  73.375 222.295 -0.13 +0.02    -0.342 N  
DOCKED: ATOM      3  C   UNL     1     140.594  72.001 222.423 -0.20 -0.03    +0.270 C  
DOCKED: ATOM      4  O   UNL     1     141.178  71.493 221.431 -0.14 +0.03    -0.268 OA 
DOCKED: ATOM      5  H   UNL     1     139.723  73.902 223.051 -0.42 -0.00    +0.164 HD 
DOCKED: BRANCH   3   6
DOCKED: ATOM      6  C   UNL     1     140.312  71.271 223.628 -0.32 -0.02    +0.128 A  
DOCKED: ATOM      7  C   UNL     1     139.628  70.071 223.560 -0.26 -0.01    +0.035 A  
DOCKED: ATOM      8  N   UNL     1     140.702  71.728 224.853 -0.30 +0.03    -0.243 NA 
DOCKED: ATOM      9  C   UNL     1     139.329  69.325 224.694 -0.36 -0.00    +0.013 A  
DOCKED: ATOM     10  C   UNL     1     140.420  71.016 225.966 -0.54 -0.01    +0.071 A  
DOCKED: ATOM     11  C   UNL     1     139.738  69.816 225.916 -0.47 -0.00    +0.000 A  
DOCKED: ATOM     12  C   UNL     1     140.819  71.488 227.204 -0.74 -0.01    +0.029 A  
DOCKED: ATOM     13  C   UNL     1     139.445  69.083 227.036 -0.52 -0.00    +0.010 A  
DOCKED: ATOM     14  C   UNL     1     140.528  70.756 228.339 -0.61 -0.00    +0.002 A  
DOCKED: ATOM     15  C   UNL     1     139.846  69.555 228.288 -0.62 -0.00    +0.001 A  
DOCKED: ENDBRANCH   3   6
DOCKED: ENDBRANCH   1   2
DOCKED: BRANCH   1  16
DOCKED: ATOM     16  C   UNL     1     141.348  75.261 221.268 -0.21 -0.07    +0.242 C  
DOCKED: ATOM     17  O   UNL     1     141.069  75.883 222.322 -0.40 +0.07    -0.273 OA 
DOCKED: BRANCH  16  18
DOCKED: ATOM     18  N   UNL     1     142.329  75.637 220.327 -0.13 +0.17    -0.338 N  
DOCKED: ATOM     19  C   UNL     1     142.390  77.037 219.839 -0.27 -0.08    +0.120 C  
DOCKED: ATOM     20  C   UNL     1     143.324  74.767 219.746 -0.31 -0.04    +0.088 C  
DOCKED: ATOM     21  C   UNL     1     142.639  77.073 218.365 -0.30 -0.01    +0.022 C  
DOCKED: ATOM     22  C   UNL     1     142.798  74.526 218.352 -0.15 -0.01    +0.025 C  
DOCKED: ATOM     23  C   UNL     1     142.651  75.803 217.622 -0.18 -0.00    +0.004 C  
DOCKED: BRANCH  20  24
DOCKED: ATOM     24  C   UNL     1     143.728  73.586 220.517 -0.37 -0.00    +0.016 C  
DOCKED: ATOM     25  C   UNL     1     145.163  73.754 220.953 -0.53 -0.01    +0.034 C  
DOCKED: ATOM     26  C   UNL     1     143.628  72.284 219.754 -0.24 -0.00    +0.034 C  
DOCKED: ATOM     27  C   UNL     1     146.158  73.421 219.850 -0.35 +0.04    +0.160 C  
DOCKED: ATOM     28  C   UNL     1     144.767  72.032 218.816 -0.18 +0.03    +0.160 C  
DOCKED: ATOM     29  O   UNL     1     145.984  72.075 219.536 -0.56 -0.28    -0.381 OA 
DOCKED: ENDBRANCH  20  24
DOCKED: ENDBRANCH  16  18
DOCKED: ENDBRANCH   1  16
DOCKED: TORSDOF 5
DOCKED: TER
DOCKED: ENDMDL
________________________________________________________________________________


    FINAL DOCKED STATE:
    ________________________


Run:   5 / 20
Time taken for this run:   0.026s

DOCKED: MODEL        5
DOCKED: USER    Run = 5
DOCKED: USER
DOCKED: USER    Estimated Free Energy of Binding    =  -8.75 kcal/mol  [=(1)+(2)+(3)-(4)]
DOCKED: USER
DOCKED: USER    (1) Final Intermolecular Energy     = -10.25 kcal/mol
DOCKED: USER        vdW + Hbond + desolv Energy     = -10.00 kcal/mol
DOCKED: USER        Electrostatic Energy            =  -0.24 kcal/mol
DOCKED: USER        Moving Ligand-Fixed Receptor    = -10.25 kcal/mol
DOCKED: USER        Moving Ligand-Moving Receptor   =  +0.00 kcal/mol
DOCKED: USER    (2) Final Total Internal Energy     =  -1.81 kcal/mol
DOCKED: USER    (3) Torsional Free Energy           =  +1.49 kcal/mol
DOCKED: USER    (4) Unbound System's Energy         =  -1.81 kcal/mol
DOCKED: USER
DOCKED: USER
DOCKED: REMARK SMILES O=C(NCC(=O)N1CCCC[C@@H]1C1CCOCC1)c1ccc2ccccc2n1
DOCKED: REMARK SMILES IDX 4 1 3 2 2 3 1 4 19 6 20 7 28 8 21 9 27 10 22 11 26 12 23 13
DOCKED: REMARK SMILES IDX 25 14 24 15 5 16 6 17 7 18 8 19 12 20 9 21 11 22 10 23 13 24
DOCKED: REMARK SMILES IDX 14 25 18 26 15 27 17 28 16 29
DOCKED: REMARK H PARENT 3 5
DOCKED: USER                              x       y       z     vdW  Elec       q    Type
DOCKED: USER                           _______ _______ _______ _____ _____    ______ ____
DOCKED: ROOT
DOCKED: ATOM      1  C   UNL     1     140.542  74.032 221.000 -0.18 -0.04    +0.216 C  
DOCKED: ENDROOT
DOCKED: BRANCH   1   2
DOCKED: ATOM      2  N   UNL     1     140.177  73.386 222.271 -0.13 +0.02    -0.342 N  
DOCKED: ATOM      3  C   UNL     1     140.613  72.032 222.433 -0.20 -0.03    +0.270 C  
DOCKED: ATOM      4  O   UNL     1     141.260  71.540 221.472 -0.15 +0.03    -0.268 OA 
DOCKED: ATOM      5  H   UNL     1     139.634  73.899 223.000 -0.44 -0.01    +0.164 HD 
DOCKED: BRANCH   3   6
DOCKED: ATOM      6  C   UNL     1     140.313  71.304 223.634 -0.32 -0.02    +0.128 A  
DOCKED: ATOM      7  C   UNL     1     139.625  70.107 223.557 -0.26 -0.01    +0.035 A  
DOCKED: ATOM      8  N   UNL     1     140.690  71.759 224.864 -0.29 +0.03    -0.243 NA 
DOCKED: ATOM      9  C   UNL     1     139.309  69.362 224.688 -0.36 -0.00    +0.013 A  
DOCKED: ATOM     10  C   UNL     1     140.392  71.048 225.973 -0.54 -0.01    +0.071 A  
DOCKED: ATOM     11  C   UNL     1     139.705  69.851 225.915 -0.47 -0.00    +0.000 A  
DOCKED: ATOM     12  C   UNL     1     140.778  71.518 227.216 -0.74 -0.01    +0.029 A  
DOCKED: ATOM     13  C   UNL     1     139.395  69.119 227.031 -0.51 -0.00    +0.010 A  
DOCKED: ATOM     14  C   UNL     1     140.470  70.788 228.347 -0.61 -0.00    +0.002 A  
DOCKED: ATOM     15  C   UNL     1     139.783  69.590 228.287 -0.62 -0.00    +0.001 A  
DOCKED: ENDBRANCH   3   6
DOCKED: ENDBRANCH   1   2
DOCKED: BRANCH   1  16
DOCKED: ATOM     16  C   UNL     1     141.328  75.276 221.267 -0.21 -0.07    +0.242 C  
DOCKED: ATOM     17  O   UNL     1     141.036  75.889 222.323 -0.40 +0.07    -0.273 OA 
DOCKED: BRANCH  16  18
DOCKED: ATOM     18  N   UNL     1     142.315  75.663 220.338 -0.13 +0.17    -0.338 N  
DOCKED: ATOM     19  C   UNL     1     142.391  77.074 219.883 -0.26 -0.08    +0.120 C  
DOCKED: ATOM     20  C   UNL     1     143.304  74.798 219.741 -0.31 -0.04    +0.088 C  
DOCKED: ATOM     21  C   UNL     1     142.645  77.141 218.410 -0.31 -0.01    +0.022 C  
DOCKED: ATOM     22  C   UNL     1     142.780  74.593 218.340 -0.15 -0.01    +0.025 C  
DOCKED: ATOM     23  C   UNL     1     142.649  75.888 217.638 -0.19 -0.00    +0.004 C  
DOCKED: BRANCH  20  24
DOCKED: ATOM     24  C   UNL     1     143.694  73.595 220.485 -0.37 -0.00    +0.016 C  
DOCKED: ATOM     25  C   UNL     1     145.117  73.757 220.964 -0.52 -0.01    +0.034 C  
DOCKED: ATOM     26  C   UNL     1     143.623  72.317 219.681 -0.23 -0.00    +0.034 C  
DOCKED: ATOM     27  C   UNL     1     146.142  73.463 219.878 -0.33 +0.04    +0.160 C  
DOCKED: ATOM     28  C   UNL     1     144.787  72.100 218.766 -0.18 +0.03    +0.160 C  
DOCKED: ATOM     29  O   UNL     1     145.984  72.126 219.519 -0.57 -0.28    -0.381 OA 
DOCKED: ENDBRANCH  20  24
DOCKED: ENDBRANCH  16  18
DOCKED: ENDBRANCH   1  16
DOCKED: TORSDOF 5
DOCKED: TER
DOCKED: ENDMDL
________________________________________________________________________________


    FINAL DOCKED STATE:
    ________________________


Run:   6 / 20
Time taken for this run:   0.026s

DOCKED: MODEL        6
DOCKED: USER    Run = 6
DOCKED: USER
DOCKED: USER    Estimated Free Energy of Binding    =  -8.83 kcal/mol  [=(1)+(2)+(3)-(4)]
DOCKED: USER
DOCKED: USER    (1) Final Intermolecular Energy     = -10.32 kcal/mol
DOCKED: USER        vdW + Hbond + desolv Energy     = -10.05 kcal/mol
DOCKED: USER        Electrostatic Energy            =  -0.27 kcal/mol
DOCKED: USER        Moving Ligand-Fixed Receptor    = -10.32 kcal/mol
DOCKED: USER        Moving Ligand-Moving Receptor   =  +0.00 kcal/mol
DOCKED: USER    (2) Final Total Internal Energy     =  -1.70 kcal/mol
DOCKED: USER    (3) Torsional Free Energy           =  +1.49 kcal/mol
DOCKED: USER    (4) Unbound System's Energy         =  -1.70 kcal/mol
DOCKED: USER
DOCKED: USER
DOCKED: REMARK SMILES O=C(NCC(=O)N1CCCC[C@@H]1C1CCOCC1)c1ccc2ccccc2n1
DOCKED: REMARK SMILES IDX 4 1 3 2 2 3 1 4 19 6 20 7 28 8 21 9 27 10 22 11 26 12 23 13
DOCKED: REMARK SMILES IDX 25 14 24 15 5 16 6 17 7 18 8 19 12 20 9 21 11 22 10 23 13 24
DOCKED: REMARK SMILES IDX 14 25 18 26 15 27 17 28 16 29
DOCKED: REMARK H PARENT 3 5
DOCKED: USER                              x       y       z     vdW  Elec       q    Type
DOCKED: USER                           _______ _______ _______ _____ _____    ______ ____
DOCKED: ROOT
DOCKED: ATOM      1  C   UNL     1     140.403  74.108 220.908 -0.17 -0.04    +0.216 C  
DOCKED: ENDROOT
DOCKED: BRANCH   1   2
DOCKED: ATOM      2  N   UNL     1     139.969  73.438 222.145 -0.15 +0.04    -0.342 N  
DOCKED: ATOM      3  C   UNL     1     140.637  72.212 222.460 -0.20 -0.02    +0.270 C  
DOCKED: ATOM      4  O   UNL     1     141.521  71.838 221.646 -0.17 +0.02    -0.268 OA 
DOCKED: ATOM      5  H   UNL     1     139.219  73.847 222.744 -0.50 -0.05    +0.164 HD 
DOCKED: BRANCH   3   6
DOCKED: ATOM      6  C   UNL     1     140.294  71.473 223.643 -0.33 -0.02    +0.128 A  
DOCKED: ATOM      7  C   UNL     1     139.535  70.322 223.539 -0.29 -0.01    +0.035 A  
DOCKED: ATOM      8  N   UNL     1     140.699  71.875 224.883 -0.28 +0.03    -0.243 NA 
DOCKED: ATOM      9  C   UNL     1     139.175  69.570 224.651 -0.36 -0.00    +0.013 A  
DOCKED: ATOM     10  C   UNL     1     140.358  71.156 225.976 -0.54 -0.01    +0.071 A  
DOCKED: ATOM     11  C   UNL     1     139.601  70.004 225.889 -0.46 -0.00    +0.000 A  
DOCKED: ATOM     12  C   UNL     1     140.772  71.572 227.229 -0.74 -0.01    +0.029 A  
DOCKED: ATOM     13  C   UNL     1     139.247  69.265 226.987 -0.49 -0.00    +0.010 A  
DOCKED: ATOM     14  C   UNL     1     140.421  70.833 228.342 -0.63 -0.00    +0.002 A  
DOCKED: ATOM     15  C   UNL     1     139.663  69.681 228.254 -0.62 -0.00    +0.001 A  
DOCKED: ENDBRANCH   3   6
DOCKED: ENDBRANCH   1   2
DOCKED: BRANCH   1  16
DOCKED: ATOM     16  C   UNL     1     141.278  75.274 221.239 -0.22 -0.07    +0.242 C  
DOCKED: ATOM     17  O   UNL     1     141.054  75.827 222.343 -0.41 +0.06    -0.273 OA 
DOCKED: BRANCH  16  18
DOCKED: ATOM     18  N   UNL     1     142.268  75.660 220.312 -0.13 +0.17    -0.338 N  
DOCKED: ATOM     19  C   UNL     1     142.355  77.074 219.868 -0.26 -0.08    +0.120 C  
DOCKED: ATOM     20  C   UNL     1     143.248  74.791 219.706 -0.31 -0.04    +0.088 C  
DOCKED: ATOM     21  C   UNL     1     142.608  77.151 218.395 -0.31 -0.01    +0.022 C  
DOCKED: ATOM     22  C   UNL     1     142.720  74.602 218.304 -0.14 -0.01    +0.025 C  
DOCKED: ATOM     23  C   UNL     1     142.599  75.903 217.613 -0.18 -0.00    +0.004 C  
DOCKED: BRANCH  20  24
DOCKED: ATOM     24  C   UNL     1     143.629  73.579 220.440 -0.37 -0.00    +0.016 C  
DOCKED: ATOM     25  C   UNL     1     145.026  73.755 220.984 -0.48 -0.01    +0.034 C  
DOCKED: ATOM     26  C   UNL     1     143.616  72.319 219.605 -0.22 -0.00    +0.034 C  
DOCKED: ATOM     27  C   UNL     1     146.102  73.505 219.937 -0.35 +0.03    +0.160 C  
DOCKED: ATOM     28  C   UNL     1     144.823  72.143 218.737 -0.18 +0.04    +0.160 C  
DOCKED: ATOM     29  O   UNL     1     145.986  72.174 219.542 -0.58 -0.27    -0.381 OA 
DOCKED: ENDBRANCH  20  24
DOCKED: ENDBRANCH  16  18
DOCKED: ENDBRANCH   1  16
DOCKED: TORSDOF 5
DOCKED: TER
DOCKED: ENDMDL
________________________________________________________________________________


    FINAL DOCKED STATE:
    ________________________


Run:   7 / 20
Time taken for this run:   0.026s

DOCKED: MODEL        7
DOCKED: USER    Run = 7
DOCKED: USER
DOCKED: USER    Estimated Free Energy of Binding    =  -8.43 kcal/mol  [=(1)+(2)+(3)-(4)]
DOCKED: USER
DOCKED: USER    (1) Final Intermolecular Energy     =  -9.92 kcal/mol
DOCKED: USER        vdW + Hbond + desolv Energy     =  -9.80 kcal/mol
DOCKED: USER        Electrostatic Energy            =  -0.12 kcal/mol
DOCKED: USER        Moving Ligand-Fixed Receptor    =  -9.92 kcal/mol
DOCKED: USER        Moving Ligand-Moving Receptor   =  +0.00 kcal/mol
DOCKED: USER    (2) Final Total Internal Energy     =  -1.84 kcal/mol
DOCKED: USER    (3) Torsional Free Energy           =  +1.49 kcal/mol
DOCKED: USER    (4) Unbound System's Energy         =  -1.84 kcal/mol
DOCKED: USER
DOCKED: USER
DOCKED: REMARK SMILES O=C(NCC(=O)N1CCCC[C@@H]1C1CCOCC1)c1ccc2ccccc2n1
DOCKED: REMARK SMILES IDX 4 1 3 2 2 3 1 4 19 6 20 7 28 8 21 9 27 10 22 11 26 12 23 13
DOCKED: REMARK SMILES IDX 25 14 24 15 5 16 6 17 7 18 8 19 12 20 9 21 11 22 10 23 13 24
DOCKED: REMARK SMILES IDX 14 25 18 26 15 27 17 28 16 29
DOCKED: REMARK H PARENT 3 5
DOCKED: USER                              x       y       z     vdW  Elec       q    Type
DOCKED: USER                           _______ _______ _______ _____ _____    ______ ____
DOCKED: ROOT
DOCKED: ATOM      1  C   UNL     1     139.824  74.714 221.278 -0.19 -0.04    +0.216 C  
DOCKED: ENDROOT
DOCKED: BRANCH   1   2
DOCKED: ATOM      2  N   UNL     1     139.531  73.764 222.363 -0.08 +0.06    -0.342 N  
DOCKED: ATOM      3  C   UNL     1     140.421  72.648 222.476 -0.17 -0.02    +0.270 C  
DOCKED: ATOM      4  O   UNL     1     141.356  72.599 221.636 -0.22 +0.02    -0.268 OA 
DOCKED: ATOM      5  H   UNL     1     138.719  73.911 223.003 -0.55 -0.10    +0.164 HD 
DOCKED: BRANCH   3   6
DOCKED: ATOM      6  C   UNL     1     140.230  71.659 223.500 -0.32 -0.02    +0.128 A  
DOCKED: ATOM      7  C   UNL     1     139.574  70.479 223.201 -0.27 -0.01    +0.035 A  
DOCKED: ATOM      8  N   UNL     1     140.681  71.847 224.774 -0.28 +0.03    -0.243 NA 
DOCKED: ATOM      9  C   UNL     1     139.362  69.488 224.153 -0.31 -0.00    +0.013 A  
DOCKED: ATOM     10  C   UNL     1     140.484  70.895 225.712 -0.52 -0.01    +0.071 A  
DOCKED: ATOM     11  C   UNL     1     139.831  69.711 225.431 -0.44 -0.00    +0.000 A  
DOCKED: ATOM     12  C   UNL     1     140.945  71.095 227.002 -0.67 -0.00    +0.029 A  
DOCKED: ATOM     13  C   UNL     1     139.624  68.736 226.372 -0.55 -0.00    +0.010 A  
DOCKED: ATOM     14  C   UNL     1     140.741  70.118 227.958 -0.63 -0.00    +0.002 A  
DOCKED: ATOM     15  C   UNL     1     140.087  68.934 227.674 -0.63 -0.00    +0.001 A  
DOCKED: ENDBRANCH   3   6
DOCKED: ENDBRANCH   1   2
DOCKED: BRANCH   1  16
DOCKED: ATOM     16  C   UNL     1     139.233  76.050 221.595 -0.19 -0.05    +0.242 C  
DOCKED: ATOM     17  O   UNL     1     138.358  76.059 222.495 -0.24 +0.06    -0.273 OA 
DOCKED: BRANCH  16  18
DOCKED: ATOM     18  N   UNL     1     139.688  77.177 220.880 -0.04 +0.09    -0.338 N  
DOCKED: ATOM     19  C   UNL     1     139.326  77.342 219.450 -0.04 -0.03    +0.120 C  
DOCKED: ATOM     20  C   UNL     1     140.518  78.235 221.403 -0.25 -0.03    +0.088 C  
DOCKED: ATOM     21  C   UNL     1     140.500  77.826 218.659 -0.09 -0.01    +0.022 C  
DOCKED: ATOM     22  C   UNL     1     141.873  77.936 220.808 -0.28 -0.02    +0.025 C  
DOCKED: ATOM     23  C   UNL     1     141.805  77.933 219.332 -0.28 -0.00    +0.004 C  
DOCKED: BRANCH  20  24
DOCKED: ATOM     24  C   UNL     1     140.469  78.487 222.848 -0.43 -0.00    +0.016 C  
DOCKED: ATOM     25  C   UNL     1     139.676  79.748 223.097 -0.38 -0.01    +0.034 C  
DOCKED: ATOM     26  C   UNL     1     141.825  78.662 223.493 -0.58 -0.01    +0.034 C  
DOCKED: ATOM     27  C   UNL     1     140.491  81.012 222.866 -0.32 -0.03    +0.160 C  
DOCKED: ATOM     28  C   UNL     1     142.428  80.018 223.302 -0.53 -0.05    +0.160 C  
DOCKED: ATOM     29  O   UNL     1     141.534  81.000 223.789 -0.29 +0.05    -0.381 OA 
DOCKED: ENDBRANCH  20  24
DOCKED: ENDBRANCH  16  18
DOCKED: ENDBRANCH   1  16
DOCKED: TORSDOF 5
DOCKED: TER
DOCKED: ENDMDL
________________________________________________________________________________


    FINAL DOCKED STATE:
    ________________________


Run:   8 / 20
Time taken for this run:   0.026s

DOCKED: MODEL        8
DOCKED: USER    Run = 8
DOCKED: USER
DOCKED: USER    Estimated Free Energy of Binding    =  -8.73 kcal/mol  [=(1)+(2)+(3)-(4)]
DOCKED: USER
DOCKED: USER    (1) Final Intermolecular Energy     = -10.22 kcal/mol
DOCKED: USER        vdW + Hbond + desolv Energy     =  -9.89 kcal/mol
DOCKED: USER        Electrostatic Energy            =  -0.33 kcal/mol
DOCKED: USER        Moving Ligand-Fixed Receptor    = -10.22 kcal/mol
DOCKED: USER        Moving Ligand-Moving Receptor   =  +0.00 kcal/mol
DOCKED: USER    (2) Final Total Internal Energy     =  -1.56 kcal/mol
DOCKED: USER    (3) Torsional Free Energy           =  +1.49 kcal/mol
DOCKED: USER    (4) Unbound System's Energy         =  -1.56 kcal/mol
DOCKED: USER
DOCKED: USER
DOCKED: REMARK SMILES O=C(NCC(=O)N1CCCC[C@@H]1C1CCOCC1)c1ccc2ccccc2n1
DOCKED: REMARK SMILES IDX 4 1 3 2 2 3 1 4 19 6 20 7 28 8 21 9 27 10 22 11 26 12 23 13
DOCKED: REMARK SMILES IDX 25 14 24 15 5 16 6 17 7 18 8 19 12 20 9 21 11 22 10 23 13 24
DOCKED: REMARK SMILES IDX 14 25 18 26 15 27 17 28 16 29
DOCKED: REMARK H PARENT 3 5
DOCKED: USER                              x       y       z     vdW  Elec       q    Type
DOCKED: USER                           _______ _______ _______ _____ _____    ______ ____
DOCKED: ROOT
DOCKED: ATOM      1  C   UNL     1     139.310  73.654 220.807 -0.11 -0.04    +0.216 C  
DOCKED: ENDROOT
DOCKED: BRANCH   1   2
DOCKED: ATOM      2  N   UNL     1     139.509  73.152 222.177 -0.14 +0.07    -0.342 N  
DOCKED: ATOM      3  C   UNL     1     139.681  71.736 222.305 -0.18 -0.05    +0.270 C  
DOCKED: ATOM      4  O   UNL     1     139.643  71.074 221.236 -0.08 +0.05    -0.268 OA 
DOCKED: ATOM      5  H   UNL     1     139.522  73.802 222.992 -0.47 -0.03    +0.164 HD 
DOCKED: BRANCH   3   6
DOCKED: ATOM      6  C   UNL     1     139.883  71.136 223.595 -0.31 -0.02    +0.128 A  
DOCKED: ATOM      7  C   UNL     1     139.569  69.804 223.789 -0.27 -0.01    +0.035 A  
DOCKED: ATOM      8  N   UNL     1     140.380  71.847 224.648 -0.27 +0.04    -0.243 NA 
DOCKED: ATOM      9  C   UNL     1     139.745  69.174 225.016 -0.38 -0.00    +0.013 A  
DOCKED: ATOM     10  C   UNL     1     140.558  71.252 225.848 -0.54 -0.01    +0.071 A  
DOCKED: ATOM     11  C   UNL     1     140.250  69.922 226.059 -0.51 -0.00    +0.000 A  
DOCKED: ATOM     12  C   UNL     1     141.063  71.981 226.910 -0.75 -0.01    +0.029 A  
DOCKED: ATOM     13  C   UNL     1     140.424  69.304 227.270 -0.60 -0.00    +0.010 A  
DOCKED: ATOM     14  C   UNL     1     141.242  71.367 228.134 -0.70 -0.00    +0.002 A  
DOCKED: ATOM     15  C   UNL     1     140.934  70.036 228.345 -0.56 -0.00    +0.001 A  
DOCKED: ENDBRANCH   3   6
DOCKED: ENDBRANCH   1   2
DOCKED: BRANCH   1  16
DOCKED: ATOM     16  C   UNL     1     140.622  73.721 220.093 -0.08 -0.05    +0.242 C  
DOCKED: ATOM     17  O   UNL     1     140.785  72.885 219.172 -0.02 +0.05    -0.273 OA 
DOCKED: BRANCH  16  18
DOCKED: ATOM     18  N   UNL     1     141.560  74.694 220.495 -0.11 +0.10    -0.338 N  
DOCKED: ATOM     19  C   UNL     1     141.092  76.001 221.021 -0.27 -0.04    +0.120 C  
DOCKED: ATOM     20  C   UNL     1     142.996  74.562 220.440 -0.30 -0.03    +0.088 C  
DOCKED: ATOM     21  C   UNL     1     141.922  77.119 220.472 -0.26 -0.01    +0.022 C  
DOCKED: ATOM     22  C   UNL     1     143.375  75.413 219.251 -0.34 -0.01    +0.025 C  
DOCKED: ATOM     23  C   UNL     1     142.932  76.809 219.447 -0.36 -0.00    +0.004 C  
DOCKED: BRANCH  20  24
DOCKED: ATOM     24  C   UNL     1     143.557  73.207 220.491 -0.34 -0.00    +0.016 C  
DOCKED: ATOM     25  C   UNL     1     144.880  73.252 221.217 -0.40 -0.01    +0.034 C  
DOCKED: ATOM     26  C   UNL     1     143.798  72.584 219.135 -0.19 -0.00    +0.034 C  
DOCKED: ATOM     27  C   UNL     1     146.022  73.732 220.333 -0.46 -0.00    +0.160 C  
DOCKED: ATOM     28  C   UNL     1     145.048  73.050 218.457 -0.19 +0.03    +0.160 C  
DOCKED: ATOM     29  O   UNL     1     146.157  72.805 219.301 -0.69 -0.31    -0.381 OA 
DOCKED: ENDBRANCH  20  24
DOCKED: ENDBRANCH  16  18
DOCKED: ENDBRANCH   1  16
DOCKED: TORSDOF 5
DOCKED: TER
DOCKED: ENDMDL
________________________________________________________________________________


    FINAL DOCKED STATE:
    ________________________


Run:   9 / 20
Time taken for this run:   0.026s

DOCKED: MODEL        9
DOCKED: USER    Run = 9
DOCKED: USER
DOCKED: USER    Estimated Free Energy of Binding    =  -8.68 kcal/mol  [=(1)+(2)+(3)-(4)]
DOCKED: USER
DOCKED: USER    (1) Final Intermolecular Energy     = -10.17 kcal/mol
DOCKED: USER        vdW + Hbond + desolv Energy     =  -9.95 kcal/mol
DOCKED: USER        Electrostatic Energy            =  -0.21 kcal/mol
DOCKED: USER        Moving Ligand-Fixed Receptor    = -10.17 kcal/mol
DOCKED: USER        Moving Ligand-Moving Receptor   =  +0.00 kcal/mol
DOCKED: USER    (2) Final Total Internal Energy     =  -1.86 kcal/mol
DOCKED: USER    (3) Torsional Free Energy           =  +1.49 kcal/mol
DOCKED: USER    (4) Unbound System's Energy         =  -1.86 kcal/mol
DOCKED: USER
DOCKED: USER
DOCKED: REMARK SMILES O=C(NCC(=O)N1CCCC[C@@H]1C1CCOCC1)c1ccc2ccccc2n1
DOCKED: REMARK SMILES IDX 4 1 3 2 2 3 1 4 19 6 20 7 28 8 21 9 27 10 22 11 26 12 23 13
DOCKED: REMARK SMILES IDX 25 14 24 15 5 16 6 17 7 18 8 19 12 20 9 21 11 22 10 23 13 24
DOCKED: REMARK SMILES IDX 14 25 18 26 15 27 17 28 16 29
DOCKED: REMARK H PARENT 3 5
DOCKED: USER                              x       y       z     vdW  Elec       q    Type
DOCKED: USER                           _______ _______ _______ _____ _____    ______ ____
DOCKED: ROOT
DOCKED: ATOM      1  C   UNL     1     140.615  73.902 221.007 -0.18 -0.04    +0.216 C  
DOCKED: ENDROOT
DOCKED: BRANCH   1   2
DOCKED: ATOM      2  N   UNL     1     140.268  73.262 222.287 -0.14 +0.02    -0.342 N  
DOCKED: ATOM      3  C   UNL     1     140.576  71.868 222.394 -0.20 -0.03    +0.270 C  
DOCKED: ATOM      4  O   UNL     1     141.109  71.340 221.384 -0.13 +0.03    -0.268 OA 
DOCKED: ATOM      5  H   UNL     1     139.825  73.807 223.059 -0.38 +0.01    +0.164 HD 
DOCKED: BRANCH   3   6
DOCKED: ATOM      6  C   UNL     1     140.281  71.142 223.597 -0.31 -0.02    +0.128 A  
DOCKED: ATOM      7  C   UNL     1     139.577  69.954 223.528 -0.26 -0.01    +0.035 A  
DOCKED: ATOM      8  N   UNL     1     140.679  71.591 224.823 -0.31 +0.03    -0.243 NA 
DOCKED: ATOM      9  C   UNL     1     139.264  69.212 224.662 -0.36 -0.00    +0.013 A  
DOCKED: ATOM     10  C   UNL     1     140.385  70.883 225.936 -0.53 -0.01    +0.071 A  
DOCKED: ATOM     11  C   UNL     1     139.682  69.695 225.884 -0.47 -0.00    +0.000 A  
DOCKED: ATOM     12  C   UNL     1     140.792  71.346 227.174 -0.71 -0.01    +0.029 A  
DOCKED: ATOM     13  C   UNL     1     139.376  68.965 227.003 -0.51 -0.00    +0.010 A  
DOCKED: ATOM     14  C   UNL     1     140.488  70.618 228.308 -0.61 -0.00    +0.002 A  
DOCKED: ATOM     15  C   UNL     1     139.785  69.430 228.255 -0.62 -0.00    +0.001 A  
DOCKED: ENDBRANCH   3   6
DOCKED: ENDBRANCH   1   2
DOCKED: BRANCH   1  16
DOCKED: ATOM     16  C   UNL     1     141.318  75.197 221.259 -0.21 -0.07    +0.242 C  
DOCKED: ATOM     17  O   UNL     1     140.962  75.820 222.288 -0.42 +0.06    -0.273 OA 
DOCKED: BRANCH  16  18
DOCKED: ATOM     18  N   UNL     1     142.307  75.616 220.345 -0.13 +0.17    -0.338 N  
DOCKED: ATOM     19  C   UNL     1     142.327  77.021 219.868 -0.27 -0.08    +0.120 C  
DOCKED: ATOM     20  C   UNL     1     143.349  74.789 219.784 -0.32 -0.04    +0.088 C  
DOCKED: ATOM     21  C   UNL     1     142.610  77.077 218.400 -0.30 -0.01    +0.022 C  
DOCKED: ATOM     22  C   UNL     1     142.867  74.538 218.375 -0.16 -0.01    +0.025 C  
DOCKED: ATOM     23  C   UNL     1     142.690  75.813 217.650 -0.19 -0.00    +0.004 C  
DOCKED: BRANCH  20  24
DOCKED: ATOM     24  C   UNL     1     143.779  73.618 220.557 -0.37 -0.00    +0.016 C  
DOCKED: ATOM     25  C   UNL     1     145.241  73.770 220.902 -0.57 -0.01    +0.034 C  
DOCKED: ATOM     26  C   UNL     1     143.611  72.302 219.833 -0.25 -0.00    +0.034 C  
DOCKED: ATOM     27  C   UNL     1     146.161  73.394 219.749 -0.33 +0.05    +0.160 C  
DOCKED: ATOM     28  C   UNL     1     144.687  72.007 218.834 -0.17 +0.03    +0.160 C  
DOCKED: ATOM     29  O   UNL     1     145.945  72.044 219.479 -0.57 -0.28    -0.381 OA 
DOCKED: ENDBRANCH  20  24
DOCKED: ENDBRANCH  16  18
DOCKED: ENDBRANCH   1  16
DOCKED: TORSDOF 5
DOCKED: TER
DOCKED: ENDMDL
________________________________________________________________________________


    FINAL DOCKED STATE:
    ________________________


Run:   10 / 20
Time taken for this run:   0.026s

DOCKED: MODEL        10
DOCKED: USER    Run = 10
DOCKED: USER
DOCKED: USER    Estimated Free Energy of Binding    =  -8.60 kcal/mol  [=(1)+(2)+(3)-(4)]
DOCKED: USER
DOCKED: USER    (1) Final Intermolecular Energy     = -10.10 kcal/mol
DOCKED: USER        vdW + Hbond + desolv Energy     =  -9.86 kcal/mol
DOCKED: USER        Electrostatic Energy            =  -0.23 kcal/mol
DOCKED: USER        Moving Ligand-Fixed Receptor    = -10.10 kcal/mol
DOCKED: USER        Moving Ligand-Moving Receptor   =  +0.00 kcal/mol
DOCKED: USER    (2) Final Total Internal Energy     =  -1.81 kcal/mol
DOCKED: USER    (3) Torsional Free Energy           =  +1.49 kcal/mol
DOCKED: USER    (4) Unbound System's Energy         =  -1.81 kcal/mol
DOCKED: USER
DOCKED: USER
DOCKED: REMARK SMILES O=C(NCC(=O)N1CCCC[C@@H]1C1CCOCC1)c1ccc2ccccc2n1
DOCKED: REMARK SMILES IDX 4 1 3 2 2 3 1 4 19 6 20 7 28 8 21 9 27 10 22 11 26 12 23 13
DOCKED: REMARK SMILES IDX 25 14 24 15 5 16 6 17 7 18 8 19 12 20 9 21 11 22 10 23 13 24
DOCKED: REMARK SMILES IDX 14 25 18 26 15 27 17 28 16 29
DOCKED: REMARK H PARENT 3 5
DOCKED: USER                              x       y       z     vdW  Elec       q    Type
DOCKED: USER                           _______ _______ _______ _____ _____    ______ ____
DOCKED: ROOT
DOCKED: ATOM      1  C   UNL     1     140.676  73.774 221.023 -0.18 -0.03    +0.216 C  
DOCKED: ENDROOT
DOCKED: BRANCH   1   2
DOCKED: ATOM      2  N   UNL     1     140.325  73.162 222.315 -0.15 +0.02    -0.342 N  
DOCKED: ATOM      3  C   UNL     1     140.569  71.756 222.428 -0.19 -0.03    +0.270 C  
DOCKED: ATOM      4  O   UNL     1     141.056  71.194 221.413 -0.12 +0.03    -0.268 OA 
DOCKED: ATOM      5  H   UNL     1     139.925  73.734 223.091 -0.35 +0.02    +0.164 HD 
DOCKED: BRANCH   3   6
DOCKED: ATOM      6  C   UNL     1     140.265  71.055 223.645 -0.30 -0.02    +0.128 A  
DOCKED: ATOM      7  C   UNL     1     139.531  69.884 223.597 -0.26 -0.01    +0.035 A  
DOCKED: ATOM      8  N   UNL     1     140.682  71.511 224.861 -0.32 +0.03    -0.243 NA 
DOCKED: ATOM      9  C   UNL     1     139.208  69.166 224.743 -0.37 -0.00    +0.013 A  
DOCKED: ATOM     10  C   UNL     1     140.378  70.826 225.986 -0.53 -0.01    +0.071 A  
DOCKED: ATOM     11  C   UNL     1     139.646  69.656 225.956 -0.47 -0.00    +0.000 A  
DOCKED: ATOM     12  C   UNL     1     140.805  71.298 227.214 -0.71 -0.01    +0.029 A  
DOCKED: ATOM     13  C   UNL     1     139.330  68.950 227.087 -0.49 -0.00    +0.010 A  
DOCKED: ATOM     14  C   UNL     1     140.492  70.594 228.361 -0.57 -0.00    +0.002 A  
DOCKED: ATOM     15  C   UNL     1     139.759  69.422 228.330 -0.62 -0.00    +0.001 A  
DOCKED: ENDBRANCH   3   6
DOCKED: ENDBRANCH   1   2
DOCKED: BRANCH   1  16
DOCKED: ATOM     16  C   UNL     1     141.166  75.170 221.236 -0.22 -0.06    +0.242 C  
DOCKED: ATOM     17  O   UNL     1     140.602  75.811 222.156 -0.44 +0.05    -0.273 OA 
DOCKED: BRANCH  16  18
DOCKED: ATOM     18  N   UNL     1     142.199  75.657 220.409 -0.13 +0.16    -0.338 N  
DOCKED: ATOM     19  C   UNL     1     142.263  77.101 220.076 -0.26 -0.08    +0.120 C  
DOCKED: ATOM     20  C   UNL     1     143.249  74.867 219.811 -0.32 -0.04    +0.088 C  
DOCKED: ATOM     21  C   UNL     1     142.610  77.296 218.633 -0.32 -0.01    +0.022 C  
DOCKED: ATOM     22  C   UNL     1     142.823  74.767 218.366 -0.17 -0.01    +0.025 C  
DOCKED: ATOM     23  C   UNL     1     142.699  76.111 217.765 -0.22 -0.00    +0.004 C  
DOCKED: BRANCH  20  24
DOCKED: ATOM     24  C   UNL     1     143.625  73.616 220.480 -0.37 -0.00    +0.016 C  
DOCKED: ATOM     25  C   UNL     1     145.024  73.758 221.030 -0.45 -0.01    +0.034 C  
DOCKED: ATOM     26  C   UNL     1     143.606  72.402 219.580 -0.22 -0.00    +0.034 C  
DOCKED: ATOM     27  C   UNL     1     146.098  73.558 219.970 -0.34 +0.02    +0.160 C  
DOCKED: ATOM     28  C   UNL     1     144.811  72.267 218.702 -0.18 +0.03    +0.160 C  
DOCKED: ATOM     29  O   UNL     1     145.975  72.250 219.506 -0.61 -0.27    -0.381 OA 
DOCKED: ENDBRANCH  20  24
DOCKED: ENDBRANCH  16  18
DOCKED: ENDBRANCH   1  16
DOCKED: TORSDOF 5
DOCKED: TER
DOCKED: ENDMDL
________________________________________________________________________________


    FINAL DOCKED STATE:
    ________________________


Run:   11 / 20
Time taken for this run:   0.026s

DOCKED: MODEL        11
DOCKED: USER    Run = 11
DOCKED: USER
DOCKED: USER    Estimated Free Energy of Binding    =  -8.15 kcal/mol  [=(1)+(2)+(3)-(4)]
DOCKED: USER
DOCKED: USER    (1) Final Intermolecular Energy     =  -9.65 kcal/mol
DOCKED: USER        vdW + Hbond + desolv Energy     =  -9.53 kcal/mol
DOCKED: USER        Electrostatic Energy            =  -0.11 kcal/mol
DOCKED: USER        Moving Ligand-Fixed Receptor    =  -9.65 kcal/mol
DOCKED: USER        Moving Ligand-Moving Receptor   =  +0.00 kcal/mol
DOCKED: USER    (2) Final Total Internal Energy     =  -1.86 kcal/mol
DOCKED: USER    (3) Torsional Free Energy           =  +1.49 kcal/mol
DOCKED: USER    (4) Unbound System's Energy         =  -1.86 kcal/mol
DOCKED: USER
DOCKED: USER
DOCKED: REMARK SMILES O=C(NCC(=O)N1CCCC[C@@H]1C1CCOCC1)c1ccc2ccccc2n1
DOCKED: REMARK SMILES IDX 4 1 3 2 2 3 1 4 19 6 20 7 28 8 21 9 27 10 22 11 26 12 23 13
DOCKED: REMARK SMILES IDX 25 14 24 15 5 16 6 17 7 18 8 19 12 20 9 21 11 22 10 23 13 24
DOCKED: REMARK SMILES IDX 14 25 18 26 15 27 17 28 16 29
DOCKED: REMARK H PARENT 3 5
DOCKED: USER                              x       y       z     vdW  Elec       q    Type
DOCKED: USER                           _______ _______ _______ _____ _____    ______ ____
DOCKED: ROOT
DOCKED: ATOM      1  C   UNL     1     139.985  74.872 221.229 -0.20 -0.04    +0.216 C  
DOCKED: ENDROOT
DOCKED: BRANCH   1   2
DOCKED: ATOM      2  N   UNL     1     139.702  73.930 222.324 -0.08 +0.04    -0.342 N  
DOCKED: ATOM      3  C   UNL     1     140.395  72.678 222.268 -0.20 -0.02    +0.270 C  
DOCKED: ATOM      4  O   UNL     1     141.170  72.518 221.290 -0.18 +0.03    -0.268 OA 
DOCKED: ATOM      5  H   UNL     1     139.034  74.176 223.087 -0.56 -0.08    +0.164 HD 
DOCKED: BRANCH   3   6
DOCKED: ATOM      6  C   UNL     1     140.195  71.684 223.284 -0.31 -0.02    +0.128 A  
DOCKED: ATOM      7  C   UNL     1     139.626  70.468 222.953 -0.24 -0.01    +0.035 A  
DOCKED: ATOM      8  N   UNL     1     140.554  71.901 224.583 -0.25 +0.03    -0.243 NA 
DOCKED: ATOM      9  C   UNL     1     139.410  69.470 223.897 -0.27 -0.00    +0.013 A  
DOCKED: ATOM     10  C   UNL     1     140.352  70.943 225.514 -0.50 -0.01    +0.071 A  
DOCKED: ATOM     11  C   UNL     1     139.784  69.723 225.200 -0.42 -0.00    +0.000 A  
DOCKED: ATOM     12  C   UNL     1     140.719  71.172 226.828 -0.67 -0.00    +0.029 A  
DOCKED: ATOM     13  C   UNL     1     139.573  68.742 226.133 -0.52 -0.00    +0.010 A  
DOCKED: ATOM     14  C   UNL     1     140.510  70.189 227.776 -0.63 -0.00    +0.002 A  
DOCKED: ATOM     15  C   UNL     1     139.942  68.969 227.461 -0.62 -0.00    +0.001 A  
DOCKED: ENDBRANCH   3   6
DOCKED: ENDBRANCH   1   2
DOCKED: BRANCH   1  16
DOCKED: ATOM     16  C   UNL     1     139.240  76.149 221.449 -0.18 -0.06    +0.242 C  
DOCKED: ATOM     17  O   UNL     1     138.270  76.084 222.243 -0.21 +0.06    -0.273 OA 
DOCKED: BRANCH  16  18
DOCKED: ATOM     18  N   UNL     1     139.668  77.307 220.768 -0.04 +0.09    -0.338 N  
DOCKED: ATOM     19  C   UNL     1     139.334  77.488 219.333 -0.04 -0.03    +0.120 C  
DOCKED: ATOM     20  C   UNL     1     140.444  78.386 221.332 -0.24 -0.03    +0.088 C  
DOCKED: ATOM     21  C   UNL     1     140.508  78.032 218.581 -0.09 -0.01    +0.022 C  
DOCKED: ATOM     22  C   UNL     1     141.823  78.150 220.765 -0.32 -0.02    +0.025 C  
DOCKED: ATOM     23  C   UNL     1     141.791  78.176 219.288 -0.28 -0.00    +0.004 C  
DOCKED: BRANCH  20  24
DOCKED: ATOM     24  C   UNL     1     140.350  78.606 222.780 -0.42 -0.00    +0.016 C  
DOCKED: ATOM     25  C   UNL     1     139.617  79.901 223.031 -0.37 -0.01    +0.034 C  
DOCKED: ATOM     26  C   UNL     1     141.686  78.690 223.482 -0.58 -0.01    +0.034 C  
DOCKED: ATOM     27  C   UNL     1     140.507  81.124 222.864 -0.31 -0.02    +0.160 C  
DOCKED: ATOM     28  C   UNL     1     142.369  80.016 223.349 -0.53 -0.05    +0.160 C  
DOCKED: ATOM     29  O   UNL     1     141.510  81.033 223.827 -0.29 +0.05    -0.381 OA 
DOCKED: ENDBRANCH  20  24
DOCKED: ENDBRANCH  16  18
DOCKED: ENDBRANCH   1  16
DOCKED: TORSDOF 5
DOCKED: TER
DOCKED: ENDMDL
________________________________________________________________________________


    FINAL DOCKED STATE:
    ________________________


Run:   12 / 20
Time taken for this run:   0.026s

DOCKED: MODEL        12
DOCKED: USER    Run = 12
DOCKED: USER
DOCKED: USER    Estimated Free Energy of Binding    =  -8.72 kcal/mol  [=(1)+(2)+(3)-(4)]
DOCKED: USER
DOCKED: USER    (1) Final Intermolecular Energy     = -10.21 kcal/mol
DOCKED: USER        vdW + Hbond + desolv Energy     =  -9.99 kcal/mol
DOCKED: USER        Electrostatic Energy            =  -0.22 kcal/mol
DOCKED: USER        Moving Ligand-Fixed Receptor    = -10.21 kcal/mol
DOCKED: USER        Moving Ligand-Moving Receptor   =  +0.00 kcal/mol
DOCKED: USER    (2) Final Total Internal Energy     =  -1.85 kcal/mol
DOCKED: USER    (3) Torsional Free Energy           =  +1.49 kcal/mol
DOCKED: USER    (4) Unbound System's Energy         =  -1.85 kcal/mol
DOCKED: USER
DOCKED: USER
DOCKED: REMARK SMILES O=C(NCC(=O)N1CCCC[C@@H]1C1CCOCC1)c1ccc2ccccc2n1
DOCKED: REMARK SMILES IDX 4 1 3 2 2 3 1 4 19 6 20 7 28 8 21 9 27 10 22 11 26 12 23 13
DOCKED: REMARK SMILES IDX 25 14 24 15 5 16 6 17 7 18 8 19 12 20 9 21 11 22 10 23 13 24
DOCKED: REMARK SMILES IDX 14 25 18 26 15 27 17 28 16 29
DOCKED: REMARK H PARENT 3 5
DOCKED: USER                              x       y       z     vdW  Elec       q    Type
DOCKED: USER                           _______ _______ _______ _____ _____    ______ ____
DOCKED: ROOT
DOCKED: ATOM      1  C   UNL     1     140.558  73.986 221.004 -0.18 -0.04    +0.216 C  
DOCKED: ENDROOT
DOCKED: BRANCH   1   2
DOCKED: ATOM      2  N   UNL     1     140.225  73.342 222.286 -0.13 +0.02    -0.342 N  
DOCKED: ATOM      3  C   UNL     1     140.597  71.965 222.410 -0.20 -0.03    +0.270 C  
DOCKED: ATOM      4  O   UNL     1     141.168  71.454 221.412 -0.13 +0.03    -0.268 OA 
DOCKED: ATOM      5  H   UNL     1     139.746  73.873 223.046 -0.41 +0.00    +0.164 HD 
DOCKED: BRANCH   3   6
DOCKED: ATOM      6  C   UNL     1     140.320  71.237 223.616 -0.32 -0.02    +0.128 A  
DOCKED: ATOM      7  C   UNL     1     139.640  70.035 223.552 -0.25 -0.01    +0.035 A  
DOCKED: ATOM      8  N   UNL     1     140.712  71.698 224.840 -0.29 +0.03    -0.243 NA 
DOCKED: ATOM      9  C   UNL     1     139.346  69.290 224.689 -0.36 -0.00    +0.013 A  
DOCKED: ATOM     10  C   UNL     1     140.435  70.987 225.955 -0.54 -0.01    +0.071 A  
DOCKED: ATOM     11  C   UNL     1     139.757  69.785 225.909 -0.47 -0.00    +0.000 A  
DOCKED: ATOM     12  C   UNL     1     140.836  71.463 227.191 -0.73 -0.01    +0.029 A  
DOCKED: ATOM     13  C   UNL     1     139.469  69.053 227.031 -0.53 -0.00    +0.010 A  
DOCKED: ATOM     14  C   UNL     1     140.550  70.732 228.328 -0.61 -0.00    +0.002 A  
DOCKED: ATOM     15  C   UNL     1     139.871  69.529 228.281 -0.63 -0.00    +0.001 A  
DOCKED: ENDBRANCH   3   6
DOCKED: ENDBRANCH   1   2
DOCKED: BRANCH   1  16
DOCKED: ATOM     16  C   UNL     1     141.341  75.236 221.250 -0.21 -0.07    +0.242 C  
DOCKED: ATOM     17  O   UNL     1     141.054  75.861 222.300 -0.40 +0.07    -0.273 OA 
DOCKED: BRANCH  16  18
DOCKED: ATOM     18  N   UNL     1     142.320  75.616 220.310 -0.13 +0.17    -0.338 N  
DOCKED: ATOM     19  C   UNL     1     142.369  77.014 219.815 -0.27 -0.08    +0.120 C  
DOCKED: ATOM     20  C   UNL     1     143.325  74.752 219.736 -0.31 -0.04    +0.088 C  
DOCKED: ATOM     21  C   UNL     1     142.621  77.044 218.340 -0.30 -0.01    +0.022 C  
DOCKED: ATOM     22  C   UNL     1     142.804  74.499 218.342 -0.15 -0.01    +0.025 C  
DOCKED: ATOM     23  C   UNL     1     142.647  75.770 217.604 -0.18 -0.00    +0.004 C  
DOCKED: BRANCH  20  24
DOCKED: ATOM     24  C   UNL     1     143.738  73.579 220.513 -0.37 -0.00    +0.016 C  
DOCKED: ATOM     25  C   UNL     1     145.184  73.743 220.914 -0.55 -0.01    +0.034 C  
DOCKED: ATOM     26  C   UNL     1     143.612  72.268 219.771 -0.24 -0.00    +0.034 C  
DOCKED: ATOM     27  C   UNL     1     146.151  73.387 219.793 -0.35 +0.05    +0.160 C  
DOCKED: ATOM     28  C   UNL     1     144.727  71.994 218.811 -0.17 +0.03    +0.160 C  
DOCKED: ATOM     29  O   UNL     1     145.961  72.038 219.503 -0.56 -0.28    -0.381 OA 
DOCKED: ENDBRANCH  20  24
DOCKED: ENDBRANCH  16  18
DOCKED: ENDBRANCH   1  16
DOCKED: TORSDOF 5
DOCKED: TER
DOCKED: ENDMDL
________________________________________________________________________________


    FINAL DOCKED STATE:
    ________________________


Run:   13 / 20
Time taken for this run:   0.026s

DOCKED: MODEL        13
DOCKED: USER    Run = 13
DOCKED: USER
DOCKED: USER    Estimated Free Energy of Binding    =  -8.53 kcal/mol  [=(1)+(2)+(3)-(4)]
DOCKED: USER
DOCKED: USER    (1) Final Intermolecular Energy     = -10.02 kcal/mol
DOCKED: USER        vdW + Hbond + desolv Energy     =  -9.91 kcal/mol
DOCKED: USER        Electrostatic Energy            =  -0.12 kcal/mol
DOCKED: USER        Moving Ligand-Fixed Receptor    = -10.02 kcal/mol
DOCKED: USER        Moving Ligand-Moving Receptor   =  +0.00 kcal/mol
DOCKED: USER    (2) Final Total Internal Energy     =  -1.52 kcal/mol
DOCKED: USER    (3) Torsional Free Energy           =  +1.49 kcal/mol
DOCKED: USER    (4) Unbound System's Energy         =  -1.52 kcal/mol
DOCKED: USER
DOCKED: USER
DOCKED: REMARK SMILES O=C(NCC(=O)N1CCCC[C@@H]1C1CCOCC1)c1ccc2ccccc2n1
DOCKED: REMARK SMILES IDX 4 1 3 2 2 3 1 4 19 6 20 7 28 8 21 9 27 10 22 11 26 12 23 13
DOCKED: REMARK SMILES IDX 25 14 24 15 5 16 6 17 7 18 8 19 12 20 9 21 11 22 10 23 13 24
DOCKED: REMARK SMILES IDX 14 25 18 26 15 27 17 28 16 29
DOCKED: REMARK H PARENT 3 5
DOCKED: USER                              x       y       z     vdW  Elec       q    Type
DOCKED: USER                           _______ _______ _______ _____ _____    ______ ____
DOCKED: ROOT
DOCKED: ATOM      1  C   UNL     1     139.554  74.579 221.275 -0.18 -0.04    +0.216 C  
DOCKED: ENDROOT
DOCKED: BRANCH   1   2
DOCKED: ATOM      2  N   UNL     1     139.287  73.605 222.346 -0.09 +0.08    -0.342 N  
DOCKED: ATOM      3  C   UNL     1     140.326  72.652 222.597 -0.17 -0.02    +0.270 C  
DOCKED: ATOM      4  O   UNL     1     141.353  72.748 221.876 -0.27 +0.01    -0.268 OA 
DOCKED: ATOM      5  H   UNL     1     138.391  73.623 222.880 -0.54 -0.10    +0.164 HD 
DOCKED: BRANCH   3   6
DOCKED: ATOM      6  C   UNL     1     140.173  71.654 223.619 -0.33 -0.02    +0.128 A  
DOCKED: ATOM      7  C   UNL     1     139.513  70.473 223.334 -0.28 -0.01    +0.035 A  
DOCKED: ATOM      8  N   UNL     1     140.665  71.836 224.879 -0.28 +0.03    -0.243 NA 
DOCKED: ATOM      9  C   UNL     1     139.338  69.475 224.286 -0.32 -0.00    +0.013 A  
DOCKED: ATOM     10  C   UNL     1     140.504  70.877 225.817 -0.53 -0.01    +0.071 A  
DOCKED: ATOM     11  C   UNL     1     139.847  69.692 225.549 -0.45 -0.00    +0.000 A  
DOCKED: ATOM     12  C   UNL     1     141.006  71.070 227.092 -0.67 -0.00    +0.029 A  
DOCKED: ATOM     13  C   UNL     1     139.676  68.709 226.489 -0.56 -0.00    +0.010 A  
DOCKED: ATOM     14  C   UNL     1     140.838  70.086 228.047 -0.61 -0.00    +0.002 A  
DOCKED: ATOM     15  C   UNL     1     140.181  68.901 227.777 -0.64 -0.00    +0.001 A  
DOCKED: ENDBRANCH   3   6
DOCKED: ENDBRANCH   1   2
DOCKED: BRANCH   1  16
DOCKED: ATOM     16  C   UNL     1     139.366  75.969 221.791 -0.22 -0.05    +0.242 C  
DOCKED: ATOM     17  O   UNL     1     138.870  76.061 222.941 -0.25 +0.06    -0.273 OA 
DOCKED: BRANCH  16  18
DOCKED: ATOM     18  N   UNL     1     139.747  77.052 220.972 -0.05 +0.09    -0.338 N  
DOCKED: ATOM     19  C   UNL     1     139.389  77.053 219.532 -0.05 -0.03    +0.120 C  
DOCKED: ATOM     20  C   UNL     1     140.495  78.212 221.394 -0.25 -0.03    +0.088 C  
DOCKED: ATOM     21  C   UNL     1     140.535  77.541 218.702 -0.09 -0.01    +0.022 C  
DOCKED: ATOM     22  C   UNL     1     141.874  77.954 220.836 -0.28 -0.02    +0.025 C  
DOCKED: ATOM     23  C   UNL     1     141.822  77.805 219.366 -0.28 -0.00    +0.004 C  
DOCKED: BRANCH  20  24
DOCKED: ATOM     24  C   UNL     1     140.413  78.598 222.807 -0.43 -0.00    +0.016 C  
DOCKED: ATOM     25  C   UNL     1     139.776  79.963 222.906 -0.36 -0.01    +0.034 C  
DOCKED: ATOM     26  C   UNL     1     141.750  78.663 223.511 -0.58 -0.01    +0.034 C  
DOCKED: ATOM     27  C   UNL     1     140.754  81.092 222.615 -0.33 -0.03    +0.160 C  
DOCKED: ATOM     28  C   UNL     1     142.528  79.912 223.240 -0.53 -0.05    +0.160 C  
DOCKED: ATOM     29  O   UNL     1     141.744  81.036 223.593 -0.30 +0.06    -0.381 OA 
DOCKED: ENDBRANCH  20  24
DOCKED: ENDBRANCH  16  18
DOCKED: ENDBRANCH   1  16
DOCKED: TORSDOF 5
DOCKED: TER
DOCKED: ENDMDL
________________________________________________________________________________


    FINAL DOCKED STATE:
    ________________________


Run:   14 / 20
Time taken for this run:   0.026s

DOCKED: MODEL        14
DOCKED: USER    Run = 14
DOCKED: USER
DOCKED: USER    Estimated Free Energy of Binding    =  -8.72 kcal/mol  [=(1)+(2)+(3)-(4)]
DOCKED: USER
DOCKED: USER    (1) Final Intermolecular Energy     = -10.21 kcal/mol
DOCKED: USER        vdW + Hbond + desolv Energy     =  -9.98 kcal/mol
DOCKED: USER        Electrostatic Energy            =  -0.22 kcal/mol
DOCKED: USER        Moving Ligand-Fixed Receptor    = -10.21 kcal/mol
DOCKED: USER        Moving Ligand-Moving Receptor   =  +0.00 kcal/mol
DOCKED: USER    (2) Final Total Internal Energy     =  -1.84 kcal/mol
DOCKED: USER    (3) Torsional Free Energy           =  +1.49 kcal/mol
DOCKED: USER    (4) Unbound System's Energy         =  -1.84 kcal/mol
DOCKED: USER
DOCKED: USER
DOCKED: REMARK SMILES O=C(NCC(=O)N1CCCC[C@@H]1C1CCOCC1)c1ccc2ccccc2n1
DOCKED: REMARK SMILES IDX 4 1 3 2 2 3 1 4 19 6 20 7 28 8 21 9 27 10 22 11 26 12 23 13
DOCKED: REMARK SMILES IDX 25 14 24 15 5 16 6 17 7 18 8 19 12 20 9 21 11 22 10 23 13 24
DOCKED: REMARK SMILES IDX 14 25 18 26 15 27 17 28 16 29
DOCKED: REMARK H PARENT 3 5
DOCKED: USER                              x       y       z     vdW  Elec       q    Type
DOCKED: USER                           _______ _______ _______ _____ _____    ______ ____
DOCKED: ROOT
DOCKED: ATOM      1  C   UNL     1     140.518  74.008 221.022 -0.18 -0.04    +0.216 C  
DOCKED: ENDROOT
DOCKED: BRANCH   1   2
DOCKED: ATOM      2  N   UNL     1     140.174  73.365 222.301 -0.13 +0.02    -0.342 N  
DOCKED: ATOM      3  C   UNL     1     140.566  71.995 222.438 -0.20 -0.03    +0.270 C  
DOCKED: ATOM      4  O   UNL     1     141.162  71.488 221.452 -0.14 +0.03    -0.268 OA 
DOCKED: ATOM      5  H   UNL     1     139.674  73.891 223.051 -0.44 -0.01    +0.164 HD 
DOCKED: BRANCH   3   6
DOCKED: ATOM      6  C   UNL     1     140.282  71.268 223.643 -0.32 -0.02    +0.128 A  
DOCKED: ATOM      7  C   UNL     1     139.592  70.072 223.577 -0.27 -0.01    +0.035 A  
DOCKED: ATOM      8  N   UNL     1     140.676  71.724 224.868 -0.30 +0.03    -0.243 NA 
DOCKED: ATOM      9  C   UNL     1     139.291  69.328 224.713 -0.36 -0.00    +0.013 A  
DOCKED: ATOM     10  C   UNL     1     140.392  71.015 225.982 -0.54 -0.01    +0.071 A  
DOCKED: ATOM     11  C   UNL     1     139.703  69.818 225.934 -0.47 -0.00    +0.000 A  
DOCKED: ATOM     12  C   UNL     1     140.795  71.486 227.219 -0.74 -0.01    +0.029 A  
DOCKED: ATOM     13  C   UNL     1     139.408  69.087 227.055 -0.52 -0.00    +0.010 A  
DOCKED: ATOM     14  C   UNL     1     140.501  70.757 228.355 -0.59 -0.00    +0.002 A  
DOCKED: ATOM     15  C   UNL     1     139.813  69.560 228.305 -0.62 -0.00    +0.001 A  
DOCKED: ENDBRANCH   3   6
DOCKED: ENDBRANCH   1   2
DOCKED: BRANCH   1  16
DOCKED: ATOM     16  C   UNL     1     141.291  75.263 221.274 -0.21 -0.07    +0.242 C  
DOCKED: ATOM     17  O   UNL     1     140.989  75.888 222.320 -0.41 +0.07    -0.273 OA 
DOCKED: BRANCH  16  18
DOCKED: ATOM     18  N   UNL     1     142.278  75.647 220.343 -0.13 +0.17    -0.338 N  
DOCKED: ATOM     19  C   UNL     1     142.357  77.057 219.887 -0.26 -0.08    +0.120 C  
DOCKED: ATOM     20  C   UNL     1     143.262  74.777 219.744 -0.31 -0.04    +0.088 C  
DOCKED: ATOM     21  C   UNL     1     142.609  77.122 218.413 -0.31 -0.01    +0.022 C  
DOCKED: ATOM     22  C   UNL     1     142.735  74.574 218.344 -0.14 -0.01    +0.025 C  
DOCKED: ATOM     23  C   UNL     1     142.606  75.868 217.642 -0.18 -0.00    +0.004 C  
DOCKED: BRANCH  20  24
DOCKED: ATOM     24  C   UNL     1     143.650  73.574 220.488 -0.37 -0.00    +0.016 C  
DOCKED: ATOM     25  C   UNL     1     145.073  73.732 220.967 -0.50 -0.01    +0.034 C  
DOCKED: ATOM     26  C   UNL     1     143.575  72.296 219.684 -0.23 -0.00    +0.034 C  
DOCKED: ATOM     27  C   UNL     1     146.097  73.436 219.881 -0.36 +0.03    +0.160 C  
DOCKED: ATOM     28  C   UNL     1     144.738  72.076 218.769 -0.17 +0.03    +0.160 C  
DOCKED: ATOM     29  O   UNL     1     145.936  72.099 219.522 -0.57 -0.26    -0.381 OA 
DOCKED: ENDBRANCH  20  24
DOCKED: ENDBRANCH  16  18
DOCKED: ENDBRANCH   1  16
DOCKED: TORSDOF 5
DOCKED: TER
DOCKED: ENDMDL
________________________________________________________________________________


    FINAL DOCKED STATE:
    ________________________


Run:   15 / 20
Time taken for this run:   0.026s

DOCKED: MODEL        15
DOCKED: USER    Run = 15
DOCKED: USER
DOCKED: USER    Estimated Free Energy of Binding    =  -6.95 kcal/mol  [=(1)+(2)+(3)-(4)]
DOCKED: USER
DOCKED: USER    (1) Final Intermolecular Energy     =  -8.44 kcal/mol
DOCKED: USER        vdW + Hbond + desolv Energy     =  -8.45 kcal/mol
DOCKED: USER        Electrostatic Energy            =  +0.00 kcal/mol
DOCKED: USER        Moving Ligand-Fixed Receptor    =  -8.44 kcal/mol
DOCKED: USER        Moving Ligand-Moving Receptor   =  +0.00 kcal/mol
DOCKED: USER    (2) Final Total Internal Energy     =  -2.18 kcal/mol
DOCKED: USER    (3) Torsional Free Energy           =  +1.49 kcal/mol
DOCKED: USER    (4) Unbound System's Energy         =  -2.18 kcal/mol
DOCKED: USER
DOCKED: USER
DOCKED: REMARK SMILES O=C(NCC(=O)N1CCCC[C@@H]1C1CCOCC1)c1ccc2ccccc2n1
DOCKED: REMARK SMILES IDX 4 1 3 2 2 3 1 4 19 6 20 7 28 8 21 9 27 10 22 11 26 12 23 13
DOCKED: REMARK SMILES IDX 25 14 24 15 5 16 6 17 7 18 8 19 12 20 9 21 11 22 10 23 13 24
DOCKED: REMARK SMILES IDX 14 25 18 26 15 27 17 28 16 29
DOCKED: REMARK H PARENT 3 5
DOCKED: USER                              x       y       z     vdW  Elec       q    Type
DOCKED: USER                           _______ _______ _______ _____ _____    ______ ____
DOCKED: ROOT
DOCKED: ATOM      1  C   UNL     1     139.318  76.716 222.549 -0.16 -0.04    +0.216 C  
DOCKED: ENDROOT
DOCKED: BRANCH   1   2
DOCKED: ATOM      2  N   UNL     1     140.548  75.997 222.180 -0.20 +0.08    -0.342 N  
DOCKED: ATOM      3  C   UNL     1     140.364  74.721 221.558 -0.21 -0.04    +0.270 C  
DOCKED: ATOM      4  O   UNL     1     139.172  74.351 221.394 -0.19 +0.06    -0.268 OA 
DOCKED: ATOM      5  H   UNL     1     141.489  76.407 222.367 -0.33 -0.08    +0.164 HD 
DOCKED: BRANCH   3   6
DOCKED: ATOM      6  C   UNL     1     141.495  73.931 221.155 -0.23 -0.02    +0.128 A  
DOCKED: ATOM      7  C   UNL     1     141.336  72.580 220.910 -0.22 -0.00    +0.035 A  
DOCKED: ATOM      8  N   UNL     1     142.736  74.478 221.003 -0.09 +0.08    -0.243 NA 
DOCKED: ATOM      9  C   UNL     1     142.396  71.770 220.518 -0.22 -0.00    +0.013 A  
DOCKED: ATOM     10  C   UNL     1     143.777  73.707 220.623 -0.34 -0.02    +0.071 A  
DOCKED: ATOM     11  C   UNL     1     143.637  72.355 220.374 -0.32 -0.00    +0.000 A  
DOCKED: ATOM     12  C   UNL     1     145.032  74.270 220.472 -0.52 -0.01    +0.029 A  
DOCKED: ATOM     13  C   UNL     1     144.683  71.560 219.988 -0.27 +0.00    +0.010 A  
DOCKED: ATOM     14  C   UNL     1     146.094  73.477 220.084 -0.56 +0.00    +0.002 A  
DOCKED: ATOM     15  C   UNL     1     145.952  72.124 219.835 -0.38 +0.00    +0.001 A  
DOCKED: ENDBRANCH   3   6
DOCKED: ENDBRANCH   1   2
DOCKED: BRANCH   1  16
DOCKED: ATOM     16  C   UNL     1     139.566  78.190 222.538 -0.22 -0.05    +0.242 C  
DOCKED: ATOM     17  O   UNL     1     138.552  78.914 222.685 -0.16 +0.05    -0.273 OA 
DOCKED: BRANCH  16  18
DOCKED: ATOM     18  N   UNL     1     140.888  78.651 222.368 -0.17 +0.11    -0.338 N  
DOCKED: ATOM     19  C   UNL     1     141.798  78.740 223.538 -0.51 -0.04    +0.120 C  
DOCKED: ATOM     20  C   UNL     1     141.483  79.081 221.125 -0.31 -0.04    +0.088 C  
DOCKED: ATOM     21  C   UNL     1     142.595  80.005 223.493 -0.64 -0.01    +0.022 C  
DOCKED: ATOM     22  C   UNL     1     141.509  80.584 221.257 -0.38 -0.01    +0.025 C  
DOCKED: ATOM     23  C   UNL     1     142.293  80.990 222.442 -0.50 -0.00    +0.004 C  
DOCKED: BRANCH  20  24
DOCKED: ATOM     24  C   UNL     1     140.930  78.533 219.881 -0.21 -0.01    +0.016 C  
DOCKED: ATOM     25  C   UNL     1     141.485  77.145 219.669 -0.23 -0.02    +0.034 C  
DOCKED: ATOM     26  C   UNL     1     141.249  79.349 218.649 -0.19 -0.02    +0.034 C  
DOCKED: ATOM     27  C   UNL     1     142.890  77.154 219.085 -0.26 -0.11    +0.160 C  
DOCKED: ATOM     28  C   UNL     1     142.626  79.130 218.105 -0.24 -0.15    +0.160 C  
DOCKED: ATOM     29  O   UNL     1     142.806  77.754 217.830 -0.20 +0.30    -0.381 OA 
DOCKED: ENDBRANCH  20  24
DOCKED: ENDBRANCH  16  18
DOCKED: ENDBRANCH   1  16
DOCKED: TORSDOF 5
DOCKED: TER
DOCKED: ENDMDL
________________________________________________________________________________


    FINAL DOCKED STATE:
    ________________________


Run:   16 / 20
Time taken for this run:   0.026s

DOCKED: MODEL        16
DOCKED: USER    Run = 16
DOCKED: USER
DOCKED: USER    Estimated Free Energy of Binding    =  -8.77 kcal/mol  [=(1)+(2)+(3)-(4)]
DOCKED: USER
DOCKED: USER    (1) Final Intermolecular Energy     = -10.26 kcal/mol
DOCKED: USER        vdW + Hbond + desolv Energy     = -10.02 kcal/mol
DOCKED: USER        Electrostatic Energy            =  -0.24 kcal/mol
DOCKED: USER        Moving Ligand-Fixed Receptor    = -10.26 kcal/mol
DOCKED: USER        Moving Ligand-Moving Receptor   =  +0.00 kcal/mol
DOCKED: USER    (2) Final Total Internal Energy     =  -1.80 kcal/mol
DOCKED: USER    (3) Torsional Free Energy           =  +1.49 kcal/mol
DOCKED: USER    (4) Unbound System's Energy         =  -1.80 kcal/mol
DOCKED: USER
DOCKED: USER
DOCKED: REMARK SMILES O=C(NCC(=O)N1CCCC[C@@H]1C1CCOCC1)c1ccc2ccccc2n1
DOCKED: REMARK SMILES IDX 4 1 3 2 2 3 1 4 19 6 20 7 28 8 21 9 27 10 22 11 26 12 23 13
DOCKED: REMARK SMILES IDX 25 14 24 15 5 16 6 17 7 18 8 19 12 20 9 21 11 22 10 23 13 24
DOCKED: REMARK SMILES IDX 14 25 18 26 15 27 17 28 16 29
DOCKED: REMARK H PARENT 3 5
DOCKED: USER                              x       y       z     vdW  Elec       q    Type
DOCKED: USER                           _______ _______ _______ _____ _____    ______ ____
DOCKED: ROOT
DOCKED: ATOM      1  C   UNL     1     140.567  74.024 220.981 -0.18 -0.04    +0.216 C  
DOCKED: ENDROOT
DOCKED: BRANCH   1   2
DOCKED: ATOM      2  N   UNL     1     140.180  73.380 222.247 -0.14 +0.02    -0.342 N  
DOCKED: ATOM      3  C   UNL     1     140.626  72.031 222.425 -0.20 -0.03    +0.270 C  
DOCKED: ATOM      4  O   UNL     1     141.299  71.541 221.482 -0.15 +0.03    -0.268 OA 
DOCKED: ATOM      5  H   UNL     1     139.616  73.891 222.961 -0.43 -0.02    +0.164 HD 
DOCKED: BRANCH   3   6
DOCKED: ATOM      6  C   UNL     1     140.307  71.306 223.623 -0.32 -0.02    +0.128 A  
DOCKED: ATOM      7  C   UNL     1     139.592  70.125 223.541 -0.27 -0.01    +0.035 A  
DOCKED: ATOM      8  N   UNL     1     140.692  71.748 224.855 -0.29 +0.03    -0.243 NA 
DOCKED: ATOM      9  C   UNL     1     139.257  69.383 224.669 -0.36 -0.00    +0.013 A  
DOCKED: ATOM     10  C   UNL     1     140.375  71.041 225.962 -0.53 -0.01    +0.071 A  
DOCKED: ATOM     11  C   UNL     1     139.661  69.860 225.898 -0.47 -0.00    +0.000 A  
DOCKED: ATOM     12  C   UNL     1     140.769  71.498 227.207 -0.74 -0.01    +0.029 A  
DOCKED: ATOM     13  C   UNL     1     139.332  69.131 227.011 -0.50 -0.00    +0.010 A  
DOCKED: ATOM     14  C   UNL     1     140.442  70.770 228.335 -0.62 -0.00    +0.002 A  
DOCKED: ATOM     15  C   UNL     1     139.728  69.589 228.270 -0.62 -0.00    +0.001 A  
DOCKED: ENDBRANCH   3   6
DOCKED: ENDBRANCH   1   2
DOCKED: BRANCH   1  16
DOCKED: ATOM     16  C   UNL     1     141.328  75.280 221.259 -0.21 -0.07    +0.242 C  
DOCKED: ATOM     17  O   UNL     1     141.006  75.891 222.307 -0.41 +0.07    -0.273 OA 
DOCKED: BRANCH  16  18
DOCKED: ATOM     18  N   UNL     1     142.328  75.679 220.348 -0.13 +0.17    -0.338 N  
DOCKED: ATOM     19  C   UNL     1     142.410  77.096 219.913 -0.25 -0.08    +0.120 C  
DOCKED: ATOM     20  C   UNL     1     143.323  74.821 219.752 -0.32 -0.04    +0.088 C  
DOCKED: ATOM     21  C   UNL     1     142.683  77.183 218.445 -0.31 -0.01    +0.022 C  
DOCKED: ATOM     22  C   UNL     1     142.817  74.636 218.341 -0.16 -0.01    +0.025 C  
DOCKED: ATOM     23  C   UNL     1     142.695  75.940 217.656 -0.20 -0.00    +0.004 C  
DOCKED: BRANCH  20  24
DOCKED: ATOM     24  C   UNL     1     143.703  73.608 220.484 -0.37 -0.00    +0.016 C  
DOCKED: ATOM     25  C   UNL     1     145.134  73.743 220.947 -0.53 -0.01    +0.034 C  
DOCKED: ATOM     26  C   UNL     1     143.601  72.336 219.674 -0.23 -0.00    +0.034 C  
DOCKED: ATOM     27  C   UNL     1     146.140  73.439 219.846 -0.34 +0.04    +0.160 C  
DOCKED: ATOM     28  C   UNL     1     144.750  72.105 218.743 -0.17 +0.03    +0.160 C  
DOCKED: ATOM     29  O   UNL     1     145.957  72.108 219.482 -0.58 -0.28    -0.381 OA 
DOCKED: ENDBRANCH  20  24
DOCKED: ENDBRANCH  16  18
DOCKED: ENDBRANCH   1  16
DOCKED: TORSDOF 5
DOCKED: TER
DOCKED: ENDMDL
________________________________________________________________________________


    FINAL DOCKED STATE:
    ________________________


Run:   17 / 20
Time taken for this run:   0.026s

DOCKED: MODEL        17
DOCKED: USER    Run = 17
DOCKED: USER
DOCKED: USER    Estimated Free Energy of Binding    =  -8.80 kcal/mol  [=(1)+(2)+(3)-(4)]
DOCKED: USER
DOCKED: USER    (1) Final Intermolecular Energy     = -10.29 kcal/mol
DOCKED: USER        vdW + Hbond + desolv Energy     =  -9.95 kcal/mol
DOCKED: USER        Electrostatic Energy            =  -0.34 kcal/mol
DOCKED: USER        Moving Ligand-Fixed Receptor    = -10.29 kcal/mol
DOCKED: USER        Moving Ligand-Moving Receptor   =  +0.00 kcal/mol
DOCKED: USER    (2) Final Total Internal Energy     =  -1.43 kcal/mol
DOCKED: USER    (3) Torsional Free Energy           =  +1.49 kcal/mol
DOCKED: USER    (4) Unbound System's Energy         =  -1.43 kcal/mol
DOCKED: USER
DOCKED: USER
DOCKED: REMARK SMILES O=C(NCC(=O)N1CCCC[C@@H]1C1CCOCC1)c1ccc2ccccc2n1
DOCKED: REMARK SMILES IDX 4 1 3 2 2 3 1 4 19 6 20 7 28 8 21 9 27 10 22 11 26 12 23 13
DOCKED: REMARK SMILES IDX 25 14 24 15 5 16 6 17 7 18 8 19 12 20 9 21 11 22 10 23 13 24
DOCKED: REMARK SMILES IDX 14 25 18 26 15 27 17 28 16 29
DOCKED: REMARK H PARENT 3 5
DOCKED: USER                              x       y       z     vdW  Elec       q    Type
DOCKED: USER                           _______ _______ _______ _____ _____    ______ ____
DOCKED: ROOT
DOCKED: ATOM      1  C   UNL     1     139.348  72.942 220.960 -0.11 -0.04    +0.216 C  
DOCKED: ENDROOT
DOCKED: BRANCH   1   2
DOCKED: ATOM      2  N   UNL     1     139.604  72.675 222.385 -0.15 +0.07    -0.342 N  
DOCKED: ATOM      3  C   UNL     1     139.949  71.325 222.716 -0.20 -0.04    +0.270 C  
DOCKED: ATOM      4  O   UNL     1     139.996  70.514 221.756 -0.11 +0.04    -0.268 OA 
DOCKED: ATOM      5  H   UNL     1     139.534  73.435 223.097 -0.48 -0.04    +0.164 HD 
DOCKED: BRANCH   3   6
DOCKED: ATOM      6  C   UNL     1     140.220  70.951 224.077 -0.34 -0.02    +0.128 A  
DOCKED: ATOM      7  C   UNL     1     140.765  71.876 224.948 -0.33 -0.00    +0.035 A  
DOCKED: ATOM      8  N   UNL     1     139.953  69.697 224.544 -0.18 +0.04    -0.243 NA 
DOCKED: ATOM      9  C   UNL     1     141.047  71.567 226.274 -0.68 -0.00    +0.013 A  
DOCKED: ATOM     10  C   UNL     1     140.221  69.379 225.830 -0.43 -0.01    +0.071 A  
DOCKED: ATOM     11  C   UNL     1     140.765  70.291 226.713 -0.59 -0.00    +0.000 A  
DOCKED: ATOM     12  C   UNL     1     139.948  68.105 226.294 -0.60 -0.00    +0.029 A  
DOCKED: ATOM     13  C   UNL     1     141.042  69.983 228.019 -0.60 -0.00    +0.010 A  
DOCKED: ATOM     14  C   UNL     1     140.223  67.784 227.609 -0.51 -0.00    +0.002 A  
DOCKED: ATOM     15  C   UNL     1     140.768  68.698 228.492 -0.64 -0.00    +0.001 A  
DOCKED: ENDBRANCH   3   6
DOCKED: ENDBRANCH   1   2
DOCKED: BRANCH   1  16
DOCKED: ATOM     16  C   UNL     1     140.642  73.149 220.240 -0.08 -0.04    +0.242 C  
DOCKED: ATOM     17  O   UNL     1     140.866  72.365 219.287 -0.02 +0.05    -0.273 OA 
DOCKED: BRANCH  16  18
DOCKED: ATOM     18  N   UNL     1     141.496  74.185 220.671 -0.12 +0.07    -0.338 N  
DOCKED: ATOM     19  C   UNL     1     140.930  75.382 221.340 -0.29 -0.03    +0.120 C  
DOCKED: ATOM     20  C   UNL     1     142.931  74.220 220.516 -0.27 -0.03    +0.088 C  
DOCKED: ATOM     21  C   UNL     1     141.594  76.628 220.846 -0.23 -0.01    +0.022 C  
DOCKED: ATOM     22  C   UNL     1     143.131  75.204 219.389 -0.32 -0.01    +0.025 C  
DOCKED: ATOM     23  C   UNL     1     142.557  76.521 219.738 -0.35 -0.00    +0.004 C  
DOCKED: BRANCH  20  24
DOCKED: ATOM     24  C   UNL     1     143.635  72.937 220.410 -0.34 -0.00    +0.016 C  
DOCKED: ATOM     25  C   UNL     1     144.917  73.016 221.205 -0.42 -0.01    +0.034 C  
DOCKED: ATOM     26  C   UNL     1     143.995  72.542 218.996 -0.19 -0.00    +0.034 C  
DOCKED: ATOM     27  C   UNL     1     146.031  73.733 220.456 -0.50 -0.00    +0.160 C  
DOCKED: ATOM     28  C   UNL     1     145.210  73.228 218.456 -0.18 +0.02    +0.160 C  
DOCKED: ATOM     29  O   UNL     1     146.306  72.982 219.316 -0.70 -0.32    -0.381 OA 
DOCKED: ENDBRANCH  20  24
DOCKED: ENDBRANCH  16  18
DOCKED: ENDBRANCH   1  16
DOCKED: TORSDOF 5
DOCKED: TER
DOCKED: ENDMDL
________________________________________________________________________________


    FINAL DOCKED STATE:
    ________________________


Run:   18 / 20
Time taken for this run:   0.026s

DOCKED: MODEL        18
DOCKED: USER    Run = 18
DOCKED: USER
DOCKED: USER    Estimated Free Energy of Binding    =  -8.74 kcal/mol  [=(1)+(2)+(3)-(4)]
DOCKED: USER
DOCKED: USER    (1) Final Intermolecular Energy     = -10.23 kcal/mol
DOCKED: USER        vdW + Hbond + desolv Energy     = -10.01 kcal/mol
DOCKED: USER        Electrostatic Energy            =  -0.22 kcal/mol
DOCKED: USER        Moving Ligand-Fixed Receptor    = -10.23 kcal/mol
DOCKED: USER        Moving Ligand-Moving Receptor   =  +0.00 kcal/mol
DOCKED: USER    (2) Final Total Internal Energy     =  -1.82 kcal/mol
DOCKED: USER    (3) Torsional Free Energy           =  +1.49 kcal/mol
DOCKED: USER    (4) Unbound System's Energy         =  -1.82 kcal/mol
DOCKED: USER
DOCKED: USER
DOCKED: REMARK SMILES O=C(NCC(=O)N1CCCC[C@@H]1C1CCOCC1)c1ccc2ccccc2n1
DOCKED: REMARK SMILES IDX 4 1 3 2 2 3 1 4 19 6 20 7 28 8 21 9 27 10 22 11 26 12 23 13
DOCKED: REMARK SMILES IDX 25 14 24 15 5 16 6 17 7 18 8 19 12 20 9 21 11 22 10 23 13 24
DOCKED: REMARK SMILES IDX 14 25 18 26 15 27 17 28 16 29
DOCKED: REMARK H PARENT 3 5
DOCKED: USER                              x       y       z     vdW  Elec       q    Type
DOCKED: USER                           _______ _______ _______ _____ _____    ______ ____
DOCKED: ROOT
DOCKED: ATOM      1  C   UNL     1     140.549  74.002 220.996 -0.18 -0.04    +0.216 C  
DOCKED: ENDROOT
DOCKED: BRANCH   1   2
DOCKED: ATOM      2  N   UNL     1     140.192  73.367 222.276 -0.13 +0.02    -0.342 N  
DOCKED: ATOM      3  C   UNL     1     140.580  71.996 222.423 -0.20 -0.03    +0.270 C  
DOCKED: ATOM      4  O   UNL     1     141.183  71.482 221.446 -0.14 +0.03    -0.268 OA 
DOCKED: ATOM      5  H   UNL     1     139.688  73.898 223.019 -0.42 -0.01    +0.164 HD 
DOCKED: BRANCH   3   6
DOCKED: ATOM      6  C   UNL     1     140.283  71.277 223.630 -0.32 -0.02    +0.128 A  
DOCKED: ATOM      7  C   UNL     1     139.583  70.086 223.566 -0.27 -0.01    +0.035 A  
DOCKED: ATOM      8  N   UNL     1     140.675  71.734 224.855 -0.29 +0.03    -0.243 NA 
DOCKED: ATOM      9  C   UNL     1     139.269  69.350 224.703 -0.36 -0.00    +0.013 A  
DOCKED: ATOM     10  C   UNL     1     140.379  71.032 225.971 -0.53 -0.01    +0.071 A  
DOCKED: ATOM     11  C   UNL     1     139.680  69.842 225.924 -0.47 -0.00    +0.000 A  
DOCKED: ATOM     12  C   UNL     1     140.780  71.504 227.207 -0.74 -0.01    +0.029 A  
DOCKED: ATOM     13  C   UNL     1     139.372  69.118 227.046 -0.51 -0.00    +0.010 A  
DOCKED: ATOM     14  C   UNL     1     140.475  70.782 228.345 -0.62 -0.00    +0.002 A  
DOCKED: ATOM     15  C   UNL     1     139.775  69.591 228.297 -0.62 -0.00    +0.001 A  
DOCKED: ENDBRANCH   3   6
DOCKED: ENDBRANCH   1   2
DOCKED: BRANCH   1  16
DOCKED: ATOM     16  C   UNL     1     141.317  75.260 221.248 -0.21 -0.07    +0.242 C  
DOCKED: ATOM     17  O   UNL     1     141.009  75.886 222.291 -0.41 +0.07    -0.273 OA 
DOCKED: BRANCH  16  18
DOCKED: ATOM     18  N   UNL     1     142.307  75.644 220.320 -0.13 +0.17    -0.338 N  
DOCKED: ATOM     19  C   UNL     1     142.377  77.051 219.853 -0.26 -0.08    +0.120 C  
DOCKED: ATOM     20  C   UNL     1     143.302  74.778 219.734 -0.31 -0.04    +0.088 C  
DOCKED: ATOM     21  C   UNL     1     142.637  77.107 218.381 -0.31 -0.01    +0.022 C  
DOCKED: ATOM     22  C   UNL     1     142.785  74.559 218.333 -0.15 -0.01    +0.025 C  
DOCKED: ATOM     23  C   UNL     1     142.650  75.847 217.620 -0.19 -0.00    +0.004 C  
DOCKED: BRANCH  20  24
DOCKED: ATOM     24  C   UNL     1     143.695  73.584 220.490 -0.37 -0.00    +0.016 C  
DOCKED: ATOM     25  C   UNL     1     145.135  73.729 220.919 -0.54 -0.01    +0.034 C  
DOCKED: ATOM     26  C   UNL     1     143.574  72.291 219.715 -0.23 -0.00    +0.034 C  
DOCKED: ATOM     27  C   UNL     1     146.118  73.394 219.807 -0.36 +0.04    +0.160 C  
DOCKED: ATOM     28  C   UNL     1     144.703  72.034 218.768 -0.17 +0.03    +0.160 C  
DOCKED: ATOM     29  O   UNL     1     145.925  72.054 219.481 -0.56 -0.27    -0.381 OA 
DOCKED: ENDBRANCH  20  24
DOCKED: ENDBRANCH  16  18
DOCKED: ENDBRANCH   1  16
DOCKED: TORSDOF 5
DOCKED: TER
DOCKED: ENDMDL
________________________________________________________________________________


    FINAL DOCKED STATE:
    ________________________


Run:   19 / 20
Time taken for this run:   0.026s

DOCKED: MODEL        19
DOCKED: USER    Run = 19
DOCKED: USER
DOCKED: USER    Estimated Free Energy of Binding    =  -8.43 kcal/mol  [=(1)+(2)+(3)-(4)]
DOCKED: USER
DOCKED: USER    (1) Final Intermolecular Energy     =  -9.92 kcal/mol
DOCKED: USER        vdW + Hbond + desolv Energy     =  -9.80 kcal/mol
DOCKED: USER        Electrostatic Energy            =  -0.13 kcal/mol
DOCKED: USER        Moving Ligand-Fixed Receptor    =  -9.92 kcal/mol
DOCKED: USER        Moving Ligand-Moving Receptor   =  +0.00 kcal/mol
DOCKED: USER    (2) Final Total Internal Energy     =  -1.84 kcal/mol
DOCKED: USER    (3) Torsional Free Energy           =  +1.49 kcal/mol
DOCKED: USER    (4) Unbound System's Energy         =  -1.84 kcal/mol
DOCKED: USER
DOCKED: USER
DOCKED: REMARK SMILES O=C(NCC(=O)N1CCCC[C@@H]1C1CCOCC1)c1ccc2ccccc2n1
DOCKED: REMARK SMILES IDX 4 1 3 2 2 3 1 4 19 6 20 7 28 8 21 9 27 10 22 11 26 12 23 13
DOCKED: REMARK SMILES IDX 25 14 24 15 5 16 6 17 7 18 8 19 12 20 9 21 11 22 10 23 13 24
DOCKED: REMARK SMILES IDX 14 25 18 26 15 27 17 28 16 29
DOCKED: REMARK H PARENT 3 5
DOCKED: USER                              x       y       z     vdW  Elec       q    Type
DOCKED: USER                           _______ _______ _______ _____ _____    ______ ____
DOCKED: ROOT
DOCKED: ATOM      1  C   UNL     1     139.875  74.746 221.252 -0.19 -0.04    +0.216 C  
DOCKED: ENDROOT
DOCKED: BRANCH   1   2
DOCKED: ATOM      2  N   UNL     1     139.579  73.808 222.348 -0.11 +0.05    -0.342 N  
DOCKED: ATOM      3  C   UNL     1     140.421  72.652 222.425 -0.18 -0.02    +0.270 C  
DOCKED: ATOM      4  O   UNL     1     141.320  72.561 221.550 -0.21 +0.02    -0.268 OA 
DOCKED: ATOM      5  H   UNL     1     138.801  73.990 223.019 -0.56 -0.10    +0.164 HD 
DOCKED: BRANCH   3   6
DOCKED: ATOM      6  C   UNL     1     140.224  71.670 223.455 -0.32 -0.02    +0.128 A  
DOCKED: ATOM      7  C   UNL     1     139.574  70.486 223.159 -0.26 -0.01    +0.035 A  
DOCKED: ATOM      8  N   UNL     1     140.663  71.868 224.731 -0.27 +0.03    -0.243 NA 
DOCKED: ATOM      9  C   UNL     1     139.356  69.501 224.117 -0.31 -0.00    +0.013 A  
DOCKED: ATOM     10  C   UNL     1     140.461  70.923 225.676 -0.52 -0.01    +0.071 A  
DOCKED: ATOM     11  C   UNL     1     139.813  69.735 225.397 -0.44 -0.00    +0.000 A  
DOCKED: ATOM     12  C   UNL     1     140.909  71.134 226.967 -0.67 -0.00    +0.029 A  
DOCKED: ATOM     13  C   UNL     1     139.601  68.767 226.344 -0.54 -0.00    +0.010 A  
DOCKED: ATOM     14  C   UNL     1     140.700  70.165 227.929 -0.64 -0.00    +0.002 A  
DOCKED: ATOM     15  C   UNL     1     140.052  68.976 227.649 -0.63 -0.00    +0.001 A  
DOCKED: ENDBRANCH   3   6
DOCKED: ENDBRANCH   1   2
DOCKED: BRANCH   1  16
DOCKED: ATOM     16  C   UNL     1     139.309  76.093 221.568 -0.19 -0.05    +0.242 C  
DOCKED: ATOM     17  O   UNL     1     138.466  76.126 222.497 -0.24 +0.06    -0.273 OA 
DOCKED: BRANCH  16  18
DOCKED: ATOM     18  N   UNL     1     139.751  77.203 220.819 -0.04 +0.10    -0.338 N  
DOCKED: ATOM     19  C   UNL     1     139.406  77.309 219.379 -0.04 -0.03    +0.120 C  
DOCKED: ATOM     20  C   UNL     1     140.550  78.297 221.315 -0.25 -0.03    +0.088 C  
DOCKED: ATOM     21  C   UNL     1     140.582  77.790 218.588 -0.10 -0.01    +0.022 C  
DOCKED: ATOM     22  C   UNL     1     141.920  78.006 220.751 -0.26 -0.02    +0.025 C  
DOCKED: ATOM     23  C   UNL     1     141.874  77.950 219.275 -0.28 -0.00    +0.004 C  
DOCKED: BRANCH  20  24
DOCKED: ATOM     24  C   UNL     1     140.474  78.600 222.749 -0.43 -0.00    +0.016 C  
DOCKED: ATOM     25  C   UNL     1     139.805  79.941 222.931 -0.37 -0.01    +0.034 C  
DOCKED: ATOM     26  C   UNL     1     141.816  78.658 223.443 -0.58 -0.01    +0.034 C  
DOCKED: ATOM     27  C   UNL     1     140.752  81.109 222.697 -0.34 -0.03    +0.160 C  
DOCKED: ATOM     28  C   UNL     1     142.561  79.939 223.236 -0.53 -0.05    +0.160 C  
DOCKED: ATOM     29  O   UNL     1     141.754  81.022 223.660 -0.30 +0.06    -0.381 OA 
DOCKED: ENDBRANCH  20  24
DOCKED: ENDBRANCH  16  18
DOCKED: ENDBRANCH   1  16
DOCKED: TORSDOF 5
DOCKED: TER
DOCKED: ENDMDL
________________________________________________________________________________


    FINAL DOCKED STATE:
    ________________________


Run:   20 / 20
Time taken for this run:   0.026s

DOCKED: MODEL        20
DOCKED: USER    Run = 20
DOCKED: USER
DOCKED: USER    Estimated Free Energy of Binding    =  -8.70 kcal/mol  [=(1)+(2)+(3)-(4)]
DOCKED: USER
DOCKED: USER    (1) Final Intermolecular Energy     = -10.19 kcal/mol
DOCKED: USER        vdW + Hbond + desolv Energy     =  -9.97 kcal/mol
DOCKED: USER        Electrostatic Energy            =  -0.21 kcal/mol
DOCKED: USER        Moving Ligand-Fixed Receptor    = -10.19 kcal/mol
DOCKED: USER        Moving Ligand-Moving Receptor   =  +0.00 kcal/mol
DOCKED: USER    (2) Final Total Internal Energy     =  -1.86 kcal/mol
DOCKED: USER    (3) Torsional Free Energy           =  +1.49 kcal/mol
DOCKED: USER    (4) Unbound System's Energy         =  -1.86 kcal/mol
DOCKED: USER
DOCKED: USER
DOCKED: REMARK SMILES O=C(NCC(=O)N1CCCC[C@@H]1C1CCOCC1)c1ccc2ccccc2n1
DOCKED: REMARK SMILES IDX 4 1 3 2 2 3 1 4 19 6 20 7 28 8 21 9 27 10 22 11 26 12 23 13
DOCKED: REMARK SMILES IDX 25 14 24 15 5 16 6 17 7 18 8 19 12 20 9 21 11 22 10 23 13 24
DOCKED: REMARK SMILES IDX 14 25 18 26 15 27 17 28 16 29
DOCKED: REMARK H PARENT 3 5
DOCKED: USER                              x       y       z     vdW  Elec       q    Type
DOCKED: USER                           _______ _______ _______ _____ _____    ______ ____
DOCKED: ROOT
DOCKED: ATOM      1  C   UNL     1     140.582  73.947 221.030 -0.18 -0.04    +0.216 C  
DOCKED: ENDROOT
DOCKED: BRANCH   1   2
DOCKED: ATOM      2  N   UNL     1     140.247  73.307 222.313 -0.13 +0.02    -0.342 N  
DOCKED: ATOM      3  C   UNL     1     140.574  71.917 222.422 -0.20 -0.03    +0.270 C  
DOCKED: ATOM      4  O   UNL     1     141.110  71.393 221.412 -0.13 +0.03    -0.268 OA 
DOCKED: ATOM      5  H   UNL     1     139.800  73.848 223.085 -0.40 +0.01    +0.164 HD 
DOCKED: BRANCH   3   6
DOCKED: ATOM      6  C   UNL     1     140.292  71.191 223.629 -0.32 -0.02    +0.128 A  
DOCKED: ATOM      7  C   UNL     1     139.601  69.995 223.565 -0.26 -0.01    +0.035 A  
DOCKED: ATOM      8  N   UNL     1     140.690  71.647 224.852 -0.30 +0.03    -0.243 NA 
DOCKED: ATOM      9  C   UNL     1     139.301  69.252 224.702 -0.36 -0.00    +0.013 A  
DOCKED: ATOM     10  C   UNL     1     140.408  70.938 225.967 -0.53 -0.01    +0.071 A  
DOCKED: ATOM     11  C   UNL     1     139.719  69.742 225.921 -0.47 -0.00    +0.000 A  
DOCKED: ATOM     12  C   UNL     1     140.816  71.409 227.203 -0.72 -0.01    +0.029 A  
DOCKED: ATOM     13  C   UNL     1     139.425  69.012 227.043 -0.52 -0.00    +0.010 A  
DOCKED: ATOM     14  C   UNL     1     140.525  70.681 228.340 -0.60 -0.00    +0.002 A  
DOCKED: ATOM     15  C   UNL     1     139.835  69.484 228.293 -0.62 -0.00    +0.001 A  
DOCKED: ENDBRANCH   3   6
DOCKED: ENDBRANCH   1   2
DOCKED: BRANCH   1  16
DOCKED: ATOM     16  C   UNL     1     141.326  75.221 221.275 -0.21 -0.07    +0.242 C  
DOCKED: ATOM     17  O   UNL     1     141.003  75.850 222.311 -0.41 +0.06    -0.273 OA 
DOCKED: BRANCH  16  18
DOCKED: ATOM     18  N   UNL     1     142.313  75.614 220.348 -0.13 +0.17    -0.338 N  
DOCKED: ATOM     19  C   UNL     1     142.370  77.022 219.879 -0.26 -0.08    +0.120 C  
DOCKED: ATOM     20  C   UNL     1     143.319  74.759 219.764 -0.31 -0.04    +0.088 C  
DOCKED: ATOM     21  C   UNL     1     142.631  77.079 218.407 -0.31 -0.01    +0.022 C  
DOCKED: ATOM     22  C   UNL     1     142.806  74.533 218.362 -0.15 -0.01    +0.025 C  
DOCKED: ATOM     23  C   UNL     1     142.658  75.818 217.648 -0.19 -0.00    +0.004 C  
DOCKED: BRANCH  20  24
DOCKED: ATOM     24  C   UNL     1     143.723  73.569 220.523 -0.37 -0.00    +0.016 C  
DOCKED: ATOM     25  C   UNL     1     145.164  73.726 220.946 -0.54 -0.01    +0.034 C  
DOCKED: ATOM     26  C   UNL     1     143.609  72.274 219.752 -0.24 -0.00    +0.034 C  
DOCKED: ATOM     27  C   UNL     1     146.145  73.395 219.831 -0.36 +0.04    +0.160 C  
DOCKED: ATOM     28  C   UNL     1     144.737  72.022 218.801 -0.17 +0.03    +0.160 C  
DOCKED: ATOM     29  O   UNL     1     145.961  72.052 219.509 -0.56 -0.28    -0.381 OA 
DOCKED: ENDBRANCH  20  24
DOCKED: ENDBRANCH  16  18
DOCKED: ENDBRANCH   1  16
DOCKED: TORSDOF 5
DOCKED: TER
DOCKED: ENDMDL
________________________________________________________________________________


    CLUSTERING HISTOGRAM
    ____________________


________________________________________________________________________________
     |           |     |           |     |
Clus | Lowest    | Run | Mean      | Num | Histogram
-ter | Binding   |     | Binding   | in  |
Rank | Energy    |     | Energy    | Clus|    5    10   15   20   25   30   35
_____|___________|_____|___________|_____|____:____|____:____|____:____|____:___
   1 |     -8.83 |   6 |     -8.73 |  14 |##############
   2 |     -8.53 |  13 |     -8.40 |   5 |#####
   3 |     -6.95 |  15 |     -6.95 |   1 |#
_____|___________|_____|___________|_____|______________________________________


    RMSD TABLE
    __________


_______________________________________________________________________
     |      |      |           |         |                 |
Rank | Sub- | Run  | Binding   | Cluster | Reference       | Grep
     | Rank |      | Energy    | RMSD    | RMSD            | Pattern
_____|______|______|___________|_________|_________________|___________
   1      1      6       -8.83      0.00    270.90           RANKING
   1      2     17       -8.80      1.27    270.93           RANKING
   1      3      1       -8.77      0.16    270.91           RANKING
   1      4     16       -8.77      0.17    270.92           RANKING
   1      5      2       -8.76      0.18    270.91           RANKING
   1      6      5       -8.75      0.18    270.93           RANKING
   1      7     18       -8.74      0.20    270.91           RANKING
   1      8      8       -8.73      0.99    270.86           RANKING
   1      9      4       -8.72      0.22    270.93           RANKING
   1     10     12       -8.72      0.25    270.91           RANKING
   1     11     14       -8.72      0.20    270.92           RANKING
   1     12     20       -8.70      0.27    270.92           RANKING
   1     13      9       -8.68      0.30    270.90           RANKING
   1     14     10       -8.60      0.36    270.91           RANKING
   2      1     13       -8.53      0.00    271.44           RANKING
   2      2      3       -8.46      0.22    271.43           RANKING
   2      3      7       -8.43      0.25    271.40           RANKING
   2      4     19       -8.43      0.25    271.38           RANKING
   2      5     11       -8.15      0.43    271.30           RANKING
   3      1     15       -6.95      0.00    270.90           RANKING

Run time 0.468 sec
Idle time 0.000 sec
