AutoDock-GPU version: v1.6

**********************************************************
**    AutoDock-GPU AUTODOCKTOOLS-COMPATIBLE DLG FILE    **
**********************************************************


    DOCKING PARAMETERS
    ________________________


Ligand file:                               /home/a/REINVENT4/ReinventStudies/pleaseWork/justmol2mol_4_Compounds_ontop/graph-dock-hn62wh/graph-DockGPU/node-autodockgpu/inputs/GABYHMWSGGSGHB-LVSCZHILNA-N.pdbqt
Grid fld file:                             /home/a/REINVENT4/ReinventStudies/mols/Rad51/maps/rad51_receptor.maps.fld

Random seed:                               42
Number of runs:                            20
Number of energy evaluations:              1132076
Number of generations:                     42000
Size of population:                        150
Rate of crossover:                         80.000000%
Tournament selection probability limit:    60.000000%
Rate of mutation:                          2.000000%
Maximal allowed delta movement:            +/- 6.000000A
Maximal allowed delta angle:               +/- 90.000000

Rate of local search:                      100.000000%
Maximal number of local search iterations: 300
Rho lower bound:                           0.010000
Spread of local search delta movement:     2.000000A
Spread of local search delta angle:        74.999999
Limit of consecutive successes/failures:   4

Handle symmetry during clustering:         YES
RMSD tolerance:                            2.000000A

Program call in command line was:          /home/a/REINVENT4/ReinventStudies/adgpu-v1.6_linux_x64_cuda12_128wi --filelist batch.txt --heuristics 1 --nrun 20 --psize 150 --lsit 300 --seed 42 --heurmax 12000000 


    GRID PARAMETERS
    ________________________


Receptor name:                             rad51_receptor
Number of grid points (x, y, z):           53, 53, 53
Grid center (x, y, z):                     139.950000, 75.640000, 221.970000A
Grid size (x, y, z):                       19.500000, 19.500000, 19.500000A
Grid spacing:                              0.375000A


    LIGAND PARAMETERS
    ________________________


Ligand name:                               /home/a/REINVENT4/ReinventStudies/pleaseWork/justmol2mol_4_Compounds_ontop/graph-dock-hn62wh/graph-DockGPU/node-autodockgpu/inputs/GABYHMWSGGSGHB-LVSCZHILNA-N
Number of atoms:                           29
Number of rotatable bonds:                 5
Number of atom types:                      6


    DUMMY DATA (only for ADT-compatibility)
    ________________________


DPF> outlev 1
DPF> ga_run 20
DPF> fld /home/a/REINVENT4/ReinventStudies/mols/Rad51/maps/rad51_receptor.maps.fld
DPF> move /home/a/REINVENT4/ReinventStudies/pleaseWork/justmol2mol_4_Compounds_ontop/graph-dock-hn62wh/graph-DockGPU/node-autodockgpu/inputs/GABYHMWSGGSGHB-LVSCZHILNA-N.pdbqt


    COUNTER STATES
    ________________________


Number of energy evaluations performed:    749503
Number of generations used:                35


    INPUT LIGAND PDBQT FILE:
    ________________________


INPUT-LIGAND-PDBQT: REMARK SMILES O=C(NCC(=O)N1CCCC[C@H]1C1CCOCC1)c1ccc2ccccc2n1
INPUT-LIGAND-PDBQT: REMARK SMILES IDX 4 1 3 2 2 3 1 4 19 6 20 7 28 8 21 9 27 10 22 11 26 12 23 13
INPUT-LIGAND-PDBQT: REMARK SMILES IDX 25 14 24 15 5 16 6 17 7 18 8 19 12 20 9 21 11 22 10 23 13 24
INPUT-LIGAND-PDBQT: REMARK SMILES IDX 14 25 18 26 15 27 17 28 16 29
INPUT-LIGAND-PDBQT: REMARK H PARENT 3 5
INPUT-LIGAND-PDBQT: ROOT
INPUT-LIGAND-PDBQT: ATOM      1  C   UNL     1       0.475   1.343   1.166  1.00  0.00     0.216 C 
INPUT-LIGAND-PDBQT: ENDROOT
INPUT-LIGAND-PDBQT: BRANCH   1   2
INPUT-LIGAND-PDBQT: ATOM      2  N   UNL     1       1.809   1.007   0.772  1.00  0.00    -0.342 N 
INPUT-LIGAND-PDBQT: ATOM      3  C   UNL     1       2.175   0.709  -0.550  1.00  0.00     0.270 C 
INPUT-LIGAND-PDBQT: ATOM      4  O   UNL     1       1.292   0.731  -1.472  1.00  0.00    -0.268 OA
INPUT-LIGAND-PDBQT: ATOM      5  H   UNL     1       2.583   0.973   1.498  1.00  0.00     0.164 HD
INPUT-LIGAND-PDBQT: BRANCH   3   6
INPUT-LIGAND-PDBQT: ATOM      6  C   UNL     1       3.578   0.371  -0.872  1.00  0.00     0.128 A 
INPUT-LIGAND-PDBQT: ATOM      7  C   UNL     1       3.923   0.079  -2.181  1.00  0.00     0.035 A 
INPUT-LIGAND-PDBQT: ATOM      8  N   UNL     1       4.495   0.352   0.111  1.00  0.00    -0.243 NA
INPUT-LIGAND-PDBQT: ATOM      9  C   UNL     1       5.254  -0.234  -2.447  1.00  0.00     0.013 A 
INPUT-LIGAND-PDBQT: ATOM     10  C   UNL     1       5.774   0.045  -0.173  1.00  0.00     0.071 A 
INPUT-LIGAND-PDBQT: ATOM     11  C   UNL     1       6.189  -0.256  -1.456  1.00  0.00     0.000 A 
INPUT-LIGAND-PDBQT: ATOM     12  C   UNL     1       6.686   0.040   0.883  1.00  0.00     0.029 A 
INPUT-LIGAND-PDBQT: ATOM     13  C   UNL     1       7.524  -0.557  -1.645  1.00  0.00     0.010 A 
INPUT-LIGAND-PDBQT: ATOM     14  C   UNL     1       8.026  -0.265   0.679  1.00  0.00     0.002 A 
INPUT-LIGAND-PDBQT: ATOM     15  C   UNL     1       8.435  -0.563  -0.590  1.00  0.00     0.001 A 
INPUT-LIGAND-PDBQT: ENDBRANCH   3   6
INPUT-LIGAND-PDBQT: ENDBRANCH   1   2
INPUT-LIGAND-PDBQT: BRANCH   1  16
INPUT-LIGAND-PDBQT: ATOM     16  C   UNL     1      -0.447   0.227   0.844  1.00  0.00     0.242 C 
INPUT-LIGAND-PDBQT: ATOM     17  O   UNL     1       0.073  -0.792   0.299  1.00  0.00    -0.273 OA
INPUT-LIGAND-PDBQT: BRANCH  16  18
INPUT-LIGAND-PDBQT: ATOM     18  N   UNL     1      -1.841   0.311   1.137  1.00  0.00    -0.338 N 
INPUT-LIGAND-PDBQT: ATOM     19  C   UNL     1      -2.346   1.518   1.763  1.00  0.00     0.120 C 
INPUT-LIGAND-PDBQT: ATOM     20  C   UNL     1      -2.722  -0.777   0.820  1.00  0.00     0.088 C 
INPUT-LIGAND-PDBQT: ATOM     21  C   UNL     1      -3.181   1.023   2.953  1.00  0.00     0.022 C 
INPUT-LIGAND-PDBQT: ATOM     22  C   UNL     1      -3.984  -0.824   1.597  1.00  0.00     0.025 C 
INPUT-LIGAND-PDBQT: ATOM     23  C   UNL     1      -4.420   0.475   2.234  1.00  0.00     0.004 C 
INPUT-LIGAND-PDBQT: BRANCH  20  24
INPUT-LIGAND-PDBQT: ATOM     24  C   UNL     1      -2.846  -0.904  -0.679  1.00  0.00     0.016 C 
INPUT-LIGAND-PDBQT: ATOM     25  C   UNL     1      -3.750  -2.017  -1.110  1.00  0.00     0.034 C 
INPUT-LIGAND-PDBQT: ATOM     26  C   UNL     1      -3.147   0.362  -1.408  1.00  0.00     0.034 C 
INPUT-LIGAND-PDBQT: ATOM     27  C   UNL     1      -4.985  -1.565  -1.849  1.00  0.00     0.160 C 
INPUT-LIGAND-PDBQT: ATOM     28  C   UNL     1      -4.586   0.711  -1.566  1.00  0.00     0.160 C 
INPUT-LIGAND-PDBQT: ATOM     29  O   UNL     1      -5.452  -0.339  -1.486  1.00  0.00    -0.381 OA
INPUT-LIGAND-PDBQT: ENDBRANCH  20  24
INPUT-LIGAND-PDBQT: ENDBRANCH  16  18
INPUT-LIGAND-PDBQT: ENDBRANCH   1  16
INPUT-LIGAND-PDBQT: TORSDOF 5


    FINAL DOCKED STATE:
    ________________________


Run:   1 / 20
Time taken for this run:   0.030s

DOCKED: MODEL        1
DOCKED: USER    Run = 1
DOCKED: USER
DOCKED: USER    Estimated Free Energy of Binding    =  -8.45 kcal/mol  [=(1)+(2)+(3)-(4)]
DOCKED: USER
DOCKED: USER    (1) Final Intermolecular Energy     =  -9.94 kcal/mol
DOCKED: USER        vdW + Hbond + desolv Energy     =  -9.84 kcal/mol
DOCKED: USER        Electrostatic Energy            =  -0.09 kcal/mol
DOCKED: USER        Moving Ligand-Fixed Receptor    =  -9.94 kcal/mol
DOCKED: USER        Moving Ligand-Moving Receptor   =  +0.00 kcal/mol
DOCKED: USER    (2) Final Total Internal Energy     =  -1.98 kcal/mol
DOCKED: USER    (3) Torsional Free Energy           =  +1.49 kcal/mol
DOCKED: USER    (4) Unbound System's Energy         =  -1.98 kcal/mol
DOCKED: USER
DOCKED: USER
DOCKED: REMARK SMILES O=C(NCC(=O)N1CCCC[C@H]1C1CCOCC1)c1ccc2ccccc2n1
DOCKED: REMARK SMILES IDX 4 1 3 2 2 3 1 4 19 6 20 7 28 8 21 9 27 10 22 11 26 12 23 13
DOCKED: REMARK SMILES IDX 25 14 24 15 5 16 6 17 7 18 8 19 12 20 9 21 11 22 10 23 13 24
DOCKED: REMARK SMILES IDX 14 25 18 26 15 27 17 28 16 29
DOCKED: REMARK H PARENT 3 5
DOCKED: USER                              x       y       z     vdW  Elec       q    Type
DOCKED: USER                           _______ _______ _______ _____ _____    ______ ____
DOCKED: ROOT
DOCKED: ATOM      1  C   UNL     1     140.015  74.708 221.284 -0.20 -0.04    +0.216 C  
DOCKED: ENDROOT
DOCKED: BRANCH   1   2
DOCKED: ATOM      2  N   UNL     1     139.855  73.752 222.337 -0.09 +0.03    -0.342 N  
DOCKED: ATOM      3  C   UNL     1     140.474  72.492 222.341 -0.20 -0.02    +0.270 C  
DOCKED: ATOM      4  O   UNL     1     141.227  72.153 221.367 -0.17 +0.03    -0.268 OA 
DOCKED: ATOM      5  H   UNL     1     139.240  73.981 223.171 -0.50 -0.07    +0.164 HD 
DOCKED: BRANCH   3   6
DOCKED: ATOM      6  C   UNL     1     140.255  71.563 223.470 -0.32 -0.02    +0.128 A  
DOCKED: ATOM      7  C   UNL     1     139.600  70.364 223.246 -0.26 -0.01    +0.035 A  
DOCKED: ATOM      8  N   UNL     1     140.695  71.898 224.696 -0.26 +0.03    -0.243 NA 
DOCKED: ATOM      9  C   UNL     1     139.412  69.513 224.333 -0.33 -0.00    +0.013 A  
DOCKED: ATOM     10  C   UNL     1     140.500  71.058 225.729 -0.53 -0.01    +0.071 A  
DOCKED: ATOM     11  C   UNL     1     139.855  69.846 225.578 -0.46 -0.00    +0.000 A  
DOCKED: ATOM     12  C   UNL     1     140.976  71.453 226.980 -0.72 -0.00    +0.029 A  
DOCKED: ATOM     13  C   UNL     1     139.704  69.054 226.700 -0.54 -0.00    +0.010 A  
DOCKED: ATOM     14  C   UNL     1     140.818  70.647 228.101 -0.65 -0.00    +0.002 A  
DOCKED: ATOM     15  C   UNL     1     140.179  69.449 227.950 -0.63 -0.00    +0.001 A  
DOCKED: ENDBRANCH   3   6
DOCKED: ENDBRANCH   1   2
DOCKED: BRANCH   1  16
DOCKED: ATOM     16  C   UNL     1     139.580  76.049 221.743 -0.22 -0.05    +0.242 C  
DOCKED: ATOM     17  O   UNL     1     138.812  76.076 222.751 -0.28 +0.06    -0.273 OA 
DOCKED: BRANCH  16  18
DOCKED: ATOM     18  N   UNL     1     140.011  77.235 221.077 -0.07 +0.10    -0.338 N  
DOCKED: ATOM     19  C   UNL     1     139.239  77.713 219.945 -0.06 -0.03    +0.120 C  
DOCKED: ATOM     20  C   UNL     1     141.183  77.937 221.517 -0.32 -0.04    +0.088 C  
DOCKED: ATOM     21  C   UNL     1     140.275  77.954 218.838 -0.09 -0.01    +0.022 C  
DOCKED: ATOM     22  C   UNL     1     141.827  78.804 220.501 -0.28 -0.01    +0.025 C  
DOCKED: ATOM     23  C   UNL     1     140.953  79.233 219.345 -0.20 -0.00    +0.004 C  
DOCKED: BRANCH  20  24
DOCKED: ATOM     24  C   UNL     1     140.921  78.558 222.867 -0.49 -0.00    +0.016 C  
DOCKED: ATOM     25  C   UNL     1     142.164  79.012 223.566 -0.54 -0.01    +0.034 C  
DOCKED: ATOM     26  C   UNL     1     139.860  79.606 222.897 -0.37 -0.01    +0.034 C  
DOCKED: ATOM     27  C   UNL     1     142.245  80.502 223.788 -0.52 -0.03    +0.160 C  
DOCKED: ATOM     28  C   UNL     1     140.297  81.001 222.615 -0.29 -0.03    +0.160 C  
DOCKED: ATOM     29  O   UNL     1     141.617  81.255 222.844 -0.26 +0.07    -0.381 OA 
DOCKED: ENDBRANCH  20  24
DOCKED: ENDBRANCH  16  18
DOCKED: ENDBRANCH   1  16
DOCKED: TORSDOF 5
DOCKED: TER
DOCKED: ENDMDL
________________________________________________________________________________


    FINAL DOCKED STATE:
    ________________________


Run:   2 / 20
Time taken for this run:   0.030s

DOCKED: MODEL        2
DOCKED: USER    Run = 2
DOCKED: USER
DOCKED: USER    Estimated Free Energy of Binding    =  -8.48 kcal/mol  [=(1)+(2)+(3)-(4)]
DOCKED: USER
DOCKED: USER    (1) Final Intermolecular Energy     =  -9.97 kcal/mol
DOCKED: USER        vdW + Hbond + desolv Energy     =  -9.86 kcal/mol
DOCKED: USER        Electrostatic Energy            =  -0.10 kcal/mol
DOCKED: USER        Moving Ligand-Fixed Receptor    =  -9.97 kcal/mol
DOCKED: USER        Moving Ligand-Moving Receptor   =  +0.00 kcal/mol
DOCKED: USER    (2) Final Total Internal Energy     =  -1.99 kcal/mol
DOCKED: USER    (3) Torsional Free Energy           =  +1.49 kcal/mol
DOCKED: USER    (4) Unbound System's Energy         =  -1.99 kcal/mol
DOCKED: USER
DOCKED: USER
DOCKED: REMARK SMILES O=C(NCC(=O)N1CCCC[C@H]1C1CCOCC1)c1ccc2ccccc2n1
DOCKED: REMARK SMILES IDX 4 1 3 2 2 3 1 4 19 6 20 7 28 8 21 9 27 10 22 11 26 12 23 13
DOCKED: REMARK SMILES IDX 25 14 24 15 5 16 6 17 7 18 8 19 12 20 9 21 11 22 10 23 13 24
DOCKED: REMARK SMILES IDX 14 25 18 26 15 27 17 28 16 29
DOCKED: REMARK H PARENT 3 5
DOCKED: USER                              x       y       z     vdW  Elec       q    Type
DOCKED: USER                           _______ _______ _______ _____ _____    ______ ____
DOCKED: ROOT
DOCKED: ATOM      1  C   UNL     1     140.011  74.797 221.333 -0.21 -0.04    +0.216 C  
DOCKED: ENDROOT
DOCKED: BRANCH   1   2
DOCKED: ATOM      2  N   UNL     1     139.808  73.802 222.341 -0.08 +0.03    -0.342 N  
DOCKED: ATOM      3  C   UNL     1     140.548  72.612 222.417 -0.18 -0.02    +0.270 C  
DOCKED: ATOM      4  O   UNL     1     141.459  72.377 221.554 -0.20 +0.02    -0.268 OA 
DOCKED: ATOM      5  H   UNL     1     139.063  73.946 223.084 -0.55 -0.08    +0.164 HD 
DOCKED: BRANCH   3   6
DOCKED: ATOM      6  C   UNL     1     140.273  71.636 223.493 -0.32 -0.02    +0.128 A  
DOCKED: ATOM      7  C   UNL     1     139.592  70.468 223.192 -0.26 -0.01    +0.035 A  
DOCKED: ATOM      8  N   UNL     1     140.688  71.898 224.744 -0.26 +0.03    -0.243 NA 
DOCKED: ATOM      9  C   UNL     1     139.352  69.572 224.231 -0.32 -0.00    +0.013 A  
DOCKED: ATOM     10  C   UNL     1     140.442  71.015 225.730 -0.53 -0.01    +0.071 A  
DOCKED: ATOM     11  C   UNL     1     139.769  69.830 225.502 -0.45 -0.00    +0.000 A  
DOCKED: ATOM     12  C   UNL     1     140.895  71.335 227.010 -0.70 -0.00    +0.029 A  
DOCKED: ATOM     13  C   UNL     1     139.566  68.990 226.580 -0.53 -0.00    +0.010 A  
DOCKED: ATOM     14  C   UNL     1     140.684  70.480 228.085 -0.64 -0.00    +0.002 A  
DOCKED: ATOM     15  C   UNL     1     140.017  69.309 227.859 -0.63 -0.00    +0.001 A  
DOCKED: ENDBRANCH   3   6
DOCKED: ENDBRANCH   1   2
DOCKED: BRANCH   1  16
DOCKED: ATOM     16  C   UNL     1     139.504  76.109 221.802 -0.22 -0.05    +0.242 C  
DOCKED: ATOM     17  O   UNL     1     138.659  76.079 222.746 -0.27 +0.06    -0.273 OA 
DOCKED: BRANCH  16  18
DOCKED: ATOM     18  N   UNL     1     139.951  77.329 221.213 -0.07 +0.10    -0.338 N  
DOCKED: ATOM     19  C   UNL     1     139.138  77.937 220.177 -0.07 -0.03    +0.120 C  
DOCKED: ATOM     20  C   UNL     1     141.179  77.939 221.636 -0.32 -0.04    +0.088 C  
DOCKED: ATOM     21  C   UNL     1     140.117  78.230 219.031 -0.09 -0.01    +0.022 C  
DOCKED: ATOM     22  C   UNL     1     141.803  78.863 220.659 -0.30 -0.01    +0.025 C  
DOCKED: ATOM     23  C   UNL     1     140.885  79.429 219.601 -0.20 -0.00    +0.004 C  
DOCKED: BRANCH  20  24
DOCKED: ATOM     24  C   UNL     1     141.027  78.450 223.049 -0.51 -0.00    +0.016 C  
DOCKED: ATOM     25  C   UNL     1     142.211  79.230 223.531 -0.57 -0.01    +0.034 C  
DOCKED: ATOM     26  C   UNL     1     139.747  79.156 223.342 -0.39 -0.01    +0.034 C  
DOCKED: ATOM     27  C   UNL     1     141.921  80.680 223.827 -0.48 -0.03    +0.160 C  
DOCKED: ATOM     28  C   UNL     1     139.720  80.620 223.072 -0.30 -0.02    +0.160 C  
DOCKED: ATOM     29  O   UNL     1     140.937  81.234 223.066 -0.22 +0.06    -0.381 OA 
DOCKED: ENDBRANCH  20  24
DOCKED: ENDBRANCH  16  18
DOCKED: ENDBRANCH   1  16
DOCKED: TORSDOF 5
DOCKED: TER
DOCKED: ENDMDL
________________________________________________________________________________


    FINAL DOCKED STATE:
    ________________________


Run:   3 / 20
Time taken for this run:   0.030s

DOCKED: MODEL        3
DOCKED: USER    Run = 3
DOCKED: USER
DOCKED: USER    Estimated Free Energy of Binding    =  -8.41 kcal/mol  [=(1)+(2)+(3)-(4)]
DOCKED: USER
DOCKED: USER    (1) Final Intermolecular Energy     =  -9.90 kcal/mol
DOCKED: USER        vdW + Hbond + desolv Energy     =  -9.80 kcal/mol
DOCKED: USER        Electrostatic Energy            =  -0.10 kcal/mol
DOCKED: USER        Moving Ligand-Fixed Receptor    =  -9.90 kcal/mol
DOCKED: USER        Moving Ligand-Moving Receptor   =  +0.00 kcal/mol
DOCKED: USER    (2) Final Total Internal Energy     =  -2.00 kcal/mol
DOCKED: USER    (3) Torsional Free Energy           =  +1.49 kcal/mol
DOCKED: USER    (4) Unbound System's Energy         =  -2.00 kcal/mol
DOCKED: USER
DOCKED: USER
DOCKED: REMARK SMILES O=C(NCC(=O)N1CCCC[C@H]1C1CCOCC1)c1ccc2ccccc2n1
DOCKED: REMARK SMILES IDX 4 1 3 2 2 3 1 4 19 6 20 7 28 8 21 9 27 10 22 11 26 12 23 13
DOCKED: REMARK SMILES IDX 25 14 24 15 5 16 6 17 7 18 8 19 12 20 9 21 11 22 10 23 13 24
DOCKED: REMARK SMILES IDX 14 25 18 26 15 27 17 28 16 29
DOCKED: REMARK H PARENT 3 5
DOCKED: USER                              x       y       z     vdW  Elec       q    Type
DOCKED: USER                           _______ _______ _______ _____ _____    ______ ____
DOCKED: ROOT
DOCKED: ATOM      1  C   UNL     1     140.051  74.690 221.303 -0.21 -0.04    +0.216 C  
DOCKED: ENDROOT
DOCKED: BRANCH   1   2
DOCKED: ATOM      2  N   UNL     1     139.857  73.726 222.342 -0.09 +0.03    -0.342 N  
DOCKED: ATOM      3  C   UNL     1     140.501  72.479 222.374 -0.20 -0.02    +0.270 C  
DOCKED: ATOM      4  O   UNL     1     141.309  72.160 221.439 -0.17 +0.03    -0.268 OA 
DOCKED: ATOM      5  H   UNL     1     139.195  73.939 223.145 -0.51 -0.07    +0.164 HD 
DOCKED: BRANCH   3   6
DOCKED: ATOM      6  C   UNL     1     140.243  71.540 223.487 -0.32 -0.02    +0.128 A  
DOCKED: ATOM      7  C   UNL     1     139.571  70.356 223.235 -0.26 -0.01    +0.035 A  
DOCKED: ATOM      8  N   UNL     1     140.666  71.851 224.725 -0.27 +0.03    -0.243 NA 
DOCKED: ATOM      9  C   UNL     1     139.347  69.496 224.307 -0.33 -0.00    +0.013 A  
DOCKED: ATOM     10  C   UNL     1     140.435  71.003 225.743 -0.53 -0.01    +0.071 A  
DOCKED: ATOM     11  C   UNL     1     139.771  69.805 225.564 -0.45 -0.00    +0.000 A  
DOCKED: ATOM     12  C   UNL     1     140.894  71.373 227.008 -0.71 -0.00    +0.029 A  
DOCKED: ATOM     13  C   UNL     1     139.585  69.002 226.673 -0.54 -0.00    +0.010 A  
DOCKED: ATOM     14  C   UNL     1     140.700  70.557 228.115 -0.64 -0.00    +0.002 A  
DOCKED: ATOM     15  C   UNL     1     140.043  69.372 227.937 -0.63 -0.00    +0.001 A  
DOCKED: ENDBRANCH   3   6
DOCKED: ENDBRANCH   1   2
DOCKED: BRANCH   1  16
DOCKED: ATOM     16  C   UNL     1     139.491  76.000 221.713 -0.22 -0.05    +0.242 C  
DOCKED: ATOM     17  O   UNL     1     138.597  75.973 222.610 -0.27 +0.06    -0.273 OA 
DOCKED: BRANCH  16  18
DOCKED: ATOM     18  N   UNL     1     139.944  77.216 221.120 -0.07 +0.10    -0.338 N  
DOCKED: ATOM     19  C   UNL     1     139.148  77.811 220.063 -0.06 -0.03    +0.120 C  
DOCKED: ATOM     20  C   UNL     1     141.163  77.835 221.559 -0.32 -0.04    +0.088 C  
DOCKED: ATOM     21  C   UNL     1     140.147  78.097 218.932 -0.09 -0.01    +0.022 C  
DOCKED: ATOM     22  C   UNL     1     141.801  78.753 220.585 -0.29 -0.01    +0.025 C  
DOCKED: ATOM     23  C   UNL     1     140.900  79.305 219.505 -0.20 -0.00    +0.004 C  
DOCKED: BRANCH  20  24
DOCKED: ATOM     24  C   UNL     1     140.983  78.359 222.963 -0.49 -0.01    +0.016 C  
DOCKED: ATOM     25  C   UNL     1     142.200  79.044 223.504 -0.56 -0.01    +0.034 C  
DOCKED: ATOM     26  C   UNL     1     139.750  79.166 223.195 -0.39 -0.01    +0.034 C  
DOCKED: ATOM     27  C   UNL     1     142.012  80.513 223.789 -0.49 -0.03    +0.160 C  
DOCKED: ATOM     28  C   UNL     1     139.853  80.627 222.927 -0.29 -0.03    +0.160 C  
DOCKED: ATOM     29  O   UNL     1     141.114  81.142 222.982 -0.22 +0.06    -0.381 OA 
DOCKED: ENDBRANCH  20  24
DOCKED: ENDBRANCH  16  18
DOCKED: ENDBRANCH   1  16
DOCKED: TORSDOF 5
DOCKED: TER
DOCKED: ENDMDL
________________________________________________________________________________


    FINAL DOCKED STATE:
    ________________________


Run:   4 / 20
Time taken for this run:   0.030s

DOCKED: MODEL        4
DOCKED: USER    Run = 4
DOCKED: USER
DOCKED: USER    Estimated Free Energy of Binding    =  -8.91 kcal/mol  [=(1)+(2)+(3)-(4)]
DOCKED: USER
DOCKED: USER    (1) Final Intermolecular Energy     = -10.40 kcal/mol
DOCKED: USER        vdW + Hbond + desolv Energy     = -10.12 kcal/mol
DOCKED: USER        Electrostatic Energy            =  -0.28 kcal/mol
DOCKED: USER        Moving Ligand-Fixed Receptor    = -10.40 kcal/mol
DOCKED: USER        Moving Ligand-Moving Receptor   =  +0.00 kcal/mol
DOCKED: USER    (2) Final Total Internal Energy     =  -1.94 kcal/mol
DOCKED: USER    (3) Torsional Free Energy           =  +1.49 kcal/mol
DOCKED: USER    (4) Unbound System's Energy         =  -1.94 kcal/mol
DOCKED: USER
DOCKED: USER
DOCKED: REMARK SMILES O=C(NCC(=O)N1CCCC[C@H]1C1CCOCC1)c1ccc2ccccc2n1
DOCKED: REMARK SMILES IDX 4 1 3 2 2 3 1 4 19 6 20 7 28 8 21 9 27 10 22 11 26 12 23 13
DOCKED: REMARK SMILES IDX 25 14 24 15 5 16 6 17 7 18 8 19 12 20 9 21 11 22 10 23 13 24
DOCKED: REMARK SMILES IDX 14 25 18 26 15 27 17 28 16 29
DOCKED: REMARK H PARENT 3 5
DOCKED: USER                              x       y       z     vdW  Elec       q    Type
DOCKED: USER                           _______ _______ _______ _____ _____    ______ ____
DOCKED: ROOT
DOCKED: ATOM      1  C   UNL     1     140.076  74.074 221.005 -0.17 -0.04    +0.216 C  
DOCKED: ENDROOT
DOCKED: BRANCH   1   2
DOCKED: ATOM      2  N   UNL     1     139.967  73.299 222.203 -0.15 +0.04    -0.342 N  
DOCKED: ATOM      3  C   UNL     1     140.345  71.950 222.291 -0.20 -0.03    +0.270 C  
DOCKED: ATOM      4  O   UNL     1     140.815  71.356 221.263 -0.12 +0.03    -0.268 OA 
DOCKED: ATOM      5  H   UNL     1     139.582  73.743 223.088 -0.50 -0.03    +0.164 HD 
DOCKED: BRANCH   3   6
DOCKED: ATOM      6  C   UNL     1     140.199  71.222 223.569 -0.31 -0.02    +0.128 A  
DOCKED: ATOM      7  C   UNL     1     139.565  69.991 223.581 -0.26 -0.01    +0.035 A  
DOCKED: ATOM      8  N   UNL     1     140.683  71.766 224.699 -0.28 +0.03    -0.243 NA 
DOCKED: ATOM      9  C   UNL     1     139.446  69.333 224.803 -0.37 -0.00    +0.013 A  
DOCKED: ATOM     10  C   UNL     1     140.554  71.110 225.867 -0.55 -0.01    +0.071 A  
DOCKED: ATOM     11  C   UNL     1     139.934  69.879 225.952 -0.49 -0.00    +0.000 A  
DOCKED: ATOM     12  C   UNL     1     141.075  71.719 227.009 -0.75 -0.00    +0.029 A  
DOCKED: ATOM     13  C   UNL     1     139.853  69.286 227.197 -0.57 -0.00    +0.010 A  
DOCKED: ATOM     14  C   UNL     1     140.986  71.112 228.256 -0.69 -0.00    +0.002 A  
DOCKED: ATOM     15  C   UNL     1     140.372  69.894 228.339 -0.59 -0.00    +0.001 A  
DOCKED: ENDBRANCH   3   6
DOCKED: ENDBRANCH   1   2
DOCKED: BRANCH   1  16
DOCKED: ATOM     16  C   UNL     1     141.139  75.097 221.156 -0.22 -0.06    +0.242 C  
DOCKED: ATOM     17  O   UNL     1     141.110  75.785 222.219 -0.39 +0.07    -0.273 OA 
DOCKED: BRANCH  16  18
DOCKED: ATOM     18  N   UNL     1     142.133  75.285 220.149 -0.12 +0.14    -0.338 N  
DOCKED: ATOM     19  C   UNL     1     142.580  76.634 219.859 -0.27 -0.08    +0.120 C  
DOCKED: ATOM     20  C   UNL     1     142.676  74.162 219.439 -0.19 -0.03    +0.088 C  
DOCKED: ATOM     21  C   UNL     1     142.489  76.757 218.331 -0.27 -0.01    +0.022 C  
DOCKED: ATOM     22  C   UNL     1     143.276  74.470 218.118 -0.16 -0.01    +0.025 C  
DOCKED: ATOM     23  C   UNL     1     143.689  75.907 217.896 -0.19 -0.00    +0.004 C  
DOCKED: BRANCH  20  24
DOCKED: ATOM     24  C   UNL     1     143.509  73.326 220.380 -0.34 -0.00    +0.016 C  
DOCKED: ATOM     25  C   UNL     1     143.734  71.927 219.895 -0.25 -0.00    +0.034 C  
DOCKED: ATOM     26  C   UNL     1     144.777  73.956 220.848 -0.46 -0.01    +0.034 C  
DOCKED: ATOM     27  C   UNL     1     145.177  71.595 219.603 -0.22 +0.04    +0.160 C  
DOCKED: ATOM     28  C   UNL     1     145.978  73.745 219.993 -0.30 +0.00    +0.160 C  
DOCKED: ATOM     29  O   UNL     1     145.933  72.647 219.186 -0.71 -0.28    -0.381 OA 
DOCKED: ENDBRANCH  20  24
DOCKED: ENDBRANCH  16  18
DOCKED: ENDBRANCH   1  16
DOCKED: TORSDOF 5
DOCKED: TER
DOCKED: ENDMDL
________________________________________________________________________________


    FINAL DOCKED STATE:
    ________________________


Run:   5 / 20
Time taken for this run:   0.030s

DOCKED: MODEL        5
DOCKED: USER    Run = 5
DOCKED: USER
DOCKED: USER    Estimated Free Energy of Binding    =  -8.51 kcal/mol  [=(1)+(2)+(3)-(4)]
DOCKED: USER
DOCKED: USER    (1) Final Intermolecular Energy     = -10.00 kcal/mol
DOCKED: USER        vdW + Hbond + desolv Energy     =  -9.71 kcal/mol
DOCKED: USER        Electrostatic Energy            =  -0.30 kcal/mol
DOCKED: USER        Moving Ligand-Fixed Receptor    = -10.00 kcal/mol
DOCKED: USER        Moving Ligand-Moving Receptor   =  +0.00 kcal/mol
DOCKED: USER    (2) Final Total Internal Energy     =  -1.70 kcal/mol
DOCKED: USER    (3) Torsional Free Energy           =  +1.49 kcal/mol
DOCKED: USER    (4) Unbound System's Energy         =  -1.70 kcal/mol
DOCKED: USER
DOCKED: USER
DOCKED: REMARK SMILES O=C(NCC(=O)N1CCCC[C@H]1C1CCOCC1)c1ccc2ccccc2n1
DOCKED: REMARK SMILES IDX 4 1 3 2 2 3 1 4 19 6 20 7 28 8 21 9 27 10 22 11 26 12 23 13
DOCKED: REMARK SMILES IDX 25 14 24 15 5 16 6 17 7 18 8 19 12 20 9 21 11 22 10 23 13 24
DOCKED: REMARK SMILES IDX 14 25 18 26 15 27 17 28 16 29
DOCKED: REMARK H PARENT 3 5
DOCKED: USER                              x       y       z     vdW  Elec       q    Type
DOCKED: USER                           _______ _______ _______ _____ _____    ______ ____
DOCKED: ROOT
DOCKED: ATOM      1  C   UNL     1     139.430  73.723 221.129 -0.14 -0.04    +0.216 C  
DOCKED: ENDROOT
DOCKED: BRANCH   1   2
DOCKED: ATOM      2  N   UNL     1     139.589  72.958 222.328 -0.15 +0.07    -0.342 N  
DOCKED: ATOM      3  C   UNL     1     139.538  71.556 222.365 -0.17 -0.05    +0.270 C  
DOCKED: ATOM      4  O   UNL     1     139.341  70.900 221.287 -0.07 +0.05    -0.268 OA 
DOCKED: ATOM      5  H   UNL     1     139.754  73.452 223.253 -0.40 -0.02    +0.164 HD 
DOCKED: BRANCH   3   6
DOCKED: ATOM      6  C   UNL     1     139.712  70.842 223.648 -0.29 -0.02    +0.128 A  
DOCKED: ATOM      7  C   UNL     1     139.359  69.505 223.735 -0.25 -0.01    +0.035 A  
DOCKED: ATOM      8  N   UNL     1     140.209  71.501 224.709 -0.30 +0.04    -0.243 NA 
DOCKED: ATOM      9  C   UNL     1     139.537  68.865 224.959 -0.39 -0.00    +0.013 A  
DOCKED: ATOM     10  C   UNL     1     140.370  70.860 225.880 -0.52 -0.01    +0.071 A  
DOCKED: ATOM     11  C   UNL     1     140.040  69.527 226.039 -0.49 -0.00    +0.000 A  
DOCKED: ATOM     12  C   UNL     1     140.890  71.590 226.950 -0.72 -0.00    +0.029 A  
DOCKED: ATOM     13  C   UNL     1     140.244  68.959 227.281 -0.62 -0.00    +0.010 A  
DOCKED: ATOM     14  C   UNL     1     141.089  71.006 228.194 -0.67 -0.00    +0.002 A  
DOCKED: ATOM     15  C   UNL     1     140.762  69.688 228.350 -0.59 -0.00    +0.001 A  
DOCKED: ENDBRANCH   3   6
DOCKED: ENDBRANCH   1   2
DOCKED: BRANCH   1  16
DOCKED: ATOM     16  C   UNL     1     140.612  73.544 220.251 -0.09 -0.05    +0.242 C  
DOCKED: ATOM     17  O   UNL     1     140.654  72.470 219.579 -0.03 +0.05    -0.273 OA 
DOCKED: BRANCH  16  18
DOCKED: ATOM     18  N   UNL     1     141.636  74.534 220.177 -0.08 +0.09    -0.338 N  
DOCKED: ATOM     19  C   UNL     1     141.380  75.840 220.752 -0.25 -0.05    +0.120 C  
DOCKED: ATOM     20  C   UNL     1     142.892  74.242 219.546 -0.23 -0.03    +0.088 C  
DOCKED: ATOM     21  C   UNL     1     141.773  76.837 219.652 -0.26 -0.01    +0.022 C  
DOCKED: ATOM     22  C   UNL     1     143.655  75.419 219.067 -0.30 -0.01    +0.025 C  
DOCKED: ATOM     23  C   UNL     1     143.303  76.743 219.705 -0.29 -0.00    +0.004 C  
DOCKED: BRANCH  20  24
DOCKED: ATOM     24  C   UNL     1     143.652  73.237 220.379 -0.35 -0.00    +0.016 C  
DOCKED: ATOM     25  C   UNL     1     143.716  71.876 219.759 -0.23 -0.00    +0.034 C  
DOCKED: ATOM     26  C   UNL     1     144.991  73.684 220.861 -0.54 -0.01    +0.034 C  
DOCKED: ATOM     27  C   UNL     1     145.107  71.424 219.390 -0.22 +0.05    +0.160 C  
DOCKED: ATOM     28  C   UNL     1     146.142  73.432 219.951 -0.38 +0.03    +0.160 C  
DOCKED: ATOM     29  O   UNL     1     145.962  72.427 219.048 -0.68 -0.35    -0.381 OA 
DOCKED: ENDBRANCH  20  24
DOCKED: ENDBRANCH  16  18
DOCKED: ENDBRANCH   1  16
DOCKED: TORSDOF 5
DOCKED: TER
DOCKED: ENDMDL
________________________________________________________________________________


    FINAL DOCKED STATE:
    ________________________


Run:   6 / 20
Time taken for this run:   0.030s

DOCKED: MODEL        6
DOCKED: USER    Run = 6
DOCKED: USER
DOCKED: USER    Estimated Free Energy of Binding    =  -8.44 kcal/mol  [=(1)+(2)+(3)-(4)]
DOCKED: USER
DOCKED: USER    (1) Final Intermolecular Energy     =  -9.93 kcal/mol
DOCKED: USER        vdW + Hbond + desolv Energy     =  -9.89 kcal/mol
DOCKED: USER        Electrostatic Energy            =  -0.04 kcal/mol
DOCKED: USER        Moving Ligand-Fixed Receptor    =  -9.93 kcal/mol
DOCKED: USER        Moving Ligand-Moving Receptor   =  +0.00 kcal/mol
DOCKED: USER    (2) Final Total Internal Energy     =  -1.98 kcal/mol
DOCKED: USER    (3) Torsional Free Energy           =  +1.49 kcal/mol
DOCKED: USER    (4) Unbound System's Energy         =  -1.98 kcal/mol
DOCKED: USER
DOCKED: USER
DOCKED: REMARK SMILES O=C(NCC(=O)N1CCCC[C@H]1C1CCOCC1)c1ccc2ccccc2n1
DOCKED: REMARK SMILES IDX 4 1 3 2 2 3 1 4 19 6 20 7 28 8 21 9 27 10 22 11 26 12 23 13
DOCKED: REMARK SMILES IDX 25 14 24 15 5 16 6 17 7 18 8 19 12 20 9 21 11 22 10 23 13 24
DOCKED: REMARK SMILES IDX 14 25 18 26 15 27 17 28 16 29
DOCKED: REMARK H PARENT 3 5
DOCKED: USER                              x       y       z     vdW  Elec       q    Type
DOCKED: USER                           _______ _______ _______ _____ _____    ______ ____
DOCKED: ROOT
DOCKED: ATOM      1  C   UNL     1     139.753  74.177 221.167 -0.17 -0.04    +0.216 C  
DOCKED: ENDROOT
DOCKED: BRANCH   1   2
DOCKED: ATOM      2  N   UNL     1     139.773  73.369 222.348 -0.14 +0.05    -0.342 N  
DOCKED: ATOM      3  C   UNL     1     140.039  71.990 222.340 -0.20 -0.04    +0.270 C  
DOCKED: ATOM      4  O   UNL     1     140.280  71.398 221.235 -0.10 +0.04    -0.268 OA 
DOCKED: ATOM      5  H   UNL     1     139.578  73.809 223.294 -0.48 -0.03    +0.164 HD 
DOCKED: BRANCH   3   6
DOCKED: ATOM      6  C   UNL     1     140.039  71.228 223.607 -0.32 -0.02    +0.128 A  
DOCKED: ATOM      7  C   UNL     1     139.564  69.928 223.618 -0.26 -0.01    +0.035 A  
DOCKED: ATOM      8  N   UNL     1     140.500  71.811 224.728 -0.28 +0.04    -0.243 NA 
DOCKED: ATOM      9  C   UNL     1     139.581  69.241 224.829 -0.37 -0.00    +0.013 A  
DOCKED: ATOM     10  C   UNL     1     140.504  71.125 225.885 -0.54 -0.01    +0.071 A  
DOCKED: ATOM     11  C   UNL     1     140.045  69.824 225.969 -0.49 -0.00    +0.000 A  
DOCKED: ATOM     12  C   UNL     1     140.993  71.775 227.019 -0.75 -0.01    +0.029 A  
DOCKED: ATOM     13  C   UNL     1     140.092  69.206 227.204 -0.59 -0.00    +0.010 A  
DOCKED: ATOM     14  C   UNL     1     141.033  71.141 228.255 -0.69 -0.00    +0.002 A  
DOCKED: ATOM     15  C   UNL     1     140.579  69.855 228.336 -0.59 -0.00    +0.001 A  
DOCKED: ENDBRANCH   3   6
DOCKED: ENDBRANCH   1   2
DOCKED: BRANCH   1  16
DOCKED: ATOM     16  C   UNL     1     139.939  75.604 221.524 -0.22 -0.05    +0.242 C  
DOCKED: ATOM     17  O   UNL     1     139.648  75.928 222.714 -0.41 +0.04    -0.273 OA 
DOCKED: BRANCH  16  18
DOCKED: ATOM     18  N   UNL     1     140.418  76.549 220.569 -0.06 +0.11    -0.338 N  
DOCKED: ATOM     19  C   UNL     1     139.875  76.512 219.224 -0.05 -0.04    +0.120 C  
DOCKED: ATOM     20  C   UNL     1     141.416  77.514 220.932 -0.28 -0.05    +0.088 C  
DOCKED: ATOM     21  C   UNL     1     141.104  76.515 218.304 -0.10 -0.01    +0.022 C  
DOCKED: ATOM     22  C   UNL     1     142.200  78.077 219.806 -0.21 -0.02    +0.025 C  
DOCKED: ATOM     23  C   UNL     1     141.567  77.971 218.438 -0.21 -0.00    +0.004 C  
DOCKED: BRANCH  20  24
DOCKED: ATOM     24  C   UNL     1     140.828  78.505 221.907 -0.37 -0.01    +0.016 C  
DOCKED: ATOM     25  C   UNL     1     141.427  78.421 223.277 -0.52 -0.01    +0.034 C  
DOCKED: ATOM     26  C   UNL     1     140.755  79.915 221.425 -0.29 -0.01    +0.034 C  
DOCKED: ATOM     27  C   UNL     1     142.176  79.658 223.706 -0.50 -0.04    +0.160 C  
DOCKED: ATOM     28  C   UNL     1     141.955  80.762 221.668 -0.35 -0.05    +0.160 C  
DOCKED: ATOM     29  O   UNL     1     142.759  80.354 222.691 -0.34 +0.13    -0.381 OA 
DOCKED: ENDBRANCH  20  24
DOCKED: ENDBRANCH  16  18
DOCKED: ENDBRANCH   1  16
DOCKED: TORSDOF 5
DOCKED: TER
DOCKED: ENDMDL
________________________________________________________________________________


    FINAL DOCKED STATE:
    ________________________


Run:   7 / 20
Time taken for this run:   0.030s

DOCKED: MODEL        7
DOCKED: USER    Run = 7
DOCKED: USER
DOCKED: USER    Estimated Free Energy of Binding    =  -8.85 kcal/mol  [=(1)+(2)+(3)-(4)]
DOCKED: USER
DOCKED: USER    (1) Final Intermolecular Energy     = -10.34 kcal/mol
DOCKED: USER        vdW + Hbond + desolv Energy     = -10.08 kcal/mol
DOCKED: USER        Electrostatic Energy            =  -0.26 kcal/mol
DOCKED: USER        Moving Ligand-Fixed Receptor    = -10.34 kcal/mol
DOCKED: USER        Moving Ligand-Moving Receptor   =  +0.00 kcal/mol
DOCKED: USER    (2) Final Total Internal Energy     =  -1.97 kcal/mol
DOCKED: USER    (3) Torsional Free Energy           =  +1.49 kcal/mol
DOCKED: USER    (4) Unbound System's Energy         =  -1.97 kcal/mol
DOCKED: USER
DOCKED: USER
DOCKED: REMARK SMILES O=C(NCC(=O)N1CCCC[C@H]1C1CCOCC1)c1ccc2ccccc2n1
DOCKED: REMARK SMILES IDX 4 1 3 2 2 3 1 4 19 6 20 7 28 8 21 9 27 10 22 11 26 12 23 13
DOCKED: REMARK SMILES IDX 25 14 24 15 5 16 6 17 7 18 8 19 12 20 9 21 11 22 10 23 13 24
DOCKED: REMARK SMILES IDX 14 25 18 26 15 27 17 28 16 29
DOCKED: REMARK H PARENT 3 5
DOCKED: USER                              x       y       z     vdW  Elec       q    Type
DOCKED: USER                           _______ _______ _______ _____ _____    ______ ____
DOCKED: ROOT
DOCKED: ATOM      1  C   UNL     1     140.059  74.106 221.013 -0.17 -0.04    +0.216 C  
DOCKED: ENDROOT
DOCKED: BRANCH   1   2
DOCKED: ATOM      2  N   UNL     1     139.975  73.336 222.216 -0.15 +0.04    -0.342 N  
DOCKED: ATOM      3  C   UNL     1     140.344  71.984 222.297 -0.20 -0.03    +0.270 C  
DOCKED: ATOM      4  O   UNL     1     140.781  71.383 221.259 -0.12 +0.04    -0.268 OA 
DOCKED: ATOM      5  H   UNL     1     139.618  73.785 223.109 -0.49 -0.02    +0.164 HD 
DOCKED: BRANCH   3   6
DOCKED: ATOM      6  C   UNL     1     140.227  71.260 223.581 -0.32 -0.02    +0.128 A  
DOCKED: ATOM      7  C   UNL     1     139.632  70.010 223.604 -0.26 -0.01    +0.035 A  
DOCKED: ATOM      8  N   UNL     1     140.698  71.828 224.705 -0.27 +0.03    -0.243 NA 
DOCKED: ATOM      9  C   UNL     1     139.539  69.357 224.831 -0.37 -0.00    +0.013 A  
DOCKED: ATOM     10  C   UNL     1     140.595  71.176 225.878 -0.55 -0.01    +0.071 A  
DOCKED: ATOM     11  C   UNL     1     140.014  69.926 225.974 -0.50 -0.00    +0.000 A  
DOCKED: ATOM     12  C   UNL     1     141.101  71.809 227.014 -0.76 -0.00    +0.029 A  
DOCKED: ATOM     13  C   UNL     1     139.957  69.340 227.224 -0.58 -0.00    +0.010 A  
DOCKED: ATOM     14  C   UNL     1     141.036  71.208 228.265 -0.71 -0.00    +0.002 A  
DOCKED: ATOM     15  C   UNL     1     140.461  69.972 228.359 -0.57 -0.00    +0.001 A  
DOCKED: ENDBRANCH   3   6
DOCKED: ENDBRANCH   1   2
DOCKED: BRANCH   1  16
DOCKED: ATOM     16  C   UNL     1     141.140  75.114 221.128 -0.22 -0.06    +0.242 C  
DOCKED: ATOM     17  O   UNL     1     141.128  75.835 222.171 -0.38 +0.08    -0.273 OA 
DOCKED: BRANCH  16  18
DOCKED: ATOM     18  N   UNL     1     142.133  75.254 220.112 -0.12 +0.13    -0.338 N  
DOCKED: ATOM     19  C   UNL     1     142.618  76.584 219.796 -0.28 -0.08    +0.120 C  
DOCKED: ATOM     20  C   UNL     1     142.637  74.103 219.418 -0.18 -0.02    +0.088 C  
DOCKED: ATOM     21  C   UNL     1     142.521  76.684 218.267 -0.26 -0.01    +0.022 C  
DOCKED: ATOM     22  C   UNL     1     143.236  74.371 218.089 -0.15 -0.01    +0.025 C  
DOCKED: ATOM     23  C   UNL     1     143.691  75.790 217.839 -0.20 -0.00    +0.004 C  
DOCKED: BRANCH  20  24
DOCKED: ATOM     24  C   UNL     1     143.450  73.258 220.369 -0.33 -0.00    +0.016 C  
DOCKED: ATOM     25  C   UNL     1     143.708  71.873 219.863 -0.24 -0.00    +0.034 C  
DOCKED: ATOM     26  C   UNL     1     144.694  73.895 220.889 -0.41 -0.01    +0.034 C  
DOCKED: ATOM     27  C   UNL     1     145.163  71.565 219.610 -0.22 +0.04    +0.160 C  
DOCKED: ATOM     28  C   UNL     1     145.924  73.716 220.069 -0.38 -0.00    +0.160 C  
DOCKED: ATOM     29  O   UNL     1     145.919  72.634 219.239 -0.70 -0.27    -0.381 OA 
DOCKED: ENDBRANCH  20  24
DOCKED: ENDBRANCH  16  18
DOCKED: ENDBRANCH   1  16
DOCKED: TORSDOF 5
DOCKED: TER
DOCKED: ENDMDL
________________________________________________________________________________


    FINAL DOCKED STATE:
    ________________________


Run:   8 / 20
Time taken for this run:   0.030s

DOCKED: MODEL        8
DOCKED: USER    Run = 8
DOCKED: USER
DOCKED: USER    Estimated Free Energy of Binding    =  -8.48 kcal/mol  [=(1)+(2)+(3)-(4)]
DOCKED: USER
DOCKED: USER    (1) Final Intermolecular Energy     =  -9.97 kcal/mol
DOCKED: USER        vdW + Hbond + desolv Energy     =  -9.92 kcal/mol
DOCKED: USER        Electrostatic Energy            =  -0.05 kcal/mol
DOCKED: USER        Moving Ligand-Fixed Receptor    =  -9.97 kcal/mol
DOCKED: USER        Moving Ligand-Moving Receptor   =  +0.00 kcal/mol
DOCKED: USER    (2) Final Total Internal Energy     =  -1.96 kcal/mol
DOCKED: USER    (3) Torsional Free Energy           =  +1.49 kcal/mol
DOCKED: USER    (4) Unbound System's Energy         =  -1.96 kcal/mol
DOCKED: USER
DOCKED: USER
DOCKED: REMARK SMILES O=C(NCC(=O)N1CCCC[C@H]1C1CCOCC1)c1ccc2ccccc2n1
DOCKED: REMARK SMILES IDX 4 1 3 2 2 3 1 4 19 6 20 7 28 8 21 9 27 10 22 11 26 12 23 13
DOCKED: REMARK SMILES IDX 25 14 24 15 5 16 6 17 7 18 8 19 12 20 9 21 11 22 10 23 13 24
DOCKED: REMARK SMILES IDX 14 25 18 26 15 27 17 28 16 29
DOCKED: REMARK H PARENT 3 5
DOCKED: USER                              x       y       z     vdW  Elec       q    Type
DOCKED: USER                           _______ _______ _______ _____ _____    ______ ____
DOCKED: ROOT
DOCKED: ATOM      1  C   UNL     1     139.905  74.228 221.164 -0.18 -0.04    +0.216 C  
DOCKED: ENDROOT
DOCKED: BRANCH   1   2
DOCKED: ATOM      2  N   UNL     1     139.864  73.417 222.343 -0.14 +0.04    -0.342 N  
DOCKED: ATOM      3  C   UNL     1     140.205  72.056 222.360 -0.21 -0.04    +0.270 C  
DOCKED: ATOM      4  O   UNL     1     140.575  71.482 221.282 -0.12 +0.04    -0.268 OA 
DOCKED: ATOM      5  H   UNL     1     139.562  73.843 223.268 -0.49 -0.03    +0.164 HD 
DOCKED: BRANCH   3   6
DOCKED: ATOM      6  C   UNL     1     140.134  71.290 223.623 -0.32 -0.02    +0.128 A  
DOCKED: ATOM      7  C   UNL     1     139.587  70.018 223.617 -0.27 -0.01    +0.035 A  
DOCKED: ATOM      8  N   UNL     1     140.602  71.842 224.757 -0.27 +0.03    -0.243 NA 
DOCKED: ATOM      9  C   UNL     1     139.538  69.327 224.825 -0.37 -0.00    +0.013 A  
DOCKED: ATOM     10  C   UNL     1     140.542  71.152 225.911 -0.55 -0.01    +0.071 A  
DOCKED: ATOM     11  C   UNL     1     140.009  69.879 225.978 -0.49 -0.00    +0.000 A  
DOCKED: ATOM     12  C   UNL     1     141.041  71.770 227.058 -0.76 -0.01    +0.029 A  
DOCKED: ATOM     13  C   UNL     1     139.994  69.254 227.210 -0.58 -0.00    +0.010 A  
DOCKED: ATOM     14  C   UNL     1     141.019  71.130 228.291 -0.69 -0.00    +0.002 A  
DOCKED: ATOM     15  C   UNL     1     140.492  69.871 228.356 -0.58 -0.00    +0.001 A  
DOCKED: ENDBRANCH   3   6
DOCKED: ENDBRANCH   1   2
DOCKED: BRANCH   1  16
DOCKED: ATOM     16  C   UNL     1     139.948  75.663 221.535 -0.23 -0.05    +0.242 C  
DOCKED: ATOM     17  O   UNL     1     139.570  75.952 222.709 -0.41 +0.04    -0.273 OA 
DOCKED: BRANCH  16  18
DOCKED: ATOM     18  N   UNL     1     140.394  76.653 220.609 -0.06 +0.11    -0.338 N  
DOCKED: ATOM     19  C   UNL     1     139.826  76.659 219.274 -0.05 -0.04    +0.120 C  
DOCKED: ATOM     20  C   UNL     1     141.385  77.618 220.991 -0.28 -0.05    +0.088 C  
DOCKED: ATOM     21  C   UNL     1     141.037  76.718 218.332 -0.10 -0.01    +0.022 C  
DOCKED: ATOM     22  C   UNL     1     142.138  78.237 219.873 -0.17 -0.02    +0.025 C  
DOCKED: ATOM     23  C   UNL     1     141.480  78.175 218.515 -0.20 -0.00    +0.004 C  
DOCKED: BRANCH  20  24
DOCKED: ATOM     24  C   UNL     1     140.801  78.560 222.015 -0.37 -0.01    +0.016 C  
DOCKED: ATOM     25  C   UNL     1     141.458  78.462 223.358 -0.53 -0.01    +0.034 C  
DOCKED: ATOM     26  C   UNL     1     140.659  79.979 221.576 -0.29 -0.01    +0.034 C  
DOCKED: ATOM     27  C   UNL     1     142.178  79.714 223.791 -0.49 -0.04    +0.160 C  
DOCKED: ATOM     28  C   UNL     1     141.836  80.863 221.796 -0.37 -0.05    +0.160 C  
DOCKED: ATOM     29  O   UNL     1     142.694  80.458 222.775 -0.34 +0.12    -0.381 OA 
DOCKED: ENDBRANCH  20  24
DOCKED: ENDBRANCH  16  18
DOCKED: ENDBRANCH   1  16
DOCKED: TORSDOF 5
DOCKED: TER
DOCKED: ENDMDL
________________________________________________________________________________


    FINAL DOCKED STATE:
    ________________________


Run:   9 / 20
Time taken for this run:   0.030s

DOCKED: MODEL        9
DOCKED: USER    Run = 9
DOCKED: USER
DOCKED: USER    Estimated Free Energy of Binding    =  -8.50 kcal/mol  [=(1)+(2)+(3)-(4)]
DOCKED: USER
DOCKED: USER    (1) Final Intermolecular Energy     =  -9.99 kcal/mol
DOCKED: USER        vdW + Hbond + desolv Energy     =  -9.91 kcal/mol
DOCKED: USER        Electrostatic Energy            =  -0.08 kcal/mol
DOCKED: USER        Moving Ligand-Fixed Receptor    =  -9.99 kcal/mol
DOCKED: USER        Moving Ligand-Moving Receptor   =  +0.00 kcal/mol
DOCKED: USER    (2) Final Total Internal Energy     =  -1.87 kcal/mol
DOCKED: USER    (3) Torsional Free Energy           =  +1.49 kcal/mol
DOCKED: USER    (4) Unbound System's Energy         =  -1.87 kcal/mol
DOCKED: USER
DOCKED: USER
DOCKED: REMARK SMILES O=C(NCC(=O)N1CCCC[C@H]1C1CCOCC1)c1ccc2ccccc2n1
DOCKED: REMARK SMILES IDX 4 1 3 2 2 3 1 4 19 6 20 7 28 8 21 9 27 10 22 11 26 12 23 13
DOCKED: REMARK SMILES IDX 25 14 24 15 5 16 6 17 7 18 8 19 12 20 9 21 11 22 10 23 13 24
DOCKED: REMARK SMILES IDX 14 25 18 26 15 27 17 28 16 29
DOCKED: REMARK H PARENT 3 5
DOCKED: USER                              x       y       z     vdW  Elec       q    Type
DOCKED: USER                           _______ _______ _______ _____ _____    ______ ____
DOCKED: ROOT
DOCKED: ATOM      1  C   UNL     1     140.192  74.383 221.164 -0.19 -0.04    +0.216 C  
DOCKED: ENDROOT
DOCKED: BRANCH   1   2
DOCKED: ATOM      2  N   UNL     1     139.990  73.531 222.296 -0.12 +0.03    -0.342 N  
DOCKED: ATOM      3  C   UNL     1     140.551  72.249 222.412 -0.20 -0.03    +0.270 C  
DOCKED: ATOM      4  O   UNL     1     141.286  71.792 221.473 -0.16 +0.03    -0.268 OA 
DOCKED: ATOM      5  H   UNL     1     139.387  73.860 223.106 -0.52 -0.05    +0.164 HD 
DOCKED: BRANCH   3   6
DOCKED: ATOM      6  C   UNL     1     140.292  71.433 223.617 -0.33 -0.02    +0.128 A  
DOCKED: ATOM      7  C   UNL     1     139.605  70.237 223.492 -0.27 -0.01    +0.035 A  
DOCKED: ATOM      8  N   UNL     1     140.726  71.866 224.814 -0.27 +0.03    -0.243 NA 
DOCKED: ATOM      9  C   UNL     1     139.380  69.494 224.649 -0.36 -0.00    +0.013 A  
DOCKED: ATOM     10  C   UNL     1     140.494  71.129 225.916 -0.54 -0.01    +0.071 A  
DOCKED: ATOM     11  C   UNL     1     139.816  69.926 225.865 -0.48 -0.00    +0.000 A  
DOCKED: ATOM     12  C   UNL     1     140.966  71.623 227.133 -0.75 -0.01    +0.029 A  
DOCKED: ATOM     13  C   UNL     1     139.630  69.244 227.052 -0.55 -0.00    +0.010 A  
DOCKED: ATOM     14  C   UNL     1     140.771  70.927 228.319 -0.64 -0.00    +0.002 A  
DOCKED: ATOM     15  C   UNL     1     140.100  69.738 228.268 -0.62 -0.00    +0.001 A  
DOCKED: ENDBRANCH   3   6
DOCKED: ENDBRANCH   1   2
DOCKED: BRANCH   1  16
DOCKED: ATOM     16  C   UNL     1     139.989  75.800 221.551 -0.23 -0.06    +0.242 C  
DOCKED: ATOM     17  O   UNL     1     139.545  76.005 222.720 -0.39 +0.04    -0.273 OA 
DOCKED: BRANCH  16  18
DOCKED: ATOM     18  N   UNL     1     140.282  76.863 220.646 -0.06 +0.11    -0.338 N  
DOCKED: ATOM     19  C   UNL     1     139.577  76.908 219.379 -0.05 -0.03    +0.120 C  
DOCKED: ATOM     20  C   UNL     1     141.254  77.864 220.983 -0.28 -0.04    +0.088 C  
DOCKED: ATOM     21  C   UNL     1     140.678  77.090 218.324 -0.08 -0.01    +0.022 C  
DOCKED: ATOM     22  C   UNL     1     141.852  78.586 219.834 -0.26 -0.02    +0.025 C  
DOCKED: ATOM     23  C   UNL     1     141.059  78.559 218.548 -0.16 -0.00    +0.004 C  
DOCKED: BRANCH  20  24
DOCKED: ATOM     24  C   UNL     1     140.730  78.713 222.117 -0.38 -0.01    +0.016 C  
DOCKED: ATOM     25  C   UNL     1     141.526  78.578 223.378 -0.55 -0.01    +0.034 C  
DOCKED: ATOM     26  C   UNL     1     140.469  80.142 221.781 -0.29 -0.01    +0.034 C  
DOCKED: ATOM     27  C   UNL     1     142.221  79.845 223.813 -0.50 -0.04    +0.160 C  
DOCKED: ATOM     28  C   UNL     1     141.616  81.080 221.935 -0.36 -0.04    +0.160 C  
DOCKED: ATOM     29  O   UNL     1     142.590  80.672 222.797 -0.33 +0.10    -0.381 OA 
DOCKED: ENDBRANCH  20  24
DOCKED: ENDBRANCH  16  18
DOCKED: ENDBRANCH   1  16
DOCKED: TORSDOF 5
DOCKED: TER
DOCKED: ENDMDL
________________________________________________________________________________


    FINAL DOCKED STATE:
    ________________________


Run:   10 / 20
Time taken for this run:   0.030s

DOCKED: MODEL        10
DOCKED: USER    Run = 10
DOCKED: USER
DOCKED: USER    Estimated Free Energy of Binding    =  -8.88 kcal/mol  [=(1)+(2)+(3)-(4)]
DOCKED: USER
DOCKED: USER    (1) Final Intermolecular Energy     = -10.37 kcal/mol
DOCKED: USER        vdW + Hbond + desolv Energy     = -10.10 kcal/mol
DOCKED: USER        Electrostatic Energy            =  -0.28 kcal/mol
DOCKED: USER        Moving Ligand-Fixed Receptor    = -10.37 kcal/mol
DOCKED: USER        Moving Ligand-Moving Receptor   =  +0.00 kcal/mol
DOCKED: USER    (2) Final Total Internal Energy     =  -1.94 kcal/mol
DOCKED: USER    (3) Torsional Free Energy           =  +1.49 kcal/mol
DOCKED: USER    (4) Unbound System's Energy         =  -1.94 kcal/mol
DOCKED: USER
DOCKED: USER
DOCKED: REMARK SMILES O=C(NCC(=O)N1CCCC[C@H]1C1CCOCC1)c1ccc2ccccc2n1
DOCKED: REMARK SMILES IDX 4 1 3 2 2 3 1 4 19 6 20 7 28 8 21 9 27 10 22 11 26 12 23 13
DOCKED: REMARK SMILES IDX 25 14 24 15 5 16 6 17 7 18 8 19 12 20 9 21 11 22 10 23 13 24
DOCKED: REMARK SMILES IDX 14 25 18 26 15 27 17 28 16 29
DOCKED: REMARK H PARENT 3 5
DOCKED: USER                              x       y       z     vdW  Elec       q    Type
DOCKED: USER                           _______ _______ _______ _____ _____    ______ ____
DOCKED: ROOT
DOCKED: ATOM      1  C   UNL     1     140.067  74.099 221.030 -0.17 -0.04    +0.216 C  
DOCKED: ENDROOT
DOCKED: BRANCH   1   2
DOCKED: ATOM      2  N   UNL     1     139.958  73.321 222.227 -0.15 +0.04    -0.342 N  
DOCKED: ATOM      3  C   UNL     1     140.323  71.968 222.308 -0.20 -0.03    +0.270 C  
DOCKED: ATOM      4  O   UNL     1     140.781  71.373 221.275 -0.12 +0.04    -0.268 OA 
DOCKED: ATOM      5  H   UNL     1     139.583  73.766 223.115 -0.50 -0.03    +0.164 HD 
DOCKED: BRANCH   3   6
DOCKED: ATOM      6  C   UNL     1     140.178  71.237 223.585 -0.32 -0.02    +0.128 A  
DOCKED: ATOM      7  C   UNL     1     139.568  69.994 223.590 -0.27 -0.01    +0.035 A  
DOCKED: ATOM      8  N   UNL     1     140.640  71.791 224.719 -0.28 +0.03    -0.243 NA 
DOCKED: ATOM      9  C   UNL     1     139.450  69.334 224.811 -0.37 -0.00    +0.013 A  
DOCKED: ATOM     10  C   UNL     1     140.512  71.133 225.886 -0.54 -0.01    +0.071 A  
DOCKED: ATOM     11  C   UNL     1     139.915  69.890 225.965 -0.49 -0.00    +0.000 A  
DOCKED: ATOM     12  C   UNL     1     141.009  71.752 227.034 -0.75 -0.01    +0.029 A  
DOCKED: ATOM     13  C   UNL     1     139.833  69.295 227.210 -0.57 -0.00    +0.010 A  
DOCKED: ATOM     14  C   UNL     1     140.919  71.143 228.279 -0.69 -0.00    +0.002 A  
DOCKED: ATOM     15  C   UNL     1     140.328  69.914 228.357 -0.58 -0.00    +0.001 A  
DOCKED: ENDBRANCH   3   6
DOCKED: ENDBRANCH   1   2
DOCKED: BRANCH   1  16
DOCKED: ATOM     16  C   UNL     1     141.157  75.094 221.168 -0.22 -0.06    +0.242 C  
DOCKED: ATOM     17  O   UNL     1     141.161  75.780 222.233 -0.38 +0.07    -0.273 OA 
DOCKED: BRANCH  16  18
DOCKED: ATOM     18  N   UNL     1     142.141  75.260 220.148 -0.12 +0.14    -0.338 N  
DOCKED: ATOM     19  C   UNL     1     142.591  76.601 219.830 -0.28 -0.08    +0.120 C  
DOCKED: ATOM     20  C   UNL     1     142.671  74.122 219.451 -0.19 -0.02    +0.088 C  
DOCKED: ATOM     21  C   UNL     1     142.484  76.700 218.301 -0.26 -0.01    +0.022 C  
DOCKED: ATOM     22  C   UNL     1     143.257  74.405 218.118 -0.16 -0.01    +0.025 C  
DOCKED: ATOM     23  C   UNL     1     143.675  75.836 217.868 -0.20 -0.00    +0.004 C  
DOCKED: BRANCH  20  24
DOCKED: ATOM     24  C   UNL     1     143.510  73.298 220.397 -0.34 -0.00    +0.016 C  
DOCKED: ATOM     25  C   UNL     1     143.736  71.895 219.925 -0.25 -0.00    +0.034 C  
DOCKED: ATOM     26  C   UNL     1     144.778  73.936 220.853 -0.46 -0.01    +0.034 C  
DOCKED: ATOM     27  C   UNL     1     145.178  71.563 219.629 -0.21 +0.04    +0.160 C  
DOCKED: ATOM     28  C   UNL     1     145.976  73.719 219.994 -0.32 +0.00    +0.160 C  
DOCKED: ATOM     29  O   UNL     1     145.930  72.613 219.199 -0.71 -0.28    -0.381 OA 
DOCKED: ENDBRANCH  20  24
DOCKED: ENDBRANCH  16  18
DOCKED: ENDBRANCH   1  16
DOCKED: TORSDOF 5
DOCKED: TER
DOCKED: ENDMDL
________________________________________________________________________________


    FINAL DOCKED STATE:
    ________________________


Run:   11 / 20
Time taken for this run:   0.030s

DOCKED: MODEL        11
DOCKED: USER    Run = 11
DOCKED: USER
DOCKED: USER    Estimated Free Energy of Binding    =  -8.88 kcal/mol  [=(1)+(2)+(3)-(4)]
DOCKED: USER
DOCKED: USER    (1) Final Intermolecular Energy     = -10.38 kcal/mol
DOCKED: USER        vdW + Hbond + desolv Energy     = -10.10 kcal/mol
DOCKED: USER        Electrostatic Energy            =  -0.27 kcal/mol
DOCKED: USER        Moving Ligand-Fixed Receptor    = -10.38 kcal/mol
DOCKED: USER        Moving Ligand-Moving Receptor   =  +0.00 kcal/mol
DOCKED: USER    (2) Final Total Internal Energy     =  -1.96 kcal/mol
DOCKED: USER    (3) Torsional Free Energy           =  +1.49 kcal/mol
DOCKED: USER    (4) Unbound System's Energy         =  -1.96 kcal/mol
DOCKED: USER
DOCKED: USER
DOCKED: REMARK SMILES O=C(NCC(=O)N1CCCC[C@H]1C1CCOCC1)c1ccc2ccccc2n1
DOCKED: REMARK SMILES IDX 4 1 3 2 2 3 1 4 19 6 20 7 28 8 21 9 27 10 22 11 26 12 23 13
DOCKED: REMARK SMILES IDX 25 14 24 15 5 16 6 17 7 18 8 19 12 20 9 21 11 22 10 23 13 24
DOCKED: REMARK SMILES IDX 14 25 18 26 15 27 17 28 16 29
DOCKED: REMARK H PARENT 3 5
DOCKED: USER                              x       y       z     vdW  Elec       q    Type
DOCKED: USER                           _______ _______ _______ _____ _____    ______ ____
DOCKED: ROOT
DOCKED: ATOM      1  C   UNL     1     140.063  74.086 220.976 -0.16 -0.04    +0.216 C  
DOCKED: ENDROOT
DOCKED: BRANCH   1   2
DOCKED: ATOM      2  N   UNL     1     139.969  73.319 222.181 -0.15 +0.04    -0.342 N  
DOCKED: ATOM      3  C   UNL     1     140.343  71.969 222.272 -0.20 -0.03    +0.270 C  
DOCKED: ATOM      4  O   UNL     1     140.795  71.366 221.241 -0.12 +0.04    -0.268 OA 
DOCKED: ATOM      5  H   UNL     1     139.599  73.770 223.068 -0.49 -0.02    +0.164 HD 
DOCKED: BRANCH   3   6
DOCKED: ATOM      6  C   UNL     1     140.213  71.250 223.557 -0.31 -0.02    +0.128 A  
DOCKED: ATOM      7  C   UNL     1     139.618  70.000 223.579 -0.25 -0.01    +0.035 A  
DOCKED: ATOM      8  N   UNL     1     140.675  71.821 224.683 -0.27 +0.03    -0.243 NA 
DOCKED: ATOM      9  C   UNL     1     139.514  69.351 224.807 -0.37 -0.00    +0.013 A  
DOCKED: ATOM     10  C   UNL     1     140.561  71.173 225.857 -0.55 -0.01    +0.071 A  
DOCKED: ATOM     11  C   UNL     1     139.979  69.924 225.953 -0.49 -0.00    +0.000 A  
DOCKED: ATOM     12  C   UNL     1     141.057  71.810 226.996 -0.76 -0.01    +0.029 A  
DOCKED: ATOM     13  C   UNL     1     139.910  69.342 227.204 -0.58 -0.00    +0.010 A  
DOCKED: ATOM     14  C   UNL     1     140.981  71.213 228.248 -0.71 -0.00    +0.002 A  
DOCKED: ATOM     15  C   UNL     1     140.405  69.978 228.341 -0.59 -0.00    +0.001 A  
DOCKED: ENDBRANCH   3   6
DOCKED: ENDBRANCH   1   2
DOCKED: BRANCH   1  16
DOCKED: ATOM     16  C   UNL     1     141.137  75.100 221.101 -0.21 -0.06    +0.242 C  
DOCKED: ATOM     17  O   UNL     1     141.118  75.813 222.149 -0.39 +0.07    -0.273 OA 
DOCKED: BRANCH  16  18
DOCKED: ATOM     18  N   UNL     1     142.130  75.255 220.088 -0.11 +0.13    -0.338 N  
DOCKED: ATOM     19  C   UNL     1     142.593  76.593 219.771 -0.29 -0.08    +0.120 C  
DOCKED: ATOM     20  C   UNL     1     142.656  74.112 219.399 -0.18 -0.02    +0.088 C  
DOCKED: ATOM     21  C   UNL     1     142.499  76.687 218.241 -0.26 -0.01    +0.022 C  
DOCKED: ATOM     22  C   UNL     1     143.255  74.387 218.071 -0.15 -0.01    +0.025 C  
DOCKED: ATOM     23  C   UNL     1     143.686  75.813 217.819 -0.20 -0.00    +0.004 C  
DOCKED: BRANCH  20  24
DOCKED: ATOM     24  C   UNL     1     143.481  73.284 220.354 -0.33 -0.00    +0.016 C  
DOCKED: ATOM     25  C   UNL     1     143.735  71.890 219.869 -0.25 -0.00    +0.034 C  
DOCKED: ATOM     26  C   UNL     1     144.731  73.929 220.850 -0.46 -0.01    +0.034 C  
DOCKED: ATOM     27  C   UNL     1     145.187  71.578 219.605 -0.22 +0.04    +0.160 C  
DOCKED: ATOM     28  C   UNL     1     145.951  73.738 220.018 -0.33 +0.00    +0.160 C  
DOCKED: ATOM     29  O   UNL     1     145.937  72.642 219.207 -0.71 -0.28    -0.381 OA 
DOCKED: ENDBRANCH  20  24
DOCKED: ENDBRANCH  16  18
DOCKED: ENDBRANCH   1  16
DOCKED: TORSDOF 5
DOCKED: TER
DOCKED: ENDMDL
________________________________________________________________________________


    FINAL DOCKED STATE:
    ________________________


Run:   12 / 20
Time taken for this run:   0.030s

DOCKED: MODEL        12
DOCKED: USER    Run = 12
DOCKED: USER
DOCKED: USER    Estimated Free Energy of Binding    =  -8.79 kcal/mol  [=(1)+(2)+(3)-(4)]
DOCKED: USER
DOCKED: USER    (1) Final Intermolecular Energy     = -10.28 kcal/mol
DOCKED: USER        vdW + Hbond + desolv Energy     = -10.04 kcal/mol
DOCKED: USER        Electrostatic Energy            =  -0.24 kcal/mol
DOCKED: USER        Moving Ligand-Fixed Receptor    = -10.28 kcal/mol
DOCKED: USER        Moving Ligand-Moving Receptor   =  +0.00 kcal/mol
DOCKED: USER    (2) Final Total Internal Energy     =  -1.96 kcal/mol
DOCKED: USER    (3) Torsional Free Energy           =  +1.49 kcal/mol
DOCKED: USER    (4) Unbound System's Energy         =  -1.96 kcal/mol
DOCKED: USER
DOCKED: USER
DOCKED: REMARK SMILES O=C(NCC(=O)N1CCCC[C@H]1C1CCOCC1)c1ccc2ccccc2n1
DOCKED: REMARK SMILES IDX 4 1 3 2 2 3 1 4 19 6 20 7 28 8 21 9 27 10 22 11 26 12 23 13
DOCKED: REMARK SMILES IDX 25 14 24 15 5 16 6 17 7 18 8 19 12 20 9 21 11 22 10 23 13 24
DOCKED: REMARK SMILES IDX 14 25 18 26 15 27 17 28 16 29
DOCKED: REMARK H PARENT 3 5
DOCKED: USER                              x       y       z     vdW  Elec       q    Type
DOCKED: USER                           _______ _______ _______ _____ _____    ______ ____
DOCKED: ROOT
DOCKED: ATOM      1  C   UNL     1     140.080  73.977 221.013 -0.16 -0.04    +0.216 C  
DOCKED: ENDROOT
DOCKED: BRANCH   1   2
DOCKED: ATOM      2  N   UNL     1     139.959  73.201 222.210 -0.16 +0.04    -0.342 N  
DOCKED: ATOM      3  C   UNL     1     140.251  71.830 222.278 -0.20 -0.04    +0.270 C  
DOCKED: ATOM      4  O   UNL     1     140.650  71.215 221.232 -0.11 +0.04    -0.268 OA 
DOCKED: ATOM      5  H   UNL     1     139.631  73.661 223.109 -0.47 -0.02    +0.164 HD 
DOCKED: BRANCH   3   6
DOCKED: ATOM      6  C   UNL     1     140.099  71.102 223.556 -0.30 -0.02    +0.128 A  
DOCKED: ATOM      7  C   UNL     1     139.557  69.828 223.551 -0.25 -0.01    +0.035 A  
DOCKED: ATOM      8  N   UNL     1     140.488  71.690 224.701 -0.29 +0.04    -0.243 NA 
DOCKED: ATOM      9  C   UNL     1     139.429  69.173 224.774 -0.37 -0.00    +0.013 A  
DOCKED: ATOM     10  C   UNL     1     140.352  71.035 225.869 -0.53 -0.01    +0.071 A  
DOCKED: ATOM     11  C   UNL     1     139.821  69.762 225.939 -0.48 -0.00    +0.000 A  
DOCKED: ATOM     12  C   UNL     1     140.772  71.689 227.027 -0.73 -0.01    +0.029 A  
DOCKED: ATOM     13  C   UNL     1     139.724  69.174 227.185 -0.57 -0.00    +0.010 A  
DOCKED: ATOM     14  C   UNL     1     140.669  71.086 228.275 -0.68 -0.00    +0.002 A  
DOCKED: ATOM     15  C   UNL     1     140.143  69.827 228.343 -0.61 -0.00    +0.001 A  
DOCKED: ENDBRANCH   3   6
DOCKED: ENDBRANCH   1   2
DOCKED: BRANCH   1  16
DOCKED: ATOM     16  C   UNL     1     141.082  75.053 221.204 -0.22 -0.06    +0.242 C  
DOCKED: ATOM     17  O   UNL     1     140.982  75.732 222.269 -0.42 +0.06    -0.273 OA 
DOCKED: BRANCH  16  18
DOCKED: ATOM     18  N   UNL     1     142.098  75.298 220.232 -0.12 +0.14    -0.338 N  
DOCKED: ATOM     19  C   UNL     1     142.520  76.667 220.001 -0.25 -0.08    +0.120 C  
DOCKED: ATOM     20  C   UNL     1     142.687  74.213 219.500 -0.20 -0.03    +0.088 C  
DOCKED: ATOM     21  C   UNL     1     142.467  76.841 218.476 -0.28 -0.01    +0.022 C  
DOCKED: ATOM     22  C   UNL     1     143.314  74.582 218.207 -0.18 -0.01    +0.025 C  
DOCKED: ATOM     23  C   UNL     1     143.698  76.034 218.046 -0.18 -0.00    +0.004 C  
DOCKED: BRANCH  20  24
DOCKED: ATOM     24  C   UNL     1     143.514  73.365 220.435 -0.34 -0.00    +0.016 C  
DOCKED: ATOM     25  C   UNL     1     143.498  71.908 220.088 -0.25 -0.00    +0.034 C  
DOCKED: ATOM     26  C   UNL     1     144.900  73.854 220.690 -0.52 -0.01    +0.034 C  
DOCKED: ATOM     27  C   UNL     1     144.840  71.350 219.682 -0.19 +0.02    +0.160 C  
DOCKED: ATOM     28  C   UNL     1     145.951  73.395 219.740 -0.37 +0.03    +0.160 C  
DOCKED: ATOM     29  O   UNL     1     145.668  72.241 219.072 -0.62 -0.26    -0.381 OA 
DOCKED: ENDBRANCH  20  24
DOCKED: ENDBRANCH  16  18
DOCKED: ENDBRANCH   1  16
DOCKED: TORSDOF 5
DOCKED: TER
DOCKED: ENDMDL
________________________________________________________________________________


    FINAL DOCKED STATE:
    ________________________


Run:   13 / 20
Time taken for this run:   0.030s

DOCKED: MODEL        13
DOCKED: USER    Run = 13
DOCKED: USER
DOCKED: USER    Estimated Free Energy of Binding    =  -8.45 kcal/mol  [=(1)+(2)+(3)-(4)]
DOCKED: USER
DOCKED: USER    (1) Final Intermolecular Energy     =  -9.94 kcal/mol
DOCKED: USER        vdW + Hbond + desolv Energy     =  -9.83 kcal/mol
DOCKED: USER        Electrostatic Energy            =  -0.11 kcal/mol
DOCKED: USER        Moving Ligand-Fixed Receptor    =  -9.94 kcal/mol
DOCKED: USER        Moving Ligand-Moving Receptor   =  +0.00 kcal/mol
DOCKED: USER    (2) Final Total Internal Energy     =  -1.99 kcal/mol
DOCKED: USER    (3) Torsional Free Energy           =  +1.49 kcal/mol
DOCKED: USER    (4) Unbound System's Energy         =  -1.99 kcal/mol
DOCKED: USER
DOCKED: USER
DOCKED: REMARK SMILES O=C(NCC(=O)N1CCCC[C@H]1C1CCOCC1)c1ccc2ccccc2n1
DOCKED: REMARK SMILES IDX 4 1 3 2 2 3 1 4 19 6 20 7 28 8 21 9 27 10 22 11 26 12 23 13
DOCKED: REMARK SMILES IDX 25 14 24 15 5 16 6 17 7 18 8 19 12 20 9 21 11 22 10 23 13 24
DOCKED: REMARK SMILES IDX 14 25 18 26 15 27 17 28 16 29
DOCKED: REMARK H PARENT 3 5
DOCKED: USER                              x       y       z     vdW  Elec       q    Type
DOCKED: USER                           _______ _______ _______ _____ _____    ______ ____
DOCKED: ROOT
DOCKED: ATOM      1  C   UNL     1     140.088  74.867 221.354 -0.21 -0.04    +0.216 C  
DOCKED: ENDROOT
DOCKED: BRANCH   1   2
DOCKED: ATOM      2  N   UNL     1     139.872  73.855 222.342 -0.06 +0.03    -0.342 N  
DOCKED: ATOM      3  C   UNL     1     140.590  72.649 222.386 -0.18 -0.02    +0.270 C  
DOCKED: ATOM      4  O   UNL     1     141.490  72.416 221.511 -0.20 +0.02    -0.268 OA 
DOCKED: ATOM      5  H   UNL     1     139.136  73.996 223.093 -0.55 -0.07    +0.164 HD 
DOCKED: BRANCH   3   6
DOCKED: ATOM      6  C   UNL     1     140.304  71.655 223.442 -0.32 -0.02    +0.128 A  
DOCKED: ATOM      7  C   UNL     1     139.619  70.496 223.116 -0.25 -0.01    +0.035 A  
DOCKED: ATOM      8  N   UNL     1     140.713  71.892 224.701 -0.26 +0.03    -0.243 NA 
DOCKED: ATOM      9  C   UNL     1     139.369  69.582 224.137 -0.31 -0.00    +0.013 A  
DOCKED: ATOM     10  C   UNL     1     140.456  70.993 225.668 -0.52 -0.01    +0.071 A  
DOCKED: ATOM     11  C   UNL     1     139.779  69.816 225.415 -0.44 -0.00    +0.000 A  
DOCKED: ATOM     12  C   UNL     1     140.903  71.287 226.957 -0.69 -0.00    +0.029 A  
DOCKED: ATOM     13  C   UNL     1     139.566  68.956 226.476 -0.53 -0.00    +0.010 A  
DOCKED: ATOM     14  C   UNL     1     140.681  70.414 228.015 -0.65 -0.00    +0.002 A  
DOCKED: ATOM     15  C   UNL     1     140.011  69.251 227.764 -0.63 -0.00    +0.001 A  
DOCKED: ENDBRANCH   3   6
DOCKED: ENDBRANCH   1   2
DOCKED: BRANCH   1  16
DOCKED: ATOM     16  C   UNL     1     139.679  76.190 221.884 -0.24 -0.05    +0.242 C  
DOCKED: ATOM     17  O   UNL     1     138.988  76.181 222.946 -0.23 +0.05    -0.273 OA 
DOCKED: BRANCH  16  18
DOCKED: ATOM     18  N   UNL     1     140.051  77.399 221.223 -0.08 +0.10    -0.338 N  
DOCKED: ATOM     19  C   UNL     1     139.129  77.976 220.263 -0.07 -0.03    +0.120 C  
DOCKED: ATOM     20  C   UNL     1     141.311  78.027 221.501 -0.31 -0.04    +0.088 C  
DOCKED: ATOM     21  C   UNL     1     139.981  78.248 219.015 -0.08 -0.01    +0.022 C  
DOCKED: ATOM     22  C   UNL     1     141.821  78.933 220.443 -0.28 -0.01    +0.025 C  
DOCKED: ATOM     23  C   UNL     1     140.793  79.466 219.474 -0.18 -0.00    +0.004 C  
DOCKED: BRANCH  20  24
DOCKED: ATOM     24  C   UNL     1     141.302  78.571 222.909 -0.53 -0.01    +0.016 C  
DOCKED: ATOM     25  C   UNL     1     142.511  79.390 223.240 -0.57 -0.01    +0.034 C  
DOCKED: ATOM     26  C   UNL     1     140.044  79.256 223.325 -0.42 -0.01    +0.034 C  
DOCKED: ATOM     27  C   UNL     1     142.219  80.841 223.532 -0.52 -0.03    +0.160 C  
DOCKED: ATOM     28  C   UNL     1     139.951  80.712 223.026 -0.31 -0.02    +0.160 C  
DOCKED: ATOM     29  O   UNL     1     141.144  81.352 222.872 -0.22 +0.06    -0.381 OA 
DOCKED: ENDBRANCH  20  24
DOCKED: ENDBRANCH  16  18
DOCKED: ENDBRANCH   1  16
DOCKED: TORSDOF 5
DOCKED: TER
DOCKED: ENDMDL
________________________________________________________________________________


    FINAL DOCKED STATE:
    ________________________


Run:   14 / 20
Time taken for this run:   0.030s

DOCKED: MODEL        14
DOCKED: USER    Run = 14
DOCKED: USER
DOCKED: USER    Estimated Free Energy of Binding    =  -8.89 kcal/mol  [=(1)+(2)+(3)-(4)]
DOCKED: USER
DOCKED: USER    (1) Final Intermolecular Energy     = -10.39 kcal/mol
DOCKED: USER        vdW + Hbond + desolv Energy     = -10.11 kcal/mol
DOCKED: USER        Electrostatic Energy            =  -0.28 kcal/mol
DOCKED: USER        Moving Ligand-Fixed Receptor    = -10.39 kcal/mol
DOCKED: USER        Moving Ligand-Moving Receptor   =  +0.00 kcal/mol
DOCKED: USER    (2) Final Total Internal Energy     =  -1.94 kcal/mol
DOCKED: USER    (3) Torsional Free Energy           =  +1.49 kcal/mol
DOCKED: USER    (4) Unbound System's Energy         =  -1.94 kcal/mol
DOCKED: USER
DOCKED: USER
DOCKED: REMARK SMILES O=C(NCC(=O)N1CCCC[C@H]1C1CCOCC1)c1ccc2ccccc2n1
DOCKED: REMARK SMILES IDX 4 1 3 2 2 3 1 4 19 6 20 7 28 8 21 9 27 10 22 11 26 12 23 13
DOCKED: REMARK SMILES IDX 25 14 24 15 5 16 6 17 7 18 8 19 12 20 9 21 11 22 10 23 13 24
DOCKED: REMARK SMILES IDX 14 25 18 26 15 27 17 28 16 29
DOCKED: REMARK H PARENT 3 5
DOCKED: USER                              x       y       z     vdW  Elec       q    Type
DOCKED: USER                           _______ _______ _______ _____ _____    ______ ____
DOCKED: ROOT
DOCKED: ATOM      1  C   UNL     1     140.071  74.108 220.997 -0.17 -0.04    +0.216 C  
DOCKED: ENDROOT
DOCKED: BRANCH   1   2
DOCKED: ATOM      2  N   UNL     1     139.969  73.332 222.195 -0.15 +0.04    -0.342 N  
DOCKED: ATOM      3  C   UNL     1     140.372  71.990 222.285 -0.20 -0.03    +0.270 C  
DOCKED: ATOM      4  O   UNL     1     140.860  71.405 221.261 -0.12 +0.03    -0.268 OA 
DOCKED: ATOM      5  H   UNL     1     139.569  73.768 223.077 -0.50 -0.03    +0.164 HD 
DOCKED: BRANCH   3   6
DOCKED: ATOM      6  C   UNL     1     140.231  71.259 223.563 -0.31 -0.02    +0.128 A  
DOCKED: ATOM      7  C   UNL     1     139.618  70.017 223.570 -0.26 -0.01    +0.035 A  
DOCKED: ATOM      8  N   UNL     1     140.700  71.812 224.695 -0.27 +0.03    -0.243 NA 
DOCKED: ATOM      9  C   UNL     1     139.504  69.357 224.792 -0.37 -0.00    +0.013 A  
DOCKED: ATOM     10  C   UNL     1     140.575  71.153 225.862 -0.55 -0.01    +0.071 A  
DOCKED: ATOM     11  C   UNL     1     139.976  69.911 225.944 -0.49 -0.00    +0.000 A  
DOCKED: ATOM     12  C   UNL     1     141.079  71.770 227.008 -0.76 -0.00    +0.029 A  
DOCKED: ATOM     13  C   UNL     1     139.897  69.317 227.189 -0.57 -0.00    +0.010 A  
DOCKED: ATOM     14  C   UNL     1     140.993  71.161 228.254 -0.70 -0.00    +0.002 A  
DOCKED: ATOM     15  C   UNL     1     140.400  69.934 228.333 -0.59 -0.00    +0.001 A  
DOCKED: ENDBRANCH   3   6
DOCKED: ENDBRANCH   1   2
DOCKED: BRANCH   1  16
DOCKED: ATOM     16  C   UNL     1     141.172  75.094 221.123 -0.22 -0.06    +0.242 C  
DOCKED: ATOM     17  O   UNL     1     141.187  75.787 222.184 -0.37 +0.08    -0.273 OA 
DOCKED: BRANCH  16  18
DOCKED: ATOM     18  N   UNL     1     142.152  75.243 220.097 -0.12 +0.13    -0.338 N  
DOCKED: ATOM     19  C   UNL     1     142.615  76.578 219.769 -0.29 -0.08    +0.120 C  
DOCKED: ATOM     20  C   UNL     1     142.666  74.095 219.404 -0.18 -0.02    +0.088 C  
DOCKED: ATOM     21  C   UNL     1     142.502  76.668 218.240 -0.26 -0.01    +0.022 C  
DOCKED: ATOM     22  C   UNL     1     143.249  74.364 218.068 -0.15 -0.01    +0.025 C  
DOCKED: ATOM     23  C   UNL     1     143.681  75.788 217.806 -0.20 -0.00    +0.004 C  
DOCKED: BRANCH  20  24
DOCKED: ATOM     24  C   UNL     1     143.501  73.268 220.351 -0.33 -0.00    +0.016 C  
DOCKED: ATOM     25  C   UNL     1     143.761  71.878 219.858 -0.25 -0.00    +0.034 C  
DOCKED: ATOM     26  C   UNL     1     144.749  73.919 220.844 -0.47 -0.01    +0.034 C  
DOCKED: ATOM     27  C   UNL     1     145.214  71.577 219.585 -0.22 +0.04    +0.160 C  
DOCKED: ATOM     28  C   UNL     1     145.967  73.739 220.006 -0.32 +0.00    +0.160 C  
DOCKED: ATOM     29  O   UNL     1     145.956  72.647 219.189 -0.72 -0.29    -0.381 OA 
DOCKED: ENDBRANCH  20  24
DOCKED: ENDBRANCH  16  18
DOCKED: ENDBRANCH   1  16
DOCKED: TORSDOF 5
DOCKED: TER
DOCKED: ENDMDL
________________________________________________________________________________


    FINAL DOCKED STATE:
    ________________________


Run:   15 / 20
Time taken for this run:   0.030s

DOCKED: MODEL        15
DOCKED: USER    Run = 15
DOCKED: USER
DOCKED: USER    Estimated Free Energy of Binding    =  -8.90 kcal/mol  [=(1)+(2)+(3)-(4)]
DOCKED: USER
DOCKED: USER    (1) Final Intermolecular Energy     = -10.39 kcal/mol
DOCKED: USER        vdW + Hbond + desolv Energy     = -10.11 kcal/mol
DOCKED: USER        Electrostatic Energy            =  -0.28 kcal/mol
DOCKED: USER        Moving Ligand-Fixed Receptor    = -10.39 kcal/mol
DOCKED: USER        Moving Ligand-Moving Receptor   =  +0.00 kcal/mol
DOCKED: USER    (2) Final Total Internal Energy     =  -1.91 kcal/mol
DOCKED: USER    (3) Torsional Free Energy           =  +1.49 kcal/mol
DOCKED: USER    (4) Unbound System's Energy         =  -1.91 kcal/mol
DOCKED: USER
DOCKED: USER
DOCKED: REMARK SMILES O=C(NCC(=O)N1CCCC[C@H]1C1CCOCC1)c1ccc2ccccc2n1
DOCKED: REMARK SMILES IDX 4 1 3 2 2 3 1 4 19 6 20 7 28 8 21 9 27 10 22 11 26 12 23 13
DOCKED: REMARK SMILES IDX 25 14 24 15 5 16 6 17 7 18 8 19 12 20 9 21 11 22 10 23 13 24
DOCKED: REMARK SMILES IDX 14 25 18 26 15 27 17 28 16 29
DOCKED: REMARK H PARENT 3 5
DOCKED: USER                              x       y       z     vdW  Elec       q    Type
DOCKED: USER                           _______ _______ _______ _____ _____    ______ ____
DOCKED: ROOT
DOCKED: ATOM      1  C   UNL     1     140.054  74.112 220.982 -0.16 -0.04    +0.216 C  
DOCKED: ENDROOT
DOCKED: BRANCH   1   2
DOCKED: ATOM      2  N   UNL     1     139.931  73.336 222.179 -0.15 +0.04    -0.342 N  
DOCKED: ATOM      3  C   UNL     1     140.394  72.017 222.298 -0.20 -0.03    +0.270 C  
DOCKED: ATOM      4  O   UNL     1     140.960  71.451 221.303 -0.13 +0.03    -0.268 OA 
DOCKED: ATOM      5  H   UNL     1     139.467  73.756 223.037 -0.49 -0.04    +0.164 HD 
DOCKED: BRANCH   3   6
DOCKED: ATOM      6  C   UNL     1     140.226  71.285 223.572 -0.32 -0.02    +0.128 A  
DOCKED: ATOM      7  C   UNL     1     139.583  70.059 223.572 -0.27 -0.01    +0.035 A  
DOCKED: ATOM      8  N   UNL     1     140.699  71.823 224.710 -0.27 +0.03    -0.243 NA 
DOCKED: ATOM      9  C   UNL     1     139.444  69.398 224.790 -0.37 -0.00    +0.013 A  
DOCKED: ATOM     10  C   UNL     1     140.550  71.164 225.874 -0.55 -0.01    +0.071 A  
DOCKED: ATOM     11  C   UNL     1     139.920  69.937 225.947 -0.49 -0.00    +0.000 A  
DOCKED: ATOM     12  C   UNL     1     141.060  71.766 227.025 -0.76 -0.01    +0.029 A  
DOCKED: ATOM     13  C   UNL     1     139.818  69.341 227.189 -0.57 -0.00    +0.010 A  
DOCKED: ATOM     14  C   UNL     1     140.950  71.155 228.268 -0.69 -0.00    +0.002 A  
DOCKED: ATOM     15  C   UNL     1     140.326  69.942 228.340 -0.59 -0.00    +0.001 A  
DOCKED: ENDBRANCH   3   6
DOCKED: ENDBRANCH   1   2
DOCKED: BRANCH   1  16
DOCKED: ATOM     16  C   UNL     1     141.158  75.093 221.124 -0.22 -0.06    +0.242 C  
DOCKED: ATOM     17  O   UNL     1     141.171  75.773 222.192 -0.38 +0.07    -0.273 OA 
DOCKED: BRANCH  16  18
DOCKED: ATOM     18  N   UNL     1     142.142  75.250 220.103 -0.12 +0.14    -0.338 N  
DOCKED: ATOM     19  C   UNL     1     142.615  76.587 219.797 -0.28 -0.08    +0.120 C  
DOCKED: ATOM     20  C   UNL     1     142.652  74.110 219.395 -0.18 -0.02    +0.088 C  
DOCKED: ATOM     21  C   UNL     1     142.507  76.701 218.269 -0.26 -0.01    +0.022 C  
DOCKED: ATOM     22  C   UNL     1     143.241  74.395 218.065 -0.15 -0.01    +0.025 C  
DOCKED: ATOM     23  C   UNL     1     143.683  75.820 217.826 -0.20 -0.00    +0.004 C  
DOCKED: BRANCH  20  24
DOCKED: ATOM     24  C   UNL     1     143.478  73.263 220.333 -0.33 -0.00    +0.016 C  
DOCKED: ATOM     25  C   UNL     1     143.750  71.887 219.809 -0.24 -0.00    +0.034 C  
DOCKED: ATOM     26  C   UNL     1     144.717  73.908 220.857 -0.45 -0.01    +0.034 C  
DOCKED: ATOM     27  C   UNL     1     145.208  71.598 219.548 -0.22 +0.04    +0.160 C  
DOCKED: ATOM     28  C   UNL     1     145.946  73.753 220.030 -0.34 -0.00    +0.160 C  
DOCKED: ATOM     29  O   UNL     1     145.950  72.681 219.188 -0.72 -0.28    -0.381 OA 
DOCKED: ENDBRANCH  20  24
DOCKED: ENDBRANCH  16  18
DOCKED: ENDBRANCH   1  16
DOCKED: TORSDOF 5
DOCKED: TER
DOCKED: ENDMDL
________________________________________________________________________________


    FINAL DOCKED STATE:
    ________________________


Run:   16 / 20
Time taken for this run:   0.030s

DOCKED: MODEL        16
DOCKED: USER    Run = 16
DOCKED: USER
DOCKED: USER    Estimated Free Energy of Binding    =  -8.72 kcal/mol  [=(1)+(2)+(3)-(4)]
DOCKED: USER
DOCKED: USER    (1) Final Intermolecular Energy     = -10.21 kcal/mol
DOCKED: USER        vdW + Hbond + desolv Energy     =  -9.96 kcal/mol
DOCKED: USER        Electrostatic Energy            =  -0.25 kcal/mol
DOCKED: USER        Moving Ligand-Fixed Receptor    = -10.21 kcal/mol
DOCKED: USER        Moving Ligand-Moving Receptor   =  +0.00 kcal/mol
DOCKED: USER    (2) Final Total Internal Energy     =  -1.98 kcal/mol
DOCKED: USER    (3) Torsional Free Energy           =  +1.49 kcal/mol
DOCKED: USER    (4) Unbound System's Energy         =  -1.98 kcal/mol
DOCKED: USER
DOCKED: USER
DOCKED: REMARK SMILES O=C(NCC(=O)N1CCCC[C@H]1C1CCOCC1)c1ccc2ccccc2n1
DOCKED: REMARK SMILES IDX 4 1 3 2 2 3 1 4 19 6 20 7 28 8 21 9 27 10 22 11 26 12 23 13
DOCKED: REMARK SMILES IDX 25 14 24 15 5 16 6 17 7 18 8 19 12 20 9 21 11 22 10 23 13 24
DOCKED: REMARK SMILES IDX 14 25 18 26 15 27 17 28 16 29
DOCKED: REMARK H PARENT 3 5
DOCKED: USER                              x       y       z     vdW  Elec       q    Type
DOCKED: USER                           _______ _______ _______ _____ _____    ______ ____
DOCKED: ROOT
DOCKED: ATOM      1  C   UNL     1     140.084  73.704 221.000 -0.16 -0.04    +0.216 C  
DOCKED: ENDROOT
DOCKED: BRANCH   1   2
DOCKED: ATOM      2  N   UNL     1     139.943  72.959 222.213 -0.16 +0.05    -0.342 N  
DOCKED: ATOM      3  C   UNL     1     140.159  71.574 222.302 -0.19 -0.04    +0.270 C  
DOCKED: ATOM      4  O   UNL     1     140.499  70.918 221.262 -0.10 +0.04    -0.268 OA 
DOCKED: ATOM      5  H   UNL     1     139.661  73.454 223.109 -0.43 -0.03    +0.164 HD 
DOCKED: BRANCH   3   6
DOCKED: ATOM      6  C   UNL     1     139.991  70.881 223.597 -0.29 -0.02    +0.128 A  
DOCKED: ATOM      7  C   UNL     1     139.382  69.637 223.628 -0.25 -0.01    +0.035 A  
DOCKED: ATOM      8  N   UNL     1     140.432  71.468 224.723 -0.31 +0.04    -0.243 NA 
DOCKED: ATOM      9  C   UNL     1     139.243  69.013 224.865 -0.39 -0.00    +0.013 A  
DOCKED: ATOM     10  C   UNL     1     140.283  70.844 225.906 -0.51 -0.01    +0.071 A  
DOCKED: ATOM     11  C   UNL     1     139.686  69.603 226.011 -0.47 -0.00    +0.000 A  
DOCKED: ATOM     12  C   UNL     1     140.758  71.497 227.044 -0.72 -0.01    +0.029 A  
DOCKED: ATOM     13  C   UNL     1     139.582  69.045 227.270 -0.57 -0.00    +0.010 A  
DOCKED: ATOM     14  C   UNL     1     140.647  70.924 228.305 -0.64 -0.00    +0.002 A  
DOCKED: ATOM     15  C   UNL     1     140.055  69.697 228.407 -0.58 -0.00    +0.001 A  
DOCKED: ENDBRANCH   3   6
DOCKED: ENDBRANCH   1   2
DOCKED: BRANCH   1  16
DOCKED: ATOM     16  C   UNL     1     140.973  74.870 221.219 -0.22 -0.05    +0.242 C  
DOCKED: ATOM     17  O   UNL     1     140.773  75.538 222.276 -0.48 +0.04    -0.273 OA 
DOCKED: BRANCH  16  18
DOCKED: ATOM     18  N   UNL     1     141.994  75.208 220.280 -0.12 +0.13    -0.338 N  
DOCKED: ATOM     19  C   UNL     1     142.334  76.607 220.102 -0.24 -0.07    +0.120 C  
DOCKED: ATOM     20  C   UNL     1     142.666  74.186 219.529 -0.20 -0.03    +0.088 C  
DOCKED: ATOM     21  C   UNL     1     142.306  76.827 218.582 -0.26 -0.01    +0.022 C  
DOCKED: ATOM     22  C   UNL     1     143.298  74.634 218.265 -0.19 -0.01    +0.025 C  
DOCKED: ATOM     23  C   UNL     1     143.594  76.111 218.158 -0.20 -0.00    +0.004 C  
DOCKED: BRANCH  20  24
DOCKED: ATOM     24  C   UNL     1     143.522  73.360 220.458 -0.35 -0.00    +0.016 C  
DOCKED: ATOM     25  C   UNL     1     143.502  71.897 220.144 -0.26 -0.00    +0.034 C  
DOCKED: ATOM     26  C   UNL     1     144.913  73.859 220.663 -0.52 -0.01    +0.034 C  
DOCKED: ATOM     27  C   UNL     1     144.834  71.334 219.712 -0.19 +0.02    +0.160 C  
DOCKED: ATOM     28  C   UNL     1     145.938  73.384 219.694 -0.36 +0.03    +0.160 C  
DOCKED: ATOM     29  O   UNL     1     145.641  72.214 219.058 -0.61 -0.25    -0.381 OA 
DOCKED: ENDBRANCH  20  24
DOCKED: ENDBRANCH  16  18
DOCKED: ENDBRANCH   1  16
DOCKED: TORSDOF 5
DOCKED: TER
DOCKED: ENDMDL
________________________________________________________________________________


    FINAL DOCKED STATE:
    ________________________


Run:   17 / 20
Time taken for this run:   0.030s

DOCKED: MODEL        17
DOCKED: USER    Run = 17
DOCKED: USER
DOCKED: USER    Estimated Free Energy of Binding    =  -8.86 kcal/mol  [=(1)+(2)+(3)-(4)]
DOCKED: USER
DOCKED: USER    (1) Final Intermolecular Energy     = -10.35 kcal/mol
DOCKED: USER        vdW + Hbond + desolv Energy     = -10.08 kcal/mol
DOCKED: USER        Electrostatic Energy            =  -0.27 kcal/mol
DOCKED: USER        Moving Ligand-Fixed Receptor    = -10.35 kcal/mol
DOCKED: USER        Moving Ligand-Moving Receptor   =  +0.00 kcal/mol
DOCKED: USER    (2) Final Total Internal Energy     =  -1.95 kcal/mol
DOCKED: USER    (3) Torsional Free Energy           =  +1.49 kcal/mol
DOCKED: USER    (4) Unbound System's Energy         =  -1.95 kcal/mol
DOCKED: USER
DOCKED: USER
DOCKED: REMARK SMILES O=C(NCC(=O)N1CCCC[C@H]1C1CCOCC1)c1ccc2ccccc2n1
DOCKED: REMARK SMILES IDX 4 1 3 2 2 3 1 4 19 6 20 7 28 8 21 9 27 10 22 11 26 12 23 13
DOCKED: REMARK SMILES IDX 25 14 24 15 5 16 6 17 7 18 8 19 12 20 9 21 11 22 10 23 13 24
DOCKED: REMARK SMILES IDX 14 25 18 26 15 27 17 28 16 29
DOCKED: REMARK H PARENT 3 5
DOCKED: USER                              x       y       z     vdW  Elec       q    Type
DOCKED: USER                           _______ _______ _______ _____ _____    ______ ____
DOCKED: ROOT
DOCKED: ATOM      1  C   UNL     1     140.052  74.108 221.025 -0.17 -0.04    +0.216 C  
DOCKED: ENDROOT
DOCKED: BRANCH   1   2
DOCKED: ATOM      2  N   UNL     1     139.951  73.330 222.222 -0.15 +0.04    -0.342 N  
DOCKED: ATOM      3  C   UNL     1     140.368  71.993 222.315 -0.20 -0.03    +0.270 C  
DOCKED: ATOM      4  O   UNL     1     140.869  71.413 221.294 -0.12 +0.03    -0.268 OA 
DOCKED: ATOM      5  H   UNL     1     139.541  73.762 223.101 -0.51 -0.03    +0.164 HD 
DOCKED: BRANCH   3   6
DOCKED: ATOM      6  C   UNL     1     140.228  71.260 223.592 -0.32 -0.02    +0.128 A  
DOCKED: ATOM      7  C   UNL     1     139.622  70.015 223.597 -0.26 -0.01    +0.035 A  
DOCKED: ATOM      8  N   UNL     1     140.691  71.815 224.726 -0.28 +0.03    -0.243 NA 
DOCKED: ATOM      9  C   UNL     1     139.508  69.354 224.818 -0.37 -0.00    +0.013 A  
DOCKED: ATOM     10  C   UNL     1     140.567  71.156 225.892 -0.55 -0.01    +0.071 A  
DOCKED: ATOM     11  C   UNL     1     139.974  69.911 225.972 -0.49 -0.00    +0.000 A  
DOCKED: ATOM     12  C   UNL     1     141.064  71.775 227.039 -0.76 -0.01    +0.029 A  
DOCKED: ATOM     13  C   UNL     1     139.895  69.315 227.216 -0.58 -0.00    +0.010 A  
DOCKED: ATOM     14  C   UNL     1     140.978  71.165 228.285 -0.69 -0.00    +0.002 A  
DOCKED: ATOM     15  C   UNL     1     140.391  69.934 228.362 -0.57 -0.00    +0.001 A  
DOCKED: ENDBRANCH   3   6
DOCKED: ENDBRANCH   1   2
DOCKED: BRANCH   1  16
DOCKED: ATOM     16  C   UNL     1     141.174  75.070 221.136 -0.22 -0.06    +0.242 C  
DOCKED: ATOM     17  O   UNL     1     141.209  75.773 222.190 -0.37 +0.08    -0.273 OA 
DOCKED: BRANCH  16  18
DOCKED: ATOM     18  N   UNL     1     142.154  75.188 220.105 -0.11 +0.13    -0.338 N  
DOCKED: ATOM     19  C   UNL     1     142.660  76.507 219.778 -0.29 -0.08    +0.120 C  
DOCKED: ATOM     20  C   UNL     1     142.625  74.026 219.408 -0.18 -0.02    +0.088 C  
DOCKED: ATOM     21  C   UNL     1     142.541  76.605 218.250 -0.26 -0.01    +0.022 C  
DOCKED: ATOM     22  C   UNL     1     143.209  74.278 218.068 -0.14 -0.01    +0.025 C  
DOCKED: ATOM     23  C   UNL     1     143.688  75.687 217.808 -0.20 -0.00    +0.004 C  
DOCKED: BRANCH  20  24
DOCKED: ATOM     24  C   UNL     1     143.436  73.168 220.348 -0.32 -0.00    +0.016 C  
DOCKED: ATOM     25  C   UNL     1     143.716  71.798 219.814 -0.24 -0.00    +0.034 C  
DOCKED: ATOM     26  C   UNL     1     144.667  73.806 220.898 -0.42 -0.01    +0.034 C  
DOCKED: ATOM     27  C   UNL     1     145.177  71.511 219.572 -0.21 +0.04    +0.160 C  
DOCKED: ATOM     28  C   UNL     1     145.908  73.660 220.089 -0.40 +0.00    +0.160 C  
DOCKED: ATOM     29  O   UNL     1     145.925  72.597 219.235 -0.70 -0.28    -0.381 OA 
DOCKED: ENDBRANCH  20  24
DOCKED: ENDBRANCH  16  18
DOCKED: ENDBRANCH   1  16
DOCKED: TORSDOF 5
DOCKED: TER
DOCKED: ENDMDL
________________________________________________________________________________


    FINAL DOCKED STATE:
    ________________________


Run:   18 / 20
Time taken for this run:   0.030s

DOCKED: MODEL        18
DOCKED: USER    Run = 18
DOCKED: USER
DOCKED: USER    Estimated Free Energy of Binding    =  -8.50 kcal/mol  [=(1)+(2)+(3)-(4)]
DOCKED: USER
DOCKED: USER    (1) Final Intermolecular Energy     =  -9.99 kcal/mol
DOCKED: USER        vdW + Hbond + desolv Energy     =  -9.89 kcal/mol
DOCKED: USER        Electrostatic Energy            =  -0.10 kcal/mol
DOCKED: USER        Moving Ligand-Fixed Receptor    =  -9.99 kcal/mol
DOCKED: USER        Moving Ligand-Moving Receptor   =  +0.00 kcal/mol
DOCKED: USER    (2) Final Total Internal Energy     =  -1.96 kcal/mol
DOCKED: USER    (3) Torsional Free Energy           =  +1.49 kcal/mol
DOCKED: USER    (4) Unbound System's Energy         =  -1.96 kcal/mol
DOCKED: USER
DOCKED: USER
DOCKED: REMARK SMILES O=C(NCC(=O)N1CCCC[C@H]1C1CCOCC1)c1ccc2ccccc2n1
DOCKED: REMARK SMILES IDX 4 1 3 2 2 3 1 4 19 6 20 7 28 8 21 9 27 10 22 11 26 12 23 13
DOCKED: REMARK SMILES IDX 25 14 24 15 5 16 6 17 7 18 8 19 12 20 9 21 11 22 10 23 13 24
DOCKED: REMARK SMILES IDX 14 25 18 26 15 27 17 28 16 29
DOCKED: REMARK H PARENT 3 5
DOCKED: USER                              x       y       z     vdW  Elec       q    Type
DOCKED: USER                           _______ _______ _______ _____ _____    ______ ____
DOCKED: ROOT
DOCKED: ATOM      1  C   UNL     1     139.831  74.702 221.291 -0.20 -0.04    +0.216 C  
DOCKED: ENDROOT
DOCKED: BRANCH   1   2
DOCKED: ATOM      2  N   UNL     1     139.677  73.725 222.325 -0.11 +0.05    -0.342 N  
DOCKED: ATOM      3  C   UNL     1     140.439  72.548 222.399 -0.20 -0.02    +0.270 C  
DOCKED: ATOM      4  O   UNL     1     141.324  72.310 221.510 -0.19 +0.03    -0.268 OA 
DOCKED: ATOM      5  H   UNL     1     138.956  73.873 223.090 -0.55 -0.09    +0.164 HD 
DOCKED: BRANCH   3   6
DOCKED: ATOM      6  C   UNL     1     140.216  71.590 223.502 -0.32 -0.02    +0.128 A  
DOCKED: ATOM      7  C   UNL     1     139.550  70.403 223.246 -0.26 -0.01    +0.035 A  
DOCKED: ATOM      8  N   UNL     1     140.662  71.886 224.735 -0.27 +0.03    -0.243 NA 
DOCKED: ATOM      9  C   UNL     1     139.359  69.523 224.310 -0.33 -0.00    +0.013 A  
DOCKED: ATOM     10  C   UNL     1     140.463  71.020 225.745 -0.53 -0.01    +0.071 A  
DOCKED: ATOM     11  C   UNL     1     139.808  69.817 225.562 -0.45 -0.00    +0.000 A  
DOCKED: ATOM     12  C   UNL     1     140.947  71.376 227.005 -0.71 -0.00    +0.029 A  
DOCKED: ATOM     13  C   UNL     1     139.655  68.996 226.662 -0.54 -0.00    +0.010 A  
DOCKED: ATOM     14  C   UNL     1     140.786  70.540 228.103 -0.64 -0.00    +0.002 A  
DOCKED: ATOM     15  C   UNL     1     140.137  69.352 227.921 -0.63 -0.00    +0.001 A  
DOCKED: ENDBRANCH   3   6
DOCKED: ENDBRANCH   1   2
DOCKED: BRANCH   1  16
DOCKED: ATOM     16  C   UNL     1     139.424  76.039 221.789 -0.22 -0.05    +0.242 C  
DOCKED: ATOM     17  O   UNL     1     138.621  76.052 222.769 -0.27 +0.06    -0.273 OA 
DOCKED: BRANCH  16  18
DOCKED: ATOM     18  N   UNL     1     139.917  77.235 221.187 -0.07 +0.10    -0.338 N  
DOCKED: ATOM     19  C   UNL     1     139.143  77.844 220.122 -0.06 -0.03    +0.120 C  
DOCKED: ATOM     20  C   UNL     1     141.153  77.818 221.625 -0.32 -0.04    +0.088 C  
DOCKED: ATOM     21  C   UNL     1     140.154  78.088 218.992 -0.09 -0.01    +0.022 C  
DOCKED: ATOM     22  C   UNL     1     141.822  78.707 220.644 -0.30 -0.01    +0.025 C  
DOCKED: ATOM     23  C   UNL     1     140.942  79.277 219.556 -0.20 -0.00    +0.004 C  
DOCKED: BRANCH  20  24
DOCKED: ATOM     24  C   UNL     1     140.985  78.360 223.024 -0.49 -0.00    +0.016 C  
DOCKED: ATOM     25  C   UNL     1     142.215  79.030 223.555 -0.53 -0.01    +0.034 C  
DOCKED: ATOM     26  C   UNL     1     139.767  79.191 223.249 -0.39 -0.01    +0.034 C  
DOCKED: ATOM     27  C   UNL     1     142.053  80.505 223.824 -0.50 -0.03    +0.160 C  
DOCKED: ATOM     28  C   UNL     1     139.894  80.647 222.965 -0.30 -0.03    +0.160 C  
DOCKED: ATOM     29  O   UNL     1     141.164  81.141 223.013 -0.23 +0.06    -0.381 OA 
DOCKED: ENDBRANCH  20  24
DOCKED: ENDBRANCH  16  18
DOCKED: ENDBRANCH   1  16
DOCKED: TORSDOF 5
DOCKED: TER
DOCKED: ENDMDL
________________________________________________________________________________


    FINAL DOCKED STATE:
    ________________________


Run:   19 / 20
Time taken for this run:   0.030s

DOCKED: MODEL        19
DOCKED: USER    Run = 19
DOCKED: USER
DOCKED: USER    Estimated Free Energy of Binding    =  -8.42 kcal/mol  [=(1)+(2)+(3)-(4)]
DOCKED: USER
DOCKED: USER    (1) Final Intermolecular Energy     =  -9.91 kcal/mol
DOCKED: USER        vdW + Hbond + desolv Energy     =  -9.80 kcal/mol
DOCKED: USER        Electrostatic Energy            =  -0.11 kcal/mol
DOCKED: USER        Moving Ligand-Fixed Receptor    =  -9.91 kcal/mol
DOCKED: USER        Moving Ligand-Moving Receptor   =  +0.00 kcal/mol
DOCKED: USER    (2) Final Total Internal Energy     =  -2.02 kcal/mol
DOCKED: USER    (3) Torsional Free Energy           =  +1.49 kcal/mol
DOCKED: USER    (4) Unbound System's Energy         =  -2.02 kcal/mol
DOCKED: USER
DOCKED: USER
DOCKED: REMARK SMILES O=C(NCC(=O)N1CCCC[C@H]1C1CCOCC1)c1ccc2ccccc2n1
DOCKED: REMARK SMILES IDX 4 1 3 2 2 3 1 4 19 6 20 7 28 8 21 9 27 10 22 11 26 12 23 13
DOCKED: REMARK SMILES IDX 25 14 24 15 5 16 6 17 7 18 8 19 12 20 9 21 11 22 10 23 13 24
DOCKED: REMARK SMILES IDX 14 25 18 26 15 27 17 28 16 29
DOCKED: REMARK H PARENT 3 5
DOCKED: USER                              x       y       z     vdW  Elec       q    Type
DOCKED: USER                           _______ _______ _______ _____ _____    ______ ____
DOCKED: ROOT
DOCKED: ATOM      1  C   UNL     1     140.128  74.875 221.338 -0.21 -0.04    +0.216 C  
DOCKED: ENDROOT
DOCKED: BRANCH   1   2
DOCKED: ATOM      2  N   UNL     1     139.917  73.872 222.337 -0.05 +0.02    -0.342 N  
DOCKED: ATOM      3  C   UNL     1     140.569  72.629 222.338 -0.19 -0.02    +0.270 C  
DOCKED: ATOM      4  O   UNL     1     141.401  72.350 221.411 -0.18 +0.03    -0.268 OA 
DOCKED: ATOM      5  H   UNL     1     139.235  74.051 223.131 -0.53 -0.07    +0.164 HD 
DOCKED: BRANCH   3   6
DOCKED: ATOM      6  C   UNL     1     140.292  71.648 223.409 -0.32 -0.02    +0.128 A  
DOCKED: ATOM      7  C   UNL     1     139.629  70.473 223.099 -0.25 -0.01    +0.035 A  
DOCKED: ATOM      8  N   UNL     1     140.689  71.913 224.666 -0.24 +0.03    -0.243 NA 
DOCKED: ATOM      9  C   UNL     1     139.386  69.572 224.133 -0.31 -0.00    +0.013 A  
DOCKED: ATOM     10  C   UNL     1     140.441  71.026 225.647 -0.52 -0.01    +0.071 A  
DOCKED: ATOM     11  C   UNL     1     139.784  69.834 225.409 -0.44 -0.00    +0.000 A  
DOCKED: ATOM     12  C   UNL     1     140.873  71.350 226.933 -0.70 -0.00    +0.029 A  
DOCKED: ATOM     13  C   UNL     1     139.578  68.990 226.483 -0.53 -0.00    +0.010 A  
DOCKED: ATOM     14  C   UNL     1     140.659  70.491 228.005 -0.66 -0.00    +0.002 A  
DOCKED: ATOM     15  C   UNL     1     140.010  69.313 227.769 -0.62 -0.00    +0.001 A  
DOCKED: ENDBRANCH   3   6
DOCKED: ENDBRANCH   1   2
DOCKED: BRANCH   1  16
DOCKED: ATOM     16  C   UNL     1     139.647  76.190 221.827 -0.23 -0.05    +0.242 C  
DOCKED: ATOM     17  O   UNL     1     138.886  76.168 222.840 -0.26 +0.05    -0.273 OA 
DOCKED: BRANCH  16  18
DOCKED: ATOM     18  N   UNL     1     140.028  77.404 221.181 -0.07 +0.10    -0.338 N  
DOCKED: ATOM     19  C   UNL     1     139.090  78.026 220.267 -0.07 -0.03    +0.120 C  
DOCKED: ATOM     20  C   UNL     1     141.313  77.993 221.431 -0.31 -0.04    +0.088 C  
DOCKED: ATOM     21  C   UNL     1     139.906  78.306 218.997 -0.08 -0.01    +0.022 C  
DOCKED: ATOM     22  C   UNL     1     141.811  78.910 220.377 -0.28 -0.01    +0.025 C  
DOCKED: ATOM     23  C   UNL     1     140.764  79.492 219.456 -0.18 -0.00    +0.004 C  
DOCKED: BRANCH  20  24
DOCKED: ATOM     24  C   UNL     1     141.365  78.504 222.851 -0.52 -0.01    +0.016 C  
DOCKED: ATOM     25  C   UNL     1     142.541  79.390 223.122 -0.58 -0.01    +0.034 C  
DOCKED: ATOM     26  C   UNL     1     140.099  79.099 223.366 -0.41 -0.01    +0.034 C  
DOCKED: ATOM     27  C   UNL     1     142.181  80.812 223.472 -0.53 -0.03    +0.160 C  
DOCKED: ATOM     28  C   UNL     1     139.896  80.552 223.113 -0.32 -0.02    +0.160 C  
DOCKED: ATOM     29  O   UNL     1     141.035  81.270 222.897 -0.21 +0.06    -0.381 OA 
DOCKED: ENDBRANCH  20  24
DOCKED: ENDBRANCH  16  18
DOCKED: ENDBRANCH   1  16
DOCKED: TORSDOF 5
DOCKED: TER
DOCKED: ENDMDL
________________________________________________________________________________


    FINAL DOCKED STATE:
    ________________________


Run:   20 / 20
Time taken for this run:   0.030s

DOCKED: MODEL        20
DOCKED: USER    Run = 20
DOCKED: USER
DOCKED: USER    Estimated Free Energy of Binding    =  -8.88 kcal/mol  [=(1)+(2)+(3)-(4)]
DOCKED: USER
DOCKED: USER    (1) Final Intermolecular Energy     = -10.37 kcal/mol
DOCKED: USER        vdW + Hbond + desolv Energy     = -10.08 kcal/mol
DOCKED: USER        Electrostatic Energy            =  -0.29 kcal/mol
DOCKED: USER        Moving Ligand-Fixed Receptor    = -10.37 kcal/mol
DOCKED: USER        Moving Ligand-Moving Receptor   =  +0.00 kcal/mol
DOCKED: USER    (2) Final Total Internal Energy     =  -1.92 kcal/mol
DOCKED: USER    (3) Torsional Free Energy           =  +1.49 kcal/mol
DOCKED: USER    (4) Unbound System's Energy         =  -1.92 kcal/mol
DOCKED: USER
DOCKED: USER
DOCKED: REMARK SMILES O=C(NCC(=O)N1CCCC[C@H]1C1CCOCC1)c1ccc2ccccc2n1
DOCKED: REMARK SMILES IDX 4 1 3 2 2 3 1 4 19 6 20 7 28 8 21 9 27 10 22 11 26 12 23 13
DOCKED: REMARK SMILES IDX 25 14 24 15 5 16 6 17 7 18 8 19 12 20 9 21 11 22 10 23 13 24
DOCKED: REMARK SMILES IDX 14 25 18 26 15 27 17 28 16 29
DOCKED: REMARK H PARENT 3 5
DOCKED: USER                              x       y       z     vdW  Elec       q    Type
DOCKED: USER                           _______ _______ _______ _____ _____    ______ ____
DOCKED: ROOT
DOCKED: ATOM      1  C   UNL     1     140.084  74.031 220.980 -0.16 -0.04    +0.216 C  
DOCKED: ENDROOT
DOCKED: BRANCH   1   2
DOCKED: ATOM      2  N   UNL     1     139.964  73.262 222.181 -0.16 +0.04    -0.342 N  
DOCKED: ATOM      3  C   UNL     1     140.390  71.930 222.294 -0.20 -0.03    +0.270 C  
DOCKED: ATOM      4  O   UNL     1     140.917  71.345 221.289 -0.12 +0.03    -0.268 OA 
DOCKED: ATOM      5  H   UNL     1     139.533  73.698 223.048 -0.48 -0.03    +0.164 HD 
DOCKED: BRANCH   3   6
DOCKED: ATOM      6  C   UNL     1     140.228  71.207 223.574 -0.31 -0.02    +0.128 A  
DOCKED: ATOM      7  C   UNL     1     139.576  69.986 223.587 -0.26 -0.01    +0.035 A  
DOCKED: ATOM      8  N   UNL     1     140.717  71.747 224.704 -0.28 +0.03    -0.243 NA 
DOCKED: ATOM      9  C   UNL     1     139.443  69.333 224.810 -0.37 -0.00    +0.013 A  
DOCKED: ATOM     10  C   UNL     1     140.574  71.096 225.873 -0.55 -0.01    +0.071 A  
DOCKED: ATOM     11  C   UNL     1     139.935  69.875 225.960 -0.49 -0.00    +0.000 A  
DOCKED: ATOM     12  C   UNL     1     141.100  71.700 227.016 -0.75 -0.00    +0.029 A  
DOCKED: ATOM     13  C   UNL     1     139.841  69.286 227.206 -0.57 -0.00    +0.010 A  
DOCKED: ATOM     14  C   UNL     1     140.998  71.097 228.264 -0.68 -0.00    +0.002 A  
DOCKED: ATOM     15  C   UNL     1     140.365  69.890 228.348 -0.59 -0.00    +0.001 A  
DOCKED: ENDBRANCH   3   6
DOCKED: ENDBRANCH   1   2
DOCKED: BRANCH   1  16
DOCKED: ATOM     16  C   UNL     1     141.163  75.038 221.126 -0.21 -0.06    +0.242 C  
DOCKED: ATOM     17  O   UNL     1     141.153  75.721 222.193 -0.39 +0.07    -0.273 OA 
DOCKED: BRANCH  16  18
DOCKED: ATOM     18  N   UNL     1     142.149  75.217 220.111 -0.12 +0.13    -0.338 N  
DOCKED: ATOM     19  C   UNL     1     142.621  76.561 219.833 -0.28 -0.08    +0.120 C  
DOCKED: ATOM     20  C   UNL     1     142.661  74.092 219.381 -0.18 -0.02    +0.088 C  
DOCKED: ATOM     21  C   UNL     1     142.517  76.705 218.307 -0.27 -0.01    +0.022 C  
DOCKED: ATOM     22  C   UNL     1     143.253  74.405 218.058 -0.15 -0.01    +0.025 C  
DOCKED: ATOM     23  C   UNL     1     143.694  75.835 217.849 -0.19 -0.00    +0.004 C  
DOCKED: BRANCH  20  24
DOCKED: ATOM     24  C   UNL     1     143.486  73.227 220.303 -0.33 -0.00    +0.016 C  
DOCKED: ATOM     25  C   UNL     1     143.751  71.859 219.756 -0.24 -0.00    +0.034 C  
DOCKED: ATOM     26  C   UNL     1     144.729  73.858 220.833 -0.48 -0.01    +0.034 C  
DOCKED: ATOM     27  C   UNL     1     145.207  71.568 219.487 -0.23 +0.05    +0.160 C  
DOCKED: ATOM     28  C   UNL     1     145.955  73.711 220.001 -0.33 +0.00    +0.160 C  
DOCKED: ATOM     29  O   UNL     1     145.952  72.653 219.141 -0.72 -0.30    -0.381 OA 
DOCKED: ENDBRANCH  20  24
DOCKED: ENDBRANCH  16  18
DOCKED: ENDBRANCH   1  16
DOCKED: TORSDOF 5
DOCKED: TER
DOCKED: ENDMDL
________________________________________________________________________________


    CLUSTERING HISTOGRAM
    ____________________


________________________________________________________________________________
     |           |     |           |     |
Clus | Lowest    | Run | Mean      | Num | Histogram
-ter | Binding   |     | Binding   | in  |
Rank | Energy    |     | Energy    | Clus|    5    10   15   20   25   30   35
_____|___________|_____|___________|_____|____:____|____:____|____:____|____:___
   1 |     -8.91 |   4 |     -8.83 |  11 |###########
   2 |     -8.50 |  18 |     -8.46 |   9 |#########
_____|___________|_____|___________|_____|______________________________________


    RMSD TABLE
    __________


_______________________________________________________________________
     |      |      |           |         |                 |
Rank | Sub- | Run  | Binding   | Cluster | Reference       | Grep
     | Rank |      | Energy    | RMSD    | RMSD            | Pattern
_____|______|______|___________|_________|_________________|___________
   1      1      4       -8.91      0.00    271.14           RANKING
   1      2     15       -8.90      0.08    271.12           RANKING
   1      3     14       -8.89      0.07    271.13           RANKING
   1      4     11       -8.88      0.07    271.12           RANKING
   1      5     10       -8.88      0.05    271.14           RANKING
   1      6     20       -8.88      0.07    271.11           RANKING
   1      7     17       -8.86      0.12    271.13           RANKING
   1      8      7       -8.85      0.08    271.15           RANKING
   1      9     12       -8.79      0.23    271.08           RANKING
   1     10     16       -8.72      0.37    271.04           RANKING
   1     11      5       -8.51      0.75    270.99           RANKING
   2      1     18       -8.50      0.00    271.72           RANKING
   2      2      9       -8.50      0.83    271.65           RANKING
   2      3      8       -8.48      0.98    271.64           RANKING
   2      4      2       -8.48      0.14    271.74           RANKING
   2      5     13       -8.45      0.27    271.75           RANKING
   2      6      1       -8.45      0.24    271.72           RANKING
   2      7      6       -8.44      1.05    271.58           RANKING
   2      8     19       -8.42      0.28    271.72           RANKING
   2      9      3       -8.41      0.10    271.70           RANKING

Run time 0.568 sec
Idle time 0.000 sec
