AutoDock-GPU version: v1.6

**********************************************************
**    AutoDock-GPU AUTODOCKTOOLS-COMPATIBLE DLG FILE    **
**********************************************************


    DOCKING PARAMETERS
    ________________________


Ligand file:                               /home/a/REINVENT4/ReinventStudies/pleaseWork/justmol2mol_4_Compounds_ontop/graph-dock-hn62wh/graph-DockGPU/node-autodockgpu/inputs/GIHZVPBTSQJAPB-BBVMTRQKNA-N.pdbqt
Grid fld file:                             /home/a/REINVENT4/ReinventStudies/mols/Rad51/maps/rad51_receptor.maps.fld

Random seed:                               42
Number of runs:                            20
Number of energy evaluations:              1259779
Number of generations:                     42000
Size of population:                        150
Rate of crossover:                         80.000000%
Tournament selection probability limit:    60.000000%
Rate of mutation:                          2.000000%
Maximal allowed delta movement:            +/- 6.000000A
Maximal allowed delta angle:               +/- 90.000000

Rate of local search:                      100.000000%
Maximal number of local search iterations: 300
Rho lower bound:                           0.010000
Spread of local search delta movement:     2.000000A
Spread of local search delta angle:        74.999999
Limit of consecutive successes/failures:   4

Handle symmetry during clustering:         YES
RMSD tolerance:                            2.000000A

Program call in command line was:          /home/a/REINVENT4/ReinventStudies/adgpu-v1.6_linux_x64_cuda12_128wi --filelist batch.txt --heuristics 1 --nrun 20 --psize 150 --lsit 300 --seed 42 --heurmax 12000000 


    GRID PARAMETERS
    ________________________


Receptor name:                             rad51_receptor
Number of grid points (x, y, z):           53, 53, 53
Grid center (x, y, z):                     139.950000, 75.640000, 221.970000A
Grid size (x, y, z):                       19.500000, 19.500000, 19.500000A
Grid spacing:                              0.375000A


    LIGAND PARAMETERS
    ________________________


Ligand name:                               /home/a/REINVENT4/ReinventStudies/pleaseWork/justmol2mol_4_Compounds_ontop/graph-dock-hn62wh/graph-DockGPU/node-autodockgpu/inputs/GIHZVPBTSQJAPB-BBVMTRQKNA-N
Number of atoms:                           31
Number of rotatable bonds:                 7
Number of atom types:                      6


    DUMMY DATA (only for ADT-compatibility)
    ________________________


DPF> outlev 1
DPF> ga_run 20
DPF> fld /home/a/REINVENT4/ReinventStudies/mols/Rad51/maps/rad51_receptor.maps.fld
DPF> move /home/a/REINVENT4/ReinventStudies/pleaseWork/justmol2mol_4_Compounds_ontop/graph-dock-hn62wh/graph-DockGPU/node-autodockgpu/inputs/GIHZVPBTSQJAPB-BBVMTRQKNA-N.pdbqt


    COUNTER STATES
    ________________________


Number of energy evaluations performed:    975583
Number of generations used:                50


    INPUT LIGAND PDBQT FILE:
    ________________________


INPUT-LIGAND-PDBQT: REMARK SMILES O=C(NCC(=O)N1C[C@H](O)C[C@H]1Cc1ccccc1)c1ccc2ccccc2n1
INPUT-LIGAND-PDBQT: REMARK SMILES IDX 5 1 6 2 4 3 3 4 2 5 1 6 20 8 21 9 29 10 22 11 28 12 23 13
INPUT-LIGAND-PDBQT: REMARK SMILES IDX 27 14 24 15 26 16 25 17 7 18 8 19 12 20 9 21 11 22 13 23
INPUT-LIGAND-PDBQT: REMARK SMILES IDX 14 24 15 25 19 26 16 27 18 28 17 29 10 30
INPUT-LIGAND-PDBQT: REMARK H PARENT 3 7 10 31
INPUT-LIGAND-PDBQT: ROOT
INPUT-LIGAND-PDBQT: ATOM      1  C   UNL     1      -0.723   1.847  -2.134  1.00  0.00     0.242 C 
INPUT-LIGAND-PDBQT: ATOM      2  O   UNL     1      -1.671   2.546  -2.674  1.00  0.00    -0.273 OA
INPUT-LIGAND-PDBQT: ENDROOT
INPUT-LIGAND-PDBQT: BRANCH   1   3
INPUT-LIGAND-PDBQT: ATOM      3  C   UNL     1       0.614   2.375  -2.336  1.00  0.00     0.216 C 
INPUT-LIGAND-PDBQT: BRANCH   3   4
INPUT-LIGAND-PDBQT: ATOM      4  N   UNL     1       1.718   1.723  -1.703  1.00  0.00    -0.342 N 
INPUT-LIGAND-PDBQT: ATOM      5  C   UNL     1       1.876   1.660  -0.268  1.00  0.00     0.270 C 
INPUT-LIGAND-PDBQT: ATOM      6  O   UNL     1       1.015   2.209   0.501  1.00  0.00    -0.268 OA
INPUT-LIGAND-PDBQT: ATOM      7  H   UNL     1       2.490   1.242  -2.255  1.00  0.00     0.164 HD
INPUT-LIGAND-PDBQT: BRANCH   5   8
INPUT-LIGAND-PDBQT: ATOM      8  C   UNL     1       3.041   0.957   0.298  1.00  0.00     0.128 A 
INPUT-LIGAND-PDBQT: ATOM      9  C   UNL     1       3.171   0.911   1.670  1.00  0.00     0.035 A 
INPUT-LIGAND-PDBQT: ATOM     10  N   UNL     1       3.955   0.375  -0.501  1.00  0.00    -0.243 NA
INPUT-LIGAND-PDBQT: ATOM     11  C   UNL     1       4.240   0.268   2.286  1.00  0.00     0.013 A 
INPUT-LIGAND-PDBQT: ATOM     12  C   UNL     1       4.992  -0.249   0.082  1.00  0.00     0.071 A 
INPUT-LIGAND-PDBQT: ATOM     13  C   UNL     1       5.167  -0.323   1.447  1.00  0.00     0.000 A 
INPUT-LIGAND-PDBQT: ATOM     14  C   UNL     1       5.913  -0.838  -0.791  1.00  0.00     0.029 A 
INPUT-LIGAND-PDBQT: ATOM     15  C   UNL     1       6.281  -0.997   1.948  1.00  0.00     0.010 A 
INPUT-LIGAND-PDBQT: ATOM     16  C   UNL     1       7.020  -1.507  -0.305  1.00  0.00     0.002 A 
INPUT-LIGAND-PDBQT: ATOM     17  C   UNL     1       7.182  -1.573   1.061  1.00  0.00     0.001 A 
INPUT-LIGAND-PDBQT: ENDBRANCH   5   8
INPUT-LIGAND-PDBQT: ENDBRANCH   3   4
INPUT-LIGAND-PDBQT: ENDBRANCH   1   3
INPUT-LIGAND-PDBQT: BRANCH   1  18
INPUT-LIGAND-PDBQT: ATOM     18  N   UNL     1      -1.135   0.691  -1.446  1.00  0.00    -0.335 N 
INPUT-LIGAND-PDBQT: ATOM     19  C   UNL     1      -0.455  -0.367  -0.767  1.00  0.00     0.151 C 
INPUT-LIGAND-PDBQT: ATOM     20  C   UNL     1      -2.572   0.333  -1.281  1.00  0.00     0.092 C 
INPUT-LIGAND-PDBQT: ATOM     21  C   UNL     1      -1.304  -1.592  -0.944  1.00  0.00     0.136 C 
INPUT-LIGAND-PDBQT: ATOM     22  C   UNL     1      -2.549  -1.137  -1.636  1.00  0.00     0.059 C 
INPUT-LIGAND-PDBQT: BRANCH  20  23
INPUT-LIGAND-PDBQT: ATOM     23  C   UNL     1      -2.937   0.476   0.160  1.00  0.00     0.060 C 
INPUT-LIGAND-PDBQT: BRANCH  23  24
INPUT-LIGAND-PDBQT: ATOM     24  C   UNL     1      -4.329   0.158   0.495  1.00  0.00    -0.046 A 
INPUT-LIGAND-PDBQT: ATOM     25  C   UNL     1      -4.784  -1.083   0.886  1.00  0.00     0.004 A 
INPUT-LIGAND-PDBQT: ATOM     26  C   UNL     1      -5.274   1.167   0.415  1.00  0.00     0.004 A 
INPUT-LIGAND-PDBQT: ATOM     27  C   UNL     1      -6.111  -1.336   1.188  1.00  0.00     0.000 A 
INPUT-LIGAND-PDBQT: ATOM     28  C   UNL     1      -6.598   0.965   0.704  1.00  0.00     0.000 A 
INPUT-LIGAND-PDBQT: ATOM     29  C   UNL     1      -6.997  -0.286   1.087  1.00  0.00     0.000 A 
INPUT-LIGAND-PDBQT: ENDBRANCH  23  24
INPUT-LIGAND-PDBQT: ENDBRANCH  20  23
INPUT-LIGAND-PDBQT: BRANCH  21  30
INPUT-LIGAND-PDBQT: ATOM     30  O   UNL     1      -0.636  -2.589  -1.668  1.00  0.00    -0.391 OA
INPUT-LIGAND-PDBQT: ATOM     31  H   UNL     1      -0.601  -3.410  -1.103  1.00  0.00     0.211 HD
INPUT-LIGAND-PDBQT: ENDBRANCH  21  30
INPUT-LIGAND-PDBQT: ENDBRANCH   1  18
INPUT-LIGAND-PDBQT: TORSDOF 7


    FINAL DOCKED STATE:
    ________________________


Run:   1 / 20
Time taken for this run:   0.041s

DOCKED: MODEL        1
DOCKED: USER    Run = 1
DOCKED: USER
DOCKED: USER    Estimated Free Energy of Binding    =  -7.34 kcal/mol  [=(1)+(2)+(3)-(4)]
DOCKED: USER
DOCKED: USER    (1) Final Intermolecular Energy     =  -9.43 kcal/mol
DOCKED: USER        vdW + Hbond + desolv Energy     =  -9.14 kcal/mol
DOCKED: USER        Electrostatic Energy            =  -0.30 kcal/mol
DOCKED: USER        Moving Ligand-Fixed Receptor    =  -9.43 kcal/mol
DOCKED: USER        Moving Ligand-Moving Receptor   =  +0.00 kcal/mol
DOCKED: USER    (2) Final Total Internal Energy     =  -3.11 kcal/mol
DOCKED: USER    (3) Torsional Free Energy           =  +2.09 kcal/mol
DOCKED: USER    (4) Unbound System's Energy         =  -3.11 kcal/mol
DOCKED: USER
DOCKED: USER
DOCKED: REMARK SMILES O=C(NCC(=O)N1C[C@H](O)C[C@H]1Cc1ccccc1)c1ccc2ccccc2n1
DOCKED: REMARK SMILES IDX 5 1 6 2 4 3 3 4 2 5 1 6 20 8 21 9 29 10 22 11 28 12 23 13
DOCKED: REMARK SMILES IDX 27 14 24 15 26 16 25 17 7 18 8 19 12 20 9 21 11 22 13 23
DOCKED: REMARK SMILES IDX 14 24 15 25 19 26 16 27 18 28 17 29 10 30
DOCKED: REMARK H PARENT 3 7 10 31
DOCKED: USER                              x       y       z     vdW  Elec       q    Type
DOCKED: USER                           _______ _______ _______ _____ _____    ______ ____
DOCKED: ROOT
DOCKED: ATOM      1  C   UNL     1     141.876  72.860 220.511 -0.14 -0.04    +0.242 C  
DOCKED: ATOM      2  O   UNL     1     141.375  71.825 219.914 -0.06 +0.04    -0.273 OA 
DOCKED: ENDROOT
DOCKED: BRANCH   1   3
DOCKED: ATOM      3  C   UNL     1     141.075  73.381 221.604 -0.19 -0.02    +0.216 C  
DOCKED: BRANCH   3   4
DOCKED: ATOM      4  N   UNL     1     141.144  74.776 221.909 -0.09 +0.04    -0.342 N  
DOCKED: ATOM      5  C   UNL     1     139.971  75.605 222.068 -0.18 -0.05    +0.270 C  
DOCKED: ATOM      6  O   UNL     1     138.803  75.105 221.927 -0.25 +0.06    -0.268 OA 
DOCKED: ATOM      7  H   UNL     1     142.068  75.287 222.039 -0.39 -0.06    +0.164 HD 
DOCKED: BRANCH   5   8
DOCKED: ATOM      8  C   UNL     1     140.137  77.033 222.393 -0.32 -0.03    +0.128 A  
DOCKED: ATOM      9  C   UNL     1     139.006  77.816 222.485 -0.29 -0.01    +0.035 A  
DOCKED: ATOM     10  N   UNL     1     141.360  77.560 222.595 -0.22 +0.11    -0.243 NA 
DOCKED: ATOM     11  C   UNL     1     139.074  79.172 222.787 -0.31 -0.00    +0.013 A  
DOCKED: ATOM     12  C   UNL     1     141.438  78.869 222.887 -0.49 -0.03    +0.071 A  
DOCKED: ATOM     13  C   UNL     1     140.339  79.694 222.991 -0.42 -0.00    +0.000 A  
DOCKED: ATOM     14  C   UNL     1     142.729  79.368 223.089 -0.54 -0.01    +0.029 A  
DOCKED: ATOM     15  C   UNL     1     140.533  81.040 223.300 -0.42 -0.00    +0.010 A  
DOCKED: ATOM     16  C   UNL     1     142.932  80.700 223.395 -0.64 -0.00    +0.002 A  
DOCKED: ATOM     17  C   UNL     1     141.825  81.513 223.495 -0.56 -0.00    +0.001 A  
DOCKED: ENDBRANCH   5   8
DOCKED: ENDBRANCH   3   4
DOCKED: ENDBRANCH   1   3
DOCKED: BRANCH   1  18
DOCKED: ATOM     18  N   UNL     1     143.108  73.317 220.007 -0.09 +0.07    -0.335 N  
DOCKED: ATOM     19  C   UNL     1     144.043  72.822 219.046 -0.16 -0.01    +0.151 C  
DOCKED: ATOM     20  C   UNL     1     143.727  74.595 220.458 -0.32 -0.04    +0.092 C  
DOCKED: ATOM     21  C   UNL     1     145.397  73.279 219.505 -0.34 +0.01    +0.136 C  
DOCKED: ATOM     22  C   UNL     1     145.157  74.161 220.689 -0.49 -0.02    +0.059 C  
DOCKED: BRANCH  20  23
DOCKED: ATOM     23  C   UNL     1     143.695  75.567 219.324 -0.32 -0.03    +0.060 C  
DOCKED: BRANCH  23  24
DOCKED: ATOM     24  C   UNL     1     142.465  76.356 219.201 -0.28 +0.02    -0.046 A  
DOCKED: ATOM     25  C   UNL     1     141.239  75.855 218.822 -0.12 -0.00    +0.004 A  
DOCKED: ATOM     26  C   UNL     1     142.521  77.712 219.480 -0.23 -0.00    +0.004 A  
DOCKED: ATOM     27  C   UNL     1     140.105  76.642 218.716 -0.06 -0.00    +0.000 A  
DOCKED: ATOM     28  C   UNL     1     141.426  78.531 219.389 -0.24 -0.00    +0.000 A  
DOCKED: ATOM     29  C   UNL     1     140.233  77.982 219.008 -0.09 -0.00    +0.000 A  
DOCKED: ENDBRANCH  23  24
DOCKED: ENDBRANCH  20  23
DOCKED: BRANCH  21  30
DOCKED: ATOM     30  O   UNL     1     146.233  72.198 219.817 -0.51 -0.28    -0.391 OA 
DOCKED: ATOM     31  H   UNL     1     146.005  71.886 220.736 -0.39 -0.02    +0.211 HD 
DOCKED: ENDBRANCH  21  30
DOCKED: ENDBRANCH   1  18
DOCKED: TORSDOF 7
DOCKED: TER
DOCKED: ENDMDL
________________________________________________________________________________


    FINAL DOCKED STATE:
    ________________________


Run:   2 / 20
Time taken for this run:   0.041s

DOCKED: MODEL        2
DOCKED: USER    Run = 2
DOCKED: USER
DOCKED: USER    Estimated Free Energy of Binding    =  -8.59 kcal/mol  [=(1)+(2)+(3)-(4)]
DOCKED: USER
DOCKED: USER    (1) Final Intermolecular Energy     = -10.68 kcal/mol
DOCKED: USER        vdW + Hbond + desolv Energy     = -10.63 kcal/mol
DOCKED: USER        Electrostatic Energy            =  -0.06 kcal/mol
DOCKED: USER        Moving Ligand-Fixed Receptor    = -10.68 kcal/mol
DOCKED: USER        Moving Ligand-Moving Receptor   =  +0.00 kcal/mol
DOCKED: USER    (2) Final Total Internal Energy     =  -1.65 kcal/mol
DOCKED: USER    (3) Torsional Free Energy           =  +2.09 kcal/mol
DOCKED: USER    (4) Unbound System's Energy         =  -1.65 kcal/mol
DOCKED: USER
DOCKED: USER
DOCKED: REMARK SMILES O=C(NCC(=O)N1C[C@H](O)C[C@H]1Cc1ccccc1)c1ccc2ccccc2n1
DOCKED: REMARK SMILES IDX 5 1 6 2 4 3 3 4 2 5 1 6 20 8 21 9 29 10 22 11 28 12 23 13
DOCKED: REMARK SMILES IDX 27 14 24 15 26 16 25 17 7 18 8 19 12 20 9 21 11 22 13 23
DOCKED: REMARK SMILES IDX 14 24 15 25 19 26 16 27 18 28 17 29 10 30
DOCKED: REMARK H PARENT 3 7 10 31
DOCKED: USER                              x       y       z     vdW  Elec       q    Type
DOCKED: USER                           _______ _______ _______ _____ _____    ______ ____
DOCKED: ROOT
DOCKED: ATOM      1  C   UNL     1     140.186  75.256 221.228 -0.20 -0.05    +0.242 C  
DOCKED: ATOM      2  O   UNL     1     140.076  75.825 222.387 -0.47 +0.04    -0.273 OA 
DOCKED: ENDROOT
DOCKED: BRANCH   1   3
DOCKED: ATOM      3  C   UNL     1     139.723  73.882 221.178 -0.16 -0.04    +0.216 C  
DOCKED: BRANCH   3   4
DOCKED: ATOM      4  N   UNL     1     139.732  73.104 222.378 -0.15 +0.06    -0.342 N  
DOCKED: ATOM      5  C   UNL     1     139.885  71.667 222.382 -0.19 -0.04    +0.270 C  
DOCKED: ATOM      6  O   UNL     1     140.011  71.028 221.282 -0.09 +0.04    -0.268 OA 
DOCKED: ATOM      7  H   UNL     1     139.628  73.542 223.342 -0.44 -0.03    +0.164 HD 
DOCKED: BRANCH   5   8
DOCKED: ATOM      8  C   UNL     1     139.894  70.948 223.669 -0.31 -0.02    +0.128 A  
DOCKED: ATOM      9  C   UNL     1     139.413  69.656 223.696 -0.25 -0.01    +0.035 A  
DOCKED: ATOM     10  N   UNL     1     140.358  71.535 224.788 -0.31 +0.04    -0.243 NA 
DOCKED: ATOM     11  C   UNL     1     139.386  68.907 224.868 -0.38 -0.00    +0.013 A  
DOCKED: ATOM     12  C   UNL     1     140.337  70.821 225.926 -0.52 -0.01    +0.071 A  
DOCKED: ATOM     13  C   UNL     1     139.867  69.528 226.006 -0.48 -0.00    +0.000 A  
DOCKED: ATOM     14  C   UNL     1     140.831  71.475 227.060 -0.72 -0.01    +0.029 A  
DOCKED: ATOM     15  C   UNL     1     139.891  68.878 227.239 -0.60 -0.00    +0.010 A  
DOCKED: ATOM     16  C   UNL     1     140.858  70.840 228.287 -0.63 -0.00    +0.002 A  
DOCKED: ATOM     17  C   UNL     1     140.385  69.548 228.351 -0.61 -0.00    +0.001 A  
DOCKED: ENDBRANCH   5   8
DOCKED: ENDBRANCH   3   4
DOCKED: ENDBRANCH   1   3
DOCKED: BRANCH   1  18
DOCKED: ATOM     18  N   UNL     1     140.737  76.054 220.209 -0.06 +0.11    -0.335 N  
DOCKED: ATOM     19  C   UNL     1     140.405  76.304 218.841 -0.05 -0.05    +0.151 C  
DOCKED: ATOM     20  C   UNL     1     141.940  76.906 220.428 -0.22 -0.05    +0.092 C  
DOCKED: ATOM     21  C   UNL     1     141.703  76.565 218.135 -0.12 -0.06    +0.136 C  
DOCKED: ATOM     22  C   UNL     1     142.756  76.580 219.197 -0.32 -0.04    +0.059 C  
DOCKED: BRANCH  20  23
DOCKED: ATOM     23  C   UNL     1     141.527  78.339 220.367 -0.27 -0.03    +0.060 C  
DOCKED: BRANCH  23  24
DOCKED: ATOM     24  C   UNL     1     141.704  79.102 221.607 -0.39 +0.02    -0.046 A  
DOCKED: ATOM     25  C   UNL     1     141.597  78.580 222.879 -0.52 -0.00    +0.004 A  
DOCKED: ATOM     26  C   UNL     1     141.998  80.452 221.515 -0.43 -0.00    +0.004 A  
DOCKED: ATOM     27  C   UNL     1     141.769  79.342 224.021 -0.58 -0.00    +0.000 A  
DOCKED: ATOM     28  C   UNL     1     142.177  81.247 222.617 -0.51 -0.00    +0.000 A  
DOCKED: ATOM     29  C   UNL     1     142.060  80.679 223.856 -0.62 -0.00    +0.000 A  
DOCKED: ENDBRANCH  23  24
DOCKED: ENDBRANCH  20  23
DOCKED: BRANCH  21  30
DOCKED: ATOM     30  O   UNL     1     141.965  75.602 217.151 -0.01 +0.15    -0.391 OA 
DOCKED: ATOM     31  H   UNL     1     141.251  74.907 217.202 +0.03 -0.06    +0.211 HD 
DOCKED: ENDBRANCH  21  30
DOCKED: ENDBRANCH   1  18
DOCKED: TORSDOF 7
DOCKED: TER
DOCKED: ENDMDL
________________________________________________________________________________


    FINAL DOCKED STATE:
    ________________________


Run:   3 / 20
Time taken for this run:   0.041s

DOCKED: MODEL        3
DOCKED: USER    Run = 3
DOCKED: USER
DOCKED: USER    Estimated Free Energy of Binding    =  -8.30 kcal/mol  [=(1)+(2)+(3)-(4)]
DOCKED: USER
DOCKED: USER    (1) Final Intermolecular Energy     = -10.39 kcal/mol
DOCKED: USER        vdW + Hbond + desolv Energy     = -10.40 kcal/mol
DOCKED: USER        Electrostatic Energy            =  +0.01 kcal/mol
DOCKED: USER        Moving Ligand-Fixed Receptor    = -10.39 kcal/mol
DOCKED: USER        Moving Ligand-Moving Receptor   =  +0.00 kcal/mol
DOCKED: USER    (2) Final Total Internal Energy     =  -1.57 kcal/mol
DOCKED: USER    (3) Torsional Free Energy           =  +2.09 kcal/mol
DOCKED: USER    (4) Unbound System's Energy         =  -1.57 kcal/mol
DOCKED: USER
DOCKED: USER
DOCKED: REMARK SMILES O=C(NCC(=O)N1C[C@H](O)C[C@H]1Cc1ccccc1)c1ccc2ccccc2n1
DOCKED: REMARK SMILES IDX 5 1 6 2 4 3 3 4 2 5 1 6 20 8 21 9 29 10 22 11 28 12 23 13
DOCKED: REMARK SMILES IDX 27 14 24 15 26 16 25 17 7 18 8 19 12 20 9 21 11 22 13 23
DOCKED: REMARK SMILES IDX 14 24 15 25 19 26 16 27 18 28 17 29 10 30
DOCKED: REMARK H PARENT 3 7 10 31
DOCKED: USER                              x       y       z     vdW  Elec       q    Type
DOCKED: USER                           _______ _______ _______ _____ _____    ______ ____
DOCKED: ROOT
DOCKED: ATOM      1  C   UNL     1     140.567  72.528 220.967 -0.13 -0.04    +0.242 C  
DOCKED: ATOM      2  O   UNL     1     140.000  72.676 219.811 -0.03 +0.05    -0.273 OA 
DOCKED: ENDROOT
DOCKED: BRANCH   1   3
DOCKED: ATOM      3  C   UNL     1     141.764  73.326 221.165 -0.15 -0.03    +0.216 C  
DOCKED: BRANCH   3   4
DOCKED: ATOM      4  N   UNL     1     141.626  74.700 221.534 -0.08 +0.07    -0.342 N  
DOCKED: ATOM      5  C   UNL     1     140.371  75.278 221.958 -0.15 -0.04    +0.270 C  
DOCKED: ATOM      6  O   UNL     1     139.314  74.560 222.008 -0.52 +0.05    -0.268 OA 
DOCKED: ATOM      7  H   UNL     1     142.444  75.380 221.520 -0.42 -0.10    +0.164 HD 
DOCKED: BRANCH   5   8
DOCKED: ATOM      8  C   UNL     1     140.323  76.703 222.330 -0.34 -0.03    +0.128 A  
DOCKED: ATOM      9  C   UNL     1     139.088  77.297 222.480 -0.29 -0.01    +0.035 A  
DOCKED: ATOM     10  N   UNL     1     141.455  77.408 222.519 -0.13 +0.12    -0.243 NA 
DOCKED: ATOM     11  C   UNL     1     138.954  78.636 222.830 -0.31 -0.00    +0.013 A  
DOCKED: ATOM     12  C   UNL     1     141.338  78.703 222.857 -0.48 -0.03    +0.071 A  
DOCKED: ATOM     13  C   UNL     1     140.128  79.342 223.019 -0.41 -0.00    +0.000 A  
DOCKED: ATOM     14  C   UNL     1     142.542  79.392 223.042 -0.59 -0.01    +0.029 A  
DOCKED: ATOM     15  C   UNL     1     140.120  80.692 223.373 -0.42 -0.00    +0.010 A  
DOCKED: ATOM     16  C   UNL     1     142.545  80.728 223.391 -0.66 -0.00    +0.002 A  
DOCKED: ATOM     17  C   UNL     1     141.329  81.354 223.550 -0.48 -0.00    +0.001 A  
DOCKED: ENDBRANCH   5   8
DOCKED: ENDBRANCH   3   4
DOCKED: ENDBRANCH   1   3
DOCKED: BRANCH   1  18
DOCKED: ATOM     18  N   UNL     1     139.942  71.620 221.840 -0.10 +0.05    -0.335 N  
DOCKED: ATOM     19  C   UNL     1     139.305  70.351 221.678 -0.12 -0.03    +0.151 C  
DOCKED: ATOM     20  C   UNL     1     139.834  71.870 223.305 -0.29 -0.02    +0.092 C  
DOCKED: ATOM     21  C   UNL     1     138.228  70.286 222.722 -0.15 -0.02    +0.136 C  
DOCKED: ATOM     22  C   UNL     1     138.384  71.518 223.555 -0.17 -0.02    +0.059 C  
DOCKED: BRANCH  20  23
DOCKED: ATOM     23  C   UNL     1     140.700  70.888 224.022 -0.21 -0.01    +0.060 C  
DOCKED: BRANCH  23  24
DOCKED: ATOM     24  C   UNL     1     140.621  70.925 225.486 -0.54 +0.01    -0.046 A  
DOCKED: ATOM     25  C   UNL     1     141.162  71.912 226.282 -0.65 -0.00    +0.004 A  
DOCKED: ATOM     26  C   UNL     1     139.961  69.896 226.138 -0.50 -0.00    +0.004 A  
DOCKED: ATOM     27  C   UNL     1     141.065  71.901 227.663 -0.85 -0.00    +0.000 A  
DOCKED: ATOM     28  C   UNL     1     139.840  69.842 227.501 -0.59 -0.00    +0.000 A  
DOCKED: ATOM     29  C   UNL     1     140.395  70.848 228.244 -0.65 -0.00    +0.000 A  
DOCKED: ENDBRANCH  23  24
DOCKED: ENDBRANCH  20  23
DOCKED: BRANCH  21  30
DOCKED: ATOM     30  O   UNL     1     136.952  70.198 222.150 -0.02 +0.07    -0.391 OA 
DOCKED: ATOM     31  H   UNL     1     136.922  70.813 221.366 +0.03 -0.04    +0.211 HD 
DOCKED: ENDBRANCH  21  30
DOCKED: ENDBRANCH   1  18
DOCKED: TORSDOF 7
DOCKED: TER
DOCKED: ENDMDL
________________________________________________________________________________


    FINAL DOCKED STATE:
    ________________________


Run:   4 / 20
Time taken for this run:   0.041s

DOCKED: MODEL        4
DOCKED: USER    Run = 4
DOCKED: USER
DOCKED: USER    Estimated Free Energy of Binding    =  -8.24 kcal/mol  [=(1)+(2)+(3)-(4)]
DOCKED: USER
DOCKED: USER    (1) Final Intermolecular Energy     = -10.33 kcal/mol
DOCKED: USER        vdW + Hbond + desolv Energy     = -10.05 kcal/mol
DOCKED: USER        Electrostatic Energy            =  -0.28 kcal/mol
DOCKED: USER        Moving Ligand-Fixed Receptor    = -10.33 kcal/mol
DOCKED: USER        Moving Ligand-Moving Receptor   =  +0.00 kcal/mol
DOCKED: USER    (2) Final Total Internal Energy     =  -2.44 kcal/mol
DOCKED: USER    (3) Torsional Free Energy           =  +2.09 kcal/mol
DOCKED: USER    (4) Unbound System's Energy         =  -2.44 kcal/mol
DOCKED: USER
DOCKED: USER
DOCKED: REMARK SMILES O=C(NCC(=O)N1C[C@H](O)C[C@H]1Cc1ccccc1)c1ccc2ccccc2n1
DOCKED: REMARK SMILES IDX 5 1 6 2 4 3 3 4 2 5 1 6 20 8 21 9 29 10 22 11 28 12 23 13
DOCKED: REMARK SMILES IDX 27 14 24 15 26 16 25 17 7 18 8 19 12 20 9 21 11 22 13 23
DOCKED: REMARK SMILES IDX 14 24 15 25 19 26 16 27 18 28 17 29 10 30
DOCKED: REMARK H PARENT 3 7 10 31
DOCKED: USER                              x       y       z     vdW  Elec       q    Type
DOCKED: USER                           _______ _______ _______ _____ _____    ______ ____
DOCKED: ROOT
DOCKED: ATOM      1  C   UNL     1     142.015  72.951 221.029 -0.13 -0.03    +0.242 C  
DOCKED: ATOM      2  O   UNL     1     141.981  71.777 221.576 -0.14 +0.02    -0.273 OA 
DOCKED: ENDROOT
DOCKED: BRANCH   1   3
DOCKED: ATOM      3  C   UNL     1     140.840  73.769 221.267 -0.20 -0.03    +0.216 C  
DOCKED: BRANCH   3   4
DOCKED: ATOM      4  N   UNL     1     141.013  75.117 221.710 -0.18 +0.06    -0.342 N  
DOCKED: ATOM      5  C   UNL     1     139.906  75.985 222.039 -0.23 -0.05    +0.270 C  
DOCKED: ATOM      6  O   UNL     1     138.703  75.567 221.931 -0.21 +0.06    -0.268 OA 
DOCKED: ATOM      7  H   UNL     1     141.974  75.561 221.827 -0.39 -0.08    +0.164 HD 
DOCKED: BRANCH   5   8
DOCKED: ATOM      8  C   UNL     1     140.179  77.359 222.499 -0.31 -0.03    +0.128 A  
DOCKED: ATOM      9  C   UNL     1     139.106  78.172 222.795 -0.29 -0.01    +0.035 A  
DOCKED: ATOM     10  N   UNL     1     141.442  77.809 222.626 -0.25 +0.12    -0.243 NA 
DOCKED: ATOM     11  C   UNL     1     139.276  79.481 223.236 -0.37 -0.00    +0.013 A  
DOCKED: ATOM     12  C   UNL     1     141.618  79.071 223.050 -0.51 -0.02    +0.071 A  
DOCKED: ATOM     13  C   UNL     1     140.580  79.923 223.360 -0.48 -0.00    +0.000 A  
DOCKED: ATOM     14  C   UNL     1     142.948  79.490 223.167 -0.49 -0.01    +0.029 A  
DOCKED: ATOM     15  C   UNL     1     140.876  81.216 223.792 -0.36 -0.00    +0.010 A  
DOCKED: ATOM     16  C   UNL     1     143.251  80.769 223.594 -0.58 -0.00    +0.002 A  
DOCKED: ATOM     17  C   UNL     1     142.204  81.610 223.899 -0.59 -0.00    +0.001 A  
DOCKED: ENDBRANCH   5   8
DOCKED: ENDBRANCH   3   4
DOCKED: ENDBRANCH   1   3
DOCKED: BRANCH   1  18
DOCKED: ATOM     18  N   UNL     1     143.176  73.245 220.290 -0.11 +0.07    -0.335 N  
DOCKED: ATOM     19  C   UNL     1     144.052  72.484 219.456 -0.20 -0.01    +0.151 C  
DOCKED: ATOM     20  C   UNL     1     143.765  74.613 220.245 -0.34 -0.04    +0.092 C  
DOCKED: ATOM     21  C   UNL     1     145.415  73.094 219.614 -0.36 +0.02    +0.136 C  
DOCKED: ATOM     22  C   UNL     1     145.230  74.307 220.468 -0.44 -0.02    +0.059 C  
DOCKED: BRANCH  20  23
DOCKED: ATOM     23  C   UNL     1     143.591  75.162 218.867 -0.26 -0.03    +0.060 C  
DOCKED: BRANCH  23  24
DOCKED: ATOM     24  C   UNL     1     143.026  76.513 218.791 -0.32 +0.03    -0.046 A  
DOCKED: ATOM     25  C   UNL     1     142.454  77.191 219.846 -0.32 -0.00    +0.004 A  
DOCKED: ATOM     26  C   UNL     1     143.056  77.174 217.574 -0.28 -0.00    +0.004 A  
DOCKED: ATOM     27  C   UNL     1     141.928  78.466 219.724 -0.27 -0.00    +0.000 A  
DOCKED: ATOM     28  C   UNL     1     142.549  78.435 217.405 -0.29 -0.00    +0.000 A  
DOCKED: ATOM     29  C   UNL     1     141.992  79.063 218.485 -0.28 -0.00    +0.000 A  
DOCKED: ENDBRANCH  23  24
DOCKED: ENDBRANCH  20  23
DOCKED: BRANCH  21  30
DOCKED: ATOM     30  O   UNL     1     146.328  72.191 220.176 -0.41 -0.20    -0.391 OA 
DOCKED: ATOM     31  H   UNL     1     145.958  71.881 221.048 -0.44 -0.08    +0.211 HD 
DOCKED: ENDBRANCH  21  30
DOCKED: ENDBRANCH   1  18
DOCKED: TORSDOF 7
DOCKED: TER
DOCKED: ENDMDL
________________________________________________________________________________


    FINAL DOCKED STATE:
    ________________________


Run:   5 / 20
Time taken for this run:   0.041s

DOCKED: MODEL        5
DOCKED: USER    Run = 5
DOCKED: USER
DOCKED: USER    Estimated Free Energy of Binding    =  -8.62 kcal/mol  [=(1)+(2)+(3)-(4)]
DOCKED: USER
DOCKED: USER    (1) Final Intermolecular Energy     = -10.71 kcal/mol
DOCKED: USER        vdW + Hbond + desolv Energy     = -10.78 kcal/mol
DOCKED: USER        Electrostatic Energy            =  +0.07 kcal/mol
DOCKED: USER        Moving Ligand-Fixed Receptor    = -10.71 kcal/mol
DOCKED: USER        Moving Ligand-Moving Receptor   =  +0.00 kcal/mol
DOCKED: USER    (2) Final Total Internal Energy     =  -1.33 kcal/mol
DOCKED: USER    (3) Torsional Free Energy           =  +2.09 kcal/mol
DOCKED: USER    (4) Unbound System's Energy         =  -1.33 kcal/mol
DOCKED: USER
DOCKED: USER
DOCKED: REMARK SMILES O=C(NCC(=O)N1C[C@H](O)C[C@H]1Cc1ccccc1)c1ccc2ccccc2n1
DOCKED: REMARK SMILES IDX 5 1 6 2 4 3 3 4 2 5 1 6 20 8 21 9 29 10 22 11 28 12 23 13
DOCKED: REMARK SMILES IDX 27 14 24 15 26 16 25 17 7 18 8 19 12 20 9 21 11 22 13 23
DOCKED: REMARK SMILES IDX 14 24 15 25 19 26 16 27 18 28 17 29 10 30
DOCKED: REMARK H PARENT 3 7 10 31
DOCKED: USER                              x       y       z     vdW  Elec       q    Type
DOCKED: USER                           _______ _______ _______ _____ _____    ______ ____
DOCKED: ROOT
DOCKED: ATOM      1  C   UNL     1     138.369  72.163 222.396 -0.11 -0.07    +0.242 C  
DOCKED: ATOM      2  O   UNL     1     137.230  72.604 222.828 -0.10 +0.10    -0.273 OA 
DOCKED: ENDROOT
DOCKED: BRANCH   1   3
DOCKED: ATOM      3  C   UNL     1     139.145  73.124 221.634 -0.16 -0.05    +0.216 C  
DOCKED: BRANCH   3   4
DOCKED: ATOM      4  N   UNL     1     139.228  74.472 222.102 -0.13 +0.07    -0.342 N  
DOCKED: ATOM      5  C   UNL     1     140.274  75.383 221.696 -0.22 -0.05    +0.270 C  
DOCKED: ATOM      6  O   UNL     1     141.189  74.997 220.891 -0.21 +0.07    -0.268 OA 
DOCKED: ATOM      7  H   UNL     1     138.519  74.887 222.779 -0.48 -0.07    +0.164 HD 
DOCKED: BRANCH   5   8
DOCKED: ATOM      8  C   UNL     1     140.275  76.760 222.221 -0.33 -0.03    +0.128 A  
DOCKED: ATOM      9  C   UNL     1     139.064  77.334 222.546 -0.29 -0.01    +0.035 A  
DOCKED: ATOM     10  N   UNL     1     141.425  77.441 222.380 -0.15 +0.12    -0.243 NA 
DOCKED: ATOM     11  C   UNL     1     138.975  78.628 223.048 -0.32 -0.00    +0.013 A  
DOCKED: ATOM     12  C   UNL     1     141.352  78.692 222.863 -0.48 -0.03    +0.071 A  
DOCKED: ATOM     13  C   UNL     1     140.168  79.310 223.203 -0.44 -0.00    +0.000 A  
DOCKED: ATOM     14  C   UNL     1     142.574  79.357 223.010 -0.58 -0.01    +0.029 A  
DOCKED: ATOM     15  C   UNL     1     140.206  80.614 223.697 -0.41 -0.00    +0.010 A  
DOCKED: ATOM     16  C   UNL     1     142.623  80.648 223.498 -0.67 -0.00    +0.002 A  
DOCKED: ATOM     17  C   UNL     1     141.432  81.253 223.833 -0.52 -0.00    +0.001 A  
DOCKED: ENDBRANCH   5   8
DOCKED: ENDBRANCH   3   4
DOCKED: ENDBRANCH   1   3
DOCKED: BRANCH   1  18
DOCKED: ATOM     18  N   UNL     1     138.670  70.829 222.727 -0.08 +0.07    -0.335 N  
DOCKED: ATOM     19  C   UNL     1     139.080  69.680 221.982 -0.12 -0.03    +0.151 C  
DOCKED: ATOM     20  C   UNL     1     138.610  70.323 224.127 -0.28 -0.02    +0.092 C  
DOCKED: ATOM     21  C   UNL     1     138.499  68.492 222.692 -0.19 -0.02    +0.136 C  
DOCKED: ATOM     22  C   UNL     1     137.862  69.023 223.936 -0.26 -0.01    +0.059 C  
DOCKED: BRANCH  20  23
DOCKED: ATOM     23  C   UNL     1     139.999  70.018 224.585 -0.35 -0.01    +0.060 C  
DOCKED: BRANCH  23  24
DOCKED: ATOM     24  C   UNL     1     140.355  70.530 225.912 -0.52 +0.01    -0.046 A  
DOCKED: ATOM     25  C   UNL     1     140.044  69.913 227.106 -0.57 -0.00    +0.004 A  
DOCKED: ATOM     26  C   UNL     1     141.052  71.723 225.994 -0.62 -0.00    +0.004 A  
DOCKED: ATOM     27  C   UNL     1     140.399  70.438 228.337 -0.59 -0.00    +0.000 A  
DOCKED: ATOM     28  C   UNL     1     141.424  72.281 227.189 -0.81 -0.00    +0.000 A  
DOCKED: ATOM     29  C   UNL     1     141.091  71.629 228.344 -0.76 -0.00    +0.000 A  
DOCKED: ENDBRANCH  23  24
DOCKED: ENDBRANCH  20  23
DOCKED: BRANCH  21  30
DOCKED: ATOM     30  O   UNL     1     137.583  67.801 221.887 -0.07 +0.06    -0.391 OA 
DOCKED: ATOM     31  H   UNL     1     136.959  68.468 221.487 +0.04 -0.03    +0.211 HD 
DOCKED: ENDBRANCH  21  30
DOCKED: ENDBRANCH   1  18
DOCKED: TORSDOF 7
DOCKED: TER
DOCKED: ENDMDL
________________________________________________________________________________


    FINAL DOCKED STATE:
    ________________________


Run:   6 / 20
Time taken for this run:   0.041s

DOCKED: MODEL        6
DOCKED: USER    Run = 6
DOCKED: USER
DOCKED: USER    Estimated Free Energy of Binding    =  -8.23 kcal/mol  [=(1)+(2)+(3)-(4)]
DOCKED: USER
DOCKED: USER    (1) Final Intermolecular Energy     = -10.32 kcal/mol
DOCKED: USER        vdW + Hbond + desolv Energy     = -10.05 kcal/mol
DOCKED: USER        Electrostatic Energy            =  -0.27 kcal/mol
DOCKED: USER        Moving Ligand-Fixed Receptor    = -10.32 kcal/mol
DOCKED: USER        Moving Ligand-Moving Receptor   =  +0.00 kcal/mol
DOCKED: USER    (2) Final Total Internal Energy     =  -2.46 kcal/mol
DOCKED: USER    (3) Torsional Free Energy           =  +2.09 kcal/mol
DOCKED: USER    (4) Unbound System's Energy         =  -2.46 kcal/mol
DOCKED: USER
DOCKED: USER
DOCKED: REMARK SMILES O=C(NCC(=O)N1C[C@H](O)C[C@H]1Cc1ccccc1)c1ccc2ccccc2n1
DOCKED: REMARK SMILES IDX 5 1 6 2 4 3 3 4 2 5 1 6 20 8 21 9 29 10 22 11 28 12 23 13
DOCKED: REMARK SMILES IDX 27 14 24 15 26 16 25 17 7 18 8 19 12 20 9 21 11 22 13 23
DOCKED: REMARK SMILES IDX 14 24 15 25 19 26 16 27 18 28 17 29 10 30
DOCKED: REMARK H PARENT 3 7 10 31
DOCKED: USER                              x       y       z     vdW  Elec       q    Type
DOCKED: USER                           _______ _______ _______ _____ _____    ______ ____
DOCKED: ROOT
DOCKED: ATOM      1  C   UNL     1     141.993  72.933 221.087 -0.13 -0.03    +0.242 C  
DOCKED: ATOM      2  O   UNL     1     141.984  71.736 221.583 -0.14 +0.02    -0.273 OA 
DOCKED: ENDROOT
DOCKED: BRANCH   1   3
DOCKED: ATOM      3  C   UNL     1     140.820  73.730 221.397 -0.21 -0.03    +0.216 C  
DOCKED: BRANCH   3   4
DOCKED: ATOM      4  N   UNL     1     140.996  75.088 221.808 -0.17 +0.06    -0.342 N  
DOCKED: ATOM      5  C   UNL     1     139.889  75.974 222.089 -0.23 -0.05    +0.270 C  
DOCKED: ATOM      6  O   UNL     1     138.685  75.562 221.965 -0.22 +0.06    -0.268 OA 
DOCKED: ATOM      7  H   UNL     1     141.957  75.526 221.935 -0.40 -0.08    +0.164 HD 
DOCKED: BRANCH   5   8
DOCKED: ATOM      8  C   UNL     1     140.164  77.357 222.518 -0.30 -0.03    +0.128 A  
DOCKED: ATOM      9  C   UNL     1     139.092  78.186 222.772 -0.29 -0.01    +0.035 A  
DOCKED: ATOM     10  N   UNL     1     141.428  77.801 222.657 -0.26 +0.11    -0.243 NA 
DOCKED: ATOM     11  C   UNL     1     139.264  79.504 223.181 -0.36 -0.00    +0.013 A  
DOCKED: ATOM     12  C   UNL     1     141.606  79.072 223.052 -0.51 -0.02    +0.071 A  
DOCKED: ATOM     13  C   UNL     1     140.569  79.940 223.319 -0.47 -0.00    +0.000 A  
DOCKED: ATOM     14  C   UNL     1     142.936  79.485 223.183 -0.48 -0.01    +0.029 A  
DOCKED: ATOM     15  C   UNL     1     140.866  81.241 223.723 -0.37 -0.00    +0.010 A  
DOCKED: ATOM     16  C   UNL     1     143.242  80.772 223.582 -0.58 -0.00    +0.002 A  
DOCKED: ATOM     17  C   UNL     1     142.195  81.628 223.845 -0.59 -0.00    +0.001 A  
DOCKED: ENDBRANCH   5   8
DOCKED: ENDBRANCH   3   4
DOCKED: ENDBRANCH   1   3
DOCKED: BRANCH   1  18
DOCKED: ATOM     18  N   UNL     1     143.128  73.268 220.326 -0.12 +0.07    -0.335 N  
DOCKED: ATOM     19  C   UNL     1     144.017  72.537 219.478 -0.20 -0.01    +0.151 C  
DOCKED: ATOM     20  C   UNL     1     143.663  74.657 220.265 -0.33 -0.04    +0.092 C  
DOCKED: ATOM     21  C   UNL     1     145.358  73.199 219.609 -0.36 +0.01    +0.136 C  
DOCKED: ATOM     22  C   UNL     1     145.142  74.408 220.462 -0.41 -0.02    +0.059 C  
DOCKED: BRANCH  20  23
DOCKED: ATOM     23  C   UNL     1     143.443  75.193 218.889 -0.27 -0.03    +0.060 C  
DOCKED: BRANCH  23  24
DOCKED: ATOM     24  C   UNL     1     142.921  76.562 218.819 -0.32 +0.03    -0.046 A  
DOCKED: ATOM     25  C   UNL     1     142.312  77.230 219.860 -0.32 -0.00    +0.004 A  
DOCKED: ATOM     26  C   UNL     1     143.038  77.252 217.624 -0.28 -0.00    +0.004 A  
DOCKED: ATOM     27  C   UNL     1     141.831  78.523 219.744 -0.29 -0.00    +0.000 A  
DOCKED: ATOM     28  C   UNL     1     142.578  78.533 217.462 -0.30 -0.00    +0.000 A  
DOCKED: ATOM     29  C   UNL     1     141.980  79.150 218.526 -0.29 -0.00    +0.000 A  
DOCKED: ENDBRANCH  23  24
DOCKED: ENDBRANCH  20  23
DOCKED: BRANCH  21  30
DOCKED: ATOM     30  O   UNL     1     146.315  72.335 220.157 -0.45 -0.20    -0.391 OA 
DOCKED: ATOM     31  H   UNL     1     145.910  71.891 220.954 -0.43 -0.06    +0.211 HD 
DOCKED: ENDBRANCH  21  30
DOCKED: ENDBRANCH   1  18
DOCKED: TORSDOF 7
DOCKED: TER
DOCKED: ENDMDL
________________________________________________________________________________


    FINAL DOCKED STATE:
    ________________________


Run:   7 / 20
Time taken for this run:   0.041s

DOCKED: MODEL        7
DOCKED: USER    Run = 7
DOCKED: USER
DOCKED: USER    Estimated Free Energy of Binding    =  -8.16 kcal/mol  [=(1)+(2)+(3)-(4)]
DOCKED: USER
DOCKED: USER    (1) Final Intermolecular Energy     = -10.25 kcal/mol
DOCKED: USER        vdW + Hbond + desolv Energy     = -10.01 kcal/mol
DOCKED: USER        Electrostatic Energy            =  -0.24 kcal/mol
DOCKED: USER        Moving Ligand-Fixed Receptor    = -10.25 kcal/mol
DOCKED: USER        Moving Ligand-Moving Receptor   =  +0.00 kcal/mol
DOCKED: USER    (2) Final Total Internal Energy     =  -2.47 kcal/mol
DOCKED: USER    (3) Torsional Free Energy           =  +2.09 kcal/mol
DOCKED: USER    (4) Unbound System's Energy         =  -2.47 kcal/mol
DOCKED: USER
DOCKED: USER
DOCKED: REMARK SMILES O=C(NCC(=O)N1C[C@H](O)C[C@H]1Cc1ccccc1)c1ccc2ccccc2n1
DOCKED: REMARK SMILES IDX 5 1 6 2 4 3 3 4 2 5 1 6 20 8 21 9 29 10 22 11 28 12 23 13
DOCKED: REMARK SMILES IDX 27 14 24 15 26 16 25 17 7 18 8 19 12 20 9 21 11 22 13 23
DOCKED: REMARK SMILES IDX 14 24 15 25 19 26 16 27 18 28 17 29 10 30
DOCKED: REMARK H PARENT 3 7 10 31
DOCKED: USER                              x       y       z     vdW  Elec       q    Type
DOCKED: USER                           _______ _______ _______ _____ _____    ______ ____
DOCKED: ROOT
DOCKED: ATOM      1  C   UNL     1     141.948  72.934 221.104 -0.13 -0.03    +0.242 C  
DOCKED: ATOM      2  O   UNL     1     141.933  71.721 221.558 -0.14 +0.02    -0.273 OA 
DOCKED: ENDROOT
DOCKED: BRANCH   1   3
DOCKED: ATOM      3  C   UNL     1     140.781  73.727 221.446 -0.21 -0.02    +0.216 C  
DOCKED: BRANCH   3   4
DOCKED: ATOM      4  N   UNL     1     140.962  75.087 221.848 -0.17 +0.05    -0.342 N  
DOCKED: ATOM      5  C   UNL     1     139.859  75.979 222.123 -0.22 -0.05    +0.270 C  
DOCKED: ATOM      6  O   UNL     1     138.654  75.572 222.002 -0.22 +0.06    -0.268 OA 
DOCKED: ATOM      7  H   UNL     1     141.925  75.522 221.971 -0.39 -0.07    +0.164 HD 
DOCKED: BRANCH   5   8
DOCKED: ATOM      8  C   UNL     1     140.141  77.363 222.543 -0.30 -0.03    +0.128 A  
DOCKED: ATOM      9  C   UNL     1     139.072  78.196 222.802 -0.29 -0.01    +0.035 A  
DOCKED: ATOM     10  N   UNL     1     141.406  77.805 222.672 -0.26 +0.11    -0.243 NA 
DOCKED: ATOM     11  C   UNL     1     139.249  79.516 223.203 -0.36 -0.00    +0.013 A  
DOCKED: ATOM     12  C   UNL     1     141.590  79.078 223.059 -0.51 -0.02    +0.071 A  
DOCKED: ATOM     13  C   UNL     1     140.556  79.949 223.329 -0.47 -0.00    +0.000 A  
DOCKED: ATOM     14  C   UNL     1     142.922  79.489 223.179 -0.49 -0.01    +0.029 A  
DOCKED: ATOM     15  C   UNL     1     140.859  81.252 223.725 -0.37 -0.00    +0.010 A  
DOCKED: ATOM     16  C   UNL     1     143.232  80.777 223.570 -0.58 -0.00    +0.002 A  
DOCKED: ATOM     17  C   UNL     1     142.190  81.637 223.836 -0.58 -0.00    +0.001 A  
DOCKED: ENDBRANCH   5   8
DOCKED: ENDBRANCH   3   4
DOCKED: ENDBRANCH   1   3
DOCKED: BRANCH   1  18
DOCKED: ATOM     18  N   UNL     1     143.082  73.288 220.350 -0.12 +0.07    -0.335 N  
DOCKED: ATOM     19  C   UNL     1     144.015  72.566 219.543 -0.20 -0.01    +0.151 C  
DOCKED: ATOM     20  C   UNL     1     143.562  74.695 220.249 -0.32 -0.04    +0.092 C  
DOCKED: ATOM     21  C   UNL     1     145.325  73.286 219.672 -0.37 +0.01    +0.136 C  
DOCKED: ATOM     22  C   UNL     1     145.046  74.514 220.479 -0.39 -0.02    +0.059 C  
DOCKED: BRANCH  20  23
DOCKED: ATOM     23  C   UNL     1     143.345  75.175 218.852 -0.27 -0.03    +0.060 C  
DOCKED: BRANCH  23  24
DOCKED: ATOM     24  C   UNL     1     142.885  76.561 218.722 -0.31 +0.03    -0.046 A  
DOCKED: ATOM     25  C   UNL     1     143.010  77.333 217.587 -0.28 -0.00    +0.004 A  
DOCKED: ATOM     26  C   UNL     1     142.281  77.161 219.814 -0.33 -0.00    +0.004 A  
DOCKED: ATOM     27  C   UNL     1     142.564  78.641 217.514 -0.30 -0.00    +0.000 A  
DOCKED: ATOM     28  C   UNL     1     141.823  78.452 219.790 -0.29 -0.00    +0.000 A  
DOCKED: ATOM     29  C   UNL     1     141.972  79.174 218.638 -0.29 -0.00    +0.000 A  
DOCKED: ENDBRANCH  23  24
DOCKED: ENDBRANCH  20  23
DOCKED: BRANCH  21  30
DOCKED: ATOM     30  O   UNL     1     146.306  72.480 220.267 -0.42 -0.16    -0.391 OA 
DOCKED: ATOM     31  H   UNL     1     145.861  71.903 220.947 -0.42 -0.06    +0.211 HD 
DOCKED: ENDBRANCH  21  30
DOCKED: ENDBRANCH   1  18
DOCKED: TORSDOF 7
DOCKED: TER
DOCKED: ENDMDL
________________________________________________________________________________


    FINAL DOCKED STATE:
    ________________________


Run:   8 / 20
Time taken for this run:   0.041s

DOCKED: MODEL        8
DOCKED: USER    Run = 8
DOCKED: USER
DOCKED: USER    Estimated Free Energy of Binding    =  -8.63 kcal/mol  [=(1)+(2)+(3)-(4)]
DOCKED: USER
DOCKED: USER    (1) Final Intermolecular Energy     = -10.72 kcal/mol
DOCKED: USER        vdW + Hbond + desolv Energy     = -10.78 kcal/mol
DOCKED: USER        Electrostatic Energy            =  +0.06 kcal/mol
DOCKED: USER        Moving Ligand-Fixed Receptor    = -10.72 kcal/mol
DOCKED: USER        Moving Ligand-Moving Receptor   =  +0.00 kcal/mol
DOCKED: USER    (2) Final Total Internal Energy     =  -1.36 kcal/mol
DOCKED: USER    (3) Torsional Free Energy           =  +2.09 kcal/mol
DOCKED: USER    (4) Unbound System's Energy         =  -1.36 kcal/mol
DOCKED: USER
DOCKED: USER
DOCKED: REMARK SMILES O=C(NCC(=O)N1C[C@H](O)C[C@H]1Cc1ccccc1)c1ccc2ccccc2n1
DOCKED: REMARK SMILES IDX 5 1 6 2 4 3 3 4 2 5 1 6 20 8 21 9 29 10 22 11 28 12 23 13
DOCKED: REMARK SMILES IDX 27 14 24 15 26 16 25 17 7 18 8 19 12 20 9 21 11 22 13 23
DOCKED: REMARK SMILES IDX 14 24 15 25 19 26 16 27 18 28 17 29 10 30
DOCKED: REMARK H PARENT 3 7 10 31
DOCKED: USER                              x       y       z     vdW  Elec       q    Type
DOCKED: USER                           _______ _______ _______ _____ _____    ______ ____
DOCKED: ROOT
DOCKED: ATOM      1  C   UNL     1     138.535  72.024 222.402 -0.13 -0.06    +0.242 C  
DOCKED: ATOM      2  O   UNL     1     137.362  72.502 222.678 -0.11 +0.09    -0.273 OA 
DOCKED: ENDROOT
DOCKED: BRANCH   1   3
DOCKED: ATOM      3  C   UNL     1     139.440  72.963 221.764 -0.18 -0.04    +0.216 C  
DOCKED: BRANCH   3   4
DOCKED: ATOM      4  N   UNL     1     139.441  74.325 222.197 -0.11 +0.06    -0.342 N  
DOCKED: ATOM      5  C   UNL     1     140.420  75.290 221.752 -0.20 -0.05    +0.270 C  
DOCKED: ATOM      6  O   UNL     1     141.347  74.943 220.943 -0.22 +0.07    -0.268 OA 
DOCKED: ATOM      7  H   UNL     1     138.715  74.710 222.873 -0.52 -0.07    +0.164 HD 
DOCKED: BRANCH   5   8
DOCKED: ATOM      8  C   UNL     1     140.338  76.678 222.242 -0.34 -0.03    +0.128 A  
DOCKED: ATOM      9  C   UNL     1     139.092  77.199 222.517 -0.29 -0.01    +0.035 A  
DOCKED: ATOM     10  N   UNL     1     141.449  77.418 222.417 -0.14 +0.13    -0.243 NA 
DOCKED: ATOM     11  C   UNL     1     138.925  78.499 222.983 -0.31 -0.00    +0.013 A  
DOCKED: ATOM     12  C   UNL     1     141.301  78.676 222.866 -0.47 -0.03    +0.071 A  
DOCKED: ATOM     13  C   UNL     1     140.079  79.242 223.156 -0.42 -0.00    +0.000 A  
DOCKED: ATOM     14  C   UNL     1     142.485  79.403 223.032 -0.59 -0.01    +0.029 A  
DOCKED: ATOM     15  C   UNL     1     140.038  80.558 223.618 -0.42 -0.00    +0.010 A  
DOCKED: ATOM     16  C   UNL     1     142.456  80.707 223.488 -0.66 -0.00    +0.002 A  
DOCKED: ATOM     17  C   UNL     1     141.227  81.260 223.773 -0.47 -0.00    +0.001 A  
DOCKED: ENDBRANCH   5   8
DOCKED: ENDBRANCH   3   4
DOCKED: ENDBRANCH   1   3
DOCKED: BRANCH   1  18
DOCKED: ATOM     18  N   UNL     1     138.743  70.679 222.758 -0.08 +0.07    -0.335 N  
DOCKED: ATOM     19  C   UNL     1     139.116  69.499 222.042 -0.12 -0.03    +0.151 C  
DOCKED: ATOM     20  C   UNL     1     138.594  70.194 224.159 -0.28 -0.02    +0.092 C  
DOCKED: ATOM     21  C   UNL     1     138.436  68.356 222.737 -0.20 -0.02    +0.136 C  
DOCKED: ATOM     22  C   UNL     1     137.780  68.937 223.948 -0.25 -0.01    +0.059 C  
DOCKED: BRANCH  20  23
DOCKED: ATOM     23  C   UNL     1     139.942  69.814 224.678 -0.34 -0.01    +0.060 C  
DOCKED: BRANCH  23  24
DOCKED: ATOM     24  C   UNL     1     140.359  70.489 225.911 -0.52 +0.01    -0.046 A  
DOCKED: ATOM     25  C   UNL     1     141.076  71.664 225.965 -0.63 -0.00    +0.004 A  
DOCKED: ATOM     26  C   UNL     1     140.019  69.915 227.125 -0.57 -0.00    +0.004 A  
DOCKED: ATOM     27  C   UNL     1     141.451  72.262 227.156 -0.81 -0.00    +0.000 A  
DOCKED: ATOM     28  C   UNL     1     140.367  70.468 228.329 -0.59 -0.00    +0.000 A  
DOCKED: ATOM     29  C   UNL     1     141.079  71.636 228.326 -0.77 -0.00    +0.000 A  
DOCKED: ENDBRANCH  23  24
DOCKED: ENDBRANCH  20  23
DOCKED: BRANCH  21  30
DOCKED: ATOM     30  O   UNL     1     137.516  67.710 221.900 -0.07 +0.06    -0.391 OA 
DOCKED: ATOM     31  H   UNL     1     136.841  68.383 221.605 +0.04 -0.03    +0.211 HD 
DOCKED: ENDBRANCH  21  30
DOCKED: ENDBRANCH   1  18
DOCKED: TORSDOF 7
DOCKED: TER
DOCKED: ENDMDL
________________________________________________________________________________


    FINAL DOCKED STATE:
    ________________________


Run:   9 / 20
Time taken for this run:   0.041s

DOCKED: MODEL        9
DOCKED: USER    Run = 9
DOCKED: USER
DOCKED: USER    Estimated Free Energy of Binding    =  -8.86 kcal/mol  [=(1)+(2)+(3)-(4)]
DOCKED: USER
DOCKED: USER    (1) Final Intermolecular Energy     = -10.95 kcal/mol
DOCKED: USER        vdW + Hbond + desolv Energy     = -10.86 kcal/mol
DOCKED: USER        Electrostatic Energy            =  -0.09 kcal/mol
DOCKED: USER        Moving Ligand-Fixed Receptor    = -10.95 kcal/mol
DOCKED: USER        Moving Ligand-Moving Receptor   =  +0.00 kcal/mol
DOCKED: USER    (2) Final Total Internal Energy     =  -1.36 kcal/mol
DOCKED: USER    (3) Torsional Free Energy           =  +2.09 kcal/mol
DOCKED: USER    (4) Unbound System's Energy         =  -1.36 kcal/mol
DOCKED: USER
DOCKED: USER
DOCKED: REMARK SMILES O=C(NCC(=O)N1C[C@H](O)C[C@H]1Cc1ccccc1)c1ccc2ccccc2n1
DOCKED: REMARK SMILES IDX 5 1 6 2 4 3 3 4 2 5 1 6 20 8 21 9 29 10 22 11 28 12 23 13
DOCKED: REMARK SMILES IDX 27 14 24 15 26 16 25 17 7 18 8 19 12 20 9 21 11 22 13 23
DOCKED: REMARK SMILES IDX 14 24 15 25 19 26 16 27 18 28 17 29 10 30
DOCKED: REMARK H PARENT 3 7 10 31
DOCKED: USER                              x       y       z     vdW  Elec       q    Type
DOCKED: USER                           _______ _______ _______ _____ _____    ______ ____
DOCKED: ROOT
DOCKED: ATOM      1  C   UNL     1     140.697  74.156 220.212 -0.10 -0.05    +0.242 C  
DOCKED: ATOM      2  O   UNL     1     141.245  73.017 219.925 -0.06 +0.05    -0.273 OA 
DOCKED: ENDROOT
DOCKED: BRANCH   1   3
DOCKED: ATOM      3  C   UNL     1     139.531  74.071 221.073 -0.15 -0.04    +0.216 C  
DOCKED: BRANCH   3   4
DOCKED: ATOM      4  N   UNL     1     139.627  73.335 222.295 -0.14 +0.06    -0.342 N  
DOCKED: ATOM      5  C   UNL     1     139.781  71.899 222.338 -0.19 -0.05    +0.270 C  
DOCKED: ATOM      6  O   UNL     1     139.829  71.222 221.255 -0.09 +0.04    -0.268 OA 
DOCKED: ATOM      7  H   UNL     1     139.591  73.805 223.249 -0.48 -0.03    +0.164 HD 
DOCKED: BRANCH   5   8
DOCKED: ATOM      8  C   UNL     1     139.882  71.224 223.644 -0.32 -0.02    +0.128 A  
DOCKED: ATOM      9  C   UNL     1     139.451  69.917 223.738 -0.27 -0.01    +0.035 A  
DOCKED: ATOM     10  N   UNL     1     140.381  71.864 224.719 -0.27 +0.04    -0.243 NA 
DOCKED: ATOM     11  C   UNL     1     139.511  69.207 224.933 -0.39 -0.00    +0.013 A  
DOCKED: ATOM     12  C   UNL     1     140.444  71.189 225.878 -0.54 -0.01    +0.071 A  
DOCKED: ATOM     13  C   UNL     1     140.027  69.883 226.023 -0.50 -0.00    +0.000 A  
DOCKED: ATOM     14  C   UNL     1     140.971  71.897 226.964 -0.75 -0.01    +0.029 A  
DOCKED: ATOM     15  C   UNL     1     140.138  69.275 227.274 -0.59 -0.00    +0.010 A  
DOCKED: ATOM     16  C   UNL     1     141.084  71.305 228.207 -0.73 -0.00    +0.002 A  
DOCKED: ATOM     17  C   UNL     1     140.663  70.000 228.337 -0.57 -0.00    +0.001 A  
DOCKED: ENDBRANCH   5   8
DOCKED: ENDBRANCH   3   4
DOCKED: ENDBRANCH   1   3
DOCKED: BRANCH   1  18
DOCKED: ATOM     18  N   UNL     1     141.310  75.287 219.643 -0.04 +0.11    -0.335 N  
DOCKED: ATOM     19  C   UNL     1     141.426  75.803 218.315 -0.07 -0.06    +0.151 C  
DOCKED: ATOM     20  C   UNL     1     142.044  76.291 220.464 -0.18 -0.05    +0.092 C  
DOCKED: ATOM     21  C   UNL     1     142.749  76.509 218.254 -0.23 -0.08    +0.136 C  
DOCKED: ATOM     22  C   UNL     1     143.301  76.476 219.644 -0.34 -0.04    +0.059 C  
DOCKED: BRANCH  20  23
DOCKED: ATOM     23  C   UNL     1     141.271  77.569 220.457 -0.26 -0.03    +0.060 C  
DOCKED: BRANCH  23  24
DOCKED: ATOM     24  C   UNL     1     141.530  78.471 221.584 -0.36 +0.02    -0.046 A  
DOCKED: ATOM     25  C   UNL     1     141.429  78.124 222.914 -0.49 -0.00    +0.004 A  
DOCKED: ATOM     26  C   UNL     1     141.903  79.777 221.312 -0.39 -0.00    +0.004 A  
DOCKED: ATOM     27  C   UNL     1     141.680  79.013 223.945 -0.61 -0.00    +0.000 A  
DOCKED: ATOM     28  C   UNL     1     142.161  80.693 222.298 -0.54 -0.00    +0.000 A  
DOCKED: ATOM     29  C   UNL     1     142.046  80.296 223.602 -0.63 -0.00    +0.000 A  
DOCKED: ENDBRANCH  23  24
DOCKED: ENDBRANCH  20  23
DOCKED: BRANCH  21  30
DOCKED: ATOM     30  O   UNL     1     143.617  75.910 217.331 -0.13 +0.22    -0.391 OA 
DOCKED: ATOM     31  H   UNL     1     144.509  75.811 217.765 -0.44 -0.16    +0.211 HD 
DOCKED: ENDBRANCH  21  30
DOCKED: ENDBRANCH   1  18
DOCKED: TORSDOF 7
DOCKED: TER
DOCKED: ENDMDL
________________________________________________________________________________


    FINAL DOCKED STATE:
    ________________________


Run:   10 / 20
Time taken for this run:   0.041s

DOCKED: MODEL        10
DOCKED: USER    Run = 10
DOCKED: USER
DOCKED: USER    Estimated Free Energy of Binding    =  -7.67 kcal/mol  [=(1)+(2)+(3)-(4)]
DOCKED: USER
DOCKED: USER    (1) Final Intermolecular Energy     =  -9.75 kcal/mol
DOCKED: USER        vdW + Hbond + desolv Energy     =  -9.44 kcal/mol
DOCKED: USER        Electrostatic Energy            =  -0.31 kcal/mol
DOCKED: USER        Moving Ligand-Fixed Receptor    =  -9.75 kcal/mol
DOCKED: USER        Moving Ligand-Moving Receptor   =  +0.00 kcal/mol
DOCKED: USER    (2) Final Total Internal Energy     =  -2.96 kcal/mol
DOCKED: USER    (3) Torsional Free Energy           =  +2.09 kcal/mol
DOCKED: USER    (4) Unbound System's Energy         =  -2.96 kcal/mol
DOCKED: USER
DOCKED: USER
DOCKED: REMARK SMILES O=C(NCC(=O)N1C[C@H](O)C[C@H]1Cc1ccccc1)c1ccc2ccccc2n1
DOCKED: REMARK SMILES IDX 5 1 6 2 4 3 3 4 2 5 1 6 20 8 21 9 29 10 22 11 28 12 23 13
DOCKED: REMARK SMILES IDX 27 14 24 15 26 16 25 17 7 18 8 19 12 20 9 21 11 22 13 23
DOCKED: REMARK SMILES IDX 14 24 15 25 19 26 16 27 18 28 17 29 10 30
DOCKED: REMARK H PARENT 3 7 10 31
DOCKED: USER                              x       y       z     vdW  Elec       q    Type
DOCKED: USER                           _______ _______ _______ _____ _____    ______ ____
DOCKED: ROOT
DOCKED: ATOM      1  C   UNL     1     142.069  72.833 221.012 -0.13 -0.03    +0.242 C  
DOCKED: ATOM      2  O   UNL     1     142.051  71.620 221.468 -0.12 +0.02    -0.273 OA 
DOCKED: ENDROOT
DOCKED: BRANCH   1   3
DOCKED: ATOM      3  C   UNL     1     140.884  73.615 221.317 -0.20 -0.03    +0.216 C  
DOCKED: BRANCH   3   4
DOCKED: ATOM      4  N   UNL     1     141.042  74.971 221.742 -0.17 +0.05    -0.342 N  
DOCKED: ATOM      5  C   UNL     1     139.924  75.839 222.032 -0.22 -0.05    +0.270 C  
DOCKED: ATOM      6  O   UNL     1     138.725  75.413 221.904 -0.22 +0.06    -0.268 OA 
DOCKED: ATOM      7  H   UNL     1     141.997  75.421 221.873 -0.37 -0.07    +0.164 HD 
DOCKED: BRANCH   5   8
DOCKED: ATOM      8  C   UNL     1     140.181  77.221 222.475 -0.31 -0.03    +0.128 A  
DOCKED: ATOM      9  C   UNL     1     139.098  78.024 222.766 -0.29 -0.01    +0.035 A  
DOCKED: ATOM     10  N   UNL     1     141.437  77.689 222.593 -0.23 +0.12    -0.243 NA 
DOCKED: ATOM     11  C   UNL     1     139.252  79.340 223.191 -0.36 -0.00    +0.013 A  
DOCKED: ATOM     12  C   UNL     1     141.599  78.958 223.003 -0.51 -0.03    +0.071 A  
DOCKED: ATOM     13  C   UNL     1     140.551  79.800 223.306 -0.47 -0.00    +0.000 A  
DOCKED: ATOM     14  C   UNL     1     142.923  79.396 223.110 -0.50 -0.01    +0.029 A  
DOCKED: ATOM     15  C   UNL     1     140.831  81.101 223.723 -0.40 -0.00    +0.010 A  
DOCKED: ATOM     16  C   UNL     1     143.211  80.683 223.522 -0.61 -0.00    +0.002 A  
DOCKED: ATOM     17  C   UNL     1     142.154  81.513 223.821 -0.60 -0.00    +0.001 A  
DOCKED: ENDBRANCH   5   8
DOCKED: ENDBRANCH   3   4
DOCKED: ENDBRANCH   1   3
DOCKED: BRANCH   1  18
DOCKED: ATOM     18  N   UNL     1     143.223  73.196 220.295 -0.12 +0.06    -0.335 N  
DOCKED: ATOM     19  C   UNL     1     144.050  72.543 219.329 -0.18 -0.01    +0.151 C  
DOCKED: ATOM     20  C   UNL     1     143.862  74.534 220.441 -0.34 -0.04    +0.092 C  
DOCKED: ATOM     21  C   UNL     1     145.438  73.074 219.540 -0.35 +0.02    +0.136 C  
DOCKED: ATOM     22  C   UNL     1     145.319  74.148 220.573 -0.51 -0.02    +0.059 C  
DOCKED: BRANCH  20  23
DOCKED: ATOM     23  C   UNL     1     143.677  75.294 219.169 -0.30 -0.03    +0.060 C  
DOCKED: BRANCH  23  24
DOCKED: ATOM     24  C   UNL     1     142.479  76.137 219.103 -0.27 +0.02    -0.046 A  
DOCKED: ATOM     25  C   UNL     1     141.246  75.723 218.646 -0.10 -0.00    +0.004 A  
DOCKED: ATOM     26  C   UNL     1     142.574  77.452 219.525 -0.30 -0.00    +0.004 A  
DOCKED: ATOM     27  C   UNL     1     140.143  76.559 218.599 -0.06 -0.00    +0.000 A  
DOCKED: ATOM     28  C   UNL     1     141.511  78.316 219.497 -0.25 -0.00    +0.000 A  
DOCKED: ATOM     29  C   UNL     1     140.309  77.855 219.033 -0.10 -0.00    +0.000 A  
DOCKED: ENDBRANCH  23  24
DOCKED: ENDBRANCH  20  23
DOCKED: BRANCH  21  30
DOCKED: ATOM     30  O   UNL     1     146.328  72.065 219.932 -0.45 -0.28    -0.391 OA 
DOCKED: ATOM     31  H   UNL     1     146.115  71.814 220.873 -0.43 -0.04    +0.211 HD 
DOCKED: ENDBRANCH  21  30
DOCKED: ENDBRANCH   1  18
DOCKED: TORSDOF 7
DOCKED: TER
DOCKED: ENDMDL
________________________________________________________________________________


    FINAL DOCKED STATE:
    ________________________


Run:   11 / 20
Time taken for this run:   0.041s

DOCKED: MODEL        11
DOCKED: USER    Run = 11
DOCKED: USER
DOCKED: USER    Estimated Free Energy of Binding    =  -9.07 kcal/mol  [=(1)+(2)+(3)-(4)]
DOCKED: USER
DOCKED: USER    (1) Final Intermolecular Energy     = -11.16 kcal/mol
DOCKED: USER        vdW + Hbond + desolv Energy     = -11.13 kcal/mol
DOCKED: USER        Electrostatic Energy            =  -0.03 kcal/mol
DOCKED: USER        Moving Ligand-Fixed Receptor    = -11.16 kcal/mol
DOCKED: USER        Moving Ligand-Moving Receptor   =  +0.00 kcal/mol
DOCKED: USER    (2) Final Total Internal Energy     =  -1.23 kcal/mol
DOCKED: USER    (3) Torsional Free Energy           =  +2.09 kcal/mol
DOCKED: USER    (4) Unbound System's Energy         =  -1.23 kcal/mol
DOCKED: USER
DOCKED: USER
DOCKED: REMARK SMILES O=C(NCC(=O)N1C[C@H](O)C[C@H]1Cc1ccccc1)c1ccc2ccccc2n1
DOCKED: REMARK SMILES IDX 5 1 6 2 4 3 3 4 2 5 1 6 20 8 21 9 29 10 22 11 28 12 23 13
DOCKED: REMARK SMILES IDX 27 14 24 15 26 16 25 17 7 18 8 19 12 20 9 21 11 22 13 23
DOCKED: REMARK SMILES IDX 14 24 15 25 19 26 16 27 18 28 17 29 10 30
DOCKED: REMARK H PARENT 3 7 10 31
DOCKED: USER                              x       y       z     vdW  Elec       q    Type
DOCKED: USER                           _______ _______ _______ _____ _____    ______ ____
DOCKED: ROOT
DOCKED: ATOM      1  C   UNL     1     139.600  72.415 222.437 -0.19 -0.05    +0.242 C  
DOCKED: ATOM      2  O   UNL     1     140.822  72.742 222.720 -0.52 -0.00    -0.273 OA 
DOCKED: ENDROOT
DOCKED: BRANCH   1   3
DOCKED: ATOM      3  C   UNL     1     138.795  73.489 221.886 -0.13 -0.06    +0.216 C  
DOCKED: BRANCH   3   4
DOCKED: ATOM      4  N   UNL     1     139.022  74.826 222.339 -0.11 +0.08    -0.342 N  
DOCKED: ATOM      5  C   UNL     1     140.016  75.696 221.754 -0.23 -0.06    +0.270 C  
DOCKED: ATOM      6  O   UNL     1     140.751  75.282 220.793 -0.16 +0.07    -0.268 OA 
DOCKED: ATOM      7  H   UNL     1     138.467  75.261 223.136 -0.47 -0.07    +0.164 HD 
DOCKED: BRANCH   5   8
DOCKED: ATOM      8  C   UNL     1     140.174  77.064 222.278 -0.33 -0.03    +0.128 A  
DOCKED: ATOM      9  C   UNL     1     139.038  77.763 222.629 -0.29 -0.01    +0.035 A  
DOCKED: ATOM     10  N   UNL     1     141.393  77.619 222.412 -0.21 +0.12    -0.243 NA 
DOCKED: ATOM     11  C   UNL     1     139.098  79.059 223.132 -0.34 -0.00    +0.013 A  
DOCKED: ATOM     12  C   UNL     1     141.464  78.870 222.897 -0.49 -0.03    +0.071 A  
DOCKED: ATOM     13  C   UNL     1     140.360  79.609 223.261 -0.45 -0.00    +0.000 A  
DOCKED: ATOM     14  C   UNL     1     142.753  79.401 223.017 -0.55 -0.01    +0.029 A  
DOCKED: ATOM     15  C   UNL     1     140.547  80.901 223.754 -0.40 -0.00    +0.010 A  
DOCKED: ATOM     16  C   UNL     1     142.949  80.679 223.503 -0.66 -0.00    +0.002 A  
DOCKED: ATOM     17  C   UNL     1     141.836  81.407 223.864 -0.57 -0.00    +0.001 A  
DOCKED: ENDBRANCH   5   8
DOCKED: ENDBRANCH   3   4
DOCKED: ENDBRANCH   1   3
DOCKED: BRANCH   1  18
DOCKED: ATOM     18  N   UNL     1     139.248  71.081 222.710 -0.11 +0.07    -0.335 N  
DOCKED: ATOM     19  C   UNL     1     139.359  69.848 221.996 -0.12 -0.03    +0.151 C  
DOCKED: ATOM     20  C   UNL     1     138.611  70.673 223.995 -0.28 -0.02    +0.092 C  
DOCKED: ATOM     21  C   UNL     1     138.186  69.012 222.418 -0.15 -0.02    +0.136 C  
DOCKED: ATOM     22  C   UNL     1     137.495  69.783 223.497 -0.21 -0.01    +0.059 C  
DOCKED: BRANCH  20  23
DOCKED: ATOM     23  C   UNL     1     139.583  69.843 224.767 -0.36 -0.01    +0.060 C  
DOCKED: BRANCH  23  24
DOCKED: ATOM     24  C   UNL     1     140.130  70.470 225.975 -0.50 +0.01    -0.046 A  
DOCKED: ATOM     25  C   UNL     1     140.720  71.715 226.022 -0.59 -0.00    +0.004 A  
DOCKED: ATOM     26  C   UNL     1     140.062  69.772 227.169 -0.58 -0.00    +0.004 A  
DOCKED: ATOM     27  C   UNL     1     141.228  72.263 227.187 -0.81 -0.00    +0.000 A  
DOCKED: ATOM     28  C   UNL     1     140.550  70.272 228.347 -0.57 -0.00    +0.000 A  
DOCKED: ATOM     29  C   UNL     1     141.126  71.513 228.338 -0.75 -0.00    +0.000 A  
DOCKED: ENDBRANCH  23  24
DOCKED: ENDBRANCH  20  23
DOCKED: BRANCH  21  30
DOCKED: ATOM     30  O   UNL     1     137.331  68.733 221.343 -0.02 +0.07    -0.391 OA 
DOCKED: ATOM     31  H   UNL     1     137.410  69.478 220.684 +0.03 -0.04    +0.211 HD 
DOCKED: ENDBRANCH  21  30
DOCKED: ENDBRANCH   1  18
DOCKED: TORSDOF 7
DOCKED: TER
DOCKED: ENDMDL
________________________________________________________________________________


    FINAL DOCKED STATE:
    ________________________


Run:   12 / 20
Time taken for this run:   0.041s

DOCKED: MODEL        12
DOCKED: USER    Run = 12
DOCKED: USER
DOCKED: USER    Estimated Free Energy of Binding    =  -8.56 kcal/mol  [=(1)+(2)+(3)-(4)]
DOCKED: USER
DOCKED: USER    (1) Final Intermolecular Energy     = -10.65 kcal/mol
DOCKED: USER        vdW + Hbond + desolv Energy     = -10.60 kcal/mol
DOCKED: USER        Electrostatic Energy            =  -0.05 kcal/mol
DOCKED: USER        Moving Ligand-Fixed Receptor    = -10.65 kcal/mol
DOCKED: USER        Moving Ligand-Moving Receptor   =  +0.00 kcal/mol
DOCKED: USER    (2) Final Total Internal Energy     =  -1.70 kcal/mol
DOCKED: USER    (3) Torsional Free Energy           =  +2.09 kcal/mol
DOCKED: USER    (4) Unbound System's Energy         =  -1.70 kcal/mol
DOCKED: USER
DOCKED: USER
DOCKED: REMARK SMILES O=C(NCC(=O)N1C[C@H](O)C[C@H]1Cc1ccccc1)c1ccc2ccccc2n1
DOCKED: REMARK SMILES IDX 5 1 6 2 4 3 3 4 2 5 1 6 20 8 21 9 29 10 22 11 28 12 23 13
DOCKED: REMARK SMILES IDX 27 14 24 15 26 16 25 17 7 18 8 19 12 20 9 21 11 22 13 23
DOCKED: REMARK SMILES IDX 14 24 15 25 19 26 16 27 18 28 17 29 10 30
DOCKED: REMARK H PARENT 3 7 10 31
DOCKED: USER                              x       y       z     vdW  Elec       q    Type
DOCKED: USER                           _______ _______ _______ _____ _____    ______ ____
DOCKED: ROOT
DOCKED: ATOM      1  C   UNL     1     140.111  75.061 221.211 -0.20 -0.05    +0.242 C  
DOCKED: ATOM      2  O   UNL     1     139.974  75.633 222.365 -0.54 +0.04    -0.273 OA 
DOCKED: ENDROOT
DOCKED: BRANCH   1   3
DOCKED: ATOM      3  C   UNL     1     139.703  73.668 221.170 -0.16 -0.04    +0.216 C  
DOCKED: BRANCH   3   4
DOCKED: ATOM      4  N   UNL     1     139.721  72.906 222.380 -0.16 +0.06    -0.342 N  
DOCKED: ATOM      5  C   UNL     1     139.773  71.462 222.399 -0.18 -0.05    +0.270 C  
DOCKED: ATOM      6  O   UNL     1     139.795  70.803 221.304 -0.09 +0.04    -0.268 OA 
DOCKED: ATOM      7  H   UNL     1     139.699  73.361 223.342 -0.41 -0.03    +0.164 HD 
DOCKED: BRANCH   5   8
DOCKED: ATOM      8  C   UNL     1     139.799  70.760 223.694 -0.29 -0.02    +0.128 A  
DOCKED: ATOM      9  C   UNL     1     139.287  69.481 223.752 -0.26 -0.01    +0.035 A  
DOCKED: ATOM     10  N   UNL     1     140.307  71.349 224.793 -0.31 +0.04    -0.243 NA 
DOCKED: ATOM     11  C   UNL     1     139.273  68.747 224.934 -0.40 -0.00    +0.013 A  
DOCKED: ATOM     12  C   UNL     1     140.300  70.651 225.940 -0.51 -0.01    +0.071 A  
DOCKED: ATOM     13  C   UNL     1     139.801  69.371 226.050 -0.49 -0.00    +0.000 A  
DOCKED: ATOM     14  C   UNL     1     140.840  71.307 227.052 -0.70 -0.00    +0.029 A  
DOCKED: ATOM     15  C   UNL     1     139.842  68.736 227.292 -0.61 -0.00    +0.010 A  
DOCKED: ATOM     16  C   UNL     1     140.885  70.687 228.286 -0.61 -0.00    +0.002 A  
DOCKED: ATOM     17  C   UNL     1     140.382  69.408 228.381 -0.61 -0.00    +0.001 A  
DOCKED: ENDBRANCH   5   8
DOCKED: ENDBRANCH   3   4
DOCKED: ENDBRANCH   1   3
DOCKED: BRANCH   1  18
DOCKED: ATOM     18  N   UNL     1     140.634  75.871 220.187 -0.05 +0.11    -0.335 N  
DOCKED: ATOM     19  C   UNL     1     140.250  76.158 218.841 -0.04 -0.05    +0.151 C  
DOCKED: ATOM     20  C   UNL     1     141.861  76.696 220.374 -0.24 -0.05    +0.092 C  
DOCKED: ATOM     21  C   UNL     1     141.522  76.412 218.087 -0.09 -0.06    +0.136 C  
DOCKED: ATOM     22  C   UNL     1     142.619  76.384 219.103 -0.30 -0.03    +0.059 C  
DOCKED: BRANCH  20  23
DOCKED: ATOM     23  C   UNL     1     141.472  78.138 220.363 -0.27 -0.03    +0.060 C  
DOCKED: BRANCH  23  24
DOCKED: ATOM     24  C   UNL     1     141.694  78.863 221.618 -0.38 +0.02    -0.046 A  
DOCKED: ATOM     25  C   UNL     1     141.437  78.362 222.876 -0.52 -0.00    +0.004 A  
DOCKED: ATOM     26  C   UNL     1     142.196  80.152 221.556 -0.45 -0.00    +0.004 A  
DOCKED: ATOM     27  C   UNL     1     141.658  79.088 224.034 -0.59 -0.00    +0.000 A  
DOCKED: ATOM     28  C   UNL     1     142.432  80.909 222.673 -0.56 -0.00    +0.000 A  
DOCKED: ATOM     29  C   UNL     1     142.159  80.364 223.898 -0.62 -0.00    +0.000 A  
DOCKED: ENDBRANCH  23  24
DOCKED: ENDBRANCH  20  23
DOCKED: BRANCH  21  30
DOCKED: ATOM     30  O   UNL     1     141.724  75.467 217.071 -0.01 +0.14    -0.391 OA 
DOCKED: ATOM     31  H   UNL     1     141.207  74.647 217.305 +0.03 -0.06    +0.211 HD 
DOCKED: ENDBRANCH  21  30
DOCKED: ENDBRANCH   1  18
DOCKED: TORSDOF 7
DOCKED: TER
DOCKED: ENDMDL
________________________________________________________________________________


    FINAL DOCKED STATE:
    ________________________


Run:   13 / 20
Time taken for this run:   0.041s

DOCKED: MODEL        13
DOCKED: USER    Run = 13
DOCKED: USER
DOCKED: USER    Estimated Free Energy of Binding    =  -8.22 kcal/mol  [=(1)+(2)+(3)-(4)]
DOCKED: USER
DOCKED: USER    (1) Final Intermolecular Energy     = -10.31 kcal/mol
DOCKED: USER        vdW + Hbond + desolv Energy     = -10.23 kcal/mol
DOCKED: USER        Electrostatic Energy            =  -0.08 kcal/mol
DOCKED: USER        Moving Ligand-Fixed Receptor    = -10.31 kcal/mol
DOCKED: USER        Moving Ligand-Moving Receptor   =  +0.00 kcal/mol
DOCKED: USER    (2) Final Total Internal Energy     =  -1.83 kcal/mol
DOCKED: USER    (3) Torsional Free Energy           =  +2.09 kcal/mol
DOCKED: USER    (4) Unbound System's Energy         =  -1.83 kcal/mol
DOCKED: USER
DOCKED: USER
DOCKED: REMARK SMILES O=C(NCC(=O)N1C[C@H](O)C[C@H]1Cc1ccccc1)c1ccc2ccccc2n1
DOCKED: REMARK SMILES IDX 5 1 6 2 4 3 3 4 2 5 1 6 20 8 21 9 29 10 22 11 28 12 23 13
DOCKED: REMARK SMILES IDX 27 14 24 15 26 16 25 17 7 18 8 19 12 20 9 21 11 22 13 23
DOCKED: REMARK SMILES IDX 14 24 15 25 19 26 16 27 18 28 17 29 10 30
DOCKED: REMARK H PARENT 3 7 10 31
DOCKED: USER                              x       y       z     vdW  Elec       q    Type
DOCKED: USER                           _______ _______ _______ _____ _____    ______ ____
DOCKED: ROOT
DOCKED: ATOM      1  C   UNL     1     140.334  75.746 221.325 -0.22 -0.06    +0.242 C  
DOCKED: ATOM      2  O   UNL     1     139.604  76.304 222.237 -0.29 +0.06    -0.273 OA 
DOCKED: ENDROOT
DOCKED: BRANCH   1   3
DOCKED: ATOM      3  C   UNL     1     140.129  74.317 221.170 -0.19 -0.04    +0.216 C  
DOCKED: BRANCH   3   4
DOCKED: ATOM      4  N   UNL     1     139.975  73.509 222.340 -0.12 +0.03    -0.342 N  
DOCKED: ATOM      5  C   UNL     1     140.425  72.138 222.413 -0.21 -0.03    +0.270 C  
DOCKED: ATOM      6  O   UNL     1     140.981  71.586 221.402 -0.14 +0.03    -0.268 OA 
DOCKED: ATOM      7  H   UNL     1     139.520  73.874 223.229 -0.49 -0.04    +0.164 HD 
DOCKED: BRANCH   5   8
DOCKED: ATOM      8  C   UNL     1     140.235  71.384 223.664 -0.33 -0.02    +0.128 A  
DOCKED: ATOM      9  C   UNL     1     139.605  70.159 223.597 -0.28 -0.01    +0.035 A  
DOCKED: ATOM     10  N   UNL     1     140.662  71.875 224.842 -0.28 +0.03    -0.243 NA 
DOCKED: ATOM     11  C   UNL     1     139.386  69.382 224.731 -0.37 -0.00    +0.013 A  
DOCKED: ATOM     12  C   UNL     1     140.456  71.135 225.944 -0.54 -0.01    +0.071 A  
DOCKED: ATOM     13  C   UNL     1     139.833  69.906 225.930 -0.48 -0.00    +0.000 A  
DOCKED: ATOM     14  C   UNL     1     140.920  71.689 227.142 -0.75 -0.01    +0.029 A  
DOCKED: ATOM     15  C   UNL     1     139.671  69.219 227.133 -0.56 -0.00    +0.010 A  
DOCKED: ATOM     16  C   UNL     1     140.763  71.017 228.339 -0.65 -0.00    +0.002 A  
DOCKED: ATOM     17  C   UNL     1     140.138  69.790 228.310 -0.61 -0.00    +0.001 A  
DOCKED: ENDBRANCH   5   8
DOCKED: ENDBRANCH   3   4
DOCKED: ENDBRANCH   1   3
DOCKED: BRANCH   1  18
DOCKED: ATOM     18  N   UNL     1     141.210  76.604 220.636 -0.11 +0.15    -0.335 N  
DOCKED: ATOM     19  C   UNL     1     141.658  77.948 220.832 -0.25 -0.09    +0.151 C  
DOCKED: ATOM     20  C   UNL     1     141.932  76.182 219.403 -0.21 -0.04    +0.092 C  
DOCKED: ATOM     21  C   UNL     1     141.906  78.511 219.463 -0.21 -0.09    +0.136 C  
DOCKED: ATOM     22  C   UNL     1     141.704  77.379 218.507 -0.19 -0.03    +0.059 C  
DOCKED: BRANCH  20  23
DOCKED: ATOM     23  C   UNL     1     143.390  76.083 219.713 -0.37 -0.04    +0.060 C  
DOCKED: BRANCH  23  24
DOCKED: ATOM     24  C   UNL     1     143.891  74.728 219.967 -0.40 +0.02    -0.046 A  
DOCKED: ATOM     25  C   UNL     1     143.192  73.567 219.718 -0.26 -0.00    +0.004 A  
DOCKED: ATOM     26  C   UNL     1     145.161  74.584 220.501 -0.43 -0.00    +0.004 A  
DOCKED: ATOM     27  C   UNL     1     143.707  72.309 219.979 -0.28 -0.00    +0.000 A  
DOCKED: ATOM     28  C   UNL     1     145.713  73.360 220.776 -0.66 -0.00    +0.000 A  
DOCKED: ATOM     29  C   UNL     1     144.976  72.239 220.510 -0.36 -0.00    +0.000 A  
DOCKED: ENDBRANCH  23  24
DOCKED: ENDBRANCH  20  23
DOCKED: BRANCH  21  30
DOCKED: ATOM     30  O   UNL     1     141.058  79.592 219.183 -0.07 +0.18    -0.391 OA 
DOCKED: ATOM     31  H   UNL     1     140.330  79.598 219.864 +0.07 -0.07    +0.211 HD 
DOCKED: ENDBRANCH  21  30
DOCKED: ENDBRANCH   1  18
DOCKED: TORSDOF 7
DOCKED: TER
DOCKED: ENDMDL
________________________________________________________________________________


    FINAL DOCKED STATE:
    ________________________


Run:   14 / 20
Time taken for this run:   0.041s

DOCKED: MODEL        14
DOCKED: USER    Run = 14
DOCKED: USER
DOCKED: USER    Estimated Free Energy of Binding    =  -8.81 kcal/mol  [=(1)+(2)+(3)-(4)]
DOCKED: USER
DOCKED: USER    (1) Final Intermolecular Energy     = -10.90 kcal/mol
DOCKED: USER        vdW + Hbond + desolv Energy     = -10.79 kcal/mol
DOCKED: USER        Electrostatic Energy            =  -0.10 kcal/mol
DOCKED: USER        Moving Ligand-Fixed Receptor    = -10.90 kcal/mol
DOCKED: USER        Moving Ligand-Moving Receptor   =  +0.00 kcal/mol
DOCKED: USER    (2) Final Total Internal Energy     =  -1.38 kcal/mol
DOCKED: USER    (3) Torsional Free Energy           =  +2.09 kcal/mol
DOCKED: USER    (4) Unbound System's Energy         =  -1.38 kcal/mol
DOCKED: USER
DOCKED: USER
DOCKED: REMARK SMILES O=C(NCC(=O)N1C[C@H](O)C[C@H]1Cc1ccccc1)c1ccc2ccccc2n1
DOCKED: REMARK SMILES IDX 5 1 6 2 4 3 3 4 2 5 1 6 20 8 21 9 29 10 22 11 28 12 23 13
DOCKED: REMARK SMILES IDX 27 14 24 15 26 16 25 17 7 18 8 19 12 20 9 21 11 22 13 23
DOCKED: REMARK SMILES IDX 14 24 15 25 19 26 16 27 18 28 17 29 10 30
DOCKED: REMARK H PARENT 3 7 10 31
DOCKED: USER                              x       y       z     vdW  Elec       q    Type
DOCKED: USER                           _______ _______ _______ _____ _____    ______ ____
DOCKED: ROOT
DOCKED: ATOM      1  C   UNL     1     140.362  75.516 221.150 -0.20 -0.06    +0.242 C  
DOCKED: ATOM      2  O   UNL     1     140.324  76.053 222.328 -0.43 +0.05    -0.273 OA 
DOCKED: ENDROOT
DOCKED: BRANCH   1   3
DOCKED: ATOM      3  C   UNL     1     139.779  74.189 221.065 -0.16 -0.04    +0.216 C  
DOCKED: BRANCH   3   4
DOCKED: ATOM      4  N   UNL     1     139.682  73.400 222.254 -0.14 +0.05    -0.342 N  
DOCKED: ATOM      5  C   UNL     1     140.347  72.126 222.408 -0.21 -0.03    +0.270 C  
DOCKED: ATOM      6  O   UNL     1     141.053  71.647 221.456 -0.15 +0.03    -0.268 OA 
DOCKED: ATOM      7  H   UNL     1     139.114  73.708 223.099 -0.52 -0.08    +0.164 HD 
DOCKED: BRANCH   5   8
DOCKED: ATOM      8  C   UNL     1     140.200  71.385 223.673 -0.33 -0.02    +0.128 A  
DOCKED: ATOM      9  C   UNL     1     139.567  70.160 223.641 -0.28 -0.01    +0.035 A  
DOCKED: ATOM     10  N   UNL     1     140.669  71.889 224.830 -0.27 +0.03    -0.243 NA 
DOCKED: ATOM     11  C   UNL     1     139.386  69.396 224.790 -0.37 -0.00    +0.013 A  
DOCKED: ATOM     12  C   UNL     1     140.501  71.160 225.946 -0.55 -0.01    +0.071 A  
DOCKED: ATOM     13  C   UNL     1     139.876  69.932 225.967 -0.49 -0.00    +0.000 A  
DOCKED: ATOM     14  C   UNL     1     141.007  71.726 227.121 -0.76 -0.01    +0.029 A  
DOCKED: ATOM     15  C   UNL     1     139.755  69.258 227.183 -0.57 -0.00    +0.010 A  
DOCKED: ATOM     16  C   UNL     1     140.891  71.068 228.330 -0.66 -0.00    +0.002 A  
DOCKED: ATOM     17  C   UNL     1     140.264  69.841 228.336 -0.60 -0.00    +0.001 A  
DOCKED: ENDBRANCH   5   8
DOCKED: ENDBRANCH   3   4
DOCKED: ENDBRANCH   1   3
DOCKED: BRANCH   1  18
DOCKED: ATOM     18  N   UNL     1     140.962  76.296 220.144 -0.06 +0.12    -0.335 N  
DOCKED: ATOM     19  C   UNL     1     140.684  76.539 218.764 -0.06 -0.05    +0.151 C  
DOCKED: ATOM     20  C   UNL     1     142.168  77.133 220.400 -0.18 -0.06    +0.092 C  
DOCKED: ATOM     21  C   UNL     1     142.011  76.775 218.104 -0.16 -0.07    +0.136 C  
DOCKED: ATOM     22  C   UNL     1     143.024  76.784 219.203 -0.34 -0.04    +0.059 C  
DOCKED: BRANCH  20  23
DOCKED: ATOM     23  C   UNL     1     141.779  78.572 220.313 -0.26 -0.04    +0.060 C  
DOCKED: BRANCH  23  24
DOCKED: ATOM     24  C   UNL     1     141.829  79.319 221.573 -0.40 +0.02    -0.046 A  
DOCKED: ATOM     25  C   UNL     1     141.828  78.751 222.829 -0.53 -0.00    +0.004 A  
DOCKED: ATOM     26  C   UNL     1     141.878  80.702 221.519 -0.43 -0.00    +0.004 A  
DOCKED: ATOM     27  C   UNL     1     141.872  79.500 223.993 -0.58 -0.00    +0.000 A  
DOCKED: ATOM     28  C   UNL     1     141.923  81.485 222.643 -0.48 -0.00    +0.000 A  
DOCKED: ATOM     29  C   UNL     1     141.919  80.870 223.865 -0.60 -0.00    +0.000 A  
DOCKED: ENDBRANCH  23  24
DOCKED: ENDBRANCH  20  23
DOCKED: BRANCH  21  30
DOCKED: ATOM     30  O   UNL     1     142.294  75.799 217.138 -0.03 +0.17    -0.391 OA 
DOCKED: ATOM     31  H   UNL     1     141.746  74.991 217.346 +0.04 -0.07    +0.211 HD 
DOCKED: ENDBRANCH  21  30
DOCKED: ENDBRANCH   1  18
DOCKED: TORSDOF 7
DOCKED: TER
DOCKED: ENDMDL
________________________________________________________________________________


    FINAL DOCKED STATE:
    ________________________


Run:   15 / 20
Time taken for this run:   0.041s

DOCKED: MODEL        15
DOCKED: USER    Run = 15
DOCKED: USER
DOCKED: USER    Estimated Free Energy of Binding    =  -8.18 kcal/mol  [=(1)+(2)+(3)-(4)]
DOCKED: USER
DOCKED: USER    (1) Final Intermolecular Energy     = -10.27 kcal/mol
DOCKED: USER        vdW + Hbond + desolv Energy     = -10.02 kcal/mol
DOCKED: USER        Electrostatic Energy            =  -0.25 kcal/mol
DOCKED: USER        Moving Ligand-Fixed Receptor    = -10.27 kcal/mol
DOCKED: USER        Moving Ligand-Moving Receptor   =  +0.00 kcal/mol
DOCKED: USER    (2) Final Total Internal Energy     =  -2.46 kcal/mol
DOCKED: USER    (3) Torsional Free Energy           =  +2.09 kcal/mol
DOCKED: USER    (4) Unbound System's Energy         =  -2.46 kcal/mol
DOCKED: USER
DOCKED: USER
DOCKED: REMARK SMILES O=C(NCC(=O)N1C[C@H](O)C[C@H]1Cc1ccccc1)c1ccc2ccccc2n1
DOCKED: REMARK SMILES IDX 5 1 6 2 4 3 3 4 2 5 1 6 20 8 21 9 29 10 22 11 28 12 23 13
DOCKED: REMARK SMILES IDX 27 14 24 15 26 16 25 17 7 18 8 19 12 20 9 21 11 22 13 23
DOCKED: REMARK SMILES IDX 14 24 15 25 19 26 16 27 18 28 17 29 10 30
DOCKED: REMARK H PARENT 3 7 10 31
DOCKED: USER                              x       y       z     vdW  Elec       q    Type
DOCKED: USER                           _______ _______ _______ _____ _____    ______ ____
DOCKED: ROOT
DOCKED: ATOM      1  C   UNL     1     141.971  72.949 221.083 -0.13 -0.03    +0.242 C  
DOCKED: ATOM      2  O   UNL     1     141.950  71.750 221.575 -0.14 +0.02    -0.273 OA 
DOCKED: ENDROOT
DOCKED: BRANCH   1   3
DOCKED: ATOM      3  C   UNL     1     140.801  73.752 221.387 -0.21 -0.03    +0.216 C  
DOCKED: BRANCH   3   4
DOCKED: ATOM      4  N   UNL     1     140.983  75.106 221.809 -0.17 +0.06    -0.342 N  
DOCKED: ATOM      5  C   UNL     1     139.880  76.004 222.068 -0.23 -0.05    +0.270 C  
DOCKED: ATOM      6  O   UNL     1     138.675  75.607 221.913 -0.21 +0.06    -0.268 OA 
DOCKED: ATOM      7  H   UNL     1     141.946  75.533 221.960 -0.40 -0.08    +0.164 HD 
DOCKED: BRANCH   5   8
DOCKED: ATOM      8  C   UNL     1     140.161  77.381 222.510 -0.30 -0.03    +0.128 A  
DOCKED: ATOM      9  C   UNL     1     139.092  78.207 222.788 -0.29 -0.01    +0.035 A  
DOCKED: ATOM     10  N   UNL     1     141.426  77.823 222.640 -0.26 +0.11    -0.243 NA 
DOCKED: ATOM     11  C   UNL     1     139.269  79.521 223.211 -0.37 -0.00    +0.013 A  
DOCKED: ATOM     12  C   UNL     1     141.609  79.090 223.048 -0.51 -0.02    +0.071 A  
DOCKED: ATOM     13  C   UNL     1     140.576  79.954 223.338 -0.47 -0.00    +0.000 A  
DOCKED: ATOM     14  C   UNL     1     142.941  79.501 223.167 -0.50 -0.01    +0.029 A  
DOCKED: ATOM     15  C   UNL     1     140.878  81.251 223.754 -0.37 -0.00    +0.010 A  
DOCKED: ATOM     16  C   UNL     1     143.252  80.783 223.578 -0.57 -0.00    +0.002 A  
DOCKED: ATOM     17  C   UNL     1     142.209  81.636 223.865 -0.58 -0.00    +0.001 A  
DOCKED: ENDBRANCH   5   8
DOCKED: ENDBRANCH   3   4
DOCKED: ENDBRANCH   1   3
DOCKED: BRANCH   1  18
DOCKED: ATOM     18  N   UNL     1     143.114  73.279 220.333 -0.12 +0.07    -0.335 N  
DOCKED: ATOM     19  C   UNL     1     144.036  72.537 219.531 -0.20 -0.01    +0.151 C  
DOCKED: ATOM     20  C   UNL     1     143.622  74.676 220.230 -0.33 -0.04    +0.092 C  
DOCKED: ATOM     21  C   UNL     1     145.360  73.232 219.663 -0.37 +0.01    +0.136 C  
DOCKED: ATOM     22  C   UNL     1     145.101  74.467 220.465 -0.40 -0.02    +0.059 C  
DOCKED: BRANCH  20  23
DOCKED: ATOM     23  C   UNL     1     143.419  75.156 218.830 -0.26 -0.03    +0.060 C  
DOCKED: BRANCH  23  24
DOCKED: ATOM     24  C   UNL     1     142.949  76.539 218.696 -0.31 +0.03    -0.046 A  
DOCKED: ATOM     25  C   UNL     1     143.030  77.293 217.546 -0.28 -0.00    +0.004 A  
DOCKED: ATOM     26  C   UNL     1     142.380  77.152 219.800 -0.33 -0.00    +0.004 A  
DOCKED: ATOM     27  C   UNL     1     142.575  78.598 217.469 -0.30 -0.00    +0.000 A  
DOCKED: ATOM     28  C   UNL     1     141.916  78.441 219.773 -0.27 -0.00    +0.000 A  
DOCKED: ATOM     29  C   UNL     1     142.021  79.146 218.606 -0.29 -0.00    +0.000 A  
DOCKED: ENDBRANCH  23  24
DOCKED: ENDBRANCH  20  23
DOCKED: BRANCH  21  30
DOCKED: ATOM     30  O   UNL     1     146.323  72.409 220.263 -0.41 -0.17    -0.391 OA 
DOCKED: ATOM     31  H   UNL     1     145.881  71.904 221.000 -0.43 -0.07    +0.211 HD 
DOCKED: ENDBRANCH  21  30
DOCKED: ENDBRANCH   1  18
DOCKED: TORSDOF 7
DOCKED: TER
DOCKED: ENDMDL
________________________________________________________________________________


    FINAL DOCKED STATE:
    ________________________


Run:   16 / 20
Time taken for this run:   0.041s

DOCKED: MODEL        16
DOCKED: USER    Run = 16
DOCKED: USER
DOCKED: USER    Estimated Free Energy of Binding    =  -8.25 kcal/mol  [=(1)+(2)+(3)-(4)]
DOCKED: USER
DOCKED: USER    (1) Final Intermolecular Energy     = -10.33 kcal/mol
DOCKED: USER        vdW + Hbond + desolv Energy     = -10.06 kcal/mol
DOCKED: USER        Electrostatic Energy            =  -0.28 kcal/mol
DOCKED: USER        Moving Ligand-Fixed Receptor    = -10.33 kcal/mol
DOCKED: USER        Moving Ligand-Moving Receptor   =  +0.00 kcal/mol
DOCKED: USER    (2) Final Total Internal Energy     =  -2.45 kcal/mol
DOCKED: USER    (3) Torsional Free Energy           =  +2.09 kcal/mol
DOCKED: USER    (4) Unbound System's Energy         =  -2.45 kcal/mol
DOCKED: USER
DOCKED: USER
DOCKED: REMARK SMILES O=C(NCC(=O)N1C[C@H](O)C[C@H]1Cc1ccccc1)c1ccc2ccccc2n1
DOCKED: REMARK SMILES IDX 5 1 6 2 4 3 3 4 2 5 1 6 20 8 21 9 29 10 22 11 28 12 23 13
DOCKED: REMARK SMILES IDX 27 14 24 15 26 16 25 17 7 18 8 19 12 20 9 21 11 22 13 23
DOCKED: REMARK SMILES IDX 14 24 15 25 19 26 16 27 18 28 17 29 10 30
DOCKED: REMARK H PARENT 3 7 10 31
DOCKED: USER                              x       y       z     vdW  Elec       q    Type
DOCKED: USER                           _______ _______ _______ _____ _____    ______ ____
DOCKED: ROOT
DOCKED: ATOM      1  C   UNL     1     142.003  72.975 221.056 -0.13 -0.03    +0.242 C  
DOCKED: ATOM      2  O   UNL     1     141.979  71.798 221.597 -0.14 +0.02    -0.273 OA 
DOCKED: ENDROOT
DOCKED: BRANCH   1   3
DOCKED: ATOM      3  C   UNL     1     140.829  73.789 221.315 -0.21 -0.03    +0.216 C  
DOCKED: BRANCH   3   4
DOCKED: ATOM      4  N   UNL     1     141.005  75.139 221.752 -0.18 +0.06    -0.342 N  
DOCKED: ATOM      5  C   UNL     1     139.899  76.024 222.035 -0.24 -0.06    +0.270 C  
DOCKED: ATOM      6  O   UNL     1     138.695  75.620 221.891 -0.20 +0.06    -0.268 OA 
DOCKED: ATOM      7  H   UNL     1     141.967  75.571 221.896 -0.41 -0.08    +0.164 HD 
DOCKED: BRANCH   5   8
DOCKED: ATOM      8  C   UNL     1     140.175  77.398 222.491 -0.31 -0.03    +0.128 A  
DOCKED: ATOM      9  C   UNL     1     139.103  78.215 222.785 -0.30 -0.01    +0.035 A  
DOCKED: ATOM     10  N   UNL     1     141.438  77.846 222.617 -0.26 +0.11    -0.243 NA 
DOCKED: ATOM     11  C   UNL     1     139.275  79.525 223.221 -0.37 -0.00    +0.013 A  
DOCKED: ATOM     12  C   UNL     1     141.617  79.110 223.037 -0.51 -0.02    +0.071 A  
DOCKED: ATOM     13  C   UNL     1     140.581  79.965 223.344 -0.47 -0.00    +0.000 A  
DOCKED: ATOM     14  C   UNL     1     142.948  79.527 223.152 -0.51 -0.01    +0.029 A  
DOCKED: ATOM     15  C   UNL     1     140.879  81.258 223.773 -0.36 -0.00    +0.010 A  
DOCKED: ATOM     16  C   UNL     1     143.253  80.806 223.575 -0.56 -0.00    +0.002 A  
DOCKED: ATOM     17  C   UNL     1     142.208  81.650 223.878 -0.57 -0.00    +0.001 A  
DOCKED: ENDBRANCH   5   8
DOCKED: ENDBRANCH   3   4
DOCKED: ENDBRANCH   1   3
DOCKED: BRANCH   1  18
DOCKED: ATOM     18  N   UNL     1     143.152  73.276 220.303 -0.12 +0.07    -0.335 N  
DOCKED: ATOM     19  C   UNL     1     144.027  72.519 219.463 -0.20 -0.01    +0.151 C  
DOCKED: ATOM     20  C   UNL     1     143.727  74.650 220.243 -0.34 -0.04    +0.092 C  
DOCKED: ATOM     21  C   UNL     1     145.385  73.144 219.602 -0.36 +0.02    +0.136 C  
DOCKED: ATOM     22  C   UNL     1     145.197  74.360 220.451 -0.41 -0.02    +0.059 C  
DOCKED: BRANCH  20  23
DOCKED: ATOM     23  C   UNL     1     143.532  75.189 218.864 -0.26 -0.03    +0.060 C  
DOCKED: BRANCH  23  24
DOCKED: ATOM     24  C   UNL     1     142.982  76.546 218.787 -0.32 +0.03    -0.046 A  
DOCKED: ATOM     25  C   UNL     1     142.398  77.223 219.836 -0.32 -0.00    +0.004 A  
DOCKED: ATOM     26  C   UNL     1     143.041  77.215 217.576 -0.28 -0.00    +0.004 A  
DOCKED: ATOM     27  C   UNL     1     141.888  78.504 219.714 -0.28 -0.00    +0.000 A  
DOCKED: ATOM     28  C   UNL     1     142.550  78.482 217.405 -0.29 -0.00    +0.000 A  
DOCKED: ATOM     29  C   UNL     1     141.980  79.109 218.479 -0.28 -0.00    +0.000 A  
DOCKED: ENDBRANCH  23  24
DOCKED: ENDBRANCH  20  23
DOCKED: BRANCH  21  30
DOCKED: ATOM     30  O   UNL     1     146.313  72.254 220.160 -0.43 -0.20    -0.391 OA 
DOCKED: ATOM     31  H   UNL     1     145.929  71.898 221.009 -0.43 -0.07    +0.211 HD 
DOCKED: ENDBRANCH  21  30
DOCKED: ENDBRANCH   1  18
DOCKED: TORSDOF 7
DOCKED: TER
DOCKED: ENDMDL
________________________________________________________________________________


    FINAL DOCKED STATE:
    ________________________


Run:   17 / 20
Time taken for this run:   0.041s

DOCKED: MODEL        17
DOCKED: USER    Run = 17
DOCKED: USER
DOCKED: USER    Estimated Free Energy of Binding    =  -8.19 kcal/mol  [=(1)+(2)+(3)-(4)]
DOCKED: USER
DOCKED: USER    (1) Final Intermolecular Energy     = -10.27 kcal/mol
DOCKED: USER        vdW + Hbond + desolv Energy     = -10.02 kcal/mol
DOCKED: USER        Electrostatic Energy            =  -0.26 kcal/mol
DOCKED: USER        Moving Ligand-Fixed Receptor    = -10.27 kcal/mol
DOCKED: USER        Moving Ligand-Moving Receptor   =  +0.00 kcal/mol
DOCKED: USER    (2) Final Total Internal Energy     =  -2.44 kcal/mol
DOCKED: USER    (3) Torsional Free Energy           =  +2.09 kcal/mol
DOCKED: USER    (4) Unbound System's Energy         =  -2.44 kcal/mol
DOCKED: USER
DOCKED: USER
DOCKED: REMARK SMILES O=C(NCC(=O)N1C[C@H](O)C[C@H]1Cc1ccccc1)c1ccc2ccccc2n1
DOCKED: REMARK SMILES IDX 5 1 6 2 4 3 3 4 2 5 1 6 20 8 21 9 29 10 22 11 28 12 23 13
DOCKED: REMARK SMILES IDX 27 14 24 15 26 16 25 17 7 18 8 19 12 20 9 21 11 22 13 23
DOCKED: REMARK SMILES IDX 14 24 15 25 19 26 16 27 18 28 17 29 10 30
DOCKED: REMARK H PARENT 3 7 10 31
DOCKED: USER                              x       y       z     vdW  Elec       q    Type
DOCKED: USER                           _______ _______ _______ _____ _____    ______ ____
DOCKED: ROOT
DOCKED: ATOM      1  C   UNL     1     141.976  72.946 221.004 -0.14 -0.03    +0.242 C  
DOCKED: ATOM      2  O   UNL     1     141.923  71.761 221.525 -0.15 +0.02    -0.273 OA 
DOCKED: ENDROOT
DOCKED: BRANCH   1   3
DOCKED: ATOM      3  C   UNL     1     140.805  73.771 221.246 -0.20 -0.03    +0.216 C  
DOCKED: BRANCH   3   4
DOCKED: ATOM      4  N   UNL     1     140.988  75.116 221.694 -0.18 +0.07    -0.342 N  
DOCKED: ATOM      5  C   UNL     1     139.886  76.016 221.949 -0.24 -0.06    +0.270 C  
DOCKED: ATOM      6  O   UNL     1     138.682  75.629 221.768 -0.18 +0.06    -0.268 OA 
DOCKED: ATOM      7  H   UNL     1     141.951  75.534 221.868 -0.38 -0.08    +0.164 HD 
DOCKED: BRANCH   5   8
DOCKED: ATOM      8  C   UNL     1     140.168  77.384 222.419 -0.32 -0.03    +0.128 A  
DOCKED: ATOM      9  C   UNL     1     139.100  78.197 222.737 -0.30 -0.01    +0.035 A  
DOCKED: ATOM     10  N   UNL     1     141.433  77.830 222.537 -0.25 +0.12    -0.243 NA 
DOCKED: ATOM     11  C   UNL     1     139.278  79.501 223.188 -0.36 -0.00    +0.013 A  
DOCKED: ATOM     12  C   UNL     1     141.617  79.088 222.972 -0.50 -0.03    +0.071 A  
DOCKED: ATOM     13  C   UNL     1     140.584  79.939 223.301 -0.47 -0.00    +0.000 A  
DOCKED: ATOM     14  C   UNL     1     142.949  79.503 223.077 -0.53 -0.01    +0.029 A  
DOCKED: ATOM     15  C   UNL     1     140.888  81.227 223.743 -0.38 -0.00    +0.010 A  
DOCKED: ATOM     16  C   UNL     1     143.260  80.777 223.513 -0.56 -0.00    +0.002 A  
DOCKED: ATOM     17  C   UNL     1     142.218  81.616 223.839 -0.58 -0.00    +0.001 A  
DOCKED: ENDBRANCH   5   8
DOCKED: ENDBRANCH   3   4
DOCKED: ENDBRANCH   1   3
DOCKED: BRANCH   1  18
DOCKED: ATOM     18  N   UNL     1     143.148  73.244 220.285 -0.11 +0.06    -0.335 N  
DOCKED: ATOM     19  C   UNL     1     144.073  72.475 219.513 -0.20 -0.01    +0.151 C  
DOCKED: ATOM     20  C   UNL     1     143.693  74.628 220.190 -0.35 -0.04    +0.092 C  
DOCKED: ATOM     21  C   UNL     1     145.410  73.137 219.680 -0.37 +0.01    +0.136 C  
DOCKED: ATOM     22  C   UNL     1     145.159  74.383 220.469 -0.42 -0.02    +0.059 C  
DOCKED: BRANCH  20  23
DOCKED: ATOM     23  C   UNL     1     143.542  75.105 218.783 -0.25 -0.03    +0.060 C  
DOCKED: BRANCH  23  24
DOCKED: ATOM     24  C   UNL     1     143.045  76.476 218.629 -0.31 +0.03    -0.046 A  
DOCKED: ATOM     25  C   UNL     1     143.035  77.185 217.448 -0.28 -0.00    +0.004 A  
DOCKED: ATOM     26  C   UNL     1     142.546  77.126 219.746 -0.34 -0.00    +0.004 A  
DOCKED: ATOM     27  C   UNL     1     142.559  78.481 217.353 -0.28 -0.00    +0.000 A  
DOCKED: ATOM     28  C   UNL     1     142.064  78.408 219.701 -0.24 -0.00    +0.000 A  
DOCKED: ATOM     29  C   UNL     1     142.078  79.067 218.503 -0.30 -0.00    +0.000 A  
DOCKED: ENDBRANCH  23  24
DOCKED: ENDBRANCH  20  23
DOCKED: BRANCH  21  30
DOCKED: ATOM     30  O   UNL     1     146.334  72.294 220.311 -0.37 -0.16    -0.391 OA 
DOCKED: ATOM     31  H   UNL     1     145.891  71.891 221.108 -0.44 -0.09    +0.211 HD 
DOCKED: ENDBRANCH  21  30
DOCKED: ENDBRANCH   1  18
DOCKED: TORSDOF 7
DOCKED: TER
DOCKED: ENDMDL
________________________________________________________________________________


    FINAL DOCKED STATE:
    ________________________


Run:   18 / 20
Time taken for this run:   0.041s

DOCKED: MODEL        18
DOCKED: USER    Run = 18
DOCKED: USER
DOCKED: USER    Estimated Free Energy of Binding    =  -8.26 kcal/mol  [=(1)+(2)+(3)-(4)]
DOCKED: USER
DOCKED: USER    (1) Final Intermolecular Energy     = -10.34 kcal/mol
DOCKED: USER        vdW + Hbond + desolv Energy     = -10.06 kcal/mol
DOCKED: USER        Electrostatic Energy            =  -0.28 kcal/mol
DOCKED: USER        Moving Ligand-Fixed Receptor    = -10.34 kcal/mol
DOCKED: USER        Moving Ligand-Moving Receptor   =  +0.00 kcal/mol
DOCKED: USER    (2) Final Total Internal Energy     =  -2.43 kcal/mol
DOCKED: USER    (3) Torsional Free Energy           =  +2.09 kcal/mol
DOCKED: USER    (4) Unbound System's Energy         =  -2.43 kcal/mol
DOCKED: USER
DOCKED: USER
DOCKED: REMARK SMILES O=C(NCC(=O)N1C[C@H](O)C[C@H]1Cc1ccccc1)c1ccc2ccccc2n1
DOCKED: REMARK SMILES IDX 5 1 6 2 4 3 3 4 2 5 1 6 20 8 21 9 29 10 22 11 28 12 23 13
DOCKED: REMARK SMILES IDX 27 14 24 15 26 16 25 17 7 18 8 19 12 20 9 21 11 22 13 23
DOCKED: REMARK SMILES IDX 14 24 15 25 19 26 16 27 18 28 17 29 10 30
DOCKED: REMARK H PARENT 3 7 10 31
DOCKED: USER                              x       y       z     vdW  Elec       q    Type
DOCKED: USER                           _______ _______ _______ _____ _____    ______ ____
DOCKED: ROOT
DOCKED: ATOM      1  C   UNL     1     142.027  72.960 221.040 -0.13 -0.03    +0.242 C  
DOCKED: ATOM      2  O   UNL     1     141.991  71.799 221.614 -0.14 +0.02    -0.273 OA 
DOCKED: ENDROOT
DOCKED: BRANCH   1   3
DOCKED: ATOM      3  C   UNL     1     140.851  73.783 221.258 -0.20 -0.03    +0.216 C  
DOCKED: BRANCH   3   4
DOCKED: ATOM      4  N   UNL     1     141.024  75.132 221.700 -0.18 +0.07    -0.342 N  
DOCKED: ATOM      5  C   UNL     1     139.915  76.006 222.011 -0.24 -0.06    +0.270 C  
DOCKED: ATOM      6  O   UNL     1     138.713  75.591 221.887 -0.21 +0.06    -0.268 OA 
DOCKED: ATOM      7  H   UNL     1     141.984  75.573 221.828 -0.40 -0.08    +0.164 HD 
DOCKED: BRANCH   5   8
DOCKED: ATOM      8  C   UNL     1     140.188  77.379 222.470 -0.31 -0.03    +0.128 A  
DOCKED: ATOM      9  C   UNL     1     139.114  78.192 222.767 -0.30 -0.01    +0.035 A  
DOCKED: ATOM     10  N   UNL     1     141.450  77.830 222.597 -0.26 +0.12    -0.243 NA 
DOCKED: ATOM     11  C   UNL     1     139.282  79.501 223.207 -0.37 -0.00    +0.013 A  
DOCKED: ATOM     12  C   UNL     1     141.625  79.093 223.022 -0.51 -0.02    +0.071 A  
DOCKED: ATOM     13  C   UNL     1     140.586  79.944 223.331 -0.47 -0.00    +0.000 A  
DOCKED: ATOM     14  C   UNL     1     142.954  79.513 223.138 -0.51 -0.01    +0.029 A  
DOCKED: ATOM     15  C   UNL     1     140.881  81.237 223.763 -0.37 -0.00    +0.010 A  
DOCKED: ATOM     16  C   UNL     1     143.257  80.792 223.565 -0.57 -0.00    +0.002 A  
DOCKED: ATOM     17  C   UNL     1     142.209  81.632 223.870 -0.58 -0.00    +0.001 A  
DOCKED: ENDBRANCH   5   8
DOCKED: ENDBRANCH   3   4
DOCKED: ENDBRANCH   1   3
DOCKED: BRANCH   1  18
DOCKED: ATOM     18  N   UNL     1     143.189  73.237 220.297 -0.12 +0.06    -0.335 N  
DOCKED: ATOM     19  C   UNL     1     144.053  72.462 219.463 -0.20 -0.01    +0.151 C  
DOCKED: ATOM     20  C   UNL     1     143.795  74.597 220.246 -0.35 -0.04    +0.092 C  
DOCKED: ATOM     21  C   UNL     1     145.424  73.055 219.614 -0.36 +0.02    +0.136 C  
DOCKED: ATOM     22  C   UNL     1     145.256  74.273 220.465 -0.45 -0.02    +0.059 C  
DOCKED: BRANCH  20  23
DOCKED: ATOM     23  C   UNL     1     143.624  75.144 218.867 -0.26 -0.03    +0.060 C  
DOCKED: BRANCH  23  24
DOCKED: ATOM     24  C   UNL     1     143.054  76.493 218.787 -0.32 +0.03    -0.046 A  
DOCKED: ATOM     25  C   UNL     1     142.471  77.168 219.838 -0.33 -0.00    +0.004 A  
DOCKED: ATOM     26  C   UNL     1     143.092  77.154 217.571 -0.27 -0.00    +0.004 A  
DOCKED: ATOM     27  C   UNL     1     141.942  78.441 219.713 -0.27 -0.00    +0.000 A  
DOCKED: ATOM     28  C   UNL     1     142.582  78.414 217.399 -0.29 -0.00    +0.000 A  
DOCKED: ATOM     29  C   UNL     1     142.014  79.039 218.474 -0.29 -0.00    +0.000 A  
DOCKED: ENDBRANCH  23  24
DOCKED: ENDBRANCH  20  23
DOCKED: BRANCH  21  30
DOCKED: ATOM     30  O   UNL     1     146.326  72.142 220.177 -0.39 -0.20    -0.391 OA 
DOCKED: ATOM     31  H   UNL     1     145.982  71.880 221.075 -0.44 -0.08    +0.211 HD 
DOCKED: ENDBRANCH  21  30
DOCKED: ENDBRANCH   1  18
DOCKED: TORSDOF 7
DOCKED: TER
DOCKED: ENDMDL
________________________________________________________________________________


    FINAL DOCKED STATE:
    ________________________


Run:   19 / 20
Time taken for this run:   0.041s

DOCKED: MODEL        19
DOCKED: USER    Run = 19
DOCKED: USER
DOCKED: USER    Estimated Free Energy of Binding    =  -8.21 kcal/mol  [=(1)+(2)+(3)-(4)]
DOCKED: USER
DOCKED: USER    (1) Final Intermolecular Energy     = -10.30 kcal/mol
DOCKED: USER        vdW + Hbond + desolv Energy     = -10.03 kcal/mol
DOCKED: USER        Electrostatic Energy            =  -0.27 kcal/mol
DOCKED: USER        Moving Ligand-Fixed Receptor    = -10.30 kcal/mol
DOCKED: USER        Moving Ligand-Moving Receptor   =  +0.00 kcal/mol
DOCKED: USER    (2) Final Total Internal Energy     =  -2.46 kcal/mol
DOCKED: USER    (3) Torsional Free Energy           =  +2.09 kcal/mol
DOCKED: USER    (4) Unbound System's Energy         =  -2.46 kcal/mol
DOCKED: USER
DOCKED: USER
DOCKED: REMARK SMILES O=C(NCC(=O)N1C[C@H](O)C[C@H]1Cc1ccccc1)c1ccc2ccccc2n1
DOCKED: REMARK SMILES IDX 5 1 6 2 4 3 3 4 2 5 1 6 20 8 21 9 29 10 22 11 28 12 23 13
DOCKED: REMARK SMILES IDX 27 14 24 15 26 16 25 17 7 18 8 19 12 20 9 21 11 22 13 23
DOCKED: REMARK SMILES IDX 14 24 15 25 19 26 16 27 18 28 17 29 10 30
DOCKED: REMARK H PARENT 3 7 10 31
DOCKED: USER                              x       y       z     vdW  Elec       q    Type
DOCKED: USER                           _______ _______ _______ _____ _____    ______ ____
DOCKED: ROOT
DOCKED: ATOM      1  C   UNL     1     141.994  72.918 221.072 -0.13 -0.03    +0.242 C  
DOCKED: ATOM      2  O   UNL     1     141.986  71.711 221.542 -0.13 +0.02    -0.273 OA 
DOCKED: ENDROOT
DOCKED: BRANCH   1   3
DOCKED: ATOM      3  C   UNL     1     140.823  73.709 221.403 -0.21 -0.03    +0.216 C  
DOCKED: BRANCH   3   4
DOCKED: ATOM      4  N   UNL     1     140.999  75.070 221.807 -0.17 +0.06    -0.342 N  
DOCKED: ATOM      5  C   UNL     1     139.893  75.947 222.116 -0.22 -0.05    +0.270 C  
DOCKED: ATOM      6  O   UNL     1     138.690  75.526 222.025 -0.23 +0.06    -0.268 OA 
DOCKED: ATOM      7  H   UNL     1     141.960  75.516 221.906 -0.39 -0.08    +0.164 HD 
DOCKED: BRANCH   5   8
DOCKED: ATOM      8  C   UNL     1     140.169  77.333 222.534 -0.30 -0.03    +0.128 A  
DOCKED: ATOM      9  C   UNL     1     139.097  78.162 222.790 -0.29 -0.01    +0.035 A  
DOCKED: ATOM     10  N   UNL     1     141.432  77.780 222.664 -0.25 +0.11    -0.243 NA 
DOCKED: ATOM     11  C   UNL     1     139.268  79.484 223.189 -0.36 -0.00    +0.013 A  
DOCKED: ATOM     12  C   UNL     1     141.611  79.054 223.050 -0.51 -0.02    +0.071 A  
DOCKED: ATOM     13  C   UNL     1     140.574  79.922 223.317 -0.47 -0.00    +0.000 A  
DOCKED: ATOM     14  C   UNL     1     142.941  79.470 223.171 -0.48 -0.01    +0.029 A  
DOCKED: ATOM     15  C   UNL     1     140.872  81.227 223.711 -0.38 -0.00    +0.010 A  
DOCKED: ATOM     16  C   UNL     1     143.247  80.760 223.560 -0.58 -0.00    +0.002 A  
DOCKED: ATOM     17  C   UNL     1     142.201  81.616 223.824 -0.58 -0.00    +0.001 A  
DOCKED: ENDBRANCH   5   8
DOCKED: ENDBRANCH   3   4
DOCKED: ENDBRANCH   1   3
DOCKED: BRANCH   1  18
DOCKED: ATOM     18  N   UNL     1     143.127  73.269 220.315 -0.12 +0.07    -0.335 N  
DOCKED: ATOM     19  C   UNL     1     144.025  72.553 219.465 -0.20 -0.01    +0.151 C  
DOCKED: ATOM     20  C   UNL     1     143.649  74.663 220.264 -0.33 -0.04    +0.092 C  
DOCKED: ATOM     21  C   UNL     1     145.359  73.227 219.601 -0.36 +0.01    +0.136 C  
DOCKED: ATOM     22  C   UNL     1     145.130  74.428 220.461 -0.40 -0.02    +0.059 C  
DOCKED: BRANCH  20  23
DOCKED: ATOM     23  C   UNL     1     143.426  75.206 218.890 -0.27 -0.03    +0.060 C  
DOCKED: BRANCH  23  24
DOCKED: ATOM     24  C   UNL     1     142.923  76.582 218.827 -0.32 +0.03    -0.046 A  
DOCKED: ATOM     25  C   UNL     1     142.323  77.253 219.872 -0.32 -0.00    +0.004 A  
DOCKED: ATOM     26  C   UNL     1     143.048  77.277 217.636 -0.28 -0.00    +0.004 A  
DOCKED: ATOM     27  C   UNL     1     141.860  78.553 219.763 -0.28 -0.00    +0.000 A  
DOCKED: ATOM     28  C   UNL     1     142.604  78.564 217.480 -0.29 -0.00    +0.000 A  
DOCKED: ATOM     29  C   UNL     1     142.016  79.183 218.548 -0.29 -0.00    +0.000 A  
DOCKED: ENDBRANCH  23  24
DOCKED: ENDBRANCH  20  23
DOCKED: BRANCH  21  30
DOCKED: ATOM     30  O   UNL     1     146.324  72.368 220.146 -0.46 -0.20    -0.391 OA 
DOCKED: ATOM     31  H   UNL     1     145.910  71.888 220.916 -0.43 -0.06    +0.211 HD 
DOCKED: ENDBRANCH  21  30
DOCKED: ENDBRANCH   1  18
DOCKED: TORSDOF 7
DOCKED: TER
DOCKED: ENDMDL
________________________________________________________________________________


    FINAL DOCKED STATE:
    ________________________


Run:   20 / 20
Time taken for this run:   0.041s

DOCKED: MODEL        20
DOCKED: USER    Run = 20
DOCKED: USER
DOCKED: USER    Estimated Free Energy of Binding    =  -8.24 kcal/mol  [=(1)+(2)+(3)-(4)]
DOCKED: USER
DOCKED: USER    (1) Final Intermolecular Energy     = -10.33 kcal/mol
DOCKED: USER        vdW + Hbond + desolv Energy     = -10.06 kcal/mol
DOCKED: USER        Electrostatic Energy            =  -0.27 kcal/mol
DOCKED: USER        Moving Ligand-Fixed Receptor    = -10.33 kcal/mol
DOCKED: USER        Moving Ligand-Moving Receptor   =  +0.00 kcal/mol
DOCKED: USER    (2) Final Total Internal Energy     =  -2.45 kcal/mol
DOCKED: USER    (3) Torsional Free Energy           =  +2.09 kcal/mol
DOCKED: USER    (4) Unbound System's Energy         =  -2.45 kcal/mol
DOCKED: USER
DOCKED: USER
DOCKED: REMARK SMILES O=C(NCC(=O)N1C[C@H](O)C[C@H]1Cc1ccccc1)c1ccc2ccccc2n1
DOCKED: REMARK SMILES IDX 5 1 6 2 4 3 3 4 2 5 1 6 20 8 21 9 29 10 22 11 28 12 23 13
DOCKED: REMARK SMILES IDX 27 14 24 15 26 16 25 17 7 18 8 19 12 20 9 21 11 22 13 23
DOCKED: REMARK SMILES IDX 14 24 15 25 19 26 16 27 18 28 17 29 10 30
DOCKED: REMARK H PARENT 3 7 10 31
DOCKED: USER                              x       y       z     vdW  Elec       q    Type
DOCKED: USER                           _______ _______ _______ _____ _____    ______ ____
DOCKED: ROOT
DOCKED: ATOM      1  C   UNL     1     142.000  72.932 221.057 -0.13 -0.03    +0.242 C  
DOCKED: ATOM      2  O   UNL     1     141.981  71.737 221.559 -0.14 +0.02    -0.273 OA 
DOCKED: ENDROOT
DOCKED: BRANCH   1   3
DOCKED: ATOM      3  C   UNL     1     140.824  73.733 221.347 -0.20 -0.03    +0.216 C  
DOCKED: BRANCH   3   4
DOCKED: ATOM      4  N   UNL     1     140.998  75.088 221.768 -0.17 +0.06    -0.342 N  
DOCKED: ATOM      5  C   UNL     1     139.890  75.965 222.069 -0.23 -0.05    +0.270 C  
DOCKED: ATOM      6  O   UNL     1     138.687  75.548 221.956 -0.22 +0.06    -0.268 OA 
DOCKED: ATOM      7  H   UNL     1     141.958  75.531 221.887 -0.39 -0.08    +0.164 HD 
DOCKED: BRANCH   5   8
DOCKED: ATOM      8  C   UNL     1     140.163  77.346 222.507 -0.30 -0.03    +0.128 A  
DOCKED: ATOM      9  C   UNL     1     139.089  78.165 222.786 -0.29 -0.01    +0.035 A  
DOCKED: ATOM     10  N   UNL     1     141.425  77.797 222.633 -0.25 +0.11    -0.243 NA 
DOCKED: ATOM     11  C   UNL     1     139.258  79.481 223.205 -0.37 -0.00    +0.013 A  
DOCKED: ATOM     12  C   UNL     1     141.601  79.066 223.037 -0.51 -0.02    +0.071 A  
DOCKED: ATOM     13  C   UNL     1     140.563  79.924 223.327 -0.47 -0.00    +0.000 A  
DOCKED: ATOM     14  C   UNL     1     142.931  79.486 223.152 -0.50 -0.01    +0.029 A  
DOCKED: ATOM     15  C   UNL     1     140.858  81.223 223.740 -0.37 -0.00    +0.010 A  
DOCKED: ATOM     16  C   UNL     1     143.234  80.771 223.559 -0.58 -0.00    +0.002 A  
DOCKED: ATOM     17  C   UNL     1     142.186  81.617 223.846 -0.59 -0.00    +0.001 A  
DOCKED: ENDBRANCH   5   8
DOCKED: ENDBRANCH   3   4
DOCKED: ENDBRANCH   1   3
DOCKED: BRANCH   1  18
DOCKED: ATOM     18  N   UNL     1     143.146  73.261 220.311 -0.12 +0.07    -0.335 N  
DOCKED: ATOM     19  C   UNL     1     144.041  72.526 219.472 -0.20 -0.01    +0.151 C  
DOCKED: ATOM     20  C   UNL     1     143.692  74.646 220.260 -0.33 -0.04    +0.092 C  
DOCKED: ATOM     21  C   UNL     1     145.384  73.178 219.620 -0.36 +0.01    +0.136 C  
DOCKED: ATOM     22  C   UNL     1     145.167  74.387 220.474 -0.42 -0.02    +0.059 C  
DOCKED: BRANCH  20  23
DOCKED: ATOM     23  C   UNL     1     143.492  75.188 218.883 -0.26 -0.03    +0.060 C  
DOCKED: BRANCH  23  24
DOCKED: ATOM     24  C   UNL     1     142.951  76.549 218.810 -0.32 +0.03    -0.046 A  
DOCKED: ATOM     25  C   UNL     1     142.344  77.215 219.853 -0.32 -0.00    +0.004 A  
DOCKED: ATOM     26  C   UNL     1     143.044  77.233 217.610 -0.28 -0.00    +0.004 A  
DOCKED: ATOM     27  C   UNL     1     141.844  78.500 219.735 -0.29 -0.00    +0.000 A  
DOCKED: ATOM     28  C   UNL     1     142.564  78.505 217.444 -0.29 -0.00    +0.000 A  
DOCKED: ATOM     29  C   UNL     1     141.970  79.121 218.512 -0.28 -0.00    +0.000 A  
DOCKED: ENDBRANCH  23  24
DOCKED: ENDBRANCH  20  23
DOCKED: BRANCH  21  30
DOCKED: ATOM     30  O   UNL     1     146.329  72.306 220.178 -0.43 -0.20    -0.391 OA 
DOCKED: ATOM     31  H   UNL     1     145.922  71.885 220.985 -0.43 -0.07    +0.211 HD 
DOCKED: ENDBRANCH  21  30
DOCKED: ENDBRANCH   1  18
DOCKED: TORSDOF 7
DOCKED: TER
DOCKED: ENDMDL
________________________________________________________________________________


    CLUSTERING HISTOGRAM
    ____________________


________________________________________________________________________________
     |           |     |           |     |
Clus | Lowest    | Run | Mean      | Num | Histogram
-ter | Binding   |     | Binding   | in  |
Rank | Energy    |     | Energy    | Clus|    5    10   15   20   25   30   35
_____|___________|_____|___________|_____|____:____|____:____|____:____|____:___
   1 |     -9.07 |  11 |     -8.66 |   4 |####
   2 |     -8.86 |   9 |     -8.70 |   4 |####
   3 |     -8.26 |  18 |     -8.09 |  11 |###########
   4 |     -8.22 |  13 |     -8.22 |   1 |#
_____|___________|_____|___________|_____|______________________________________


    RMSD TABLE
    __________


_______________________________________________________________________
     |      |      |           |         |                 |
Rank | Sub- | Run  | Binding   | Cluster | Reference       | Grep
     | Rank |      | Energy    | RMSD    | RMSD            | Pattern
_____|______|______|___________|_________|_________________|___________
   1      1     11       -9.07      0.00    271.34           RANKING
   1      2      8       -8.63      0.89    271.21           RANKING
   1      3      5       -8.62      0.85    271.22           RANKING
   1      4      3       -8.30      1.47    271.26           RANKING
   2      1      9       -8.86      0.00    271.11           RANKING
   2      2     14       -8.81      1.15    271.24           RANKING
   2      3      2       -8.59      1.15    271.10           RANKING
   2      4     12       -8.56      1.16    271.02           RANKING
   3      1     18       -8.26      0.00    271.20           RANKING
   3      2     16       -8.25      0.06    271.20           RANKING
   3      3      4       -8.24      0.04    271.20           RANKING
   3      4     20       -8.24      0.09    271.19           RANKING
   3      5      6       -8.23      0.11    271.20           RANKING
   3      6     19       -8.21      0.13    271.20           RANKING
   3      7     17       -8.19      0.09    271.17           RANKING
   3      8     15       -8.18      0.13    271.21           RANKING
   3      9      7       -8.16      0.17    271.20           RANKING
   3     10     10       -7.67      0.73    271.08           RANKING
   3     11      1       -7.34      0.87    270.93           RANKING
   4      1     13       -8.22      0.00    270.95           RANKING

Run time 0.776 sec
Idle time 0.000 sec
