AutoDock-GPU version: v1.6

**********************************************************
**    AutoDock-GPU AUTODOCKTOOLS-COMPATIBLE DLG FILE    **
**********************************************************


    DOCKING PARAMETERS
    ________________________


Ligand file:                               /home/a/REINVENT4/ReinventStudies/pleaseWork/justmol2mol_4_Compounds_ontop/graph-dock-hn62wh/graph-DockGPU/node-autodockgpu/inputs/HOTGGXHWXCEFOT-ARSKLOKFNA-N.pdbqt
Grid fld file:                             /home/a/REINVENT4/ReinventStudies/mols/Rad51/maps/rad51_receptor.maps.fld

Random seed:                               42
Number of runs:                            20
Number of energy evaluations:              1132076
Number of generations:                     42000
Size of population:                        150
Rate of crossover:                         80.000000%
Tournament selection probability limit:    60.000000%
Rate of mutation:                          2.000000%
Maximal allowed delta movement:            +/- 6.000000A
Maximal allowed delta angle:               +/- 90.000000

Rate of local search:                      100.000000%
Maximal number of local search iterations: 300
Rho lower bound:                           0.010000
Spread of local search delta movement:     2.000000A
Spread of local search delta angle:        74.999999
Limit of consecutive successes/failures:   4

Handle symmetry during clustering:         YES
RMSD tolerance:                            2.000000A

Program call in command line was:          /home/a/REINVENT4/ReinventStudies/adgpu-v1.6_linux_x64_cuda12_128wi --filelist batch.txt --heuristics 1 --nrun 20 --psize 150 --lsit 300 --seed 42 --heurmax 12000000 


    GRID PARAMETERS
    ________________________


Receptor name:                             rad51_receptor
Number of grid points (x, y, z):           53, 53, 53
Grid center (x, y, z):                     139.950000, 75.640000, 221.970000A
Grid size (x, y, z):                       19.500000, 19.500000, 19.500000A
Grid spacing:                              0.375000A


    LIGAND PARAMETERS
    ________________________


Ligand name:                               /home/a/REINVENT4/ReinventStudies/pleaseWork/justmol2mol_4_Compounds_ontop/graph-dock-hn62wh/graph-DockGPU/node-autodockgpu/inputs/HOTGGXHWXCEFOT-ARSKLOKFNA-N
Number of atoms:                           29
Number of rotatable bonds:                 5
Number of atom types:                      7


    DUMMY DATA (only for ADT-compatibility)
    ________________________


DPF> outlev 1
DPF> ga_run 20
DPF> fld /home/a/REINVENT4/ReinventStudies/mols/Rad51/maps/rad51_receptor.maps.fld
DPF> move /home/a/REINVENT4/ReinventStudies/pleaseWork/justmol2mol_4_Compounds_ontop/graph-dock-hn62wh/graph-DockGPU/node-autodockgpu/inputs/HOTGGXHWXCEFOT-ARSKLOKFNA-N.pdbqt


    COUNTER STATES
    ________________________


Number of energy evaluations performed:    1062916
Number of generations used:                50


    INPUT LIGAND PDBQT FILE:
    ________________________


INPUT-LIGAND-PDBQT: REMARK SMILES O=C(NCC(=O)N1CCC[C@H]1c1ncccn1)c1ccc2cc(Cl)ccc2n1
INPUT-LIGAND-PDBQT: REMARK SMILES IDX 4 1 3 2 2 3 1 4 18 6 19 7 28 8 20 9 27 10 21 11 26 12 22 13
INPUT-LIGAND-PDBQT: REMARK SMILES IDX 25 14 23 15 24 16 5 17 6 18 7 19 8 20 11 21 9 22 10 23 12 24
INPUT-LIGAND-PDBQT: REMARK SMILES IDX 13 25 17 26 14 27 16 28 15 29
INPUT-LIGAND-PDBQT: REMARK H PARENT 3 5
INPUT-LIGAND-PDBQT: ROOT
INPUT-LIGAND-PDBQT: ATOM      1  C   UNL     1      -0.715   0.820  -2.637  1.00  0.00     0.216 C 
INPUT-LIGAND-PDBQT: ENDROOT
INPUT-LIGAND-PDBQT: BRANCH   1   2
INPUT-LIGAND-PDBQT: ATOM      2  N   UNL     1       0.535   0.772  -1.970  1.00  0.00    -0.342 N 
INPUT-LIGAND-PDBQT: ATOM      3  C   UNL     1       1.253  -0.463  -1.784  1.00  0.00     0.270 C 
INPUT-LIGAND-PDBQT: ATOM      4  O   UNL     1       0.794  -1.564  -2.223  1.00  0.00    -0.268 OA
INPUT-LIGAND-PDBQT: ATOM      5  H   UNL     1       0.989   1.645  -1.582  1.00  0.00     0.164 HD
INPUT-LIGAND-PDBQT: BRANCH   3   6
INPUT-LIGAND-PDBQT: ATOM      6  C   UNL     1       2.544  -0.420  -1.065  1.00  0.00     0.128 A 
INPUT-LIGAND-PDBQT: ATOM      7  C   UNL     1       3.230  -1.603  -0.888  1.00  0.00     0.035 A 
INPUT-LIGAND-PDBQT: ATOM      8  N   UNL     1       3.068   0.703  -0.586  1.00  0.00    -0.243 NA
INPUT-LIGAND-PDBQT: ATOM      9  C   UNL     1       4.426  -1.640  -0.236  1.00  0.00     0.013 A 
INPUT-LIGAND-PDBQT: ATOM     10  C   UNL     1       4.243   0.692   0.058  1.00  0.00     0.071 A 
INPUT-LIGAND-PDBQT: ATOM     11  C   UNL     1       4.946  -0.462   0.250  1.00  0.00     0.002 A 
INPUT-LIGAND-PDBQT: ATOM     12  C   UNL     1       4.800   1.862   0.563  1.00  0.00     0.030 A 
INPUT-LIGAND-PDBQT: ATOM     13  C   UNL     1       6.159  -0.531   0.906  1.00  0.00     0.030 A 
INPUT-LIGAND-PDBQT: ATOM     14  C   UNL     1       6.025   1.798   1.227  1.00  0.00     0.023 A 
INPUT-LIGAND-PDBQT: ATOM     15  C   UNL     1       6.715   0.630   1.409  1.00  0.00     0.041 A 
INPUT-LIGAND-PDBQT: ATOM     16  Cl  UNL     1       8.257   0.548   2.244  1.00  0.00    -0.084 Cl
INPUT-LIGAND-PDBQT: ENDBRANCH   3   6
INPUT-LIGAND-PDBQT: ENDBRANCH   1   2
INPUT-LIGAND-PDBQT: BRANCH   1  17
INPUT-LIGAND-PDBQT: ATOM     17  C   UNL     1      -1.869   0.159  -2.050  1.00  0.00     0.242 C 
INPUT-LIGAND-PDBQT: ATOM     18  O   UNL     1      -2.938   0.192  -2.795  1.00  0.00    -0.273 OA
INPUT-LIGAND-PDBQT: BRANCH  17  19
INPUT-LIGAND-PDBQT: ATOM     19  N   UNL     1      -1.980  -0.498  -0.800  1.00  0.00    -0.331 N 
INPUT-LIGAND-PDBQT: ATOM     20  C   UNL     1      -1.019  -0.672   0.272  1.00  0.00     0.120 C 
INPUT-LIGAND-PDBQT: ATOM     21  C   UNL     1      -3.234  -1.154  -0.398  1.00  0.00     0.153 C 
INPUT-LIGAND-PDBQT: ATOM     22  C   UNL     1      -1.921  -0.889   1.501  1.00  0.00     0.024 C 
INPUT-LIGAND-PDBQT: ATOM     23  C   UNL     1      -2.889  -1.902   0.864  1.00  0.00     0.035 C 
INPUT-LIGAND-PDBQT: BRANCH  21  24
INPUT-LIGAND-PDBQT: ATOM     24  C   UNL     1      -4.275  -0.155  -0.018  1.00  0.00     0.150 A 
INPUT-LIGAND-PDBQT: ATOM     25  N   UNL     1      -5.025  -0.323   1.086  1.00  0.00    -0.239 NA
INPUT-LIGAND-PDBQT: ATOM     26  N   UNL     1      -4.494   0.940  -0.762  1.00  0.00    -0.239 NA
INPUT-LIGAND-PDBQT: ATOM     27  C   UNL     1      -5.974   0.533   1.484  1.00  0.00     0.115 A 
INPUT-LIGAND-PDBQT: ATOM     28  C   UNL     1      -5.435   1.826  -0.401  1.00  0.00     0.115 A 
INPUT-LIGAND-PDBQT: ATOM     29  C   UNL     1      -6.215   1.673   0.725  1.00  0.00     0.040 A 
INPUT-LIGAND-PDBQT: ENDBRANCH  21  24
INPUT-LIGAND-PDBQT: ENDBRANCH  17  19
INPUT-LIGAND-PDBQT: ENDBRANCH   1  17
INPUT-LIGAND-PDBQT: TORSDOF 5


    FINAL DOCKED STATE:
    ________________________


Run:   1 / 20
Time taken for this run:   0.042s

DOCKED: MODEL        1
DOCKED: USER    Run = 1
DOCKED: USER
DOCKED: USER    Estimated Free Energy of Binding    =  -6.89 kcal/mol  [=(1)+(2)+(3)-(4)]
DOCKED: USER
DOCKED: USER    (1) Final Intermolecular Energy     =  -8.38 kcal/mol
DOCKED: USER        vdW + Hbond + desolv Energy     =  -8.34 kcal/mol
DOCKED: USER        Electrostatic Energy            =  -0.04 kcal/mol
DOCKED: USER        Moving Ligand-Fixed Receptor    =  -8.38 kcal/mol
DOCKED: USER        Moving Ligand-Moving Receptor   =  +0.00 kcal/mol
DOCKED: USER    (2) Final Total Internal Energy     =  -2.70 kcal/mol
DOCKED: USER    (3) Torsional Free Energy           =  +1.49 kcal/mol
DOCKED: USER    (4) Unbound System's Energy         =  -2.70 kcal/mol
DOCKED: USER
DOCKED: USER
DOCKED: REMARK SMILES O=C(NCC(=O)N1CCC[C@H]1c1ncccn1)c1ccc2cc(Cl)ccc2n1
DOCKED: REMARK SMILES IDX 4 1 3 2 2 3 1 4 18 6 19 7 28 8 20 9 27 10 21 11 26 12 22 13
DOCKED: REMARK SMILES IDX 25 14 23 15 24 16 5 17 6 18 7 19 8 20 11 21 9 22 10 23 12 24
DOCKED: REMARK SMILES IDX 13 25 17 26 14 27 16 28 15 29
DOCKED: REMARK H PARENT 3 5
DOCKED: USER                              x       y       z     vdW  Elec       q    Type
DOCKED: USER                           _______ _______ _______ _____ _____    ______ ____
DOCKED: ROOT
DOCKED: ATOM      1  C   UNL     1     137.277  73.822 221.278 -0.08 -0.05    +0.216 C  
DOCKED: ENDROOT
DOCKED: BRANCH   1   2
DOCKED: ATOM      2  N   UNL     1     137.846  73.027 222.304 -0.05 +0.12    -0.342 N  
DOCKED: ATOM      3  C   UNL     1     137.571  71.617 222.418 -0.09 -0.06    +0.270 C  
DOCKED: ATOM      4  O   UNL     1     136.809  71.026 221.590 -0.02 +0.05    -0.268 OA 
DOCKED: ATOM      5  H   UNL     1     138.497  73.440 223.029 -0.52 -0.11    +0.164 HD 
DOCKED: BRANCH   3   6
DOCKED: ATOM      6  C   UNL     1     138.199  70.869 223.528 -0.21 -0.03    +0.128 A  
DOCKED: ATOM      7  C   UNL     1     137.889  69.533 223.669 -0.24 -0.00    +0.035 A  
DOCKED: ATOM      8  N   UNL     1     139.044  71.426 224.388 -0.16 +0.07    -0.243 NA 
DOCKED: ATOM      9  C   UNL     1     138.430  68.780 224.668 -0.35 -0.00    +0.013 A  
DOCKED: ATOM     10  C   UNL     1     139.589  70.706 225.378 -0.40 -0.01    +0.071 A  
DOCKED: ATOM     11  C   UNL     1     139.303  69.382 225.545 -0.43 -0.00    +0.002 A  
DOCKED: ATOM     12  C   UNL     1     140.475  71.280 226.284 -0.60 -0.00    +0.030 A  
DOCKED: ATOM     13  C   UNL     1     139.835  68.594 226.547 -0.57 -0.00    +0.030 A  
DOCKED: ATOM     14  C   UNL     1     141.015  70.488 227.298 -0.60 -0.00    +0.023 A  
DOCKED: ATOM     15  C   UNL     1     140.715  69.161 227.448 -0.59 -0.01    +0.041 A  
DOCKED: ATOM     16  Cl  UNL     1     141.394  68.164 228.723 -0.59 +0.02    -0.084 Cl 
DOCKED: ENDBRANCH   3   6
DOCKED: ENDBRANCH   1   2
DOCKED: BRANCH   1  17
DOCKED: ATOM     17  C   UNL     1     137.537  75.252 221.249 -0.09 -0.05    +0.242 C  
DOCKED: ATOM     18  O   UNL     1     136.477  75.982 221.044 -0.03 +0.05    -0.273 OA 
DOCKED: BRANCH  17  19
DOCKED: ATOM     19  N   UNL     1     138.767  75.938 221.407 -0.09 +0.07    -0.331 N  
DOCKED: ATOM     20  C   UNL     1     139.172  76.957 222.356 -0.27 -0.02    +0.120 C  
DOCKED: ATOM     21  C   UNL     1     139.909  75.658 220.523 -0.13 -0.04    +0.153 C  
DOCKED: ATOM     22  C   UNL     1     140.704  76.799 222.385 -0.40 -0.01    +0.024 C  
DOCKED: ATOM     23  C   UNL     1     140.927  76.716 220.865 -0.27 -0.01    +0.035 C  
DOCKED: BRANCH  21  24
DOCKED: ATOM     24  C   UNL     1     140.544  74.348 220.850 -0.19 -0.03    +0.150 A  
DOCKED: ATOM     25  N   UNL     1     141.284  73.692 219.938 -0.07 +0.05    -0.239 NA 
DOCKED: ATOM     26  N   UNL     1     140.399  73.787 222.060 -0.77 +0.01    -0.239 NA 
DOCKED: ATOM     27  C   UNL     1     141.881  72.515 220.165 -0.14 -0.02    +0.115 A  
DOCKED: ATOM     28  C   UNL     1     140.980  72.608 222.332 -0.19 -0.00    +0.115 A  
DOCKED: ATOM     29  C   UNL     1     141.741  71.918 221.414 -0.21 -0.00    +0.040 A  
DOCKED: ENDBRANCH  21  24
DOCKED: ENDBRANCH  17  19
DOCKED: ENDBRANCH   1  17
DOCKED: TORSDOF 5
DOCKED: TER
DOCKED: ENDMDL
________________________________________________________________________________


    FINAL DOCKED STATE:
    ________________________


Run:   2 / 20
Time taken for this run:   0.042s

DOCKED: MODEL        2
DOCKED: USER    Run = 2
DOCKED: USER
DOCKED: USER    Estimated Free Energy of Binding    =  -7.97 kcal/mol  [=(1)+(2)+(3)-(4)]
DOCKED: USER
DOCKED: USER    (1) Final Intermolecular Energy     =  -9.46 kcal/mol
DOCKED: USER        vdW + Hbond + desolv Energy     =  -9.47 kcal/mol
DOCKED: USER        Electrostatic Energy            =  +0.01 kcal/mol
DOCKED: USER        Moving Ligand-Fixed Receptor    =  -9.46 kcal/mol
DOCKED: USER        Moving Ligand-Moving Receptor   =  +0.00 kcal/mol
DOCKED: USER    (2) Final Total Internal Energy     =  -1.69 kcal/mol
DOCKED: USER    (3) Torsional Free Energy           =  +1.49 kcal/mol
DOCKED: USER    (4) Unbound System's Energy         =  -1.69 kcal/mol
DOCKED: USER
DOCKED: USER
DOCKED: REMARK SMILES O=C(NCC(=O)N1CCC[C@H]1c1ncccn1)c1ccc2cc(Cl)ccc2n1
DOCKED: REMARK SMILES IDX 4 1 3 2 2 3 1 4 18 6 19 7 28 8 20 9 27 10 21 11 26 12 22 13
DOCKED: REMARK SMILES IDX 25 14 23 15 24 16 5 17 6 18 7 19 8 20 11 21 9 22 10 23 12 24
DOCKED: REMARK SMILES IDX 13 25 17 26 14 27 16 28 15 29
DOCKED: REMARK H PARENT 3 5
DOCKED: USER                              x       y       z     vdW  Elec       q    Type
DOCKED: USER                           _______ _______ _______ _____ _____    ______ ____
DOCKED: ROOT
DOCKED: ATOM      1  C   UNL     1     139.534  75.131 221.097 -0.16 -0.05    +0.216 C  
DOCKED: ENDROOT
DOCKED: BRANCH   1   2
DOCKED: ATOM      2  N   UNL     1     139.642  74.191 222.153 -0.11 +0.05    -0.342 N  
DOCKED: ATOM      3  C   UNL     1     139.881  72.792 221.906 -0.19 -0.04    +0.270 C  
DOCKED: ATOM      4  O   UNL     1     140.013  72.345 220.724 -0.07 +0.05    -0.268 OA 
DOCKED: ATOM      5  H   UNL     1     139.552  74.483 223.165 -0.51 -0.01    +0.164 HD 
DOCKED: BRANCH   3   6
DOCKED: ATOM      6  C   UNL     1     139.966  71.882 223.068 -0.30 -0.02    +0.128 A  
DOCKED: ATOM      7  C   UNL     1     139.525  70.584 222.913 -0.25 -0.01    +0.035 A  
DOCKED: ATOM      8  N   UNL     1     140.448  72.258 224.248 -0.08 +0.03    -0.243 NA 
DOCKED: ATOM      9  C   UNL     1     139.574  69.689 223.939 -0.29 -0.00    +0.013 A  
DOCKED: ATOM     10  C   UNL     1     140.507  71.396 225.272 -0.50 -0.01    +0.071 A  
DOCKED: ATOM     11  C   UNL     1     140.078  70.106 225.150 -0.45 -0.00    +0.002 A  
DOCKED: ATOM     12  C   UNL     1     141.010  71.780 226.510 -0.69 -0.00    +0.030 A  
DOCKED: ATOM     13  C   UNL     1     140.115  69.177 226.171 -0.50 -0.01    +0.030 A  
DOCKED: ATOM     14  C   UNL     1     141.050  70.846 227.545 -0.66 -0.00    +0.023 A  
DOCKED: ATOM     15  C   UNL     1     140.614  69.556 227.403 -0.57 -0.01    +0.041 A  
DOCKED: ATOM     16  Cl  UNL     1     140.664  68.379 228.705 -0.68 +0.02    -0.084 Cl 
DOCKED: ENDBRANCH   3   6
DOCKED: ENDBRANCH   1   2
DOCKED: BRANCH   1  17
DOCKED: ATOM     17  C   UNL     1     139.440  76.549 221.404 -0.17 -0.06    +0.242 C  
DOCKED: ATOM     18  O   UNL     1     138.994  76.806 222.601 -0.25 +0.05    -0.273 OA 
DOCKED: BRANCH  17  19
DOCKED: ATOM     19  N   UNL     1     139.759  77.661 220.586 -0.03 +0.10    -0.331 N  
DOCKED: ATOM     20  C   UNL     1     138.916  78.520 219.777 -0.04 -0.03    +0.120 C  
DOCKED: ATOM     21  C   UNL     1     141.147  78.128 220.452 -0.21 -0.07    +0.153 C  
DOCKED: ATOM     22  C   UNL     1     139.744  79.815 219.686 -0.10 -0.01    +0.024 C  
DOCKED: ATOM     23  C   UNL     1     141.100  79.164 219.358 -0.20 -0.02    +0.035 C  
DOCKED: BRANCH  21  24
DOCKED: ATOM     24  C   UNL     1     141.605  78.841 221.680 -0.32 -0.07    +0.150 A  
DOCKED: ATOM     25  N   UNL     1     141.438  78.296 222.899 -0.33 +0.10    -0.239 NA 
DOCKED: ATOM     26  N   UNL     1     142.196  80.043 221.608 -0.27 +0.11    -0.239 NA 
DOCKED: ATOM     27  C   UNL     1     141.825  78.880 224.039 -0.49 -0.03    +0.115 A  
DOCKED: ATOM     28  C   UNL     1     142.601  80.665 222.726 -0.50 -0.03    +0.115 A  
DOCKED: ATOM     29  C   UNL     1     142.439  80.126 223.984 -0.56 -0.01    +0.040 A  
DOCKED: ENDBRANCH  21  24
DOCKED: ENDBRANCH  17  19
DOCKED: ENDBRANCH   1  17
DOCKED: TORSDOF 5
DOCKED: TER
DOCKED: ENDMDL
________________________________________________________________________________


    FINAL DOCKED STATE:
    ________________________


Run:   3 / 20
Time taken for this run:   0.042s

DOCKED: MODEL        3
DOCKED: USER    Run = 3
DOCKED: USER
DOCKED: USER    Estimated Free Energy of Binding    =  -8.12 kcal/mol  [=(1)+(2)+(3)-(4)]
DOCKED: USER
DOCKED: USER    (1) Final Intermolecular Energy     =  -9.61 kcal/mol
DOCKED: USER        vdW + Hbond + desolv Energy     =  -9.56 kcal/mol
DOCKED: USER        Electrostatic Energy            =  -0.05 kcal/mol
DOCKED: USER        Moving Ligand-Fixed Receptor    =  -9.61 kcal/mol
DOCKED: USER        Moving Ligand-Moving Receptor   =  +0.00 kcal/mol
DOCKED: USER    (2) Final Total Internal Energy     =  -1.85 kcal/mol
DOCKED: USER    (3) Torsional Free Energy           =  +1.49 kcal/mol
DOCKED: USER    (4) Unbound System's Energy         =  -1.85 kcal/mol
DOCKED: USER
DOCKED: USER
DOCKED: REMARK SMILES O=C(NCC(=O)N1CCC[C@H]1c1ncccn1)c1ccc2cc(Cl)ccc2n1
DOCKED: REMARK SMILES IDX 4 1 3 2 2 3 1 4 18 6 19 7 28 8 20 9 27 10 21 11 26 12 22 13
DOCKED: REMARK SMILES IDX 25 14 23 15 24 16 5 17 6 18 7 19 8 20 11 21 9 22 10 23 12 24
DOCKED: REMARK SMILES IDX 13 25 17 26 14 27 16 28 15 29
DOCKED: REMARK H PARENT 3 5
DOCKED: USER                              x       y       z     vdW  Elec       q    Type
DOCKED: USER                           _______ _______ _______ _____ _____    ______ ____
DOCKED: ROOT
DOCKED: ATOM      1  C   UNL     1     138.528  70.080 223.174 -0.16 -0.04    +0.216 C  
DOCKED: ENDROOT
DOCKED: BRANCH   1   2
DOCKED: ATOM      2  N   UNL     1     138.913  71.429 222.967 -0.12 +0.08    -0.342 N  
DOCKED: ATOM      3  C   UNL     1     139.914  71.796 221.998 -0.17 -0.04    +0.270 C  
DOCKED: ATOM      4  O   UNL     1     140.487  70.918 221.279 -0.10 +0.04    -0.268 OA 
DOCKED: ATOM      5  H   UNL     1     138.478  72.219 223.519 -0.31 -0.08    +0.164 HD 
DOCKED: BRANCH   3   6
DOCKED: ATOM      6  C   UNL     1     140.262  73.226 221.859 -0.25 -0.01    +0.128 A  
DOCKED: ATOM      7  C   UNL     1     141.443  73.549 221.226 -0.27 -0.00    +0.035 A  
DOCKED: ATOM      8  N   UNL     1     139.488  74.206 222.314 -0.69 +0.04    -0.243 NA 
DOCKED: ATOM      9  C   UNL     1     141.828  74.846 221.061 -0.29 -0.00    +0.013 A  
DOCKED: ATOM     10  C   UNL     1     139.845  75.488 222.162 -0.25 -0.01    +0.071 A  
DOCKED: ATOM     11  C   UNL     1     141.009  75.841 221.542 -0.36 -0.00    +0.002 A  
DOCKED: ATOM     12  C   UNL     1     139.043  76.521 222.635 -0.28 -0.01    +0.030 A  
DOCKED: ATOM     13  C   UNL     1     141.425  77.145 221.359 -0.26 -0.02    +0.030 A  
DOCKED: ATOM     14  C   UNL     1     139.460  77.840 222.454 -0.32 -0.00    +0.023 A  
DOCKED: ATOM     15  C   UNL     1     140.630  78.174 221.828 -0.32 -0.01    +0.041 A  
DOCKED: ATOM     16  Cl  UNL     1     141.155  79.833 221.599 -0.45 +0.03    -0.084 Cl 
DOCKED: ENDBRANCH   3   6
DOCKED: ENDBRANCH   1   2
DOCKED: BRANCH   1  17
DOCKED: ATOM     17  C   UNL     1     138.171  69.631 224.510 -0.22 -0.03    +0.242 C  
DOCKED: ATOM     18  O   UNL     1     137.005  70.046 224.918 -0.14 +0.03    -0.273 OA 
DOCKED: BRANCH  17  19
DOCKED: ATOM     19  N   UNL     1     138.912  68.823 225.407 -0.19 +0.03    -0.331 N  
DOCKED: ATOM     20  C   UNL     1     139.638  67.586 225.194 -0.23 -0.01    +0.120 C  
DOCKED: ATOM     21  C   UNL     1     139.048  69.193 226.824 -0.24 -0.02    +0.153 C  
DOCKED: ATOM     22  C   UNL     1     140.668  67.599 226.339 -0.62 -0.01    +0.024 C  
DOCKED: ATOM     23  C   UNL     1     139.706  68.002 227.471 -0.49 -0.01    +0.035 C  
DOCKED: BRANCH  21  24
DOCKED: ATOM     24  C   UNL     1     139.991  70.336 227.001 -0.43 -0.02    +0.150 A  
DOCKED: ATOM     25  N   UNL     1     140.638  70.869 225.949 -0.35 +0.04    -0.239 NA 
DOCKED: ATOM     26  N   UNL     1     140.223  70.867 228.212 -0.40 +0.04    -0.239 NA 
DOCKED: ATOM     27  C   UNL     1     141.495  71.893 226.038 -0.41 -0.01    +0.115 A  
DOCKED: ATOM     28  C   UNL     1     141.074  71.895 228.348 -0.64 -0.03    +0.115 A  
DOCKED: ATOM     29  C   UNL     1     141.747  72.456 227.284 -0.61 -0.01    +0.040 A  
DOCKED: ENDBRANCH  21  24
DOCKED: ENDBRANCH  17  19
DOCKED: ENDBRANCH   1  17
DOCKED: TORSDOF 5
DOCKED: TER
DOCKED: ENDMDL
________________________________________________________________________________


    FINAL DOCKED STATE:
    ________________________


Run:   4 / 20
Time taken for this run:   0.042s

DOCKED: MODEL        4
DOCKED: USER    Run = 4
DOCKED: USER
DOCKED: USER    Estimated Free Energy of Binding    =  -6.49 kcal/mol  [=(1)+(2)+(3)-(4)]
DOCKED: USER
DOCKED: USER    (1) Final Intermolecular Energy     =  -7.98 kcal/mol
DOCKED: USER        vdW + Hbond + desolv Energy     =  -7.97 kcal/mol
DOCKED: USER        Electrostatic Energy            =  -0.01 kcal/mol
DOCKED: USER        Moving Ligand-Fixed Receptor    =  -7.98 kcal/mol
DOCKED: USER        Moving Ligand-Moving Receptor   =  +0.00 kcal/mol
DOCKED: USER    (2) Final Total Internal Energy     =  -2.72 kcal/mol
DOCKED: USER    (3) Torsional Free Energy           =  +1.49 kcal/mol
DOCKED: USER    (4) Unbound System's Energy         =  -2.72 kcal/mol
DOCKED: USER
DOCKED: USER
DOCKED: REMARK SMILES O=C(NCC(=O)N1CCC[C@H]1c1ncccn1)c1ccc2cc(Cl)ccc2n1
DOCKED: REMARK SMILES IDX 4 1 3 2 2 3 1 4 18 6 19 7 28 8 20 9 27 10 21 11 26 12 22 13
DOCKED: REMARK SMILES IDX 25 14 23 15 24 16 5 17 6 18 7 19 8 20 11 21 9 22 10 23 12 24
DOCKED: REMARK SMILES IDX 13 25 17 26 14 27 16 28 15 29
DOCKED: REMARK H PARENT 3 5
DOCKED: USER                              x       y       z     vdW  Elec       q    Type
DOCKED: USER                           _______ _______ _______ _____ _____    ______ ____
DOCKED: ROOT
DOCKED: ATOM      1  C   UNL     1     136.984  74.102 221.170 -0.07 -0.05    +0.216 C  
DOCKED: ENDROOT
DOCKED: BRANCH   1   2
DOCKED: ATOM      2  N   UNL     1     137.544  73.275 222.176 -0.05 +0.11    -0.342 N  
DOCKED: ATOM      3  C   UNL     1     137.060  71.941 222.424 -0.08 -0.07    +0.270 C  
DOCKED: ATOM      4  O   UNL     1     136.111  71.447 221.738 -0.02 +0.05    -0.268 OA 
DOCKED: ATOM      5  H   UNL     1     138.342  73.609 222.785 -0.53 -0.09    +0.164 HD 
DOCKED: BRANCH   3   6
DOCKED: ATOM      6  C   UNL     1     137.697  71.155 223.502 -0.19 -0.03    +0.128 A  
DOCKED: ATOM      7  C   UNL     1     137.085  69.987 223.904 -0.22 -0.00    +0.035 A  
DOCKED: ATOM      8  N   UNL     1     138.826  71.525 224.096 -0.13 +0.07    -0.243 NA 
DOCKED: ATOM      9  C   UNL     1     137.614  69.211 224.891 -0.31 -0.00    +0.013 A  
DOCKED: ATOM     10  C   UNL     1     139.366  70.778 225.069 -0.36 -0.01    +0.071 A  
DOCKED: ATOM     11  C   UNL     1     138.785  69.617 225.490 -0.39 -0.00    +0.002 A  
DOCKED: ATOM     12  C   UNL     1     140.548  71.156 225.697 -0.57 -0.00    +0.030 A  
DOCKED: ATOM     13  C   UNL     1     139.297  68.810 226.486 -0.50 -0.00    +0.030 A  
DOCKED: ATOM     14  C   UNL     1     141.070  70.345 226.705 -0.57 -0.00    +0.023 A  
DOCKED: ATOM     15  C   UNL     1     140.471  69.184 227.112 -0.57 -0.01    +0.041 A  
DOCKED: ATOM     16  Cl  UNL     1     141.127  68.162 228.381 -0.70 +0.02    -0.084 Cl 
DOCKED: ENDBRANCH   3   6
DOCKED: ENDBRANCH   1   2
DOCKED: BRANCH   1  17
DOCKED: ATOM     17  C   UNL     1     137.785  75.162 220.581 -0.05 -0.05    +0.242 C  
DOCKED: ATOM     18  O   UNL     1     137.422  75.498 219.375 -0.01 +0.05    -0.273 OA 
DOCKED: BRANCH  17  19
DOCKED: ATOM     19  N   UNL     1     138.887  75.860 221.136 -0.07 +0.07    -0.331 N  
DOCKED: ATOM     20  C   UNL     1     138.965  76.781 222.253 -0.27 -0.02    +0.120 C  
DOCKED: ATOM     21  C   UNL     1     140.238  75.707 220.576 -0.16 -0.04    +0.153 C  
DOCKED: ATOM     22  C   UNL     1     140.438  76.661 222.685 -0.21 -0.01    +0.024 C  
DOCKED: ATOM     23  C   UNL     1     141.067  76.749 221.283 -0.32 -0.01    +0.035 C  
DOCKED: BRANCH  21  24
DOCKED: ATOM     24  C   UNL     1     140.833  74.387 220.936 -0.21 -0.03    +0.150 A  
DOCKED: ATOM     25  N   UNL     1     140.356  73.673 221.971 -0.75 +0.02    -0.239 NA 
DOCKED: ATOM     26  N   UNL     1     141.858  73.872 220.240 -0.11 +0.05    -0.239 NA 
DOCKED: ATOM     27  C   UNL     1     140.842  72.484 222.347 -0.23 -0.01    +0.115 A  
DOCKED: ATOM     28  C   UNL     1     142.377  72.682 220.581 -0.20 -0.02    +0.115 A  
DOCKED: ATOM     29  C   UNL     1     141.904  71.934 221.638 -0.11 -0.00    +0.040 A  
DOCKED: ENDBRANCH  21  24
DOCKED: ENDBRANCH  17  19
DOCKED: ENDBRANCH   1  17
DOCKED: TORSDOF 5
DOCKED: TER
DOCKED: ENDMDL
________________________________________________________________________________


    FINAL DOCKED STATE:
    ________________________


Run:   5 / 20
Time taken for this run:   0.042s

DOCKED: MODEL        5
DOCKED: USER    Run = 5
DOCKED: USER
DOCKED: USER    Estimated Free Energy of Binding    =  -6.88 kcal/mol  [=(1)+(2)+(3)-(4)]
DOCKED: USER
DOCKED: USER    (1) Final Intermolecular Energy     =  -8.37 kcal/mol
DOCKED: USER        vdW + Hbond + desolv Energy     =  -8.33 kcal/mol
DOCKED: USER        Electrostatic Energy            =  -0.04 kcal/mol
DOCKED: USER        Moving Ligand-Fixed Receptor    =  -8.37 kcal/mol
DOCKED: USER        Moving Ligand-Moving Receptor   =  +0.00 kcal/mol
DOCKED: USER    (2) Final Total Internal Energy     =  -2.68 kcal/mol
DOCKED: USER    (3) Torsional Free Energy           =  +1.49 kcal/mol
DOCKED: USER    (4) Unbound System's Energy         =  -2.68 kcal/mol
DOCKED: USER
DOCKED: USER
DOCKED: REMARK SMILES O=C(NCC(=O)N1CCC[C@H]1c1ncccn1)c1ccc2cc(Cl)ccc2n1
DOCKED: REMARK SMILES IDX 4 1 3 2 2 3 1 4 18 6 19 7 28 8 20 9 27 10 21 11 26 12 22 13
DOCKED: REMARK SMILES IDX 25 14 23 15 24 16 5 17 6 18 7 19 8 20 11 21 9 22 10 23 12 24
DOCKED: REMARK SMILES IDX 13 25 17 26 14 27 16 28 15 29
DOCKED: REMARK H PARENT 3 5
DOCKED: USER                              x       y       z     vdW  Elec       q    Type
DOCKED: USER                           _______ _______ _______ _____ _____    ______ ____
DOCKED: ROOT
DOCKED: ATOM      1  C   UNL     1     137.295  73.868 221.222 -0.07 -0.05    +0.216 C  
DOCKED: ENDROOT
DOCKED: BRANCH   1   2
DOCKED: ATOM      2  N   UNL     1     137.844  73.072 222.260 -0.05 +0.11    -0.342 N  
DOCKED: ATOM      3  C   UNL     1     137.529  71.673 222.395 -0.09 -0.06    +0.270 C  
DOCKED: ATOM      4  O   UNL     1     136.748  71.092 221.578 -0.02 +0.05    -0.268 OA 
DOCKED: ATOM      5  H   UNL     1     138.508  73.478 222.976 -0.52 -0.10    +0.164 HD 
DOCKED: BRANCH   3   6
DOCKED: ATOM      6  C   UNL     1     138.138  70.925 223.515 -0.21 -0.03    +0.128 A  
DOCKED: ATOM      7  C   UNL     1     137.733  69.623 223.725 -0.24 -0.00    +0.035 A  
DOCKED: ATOM      8  N   UNL     1     139.053  71.449 224.323 -0.17 +0.07    -0.243 NA 
DOCKED: ATOM      9  C   UNL     1     138.251  68.872 224.737 -0.34 -0.00    +0.013 A  
DOCKED: ATOM     10  C   UNL     1     139.578  70.730 225.325 -0.40 -0.01    +0.071 A  
DOCKED: ATOM     11  C   UNL     1     139.198  69.440 225.558 -0.43 -0.00    +0.002 A  
DOCKED: ATOM     12  C   UNL     1     140.536  71.270 226.175 -0.60 -0.00    +0.030 A  
DOCKED: ATOM     13  C   UNL     1     139.704  68.655 226.575 -0.55 -0.00    +0.030 A  
DOCKED: ATOM     14  C   UNL     1     141.051  70.481 227.204 -0.60 -0.00    +0.023 A  
DOCKED: ATOM     15  C   UNL     1     140.657  69.189 227.422 -0.59 -0.01    +0.041 A  
DOCKED: ATOM     16  Cl  UNL     1     141.304  68.195 228.716 -0.62 +0.02    -0.084 Cl 
DOCKED: ENDBRANCH   3   6
DOCKED: ENDBRANCH   1   2
DOCKED: BRANCH   1  17
DOCKED: ATOM     17  C   UNL     1     137.585  75.292 221.178 -0.09 -0.05    +0.242 C  
DOCKED: ATOM     18  O   UNL     1     136.548  76.039 220.924 -0.03 +0.05    -0.273 OA 
DOCKED: BRANCH  17  19
DOCKED: ATOM     19  N   UNL     1     138.822  75.956 221.367 -0.09 +0.07    -0.331 N  
DOCKED: ATOM     20  C   UNL     1     139.232  76.943 222.346 -0.28 -0.02    +0.120 C  
DOCKED: ATOM     21  C   UNL     1     139.970  75.683 220.487 -0.13 -0.04    +0.153 C  
DOCKED: ATOM     22  C   UNL     1     140.761  76.763 222.387 -0.38 -0.01    +0.024 C  
DOCKED: ATOM     23  C   UNL     1     140.999  76.717 220.867 -0.28 -0.01    +0.035 C  
DOCKED: BRANCH  21  24
DOCKED: ATOM     24  C   UNL     1     140.583  74.357 220.785 -0.18 -0.03    +0.150 A  
DOCKED: ATOM     25  N   UNL     1     140.428  73.777 221.989 -0.77 +0.01    -0.239 NA 
DOCKED: ATOM     26  N   UNL     1     141.306  73.700 219.864 -0.06 +0.05    -0.239 NA 
DOCKED: ATOM     27  C   UNL     1     140.950  72.591 222.322 -0.20 -0.00    +0.115 A  
DOCKED: ATOM     28  C   UNL     1     141.848  72.508 220.153 -0.14 -0.02    +0.115 A  
DOCKED: ATOM     29  C   UNL     1     141.702  71.897 221.380 -0.21 -0.00    +0.040 A  
DOCKED: ENDBRANCH  21  24
DOCKED: ENDBRANCH  17  19
DOCKED: ENDBRANCH   1  17
DOCKED: TORSDOF 5
DOCKED: TER
DOCKED: ENDMDL
________________________________________________________________________________


    FINAL DOCKED STATE:
    ________________________


Run:   6 / 20
Time taken for this run:   0.042s

DOCKED: MODEL        6
DOCKED: USER    Run = 6
DOCKED: USER
DOCKED: USER    Estimated Free Energy of Binding    =  -8.15 kcal/mol  [=(1)+(2)+(3)-(4)]
DOCKED: USER
DOCKED: USER    (1) Final Intermolecular Energy     =  -9.64 kcal/mol
DOCKED: USER        vdW + Hbond + desolv Energy     =  -9.64 kcal/mol
DOCKED: USER        Electrostatic Energy            =  +0.00 kcal/mol
DOCKED: USER        Moving Ligand-Fixed Receptor    =  -9.64 kcal/mol
DOCKED: USER        Moving Ligand-Moving Receptor   =  +0.00 kcal/mol
DOCKED: USER    (2) Final Total Internal Energy     =  -1.59 kcal/mol
DOCKED: USER    (3) Torsional Free Energy           =  +1.49 kcal/mol
DOCKED: USER    (4) Unbound System's Energy         =  -1.59 kcal/mol
DOCKED: USER
DOCKED: USER
DOCKED: REMARK SMILES O=C(NCC(=O)N1CCC[C@H]1c1ncccn1)c1ccc2cc(Cl)ccc2n1
DOCKED: REMARK SMILES IDX 4 1 3 2 2 3 1 4 18 6 19 7 28 8 20 9 27 10 21 11 26 12 22 13
DOCKED: REMARK SMILES IDX 25 14 23 15 24 16 5 17 6 18 7 19 8 20 11 21 9 22 10 23 12 24
DOCKED: REMARK SMILES IDX 13 25 17 26 14 27 16 28 15 29
DOCKED: REMARK H PARENT 3 5
DOCKED: USER                              x       y       z     vdW  Elec       q    Type
DOCKED: USER                           _______ _______ _______ _____ _____    ______ ____
DOCKED: ROOT
DOCKED: ATOM      1  C   UNL     1     139.487  75.069 221.050 -0.16 -0.05    +0.216 C  
DOCKED: ENDROOT
DOCKED: BRANCH   1   2
DOCKED: ATOM      2  N   UNL     1     139.611  74.141 222.114 -0.13 +0.05    -0.342 N  
DOCKED: ATOM      3  C   UNL     1     139.824  72.735 221.878 -0.18 -0.04    +0.270 C  
DOCKED: ATOM      4  O   UNL     1     139.920  72.273 220.698 -0.07 +0.05    -0.268 OA 
DOCKED: ATOM      5  H   UNL     1     139.550  74.446 223.125 -0.52 -0.01    +0.164 HD 
DOCKED: BRANCH   3   6
DOCKED: ATOM      6  C   UNL     1     139.928  71.838 223.048 -0.29 -0.02    +0.128 A  
DOCKED: ATOM      7  C   UNL     1     139.496  70.536 222.910 -0.24 -0.01    +0.035 A  
DOCKED: ATOM      8  N   UNL     1     140.418  72.230 224.219 -0.11 +0.04    -0.243 NA 
DOCKED: ATOM      9  C   UNL     1     139.562  69.652 223.945 -0.29 -0.00    +0.013 A  
DOCKED: ATOM     10  C   UNL     1     140.494  71.379 225.252 -0.49 -0.01    +0.071 A  
DOCKED: ATOM     11  C   UNL     1     140.074  70.085 225.147 -0.44 -0.00    +0.002 A  
DOCKED: ATOM     12  C   UNL     1     141.005  71.780 226.481 -0.68 -0.00    +0.030 A  
DOCKED: ATOM     13  C   UNL     1     140.128  69.167 226.177 -0.50 -0.01    +0.030 A  
DOCKED: ATOM     14  C   UNL     1     141.062  70.857 227.525 -0.66 -0.00    +0.023 A  
DOCKED: ATOM     15  C   UNL     1     140.636  69.562 227.400 -0.57 -0.01    +0.041 A  
DOCKED: ATOM     16  Cl  UNL     1     140.707  68.399 228.713 -0.69 +0.02    -0.084 Cl 
DOCKED: ENDBRANCH   3   6
DOCKED: ENDBRANCH   1   2
DOCKED: BRANCH   1  17
DOCKED: ATOM     17  C   UNL     1     139.687  76.486 221.306 -0.17 -0.06    +0.242 C  
DOCKED: ATOM     18  O   UNL     1     139.346  76.864 222.506 -0.25 +0.05    -0.273 OA 
DOCKED: BRANCH  17  19
DOCKED: ATOM     19  N   UNL     1     140.189  77.487 220.438 -0.04 +0.11    -0.331 N  
DOCKED: ATOM     20  C   UNL     1     139.544  78.238 219.379 -0.05 -0.04    +0.120 C  
DOCKED: ATOM     21  C   UNL     1     141.588  77.933 220.526 -0.24 -0.09    +0.153 C  
DOCKED: ATOM     22  C   UNL     1     140.406  79.511 219.295 -0.13 -0.01    +0.024 C  
DOCKED: ATOM     23  C   UNL     1     141.783  78.824 219.326 -0.27 -0.02    +0.035 C  
DOCKED: BRANCH  21  24
DOCKED: ATOM     24  C   UNL     1     141.812  78.794 221.724 -0.34 -0.08    +0.150 A  
DOCKED: ATOM     25  N   UNL     1     141.615  78.316 222.966 -0.31 +0.10    -0.239 NA 
DOCKED: ATOM     26  N   UNL     1     142.218  80.067 221.600 -0.27 +0.11    -0.239 NA 
DOCKED: ATOM     27  C   UNL     1     141.798  79.033 224.081 -0.50 -0.03    +0.115 A  
DOCKED: ATOM     28  C   UNL     1     142.414  80.823 222.692 -0.49 -0.03    +0.115 A  
DOCKED: ATOM     29  C   UNL     1     142.217  80.354 223.973 -0.56 -0.01    +0.040 A  
DOCKED: ENDBRANCH  21  24
DOCKED: ENDBRANCH  17  19
DOCKED: ENDBRANCH   1  17
DOCKED: TORSDOF 5
DOCKED: TER
DOCKED: ENDMDL
________________________________________________________________________________


    FINAL DOCKED STATE:
    ________________________


Run:   7 / 20
Time taken for this run:   0.042s

DOCKED: MODEL        7
DOCKED: USER    Run = 7
DOCKED: USER
DOCKED: USER    Estimated Free Energy of Binding    =  -8.13 kcal/mol  [=(1)+(2)+(3)-(4)]
DOCKED: USER
DOCKED: USER    (1) Final Intermolecular Energy     =  -9.62 kcal/mol
DOCKED: USER        vdW + Hbond + desolv Energy     =  -9.57 kcal/mol
DOCKED: USER        Electrostatic Energy            =  -0.05 kcal/mol
DOCKED: USER        Moving Ligand-Fixed Receptor    =  -9.62 kcal/mol
DOCKED: USER        Moving Ligand-Moving Receptor   =  +0.00 kcal/mol
DOCKED: USER    (2) Final Total Internal Energy     =  -1.87 kcal/mol
DOCKED: USER    (3) Torsional Free Energy           =  +1.49 kcal/mol
DOCKED: USER    (4) Unbound System's Energy         =  -1.87 kcal/mol
DOCKED: USER
DOCKED: USER
DOCKED: REMARK SMILES O=C(NCC(=O)N1CCC[C@H]1c1ncccn1)c1ccc2cc(Cl)ccc2n1
DOCKED: REMARK SMILES IDX 4 1 3 2 2 3 1 4 18 6 19 7 28 8 20 9 27 10 21 11 26 12 22 13
DOCKED: REMARK SMILES IDX 25 14 23 15 24 16 5 17 6 18 7 19 8 20 11 21 9 22 10 23 12 24
DOCKED: REMARK SMILES IDX 13 25 17 26 14 27 16 28 15 29
DOCKED: REMARK H PARENT 3 5
DOCKED: USER                              x       y       z     vdW  Elec       q    Type
DOCKED: USER                           _______ _______ _______ _____ _____    ______ ____
DOCKED: ROOT
DOCKED: ATOM      1  C   UNL     1     138.350  70.086 223.171 -0.16 -0.04    +0.216 C  
DOCKED: ENDROOT
DOCKED: BRANCH   1   2
DOCKED: ATOM      2  N   UNL     1     138.772  71.423 222.959 -0.11 +0.08    -0.342 N  
DOCKED: ATOM      3  C   UNL     1     139.800  71.756 222.007 -0.17 -0.05    +0.270 C  
DOCKED: ATOM      4  O   UNL     1     140.366  70.858 221.307 -0.10 +0.04    -0.268 OA 
DOCKED: ATOM      5  H   UNL     1     138.346  72.229 223.495 -0.33 -0.08    +0.164 HD 
DOCKED: BRANCH   3   6
DOCKED: ATOM      6  C   UNL     1     140.185  73.176 221.861 -0.25 -0.02    +0.128 A  
DOCKED: ATOM      7  C   UNL     1     141.365  73.467 221.209 -0.27 -0.00    +0.035 A  
DOCKED: ATOM      8  N   UNL     1     139.447  74.177 222.329 -0.67 +0.04    -0.243 NA 
DOCKED: ATOM      9  C   UNL     1     141.783  74.752 221.037 -0.29 -0.00    +0.013 A  
DOCKED: ATOM     10  C   UNL     1     139.838  75.449 222.171 -0.24 -0.01    +0.071 A  
DOCKED: ATOM     11  C   UNL     1     141.000  75.770 221.531 -0.36 -0.00    +0.002 A  
DOCKED: ATOM     12  C   UNL     1     139.072  76.504 222.656 -0.27 -0.01    +0.030 A  
DOCKED: ATOM     13  C   UNL     1     141.449  77.062 221.341 -0.25 -0.02    +0.030 A  
DOCKED: ATOM     14  C   UNL     1     139.522  77.811 222.468 -0.32 -0.00    +0.023 A  
DOCKED: ATOM     15  C   UNL     1     140.691  78.112 221.823 -0.33 -0.01    +0.041 A  
DOCKED: ATOM     16  Cl  UNL     1     141.258  79.756 221.584 -0.46 +0.03    -0.084 Cl 
DOCKED: ENDBRANCH   3   6
DOCKED: ENDBRANCH   1   2
DOCKED: BRANCH   1  17
DOCKED: ATOM     17  C   UNL     1     138.057  69.630 224.520 -0.21 -0.03    +0.242 C  
DOCKED: ATOM     18  O   UNL     1     136.908  70.036 224.982 -0.14 +0.02    -0.273 OA 
DOCKED: BRANCH  17  19
DOCKED: ATOM     19  N   UNL     1     138.844  68.823 225.379 -0.19 +0.03    -0.331 N  
DOCKED: ATOM     20  C   UNL     1     139.570  67.594 225.128 -0.25 -0.01    +0.120 C  
DOCKED: ATOM     21  C   UNL     1     139.038  69.187 226.791 -0.24 -0.02    +0.153 C  
DOCKED: ATOM     22  C   UNL     1     140.649  67.610 226.226 -0.59 -0.01    +0.024 C  
DOCKED: ATOM     23  C   UNL     1     139.734  67.997 227.401 -0.52 -0.01    +0.035 C  
DOCKED: BRANCH  21  24
DOCKED: ATOM     24  C   UNL     1     139.978  70.337 226.934 -0.43 -0.02    +0.150 A  
DOCKED: ATOM     25  N   UNL     1     140.256  70.857 228.143 -0.41 +0.04    -0.239 NA 
DOCKED: ATOM     26  N   UNL     1     140.576  70.885 225.865 -0.35 +0.04    -0.239 NA 
DOCKED: ATOM     27  C   UNL     1     141.089  71.886 228.342 -0.65 -0.03    +0.115 A  
DOCKED: ATOM     28  C   UNL     1     141.419  71.918 226.017 -0.40 -0.01    +0.115 A  
DOCKED: ATOM     29  C   UNL     1     141.716  72.467 227.245 -0.62 -0.01    +0.040 A  
DOCKED: ENDBRANCH  21  24
DOCKED: ENDBRANCH  17  19
DOCKED: ENDBRANCH   1  17
DOCKED: TORSDOF 5
DOCKED: TER
DOCKED: ENDMDL
________________________________________________________________________________


    FINAL DOCKED STATE:
    ________________________


Run:   8 / 20
Time taken for this run:   0.042s

DOCKED: MODEL        8
DOCKED: USER    Run = 8
DOCKED: USER
DOCKED: USER    Estimated Free Energy of Binding    =  -6.91 kcal/mol  [=(1)+(2)+(3)-(4)]
DOCKED: USER
DOCKED: USER    (1) Final Intermolecular Energy     =  -8.40 kcal/mol
DOCKED: USER        vdW + Hbond + desolv Energy     =  -8.37 kcal/mol
DOCKED: USER        Electrostatic Energy            =  -0.04 kcal/mol
DOCKED: USER        Moving Ligand-Fixed Receptor    =  -8.40 kcal/mol
DOCKED: USER        Moving Ligand-Moving Receptor   =  +0.00 kcal/mol
DOCKED: USER    (2) Final Total Internal Energy     =  -2.66 kcal/mol
DOCKED: USER    (3) Torsional Free Energy           =  +1.49 kcal/mol
DOCKED: USER    (4) Unbound System's Energy         =  -2.66 kcal/mol
DOCKED: USER
DOCKED: USER
DOCKED: REMARK SMILES O=C(NCC(=O)N1CCC[C@H]1c1ncccn1)c1ccc2cc(Cl)ccc2n1
DOCKED: REMARK SMILES IDX 4 1 3 2 2 3 1 4 18 6 19 7 28 8 20 9 27 10 21 11 26 12 22 13
DOCKED: REMARK SMILES IDX 25 14 23 15 24 16 5 17 6 18 7 19 8 20 11 21 9 22 10 23 12 24
DOCKED: REMARK SMILES IDX 13 25 17 26 14 27 16 28 15 29
DOCKED: REMARK H PARENT 3 5
DOCKED: USER                              x       y       z     vdW  Elec       q    Type
DOCKED: USER                           _______ _______ _______ _____ _____    ______ ____
DOCKED: ROOT
DOCKED: ATOM      1  C   UNL     1     137.331  73.817 221.238 -0.07 -0.05    +0.216 C  
DOCKED: ENDROOT
DOCKED: BRANCH   1   2
DOCKED: ATOM      2  N   UNL     1     137.886  73.022 222.272 -0.05 +0.11    -0.342 N  
DOCKED: ATOM      3  C   UNL     1     137.605  71.614 222.387 -0.09 -0.06    +0.270 C  
DOCKED: ATOM      4  O   UNL     1     136.849  71.024 221.552 -0.02 +0.05    -0.268 OA 
DOCKED: ATOM      5  H   UNL     1     138.531  73.435 223.002 -0.52 -0.10    +0.164 HD 
DOCKED: BRANCH   3   6
DOCKED: ATOM      6  C   UNL     1     138.218  70.866 223.505 -0.21 -0.03    +0.128 A  
DOCKED: ATOM      7  C   UNL     1     137.865  69.544 223.675 -0.24 -0.00    +0.035 A  
DOCKED: ATOM      8  N   UNL     1     139.090  71.411 224.347 -0.18 +0.07    -0.243 NA 
DOCKED: ATOM      9  C   UNL     1     138.391  68.793 224.683 -0.34 -0.00    +0.013 A  
DOCKED: ATOM     10  C   UNL     1     139.620  70.692 225.345 -0.41 -0.01    +0.071 A  
DOCKED: ATOM     11  C   UNL     1     139.291  69.382 225.541 -0.43 -0.00    +0.002 A  
DOCKED: ATOM     12  C   UNL     1     140.534  71.253 226.232 -0.60 -0.00    +0.030 A  
DOCKED: ATOM     13  C   UNL     1     139.807  68.596 226.552 -0.56 -0.00    +0.030 A  
DOCKED: ATOM     14  C   UNL     1     141.057  70.464 227.256 -0.59 -0.00    +0.023 A  
DOCKED: ATOM     15  C   UNL     1     140.714  69.151 227.435 -0.59 -0.01    +0.041 A  
DOCKED: ATOM     16  Cl  UNL     1     141.372  68.156 228.723 -0.60 +0.02    -0.084 Cl 
DOCKED: ENDBRANCH   3   6
DOCKED: ENDBRANCH   1   2
DOCKED: BRANCH   1  17
DOCKED: ATOM     17  C   UNL     1     137.565  75.251 221.229 -0.09 -0.05    +0.242 C  
DOCKED: ATOM     18  O   UNL     1     136.492  75.965 221.038 -0.03 +0.05    -0.273 OA 
DOCKED: BRANCH  17  19
DOCKED: ATOM     19  N   UNL     1     138.783  75.957 221.392 -0.09 +0.07    -0.331 N  
DOCKED: ATOM     20  C   UNL     1     139.175  76.966 222.357 -0.27 -0.02    +0.120 C  
DOCKED: ATOM     21  C   UNL     1     139.925  75.713 220.498 -0.13 -0.04    +0.153 C  
DOCKED: ATOM     22  C   UNL     1     140.709  76.836 222.375 -0.40 -0.01    +0.024 C  
DOCKED: ATOM     23  C   UNL     1     140.925  76.783 220.852 -0.27 -0.01    +0.035 C  
DOCKED: BRANCH  21  24
DOCKED: ATOM     24  C   UNL     1     140.586  74.410 220.799 -0.18 -0.03    +0.150 A  
DOCKED: ATOM     25  N   UNL     1     140.412  73.804 221.987 -0.77 +0.01    -0.239 NA 
DOCKED: ATOM     26  N   UNL     1     141.370  73.802 219.896 -0.07 +0.05    -0.239 NA 
DOCKED: ATOM     27  C   UNL     1     140.974  72.636 222.321 -0.19 -0.00    +0.115 A  
DOCKED: ATOM     28  C   UNL     1     141.954  72.629 220.187 -0.15 -0.02    +0.115 A  
DOCKED: ATOM     29  C   UNL     1     141.791  71.992 221.398 -0.21 -0.00    +0.040 A  
DOCKED: ENDBRANCH  21  24
DOCKED: ENDBRANCH  17  19
DOCKED: ENDBRANCH   1  17
DOCKED: TORSDOF 5
DOCKED: TER
DOCKED: ENDMDL
________________________________________________________________________________


    FINAL DOCKED STATE:
    ________________________


Run:   9 / 20
Time taken for this run:   0.042s

DOCKED: MODEL        9
DOCKED: USER    Run = 9
DOCKED: USER
DOCKED: USER    Estimated Free Energy of Binding    =  -6.49 kcal/mol  [=(1)+(2)+(3)-(4)]
DOCKED: USER
DOCKED: USER    (1) Final Intermolecular Energy     =  -7.98 kcal/mol
DOCKED: USER        vdW + Hbond + desolv Energy     =  -7.96 kcal/mol
DOCKED: USER        Electrostatic Energy            =  -0.02 kcal/mol
DOCKED: USER        Moving Ligand-Fixed Receptor    =  -7.98 kcal/mol
DOCKED: USER        Moving Ligand-Moving Receptor   =  +0.00 kcal/mol
DOCKED: USER    (2) Final Total Internal Energy     =  -2.74 kcal/mol
DOCKED: USER    (3) Torsional Free Energy           =  +1.49 kcal/mol
DOCKED: USER    (4) Unbound System's Energy         =  -2.74 kcal/mol
DOCKED: USER
DOCKED: USER
DOCKED: REMARK SMILES O=C(NCC(=O)N1CCC[C@H]1c1ncccn1)c1ccc2cc(Cl)ccc2n1
DOCKED: REMARK SMILES IDX 4 1 3 2 2 3 1 4 18 6 19 7 28 8 20 9 27 10 21 11 26 12 22 13
DOCKED: REMARK SMILES IDX 25 14 23 15 24 16 5 17 6 18 7 19 8 20 11 21 9 22 10 23 12 24
DOCKED: REMARK SMILES IDX 13 25 17 26 14 27 16 28 15 29
DOCKED: REMARK H PARENT 3 5
DOCKED: USER                              x       y       z     vdW  Elec       q    Type
DOCKED: USER                           _______ _______ _______ _____ _____    ______ ____
DOCKED: ROOT
DOCKED: ATOM      1  C   UNL     1     137.262  73.803 220.948 -0.06 -0.05    +0.216 C  
DOCKED: ENDROOT
DOCKED: BRANCH   1   2
DOCKED: ATOM      2  N   UNL     1     137.815  73.056 222.019 -0.06 +0.10    -0.342 N  
DOCKED: ATOM      3  C   UNL     1     137.527  71.656 222.200 -0.08 -0.06    +0.270 C  
DOCKED: ATOM      4  O   UNL     1     136.768  71.030 221.395 -0.02 +0.05    -0.268 OA 
DOCKED: ATOM      5  H   UNL     1     138.462  73.501 222.727 -0.53 -0.08    +0.164 HD 
DOCKED: BRANCH   3   6
DOCKED: ATOM      6  C   UNL     1     138.138  70.961 223.353 -0.20 -0.03    +0.128 A  
DOCKED: ATOM      7  C   UNL     1     137.700  69.688 223.652 -0.23 -0.00    +0.035 A  
DOCKED: ATOM      8  N   UNL     1     139.086  71.506 224.107 -0.18 +0.07    -0.243 NA 
DOCKED: ATOM      9  C   UNL     1     138.217  68.986 224.699 -0.34 -0.00    +0.013 A  
DOCKED: ATOM     10  C   UNL     1     139.611  70.835 225.141 -0.40 -0.01    +0.071 A  
DOCKED: ATOM     11  C   UNL     1     139.198  69.575 225.464 -0.42 -0.00    +0.002 A  
DOCKED: ATOM     12  C   UNL     1     140.604  71.397 225.937 -0.59 -0.00    +0.030 A  
DOCKED: ATOM     13  C   UNL     1     139.704  68.839 226.517 -0.53 -0.00    +0.030 A  
DOCKED: ATOM     14  C   UNL     1     141.117  70.658 227.003 -0.59 -0.00    +0.023 A  
DOCKED: ATOM     15  C   UNL     1     140.690  69.395 227.310 -0.57 -0.01    +0.041 A  
DOCKED: ATOM     16  Cl  UNL     1     141.336  68.464 228.650 -0.60 +0.02    -0.084 Cl 
DOCKED: ENDBRANCH   3   6
DOCKED: ENDBRANCH   1   2
DOCKED: BRANCH   1  17
DOCKED: ATOM     17  C   UNL     1     137.770  75.134 220.662 -0.06 -0.05    +0.242 C  
DOCKED: ATOM     18  O   UNL     1     137.068  75.796 219.785 -0.01 +0.05    -0.273 OA 
DOCKED: BRANCH  17  19
DOCKED: ATOM     19  N   UNL     1     138.906  75.790 221.199 -0.08 +0.07    -0.331 N  
DOCKED: ATOM     20  C   UNL     1     139.046  76.660 222.350 -0.27 -0.02    +0.120 C  
DOCKED: ATOM     21  C   UNL     1     140.230  75.640 220.577 -0.16 -0.04    +0.153 C  
DOCKED: ATOM     22  C   UNL     1     140.533  76.499 222.714 -0.13 -0.01    +0.024 C  
DOCKED: ATOM     23  C   UNL     1     141.106  76.637 221.292 -0.31 -0.01    +0.035 C  
DOCKED: BRANCH  21  24
DOCKED: ATOM     24  C   UNL     1     140.816  74.296 220.855 -0.20 -0.03    +0.150 A  
DOCKED: ATOM     25  N   UNL     1     141.678  73.725 219.995 -0.08 +0.05    -0.239 NA 
DOCKED: ATOM     26  N   UNL     1     140.503  73.618 221.970 -0.72 +0.01    -0.239 NA 
DOCKED: ATOM     27  C   UNL     1     142.240  72.525 220.184 -0.16 -0.02    +0.115 A  
DOCKED: ATOM     28  C   UNL     1     141.042  72.411 222.201 -0.21 -0.01    +0.115 A  
DOCKED: ATOM     29  C   UNL     1     141.927  71.808 221.333 -0.17 -0.00    +0.040 A  
DOCKED: ENDBRANCH  21  24
DOCKED: ENDBRANCH  17  19
DOCKED: ENDBRANCH   1  17
DOCKED: TORSDOF 5
DOCKED: TER
DOCKED: ENDMDL
________________________________________________________________________________


    FINAL DOCKED STATE:
    ________________________


Run:   10 / 20
Time taken for this run:   0.042s

DOCKED: MODEL        10
DOCKED: USER    Run = 10
DOCKED: USER
DOCKED: USER    Estimated Free Energy of Binding    =  -7.81 kcal/mol  [=(1)+(2)+(3)-(4)]
DOCKED: USER
DOCKED: USER    (1) Final Intermolecular Energy     =  -9.30 kcal/mol
DOCKED: USER        vdW + Hbond + desolv Energy     =  -9.21 kcal/mol
DOCKED: USER        Electrostatic Energy            =  -0.09 kcal/mol
DOCKED: USER        Moving Ligand-Fixed Receptor    =  -9.30 kcal/mol
DOCKED: USER        Moving Ligand-Moving Receptor   =  +0.00 kcal/mol
DOCKED: USER    (2) Final Total Internal Energy     =  -1.52 kcal/mol
DOCKED: USER    (3) Torsional Free Energy           =  +1.49 kcal/mol
DOCKED: USER    (4) Unbound System's Energy         =  -1.52 kcal/mol
DOCKED: USER
DOCKED: USER
DOCKED: REMARK SMILES O=C(NCC(=O)N1CCC[C@H]1c1ncccn1)c1ccc2cc(Cl)ccc2n1
DOCKED: REMARK SMILES IDX 4 1 3 2 2 3 1 4 18 6 19 7 28 8 20 9 27 10 21 11 26 12 22 13
DOCKED: REMARK SMILES IDX 25 14 23 15 24 16 5 17 6 18 7 19 8 20 11 21 9 22 10 23 12 24
DOCKED: REMARK SMILES IDX 13 25 17 26 14 27 16 28 15 29
DOCKED: REMARK H PARENT 3 5
DOCKED: USER                              x       y       z     vdW  Elec       q    Type
DOCKED: USER                           _______ _______ _______ _____ _____    ______ ____
DOCKED: ROOT
DOCKED: ATOM      1  C   UNL     1     135.417  69.390 225.386 -0.09 -0.01    +0.216 C  
DOCKED: ENDROOT
DOCKED: BRANCH   1   2
DOCKED: ATOM      2  N   UNL     1     134.873  70.645 225.759 -0.05 +0.02    -0.342 N  
DOCKED: ATOM      3  C   UNL     1     133.545  70.769 226.304 -0.22 -0.02    +0.270 C  
DOCKED: ATOM      4  O   UNL     1     132.809  69.749 226.482 -0.48 -0.01    -0.268 OA 
DOCKED: ATOM      5  H   UNL     1     135.424  71.541 225.651 +0.08 -0.00    +0.164 HD 
DOCKED: BRANCH   3   6
DOCKED: ATOM      6  C   UNL     1     133.056  72.120 226.653 -0.32 -0.01    +0.128 A  
DOCKED: ATOM      7  C   UNL     1     131.819  72.229 227.253 -0.38 -0.01    +0.035 A  
DOCKED: ATOM      8  N   UNL     1     133.753  73.225 226.416 -0.66 -0.01    -0.243 NA 
DOCKED: ATOM      9  C   UNL     1     131.304  73.440 227.603 -0.38 -0.00    +0.013 A  
DOCKED: ATOM     10  C   UNL     1     133.268  74.428 226.753 -0.22 +0.01    +0.071 A  
DOCKED: ATOM     11  C   UNL     1     132.047  74.570 227.346 -0.41 -0.00    +0.002 A  
DOCKED: ATOM     12  C   UNL     1     133.990  75.591 226.509 -0.40 +0.00    +0.030 A  
DOCKED: ATOM     13  C   UNL     1     131.499  75.783 227.713 -0.31 -0.00    +0.030 A  
DOCKED: ATOM     14  C   UNL     1     133.441  76.820 226.877 -0.36 -0.00    +0.023 A  
DOCKED: ATOM     15  C   UNL     1     132.214  76.941 227.472 -0.31 -0.00    +0.041 A  
DOCKED: ATOM     16  Cl  UNL     1     131.522  78.486 227.935 -0.30 -0.01    -0.084 Cl 
DOCKED: ENDBRANCH   3   6
DOCKED: ENDBRANCH   1   2
DOCKED: BRANCH   1  17
DOCKED: ATOM     17  C   UNL     1     136.059  69.241 224.090 -0.12 -0.01    +0.242 C  
DOCKED: ATOM     18  O   UNL     1     135.378  68.530 223.237 -0.37 +0.02    -0.273 OA 
DOCKED: BRANCH  17  19
DOCKED: ATOM     19  N   UNL     1     137.303  69.755 223.648 -0.09 +0.04    -0.331 N  
DOCKED: ATOM     20  C   UNL     1     137.680  71.083 223.203 -0.18 -0.03    +0.120 C  
DOCKED: ATOM     21  C   UNL     1     138.496  68.897 223.583 -0.22 -0.02    +0.153 C  
DOCKED: ATOM     22  C   UNL     1     139.196  71.111 223.475 -0.33 -0.01    +0.024 C  
DOCKED: ATOM     23  C   UNL     1     139.533  69.733 222.877 -0.16 -0.01    +0.035 C  
DOCKED: BRANCH  21  24
DOCKED: ATOM     24  C   UNL     1     139.042  68.619 224.944 -0.32 -0.01    +0.150 A  
DOCKED: ATOM     25  N   UNL     1     139.026  69.563 225.902 -0.22 +0.03    -0.239 NA 
DOCKED: ATOM     26  N   UNL     1     139.564  67.423 225.254 -0.82 +0.01    -0.239 NA 
DOCKED: ATOM     27  C   UNL     1     139.498  69.381 227.141 -0.45 -0.02    +0.115 A  
DOCKED: ATOM     28  C   UNL     1     140.049  67.195 226.484 -0.50 -0.02    +0.115 A  
DOCKED: ATOM     29  C   UNL     1     140.043  68.147 227.480 -0.62 -0.01    +0.040 A  
DOCKED: ENDBRANCH  21  24
DOCKED: ENDBRANCH  17  19
DOCKED: ENDBRANCH   1  17
DOCKED: TORSDOF 5
DOCKED: TER
DOCKED: ENDMDL
________________________________________________________________________________


    FINAL DOCKED STATE:
    ________________________


Run:   11 / 20
Time taken for this run:   0.042s

DOCKED: MODEL        11
DOCKED: USER    Run = 11
DOCKED: USER
DOCKED: USER    Estimated Free Energy of Binding    =  -6.89 kcal/mol  [=(1)+(2)+(3)-(4)]
DOCKED: USER
DOCKED: USER    (1) Final Intermolecular Energy     =  -8.38 kcal/mol
DOCKED: USER        vdW + Hbond + desolv Energy     =  -8.34 kcal/mol
DOCKED: USER        Electrostatic Energy            =  -0.04 kcal/mol
DOCKED: USER        Moving Ligand-Fixed Receptor    =  -8.38 kcal/mol
DOCKED: USER        Moving Ligand-Moving Receptor   =  +0.00 kcal/mol
DOCKED: USER    (2) Final Total Internal Energy     =  -2.70 kcal/mol
DOCKED: USER    (3) Torsional Free Energy           =  +1.49 kcal/mol
DOCKED: USER    (4) Unbound System's Energy         =  -2.70 kcal/mol
DOCKED: USER
DOCKED: USER
DOCKED: REMARK SMILES O=C(NCC(=O)N1CCC[C@H]1c1ncccn1)c1ccc2cc(Cl)ccc2n1
DOCKED: REMARK SMILES IDX 4 1 3 2 2 3 1 4 18 6 19 7 28 8 20 9 27 10 21 11 26 12 22 13
DOCKED: REMARK SMILES IDX 25 14 23 15 24 16 5 17 6 18 7 19 8 20 11 21 9 22 10 23 12 24
DOCKED: REMARK SMILES IDX 13 25 17 26 14 27 16 28 15 29
DOCKED: REMARK H PARENT 3 5
DOCKED: USER                              x       y       z     vdW  Elec       q    Type
DOCKED: USER                           _______ _______ _______ _____ _____    ______ ____
DOCKED: ROOT
DOCKED: ATOM      1  C   UNL     1     137.312  73.865 221.258 -0.08 -0.05    +0.216 C  
DOCKED: ENDROOT
DOCKED: BRANCH   1   2
DOCKED: ATOM      2  N   UNL     1     137.869  73.066 222.289 -0.04 +0.12    -0.342 N  
DOCKED: ATOM      3  C   UNL     1     137.590  71.657 222.396 -0.09 -0.06    +0.270 C  
DOCKED: ATOM      4  O   UNL     1     136.836  71.069 221.558 -0.02 +0.05    -0.268 OA 
DOCKED: ATOM      5  H   UNL     1     138.513  73.477 223.021 -0.52 -0.11    +0.164 HD 
DOCKED: BRANCH   3   6
DOCKED: ATOM      6  C   UNL     1     138.204  70.905 223.510 -0.21 -0.03    +0.128 A  
DOCKED: ATOM      7  C   UNL     1     137.873  69.574 223.659 -0.24 -0.00    +0.035 A  
DOCKED: ATOM      8  N   UNL     1     139.057  71.453 224.369 -0.16 +0.07    -0.243 NA 
DOCKED: ATOM      9  C   UNL     1     138.401  68.818 224.662 -0.35 -0.00    +0.013 A  
DOCKED: ATOM     10  C   UNL     1     139.589  70.730 225.364 -0.40 -0.01    +0.071 A  
DOCKED: ATOM     11  C   UNL     1     139.281  69.411 225.538 -0.43 -0.00    +0.002 A  
DOCKED: ATOM     12  C   UNL     1     140.483  71.294 226.268 -0.60 -0.00    +0.030 A  
DOCKED: ATOM     13  C   UNL     1     139.799  68.620 226.544 -0.56 -0.00    +0.030 A  
DOCKED: ATOM     14  C   UNL     1     141.009  70.499 227.287 -0.60 -0.00    +0.023 A  
DOCKED: ATOM     15  C   UNL     1     140.687  69.178 227.444 -0.59 -0.01    +0.041 A  
DOCKED: ATOM     16  Cl  UNL     1     141.349  68.177 228.725 -0.61 +0.02    -0.084 Cl 
DOCKED: ENDBRANCH   3   6
DOCKED: ENDBRANCH   1   2
DOCKED: BRANCH   1  17
DOCKED: ATOM     17  C   UNL     1     137.599  75.289 221.219 -0.09 -0.05    +0.242 C  
DOCKED: ATOM     18  O   UNL     1     136.557  76.036 220.984 -0.03 +0.05    -0.273 OA 
DOCKED: BRANCH  17  19
DOCKED: ATOM     19  N   UNL     1     138.837  75.955 221.394 -0.09 +0.07    -0.331 N  
DOCKED: ATOM     20  C   UNL     1     139.249  76.961 222.354 -0.28 -0.02    +0.120 C  
DOCKED: ATOM     21  C   UNL     1     139.984  75.663 220.521 -0.13 -0.04    +0.153 C  
DOCKED: ATOM     22  C   UNL     1     140.777  76.779 222.398 -0.38 -0.01    +0.024 C  
DOCKED: ATOM     23  C   UNL     1     141.015  76.702 220.880 -0.28 -0.01    +0.035 C  
DOCKED: BRANCH  21  24
DOCKED: ATOM     24  C   UNL     1     140.596  74.341 220.846 -0.19 -0.03    +0.150 A  
DOCKED: ATOM     25  N   UNL     1     141.333  73.678 219.937 -0.07 +0.05    -0.239 NA 
DOCKED: ATOM     26  N   UNL     1     140.431  73.776 222.052 -0.76 +0.01    -0.239 NA 
DOCKED: ATOM     27  C   UNL     1     141.909  72.490 220.163 -0.14 -0.02    +0.115 A  
DOCKED: ATOM     28  C   UNL     1     140.991  72.586 222.323 -0.19 -0.00    +0.115 A  
DOCKED: ATOM     29  C   UNL     1     141.749  71.889 221.407 -0.20 -0.00    +0.040 A  
DOCKED: ENDBRANCH  21  24
DOCKED: ENDBRANCH  17  19
DOCKED: ENDBRANCH   1  17
DOCKED: TORSDOF 5
DOCKED: TER
DOCKED: ENDMDL
________________________________________________________________________________


    FINAL DOCKED STATE:
    ________________________


Run:   12 / 20
Time taken for this run:   0.042s

DOCKED: MODEL        12
DOCKED: USER    Run = 12
DOCKED: USER
DOCKED: USER    Estimated Free Energy of Binding    =  -6.86 kcal/mol  [=(1)+(2)+(3)-(4)]
DOCKED: USER
DOCKED: USER    (1) Final Intermolecular Energy     =  -8.35 kcal/mol
DOCKED: USER        vdW + Hbond + desolv Energy     =  -8.31 kcal/mol
DOCKED: USER        Electrostatic Energy            =  -0.04 kcal/mol
DOCKED: USER        Moving Ligand-Fixed Receptor    =  -8.35 kcal/mol
DOCKED: USER        Moving Ligand-Moving Receptor   =  +0.00 kcal/mol
DOCKED: USER    (2) Final Total Internal Energy     =  -2.71 kcal/mol
DOCKED: USER    (3) Torsional Free Energy           =  +1.49 kcal/mol
DOCKED: USER    (4) Unbound System's Energy         =  -2.71 kcal/mol
DOCKED: USER
DOCKED: USER
DOCKED: REMARK SMILES O=C(NCC(=O)N1CCC[C@H]1c1ncccn1)c1ccc2cc(Cl)ccc2n1
DOCKED: REMARK SMILES IDX 4 1 3 2 2 3 1 4 18 6 19 7 28 8 20 9 27 10 21 11 26 12 22 13
DOCKED: REMARK SMILES IDX 25 14 23 15 24 16 5 17 6 18 7 19 8 20 11 21 9 22 10 23 12 24
DOCKED: REMARK SMILES IDX 13 25 17 26 14 27 16 28 15 29
DOCKED: REMARK H PARENT 3 5
DOCKED: USER                              x       y       z     vdW  Elec       q    Type
DOCKED: USER                           _______ _______ _______ _____ _____    ______ ____
DOCKED: ROOT
DOCKED: ATOM      1  C   UNL     1     137.356  73.819 221.203 -0.07 -0.05    +0.216 C  
DOCKED: ENDROOT
DOCKED: BRANCH   1   2
DOCKED: ATOM      2  N   UNL     1     137.917  73.027 222.236 -0.05 +0.11    -0.342 N  
DOCKED: ATOM      3  C   UNL     1     137.638  71.619 222.355 -0.09 -0.06    +0.270 C  
DOCKED: ATOM      4  O   UNL     1     136.879  71.026 221.525 -0.02 +0.05    -0.268 OA 
DOCKED: ATOM      5  H   UNL     1     138.565  73.442 222.962 -0.52 -0.10    +0.164 HD 
DOCKED: BRANCH   3   6
DOCKED: ATOM      6  C   UNL     1     138.258  70.874 223.471 -0.21 -0.03    +0.128 A  
DOCKED: ATOM      7  C   UNL     1     137.978  69.529 223.591 -0.24 -0.00    +0.035 A  
DOCKED: ATOM      8  N   UNL     1     139.067  71.442 224.358 -0.17 +0.07    -0.243 NA 
DOCKED: ATOM      9  C   UNL     1     138.514  68.779 224.595 -0.35 -0.00    +0.013 A  
DOCKED: ATOM     10  C   UNL     1     139.607  70.725 225.353 -0.40 -0.01    +0.071 A  
DOCKED: ATOM     11  C   UNL     1     139.350  69.393 225.500 -0.43 -0.00    +0.002 A  
DOCKED: ATOM     12  C   UNL     1     140.456  71.311 226.287 -0.59 -0.00    +0.030 A  
DOCKED: ATOM     13  C   UNL     1     139.877  68.607 226.505 -0.56 -0.00    +0.030 A  
DOCKED: ATOM     14  C   UNL     1     140.991  70.522 227.305 -0.61 -0.00    +0.023 A  
DOCKED: ATOM     15  C   UNL     1     140.721  69.186 227.434 -0.58 -0.01    +0.041 A  
DOCKED: ATOM     16  Cl  UNL     1     141.394  68.192 228.715 -0.59 +0.02    -0.084 Cl 
DOCKED: ENDBRANCH   3   6
DOCKED: ENDBRANCH   1   2
DOCKED: BRANCH   1  17
DOCKED: ATOM     17  C   UNL     1     137.632  75.246 221.160 -0.09 -0.05    +0.242 C  
DOCKED: ATOM     18  O   UNL     1     136.590  75.982 220.894 -0.03 +0.05    -0.273 OA 
DOCKED: BRANCH  17  19
DOCKED: ATOM     19  N   UNL     1     138.860  75.923 221.362 -0.09 +0.07    -0.331 N  
DOCKED: ATOM     20  C   UNL     1     139.247  76.918 222.343 -0.28 -0.02    +0.120 C  
DOCKED: ATOM     21  C   UNL     1     140.021  75.658 220.499 -0.13 -0.04    +0.153 C  
DOCKED: ATOM     22  C   UNL     1     140.777  76.753 222.404 -0.37 -0.01    +0.024 C  
DOCKED: ATOM     23  C   UNL     1     141.035  76.703 220.887 -0.29 -0.01    +0.035 C  
DOCKED: BRANCH  21  24
DOCKED: ATOM     24  C   UNL     1     140.644  74.339 220.810 -0.19 -0.03    +0.150 A  
DOCKED: ATOM     25  N   UNL     1     141.392  73.693 219.897 -0.07 +0.05    -0.239 NA 
DOCKED: ATOM     26  N   UNL     1     140.480  73.757 222.008 -0.76 +0.01    -0.239 NA 
DOCKED: ATOM     27  C   UNL     1     141.978  72.509 220.111 -0.14 -0.02    +0.115 A  
DOCKED: ATOM     28  C   UNL     1     141.050  72.570 222.268 -0.18 -0.00    +0.115 A  
DOCKED: ATOM     29  C   UNL     1     141.819  71.891 221.347 -0.21 -0.00    +0.040 A  
DOCKED: ENDBRANCH  21  24
DOCKED: ENDBRANCH  17  19
DOCKED: ENDBRANCH   1  17
DOCKED: TORSDOF 5
DOCKED: TER
DOCKED: ENDMDL
________________________________________________________________________________


    FINAL DOCKED STATE:
    ________________________


Run:   13 / 20
Time taken for this run:   0.042s

DOCKED: MODEL        13
DOCKED: USER    Run = 13
DOCKED: USER
DOCKED: USER    Estimated Free Energy of Binding    =  -6.91 kcal/mol  [=(1)+(2)+(3)-(4)]
DOCKED: USER
DOCKED: USER    (1) Final Intermolecular Energy     =  -8.41 kcal/mol
DOCKED: USER        vdW + Hbond + desolv Energy     =  -8.36 kcal/mol
DOCKED: USER        Electrostatic Energy            =  -0.04 kcal/mol
DOCKED: USER        Moving Ligand-Fixed Receptor    =  -8.41 kcal/mol
DOCKED: USER        Moving Ligand-Moving Receptor   =  +0.00 kcal/mol
DOCKED: USER    (2) Final Total Internal Energy     =  -2.68 kcal/mol
DOCKED: USER    (3) Torsional Free Energy           =  +1.49 kcal/mol
DOCKED: USER    (4) Unbound System's Energy         =  -2.68 kcal/mol
DOCKED: USER
DOCKED: USER
DOCKED: REMARK SMILES O=C(NCC(=O)N1CCC[C@H]1c1ncccn1)c1ccc2cc(Cl)ccc2n1
DOCKED: REMARK SMILES IDX 4 1 3 2 2 3 1 4 18 6 19 7 28 8 20 9 27 10 21 11 26 12 22 13
DOCKED: REMARK SMILES IDX 25 14 23 15 24 16 5 17 6 18 7 19 8 20 11 21 9 22 10 23 12 24
DOCKED: REMARK SMILES IDX 13 25 17 26 14 27 16 28 15 29
DOCKED: REMARK H PARENT 3 5
DOCKED: USER                              x       y       z     vdW  Elec       q    Type
DOCKED: USER                           _______ _______ _______ _____ _____    ______ ____
DOCKED: ROOT
DOCKED: ATOM      1  C   UNL     1     137.351  73.890 221.228 -0.08 -0.05    +0.216 C  
DOCKED: ENDROOT
DOCKED: BRANCH   1   2
DOCKED: ATOM      2  N   UNL     1     137.884  73.086 222.267 -0.04 +0.12    -0.342 N  
DOCKED: ATOM      3  C   UNL     1     137.582  71.681 222.376 -0.09 -0.06    +0.270 C  
DOCKED: ATOM      4  O   UNL     1     136.827  71.103 221.533 -0.02 +0.05    -0.268 OA 
DOCKED: ATOM      5  H   UNL     1     138.527  73.489 223.004 -0.52 -0.10    +0.164 HD 
DOCKED: BRANCH   3   6
DOCKED: ATOM      6  C   UNL     1     138.173  70.924 223.500 -0.21 -0.03    +0.128 A  
DOCKED: ATOM      7  C   UNL     1     137.752  69.627 223.703 -0.24 -0.00    +0.035 A  
DOCKED: ATOM      8  N   UNL     1     139.088  71.436 224.316 -0.18 +0.07    -0.243 NA 
DOCKED: ATOM      9  C   UNL     1     138.253  68.868 224.718 -0.34 -0.00    +0.013 A  
DOCKED: ATOM     10  C   UNL     1     139.596  70.710 225.320 -0.40 -0.01    +0.071 A  
DOCKED: ATOM     11  C   UNL     1     139.199  69.424 225.548 -0.43 -0.00    +0.002 A  
DOCKED: ATOM     12  C   UNL     1     140.554  71.237 226.180 -0.60 -0.00    +0.030 A  
DOCKED: ATOM     13  C   UNL     1     139.688  68.631 226.567 -0.56 -0.00    +0.030 A  
DOCKED: ATOM     14  C   UNL     1     141.051  70.440 227.211 -0.59 -0.00    +0.023 A  
DOCKED: ATOM     15  C   UNL     1     140.640  69.152 227.423 -0.59 -0.01    +0.041 A  
DOCKED: ATOM     16  Cl  UNL     1     141.265  68.148 228.720 -0.64 +0.02    -0.084 Cl 
DOCKED: ENDBRANCH   3   6
DOCKED: ENDBRANCH   1   2
DOCKED: BRANCH   1  17
DOCKED: ATOM     17  C   UNL     1     137.642  75.314 221.199 -0.09 -0.05    +0.242 C  
DOCKED: ATOM     18  O   UNL     1     136.605  76.065 220.962 -0.03 +0.05    -0.273 OA 
DOCKED: BRANCH  17  19
DOCKED: ATOM     19  N   UNL     1     138.881  75.974 221.388 -0.09 +0.07    -0.331 N  
DOCKED: ATOM     20  C   UNL     1     139.288  76.976 222.354 -0.28 -0.02    +0.120 C  
DOCKED: ATOM     21  C   UNL     1     140.035  75.680 220.524 -0.14 -0.04    +0.153 C  
DOCKED: ATOM     22  C   UNL     1     140.815  76.789 222.412 -0.37 -0.01    +0.024 C  
DOCKED: ATOM     23  C   UNL     1     141.067  76.715 220.895 -0.29 -0.01    +0.035 C  
DOCKED: BRANCH  21  24
DOCKED: ATOM     24  C   UNL     1     140.639  74.355 220.851 -0.19 -0.03    +0.150 A  
DOCKED: ATOM     25  N   UNL     1     141.392  73.697 219.952 -0.07 +0.05    -0.239 NA 
DOCKED: ATOM     26  N   UNL     1     140.451  73.781 222.050 -0.76 +0.01    -0.239 NA 
DOCKED: ATOM     27  C   UNL     1     141.962  72.508 220.181 -0.15 -0.02    +0.115 A  
DOCKED: ATOM     28  C   UNL     1     141.004  72.589 222.323 -0.18 -0.00    +0.115 A  
DOCKED: ATOM     29  C   UNL     1     141.778  71.898 221.417 -0.20 -0.00    +0.040 A  
DOCKED: ENDBRANCH  21  24
DOCKED: ENDBRANCH  17  19
DOCKED: ENDBRANCH   1  17
DOCKED: TORSDOF 5
DOCKED: TER
DOCKED: ENDMDL
________________________________________________________________________________


    FINAL DOCKED STATE:
    ________________________


Run:   14 / 20
Time taken for this run:   0.042s

DOCKED: MODEL        14
DOCKED: USER    Run = 14
DOCKED: USER
DOCKED: USER    Estimated Free Energy of Binding    =  -7.93 kcal/mol  [=(1)+(2)+(3)-(4)]
DOCKED: USER
DOCKED: USER    (1) Final Intermolecular Energy     =  -9.42 kcal/mol
DOCKED: USER        vdW + Hbond + desolv Energy     =  -9.46 kcal/mol
DOCKED: USER        Electrostatic Energy            =  +0.03 kcal/mol
DOCKED: USER        Moving Ligand-Fixed Receptor    =  -9.42 kcal/mol
DOCKED: USER        Moving Ligand-Moving Receptor   =  +0.00 kcal/mol
DOCKED: USER    (2) Final Total Internal Energy     =  -1.45 kcal/mol
DOCKED: USER    (3) Torsional Free Energy           =  +1.49 kcal/mol
DOCKED: USER    (4) Unbound System's Energy         =  -1.45 kcal/mol
DOCKED: USER
DOCKED: USER
DOCKED: REMARK SMILES O=C(NCC(=O)N1CCC[C@H]1c1ncccn1)c1ccc2cc(Cl)ccc2n1
DOCKED: REMARK SMILES IDX 4 1 3 2 2 3 1 4 18 6 19 7 28 8 20 9 27 10 21 11 26 12 22 13
DOCKED: REMARK SMILES IDX 25 14 23 15 24 16 5 17 6 18 7 19 8 20 11 21 9 22 10 23 12 24
DOCKED: REMARK SMILES IDX 13 25 17 26 14 27 16 28 15 29
DOCKED: REMARK H PARENT 3 5
DOCKED: USER                              x       y       z     vdW  Elec       q    Type
DOCKED: USER                           _______ _______ _______ _____ _____    ______ ____
DOCKED: ROOT
DOCKED: ATOM      1  C   UNL     1     139.422  75.163 221.296 -0.18 -0.05    +0.216 C  
DOCKED: ENDROOT
DOCKED: BRANCH   1   2
DOCKED: ATOM      2  N   UNL     1     139.554  74.192 222.321 -0.09 +0.05    -0.342 N  
DOCKED: ATOM      3  C   UNL     1     139.841  72.811 222.030 -0.19 -0.04    +0.270 C  
DOCKED: ATOM      4  O   UNL     1     139.998  72.409 220.834 -0.08 +0.05    -0.268 OA 
DOCKED: ATOM      5  H   UNL     1     139.446  74.447 223.342 -0.48 -0.03    +0.164 HD 
DOCKED: BRANCH   3   6
DOCKED: ATOM      6  C   UNL     1     139.949  71.865 223.161 -0.30 -0.02    +0.128 A  
DOCKED: ATOM      7  C   UNL     1     139.518  70.569 222.969 -0.25 -0.01    +0.035 A  
DOCKED: ATOM      8  N   UNL     1     140.440  72.209 224.347 -0.07 +0.04    -0.243 NA 
DOCKED: ATOM      9  C   UNL     1     139.587  69.643 223.966 -0.28 -0.00    +0.013 A  
DOCKED: ATOM     10  C   UNL     1     140.518  71.315 225.342 -0.51 -0.01    +0.071 A  
DOCKED: ATOM     11  C   UNL     1     140.100  70.026 225.184 -0.44 -0.00    +0.002 A  
DOCKED: ATOM     12  C   UNL     1     141.031  71.665 226.587 -0.70 -0.00    +0.030 A  
DOCKED: ATOM     13  C   UNL     1     140.158  69.065 226.175 -0.51 -0.01    +0.030 A  
DOCKED: ATOM     14  C   UNL     1     141.091  70.699 227.591 -0.62 -0.00    +0.023 A  
DOCKED: ATOM     15  C   UNL     1     140.666  69.410 227.413 -0.57 -0.01    +0.041 A  
DOCKED: ATOM     16  Cl  UNL     1     140.742  68.193 228.675 -0.66 +0.02    -0.084 Cl 
DOCKED: ENDBRANCH   3   6
DOCKED: ENDBRANCH   1   2
DOCKED: BRANCH   1  17
DOCKED: ATOM     17  C   UNL     1     140.595  75.892 220.841 -0.18 -0.07    +0.242 C  
DOCKED: ATOM     18  O   UNL     1     141.728  75.357 221.202 -0.25 +0.10    -0.273 OA 
DOCKED: BRANCH  17  19
DOCKED: ATOM     19  N   UNL     1     140.664  77.082 220.077 -0.05 +0.12    -0.331 N  
DOCKED: ATOM     20  C   UNL     1     139.731  77.659 219.128 -0.05 -0.04    +0.120 C  
DOCKED: ATOM     21  C   UNL     1     141.827  77.977 220.172 -0.24 -0.09    +0.153 C  
DOCKED: ATOM     22  C   UNL     1     140.097  79.154 219.163 -0.10 -0.01    +0.024 C  
DOCKED: ATOM     23  C   UNL     1     141.625  78.990 219.075 -0.25 -0.02    +0.035 C  
DOCKED: BRANCH  21  24
DOCKED: ATOM     24  C   UNL     1     141.822  78.744 221.452 -0.31 -0.08    +0.150 A  
DOCKED: ATOM     25  N   UNL     1     141.449  78.162 222.606 -0.29 +0.11    -0.239 NA 
DOCKED: ATOM     26  N   UNL     1     142.189  80.034 221.493 -0.26 +0.11    -0.239 NA 
DOCKED: ATOM     27  C   UNL     1     141.422  78.791 223.788 -0.49 -0.03    +0.115 A  
DOCKED: ATOM     28  C   UNL     1     142.178  80.705 222.655 -0.49 -0.03    +0.115 A  
DOCKED: ATOM     29  C   UNL     1     141.799  80.128 223.849 -0.57 -0.01    +0.040 A  
DOCKED: ENDBRANCH  21  24
DOCKED: ENDBRANCH  17  19
DOCKED: ENDBRANCH   1  17
DOCKED: TORSDOF 5
DOCKED: TER
DOCKED: ENDMDL
________________________________________________________________________________


    FINAL DOCKED STATE:
    ________________________


Run:   15 / 20
Time taken for this run:   0.042s

DOCKED: MODEL        15
DOCKED: USER    Run = 15
DOCKED: USER
DOCKED: USER    Estimated Free Energy of Binding    =  -6.95 kcal/mol  [=(1)+(2)+(3)-(4)]
DOCKED: USER
DOCKED: USER    (1) Final Intermolecular Energy     =  -8.44 kcal/mol
DOCKED: USER        vdW + Hbond + desolv Energy     =  -8.40 kcal/mol
DOCKED: USER        Electrostatic Energy            =  -0.04 kcal/mol
DOCKED: USER        Moving Ligand-Fixed Receptor    =  -8.44 kcal/mol
DOCKED: USER        Moving Ligand-Moving Receptor   =  +0.00 kcal/mol
DOCKED: USER    (2) Final Total Internal Energy     =  -2.64 kcal/mol
DOCKED: USER    (3) Torsional Free Energy           =  +1.49 kcal/mol
DOCKED: USER    (4) Unbound System's Energy         =  -2.64 kcal/mol
DOCKED: USER
DOCKED: USER
DOCKED: REMARK SMILES O=C(NCC(=O)N1CCC[C@H]1c1ncccn1)c1ccc2cc(Cl)ccc2n1
DOCKED: REMARK SMILES IDX 4 1 3 2 2 3 1 4 18 6 19 7 28 8 20 9 27 10 21 11 26 12 22 13
DOCKED: REMARK SMILES IDX 25 14 23 15 24 16 5 17 6 18 7 19 8 20 11 21 9 22 10 23 12 24
DOCKED: REMARK SMILES IDX 13 25 17 26 14 27 16 28 15 29
DOCKED: REMARK H PARENT 3 5
DOCKED: USER                              x       y       z     vdW  Elec       q    Type
DOCKED: USER                           _______ _______ _______ _____ _____    ______ ____
DOCKED: ROOT
DOCKED: ATOM      1  C   UNL     1     137.303  73.837 221.268 -0.08 -0.05    +0.216 C  
DOCKED: ENDROOT
DOCKED: BRANCH   1   2
DOCKED: ATOM      2  N   UNL     1     137.855  73.039 222.301 -0.05 +0.12    -0.342 N  
DOCKED: ATOM      3  C   UNL     1     137.597  71.624 222.392 -0.09 -0.06    +0.270 C  
DOCKED: ATOM      4  O   UNL     1     136.866  71.032 221.537 -0.02 +0.05    -0.268 OA 
DOCKED: ATOM      5  H   UNL     1     138.479  73.454 223.048 -0.52 -0.11    +0.164 HD 
DOCKED: BRANCH   3   6
DOCKED: ATOM      6  C   UNL     1     138.204  70.873 223.512 -0.21 -0.03    +0.128 A  
DOCKED: ATOM      7  C   UNL     1     137.831  69.558 223.691 -0.24 -0.00    +0.035 A  
DOCKED: ATOM      8  N   UNL     1     139.088  71.408 224.346 -0.18 +0.07    -0.243 NA 
DOCKED: ATOM      9  C   UNL     1     138.349  68.804 224.700 -0.34 -0.00    +0.013 A  
DOCKED: ATOM     10  C   UNL     1     139.613  70.686 225.346 -0.41 -0.01    +0.071 A  
DOCKED: ATOM     11  C   UNL     1     139.264  69.383 225.550 -0.43 -0.00    +0.002 A  
DOCKED: ATOM     12  C   UNL     1     140.540  71.237 226.224 -0.60 -0.00    +0.030 A  
DOCKED: ATOM     13  C   UNL     1     139.772  68.594 226.563 -0.56 -0.00    +0.030 A  
DOCKED: ATOM     14  C   UNL     1     141.055  70.445 227.250 -0.59 -0.00    +0.023 A  
DOCKED: ATOM     15  C   UNL     1     140.693  69.138 227.438 -0.59 -0.01    +0.041 A  
DOCKED: ATOM     16  Cl  UNL     1     141.342  68.140 228.728 -0.61 +0.02    -0.084 Cl 
DOCKED: ENDBRANCH   3   6
DOCKED: ENDBRANCH   1   2
DOCKED: BRANCH   1  17
DOCKED: ATOM     17  C   UNL     1     137.540  75.271 221.263 -0.09 -0.05    +0.242 C  
DOCKED: ATOM     18  O   UNL     1     136.465  75.989 221.098 -0.03 +0.05    -0.273 OA 
DOCKED: BRANCH  17  19
DOCKED: ATOM     19  N   UNL     1     138.762  75.973 221.407 -0.09 +0.07    -0.331 N  
DOCKED: ATOM     20  C   UNL     1     139.163  77.004 222.345 -0.28 -0.02    +0.120 C  
DOCKED: ATOM     21  C   UNL     1     139.901  75.701 220.516 -0.13 -0.04    +0.153 C  
DOCKED: ATOM     22  C   UNL     1     140.696  76.864 222.364 -0.41 -0.01    +0.024 C  
DOCKED: ATOM     23  C   UNL     1     140.909  76.773 220.842 -0.27 -0.01    +0.035 C  
DOCKED: BRANCH  21  24
DOCKED: ATOM     24  C   UNL     1     140.555  74.401 220.847 -0.19 -0.03    +0.150 A  
DOCKED: ATOM     25  N   UNL     1     141.357  73.785 219.960 -0.07 +0.05    -0.239 NA 
DOCKED: ATOM     26  N   UNL     1     140.366  73.810 222.036 -0.78 +0.01    -0.239 NA 
DOCKED: ATOM     27  C   UNL     1     141.973  72.619 220.192 -0.15 -0.02    +0.115 A  
DOCKED: ATOM     28  C   UNL     1     140.964  72.641 222.313 -0.19 -0.00    +0.115 A  
DOCKED: ATOM     29  C   UNL     1     141.788  71.992 221.419 -0.20 -0.00    +0.040 A  
DOCKED: ENDBRANCH  21  24
DOCKED: ENDBRANCH  17  19
DOCKED: ENDBRANCH   1  17
DOCKED: TORSDOF 5
DOCKED: TER
DOCKED: ENDMDL
________________________________________________________________________________


    FINAL DOCKED STATE:
    ________________________


Run:   16 / 20
Time taken for this run:   0.042s

DOCKED: MODEL        16
DOCKED: USER    Run = 16
DOCKED: USER
DOCKED: USER    Estimated Free Energy of Binding    =  -6.74 kcal/mol  [=(1)+(2)+(3)-(4)]
DOCKED: USER
DOCKED: USER    (1) Final Intermolecular Energy     =  -8.24 kcal/mol
DOCKED: USER        vdW + Hbond + desolv Energy     =  -8.21 kcal/mol
DOCKED: USER        Electrostatic Energy            =  -0.03 kcal/mol
DOCKED: USER        Moving Ligand-Fixed Receptor    =  -8.24 kcal/mol
DOCKED: USER        Moving Ligand-Moving Receptor   =  +0.00 kcal/mol
DOCKED: USER    (2) Final Total Internal Energy     =  -2.74 kcal/mol
DOCKED: USER    (3) Torsional Free Energy           =  +1.49 kcal/mol
DOCKED: USER    (4) Unbound System's Energy         =  -2.74 kcal/mol
DOCKED: USER
DOCKED: USER
DOCKED: REMARK SMILES O=C(NCC(=O)N1CCC[C@H]1c1ncccn1)c1ccc2cc(Cl)ccc2n1
DOCKED: REMARK SMILES IDX 4 1 3 2 2 3 1 4 18 6 19 7 28 8 20 9 27 10 21 11 26 12 22 13
DOCKED: REMARK SMILES IDX 25 14 23 15 24 16 5 17 6 18 7 19 8 20 11 21 9 22 10 23 12 24
DOCKED: REMARK SMILES IDX 13 25 17 26 14 27 16 28 15 29
DOCKED: REMARK H PARENT 3 5
DOCKED: USER                              x       y       z     vdW  Elec       q    Type
DOCKED: USER                           _______ _______ _______ _____ _____    ______ ____
DOCKED: ROOT
DOCKED: ATOM      1  C   UNL     1     137.339  73.853 221.080 -0.07 -0.05    +0.216 C  
DOCKED: ENDROOT
DOCKED: BRANCH   1   2
DOCKED: ATOM      2  N   UNL     1     137.889  73.075 222.131 -0.06 +0.11    -0.342 N  
DOCKED: ATOM      3  C   UNL     1     137.603  71.670 222.270 -0.09 -0.06    +0.270 C  
DOCKED: ATOM      4  O   UNL     1     136.848  71.067 221.444 -0.02 +0.05    -0.268 OA 
DOCKED: ATOM      5  H   UNL     1     138.533  73.500 222.854 -0.53 -0.09    +0.164 HD 
DOCKED: BRANCH   3   6
DOCKED: ATOM      6  C   UNL     1     138.211  70.942 223.404 -0.20 -0.03    +0.128 A  
DOCKED: ATOM      7  C   UNL     1     137.893  69.610 223.566 -0.23 -0.00    +0.035 A  
DOCKED: ATOM      8  N   UNL     1     139.044  71.512 224.266 -0.16 +0.07    -0.243 NA 
DOCKED: ATOM      9  C   UNL     1     138.416  68.875 224.588 -0.35 -0.00    +0.013 A  
DOCKED: ATOM     10  C   UNL     1     139.572  70.810 225.278 -0.40 -0.01    +0.071 A  
DOCKED: ATOM     11  C   UNL     1     139.277  69.490 225.467 -0.43 -0.00    +0.002 A  
DOCKED: ATOM     12  C   UNL     1     140.446  71.398 226.187 -0.58 -0.01    +0.030 A  
DOCKED: ATOM     13  C   UNL     1     139.791  68.720 226.491 -0.55 -0.00    +0.030 A  
DOCKED: ATOM     14  C   UNL     1     140.967  70.624 227.224 -0.62 -0.00    +0.023 A  
DOCKED: ATOM     15  C   UNL     1     140.659  69.301 227.395 -0.58 -0.01    +0.041 A  
DOCKED: ATOM     16  Cl  UNL     1     141.315  68.327 228.700 -0.61 +0.02    -0.084 Cl 
DOCKED: ENDBRANCH   3   6
DOCKED: ENDBRANCH   1   2
DOCKED: BRANCH   1  17
DOCKED: ATOM     17  C   UNL     1     137.668  75.265 220.983 -0.07 -0.05    +0.242 C  
DOCKED: ATOM     18  O   UNL     1     136.704  76.005 220.512 -0.02 +0.05    -0.273 OA 
DOCKED: BRANCH  17  19
DOCKED: ATOM     19  N   UNL     1     138.874  75.926 221.324 -0.09 +0.07    -0.331 N  
DOCKED: ATOM     20  C   UNL     1     139.179  76.859 222.390 -0.26 -0.02    +0.120 C  
DOCKED: ATOM     21  C   UNL     1     140.102  75.711 220.542 -0.14 -0.04    +0.153 C  
DOCKED: ATOM     22  C   UNL     1     140.700  76.687 222.564 -0.31 -0.01    +0.024 C  
DOCKED: ATOM     23  C   UNL     1     141.079  76.728 221.073 -0.31 -0.01    +0.035 C  
DOCKED: BRANCH  21  24
DOCKED: ATOM     24  C   UNL     1     140.700  74.373 220.823 -0.19 -0.03    +0.150 A  
DOCKED: ATOM     25  N   UNL     1     140.520  73.770 222.011 -0.75 +0.01    -0.239 NA 
DOCKED: ATOM     26  N   UNL     1     141.433  73.730 219.900 -0.07 +0.05    -0.239 NA 
DOCKED: ATOM     27  C   UNL     1     141.028  72.573 222.328 -0.18 -0.00    +0.115 A  
DOCKED: ATOM     28  C   UNL     1     141.961  72.528 220.174 -0.15 -0.02    +0.115 A  
DOCKED: ATOM     29  C   UNL     1     141.790  71.893 221.385 -0.20 -0.00    +0.040 A  
DOCKED: ENDBRANCH  21  24
DOCKED: ENDBRANCH  17  19
DOCKED: ENDBRANCH   1  17
DOCKED: TORSDOF 5
DOCKED: TER
DOCKED: ENDMDL
________________________________________________________________________________


    FINAL DOCKED STATE:
    ________________________


Run:   17 / 20
Time taken for this run:   0.042s

DOCKED: MODEL        17
DOCKED: USER    Run = 17
DOCKED: USER
DOCKED: USER    Estimated Free Energy of Binding    =  -7.45 kcal/mol  [=(1)+(2)+(3)-(4)]
DOCKED: USER
DOCKED: USER    (1) Final Intermolecular Energy     =  -8.94 kcal/mol
DOCKED: USER        vdW + Hbond + desolv Energy     =  -8.95 kcal/mol
DOCKED: USER        Electrostatic Energy            =  +0.01 kcal/mol
DOCKED: USER        Moving Ligand-Fixed Receptor    =  -8.94 kcal/mol
DOCKED: USER        Moving Ligand-Moving Receptor   =  +0.00 kcal/mol
DOCKED: USER    (2) Final Total Internal Energy     =  -1.69 kcal/mol
DOCKED: USER    (3) Torsional Free Energy           =  +1.49 kcal/mol
DOCKED: USER    (4) Unbound System's Energy         =  -1.69 kcal/mol
DOCKED: USER
DOCKED: USER
DOCKED: REMARK SMILES O=C(NCC(=O)N1CCC[C@H]1c1ncccn1)c1ccc2cc(Cl)ccc2n1
DOCKED: REMARK SMILES IDX 4 1 3 2 2 3 1 4 18 6 19 7 28 8 20 9 27 10 21 11 26 12 22 13
DOCKED: REMARK SMILES IDX 25 14 23 15 24 16 5 17 6 18 7 19 8 20 11 21 9 22 10 23 12 24
DOCKED: REMARK SMILES IDX 13 25 17 26 14 27 16 28 15 29
DOCKED: REMARK H PARENT 3 5
DOCKED: USER                              x       y       z     vdW  Elec       q    Type
DOCKED: USER                           _______ _______ _______ _____ _____    ______ ____
DOCKED: ROOT
DOCKED: ATOM      1  C   UNL     1     138.003  69.032 223.497 -0.18 -0.03    +0.216 C  
DOCKED: ENDROOT
DOCKED: BRANCH   1   2
DOCKED: ATOM      2  N   UNL     1     138.804  69.948 222.770 -0.07 +0.06    -0.342 N  
DOCKED: ATOM      3  C   UNL     1     139.227  71.205 223.334 -0.21 -0.06    +0.270 C  
DOCKED: ATOM      4  O   UNL     1     138.903  71.538 224.517 -0.18 +0.08    -0.268 OA 
DOCKED: ATOM      5  H   UNL     1     139.123  69.743 221.783 +0.04 -0.03    +0.164 HD 
DOCKED: BRANCH   3   6
DOCKED: ATOM      6  C   UNL     1     140.051  72.104 222.499 -0.27 -0.02    +0.128 A  
DOCKED: ATOM      7  C   UNL     1     141.073  71.549 221.758 -0.20 -0.00    +0.035 A  
DOCKED: ATOM      8  N   UNL     1     139.849  73.416 222.431 -0.70 +0.03    -0.243 NA 
DOCKED: ATOM      9  C   UNL     1     141.873  72.316 220.965 -0.24 -0.00    +0.013 A  
DOCKED: ATOM     10  C   UNL     1     140.621  74.190 221.658 -0.27 -0.01    +0.071 A  
DOCKED: ATOM     11  C   UNL     1     141.641  73.672 220.914 -0.27 -0.00    +0.002 A  
DOCKED: ATOM     12  C   UNL     1     140.418  75.564 221.581 -0.33 -0.01    +0.030 A  
DOCKED: ATOM     13  C   UNL     1     142.468  74.423 220.101 -0.26 -0.01    +0.030 A  
DOCKED: ATOM     14  C   UNL     1     141.250  76.327 220.762 -0.28 -0.01    +0.023 A  
DOCKED: ATOM     15  C   UNL     1     142.268  75.788 220.022 -0.29 -0.02    +0.041 A  
DOCKED: ATOM     16  Cl  UNL     1     143.316  76.748 218.991 -0.41 +0.06    -0.084 Cl 
DOCKED: ENDBRANCH   3   6
DOCKED: ENDBRANCH   1   2
DOCKED: BRANCH   1  17
DOCKED: ATOM     17  C   UNL     1     138.078  69.005 224.948 -0.22 -0.02    +0.242 C  
DOCKED: ATOM     18  O   UNL     1     137.107  69.639 225.544 -0.10 +0.02    -0.273 OA 
DOCKED: BRANCH  17  19
DOCKED: ATOM     19  N   UNL     1     139.049  68.395 225.780 -0.23 +0.02    -0.331 N  
DOCKED: ATOM     20  C   UNL     1     139.952  67.287 225.533 -0.22 -0.02    +0.120 C  
DOCKED: ATOM     21  C   UNL     1     139.283  68.876 227.150 -0.33 -0.02    +0.153 C  
DOCKED: ATOM     22  C   UNL     1     141.090  67.550 226.536 -0.56 -0.01    +0.024 C  
DOCKED: ATOM     23  C   UNL     1     140.211  67.858 227.762 -0.33 -0.01    +0.035 C  
DOCKED: BRANCH  21  24
DOCKED: ATOM     24  C   UNL     1     140.024  70.171 227.155 -0.45 -0.02    +0.150 A  
DOCKED: ATOM     25  N   UNL     1     139.951  71.006 228.207 -0.41 +0.04    -0.239 NA 
DOCKED: ATOM     26  N   UNL     1     140.786  70.541 226.114 -0.33 +0.04    -0.239 NA 
DOCKED: ATOM     27  C   UNL     1     140.590  72.180 228.276 -0.46 -0.04    +0.115 A  
DOCKED: ATOM     28  C   UNL     1     141.444  71.710 226.140 -0.53 -0.01    +0.115 A  
DOCKED: ATOM     29  C   UNL     1     141.383  72.581 227.206 -0.68 -0.01    +0.040 A  
DOCKED: ENDBRANCH  21  24
DOCKED: ENDBRANCH  17  19
DOCKED: ENDBRANCH   1  17
DOCKED: TORSDOF 5
DOCKED: TER
DOCKED: ENDMDL
________________________________________________________________________________


    FINAL DOCKED STATE:
    ________________________


Run:   18 / 20
Time taken for this run:   0.042s

DOCKED: MODEL        18
DOCKED: USER    Run = 18
DOCKED: USER
DOCKED: USER    Estimated Free Energy of Binding    =  -6.49 kcal/mol  [=(1)+(2)+(3)-(4)]
DOCKED: USER
DOCKED: USER    (1) Final Intermolecular Energy     =  -7.98 kcal/mol
DOCKED: USER        vdW + Hbond + desolv Energy     =  -7.97 kcal/mol
DOCKED: USER        Electrostatic Energy            =  -0.01 kcal/mol
DOCKED: USER        Moving Ligand-Fixed Receptor    =  -7.98 kcal/mol
DOCKED: USER        Moving Ligand-Moving Receptor   =  +0.00 kcal/mol
DOCKED: USER    (2) Final Total Internal Energy     =  -2.74 kcal/mol
DOCKED: USER    (3) Torsional Free Energy           =  +1.49 kcal/mol
DOCKED: USER    (4) Unbound System's Energy         =  -2.74 kcal/mol
DOCKED: USER
DOCKED: USER
DOCKED: REMARK SMILES O=C(NCC(=O)N1CCC[C@H]1c1ncccn1)c1ccc2cc(Cl)ccc2n1
DOCKED: REMARK SMILES IDX 4 1 3 2 2 3 1 4 18 6 19 7 28 8 20 9 27 10 21 11 26 12 22 13
DOCKED: REMARK SMILES IDX 25 14 23 15 24 16 5 17 6 18 7 19 8 20 11 21 9 22 10 23 12 24
DOCKED: REMARK SMILES IDX 13 25 17 26 14 27 16 28 15 29
DOCKED: REMARK H PARENT 3 5
DOCKED: USER                              x       y       z     vdW  Elec       q    Type
DOCKED: USER                           _______ _______ _______ _____ _____    ______ ____
DOCKED: ROOT
DOCKED: ATOM      1  C   UNL     1     136.964  74.092 221.156 -0.06 -0.05    +0.216 C  
DOCKED: ENDROOT
DOCKED: BRANCH   1   2
DOCKED: ATOM      2  N   UNL     1     137.529  73.266 222.160 -0.05 +0.11    -0.342 N  
DOCKED: ATOM      3  C   UNL     1     137.047  71.932 222.410 -0.08 -0.06    +0.270 C  
DOCKED: ATOM      4  O   UNL     1     136.096  71.436 221.728 -0.02 +0.05    -0.268 OA 
DOCKED: ATOM      5  H   UNL     1     138.329  73.601 222.766 -0.53 -0.09    +0.164 HD 
DOCKED: BRANCH   3   6
DOCKED: ATOM      6  C   UNL     1     137.688  71.147 223.486 -0.19 -0.03    +0.128 A  
DOCKED: ATOM      7  C   UNL     1     137.084  69.974 223.885 -0.22 -0.00    +0.035 A  
DOCKED: ATOM      8  N   UNL     1     138.816  71.522 224.082 -0.13 +0.07    -0.243 NA 
DOCKED: ATOM      9  C   UNL     1     137.617  69.198 224.870 -0.31 -0.00    +0.013 A  
DOCKED: ATOM     10  C   UNL     1     139.360  70.776 225.052 -0.36 -0.01    +0.071 A  
DOCKED: ATOM     11  C   UNL     1     138.786  69.610 225.470 -0.39 -0.00    +0.002 A  
DOCKED: ATOM     12  C   UNL     1     140.540  71.159 225.682 -0.57 -0.00    +0.030 A  
DOCKED: ATOM     13  C   UNL     1     139.302  68.804 226.465 -0.50 -0.00    +0.030 A  
DOCKED: ATOM     14  C   UNL     1     141.066  70.349 226.688 -0.57 -0.00    +0.023 A  
DOCKED: ATOM     15  C   UNL     1     140.474  69.182 227.092 -0.57 -0.01    +0.041 A  
DOCKED: ATOM     16  Cl  UNL     1     141.136  68.161 228.358 -0.70 +0.02    -0.084 Cl 
DOCKED: ENDBRANCH   3   6
DOCKED: ENDBRANCH   1   2
DOCKED: BRANCH   1  17
DOCKED: ATOM     17  C   UNL     1     137.767  75.144 220.555 -0.05 -0.05    +0.242 C  
DOCKED: ATOM     18  O   UNL     1     137.406  75.463 219.343 -0.01 +0.05    -0.273 OA 
DOCKED: BRANCH  17  19
DOCKED: ATOM     19  N   UNL     1     138.866  75.850 221.102 -0.07 +0.07    -0.331 N  
DOCKED: ATOM     20  C   UNL     1     138.941  76.788 222.205 -0.26 -0.02    +0.120 C  
DOCKED: ATOM     21  C   UNL     1     140.220  75.689 220.549 -0.15 -0.04    +0.153 C  
DOCKED: ATOM     22  C   UNL     1     140.413  76.674 222.644 -0.24 -0.01    +0.024 C  
DOCKED: ATOM     23  C   UNL     1     141.046  76.740 221.243 -0.32 -0.01    +0.035 C  
DOCKED: BRANCH  21  24
DOCKED: ATOM     24  C   UNL     1     140.813  74.374 220.931 -0.21 -0.03    +0.150 A  
DOCKED: ATOM     25  N   UNL     1     141.840  73.850 220.237 -0.11 +0.05    -0.239 NA 
DOCKED: ATOM     26  N   UNL     1     140.344  73.676 221.976 -0.75 +0.02    -0.239 NA 
DOCKED: ATOM     27  C   UNL     1     142.418  72.678 220.526 -0.20 -0.02    +0.115 A  
DOCKED: ATOM     28  C   UNL     1     140.893  72.496 222.303 -0.22 -0.01    +0.115 A  
DOCKED: ATOM     29  C   UNL     1     141.944  71.941 221.606 -0.12 -0.00    +0.040 A  
DOCKED: ENDBRANCH  21  24
DOCKED: ENDBRANCH  17  19
DOCKED: ENDBRANCH   1  17
DOCKED: TORSDOF 5
DOCKED: TER
DOCKED: ENDMDL
________________________________________________________________________________


    FINAL DOCKED STATE:
    ________________________


Run:   19 / 20
Time taken for this run:   0.042s

DOCKED: MODEL        19
DOCKED: USER    Run = 19
DOCKED: USER
DOCKED: USER    Estimated Free Energy of Binding    =  -6.92 kcal/mol  [=(1)+(2)+(3)-(4)]
DOCKED: USER
DOCKED: USER    (1) Final Intermolecular Energy     =  -8.41 kcal/mol
DOCKED: USER        vdW + Hbond + desolv Energy     =  -8.37 kcal/mol
DOCKED: USER        Electrostatic Energy            =  -0.04 kcal/mol
DOCKED: USER        Moving Ligand-Fixed Receptor    =  -8.41 kcal/mol
DOCKED: USER        Moving Ligand-Moving Receptor   =  +0.00 kcal/mol
DOCKED: USER    (2) Final Total Internal Energy     =  -2.68 kcal/mol
DOCKED: USER    (3) Torsional Free Energy           =  +1.49 kcal/mol
DOCKED: USER    (4) Unbound System's Energy         =  -2.68 kcal/mol
DOCKED: USER
DOCKED: USER
DOCKED: REMARK SMILES O=C(NCC(=O)N1CCC[C@H]1c1ncccn1)c1ccc2cc(Cl)ccc2n1
DOCKED: REMARK SMILES IDX 4 1 3 2 2 3 1 4 18 6 19 7 28 8 20 9 27 10 21 11 26 12 22 13
DOCKED: REMARK SMILES IDX 25 14 23 15 24 16 5 17 6 18 7 19 8 20 11 21 9 22 10 23 12 24
DOCKED: REMARK SMILES IDX 13 25 17 26 14 27 16 28 15 29
DOCKED: REMARK H PARENT 3 5
DOCKED: USER                              x       y       z     vdW  Elec       q    Type
DOCKED: USER                           _______ _______ _______ _____ _____    ______ ____
DOCKED: ROOT
DOCKED: ATOM      1  C   UNL     1     137.295  73.807 221.279 -0.08 -0.05    +0.216 C  
DOCKED: ENDROOT
DOCKED: BRANCH   1   2
DOCKED: ATOM      2  N   UNL     1     137.860  73.012 222.308 -0.05 +0.12    -0.342 N  
DOCKED: ATOM      3  C   UNL     1     137.597  71.600 222.411 -0.09 -0.06    +0.270 C  
DOCKED: ATOM      4  O   UNL     1     136.850  71.006 221.572 -0.02 +0.05    -0.268 OA 
DOCKED: ATOM      5  H   UNL     1     138.498  73.429 223.041 -0.52 -0.11    +0.164 HD 
DOCKED: BRANCH   3   6
DOCKED: ATOM      6  C   UNL     1     138.219  70.852 223.525 -0.21 -0.03    +0.128 A  
DOCKED: ATOM      7  C   UNL     1     137.892  69.521 223.678 -0.24 -0.00    +0.035 A  
DOCKED: ATOM      8  N   UNL     1     139.075  71.405 224.377 -0.17 +0.07    -0.243 NA 
DOCKED: ATOM      9  C   UNL     1     138.427  68.769 224.681 -0.35 -0.00    +0.013 A  
DOCKED: ATOM     10  C   UNL     1     139.615  70.685 225.371 -0.40 -0.01    +0.071 A  
DOCKED: ATOM     11  C   UNL     1     139.311  69.367 225.550 -0.43 -0.00    +0.002 A  
DOCKED: ATOM     12  C   UNL     1     140.512  71.254 226.268 -0.60 -0.00    +0.030 A  
DOCKED: ATOM     13  C   UNL     1     139.837  68.580 226.555 -0.57 -0.00    +0.030 A  
DOCKED: ATOM     14  C   UNL     1     141.046  70.464 227.286 -0.60 -0.00    +0.023 A  
DOCKED: ATOM     15  C   UNL     1     140.728  69.142 227.449 -0.59 -0.01    +0.041 A  
DOCKED: ATOM     16  Cl  UNL     1     141.399  68.146 228.729 -0.59 +0.02    -0.084 Cl 
DOCKED: ENDBRANCH   3   6
DOCKED: ENDBRANCH   1   2
DOCKED: BRANCH   1  17
DOCKED: ATOM     17  C   UNL     1     137.542  75.240 221.259 -0.09 -0.05    +0.242 C  
DOCKED: ATOM     18  O   UNL     1     136.474  75.962 221.073 -0.03 +0.05    -0.273 OA 
DOCKED: BRANCH  17  19
DOCKED: ATOM     19  N   UNL     1     138.767  75.935 221.408 -0.09 +0.07    -0.331 N  
DOCKED: ATOM     20  C   UNL     1     139.170  76.961 222.350 -0.28 -0.02    +0.120 C  
DOCKED: ATOM     21  C   UNL     1     139.908  75.659 220.521 -0.13 -0.04    +0.153 C  
DOCKED: ATOM     22  C   UNL     1     140.702  76.815 222.374 -0.40 -0.01    +0.024 C  
DOCKED: ATOM     23  C   UNL     1     140.920  76.725 220.853 -0.27 -0.01    +0.035 C  
DOCKED: BRANCH  21  24
DOCKED: ATOM     24  C   UNL     1     140.554  74.355 220.852 -0.19 -0.03    +0.150 A  
DOCKED: ATOM     25  N   UNL     1     141.320  73.714 219.951 -0.07 +0.05    -0.239 NA 
DOCKED: ATOM     26  N   UNL     1     140.392  73.784 222.055 -0.77 +0.01    -0.239 NA 
DOCKED: ATOM     27  C   UNL     1     141.928  72.544 220.182 -0.15 -0.02    +0.115 A  
DOCKED: ATOM     28  C   UNL     1     140.983  72.611 222.332 -0.19 -0.00    +0.115 A  
DOCKED: ATOM     29  C   UNL     1     141.771  71.937 221.424 -0.20 -0.00    +0.040 A  
DOCKED: ENDBRANCH  21  24
DOCKED: ENDBRANCH  17  19
DOCKED: ENDBRANCH   1  17
DOCKED: TORSDOF 5
DOCKED: TER
DOCKED: ENDMDL
________________________________________________________________________________


    FINAL DOCKED STATE:
    ________________________


Run:   20 / 20
Time taken for this run:   0.042s

DOCKED: MODEL        20
DOCKED: USER    Run = 20
DOCKED: USER
DOCKED: USER    Estimated Free Energy of Binding    =  -6.89 kcal/mol  [=(1)+(2)+(3)-(4)]
DOCKED: USER
DOCKED: USER    (1) Final Intermolecular Energy     =  -8.38 kcal/mol
DOCKED: USER        vdW + Hbond + desolv Energy     =  -8.34 kcal/mol
DOCKED: USER        Electrostatic Energy            =  -0.04 kcal/mol
DOCKED: USER        Moving Ligand-Fixed Receptor    =  -8.38 kcal/mol
DOCKED: USER        Moving Ligand-Moving Receptor   =  +0.00 kcal/mol
DOCKED: USER    (2) Final Total Internal Energy     =  -2.70 kcal/mol
DOCKED: USER    (3) Torsional Free Energy           =  +1.49 kcal/mol
DOCKED: USER    (4) Unbound System's Energy         =  -2.70 kcal/mol
DOCKED: USER
DOCKED: USER
DOCKED: REMARK SMILES O=C(NCC(=O)N1CCC[C@H]1c1ncccn1)c1ccc2cc(Cl)ccc2n1
DOCKED: REMARK SMILES IDX 4 1 3 2 2 3 1 4 18 6 19 7 28 8 20 9 27 10 21 11 26 12 22 13
DOCKED: REMARK SMILES IDX 25 14 23 15 24 16 5 17 6 18 7 19 8 20 11 21 9 22 10 23 12 24
DOCKED: REMARK SMILES IDX 13 25 17 26 14 27 16 28 15 29
DOCKED: REMARK H PARENT 3 5
DOCKED: USER                              x       y       z     vdW  Elec       q    Type
DOCKED: USER                           _______ _______ _______ _____ _____    ______ ____
DOCKED: ROOT
DOCKED: ATOM      1  C   UNL     1     137.383  73.842 221.220 -0.08 -0.05    +0.216 C  
DOCKED: ENDROOT
DOCKED: BRANCH   1   2
DOCKED: ATOM      2  N   UNL     1     137.932  73.043 222.255 -0.05 +0.11    -0.342 N  
DOCKED: ATOM      3  C   UNL     1     137.641  71.637 222.367 -0.09 -0.06    +0.270 C  
DOCKED: ATOM      4  O   UNL     1     136.884  71.052 221.531 -0.02 +0.05    -0.268 OA 
DOCKED: ATOM      5  H   UNL     1     138.578  73.452 222.986 -0.52 -0.10    +0.164 HD 
DOCKED: BRANCH   3   6
DOCKED: ATOM      6  C   UNL     1     138.248  70.885 223.486 -0.21 -0.03    +0.128 A  
DOCKED: ATOM      7  C   UNL     1     137.910  69.556 223.636 -0.24 -0.00    +0.035 A  
DOCKED: ATOM      8  N   UNL     1     139.100  71.431 224.347 -0.18 +0.07    -0.243 NA 
DOCKED: ATOM      9  C   UNL     1     138.430  68.800 224.644 -0.35 -0.00    +0.013 A  
DOCKED: ATOM     10  C   UNL     1     139.625  70.707 225.345 -0.41 -0.01    +0.071 A  
DOCKED: ATOM     11  C   UNL     1     139.310  69.391 225.521 -0.43 -0.00    +0.002 A  
DOCKED: ATOM     12  C   UNL     1     140.518  71.270 226.251 -0.60 -0.00    +0.030 A  
DOCKED: ATOM     13  C   UNL     1     139.821  68.600 226.531 -0.56 -0.00    +0.030 A  
DOCKED: ATOM     14  C   UNL     1     141.037  70.475 227.274 -0.60 -0.00    +0.023 A  
DOCKED: ATOM     15  C   UNL     1     140.708  69.156 227.433 -0.59 -0.01    +0.041 A  
DOCKED: ATOM     16  Cl  UNL     1     141.360  68.155 228.719 -0.60 +0.02    -0.084 Cl 
DOCKED: ENDBRANCH   3   6
DOCKED: ENDBRANCH   1   2
DOCKED: BRANCH   1  17
DOCKED: ATOM     17  C   UNL     1     137.662  75.269 221.189 -0.09 -0.05    +0.242 C  
DOCKED: ATOM     18  O   UNL     1     136.617  76.011 220.951 -0.03 +0.05    -0.273 OA 
DOCKED: BRANCH  17  19
DOCKED: ATOM     19  N   UNL     1     138.895  75.941 221.376 -0.09 +0.07    -0.331 N  
DOCKED: ATOM     20  C   UNL     1     139.295  76.944 222.344 -0.28 -0.02    +0.120 C  
DOCKED: ATOM     21  C   UNL     1     140.049  75.661 220.507 -0.14 -0.04    +0.153 C  
DOCKED: ATOM     22  C   UNL     1     140.824  76.770 222.396 -0.37 -0.01    +0.024 C  
DOCKED: ATOM     23  C   UNL     1     141.071  76.704 220.878 -0.29 -0.01    +0.035 C  
DOCKED: BRANCH  21  24
DOCKED: ATOM     24  C   UNL     1     140.666  74.341 220.827 -0.19 -0.03    +0.150 A  
DOCKED: ATOM     25  N   UNL     1     141.417  73.690 219.921 -0.07 +0.05    -0.239 NA 
DOCKED: ATOM     26  N   UNL     1     140.494  73.764 222.027 -0.75 +0.01    -0.239 NA 
DOCKED: ATOM     27  C   UNL     1     141.999  72.505 220.143 -0.14 -0.02    +0.115 A  
DOCKED: ATOM     28  C   UNL     1     141.059  72.577 222.294 -0.18 -0.00    +0.115 A  
DOCKED: ATOM     29  C   UNL     1     141.831  71.892 221.380 -0.20 -0.00    +0.040 A  
DOCKED: ENDBRANCH  21  24
DOCKED: ENDBRANCH  17  19
DOCKED: ENDBRANCH   1  17
DOCKED: TORSDOF 5
DOCKED: TER
DOCKED: ENDMDL
________________________________________________________________________________


    CLUSTERING HISTOGRAM
    ____________________


________________________________________________________________________________
     |           |     |           |     |
Clus | Lowest    | Run | Mean      | Num | Histogram
-ter | Binding   |     | Binding   | in  |
Rank | Energy    |     | Energy    | Clus|    5    10   15   20   25   30   35
_____|___________|_____|___________|_____|____:____|____:____|____:____|____:___
   1 |     -8.15 |   6 |     -8.02 |   3 |###
   2 |     -8.13 |   7 |     -7.90 |   3 |###
   3 |     -7.81 |  10 |     -7.81 |   1 |#
   4 |     -6.95 |  15 |     -6.79 |  13 |#############
_____|___________|_____|___________|_____|______________________________________


    RMSD TABLE
    __________


_______________________________________________________________________
     |      |      |           |         |                 |
Rank | Sub- | Run  | Binding   | Cluster | Reference       | Grep
     | Rank |      | Energy    | RMSD    | RMSD            | Pattern
_____|______|______|___________|_________|_________________|___________
   1      1      6       -8.15      0.00    271.87           RANKING
   1      2      2       -7.97      0.32    271.87           RANKING
   1      3     14       -7.93      0.69    271.80           RANKING
   2      1      7       -8.13      0.00    271.69           RANKING
   2      2      3       -8.12      0.10    271.73           RANKING
   2      3     17       -7.45      1.43    271.54           RANKING
   3      1     10       -7.81      0.00    270.81           RANKING
   4      1     15       -6.95      0.00    270.74           RANKING
   4      2     19       -6.92      0.05    270.74           RANKING
   4      3     13       -6.91      0.10    270.74           RANKING
   4      4      8       -6.91      0.04    270.73           RANKING
   4      5     20       -6.89      0.11    270.75           RANKING
   4      6     11       -6.89      0.08    270.74           RANKING
   4      7      1       -6.89      0.06    270.74           RANKING
   4      8      5       -6.88      0.10    270.71           RANKING
   4      9     12       -6.86      0.12    270.73           RANKING
   4     10     16       -6.74      0.21    270.70           RANKING
   4     11     18       -6.49      0.64    270.58           RANKING
   4     12      4       -6.49      0.63    270.60           RANKING
   4     13      9       -6.49      0.42    270.64           RANKING

Run time 0.808 sec
Idle time 0.000 sec
