AutoDock-GPU version: v1.6

**********************************************************
**    AutoDock-GPU AUTODOCKTOOLS-COMPATIBLE DLG FILE    **
**********************************************************


    DOCKING PARAMETERS
    ________________________


Ligand file:                               /home/a/REINVENT4/ReinventStudies/pleaseWork/justmol2mol_4_Compounds_ontop/graph-dock-hn62wh/graph-DockGPU/node-autodockgpu/inputs/HWODJDPLAOOEAV-LCPKYYGNNA-N.pdbqt
Grid fld file:                             /home/a/REINVENT4/ReinventStudies/mols/Rad51/maps/rad51_receptor.maps.fld

Random seed:                               42
Number of runs:                            20
Number of energy evaluations:              3119281
Number of generations:                     42000
Size of population:                        150
Rate of crossover:                         80.000000%
Tournament selection probability limit:    60.000000%
Rate of mutation:                          2.000000%
Maximal allowed delta movement:            +/- 6.000000A
Maximal allowed delta angle:               +/- 90.000000

Rate of local search:                      100.000000%
Maximal number of local search iterations: 300
Rho lower bound:                           0.010000
Spread of local search delta movement:     2.000000A
Spread of local search delta angle:        74.999999
Limit of consecutive successes/failures:   4

Handle symmetry during clustering:         YES
RMSD tolerance:                            2.000000A

Program call in command line was:          /home/a/REINVENT4/ReinventStudies/adgpu-v1.6_linux_x64_cuda12_128wi --filelist batch.txt --heuristics 1 --nrun 20 --psize 150 --lsit 300 --seed 42 --heurmax 12000000 


    GRID PARAMETERS
    ________________________


Receptor name:                             rad51_receptor
Number of grid points (x, y, z):           53, 53, 53
Grid center (x, y, z):                     139.950000, 75.640000, 221.970000A
Grid size (x, y, z):                       19.500000, 19.500000, 19.500000A
Grid spacing:                              0.375000A


    LIGAND PARAMETERS
    ________________________


Ligand name:                               /home/a/REINVENT4/ReinventStudies/pleaseWork/justmol2mol_4_Compounds_ontop/graph-dock-hn62wh/graph-DockGPU/node-autodockgpu/inputs/HWODJDPLAOOEAV-LCPKYYGNNA-N
Number of atoms:                           34
Number of rotatable bonds:                 11
Number of atom types:                      10


    DUMMY DATA (only for ADT-compatibility)
    ________________________


DPF> outlev 1
DPF> ga_run 20
DPF> fld /home/a/REINVENT4/ReinventStudies/mols/Rad51/maps/rad51_receptor.maps.fld
DPF> move /home/a/REINVENT4/ReinventStudies/pleaseWork/justmol2mol_4_Compounds_ontop/graph-dock-hn62wh/graph-DockGPU/node-autodockgpu/inputs/HWODJDPLAOOEAV-LCPKYYGNNA-N.pdbqt


    COUNTER STATES
    ________________________


Number of energy evaluations performed:    601486
Number of generations used:                45


    INPUT LIGAND PDBQT FILE:
    ________________________


INPUT-LIGAND-PDBQT: REMARK SMILES O=C(NCC(=O)N1CCCCC[C@@H]1c1ccc(Cl)cc1)c1ccc2cc(F)ccc2n1
INPUT-LIGAND-PDBQT: REMARK SMILES IDX 5 1 6 2 4 3 3 4 2 5 1 6 21 8 22 9 31 10 23 11 30 12 24 13
INPUT-LIGAND-PDBQT: REMARK SMILES IDX 29 14 25 15 28 16 26 17 27 18 7 19 8 20 9 21 10 22 11 23
INPUT-LIGAND-PDBQT: REMARK SMILES IDX 13 25 12 26 14 28 15 29 20 30 16 31 19 32 17 33 18 34
INPUT-LIGAND-PDBQT: REMARK H PARENT 3 7
INPUT-LIGAND-PDBQT: REMARK Flexibility Score:   84.900
INPUT-LIGAND-PDBQT: ROOT
INPUT-LIGAND-PDBQT: ATOM      1  C   UNL     1      -1.268  -0.082   0.585  1.00  0.00     0.242 C 
INPUT-LIGAND-PDBQT: ATOM      2  O   UNL     1      -1.125  -0.127  -0.678  1.00  0.00    -0.273 OA
INPUT-LIGAND-PDBQT: ENDROOT
INPUT-LIGAND-PDBQT: BRANCH   1   3
INPUT-LIGAND-PDBQT: ATOM      3  C   UNL     1      -0.089   0.083   1.473  1.00  0.00     0.216 C 
INPUT-LIGAND-PDBQT: BRANCH   3   4
INPUT-LIGAND-PDBQT: ATOM      4  N   UNL     1       1.144   0.176   0.716  1.00  0.00    -0.342 N 
INPUT-LIGAND-PDBQT: ATOM      5  C   UNL     1       2.351   0.338   1.472  1.00  0.00     0.270 C 
INPUT-LIGAND-PDBQT: ATOM      6  O   UNL     1       2.215   0.383   2.725  1.00  0.00    -0.268 OA
INPUT-LIGAND-PDBQT: ATOM      7  H   UNL     1       1.167   0.128  -0.329  1.00  0.00     0.164 HD
INPUT-LIGAND-PDBQT: BRANCH   5   8
INPUT-LIGAND-PDBQT: ATOM      8  C   UNL     1       3.655   0.443   0.814  1.00  0.00     0.128 A 
INPUT-LIGAND-PDBQT: ATOM      9  C   UNL     1       4.759   0.596   1.613  1.00  0.00     0.035 A 
INPUT-LIGAND-PDBQT: ATOM     10  N   UNL     1       3.757   0.390  -0.517  1.00  0.00    -0.243 NA
INPUT-LIGAND-PDBQT: ATOM     11  C   UNL     1       6.008   0.698   1.027  1.00  0.00     0.013 A 
INPUT-LIGAND-PDBQT: ATOM     12  C   UNL     1       4.973   0.489  -1.092  1.00  0.00     0.071 A 
INPUT-LIGAND-PDBQT: ATOM     13  C   UNL     1       6.128   0.646  -0.344  1.00  0.00     0.003 A 
INPUT-LIGAND-PDBQT: ATOM     14  C   UNL     1       5.061   0.433  -2.472  1.00  0.00     0.032 A 
INPUT-LIGAND-PDBQT: ATOM     15  C   UNL     1       7.366   0.746  -0.943  1.00  0.00     0.049 A 
INPUT-LIGAND-PDBQT: ATOM     16  C   UNL     1       6.292   0.531  -3.102  1.00  0.00     0.041 A 
INPUT-LIGAND-PDBQT: ATOM     17  C   UNL     1       7.437   0.688  -2.330  1.00  0.00     0.123 A 
INPUT-LIGAND-PDBQT: ATOM     18  F   UNL     1       8.660   0.789  -2.884  1.00  0.00    -0.207 F 
INPUT-LIGAND-PDBQT: ENDBRANCH   5   8
INPUT-LIGAND-PDBQT: ENDBRANCH   3   4
INPUT-LIGAND-PDBQT: ENDBRANCH   1   3
INPUT-LIGAND-PDBQT: BRANCH   1  19
INPUT-LIGAND-PDBQT: ATOM     19  N   UNL     1      -2.540  -0.185   1.214  1.00  0.00    -0.334 N 
INPUT-LIGAND-PDBQT: BRANCH  19  20
INPUT-LIGAND-PDBQT: ATOM     20  C   UNL     1      -2.609  -0.123   2.662  1.00  0.00     0.120 C 
INPUT-LIGAND-PDBQT: BRANCH  20  21
INPUT-LIGAND-PDBQT: ATOM     21  C   UNL     1      -2.899  -1.528   3.204  1.00  0.00     0.022 C 
INPUT-LIGAND-PDBQT: BRANCH  21  22
INPUT-LIGAND-PDBQT: ATOM     22  C   UNL     1      -4.037  -2.182   2.416  1.00  0.00     0.002 C 
INPUT-LIGAND-PDBQT: BRANCH  22  23
INPUT-LIGAND-PDBQT: ATOM     23  C   UNL     1      -3.610  -2.713   1.096  1.00  0.00     0.003 CG0
INPUT-LIGAND-PDBQT: ATOM     24  G   UNL     1      -3.860  -1.796  -0.063  1.00  0.00     0.000 G0
INPUT-LIGAND-PDBQT: ENDBRANCH  22  23
INPUT-LIGAND-PDBQT: ENDBRANCH  21  22
INPUT-LIGAND-PDBQT: ENDBRANCH  20  21
INPUT-LIGAND-PDBQT: ENDBRANCH  19  20
INPUT-LIGAND-PDBQT: BRANCH  19  25
INPUT-LIGAND-PDBQT: ATOM     25  C   UNL     1      -3.631  -0.343   0.276  1.00  0.00     0.115 C 
INPUT-LIGAND-PDBQT: BRANCH  25  26
INPUT-LIGAND-PDBQT: ATOM     26  C   UNL     1      -3.860  -1.796  -0.063  1.00  0.00     0.030 CG0
INPUT-LIGAND-PDBQT: ATOM     27  G   UNL     1      -3.610  -2.713   1.096  1.00  0.00     0.000 G0
INPUT-LIGAND-PDBQT: ENDBRANCH  25  26
INPUT-LIGAND-PDBQT: BRANCH  25  28
INPUT-LIGAND-PDBQT: ATOM     28  C   UNL     1      -3.497   0.460  -0.944  1.00  0.00    -0.025 A 
INPUT-LIGAND-PDBQT: ATOM     29  C   UNL     1      -3.105   1.796  -0.797  1.00  0.00     0.007 A 
INPUT-LIGAND-PDBQT: ATOM     30  C   UNL     1      -3.728  -0.004  -2.220  1.00  0.00     0.007 A 
INPUT-LIGAND-PDBQT: ATOM     31  C   UNL     1      -2.964   2.595  -1.918  1.00  0.00     0.021 A 
INPUT-LIGAND-PDBQT: ATOM     32  C   UNL     1      -3.585   0.806  -3.345  1.00  0.00     0.021 A 
INPUT-LIGAND-PDBQT: ATOM     33  C   UNL     1      -3.195   2.131  -3.192  1.00  0.00     0.041 A 
INPUT-LIGAND-PDBQT: ATOM     34  Cl  UNL     1      -2.995   3.208  -4.554  1.00  0.00    -0.084 Cl
INPUT-LIGAND-PDBQT: ENDBRANCH  25  28
INPUT-LIGAND-PDBQT: ENDBRANCH  19  25
INPUT-LIGAND-PDBQT: ENDBRANCH   1  19
INPUT-LIGAND-PDBQT: TORSDOF 5


    FINAL DOCKED STATE:
    ________________________


Run:   1 / 20
Time taken for this run:   0.031s

DOCKED: MODEL        1
DOCKED: USER    Run = 1
DOCKED: USER
DOCKED: USER    Estimated Free Energy of Binding    =  -4.93 kcal/mol  [=(1)+(2)+(3)-(4)]
DOCKED: USER
DOCKED: USER    (1) Final Intermolecular Energy     =  -8.21 kcal/mol
DOCKED: USER        vdW + Hbond + desolv Energy     =  -8.43 kcal/mol
DOCKED: USER        Electrostatic Energy            =  -0.03 kcal/mol
DOCKED: USER        Moving Ligand-Fixed Receptor    =  -8.46 kcal/mol
DOCKED: USER        Moving Ligand-Moving Receptor   =  +0.25 kcal/mol
DOCKED: USER    (2) Final Total Internal Energy     =  -1.74 kcal/mol
DOCKED: USER    (3) Torsional Free Energy           =  +3.28 kcal/mol
DOCKED: USER    (4) Unbound System's Energy         =  -1.74 kcal/mol
DOCKED: USER
DOCKED: USER
DOCKED: REMARK SMILES O=C(NCC(=O)N1CCCCC[C@@H]1c1ccc(Cl)cc1)c1ccc2cc(F)ccc2n1
DOCKED: REMARK SMILES IDX 5 1 6 2 4 3 3 4 2 5 1 6 21 8 22 9 31 10 23 11 30 12 24 13
DOCKED: REMARK SMILES IDX 29 14 25 15 28 16 26 17 27 18 7 19 8 20 9 21 10 22 11 23
DOCKED: REMARK SMILES IDX 13 25 12 26 14 28 15 29 20 30 16 31 19 32 17 33 18 34
DOCKED: REMARK H PARENT 3 7
DOCKED: REMARK Flexibility Score:   84.900
DOCKED: USER                              x       y       z     vdW  Elec       q    Type
DOCKED: USER                           _______ _______ _______ _____ _____    ______ ____
DOCKED: ROOT
DOCKED: ATOM      1  C   UNL     1     140.399  76.801 222.272 -0.28 -0.07    +0.242 C  
DOCKED: ATOM      2  O   UNL     1     140.813  75.603 222.164 -0.47 +0.05    -0.273 OA 
DOCKED: ENDROOT
DOCKED: BRANCH   1   3
DOCKED: ATOM      3  C   UNL     1     138.946  77.106 222.213 -0.22 -0.04    +0.216 C  
DOCKED: BRANCH   3   4
DOCKED: ATOM      4  N   UNL     1     138.163  76.131 222.947 -0.14 +0.08    -0.342 N  
DOCKED: ATOM      5  C   UNL     1     136.782  76.449 223.164 -0.11 -0.06    +0.270 C  
DOCKED: ATOM      6  O   UNL     1     136.389  77.550 222.690 -0.12 +0.04    -0.268 OA 
DOCKED: ATOM      7  H   UNL     1     138.571  75.237 223.306 -0.46 -0.08    +0.164 HD 
DOCKED: BRANCH   5   8
DOCKED: ATOM      8  C   UNL     1     135.895  75.540 223.892 -0.25 -0.03    +0.128 A  
DOCKED: ATOM      9  C   UNL     1     135.856  74.230 223.486 -0.19 -0.01    +0.035 A  
DOCKED: ATOM     10  N   UNL     1     135.156  75.977 224.915 -0.19 +0.03    -0.243 NA 
DOCKED: ATOM     11  C   UNL     1     135.030  73.342 224.151 -0.23 -0.00    +0.013 A  
DOCKED: ATOM     12  C   UNL     1     134.349  75.114 225.566 -0.35 -0.00    +0.071 A  
DOCKED: ATOM     13  C   UNL     1     134.261  73.779 225.207 -0.30 -0.00    +0.003 A  
DOCKED: ATOM     14  C   UNL     1     133.589  75.584 226.623 -0.38 +0.00    +0.032 A  
DOCKED: ATOM     15  C   UNL     1     133.433  72.906 225.880 -0.28 -0.00    +0.049 A  
DOCKED: ATOM     16  C   UNL     1     132.748  74.729 227.318 -0.35 +0.00    +0.041 A  
DOCKED: ATOM     17  C   UNL     1     132.676  73.394 226.939 -0.33 -0.01    +0.123 A  
DOCKED: ATOM     18  F   UNL     1     131.878  72.516 227.575 -0.14 +0.04    -0.207 F  
DOCKED: ENDBRANCH   5   8
DOCKED: ENDBRANCH   3   4
DOCKED: ENDBRANCH   1   3
DOCKED: BRANCH   1  19
DOCKED: ATOM     19  N   UNL     1     141.282  77.901 222.452 -0.21 +0.15    -0.334 N  
DOCKED: BRANCH  19  20
DOCKED: ATOM     20  C   UNL     1     141.490  78.416 223.793 -0.34 -0.03    +0.120 C  
DOCKED: BRANCH  20  21
DOCKED: ATOM     21  C   UNL     1     141.957  79.873 223.696 -0.61 -0.01    +0.022 C  
DOCKED: BRANCH  21  22
DOCKED: ATOM     22  C   UNL     1     140.850  80.753 223.109 -0.48 -0.00    +0.002 C  
DOCKED: BRANCH  22  23
DOCKED: ATOM     23  C   UNL     1     140.339  80.263 221.803 -0.29 -0.00    +0.003 CG0
DOCKED: ATOM     24  G   UNL     1     141.391  79.752 220.866 +0.00 +0.00    +0.000 G0 
DOCKED: ENDBRANCH  22  23
DOCKED: ENDBRANCH  21  22
DOCKED: ENDBRANCH  20  21
DOCKED: ENDBRANCH  19  20
DOCKED: BRANCH  19  25
DOCKED: ATOM     25  C   UNL     1     141.873  78.369 221.217 -0.25 -0.07    +0.115 C  
DOCKED: BRANCH  25  26
DOCKED: ATOM     26  C   UNL     1     141.392  79.756 220.866 -0.32 -0.01    +0.030 CG0
DOCKED: ATOM     27  G   UNL     1     140.338  80.263 221.804 +0.00 +0.00    +0.000 G0 
DOCKED: ENDBRANCH  25  26
DOCKED: BRANCH  25  28
DOCKED: ATOM     28  C   UNL     1     141.698  77.456 220.082 -0.28 +0.01    -0.025 A  
DOCKED: ATOM     29  C   UNL     1     142.695  76.497 219.865 -0.34 -0.00    +0.007 A  
DOCKED: ATOM     30  C   UNL     1     140.626  77.473 219.217 -0.12 -0.00    +0.007 A  
DOCKED: ATOM     31  C   UNL     1     142.575  75.613 218.808 -0.23 -0.01    +0.021 A  
DOCKED: ATOM     32  C   UNL     1     140.511  76.580 218.154 -0.06 -0.01    +0.021 A  
DOCKED: ATOM     33  C   UNL     1     141.504  75.631 217.945 -0.08 -0.01    +0.041 A  
DOCKED: ATOM     34  Cl  UNL     1     141.432  74.478 216.633 -0.03 +0.02    -0.084 Cl 
DOCKED: ENDBRANCH  25  28
DOCKED: ENDBRANCH  19  25
DOCKED: ENDBRANCH   1  19
DOCKED: TORSDOF 5
DOCKED: TER
DOCKED: ENDMDL
________________________________________________________________________________


    FINAL DOCKED STATE:
    ________________________


Run:   2 / 20
Time taken for this run:   0.031s

DOCKED: MODEL        2
DOCKED: USER    Run = 2
DOCKED: USER
DOCKED: USER    Estimated Free Energy of Binding    =  -6.03 kcal/mol  [=(1)+(2)+(3)-(4)]
DOCKED: USER
DOCKED: USER    (1) Final Intermolecular Energy     =  -9.31 kcal/mol
DOCKED: USER        vdW + Hbond + desolv Energy     = -10.53 kcal/mol
DOCKED: USER        Electrostatic Energy            =  +0.00 kcal/mol
DOCKED: USER        Moving Ligand-Fixed Receptor    = -10.53 kcal/mol
DOCKED: USER        Moving Ligand-Moving Receptor   =  +1.22 kcal/mol
DOCKED: USER    (2) Final Total Internal Energy     =  -1.58 kcal/mol
DOCKED: USER    (3) Torsional Free Energy           =  +3.28 kcal/mol
DOCKED: USER    (4) Unbound System's Energy         =  -1.58 kcal/mol
DOCKED: USER
DOCKED: USER
DOCKED: REMARK SMILES O=C(NCC(=O)N1CCCCC[C@@H]1c1ccc(Cl)cc1)c1ccc2cc(F)ccc2n1
DOCKED: REMARK SMILES IDX 5 1 6 2 4 3 3 4 2 5 1 6 21 8 22 9 31 10 23 11 30 12 24 13
DOCKED: REMARK SMILES IDX 29 14 25 15 28 16 26 17 27 18 7 19 8 20 9 21 10 22 11 23
DOCKED: REMARK SMILES IDX 13 25 12 26 14 28 15 29 20 30 16 31 19 32 17 33 18 34
DOCKED: REMARK H PARENT 3 7
DOCKED: REMARK Flexibility Score:   84.900
DOCKED: USER                              x       y       z     vdW  Elec       q    Type
DOCKED: USER                           _______ _______ _______ _____ _____    ______ ____
DOCKED: ROOT
DOCKED: ATOM      1  C   UNL     1     140.280  74.781 221.569 -0.22 -0.04    +0.242 C  
DOCKED: ATOM      2  O   UNL     1     139.531  75.311 222.450 -0.57 +0.04    -0.273 OA 
DOCKED: ENDROOT
DOCKED: BRANCH   1   3
DOCKED: ATOM      3  C   UNL     1     140.162  73.335 221.248 -0.18 -0.03    +0.216 C  
DOCKED: BRANCH   3   4
DOCKED: ATOM      4  N   UNL     1     140.475  72.504 222.394 -0.17 +0.03    -0.342 N  
DOCKED: ATOM      5  C   UNL     1     139.441  71.621 222.848 -0.20 -0.06    +0.270 C  
DOCKED: ATOM      6  O   UNL     1     138.360  71.659 222.200 -0.10 +0.06    -0.268 OA 
DOCKED: ATOM      7  H   UNL     1     141.404  72.535 222.874 +0.07 +0.01    +0.164 HD 
DOCKED: BRANCH   5   8
DOCKED: ATOM      8  C   UNL     1     139.644  70.735 223.996 -0.31 -0.02    +0.128 A  
DOCKED: ATOM      9  C   UNL     1     139.170  69.452 223.900 -0.28 -0.01    +0.035 A  
DOCKED: ATOM     10  N   UNL     1     140.271  71.169 225.093 -0.32 +0.04    -0.243 NA 
DOCKED: ATOM     11  C   UNL     1     139.345  68.586 224.964 -0.40 -0.00    +0.013 A  
DOCKED: ATOM     12  C   UNL     1     140.443  70.327 226.133 -0.50 -0.01    +0.071 A  
DOCKED: ATOM     13  C   UNL     1     139.988  69.020 226.102 -0.52 -0.00    +0.003 A  
DOCKED: ATOM     14  C   UNL     1     141.093  70.792 227.263 -0.62 -0.01    +0.032 A  
DOCKED: ATOM     15  C   UNL     1     140.169  68.168 227.172 -0.63 -0.01    +0.049 A  
DOCKED: ATOM     16  C   UNL     1     141.290  69.959 228.353 -0.44 -0.01    +0.041 A  
DOCKED: ATOM     17  C   UNL     1     140.824  68.651 228.299 -0.55 -0.03    +0.123 A  
DOCKED: ATOM     18  F   UNL     1     140.985  67.795 229.325 -0.16 +0.06    -0.207 F  
DOCKED: ENDBRANCH   5   8
DOCKED: ENDBRANCH   3   4
DOCKED: ENDBRANCH   1   3
DOCKED: BRANCH   1  19
DOCKED: ATOM     19  N   UNL     1     141.259  75.523 220.850 -0.14 +0.11    -0.334 N  
DOCKED: BRANCH  19  20
DOCKED: ATOM     20  C   UNL     1     142.570  74.936 220.648 -0.19 -0.05    +0.120 C  
DOCKED: BRANCH  20  21
DOCKED: ATOM     21  C   UNL     1     142.927  75.025 219.159 -0.27 -0.01    +0.022 C  
DOCKED: BRANCH  21  22
DOCKED: ATOM     22  C   UNL     1     141.706  74.699 218.294 -0.08 -0.00    +0.002 C  
DOCKED: BRANCH  22  23
DOCKED: ATOM     23  C   UNL     1     140.801  75.859 218.091 -0.06 -0.00    +0.003 CG0
DOCKED: ATOM     24  G   UNL     1     141.100  77.050 218.951 +0.00 +0.00    +0.000 G0 
DOCKED: ENDBRANCH  22  23
DOCKED: ENDBRANCH  21  22
DOCKED: ENDBRANCH  20  21
DOCKED: ENDBRANCH  19  20
DOCKED: BRANCH  19  25
DOCKED: ATOM     25  C   UNL     1     140.783  76.815 220.405 -0.18 -0.04    +0.115 C  
DOCKED: BRANCH  25  26
DOCKED: ATOM     26  C   UNL     1     141.109  77.051 218.950 -0.14 -0.01    +0.030 CG0
DOCKED: ATOM     27  G   UNL     1     140.814  75.863 218.085 +0.00 +0.00    +0.000 G0 
DOCKED: ENDBRANCH  25  26
DOCKED: BRANCH  25  28
DOCKED: ATOM     28  C   UNL     1     141.237  77.941 221.228 -0.32 +0.01    -0.025 A  
DOCKED: ATOM     29  C   UNL     1     141.106  77.819 222.617 -0.46 -0.00    +0.007 A  
DOCKED: ATOM     30  C   UNL     1     141.782  79.106 220.735 -0.32 -0.00    +0.007 A  
DOCKED: ATOM     31  C   UNL     1     141.521  78.853 223.437 -0.58 -0.01    +0.021 A  
DOCKED: ATOM     32  C   UNL     1     142.197  80.145 221.566 -0.44 -0.01    +0.021 A  
DOCKED: ATOM     33  C   UNL     1     142.065  80.016 222.944 -0.57 -0.01    +0.041 A  
DOCKED: ATOM     34  Cl  UNL     1     142.562  81.275 224.050 -0.66 +0.01    -0.084 Cl 
DOCKED: ENDBRANCH  25  28
DOCKED: ENDBRANCH  19  25
DOCKED: ENDBRANCH   1  19
DOCKED: TORSDOF 5
DOCKED: TER
DOCKED: ENDMDL
________________________________________________________________________________


    FINAL DOCKED STATE:
    ________________________


Run:   3 / 20
Time taken for this run:   0.031s

DOCKED: MODEL        3
DOCKED: USER    Run = 3
DOCKED: USER
DOCKED: USER    Estimated Free Energy of Binding    =  -5.17 kcal/mol  [=(1)+(2)+(3)-(4)]
DOCKED: USER
DOCKED: USER    (1) Final Intermolecular Energy     =  -8.45 kcal/mol
DOCKED: USER        vdW + Hbond + desolv Energy     =  -8.58 kcal/mol
DOCKED: USER        Electrostatic Energy            =  -0.05 kcal/mol
DOCKED: USER        Moving Ligand-Fixed Receptor    =  -8.63 kcal/mol
DOCKED: USER        Moving Ligand-Moving Receptor   =  +0.18 kcal/mol
DOCKED: USER    (2) Final Total Internal Energy     =  -1.96 kcal/mol
DOCKED: USER    (3) Torsional Free Energy           =  +3.28 kcal/mol
DOCKED: USER    (4) Unbound System's Energy         =  -1.96 kcal/mol
DOCKED: USER
DOCKED: USER
DOCKED: REMARK SMILES O=C(NCC(=O)N1CCCCC[C@@H]1c1ccc(Cl)cc1)c1ccc2cc(F)ccc2n1
DOCKED: REMARK SMILES IDX 5 1 6 2 4 3 3 4 2 5 1 6 21 8 22 9 31 10 23 11 30 12 24 13
DOCKED: REMARK SMILES IDX 29 14 25 15 28 16 26 17 27 18 7 19 8 20 9 21 10 22 11 23
DOCKED: REMARK SMILES IDX 13 25 12 26 14 28 15 29 20 30 16 31 19 32 17 33 18 34
DOCKED: REMARK H PARENT 3 7
DOCKED: REMARK Flexibility Score:   84.900
DOCKED: USER                              x       y       z     vdW  Elec       q    Type
DOCKED: USER                           _______ _______ _______ _____ _____    ______ ____
DOCKED: ROOT
DOCKED: ATOM      1  C   UNL     1     140.502  74.375 221.094 -0.19 -0.04    +0.242 C  
DOCKED: ATOM      2  O   UNL     1     140.548  74.743 222.311 -0.66 -0.01    -0.273 OA 
DOCKED: ENDROOT
DOCKED: BRANCH   1   3
DOCKED: ATOM      3  C   UNL     1     140.462  72.933 220.743 -0.13 -0.04    +0.216 C  
DOCKED: BRANCH   3   4
DOCKED: ATOM      4  N   UNL     1     140.711  72.092 221.897 -0.13 +0.04    -0.342 N  
DOCKED: ATOM      5  C   UNL     1     139.573  71.738 222.692 -0.20 -0.05    +0.270 C  
DOCKED: ATOM      6  O   UNL     1     138.464  72.197 222.303 -0.13 +0.07    -0.268 OA 
DOCKED: ATOM      7  H   UNL     1     141.669  71.753 222.148 +0.06 -0.01    +0.164 HD 
DOCKED: BRANCH   5   8
DOCKED: ATOM      8  C   UNL     1     139.705  70.893 223.881 -0.31 -0.02    +0.128 A  
DOCKED: ATOM      9  C   UNL     1     139.174  69.631 223.825 -0.28 -0.01    +0.035 A  
DOCKED: ATOM     10  N   UNL     1     140.323  71.344 224.976 -0.32 +0.04    -0.243 NA 
DOCKED: ATOM     11  C   UNL     1     139.280  68.803 224.929 -0.40 -0.00    +0.013 A  
DOCKED: ATOM     12  C   UNL     1     140.429  70.541 226.054 -0.51 -0.01    +0.071 A  
DOCKED: ATOM     13  C   UNL     1     139.914  69.255 226.065 -0.50 -0.00    +0.003 A  
DOCKED: ATOM     14  C   UNL     1     141.072  71.023 227.181 -0.66 -0.01    +0.032 A  
DOCKED: ATOM     15  C   UNL     1     140.029  68.443 227.173 -0.60 -0.01    +0.049 A  
DOCKED: ATOM     16  C   UNL     1     141.202  70.229 228.310 -0.48 -0.01    +0.041 A  
DOCKED: ATOM     17  C   UNL     1     140.677  68.943 228.297 -0.54 -0.03    +0.123 A  
DOCKED: ATOM     18  F   UNL     1     140.772  68.125 229.362 -0.11 +0.05    -0.207 F  
DOCKED: ENDBRANCH   5   8
DOCKED: ENDBRANCH   3   4
DOCKED: ENDBRANCH   1   3
DOCKED: BRANCH   1  19
DOCKED: ATOM     19  N   UNL     1     140.486  75.303 220.016 -0.03 +0.09    -0.334 N  
DOCKED: BRANCH  19  20
DOCKED: ATOM     20  C   UNL     1     141.610  75.324 219.097 -0.12 -0.04    +0.120 C  
DOCKED: BRANCH  20  21
DOCKED: ATOM     21  C   UNL     1     142.717  76.203 219.691 -0.35 -0.01    +0.022 C  
DOCKED: BRANCH  21  22
DOCKED: ATOM     22  C   UNL     1     142.158  77.571 220.092 -0.30 -0.00    +0.002 C  
DOCKED: BRANCH  22  23
DOCKED: ATOM     23  C   UNL     1     140.918  77.938 219.361 -0.17 -0.00    +0.003 CG0
DOCKED: ATOM     24  G   UNL     1     139.644  77.597 220.072 +0.00 +0.00    +0.000 G0 
DOCKED: ENDBRANCH  22  23
DOCKED: ENDBRANCH  21  22
DOCKED: ENDBRANCH  20  21
DOCKED: ENDBRANCH  19  20
DOCKED: BRANCH  19  25
DOCKED: ATOM     25  C   UNL     1     139.298  76.129 219.988 -0.07 -0.03    +0.115 C  
DOCKED: BRANCH  25  26
DOCKED: ATOM     26  C   UNL     1     139.644  77.596 220.074 -0.10 -0.01    +0.030 CG0
DOCKED: ATOM     27  G   UNL     1     140.918  77.938 219.362 +0.00 +0.00    +0.000 G0 
DOCKED: ENDBRANCH  25  26
DOCKED: BRANCH  25  28
DOCKED: ATOM     28  C   UNL     1     138.294  75.773 220.997 -0.13 +0.01    -0.025 A  
DOCKED: ATOM     29  C   UNL     1     137.428  74.714 220.699 -0.08 -0.00    +0.007 A  
DOCKED: ATOM     30  C   UNL     1     138.142  76.403 222.212 -0.27 -0.00    +0.007 A  
DOCKED: ATOM     31  C   UNL     1     136.464  74.339 221.618 -0.11 -0.00    +0.021 A  
DOCKED: ATOM     32  C   UNL     1     137.169  76.022 223.133 -0.25 -0.01    +0.021 A  
DOCKED: ATOM     33  C   UNL     1     136.313  74.969 222.831 -0.19 -0.01    +0.041 A  
DOCKED: ATOM     34  Cl  UNL     1     135.068  74.433 223.935 -0.31 +0.02    -0.084 Cl 
DOCKED: ENDBRANCH  25  28
DOCKED: ENDBRANCH  19  25
DOCKED: ENDBRANCH   1  19
DOCKED: TORSDOF 5
DOCKED: TER
DOCKED: ENDMDL
________________________________________________________________________________


    FINAL DOCKED STATE:
    ________________________


Run:   4 / 20
Time taken for this run:   0.031s

DOCKED: MODEL        4
DOCKED: USER    Run = 4
DOCKED: USER
DOCKED: USER    Estimated Free Energy of Binding    =  -5.66 kcal/mol  [=(1)+(2)+(3)-(4)]
DOCKED: USER
DOCKED: USER    (1) Final Intermolecular Energy     =  -8.95 kcal/mol
DOCKED: USER        vdW + Hbond + desolv Energy     =  -9.15 kcal/mol
DOCKED: USER        Electrostatic Energy            =  -0.06 kcal/mol
DOCKED: USER        Moving Ligand-Fixed Receptor    =  -9.21 kcal/mol
DOCKED: USER        Moving Ligand-Moving Receptor   =  +0.26 kcal/mol
DOCKED: USER    (2) Final Total Internal Energy     =  -1.50 kcal/mol
DOCKED: USER    (3) Torsional Free Energy           =  +3.28 kcal/mol
DOCKED: USER    (4) Unbound System's Energy         =  -1.50 kcal/mol
DOCKED: USER
DOCKED: USER
DOCKED: REMARK SMILES O=C(NCC(=O)N1CCCCC[C@@H]1c1ccc(Cl)cc1)c1ccc2cc(F)ccc2n1
DOCKED: REMARK SMILES IDX 5 1 6 2 4 3 3 4 2 5 1 6 21 8 22 9 31 10 23 11 30 12 24 13
DOCKED: REMARK SMILES IDX 29 14 25 15 28 16 26 17 27 18 7 19 8 20 9 21 10 22 11 23
DOCKED: REMARK SMILES IDX 13 25 12 26 14 28 15 29 20 30 16 31 19 32 17 33 18 34
DOCKED: REMARK H PARENT 3 7
DOCKED: REMARK Flexibility Score:   84.900
DOCKED: USER                              x       y       z     vdW  Elec       q    Type
DOCKED: USER                           _______ _______ _______ _____ _____    ______ ____
DOCKED: ROOT
DOCKED: ATOM      1  C   UNL     1     137.710  72.608 222.007 -0.10 -0.07    +0.242 C  
DOCKED: ATOM      2  O   UNL     1     136.888  73.481 222.430 -0.11 +0.09    -0.273 OA 
DOCKED: ENDROOT
DOCKED: BRANCH   1   3
DOCKED: ATOM      3  C   UNL     1     138.749  72.970 221.009 -0.09 -0.04    +0.216 C  
DOCKED: BRANCH   3   4
DOCKED: ATOM      4  N   UNL     1     139.024  74.393 221.013 -0.07 +0.07    -0.342 N  
DOCKED: ATOM      5  C   UNL     1     140.281  74.803 221.565 -0.21 -0.04    +0.270 C  
DOCKED: ATOM      6  O   UNL     1     141.024  73.877 221.993 -0.67 +0.00    -0.268 OA 
DOCKED: ATOM      7  H   UNL     1     138.348  75.097 220.634 +0.03 -0.04    +0.164 HD 
DOCKED: BRANCH   5   8
DOCKED: ATOM      8  C   UNL     1     140.666  76.215 221.621 -0.30 -0.04    +0.128 A  
DOCKED: ATOM      9  C   UNL     1     141.428  76.706 220.592 -0.28 -0.02    +0.035 A  
DOCKED: ATOM     10  N   UNL     1     140.284  76.989 222.640 -0.24 +0.06    -0.243 NA 
DOCKED: ATOM     11  C   UNL     1     141.811  78.036 220.610 -0.32 -0.01    +0.013 A  
DOCKED: ATOM     12  C   UNL     1     140.655  78.285 222.661 -0.40 -0.02    +0.071 A  
DOCKED: ATOM     13  C   UNL     1     141.425  78.845 221.655 -0.39 -0.00    +0.003 A  
DOCKED: ATOM     14  C   UNL     1     140.252  79.074 223.725 -0.38 -0.01    +0.032 A  
DOCKED: ATOM     15  C   UNL     1     141.798  80.172 221.688 -0.41 -0.02    +0.049 A  
DOCKED: ATOM     16  C   UNL     1     140.612  80.411 223.785 -0.42 -0.01    +0.041 A  
DOCKED: ATOM     17  C   UNL     1     141.384  80.950 222.763 -0.41 -0.02    +0.123 A  
DOCKED: ATOM     18  F   UNL     1     141.765  82.242 222.765 -0.11 +0.02    -0.207 F  
DOCKED: ENDBRANCH   5   8
DOCKED: ENDBRANCH   3   4
DOCKED: ENDBRANCH   1   3
DOCKED: BRANCH   1  19
DOCKED: ATOM     19  N   UNL     1     137.686  71.257 222.453 -0.05 +0.07    -0.334 N  
DOCKED: BRANCH  19  20
DOCKED: ATOM     20  C   UNL     1     136.403  70.608 222.645 -0.09 -0.02    +0.120 C  
DOCKED: BRANCH  20  21
DOCKED: ATOM     21  C   UNL     1     136.398  69.284 221.871 -0.08 -0.00    +0.022 C  
DOCKED: BRANCH  21  22
DOCKED: ATOM     22  C   UNL     1     136.991  68.161 222.726 -0.12 -0.00    +0.002 C  
DOCKED: BRANCH  22  23
DOCKED: ATOM     23  C   UNL     1     138.463  68.265 222.896 -0.26 -0.00    +0.003 CG0
DOCKED: ATOM     24  G   UNL     1     139.121  69.320 222.059 +0.00 +0.00    +0.000 G0 
DOCKED: ENDBRANCH  22  23
DOCKED: ENDBRANCH  21  22
DOCKED: ENDBRANCH  20  21
DOCKED: ENDBRANCH  19  20
DOCKED: BRANCH  19  25
DOCKED: ATOM     25  C   UNL     1     139.006  70.700 222.661 -0.19 -0.02    +0.115 C  
DOCKED: BRANCH  25  26
DOCKED: ATOM     26  C   UNL     1     139.122  69.320 222.061 -0.16 -0.01    +0.030 CG0
DOCKED: ATOM     27  G   UNL     1     138.465  68.263 222.896 +0.00 +0.00    +0.000 G0 
DOCKED: ENDBRANCH  25  26
DOCKED: BRANCH  25  28
DOCKED: ATOM     28  C   UNL     1     139.445  70.697 224.060 -0.36 +0.00    -0.025 A  
DOCKED: ATOM     29  C   UNL     1     140.583  71.446 224.381 -0.45 -0.00    +0.007 A  
DOCKED: ATOM     30  C   UNL     1     138.819  70.012 225.079 -0.37 -0.00    +0.007 A  
DOCKED: ATOM     31  C   UNL     1     141.037  71.475 225.688 -0.60 -0.00    +0.021 A  
DOCKED: ATOM     32  C   UNL     1     139.282  70.045 226.393 -0.30 -0.00    +0.021 A  
DOCKED: ATOM     33  C   UNL     1     140.412  70.791 226.705 -0.58 -0.01    +0.041 A  
DOCKED: ATOM     34  Cl  UNL     1     141.052  70.880 228.329 -0.65 +0.02    -0.084 Cl 
DOCKED: ENDBRANCH  25  28
DOCKED: ENDBRANCH  19  25
DOCKED: ENDBRANCH   1  19
DOCKED: TORSDOF 5
DOCKED: TER
DOCKED: ENDMDL
________________________________________________________________________________


    FINAL DOCKED STATE:
    ________________________


Run:   5 / 20
Time taken for this run:   0.031s

DOCKED: MODEL        5
DOCKED: USER    Run = 5
DOCKED: USER
DOCKED: USER    Estimated Free Energy of Binding    =  -5.39 kcal/mol  [=(1)+(2)+(3)-(4)]
DOCKED: USER
DOCKED: USER    (1) Final Intermolecular Energy     =  -8.67 kcal/mol
DOCKED: USER        vdW + Hbond + desolv Energy     =  -8.91 kcal/mol
DOCKED: USER        Electrostatic Energy            =  -0.01 kcal/mol
DOCKED: USER        Moving Ligand-Fixed Receptor    =  -8.92 kcal/mol
DOCKED: USER        Moving Ligand-Moving Receptor   =  +0.25 kcal/mol
DOCKED: USER    (2) Final Total Internal Energy     =  -2.24 kcal/mol
DOCKED: USER    (3) Torsional Free Energy           =  +3.28 kcal/mol
DOCKED: USER    (4) Unbound System's Energy         =  -2.24 kcal/mol
DOCKED: USER
DOCKED: USER
DOCKED: REMARK SMILES O=C(NCC(=O)N1CCCCC[C@@H]1c1ccc(Cl)cc1)c1ccc2cc(F)ccc2n1
DOCKED: REMARK SMILES IDX 5 1 6 2 4 3 3 4 2 5 1 6 21 8 22 9 31 10 23 11 30 12 24 13
DOCKED: REMARK SMILES IDX 29 14 25 15 28 16 26 17 27 18 7 19 8 20 9 21 10 22 11 23
DOCKED: REMARK SMILES IDX 13 25 12 26 14 28 15 29 20 30 16 31 19 32 17 33 18 34
DOCKED: REMARK H PARENT 3 7
DOCKED: REMARK Flexibility Score:   84.900
DOCKED: USER                              x       y       z     vdW  Elec       q    Type
DOCKED: USER                           _______ _______ _______ _____ _____    ______ ____
DOCKED: ROOT
DOCKED: ATOM      1  C   UNL     1     138.145  71.241 222.732 -0.13 -0.06    +0.242 C  
DOCKED: ATOM      2  O   UNL     1     138.502  72.460 222.806 -0.07 +0.10    -0.273 OA 
DOCKED: ENDROOT
DOCKED: BRANCH   1   3
DOCKED: ATOM      3  C   UNL     1     136.848  70.798 223.303 -0.12 -0.04    +0.216 C  
DOCKED: BRANCH   3   4
DOCKED: ATOM      4  N   UNL     1     136.193  71.863 224.038 -0.09 +0.07    -0.342 N  
DOCKED: ATOM      5  C   UNL     1     134.991  71.516 224.736 -0.08 -0.03    +0.270 C  
DOCKED: ATOM      6  O   UNL     1     134.624  70.313 224.639 -0.10 +0.02    -0.268 OA 
DOCKED: ATOM      7  H   UNL     1     136.569  72.839 224.066 -0.42 -0.07    +0.164 HD 
DOCKED: BRANCH   5   8
DOCKED: ATOM      8  C   UNL     1     134.245  72.510 225.511 -0.22 -0.01    +0.128 A  
DOCKED: ATOM      9  C   UNL     1     133.217  72.059 226.299 -0.33 -0.00    +0.035 A  
DOCKED: ATOM     10  N   UNL     1     134.562  73.806 225.448 -0.27 +0.00    -0.243 NA 
DOCKED: ATOM     11  C   UNL     1     132.490  72.969 227.046 -0.40 -0.00    +0.013 A  
DOCKED: ATOM     12  C   UNL     1     133.856  74.696 226.175 -0.31 +0.00    +0.071 A  
DOCKED: ATOM     13  C   UNL     1     132.805  74.309 226.990 -0.39 +0.00    +0.003 A  
DOCKED: ATOM     14  C   UNL     1     134.196  76.035 226.098 -0.36 -0.00    +0.032 A  
DOCKED: ATOM     15  C   UNL     1     132.090  75.228 227.729 -0.35 -0.00    +0.049 A  
DOCKED: ATOM     16  C   UNL     1     133.495  76.981 226.829 -0.32 -0.00    +0.041 A  
DOCKED: ATOM     17  C   UNL     1     132.445  76.569 227.640 -0.27 +0.00    +0.123 A  
DOCKED: ATOM     18  F   UNL     1     131.727  77.440 228.373 -0.09 -0.03    -0.207 F  
DOCKED: ENDBRANCH   5   8
DOCKED: ENDBRANCH   3   4
DOCKED: ENDBRANCH   1   3
DOCKED: BRANCH   1  19
DOCKED: ATOM     19  N   UNL     1     138.950  70.246 222.111 -0.06 +0.06    -0.334 N  
DOCKED: BRANCH  19  20
DOCKED: ATOM     20  C   UNL     1     139.096  70.269 220.667 -0.07 -0.02    +0.120 C  
DOCKED: BRANCH  20  21
DOCKED: ATOM     21  C   UNL     1     139.409  68.849 220.179 -0.10 -0.00    +0.022 C  
DOCKED: BRANCH  21  22
DOCKED: ATOM     22  C   UNL     1     138.361  67.861 220.697 -0.12 -0.00    +0.002 C  
DOCKED: BRANCH  22  23
DOCKED: ATOM     23  C   UNL     1     138.755  67.193 221.964 -0.25 -0.00    +0.003 CG0
DOCKED: ATOM     24  G   UNL     1     138.698  68.066 223.181 +0.00 +0.00    +0.000 G0 
DOCKED: ENDBRANCH  22  23
DOCKED: ENDBRANCH  21  22
DOCKED: ENDBRANCH  20  21
DOCKED: ENDBRANCH  19  20
DOCKED: BRANCH  19  25
DOCKED: ATOM     25  C   UNL     1     139.534  69.313 223.051 -0.05 -0.02    +0.115 C  
DOCKED: BRANCH  25  26
DOCKED: ATOM     26  C   UNL     1     138.697  68.064 223.180 -0.25 -0.00    +0.030 CG0
DOCKED: ATOM     27  G   UNL     1     138.757  67.191 221.963 +0.00 +0.00    +0.000 G0 
DOCKED: ENDBRANCH  25  26
DOCKED: BRANCH  25  28
DOCKED: ATOM     28  C   UNL     1     139.819  69.887 224.370 -0.33 +0.00    -0.025 A  
DOCKED: ATOM     29  C   UNL     1     140.690  70.982 224.423 -0.43 -0.00    +0.007 A  
DOCKED: ATOM     30  C   UNL     1     139.292  69.428 225.557 -0.43 -0.00    +0.007 A  
DOCKED: ATOM     31  C   UNL     1     140.990  71.559 225.645 -0.57 -0.00    +0.021 A  
DOCKED: ATOM     32  C   UNL     1     139.598  70.014 226.784 -0.47 -0.00    +0.021 A  
DOCKED: ATOM     33  C   UNL     1     140.463  71.100 226.830 -0.62 -0.01    +0.041 A  
DOCKED: ATOM     34  Cl  UNL     1     140.895  71.887 228.330 -0.82 +0.02    -0.084 Cl 
DOCKED: ENDBRANCH  25  28
DOCKED: ENDBRANCH  19  25
DOCKED: ENDBRANCH   1  19
DOCKED: TORSDOF 5
DOCKED: TER
DOCKED: ENDMDL
________________________________________________________________________________


    FINAL DOCKED STATE:
    ________________________


Run:   6 / 20
Time taken for this run:   0.031s

DOCKED: MODEL        6
DOCKED: USER    Run = 6
DOCKED: USER
DOCKED: USER    Estimated Free Energy of Binding    =  -5.18 kcal/mol  [=(1)+(2)+(3)-(4)]
DOCKED: USER
DOCKED: USER    (1) Final Intermolecular Energy     =  -8.46 kcal/mol
DOCKED: USER        vdW + Hbond + desolv Energy     =  -9.41 kcal/mol
DOCKED: USER        Electrostatic Energy            =  -0.06 kcal/mol
DOCKED: USER        Moving Ligand-Fixed Receptor    =  -9.47 kcal/mol
DOCKED: USER        Moving Ligand-Moving Receptor   =  +1.01 kcal/mol
DOCKED: USER    (2) Final Total Internal Energy     =  -1.76 kcal/mol
DOCKED: USER    (3) Torsional Free Energy           =  +3.28 kcal/mol
DOCKED: USER    (4) Unbound System's Energy         =  -1.76 kcal/mol
DOCKED: USER
DOCKED: USER
DOCKED: REMARK SMILES O=C(NCC(=O)N1CCCCC[C@@H]1c1ccc(Cl)cc1)c1ccc2cc(F)ccc2n1
DOCKED: REMARK SMILES IDX 5 1 6 2 4 3 3 4 2 5 1 6 21 8 22 9 31 10 23 11 30 12 24 13
DOCKED: REMARK SMILES IDX 29 14 25 15 28 16 26 17 27 18 7 19 8 20 9 21 10 22 11 23
DOCKED: REMARK SMILES IDX 13 25 12 26 14 28 15 29 20 30 16 31 19 32 17 33 18 34
DOCKED: REMARK H PARENT 3 7
DOCKED: REMARK Flexibility Score:   84.900
DOCKED: USER                              x       y       z     vdW  Elec       q    Type
DOCKED: USER                           _______ _______ _______ _____ _____    ______ ____
DOCKED: ROOT
DOCKED: ATOM      1  C   UNL     1     139.927  73.195 219.265 -0.02 -0.05    +0.242 C  
DOCKED: ATOM      2  O   UNL     1     139.706  72.590 218.168 -0.00 +0.05    -0.273 OA 
DOCKED: ENDROOT
DOCKED: BRANCH   1   3
DOCKED: ATOM      3  C   UNL     1     138.878  73.265 220.313 -0.05 -0.04    +0.216 C  
DOCKED: BRANCH   3   4
DOCKED: ATOM      4  N   UNL     1     139.001  72.183 221.270 -0.04 +0.07    -0.342 N  
DOCKED: ATOM      5  C   UNL     1     139.609  72.505 222.528 -0.16 -0.05    +0.270 C  
DOCKED: ATOM      6  O   UNL     1     139.974  73.703 222.674 -0.72 -0.00    -0.268 OA 
DOCKED: ATOM      7  H   UNL     1     138.668  71.212 221.067 +0.03 -0.03    +0.164 HD 
DOCKED: BRANCH   5   8
DOCKED: ATOM      8  C   UNL     1     139.786  71.492 223.571 -0.32 -0.03    +0.128 A  
DOCKED: ATOM      9  C   UNL     1     139.427  70.202 223.271 -0.25 -0.01    +0.035 A  
DOCKED: ATOM     10  N   UNL     1     140.280  71.820 224.768 -0.26 +0.04    -0.243 NA 
DOCKED: ATOM     11  C   UNL     1     139.580  69.218 224.231 -0.28 -0.00    +0.013 A  
DOCKED: ATOM     12  C   UNL     1     140.431  70.863 225.706 -0.52 -0.01    +0.071 A  
DOCKED: ATOM     13  C   UNL     1     140.088  69.542 225.469 -0.45 -0.00    +0.003 A  
DOCKED: ATOM     14  C   UNL     1     140.944  71.219 226.941 -0.68 -0.01    +0.032 A  
DOCKED: ATOM     15  C   UNL     1     140.247  68.572 226.436 -0.56 -0.01    +0.049 A  
DOCKED: ATOM     16  C   UNL     1     141.115  70.266 227.933 -0.56 -0.01    +0.041 A  
DOCKED: ATOM     17  C   UNL     1     140.763  68.947 227.671 -0.53 -0.03    +0.123 A  
DOCKED: ATOM     18  F   UNL     1     140.906  67.977 228.594 -0.19 +0.06    -0.207 F  
DOCKED: ENDBRANCH   5   8
DOCKED: ENDBRANCH   3   4
DOCKED: ENDBRANCH   1   3
DOCKED: BRANCH   1  19
DOCKED: ATOM     19  N   UNL     1     141.169  73.828 219.551 -0.02 +0.08    -0.334 N  
DOCKED: BRANCH  19  20
DOCKED: ATOM     20  C   UNL     1     142.179  73.086 220.282 -0.18 -0.02    +0.120 C  
DOCKED: BRANCH  20  21
DOCKED: ATOM     21  C   UNL     1     143.237  74.068 220.799 -0.24 -0.01    +0.022 C  
DOCKED: BRANCH  21  22
DOCKED: ATOM     22  C   UNL     1     144.155  74.516 219.659 -0.37 -0.00    +0.002 C  
DOCKED: BRANCH  22  23
DOCKED: ATOM     23  C   UNL     1     143.528  74.400 218.318 -0.20 -0.00    +0.003 CG0
DOCKED: ATOM     24  G   UNL     1     142.388  75.342 218.071 +0.00 +0.00    +0.000 G0 
DOCKED: ENDBRANCH  22  23
DOCKED: ENDBRANCH  21  22
DOCKED: ENDBRANCH  20  21
DOCKED: ENDBRANCH  19  20
DOCKED: BRANCH  19  25
DOCKED: ATOM     25  C   UNL     1     141.248  75.184 219.049 -0.09 -0.04    +0.115 C  
DOCKED: BRANCH  25  26
DOCKED: ATOM     26  C   UNL     1     142.386  75.342 218.069 -0.14 -0.01    +0.030 CG0
DOCKED: ATOM     27  G   UNL     1     143.520  74.399 218.334 +0.00 +0.00    +0.000 G0 
DOCKED: ENDBRANCH  25  26
DOCKED: BRANCH  25  28
DOCKED: ATOM     28  C   UNL     1     141.317  76.210 220.094 -0.22 +0.01    -0.025 A  
DOCKED: ATOM     29  C   UNL     1     140.665  75.943 221.304 -0.32 -0.00    +0.007 A  
DOCKED: ATOM     30  C   UNL     1     141.974  77.414 219.972 -0.31 -0.00    +0.007 A  
DOCKED: ATOM     31  C   UNL     1     140.701  76.880 222.322 -0.42 -0.01    +0.021 A  
DOCKED: ATOM     32  C   UNL     1     142.006  78.354 221.001 -0.25 -0.01    +0.021 A  
DOCKED: ATOM     33  C   UNL     1     141.357  78.082 222.199 -0.39 -0.02    +0.041 A  
DOCKED: ATOM     34  Cl  UNL     1     141.352  79.210 223.534 -0.72 +0.02    -0.084 Cl 
DOCKED: ENDBRANCH  25  28
DOCKED: ENDBRANCH  19  25
DOCKED: ENDBRANCH   1  19
DOCKED: TORSDOF 5
DOCKED: TER
DOCKED: ENDMDL
________________________________________________________________________________


    FINAL DOCKED STATE:
    ________________________


Run:   7 / 20
Time taken for this run:   0.031s

DOCKED: MODEL        7
DOCKED: USER    Run = 7
DOCKED: USER
DOCKED: USER    Estimated Free Energy of Binding    =  -5.99 kcal/mol  [=(1)+(2)+(3)-(4)]
DOCKED: USER
DOCKED: USER    (1) Final Intermolecular Energy     =  -9.27 kcal/mol
DOCKED: USER        vdW + Hbond + desolv Energy     =  -9.57 kcal/mol
DOCKED: USER        Electrostatic Energy            =  -0.01 kcal/mol
DOCKED: USER        Moving Ligand-Fixed Receptor    =  -9.58 kcal/mol
DOCKED: USER        Moving Ligand-Moving Receptor   =  +0.31 kcal/mol
DOCKED: USER    (2) Final Total Internal Energy     =  -1.71 kcal/mol
DOCKED: USER    (3) Torsional Free Energy           =  +3.28 kcal/mol
DOCKED: USER    (4) Unbound System's Energy         =  -1.71 kcal/mol
DOCKED: USER
DOCKED: USER
DOCKED: REMARK SMILES O=C(NCC(=O)N1CCCCC[C@@H]1c1ccc(Cl)cc1)c1ccc2cc(F)ccc2n1
DOCKED: REMARK SMILES IDX 5 1 6 2 4 3 3 4 2 5 1 6 21 8 22 9 31 10 23 11 30 12 24 13
DOCKED: REMARK SMILES IDX 29 14 25 15 28 16 26 17 27 18 7 19 8 20 9 21 10 22 11 23
DOCKED: REMARK SMILES IDX 13 25 12 26 14 28 15 29 20 30 16 31 19 32 17 33 18 34
DOCKED: REMARK H PARENT 3 7
DOCKED: REMARK Flexibility Score:   84.900
DOCKED: USER                              x       y       z     vdW  Elec       q    Type
DOCKED: USER                           _______ _______ _______ _____ _____    ______ ____
DOCKED: ROOT
DOCKED: ATOM      1  C   UNL     1     139.839  74.113 219.865 -0.05 -0.05    +0.242 C  
DOCKED: ATOM      2  O   UNL     1     139.700  74.141 218.601 -0.01 +0.06    -0.273 OA 
DOCKED: ENDROOT
DOCKED: BRANCH   1   3
DOCKED: ATOM      3  C   UNL     1     138.657  73.951 220.751 -0.09 -0.05    +0.216 C  
DOCKED: BRANCH   3   4
DOCKED: ATOM      4  N   UNL     1     139.017  73.352 222.021 -0.11 +0.09    -0.342 N  
DOCKED: ATOM      5  C   UNL     1     138.936  71.923 222.102 -0.13 -0.06    +0.270 C  
DOCKED: ATOM      6  O   UNL     1     138.557  71.332 221.055 -0.04 +0.05    -0.268 OA 
DOCKED: ATOM      7  H   UNL     1     139.323  73.920 222.844 -0.48 -0.04    +0.164 HD 
DOCKED: BRANCH   5   8
DOCKED: ATOM      8  C   UNL     1     139.275  71.209 223.335 -0.27 -0.03    +0.128 A  
DOCKED: ATOM      9  C   UNL     1     138.961  69.875 223.403 -0.24 -0.01    +0.035 A  
DOCKED: ATOM     10  N   UNL     1     139.869  71.840 224.351 -0.19 +0.06    -0.243 NA 
DOCKED: ATOM     11  C   UNL     1     139.267  69.167 224.551 -0.35 -0.00    +0.013 A  
DOCKED: ATOM     12  C   UNL     1     140.169  71.153 225.472 -0.49 -0.01    +0.071 A  
DOCKED: ATOM     13  C   UNL     1     139.879  69.805 225.607 -0.46 -0.00    +0.003 A  
DOCKED: ATOM     14  C   UNL     1     140.784  71.822 226.516 -0.65 -0.01    +0.032 A  
DOCKED: ATOM     15  C   UNL     1     140.191  69.113 226.758 -0.53 -0.01    +0.049 A  
DOCKED: ATOM     16  C   UNL     1     141.108  71.153 227.686 -0.68 -0.01    +0.041 A  
DOCKED: ATOM     17  C   UNL     1     140.808  69.800 227.798 -0.50 -0.02    +0.123 A  
DOCKED: ATOM     18  F   UNL     1     141.098  69.096 228.908 -0.10 +0.04    -0.207 F  
DOCKED: ENDBRANCH   5   8
DOCKED: ENDBRANCH   3   4
DOCKED: ENDBRANCH   1   3
DOCKED: BRANCH   1  19
DOCKED: ATOM     19  N   UNL     1     141.107  74.234 220.498 -0.09 +0.07    -0.334 N  
DOCKED: BRANCH  19  20
DOCKED: ATOM     20  C   UNL     1     141.554  73.166 221.374 -0.17 -0.01    +0.120 C  
DOCKED: BRANCH  20  21
DOCKED: ATOM     21  C   UNL     1     142.399  72.179 220.559 -0.23 -0.00    +0.022 C  
DOCKED: BRANCH  21  22
DOCKED: ATOM     22  C   UNL     1     143.768  72.783 220.238 -0.34 -0.00    +0.002 C  
DOCKED: BRANCH  22  23
DOCKED: ATOM     23  C   UNL     1     143.691  74.000 219.389 -0.30 -0.00    +0.003 CG0
DOCKED: ATOM     24  G   UNL     1     143.293  75.250 220.114 +0.00 +0.00    +0.000 G0 
DOCKED: ENDBRANCH  22  23
DOCKED: ENDBRANCH  21  22
DOCKED: ENDBRANCH  20  21
DOCKED: ENDBRANCH  19  20
DOCKED: BRANCH  19  25
DOCKED: ATOM     25  C   UNL     1     141.801  75.458 220.160 -0.22 -0.04    +0.115 C  
DOCKED: BRANCH  25  26
DOCKED: ATOM     26  C   UNL     1     143.296  75.250 220.117 -0.33 -0.02    +0.030 CG0
DOCKED: ATOM     27  G   UNL     1     143.691  74.000 219.391 +0.00 +0.00    +0.000 G0 
DOCKED: ENDBRANCH  25  26
DOCKED: BRANCH  25  28
DOCKED: ATOM     28  C   UNL     1     141.460  76.599 221.016 -0.27 +0.01    -0.025 A  
DOCKED: ATOM     29  C   UNL     1     141.829  77.874 220.569 -0.33 -0.00    +0.007 A  
DOCKED: ATOM     30  C   UNL     1     140.805  76.507 222.224 -0.40 -0.00    +0.007 A  
DOCKED: ATOM     31  C   UNL     1     141.529  78.983 221.341 -0.36 -0.01    +0.021 A  
DOCKED: ATOM     32  C   UNL     1     140.507  77.628 222.997 -0.20 -0.01    +0.021 A  
DOCKED: ATOM     33  C   UNL     1     140.875  78.890 222.547 -0.41 -0.01    +0.041 A  
DOCKED: ATOM     34  Cl  UNL     1     140.536  80.342 223.461 -0.58 +0.01    -0.084 Cl 
DOCKED: ENDBRANCH  25  28
DOCKED: ENDBRANCH  19  25
DOCKED: ENDBRANCH   1  19
DOCKED: TORSDOF 5
DOCKED: TER
DOCKED: ENDMDL
________________________________________________________________________________


    FINAL DOCKED STATE:
    ________________________


Run:   8 / 20
Time taken for this run:   0.031s

DOCKED: MODEL        8
DOCKED: USER    Run = 8
DOCKED: USER
DOCKED: USER    Estimated Free Energy of Binding    =  -5.01 kcal/mol  [=(1)+(2)+(3)-(4)]
DOCKED: USER
DOCKED: USER    (1) Final Intermolecular Energy     =  -8.29 kcal/mol
DOCKED: USER        vdW + Hbond + desolv Energy     =  -9.39 kcal/mol
DOCKED: USER        Electrostatic Energy            =  -0.01 kcal/mol
DOCKED: USER        Moving Ligand-Fixed Receptor    =  -9.40 kcal/mol
DOCKED: USER        Moving Ligand-Moving Receptor   =  +1.10 kcal/mol
DOCKED: USER    (2) Final Total Internal Energy     =  -1.86 kcal/mol
DOCKED: USER    (3) Torsional Free Energy           =  +3.28 kcal/mol
DOCKED: USER    (4) Unbound System's Energy         =  -1.86 kcal/mol
DOCKED: USER
DOCKED: USER
DOCKED: REMARK SMILES O=C(NCC(=O)N1CCCCC[C@@H]1c1ccc(Cl)cc1)c1ccc2cc(F)ccc2n1
DOCKED: REMARK SMILES IDX 5 1 6 2 4 3 3 4 2 5 1 6 21 8 22 9 31 10 23 11 30 12 24 13
DOCKED: REMARK SMILES IDX 29 14 25 15 28 16 26 17 27 18 7 19 8 20 9 21 10 22 11 23
DOCKED: REMARK SMILES IDX 13 25 12 26 14 28 15 29 20 30 16 31 19 32 17 33 18 34
DOCKED: REMARK H PARENT 3 7
DOCKED: REMARK Flexibility Score:   84.900
DOCKED: USER                              x       y       z     vdW  Elec       q    Type
DOCKED: USER                           _______ _______ _______ _____ _____    ______ ____
DOCKED: ROOT
DOCKED: ATOM      1  C   UNL     1     140.359  73.871 219.002 -0.02 -0.05    +0.242 C  
DOCKED: ATOM      2  O   UNL     1     140.403  73.767 217.735 -0.00 +0.06    -0.273 OA 
DOCKED: ENDROOT
DOCKED: BRANCH   1   3
DOCKED: ATOM      3  C   UNL     1     139.089  73.634 219.736 -0.03 -0.04    +0.216 C  
DOCKED: BRANCH   3   4
DOCKED: ATOM      4  N   UNL     1     139.194  72.503 220.637 -0.02 +0.06    -0.342 N  
DOCKED: ATOM      5  C   UNL     1     139.299  72.804 222.035 -0.16 -0.06    +0.270 C  
DOCKED: ATOM      6  O   UNL     1     139.289  74.028 222.338 -0.67 +0.06    -0.268 OA 
DOCKED: ATOM      7  H   UNL     1     139.193  71.513 220.299 +0.03 -0.03    +0.164 HD 
DOCKED: BRANCH   5   8
DOCKED: ATOM      8  C   UNL     1     139.409  71.742 223.037 -0.26 -0.03    +0.128 A  
DOCKED: ATOM      9  C   UNL     1     138.660  70.609 222.847 -0.21 -0.01    +0.035 A  
DOCKED: ATOM     10  N   UNL     1     140.213  71.880 224.095 -0.27 +0.04    -0.243 NA 
DOCKED: ATOM     11  C   UNL     1     138.739  69.584 223.773 -0.28 -0.00    +0.013 A  
DOCKED: ATOM     12  C   UNL     1     140.292  70.883 225.000 -0.46 -0.01    +0.071 A  
DOCKED: ATOM     13  C   UNL     1     139.563  69.713 224.869 -0.39 -0.00    +0.003 A  
DOCKED: ATOM     14  C   UNL     1     141.129  71.042 226.091 -0.62 -0.00    +0.032 A  
DOCKED: ATOM     15  C   UNL     1     139.652  68.700 225.801 -0.47 -0.01    +0.049 A  
DOCKED: ATOM     16  C   UNL     1     141.239  70.041 227.044 -0.46 -0.01    +0.041 A  
DOCKED: ATOM     17  C   UNL     1     140.497  68.876 226.891 -0.51 -0.02    +0.123 A  
DOCKED: ATOM     18  F   UNL     1     140.562  67.869 227.782 -0.19 +0.06    -0.207 F  
DOCKED: ENDBRANCH   5   8
DOCKED: ENDBRANCH   3   4
DOCKED: ENDBRANCH   1   3
DOCKED: BRANCH   1  19
DOCKED: ATOM     19  N   UNL     1     141.500  74.213 219.780 -0.04 +0.08    -0.334 N  
DOCKED: BRANCH  19  20
DOCKED: ATOM     20  C   UNL     1     142.005  73.248 220.739 -0.21 -0.02    +0.120 C  
DOCKED: BRANCH  20  21
DOCKED: ATOM     21  C   UNL     1     142.984  72.308 220.025 -0.22 -0.00    +0.022 C  
DOCKED: BRANCH  21  22
DOCKED: ATOM     22  C   UNL     1     144.176  73.094 219.473 -0.30 -0.00    +0.002 C  
DOCKED: BRANCH  22  23
DOCKED: ATOM     23  C   UNL     1     144.241  74.492 219.972 -0.42 -0.00    +0.003 CG0
DOCKED: ATOM     24  G   UNL     1     143.481  75.490 219.152 +0.00 +0.00    +0.000 G0 
DOCKED: ENDBRANCH  22  23
DOCKED: ENDBRANCH  21  22
DOCKED: ENDBRANCH  20  21
DOCKED: ENDBRANCH  19  20
DOCKED: BRANCH  19  25
DOCKED: ATOM     25  C   UNL     1     142.015  75.534 219.490 -0.19 -0.05    +0.115 C  
DOCKED: BRANCH  25  26
DOCKED: ATOM     26  C   UNL     1     143.486  75.491 219.155 -0.32 -0.02    +0.030 CG0
DOCKED: ATOM     27  G   UNL     1     144.245  74.500 219.985 +0.00 +0.00    +0.000 G0 
DOCKED: ENDBRANCH  25  26
DOCKED: BRANCH  25  28
DOCKED: ATOM     28  C   UNL     1     141.749  76.528 220.536 -0.27 +0.01    -0.025 A  
DOCKED: ATOM     29  C   UNL     1     142.168  77.842 220.299 -0.27 -0.00    +0.007 A  
DOCKED: ATOM     30  C   UNL     1     141.120  76.261 221.732 -0.33 -0.00    +0.007 A  
DOCKED: ATOM     31  C   UNL     1     141.940  78.816 221.255 -0.32 -0.01    +0.021 A  
DOCKED: ATOM     32  C   UNL     1     140.894  77.246 222.691 -0.41 -0.01    +0.021 A  
DOCKED: ATOM     33  C   UNL     1     141.312  78.549 222.449 -0.44 -0.02    +0.041 A  
DOCKED: ATOM     34  Cl  UNL     1     141.065  79.838 223.603 -0.64 +0.02    -0.084 Cl 
DOCKED: ENDBRANCH  25  28
DOCKED: ENDBRANCH  19  25
DOCKED: ENDBRANCH   1  19
DOCKED: TORSDOF 5
DOCKED: TER
DOCKED: ENDMDL
________________________________________________________________________________


    FINAL DOCKED STATE:
    ________________________


Run:   9 / 20
Time taken for this run:   0.031s

DOCKED: MODEL        9
DOCKED: USER    Run = 9
DOCKED: USER
DOCKED: USER    Estimated Free Energy of Binding    =  -5.41 kcal/mol  [=(1)+(2)+(3)-(4)]
DOCKED: USER
DOCKED: USER    (1) Final Intermolecular Energy     =  -8.69 kcal/mol
DOCKED: USER        vdW + Hbond + desolv Energy     =  -8.89 kcal/mol
DOCKED: USER        Electrostatic Energy            =  +0.02 kcal/mol
DOCKED: USER        Moving Ligand-Fixed Receptor    =  -8.87 kcal/mol
DOCKED: USER        Moving Ligand-Moving Receptor   =  +0.17 kcal/mol
DOCKED: USER    (2) Final Total Internal Energy     =  -2.21 kcal/mol
DOCKED: USER    (3) Torsional Free Energy           =  +3.28 kcal/mol
DOCKED: USER    (4) Unbound System's Energy         =  -2.21 kcal/mol
DOCKED: USER
DOCKED: USER
DOCKED: REMARK SMILES O=C(NCC(=O)N1CCCCC[C@@H]1c1ccc(Cl)cc1)c1ccc2cc(F)ccc2n1
DOCKED: REMARK SMILES IDX 5 1 6 2 4 3 3 4 2 5 1 6 21 8 22 9 31 10 23 11 30 12 24 13
DOCKED: REMARK SMILES IDX 29 14 25 15 28 16 26 17 27 18 7 19 8 20 9 21 10 22 11 23
DOCKED: REMARK SMILES IDX 13 25 12 26 14 28 15 29 20 30 16 31 19 32 17 33 18 34
DOCKED: REMARK H PARENT 3 7
DOCKED: REMARK Flexibility Score:   84.900
DOCKED: USER                              x       y       z     vdW  Elec       q    Type
DOCKED: USER                           _______ _______ _______ _____ _____    ______ ____
DOCKED: ROOT
DOCKED: ATOM      1  C   UNL     1     141.121  71.967 219.431 -0.04 -0.04    +0.242 C  
DOCKED: ATOM      2  O   UNL     1     141.044  71.625 218.208 -0.01 +0.05    -0.273 OA 
DOCKED: ENDROOT
DOCKED: BRANCH   1   3
DOCKED: ATOM      3  C   UNL     1     139.936  71.861 220.321 -0.06 -0.04    +0.216 C  
DOCKED: BRANCH   3   4
DOCKED: ATOM      4  N   UNL     1     140.241  71.129 221.535 -0.07 +0.05    -0.342 N  
DOCKED: ATOM      5  C   UNL     1     140.044  71.827 222.772 -0.22 -0.04    +0.270 C  
DOCKED: ATOM      6  O   UNL     1     139.623  73.012 222.675 -0.61 +0.05    -0.268 OA 
DOCKED: ATOM      7  H   UNL     1     140.588  70.142 221.524 +0.05 -0.02    +0.164 HD 
DOCKED: BRANCH   5   8
DOCKED: ATOM      8  C   UNL     1     140.320  71.188 224.060 -0.36 -0.02    +0.128 A  
DOCKED: ATOM      9  C   UNL     1     140.884  71.959 225.044 -0.10 -0.00    +0.035 A  
DOCKED: ATOM     10  N   UNL     1     140.028  69.900 224.262 -0.15 +0.04    -0.243 NA 
DOCKED: ATOM     11  C   UNL     1     141.158  71.390 226.275 -0.67 -0.00    +0.013 A  
DOCKED: ATOM     12  C   UNL     1     140.294  69.342 225.461 -0.39 -0.01    +0.071 A  
DOCKED: ATOM     13  C   UNL     1     140.863  70.064 226.497 -0.57 -0.00    +0.003 A  
DOCKED: ATOM     14  C   UNL     1     139.986  68.006 225.654 -0.50 -0.01    +0.032 A  
DOCKED: ATOM     15  C   UNL     1     141.130  69.482 227.718 -0.51 -0.01    +0.049 A  
DOCKED: ATOM     16  C   UNL     1     140.243  67.395 226.871 -0.57 -0.01    +0.041 A  
DOCKED: ATOM     17  C   UNL     1     140.815  68.140 227.895 -0.55 -0.03    +0.123 A  
DOCKED: ATOM     18  F   UNL     1     141.089  67.602 229.099 -0.12 +0.07    -0.207 F  
DOCKED: ENDBRANCH   5   8
DOCKED: ENDBRANCH   3   4
DOCKED: ENDBRANCH   1   3
DOCKED: BRANCH   1  19
DOCKED: ATOM     19  N   UNL     1     142.321  72.463 220.011 -0.06 +0.05    -0.334 N  
DOCKED: BRANCH  19  20
DOCKED: ATOM     20  C   UNL     1     143.205  71.532 220.688 -0.19 -0.01    +0.120 C  
DOCKED: BRANCH  20  21
DOCKED: ATOM     21  C   UNL     1     144.484  71.372 219.857 -0.24 +0.00    +0.022 C  
DOCKED: BRANCH  21  22
DOCKED: ATOM     22  C   UNL     1     145.469  72.502 220.166 -0.46 +0.00    +0.002 C  
DOCKED: BRANCH  22  23
DOCKED: ATOM     23  C   UNL     1     144.999  73.835 219.707 -0.38 -0.00    +0.003 CG0
DOCKED: ATOM     24  G   UNL     1     143.798  74.363 220.432 +0.00 +0.00    +0.000 G0 
DOCKED: ENDBRANCH  22  23
DOCKED: ENDBRANCH  21  22
DOCKED: ENDBRANCH  20  21
DOCKED: ENDBRANCH  19  20
DOCKED: BRANCH  19  25
DOCKED: ATOM     25  C   UNL     1     142.496  73.889 219.834 -0.19 -0.03    +0.115 C  
DOCKED: BRANCH  25  26
DOCKED: ATOM     26  C   UNL     1     143.799  74.363 220.431 -0.39 -0.01    +0.030 CG0
DOCKED: ATOM     27  G   UNL     1     145.000  73.836 219.705 +0.00 +0.00    +0.000 G0 
DOCKED: ENDBRANCH  25  26
DOCKED: BRANCH  25  28
DOCKED: ATOM     28  C   UNL     1     141.375  74.698 220.325 -0.22 +0.01    -0.025 A  
DOCKED: ATOM     29  C   UNL     1     141.465  75.201 221.629 -0.26 -0.00    +0.007 A  
DOCKED: ATOM     30  C   UNL     1     140.244  74.998 219.598 -0.09 -0.00    +0.007 A  
DOCKED: ATOM     31  C   UNL     1     140.433  75.970 222.138 -0.34 -0.00    +0.021 A  
DOCKED: ATOM     32  C   UNL     1     139.209  75.773 220.117 -0.09 -0.01    +0.021 A  
DOCKED: ATOM     33  C   UNL     1     139.304  76.269 221.412 -0.23 -0.01    +0.041 A  
DOCKED: ATOM     34  Cl  UNL     1     138.047  77.247 222.132 -0.30 +0.02    -0.084 Cl 
DOCKED: ENDBRANCH  25  28
DOCKED: ENDBRANCH  19  25
DOCKED: ENDBRANCH   1  19
DOCKED: TORSDOF 5
DOCKED: TER
DOCKED: ENDMDL
________________________________________________________________________________


    FINAL DOCKED STATE:
    ________________________


Run:   10 / 20
Time taken for this run:   0.031s

DOCKED: MODEL        10
DOCKED: USER    Run = 10
DOCKED: USER
DOCKED: USER    Estimated Free Energy of Binding    =  -4.29 kcal/mol  [=(1)+(2)+(3)-(4)]
DOCKED: USER
DOCKED: USER    (1) Final Intermolecular Energy     =  -7.57 kcal/mol
DOCKED: USER        vdW + Hbond + desolv Energy     =  -8.43 kcal/mol
DOCKED: USER        Electrostatic Energy            =  -0.03 kcal/mol
DOCKED: USER        Moving Ligand-Fixed Receptor    =  -8.46 kcal/mol
DOCKED: USER        Moving Ligand-Moving Receptor   =  +0.89 kcal/mol
DOCKED: USER    (2) Final Total Internal Energy     =  -2.04 kcal/mol
DOCKED: USER    (3) Torsional Free Energy           =  +3.28 kcal/mol
DOCKED: USER    (4) Unbound System's Energy         =  -2.04 kcal/mol
DOCKED: USER
DOCKED: USER
DOCKED: REMARK SMILES O=C(NCC(=O)N1CCCCC[C@@H]1c1ccc(Cl)cc1)c1ccc2cc(F)ccc2n1
DOCKED: REMARK SMILES IDX 5 1 6 2 4 3 3 4 2 5 1 6 21 8 22 9 31 10 23 11 30 12 24 13
DOCKED: REMARK SMILES IDX 29 14 25 15 28 16 26 17 27 18 7 19 8 20 9 21 10 22 11 23
DOCKED: REMARK SMILES IDX 13 25 12 26 14 28 15 29 20 30 16 31 19 32 17 33 18 34
DOCKED: REMARK H PARENT 3 7
DOCKED: REMARK Flexibility Score:   84.900
DOCKED: USER                              x       y       z     vdW  Elec       q    Type
DOCKED: USER                           _______ _______ _______ _____ _____    ______ ____
DOCKED: ROOT
DOCKED: ATOM      1  C   UNL     1     140.131  74.969 221.382 -0.21 -0.05    +0.242 C  
DOCKED: ATOM      2  O   UNL     1     140.243  75.512 222.527 -0.41 +0.02    -0.273 OA 
DOCKED: ENDROOT
DOCKED: BRANCH   1   3
DOCKED: ATOM      3  C   UNL     1     139.715  73.548 221.258 -0.16 -0.04    +0.216 C  
DOCKED: BRANCH   3   4
DOCKED: ATOM      4  N   UNL     1     139.758  72.863 222.534 -0.14 +0.06    -0.342 N  
DOCKED: ATOM      5  C   UNL     1     139.680  71.432 222.498 -0.18 -0.05    +0.270 C  
DOCKED: ATOM      6  O   UNL     1     139.582  70.914 221.352 -0.08 +0.05    -0.268 OA 
DOCKED: ATOM      7  H   UNL     1     139.842  73.373 223.444 -0.40 -0.02    +0.164 HD 
DOCKED: BRANCH   5   8
DOCKED: ATOM      8  C   UNL     1     139.714  70.635 223.726 -0.28 -0.02    +0.128 A  
DOCKED: ATOM      9  C   UNL     1     139.172  69.376 223.681 -0.26 -0.01    +0.035 A  
DOCKED: ATOM     10  N   UNL     1     140.255  71.123 224.845 -0.30 +0.04    -0.243 NA 
DOCKED: ATOM     11  C   UNL     1     139.187  68.593 224.821 -0.39 -0.00    +0.013 A  
DOCKED: ATOM     12  C   UNL     1     140.271  70.363 225.959 -0.48 -0.01    +0.071 A  
DOCKED: ATOM     13  C   UNL     1     139.741  69.084 225.983 -0.49 -0.00    +0.003 A  
DOCKED: ATOM     14  C   UNL     1     140.836  70.884 227.110 -0.65 -0.01    +0.032 A  
DOCKED: ATOM     15  C   UNL     1     139.763  68.316 227.127 -0.58 -0.01    +0.049 A  
DOCKED: ATOM     16  C   UNL     1     140.872  70.135 228.276 -0.54 -0.01    +0.041 A  
DOCKED: ATOM     17  C   UNL     1     140.333  68.854 228.275 -0.54 -0.02    +0.123 A  
DOCKED: ATOM     18  F   UNL     1     140.339  68.079 229.376 -0.11 +0.05    -0.207 F  
DOCKED: ENDBRANCH   5   8
DOCKED: ENDBRANCH   3   4
DOCKED: ENDBRANCH   1   3
DOCKED: BRANCH   1  19
DOCKED: ATOM     19  N   UNL     1     140.393  75.673 220.174 -0.04 +0.10    -0.334 N  
DOCKED: BRANCH  19  20
DOCKED: ATOM     20  C   UNL     1     141.701  75.543 219.560 -0.17 -0.05    +0.120 C  
DOCKED: BRANCH  20  21
DOCKED: ATOM     21  C   UNL     1     142.437  76.883 219.677 -0.33 -0.01    +0.022 C  
DOCKED: BRANCH  21  22
DOCKED: ATOM     22  C   UNL     1     141.697  77.819 220.636 -0.32 -0.00    +0.002 C  
DOCKED: BRANCH  22  23
DOCKED: ATOM     23  C   UNL     1     140.590  78.570 219.989 -0.18 -0.00    +0.003 CG0
DOCKED: ATOM     24  G   UNL     1     139.714  77.750 219.090 +0.00 +0.00    +0.000 G0 
DOCKED: ENDBRANCH  22  23
DOCKED: ENDBRANCH  21  22
DOCKED: ENDBRANCH  20  21
DOCKED: ENDBRANCH  19  20
DOCKED: BRANCH  19  25
DOCKED: ATOM     25  C   UNL     1     139.264  76.451 219.709 -0.05 -0.03    +0.115 C  
DOCKED: BRANCH  25  26
DOCKED: ATOM     26  C   UNL     1     139.710  77.753 219.090 -0.06 -0.01    +0.030 CG0
DOCKED: ATOM     27  G   UNL     1     140.584  78.564 219.999 +0.00 +0.00    +0.000 G0 
DOCKED: ENDBRANCH  25  26
DOCKED: BRANCH  25  28
DOCKED: ATOM     28  C   UNL     1     138.235  76.686 220.728 -0.09 +0.01    -0.025 A  
DOCKED: ATOM     29  C   UNL     1     137.087  75.887 220.682 -0.07 -0.00    +0.007 A  
DOCKED: ATOM     30  C   UNL     1     138.317  77.634 221.724 -0.19 -0.00    +0.007 A  
DOCKED: ATOM     31  C   UNL     1     136.088  76.070 221.621 -0.10 -0.00    +0.021 A  
DOCKED: ATOM     32  C   UNL     1     137.307  77.814 222.667 -0.22 -0.00    +0.021 A  
DOCKED: ATOM     33  C   UNL     1     136.170  77.016 222.616 -0.18 -0.01    +0.041 A  
DOCKED: ATOM     34  Cl  UNL     1     134.861  77.183 223.762 -0.20 +0.01    -0.084 Cl 
DOCKED: ENDBRANCH  25  28
DOCKED: ENDBRANCH  19  25
DOCKED: ENDBRANCH   1  19
DOCKED: TORSDOF 5
DOCKED: TER
DOCKED: ENDMDL
________________________________________________________________________________


    FINAL DOCKED STATE:
    ________________________


Run:   11 / 20
Time taken for this run:   0.031s

DOCKED: MODEL        11
DOCKED: USER    Run = 11
DOCKED: USER
DOCKED: USER    Estimated Free Energy of Binding    =  -5.25 kcal/mol  [=(1)+(2)+(3)-(4)]
DOCKED: USER
DOCKED: USER    (1) Final Intermolecular Energy     =  -8.53 kcal/mol
DOCKED: USER        vdW + Hbond + desolv Energy     =  -8.65 kcal/mol
DOCKED: USER        Electrostatic Energy            =  -0.03 kcal/mol
DOCKED: USER        Moving Ligand-Fixed Receptor    =  -8.68 kcal/mol
DOCKED: USER        Moving Ligand-Moving Receptor   =  +0.16 kcal/mol
DOCKED: USER    (2) Final Total Internal Energy     =  -1.77 kcal/mol
DOCKED: USER    (3) Torsional Free Energy           =  +3.28 kcal/mol
DOCKED: USER    (4) Unbound System's Energy         =  -1.77 kcal/mol
DOCKED: USER
DOCKED: USER
DOCKED: REMARK SMILES O=C(NCC(=O)N1CCCCC[C@@H]1c1ccc(Cl)cc1)c1ccc2cc(F)ccc2n1
DOCKED: REMARK SMILES IDX 5 1 6 2 4 3 3 4 2 5 1 6 21 8 22 9 31 10 23 11 30 12 24 13
DOCKED: REMARK SMILES IDX 29 14 25 15 28 16 26 17 27 18 7 19 8 20 9 21 10 22 11 23
DOCKED: REMARK SMILES IDX 13 25 12 26 14 28 15 29 20 30 16 31 19 32 17 33 18 34
DOCKED: REMARK H PARENT 3 7
DOCKED: REMARK Flexibility Score:   84.900
DOCKED: USER                              x       y       z     vdW  Elec       q    Type
DOCKED: USER                           _______ _______ _______ _____ _____    ______ ____
DOCKED: ROOT
DOCKED: ATOM      1  C   UNL     1     140.742  74.164 220.994 -0.18 -0.04    +0.242 C  
DOCKED: ATOM      2  O   UNL     1     141.055  74.659 222.123 -0.54 +0.00    -0.273 OA 
DOCKED: ENDROOT
DOCKED: BRANCH   1   3
DOCKED: ATOM      3  C   UNL     1     140.129  72.815 220.905 -0.13 -0.04    +0.216 C  
DOCKED: BRANCH   3   4
DOCKED: ATOM      4  N   UNL     1     140.435  72.008 222.070 -0.14 +0.04    -0.342 N  
DOCKED: ATOM      5  C   UNL     1     139.319  71.471 222.791 -0.19 -0.06    +0.270 C  
DOCKED: ATOM      6  O   UNL     1     138.179  71.757 222.335 -0.10 +0.07    -0.268 OA 
DOCKED: ATOM      7  H   UNL     1     141.417  71.819 222.380 +0.06 -0.01    +0.164 HD 
DOCKED: BRANCH   5   8
DOCKED: ATOM      8  C   UNL     1     139.509  70.642 223.984 -0.30 -0.02    +0.128 A  
DOCKED: ATOM      9  C   UNL     1     139.026  69.359 223.948 -0.29 -0.01    +0.035 A  
DOCKED: ATOM     10  N   UNL     1     140.132  71.125 225.062 -0.31 +0.04    -0.243 NA 
DOCKED: ATOM     11  C   UNL     1     139.187  68.546 225.056 -0.42 -0.00    +0.013 A  
DOCKED: ATOM     12  C   UNL     1     140.291  70.336 226.144 -0.49 -0.01    +0.071 A  
DOCKED: ATOM     13  C   UNL     1     139.826  69.031 226.175 -0.52 -0.00    +0.003 A  
DOCKED: ATOM     14  C   UNL     1     140.938  70.852 227.253 -0.64 -0.01    +0.032 A  
DOCKED: ATOM     15  C   UNL     1     139.995  68.233 227.287 -0.62 -0.01    +0.049 A  
DOCKED: ATOM     16  C   UNL     1     141.122  70.073 228.385 -0.46 -0.01    +0.041 A  
DOCKED: ATOM     17  C   UNL     1     140.647  68.767 228.393 -0.54 -0.03    +0.123 A  
DOCKED: ATOM     18  F   UNL     1     140.795  67.963 229.462 -0.11 +0.05    -0.207 F  
DOCKED: ENDBRANCH   5   8
DOCKED: ENDBRANCH   3   4
DOCKED: ENDBRANCH   1   3
DOCKED: BRANCH   1  19
DOCKED: ATOM     19  N   UNL     1     140.955  74.858 219.770 -0.03 +0.09    -0.334 N  
DOCKED: BRANCH  19  20
DOCKED: ATOM     20  C   UNL     1     141.809  74.253 218.765 -0.07 -0.03    +0.120 C  
DOCKED: BRANCH  20  21
DOCKED: ATOM     21  C   UNL     1     143.268  74.607 219.078 -0.26 -0.01    +0.022 C  
DOCKED: BRANCH  21  22
DOCKED: ATOM     22  C   UNL     1     143.351  75.963 219.783 -0.37 -0.00    +0.002 C  
DOCKED: BRANCH  22  23
DOCKED: ATOM     23  C   UNL     1     142.530  77.016 219.132 -0.33 -0.00    +0.003 CG0
DOCKED: ATOM     24  G   UNL     1     141.212  77.287 219.794 +0.00 +0.00    +0.000 G0 
DOCKED: ENDBRANCH  22  23
DOCKED: ENDBRANCH  21  22
DOCKED: ENDBRANCH  20  21
DOCKED: ENDBRANCH  19  20
DOCKED: BRANCH  19  25
DOCKED: ATOM     25  C   UNL     1     140.257  76.124 219.700 -0.09 -0.03    +0.115 C  
DOCKED: BRANCH  25  26
DOCKED: ATOM     26  C   UNL     1     141.214  77.287 219.795 -0.21 -0.01    +0.030 CG0
DOCKED: ATOM     27  G   UNL     1     142.530  77.016 219.131 +0.00 +0.00    +0.000 G0 
DOCKED: ENDBRANCH  25  26
DOCKED: BRANCH  25  28
DOCKED: ATOM     28  C   UNL     1     139.169  76.265 220.674 -0.13 +0.01    -0.025 A  
DOCKED: ATOM     29  C   UNL     1     137.977  75.578 220.415 -0.08 -0.00    +0.007 A  
DOCKED: ATOM     30  C   UNL     1     139.235  77.023 221.822 -0.27 -0.00    +0.007 A  
DOCKED: ATOM     31  C   UNL     1     136.922  75.679 221.304 -0.11 -0.00    +0.021 A  
DOCKED: ATOM     32  C   UNL     1     138.168  77.122 222.713 -0.29 -0.00    +0.021 A  
DOCKED: ATOM     33  C   UNL     1     136.988  76.436 222.450 -0.22 -0.01    +0.041 A  
DOCKED: ATOM     34  Cl  UNL     1     135.607  76.511 223.518 -0.25 +0.01    -0.084 Cl 
DOCKED: ENDBRANCH  25  28
DOCKED: ENDBRANCH  19  25
DOCKED: ENDBRANCH   1  19
DOCKED: TORSDOF 5
DOCKED: TER
DOCKED: ENDMDL
________________________________________________________________________________


    FINAL DOCKED STATE:
    ________________________


Run:   12 / 20
Time taken for this run:   0.031s

DOCKED: MODEL        12
DOCKED: USER    Run = 12
DOCKED: USER
DOCKED: USER    Estimated Free Energy of Binding    =  -5.46 kcal/mol  [=(1)+(2)+(3)-(4)]
DOCKED: USER
DOCKED: USER    (1) Final Intermolecular Energy     =  -8.74 kcal/mol
DOCKED: USER        vdW + Hbond + desolv Energy     =  -8.95 kcal/mol
DOCKED: USER        Electrostatic Energy            =  +0.07 kcal/mol
DOCKED: USER        Moving Ligand-Fixed Receptor    =  -8.88 kcal/mol
DOCKED: USER        Moving Ligand-Moving Receptor   =  +0.15 kcal/mol
DOCKED: USER    (2) Final Total Internal Energy     =  -2.07 kcal/mol
DOCKED: USER    (3) Torsional Free Energy           =  +3.28 kcal/mol
DOCKED: USER    (4) Unbound System's Energy         =  -2.07 kcal/mol
DOCKED: USER
DOCKED: USER
DOCKED: REMARK SMILES O=C(NCC(=O)N1CCCCC[C@@H]1c1ccc(Cl)cc1)c1ccc2cc(F)ccc2n1
DOCKED: REMARK SMILES IDX 5 1 6 2 4 3 3 4 2 5 1 6 21 8 22 9 31 10 23 11 30 12 24 13
DOCKED: REMARK SMILES IDX 29 14 25 15 28 16 26 17 27 18 7 19 8 20 9 21 10 22 11 23
DOCKED: REMARK SMILES IDX 13 25 12 26 14 28 15 29 20 30 16 31 19 32 17 33 18 34
DOCKED: REMARK H PARENT 3 7
DOCKED: REMARK Flexibility Score:   84.900
DOCKED: USER                              x       y       z     vdW  Elec       q    Type
DOCKED: USER                           _______ _______ _______ _____ _____    ______ ____
DOCKED: ROOT
DOCKED: ATOM      1  C   UNL     1     141.714  74.792 220.413 -0.18 -0.07    +0.242 C  
DOCKED: ATOM      2  O   UNL     1     142.904  75.215 220.560 -0.21 +0.14    -0.273 OA 
DOCKED: ENDROOT
DOCKED: BRANCH   1   3
DOCKED: ATOM      3  C   UNL     1     141.437  73.337 220.310 -0.13 -0.04    +0.216 C  
DOCKED: BRANCH   3   4
DOCKED: ATOM      4  N   UNL     1     141.377  72.709 221.615 -0.13 +0.03    -0.342 N  
DOCKED: ATOM      5  C   UNL     1     140.138  72.081 221.969 -0.18 -0.04    +0.270 C  
DOCKED: ATOM      6  O   UNL     1     139.222  72.140 221.104 -0.07 +0.05    -0.268 OA 
DOCKED: ATOM      7  H   UNL     1     142.189  72.705 222.275 +0.13 +0.01    +0.164 HD 
DOCKED: BRANCH   5   8
DOCKED: ATOM      8  C   UNL     1     139.962  71.415 223.261 -0.30 -0.02    +0.128 A  
DOCKED: ATOM      9  C   UNL     1     139.058  70.386 223.328 -0.26 -0.01    +0.035 A  
DOCKED: ATOM     10  N   UNL     1     140.661  71.802 224.332 -0.26 +0.03    -0.243 NA 
DOCKED: ATOM     11  C   UNL     1     138.865  69.733 224.532 -0.34 -0.00    +0.013 A  
DOCKED: ATOM     12  C   UNL     1     140.477  71.167 225.508 -0.52 -0.01    +0.071 A  
DOCKED: ATOM     13  C   UNL     1     139.579  70.121 225.644 -0.45 -0.00    +0.003 A  
DOCKED: ATOM     14  C   UNL     1     141.208  71.580 226.607 -0.69 -0.00    +0.032 A  
DOCKED: ATOM     15  C   UNL     1     139.398  69.480 226.851 -0.46 -0.01    +0.049 A  
DOCKED: ATOM     16  C   UNL     1     141.048  70.954 227.834 -0.67 -0.01    +0.041 A  
DOCKED: ATOM     17  C   UNL     1     140.141  69.907 227.946 -0.52 -0.02    +0.123 A  
DOCKED: ATOM     18  F   UNL     1     139.942  69.261 229.110 -0.07 +0.03    -0.207 F  
DOCKED: ENDBRANCH   5   8
DOCKED: ENDBRANCH   3   4
DOCKED: ENDBRANCH   1   3
DOCKED: BRANCH   1  19
DOCKED: ATOM     19  N   UNL     1     140.596  75.669 220.338 -0.06 +0.10    -0.334 N  
DOCKED: BRANCH  19  20
DOCKED: ATOM     20  C   UNL     1     140.138  76.105 219.032 -0.05 -0.04    +0.120 C  
DOCKED: BRANCH  20  21
DOCKED: ATOM     21  C   UNL     1     139.055  75.137 218.539 -0.02 -0.01    +0.022 C  
DOCKED: BRANCH  21  22
DOCKED: ATOM     22  C   UNL     1     137.762  75.329 219.335 -0.03 -0.00    +0.002 C  
DOCKED: BRANCH  22  23
DOCKED: ATOM     23  C   UNL     1     137.882  76.336 220.420 -0.07 -0.00    +0.003 CG0
DOCKED: ATOM     24  G   UNL     1     138.552  75.843 221.667 +0.00 +0.00    +0.000 G0 
DOCKED: ENDBRANCH  22  23
DOCKED: ENDBRANCH  21  22
DOCKED: ENDBRANCH  20  21
DOCKED: ENDBRANCH  19  20
DOCKED: BRANCH  19  25
DOCKED: ATOM     25  C   UNL     1     140.052  76.014 221.634 -0.29 -0.03    +0.115 C  
DOCKED: BRANCH  25  26
DOCKED: ATOM     26  C   UNL     1     138.553  75.842 221.666 -0.24 -0.01    +0.030 CG0
DOCKED: ATOM     27  G   UNL     1     137.881  76.335 220.420 +0.00 +0.00    +0.000 G0 
DOCKED: ENDBRANCH  25  26
DOCKED: BRANCH  25  28
DOCKED: ATOM     28  C   UNL     1     140.432  77.348 222.111 -0.38 +0.01    -0.025 A  
DOCKED: ATOM     29  C   UNL     1     141.413  77.422 223.106 -0.22 -0.00    +0.007 A  
DOCKED: ATOM     30  C   UNL     1     139.894  78.530 221.651 -0.24 -0.00    +0.007 A  
DOCKED: ATOM     31  C   UNL     1     141.806  78.658 223.589 -0.60 -0.01    +0.021 A  
DOCKED: ATOM     32  C   UNL     1     140.294  79.772 222.141 -0.30 -0.01    +0.021 A  
DOCKED: ATOM     33  C   UNL     1     141.269  79.838 223.129 -0.50 -0.01    +0.041 A  
DOCKED: ATOM     34  Cl  UNL     1     141.822  81.357 223.794 -0.64 +0.01    -0.084 Cl 
DOCKED: ENDBRANCH  25  28
DOCKED: ENDBRANCH  19  25
DOCKED: ENDBRANCH   1  19
DOCKED: TORSDOF 5
DOCKED: TER
DOCKED: ENDMDL
________________________________________________________________________________


    FINAL DOCKED STATE:
    ________________________


Run:   13 / 20
Time taken for this run:   0.031s

DOCKED: MODEL        13
DOCKED: USER    Run = 13
DOCKED: USER
DOCKED: USER    Estimated Free Energy of Binding    =  -4.89 kcal/mol  [=(1)+(2)+(3)-(4)]
DOCKED: USER
DOCKED: USER    (1) Final Intermolecular Energy     =  -8.17 kcal/mol
DOCKED: USER        vdW + Hbond + desolv Energy     =  -8.43 kcal/mol
DOCKED: USER        Electrostatic Energy            =  -0.20 kcal/mol
DOCKED: USER        Moving Ligand-Fixed Receptor    =  -8.62 kcal/mol
DOCKED: USER        Moving Ligand-Moving Receptor   =  +0.45 kcal/mol
DOCKED: USER    (2) Final Total Internal Energy     =  -2.24 kcal/mol
DOCKED: USER    (3) Torsional Free Energy           =  +3.28 kcal/mol
DOCKED: USER    (4) Unbound System's Energy         =  -2.24 kcal/mol
DOCKED: USER
DOCKED: USER
DOCKED: REMARK SMILES O=C(NCC(=O)N1CCCCC[C@@H]1c1ccc(Cl)cc1)c1ccc2cc(F)ccc2n1
DOCKED: REMARK SMILES IDX 5 1 6 2 4 3 3 4 2 5 1 6 21 8 22 9 31 10 23 11 30 12 24 13
DOCKED: REMARK SMILES IDX 29 14 25 15 28 16 26 17 27 18 7 19 8 20 9 21 10 22 11 23
DOCKED: REMARK SMILES IDX 13 25 12 26 14 28 15 29 20 30 16 31 19 32 17 33 18 34
DOCKED: REMARK H PARENT 3 7
DOCKED: REMARK Flexibility Score:   84.900
DOCKED: USER                              x       y       z     vdW  Elec       q    Type
DOCKED: USER                           _______ _______ _______ _____ _____    ______ ____
DOCKED: ROOT
DOCKED: ATOM      1  C   UNL     1     140.220  78.715 222.690 -0.27 -0.06    +0.242 C  
DOCKED: ATOM      2  O   UNL     1     140.646  79.042 223.843 -0.34 +0.05    -0.273 OA 
DOCKED: ENDROOT
DOCKED: BRANCH   1   3
DOCKED: ATOM      3  C   UNL     1     139.733  77.337 222.429 -0.23 -0.05    +0.216 C  
DOCKED: BRANCH   3   4
DOCKED: ATOM      4  N   UNL     1     140.803  76.463 221.989 -0.20 +0.11    -0.342 N  
DOCKED: ATOM      5  C   UNL     1     140.432  75.131 221.614 -0.22 -0.05    +0.270 C  
DOCKED: ATOM      6  O   UNL     1     139.205  74.854 221.704 -0.29 +0.06    -0.268 OA 
DOCKED: ATOM      7  H   UNL     1     141.801  76.776 221.943 -0.49 -0.12    +0.164 HD 
DOCKED: BRANCH   5   8
DOCKED: ATOM      8  C   UNL     1     141.429  74.162 221.154 -0.24 -0.02    +0.128 A  
DOCKED: ATOM      9  C   UNL     1     141.047  72.847 221.075 -0.23 -0.00    +0.035 A  
DOCKED: ATOM     10  N   UNL     1     142.663  74.552 220.825 -0.18 +0.08    -0.243 NA 
DOCKED: ATOM     11  C   UNL     1     141.962  71.903 220.645 -0.20 -0.00    +0.013 A  
DOCKED: ATOM     12  C   UNL     1     143.558  73.635 220.405 -0.32 -0.02    +0.071 A  
DOCKED: ATOM     13  C   UNL     1     143.238  72.291 220.303 -0.27 -0.00    +0.003 A  
DOCKED: ATOM     14  C   UNL     1     144.832  74.056 220.068 -0.46 -0.01    +0.032 A  
DOCKED: ATOM     15  C   UNL     1     144.161  71.362 219.872 -0.24 -0.00    +0.049 A  
DOCKED: ATOM     16  C   UNL     1     145.781  73.144 219.632 -0.43 +0.01    +0.041 A  
DOCKED: ATOM     17  C   UNL     1     145.437  71.801 219.538 -0.27 +0.05    +0.123 A  
DOCKED: ATOM     18  F   UNL     1     146.315  70.869 219.121 -0.06 -0.23    -0.207 F  
DOCKED: ENDBRANCH   5   8
DOCKED: ENDBRANCH   3   4
DOCKED: ENDBRANCH   1   3
DOCKED: BRANCH   1  19
DOCKED: ATOM     19  N   UNL     1     140.185  79.629 221.601 -0.06 +0.09    -0.334 N  
DOCKED: BRANCH  19  20
DOCKED: ATOM     20  C   UNL     1     138.899  80.125 221.148 -0.10 -0.03    +0.120 C  
DOCKED: BRANCH  20  21
DOCKED: ATOM     21  C   UNL     1     138.550  81.391 221.939 -0.18 -0.00    +0.022 C  
DOCKED: BRANCH  21  22
DOCKED: ATOM     22  C   UNL     1     139.510  82.528 221.581 -0.22 -0.00    +0.002 C  
DOCKED: BRANCH  22  23
DOCKED: ATOM     23  C   UNL     1     140.924  82.237 221.933 -0.35 -0.00    +0.003 CG0
DOCKED: ATOM     24  G   UNL     1     141.675  81.438 220.911 +0.00 +0.00    +0.000 G0 
DOCKED: ENDBRANCH  22  23
DOCKED: ENDBRANCH  21  22
DOCKED: ENDBRANCH  20  21
DOCKED: ENDBRANCH  19  20
DOCKED: BRANCH  19  25
DOCKED: ATOM     25  C   UNL     1     141.497  79.949 221.080 -0.31 -0.05    +0.115 C  
DOCKED: BRANCH  25  26
DOCKED: ATOM     26  C   UNL     1     141.676  81.439 220.914 -0.30 -0.01    +0.030 CG0
DOCKED: ATOM     27  G   UNL     1     140.925  82.235 221.938 +0.00 +0.00    +0.000 G0 
DOCKED: ENDBRANCH  25  26
DOCKED: BRANCH  25  28
DOCKED: ATOM     28  C   UNL     1     141.840  79.244 219.840 -0.28 +0.01    -0.025 A  
DOCKED: ATOM     29  C   UNL     1     142.099  77.871 219.930 -0.29 -0.00    +0.007 A  
DOCKED: ATOM     30  C   UNL     1     141.925  79.833 218.598 -0.29 -0.00    +0.007 A  
DOCKED: ATOM     31  C   UNL     1     142.427  77.160 218.788 -0.30 -0.01    +0.021 A  
DOCKED: ATOM     32  C   UNL     1     142.256  79.112 217.452 -0.27 -0.02    +0.021 A  
DOCKED: ATOM     33  C   UNL     1     142.512  77.749 217.548 -0.27 -0.03    +0.041 A  
DOCKED: ATOM     34  Cl  UNL     1     142.934  76.779 216.157 -0.24 +0.06    -0.084 Cl 
DOCKED: ENDBRANCH  25  28
DOCKED: ENDBRANCH  19  25
DOCKED: ENDBRANCH   1  19
DOCKED: TORSDOF 5
DOCKED: TER
DOCKED: ENDMDL
________________________________________________________________________________


    FINAL DOCKED STATE:
    ________________________


Run:   14 / 20
Time taken for this run:   0.031s

DOCKED: MODEL        14
DOCKED: USER    Run = 14
DOCKED: USER
DOCKED: USER    Estimated Free Energy of Binding    =  -5.25 kcal/mol  [=(1)+(2)+(3)-(4)]
DOCKED: USER
DOCKED: USER    (1) Final Intermolecular Energy     =  -8.53 kcal/mol
DOCKED: USER        vdW + Hbond + desolv Energy     =  -8.55 kcal/mol
DOCKED: USER        Electrostatic Energy            =  -0.19 kcal/mol
DOCKED: USER        Moving Ligand-Fixed Receptor    =  -8.75 kcal/mol
DOCKED: USER        Moving Ligand-Moving Receptor   =  +0.21 kcal/mol
DOCKED: USER    (2) Final Total Internal Energy     =  -2.28 kcal/mol
DOCKED: USER    (3) Torsional Free Energy           =  +3.28 kcal/mol
DOCKED: USER    (4) Unbound System's Energy         =  -2.28 kcal/mol
DOCKED: USER
DOCKED: USER
DOCKED: REMARK SMILES O=C(NCC(=O)N1CCCCC[C@@H]1c1ccc(Cl)cc1)c1ccc2cc(F)ccc2n1
DOCKED: REMARK SMILES IDX 5 1 6 2 4 3 3 4 2 5 1 6 21 8 22 9 31 10 23 11 30 12 24 13
DOCKED: REMARK SMILES IDX 29 14 25 15 28 16 26 17 27 18 7 19 8 20 9 21 10 22 11 23
DOCKED: REMARK SMILES IDX 13 25 12 26 14 28 15 29 20 30 16 31 19 32 17 33 18 34
DOCKED: REMARK H PARENT 3 7
DOCKED: REMARK Flexibility Score:   84.900
DOCKED: USER                              x       y       z     vdW  Elec       q    Type
DOCKED: USER                           _______ _______ _______ _____ _____    ______ ____
DOCKED: ROOT
DOCKED: ATOM      1  C   UNL     1     139.084  77.966 222.069 -0.17 -0.05    +0.242 C  
DOCKED: ATOM      2  O   UNL     1     138.233  78.234 221.162 -0.05 +0.06    -0.273 OA 
DOCKED: ENDROOT
DOCKED: BRANCH   1   3
DOCKED: ATOM      3  C   UNL     1     139.109  76.627 222.710 -0.13 -0.04    +0.216 C  
DOCKED: BRANCH   3   4
DOCKED: ATOM      4  N   UNL     1     140.281  75.867 222.321 -0.18 +0.06    -0.342 N  
DOCKED: ATOM      5  C   UNL     1     140.049  74.653 221.597 -0.21 -0.04    +0.270 C  
DOCKED: ATOM      6  O   UNL     1     138.841  74.368 221.370 -0.15 +0.06    -0.268 OA 
DOCKED: ATOM      7  H   UNL     1     141.254  76.179 222.551 -0.15 -0.06    +0.164 HD 
DOCKED: BRANCH   5   8
DOCKED: ATOM      8  C   UNL     1     141.157  73.805 221.153 -0.23 -0.02    +0.128 A  
DOCKED: ATOM      9  C   UNL     1     140.879  72.492 220.870 -0.19 -0.01    +0.035 A  
DOCKED: ATOM     10  N   UNL     1     142.392  74.301 221.030 -0.12 +0.06    -0.243 NA 
DOCKED: ATOM     11  C   UNL     1     141.901  71.661 220.447 -0.18 -0.00    +0.013 A  
DOCKED: ATOM     12  C   UNL     1     143.391  73.493 220.618 -0.29 -0.02    +0.071 A  
DOCKED: ATOM     13  C   UNL     1     143.179  72.158 220.317 -0.27 -0.00    +0.003 A  
DOCKED: ATOM     14  C   UNL     1     144.664  74.022 220.496 -0.50 -0.01    +0.032 A  
DOCKED: ATOM     15  C   UNL     1     144.208  71.342 219.897 -0.24 -0.00    +0.049 A  
DOCKED: ATOM     16  C   UNL     1     145.718  73.226 220.076 -0.53 +0.00    +0.041 A  
DOCKED: ATOM     17  C   UNL     1     145.481  71.889 219.780 -0.28 +0.04    +0.123 A  
DOCKED: ATOM     18  F   UNL     1     146.464  71.067 219.367 -0.01 -0.25    -0.207 F  
DOCKED: ENDBRANCH   5   8
DOCKED: ENDBRANCH   3   4
DOCKED: ENDBRANCH   1   3
DOCKED: BRANCH   1  19
DOCKED: ATOM     19  N   UNL     1     140.046  78.914 222.518 -0.13 +0.08    -0.334 N  
DOCKED: BRANCH  19  20
DOCKED: ATOM     20  C   UNL     1     139.581  80.131 223.155 -0.33 -0.02    +0.120 C  
DOCKED: BRANCH  20  21
DOCKED: ATOM     21  C   UNL     1     140.070  81.334 222.339 -0.32 -0.00    +0.022 C  
DOCKED: BRANCH  21  22
DOCKED: ATOM     22  C   UNL     1     141.484  81.733 222.769 -0.45 -0.00    +0.002 C  
DOCKED: BRANCH  22  23
DOCKED: ATOM     23  C   UNL     1     142.523  80.755 222.356 -0.52 -0.00    +0.003 CG0
DOCKED: ATOM     24  G   UNL     1     142.396  79.399 222.982 +0.00 +0.00    +0.000 G0 
DOCKED: ENDBRANCH  22  23
DOCKED: ENDBRANCH  21  22
DOCKED: ENDBRANCH  20  21
DOCKED: ENDBRANCH  19  20
DOCKED: BRANCH  19  25
DOCKED: ATOM     25  C   UNL     1     141.411  78.507 222.263 -0.39 -0.05    +0.115 C  
DOCKED: BRANCH  25  26
DOCKED: ATOM     26  C   UNL     1     142.395  79.398 222.982 -0.59 -0.01    +0.030 CG0
DOCKED: ATOM     27  G   UNL     1     142.523  80.753 222.355 +0.00 +0.00    +0.000 G0 
DOCKED: ENDBRANCH  25  26
DOCKED: BRANCH  25  28
DOCKED: ATOM     28  C   UNL     1     141.752  78.400 220.840 -0.33 +0.01    -0.025 A  
DOCKED: ATOM     29  C   UNL     1     142.293  77.188 220.396 -0.21 -0.01    +0.007 A  
DOCKED: ATOM     30  C   UNL     1     141.579  79.404 219.913 -0.28 -0.00    +0.007 A  
DOCKED: ATOM     31  C   UNL     1     142.630  77.037 219.062 -0.33 -0.01    +0.021 A  
DOCKED: ATOM     32  C   UNL     1     141.922  79.246 218.571 -0.27 -0.01    +0.021 A  
DOCKED: ATOM     33  C   UNL     1     142.457  78.040 218.136 -0.29 -0.03    +0.041 A  
DOCKED: ATOM     34  Cl  UNL     1     142.912  77.767 216.471 -0.24 +0.08    -0.084 Cl 
DOCKED: ENDBRANCH  25  28
DOCKED: ENDBRANCH  19  25
DOCKED: ENDBRANCH   1  19
DOCKED: TORSDOF 5
DOCKED: TER
DOCKED: ENDMDL
________________________________________________________________________________


    FINAL DOCKED STATE:
    ________________________


Run:   15 / 20
Time taken for this run:   0.031s

DOCKED: MODEL        15
DOCKED: USER    Run = 15
DOCKED: USER
DOCKED: USER    Estimated Free Energy of Binding    =  -4.82 kcal/mol  [=(1)+(2)+(3)-(4)]
DOCKED: USER
DOCKED: USER    (1) Final Intermolecular Energy     =  -8.10 kcal/mol
DOCKED: USER        vdW + Hbond + desolv Energy     =  -8.60 kcal/mol
DOCKED: USER        Electrostatic Energy            =  -0.18 kcal/mol
DOCKED: USER        Moving Ligand-Fixed Receptor    =  -8.78 kcal/mol
DOCKED: USER        Moving Ligand-Moving Receptor   =  +0.69 kcal/mol
DOCKED: USER    (2) Final Total Internal Energy     =  -2.73 kcal/mol
DOCKED: USER    (3) Torsional Free Energy           =  +3.28 kcal/mol
DOCKED: USER    (4) Unbound System's Energy         =  -2.73 kcal/mol
DOCKED: USER
DOCKED: USER
DOCKED: REMARK SMILES O=C(NCC(=O)N1CCCCC[C@@H]1c1ccc(Cl)cc1)c1ccc2cc(F)ccc2n1
DOCKED: REMARK SMILES IDX 5 1 6 2 4 3 3 4 2 5 1 6 21 8 22 9 31 10 23 11 30 12 24 13
DOCKED: REMARK SMILES IDX 29 14 25 15 28 16 26 17 27 18 7 19 8 20 9 21 10 22 11 23
DOCKED: REMARK SMILES IDX 13 25 12 26 14 28 15 29 20 30 16 31 19 32 17 33 18 34
DOCKED: REMARK H PARENT 3 7
DOCKED: REMARK Flexibility Score:   84.900
DOCKED: USER                              x       y       z     vdW  Elec       q    Type
DOCKED: USER                           _______ _______ _______ _____ _____    ______ ____
DOCKED: ROOT
DOCKED: ATOM      1  C   UNL     1     139.928  79.710 220.926 -0.09 -0.07    +0.242 C  
DOCKED: ATOM      2  O   UNL     1     138.759  79.319 220.614 -0.03 +0.06    -0.273 OA 
DOCKED: ENDROOT
DOCKED: BRANCH   1   3
DOCKED: ATOM      3  C   UNL     1     141.004  79.763 219.903 -0.16 -0.09    +0.216 C  
DOCKED: BRANCH   3   4
DOCKED: ATOM      4  N   UNL     1     141.851  78.587 219.954 -0.12 +0.21    -0.342 N  
DOCKED: ATOM      5  C   UNL     1     141.752  77.676 218.852 -0.15 -0.15    +0.270 C  
DOCKED: ATOM      6  O   UNL     1     140.934  77.993 217.946 -0.05 +0.12    -0.268 OA 
DOCKED: ATOM      7  H   UNL     1     142.507  78.401 220.748 -0.30 -0.14    +0.164 HD 
DOCKED: BRANCH   5   8
DOCKED: ATOM      8  C   UNL     1     142.560  76.456 218.796 -0.24 -0.07    +0.128 A  
DOCKED: ATOM      9  C   UNL     1     142.510  75.714 217.644 -0.15 -0.02    +0.035 A  
DOCKED: ATOM     10  N   UNL     1     143.316  76.086 219.834 -0.25 +0.16    -0.243 NA 
DOCKED: ATOM     11  C   UNL     1     143.260  74.555 217.555 -0.14 -0.00    +0.013 A  
DOCKED: ATOM     12  C   UNL     1     144.048  74.957 219.750 -0.36 -0.03    +0.071 A  
DOCKED: ATOM     13  C   UNL     1     144.043  74.161 218.617 -0.23 -0.00    +0.003 A  
DOCKED: ATOM     14  C   UNL     1     144.825  74.588 220.835 -0.24 -0.01    +0.032 A  
DOCKED: ATOM     15  C   UNL     1     144.796  73.009 218.543 -0.22 +0.00    +0.049 A  
DOCKED: ATOM     16  C   UNL     1     145.593  73.435 220.789 -0.62 -0.00    +0.041 A  
DOCKED: ATOM     17  C   UNL     1     145.571  72.652 219.641 -0.35 +0.04    +0.123 A  
DOCKED: ATOM     18  F   UNL     1     146.295  71.522 219.537 -0.06 -0.21    -0.207 F  
DOCKED: ENDBRANCH   5   8
DOCKED: ENDBRANCH   3   4
DOCKED: ENDBRANCH   1   3
DOCKED: BRANCH   1  19
DOCKED: ATOM     19  N   UNL     1     140.272  80.112 222.246 -0.10 +0.08    -0.334 N  
DOCKED: BRANCH  19  20
DOCKED: ATOM     20  C   UNL     1     140.559  81.512 222.496 -0.30 -0.02    +0.120 C  
DOCKED: BRANCH  20  21
DOCKED: ATOM     21  C   UNL     1     141.843  81.613 223.328 -0.50 -0.00    +0.022 C  
DOCKED: BRANCH  21  22
DOCKED: ATOM     22  C   UNL     1     142.935  80.716 222.740 -0.49 -0.00    +0.002 C  
DOCKED: BRANCH  22  23
DOCKED: ATOM     23  C   UNL     1     142.779  79.283 223.102 -0.43 -0.00    +0.003 CG0
DOCKED: ATOM     24  G   UNL     1     141.588  78.976 223.959 +0.00 +0.00    +0.000 G0 
DOCKED: ENDBRANCH  22  23
DOCKED: ENDBRANCH  21  22
DOCKED: ENDBRANCH  20  21
DOCKED: ENDBRANCH  19  20
DOCKED: BRANCH  19  25
DOCKED: ATOM     25  C   UNL     1     140.286  79.017 223.193 -0.38 -0.02    +0.115 C  
DOCKED: BRANCH  25  26
DOCKED: ATOM     26  C   UNL     1     141.588  78.965 223.955 -0.56 -0.01    +0.030 CG0
DOCKED: ATOM     27  G   UNL     1     142.779  79.282 223.102 +0.00 +0.00    +0.000 G0 
DOCKED: ENDBRANCH  25  26
DOCKED: BRANCH  25  28
DOCKED: ATOM     28  C   UNL     1     139.976  77.709 222.605 -0.35 +0.01    -0.025 A  
DOCKED: ATOM     29  C   UNL     1     141.053  76.910 222.204 -0.39 -0.00    +0.007 A  
DOCKED: ATOM     30  C   UNL     1     138.705  77.212 222.420 -0.30 -0.00    +0.007 A  
DOCKED: ATOM     31  C   UNL     1     140.813  75.668 221.645 -0.36 -0.01    +0.021 A  
DOCKED: ATOM     32  C   UNL     1     138.469  75.960 221.855 -0.25 -0.00    +0.021 A  
DOCKED: ATOM     33  C   UNL     1     139.543  75.172 221.460 -0.26 -0.01    +0.041 A  
DOCKED: ATOM     34  Cl  UNL     1     139.327  73.592 220.744 -0.18 +0.02    -0.084 Cl 
DOCKED: ENDBRANCH  25  28
DOCKED: ENDBRANCH  19  25
DOCKED: ENDBRANCH   1  19
DOCKED: TORSDOF 5
DOCKED: TER
DOCKED: ENDMDL
________________________________________________________________________________


    FINAL DOCKED STATE:
    ________________________


Run:   16 / 20
Time taken for this run:   0.031s

DOCKED: MODEL        16
DOCKED: USER    Run = 16
DOCKED: USER
DOCKED: USER    Estimated Free Energy of Binding    =  -5.02 kcal/mol  [=(1)+(2)+(3)-(4)]
DOCKED: USER
DOCKED: USER    (1) Final Intermolecular Energy     =  -8.30 kcal/mol
DOCKED: USER        vdW + Hbond + desolv Energy     =  -8.84 kcal/mol
DOCKED: USER        Electrostatic Energy            =  +0.04 kcal/mol
DOCKED: USER        Moving Ligand-Fixed Receptor    =  -8.80 kcal/mol
DOCKED: USER        Moving Ligand-Moving Receptor   =  +0.49 kcal/mol
DOCKED: USER    (2) Final Total Internal Energy     =  -1.82 kcal/mol
DOCKED: USER    (3) Torsional Free Energy           =  +3.28 kcal/mol
DOCKED: USER    (4) Unbound System's Energy         =  -1.82 kcal/mol
DOCKED: USER
DOCKED: USER
DOCKED: REMARK SMILES O=C(NCC(=O)N1CCCCC[C@@H]1c1ccc(Cl)cc1)c1ccc2cc(F)ccc2n1
DOCKED: REMARK SMILES IDX 5 1 6 2 4 3 3 4 2 5 1 6 21 8 22 9 31 10 23 11 30 12 24 13
DOCKED: REMARK SMILES IDX 29 14 25 15 28 16 26 17 27 18 7 19 8 20 9 21 10 22 11 23
DOCKED: REMARK SMILES IDX 13 25 12 26 14 28 15 29 20 30 16 31 19 32 17 33 18 34
DOCKED: REMARK H PARENT 3 7
DOCKED: REMARK Flexibility Score:   84.900
DOCKED: USER                              x       y       z     vdW  Elec       q    Type
DOCKED: USER                           _______ _______ _______ _____ _____    ______ ____
DOCKED: ROOT
DOCKED: ATOM      1  C   UNL     1     140.997  74.271 219.576 -0.06 -0.06    +0.242 C  
DOCKED: ATOM      2  O   UNL     1     140.654  74.178 218.354 -0.01 +0.07    -0.273 OA 
DOCKED: ENDROOT
DOCKED: BRANCH   1   3
DOCKED: ATOM      3  C   UNL     1     140.017  74.708 220.603 -0.13 -0.05    +0.216 C  
DOCKED: BRANCH   3   4
DOCKED: ATOM      4  N   UNL     1     140.172  73.969 221.841 -0.16 +0.03    -0.342 N  
DOCKED: ATOM      5  C   UNL     1     139.626  72.644 221.870 -0.17 -0.05    +0.270 C  
DOCKED: ATOM      6  O   UNL     1     139.064  72.256 220.811 -0.05 +0.05    -0.268 OA 
DOCKED: ATOM      7  H   UNL     1     140.657  74.369 222.678 +0.08 +0.06    +0.164 HD 
DOCKED: BRANCH   5   8
DOCKED: ATOM      8  C   UNL     1     139.723  71.806 223.067 -0.28 -0.03    +0.128 A  
DOCKED: ATOM      9  C   UNL     1     139.112  70.579 223.034 -0.24 -0.01    +0.035 A  
DOCKED: ATOM     10  N   UNL     1     140.387  72.227 224.147 -0.15 +0.04    -0.243 NA 
DOCKED: ATOM     11  C   UNL     1     139.183  69.758 224.145 -0.32 -0.00    +0.013 A  
DOCKED: ATOM     12  C   UNL     1     140.458  71.430 225.233 -0.49 -0.01    +0.071 A  
DOCKED: ATOM     13  C   UNL     1     139.863  70.180 225.266 -0.45 -0.00    +0.003 A  
DOCKED: ATOM     14  C   UNL     1     141.148  71.883 226.344 -0.66 -0.00    +0.032 A  
DOCKED: ATOM     15  C   UNL     1     139.943  69.374 226.382 -0.48 -0.01    +0.049 A  
DOCKED: ATOM     16  C   UNL     1     141.246  71.094 227.480 -0.58 -0.01    +0.041 A  
DOCKED: ATOM     17  C   UNL     1     140.639  69.843 227.489 -0.50 -0.02    +0.123 A  
DOCKED: ATOM     18  F   UNL     1     140.699  69.033 228.563 -0.16 +0.04    -0.207 F  
DOCKED: ENDBRANCH   5   8
DOCKED: ENDBRANCH   3   4
DOCKED: ENDBRANCH   1   3
DOCKED: BRANCH   1  19
DOCKED: ATOM     19  N   UNL     1     142.312  73.968 220.025 -0.09 +0.08    -0.334 N  
DOCKED: BRANCH  19  20
DOCKED: ATOM     20  C   UNL     1     142.512  72.793 220.854 -0.21 -0.02    +0.120 C  
DOCKED: BRANCH  20  21
DOCKED: ATOM     21  C   UNL     1     143.606  71.923 220.223 -0.28 -0.00    +0.022 C  
DOCKED: BRANCH  21  22
DOCKED: ATOM     22  C   UNL     1     144.991  72.384 220.686 -0.33 -0.00    +0.002 C  
DOCKED: BRANCH  22  23
DOCKED: ATOM     23  C   UNL     1     145.420  73.668 220.072 -0.52 -0.00    +0.003 CG0
DOCKED: ATOM     24  G   UNL     1     144.558  74.847 220.410 +0.00 +0.00    +0.000 G0 
DOCKED: ENDBRANCH  22  23
DOCKED: ENDBRANCH  21  22
DOCKED: ENDBRANCH  20  21
DOCKED: ENDBRANCH  19  20
DOCKED: BRANCH  19  25
DOCKED: ATOM     25  C   UNL     1     143.305  74.917 219.570 -0.29 -0.05    +0.115 C  
DOCKED: BRANCH  25  26
DOCKED: ATOM     26  C   UNL     1     144.557  74.849 220.410 -0.29 -0.01    +0.030 CG0
DOCKED: ATOM     27  G   UNL     1     145.421  73.670 220.079 +0.00 +0.00    +0.000 G0 
DOCKED: ENDBRANCH  25  26
DOCKED: BRANCH  25  28
DOCKED: ATOM     28  C   UNL     1     142.819  76.297 219.473 -0.35 +0.01    -0.025 A  
DOCKED: ATOM     29  C   UNL     1     142.975  76.951 218.244 -0.32 -0.00    +0.007 A  
DOCKED: ATOM     30  C   UNL     1     142.221  76.994 220.499 -0.17 -0.00    +0.007 A  
DOCKED: ATOM     31  C   UNL     1     142.532  78.254 218.102 -0.31 -0.02    +0.021 A  
DOCKED: ATOM     32  C   UNL     1     141.777  78.307 220.349 -0.30 -0.01    +0.021 A  
DOCKED: ATOM     33  C   UNL     1     141.935  78.950 219.127 -0.26 -0.03    +0.041 A  
DOCKED: ATOM     34  Cl  UNL     1     141.405  80.594 218.863 -0.30 +0.04    -0.084 Cl 
DOCKED: ENDBRANCH  25  28
DOCKED: ENDBRANCH  19  25
DOCKED: ENDBRANCH   1  19
DOCKED: TORSDOF 5
DOCKED: TER
DOCKED: ENDMDL
________________________________________________________________________________


    FINAL DOCKED STATE:
    ________________________


Run:   17 / 20
Time taken for this run:   0.031s

DOCKED: MODEL        17
DOCKED: USER    Run = 17
DOCKED: USER
DOCKED: USER    Estimated Free Energy of Binding    =  -6.36 kcal/mol  [=(1)+(2)+(3)-(4)]
DOCKED: USER
DOCKED: USER    (1) Final Intermolecular Energy     =  -9.64 kcal/mol
DOCKED: USER        vdW + Hbond + desolv Energy     = -10.00 kcal/mol
DOCKED: USER        Electrostatic Energy            =  +0.03 kcal/mol
DOCKED: USER        Moving Ligand-Fixed Receptor    =  -9.97 kcal/mol
DOCKED: USER        Moving Ligand-Moving Receptor   =  +0.33 kcal/mol
DOCKED: USER    (2) Final Total Internal Energy     =  -1.54 kcal/mol
DOCKED: USER    (3) Torsional Free Energy           =  +3.28 kcal/mol
DOCKED: USER    (4) Unbound System's Energy         =  -1.54 kcal/mol
DOCKED: USER
DOCKED: USER
DOCKED: REMARK SMILES O=C(NCC(=O)N1CCCCC[C@@H]1c1ccc(Cl)cc1)c1ccc2cc(F)ccc2n1
DOCKED: REMARK SMILES IDX 5 1 6 2 4 3 3 4 2 5 1 6 21 8 22 9 31 10 23 11 30 12 24 13
DOCKED: REMARK SMILES IDX 29 14 25 15 28 16 26 17 27 18 7 19 8 20 9 21 10 22 11 23
DOCKED: REMARK SMILES IDX 13 25 12 26 14 28 15 29 20 30 16 31 19 32 17 33 18 34
DOCKED: REMARK H PARENT 3 7
DOCKED: REMARK Flexibility Score:   84.900
DOCKED: USER                              x       y       z     vdW  Elec       q    Type
DOCKED: USER                           _______ _______ _______ _____ _____    ______ ____
DOCKED: ROOT
DOCKED: ATOM      1  C   UNL     1     138.751  74.838 221.722 -0.16 -0.06    +0.242 C  
DOCKED: ATOM      2  O   UNL     1     137.860  75.471 222.373 -0.19 +0.08    -0.273 OA 
DOCKED: ENDROOT
DOCKED: BRANCH   1   3
DOCKED: ATOM      3  C   UNL     1     138.652  73.366 221.544 -0.13 -0.05    +0.216 C  
DOCKED: BRANCH   3   4
DOCKED: ATOM      4  N   UNL     1     139.188  72.651 222.685 -0.08 +0.10    -0.342 N  
DOCKED: ATOM      5  C   UNL     1     138.608  71.372 222.971 -0.15 -0.07    +0.270 C  
DOCKED: ATOM      6  O   UNL     1     137.687  70.998 222.195 -0.06 +0.05    -0.268 OA 
DOCKED: ATOM      7  H   UNL     1     139.958  73.036 223.279 -0.23 -0.02    +0.164 HD 
DOCKED: BRANCH   5   8
DOCKED: ATOM      8  C   UNL     1     139.069  70.560 224.099 -0.28 -0.02    +0.128 A  
DOCKED: ATOM      9  C   UNL     1     138.877  69.204 224.026 -0.30 -0.01    +0.035 A  
DOCKED: ATOM     10  N   UNL     1     139.655  71.127 225.157 -0.27 +0.05    -0.243 NA 
DOCKED: ATOM     11  C   UNL     1     139.300  68.405 225.073 -0.42 -0.00    +0.013 A  
DOCKED: ATOM     12  C   UNL     1     140.070  70.351 226.179 -0.48 -0.01    +0.071 A  
DOCKED: ATOM     13  C   UNL     1     139.905  68.976 226.170 -0.52 -0.00    +0.003 A  
DOCKED: ATOM     14  C   UNL     1     140.674  70.955 227.268 -0.66 -0.01    +0.032 A  
DOCKED: ATOM     15  C   UNL     1     140.333  68.192 227.221 -0.63 -0.01    +0.049 A  
DOCKED: ATOM     16  C   UNL     1     141.114  70.193 228.339 -0.51 -0.01    +0.041 A  
DOCKED: ATOM     17  C   UNL     1     140.938  68.814 228.307 -0.53 -0.03    +0.123 A  
DOCKED: ATOM     18  F   UNL     1     141.344  68.022 229.317 -0.15 +0.05    -0.207 F  
DOCKED: ENDBRANCH   5   8
DOCKED: ENDBRANCH   3   4
DOCKED: ENDBRANCH   1   3
DOCKED: BRANCH   1  19
DOCKED: ATOM     19  N   UNL     1     139.874  75.485 221.135 -0.11 +0.08    -0.334 N  
DOCKED: BRANCH  19  20
DOCKED: ATOM     20  C   UNL     1     141.078  74.712 220.897 -0.24 -0.03    +0.120 C  
DOCKED: BRANCH  20  21
DOCKED: ATOM     21  C   UNL     1     142.232  75.675 220.591 -0.14 -0.01    +0.022 C  
DOCKED: BRANCH  21  22
DOCKED: ATOM     22  C   UNL     1     142.094  76.244 219.177 -0.25 -0.00    +0.002 C  
DOCKED: BRANCH  22  23
DOCKED: ATOM     23  C   UNL     1     140.698  76.232 218.670 -0.09 -0.00    +0.003 CG0
DOCKED: ATOM     24  G   UNL     1     139.764  77.170 219.374 +0.00 +0.00    +0.000 G0 
DOCKED: ENDBRANCH  22  23
DOCKED: ENDBRANCH  21  22
DOCKED: ENDBRANCH  20  21
DOCKED: ENDBRANCH  19  20
DOCKED: BRANCH  19  25
DOCKED: ATOM     25  C   UNL     1     139.642  76.884 220.847 -0.14 -0.03    +0.115 C  
DOCKED: BRANCH  25  26
DOCKED: ATOM     26  C   UNL     1     139.764  77.170 219.370 -0.07 -0.01    +0.030 CG0
DOCKED: ATOM     27  G   UNL     1     140.699  76.232 218.668 +0.00 +0.00    +0.000 G0 
DOCKED: ENDBRANCH  25  26
DOCKED: BRANCH  25  28
DOCKED: ATOM     28  C   UNL     1     140.477  77.805 221.625 -0.30 +0.01    -0.025 A  
DOCKED: ATOM     29  C   UNL     1     140.808  79.031 221.034 -0.27 -0.00    +0.007 A  
DOCKED: ATOM     30  C   UNL     1     140.957  77.553 222.891 -0.39 -0.00    +0.007 A  
DOCKED: ATOM     31  C   UNL     1     141.593  79.935 221.728 -0.41 -0.01    +0.021 A  
DOCKED: ATOM     32  C   UNL     1     141.748  78.467 223.584 -0.55 -0.01    +0.021 A  
DOCKED: ATOM     33  C   UNL     1     142.072  79.682 222.992 -0.57 -0.01    +0.041 A  
DOCKED: ATOM     34  Cl  UNL     1     143.059  80.878 223.798 -0.68 +0.02    -0.084 Cl 
DOCKED: ENDBRANCH  25  28
DOCKED: ENDBRANCH  19  25
DOCKED: ENDBRANCH   1  19
DOCKED: TORSDOF 5
DOCKED: TER
DOCKED: ENDMDL
________________________________________________________________________________


    FINAL DOCKED STATE:
    ________________________


Run:   18 / 20
Time taken for this run:   0.031s

DOCKED: MODEL        18
DOCKED: USER    Run = 18
DOCKED: USER
DOCKED: USER    Estimated Free Energy of Binding    =  -4.65 kcal/mol  [=(1)+(2)+(3)-(4)]
DOCKED: USER
DOCKED: USER    (1) Final Intermolecular Energy     =  -7.93 kcal/mol
DOCKED: USER        vdW + Hbond + desolv Energy     =  -7.91 kcal/mol
DOCKED: USER        Electrostatic Energy            =  -0.19 kcal/mol
DOCKED: USER        Moving Ligand-Fixed Receptor    =  -8.09 kcal/mol
DOCKED: USER        Moving Ligand-Moving Receptor   =  +0.16 kcal/mol
DOCKED: USER    (2) Final Total Internal Energy     =  -2.55 kcal/mol
DOCKED: USER    (3) Torsional Free Energy           =  +3.28 kcal/mol
DOCKED: USER    (4) Unbound System's Energy         =  -2.55 kcal/mol
DOCKED: USER
DOCKED: USER
DOCKED: REMARK SMILES O=C(NCC(=O)N1CCCCC[C@@H]1c1ccc(Cl)cc1)c1ccc2cc(F)ccc2n1
DOCKED: REMARK SMILES IDX 5 1 6 2 4 3 3 4 2 5 1 6 21 8 22 9 31 10 23 11 30 12 24 13
DOCKED: REMARK SMILES IDX 29 14 25 15 28 16 26 17 27 18 7 19 8 20 9 21 10 22 11 23
DOCKED: REMARK SMILES IDX 13 25 12 26 14 28 15 29 20 30 16 31 19 32 17 33 18 34
DOCKED: REMARK H PARENT 3 7
DOCKED: REMARK Flexibility Score:   84.900
DOCKED: USER                              x       y       z     vdW  Elec       q    Type
DOCKED: USER                           _______ _______ _______ _____ _____    ______ ____
DOCKED: ROOT
DOCKED: ATOM      1  C   UNL     1     139.984  78.375 222.083 -0.21 -0.06    +0.242 C  
DOCKED: ATOM      2  O   UNL     1     138.930  78.912 221.616 -0.08 +0.06    -0.273 OA 
DOCKED: ENDROOT
DOCKED: BRANCH   1   3
DOCKED: ATOM      3  C   UNL     1     139.941  77.009 222.665 -0.12 -0.05    +0.216 C  
DOCKED: BRANCH   3   4
DOCKED: ATOM      4  N   UNL     1     140.979  76.159 222.115 -0.20 +0.11    -0.342 N  
DOCKED: ATOM      5  C   UNL     1     140.603  74.815 221.789 -0.11 -0.03    +0.270 C  
DOCKED: ATOM      6  O   UNL     1     139.401  74.509 222.016 -0.58 +0.05    -0.268 OA 
DOCKED: ATOM      7  H   UNL     1     141.957  76.497 221.958 -0.52 -0.13    +0.164 HD 
DOCKED: BRANCH   5   8
DOCKED: ATOM      8  C   UNL     1     141.568  73.868 221.228 -0.22 -0.02    +0.128 A  
DOCKED: ATOM      9  C   UNL     1     141.128  72.597 220.958 -0.21 -0.00    +0.035 A  
DOCKED: ATOM     10  N   UNL     1     142.830  74.236 220.989 -0.08 +0.07    -0.243 NA 
DOCKED: ATOM     11  C   UNL     1     142.011  71.675 220.426 -0.19 -0.00    +0.013 A  
DOCKED: ATOM     12  C   UNL     1     143.694  73.339 220.471 -0.33 -0.01    +0.071 A  
DOCKED: ATOM     13  C   UNL     1     143.315  72.040 220.176 -0.26 -0.00    +0.003 A  
DOCKED: ATOM     14  C   UNL     1     144.998  73.736 220.231 -0.51 -0.01    +0.032 A  
DOCKED: ATOM     15  C   UNL     1     144.208  71.132 219.646 -0.23 +0.00    +0.049 A  
DOCKED: ATOM     16  C   UNL     1     145.917  72.845 219.699 -0.43 +0.02    +0.041 A  
DOCKED: ATOM     17  C   UNL     1     145.513  71.547 219.411 -0.26 +0.06    +0.123 A  
DOCKED: ATOM     18  F   UNL     1     146.360  70.637 218.894 -0.04 -0.24    -0.207 F  
DOCKED: ENDBRANCH   5   8
DOCKED: ENDBRANCH   3   4
DOCKED: ENDBRANCH   1   3
DOCKED: BRANCH   1  19
DOCKED: ATOM     19  N   UNL     1     141.244  79.035 222.078 -0.17 +0.13    -0.334 N  
DOCKED: BRANCH  19  20
DOCKED: ATOM     20  C   UNL     1     141.787  79.511 223.337 -0.52 -0.04    +0.120 C  
DOCKED: BRANCH  20  21
DOCKED: ATOM     21  C   UNL     1     141.293  80.942 223.580 -0.52 -0.00    +0.022 C  
DOCKED: BRANCH  21  22
DOCKED: ATOM     22  C   UNL     1     141.669  81.846 222.403 -0.41 -0.00    +0.002 C  
DOCKED: BRANCH  22  23
DOCKED: ATOM     23  C   UNL     1     140.989  81.475 221.135 -0.34 -0.00    +0.003 CG0
DOCKED: ATOM     24  G   UNL     1     141.772  80.558 220.245 +0.00 +0.00    +0.000 G0 
DOCKED: ENDBRANCH  22  23
DOCKED: ENDBRANCH  21  22
DOCKED: ENDBRANCH  20  21
DOCKED: ENDBRANCH  19  20
DOCKED: BRANCH  19  25
DOCKED: ATOM     25  C   UNL     1     141.829  79.142 220.759 -0.25 -0.06    +0.115 C  
DOCKED: BRANCH  25  26
DOCKED: ATOM     26  C   UNL     1     141.774  80.560 220.244 -0.32 -0.01    +0.030 CG0
DOCKED: ATOM     27  G   UNL     1     140.989  81.474 221.135 +0.00 +0.00    +0.000 G0 
DOCKED: ENDBRANCH  25  26
DOCKED: BRANCH  25  28
DOCKED: ATOM     28  C   UNL     1     141.268  78.210 219.775 -0.23 +0.01    -0.025 A  
DOCKED: ATOM     29  C   UNL     1     141.984  77.034 219.519 -0.28 -0.00    +0.007 A  
DOCKED: ATOM     30  C   UNL     1     140.092  78.408 219.086 -0.09 -0.00    +0.007 A  
DOCKED: ATOM     31  C   UNL     1     141.496  76.122 218.600 -0.13 -0.01    +0.021 A  
DOCKED: ATOM     32  C   UNL     1     139.607  77.486 218.160 -0.03 -0.01    +0.021 A  
DOCKED: ATOM     33  C   UNL     1     140.321  76.320 217.912 -0.04 -0.01    +0.041 A  
DOCKED: ATOM     34  Cl  UNL     1     139.777  75.118 216.766 -0.01 +0.02    -0.084 Cl 
DOCKED: ENDBRANCH  25  28
DOCKED: ENDBRANCH  19  25
DOCKED: ENDBRANCH   1  19
DOCKED: TORSDOF 5
DOCKED: TER
DOCKED: ENDMDL
________________________________________________________________________________


    FINAL DOCKED STATE:
    ________________________


Run:   19 / 20
Time taken for this run:   0.031s

DOCKED: MODEL        19
DOCKED: USER    Run = 19
DOCKED: USER
DOCKED: USER    Estimated Free Energy of Binding    =  -5.74 kcal/mol  [=(1)+(2)+(3)-(4)]
DOCKED: USER
DOCKED: USER    (1) Final Intermolecular Energy     =  -9.02 kcal/mol
DOCKED: USER        vdW + Hbond + desolv Energy     = -10.21 kcal/mol
DOCKED: USER        Electrostatic Energy            =  +0.04 kcal/mol
DOCKED: USER        Moving Ligand-Fixed Receptor    = -10.17 kcal/mol
DOCKED: USER        Moving Ligand-Moving Receptor   =  +1.15 kcal/mol
DOCKED: USER    (2) Final Total Internal Energy     =  -1.67 kcal/mol
DOCKED: USER    (3) Torsional Free Energy           =  +3.28 kcal/mol
DOCKED: USER    (4) Unbound System's Energy         =  -1.67 kcal/mol
DOCKED: USER
DOCKED: USER
DOCKED: REMARK SMILES O=C(NCC(=O)N1CCCCC[C@@H]1c1ccc(Cl)cc1)c1ccc2cc(F)ccc2n1
DOCKED: REMARK SMILES IDX 5 1 6 2 4 3 3 4 2 5 1 6 21 8 22 9 31 10 23 11 30 12 24 13
DOCKED: REMARK SMILES IDX 29 14 25 15 28 16 26 17 27 18 7 19 8 20 9 21 10 22 11 23
DOCKED: REMARK SMILES IDX 13 25 12 26 14 28 15 29 20 30 16 31 19 32 17 33 18 34
DOCKED: REMARK H PARENT 3 7
DOCKED: REMARK Flexibility Score:   84.900
DOCKED: USER                              x       y       z     vdW  Elec       q    Type
DOCKED: USER                           _______ _______ _______ _____ _____    ______ ____
DOCKED: ROOT
DOCKED: ATOM      1  C   UNL     1     141.870  72.294 219.203 -0.04 -0.04    +0.242 C  
DOCKED: ATOM      2  O   UNL     1     141.314  71.429 218.454 -0.01 +0.05    -0.273 OA 
DOCKED: ENDROOT
DOCKED: BRANCH   1   3
DOCKED: ATOM      3  C   UNL     1     141.143  72.866 220.365 -0.11 -0.04    +0.216 C  
DOCKED: BRANCH   3   4
DOCKED: ATOM      4  N   UNL     1     141.072  71.928 221.468 -0.10 +0.04    -0.342 N  
DOCKED: ATOM      5  C   UNL     1     140.253  72.307 222.582 -0.21 -0.03    +0.270 C  
DOCKED: ATOM      6  O   UNL     1     139.674  73.423 222.486 -0.71 +0.04    -0.268 OA 
DOCKED: ATOM      7  H   UNL     1     141.587  71.017 221.466 +0.06 -0.01    +0.164 HD 
DOCKED: BRANCH   5   8
DOCKED: ATOM      8  C   UNL     1     140.106  71.438 223.752 -0.34 -0.02    +0.128 A  
DOCKED: ATOM      9  C   UNL     1     139.386  70.281 223.597 -0.29 -0.01    +0.035 A  
DOCKED: ATOM     10  N   UNL     1     140.658  71.768 224.923 -0.29 +0.03    -0.243 NA 
DOCKED: ATOM     11  C   UNL     1     139.227  69.435 224.680 -0.36 -0.00    +0.013 A  
DOCKED: ATOM     12  C   UNL     1     140.505  70.945 225.981 -0.54 -0.01    +0.071 A  
DOCKED: ATOM     13  C   UNL     1     139.790  69.763 225.894 -0.47 -0.00    +0.003 A  
DOCKED: ATOM     14  C   UNL     1     141.082  71.302 227.187 -0.70 -0.01    +0.032 A  
DOCKED: ATOM     15  C   UNL     1     139.640  68.930 226.983 -0.53 -0.01    +0.049 A  
DOCKED: ATOM     16  C   UNL     1     140.948  70.485 228.299 -0.54 -0.01    +0.041 A  
DOCKED: ATOM     17  C   UNL     1     140.226  69.303 228.187 -0.53 -0.02    +0.123 A  
DOCKED: ATOM     18  F   UNL     1     140.061  68.468 229.231 -0.09 +0.04    -0.207 F  
DOCKED: ENDBRANCH   5   8
DOCKED: ENDBRANCH   3   4
DOCKED: ENDBRANCH   1   3
DOCKED: BRANCH   1  19
DOCKED: ATOM     19  N   UNL     1     143.196  72.758 218.980 -0.02 +0.05    -0.334 N  
DOCKED: BRANCH  19  20
DOCKED: ATOM     20  C   UNL     1     143.442  73.660 217.870 -0.09 -0.03    +0.120 C  
DOCKED: BRANCH  20  21
DOCKED: ATOM     21  C   UNL     1     143.702  75.066 218.424 -0.22 -0.01    +0.022 C  
DOCKED: BRANCH  21  22
DOCKED: ATOM     22  C   UNL     1     143.726  75.043 219.954 -0.40 -0.00    +0.002 C  
DOCKED: BRANCH  22  23
DOCKED: ATOM     23  C   UNL     1     144.998  74.519 220.515 -0.42 -0.00    +0.003 CG0
DOCKED: ATOM     24  G   UNL     1     145.366  73.140 220.058 +0.00 +0.00    +0.000 G0 
DOCKED: ENDBRANCH  22  23
DOCKED: ENDBRANCH  21  22
DOCKED: ENDBRANCH  20  21
DOCKED: ENDBRANCH  19  20
DOCKED: BRANCH  19  25
DOCKED: ATOM     25  C   UNL     1     144.152  72.241 219.936 -0.26 -0.01    +0.115 C  
DOCKED: BRANCH  25  26
DOCKED: ATOM     26  C   UNL     1     145.356  73.144 220.055 -0.51 +0.00    +0.030 CG0
DOCKED: ATOM     27  G   UNL     1     145.006  74.526 220.518 +0.00 +0.00    +0.000 G0 
DOCKED: ENDBRANCH  25  26
DOCKED: BRANCH  25  28
DOCKED: ATOM     28  C   UNL     1     144.565  70.856 219.685 -0.24 -0.00    -0.025 A  
DOCKED: ATOM     29  C   UNL     1     145.849  70.650 219.165 -0.30 +0.00    +0.007 A  
DOCKED: ATOM     30  C   UNL     1     143.784  69.747 219.923 -0.19 +0.00    +0.007 A  
DOCKED: ATOM     31  C   UNL     1     146.285  69.361 218.911 -0.37 +0.01    +0.021 A  
DOCKED: ATOM     32  C   UNL     1     144.229  68.452 219.665 -0.33 +0.00    +0.021 A  
DOCKED: ATOM     33  C   UNL     1     145.504  68.254 219.150 -0.43 +0.00    +0.041 A  
DOCKED: ATOM     34  Cl  UNL     1     146.132  66.661 218.799 -0.61 +0.03    -0.084 Cl 
DOCKED: ENDBRANCH  25  28
DOCKED: ENDBRANCH  19  25
DOCKED: ENDBRANCH   1  19
DOCKED: TORSDOF 5
DOCKED: TER
DOCKED: ENDMDL
________________________________________________________________________________


    FINAL DOCKED STATE:
    ________________________


Run:   20 / 20
Time taken for this run:   0.031s

DOCKED: MODEL        20
DOCKED: USER    Run = 20
DOCKED: USER
DOCKED: USER    Estimated Free Energy of Binding    =  -3.37 kcal/mol  [=(1)+(2)+(3)-(4)]
DOCKED: USER
DOCKED: USER    (1) Final Intermolecular Energy     =  -6.65 kcal/mol
DOCKED: USER        vdW + Hbond + desolv Energy     =  -7.10 kcal/mol
DOCKED: USER        Electrostatic Energy            =  +0.03 kcal/mol
DOCKED: USER        Moving Ligand-Fixed Receptor    =  -7.07 kcal/mol
DOCKED: USER        Moving Ligand-Moving Receptor   =  +0.42 kcal/mol
DOCKED: USER    (2) Final Total Internal Energy     =  -2.77 kcal/mol
DOCKED: USER    (3) Torsional Free Energy           =  +3.28 kcal/mol
DOCKED: USER    (4) Unbound System's Energy         =  -2.77 kcal/mol
DOCKED: USER
DOCKED: USER
DOCKED: REMARK SMILES O=C(NCC(=O)N1CCCCC[C@@H]1c1ccc(Cl)cc1)c1ccc2cc(F)ccc2n1
DOCKED: REMARK SMILES IDX 5 1 6 2 4 3 3 4 2 5 1 6 21 8 22 9 31 10 23 11 30 12 24 13
DOCKED: REMARK SMILES IDX 29 14 25 15 28 16 26 17 27 18 7 19 8 20 9 21 10 22 11 23
DOCKED: REMARK SMILES IDX 13 25 12 26 14 28 15 29 20 30 16 31 19 32 17 33 18 34
DOCKED: REMARK H PARENT 3 7
DOCKED: REMARK Flexibility Score:   84.900
DOCKED: USER                              x       y       z     vdW  Elec       q    Type
DOCKED: USER                           _______ _______ _______ _____ _____    ______ ____
DOCKED: ROOT
DOCKED: ATOM      1  C   UNL     1     138.902  79.469 220.744 -0.05 -0.06    +0.242 C  
DOCKED: ATOM      2  O   UNL     1     137.686  79.295 220.413 -0.02 +0.05    -0.273 OA 
DOCKED: ENDROOT
DOCKED: BRANCH   1   3
DOCKED: ATOM      3  C   UNL     1     139.996  79.153 219.790 -0.06 -0.07    +0.216 C  
DOCKED: BRANCH   3   4
DOCKED: ATOM      4  N   UNL     1     140.427  77.774 219.906 -0.03 +0.13    -0.342 N  
DOCKED: ATOM      5  C   UNL     1     141.830  77.524 219.754 -0.18 -0.15    +0.270 C  
DOCKED: ATOM      6  O   UNL     1     142.549  78.537 219.535 -0.05 +0.22    -0.268 OA 
DOCKED: ATOM      7  H   UNL     1     139.759  76.990 220.091 +0.05 -0.05    +0.164 HD 
DOCKED: BRANCH   5   8
DOCKED: ATOM      8  C   UNL     1     142.379  76.170 219.851 -0.26 -0.07    +0.128 A  
DOCKED: ATOM      9  C   UNL     1     143.729  76.017 219.662 -0.39 -0.02    +0.035 A  
DOCKED: ATOM     10  N   UNL     1     141.587  75.127 220.115 -0.12 +0.08    -0.243 NA 
DOCKED: ATOM     11  C   UNL     1     144.284  74.753 219.747 -0.33 -0.01    +0.013 A  
DOCKED: ATOM     12  C   UNL     1     142.125  73.893 220.198 -0.21 -0.02    +0.071 A  
DOCKED: ATOM     13  C   UNL     1     143.479  73.668 220.017 -0.32 -0.00    +0.003 A  
DOCKED: ATOM     14  C   UNL     1     141.290  72.823 220.472 -0.18 -0.01    +0.032 A  
DOCKED: ATOM     15  C   UNL     1     144.017  72.402 220.105 -0.30 -0.01    +0.049 A  
DOCKED: ATOM     16  C   UNL     1     141.803  71.539 220.566 -0.17 -0.01    +0.041 A  
DOCKED: ATOM     17  C   UNL     1     143.166  71.338 220.380 -0.19 -0.01    +0.123 A  
DOCKED: ATOM     18  F   UNL     1     143.722  70.115 220.459 -0.02 +0.00    -0.207 F  
DOCKED: ENDBRANCH   5   8
DOCKED: ENDBRANCH   3   4
DOCKED: ENDBRANCH   1   3
DOCKED: BRANCH   1  19
DOCKED: ATOM     19  N   UNL     1     139.283  79.966 222.021 -0.06 +0.07    -0.334 N  
DOCKED: BRANCH  19  20
DOCKED: ATOM     20  C   UNL     1     139.243  81.398 222.253 -0.20 -0.02    +0.120 C  
DOCKED: BRANCH  20  21
DOCKED: ATOM     21  C   UNL     1     140.635  81.982 221.983 -0.35 -0.00    +0.022 C  
DOCKED: BRANCH  21  22
DOCKED: ATOM     22  C   UNL     1     141.703  81.195 222.747 -0.54 -0.00    +0.002 C  
DOCKED: BRANCH  22  23
DOCKED: ATOM     23  C   UNL     1     141.904  79.818 222.229 -0.53 -0.00    +0.003 CG0
DOCKED: ATOM     24  G   UNL     1     141.173  78.748 222.983 +0.00 +0.00    +0.000 G0 
DOCKED: ENDBRANCH  22  23
DOCKED: ENDBRANCH  21  22
DOCKED: ENDBRANCH  20  21
DOCKED: ENDBRANCH  19  20
DOCKED: BRANCH  19  25
DOCKED: ATOM     25  C   UNL     1     139.672  78.924 222.948 -0.31 -0.02    +0.115 C  
DOCKED: BRANCH  25  26
DOCKED: ATOM     26  C   UNL     1     141.171  78.751 222.984 -0.52 -0.01    +0.030 CG0
DOCKED: ATOM     27  G   UNL     1     141.901  79.821 222.231 +0.00 +0.00    +0.000 G0 
DOCKED: ENDBRANCH  25  26
DOCKED: BRANCH  25  28
DOCKED: ATOM     28  C   UNL     1     139.006  77.637 222.721 -0.30 +0.00    -0.025 A  
DOCKED: ATOM     29  C   UNL     1     139.817  76.532 222.437 -0.34 -0.00    +0.007 A  
DOCKED: ATOM     30  C   UNL     1     137.644  77.438 222.767 -0.24 -0.00    +0.007 A  
DOCKED: ATOM     31  C   UNL     1     139.236  75.296 222.216 -0.29 -0.00    +0.021 A  
DOCKED: ATOM     32  C   UNL     1     137.065  76.190 222.542 -0.25 -0.00    +0.021 A  
DOCKED: ATOM     33  C   UNL     1     137.876  75.097 222.262 -0.17 -0.01    +0.041 A  
DOCKED: ATOM     34  Cl  UNL     1     137.224  73.502 221.969 -0.18 +0.02    -0.084 Cl 
DOCKED: ENDBRANCH  25  28
DOCKED: ENDBRANCH  19  25
DOCKED: ENDBRANCH   1  19
DOCKED: TORSDOF 5
DOCKED: TER
DOCKED: ENDMDL
________________________________________________________________________________


    CLUSTERING HISTOGRAM
    ____________________


________________________________________________________________________________
     |           |     |           |     |
Clus | Lowest    | Run | Mean      | Num | Histogram
-ter | Binding   |     | Binding   | in  |
Rank | Energy    |     | Energy    | Clus|    5    10   15   20   25   30   35
_____|___________|_____|___________|_____|____:____|____:____|____:____|____:___
   1 |     -6.36 |  17 |     -5.96 |   4 |####
   2 |     -5.74 |  19 |     -5.74 |   1 |#
   3 |     -5.66 |   4 |     -5.66 |   1 |#
   4 |     -5.41 |   9 |     -5.20 |   3 |###
   5 |     -5.39 |   5 |     -5.39 |   1 |#
   6 |     -5.25 |  14 |     -4.93 |   3 |###
   7 |     -5.25 |  11 |     -4.90 |   3 |###
   8 |     -5.02 |  16 |     -5.02 |   1 |#
   9 |     -4.93 |   1 |     -4.93 |   1 |#
  10 |     -4.82 |  15 |     -4.09 |   2 |##
_____|___________|_____|___________|_____|______________________________________


    RMSD TABLE
    __________


_______________________________________________________________________
     |      |      |           |         |                 |
Rank | Sub- | Run  | Binding   | Cluster | Reference       | Grep
     | Rank |      | Energy    | RMSD    | RMSD            | Pattern
_____|______|______|___________|_________|_________________|___________
   1      1     17       -6.36      0.00    271.38           RANKING
   1      2      2       -6.03      0.93    271.47           RANKING
   1      3      7       -5.99      1.95    271.13           RANKING
   1      4     12       -5.46      1.90    271.20           RANKING
   2      1     19       -5.74      0.00    270.89           RANKING
   3      1      4       -5.66      0.00    270.79           RANKING
   4      1      9       -5.41      0.00    270.93           RANKING
   4      2      6       -5.18      1.82    270.77           RANKING
   4      3      8       -5.01      1.87    270.78           RANKING
   5      1      5       -5.39      0.00    270.38           RANKING
   6      1     14       -5.25      0.00    271.22           RANKING
   6      2     13       -4.89      1.27    270.98           RANKING
   6      3     18       -4.65      1.49    270.81           RANKING
   7      1     11       -5.25      0.00    270.85           RANKING
   7      2      3       -5.17      0.92    270.76           RANKING
   7      3     10       -4.29      1.15    270.77           RANKING
   8      1     16       -5.02      0.00    271.01           RANKING
   9      1      1       -4.93      0.00    270.85           RANKING
  10      1     15       -4.82      0.00    271.32           RANKING
  10      2     20       -3.37      1.76    270.88           RANKING

Run time 0.588 sec
Idle time 0.000 sec
