AutoDock-GPU version: v1.6

**********************************************************
**    AutoDock-GPU AUTODOCKTOOLS-COMPATIBLE DLG FILE    **
**********************************************************


    DOCKING PARAMETERS
    ________________________


Ligand file:                               /home/a/REINVENT4/ReinventStudies/pleaseWork/justmol2mol_4_Compounds_ontop/graph-dock-hn62wh/graph-DockGPU/node-autodockgpu/inputs/HWODJDPLAOOEAV-NRTUGAKQNA-N.pdbqt
Grid fld file:                             /home/a/REINVENT4/ReinventStudies/mols/Rad51/maps/rad51_receptor.maps.fld

Random seed:                               42
Number of runs:                            20
Number of energy evaluations:              3119281
Number of generations:                     42000
Size of population:                        150
Rate of crossover:                         80.000000%
Tournament selection probability limit:    60.000000%
Rate of mutation:                          2.000000%
Maximal allowed delta movement:            +/- 6.000000A
Maximal allowed delta angle:               +/- 90.000000

Rate of local search:                      100.000000%
Maximal number of local search iterations: 300
Rho lower bound:                           0.010000
Spread of local search delta movement:     2.000000A
Spread of local search delta angle:        74.999999
Limit of consecutive successes/failures:   4

Handle symmetry during clustering:         YES
RMSD tolerance:                            2.000000A

Program call in command line was:          /home/a/REINVENT4/ReinventStudies/adgpu-v1.6_linux_x64_cuda12_128wi --filelist batch.txt --heuristics 1 --nrun 20 --psize 150 --lsit 300 --seed 42 --heurmax 12000000 


    GRID PARAMETERS
    ________________________


Receptor name:                             rad51_receptor
Number of grid points (x, y, z):           53, 53, 53
Grid center (x, y, z):                     139.950000, 75.640000, 221.970000A
Grid size (x, y, z):                       19.500000, 19.500000, 19.500000A
Grid spacing:                              0.375000A


    LIGAND PARAMETERS
    ________________________


Ligand name:                               /home/a/REINVENT4/ReinventStudies/pleaseWork/justmol2mol_4_Compounds_ontop/graph-dock-hn62wh/graph-DockGPU/node-autodockgpu/inputs/HWODJDPLAOOEAV-NRTUGAKQNA-N
Number of atoms:                           34
Number of rotatable bonds:                 11
Number of atom types:                      10


    DUMMY DATA (only for ADT-compatibility)
    ________________________


DPF> outlev 1
DPF> ga_run 20
DPF> fld /home/a/REINVENT4/ReinventStudies/mols/Rad51/maps/rad51_receptor.maps.fld
DPF> move /home/a/REINVENT4/ReinventStudies/pleaseWork/justmol2mol_4_Compounds_ontop/graph-dock-hn62wh/graph-DockGPU/node-autodockgpu/inputs/HWODJDPLAOOEAV-NRTUGAKQNA-N.pdbqt


    COUNTER STATES
    ________________________


Number of energy evaluations performed:    916719
Number of generations used:                65


    INPUT LIGAND PDBQT FILE:
    ________________________


INPUT-LIGAND-PDBQT: REMARK SMILES O=C(NCC(=O)N1CCCCC[C@H]1c1ccc(Cl)cc1)c1ccc2cc(F)ccc2n1
INPUT-LIGAND-PDBQT: REMARK SMILES IDX 5 1 6 2 4 3 3 4 2 5 1 6 21 8 22 9 31 10 23 11 30 12 24 13
INPUT-LIGAND-PDBQT: REMARK SMILES IDX 29 14 25 15 28 16 26 17 27 18 7 19 8 20 9 21 10 22 11 23
INPUT-LIGAND-PDBQT: REMARK SMILES IDX 13 25 12 26 14 28 15 29 20 30 16 31 19 32 17 33 18 34
INPUT-LIGAND-PDBQT: REMARK H PARENT 3 7
INPUT-LIGAND-PDBQT: REMARK Flexibility Score:   84.900
INPUT-LIGAND-PDBQT: ROOT
INPUT-LIGAND-PDBQT: ATOM      1  C   UNL     1      -1.774  -0.705  -0.124  1.00  0.00     0.242 C 
INPUT-LIGAND-PDBQT: ATOM      2  O   UNL     1      -2.991  -1.243   0.018  1.00  0.00    -0.273 OA
INPUT-LIGAND-PDBQT: ENDROOT
INPUT-LIGAND-PDBQT: BRANCH   1   3
INPUT-LIGAND-PDBQT: ATOM      3  C   UNL     1      -0.824  -1.692  -0.570  1.00  0.00     0.216 C 
INPUT-LIGAND-PDBQT: BRANCH   3   4
INPUT-LIGAND-PDBQT: ATOM      4  N   UNL     1       0.550  -1.480  -0.716  1.00  0.00    -0.342 N 
INPUT-LIGAND-PDBQT: ATOM      5  C   UNL     1       1.502  -1.201   0.302  1.00  0.00     0.270 C 
INPUT-LIGAND-PDBQT: ATOM      6  O   UNL     1       1.061  -1.134   1.484  1.00  0.00    -0.268 OA
INPUT-LIGAND-PDBQT: ATOM      7  H   UNL     1       0.967  -1.526  -1.700  1.00  0.00     0.164 HD
INPUT-LIGAND-PDBQT: BRANCH   5   8
INPUT-LIGAND-PDBQT: ATOM      8  C   UNL     1       2.918  -1.003  -0.019  1.00  0.00     0.128 A 
INPUT-LIGAND-PDBQT: ATOM      9  C   UNL     1       3.773  -0.743   1.031  1.00  0.00     0.035 A 
INPUT-LIGAND-PDBQT: ATOM     10  N   UNL     1       3.355  -1.079  -1.308  1.00  0.00    -0.243 NA
INPUT-LIGAND-PDBQT: ATOM     11  C   UNL     1       5.116  -0.545   0.836  1.00  0.00     0.013 A 
INPUT-LIGAND-PDBQT: ATOM     12  C   UNL     1       4.670  -0.885  -1.503  1.00  0.00     0.071 A 
INPUT-LIGAND-PDBQT: ATOM     13  C   UNL     1       5.563  -0.622  -0.485  1.00  0.00     0.003 A 
INPUT-LIGAND-PDBQT: ATOM     14  C   UNL     1       5.140  -0.957  -2.799  1.00  0.00     0.032 A 
INPUT-LIGAND-PDBQT: ATOM     15  C   UNL     1       6.904  -0.432  -0.743  1.00  0.00     0.049 A 
INPUT-LIGAND-PDBQT: ATOM     16  C   UNL     1       6.492  -0.769  -3.091  1.00  0.00     0.041 A 
INPUT-LIGAND-PDBQT: ATOM     17  C   UNL     1       7.369  -0.506  -2.051  1.00  0.00     0.123 A 
INPUT-LIGAND-PDBQT: ATOM     18  F   UNL     1       8.690  -0.323  -2.337  1.00  0.00    -0.207 F 
INPUT-LIGAND-PDBQT: ENDBRANCH   5   8
INPUT-LIGAND-PDBQT: ENDBRANCH   3   4
INPUT-LIGAND-PDBQT: ENDBRANCH   1   3
INPUT-LIGAND-PDBQT: BRANCH   1  19
INPUT-LIGAND-PDBQT: ATOM     19  N   UNL     1      -1.745   0.644   0.185  1.00  0.00    -0.334 N 
INPUT-LIGAND-PDBQT: BRANCH  19  20
INPUT-LIGAND-PDBQT: ATOM     20  C   UNL     1      -0.617   1.521   0.048  1.00  0.00     0.120 C 
INPUT-LIGAND-PDBQT: BRANCH  20  21
INPUT-LIGAND-PDBQT: ATOM     21  C   UNL     1      -0.814   2.467  -1.142  1.00  0.00     0.022 C 
INPUT-LIGAND-PDBQT: BRANCH  21  22
INPUT-LIGAND-PDBQT: ATOM     22  C   UNL     1      -2.259   2.892  -1.289  1.00  0.00     0.002 C 
INPUT-LIGAND-PDBQT: BRANCH  22  23
INPUT-LIGAND-PDBQT: ATOM     23  C   UNL     1      -3.147   1.747  -1.668  1.00  0.00     0.003 CG0
INPUT-LIGAND-PDBQT: ATOM     24  G   UNL     1      -3.961   1.257  -0.480  1.00  0.00     0.000 G0
INPUT-LIGAND-PDBQT: ENDBRANCH  22  23
INPUT-LIGAND-PDBQT: ENDBRANCH  21  22
INPUT-LIGAND-PDBQT: ENDBRANCH  20  21
INPUT-LIGAND-PDBQT: ENDBRANCH  19  20
INPUT-LIGAND-PDBQT: BRANCH  19  25
INPUT-LIGAND-PDBQT: ATOM     25  C   UNL     1      -3.052   1.137   0.709  1.00  0.00     0.115 C 
INPUT-LIGAND-PDBQT: BRANCH  25  26
INPUT-LIGAND-PDBQT: ATOM     26  C   UNL     1      -3.961   1.257  -0.480  1.00  0.00     0.030 CG0
INPUT-LIGAND-PDBQT: ATOM     27  G   UNL     1      -3.147   1.747  -1.668  1.00  0.00     0.000 G0
INPUT-LIGAND-PDBQT: ENDBRANCH  25  26
INPUT-LIGAND-PDBQT: BRANCH  25  28
INPUT-LIGAND-PDBQT: ATOM     28  C   UNL     1      -3.570   0.173   1.718  1.00  0.00    -0.025 A 
INPUT-LIGAND-PDBQT: ATOM     29  C   UNL     1      -4.884  -0.246   1.755  1.00  0.00     0.007 A 
INPUT-LIGAND-PDBQT: ATOM     30  C   UNL     1      -2.637  -0.298   2.650  1.00  0.00     0.007 A 
INPUT-LIGAND-PDBQT: ATOM     31  C   UNL     1      -5.268  -1.153   2.742  1.00  0.00     0.021 A 
INPUT-LIGAND-PDBQT: ATOM     32  C   UNL     1      -3.082  -1.201   3.609  1.00  0.00     0.021 A 
INPUT-LIGAND-PDBQT: ATOM     33  C   UNL     1      -4.385  -1.633   3.666  1.00  0.00     0.041 A 
INPUT-LIGAND-PDBQT: ATOM     34  Cl  UNL     1      -4.894  -2.775   4.899  1.00  0.00    -0.084 Cl
INPUT-LIGAND-PDBQT: ENDBRANCH  25  28
INPUT-LIGAND-PDBQT: ENDBRANCH  19  25
INPUT-LIGAND-PDBQT: ENDBRANCH   1  19
INPUT-LIGAND-PDBQT: TORSDOF 5


    FINAL DOCKED STATE:
    ________________________


Run:   1 / 20
Time taken for this run:   0.047s

DOCKED: MODEL        1
DOCKED: USER    Run = 1
DOCKED: USER
DOCKED: USER    Estimated Free Energy of Binding    =  -3.59 kcal/mol  [=(1)+(2)+(3)-(4)]
DOCKED: USER
DOCKED: USER    (1) Final Intermolecular Energy     =  -6.87 kcal/mol
DOCKED: USER        vdW + Hbond + desolv Energy     =  -7.30 kcal/mol
DOCKED: USER        Electrostatic Energy            =  -0.10 kcal/mol
DOCKED: USER        Moving Ligand-Fixed Receptor    =  -7.40 kcal/mol
DOCKED: USER        Moving Ligand-Moving Receptor   =  +0.53 kcal/mol
DOCKED: USER    (2) Final Total Internal Energy     =  -2.53 kcal/mol
DOCKED: USER    (3) Torsional Free Energy           =  +3.28 kcal/mol
DOCKED: USER    (4) Unbound System's Energy         =  -2.53 kcal/mol
DOCKED: USER
DOCKED: USER
DOCKED: REMARK SMILES O=C(NCC(=O)N1CCCCC[C@H]1c1ccc(Cl)cc1)c1ccc2cc(F)ccc2n1
DOCKED: REMARK SMILES IDX 5 1 6 2 4 3 3 4 2 5 1 6 21 8 22 9 31 10 23 11 30 12 24 13
DOCKED: REMARK SMILES IDX 29 14 25 15 28 16 26 17 27 18 7 19 8 20 9 21 10 22 11 23
DOCKED: REMARK SMILES IDX 13 25 12 26 14 28 15 29 20 30 16 31 19 32 17 33 18 34
DOCKED: REMARK H PARENT 3 7
DOCKED: REMARK Flexibility Score:   84.900
DOCKED: USER                              x       y       z     vdW  Elec       q    Type
DOCKED: USER                           _______ _______ _______ _____ _____    ______ ____
DOCKED: ROOT
DOCKED: ATOM      1  C   UNL     1     141.387  79.258 220.731 -0.21 -0.11    +0.242 C  
DOCKED: ATOM      2  O   UNL     1     140.269  79.900 220.375 -0.07 +0.09    -0.273 OA 
DOCKED: ENDROOT
DOCKED: BRANCH   1   3
DOCKED: ATOM      3  C   UNL     1     142.096  78.778 219.572 -0.07 -0.15    +0.216 C  
DOCKED: BRANCH   3   4
DOCKED: ATOM      4  N   UNL     1     142.668  77.509 219.445 -0.13 +0.25    -0.342 N  
DOCKED: ATOM      5  C   UNL     1     142.442  76.550 218.421 -0.17 -0.14    +0.270 C  
DOCKED: ATOM      6  O   UNL     1     141.626  76.875 217.513 -0.06 +0.13    -0.268 OA 
DOCKED: ATOM      7  H   UNL     1     143.364  77.191 220.192 -0.40 -0.17    +0.164 HD 
DOCKED: BRANCH   5   8
DOCKED: ATOM      8  C   UNL     1     143.127  75.254 218.432 -0.19 -0.06    +0.128 A  
DOCKED: ATOM      9  C   UNL     1     143.961  74.972 217.371 -0.15 -0.02    +0.035 A  
DOCKED: ATOM     10  N   UNL     1     142.937  74.378 219.459 -0.13 +0.08    -0.243 NA 
DOCKED: ATOM     11  C   UNL     1     144.648  73.788 217.289 -0.16 -0.00    +0.013 A  
DOCKED: ATOM     12  C   UNL     1     143.609  73.217 219.381 -0.21 -0.01    +0.071 A  
DOCKED: ATOM     13  C   UNL     1     144.453  72.890 218.341 -0.19 +0.00    +0.003 A  
DOCKED: ATOM     14  C   UNL     1     143.436  72.311 220.408 -0.28 -0.00    +0.032 A  
DOCKED: ATOM     15  C   UNL     1     145.119  71.683 218.314 -0.19 +0.02    +0.049 A  
DOCKED: ATOM     16  C   UNL     1     144.096  71.081 220.408 -0.15 -0.00    +0.041 A  
DOCKED: ATOM     17  C   UNL     1     144.939  70.776 219.352 -0.22 +0.03    +0.123 A  
DOCKED: ATOM     18  F   UNL     1     145.584  69.574 219.353 -0.09 -0.09    -0.207 F  
DOCKED: ENDBRANCH   5   8
DOCKED: ENDBRANCH   3   4
DOCKED: ENDBRANCH   1   3
DOCKED: BRANCH   1  19
DOCKED: ATOM     19  N   UNL     1     141.574  79.225 222.102 -0.19 +0.14    -0.334 N  
DOCKED: BRANCH  19  20
DOCKED: ATOM     20  C   UNL     1     142.640  79.855 222.828 -0.54 -0.05    +0.120 C  
DOCKED: BRANCH  20  21
DOCKED: ATOM     21  C   UNL     1     142.138  81.125 223.524 -0.61 -0.00    +0.022 C  
DOCKED: BRANCH  21  22
DOCKED: ATOM     22  C   UNL     1     140.698  81.429 223.170 -0.30 -0.00    +0.002 C  
DOCKED: BRANCH  22  23
DOCKED: ATOM     23  C   UNL     1     139.742  80.503 223.858 -0.38 -0.00    +0.003 CG0
DOCKED: ATOM     24  G   UNL     1     139.345  79.344 222.957 +0.00 +0.00    +0.000 G0 
DOCKED: ENDBRANCH  22  23
DOCKED: ENDBRANCH  21  22
DOCKED: ENDBRANCH  20  21
DOCKED: ENDBRANCH  19  20
DOCKED: BRANCH  19  25
DOCKED: ATOM     25  C   UNL     1     140.522  78.431 222.802 -0.37 -0.03    +0.115 C  
DOCKED: BRANCH  25  26
DOCKED: ATOM     26  C   UNL     1     139.341  79.345 222.957 -0.34 -0.01    +0.030 CG0
DOCKED: ATOM     27  G   UNL     1     139.739  80.508 223.854 +0.00 +0.00    +0.000 G0 
DOCKED: ENDBRANCH  25  26
DOCKED: BRANCH  25  28
DOCKED: ATOM     28  C   UNL     1     140.198  77.226 221.990 -0.35 +0.01    -0.025 A  
DOCKED: ATOM     29  C   UNL     1     139.122  77.165 221.128 -0.17 -0.00    +0.007 A  
DOCKED: ATOM     30  C   UNL     1     141.057  76.132 222.149 -0.33 -0.00    +0.007 A  
DOCKED: ATOM     31  C   UNL     1     138.906  75.987 220.413 -0.10 -0.00    +0.021 A  
DOCKED: ATOM     32  C   UNL     1     140.788  74.987 221.408 -0.32 -0.00    +0.021 A  
DOCKED: ATOM     33  C   UNL     1     139.724  74.902 220.543 -0.15 -0.01    +0.041 A  
DOCKED: ATOM     34  Cl  UNL     1     139.429  73.431 219.631 -0.07 +0.02    -0.084 Cl 
DOCKED: ENDBRANCH  25  28
DOCKED: ENDBRANCH  19  25
DOCKED: ENDBRANCH   1  19
DOCKED: TORSDOF 5
DOCKED: TER
DOCKED: ENDMDL
________________________________________________________________________________


    FINAL DOCKED STATE:
    ________________________


Run:   2 / 20
Time taken for this run:   0.047s

DOCKED: MODEL        2
DOCKED: USER    Run = 2
DOCKED: USER
DOCKED: USER    Estimated Free Energy of Binding    =  -6.08 kcal/mol  [=(1)+(2)+(3)-(4)]
DOCKED: USER
DOCKED: USER    (1) Final Intermolecular Energy     =  -9.36 kcal/mol
DOCKED: USER        vdW + Hbond + desolv Energy     =  -9.69 kcal/mol
DOCKED: USER        Electrostatic Energy            =  -0.07 kcal/mol
DOCKED: USER        Moving Ligand-Fixed Receptor    =  -9.76 kcal/mol
DOCKED: USER        Moving Ligand-Moving Receptor   =  +0.40 kcal/mol
DOCKED: USER    (2) Final Total Internal Energy     =  -1.31 kcal/mol
DOCKED: USER    (3) Torsional Free Energy           =  +3.28 kcal/mol
DOCKED: USER    (4) Unbound System's Energy         =  -1.31 kcal/mol
DOCKED: USER
DOCKED: USER
DOCKED: REMARK SMILES O=C(NCC(=O)N1CCCCC[C@H]1c1ccc(Cl)cc1)c1ccc2cc(F)ccc2n1
DOCKED: REMARK SMILES IDX 5 1 6 2 4 3 3 4 2 5 1 6 21 8 22 9 31 10 23 11 30 12 24 13
DOCKED: REMARK SMILES IDX 29 14 25 15 28 16 26 17 27 18 7 19 8 20 9 21 10 22 11 23
DOCKED: REMARK SMILES IDX 13 25 12 26 14 28 15 29 20 30 16 31 19 32 17 33 18 34
DOCKED: REMARK H PARENT 3 7
DOCKED: REMARK Flexibility Score:   84.900
DOCKED: USER                              x       y       z     vdW  Elec       q    Type
DOCKED: USER                           _______ _______ _______ _____ _____    ______ ____
DOCKED: ROOT
DOCKED: ATOM      1  C   UNL     1     138.716  74.525 220.899 -0.10 -0.05    +0.242 C  
DOCKED: ATOM      2  O   UNL     1     137.716  75.414 220.937 -0.05 +0.06    -0.273 OA 
DOCKED: ENDROOT
DOCKED: BRANCH   1   3
DOCKED: ATOM      3  C   UNL     1     138.213  73.179 221.010 -0.08 -0.05    +0.216 C  
DOCKED: BRANCH   3   4
DOCKED: ATOM      4  N   UNL     1     138.487  72.300 222.061 -0.07 +0.09    -0.342 N  
DOCKED: ATOM      5  C   UNL     1     139.629  72.282 222.908 -0.13 -0.06    +0.270 C  
DOCKED: ATOM      6  O   UNL     1     140.507  73.163 222.689 -0.66 -0.01    -0.268 OA 
DOCKED: ATOM      7  H   UNL     1     137.771  71.536 222.281 +0.04 -0.04    +0.164 HD 
DOCKED: BRANCH   5   8
DOCKED: ATOM      8  C   UNL     1     139.766  71.286 223.974 -0.34 -0.03    +0.128 A  
DOCKED: ATOM      9  C   UNL     1     139.323  70.008 223.705 -0.28 -0.01    +0.035 A  
DOCKED: ATOM     10  N   UNL     1     140.313  71.626 225.175 -0.30 +0.04    -0.243 NA 
DOCKED: ATOM     11  C   UNL     1     139.408  69.004 224.634 -0.35 -0.00    +0.013 A  
DOCKED: ATOM     12  C   UNL     1     140.398  70.644 226.089 -0.52 -0.01    +0.071 A  
DOCKED: ATOM     13  C   UNL     1     139.969  69.353 225.865 -0.48 -0.00    +0.003 A  
DOCKED: ATOM     14  C   UNL     1     140.950  70.960 227.314 -0.66 -0.01    +0.032 A  
DOCKED: ATOM     15  C   UNL     1     140.081  68.384 226.840 -0.60 -0.01    +0.049 A  
DOCKED: ATOM     16  C   UNL     1     141.077  70.001 228.321 -0.53 -0.01    +0.041 A  
DOCKED: ATOM     17  C   UNL     1     140.638  68.711 228.072 -0.55 -0.03    +0.123 A  
DOCKED: ATOM     18  F   UNL     1     140.763  67.774 229.055 -0.16 +0.06    -0.207 F  
DOCKED: ENDBRANCH   5   8
DOCKED: ENDBRANCH   3   4
DOCKED: ENDBRANCH   1   3
DOCKED: BRANCH   1  19
DOCKED: ATOM     19  N   UNL     1     139.958  75.120 220.760 -0.07 +0.08    -0.334 N  
DOCKED: BRANCH  19  20
DOCKED: ATOM     20  C   UNL     1     140.510  76.137 221.610 -0.31 -0.03    +0.120 C  
DOCKED: BRANCH  20  21
DOCKED: ATOM     21  C   UNL     1     139.959  77.515 221.227 -0.23 -0.01    +0.022 C  
DOCKED: BRANCH  21  22
DOCKED: ATOM     22  C   UNL     1     140.030  77.755 219.735 -0.11 -0.00    +0.002 C  
DOCKED: BRANCH  22  23
DOCKED: ATOM     23  C   UNL     1     141.131  76.969 219.091 -0.16 -0.00    +0.003 CG0
DOCKED: ATOM     24  G   UNL     1     140.618  75.653 218.525 +0.00 +0.00    +0.000 G0 
DOCKED: ENDBRANCH  22  23
DOCKED: ENDBRANCH  21  22
DOCKED: ENDBRANCH  20  21
DOCKED: ENDBRANCH  19  20
DOCKED: BRANCH  19  25
DOCKED: ATOM     25  C   UNL     1     140.713  74.597 219.585 -0.09 -0.03    +0.115 C  
DOCKED: BRANCH  25  26
DOCKED: ATOM     26  C   UNL     1     140.616  75.652 218.521 -0.06 -0.01    +0.030 CG0
DOCKED: ATOM     27  G   UNL     1     141.129  76.966 219.091 +0.00 +0.00    +0.000 G0 
DOCKED: ENDBRANCH  25  26
DOCKED: BRANCH  25  28
DOCKED: ATOM     28  C   UNL     1     142.121  74.330 219.987 -0.22 +0.01    -0.025 A  
DOCKED: ATOM     29  C   UNL     1     143.121  75.278 219.903 -0.37 -0.00    +0.007 A  
DOCKED: ATOM     30  C   UNL     1     142.388  73.041 220.464 -0.25 -0.00    +0.007 A  
DOCKED: ATOM     31  C   UNL     1     144.409  74.927 220.306 -0.38 -0.01    +0.021 A  
DOCKED: ATOM     32  C   UNL     1     143.693  72.754 220.851 -0.31 -0.00    +0.021 A  
DOCKED: ATOM     33  C   UNL     1     144.705  73.680 220.777 -0.50 -0.01    +0.041 A  
DOCKED: ATOM     34  Cl  UNL     1     146.335  73.263 221.278 -0.82 +0.01    -0.084 Cl 
DOCKED: ENDBRANCH  25  28
DOCKED: ENDBRANCH  19  25
DOCKED: ENDBRANCH   1  19
DOCKED: TORSDOF 5
DOCKED: TER
DOCKED: ENDMDL
________________________________________________________________________________


    FINAL DOCKED STATE:
    ________________________


Run:   3 / 20
Time taken for this run:   0.047s

DOCKED: MODEL        3
DOCKED: USER    Run = 3
DOCKED: USER
DOCKED: USER    Estimated Free Energy of Binding    =  -6.29 kcal/mol  [=(1)+(2)+(3)-(4)]
DOCKED: USER
DOCKED: USER    (1) Final Intermolecular Energy     =  -9.57 kcal/mol
DOCKED: USER        vdW + Hbond + desolv Energy     =  -9.99 kcal/mol
DOCKED: USER        Electrostatic Energy            =  -0.04 kcal/mol
DOCKED: USER        Moving Ligand-Fixed Receptor    = -10.03 kcal/mol
DOCKED: USER        Moving Ligand-Moving Receptor   =  +0.47 kcal/mol
DOCKED: USER    (2) Final Total Internal Energy     =  -1.65 kcal/mol
DOCKED: USER    (3) Torsional Free Energy           =  +3.28 kcal/mol
DOCKED: USER    (4) Unbound System's Energy         =  -1.65 kcal/mol
DOCKED: USER
DOCKED: USER
DOCKED: REMARK SMILES O=C(NCC(=O)N1CCCCC[C@H]1c1ccc(Cl)cc1)c1ccc2cc(F)ccc2n1
DOCKED: REMARK SMILES IDX 5 1 6 2 4 3 3 4 2 5 1 6 21 8 22 9 31 10 23 11 30 12 24 13
DOCKED: REMARK SMILES IDX 29 14 25 15 28 16 26 17 27 18 7 19 8 20 9 21 10 22 11 23
DOCKED: REMARK SMILES IDX 13 25 12 26 14 28 15 29 20 30 16 31 19 32 17 33 18 34
DOCKED: REMARK H PARENT 3 7
DOCKED: REMARK Flexibility Score:   84.900
DOCKED: USER                              x       y       z     vdW  Elec       q    Type
DOCKED: USER                           _______ _______ _______ _____ _____    ______ ____
DOCKED: ROOT
DOCKED: ATOM      1  C   UNL     1     140.456  74.924 221.147 -0.20 -0.05    +0.242 C  
DOCKED: ATOM      2  O   UNL     1     141.681  74.491 221.469 -0.28 +0.05    -0.273 OA 
DOCKED: ENDROOT
DOCKED: BRANCH   1   3
DOCKED: ATOM      3  C   UNL     1     139.456  73.950 221.503 -0.18 -0.04    +0.216 C  
DOCKED: BRANCH   3   4
DOCKED: ATOM      4  N   UNL     1     139.556  73.041 222.560 -0.10 +0.07    -0.342 N  
DOCKED: ATOM      5  C   UNL     1     139.558  71.622 222.492 -0.19 -0.05    +0.270 C  
DOCKED: ATOM      6  O   UNL     1     139.458  71.112 221.340 -0.08 +0.05    -0.268 OA 
DOCKED: ATOM      7  H   UNL     1     139.641  73.429 223.553 -0.40 -0.05    +0.164 HD 
DOCKED: BRANCH   5   8
DOCKED: ATOM      8  C   UNL     1     139.672  70.806 223.704 -0.29 -0.02    +0.128 A  
DOCKED: ATOM      9  C   UNL     1     139.174  69.521 223.648 -0.26 -0.01    +0.035 A  
DOCKED: ATOM     10  N   UNL     1     140.250  71.311 224.830 -0.31 +0.04    -0.243 NA 
DOCKED: ATOM     11  C   UNL     1     139.234  68.677 224.728 -0.38 -0.00    +0.013 A  
DOCKED: ATOM     12  C   UNL     1     140.310  70.487 225.889 -0.49 -0.01    +0.071 A  
DOCKED: ATOM     13  C   UNL     1     139.826  69.195 225.881 -0.48 -0.00    +0.003 A  
DOCKED: ATOM     14  C   UNL     1     140.892  70.973 227.043 -0.65 -0.01    +0.032 A  
DOCKED: ATOM     15  C   UNL     1     139.915  68.393 226.999 -0.59 -0.01    +0.049 A  
DOCKED: ATOM     16  C   UNL     1     140.996  70.184 228.190 -0.55 -0.01    +0.041 A  
DOCKED: ATOM     17  C   UNL     1     140.502  68.890 228.157 -0.54 -0.03    +0.123 A  
DOCKED: ATOM     18  F   UNL     1     140.604  68.120 229.278 -0.13 +0.05    -0.207 F  
DOCKED: ENDBRANCH   5   8
DOCKED: ENDBRANCH   3   4
DOCKED: ENDBRANCH   1   3
DOCKED: BRANCH   1  19
DOCKED: ATOM     19  N   UNL     1     140.468  76.182 220.569 -0.07 +0.10    -0.334 N  
DOCKED: BRANCH  19  20
DOCKED: ATOM     20  C   UNL     1     139.691  76.602 219.437 -0.05 -0.03    +0.120 C  
DOCKED: BRANCH  20  21
DOCKED: ATOM     21  C   UNL     1     140.604  76.903 218.243 -0.07 -0.01    +0.022 C  
DOCKED: BRANCH  21  22
DOCKED: ATOM     22  C   UNL     1     141.905  76.136 218.322 -0.16 -0.00    +0.002 C  
DOCKED: BRANCH  22  23
DOCKED: ATOM     23  C   UNL     1     142.860  76.745 219.303 -0.37 -0.00    +0.003 CG0
DOCKED: ATOM     24  G   UNL     1     142.179  77.802 220.159 +0.00 +0.00    +0.000 G0 
DOCKED: ENDBRANCH  22  23
DOCKED: ENDBRANCH  21  22
DOCKED: ENDBRANCH  20  21
DOCKED: ENDBRANCH  19  20
DOCKED: BRANCH  19  25
DOCKED: ATOM     25  C   UNL     1     141.411  77.115 221.252 -0.21 -0.06    +0.115 C  
DOCKED: BRANCH  25  26
DOCKED: ATOM     26  C   UNL     1     142.183  77.801 220.162 -0.24 -0.02    +0.030 CG0
DOCKED: ATOM     27  G   UNL     1     142.861  76.742 219.305 +0.00 +0.00    +0.000 G0 
DOCKED: ENDBRANCH  25  26
DOCKED: BRANCH  25  28
DOCKED: ATOM     28  C   UNL     1     140.635  78.076 222.082 -0.36 +0.01    -0.025 A  
DOCKED: ATOM     29  C   UNL     1     141.183  79.223 222.617 -0.46 -0.00    +0.007 A  
DOCKED: ATOM     30  C   UNL     1     139.290  77.751 222.299 -0.31 -0.00    +0.007 A  
DOCKED: ATOM     31  C   UNL     1     140.369  80.059 223.381 -0.45 -0.00    +0.021 A  
DOCKED: ATOM     32  C   UNL     1     138.531  78.624 223.069 -0.28 -0.00    +0.021 A  
DOCKED: ATOM     33  C   UNL     1     139.054  79.773 223.612 -0.38 -0.01    +0.041 A  
DOCKED: ATOM     34  Cl  UNL     1     138.049  80.842 224.578 -0.46 +0.01    -0.084 Cl 
DOCKED: ENDBRANCH  25  28
DOCKED: ENDBRANCH  19  25
DOCKED: ENDBRANCH   1  19
DOCKED: TORSDOF 5
DOCKED: TER
DOCKED: ENDMDL
________________________________________________________________________________


    FINAL DOCKED STATE:
    ________________________


Run:   4 / 20
Time taken for this run:   0.047s

DOCKED: MODEL        4
DOCKED: USER    Run = 4
DOCKED: USER
DOCKED: USER    Estimated Free Energy of Binding    =  -4.34 kcal/mol  [=(1)+(2)+(3)-(4)]
DOCKED: USER
DOCKED: USER    (1) Final Intermolecular Energy     =  -7.62 kcal/mol
DOCKED: USER        vdW + Hbond + desolv Energy     =  -7.86 kcal/mol
DOCKED: USER        Electrostatic Energy            =  -0.09 kcal/mol
DOCKED: USER        Moving Ligand-Fixed Receptor    =  -7.95 kcal/mol
DOCKED: USER        Moving Ligand-Moving Receptor   =  +0.33 kcal/mol
DOCKED: USER    (2) Final Total Internal Energy     =  -2.08 kcal/mol
DOCKED: USER    (3) Torsional Free Energy           =  +3.28 kcal/mol
DOCKED: USER    (4) Unbound System's Energy         =  -2.08 kcal/mol
DOCKED: USER
DOCKED: USER
DOCKED: REMARK SMILES O=C(NCC(=O)N1CCCCC[C@H]1c1ccc(Cl)cc1)c1ccc2cc(F)ccc2n1
DOCKED: REMARK SMILES IDX 5 1 6 2 4 3 3 4 2 5 1 6 21 8 22 9 31 10 23 11 30 12 24 13
DOCKED: REMARK SMILES IDX 29 14 25 15 28 16 26 17 27 18 7 19 8 20 9 21 10 22 11 23
DOCKED: REMARK SMILES IDX 13 25 12 26 14 28 15 29 20 30 16 31 19 32 17 33 18 34
DOCKED: REMARK H PARENT 3 7
DOCKED: REMARK Flexibility Score:   84.900
DOCKED: USER                              x       y       z     vdW  Elec       q    Type
DOCKED: USER                           _______ _______ _______ _____ _____    ______ ____
DOCKED: ROOT
DOCKED: ATOM      1  C   UNL     1     139.607  79.294 221.116 -0.09 -0.06    +0.242 C  
DOCKED: ATOM      2  O   UNL     1     139.451  78.911 219.843 -0.03 +0.08    -0.273 OA 
DOCKED: ENDROOT
DOCKED: BRANCH   1   3
DOCKED: ATOM      3  C   UNL     1     138.443  78.965 221.898 -0.12 -0.04    +0.216 C  
DOCKED: BRANCH   3   4
DOCKED: ATOM      4  N   UNL     1     137.901  79.762 222.911 -0.10 +0.05    -0.342 N  
DOCKED: ATOM      5  C   UNL     1     137.766  81.177 222.928 -0.14 -0.03    +0.270 C  
DOCKED: ATOM      6  O   UNL     1     138.185  81.797 221.910 -0.08 +0.04    -0.268 OA 
DOCKED: ATOM      7  H   UNL     1     137.535  79.280 223.793 +0.05 -0.02    +0.164 HD 
DOCKED: BRANCH   5   8
DOCKED: ATOM      8  C   UNL     1     137.171  81.867 224.076 -0.21 -0.01    +0.128 A  
DOCKED: ATOM      9  C   UNL     1     136.866  83.203 223.921 -0.14 -0.00    +0.035 A  
DOCKED: ATOM     10  N   UNL     1     136.932  81.199 225.240 -0.24 +0.03    -0.243 NA 
DOCKED: ATOM     11  C   UNL     1     136.304  83.937 224.934 -0.19 -0.00    +0.013 A  
DOCKED: ATOM     12  C   UNL     1     136.382  81.916 226.235 -0.38 -0.01    +0.071 A  
DOCKED: ATOM     13  C   UNL     1     136.061  83.253 226.127 -0.29 -0.00    +0.003 A  
DOCKED: ATOM     14  C   UNL     1     136.129  81.264 227.426 -0.37 -0.01    +0.032 A  
DOCKED: ATOM     15  C   UNL     1     135.497  83.939 227.181 -0.26 -0.00    +0.049 A  
DOCKED: ATOM     16  C   UNL     1     135.559  81.932 228.510 -0.44 -0.01    +0.041 A  
DOCKED: ATOM     17  C   UNL     1     135.245  83.275 228.377 -0.25 -0.00    +0.123 A  
DOCKED: ATOM     18  F   UNL     1     134.688  83.927 229.437 -0.05 -0.08    -0.207 F  
DOCKED: ENDBRANCH   5   8
DOCKED: ENDBRANCH   3   4
DOCKED: ENDBRANCH   1   3
DOCKED: BRANCH   1  19
DOCKED: ATOM     19  N   UNL     1     140.833  79.894 221.349 -0.09 +0.11    -0.334 N  
DOCKED: BRANCH  19  20
DOCKED: ATOM     20  C   UNL     1     141.107  81.302 221.319 -0.31 -0.03    +0.120 C  
DOCKED: BRANCH  20  21
DOCKED: ATOM     21  C   UNL     1     141.796  81.743 222.615 -0.42 -0.00    +0.022 C  
DOCKED: BRANCH  21  22
DOCKED: ATOM     22  C   UNL     1     141.110  81.174 223.838 -0.40 -0.00    +0.002 C  
DOCKED: BRANCH  22  23
DOCKED: ATOM     23  C   UNL     1     141.088  79.676 223.826 -0.54 -0.00    +0.003 CG0
DOCKED: ATOM     24  G   UNL     1     142.286  79.108 223.081 +0.00 +0.00    +0.000 G0 
DOCKED: ENDBRANCH  22  23
DOCKED: ENDBRANCH  21  22
DOCKED: ENDBRANCH  20  21
DOCKED: ENDBRANCH  19  20
DOCKED: BRANCH  19  25
DOCKED: ATOM     25  C   UNL     1     141.907  78.901 221.642 -0.33 -0.06    +0.115 C  
DOCKED: BRANCH  25  26
DOCKED: ATOM     26  C   UNL     1     142.288  79.108 223.079 -0.54 -0.01    +0.030 CG0
DOCKED: ATOM     27  G   UNL     1     141.088  79.672 223.825 +0.00 +0.00    +0.000 G0 
DOCKED: ENDBRANCH  25  26
DOCKED: BRANCH  25  28
DOCKED: ATOM     28  C   UNL     1     141.387  77.529 221.391 -0.31 +0.01    -0.025 A  
DOCKED: ATOM     29  C   UNL     1     140.699  76.798 222.338 -0.43 -0.00    +0.007 A  
DOCKED: ATOM     30  C   UNL     1     141.636  77.003 220.117 -0.28 -0.00    +0.007 A  
DOCKED: ATOM     31  C   UNL     1     140.254  75.520 222.002 -0.31 -0.00    +0.021 A  
DOCKED: ATOM     32  C   UNL     1     141.166  75.724 219.843 -0.18 -0.01    +0.021 A  
DOCKED: ATOM     33  C   UNL     1     140.479  74.977 220.769 -0.22 -0.01    +0.041 A  
DOCKED: ATOM     34  Cl  UNL     1     139.907  73.366 220.370 -0.16 +0.02    -0.084 Cl 
DOCKED: ENDBRANCH  25  28
DOCKED: ENDBRANCH  19  25
DOCKED: ENDBRANCH   1  19
DOCKED: TORSDOF 5
DOCKED: TER
DOCKED: ENDMDL
________________________________________________________________________________


    FINAL DOCKED STATE:
    ________________________


Run:   5 / 20
Time taken for this run:   0.047s

DOCKED: MODEL        5
DOCKED: USER    Run = 5
DOCKED: USER
DOCKED: USER    Estimated Free Energy of Binding    =  -6.32 kcal/mol  [=(1)+(2)+(3)-(4)]
DOCKED: USER
DOCKED: USER    (1) Final Intermolecular Energy     =  -9.60 kcal/mol
DOCKED: USER        vdW + Hbond + desolv Energy     =  -9.77 kcal/mol
DOCKED: USER        Electrostatic Energy            =  -0.05 kcal/mol
DOCKED: USER        Moving Ligand-Fixed Receptor    =  -9.82 kcal/mol
DOCKED: USER        Moving Ligand-Moving Receptor   =  +0.22 kcal/mol
DOCKED: USER    (2) Final Total Internal Energy     =  -1.77 kcal/mol
DOCKED: USER    (3) Torsional Free Energy           =  +3.28 kcal/mol
DOCKED: USER    (4) Unbound System's Energy         =  -1.77 kcal/mol
DOCKED: USER
DOCKED: USER
DOCKED: REMARK SMILES O=C(NCC(=O)N1CCCCC[C@H]1c1ccc(Cl)cc1)c1ccc2cc(F)ccc2n1
DOCKED: REMARK SMILES IDX 5 1 6 2 4 3 3 4 2 5 1 6 21 8 22 9 31 10 23 11 30 12 24 13
DOCKED: REMARK SMILES IDX 29 14 25 15 28 16 26 17 27 18 7 19 8 20 9 21 10 22 11 23
DOCKED: REMARK SMILES IDX 13 25 12 26 14 28 15 29 20 30 16 31 19 32 17 33 18 34
DOCKED: REMARK H PARENT 3 7
DOCKED: REMARK Flexibility Score:   84.900
DOCKED: USER                              x       y       z     vdW  Elec       q    Type
DOCKED: USER                           _______ _______ _______ _____ _____    ______ ____
DOCKED: ROOT
DOCKED: ATOM      1  C   UNL     1     139.396  75.615 221.089 -0.15 -0.06    +0.242 C  
DOCKED: ATOM      2  O   UNL     1     138.396  76.343 220.578 -0.04 +0.06    -0.273 OA 
DOCKED: ENDROOT
DOCKED: BRANCH   1   3
DOCKED: ATOM      3  C   UNL     1     139.034  74.222 221.162 -0.14 -0.05    +0.216 C  
DOCKED: BRANCH   3   4
DOCKED: ATOM      4  N   UNL     1     139.288  73.378 222.247 -0.11 +0.08    -0.342 N  
DOCKED: ATOM      5  C   UNL     1     139.312  71.957 222.259 -0.17 -0.06    +0.270 C  
DOCKED: ATOM      6  O   UNL     1     139.075  71.379 221.161 -0.06 +0.05    -0.268 OA 
DOCKED: ATOM      7  H   UNL     1     139.492  73.825 223.197 -0.50 -0.04    +0.164 HD 
DOCKED: BRANCH   5   8
DOCKED: ATOM      8  C   UNL     1     139.597  71.215 223.490 -0.30 -0.03    +0.128 A  
DOCKED: ATOM      9  C   UNL     1     139.334  69.862 223.487 -0.25 -0.01    +0.035 A  
DOCKED: ATOM     10  N   UNL     1     140.105  71.852 224.583 -0.22 +0.05    -0.243 NA 
DOCKED: ATOM     11  C   UNL     1     139.568  69.078 224.588 -0.33 -0.00    +0.013 A  
DOCKED: ATOM     12  C   UNL     1     140.335  71.088 225.664 -0.52 -0.01    +0.071 A  
DOCKED: ATOM     13  C   UNL     1     140.087  69.732 225.708 -0.47 -0.00    +0.003 A  
DOCKED: ATOM     14  C   UNL     1     140.850  71.708 226.785 -0.70 -0.01    +0.032 A  
DOCKED: ATOM     15  C   UNL     1     140.344  68.996 226.845 -0.56 -0.01    +0.049 A  
DOCKED: ATOM     16  C   UNL     1     141.120  70.989 227.950 -0.65 -0.01    +0.041 A  
DOCKED: ATOM     17  C   UNL     1     140.862  69.628 227.969 -0.50 -0.02    +0.123 A  
DOCKED: ATOM     18  F   UNL     1     141.127  68.926 229.109 -0.08 +0.04    -0.207 F  
DOCKED: ENDBRANCH   5   8
DOCKED: ENDBRANCH   3   4
DOCKED: ENDBRANCH   1   3
DOCKED: BRANCH   1  19
DOCKED: ATOM     19  N   UNL     1     140.507  76.378 221.407 -0.15 +0.10    -0.334 N  
DOCKED: BRANCH  19  20
DOCKED: ATOM     20  C   UNL     1     140.793  76.968 222.684 -0.27 -0.04    +0.120 C  
DOCKED: BRANCH  20  21
DOCKED: ATOM     21  C   UNL     1     140.188  78.373 222.773 -0.39 -0.01    +0.022 C  
DOCKED: BRANCH  21  22
DOCKED: ATOM     22  C   UNL     1     141.019  79.391 222.022 -0.40 -0.00    +0.002 C  
DOCKED: BRANCH  22  23
DOCKED: ATOM     23  C   UNL     1     141.268  78.979 220.604 -0.30 -0.00    +0.003 CG0
DOCKED: ATOM     24  G   UNL     1     142.223  77.797 220.527 +0.00 +0.00    +0.000 G0 
DOCKED: ENDBRANCH  22  23
DOCKED: ENDBRANCH  21  22
DOCKED: ENDBRANCH  20  21
DOCKED: ENDBRANCH  19  20
DOCKED: BRANCH  19  25
DOCKED: ATOM     25  C   UNL     1     141.428  76.553 220.247 -0.22 -0.05    +0.115 C  
DOCKED: BRANCH  25  26
DOCKED: ATOM     26  C   UNL     1     142.223  77.796 220.529 -0.12 -0.02    +0.030 CG0
DOCKED: ATOM     27  G   UNL     1     141.269  78.978 220.604 +0.00 +0.00    +0.000 G0 
DOCKED: ENDBRANCH  25  26
DOCKED: BRANCH  25  28
DOCKED: ATOM     28  C   UNL     1     142.293  75.348 220.122 -0.29 +0.01    -0.025 A  
DOCKED: ATOM     29  C   UNL     1     141.792  74.066 220.043 -0.20 -0.00    +0.007 A  
DOCKED: ATOM     30  C   UNL     1     143.673  75.586 220.090 -0.35 -0.00    +0.007 A  
DOCKED: ATOM     31  C   UNL     1     142.688  73.004 219.927 -0.21 -0.00    +0.021 A  
DOCKED: ATOM     32  C   UNL     1     144.515  74.485 219.973 -0.41 -0.01    +0.021 A  
DOCKED: ATOM     33  C   UNL     1     144.039  73.199 219.892 -0.32 -0.01    +0.041 A  
DOCKED: ATOM     34  Cl  UNL     1     145.147  71.845 219.746 -0.41 -0.02    -0.084 Cl 
DOCKED: ENDBRANCH  25  28
DOCKED: ENDBRANCH  19  25
DOCKED: ENDBRANCH   1  19
DOCKED: TORSDOF 5
DOCKED: TER
DOCKED: ENDMDL
________________________________________________________________________________


    FINAL DOCKED STATE:
    ________________________


Run:   6 / 20
Time taken for this run:   0.047s

DOCKED: MODEL        6
DOCKED: USER    Run = 6
DOCKED: USER
DOCKED: USER    Estimated Free Energy of Binding    =  -5.52 kcal/mol  [=(1)+(2)+(3)-(4)]
DOCKED: USER
DOCKED: USER    (1) Final Intermolecular Energy     =  -8.80 kcal/mol
DOCKED: USER        vdW + Hbond + desolv Energy     =  -9.46 kcal/mol
DOCKED: USER        Electrostatic Energy            =  -0.10 kcal/mol
DOCKED: USER        Moving Ligand-Fixed Receptor    =  -9.56 kcal/mol
DOCKED: USER        Moving Ligand-Moving Receptor   =  +0.76 kcal/mol
DOCKED: USER    (2) Final Total Internal Energy     =  -1.83 kcal/mol
DOCKED: USER    (3) Torsional Free Energy           =  +3.28 kcal/mol
DOCKED: USER    (4) Unbound System's Energy         =  -1.83 kcal/mol
DOCKED: USER
DOCKED: USER
DOCKED: REMARK SMILES O=C(NCC(=O)N1CCCCC[C@H]1c1ccc(Cl)cc1)c1ccc2cc(F)ccc2n1
DOCKED: REMARK SMILES IDX 5 1 6 2 4 3 3 4 2 5 1 6 21 8 22 9 31 10 23 11 30 12 24 13
DOCKED: REMARK SMILES IDX 29 14 25 15 28 16 26 17 27 18 7 19 8 20 9 21 10 22 11 23
DOCKED: REMARK SMILES IDX 13 25 12 26 14 28 15 29 20 30 16 31 19 32 17 33 18 34
DOCKED: REMARK H PARENT 3 7
DOCKED: REMARK Flexibility Score:   84.900
DOCKED: USER                              x       y       z     vdW  Elec       q    Type
DOCKED: USER                           _______ _______ _______ _____ _____    ______ ____
DOCKED: ROOT
DOCKED: ATOM      1  C   UNL     1     139.331  71.545 222.377 -0.17 -0.05    +0.242 C  
DOCKED: ATOM      2  O   UNL     1     140.665  71.641 222.417 -0.22 +0.03    -0.273 OA 
DOCKED: ENDROOT
DOCKED: BRANCH   1   3
DOCKED: ATOM      3  C   UNL     1     138.746  72.735 221.813 -0.14 -0.05    +0.216 C  
DOCKED: BRANCH   3   4
DOCKED: ATOM      4  N   UNL     1     139.293  74.019 221.895 -0.14 +0.07    -0.342 N  
DOCKED: ATOM      5  C   UNL     1     140.265  74.608 221.042 -0.17 -0.05    +0.270 C  
DOCKED: ATOM      6  O   UNL     1     140.692  73.892 220.093 -0.07 +0.06    -0.268 OA 
DOCKED: ATOM      7  H   UNL     1     138.962  74.660 222.685 -0.45 -0.05    +0.164 HD 
DOCKED: BRANCH   5   8
DOCKED: ATOM      8  C   UNL     1     140.738  75.977 221.266 -0.27 -0.04    +0.128 A  
DOCKED: ATOM      9  C   UNL     1     141.625  76.497 220.346 -0.27 -0.02    +0.035 A  
DOCKED: ATOM     10  N   UNL     1     140.306  76.694 222.342 -0.27 +0.06    -0.243 NA 
DOCKED: ATOM     11  C   UNL     1     142.124  77.769 220.465 -0.27 -0.01    +0.013 A  
DOCKED: ATOM     12  C   UNL     1     140.794  77.940 222.461 -0.40 -0.02    +0.071 A  
DOCKED: ATOM     13  C   UNL     1     141.682  78.502 221.568 -0.38 -0.00    +0.003 A  
DOCKED: ATOM     14  C   UNL     1     140.373  78.689 223.542 -0.28 -0.01    +0.032 A  
DOCKED: ATOM     15  C   UNL     1     142.150  79.788 221.740 -0.42 -0.02    +0.049 A  
DOCKED: ATOM     16  C   UNL     1     140.829  79.993 223.742 -0.47 -0.01    +0.041 A  
DOCKED: ATOM     17  C   UNL     1     141.721  80.535 222.831 -0.46 -0.03    +0.123 A  
DOCKED: ATOM     18  F   UNL     1     142.166  81.809 223.027 -0.13 +0.03    -0.207 F  
DOCKED: ENDBRANCH   5   8
DOCKED: ENDBRANCH   3   4
DOCKED: ENDBRANCH   1   3
DOCKED: BRANCH   1  19
DOCKED: ATOM     19  N   UNL     1     138.865  70.341 222.876 -0.08 +0.06    -0.334 N  
DOCKED: BRANCH  19  20
DOCKED: ATOM     20  C   UNL     1     139.063  69.046 222.289 -0.14 -0.02    +0.120 C  
DOCKED: BRANCH  20  21
DOCKED: ATOM     21  C   UNL     1     137.732  68.475 221.787 -0.14 -0.00    +0.022 C  
DOCKED: BRANCH  21  22
DOCKED: ATOM     22  C   UNL     1     136.727  69.567 221.494 -0.06 -0.00    +0.002 C  
DOCKED: BRANCH  22  23
DOCKED: ATOM     23  C   UNL     1     136.106  70.111 222.744 -0.11 -0.00    +0.003 CG0
DOCKED: ATOM     24  G   UNL     1     136.859  69.653 223.984 +0.00 +0.00    +0.000 G0 
DOCKED: ENDBRANCH  22  23
DOCKED: ENDBRANCH  21  22
DOCKED: ENDBRANCH  20  21
DOCKED: ENDBRANCH  19  20
DOCKED: BRANCH  19  25
DOCKED: ATOM     25  C   UNL     1     138.090  70.510 224.140 -0.24 -0.02    +0.115 C  
DOCKED: BRANCH  25  26
DOCKED: ATOM     26  C   UNL     1     136.858  69.663 223.991 -0.22 -0.00    +0.030 CG0
DOCKED: ATOM     27  G   UNL     1     136.107  70.111 222.747 +0.00 +0.00    +0.000 G0 
DOCKED: ENDBRANCH  25  26
DOCKED: BRANCH  25  28
DOCKED: ATOM     28  C   UNL     1     138.931  70.081 225.291 -0.34 +0.00    -0.025 A  
DOCKED: ATOM     29  C   UNL     1     139.875  70.897 225.879 -0.47 -0.00    +0.007 A  
DOCKED: ATOM     30  C   UNL     1     138.712  68.780 225.758 -0.42 -0.00    +0.007 A  
DOCKED: ATOM     31  C   UNL     1     140.611  70.400 226.953 -0.59 -0.00    +0.021 A  
DOCKED: ATOM     32  C   UNL     1     139.478  68.342 226.833 -0.55 -0.00    +0.021 A  
DOCKED: ATOM     33  C   UNL     1     140.424  69.136 227.435 -0.59 -0.01    +0.041 A  
DOCKED: ATOM     34  Cl  UNL     1     141.364  68.534 228.790 -0.51 +0.02    -0.084 Cl 
DOCKED: ENDBRANCH  25  28
DOCKED: ENDBRANCH  19  25
DOCKED: ENDBRANCH   1  19
DOCKED: TORSDOF 5
DOCKED: TER
DOCKED: ENDMDL
________________________________________________________________________________


    FINAL DOCKED STATE:
    ________________________


Run:   7 / 20
Time taken for this run:   0.047s

DOCKED: MODEL        7
DOCKED: USER    Run = 7
DOCKED: USER
DOCKED: USER    Estimated Free Energy of Binding    =  -5.39 kcal/mol  [=(1)+(2)+(3)-(4)]
DOCKED: USER
DOCKED: USER    (1) Final Intermolecular Energy     =  -8.67 kcal/mol
DOCKED: USER        vdW + Hbond + desolv Energy     =  -9.05 kcal/mol
DOCKED: USER        Electrostatic Energy            =  -0.04 kcal/mol
DOCKED: USER        Moving Ligand-Fixed Receptor    =  -9.08 kcal/mol
DOCKED: USER        Moving Ligand-Moving Receptor   =  +0.42 kcal/mol
DOCKED: USER    (2) Final Total Internal Energy     =  -1.47 kcal/mol
DOCKED: USER    (3) Torsional Free Energy           =  +3.28 kcal/mol
DOCKED: USER    (4) Unbound System's Energy         =  -1.47 kcal/mol
DOCKED: USER
DOCKED: USER
DOCKED: REMARK SMILES O=C(NCC(=O)N1CCCCC[C@H]1c1ccc(Cl)cc1)c1ccc2cc(F)ccc2n1
DOCKED: REMARK SMILES IDX 5 1 6 2 4 3 3 4 2 5 1 6 21 8 22 9 31 10 23 11 30 12 24 13
DOCKED: REMARK SMILES IDX 29 14 25 15 28 16 26 17 27 18 7 19 8 20 9 21 10 22 11 23
DOCKED: REMARK SMILES IDX 13 25 12 26 14 28 15 29 20 30 16 31 19 32 17 33 18 34
DOCKED: REMARK H PARENT 3 7
DOCKED: REMARK Flexibility Score:   84.900
DOCKED: USER                              x       y       z     vdW  Elec       q    Type
DOCKED: USER                           _______ _______ _______ _____ _____    ______ ____
DOCKED: ROOT
DOCKED: ATOM      1  C   UNL     1     137.909  71.849 222.266 -0.11 -0.06    +0.242 C  
DOCKED: ATOM      2  O   UNL     1     137.318  71.945 223.463 -0.13 +0.09    -0.273 OA 
DOCKED: ENDROOT
DOCKED: BRANCH   1   3
DOCKED: ATOM      3  C   UNL     1     137.511  72.934 221.407 -0.07 -0.05    +0.216 C  
DOCKED: BRANCH   3   4
DOCKED: ATOM      4  N   UNL     1     137.965  74.252 221.510 -0.07 +0.09    -0.342 N  
DOCKED: ATOM      5  C   UNL     1     139.230  74.705 221.976 -0.17 -0.06    +0.270 C  
DOCKED: ATOM      6  O   UNL     1     140.047  73.814 222.343 -0.84 +0.01    -0.268 OA 
DOCKED: ATOM      7  H   UNL     1     137.305  75.039 221.211 +0.03 -0.04    +0.164 HD 
DOCKED: BRANCH   5   8
DOCKED: ATOM      8  C   UNL     1     139.553  76.133 222.022 -0.28 -0.03    +0.128 A  
DOCKED: ATOM      9  C   UNL     1     138.810  76.975 221.221 -0.16 -0.01    +0.035 A  
DOCKED: ATOM     10  N   UNL     1     140.548  76.594 222.831 -0.10 +0.06    -0.243 NA 
DOCKED: ATOM     11  C   UNL     1     139.033  78.328 221.193 -0.15 -0.00    +0.013 A  
DOCKED: ATOM     12  C   UNL     1     140.770  77.919 222.806 -0.40 -0.02    +0.071 A  
DOCKED: ATOM     13  C   UNL     1     140.054  78.799 222.022 -0.29 -0.00    +0.003 A  
DOCKED: ATOM     14  C   UNL     1     141.772  78.413 223.617 -0.53 -0.01    +0.032 A  
DOCKED: ATOM     15  C   UNL     1     140.324  80.151 222.037 -0.28 -0.01    +0.049 A  
DOCKED: ATOM     16  C   UNL     1     142.069  79.777 223.653 -0.60 -0.01    +0.041 A  
DOCKED: ATOM     17  C   UNL     1     141.335  80.641 222.856 -0.42 -0.03    +0.123 A  
DOCKED: ATOM     18  F   UNL     1     141.625  81.973 222.892 -0.14 +0.02    -0.207 F  
DOCKED: ENDBRANCH   5   8
DOCKED: ENDBRANCH   3   4
DOCKED: ENDBRANCH   1   3
DOCKED: BRANCH   1  19
DOCKED: ATOM     19  N   UNL     1     138.744  70.749 222.168 -0.06 +0.06    -0.334 N  
DOCKED: BRANCH  19  20
DOCKED: ATOM     20  C   UNL     1     139.765  70.545 221.179 -0.11 -0.02    +0.120 C  
DOCKED: BRANCH  20  21
DOCKED: ATOM     21  C   UNL     1     139.197  69.796 219.968 -0.07 -0.00    +0.022 C  
DOCKED: BRANCH  21  22
DOCKED: ATOM     22  C   UNL     1     139.077  68.310 220.232 -0.11 -0.00    +0.002 C  
DOCKED: BRANCH  22  23
DOCKED: ATOM     23  C   UNL     1     138.292  68.021 221.475 -0.16 -0.00    +0.003 CG0
DOCKED: ATOM     24  G   UNL     1     139.051  68.444 222.723 +0.00 +0.00    +0.000 G0 
DOCKED: ENDBRANCH  22  23
DOCKED: ENDBRANCH  21  22
DOCKED: ENDBRANCH  20  21
DOCKED: ENDBRANCH  19  20
DOCKED: BRANCH  19  25
DOCKED: ATOM     25  C   UNL     1     138.475  69.733 223.226 -0.20 -0.02    +0.115 C  
DOCKED: BRANCH  25  26
DOCKED: ATOM     26  C   UNL     1     139.054  68.442 222.724 -0.16 -0.01    +0.030 CG0
DOCKED: ATOM     27  G   UNL     1     138.291  68.018 221.478 +0.00 +0.00    +0.000 G0 
DOCKED: ENDBRANCH  25  26
DOCKED: BRANCH  25  28
DOCKED: ATOM     28  C   UNL     1     139.106  70.174 224.500 -0.35 +0.00    -0.025 A  
DOCKED: ATOM     29  C   UNL     1     138.827  69.593 225.720 -0.39 -0.00    +0.007 A  
DOCKED: ATOM     30  C   UNL     1     140.017  71.233 224.397 -0.45 -0.00    +0.007 A  
DOCKED: ATOM     31  C   UNL     1     139.473  70.081 226.855 -0.35 -0.00    +0.021 A  
DOCKED: ATOM     32  C   UNL     1     140.629  71.674 225.566 -0.51 -0.00    +0.021 A  
DOCKED: ATOM     33  C   UNL     1     140.367  71.111 226.792 -0.60 -0.01    +0.041 A  
DOCKED: ATOM     34  Cl  UNL     1     141.168  71.708 228.236 -0.82 +0.02    -0.084 Cl 
DOCKED: ENDBRANCH  25  28
DOCKED: ENDBRANCH  19  25
DOCKED: ENDBRANCH   1  19
DOCKED: TORSDOF 5
DOCKED: TER
DOCKED: ENDMDL
________________________________________________________________________________


    FINAL DOCKED STATE:
    ________________________


Run:   8 / 20
Time taken for this run:   0.047s

DOCKED: MODEL        8
DOCKED: USER    Run = 8
DOCKED: USER
DOCKED: USER    Estimated Free Energy of Binding    =  -5.14 kcal/mol  [=(1)+(2)+(3)-(4)]
DOCKED: USER
DOCKED: USER    (1) Final Intermolecular Energy     =  -8.42 kcal/mol
DOCKED: USER        vdW + Hbond + desolv Energy     =  -9.44 kcal/mol
DOCKED: USER        Electrostatic Energy            =  -0.10 kcal/mol
DOCKED: USER        Moving Ligand-Fixed Receptor    =  -9.53 kcal/mol
DOCKED: USER        Moving Ligand-Moving Receptor   =  +1.12 kcal/mol
DOCKED: USER    (2) Final Total Internal Energy     =  -1.89 kcal/mol
DOCKED: USER    (3) Torsional Free Energy           =  +3.28 kcal/mol
DOCKED: USER    (4) Unbound System's Energy         =  -1.89 kcal/mol
DOCKED: USER
DOCKED: USER
DOCKED: REMARK SMILES O=C(NCC(=O)N1CCCCC[C@H]1c1ccc(Cl)cc1)c1ccc2cc(F)ccc2n1
DOCKED: REMARK SMILES IDX 5 1 6 2 4 3 3 4 2 5 1 6 21 8 22 9 31 10 23 11 30 12 24 13
DOCKED: REMARK SMILES IDX 29 14 25 15 28 16 26 17 27 18 7 19 8 20 9 21 10 22 11 23
DOCKED: REMARK SMILES IDX 13 25 12 26 14 28 15 29 20 30 16 31 19 32 17 33 18 34
DOCKED: REMARK H PARENT 3 7
DOCKED: REMARK Flexibility Score:   84.900
DOCKED: USER                              x       y       z     vdW  Elec       q    Type
DOCKED: USER                           _______ _______ _______ _____ _____    ______ ____
DOCKED: ROOT
DOCKED: ATOM      1  C   UNL     1     139.289  75.321 220.489 -0.08 -0.06    +0.242 C  
DOCKED: ATOM      2  O   UNL     1     138.646  75.963 219.507 -0.01 +0.06    -0.273 OA 
DOCKED: ENDROOT
DOCKED: BRANCH   1   3
DOCKED: ATOM      3  C   UNL     1     138.674  74.047 220.759 -0.09 -0.05    +0.216 C  
DOCKED: BRANCH   3   4
DOCKED: ATOM      4  N   UNL     1     138.922  73.254 221.884 -0.11 +0.08    -0.342 N  
DOCKED: ATOM      5  C   UNL     1     139.593  72.002 221.937 -0.16 -0.05    +0.270 C  
DOCKED: ATOM      6  O   UNL     1     140.018  71.543 220.840 -0.07 +0.04    -0.268 OA 
DOCKED: ATOM      7  H   UNL     1     138.578  73.604 222.835 -0.53 -0.09    +0.164 HD 
DOCKED: BRANCH   5   8
DOCKED: ATOM      8  C   UNL     1     139.773  71.293 223.207 -0.28 -0.02    +0.128 A  
DOCKED: ATOM      9  C   UNL     1     139.390  69.969 223.250 -0.23 -0.01    +0.035 A  
DOCKED: ATOM     10  N   UNL     1     140.300  71.931 224.290 -0.25 +0.04    -0.243 NA 
DOCKED: ATOM     11  C   UNL     1     139.520  69.217 224.390 -0.31 -0.00    +0.013 A  
DOCKED: ATOM     12  C   UNL     1     140.428  71.198 225.409 -0.51 -0.01    +0.071 A  
DOCKED: ATOM     13  C   UNL     1     140.059  69.871 225.499 -0.46 -0.00    +0.003 A  
DOCKED: ATOM     14  C   UNL     1     140.960  71.819 226.521 -0.68 -0.01    +0.032 A  
DOCKED: ATOM     15  C   UNL     1     140.214  69.166 226.674 -0.52 -0.01    +0.049 A  
DOCKED: ATOM     16  C   UNL     1     141.129  71.131 227.724 -0.66 -0.01    +0.041 A  
DOCKED: ATOM     17  C   UNL     1     140.751  69.799 227.790 -0.51 -0.02    +0.123 A  
DOCKED: ATOM     18  F   UNL     1     140.916  69.128 228.965 -0.07 +0.04    -0.207 F  
DOCKED: ENDBRANCH   5   8
DOCKED: ENDBRANCH   3   4
DOCKED: ENDBRANCH   1   3
DOCKED: BRANCH   1  19
DOCKED: ATOM     19  N   UNL     1     140.367  76.036 220.981 -0.11 +0.10    -0.334 N  
DOCKED: BRANCH  19  20
DOCKED: ATOM     20  C   UNL     1     140.523  76.520 222.323 -0.33 -0.03    +0.120 C  
DOCKED: BRANCH  20  21
DOCKED: ATOM     21  C   UNL     1     139.930  77.928 222.458 -0.36 -0.01    +0.022 C  
DOCKED: BRANCH  21  22
DOCKED: ATOM     22  C   UNL     1     140.847  78.981 221.876 -0.36 -0.00    +0.002 C  
DOCKED: BRANCH  22  23
DOCKED: ATOM     23  C   UNL     1     141.227  78.677 220.459 -0.28 -0.00    +0.003 CG0
DOCKED: ATOM     24  G   UNL     1     142.175  77.491 220.379 +0.00 +0.00    +0.000 G0 
DOCKED: ENDBRANCH  22  23
DOCKED: ENDBRANCH  21  22
DOCKED: ENDBRANCH  20  21
DOCKED: ENDBRANCH  19  20
DOCKED: BRANCH  19  25
DOCKED: ATOM     25  C   UNL     1     141.409  76.283 219.942 -0.19 -0.05    +0.115 C  
DOCKED: BRANCH  25  26
DOCKED: ATOM     26  C   UNL     1     142.174  77.493 220.396 -0.24 -0.02    +0.030 CG0
DOCKED: ATOM     27  G   UNL     1     141.222  78.677 220.457 +0.00 +0.00    +0.000 G0 
DOCKED: ENDBRANCH  25  26
DOCKED: BRANCH  25  28
DOCKED: ATOM     28  C   UNL     1     142.278  75.080 219.823 -0.25 +0.01    -0.025 A  
DOCKED: ATOM     29  C   UNL     1     141.785  73.817 219.569 -0.14 -0.00    +0.007 A  
DOCKED: ATOM     30  C   UNL     1     143.651  75.298 219.988 -0.40 -0.00    +0.007 A  
DOCKED: ATOM     31  C   UNL     1     142.684  72.755 219.476 -0.15 -0.00    +0.021 A  
DOCKED: ATOM     32  C   UNL     1     144.496  74.199 219.883 -0.41 -0.01    +0.021 A  
DOCKED: ATOM     33  C   UNL     1     144.029  72.932 219.630 -0.27 -0.00    +0.041 A  
DOCKED: ATOM     34  Cl  UNL     1     145.141  71.578 219.509 -0.37 -0.02    -0.084 Cl 
DOCKED: ENDBRANCH  25  28
DOCKED: ENDBRANCH  19  25
DOCKED: ENDBRANCH   1  19
DOCKED: TORSDOF 5
DOCKED: TER
DOCKED: ENDMDL
________________________________________________________________________________


    FINAL DOCKED STATE:
    ________________________


Run:   9 / 20
Time taken for this run:   0.047s

DOCKED: MODEL        9
DOCKED: USER    Run = 9
DOCKED: USER
DOCKED: USER    Estimated Free Energy of Binding    =  -6.42 kcal/mol  [=(1)+(2)+(3)-(4)]
DOCKED: USER
DOCKED: USER    (1) Final Intermolecular Energy     =  -9.70 kcal/mol
DOCKED: USER        vdW + Hbond + desolv Energy     =  -9.91 kcal/mol
DOCKED: USER        Electrostatic Energy            =  -0.09 kcal/mol
DOCKED: USER        Moving Ligand-Fixed Receptor    = -10.00 kcal/mol
DOCKED: USER        Moving Ligand-Moving Receptor   =  +0.30 kcal/mol
DOCKED: USER    (2) Final Total Internal Energy     =  -1.79 kcal/mol
DOCKED: USER    (3) Torsional Free Energy           =  +3.28 kcal/mol
DOCKED: USER    (4) Unbound System's Energy         =  -1.79 kcal/mol
DOCKED: USER
DOCKED: USER
DOCKED: REMARK SMILES O=C(NCC(=O)N1CCCCC[C@H]1c1ccc(Cl)cc1)c1ccc2cc(F)ccc2n1
DOCKED: REMARK SMILES IDX 5 1 6 2 4 3 3 4 2 5 1 6 21 8 22 9 31 10 23 11 30 12 24 13
DOCKED: REMARK SMILES IDX 29 14 25 15 28 16 26 17 27 18 7 19 8 20 9 21 10 22 11 23
DOCKED: REMARK SMILES IDX 13 25 12 26 14 28 15 29 20 30 16 31 19 32 17 33 18 34
DOCKED: REMARK H PARENT 3 7
DOCKED: REMARK Flexibility Score:   84.900
DOCKED: USER                              x       y       z     vdW  Elec       q    Type
DOCKED: USER                           _______ _______ _______ _____ _____    ______ ____
DOCKED: ROOT
DOCKED: ATOM      1  C   UNL     1     139.177  75.907 221.073 -0.13 -0.06    +0.242 C  
DOCKED: ATOM      2  O   UNL     1     138.148  76.684 220.715 -0.04 +0.06    -0.273 OA 
DOCKED: ENDROOT
DOCKED: BRANCH   1   3
DOCKED: ATOM      3  C   UNL     1     138.808  74.515 221.037 -0.12 -0.05    +0.216 C  
DOCKED: BRANCH   3   4
DOCKED: ATOM      4  N   UNL     1     139.012  73.600 222.074 -0.10 +0.09    -0.342 N  
DOCKED: ATOM      5  C   UNL     1     139.524  72.278 221.982 -0.17 -0.05    +0.270 C  
DOCKED: ATOM      6  O   UNL     1     139.834  71.872 220.826 -0.07 +0.05    -0.268 OA 
DOCKED: ATOM      7  H   UNL     1     138.761  73.901 223.070 -0.55 -0.11    +0.164 HD 
DOCKED: BRANCH   5   8
DOCKED: ATOM      8  C   UNL     1     139.678  71.440 223.174 -0.28 -0.02    +0.128 A  
DOCKED: ATOM      9  C   UNL     1     139.239  70.136 223.090 -0.23 -0.01    +0.035 A  
DOCKED: ATOM     10  N   UNL     1     140.237  71.945 224.310 -0.23 +0.04    -0.243 NA 
DOCKED: ATOM     11  C   UNL     1     139.340  69.271 224.150 -0.30 -0.00    +0.013 A  
DOCKED: ATOM     12  C   UNL     1     140.338  71.101 225.350 -0.50 -0.01    +0.071 A  
DOCKED: ATOM     13  C   UNL     1     139.912  69.789 225.314 -0.44 -0.00    +0.003 A  
DOCKED: ATOM     14  C   UNL     1     140.901  71.586 226.514 -0.68 -0.01    +0.032 A  
DOCKED: ATOM     15  C   UNL     1     140.041  68.966 226.412 -0.51 -0.01    +0.049 A  
DOCKED: ATOM     16  C   UNL     1     141.044  70.776 227.642 -0.63 -0.01    +0.041 A  
DOCKED: ATOM     17  C   UNL     1     140.609  69.462 227.580 -0.51 -0.02    +0.123 A  
DOCKED: ATOM     18  F   UNL     1     140.750  68.672 228.682 -0.18 +0.05    -0.207 F  
DOCKED: ENDBRANCH   5   8
DOCKED: ENDBRANCH   3   4
DOCKED: ENDBRANCH   1   3
DOCKED: BRANCH   1  19
DOCKED: ATOM     19  N   UNL     1     140.316  76.633 221.376 -0.13 +0.10    -0.334 N  
DOCKED: BRANCH  19  20
DOCKED: ATOM     20  C   UNL     1     140.652  77.188 222.656 -0.31 -0.04    +0.120 C  
DOCKED: BRANCH  20  21
DOCKED: ATOM     21  C   UNL     1     139.979  78.553 222.843 -0.37 -0.00    +0.022 C  
DOCKED: BRANCH  21  22
DOCKED: ATOM     22  C   UNL     1     140.607  79.614 221.965 -0.34 -0.00    +0.002 C  
DOCKED: BRANCH  22  23
DOCKED: ATOM     23  C   UNL     1     140.692  79.183 220.533 -0.23 -0.00    +0.003 CG0
DOCKED: ATOM     24  G   UNL     1     141.813  78.177 220.320 +0.00 +0.00    +0.000 G0 
DOCKED: ENDBRANCH  22  23
DOCKED: ENDBRANCH  21  22
DOCKED: ENDBRANCH  20  21
DOCKED: ENDBRANCH  19  20
DOCKED: BRANCH  19  25
DOCKED: ATOM     25  C   UNL     1     141.212  76.807 220.196 -0.20 -0.05    +0.115 C  
DOCKED: BRANCH  25  26
DOCKED: ATOM     26  C   UNL     1     141.814  78.177 220.325 -0.30 -0.02    +0.030 CG0
DOCKED: ATOM     27  G   UNL     1     140.692  79.183 220.533 +0.00 +0.00    +0.000 G0 
DOCKED: ENDBRANCH  25  26
DOCKED: BRANCH  25  28
DOCKED: ATOM     28  C   UNL     1     142.246  75.736 220.203 -0.29 +0.01    -0.025 A  
DOCKED: ATOM     29  C   UNL     1     143.518  75.913 219.700 -0.42 -0.00    +0.007 A  
DOCKED: ATOM     30  C   UNL     1     141.854  74.511 220.758 -0.29 -0.00    +0.007 A  
DOCKED: ATOM     31  C   UNL     1     144.412  74.844 219.755 -0.26 -0.01    +0.021 A  
DOCKED: ATOM     32  C   UNL     1     142.792  73.485 220.784 -0.27 -0.00    +0.021 A  
DOCKED: ATOM     33  C   UNL     1     144.064  73.637 220.289 -0.39 -0.01    +0.041 A  
DOCKED: ATOM     34  Cl  UNL     1     145.210  72.307 220.347 -0.44 +0.00    -0.084 Cl 
DOCKED: ENDBRANCH  25  28
DOCKED: ENDBRANCH  19  25
DOCKED: ENDBRANCH   1  19
DOCKED: TORSDOF 5
DOCKED: TER
DOCKED: ENDMDL
________________________________________________________________________________


    FINAL DOCKED STATE:
    ________________________


Run:   10 / 20
Time taken for this run:   0.047s

DOCKED: MODEL        10
DOCKED: USER    Run = 10
DOCKED: USER
DOCKED: USER    Estimated Free Energy of Binding    =  -4.78 kcal/mol  [=(1)+(2)+(3)-(4)]
DOCKED: USER
DOCKED: USER    (1) Final Intermolecular Energy     =  -8.06 kcal/mol
DOCKED: USER        vdW + Hbond + desolv Energy     =  -8.72 kcal/mol
DOCKED: USER        Electrostatic Energy            =  +0.03 kcal/mol
DOCKED: USER        Moving Ligand-Fixed Receptor    =  -8.68 kcal/mol
DOCKED: USER        Moving Ligand-Moving Receptor   =  +0.62 kcal/mol
DOCKED: USER    (2) Final Total Internal Energy     =  -2.19 kcal/mol
DOCKED: USER    (3) Torsional Free Energy           =  +3.28 kcal/mol
DOCKED: USER    (4) Unbound System's Energy         =  -2.19 kcal/mol
DOCKED: USER
DOCKED: USER
DOCKED: REMARK SMILES O=C(NCC(=O)N1CCCCC[C@H]1c1ccc(Cl)cc1)c1ccc2cc(F)ccc2n1
DOCKED: REMARK SMILES IDX 5 1 6 2 4 3 3 4 2 5 1 6 21 8 22 9 31 10 23 11 30 12 24 13
DOCKED: REMARK SMILES IDX 29 14 25 15 28 16 26 17 27 18 7 19 8 20 9 21 10 22 11 23
DOCKED: REMARK SMILES IDX 13 25 12 26 14 28 15 29 20 30 16 31 19 32 17 33 18 34
DOCKED: REMARK H PARENT 3 7
DOCKED: REMARK Flexibility Score:   84.900
DOCKED: USER                              x       y       z     vdW  Elec       q    Type
DOCKED: USER                           _______ _______ _______ _____ _____    ______ ____
DOCKED: ROOT
DOCKED: ATOM      1  C   UNL     1     140.773  72.323 219.288 -0.03 -0.04    +0.242 C  
DOCKED: ATOM      2  O   UNL     1     139.875  72.978 218.542 -0.01 +0.05    -0.273 OA 
DOCKED: ENDROOT
DOCKED: BRANCH   1   3
DOCKED: ATOM      3  C   UNL     1     140.195  71.136 219.864 -0.05 -0.04    +0.216 C  
DOCKED: BRANCH   3   4
DOCKED: ATOM      4  N   UNL     1     140.314  70.750 221.203 -0.05 +0.05    -0.342 N  
DOCKED: ATOM      5  C   UNL     1     140.045  71.529 222.361 -0.19 -0.04    +0.270 C  
DOCKED: ATOM      6  O   UNL     1     139.652  72.713 222.166 -0.31 +0.05    -0.268 OA 
DOCKED: ATOM      7  H   UNL     1     140.645  69.755 221.415 +0.05 -0.02    +0.164 HD 
DOCKED: BRANCH   5   8
DOCKED: ATOM      8  C   UNL     1     140.221  70.972 223.705 -0.29 -0.02    +0.128 A  
DOCKED: ATOM      9  C   UNL     1     140.755  71.802 224.668 -0.32 -0.00    +0.035 A  
DOCKED: ATOM     10  N   UNL     1     139.862  69.684 223.976 -0.11 +0.04    -0.243 NA 
DOCKED: ATOM     11  C   UNL     1     140.957  71.377 225.956 -0.63 -0.00    +0.013 A  
DOCKED: ATOM     12  C   UNL     1     140.059  69.264 225.237 -0.36 -0.01    +0.071 A  
DOCKED: ATOM     13  C   UNL     1     140.591  70.058 226.232 -0.54 -0.00    +0.003 A  
DOCKED: ATOM     14  C   UNL     1     139.705  67.965 225.538 -0.49 -0.00    +0.032 A  
DOCKED: ATOM     15  C   UNL     1     140.770  69.574 227.511 -0.56 -0.01    +0.049 A  
DOCKED: ATOM     16  C   UNL     1     139.875  67.447 226.824 -0.58 -0.01    +0.041 A  
DOCKED: ATOM     17  C   UNL     1     140.410  68.264 227.807 -0.55 -0.03    +0.123 A  
DOCKED: ATOM     18  F   UNL     1     140.576  67.758 229.062 -0.12 +0.06    -0.207 F  
DOCKED: ENDBRANCH   5   8
DOCKED: ENDBRANCH   3   4
DOCKED: ENDBRANCH   1   3
DOCKED: BRANCH   1  19
DOCKED: ATOM     19  N   UNL     1     142.010  72.944 219.306 -0.01 +0.06    -0.334 N  
DOCKED: BRANCH  19  20
DOCKED: ATOM     20  C   UNL     1     142.884  73.126 218.183 -0.06 -0.02    +0.120 C  
DOCKED: BRANCH  20  21
DOCKED: ATOM     21  C   UNL     1     143.737  71.872 217.959 -0.08 -0.00    +0.022 C  
DOCKED: BRANCH  21  22
DOCKED: ATOM     22  C   UNL     1     144.775  71.696 219.046 -0.26 +0.00    +0.002 C  
DOCKED: BRANCH  22  23
DOCKED: ATOM     23  C   UNL     1     144.173  71.771 220.416 -0.29 -0.00    +0.003 CG0
DOCKED: ATOM     24  G   UNL     1     143.857  73.207 220.808 +0.00 +0.00    +0.000 G0 
DOCKED: ENDBRANCH  22  23
DOCKED: ENDBRANCH  21  22
DOCKED: ENDBRANCH  20  21
DOCKED: ENDBRANCH  19  20
DOCKED: BRANCH  19  25
DOCKED: ATOM     25  C   UNL     1     142.383  73.430 220.667 -0.22 -0.02    +0.115 C  
DOCKED: BRANCH  25  26
DOCKED: ATOM     26  C   UNL     1     143.862  73.207 220.799 -0.33 -0.01    +0.030 CG0
DOCKED: ATOM     27  G   UNL     1     144.173  71.768 220.414 +0.00 +0.00    +0.000 G0 
DOCKED: ENDBRANCH  25  26
DOCKED: BRANCH  25  28
DOCKED: ATOM     28  C   UNL     1     142.018  74.868 220.790 -0.30 +0.01    -0.025 A  
DOCKED: ATOM     29  C   UNL     1     141.062  75.330 221.671 -0.34 -0.00    +0.007 A  
DOCKED: ATOM     30  C   UNL     1     142.708  75.749 219.948 -0.33 -0.00    +0.007 A  
DOCKED: ATOM     31  C   UNL     1     140.795  76.698 221.710 -0.36 -0.01    +0.021 A  
DOCKED: ATOM     32  C   UNL     1     142.396  77.101 220.034 -0.31 -0.01    +0.021 A  
DOCKED: ATOM     33  C   UNL     1     141.448  77.585 220.904 -0.30 -0.02    +0.041 A  
DOCKED: ATOM     34  Cl  UNL     1     141.093  79.304 220.971 -0.37 +0.03    -0.084 Cl 
DOCKED: ENDBRANCH  25  28
DOCKED: ENDBRANCH  19  25
DOCKED: ENDBRANCH   1  19
DOCKED: TORSDOF 5
DOCKED: TER
DOCKED: ENDMDL
________________________________________________________________________________


    FINAL DOCKED STATE:
    ________________________


Run:   11 / 20
Time taken for this run:   0.047s

DOCKED: MODEL        11
DOCKED: USER    Run = 11
DOCKED: USER
DOCKED: USER    Estimated Free Energy of Binding    =  -4.59 kcal/mol  [=(1)+(2)+(3)-(4)]
DOCKED: USER
DOCKED: USER    (1) Final Intermolecular Energy     =  -7.88 kcal/mol
DOCKED: USER        vdW + Hbond + desolv Energy     =  -9.04 kcal/mol
DOCKED: USER        Electrostatic Energy            =  -0.11 kcal/mol
DOCKED: USER        Moving Ligand-Fixed Receptor    =  -9.15 kcal/mol
DOCKED: USER        Moving Ligand-Moving Receptor   =  +1.28 kcal/mol
DOCKED: USER    (2) Final Total Internal Energy     =  -1.91 kcal/mol
DOCKED: USER    (3) Torsional Free Energy           =  +3.28 kcal/mol
DOCKED: USER    (4) Unbound System's Energy         =  -1.91 kcal/mol
DOCKED: USER
DOCKED: USER
DOCKED: REMARK SMILES O=C(NCC(=O)N1CCCCC[C@H]1c1ccc(Cl)cc1)c1ccc2cc(F)ccc2n1
DOCKED: REMARK SMILES IDX 5 1 6 2 4 3 3 4 2 5 1 6 21 8 22 9 31 10 23 11 30 12 24 13
DOCKED: REMARK SMILES IDX 29 14 25 15 28 16 26 17 27 18 7 19 8 20 9 21 10 22 11 23
DOCKED: REMARK SMILES IDX 13 25 12 26 14 28 15 29 20 30 16 31 19 32 17 33 18 34
DOCKED: REMARK H PARENT 3 7
DOCKED: REMARK Flexibility Score:   84.900
DOCKED: USER                              x       y       z     vdW  Elec       q    Type
DOCKED: USER                           _______ _______ _______ _____ _____    ______ ____
DOCKED: ROOT
DOCKED: ATOM      1  C   UNL     1     139.974  74.720 220.359 -0.09 -0.05    +0.242 C  
DOCKED: ATOM      2  O   UNL     1     139.899  74.164 219.144 -0.02 +0.06    -0.273 OA 
DOCKED: ENDROOT
DOCKED: BRANCH   1   3
DOCKED: ATOM      3  C   UNL     1     138.902  74.257 221.203 -0.14 -0.05    +0.216 C  
DOCKED: BRANCH   3   4
DOCKED: ATOM      4  N   UNL     1     139.034  73.321 222.233 -0.08 +0.09    -0.342 N  
DOCKED: ATOM      5  C   UNL     1     140.053  72.343 222.397 -0.21 -0.04    +0.270 C  
DOCKED: ATOM      6  O   UNL     1     140.950  72.309 221.509 -0.18 +0.03    -0.268 OA 
DOCKED: ATOM      7  H   UNL     1     138.296  73.313 223.007 -0.50 -0.10    +0.164 HD 
DOCKED: BRANCH   5   8
DOCKED: ATOM      8  C   UNL     1     140.048  71.429 223.543 -0.32 -0.02    +0.128 A  
DOCKED: ATOM      9  C   UNL     1     139.513  70.174 223.346 -0.26 -0.01    +0.035 A  
DOCKED: ATOM     10  N   UNL     1     140.558  71.820 224.745 -0.28 +0.04    -0.243 NA 
DOCKED: ATOM     11  C   UNL     1     139.464  69.245 224.354 -0.31 -0.00    +0.013 A  
DOCKED: ATOM     12  C   UNL     1     140.511  70.913 225.735 -0.53 -0.01    +0.071 A  
DOCKED: ATOM     13  C   UNL     1     139.986  69.646 225.586 -0.45 -0.00    +0.003 A  
DOCKED: ATOM     14  C   UNL     1     141.021  71.282 226.963 -0.69 -0.01    +0.032 A  
DOCKED: ATOM     15  C   UNL     1     139.964  68.754 226.637 -0.55 -0.01    +0.049 A  
DOCKED: ATOM     16  C   UNL     1     141.013  70.400 228.046 -0.58 -0.01    +0.041 A  
DOCKED: ATOM     17  C   UNL     1     140.480  69.134 227.871 -0.53 -0.02    +0.123 A  
DOCKED: ATOM     18  F   UNL     1     140.472  68.273 228.929 -0.18 +0.05    -0.207 F  
DOCKED: ENDBRANCH   5   8
DOCKED: ENDBRANCH   3   4
DOCKED: ENDBRANCH   1   3
DOCKED: BRANCH   1  19
DOCKED: ATOM     19  N   UNL     1     141.050  75.580 220.490 -0.09 +0.11    -0.334 N  
DOCKED: BRANCH  19  20
DOCKED: ATOM     20  C   UNL     1     141.302  76.461 221.595 -0.13 -0.05    +0.120 C  
DOCKED: BRANCH  20  21
DOCKED: ATOM     21  C   UNL     1     140.950  77.905 221.221 -0.31 -0.01    +0.022 C  
DOCKED: BRANCH  21  22
DOCKED: ATOM     22  C   UNL     1     140.815  78.081 219.724 -0.19 -0.00    +0.002 C  
DOCKED: BRANCH  22  23
DOCKED: ATOM     23  C   UNL     1     142.131  77.955 219.021 -0.30 -0.00    +0.003 CG0
DOCKED: ATOM     24  G   UNL     1     142.871  76.696 219.447 +0.00 +0.00    +0.000 G0 
DOCKED: ENDBRANCH  22  23
DOCKED: ENDBRANCH  21  22
DOCKED: ENDBRANCH  20  21
DOCKED: ENDBRANCH  19  20
DOCKED: BRANCH  19  25
DOCKED: ATOM     25  C   UNL     1     141.974  75.519 219.320 -0.17 -0.05    +0.115 C  
DOCKED: BRANCH  25  26
DOCKED: ATOM     26  C   UNL     1     142.888  76.703 219.446 -0.36 -0.02    +0.030 CG0
DOCKED: ATOM     27  G   UNL     1     142.127  77.952 219.027 +0.00 +0.00    +0.000 G0 
DOCKED: ENDBRANCH  25  26
DOCKED: BRANCH  25  28
DOCKED: ATOM     28  C   UNL     1     142.718  74.229 219.350 -0.20 +0.01    -0.025 A  
DOCKED: ATOM     29  C   UNL     1     143.473  73.820 220.429 -0.36 -0.00    +0.007 A  
DOCKED: ATOM     30  C   UNL     1     142.611  73.434 218.202 -0.08 -0.00    +0.007 A  
DOCKED: ATOM     31  C   UNL     1     144.131  72.593 220.356 -0.36 -0.00    +0.021 A  
DOCKED: ATOM     32  C   UNL     1     143.290  72.221 218.191 -0.08 -0.00    +0.021 A  
DOCKED: ATOM     33  C   UNL     1     144.049  71.792 219.254 -0.20 +0.00    +0.041 A  
DOCKED: ATOM     34  Cl  UNL     1     144.887  70.251 219.187 -0.32 -0.02    -0.084 Cl 
DOCKED: ENDBRANCH  25  28
DOCKED: ENDBRANCH  19  25
DOCKED: ENDBRANCH   1  19
DOCKED: TORSDOF 5
DOCKED: TER
DOCKED: ENDMDL
________________________________________________________________________________


    FINAL DOCKED STATE:
    ________________________


Run:   12 / 20
Time taken for this run:   0.047s

DOCKED: MODEL        12
DOCKED: USER    Run = 12
DOCKED: USER
DOCKED: USER    Estimated Free Energy of Binding    =  -5.93 kcal/mol  [=(1)+(2)+(3)-(4)]
DOCKED: USER
DOCKED: USER    (1) Final Intermolecular Energy     =  -9.21 kcal/mol
DOCKED: USER        vdW + Hbond + desolv Energy     =  -9.39 kcal/mol
DOCKED: USER        Electrostatic Energy            =  -0.08 kcal/mol
DOCKED: USER        Moving Ligand-Fixed Receptor    =  -9.48 kcal/mol
DOCKED: USER        Moving Ligand-Moving Receptor   =  +0.27 kcal/mol
DOCKED: USER    (2) Final Total Internal Energy     =  -1.91 kcal/mol
DOCKED: USER    (3) Torsional Free Energy           =  +3.28 kcal/mol
DOCKED: USER    (4) Unbound System's Energy         =  -1.91 kcal/mol
DOCKED: USER
DOCKED: USER
DOCKED: REMARK SMILES O=C(NCC(=O)N1CCCCC[C@H]1c1ccc(Cl)cc1)c1ccc2cc(F)ccc2n1
DOCKED: REMARK SMILES IDX 5 1 6 2 4 3 3 4 2 5 1 6 21 8 22 9 31 10 23 11 30 12 24 13
DOCKED: REMARK SMILES IDX 29 14 25 15 28 16 26 17 27 18 7 19 8 20 9 21 10 22 11 23
DOCKED: REMARK SMILES IDX 13 25 12 26 14 28 15 29 20 30 16 31 19 32 17 33 18 34
DOCKED: REMARK H PARENT 3 7
DOCKED: REMARK Flexibility Score:   84.900
DOCKED: USER                              x       y       z     vdW  Elec       q    Type
DOCKED: USER                           _______ _______ _______ _____ _____    ______ ____
DOCKED: ROOT
DOCKED: ATOM      1  C   UNL     1     138.949  75.436 220.742 -0.09 -0.05    +0.242 C  
DOCKED: ATOM      2  O   UNL     1     138.252  76.218 219.910 -0.02 +0.06    -0.273 OA 
DOCKED: ENDROOT
DOCKED: BRANCH   1   3
DOCKED: ATOM      3  C   UNL     1     138.201  74.253 221.084 -0.10 -0.05    +0.216 C  
DOCKED: BRANCH   3   4
DOCKED: ATOM      4  N   UNL     1     138.505  73.382 222.134 -0.05 +0.11    -0.342 N  
DOCKED: ATOM      5  C   UNL     1     139.400  72.278 222.120 -0.17 -0.05    +0.270 C  
DOCKED: ATOM      6  O   UNL     1     139.995  72.048 221.029 -0.09 +0.04    -0.268 OA 
DOCKED: ATOM      7  H   UNL     1     138.023  73.538 223.076 -0.52 -0.12    +0.164 HD 
DOCKED: BRANCH   5   8
DOCKED: ATOM      8  C   UNL     1     139.610  71.457 223.316 -0.29 -0.03    +0.128 A  
DOCKED: ATOM      9  C   UNL     1     139.265  70.125 223.235 -0.24 -0.01    +0.035 A  
DOCKED: ATOM     10  N   UNL     1     140.128  72.005 224.451 -0.11 +0.05    -0.243 NA 
DOCKED: ATOM     11  C   UNL     1     139.424  69.273 224.298 -0.31 -0.00    +0.013 A  
DOCKED: ATOM     12  C   UNL     1     140.285  71.173 225.495 -0.50 -0.01    +0.071 A  
DOCKED: ATOM     13  C   UNL     1     139.955  69.834 225.462 -0.45 -0.00    +0.003 A  
DOCKED: ATOM     14  C   UNL     1     140.809  71.701 226.658 -0.68 -0.01    +0.032 A  
DOCKED: ATOM     15  C   UNL     1     140.138  69.026 226.563 -0.52 -0.01    +0.049 A  
DOCKED: ATOM     16  C   UNL     1     141.006  70.908 227.789 -0.66 -0.01    +0.041 A  
DOCKED: ATOM     17  C   UNL     1     140.666  69.566 227.731 -0.51 -0.02    +0.123 A  
DOCKED: ATOM     18  F   UNL     1     140.859  68.791 228.837 -0.16 +0.05    -0.207 F  
DOCKED: ENDBRANCH   5   8
DOCKED: ENDBRANCH   3   4
DOCKED: ENDBRANCH   1   3
DOCKED: BRANCH   1  19
DOCKED: ATOM     19  N   UNL     1     140.194  75.956 221.050 -0.11 +0.09    -0.334 N  
DOCKED: BRANCH  19  20
DOCKED: ATOM     20  C   UNL     1     140.643  76.367 222.350 -0.31 -0.03    +0.120 C  
DOCKED: BRANCH  20  21
DOCKED: ATOM     21  C   UNL     1     140.100  77.760 222.690 -0.35 -0.01    +0.022 C  
DOCKED: BRANCH  21  22
DOCKED: ATOM     22  C   UNL     1     140.490  78.785 221.647 -0.31 -0.00    +0.002 C  
DOCKED: BRANCH  22  23
DOCKED: ATOM     23  C   UNL     1     140.181  78.319 220.257 -0.16 -0.00    +0.003 CG0
DOCKED: ATOM     24  G   UNL     1     141.342  77.536 219.662 +0.00 +0.00    +0.000 G0 
DOCKED: ENDBRANCH  22  23
DOCKED: ENDBRANCH  21  22
DOCKED: ENDBRANCH  20  21
DOCKED: ENDBRANCH  19  20
DOCKED: BRANCH  19  25
DOCKED: ATOM     25  C   UNL     1     141.077  76.069 219.853 -0.15 -0.04    +0.115 C  
DOCKED: BRANCH  25  26
DOCKED: ATOM     26  C   UNL     1     141.339  77.535 219.663 -0.22 -0.01    +0.030 CG0
DOCKED: ATOM     27  G   UNL     1     140.179  78.319 220.259 +0.00 +0.00    +0.000 G0 
DOCKED: ENDBRANCH  25  26
DOCKED: BRANCH  25  28
DOCKED: ATOM     28  C   UNL     1     142.329  75.300 220.093 -0.29 +0.01    -0.025 A  
DOCKED: ATOM     29  C   UNL     1     143.580  75.881 220.100 -0.25 -0.00    +0.007 A  
DOCKED: ATOM     30  C   UNL     1     142.170  73.927 220.316 -0.25 -0.00    +0.007 A  
DOCKED: ATOM     31  C   UNL     1     144.690  75.071 220.335 -0.17 -0.01    +0.021 A  
DOCKED: ATOM     32  C   UNL     1     143.316  73.173 220.545 -0.31 -0.00    +0.021 A  
DOCKED: ATOM     33  C   UNL     1     144.573  73.729 220.557 -0.48 -0.01    +0.041 A  
DOCKED: ATOM     34  Cl  UNL     1     145.987  72.731 220.851 -0.57 +0.00    -0.084 Cl 
DOCKED: ENDBRANCH  25  28
DOCKED: ENDBRANCH  19  25
DOCKED: ENDBRANCH   1  19
DOCKED: TORSDOF 5
DOCKED: TER
DOCKED: ENDMDL
________________________________________________________________________________


    FINAL DOCKED STATE:
    ________________________


Run:   13 / 20
Time taken for this run:   0.047s

DOCKED: MODEL        13
DOCKED: USER    Run = 13
DOCKED: USER
DOCKED: USER    Estimated Free Energy of Binding    =  -5.86 kcal/mol  [=(1)+(2)+(3)-(4)]
DOCKED: USER
DOCKED: USER    (1) Final Intermolecular Energy     =  -9.14 kcal/mol
DOCKED: USER        vdW + Hbond + desolv Energy     =  -9.45 kcal/mol
DOCKED: USER        Electrostatic Energy            =  -0.08 kcal/mol
DOCKED: USER        Moving Ligand-Fixed Receptor    =  -9.53 kcal/mol
DOCKED: USER        Moving Ligand-Moving Receptor   =  +0.38 kcal/mol
DOCKED: USER    (2) Final Total Internal Energy     =  -1.80 kcal/mol
DOCKED: USER    (3) Torsional Free Energy           =  +3.28 kcal/mol
DOCKED: USER    (4) Unbound System's Energy         =  -1.80 kcal/mol
DOCKED: USER
DOCKED: USER
DOCKED: REMARK SMILES O=C(NCC(=O)N1CCCCC[C@H]1c1ccc(Cl)cc1)c1ccc2cc(F)ccc2n1
DOCKED: REMARK SMILES IDX 5 1 6 2 4 3 3 4 2 5 1 6 21 8 22 9 31 10 23 11 30 12 24 13
DOCKED: REMARK SMILES IDX 29 14 25 15 28 16 26 17 27 18 7 19 8 20 9 21 10 22 11 23
DOCKED: REMARK SMILES IDX 13 25 12 26 14 28 15 29 20 30 16 31 19 32 17 33 18 34
DOCKED: REMARK H PARENT 3 7
DOCKED: REMARK Flexibility Score:   84.900
DOCKED: USER                              x       y       z     vdW  Elec       q    Type
DOCKED: USER                           _______ _______ _______ _____ _____    ______ ____
DOCKED: ROOT
DOCKED: ATOM      1  C   UNL     1     138.823  74.278 220.358 -0.06 -0.05    +0.242 C  
DOCKED: ATOM      2  O   UNL     1     138.974  73.956 219.068 -0.01 +0.06    -0.273 OA 
DOCKED: ENDROOT
DOCKED: BRANCH   1   3
DOCKED: ATOM      3  C   UNL     1     138.132  73.234 221.071 -0.08 -0.05    +0.216 C  
DOCKED: BRANCH   3   4
DOCKED: ATOM      4  N   UNL     1     138.571  72.644 222.260 -0.09 +0.10    -0.342 N  
DOCKED: ATOM      5  C   UNL     1     139.554  71.629 222.418 -0.18 -0.05    +0.270 C  
DOCKED: ATOM      6  O   UNL     1     140.100  71.203 221.361 -0.10 +0.04    -0.268 OA 
DOCKED: ATOM      7  H   UNL     1     138.135  72.973 223.179 -0.47 -0.10    +0.164 HD 
DOCKED: BRANCH   5   8
DOCKED: ATOM      8  C   UNL     1     139.903  71.113 223.744 -0.33 -0.02    +0.128 A  
DOCKED: ATOM      9  C   UNL     1     140.655  71.930 224.561 -0.26 -0.00    +0.035 A  
DOCKED: ATOM     10  N   UNL     1     139.491  69.874 224.138 -0.17 +0.04    -0.243 NA 
DOCKED: ATOM     11  C   UNL     1     141.032  71.541 225.821 -0.62 -0.00    +0.013 A  
DOCKED: ATOM     12  C   UNL     1     139.859  69.489 225.371 -0.39 -0.01    +0.071 A  
DOCKED: ATOM     13  C   UNL     1     140.610  70.271 226.224 -0.56 -0.00    +0.003 A  
DOCKED: ATOM     14  C   UNL     1     139.455  68.240 225.796 -0.52 -0.00    +0.032 A  
DOCKED: ATOM     15  C   UNL     1     140.959  69.825 227.481 -0.55 -0.01    +0.049 A  
DOCKED: ATOM     16  C   UNL     1     139.793  67.761 227.063 -0.60 -0.01    +0.041 A  
DOCKED: ATOM     17  C   UNL     1     140.548  68.565 227.901 -0.56 -0.03    +0.123 A  
DOCKED: ATOM     18  F   UNL     1     140.877  68.097 229.139 -0.17 +0.05    -0.207 F  
DOCKED: ENDBRANCH   5   8
DOCKED: ENDBRANCH   3   4
DOCKED: ENDBRANCH   1   3
DOCKED: BRANCH   1  19
DOCKED: ATOM     19  N   UNL     1     139.367  75.512 220.669 -0.05 +0.08    -0.334 N  
DOCKED: BRANCH  19  20
DOCKED: ATOM     20  C   UNL     1     139.062  76.305 221.826 -0.25 -0.03    +0.120 C  
DOCKED: BRANCH  20  21
DOCKED: ATOM     21  C   UNL     1     140.326  76.546 222.660 -0.18 -0.00    +0.022 C  
DOCKED: BRANCH  21  22
DOCKED: ATOM     22  C   UNL     1     141.041  77.813 222.245 -0.44 -0.00    +0.002 C  
DOCKED: BRANCH  22  23
DOCKED: ATOM     23  C   UNL     1     141.585  77.722 220.852 -0.32 -0.00    +0.003 CG0
DOCKED: ATOM     24  G   UNL     1     140.481  77.458 219.839 +0.00 +0.00    +0.000 G0 
DOCKED: ENDBRANCH  22  23
DOCKED: ENDBRANCH  21  22
DOCKED: ENDBRANCH  20  21
DOCKED: ENDBRANCH  19  20
DOCKED: BRANCH  19  25
DOCKED: ATOM     25  C   UNL     1     140.344  75.980 219.643 -0.09 -0.03    +0.115 C  
DOCKED: BRANCH  25  26
DOCKED: ATOM     26  C   UNL     1     140.479  77.462 219.839 -0.15 -0.01    +0.030 CG0
DOCKED: ATOM     27  G   UNL     1     141.585  77.722 220.850 +0.00 +0.00    +0.000 G0 
DOCKED: ENDBRANCH  25  26
DOCKED: BRANCH  25  28
DOCKED: ATOM     28  C   UNL     1     141.636  75.267 219.837 -0.20 +0.01    -0.025 A  
DOCKED: ATOM     29  C   UNL     1     141.834  74.318 220.819 -0.29 -0.00    +0.007 A  
DOCKED: ATOM     30  C   UNL     1     142.666  75.616 218.955 -0.26 -0.00    +0.007 A  
DOCKED: ATOM     31  C   UNL     1     143.084  73.708 220.916 -0.17 -0.00    +0.021 A  
DOCKED: ATOM     32  C   UNL     1     143.890  74.972 219.103 -0.25 -0.01    +0.021 A  
DOCKED: ATOM     33  C   UNL     1     144.110  74.024 220.073 -0.39 -0.01    +0.041 A  
DOCKED: ATOM     34  Cl  UNL     1     145.675  73.241 220.216 -0.73 -0.00    -0.084 Cl 
DOCKED: ENDBRANCH  25  28
DOCKED: ENDBRANCH  19  25
DOCKED: ENDBRANCH   1  19
DOCKED: TORSDOF 5
DOCKED: TER
DOCKED: ENDMDL
________________________________________________________________________________


    FINAL DOCKED STATE:
    ________________________


Run:   14 / 20
Time taken for this run:   0.047s

DOCKED: MODEL        14
DOCKED: USER    Run = 14
DOCKED: USER
DOCKED: USER    Estimated Free Energy of Binding    =  -6.47 kcal/mol  [=(1)+(2)+(3)-(4)]
DOCKED: USER
DOCKED: USER    (1) Final Intermolecular Energy     =  -9.75 kcal/mol
DOCKED: USER        vdW + Hbond + desolv Energy     =  -9.95 kcal/mol
DOCKED: USER        Electrostatic Energy            =  +0.01 kcal/mol
DOCKED: USER        Moving Ligand-Fixed Receptor    =  -9.94 kcal/mol
DOCKED: USER        Moving Ligand-Moving Receptor   =  +0.20 kcal/mol
DOCKED: USER    (2) Final Total Internal Energy     =  -1.53 kcal/mol
DOCKED: USER    (3) Torsional Free Energy           =  +3.28 kcal/mol
DOCKED: USER    (4) Unbound System's Energy         =  -1.53 kcal/mol
DOCKED: USER
DOCKED: USER
DOCKED: REMARK SMILES O=C(NCC(=O)N1CCCCC[C@H]1c1ccc(Cl)cc1)c1ccc2cc(F)ccc2n1
DOCKED: REMARK SMILES IDX 5 1 6 2 4 3 3 4 2 5 1 6 21 8 22 9 31 10 23 11 30 12 24 13
DOCKED: REMARK SMILES IDX 29 14 25 15 28 16 26 17 27 18 7 19 8 20 9 21 10 22 11 23
DOCKED: REMARK SMILES IDX 13 25 12 26 14 28 15 29 20 30 16 31 19 32 17 33 18 34
DOCKED: REMARK H PARENT 3 7
DOCKED: REMARK Flexibility Score:   84.900
DOCKED: USER                              x       y       z     vdW  Elec       q    Type
DOCKED: USER                           _______ _______ _______ _____ _____    ______ ____
DOCKED: ROOT
DOCKED: ATOM      1  C   UNL     1     140.181  74.617 221.611 -0.21 -0.04    +0.242 C  
DOCKED: ATOM      2  O   UNL     1     141.488  74.358 221.485 -0.34 +0.04    -0.273 OA 
DOCKED: ENDROOT
DOCKED: BRANCH   1   3
DOCKED: ATOM      3  C   UNL     1     139.436  73.405 221.833 -0.18 -0.04    +0.216 C  
DOCKED: BRANCH   3   4
DOCKED: ATOM      4  N   UNL     1     139.687  72.479 222.849 -0.14 +0.07    -0.342 N  
DOCKED: ATOM      5  C   UNL     1     138.802  71.497 223.372 -0.15 -0.07    +0.270 C  
DOCKED: ATOM      6  O   UNL     1     137.647  71.450 222.863 -0.12 +0.07    -0.268 OA 
DOCKED: ATOM      7  H   UNL     1     140.652  72.483 223.310 +0.03 -0.00    +0.164 HD 
DOCKED: BRANCH   5   8
DOCKED: ATOM      8  C   UNL     1     139.223  70.594 224.447 -0.31 -0.02    +0.128 A  
DOCKED: ATOM      9  C   UNL     1     138.860  69.268 224.336 -0.32 -0.00    +0.035 A  
DOCKED: ATOM     10  N   UNL     1     139.945  71.062 225.504 -0.30 +0.04    -0.243 NA 
DOCKED: ATOM     11  C   UNL     1     139.206  68.343 225.288 -0.46 -0.00    +0.013 A  
DOCKED: ATOM     12  C   UNL     1     140.286  70.159 226.439 -0.49 -0.01    +0.071 A  
DOCKED: ATOM     13  C   UNL     1     139.945  68.824 226.371 -0.55 -0.00    +0.003 A  
DOCKED: ATOM     14  C   UNL     1     141.018  70.605 227.520 -0.62 -0.01    +0.032 A  
DOCKED: ATOM     15  C   UNL     1     140.323  67.940 227.360 -0.59 -0.01    +0.049 A  
DOCKED: ATOM     16  C   UNL     1     141.415  69.734 228.536 -0.33 -0.01    +0.041 A  
DOCKED: ATOM     17  C   UNL     1     141.060  68.398 228.446 -0.54 -0.03    +0.123 A  
DOCKED: ATOM     18  F   UNL     1     141.449  67.547 229.438 -0.17 +0.06    -0.207 F  
DOCKED: ENDBRANCH   5   8
DOCKED: ENDBRANCH   3   4
DOCKED: ENDBRANCH   1   3
DOCKED: BRANCH   1  19
DOCKED: ATOM     19  N   UNL     1     139.889  75.966 221.502 -0.15 +0.08    -0.334 N  
DOCKED: BRANCH  19  20
DOCKED: ATOM     20  C   UNL     1     138.709  76.620 221.992 -0.24 -0.03    +0.120 C  
DOCKED: BRANCH  20  21
DOCKED: ATOM     21  C   UNL     1     137.540  76.417 221.022 -0.11 -0.00    +0.022 C  
DOCKED: BRANCH  21  22
DOCKED: ATOM     22  C   UNL     1     137.907  76.816 219.609 -0.03 -0.00    +0.002 C  
DOCKED: BRANCH  22  23
DOCKED: ATOM     23  C   UNL     1     139.193  76.192 219.163 -0.04 -0.00    +0.003 CG0
DOCKED: ATOM     24  G   UNL     1     140.381  77.097 219.451 +0.00 +0.00    +0.000 G0 
DOCKED: ENDBRANCH  22  23
DOCKED: ENDBRANCH  21  22
DOCKED: ENDBRANCH  20  21
DOCKED: ENDBRANCH  19  20
DOCKED: BRANCH  19  25
DOCKED: ATOM     25  C   UNL     1     140.957  76.725 220.788 -0.24 -0.05    +0.115 C  
DOCKED: BRANCH  25  26
DOCKED: ATOM     26  C   UNL     1     140.381  77.098 219.452 -0.11 -0.01    +0.030 CG0
DOCKED: ATOM     27  G   UNL     1     139.193  76.194 219.163 +0.00 +0.00    +0.000 G0 
DOCKED: ENDBRANCH  25  26
DOCKED: BRANCH  25  28
DOCKED: ATOM     28  C   UNL     1     141.331  77.919 221.593 -0.35 +0.01    -0.025 A  
DOCKED: ATOM     29  C   UNL     1     141.633  79.143 221.031 -0.35 -0.00    +0.007 A  
DOCKED: ATOM     30  C   UNL     1     141.362  77.737 222.981 -0.39 -0.00    +0.007 A  
DOCKED: ATOM     31  C   UNL     1     141.972  80.200 221.874 -0.46 -0.01    +0.021 A  
DOCKED: ATOM     32  C   UNL     1     141.707  78.830 223.768 -0.60 -0.01    +0.021 A  
DOCKED: ATOM     33  C   UNL     1     142.012  80.057 223.232 -0.58 -0.01    +0.041 A  
DOCKED: ATOM     34  Cl  UNL     1     142.442  81.405 224.272 -0.50 +0.01    -0.084 Cl 
DOCKED: ENDBRANCH  25  28
DOCKED: ENDBRANCH  19  25
DOCKED: ENDBRANCH   1  19
DOCKED: TORSDOF 5
DOCKED: TER
DOCKED: ENDMDL
________________________________________________________________________________


    FINAL DOCKED STATE:
    ________________________


Run:   15 / 20
Time taken for this run:   0.047s

DOCKED: MODEL        15
DOCKED: USER    Run = 15
DOCKED: USER
DOCKED: USER    Estimated Free Energy of Binding    =  -6.51 kcal/mol  [=(1)+(2)+(3)-(4)]
DOCKED: USER
DOCKED: USER    (1) Final Intermolecular Energy     =  -9.79 kcal/mol
DOCKED: USER        vdW + Hbond + desolv Energy     =  -9.81 kcal/mol
DOCKED: USER        Electrostatic Energy            =  -0.07 kcal/mol
DOCKED: USER        Moving Ligand-Fixed Receptor    =  -9.88 kcal/mol
DOCKED: USER        Moving Ligand-Moving Receptor   =  +0.09 kcal/mol
DOCKED: USER    (2) Final Total Internal Energy     =  -1.54 kcal/mol
DOCKED: USER    (3) Torsional Free Energy           =  +3.28 kcal/mol
DOCKED: USER    (4) Unbound System's Energy         =  -1.54 kcal/mol
DOCKED: USER
DOCKED: USER
DOCKED: REMARK SMILES O=C(NCC(=O)N1CCCCC[C@H]1c1ccc(Cl)cc1)c1ccc2cc(F)ccc2n1
DOCKED: REMARK SMILES IDX 5 1 6 2 4 3 3 4 2 5 1 6 21 8 22 9 31 10 23 11 30 12 24 13
DOCKED: REMARK SMILES IDX 29 14 25 15 28 16 26 17 27 18 7 19 8 20 9 21 10 22 11 23
DOCKED: REMARK SMILES IDX 13 25 12 26 14 28 15 29 20 30 16 31 19 32 17 33 18 34
DOCKED: REMARK H PARENT 3 7
DOCKED: REMARK Flexibility Score:   84.900
DOCKED: USER                              x       y       z     vdW  Elec       q    Type
DOCKED: USER                           _______ _______ _______ _____ _____    ______ ____
DOCKED: ROOT
DOCKED: ATOM      1  C   UNL     1     138.990  75.023 221.210 -0.14 -0.05    +0.242 C  
DOCKED: ATOM      2  O   UNL     1     137.823  75.246 221.826 -0.14 +0.07    -0.273 OA 
DOCKED: ENDROOT
DOCKED: BRANCH   1   3
DOCKED: ATOM      3  C   UNL     1     139.384  73.643 221.340 -0.16 -0.04    +0.216 C  
DOCKED: BRANCH   3   4
DOCKED: ATOM      4  N   UNL     1     139.564  72.967 222.550 -0.11 +0.07    -0.342 N  
DOCKED: ATOM      5  C   UNL     1     140.151  71.689 222.755 -0.22 -0.04    +0.270 C  
DOCKED: ATOM      6  O   UNL     1     140.562  71.084 221.725 -0.12 +0.03    -0.268 OA 
DOCKED: ATOM      7  H   UNL     1     139.230  73.441 223.449 -0.45 -0.10    +0.164 HD 
DOCKED: BRANCH   5   8
DOCKED: ATOM      8  C   UNL     1     140.267  71.115 224.099 -0.36 -0.02    +0.128 A  
DOCKED: ATOM      9  C   UNL     1     140.781  71.926 225.089 -0.26 -0.00    +0.035 A  
DOCKED: ATOM     10  N   UNL     1     139.875  69.833 224.343 -0.17 +0.04    -0.243 NA 
DOCKED: ATOM     11  C   UNL     1     140.928  71.484 226.379 -0.68 -0.00    +0.013 A  
DOCKED: ATOM     12  C   UNL     1     140.017  69.397 225.605 -0.41 -0.01    +0.071 A  
DOCKED: ATOM     13  C   UNL     1     140.527  70.170 226.628 -0.57 -0.00    +0.003 A  
DOCKED: ATOM     14  C   UNL     1     139.627  68.101 225.881 -0.55 -0.00    +0.032 A  
DOCKED: ATOM     15  C   UNL     1     140.650  69.670 227.907 -0.58 -0.01    +0.049 A  
DOCKED: ATOM     16  C   UNL     1     139.740  67.568 227.166 -0.44 -0.01    +0.041 A  
DOCKED: ATOM     17  C   UNL     1     140.255  68.365 228.176 -0.52 -0.03    +0.123 A  
DOCKED: ATOM     18  F   UNL     1     140.364  67.843 229.431 -0.08 +0.05    -0.207 F  
DOCKED: ENDBRANCH   5   8
DOCKED: ENDBRANCH   3   4
DOCKED: ENDBRANCH   1   3
DOCKED: BRANCH   1  19
DOCKED: ATOM     19  N   UNL     1     139.506  76.158 220.611 -0.04 +0.08    -0.334 N  
DOCKED: BRANCH  19  20
DOCKED: ATOM     20  C   UNL     1     138.765  77.134 219.863 -0.04 -0.03    +0.120 C  
DOCKED: BRANCH  20  21
DOCKED: ATOM     21  C   UNL     1     138.505  76.633 218.437 -0.02 -0.01    +0.022 C  
DOCKED: BRANCH  21  22
DOCKED: ATOM     22  C   UNL     1     139.793  76.313 217.710 -0.03 -0.00    +0.002 C  
DOCKED: BRANCH  22  23
DOCKED: ATOM     23  C   UNL     1     140.696  75.438 218.523 -0.06 -0.00    +0.003 CG0
DOCKED: ATOM     24  G   UNL     1     141.590  76.259 219.439 +0.00 +0.00    +0.000 G0 
DOCKED: ENDBRANCH  22  23
DOCKED: ENDBRANCH  21  22
DOCKED: ENDBRANCH  20  21
DOCKED: ENDBRANCH  19  20
DOCKED: BRANCH  19  25
DOCKED: ATOM     25  C   UNL     1     140.979  76.289 220.809 -0.24 -0.04    +0.115 C  
DOCKED: BRANCH  25  26
DOCKED: ATOM     26  C   UNL     1     141.591  76.260 219.438 -0.20 -0.01    +0.030 CG0
DOCKED: ATOM     27  G   UNL     1     140.696  75.437 218.523 +0.00 +0.00    +0.000 G0 
DOCKED: ENDBRANCH  25  26
DOCKED: BRANCH  25  28
DOCKED: ATOM     28  C   UNL     1     141.266  77.561 221.527 -0.32 +0.01    -0.025 A  
DOCKED: ATOM     29  C   UNL     1     141.706  78.703 220.889 -0.33 -0.00    +0.007 A  
DOCKED: ATOM     30  C   UNL     1     141.063  77.542 222.912 -0.41 -0.00    +0.007 A  
DOCKED: ATOM     31  C   UNL     1     141.946  79.844 221.654 -0.43 -0.01    +0.021 A  
DOCKED: ATOM     32  C   UNL     1     141.320  78.712 223.618 -0.54 -0.01    +0.021 A  
DOCKED: ATOM     33  C   UNL     1     141.758  79.861 223.006 -0.54 -0.01    +0.041 A  
DOCKED: ATOM     34  Cl  UNL     1     142.067  81.311 223.946 -0.65 +0.01    -0.084 Cl 
DOCKED: ENDBRANCH  25  28
DOCKED: ENDBRANCH  19  25
DOCKED: ENDBRANCH   1  19
DOCKED: TORSDOF 5
DOCKED: TER
DOCKED: ENDMDL
________________________________________________________________________________


    FINAL DOCKED STATE:
    ________________________


Run:   16 / 20
Time taken for this run:   0.047s

DOCKED: MODEL        16
DOCKED: USER    Run = 16
DOCKED: USER
DOCKED: USER    Estimated Free Energy of Binding    =  -5.34 kcal/mol  [=(1)+(2)+(3)-(4)]
DOCKED: USER
DOCKED: USER    (1) Final Intermolecular Energy     =  -8.62 kcal/mol
DOCKED: USER        vdW + Hbond + desolv Energy     =  -8.77 kcal/mol
DOCKED: USER        Electrostatic Energy            =  -0.02 kcal/mol
DOCKED: USER        Moving Ligand-Fixed Receptor    =  -8.79 kcal/mol
DOCKED: USER        Moving Ligand-Moving Receptor   =  +0.17 kcal/mol
DOCKED: USER    (2) Final Total Internal Energy     =  -1.92 kcal/mol
DOCKED: USER    (3) Torsional Free Energy           =  +3.28 kcal/mol
DOCKED: USER    (4) Unbound System's Energy         =  -1.92 kcal/mol
DOCKED: USER
DOCKED: USER
DOCKED: REMARK SMILES O=C(NCC(=O)N1CCCCC[C@H]1c1ccc(Cl)cc1)c1ccc2cc(F)ccc2n1
DOCKED: REMARK SMILES IDX 5 1 6 2 4 3 3 4 2 5 1 6 21 8 22 9 31 10 23 11 30 12 24 13
DOCKED: REMARK SMILES IDX 29 14 25 15 28 16 26 17 27 18 7 19 8 20 9 21 10 22 11 23
DOCKED: REMARK SMILES IDX 13 25 12 26 14 28 15 29 20 30 16 31 19 32 17 33 18 34
DOCKED: REMARK H PARENT 3 7
DOCKED: REMARK Flexibility Score:   84.900
DOCKED: USER                              x       y       z     vdW  Elec       q    Type
DOCKED: USER                           _______ _______ _______ _____ _____    ______ ____
DOCKED: ROOT
DOCKED: ATOM      1  C   UNL     1     139.169  70.855 221.520 -0.09 -0.04    +0.242 C  
DOCKED: ATOM      2  O   UNL     1     138.316  70.612 220.518 -0.02 +0.05    -0.273 OA 
DOCKED: ENDROOT
DOCKED: BRANCH   1   3
DOCKED: ATOM      3  C   UNL     1     140.119  71.873 221.151 -0.12 -0.03    +0.216 C  
DOCKED: BRANCH   3   4
DOCKED: ATOM      4  N   UNL     1     140.041  73.220 221.516 -0.13 +0.05    -0.342 N  
DOCKED: ATOM      5  C   UNL     1     138.872  73.986 221.773 -0.13 -0.07    +0.270 C  
DOCKED: ATOM      6  O   UNL     1     137.766  73.385 221.660 -0.09 +0.07    -0.268 OA 
DOCKED: ATOM      7  H   UNL     1     140.952  73.769 221.622 +0.05 -0.01    +0.164 HD 
DOCKED: BRANCH   5   8
DOCKED: ATOM      8  C   UNL     1     138.960  75.400 222.149 -0.24 -0.03    +0.128 A  
DOCKED: ATOM      9  C   UNL     1     137.775  76.089 222.299 -0.26 -0.01    +0.035 A  
DOCKED: ATOM     10  N   UNL     1     140.173  75.993 222.340 -0.39 +0.04    -0.243 NA 
DOCKED: ATOM     11  C   UNL     1     137.751  77.414 222.651 -0.26 -0.00    +0.013 A  
DOCKED: ATOM     12  C   UNL     1     140.153  77.292 222.683 -0.30 -0.02    +0.071 A  
DOCKED: ATOM     13  C   UNL     1     138.993  78.022 222.845 -0.28 -0.00    +0.003 A  
DOCKED: ATOM     14  C   UNL     1     141.367  77.917 222.884 -0.43 -0.01    +0.032 A  
DOCKED: ATOM     15  C   UNL     1     139.032  79.353 223.200 -0.33 -0.01    +0.049 A  
DOCKED: ATOM     16  C   UNL     1     141.437  79.264 223.244 -0.53 -0.01    +0.041 A  
DOCKED: ATOM     17  C   UNL     1     140.259  79.976 223.400 -0.38 -0.02    +0.123 A  
DOCKED: ATOM     18  F   UNL     1     140.328  81.291 223.752 -0.09 +0.02    -0.207 F  
DOCKED: ENDBRANCH   5   8
DOCKED: ENDBRANCH   3   4
DOCKED: ENDBRANCH   1   3
DOCKED: BRANCH   1  19
DOCKED: ATOM     19  N   UNL     1     138.915  70.081 222.639 -0.07 +0.06    -0.334 N  
DOCKED: BRANCH  19  20
DOCKED: ATOM     20  C   UNL     1     138.965  68.648 222.707 -0.16 -0.02    +0.120 C  
DOCKED: BRANCH  20  21
DOCKED: ATOM     21  C   UNL     1     137.656  68.041 222.187 -0.18 -0.00    +0.022 C  
DOCKED: BRANCH  21  22
DOCKED: ATOM     22  C   UNL     1     136.445  68.699 222.811 -0.15 -0.00    +0.002 C  
DOCKED: BRANCH  22  23
DOCKED: ATOM     23  C   UNL     1     136.497  70.192 222.706 -0.12 -0.00    +0.003 CG0
DOCKED: ATOM     24  G   UNL     1     137.065  70.819 223.969 +0.00 +0.00    +0.000 G0 
DOCKED: ENDBRANCH  22  23
DOCKED: ENDBRANCH  21  22
DOCKED: ENDBRANCH  20  21
DOCKED: ENDBRANCH  19  20
DOCKED: BRANCH  19  25
DOCKED: ATOM     25  C   UNL     1     138.560  70.902 223.832 -0.25 -0.03    +0.115 C  
DOCKED: BRANCH  25  26
DOCKED: ATOM     26  C   UNL     1     137.067  70.818 223.968 -0.21 -0.01    +0.030 CG0
DOCKED: ATOM     27  G   UNL     1     136.497  70.191 222.705 +0.00 +0.00    +0.000 G0 
DOCKED: ENDBRANCH  25  26
DOCKED: BRANCH  25  28
DOCKED: ATOM     28  C   UNL     1     139.264  70.362 225.027 -0.39 +0.00    -0.025 A  
DOCKED: ATOM     29  C   UNL     1     140.471  70.856 225.478 -0.55 -0.00    +0.007 A  
DOCKED: ATOM     30  C   UNL     1     138.629  69.302 225.685 -0.40 -0.00    +0.007 A  
DOCKED: ATOM     31  C   UNL     1     141.048  70.279 226.608 -0.57 -0.00    +0.021 A  
DOCKED: ATOM     32  C   UNL     1     139.255  68.769 226.806 -0.48 -0.00    +0.021 A  
DOCKED: ATOM     33  C   UNL     1     140.456  69.245 227.274 -0.57 -0.01    +0.041 A  
DOCKED: ATOM     34  Cl  UNL     1     141.205  68.535 228.696 -0.65 +0.02    -0.084 Cl 
DOCKED: ENDBRANCH  25  28
DOCKED: ENDBRANCH  19  25
DOCKED: ENDBRANCH   1  19
DOCKED: TORSDOF 5
DOCKED: TER
DOCKED: ENDMDL
________________________________________________________________________________


    FINAL DOCKED STATE:
    ________________________


Run:   17 / 20
Time taken for this run:   0.047s

DOCKED: MODEL        17
DOCKED: USER    Run = 17
DOCKED: USER
DOCKED: USER    Estimated Free Energy of Binding    =  -5.31 kcal/mol  [=(1)+(2)+(3)-(4)]
DOCKED: USER
DOCKED: USER    (1) Final Intermolecular Energy     =  -8.59 kcal/mol
DOCKED: USER        vdW + Hbond + desolv Energy     =  -9.08 kcal/mol
DOCKED: USER        Electrostatic Energy            =  -0.06 kcal/mol
DOCKED: USER        Moving Ligand-Fixed Receptor    =  -9.14 kcal/mol
DOCKED: USER        Moving Ligand-Moving Receptor   =  +0.55 kcal/mol
DOCKED: USER    (2) Final Total Internal Energy     =  -1.76 kcal/mol
DOCKED: USER    (3) Torsional Free Energy           =  +3.28 kcal/mol
DOCKED: USER    (4) Unbound System's Energy         =  -1.76 kcal/mol
DOCKED: USER
DOCKED: USER
DOCKED: REMARK SMILES O=C(NCC(=O)N1CCCCC[C@H]1c1ccc(Cl)cc1)c1ccc2cc(F)ccc2n1
DOCKED: REMARK SMILES IDX 5 1 6 2 4 3 3 4 2 5 1 6 21 8 22 9 31 10 23 11 30 12 24 13
DOCKED: REMARK SMILES IDX 29 14 25 15 28 16 26 17 27 18 7 19 8 20 9 21 10 22 11 23
DOCKED: REMARK SMILES IDX 13 25 12 26 14 28 15 29 20 30 16 31 19 32 17 33 18 34
DOCKED: REMARK H PARENT 3 7
DOCKED: REMARK Flexibility Score:   84.900
DOCKED: USER                              x       y       z     vdW  Elec       q    Type
DOCKED: USER                           _______ _______ _______ _____ _____    ______ ____
DOCKED: ROOT
DOCKED: ATOM      1  C   UNL     1     139.033  74.599 220.095 -0.05 -0.05    +0.242 C  
DOCKED: ATOM      2  O   UNL     1     138.410  75.415 219.237 -0.01 +0.06    -0.273 OA 
DOCKED: ENDROOT
DOCKED: BRANCH   1   3
DOCKED: ATOM      3  C   UNL     1     138.095  74.006 221.014 -0.09 -0.05    +0.216 C  
DOCKED: BRANCH   3   4
DOCKED: ATOM      4  N   UNL     1     138.434  73.182 222.091 -0.07 +0.10    -0.342 N  
DOCKED: ATOM      5  C   UNL     1     139.123  71.939 222.055 -0.14 -0.06    +0.270 C  
DOCKED: ATOM      6  O   UNL     1     139.475  71.522 220.916 -0.06 +0.05    -0.268 OA 
DOCKED: ATOM      7  H   UNL     1     138.154  73.495 223.075 -0.52 -0.12    +0.164 HD 
DOCKED: BRANCH   5   8
DOCKED: ATOM      8  C   UNL     1     139.403  71.192 223.285 -0.27 -0.03    +0.128 A  
DOCKED: ATOM      9  C   UNL     1     139.100  69.847 223.289 -0.24 -0.01    +0.035 A  
DOCKED: ATOM     10  N   UNL     1     139.942  71.817 224.369 -0.22 +0.05    -0.243 NA 
DOCKED: ATOM     11  C   UNL     1     139.326  69.060 224.389 -0.32 -0.00    +0.013 A  
DOCKED: ATOM     12  C   UNL     1     140.164  71.050 225.449 -0.48 -0.01    +0.071 A  
DOCKED: ATOM     13  C   UNL     1     139.878  69.701 225.500 -0.45 -0.00    +0.003 A  
DOCKED: ATOM     14  C   UNL     1     140.711  71.657 226.562 -0.66 -0.01    +0.032 A  
DOCKED: ATOM     15  C   UNL     1     140.128  68.961 226.636 -0.53 -0.01    +0.049 A  
DOCKED: ATOM     16  C   UNL     1     140.975  70.934 227.726 -0.67 -0.01    +0.041 A  
DOCKED: ATOM     17  C   UNL     1     140.678  69.581 227.753 -0.51 -0.02    +0.123 A  
DOCKED: ATOM     18  F   UNL     1     140.937  68.874 228.890 -0.14 +0.04    -0.207 F  
DOCKED: ENDBRANCH   5   8
DOCKED: ENDBRANCH   3   4
DOCKED: ENDBRANCH   1   3
DOCKED: BRANCH   1  19
DOCKED: ATOM     19  N   UNL     1     140.399  74.532 219.877 -0.02 +0.08    -0.334 N  
DOCKED: BRANCH  19  20
DOCKED: ATOM     20  C   UNL     1     141.044  74.177 218.645 -0.04 -0.03    +0.120 C  
DOCKED: BRANCH  20  21
DOCKED: ATOM     21  C   UNL     1     141.827  75.370 218.085 -0.10 -0.01    +0.022 C  
DOCKED: BRANCH  21  22
DOCKED: ATOM     22  C   UNL     1     143.250  75.399 218.598 -0.27 -0.00    +0.002 C  
DOCKED: BRANCH  22  23
DOCKED: ATOM     23  C   UNL     1     143.310  75.582 220.084 -0.31 -0.00    +0.003 CG0
DOCKED: ATOM     24  G   UNL     1     142.593  74.456 220.813 +0.00 +0.00    +0.000 G0 
DOCKED: ENDBRANCH  22  23
DOCKED: ENDBRANCH  21  22
DOCKED: ENDBRANCH  20  21
DOCKED: ENDBRANCH  19  20
DOCKED: BRANCH  19  25
DOCKED: ATOM     25  C   UNL     1     141.188  74.871 221.097 -0.26 -0.03    +0.115 C  
DOCKED: BRANCH  25  26
DOCKED: ATOM     26  C   UNL     1     142.600  74.449 220.811 -0.25 -0.01    +0.030 CG0
DOCKED: ATOM     27  G   UNL     1     143.310  75.582 220.085 +0.00 +0.00    +0.000 G0 
DOCKED: ENDBRANCH  25  26
DOCKED: BRANCH  25  28
DOCKED: ATOM     28  C   UNL     1     141.079  76.332 221.360 -0.33 +0.01    -0.025 A  
DOCKED: ATOM     29  C   UNL     1     140.987  77.274 220.356 -0.23 -0.00    +0.007 A  
DOCKED: ATOM     30  C   UNL     1     141.076  76.713 222.708 -0.31 -0.00    +0.007 A  
DOCKED: ATOM     31  C   UNL     1     140.889  78.619 220.710 -0.25 -0.01    +0.021 A  
DOCKED: ATOM     32  C   UNL     1     140.975  78.069 222.995 -0.46 -0.01    +0.021 A  
DOCKED: ATOM     33  C   UNL     1     140.882  79.026 222.013 -0.34 -0.01    +0.041 A  
DOCKED: ATOM     34  Cl  UNL     1     140.757  80.726 222.432 -0.49 +0.02    -0.084 Cl 
DOCKED: ENDBRANCH  25  28
DOCKED: ENDBRANCH  19  25
DOCKED: ENDBRANCH   1  19
DOCKED: TORSDOF 5
DOCKED: TER
DOCKED: ENDMDL
________________________________________________________________________________


    FINAL DOCKED STATE:
    ________________________


Run:   18 / 20
Time taken for this run:   0.047s

DOCKED: MODEL        18
DOCKED: USER    Run = 18
DOCKED: USER
DOCKED: USER    Estimated Free Energy of Binding    =  -5.17 kcal/mol  [=(1)+(2)+(3)-(4)]
DOCKED: USER
DOCKED: USER    (1) Final Intermolecular Energy     =  -8.45 kcal/mol
DOCKED: USER        vdW + Hbond + desolv Energy     =  -9.42 kcal/mol
DOCKED: USER        Electrostatic Energy            =  -0.04 kcal/mol
DOCKED: USER        Moving Ligand-Fixed Receptor    =  -9.45 kcal/mol
DOCKED: USER        Moving Ligand-Moving Receptor   =  +1.00 kcal/mol
DOCKED: USER    (2) Final Total Internal Energy     =  -2.10 kcal/mol
DOCKED: USER    (3) Torsional Free Energy           =  +3.28 kcal/mol
DOCKED: USER    (4) Unbound System's Energy         =  -2.10 kcal/mol
DOCKED: USER
DOCKED: USER
DOCKED: REMARK SMILES O=C(NCC(=O)N1CCCCC[C@H]1c1ccc(Cl)cc1)c1ccc2cc(F)ccc2n1
DOCKED: REMARK SMILES IDX 5 1 6 2 4 3 3 4 2 5 1 6 21 8 22 9 31 10 23 11 30 12 24 13
DOCKED: REMARK SMILES IDX 29 14 25 15 28 16 26 17 27 18 7 19 8 20 9 21 10 22 11 23
DOCKED: REMARK SMILES IDX 13 25 12 26 14 28 15 29 20 30 16 31 19 32 17 33 18 34
DOCKED: REMARK H PARENT 3 7
DOCKED: REMARK Flexibility Score:   84.900
DOCKED: USER                              x       y       z     vdW  Elec       q    Type
DOCKED: USER                           _______ _______ _______ _____ _____    ______ ____
DOCKED: ROOT
DOCKED: ATOM      1  C   UNL     1     141.323  73.549 218.960 -0.03 -0.05    +0.242 C  
DOCKED: ATOM      2  O   UNL     1     141.019  74.244 217.858 -0.01 +0.07    -0.273 OA 
DOCKED: ENDROOT
DOCKED: BRANCH   1   3
DOCKED: ATOM      3  C   UNL     1     140.131  73.058 219.603 -0.04 -0.04    +0.216 C  
DOCKED: BRANCH   3   4
DOCKED: ATOM      4  N   UNL     1     140.103  72.290 220.771 -0.05 +0.06    -0.342 N  
DOCKED: ATOM      5  C   UNL     1     140.197  72.744 222.115 -0.20 -0.03    +0.270 C  
DOCKED: ATOM      6  O   UNL     1     140.321  73.990 222.282 -0.83 -0.01    -0.268 OA 
DOCKED: ATOM      7  H   UNL     1     140.001  71.230 220.677 +0.04 -0.03    +0.164 HD 
DOCKED: BRANCH   5   8
DOCKED: ATOM      8  C   UNL     1     140.151  71.803 223.238 -0.31 -0.02    +0.128 A  
DOCKED: ATOM      9  C   UNL     1     139.563  70.577 223.009 -0.25 -0.01    +0.035 A  
DOCKED: ATOM     10  N   UNL     1     140.675  72.142 224.450 -0.06 +0.03    -0.243 NA 
DOCKED: ATOM     11  C   UNL     1     139.472  69.626 223.994 -0.29 -0.00    +0.013 A  
DOCKED: ATOM     12  C   UNL     1     140.587  71.213 225.416 -0.52 -0.01    +0.071 A  
DOCKED: ATOM     13  C   UNL     1     140.008  69.974 225.236 -0.44 -0.00    +0.003 A  
DOCKED: ATOM     14  C   UNL     1     141.110  71.530 226.654 -0.70 -0.00    +0.032 A  
DOCKED: ATOM     15  C   UNL     1     139.947  69.058 226.264 -0.49 -0.01    +0.049 A  
DOCKED: ATOM     16  C   UNL     1     141.062  70.623 227.714 -0.61 -0.01    +0.041 A  
DOCKED: ATOM     17  C   UNL     1     140.476  69.385 227.508 -0.51 -0.02    +0.123 A  
DOCKED: ATOM     18  F   UNL     1     140.430  68.499 228.544 -0.19 +0.05    -0.207 F  
DOCKED: ENDBRANCH   5   8
DOCKED: ENDBRANCH   3   4
DOCKED: ENDBRANCH   1   3
DOCKED: BRANCH   1  19
DOCKED: ATOM     19  N   UNL     1     142.686  73.478 219.191 -0.03 +0.07    -0.334 N  
DOCKED: BRANCH  19  20
DOCKED: ATOM     20  C   UNL     1     143.621  72.638 218.498 -0.10 -0.01    +0.120 C  
DOCKED: BRANCH  20  21
DOCKED: ATOM     21  C   UNL     1     144.092  71.497 219.407 -0.23 +0.00    +0.022 C  
DOCKED: BRANCH  21  22
DOCKED: ATOM     22  C   UNL     1     144.065  71.894 220.868 -0.27 -0.00    +0.002 C  
DOCKED: BRANCH  22  23
DOCKED: ATOM     23  C   UNL     1     144.983  73.041 221.156 -0.48 -0.00    +0.003 CG0
DOCKED: ATOM     24  G   UNL     1     144.604  74.274 220.350 +0.00 +0.00    +0.000 G0 
DOCKED: ENDBRANCH  22  23
DOCKED: ENDBRANCH  21  22
DOCKED: ENDBRANCH  20  21
DOCKED: ENDBRANCH  19  20
DOCKED: BRANCH  19  25
DOCKED: ATOM     25  C   UNL     1     143.127  74.393 220.284 -0.29 -0.04    +0.115 C  
DOCKED: BRANCH  25  26
DOCKED: ATOM     26  C   UNL     1     144.623  74.278 220.347 -0.46 -0.01    +0.030 CG0
DOCKED: ATOM     27  G   UNL     1     144.983  73.042 221.157 +0.00 +0.00    +0.000 G0 
DOCKED: ENDBRANCH  25  26
DOCKED: BRANCH  25  28
DOCKED: ATOM     28  C   UNL     1     142.681  75.778 219.974 -0.32 +0.01    -0.025 A  
DOCKED: ATOM     29  C   UNL     1     141.719  76.443 220.707 -0.25 -0.00    +0.007 A  
DOCKED: ATOM     30  C   UNL     1     143.299  76.389 218.876 -0.37 -0.00    +0.007 A  
DOCKED: ATOM     31  C   UNL     1     141.373  77.740 220.332 -0.27 -0.01    +0.021 A  
DOCKED: ATOM     32  C   UNL     1     142.910  77.684 218.553 -0.31 -0.02    +0.021 A  
DOCKED: ATOM     33  C   UNL     1     141.955  78.366 219.268 -0.26 -0.03    +0.041 A  
DOCKED: ATOM     34  Cl  UNL     1     141.501  80.001 218.817 -0.31 +0.05    -0.084 Cl 
DOCKED: ENDBRANCH  25  28
DOCKED: ENDBRANCH  19  25
DOCKED: ENDBRANCH   1  19
DOCKED: TORSDOF 5
DOCKED: TER
DOCKED: ENDMDL
________________________________________________________________________________


    FINAL DOCKED STATE:
    ________________________


Run:   19 / 20
Time taken for this run:   0.047s

DOCKED: MODEL        19
DOCKED: USER    Run = 19
DOCKED: USER
DOCKED: USER    Estimated Free Energy of Binding    =  -5.86 kcal/mol  [=(1)+(2)+(3)-(4)]
DOCKED: USER
DOCKED: USER    (1) Final Intermolecular Energy     =  -9.14 kcal/mol
DOCKED: USER        vdW + Hbond + desolv Energy     =  -9.72 kcal/mol
DOCKED: USER        Electrostatic Energy            =  -0.00 kcal/mol
DOCKED: USER        Moving Ligand-Fixed Receptor    =  -9.72 kcal/mol
DOCKED: USER        Moving Ligand-Moving Receptor   =  +0.57 kcal/mol
DOCKED: USER    (2) Final Total Internal Energy     =  -1.92 kcal/mol
DOCKED: USER    (3) Torsional Free Energy           =  +3.28 kcal/mol
DOCKED: USER    (4) Unbound System's Energy         =  -1.92 kcal/mol
DOCKED: USER
DOCKED: USER
DOCKED: REMARK SMILES O=C(NCC(=O)N1CCCCC[C@H]1c1ccc(Cl)cc1)c1ccc2cc(F)ccc2n1
DOCKED: REMARK SMILES IDX 5 1 6 2 4 3 3 4 2 5 1 6 21 8 22 9 31 10 23 11 30 12 24 13
DOCKED: REMARK SMILES IDX 29 14 25 15 28 16 26 17 27 18 7 19 8 20 9 21 10 22 11 23
DOCKED: REMARK SMILES IDX 13 25 12 26 14 28 15 29 20 30 16 31 19 32 17 33 18 34
DOCKED: REMARK H PARENT 3 7
DOCKED: REMARK Flexibility Score:   84.900
DOCKED: USER                              x       y       z     vdW  Elec       q    Type
DOCKED: USER                           _______ _______ _______ _____ _____    ______ ____
DOCKED: ROOT
DOCKED: ATOM      1  C   UNL     1     140.559  74.625 220.176 -0.10 -0.06    +0.242 C  
DOCKED: ATOM      2  O   UNL     1     140.154  75.518 219.264 -0.03 +0.08    -0.273 OA 
DOCKED: ENDROOT
DOCKED: BRANCH   1   3
DOCKED: ATOM      3  C   UNL     1     139.531  74.393 221.159 -0.16 -0.04    +0.216 C  
DOCKED: BRANCH   3   4
DOCKED: ATOM      4  N   UNL     1     139.642  73.527 222.251 -0.14 +0.05    -0.342 N  
DOCKED: ATOM      5  C   UNL     1     139.825  72.117 222.230 -0.19 -0.05    +0.270 C  
DOCKED: ATOM      6  O   UNL     1     139.896  71.574 221.092 -0.08 +0.04    -0.268 OA 
DOCKED: ATOM      7  H   UNL     1     139.585  73.943 223.234 -0.49 -0.02    +0.164 HD 
DOCKED: BRANCH   5   8
DOCKED: ATOM      8  C   UNL     1     139.922  71.348 223.473 -0.31 -0.02    +0.128 A  
DOCKED: ATOM      9  C   UNL     1     139.489  70.039 223.442 -0.26 -0.01    +0.035 A  
DOCKED: ATOM     10  N   UNL     1     140.426  71.918 224.605 -0.24 +0.04    -0.243 NA 
DOCKED: ATOM     11  C   UNL     1     139.541  69.235 224.552 -0.34 -0.00    +0.013 A  
DOCKED: ATOM     12  C   UNL     1     140.478  71.133 225.694 -0.53 -0.01    +0.071 A  
DOCKED: ATOM     13  C   UNL     1     140.056  69.820 225.711 -0.47 -0.00    +0.003 A  
DOCKED: ATOM     14  C   UNL     1     140.984  71.685 226.854 -0.72 -0.01    +0.032 A  
DOCKED: ATOM     15  C   UNL     1     140.133  69.060 226.858 -0.54 -0.01    +0.049 A  
DOCKED: ATOM     16  C   UNL     1     141.075  70.940 228.031 -0.66 -0.01    +0.041 A  
DOCKED: ATOM     17  C   UNL     1     140.644  69.623 228.022 -0.51 -0.02    +0.123 A  
DOCKED: ATOM     18  F   UNL     1     140.734  68.896 229.173 +0.01 +0.04    -0.207 F  
DOCKED: ENDBRANCH   5   8
DOCKED: ENDBRANCH   3   4
DOCKED: ENDBRANCH   1   3
DOCKED: BRANCH   1  19
DOCKED: ATOM     19  N   UNL     1     141.840  74.158 219.937 -0.06 +0.09    -0.334 N  
DOCKED: BRANCH  19  20
DOCKED: ATOM     20  C   UNL     1     142.186  72.913 219.313 -0.09 -0.02    +0.120 C  
DOCKED: BRANCH  20  21
DOCKED: ATOM     21  C   UNL     1     142.776  71.942 220.341 -0.23 -0.00    +0.022 C  
DOCKED: BRANCH  21  22
DOCKED: ATOM     22  C   UNL     1     144.275  72.104 220.472 -0.35 -0.00    +0.002 C  
DOCKED: BRANCH  22  23
DOCKED: ATOM     23  C   UNL     1     144.654  73.477 220.937 -0.45 -0.00    +0.003 CG0
DOCKED: ATOM     24  G   UNL     1     144.194  74.544 219.956 +0.00 +0.00    +0.000 G0 
DOCKED: ENDBRANCH  22  23
DOCKED: ENDBRANCH  21  22
DOCKED: ENDBRANCH  20  21
DOCKED: ENDBRANCH  19  20
DOCKED: BRANCH  19  25
DOCKED: ATOM     25  C   UNL     1     142.889  75.104 220.418 -0.21 -0.05    +0.115 C  
DOCKED: BRANCH  25  26
DOCKED: ATOM     26  C   UNL     1     144.202  74.544 219.951 -0.40 -0.01    +0.030 CG0
DOCKED: ATOM     27  G   UNL     1     144.655  73.478 220.938 +0.00 +0.00    +0.000 G0 
DOCKED: ENDBRANCH  25  26
DOCKED: BRANCH  25  28
DOCKED: ATOM     28  C   UNL     1     142.624  76.457 219.856 -0.33 +0.02    -0.025 A  
DOCKED: ATOM     29  C   UNL     1     141.997  77.458 220.568 -0.26 -0.00    +0.007 A  
DOCKED: ATOM     30  C   UNL     1     143.050  76.667 218.539 -0.33 -0.00    +0.007 A  
DOCKED: ATOM     31  C   UNL     1     141.796  78.692 219.950 -0.28 -0.01    +0.021 A  
DOCKED: ATOM     32  C   UNL     1     142.821  77.919 217.979 -0.30 -0.02    +0.021 A  
DOCKED: ATOM     33  C   UNL     1     142.199  78.932 218.668 -0.29 -0.03    +0.041 A  
DOCKED: ATOM     34  Cl  UNL     1     141.934  80.494 217.911 -0.35 +0.06    -0.084 Cl 
DOCKED: ENDBRANCH  25  28
DOCKED: ENDBRANCH  19  25
DOCKED: ENDBRANCH   1  19
DOCKED: TORSDOF 5
DOCKED: TER
DOCKED: ENDMDL
________________________________________________________________________________


    FINAL DOCKED STATE:
    ________________________


Run:   20 / 20
Time taken for this run:   0.047s

DOCKED: MODEL        20
DOCKED: USER    Run = 20
DOCKED: USER
DOCKED: USER    Estimated Free Energy of Binding    =  -5.61 kcal/mol  [=(1)+(2)+(3)-(4)]
DOCKED: USER
DOCKED: USER    (1) Final Intermolecular Energy     =  -8.89 kcal/mol
DOCKED: USER        vdW + Hbond + desolv Energy     =  -9.76 kcal/mol
DOCKED: USER        Electrostatic Energy            =  -0.02 kcal/mol
DOCKED: USER        Moving Ligand-Fixed Receptor    =  -9.78 kcal/mol
DOCKED: USER        Moving Ligand-Moving Receptor   =  +0.89 kcal/mol
DOCKED: USER    (2) Final Total Internal Energy     =  -1.61 kcal/mol
DOCKED: USER    (3) Torsional Free Energy           =  +3.28 kcal/mol
DOCKED: USER    (4) Unbound System's Energy         =  -1.61 kcal/mol
DOCKED: USER
DOCKED: USER
DOCKED: REMARK SMILES O=C(NCC(=O)N1CCCCC[C@H]1c1ccc(Cl)cc1)c1ccc2cc(F)ccc2n1
DOCKED: REMARK SMILES IDX 5 1 6 2 4 3 3 4 2 5 1 6 21 8 22 9 31 10 23 11 30 12 24 13
DOCKED: REMARK SMILES IDX 29 14 25 15 28 16 26 17 27 18 7 19 8 20 9 21 10 22 11 23
DOCKED: REMARK SMILES IDX 13 25 12 26 14 28 15 29 20 30 16 31 19 32 17 33 18 34
DOCKED: REMARK H PARENT 3 7
DOCKED: REMARK Flexibility Score:   84.900
DOCKED: USER                              x       y       z     vdW  Elec       q    Type
DOCKED: USER                           _______ _______ _______ _____ _____    ______ ____
DOCKED: ROOT
DOCKED: ATOM      1  C   UNL     1     140.275  74.949 221.507 -0.22 -0.04    +0.242 C  
DOCKED: ATOM      2  O   UNL     1     139.791  75.253 222.717 -0.47 +0.01    -0.273 OA 
DOCKED: ENDROOT
DOCKED: BRANCH   1   3
DOCKED: ATOM      3  C   UNL     1     140.604  73.549 221.421 -0.21 -0.03    +0.216 C  
DOCKED: BRANCH   3   4
DOCKED: ATOM      4  N   UNL     1     140.547  72.641 222.482 -0.17 +0.02    -0.342 N  
DOCKED: ATOM      5  C   UNL     1     139.527  71.692 222.764 -0.20 -0.05    +0.270 C  
DOCKED: ATOM      6  O   UNL     1     138.550  71.660 221.964 -0.09 +0.06    -0.268 OA 
DOCKED: ATOM      7  H   UNL     1     141.354  72.634 223.185 +0.08 +0.02    +0.164 HD 
DOCKED: BRANCH   5   8
DOCKED: ATOM      8  C   UNL     1     139.619  70.805 223.927 -0.31 -0.02    +0.128 A  
DOCKED: ATOM      9  C   UNL     1     139.071  69.545 223.805 -0.28 -0.01    +0.035 A  
DOCKED: ATOM     10  N   UNL     1     140.228  71.222 225.073 -0.31 +0.04    -0.243 NA 
DOCKED: ATOM     11  C   UNL     1     139.106  68.640 224.834 -0.39 -0.00    +0.013 A  
DOCKED: ATOM     12  C   UNL     1     140.264  70.338 226.083 -0.49 -0.01    +0.071 A  
DOCKED: ATOM     13  C   UNL     1     139.729  69.069 226.008 -0.50 -0.00    +0.003 A  
DOCKED: ATOM     14  C   UNL     1     140.875  70.735 227.256 -0.63 -0.01    +0.032 A  
DOCKED: ATOM     15  C   UNL     1     139.796  68.201 227.078 -0.60 -0.01    +0.049 A  
DOCKED: ATOM     16  C   UNL     1     140.958  69.878 228.355 -0.52 -0.01    +0.041 A  
DOCKED: ATOM     17  C   UNL     1     140.413  68.609 228.255 -0.55 -0.03    +0.123 A  
DOCKED: ATOM     18  F   UNL     1     140.495  67.772 229.329 -0.10 +0.06    -0.207 F  
DOCKED: ENDBRANCH   5   8
DOCKED: ENDBRANCH   3   4
DOCKED: ENDBRANCH   1   3
DOCKED: BRANCH   1  19
DOCKED: ATOM     19  N   UNL     1     140.328  76.044 220.661 -0.07 +0.10    -0.334 N  
DOCKED: BRANCH  19  20
DOCKED: ATOM     20  C   UNL     1     139.598  76.204 219.436 -0.05 -0.03    +0.120 C  
DOCKED: BRANCH  20  21
DOCKED: ATOM     21  C   UNL     1     140.532  76.046 218.231 -0.06 -0.01    +0.022 C  
DOCKED: BRANCH  21  22
DOCKED: ATOM     22  C   UNL     1     141.916  75.598 218.647 -0.16 -0.00    +0.002 C  
DOCKED: BRANCH  22  23
DOCKED: ATOM     23  C   UNL     1     142.725  76.723 219.214 -0.35 -0.00    +0.003 CG0
DOCKED: ATOM     24  G   UNL     1     141.843  77.744 219.917 +0.00 +0.00    +0.000 G0 
DOCKED: ENDBRANCH  22  23
DOCKED: ENDBRANCH  21  22
DOCKED: ENDBRANCH  20  21
DOCKED: ENDBRANCH  19  20
DOCKED: BRANCH  19  25
DOCKED: ATOM     25  C   UNL     1     141.264  77.097 221.151 -0.25 -0.06    +0.115 C  
DOCKED: BRANCH  25  26
DOCKED: ATOM     26  C   UNL     1     141.850  77.738 219.926 -0.29 -0.02    +0.030 CG0
DOCKED: ATOM     27  G   UNL     1     142.726  76.718 219.215 +0.00 +0.00    +0.000 G0 
DOCKED: ENDBRANCH  25  26
DOCKED: BRANCH  25  28
DOCKED: ATOM     28  C   UNL     1     140.511  78.070 221.989 -0.34 +0.01    -0.025 A  
DOCKED: ATOM     29  C   UNL     1     141.078  78.752 223.046 -0.52 -0.00    +0.007 A  
DOCKED: ATOM     30  C   UNL     1     139.167  78.264 221.644 -0.20 -0.00    +0.007 A  
DOCKED: ATOM     31  C   UNL     1     140.285  79.643 223.768 -0.46 -0.00    +0.021 A  
DOCKED: ATOM     32  C   UNL     1     138.430  79.165 222.403 -0.23 -0.00    +0.021 A  
DOCKED: ATOM     33  C   UNL     1     138.972  79.856 223.460 -0.37 -0.01    +0.041 A  
DOCKED: ATOM     34  Cl  UNL     1     137.995  80.984 224.385 -0.45 +0.01    -0.084 Cl 
DOCKED: ENDBRANCH  25  28
DOCKED: ENDBRANCH  19  25
DOCKED: ENDBRANCH   1  19
DOCKED: TORSDOF 5
DOCKED: TER
DOCKED: ENDMDL
________________________________________________________________________________


    CLUSTERING HISTOGRAM
    ____________________


________________________________________________________________________________
     |           |     |           |     |
Clus | Lowest    | Run | Mean      | Num | Histogram
-ter | Binding   |     | Binding   | in  |
Rank | Energy    |     | Energy    | Clus|    5    10   15   20   25   30   35
_____|___________|_____|___________|_____|____:____|____:____|____:____|____:___
   1 |     -6.51 |  15 |     -6.04 |   5 |#####
   2 |     -6.42 |   9 |     -5.76 |   7 |#######
   3 |     -5.86 |  19 |     -5.27 |   3 |###
   4 |     -5.52 |   6 |     -5.42 |   3 |###
   5 |     -4.34 |   4 |     -4.34 |   1 |#
   6 |     -3.59 |   1 |     -3.59 |   1 |#
_____|___________|_____|___________|_____|______________________________________


    RMSD TABLE
    __________


_______________________________________________________________________
     |      |      |           |         |                 |
Rank | Sub- | Run  | Binding   | Cluster | Reference       | Grep
     | Rank |      | Energy    | RMSD    | RMSD            | Pattern
_____|______|______|___________|_________|_________________|___________
   1      1     15       -6.51      0.00    272.24           RANKING
   1      2     14       -6.47      1.36    272.53           RANKING
   1      3      3       -6.29      1.60    272.41           RANKING
   1      4     20       -5.61      1.63    272.41           RANKING
   1      5     17       -5.31      1.67    271.92           RANKING
   2      1      9       -6.42      0.00    272.18           RANKING
   2      2      5       -6.32      0.54    272.28           RANKING
   2      3      2       -6.08      1.52    271.84           RANKING
   2      4     12       -5.93      0.65    272.05           RANKING
   2      5     13       -5.86      1.15    271.90           RANKING
   2      6      8       -5.14      0.72    271.99           RANKING
   2      7     11       -4.59      1.40    271.78           RANKING
   3      1     19       -5.86      0.00    272.07           RANKING
   3      2     18       -5.17      1.22    271.87           RANKING
   3      3     10       -4.78      1.85    271.77           RANKING
   4      1      6       -5.52      0.00    271.94           RANKING
   4      2      7       -5.39      1.88    271.68           RANKING
   4      3     16       -5.34      1.52    271.72           RANKING
   5      1      4       -4.34      0.00    273.74           RANKING
   6      1      1       -3.59      0.00    271.80           RANKING

Run time 0.885 sec
Idle time 0.000 sec
