AutoDock-GPU version: v1.6

**********************************************************
**    AutoDock-GPU AUTODOCKTOOLS-COMPATIBLE DLG FILE    **
**********************************************************


    DOCKING PARAMETERS
    ________________________


Ligand file:                               /home/a/REINVENT4/ReinventStudies/pleaseWork/justmol2mol_4_Compounds_ontop/graph-dock-hn62wh/graph-DockGPU/node-autodockgpu/inputs/ICFHDZVERLQZAP-KLFDUCQCNA-N.pdbqt
Grid fld file:                             /home/a/REINVENT4/ReinventStudies/mols/Rad51/maps/rad51_receptor.maps.fld

Random seed:                               42
Number of runs:                            20
Number of energy evaluations:              1132076
Number of generations:                     42000
Size of population:                        150
Rate of crossover:                         80.000000%
Tournament selection probability limit:    60.000000%
Rate of mutation:                          2.000000%
Maximal allowed delta movement:            +/- 6.000000A
Maximal allowed delta angle:               +/- 90.000000

Rate of local search:                      100.000000%
Maximal number of local search iterations: 300
Rho lower bound:                           0.010000
Spread of local search delta movement:     2.000000A
Spread of local search delta angle:        74.999999
Limit of consecutive successes/failures:   4

Handle symmetry during clustering:         YES
RMSD tolerance:                            2.000000A

Program call in command line was:          /home/a/REINVENT4/ReinventStudies/adgpu-v1.6_linux_x64_cuda12_128wi --filelist batch.txt --heuristics 1 --nrun 20 --psize 150 --lsit 300 --seed 42 --heurmax 12000000 


    GRID PARAMETERS
    ________________________


Receptor name:                             rad51_receptor
Number of grid points (x, y, z):           53, 53, 53
Grid center (x, y, z):                     139.950000, 75.640000, 221.970000A
Grid size (x, y, z):                       19.500000, 19.500000, 19.500000A
Grid spacing:                              0.375000A


    LIGAND PARAMETERS
    ________________________


Ligand name:                               /home/a/REINVENT4/ReinventStudies/pleaseWork/justmol2mol_4_Compounds_ontop/graph-dock-hn62wh/graph-DockGPU/node-autodockgpu/inputs/ICFHDZVERLQZAP-KLFDUCQCNA-N
Number of atoms:                           31
Number of rotatable bonds:                 6
Number of atom types:                      7


    DUMMY DATA (only for ADT-compatibility)
    ________________________


DPF> outlev 1
DPF> ga_run 20
DPF> fld /home/a/REINVENT4/ReinventStudies/mols/Rad51/maps/rad51_receptor.maps.fld
DPF> move /home/a/REINVENT4/ReinventStudies/pleaseWork/justmol2mol_4_Compounds_ontop/graph-dock-hn62wh/graph-DockGPU/node-autodockgpu/inputs/ICFHDZVERLQZAP-KLFDUCQCNA-N.pdbqt


    COUNTER STATES
    ________________________


Number of energy evaluations performed:    514611
Number of generations used:                35


    INPUT LIGAND PDBQT FILE:
    ________________________


INPUT-LIGAND-PDBQT: REMARK SMILES COc1ccccc1[C@H]1CCCN1C(=O)CNC(=O)c1ccc2cc(F)ccc2n1
INPUT-LIGAND-PDBQT: REMARK SMILES IDX 14 1 15 2 13 3 9 4 10 5 11 6 12 7 8 8 3 9 4 10 5 11 7 12
INPUT-LIGAND-PDBQT: REMARK SMILES IDX 6 13 2 14 1 15 16 16 17 17 18 18 19 20 20 21 21 22 30 23
INPUT-LIGAND-PDBQT: REMARK SMILES IDX 22 24 29 25 23 26 28 27 24 28 27 29 25 30 26 31
INPUT-LIGAND-PDBQT: REMARK H PARENT 17 19
INPUT-LIGAND-PDBQT: ROOT
INPUT-LIGAND-PDBQT: ATOM      1  C   UNL     1      -0.490  -1.106   0.546  1.00  0.00     0.242 C 
INPUT-LIGAND-PDBQT: ATOM      2  O   UNL     1      -0.319   0.140   0.574  1.00  0.00    -0.273 OA
INPUT-LIGAND-PDBQT: ENDROOT
INPUT-LIGAND-PDBQT: BRANCH   1   3
INPUT-LIGAND-PDBQT: ATOM      3  N   UNL     1      -1.714  -1.741   0.900  1.00  0.00    -0.334 N 
INPUT-LIGAND-PDBQT: ATOM      4  C   UNL     1      -2.883  -1.042   1.327  1.00  0.00     0.119 C 
INPUT-LIGAND-PDBQT: ATOM      5  C   UNL     1      -3.825  -2.120   1.815  1.00  0.00     0.032 C 
INPUT-LIGAND-PDBQT: ATOM      6  C   UNL     1      -2.971  -3.330   2.079  1.00  0.00     0.024 C 
INPUT-LIGAND-PDBQT: ATOM      7  C   UNL     1      -2.002  -3.181   0.895  1.00  0.00     0.120 C 
INPUT-LIGAND-PDBQT: BRANCH   4   8
INPUT-LIGAND-PDBQT: ATOM      8  C   UNL     1      -3.585  -0.264   0.270  1.00  0.00     0.017 A 
INPUT-LIGAND-PDBQT: ATOM      9  C   UNL     1      -4.327   0.854   0.653  1.00  0.00     0.124 A 
INPUT-LIGAND-PDBQT: ATOM     10  C   UNL     1      -4.981   1.578  -0.331  1.00  0.00     0.047 A 
INPUT-LIGAND-PDBQT: ATOM     11  C   UNL     1      -4.908   1.212  -1.664  1.00  0.00     0.004 A 
INPUT-LIGAND-PDBQT: ATOM     12  C   UNL     1      -3.488  -0.661  -1.050  1.00  0.00     0.010 A 
INPUT-LIGAND-PDBQT: ATOM     13  C   UNL     1      -4.162   0.099  -1.998  1.00  0.00     0.001 A 
INPUT-LIGAND-PDBQT: BRANCH   9  14
INPUT-LIGAND-PDBQT: ATOM     14  O   UNL     1      -4.368   1.177   1.992  1.00  0.00    -0.496 OA
INPUT-LIGAND-PDBQT: ATOM     15  C   UNL     1      -5.117   2.308   2.396  1.00  0.00     0.278 C 
INPUT-LIGAND-PDBQT: ENDBRANCH   9  14
INPUT-LIGAND-PDBQT: ENDBRANCH   4   8
INPUT-LIGAND-PDBQT: ENDBRANCH   1   3
INPUT-LIGAND-PDBQT: BRANCH   1  16
INPUT-LIGAND-PDBQT: ATOM     16  C   UNL     1       0.697  -1.923   0.107  1.00  0.00     0.216 C 
INPUT-LIGAND-PDBQT: BRANCH  16  17
INPUT-LIGAND-PDBQT: ATOM     17  N   UNL     1       1.818  -1.068  -0.197  1.00  0.00    -0.342 N 
INPUT-LIGAND-PDBQT: ATOM     18  C   UNL     1       3.084  -1.546  -0.638  1.00  0.00     0.270 C 
INPUT-LIGAND-PDBQT: ATOM     19  H   UNL     1       1.689  -0.018  -0.085  1.00  0.00     0.164 HD
INPUT-LIGAND-PDBQT: ATOM     20  O   UNL     1       3.261  -2.788  -0.779  1.00  0.00    -0.268 OA
INPUT-LIGAND-PDBQT: BRANCH  18  21
INPUT-LIGAND-PDBQT: ATOM     21  C   UNL     1       4.133  -0.563  -0.910  1.00  0.00     0.128 A 
INPUT-LIGAND-PDBQT: ATOM     22  C   UNL     1       5.384  -0.963  -1.339  1.00  0.00     0.035 A 
INPUT-LIGAND-PDBQT: ATOM     23  N   UNL     1       3.910   0.771  -0.749  1.00  0.00    -0.243 NA
INPUT-LIGAND-PDBQT: ATOM     24  C   UNL     1       6.402  -0.041  -1.604  1.00  0.00     0.013 A 
INPUT-LIGAND-PDBQT: ATOM     25  C   UNL     1       4.888   1.665  -1.003  1.00  0.00     0.071 A 
INPUT-LIGAND-PDBQT: ATOM     26  C   UNL     1       6.141   1.315  -1.430  1.00  0.00     0.003 A 
INPUT-LIGAND-PDBQT: ATOM     27  C   UNL     1       4.570   2.997  -0.812  1.00  0.00     0.032 A 
INPUT-LIGAND-PDBQT: ATOM     28  C   UNL     1       7.096   2.286  -1.672  1.00  0.00     0.049 A 
INPUT-LIGAND-PDBQT: ATOM     29  C   UNL     1       5.496   4.000  -1.043  1.00  0.00     0.041 A 
INPUT-LIGAND-PDBQT: ATOM     30  C   UNL     1       6.749   3.616  -1.472  1.00  0.00     0.123 A 
INPUT-LIGAND-PDBQT: ATOM     31  F   UNL     1       7.683   4.588  -1.707  1.00  0.00    -0.207 F 
INPUT-LIGAND-PDBQT: ENDBRANCH  18  21
INPUT-LIGAND-PDBQT: ENDBRANCH  16  17
INPUT-LIGAND-PDBQT: ENDBRANCH   1  16
INPUT-LIGAND-PDBQT: TORSDOF 6


    FINAL DOCKED STATE:
    ________________________


Run:   1 / 20
Time taken for this run:   0.024s

DOCKED: MODEL        1
DOCKED: USER    Run = 1
DOCKED: USER
DOCKED: USER    Estimated Free Energy of Binding    =  -8.49 kcal/mol  [=(1)+(2)+(3)-(4)]
DOCKED: USER
DOCKED: USER    (1) Final Intermolecular Energy     = -10.28 kcal/mol
DOCKED: USER        vdW + Hbond + desolv Energy     = -10.23 kcal/mol
DOCKED: USER        Electrostatic Energy            =  -0.05 kcal/mol
DOCKED: USER        Moving Ligand-Fixed Receptor    = -10.28 kcal/mol
DOCKED: USER        Moving Ligand-Moving Receptor   =  +0.00 kcal/mol
DOCKED: USER    (2) Final Total Internal Energy     =  -1.99 kcal/mol
DOCKED: USER    (3) Torsional Free Energy           =  +1.79 kcal/mol
DOCKED: USER    (4) Unbound System's Energy         =  -1.99 kcal/mol
DOCKED: USER
DOCKED: USER
DOCKED: REMARK SMILES COc1ccccc1[C@H]1CCCN1C(=O)CNC(=O)c1ccc2cc(F)ccc2n1
DOCKED: REMARK SMILES IDX 14 1 15 2 13 3 9 4 10 5 11 6 12 7 8 8 3 9 4 10 5 11 7 12
DOCKED: REMARK SMILES IDX 6 13 2 14 1 15 16 16 17 17 18 18 19 20 20 21 21 22 30 23
DOCKED: REMARK SMILES IDX 22 24 29 25 23 26 28 27 24 28 27 29 25 30 26 31
DOCKED: REMARK H PARENT 17 19
DOCKED: USER                              x       y       z     vdW  Elec       q    Type
DOCKED: USER                           _______ _______ _______ _____ _____    ______ ____
DOCKED: ROOT
DOCKED: ATOM      1  C   UNL     1     140.359  75.841 221.587 -0.25 -0.06    +0.242 C  
DOCKED: ATOM      2  O   UNL     1     139.910  76.164 222.717 -0.37 +0.04    -0.273 OA 
DOCKED: ENDROOT
DOCKED: BRANCH   1   3
DOCKED: ATOM      3  N   UNL     1     141.180  76.692 220.794 -0.12 +0.15    -0.334 N  
DOCKED: ATOM      4  C   UNL     1     140.917  78.077 220.573 -0.21 -0.05    +0.119 C  
DOCKED: ATOM      5  C   UNL     1     141.896  78.493 219.498 -0.26 -0.02    +0.032 C  
DOCKED: ATOM      6  C   UNL     1     142.344  77.222 218.829 -0.30 -0.01    +0.024 C  
DOCKED: ATOM      7  C   UNL     1     142.408  76.326 220.077 -0.24 -0.07    +0.120 C  
DOCKED: BRANCH   4   8
DOCKED: ATOM      8  C   UNL     1     141.125  78.964 221.750 -0.36 -0.01    +0.017 A  
DOCKED: ATOM      9  C   UNL     1     140.002  79.491 222.389 -0.25 -0.03    +0.124 A  
DOCKED: ATOM     10  C   UNL     1     140.196  80.317 223.485 -0.42 -0.01    +0.047 A  
DOCKED: ATOM     11  C   UNL     1     141.467  80.618 223.944 -0.46 -0.00    +0.004 A  
DOCKED: ATOM     12  C   UNL     1     142.409  79.241 222.179 -0.44 -0.01    +0.010 A  
DOCKED: ATOM     13  C   UNL     1     142.549  80.074 223.282 -0.66 -0.00    +0.001 A  
DOCKED: BRANCH   9  14
DOCKED: ATOM     14  O   UNL     1     138.760  79.161 221.893 -0.01 +0.10    -0.496 OA 
DOCKED: ATOM     15  C   UNL     1     137.851  78.478 222.737 -0.14 -0.04    +0.278 C  
DOCKED: ENDBRANCH   9  14
DOCKED: ENDBRANCH   4   8
DOCKED: ENDBRANCH   1   3
DOCKED: BRANCH   1  16
DOCKED: ATOM     16  C   UNL     1     139.978  74.469 221.095 -0.18 -0.04    +0.216 C  
DOCKED: BRANCH  16  17
DOCKED: ATOM     17  N   UNL     1     139.875  73.544 222.197 -0.14 +0.04    -0.342 N  
DOCKED: ATOM     18  C   UNL     1     140.140  72.150 222.091 -0.19 -0.04    +0.270 C  
DOCKED: ATOM     19  H   UNL     1     139.585  73.929 223.145 -0.50 -0.02    +0.164 HD 
DOCKED: ATOM     20  O   UNL     1     140.488  71.670 220.976 -0.10 +0.04    -0.268 OA 
DOCKED: BRANCH  18  21
DOCKED: ATOM     21  C   UNL     1     139.996  71.329 223.293 -0.30 -0.02    +0.128 A  
DOCKED: ATOM     22  C   UNL     1     139.416  70.077 223.229 -0.24 -0.01    +0.035 A  
DOCKED: ATOM     23  N   UNL     1     140.426  71.772 224.507 -0.28 +0.04    -0.243 NA 
DOCKED: ATOM     24  C   UNL     1     139.266  69.275 224.366 -0.33 -0.00    +0.013 A  
DOCKED: ATOM     25  C   UNL     1     140.284  71.004 225.607 -0.50 -0.01    +0.071 A  
DOCKED: ATOM     26  C   UNL     1     139.717  69.758 225.591 -0.45 -0.00    +0.003 A  
DOCKED: ATOM     27  C   UNL     1     140.750  71.536 226.795 -0.70 -0.01    +0.032 A  
DOCKED: ATOM     28  C   UNL     1     139.604  69.024 226.759 -0.51 -0.01    +0.049 A  
DOCKED: ATOM     29  C   UNL     1     140.657  70.835 227.985 -0.67 -0.01    +0.041 A  
DOCKED: ATOM     30  C   UNL     1     140.081  69.583 227.937 -0.52 -0.02    +0.123 A  
DOCKED: ATOM     31  F   UNL     1     139.977  68.870 229.100 -0.14 +0.03    -0.207 F  
DOCKED: ENDBRANCH  18  21
DOCKED: ENDBRANCH  16  17
DOCKED: ENDBRANCH   1  16
DOCKED: TORSDOF 6
DOCKED: TER
DOCKED: ENDMDL
________________________________________________________________________________


    FINAL DOCKED STATE:
    ________________________


Run:   2 / 20
Time taken for this run:   0.024s

DOCKED: MODEL        2
DOCKED: USER    Run = 2
DOCKED: USER
DOCKED: USER    Estimated Free Energy of Binding    =  -7.68 kcal/mol  [=(1)+(2)+(3)-(4)]
DOCKED: USER
DOCKED: USER    (1) Final Intermolecular Energy     =  -9.47 kcal/mol
DOCKED: USER        vdW + Hbond + desolv Energy     =  -9.48 kcal/mol
DOCKED: USER        Electrostatic Energy            =  +0.02 kcal/mol
DOCKED: USER        Moving Ligand-Fixed Receptor    =  -9.47 kcal/mol
DOCKED: USER        Moving Ligand-Moving Receptor   =  +0.00 kcal/mol
DOCKED: USER    (2) Final Total Internal Energy     =  -2.13 kcal/mol
DOCKED: USER    (3) Torsional Free Energy           =  +1.79 kcal/mol
DOCKED: USER    (4) Unbound System's Energy         =  -2.13 kcal/mol
DOCKED: USER
DOCKED: USER
DOCKED: REMARK SMILES COc1ccccc1[C@H]1CCCN1C(=O)CNC(=O)c1ccc2cc(F)ccc2n1
DOCKED: REMARK SMILES IDX 14 1 15 2 13 3 9 4 10 5 11 6 12 7 8 8 3 9 4 10 5 11 7 12
DOCKED: REMARK SMILES IDX 6 13 2 14 1 15 16 16 17 17 18 18 19 20 20 21 21 22 30 23
DOCKED: REMARK SMILES IDX 22 24 29 25 23 26 28 27 24 28 27 29 25 30 26 31
DOCKED: REMARK H PARENT 17 19
DOCKED: USER                              x       y       z     vdW  Elec       q    Type
DOCKED: USER                           _______ _______ _______ _____ _____    ______ ____
DOCKED: ROOT
DOCKED: ATOM      1  C   UNL     1     140.565  75.342 221.398 -0.23 -0.05    +0.242 C  
DOCKED: ATOM      2  O   UNL     1     140.553  75.951 222.498 -0.38 +0.05    -0.273 OA 
DOCKED: ENDROOT
DOCKED: BRANCH   1   3
DOCKED: ATOM      3  N   UNL     1     141.492  75.619 220.353 -0.10 +0.13    -0.334 N  
DOCKED: ATOM      4  C   UNL     1     142.847  75.171 220.347 -0.22 -0.06    +0.119 C  
DOCKED: ATOM      5  C   UNL     1     143.492  75.896 219.187 -0.33 -0.02    +0.032 C  
DOCKED: ATOM      6  C   UNL     1     142.601  77.070 218.884 -0.32 -0.02    +0.024 C  
DOCKED: ATOM      7  C   UNL     1     141.245  76.389 219.127 -0.12 -0.05    +0.120 C  
DOCKED: BRANCH   4   8
DOCKED: ATOM      8  C   UNL     1     143.036  73.710 220.136 -0.29 -0.00    +0.017 A  
DOCKED: ATOM      9  C   UNL     1     144.268  73.146 220.472 -0.35 -0.02    +0.124 A  
DOCKED: ATOM     10  C   UNL     1     144.445  71.786 220.275 -0.27 -0.00    +0.047 A  
DOCKED: ATOM     11  C   UNL     1     143.433  70.995 219.759 -0.21 -0.00    +0.004 A  
DOCKED: ATOM     12  C   UNL     1     142.002  72.953 219.619 -0.14 -0.00    +0.010 A  
DOCKED: ATOM     13  C   UNL     1     142.230  71.594 219.441 -0.12 -0.00    +0.001 A  
DOCKED: BRANCH   9  14
DOCKED: ATOM     14  O   UNL     1     145.242  73.976 220.983 -0.26 +0.13    -0.496 OA 
DOCKED: ATOM     15  C   UNL     1     146.332  73.398 221.677 -0.46 -0.04    +0.278 C  
DOCKED: ENDBRANCH   9  14
DOCKED: ENDBRANCH   4   8
DOCKED: ENDBRANCH   1   3
DOCKED: BRANCH   1  16
DOCKED: ATOM     16  C   UNL     1     139.520  74.270 221.229 -0.17 -0.04    +0.216 C  
DOCKED: BRANCH  16  17
DOCKED: ATOM     17  N   UNL     1     139.572  73.332 222.323 -0.14 +0.06    -0.342 N  
DOCKED: ATOM     18  C   UNL     1     139.619  71.919 222.156 -0.18 -0.05    +0.270 C  
DOCKED: ATOM     19  H   UNL     1     139.577  73.720 223.313 -0.48 -0.04    +0.164 HD 
DOCKED: ATOM     20  O   UNL     1     139.615  71.434 220.990 -0.07 +0.05    -0.268 OA 
DOCKED: BRANCH  18  21
DOCKED: ATOM     21  C   UNL     1     139.670  71.086 223.357 -0.28 -0.02    +0.128 A  
DOCKED: ATOM     22  C   UNL     1     139.199  69.787 223.339 -0.24 -0.01    +0.035 A  
DOCKED: ATOM     23  N   UNL     1     140.181  71.563 224.527 -0.29 +0.04    -0.243 NA 
DOCKED: ATOM     24  C   UNL     1     139.237  68.973 224.476 -0.34 -0.00    +0.013 A  
DOCKED: ATOM     25  C   UNL     1     140.220  70.783 225.626 -0.49 -0.01    +0.071 A  
DOCKED: ATOM     26  C   UNL     1     139.766  69.491 225.654 -0.45 -0.00    +0.003 A  
DOCKED: ATOM     27  C   UNL     1     140.755  71.352 226.767 -0.68 -0.01    +0.032 A  
DOCKED: ATOM     28  C   UNL     1     139.837  68.748 226.819 -0.55 -0.01    +0.049 A  
DOCKED: ATOM     29  C   UNL     1     140.846  70.642 227.953 -0.64 -0.01    +0.041 A  
DOCKED: ATOM     30  C   UNL     1     140.380  69.344 227.949 -0.53 -0.02    +0.123 A  
DOCKED: ATOM     31  F   UNL     1     140.458  68.622 229.109 -0.14 +0.04    -0.207 F  
DOCKED: ENDBRANCH  18  21
DOCKED: ENDBRANCH  16  17
DOCKED: ENDBRANCH   1  16
DOCKED: TORSDOF 6
DOCKED: TER
DOCKED: ENDMDL
________________________________________________________________________________


    FINAL DOCKED STATE:
    ________________________


Run:   3 / 20
Time taken for this run:   0.024s

DOCKED: MODEL        3
DOCKED: USER    Run = 3
DOCKED: USER
DOCKED: USER    Estimated Free Energy of Binding    =  -8.55 kcal/mol  [=(1)+(2)+(3)-(4)]
DOCKED: USER
DOCKED: USER    (1) Final Intermolecular Energy     = -10.34 kcal/mol
DOCKED: USER        vdW + Hbond + desolv Energy     = -10.27 kcal/mol
DOCKED: USER        Electrostatic Energy            =  -0.08 kcal/mol
DOCKED: USER        Moving Ligand-Fixed Receptor    = -10.34 kcal/mol
DOCKED: USER        Moving Ligand-Moving Receptor   =  +0.00 kcal/mol
DOCKED: USER    (2) Final Total Internal Energy     =  -1.18 kcal/mol
DOCKED: USER    (3) Torsional Free Energy           =  +1.79 kcal/mol
DOCKED: USER    (4) Unbound System's Energy         =  -1.18 kcal/mol
DOCKED: USER
DOCKED: USER
DOCKED: REMARK SMILES COc1ccccc1[C@H]1CCCN1C(=O)CNC(=O)c1ccc2cc(F)ccc2n1
DOCKED: REMARK SMILES IDX 14 1 15 2 13 3 9 4 10 5 11 6 12 7 8 8 3 9 4 10 5 11 7 12
DOCKED: REMARK SMILES IDX 6 13 2 14 1 15 16 16 17 17 18 18 19 20 20 21 21 22 30 23
DOCKED: REMARK SMILES IDX 22 24 29 25 23 26 28 27 24 28 27 29 25 30 26 31
DOCKED: REMARK H PARENT 17 19
DOCKED: USER                              x       y       z     vdW  Elec       q    Type
DOCKED: USER                           _______ _______ _______ _____ _____    ______ ____
DOCKED: ROOT
DOCKED: ATOM      1  C   UNL     1     139.691  75.652 221.773 -0.23 -0.05    +0.242 C  
DOCKED: ATOM      2  O   UNL     1     140.817  75.651 222.334 -0.46 +0.04    -0.273 OA 
DOCKED: ENDROOT
DOCKED: BRANCH   1   3
DOCKED: ATOM      3  N   UNL     1     138.896  76.821 221.605 -0.09 +0.07    -0.334 N  
DOCKED: ATOM      4  C   UNL     1     138.807  77.873 222.565 -0.25 -0.02    +0.119 C  
DOCKED: ATOM      5  C   UNL     1     137.684  78.758 222.072 -0.17 -0.01    +0.032 C  
DOCKED: ATOM      6  C   UNL     1     136.882  77.918 221.116 -0.08 -0.00    +0.024 C  
DOCKED: ATOM      7  C   UNL     1     138.046  77.160 220.456 -0.05 -0.03    +0.120 C  
DOCKED: BRANCH   4   8
DOCKED: ATOM      8  C   UNL     1     140.026  78.715 222.706 -0.37 -0.00    +0.017 A  
DOCKED: ATOM      9  C   UNL     1     140.056  79.673 223.720 -0.37 -0.02    +0.124 A  
DOCKED: ATOM     10  C   UNL     1     141.191  80.458 223.851 -0.46 -0.01    +0.047 A  
DOCKED: ATOM     11  C   UNL     1     142.275  80.304 223.004 -0.62 -0.00    +0.004 A  
DOCKED: ATOM     12  C   UNL     1     141.088  78.532 221.841 -0.38 -0.00    +0.010 A  
DOCKED: ATOM     13  C   UNL     1     142.203  79.343 222.015 -0.49 -0.00    +0.001 A  
DOCKED: BRANCH   9  14
DOCKED: ATOM     14  O   UNL     1     138.952  79.787 224.537 -0.10 +0.05    -0.496 OA 
DOCKED: ATOM     15  C   UNL     1     138.147  80.946 224.435 -0.23 -0.02    +0.278 C  
DOCKED: ENDBRANCH   9  14
DOCKED: ENDBRANCH   4   8
DOCKED: ENDBRANCH   1   3
DOCKED: BRANCH   1  16
DOCKED: ATOM     16  C   UNL     1     139.205  74.317 221.271 -0.16 -0.05    +0.216 C  
DOCKED: BRANCH  16  17
DOCKED: ATOM     17  N   UNL     1     139.223  73.339 222.330 -0.10 +0.09    -0.342 N  
DOCKED: ATOM     18  C   UNL     1     140.307  72.448 222.570 -0.20 -0.03    +0.270 C  
DOCKED: ATOM     19  H   UNL     1     138.375  73.281 222.970 -0.50 -0.10    +0.164 HD 
DOCKED: ATOM     20  O   UNL     1     141.325  72.498 221.824 -0.23 +0.02    -0.268 OA 
DOCKED: BRANCH  18  21
DOCKED: ATOM     21  C   UNL     1     140.189  71.506 223.682 -0.34 -0.02    +0.128 A  
DOCKED: ATOM     22  C   UNL     1     139.587  70.275 223.506 -0.28 -0.01    +0.035 A  
DOCKED: ATOM     23  N   UNL     1     140.668  71.811 224.921 -0.29 +0.03    -0.243 NA 
DOCKED: ATOM     24  C   UNL     1     139.462  69.358 224.556 -0.35 -0.00    +0.013 A  
DOCKED: ATOM     25  C   UNL     1     140.550  70.931 225.937 -0.54 -0.01    +0.071 A  
DOCKED: ATOM     26  C   UNL     1     139.962  69.701 225.809 -0.47 -0.00    +0.003 A  
DOCKED: ATOM     27  C   UNL     1     141.065  71.327 227.157 -0.71 -0.01    +0.032 A  
DOCKED: ATOM     28  C   UNL     1     139.876  68.848 226.895 -0.55 -0.01    +0.049 A  
DOCKED: ATOM     29  C   UNL     1     141.001  70.504 228.269 -0.55 -0.01    +0.041 A  
DOCKED: ATOM     30  C   UNL     1     140.402  69.272 228.108 -0.53 -0.02    +0.123 A  
DOCKED: ATOM     31  F   UNL     1     140.325  68.440 229.192 -0.12 +0.04    -0.207 F  
DOCKED: ENDBRANCH  18  21
DOCKED: ENDBRANCH  16  17
DOCKED: ENDBRANCH   1  16
DOCKED: TORSDOF 6
DOCKED: TER
DOCKED: ENDMDL
________________________________________________________________________________


    FINAL DOCKED STATE:
    ________________________


Run:   4 / 20
Time taken for this run:   0.024s

DOCKED: MODEL        4
DOCKED: USER    Run = 4
DOCKED: USER
DOCKED: USER    Estimated Free Energy of Binding    =  -7.68 kcal/mol  [=(1)+(2)+(3)-(4)]
DOCKED: USER
DOCKED: USER    (1) Final Intermolecular Energy     =  -9.47 kcal/mol
DOCKED: USER        vdW + Hbond + desolv Energy     =  -9.46 kcal/mol
DOCKED: USER        Electrostatic Energy            =  -0.00 kcal/mol
DOCKED: USER        Moving Ligand-Fixed Receptor    =  -9.47 kcal/mol
DOCKED: USER        Moving Ligand-Moving Receptor   =  +0.00 kcal/mol
DOCKED: USER    (2) Final Total Internal Energy     =  -2.15 kcal/mol
DOCKED: USER    (3) Torsional Free Energy           =  +1.79 kcal/mol
DOCKED: USER    (4) Unbound System's Energy         =  -2.15 kcal/mol
DOCKED: USER
DOCKED: USER
DOCKED: REMARK SMILES COc1ccccc1[C@H]1CCCN1C(=O)CNC(=O)c1ccc2cc(F)ccc2n1
DOCKED: REMARK SMILES IDX 14 1 15 2 13 3 9 4 10 5 11 6 12 7 8 8 3 9 4 10 5 11 7 12
DOCKED: REMARK SMILES IDX 6 13 2 14 1 15 16 16 17 17 18 18 19 20 20 21 21 22 30 23
DOCKED: REMARK SMILES IDX 22 24 29 25 23 26 28 27 24 28 27 29 25 30 26 31
DOCKED: REMARK H PARENT 17 19
DOCKED: USER                              x       y       z     vdW  Elec       q    Type
DOCKED: USER                           _______ _______ _______ _____ _____    ______ ____
DOCKED: ROOT
DOCKED: ATOM      1  C   UNL     1     140.082  75.383 221.423 -0.22 -0.05    +0.242 C  
DOCKED: ATOM      2  O   UNL     1     140.946  75.314 222.335 -0.44 +0.02    -0.273 OA 
DOCKED: ENDROOT
DOCKED: BRANCH   1   3
DOCKED: ATOM      3  N   UNL     1     139.911  76.521 220.585 -0.04 +0.09    -0.334 N  
DOCKED: ATOM      4  C   UNL     1     139.442  77.789 221.044 -0.14 -0.03    +0.119 C  
DOCKED: ATOM      5  C   UNL     1     139.197  78.592 219.786 -0.07 -0.01    +0.032 C  
DOCKED: ATOM      6  C   UNL     1     139.091  77.592 218.668 -0.03 -0.01    +0.024 C  
DOCKED: ATOM      7  C   UNL     1     140.175  76.611 219.143 -0.06 -0.04    +0.120 C  
DOCKED: BRANCH   4   8
DOCKED: ATOM      8  C   UNL     1     140.392  78.552 221.898 -0.31 -0.01    +0.017 A  
DOCKED: ATOM      9  C   UNL     1     139.901  79.163 223.053 -0.33 -0.02    +0.124 A  
DOCKED: ATOM     10  C   UNL     1     140.786  79.874 223.847 -0.46 -0.01    +0.047 A  
DOCKED: ATOM     11  C   UNL     1     142.125  79.984 223.515 -0.64 -0.00    +0.004 A  
DOCKED: ATOM     12  C   UNL     1     141.722  78.639 221.533 -0.39 -0.01    +0.010 A  
DOCKED: ATOM     13  C   UNL     1     142.568  79.363 222.364 -0.52 -0.00    +0.001 A  
DOCKED: BRANCH   9  14
DOCKED: ATOM     14  O   UNL     1     138.560  79.024 223.339 -0.10 +0.07    -0.496 OA 
DOCKED: ATOM     15  C   UNL     1     137.799  80.186 223.610 -0.20 -0.03    +0.278 C  
DOCKED: ENDBRANCH   9  14
DOCKED: ENDBRANCH   4   8
DOCKED: ENDBRANCH   1   3
DOCKED: BRANCH   1  16
DOCKED: ATOM     16  C   UNL     1     139.206  74.169 221.253 -0.15 -0.04    +0.216 C  
DOCKED: BRANCH  16  17
DOCKED: ATOM     17  N   UNL     1     139.400  73.246 222.343 -0.13 +0.07    -0.342 N  
DOCKED: ATOM     18  C   UNL     1     139.090  71.859 222.273 -0.15 -0.06    +0.270 C  
DOCKED: ATOM     19  H   UNL     1     139.800  73.625 223.253 -0.38 -0.00    +0.164 HD 
DOCKED: ATOM     20  O   UNL     1     138.615  71.385 221.204 -0.05 +0.05    -0.268 OA 
DOCKED: BRANCH  18  21
DOCKED: ATOM     21  C   UNL     1     139.338  71.038 223.459 -0.27 -0.03    +0.128 A  
DOCKED: ATOM     22  C   UNL     1     138.976  69.705 223.486 -0.25 -0.01    +0.035 A  
DOCKED: ATOM     23  N   UNL     1     139.931  71.560 224.568 -0.27 +0.05    -0.243 NA 
DOCKED: ATOM     24  C   UNL     1     139.203  68.902 224.608 -0.36 -0.00    +0.013 A  
DOCKED: ATOM     25  C   UNL     1     140.153  70.791 225.654 -0.49 -0.01    +0.071 A  
DOCKED: ATOM     26  C   UNL     1     139.812  69.467 225.725 -0.46 -0.00    +0.003 A  
DOCKED: ATOM     27  C   UNL     1     140.760  71.407 226.732 -0.68 -0.01    +0.032 A  
DOCKED: ATOM     28  C   UNL     1     140.069  68.737 226.872 -0.57 -0.01    +0.049 A  
DOCKED: ATOM     29  C   UNL     1     141.036  70.713 227.898 -0.64 -0.01    +0.041 A  
DOCKED: ATOM     30  C   UNL     1     140.680  69.381 227.940 -0.52 -0.02    +0.123 A  
DOCKED: ATOM     31  F   UNL     1     140.942  68.673 229.081 -0.13 +0.05    -0.207 F  
DOCKED: ENDBRANCH  18  21
DOCKED: ENDBRANCH  16  17
DOCKED: ENDBRANCH   1  16
DOCKED: TORSDOF 6
DOCKED: TER
DOCKED: ENDMDL
________________________________________________________________________________


    FINAL DOCKED STATE:
    ________________________


Run:   5 / 20
Time taken for this run:   0.024s

DOCKED: MODEL        5
DOCKED: USER    Run = 5
DOCKED: USER
DOCKED: USER    Estimated Free Energy of Binding    =  -8.26 kcal/mol  [=(1)+(2)+(3)-(4)]
DOCKED: USER
DOCKED: USER    (1) Final Intermolecular Energy     = -10.05 kcal/mol
DOCKED: USER        vdW + Hbond + desolv Energy     = -10.06 kcal/mol
DOCKED: USER        Electrostatic Energy            =  +0.01 kcal/mol
DOCKED: USER        Moving Ligand-Fixed Receptor    = -10.05 kcal/mol
DOCKED: USER        Moving Ligand-Moving Receptor   =  +0.00 kcal/mol
DOCKED: USER    (2) Final Total Internal Energy     =  -1.35 kcal/mol
DOCKED: USER    (3) Torsional Free Energy           =  +1.79 kcal/mol
DOCKED: USER    (4) Unbound System's Energy         =  -1.35 kcal/mol
DOCKED: USER
DOCKED: USER
DOCKED: REMARK SMILES COc1ccccc1[C@H]1CCCN1C(=O)CNC(=O)c1ccc2cc(F)ccc2n1
DOCKED: REMARK SMILES IDX 14 1 15 2 13 3 9 4 10 5 11 6 12 7 8 8 3 9 4 10 5 11 7 12
DOCKED: REMARK SMILES IDX 6 13 2 14 1 15 16 16 17 17 18 18 19 20 20 21 21 22 30 23
DOCKED: REMARK SMILES IDX 22 24 29 25 23 26 28 27 24 28 27 29 25 30 26 31
DOCKED: REMARK H PARENT 17 19
DOCKED: USER                              x       y       z     vdW  Elec       q    Type
DOCKED: USER                           _______ _______ _______ _____ _____    ______ ____
DOCKED: ROOT
DOCKED: ATOM      1  C   UNL     1     140.209  75.890 221.653 -0.24 -0.06    +0.242 C  
DOCKED: ATOM      2  O   UNL     1     141.446  75.890 221.880 -0.30 +0.11    -0.273 OA 
DOCKED: ENDROOT
DOCKED: BRANCH   1   3
DOCKED: ATOM      3  N   UNL     1     139.387  77.047 221.770 -0.12 +0.08    -0.334 N  
DOCKED: ATOM      4  C   UNL     1     139.491  77.997 222.830 -0.20 -0.02    +0.119 C  
DOCKED: ATOM      5  C   UNL     1     138.283  78.894 222.669 -0.25 -0.01    +0.032 C  
DOCKED: ATOM      6  C   UNL     1     137.308  78.128 221.817 -0.14 -0.00    +0.024 C  
DOCKED: ATOM      7  C   UNL     1     138.316  77.472 220.860 -0.09 -0.03    +0.120 C  
DOCKED: BRANCH   4   8
DOCKED: ATOM      8  C   UNL     1     140.706  78.856 222.803 -0.44 -0.00    +0.017 A  
DOCKED: ATOM      9  C   UNL     1     141.061  79.464 221.598 -0.28 -0.04    +0.124 A  
DOCKED: ATOM     10  C   UNL     1     142.193  80.263 221.573 -0.42 -0.02    +0.047 A  
DOCKED: ATOM     11  C   UNL     1     142.961  80.461 222.707 -0.61 -0.00    +0.004 A  
DOCKED: ATOM     12  C   UNL     1     141.447  79.029 223.956 -0.59 -0.00    +0.010 A  
DOCKED: ATOM     13  C   UNL     1     142.573  79.840 223.878 -0.57 -0.00    +0.001 A  
DOCKED: BRANCH   9  14
DOCKED: ATOM     14  O   UNL     1     140.263  79.236 220.498 +0.01 +0.16    -0.496 OA 
DOCKED: ATOM     15  C   UNL     1     140.879  79.066 219.235 -0.09 -0.12    +0.278 C  
DOCKED: ENDBRANCH   9  14
DOCKED: ENDBRANCH   4   8
DOCKED: ENDBRANCH   1   3
DOCKED: BRANCH   1  16
DOCKED: ATOM     16  C   UNL     1     139.616  74.569 221.239 -0.18 -0.04    +0.216 C  
DOCKED: BRANCH  16  17
DOCKED: ATOM     17  N   UNL     1     139.672  73.623 222.326 -0.12 +0.05    -0.342 N  
DOCKED: ATOM     18  C   UNL     1     139.864  72.224 222.152 -0.19 -0.04    +0.270 C  
DOCKED: ATOM     19  H   UNL     1     139.564  73.995 223.317 -0.48 -0.02    +0.164 HD 
DOCKED: ATOM     20  O   UNL     1     139.996  71.758 220.986 -0.08 +0.04    -0.268 OA 
DOCKED: BRANCH  18  21
DOCKED: ATOM     21  C   UNL     1     139.901  71.381 223.347 -0.30 -0.02    +0.128 A  
DOCKED: ATOM     22  C   UNL     1     139.444  70.077 223.308 -0.25 -0.01    +0.035 A  
DOCKED: ATOM     23  N   UNL     1     140.384  71.853 224.530 -0.27 +0.04    -0.243 NA 
DOCKED: ATOM     24  C   UNL     1     139.468  69.254 224.439 -0.33 -0.00    +0.013 A  
DOCKED: ATOM     25  C   UNL     1     140.409  71.063 225.624 -0.52 -0.01    +0.071 A  
DOCKED: ATOM     26  C   UNL     1     139.968  69.767 225.632 -0.46 -0.00    +0.003 A  
DOCKED: ATOM     27  C   UNL     1     140.917  71.628 226.779 -0.71 -0.01    +0.032 A  
DOCKED: ATOM     28  C   UNL     1     140.025  69.014 226.791 -0.54 -0.01    +0.049 A  
DOCKED: ATOM     29  C   UNL     1     140.992  70.909 227.960 -0.67 -0.01    +0.041 A  
DOCKED: ATOM     30  C   UNL     1     140.540  69.607 227.937 -0.52 -0.02    +0.123 A  
DOCKED: ATOM     31  F   UNL     1     140.603  68.875 229.092 -0.11 +0.04    -0.207 F  
DOCKED: ENDBRANCH  18  21
DOCKED: ENDBRANCH  16  17
DOCKED: ENDBRANCH   1  16
DOCKED: TORSDOF 6
DOCKED: TER
DOCKED: ENDMDL
________________________________________________________________________________


    FINAL DOCKED STATE:
    ________________________


Run:   6 / 20
Time taken for this run:   0.024s

DOCKED: MODEL        6
DOCKED: USER    Run = 6
DOCKED: USER
DOCKED: USER    Estimated Free Energy of Binding    =  -8.53 kcal/mol  [=(1)+(2)+(3)-(4)]
DOCKED: USER
DOCKED: USER    (1) Final Intermolecular Energy     = -10.32 kcal/mol
DOCKED: USER        vdW + Hbond + desolv Energy     = -10.27 kcal/mol
DOCKED: USER        Electrostatic Energy            =  -0.05 kcal/mol
DOCKED: USER        Moving Ligand-Fixed Receptor    = -10.32 kcal/mol
DOCKED: USER        Moving Ligand-Moving Receptor   =  +0.00 kcal/mol
DOCKED: USER    (2) Final Total Internal Energy     =  -1.93 kcal/mol
DOCKED: USER    (3) Torsional Free Energy           =  +1.79 kcal/mol
DOCKED: USER    (4) Unbound System's Energy         =  -1.93 kcal/mol
DOCKED: USER
DOCKED: USER
DOCKED: REMARK SMILES COc1ccccc1[C@H]1CCCN1C(=O)CNC(=O)c1ccc2cc(F)ccc2n1
DOCKED: REMARK SMILES IDX 14 1 15 2 13 3 9 4 10 5 11 6 12 7 8 8 3 9 4 10 5 11 7 12
DOCKED: REMARK SMILES IDX 6 13 2 14 1 15 16 16 17 17 18 18 19 20 20 21 21 22 30 23
DOCKED: REMARK SMILES IDX 22 24 29 25 23 26 28 27 24 28 27 29 25 30 26 31
DOCKED: REMARK H PARENT 17 19
DOCKED: USER                              x       y       z     vdW  Elec       q    Type
DOCKED: USER                           _______ _______ _______ _____ _____    ______ ____
DOCKED: ROOT
DOCKED: ATOM      1  C   UNL     1     140.364  75.818 221.528 -0.24 -0.06    +0.242 C  
DOCKED: ATOM      2  O   UNL     1     139.933  76.139 222.665 -0.38 +0.04    -0.273 OA 
DOCKED: ENDROOT
DOCKED: BRANCH   1   3
DOCKED: ATOM      3  N   UNL     1     141.160  76.676 220.716 -0.11 +0.14    -0.334 N  
DOCKED: ATOM      4  C   UNL     1     140.879  78.059 220.501 -0.20 -0.05    +0.119 C  
DOCKED: ATOM      5  C   UNL     1     141.831  78.484 219.405 -0.27 -0.02    +0.032 C  
DOCKED: ATOM      6  C   UNL     1     142.277  77.216 218.728 -0.28 -0.01    +0.024 C  
DOCKED: ATOM      7  C   UNL     1     142.375  76.321 219.973 -0.26 -0.07    +0.120 C  
DOCKED: BRANCH   4   8
DOCKED: ATOM      8  C   UNL     1     141.104  78.948 221.673 -0.35 -0.01    +0.017 A  
DOCKED: ATOM      9  C   UNL     1     140.003  79.314 222.448 -0.26 -0.03    +0.124 A  
DOCKED: ATOM     10  C   UNL     1     140.213  80.142 223.539 -0.42 -0.01    +0.047 A  
DOCKED: ATOM     11  C   UNL     1     141.478  80.601 223.863 -0.53 -0.00    +0.004 A  
DOCKED: ATOM     12  C   UNL     1     142.382  79.385 221.965 -0.40 -0.01    +0.010 A  
DOCKED: ATOM     13  C   UNL     1     142.539  80.213 223.069 -0.65 -0.00    +0.001 A  
DOCKED: BRANCH   9  14
DOCKED: ATOM     14  O   UNL     1     138.765  78.830 222.085 -0.03 +0.10    -0.496 OA 
DOCKED: ATOM     15  C   UNL     1     137.622  79.304 222.772 -0.14 -0.04    +0.278 C  
DOCKED: ENDBRANCH   9  14
DOCKED: ENDBRANCH   4   8
DOCKED: ENDBRANCH   1   3
DOCKED: BRANCH   1  16
DOCKED: ATOM     16  C   UNL     1     139.990  74.441 221.046 -0.17 -0.04    +0.216 C  
DOCKED: BRANCH  16  17
DOCKED: ATOM     17  N   UNL     1     139.887  73.525 222.156 -0.14 +0.04    -0.342 N  
DOCKED: ATOM     18  C   UNL     1     140.160  72.132 222.063 -0.19 -0.04    +0.270 C  
DOCKED: ATOM     19  H   UNL     1     139.589  73.917 223.099 -0.51 -0.02    +0.164 HD 
DOCKED: ATOM     20  O   UNL     1     140.516  71.644 220.954 -0.10 +0.04    -0.268 OA 
DOCKED: BRANCH  18  21
DOCKED: ATOM     21  C   UNL     1     140.014  71.321 223.272 -0.30 -0.02    +0.128 A  
DOCKED: ATOM     22  C   UNL     1     139.439  70.066 223.217 -0.24 -0.01    +0.035 A  
DOCKED: ATOM     23  N   UNL     1     140.439  71.775 224.483 -0.28 +0.04    -0.243 NA 
DOCKED: ATOM     24  C   UNL     1     139.288  69.273 224.360 -0.33 -0.00    +0.013 A  
DOCKED: ATOM     25  C   UNL     1     140.297  71.016 225.589 -0.51 -0.01    +0.071 A  
DOCKED: ATOM     26  C   UNL     1     139.733  69.768 225.582 -0.45 -0.00    +0.003 A  
DOCKED: ATOM     27  C   UNL     1     140.757  71.560 226.774 -0.69 -0.01    +0.032 A  
DOCKED: ATOM     28  C   UNL     1     139.620  69.044 226.755 -0.51 -0.01    +0.049 A  
DOCKED: ATOM     29  C   UNL     1     140.663  70.869 227.970 -0.68 -0.01    +0.041 A  
DOCKED: ATOM     30  C   UNL     1     140.091  69.615 227.931 -0.52 -0.02    +0.123 A  
DOCKED: ATOM     31  F   UNL     1     139.985  68.910 229.099 -0.13 +0.03    -0.207 F  
DOCKED: ENDBRANCH  18  21
DOCKED: ENDBRANCH  16  17
DOCKED: ENDBRANCH   1  16
DOCKED: TORSDOF 6
DOCKED: TER
DOCKED: ENDMDL
________________________________________________________________________________


    FINAL DOCKED STATE:
    ________________________


Run:   7 / 20
Time taken for this run:   0.024s

DOCKED: MODEL        7
DOCKED: USER    Run = 7
DOCKED: USER
DOCKED: USER    Estimated Free Energy of Binding    =  -8.60 kcal/mol  [=(1)+(2)+(3)-(4)]
DOCKED: USER
DOCKED: USER    (1) Final Intermolecular Energy     = -10.39 kcal/mol
DOCKED: USER        vdW + Hbond + desolv Energy     = -10.33 kcal/mol
DOCKED: USER        Electrostatic Energy            =  -0.06 kcal/mol
DOCKED: USER        Moving Ligand-Fixed Receptor    = -10.39 kcal/mol
DOCKED: USER        Moving Ligand-Moving Receptor   =  +0.00 kcal/mol
DOCKED: USER    (2) Final Total Internal Energy     =  -1.95 kcal/mol
DOCKED: USER    (3) Torsional Free Energy           =  +1.79 kcal/mol
DOCKED: USER    (4) Unbound System's Energy         =  -1.95 kcal/mol
DOCKED: USER
DOCKED: USER
DOCKED: REMARK SMILES COc1ccccc1[C@H]1CCCN1C(=O)CNC(=O)c1ccc2cc(F)ccc2n1
DOCKED: REMARK SMILES IDX 14 1 15 2 13 3 9 4 10 5 11 6 12 7 8 8 3 9 4 10 5 11 7 12
DOCKED: REMARK SMILES IDX 6 13 2 14 1 15 16 16 17 17 18 18 19 20 20 21 21 22 30 23
DOCKED: REMARK SMILES IDX 22 24 29 25 23 26 28 27 24 28 27 29 25 30 26 31
DOCKED: REMARK H PARENT 17 19
DOCKED: USER                              x       y       z     vdW  Elec       q    Type
DOCKED: USER                           _______ _______ _______ _____ _____    ______ ____
DOCKED: ROOT
DOCKED: ATOM      1  C   UNL     1     140.463  75.962 221.566 -0.25 -0.06    +0.242 C  
DOCKED: ATOM      2  O   UNL     1     140.066  76.254 222.723 -0.35 +0.05    -0.273 OA 
DOCKED: ENDROOT
DOCKED: BRANCH   1   3
DOCKED: ATOM      3  N   UNL     1     141.225  76.844 220.748 -0.12 +0.15    -0.334 N  
DOCKED: ATOM      4  C   UNL     1     140.913  78.224 220.554 -0.21 -0.05    +0.119 C  
DOCKED: ATOM      5  C   UNL     1     141.834  78.678 219.443 -0.27 -0.02    +0.032 C  
DOCKED: ATOM      6  C   UNL     1     142.290  77.428 218.744 -0.29 -0.01    +0.024 C  
DOCKED: ATOM      7  C   UNL     1     142.432  76.521 219.977 -0.25 -0.07    +0.120 C  
DOCKED: BRANCH   4   8
DOCKED: ATOM      8  C   UNL     1     141.144  79.104 221.731 -0.36 -0.01    +0.017 A  
DOCKED: ATOM      9  C   UNL     1     140.034  79.634 222.390 -0.25 -0.03    +0.124 A  
DOCKED: ATOM     10  C   UNL     1     140.250  80.454 223.486 -0.42 -0.01    +0.047 A  
DOCKED: ATOM     11  C   UNL     1     141.529  80.749 223.926 -0.49 -0.00    +0.004 A  
DOCKED: ATOM     12  C   UNL     1     142.436  79.375 222.140 -0.45 -0.01    +0.010 A  
DOCKED: ATOM     13  C   UNL     1     142.598  80.202 223.244 -0.66 -0.00    +0.001 A  
DOCKED: BRANCH   9  14
DOCKED: ATOM     14  O   UNL     1     138.782  79.311 221.914 -0.01 +0.10    -0.496 OA 
DOCKED: ATOM     15  C   UNL     1     137.946  78.487 222.705 -0.14 -0.04    +0.278 C  
DOCKED: ENDBRANCH   9  14
DOCKED: ENDBRANCH   4   8
DOCKED: ENDBRANCH   1   3
DOCKED: BRANCH   1  16
DOCKED: ATOM     16  C   UNL     1     140.083  74.593 221.066 -0.18 -0.04    +0.216 C  
DOCKED: BRANCH  16  17
DOCKED: ATOM     17  N   UNL     1     139.944  73.671 222.167 -0.13 +0.03    -0.342 N  
DOCKED: ATOM     18  C   UNL     1     140.294  72.293 222.098 -0.20 -0.03    +0.270 C  
DOCKED: ATOM     19  H   UNL     1     139.557  74.045 223.085 -0.52 -0.02    +0.164 HD 
DOCKED: ATOM     20  O   UNL     1     140.755  71.826 221.019 -0.11 +0.04    -0.268 OA 
DOCKED: BRANCH  18  21
DOCKED: ATOM     21  C   UNL     1     140.099  71.474 223.294 -0.31 -0.02    +0.128 A  
DOCKED: ATOM     22  C   UNL     1     139.416  70.274 223.227 -0.25 -0.01    +0.035 A  
DOCKED: ATOM     23  N   UNL     1     140.583  71.866 224.505 -0.26 +0.03    -0.243 NA 
DOCKED: ATOM     24  C   UNL     1     139.218  69.475 224.358 -0.33 -0.00    +0.013 A  
DOCKED: ATOM     25  C   UNL     1     140.394  71.099 225.599 -0.52 -0.01    +0.071 A  
DOCKED: ATOM     26  C   UNL     1     139.725  69.905 225.580 -0.45 -0.00    +0.003 A  
DOCKED: ATOM     27  C   UNL     1     140.920  71.578 226.785 -0.71 -0.01    +0.032 A  
DOCKED: ATOM     28  C   UNL     1     139.569  69.170 226.742 -0.50 -0.01    +0.049 A  
DOCKED: ATOM     29  C   UNL     1     140.787  70.873 227.970 -0.68 -0.01    +0.041 A  
DOCKED: ATOM     30  C   UNL     1     140.108  69.674 227.918 -0.52 -0.02    +0.123 A  
DOCKED: ATOM     31  F   UNL     1     139.962  68.959 229.075 -0.13 +0.03    -0.207 F  
DOCKED: ENDBRANCH  18  21
DOCKED: ENDBRANCH  16  17
DOCKED: ENDBRANCH   1  16
DOCKED: TORSDOF 6
DOCKED: TER
DOCKED: ENDMDL
________________________________________________________________________________


    FINAL DOCKED STATE:
    ________________________


Run:   8 / 20
Time taken for this run:   0.024s

DOCKED: MODEL        8
DOCKED: USER    Run = 8
DOCKED: USER
DOCKED: USER    Estimated Free Energy of Binding    =  -8.66 kcal/mol  [=(1)+(2)+(3)-(4)]
DOCKED: USER
DOCKED: USER    (1) Final Intermolecular Energy     = -10.45 kcal/mol
DOCKED: USER        vdW + Hbond + desolv Energy     = -10.39 kcal/mol
DOCKED: USER        Electrostatic Energy            =  -0.06 kcal/mol
DOCKED: USER        Moving Ligand-Fixed Receptor    = -10.45 kcal/mol
DOCKED: USER        Moving Ligand-Moving Receptor   =  +0.00 kcal/mol
DOCKED: USER    (2) Final Total Internal Energy     =  -1.75 kcal/mol
DOCKED: USER    (3) Torsional Free Energy           =  +1.79 kcal/mol
DOCKED: USER    (4) Unbound System's Energy         =  -1.75 kcal/mol
DOCKED: USER
DOCKED: USER
DOCKED: REMARK SMILES COc1ccccc1[C@H]1CCCN1C(=O)CNC(=O)c1ccc2cc(F)ccc2n1
DOCKED: REMARK SMILES IDX 14 1 15 2 13 3 9 4 10 5 11 6 12 7 8 8 3 9 4 10 5 11 7 12
DOCKED: REMARK SMILES IDX 6 13 2 14 1 15 16 16 17 17 18 18 19 20 20 21 21 22 30 23
DOCKED: REMARK SMILES IDX 22 24 29 25 23 26 28 27 24 28 27 29 25 30 26 31
DOCKED: REMARK H PARENT 17 19
DOCKED: USER                              x       y       z     vdW  Elec       q    Type
DOCKED: USER                           _______ _______ _______ _____ _____    ______ ____
DOCKED: ROOT
DOCKED: ATOM      1  C   UNL     1     140.425  75.982 221.564 -0.25 -0.06    +0.242 C  
DOCKED: ATOM      2  O   UNL     1     140.021  76.313 222.708 -0.35 +0.05    -0.273 OA 
DOCKED: ENDROOT
DOCKED: BRANCH   1   3
DOCKED: ATOM      3  N   UNL     1     141.252  76.808 220.751 -0.12 +0.15    -0.334 N  
DOCKED: ATOM      4  C   UNL     1     141.022  78.200 220.531 -0.21 -0.05    +0.119 C  
DOCKED: ATOM      5  C   UNL     1     141.990  78.586 219.435 -0.24 -0.02    +0.032 C  
DOCKED: ATOM      6  C   UNL     1     142.390  77.302 218.762 -0.30 -0.01    +0.024 C  
DOCKED: ATOM      7  C   UNL     1     142.455  76.407 220.010 -0.25 -0.07    +0.120 C  
DOCKED: BRANCH   4   8
DOCKED: ATOM      8  C   UNL     1     141.278  79.083 221.702 -0.37 -0.01    +0.017 A  
DOCKED: ATOM      9  C   UNL     1     140.982  80.442 221.583 -0.28 -0.04    +0.124 A  
DOCKED: ATOM     10  C   UNL     1     141.221  81.264 222.673 -0.44 -0.01    +0.047 A  
DOCKED: ATOM     11  C   UNL     1     141.741  80.763 223.854 -0.58 -0.00    +0.004 A  
DOCKED: ATOM     12  C   UNL     1     141.797  78.545 222.864 -0.48 -0.00    +0.010 A  
DOCKED: ATOM     13  C   UNL     1     142.018  79.412 223.927 -0.59 -0.00    +0.001 A  
DOCKED: BRANCH   9  14
DOCKED: ATOM     14  O   UNL     1     140.467  80.891 220.387 -0.02 +0.15    -0.496 OA 
DOCKED: ATOM     15  C   UNL     1     141.105  81.973 219.735 -0.16 -0.09    +0.278 C  
DOCKED: ENDBRANCH   9  14
DOCKED: ENDBRANCH   4   8
DOCKED: ENDBRANCH   1   3
DOCKED: BRANCH   1  16
DOCKED: ATOM     16  C   UNL     1     139.981  74.628 221.075 -0.18 -0.04    +0.216 C  
DOCKED: BRANCH  16  17
DOCKED: ATOM     17  N   UNL     1     139.878  73.700 222.174 -0.12 +0.04    -0.342 N  
DOCKED: ATOM     18  C   UNL     1     140.169  72.311 222.070 -0.20 -0.04    +0.270 C  
DOCKED: ATOM     19  H   UNL     1     139.566  74.078 223.119 -0.52 -0.02    +0.164 HD 
DOCKED: ATOM     20  O   UNL     1     140.541  71.838 220.960 -0.10 +0.04    -0.268 OA 
DOCKED: BRANCH  18  21
DOCKED: ATOM     21  C   UNL     1     140.020  71.485 223.269 -0.31 -0.02    +0.128 A  
DOCKED: ATOM     22  C   UNL     1     139.381  70.262 223.212 -0.25 -0.01    +0.035 A  
DOCKED: ATOM     23  N   UNL     1     140.505  71.896 224.474 -0.26 +0.04    -0.243 NA 
DOCKED: ATOM     24  C   UNL     1     139.227  69.457 224.346 -0.33 -0.00    +0.013 A  
DOCKED: ATOM     25  C   UNL     1     140.359  71.125 225.571 -0.51 -0.01    +0.071 A  
DOCKED: ATOM     26  C   UNL     1     139.734  69.906 225.561 -0.45 -0.00    +0.003 A  
DOCKED: ATOM     27  C   UNL     1     140.883  71.623 226.749 -0.70 -0.01    +0.032 A  
DOCKED: ATOM     28  C   UNL     1     139.621  69.167 226.725 -0.50 -0.01    +0.049 A  
DOCKED: ATOM     29  C   UNL     1     140.792  70.916 227.936 -0.68 -0.01    +0.041 A  
DOCKED: ATOM     30  C   UNL     1     140.157  69.692 227.894 -0.52 -0.02    +0.123 A  
DOCKED: ATOM     31  F   UNL     1     140.052  68.973 229.054 -0.13 +0.03    -0.207 F  
DOCKED: ENDBRANCH  18  21
DOCKED: ENDBRANCH  16  17
DOCKED: ENDBRANCH   1  16
DOCKED: TORSDOF 6
DOCKED: TER
DOCKED: ENDMDL
________________________________________________________________________________


    FINAL DOCKED STATE:
    ________________________


Run:   9 / 20
Time taken for this run:   0.024s

DOCKED: MODEL        9
DOCKED: USER    Run = 9
DOCKED: USER
DOCKED: USER    Estimated Free Energy of Binding    =  -6.46 kcal/mol  [=(1)+(2)+(3)-(4)]
DOCKED: USER
DOCKED: USER    (1) Final Intermolecular Energy     =  -8.25 kcal/mol
DOCKED: USER        vdW + Hbond + desolv Energy     =  -8.12 kcal/mol
DOCKED: USER        Electrostatic Energy            =  -0.13 kcal/mol
DOCKED: USER        Moving Ligand-Fixed Receptor    =  -8.25 kcal/mol
DOCKED: USER        Moving Ligand-Moving Receptor   =  +0.00 kcal/mol
DOCKED: USER    (2) Final Total Internal Energy     =  -2.91 kcal/mol
DOCKED: USER    (3) Torsional Free Energy           =  +1.79 kcal/mol
DOCKED: USER    (4) Unbound System's Energy         =  -2.91 kcal/mol
DOCKED: USER
DOCKED: USER
DOCKED: REMARK SMILES COc1ccccc1[C@H]1CCCN1C(=O)CNC(=O)c1ccc2cc(F)ccc2n1
DOCKED: REMARK SMILES IDX 14 1 15 2 13 3 9 4 10 5 11 6 12 7 8 8 3 9 4 10 5 11 7 12
DOCKED: REMARK SMILES IDX 6 13 2 14 1 15 16 16 17 17 18 18 19 20 20 21 21 22 30 23
DOCKED: REMARK SMILES IDX 22 24 29 25 23 26 28 27 24 28 27 29 25 30 26 31
DOCKED: REMARK H PARENT 17 19
DOCKED: USER                              x       y       z     vdW  Elec       q    Type
DOCKED: USER                           _______ _______ _______ _____ _____    ______ ____
DOCKED: ROOT
DOCKED: ATOM      1  C   UNL     1     139.680  78.778 222.629 -0.23 -0.05    +0.242 C  
DOCKED: ATOM      2  O   UNL     1     138.824  78.623 223.537 -0.18 +0.04    -0.273 OA 
DOCKED: ENDROOT
DOCKED: BRANCH   1   3
DOCKED: ATOM      3  N   UNL     1     140.857  79.564 222.781 -0.18 +0.09    -0.334 N  
DOCKED: ATOM      4  C   UNL     1     141.985  79.493 221.909 -0.40 -0.06    +0.119 C  
DOCKED: ATOM      5  C   UNL     1     143.058  80.311 222.592 -0.49 -0.01    +0.032 C  
DOCKED: ATOM      6  C   UNL     1     142.645  80.416 224.035 -0.57 -0.00    +0.024 C  
DOCKED: ATOM      7  C   UNL     1     141.130  80.563 223.823 -0.39 -0.02    +0.120 C  
DOCKED: BRANCH   4   8
DOCKED: ATOM      8  C   UNL     1     141.777  80.057 220.547 -0.33 -0.01    +0.017 A  
DOCKED: ATOM      9  C   UNL     1     141.982  79.223 219.447 -0.20 -0.08    +0.124 A  
DOCKED: ATOM     10  C   UNL     1     141.789  79.748 218.179 -0.25 -0.03    +0.047 A  
DOCKED: ATOM     11  C   UNL     1     141.402  81.064 217.995 -0.20 -0.00    +0.004 A  
DOCKED: ATOM     12  C   UNL     1     141.390  81.376 220.404 -0.31 -0.00    +0.010 A  
DOCKED: ATOM     13  C   UNL     1     141.210  81.853 219.111 -0.23 -0.00    +0.001 A  
DOCKED: BRANCH   9  14
DOCKED: ATOM     14  O   UNL     1     142.366  77.921 219.683 -0.09 +0.36    -0.496 OA 
DOCKED: ATOM     15  C   UNL     1     142.955  77.184 218.628 -0.21 -0.19    +0.278 C  
DOCKED: ENDBRANCH   9  14
DOCKED: ENDBRANCH   4   8
DOCKED: ENDBRANCH   1   3
DOCKED: BRANCH   1  16
DOCKED: ATOM     16  C   UNL     1     139.396  78.070 221.330 -0.12 -0.05    +0.216 C  
DOCKED: BRANCH  16  17
DOCKED: ATOM     17  N   UNL     1     140.326  76.986 221.127 -0.09 +0.11    -0.342 N  
DOCKED: ATOM     18  C   UNL     1     140.113  75.660 221.597 -0.23 -0.06    +0.270 C  
DOCKED: ATOM     19  H   UNL     1     141.223  77.192 220.594 +0.05 -0.08    +0.164 HD 
DOCKED: ATOM     20  O   UNL     1     139.056  75.391 222.232 -0.36 +0.06    -0.268 OA 
DOCKED: BRANCH  18  21
DOCKED: ATOM     21  C   UNL     1     141.144  74.659 221.318 -0.26 -0.02    +0.128 A  
DOCKED: ATOM     22  C   UNL     1     140.896  73.314 221.515 -0.28 -0.00    +0.035 A  
DOCKED: ATOM     23  N   UNL     1     142.374  75.020 220.859 -0.16 +0.10    -0.243 NA 
DOCKED: ATOM     24  C   UNL     1     141.866  72.340 221.257 -0.24 -0.00    +0.013 A  
DOCKED: ATOM     25  C   UNL     1     143.314  74.086 220.608 -0.29 -0.02    +0.071 A  
DOCKED: ATOM     26  C   UNL     1     143.113  72.743 220.788 -0.29 -0.00    +0.003 A  
DOCKED: ATOM     27  C   UNL     1     144.532  74.546 220.145 -0.43 -0.01    +0.032 A  
DOCKED: ATOM     28  C   UNL     1     144.122  71.839 220.509 -0.29 -0.01    +0.049 A  
DOCKED: ATOM     29  C   UNL     1     145.569  73.675 219.854 -0.43 -0.00    +0.041 A  
DOCKED: ATOM     30  C   UNL     1     145.336  72.330 220.045 -0.35 +0.01    +0.123 A  
DOCKED: ATOM     31  F   UNL     1     146.345  71.448 219.765 -0.08 -0.18    -0.207 F  
DOCKED: ENDBRANCH  18  21
DOCKED: ENDBRANCH  16  17
DOCKED: ENDBRANCH   1  16
DOCKED: TORSDOF 6
DOCKED: TER
DOCKED: ENDMDL
________________________________________________________________________________


    FINAL DOCKED STATE:
    ________________________


Run:   10 / 20
Time taken for this run:   0.024s

DOCKED: MODEL        10
DOCKED: USER    Run = 10
DOCKED: USER
DOCKED: USER    Estimated Free Energy of Binding    =  -7.35 kcal/mol  [=(1)+(2)+(3)-(4)]
DOCKED: USER
DOCKED: USER    (1) Final Intermolecular Energy     =  -9.14 kcal/mol
DOCKED: USER        vdW + Hbond + desolv Energy     =  -9.10 kcal/mol
DOCKED: USER        Electrostatic Energy            =  -0.04 kcal/mol
DOCKED: USER        Moving Ligand-Fixed Receptor    =  -9.14 kcal/mol
DOCKED: USER        Moving Ligand-Moving Receptor   =  +0.00 kcal/mol
DOCKED: USER    (2) Final Total Internal Energy     =  -2.39 kcal/mol
DOCKED: USER    (3) Torsional Free Energy           =  +1.79 kcal/mol
DOCKED: USER    (4) Unbound System's Energy         =  -2.39 kcal/mol
DOCKED: USER
DOCKED: USER
DOCKED: REMARK SMILES COc1ccccc1[C@H]1CCCN1C(=O)CNC(=O)c1ccc2cc(F)ccc2n1
DOCKED: REMARK SMILES IDX 14 1 15 2 13 3 9 4 10 5 11 6 12 7 8 8 3 9 4 10 5 11 7 12
DOCKED: REMARK SMILES IDX 6 13 2 14 1 15 16 16 17 17 18 18 19 20 20 21 21 22 30 23
DOCKED: REMARK SMILES IDX 22 24 29 25 23 26 28 27 24 28 27 29 25 30 26 31
DOCKED: REMARK H PARENT 17 19
DOCKED: USER                              x       y       z     vdW  Elec       q    Type
DOCKED: USER                           _______ _______ _______ _____ _____    ______ ____
DOCKED: ROOT
DOCKED: ATOM      1  C   UNL     1     141.957  72.447 219.013 -0.03 -0.04    +0.242 C  
DOCKED: ATOM      2  O   UNL     1     141.731  71.831 217.940 -0.01 +0.05    -0.273 OA 
DOCKED: ENDROOT
DOCKED: BRANCH   1   3
DOCKED: ATOM      3  N   UNL     1     143.263  72.772 219.475 -0.05 +0.05    -0.334 N  
DOCKED: ATOM      4  C   UNL     1     144.035  71.943 220.343 -0.26 -0.01    +0.119 C  
DOCKED: ATOM      5  C   UNL     1     145.220  72.793 220.744 -0.50 -0.00    +0.032 C  
DOCKED: ATOM      6  C   UNL     1     144.824  74.217 220.461 -0.51 -0.01    +0.024 C  
DOCKED: ATOM      7  C   UNL     1     144.043  73.977 219.159 -0.24 -0.03    +0.120 C  
DOCKED: BRANCH   4   8
DOCKED: ATOM      8  C   UNL     1     144.555  70.688 219.734 -0.21 +0.00    +0.017 A  
DOCKED: ATOM      9  C   UNL     1     143.690  69.599 219.619 -0.19 -0.00    +0.124 A  
DOCKED: ATOM     10  C   UNL     1     144.175  68.431 219.052 -0.26 -0.00    +0.047 A  
DOCKED: ATOM     11  C   UNL     1     145.483  68.334 218.608 -0.37 +0.00    +0.004 A  
DOCKED: ATOM     12  C   UNL     1     145.867  70.630 219.303 -0.29 +0.01    +0.010 A  
DOCKED: ATOM     13  C   UNL     1     146.303  69.437 218.741 -0.37 +0.00    +0.001 A  
DOCKED: BRANCH   9  14
DOCKED: ATOM     14  O   UNL     1     142.398  69.747 220.075 +0.03 +0.05    -0.496 OA 
DOCKED: ATOM     15  C   UNL     1     141.386  68.921 219.530 -0.06 -0.05    +0.278 C  
DOCKED: ENDBRANCH   9  14
DOCKED: ENDBRANCH   4   8
DOCKED: ENDBRANCH   1   3
DOCKED: BRANCH   1  16
DOCKED: ATOM     16  C   UNL     1     140.743  72.837 219.815 -0.06 -0.04    +0.216 C  
DOCKED: BRANCH  16  17
DOCKED: ATOM     17  N   UNL     1     140.627  72.016 220.995 -0.07 +0.05    -0.342 N  
DOCKED: ATOM     18  C   UNL     1     140.227  72.509 222.269 -0.21 -0.03    +0.270 C  
DOCKED: ATOM     19  H   UNL     1     140.855  70.981 220.906 +0.04 -0.02    +0.164 HD 
DOCKED: ATOM     20  O   UNL     1     139.952  73.734 222.399 -0.83 +0.01    -0.268 OA 
DOCKED: BRANCH  18  21
DOCKED: ATOM     21  C   UNL     1     140.154  71.561 223.381 -0.32 -0.02    +0.128 A  
DOCKED: ATOM     22  C   UNL     1     139.595  70.309 223.208 -0.25 -0.01    +0.035 A  
DOCKED: ATOM     23  N   UNL     1     140.631  71.881 224.615 -0.26 +0.03    -0.243 NA 
DOCKED: ATOM     24  C   UNL     1     139.513  69.387 224.257 -0.31 -0.00    +0.013 A  
DOCKED: ATOM     25  C   UNL     1     140.555  70.996 225.631 -0.53 -0.01    +0.071 A  
DOCKED: ATOM     26  C   UNL     1     140.011  69.745 225.506 -0.45 -0.00    +0.003 A  
DOCKED: ATOM     27  C   UNL     1     141.066  71.408 226.848 -0.70 -0.01    +0.032 A  
DOCKED: ATOM     28  C   UNL     1     139.967  68.888 226.590 -0.53 -0.01    +0.049 A  
DOCKED: ATOM     29  C   UNL     1     141.042  70.582 227.958 -0.62 -0.01    +0.041 A  
DOCKED: ATOM     30  C   UNL     1     140.487  69.329 227.800 -0.52 -0.02    +0.123 A  
DOCKED: ATOM     31  F   UNL     1     140.450  68.493 228.883 -0.18 +0.04    -0.207 F  
DOCKED: ENDBRANCH  18  21
DOCKED: ENDBRANCH  16  17
DOCKED: ENDBRANCH   1  16
DOCKED: TORSDOF 6
DOCKED: TER
DOCKED: ENDMDL
________________________________________________________________________________


    FINAL DOCKED STATE:
    ________________________


Run:   11 / 20
Time taken for this run:   0.024s

DOCKED: MODEL        11
DOCKED: USER    Run = 11
DOCKED: USER
DOCKED: USER    Estimated Free Energy of Binding    =  -7.33 kcal/mol  [=(1)+(2)+(3)-(4)]
DOCKED: USER
DOCKED: USER    (1) Final Intermolecular Energy     =  -9.12 kcal/mol
DOCKED: USER        vdW + Hbond + desolv Energy     =  -9.08 kcal/mol
DOCKED: USER        Electrostatic Energy            =  -0.04 kcal/mol
DOCKED: USER        Moving Ligand-Fixed Receptor    =  -9.12 kcal/mol
DOCKED: USER        Moving Ligand-Moving Receptor   =  +0.00 kcal/mol
DOCKED: USER    (2) Final Total Internal Energy     =  -2.40 kcal/mol
DOCKED: USER    (3) Torsional Free Energy           =  +1.79 kcal/mol
DOCKED: USER    (4) Unbound System's Energy         =  -2.40 kcal/mol
DOCKED: USER
DOCKED: USER
DOCKED: REMARK SMILES COc1ccccc1[C@H]1CCCN1C(=O)CNC(=O)c1ccc2cc(F)ccc2n1
DOCKED: REMARK SMILES IDX 14 1 15 2 13 3 9 4 10 5 11 6 12 7 8 8 3 9 4 10 5 11 7 12
DOCKED: REMARK SMILES IDX 6 13 2 14 1 15 16 16 17 17 18 18 19 20 20 21 21 22 30 23
DOCKED: REMARK SMILES IDX 22 24 29 25 23 26 28 27 24 28 27 29 25 30 26 31
DOCKED: REMARK H PARENT 17 19
DOCKED: USER                              x       y       z     vdW  Elec       q    Type
DOCKED: USER                           _______ _______ _______ _____ _____    ______ ____
DOCKED: ROOT
DOCKED: ATOM      1  C   UNL     1     141.923  72.483 219.004 -0.03 -0.04    +0.242 C  
DOCKED: ATOM      2  O   UNL     1     141.708  71.865 217.929 -0.01 +0.05    -0.273 OA 
DOCKED: ENDROOT
DOCKED: BRANCH   1   3
DOCKED: ATOM      3  N   UNL     1     143.224  72.830 219.466 -0.05 +0.05    -0.334 N  
DOCKED: ATOM      4  C   UNL     1     144.007  72.015 220.338 -0.27 -0.01    +0.119 C  
DOCKED: ATOM      5  C   UNL     1     145.178  72.885 220.737 -0.52 -0.00    +0.032 C  
DOCKED: ATOM      6  C   UNL     1     144.760  74.301 220.451 -0.49 -0.01    +0.024 C  
DOCKED: ATOM      7  C   UNL     1     143.985  74.046 219.149 -0.24 -0.03    +0.120 C  
DOCKED: BRANCH   4   8
DOCKED: ATOM      8  C   UNL     1     144.548  70.767 219.732 -0.22 +0.00    +0.017 A  
DOCKED: ATOM      9  C   UNL     1     143.700  69.665 219.617 -0.18 -0.00    +0.124 A  
DOCKED: ATOM     10  C   UNL     1     144.204  68.504 219.054 -0.26 -0.00    +0.047 A  
DOCKED: ATOM     11  C   UNL     1     145.514  68.426 218.613 -0.36 +0.00    +0.004 A  
DOCKED: ATOM     12  C   UNL     1     145.861  70.729 219.304 -0.29 +0.01    +0.010 A  
DOCKED: ATOM     13  C   UNL     1     146.318  69.541 218.746 -0.37 +0.00    +0.001 A  
DOCKED: BRANCH   9  14
DOCKED: ATOM     14  O   UNL     1     142.405  69.794 220.070 +0.02 +0.05    -0.496 OA 
DOCKED: ATOM     15  C   UNL     1     141.410  68.942 219.534 -0.06 -0.05    +0.278 C  
DOCKED: ENDBRANCH   9  14
DOCKED: ENDBRANCH   4   8
DOCKED: ENDBRANCH   1   3
DOCKED: BRANCH   1  16
DOCKED: ATOM     16  C   UNL     1     140.702  72.851 219.806 -0.06 -0.04    +0.216 C  
DOCKED: BRANCH  16  17
DOCKED: ATOM     17  N   UNL     1     140.602  72.027 220.985 -0.07 +0.05    -0.342 N  
DOCKED: ATOM     18  C   UNL     1     140.241  72.520 222.270 -0.21 -0.03    +0.270 C  
DOCKED: ATOM     19  H   UNL     1     140.809  70.988 220.887 +0.04 -0.02    +0.164 HD 
DOCKED: ATOM     20  O   UNL     1     139.989  73.749 222.412 -0.81 +0.01    -0.268 OA 
DOCKED: BRANCH  18  21
DOCKED: ATOM     21  C   UNL     1     140.178  71.568 223.380 -0.32 -0.02    +0.128 A  
DOCKED: ATOM     22  C   UNL     1     139.636  70.310 223.203 -0.24 -0.01    +0.035 A  
DOCKED: ATOM     23  N   UNL     1     140.649  71.892 224.616 -0.26 +0.03    -0.243 NA 
DOCKED: ATOM     24  C   UNL     1     139.565  69.384 224.249 -0.30 -0.00    +0.013 A  
DOCKED: ATOM     25  C   UNL     1     140.583  71.004 225.629 -0.53 -0.01    +0.071 A  
DOCKED: ATOM     26  C   UNL     1     140.056  69.746 225.500 -0.45 -0.00    +0.003 A  
DOCKED: ATOM     27  C   UNL     1     141.086  71.420 226.848 -0.70 -0.00    +0.032 A  
DOCKED: ATOM     28  C   UNL     1     140.021  68.886 226.582 -0.53 -0.01    +0.049 A  
DOCKED: ATOM     29  C   UNL     1     141.071  70.590 227.956 -0.62 -0.01    +0.041 A  
DOCKED: ATOM     30  C   UNL     1     140.533  69.331 227.794 -0.52 -0.02    +0.123 A  
DOCKED: ATOM     31  F   UNL     1     140.505  68.491 228.875 -0.18 +0.05    -0.207 F  
DOCKED: ENDBRANCH  18  21
DOCKED: ENDBRANCH  16  17
DOCKED: ENDBRANCH   1  16
DOCKED: TORSDOF 6
DOCKED: TER
DOCKED: ENDMDL
________________________________________________________________________________


    FINAL DOCKED STATE:
    ________________________


Run:   12 / 20
Time taken for this run:   0.024s

DOCKED: MODEL        12
DOCKED: USER    Run = 12
DOCKED: USER
DOCKED: USER    Estimated Free Energy of Binding    =  -8.59 kcal/mol  [=(1)+(2)+(3)-(4)]
DOCKED: USER
DOCKED: USER    (1) Final Intermolecular Energy     = -10.38 kcal/mol
DOCKED: USER        vdW + Hbond + desolv Energy     = -10.32 kcal/mol
DOCKED: USER        Electrostatic Energy            =  -0.06 kcal/mol
DOCKED: USER        Moving Ligand-Fixed Receptor    = -10.38 kcal/mol
DOCKED: USER        Moving Ligand-Moving Receptor   =  +0.00 kcal/mol
DOCKED: USER    (2) Final Total Internal Energy     =  -1.97 kcal/mol
DOCKED: USER    (3) Torsional Free Energy           =  +1.79 kcal/mol
DOCKED: USER    (4) Unbound System's Energy         =  -1.97 kcal/mol
DOCKED: USER
DOCKED: USER
DOCKED: REMARK SMILES COc1ccccc1[C@H]1CCCN1C(=O)CNC(=O)c1ccc2cc(F)ccc2n1
DOCKED: REMARK SMILES IDX 14 1 15 2 13 3 9 4 10 5 11 6 12 7 8 8 3 9 4 10 5 11 7 12
DOCKED: REMARK SMILES IDX 6 13 2 14 1 15 16 16 17 17 18 18 19 20 20 21 21 22 30 23
DOCKED: REMARK SMILES IDX 22 24 29 25 23 26 28 27 24 28 27 29 25 30 26 31
DOCKED: REMARK H PARENT 17 19
DOCKED: USER                              x       y       z     vdW  Elec       q    Type
DOCKED: USER                           _______ _______ _______ _____ _____    ______ ____
DOCKED: ROOT
DOCKED: ATOM      1  C   UNL     1     140.522  75.958 221.551 -0.25 -0.07    +0.242 C  
DOCKED: ATOM      2  O   UNL     1     140.170  76.242 222.725 -0.35 +0.05    -0.273 OA 
DOCKED: ENDROOT
DOCKED: BRANCH   1   3
DOCKED: ATOM      3  N   UNL     1     141.247  76.849 220.709 -0.12 +0.15    -0.334 N  
DOCKED: ATOM      4  C   UNL     1     140.924  78.229 220.540 -0.21 -0.05    +0.119 C  
DOCKED: ATOM      5  C   UNL     1     141.795  78.695 219.395 -0.27 -0.02    +0.032 C  
DOCKED: ATOM      6  C   UNL     1     142.224  77.451 218.665 -0.28 -0.01    +0.024 C  
DOCKED: ATOM      7  C   UNL     1     142.420  76.535 219.884 -0.27 -0.07    +0.120 C  
DOCKED: BRANCH   4   8
DOCKED: ATOM      8  C   UNL     1     141.204  79.100 221.714 -0.36 -0.01    +0.017 A  
DOCKED: ATOM      9  C   UNL     1     140.124  79.671 222.388 -0.26 -0.03    +0.124 A  
DOCKED: ATOM     10  C   UNL     1     140.386  80.482 223.481 -0.43 -0.01    +0.047 A  
DOCKED: ATOM     11  C   UNL     1     141.681  80.729 223.902 -0.54 -0.00    +0.004 A  
DOCKED: ATOM     12  C   UNL     1     142.511  79.323 222.104 -0.39 -0.01    +0.010 A  
DOCKED: ATOM     13  C   UNL     1     142.719  80.144 223.205 -0.66 -0.00    +0.001 A  
DOCKED: BRANCH   9  14
DOCKED: ATOM     14  O   UNL     1     138.855  79.394 221.930 -0.01 +0.10    -0.496 OA 
DOCKED: ATOM     15  C   UNL     1     138.052  78.483 222.658 -0.15 -0.04    +0.278 C  
DOCKED: ENDBRANCH   9  14
DOCKED: ENDBRANCH   4   8
DOCKED: ENDBRANCH   1   3
DOCKED: BRANCH   1  16
DOCKED: ATOM     16  C   UNL     1     140.131  74.589 221.060 -0.18 -0.04    +0.216 C  
DOCKED: BRANCH  16  17
DOCKED: ATOM     17  N   UNL     1     139.973  73.678 222.167 -0.12 +0.03    -0.342 N  
DOCKED: ATOM     18  C   UNL     1     140.307  72.296 222.112 -0.20 -0.03    +0.270 C  
DOCKED: ATOM     19  H   UNL     1     139.583  74.064 223.079 -0.51 -0.02    +0.164 HD 
DOCKED: ATOM     20  O   UNL     1     140.772  71.815 221.041 -0.11 +0.04    -0.268 OA 
DOCKED: BRANCH  18  21
DOCKED: ATOM     21  C   UNL     1     140.093  71.489 223.313 -0.31 -0.02    +0.128 A  
DOCKED: ATOM     22  C   UNL     1     139.395  70.298 223.251 -0.26 -0.01    +0.035 A  
DOCKED: ATOM     23  N   UNL     1     140.574  71.884 224.525 -0.26 +0.03    -0.243 NA 
DOCKED: ATOM     24  C   UNL     1     139.178  69.511 224.387 -0.34 -0.00    +0.013 A  
DOCKED: ATOM     25  C   UNL     1     140.367  71.129 225.624 -0.52 -0.01    +0.071 A  
DOCKED: ATOM     26  C   UNL     1     139.683  69.943 225.609 -0.45 -0.00    +0.003 A  
DOCKED: ATOM     27  C   UNL     1     140.892  71.610 226.809 -0.71 -0.01    +0.032 A  
DOCKED: ATOM     28  C   UNL     1     139.509  69.220 226.775 -0.49 -0.01    +0.049 A  
DOCKED: ATOM     29  C   UNL     1     140.741  70.917 227.998 -0.68 -0.01    +0.041 A  
DOCKED: ATOM     30  C   UNL     1     140.047  69.726 227.952 -0.52 -0.02    +0.123 A  
DOCKED: ATOM     31  F   UNL     1     139.883  69.022 229.113 -0.11 +0.03    -0.207 F  
DOCKED: ENDBRANCH  18  21
DOCKED: ENDBRANCH  16  17
DOCKED: ENDBRANCH   1  16
DOCKED: TORSDOF 6
DOCKED: TER
DOCKED: ENDMDL
________________________________________________________________________________


    FINAL DOCKED STATE:
    ________________________


Run:   13 / 20
Time taken for this run:   0.024s

DOCKED: MODEL        13
DOCKED: USER    Run = 13
DOCKED: USER
DOCKED: USER    Estimated Free Energy of Binding    =  -8.17 kcal/mol  [=(1)+(2)+(3)-(4)]
DOCKED: USER
DOCKED: USER    (1) Final Intermolecular Energy     =  -9.96 kcal/mol
DOCKED: USER        vdW + Hbond + desolv Energy     =  -9.91 kcal/mol
DOCKED: USER        Electrostatic Energy            =  -0.05 kcal/mol
DOCKED: USER        Moving Ligand-Fixed Receptor    =  -9.96 kcal/mol
DOCKED: USER        Moving Ligand-Moving Receptor   =  +0.00 kcal/mol
DOCKED: USER    (2) Final Total Internal Energy     =  -1.95 kcal/mol
DOCKED: USER    (3) Torsional Free Energy           =  +1.79 kcal/mol
DOCKED: USER    (4) Unbound System's Energy         =  -1.95 kcal/mol
DOCKED: USER
DOCKED: USER
DOCKED: REMARK SMILES COc1ccccc1[C@H]1CCCN1C(=O)CNC(=O)c1ccc2cc(F)ccc2n1
DOCKED: REMARK SMILES IDX 14 1 15 2 13 3 9 4 10 5 11 6 12 7 8 8 3 9 4 10 5 11 7 12
DOCKED: REMARK SMILES IDX 6 13 2 14 1 15 16 16 17 17 18 18 19 20 20 21 21 22 30 23
DOCKED: REMARK SMILES IDX 22 24 29 25 23 26 28 27 24 28 27 29 25 30 26 31
DOCKED: REMARK H PARENT 17 19
DOCKED: USER                              x       y       z     vdW  Elec       q    Type
DOCKED: USER                           _______ _______ _______ _____ _____    ______ ____
DOCKED: ROOT
DOCKED: ATOM      1  C   UNL     1     140.142  76.023 221.564 -0.24 -0.06    +0.242 C  
DOCKED: ATOM      2  O   UNL     1     139.915  76.177 222.792 -0.29 +0.04    -0.273 OA 
DOCKED: ENDROOT
DOCKED: BRANCH   1   3
DOCKED: ATOM      3  N   UNL     1     140.321  77.104 220.655 -0.06 +0.11    -0.334 N  
DOCKED: ATOM      4  C   UNL     1     139.957  78.455 220.938 -0.15 -0.04    +0.119 C  
DOCKED: ATOM      5  C   UNL     1     140.105  79.182 219.620 -0.11 -0.01    +0.032 C  
DOCKED: ATOM      6  C   UNL     1     140.091  78.120 218.555 -0.07 -0.01    +0.024 C  
DOCKED: ATOM      7  C   UNL     1     140.893  77.043 219.304 -0.12 -0.05    +0.120 C  
DOCKED: BRANCH   4   8
DOCKED: ATOM      8  C   UNL     1     140.808  79.150 221.942 -0.34 -0.01    +0.017 A  
DOCKED: ATOM      9  C   UNL     1     140.182  79.946 222.902 -0.32 -0.02    +0.124 A  
DOCKED: ATOM     10  C   UNL     1     140.974  80.594 223.837 -0.44 -0.01    +0.047 A  
DOCKED: ATOM     11  C   UNL     1     142.352  80.462 223.830 -0.66 -0.00    +0.004 A  
DOCKED: ATOM     12  C   UNL     1     142.180  78.994 221.902 -0.43 -0.01    +0.010 A  
DOCKED: ATOM     13  C   UNL     1     142.929  79.664 222.862 -0.60 -0.00    +0.001 A  
DOCKED: BRANCH   9  14
DOCKED: ATOM     14  O   UNL     1     138.808  80.045 222.868 -0.07 +0.08    -0.496 OA 
DOCKED: ATOM     15  C   UNL     1     138.133  80.536 224.010 -0.25 -0.03    +0.278 C  
DOCKED: ENDBRANCH   9  14
DOCKED: ENDBRANCH   4   8
DOCKED: ENDBRANCH   1   3
DOCKED: BRANCH   1  16
DOCKED: ATOM     16  C   UNL     1     140.216  74.598 221.082 -0.19 -0.04    +0.216 C  
DOCKED: BRANCH  16  17
DOCKED: ATOM     17  N   UNL     1     140.054  73.680 222.183 -0.10 +0.02    -0.342 N  
DOCKED: ATOM     18  C   UNL     1     140.461  72.317 222.147 -0.20 -0.03    +0.270 C  
DOCKED: ATOM     19  H   UNL     1     139.603  74.046 223.075 -0.50 -0.01    +0.164 HD 
DOCKED: ATOM     20  O   UNL     1     140.999  71.860 221.100 -0.13 +0.03    -0.268 OA 
DOCKED: BRANCH  18  21
DOCKED: ATOM     21  C   UNL     1     140.234  71.500 223.339 -0.31 -0.02    +0.128 A  
DOCKED: ATOM     22  C   UNL     1     139.537  70.309 223.259 -0.26 -0.01    +0.035 A  
DOCKED: ATOM     23  N   UNL     1     140.700  71.886 224.559 -0.26 +0.03    -0.243 NA 
DOCKED: ATOM     24  C   UNL     1     139.307  69.513 224.385 -0.33 -0.00    +0.013 A  
DOCKED: ATOM     25  C   UNL     1     140.482  71.121 225.649 -0.53 -0.01    +0.071 A  
DOCKED: ATOM     26  C   UNL     1     139.798  69.936 225.617 -0.46 -0.00    +0.003 A  
DOCKED: ATOM     27  C   UNL     1     140.992  71.593 226.845 -0.72 -0.01    +0.032 A  
DOCKED: ATOM     28  C   UNL     1     139.611  69.202 226.776 -0.50 -0.01    +0.049 A  
DOCKED: ATOM     29  C   UNL     1     140.828  70.890 228.026 -0.66 -0.01    +0.041 A  
DOCKED: ATOM     30  C   UNL     1     140.135  69.700 227.962 -0.52 -0.02    +0.123 A  
DOCKED: ATOM     31  F   UNL     1     139.959  68.986 229.116 -0.11 +0.03    -0.207 F  
DOCKED: ENDBRANCH  18  21
DOCKED: ENDBRANCH  16  17
DOCKED: ENDBRANCH   1  16
DOCKED: TORSDOF 6
DOCKED: TER
DOCKED: ENDMDL
________________________________________________________________________________


    FINAL DOCKED STATE:
    ________________________


Run:   14 / 20
Time taken for this run:   0.024s

DOCKED: MODEL        14
DOCKED: USER    Run = 14
DOCKED: USER
DOCKED: USER    Estimated Free Energy of Binding    =  -8.55 kcal/mol  [=(1)+(2)+(3)-(4)]
DOCKED: USER
DOCKED: USER    (1) Final Intermolecular Energy     = -10.34 kcal/mol
DOCKED: USER        vdW + Hbond + desolv Energy     = -10.29 kcal/mol
DOCKED: USER        Electrostatic Energy            =  -0.05 kcal/mol
DOCKED: USER        Moving Ligand-Fixed Receptor    = -10.34 kcal/mol
DOCKED: USER        Moving Ligand-Moving Receptor   =  +0.00 kcal/mol
DOCKED: USER    (2) Final Total Internal Energy     =  -1.92 kcal/mol
DOCKED: USER    (3) Torsional Free Energy           =  +1.79 kcal/mol
DOCKED: USER    (4) Unbound System's Energy         =  -1.92 kcal/mol
DOCKED: USER
DOCKED: USER
DOCKED: REMARK SMILES COc1ccccc1[C@H]1CCCN1C(=O)CNC(=O)c1ccc2cc(F)ccc2n1
DOCKED: REMARK SMILES IDX 14 1 15 2 13 3 9 4 10 5 11 6 12 7 8 8 3 9 4 10 5 11 7 12
DOCKED: REMARK SMILES IDX 6 13 2 14 1 15 16 16 17 17 18 18 19 20 20 21 21 22 30 23
DOCKED: REMARK SMILES IDX 22 24 29 25 23 26 28 27 24 28 27 29 25 30 26 31
DOCKED: REMARK H PARENT 17 19
DOCKED: USER                              x       y       z     vdW  Elec       q    Type
DOCKED: USER                           _______ _______ _______ _____ _____    ______ ____
DOCKED: ROOT
DOCKED: ATOM      1  C   UNL     1     140.423  75.964 221.557 -0.24 -0.06    +0.242 C  
DOCKED: ATOM      2  O   UNL     1     140.051  76.271 222.719 -0.35 +0.05    -0.273 OA 
DOCKED: ENDROOT
DOCKED: BRANCH   1   3
DOCKED: ATOM      3  N   UNL     1     141.192  76.825 220.724 -0.11 +0.15    -0.334 N  
DOCKED: ATOM      4  C   UNL     1     140.909  78.211 220.529 -0.20 -0.05    +0.119 C  
DOCKED: ATOM      5  C   UNL     1     141.822  78.640 219.402 -0.27 -0.02    +0.032 C  
DOCKED: ATOM      6  C   UNL     1     142.237  77.376 218.699 -0.28 -0.01    +0.024 C  
DOCKED: ATOM      7  C   UNL     1     142.378  76.471 219.933 -0.26 -0.07    +0.120 C  
DOCKED: BRANCH   4   8
DOCKED: ATOM      8  C   UNL     1     141.182  79.090 221.699 -0.36 -0.01    +0.017 A  
DOCKED: ATOM      9  C   UNL     1     140.101  79.529 222.464 -0.27 -0.03    +0.124 A  
DOCKED: ATOM     10  C   UNL     1     140.354  80.348 223.553 -0.42 -0.01    +0.047 A  
DOCKED: ATOM     11  C   UNL     1     141.644  80.727 223.885 -0.54 -0.00    +0.004 A  
DOCKED: ATOM     12  C   UNL     1     142.483  79.446 221.999 -0.39 -0.01    +0.010 A  
DOCKED: ATOM     13  C   UNL     1     142.684  80.268 223.101 -0.66 -0.00    +0.001 A  
DOCKED: BRANCH   9  14
DOCKED: ATOM     14  O   UNL     1     138.837  79.124 222.092 -0.03 +0.10    -0.496 OA 
DOCKED: ATOM     15  C   UNL     1     137.744  79.451 222.930 -0.15 -0.04    +0.278 C  
DOCKED: ENDBRANCH   9  14
DOCKED: ENDBRANCH   4   8
DOCKED: ENDBRANCH   1   3
DOCKED: BRANCH   1  16
DOCKED: ATOM     16  C   UNL     1     140.006  74.601 221.071 -0.18 -0.04    +0.216 C  
DOCKED: BRANCH  16  17
DOCKED: ATOM     17  N   UNL     1     139.889  73.681 222.176 -0.13 +0.04    -0.342 N  
DOCKED: ATOM     18  C   UNL     1     140.202  72.296 222.092 -0.20 -0.04    +0.270 C  
DOCKED: ATOM     19  H   UNL     1     139.547  74.063 223.108 -0.52 -0.02    +0.164 HD 
DOCKED: ATOM     20  O   UNL     1     140.610  71.819 220.996 -0.11 +0.04    -0.268 OA 
DOCKED: BRANCH  18  21
DOCKED: ATOM     21  C   UNL     1     140.036  71.479 223.295 -0.31 -0.02    +0.128 A  
DOCKED: ATOM     22  C   UNL     1     139.443  70.233 223.228 -0.25 -0.01    +0.035 A  
DOCKED: ATOM     23  N   UNL     1     140.458  71.921 224.512 -0.24 +0.04    -0.243 NA 
DOCKED: ATOM     24  C   UNL     1     139.272  69.436 224.365 -0.33 -0.00    +0.013 A  
DOCKED: ATOM     25  C   UNL     1     140.296  71.156 225.612 -0.51 -0.01    +0.071 A  
DOCKED: ATOM     26  C   UNL     1     139.715  69.917 225.594 -0.45 -0.00    +0.003 A  
DOCKED: ATOM     27  C   UNL     1     140.755  71.686 226.804 -0.69 -0.01    +0.032 A  
DOCKED: ATOM     28  C   UNL     1     139.582  69.187 226.761 -0.50 -0.01    +0.049 A  
DOCKED: ATOM     29  C   UNL     1     140.642  70.989 227.995 -0.69 -0.01    +0.041 A  
DOCKED: ATOM     30  C   UNL     1     140.052  69.744 227.944 -0.52 -0.02    +0.123 A  
DOCKED: ATOM     31  F   UNL     1     139.927  69.034 229.107 -0.11 +0.03    -0.207 F  
DOCKED: ENDBRANCH  18  21
DOCKED: ENDBRANCH  16  17
DOCKED: ENDBRANCH   1  16
DOCKED: TORSDOF 6
DOCKED: TER
DOCKED: ENDMDL
________________________________________________________________________________


    FINAL DOCKED STATE:
    ________________________


Run:   15 / 20
Time taken for this run:   0.024s

DOCKED: MODEL        15
DOCKED: USER    Run = 15
DOCKED: USER
DOCKED: USER    Estimated Free Energy of Binding    =  -8.69 kcal/mol  [=(1)+(2)+(3)-(4)]
DOCKED: USER
DOCKED: USER    (1) Final Intermolecular Energy     = -10.48 kcal/mol
DOCKED: USER        vdW + Hbond + desolv Energy     = -10.42 kcal/mol
DOCKED: USER        Electrostatic Energy            =  -0.06 kcal/mol
DOCKED: USER        Moving Ligand-Fixed Receptor    = -10.48 kcal/mol
DOCKED: USER        Moving Ligand-Moving Receptor   =  +0.00 kcal/mol
DOCKED: USER    (2) Final Total Internal Energy     =  -1.74 kcal/mol
DOCKED: USER    (3) Torsional Free Energy           =  +1.79 kcal/mol
DOCKED: USER    (4) Unbound System's Energy         =  -1.74 kcal/mol
DOCKED: USER
DOCKED: USER
DOCKED: REMARK SMILES COc1ccccc1[C@H]1CCCN1C(=O)CNC(=O)c1ccc2cc(F)ccc2n1
DOCKED: REMARK SMILES IDX 14 1 15 2 13 3 9 4 10 5 11 6 12 7 8 8 3 9 4 10 5 11 7 12
DOCKED: REMARK SMILES IDX 6 13 2 14 1 15 16 16 17 17 18 18 19 20 20 21 21 22 30 23
DOCKED: REMARK SMILES IDX 22 24 29 25 23 26 28 27 24 28 27 29 25 30 26 31
DOCKED: REMARK H PARENT 17 19
DOCKED: USER                              x       y       z     vdW  Elec       q    Type
DOCKED: USER                           _______ _______ _______ _____ _____    ______ ____
DOCKED: ROOT
DOCKED: ATOM      1  C   UNL     1     140.458  75.963 221.569 -0.25 -0.06    +0.242 C  
DOCKED: ATOM      2  O   UNL     1     140.054  76.299 222.712 -0.35 +0.05    -0.273 OA 
DOCKED: ENDROOT
DOCKED: BRANCH   1   3
DOCKED: ATOM      3  N   UNL     1     141.291  76.782 220.755 -0.12 +0.15    -0.334 N  
DOCKED: ATOM      4  C   UNL     1     141.063  78.172 220.523 -0.22 -0.05    +0.119 C  
DOCKED: ATOM      5  C   UNL     1     142.038  78.549 219.430 -0.23 -0.02    +0.032 C  
DOCKED: ATOM      6  C   UNL     1     142.443  77.259 218.770 -0.31 -0.02    +0.024 C  
DOCKED: ATOM      7  C   UNL     1     142.498  76.375 220.026 -0.25 -0.07    +0.120 C  
DOCKED: BRANCH   4   8
DOCKED: ATOM      8  C   UNL     1     141.311  79.065 221.687 -0.37 -0.01    +0.017 A  
DOCKED: ATOM      9  C   UNL     1     141.019  80.423 221.555 -0.28 -0.04    +0.124 A  
DOCKED: ATOM     10  C   UNL     1     141.251  81.254 222.639 -0.44 -0.01    +0.047 A  
DOCKED: ATOM     11  C   UNL     1     141.759  80.762 223.829 -0.59 -0.00    +0.004 A  
DOCKED: ATOM     12  C   UNL     1     141.820  78.536 222.859 -0.48 -0.00    +0.010 A  
DOCKED: ATOM     13  C   UNL     1     142.033  79.412 223.916 -0.59 -0.00    +0.001 A  
DOCKED: BRANCH   9  14
DOCKED: ATOM     14  O   UNL     1     140.514  80.863 220.351 -0.02 +0.15    -0.496 OA 
DOCKED: ATOM     15  C   UNL     1     141.197  81.895 219.664 -0.15 -0.09    +0.278 C  
DOCKED: ENDBRANCH   9  14
DOCKED: ENDBRANCH   4   8
DOCKED: ENDBRANCH   1   3
DOCKED: BRANCH   1  16
DOCKED: ATOM     16  C   UNL     1     140.006  74.611 221.083 -0.18 -0.04    +0.216 C  
DOCKED: BRANCH  16  17
DOCKED: ATOM     17  N   UNL     1     139.888  73.688 222.185 -0.12 +0.04    -0.342 N  
DOCKED: ATOM     18  C   UNL     1     140.182  72.298 222.092 -0.20 -0.04    +0.270 C  
DOCKED: ATOM     19  H   UNL     1     139.564  74.071 223.124 -0.52 -0.02    +0.164 HD 
DOCKED: ATOM     20  O   UNL     1     140.569  71.821 220.989 -0.10 +0.04    -0.268 OA 
DOCKED: BRANCH  18  21
DOCKED: ATOM     21  C   UNL     1     140.018  71.479 223.293 -0.31 -0.02    +0.128 A  
DOCKED: ATOM     22  C   UNL     1     139.366  70.262 223.236 -0.25 -0.01    +0.035 A  
DOCKED: ATOM     23  N   UNL     1     140.501  71.889 224.499 -0.27 +0.04    -0.243 NA 
DOCKED: ATOM     24  C   UNL     1     139.197  69.463 224.372 -0.34 -0.00    +0.013 A  
DOCKED: ATOM     25  C   UNL     1     140.341  71.122 225.598 -0.51 -0.01    +0.071 A  
DOCKED: ATOM     26  C   UNL     1     139.703  69.911 225.589 -0.45 -0.00    +0.003 A  
DOCKED: ATOM     27  C   UNL     1     140.863  71.619 226.777 -0.70 -0.01    +0.032 A  
DOCKED: ATOM     28  C   UNL     1     139.575  69.177 226.754 -0.50 -0.01    +0.049 A  
DOCKED: ATOM     29  C   UNL     1     140.758  70.917 227.965 -0.69 -0.01    +0.041 A  
DOCKED: ATOM     30  C   UNL     1     140.110  69.700 227.924 -0.52 -0.02    +0.123 A  
DOCKED: ATOM     31  F   UNL     1     139.992  68.986 229.086 -0.13 +0.03    -0.207 F  
DOCKED: ENDBRANCH  18  21
DOCKED: ENDBRANCH  16  17
DOCKED: ENDBRANCH   1  16
DOCKED: TORSDOF 6
DOCKED: TER
DOCKED: ENDMDL
________________________________________________________________________________


    FINAL DOCKED STATE:
    ________________________


Run:   16 / 20
Time taken for this run:   0.024s

DOCKED: MODEL        16
DOCKED: USER    Run = 16
DOCKED: USER
DOCKED: USER    Estimated Free Energy of Binding    =  -7.94 kcal/mol  [=(1)+(2)+(3)-(4)]
DOCKED: USER
DOCKED: USER    (1) Final Intermolecular Energy     =  -9.73 kcal/mol
DOCKED: USER        vdW + Hbond + desolv Energy     =  -9.72 kcal/mol
DOCKED: USER        Electrostatic Energy            =  -0.01 kcal/mol
DOCKED: USER        Moving Ligand-Fixed Receptor    =  -9.73 kcal/mol
DOCKED: USER        Moving Ligand-Moving Receptor   =  +0.00 kcal/mol
DOCKED: USER    (2) Final Total Internal Energy     =  -1.71 kcal/mol
DOCKED: USER    (3) Torsional Free Energy           =  +1.79 kcal/mol
DOCKED: USER    (4) Unbound System's Energy         =  -1.71 kcal/mol
DOCKED: USER
DOCKED: USER
DOCKED: REMARK SMILES COc1ccccc1[C@H]1CCCN1C(=O)CNC(=O)c1ccc2cc(F)ccc2n1
DOCKED: REMARK SMILES IDX 14 1 15 2 13 3 9 4 10 5 11 6 12 7 8 8 3 9 4 10 5 11 7 12
DOCKED: REMARK SMILES IDX 6 13 2 14 1 15 16 16 17 17 18 18 19 20 20 21 21 22 30 23
DOCKED: REMARK SMILES IDX 22 24 29 25 23 26 28 27 24 28 27 29 25 30 26 31
DOCKED: REMARK H PARENT 17 19
DOCKED: USER                              x       y       z     vdW  Elec       q    Type
DOCKED: USER                           _______ _______ _______ _____ _____    ______ ____
DOCKED: ROOT
DOCKED: ATOM      1  C   UNL     1     139.433  75.590 221.411 -0.19 -0.05    +0.242 C  
DOCKED: ATOM      2  O   UNL     1     138.729  76.516 221.889 -0.17 +0.06    -0.273 OA 
DOCKED: ENDROOT
DOCKED: BRANCH   1   3
DOCKED: ATOM      3  N   UNL     1     140.796  75.752 221.032 -0.14 +0.10    -0.334 N  
DOCKED: ATOM      4  C   UNL     1     141.337  76.956 220.488 -0.24 -0.06    +0.119 C  
DOCKED: ATOM      5  C   UNL     1     142.727  76.584 220.024 -0.24 -0.02    +0.032 C  
DOCKED: ATOM      6  C   UNL     1     142.736  75.085 219.899 -0.31 -0.01    +0.024 C  
DOCKED: ATOM      7  C   UNL     1     141.869  74.753 221.124 -0.18 -0.03    +0.120 C  
DOCKED: BRANCH   4   8
DOCKED: ATOM      8  C   UNL     1     141.461  78.091 221.443 -0.35 -0.01    +0.017 A  
DOCKED: ATOM      9  C   UNL     1     141.603  79.379 220.927 -0.28 -0.06    +0.124 A  
DOCKED: ATOM     10  C   UNL     1     141.719  80.435 221.816 -0.42 -0.02    +0.047 A  
DOCKED: ATOM     11  C   UNL     1     141.695  80.231 223.185 -0.57 -0.00    +0.004 A  
DOCKED: ATOM     12  C   UNL     1     141.432  77.846 222.803 -0.40 -0.00    +0.010 A  
DOCKED: ATOM     13  C   UNL     1     141.552  78.939 223.652 -0.61 -0.00    +0.001 A  
DOCKED: BRANCH   9  14
DOCKED: ATOM     14  O   UNL     1     141.621  79.530 219.557 -0.08 +0.27    -0.496 OA 
DOCKED: ATOM     15  C   UNL     1     142.174  80.712 219.010 -0.16 -0.16    +0.278 C  
DOCKED: ENDBRANCH   9  14
DOCKED: ENDBRANCH   4   8
DOCKED: ENDBRANCH   1   3
DOCKED: BRANCH   1  16
DOCKED: ATOM     16  C   UNL     1     138.748  74.258 221.250 -0.13 -0.05    +0.216 C  
DOCKED: BRANCH  16  17
DOCKED: ATOM     17  N   UNL     1     139.086  73.378 222.342 -0.07 +0.09    -0.342 N  
DOCKED: ATOM     18  C   UNL     1     139.034  71.958 222.261 -0.15 -0.06    +0.270 C  
DOCKED: ATOM     19  H   UNL     1     139.394  73.818 223.260 -0.48 -0.06    +0.164 HD 
DOCKED: ATOM     20  O   UNL     1     138.672  71.413 221.181 -0.05 +0.05    -0.268 OA 
DOCKED: BRANCH  18  21
DOCKED: ATOM     21  C   UNL     1     139.405  71.188 223.448 -0.28 -0.03    +0.128 A  
DOCKED: ATOM     22  C   UNL     1     139.229  69.818 223.488 -0.25 -0.01    +0.035 A  
DOCKED: ATOM     23  N   UNL     1     139.934  71.795 224.547 -0.20 +0.06    -0.243 NA 
DOCKED: ATOM     24  C   UNL     1     139.576  69.063 224.612 -0.33 -0.00    +0.013 A  
DOCKED: ATOM     25  C   UNL     1     140.271  71.071 225.634 -0.51 -0.01    +0.071 A  
DOCKED: ATOM     26  C   UNL     1     140.115  69.714 225.718 -0.47 -0.00    +0.003 A  
DOCKED: ATOM     27  C   UNL     1     140.801  71.773 226.702 -0.68 -0.01    +0.032 A  
DOCKED: ATOM     28  C   UNL     1     140.483  69.035 226.866 -0.56 -0.01    +0.049 A  
DOCKED: ATOM     29  C   UNL     1     141.183  71.132 227.868 -0.64 -0.01    +0.041 A  
DOCKED: ATOM     30  C   UNL     1     141.013  69.765 227.922 -0.49 -0.02    +0.123 A  
DOCKED: ATOM     31  F   UNL     1     141.381  69.108 229.064 -0.08 +0.05    -0.207 F  
DOCKED: ENDBRANCH  18  21
DOCKED: ENDBRANCH  16  17
DOCKED: ENDBRANCH   1  16
DOCKED: TORSDOF 6
DOCKED: TER
DOCKED: ENDMDL
________________________________________________________________________________


    FINAL DOCKED STATE:
    ________________________


Run:   17 / 20
Time taken for this run:   0.024s

DOCKED: MODEL        17
DOCKED: USER    Run = 17
DOCKED: USER
DOCKED: USER    Estimated Free Energy of Binding    =  -8.58 kcal/mol  [=(1)+(2)+(3)-(4)]
DOCKED: USER
DOCKED: USER    (1) Final Intermolecular Energy     = -10.37 kcal/mol
DOCKED: USER        vdW + Hbond + desolv Energy     = -10.31 kcal/mol
DOCKED: USER        Electrostatic Energy            =  -0.06 kcal/mol
DOCKED: USER        Moving Ligand-Fixed Receptor    = -10.37 kcal/mol
DOCKED: USER        Moving Ligand-Moving Receptor   =  +0.00 kcal/mol
DOCKED: USER    (2) Final Total Internal Energy     =  -1.99 kcal/mol
DOCKED: USER    (3) Torsional Free Energy           =  +1.79 kcal/mol
DOCKED: USER    (4) Unbound System's Energy         =  -1.99 kcal/mol
DOCKED: USER
DOCKED: USER
DOCKED: REMARK SMILES COc1ccccc1[C@H]1CCCN1C(=O)CNC(=O)c1ccc2cc(F)ccc2n1
DOCKED: REMARK SMILES IDX 14 1 15 2 13 3 9 4 10 5 11 6 12 7 8 8 3 9 4 10 5 11 7 12
DOCKED: REMARK SMILES IDX 6 13 2 14 1 15 16 16 17 17 18 18 19 20 20 21 21 22 30 23
DOCKED: REMARK SMILES IDX 22 24 29 25 23 26 28 27 24 28 27 29 25 30 26 31
DOCKED: REMARK H PARENT 17 19
DOCKED: USER                              x       y       z     vdW  Elec       q    Type
DOCKED: USER                           _______ _______ _______ _____ _____    ______ ____
DOCKED: ROOT
DOCKED: ATOM      1  C   UNL     1     140.429  75.959 221.562 -0.25 -0.06    +0.242 C  
DOCKED: ATOM      2  O   UNL     1     140.047  76.268 222.720 -0.35 +0.05    -0.273 OA 
DOCKED: ENDROOT
DOCKED: BRANCH   1   3
DOCKED: ATOM      3  N   UNL     1     141.206  76.818 220.735 -0.11 +0.15    -0.334 N  
DOCKED: ATOM      4  C   UNL     1     140.932  78.206 220.542 -0.21 -0.05    +0.119 C  
DOCKED: ATOM      5  C   UNL     1     141.853  78.633 219.421 -0.27 -0.02    +0.032 C  
DOCKED: ATOM      6  C   UNL     1     142.264  77.369 218.716 -0.29 -0.01    +0.024 C  
DOCKED: ATOM      7  C   UNL     1     142.394  76.460 219.949 -0.26 -0.07    +0.120 C  
DOCKED: BRANCH   4   8
DOCKED: ATOM      8  C   UNL     1     141.204  79.080 221.716 -0.36 -0.01    +0.017 A  
DOCKED: ATOM      9  C   UNL     1     140.120  79.666 222.371 -0.26 -0.03    +0.124 A  
DOCKED: ATOM     10  C   UNL     1     140.372  80.480 223.463 -0.43 -0.01    +0.047 A  
DOCKED: ATOM     11  C   UNL     1     141.663  80.715 223.904 -0.53 -0.00    +0.004 A  
DOCKED: ATOM     12  C   UNL     1     142.507  79.290 222.126 -0.40 -0.01    +0.010 A  
DOCKED: ATOM     13  C   UNL     1     142.706  80.114 223.227 -0.66 -0.00    +0.001 A  
DOCKED: BRANCH   9  14
DOCKED: ATOM     14  O   UNL     1     138.854  79.401 221.893 -0.01 +0.10    -0.496 OA 
DOCKED: ATOM     15  C   UNL     1     138.000  78.569 222.656 -0.14 -0.04    +0.278 C  
DOCKED: ENDBRANCH   9  14
DOCKED: ENDBRANCH   4   8
DOCKED: ENDBRANCH   1   3
DOCKED: BRANCH   1  16
DOCKED: ATOM     16  C   UNL     1     140.014  74.596 221.073 -0.18 -0.04    +0.216 C  
DOCKED: BRANCH  16  17
DOCKED: ATOM     17  N   UNL     1     139.898  73.674 222.177 -0.13 +0.04    -0.342 N  
DOCKED: ATOM     18  C   UNL     1     140.195  72.285 222.085 -0.20 -0.04    +0.270 C  
DOCKED: ATOM     19  H   UNL     1     139.572  74.057 223.114 -0.52 -0.02    +0.164 HD 
DOCKED: ATOM     20  O   UNL     1     140.584  71.808 220.983 -0.10 +0.04    -0.268 OA 
DOCKED: BRANCH  18  21
DOCKED: ATOM     21  C   UNL     1     140.033  71.467 223.287 -0.31 -0.02    +0.128 A  
DOCKED: ATOM     22  C   UNL     1     139.391  70.245 223.229 -0.25 -0.01    +0.035 A  
DOCKED: ATOM     23  N   UNL     1     140.506  71.883 224.494 -0.27 +0.04    -0.243 NA 
DOCKED: ATOM     24  C   UNL     1     139.224  69.446 224.365 -0.33 -0.00    +0.013 A  
DOCKED: ATOM     25  C   UNL     1     140.348  71.117 225.593 -0.51 -0.01    +0.071 A  
DOCKED: ATOM     26  C   UNL     1     139.720  69.900 225.584 -0.45 -0.00    +0.003 A  
DOCKED: ATOM     27  C   UNL     1     140.861  71.621 226.774 -0.70 -0.01    +0.032 A  
DOCKED: ATOM     28  C   UNL     1     139.593  69.168 226.750 -0.50 -0.01    +0.049 A  
DOCKED: ATOM     29  C   UNL     1     140.756  70.920 227.963 -0.69 -0.01    +0.041 A  
DOCKED: ATOM     30  C   UNL     1     140.119  69.698 227.922 -0.52 -0.02    +0.123 A  
DOCKED: ATOM     31  F   UNL     1     140.001  68.984 229.084 -0.12 +0.03    -0.207 F  
DOCKED: ENDBRANCH  18  21
DOCKED: ENDBRANCH  16  17
DOCKED: ENDBRANCH   1  16
DOCKED: TORSDOF 6
DOCKED: TER
DOCKED: ENDMDL
________________________________________________________________________________


    FINAL DOCKED STATE:
    ________________________


Run:   18 / 20
Time taken for this run:   0.024s

DOCKED: MODEL        18
DOCKED: USER    Run = 18
DOCKED: USER
DOCKED: USER    Estimated Free Energy of Binding    =  -8.06 kcal/mol  [=(1)+(2)+(3)-(4)]
DOCKED: USER
DOCKED: USER    (1) Final Intermolecular Energy     =  -9.85 kcal/mol
DOCKED: USER        vdW + Hbond + desolv Energy     =  -9.82 kcal/mol
DOCKED: USER        Electrostatic Energy            =  -0.03 kcal/mol
DOCKED: USER        Moving Ligand-Fixed Receptor    =  -9.85 kcal/mol
DOCKED: USER        Moving Ligand-Moving Receptor   =  +0.00 kcal/mol
DOCKED: USER    (2) Final Total Internal Energy     =  -1.90 kcal/mol
DOCKED: USER    (3) Torsional Free Energy           =  +1.79 kcal/mol
DOCKED: USER    (4) Unbound System's Energy         =  -1.90 kcal/mol
DOCKED: USER
DOCKED: USER
DOCKED: REMARK SMILES COc1ccccc1[C@H]1CCCN1C(=O)CNC(=O)c1ccc2cc(F)ccc2n1
DOCKED: REMARK SMILES IDX 14 1 15 2 13 3 9 4 10 5 11 6 12 7 8 8 3 9 4 10 5 11 7 12
DOCKED: REMARK SMILES IDX 6 13 2 14 1 15 16 16 17 17 18 18 19 20 20 21 21 22 30 23
DOCKED: REMARK SMILES IDX 22 24 29 25 23 26 28 27 24 28 27 29 25 30 26 31
DOCKED: REMARK H PARENT 17 19
DOCKED: USER                              x       y       z     vdW  Elec       q    Type
DOCKED: USER                           _______ _______ _______ _____ _____    ______ ____
DOCKED: ROOT
DOCKED: ATOM      1  C   UNL     1     140.517  75.987 221.494 -0.24 -0.07    +0.242 C  
DOCKED: ATOM      2  O   UNL     1     140.805  76.052 222.717 -0.27 +0.05    -0.273 OA 
DOCKED: ENDROOT
DOCKED: BRANCH   1   3
DOCKED: ATOM      3  N   UNL     1     140.776  77.036 220.567 -0.08 +0.13    -0.334 N  
DOCKED: ATOM      4  C   UNL     1     140.252  78.358 220.689 -0.15 -0.04    +0.119 C  
DOCKED: ATOM      5  C   UNL     1     140.588  79.032 219.378 -0.14 -0.01    +0.032 C  
DOCKED: ATOM      6  C   UNL     1     140.866  77.924 218.400 -0.12 -0.01    +0.024 C  
DOCKED: ATOM      7  C   UNL     1     141.598  76.965 219.353 -0.19 -0.06    +0.120 C  
DOCKED: BRANCH   4   8
DOCKED: ATOM      8  C   UNL     1     140.834  79.177 221.787 -0.33 -0.01    +0.017 A  
DOCKED: ATOM      9  C   UNL     1     139.972  79.694 222.756 -0.30 -0.03    +0.124 A  
DOCKED: ATOM     10  C   UNL     1     140.514  80.457 223.778 -0.40 -0.01    +0.047 A  
DOCKED: ATOM     11  C   UNL     1     141.873  80.708 223.848 -0.60 -0.00    +0.004 A  
DOCKED: ATOM     12  C   UNL     1     142.196  79.405 221.823 -0.44 -0.01    +0.010 A  
DOCKED: ATOM     13  C   UNL     1     142.689  80.176 222.869 -0.64 -0.00    +0.001 A  
DOCKED: BRANCH   9  14
DOCKED: ATOM     14  O   UNL     1     138.628  79.415 222.642 -0.06 +0.08    -0.496 OA 
DOCKED: ATOM     15  C   UNL     1     137.718  80.097 223.486 -0.19 -0.03    +0.278 C  
DOCKED: ENDBRANCH   9  14
DOCKED: ENDBRANCH   4   8
DOCKED: ENDBRANCH   1   3
DOCKED: BRANCH   1  16
DOCKED: ATOM     16  C   UNL     1     139.864  74.708 221.040 -0.17 -0.04    +0.216 C  
DOCKED: BRANCH  16  17
DOCKED: ATOM     17  N   UNL     1     139.783  73.764 222.128 -0.13 +0.04    -0.342 N  
DOCKED: ATOM     18  C   UNL     1     139.975  72.362 221.979 -0.19 -0.04    +0.270 C  
DOCKED: ATOM     19  H   UNL     1     139.567  74.141 223.100 -0.53 -0.02    +0.164 HD 
DOCKED: ATOM     20  O   UNL     1     140.232  71.892 220.836 -0.08 +0.04    -0.268 OA 
DOCKED: BRANCH  18  21
DOCKED: ATOM     21  C   UNL     1     139.863  71.522 223.171 -0.30 -0.02    +0.128 A  
DOCKED: ATOM     22  C   UNL     1     139.219  70.301 223.119 -0.24 -0.01    +0.035 A  
DOCKED: ATOM     23  N   UNL     1     140.389  71.916 224.365 -0.26 +0.04    -0.243 NA 
DOCKED: ATOM     24  C   UNL     1     139.099  69.482 224.247 -0.32 -0.00    +0.013 A  
DOCKED: ATOM     25  C   UNL     1     140.277  71.131 225.456 -0.50 -0.01    +0.071 A  
DOCKED: ATOM     26  C   UNL     1     139.648  69.914 225.451 -0.44 -0.00    +0.003 A  
DOCKED: ATOM     27  C   UNL     1     140.841  71.612 226.622 -0.68 -0.01    +0.032 A  
DOCKED: ATOM     28  C   UNL     1     139.571  69.160 226.608 -0.49 -0.01    +0.049 A  
DOCKED: ATOM     29  C   UNL     1     140.786  70.890 227.802 -0.67 -0.01    +0.041 A  
DOCKED: ATOM     30  C   UNL     1     140.146  69.669 227.766 -0.51 -0.02    +0.123 A  
DOCKED: ATOM     31  F   UNL     1     140.078  68.935 228.918 -0.15 +0.04    -0.207 F  
DOCKED: ENDBRANCH  18  21
DOCKED: ENDBRANCH  16  17
DOCKED: ENDBRANCH   1  16
DOCKED: TORSDOF 6
DOCKED: TER
DOCKED: ENDMDL
________________________________________________________________________________


    FINAL DOCKED STATE:
    ________________________


Run:   19 / 20
Time taken for this run:   0.024s

DOCKED: MODEL        19
DOCKED: USER    Run = 19
DOCKED: USER
DOCKED: USER    Estimated Free Energy of Binding    =  -8.59 kcal/mol  [=(1)+(2)+(3)-(4)]
DOCKED: USER
DOCKED: USER    (1) Final Intermolecular Energy     = -10.38 kcal/mol
DOCKED: USER        vdW + Hbond + desolv Energy     = -10.33 kcal/mol
DOCKED: USER        Electrostatic Energy            =  -0.05 kcal/mol
DOCKED: USER        Moving Ligand-Fixed Receptor    = -10.38 kcal/mol
DOCKED: USER        Moving Ligand-Moving Receptor   =  +0.00 kcal/mol
DOCKED: USER    (2) Final Total Internal Energy     =  -1.92 kcal/mol
DOCKED: USER    (3) Torsional Free Energy           =  +1.79 kcal/mol
DOCKED: USER    (4) Unbound System's Energy         =  -1.92 kcal/mol
DOCKED: USER
DOCKED: USER
DOCKED: REMARK SMILES COc1ccccc1[C@H]1CCCN1C(=O)CNC(=O)c1ccc2cc(F)ccc2n1
DOCKED: REMARK SMILES IDX 14 1 15 2 13 3 9 4 10 5 11 6 12 7 8 8 3 9 4 10 5 11 7 12
DOCKED: REMARK SMILES IDX 6 13 2 14 1 15 16 16 17 17 18 18 19 20 20 21 21 22 30 23
DOCKED: REMARK SMILES IDX 22 24 29 25 23 26 28 27 24 28 27 29 25 30 26 31
DOCKED: REMARK H PARENT 17 19
DOCKED: USER                              x       y       z     vdW  Elec       q    Type
DOCKED: USER                           _______ _______ _______ _____ _____    ______ ____
DOCKED: ROOT
DOCKED: ATOM      1  C   UNL     1     140.492  75.953 221.553 -0.25 -0.06    +0.242 C  
DOCKED: ATOM      2  O   UNL     1     140.109  76.247 222.715 -0.35 +0.05    -0.273 OA 
DOCKED: ENDROOT
DOCKED: BRANCH   1   3
DOCKED: ATOM      3  N   UNL     1     141.236  76.837 220.722 -0.12 +0.15    -0.334 N  
DOCKED: ATOM      4  C   UNL     1     140.940  78.224 220.562 -0.21 -0.05    +0.119 C  
DOCKED: ATOM      5  C   UNL     1     141.825  78.684 219.425 -0.27 -0.02    +0.032 C  
DOCKED: ATOM      6  C   UNL     1     142.233  77.438 218.687 -0.28 -0.01    +0.024 C  
DOCKED: ATOM      7  C   UNL     1     142.407  76.508 219.899 -0.26 -0.07    +0.120 C  
DOCKED: BRANCH   4   8
DOCKED: ATOM      8  C   UNL     1     141.231  79.080 221.744 -0.37 -0.01    +0.017 A  
DOCKED: ATOM      9  C   UNL     1     140.161  79.517 222.526 -0.28 -0.03    +0.124 A  
DOCKED: ATOM     10  C   UNL     1     140.432  80.315 223.626 -0.42 -0.01    +0.047 A  
DOCKED: ATOM     11  C   UNL     1     141.728  80.676 223.953 -0.51 -0.00    +0.004 A  
DOCKED: ATOM     12  C   UNL     1     142.538  79.420 222.038 -0.38 -0.01    +0.010 A  
DOCKED: ATOM     13  C   UNL     1     142.757  80.221 223.152 -0.66 -0.00    +0.001 A  
DOCKED: BRANCH   9  14
DOCKED: ATOM     14  O   UNL     1     138.890  79.130 222.159 -0.03 +0.10    -0.496 OA 
DOCKED: ATOM     15  C   UNL     1     137.818  79.393 223.044 -0.15 -0.04    +0.278 C  
DOCKED: ENDBRANCH   9  14
DOCKED: ENDBRANCH   4   8
DOCKED: ENDBRANCH   1   3
DOCKED: BRANCH   1  16
DOCKED: ATOM     16  C   UNL     1     140.116  74.578 221.065 -0.18 -0.04    +0.216 C  
DOCKED: BRANCH  16  17
DOCKED: ATOM     17  N   UNL     1     139.968  73.668 222.174 -0.12 +0.03    -0.342 N  
DOCKED: ATOM     18  C   UNL     1     140.298  72.285 222.115 -0.20 -0.03    +0.270 C  
DOCKED: ATOM     19  H   UNL     1     139.590  74.055 223.090 -0.51 -0.01    +0.164 HD 
DOCKED: ATOM     20  O   UNL     1     140.749  71.803 221.039 -0.11 +0.04    -0.268 OA 
DOCKED: BRANCH  18  21
DOCKED: ATOM     21  C   UNL     1     140.097  71.478 223.319 -0.31 -0.02    +0.128 A  
DOCKED: ATOM     22  C   UNL     1     139.429  70.270 223.258 -0.25 -0.01    +0.035 A  
DOCKED: ATOM     23  N   UNL     1     140.558  71.892 224.532 -0.26 +0.03    -0.243 NA 
DOCKED: ATOM     24  C   UNL     1     139.224  69.483 224.395 -0.34 -0.00    +0.013 A  
DOCKED: ATOM     25  C   UNL     1     140.363  71.137 225.633 -0.52 -0.01    +0.071 A  
DOCKED: ATOM     26  C   UNL     1     139.709  69.934 225.620 -0.46 -0.00    +0.003 A  
DOCKED: ATOM     27  C   UNL     1     140.867  71.637 226.819 -0.71 -0.01    +0.032 A  
DOCKED: ATOM     28  C   UNL     1     139.546  69.212 226.788 -0.50 -0.01    +0.049 A  
DOCKED: ATOM     29  C   UNL     1     140.726  70.946 228.011 -0.68 -0.01    +0.041 A  
DOCKED: ATOM     30  C   UNL     1     140.062  69.738 227.965 -0.52 -0.02    +0.123 A  
DOCKED: ATOM     31  F   UNL     1     139.908  69.035 229.130 -0.09 +0.03    -0.207 F  
DOCKED: ENDBRANCH  18  21
DOCKED: ENDBRANCH  16  17
DOCKED: ENDBRANCH   1  16
DOCKED: TORSDOF 6
DOCKED: TER
DOCKED: ENDMDL
________________________________________________________________________________


    FINAL DOCKED STATE:
    ________________________


Run:   20 / 20
Time taken for this run:   0.024s

DOCKED: MODEL        20
DOCKED: USER    Run = 20
DOCKED: USER
DOCKED: USER    Estimated Free Energy of Binding    =  -8.61 kcal/mol  [=(1)+(2)+(3)-(4)]
DOCKED: USER
DOCKED: USER    (1) Final Intermolecular Energy     = -10.40 kcal/mol
DOCKED: USER        vdW + Hbond + desolv Energy     = -10.34 kcal/mol
DOCKED: USER        Electrostatic Energy            =  -0.06 kcal/mol
DOCKED: USER        Moving Ligand-Fixed Receptor    = -10.40 kcal/mol
DOCKED: USER        Moving Ligand-Moving Receptor   =  +0.00 kcal/mol
DOCKED: USER    (2) Final Total Internal Energy     =  -1.94 kcal/mol
DOCKED: USER    (3) Torsional Free Energy           =  +1.79 kcal/mol
DOCKED: USER    (4) Unbound System's Energy         =  -1.94 kcal/mol
DOCKED: USER
DOCKED: USER
DOCKED: REMARK SMILES COc1ccccc1[C@H]1CCCN1C(=O)CNC(=O)c1ccc2cc(F)ccc2n1
DOCKED: REMARK SMILES IDX 14 1 15 2 13 3 9 4 10 5 11 6 12 7 8 8 3 9 4 10 5 11 7 12
DOCKED: REMARK SMILES IDX 6 13 2 14 1 15 16 16 17 17 18 18 19 20 20 21 21 22 30 23
DOCKED: REMARK SMILES IDX 22 24 29 25 23 26 28 27 24 28 27 29 25 30 26 31
DOCKED: REMARK H PARENT 17 19
DOCKED: USER                              x       y       z     vdW  Elec       q    Type
DOCKED: USER                           _______ _______ _______ _____ _____    ______ ____
DOCKED: ROOT
DOCKED: ATOM      1  C   UNL     1     140.471  75.948 221.566 -0.25 -0.06    +0.242 C  
DOCKED: ATOM      2  O   UNL     1     140.065  76.257 222.716 -0.35 +0.05    -0.273 OA 
DOCKED: ENDROOT
DOCKED: BRANCH   1   3
DOCKED: ATOM      3  N   UNL     1     141.260  76.810 220.752 -0.12 +0.15    -0.334 N  
DOCKED: ATOM      4  C   UNL     1     140.975  78.192 220.539 -0.21 -0.05    +0.119 C  
DOCKED: ATOM      5  C   UNL     1     141.920  78.620 219.439 -0.25 -0.02    +0.032 C  
DOCKED: ATOM      6  C   UNL     1     142.366  77.355 218.758 -0.30 -0.01    +0.024 C  
DOCKED: ATOM      7  C   UNL     1     142.473  76.459 220.002 -0.25 -0.07    +0.120 C  
DOCKED: BRANCH   4   8
DOCKED: ATOM      8  C   UNL     1     141.203  79.080 221.711 -0.36 -0.01    +0.017 A  
DOCKED: ATOM      9  C   UNL     1     140.092  79.624 222.357 -0.25 -0.03    +0.124 A  
DOCKED: ATOM     10  C   UNL     1     140.305  80.452 223.447 -0.43 -0.01    +0.047 A  
DOCKED: ATOM     11  C   UNL     1     141.583  80.739 223.896 -0.52 -0.00    +0.004 A  
DOCKED: ATOM     12  C   UNL     1     142.494  79.343 222.129 -0.42 -0.01    +0.010 A  
DOCKED: ATOM     13  C   UNL     1     142.653  80.179 223.227 -0.66 -0.00    +0.001 A  
DOCKED: BRANCH   9  14
DOCKED: ATOM     14  O   UNL     1     138.842  79.308 221.872 -0.01 +0.10    -0.496 OA 
DOCKED: ATOM     15  C   UNL     1     137.971  78.543 222.685 -0.14 -0.04    +0.278 C  
DOCKED: ENDBRANCH   9  14
DOCKED: ENDBRANCH   4   8
DOCKED: ENDBRANCH   1   3
DOCKED: BRANCH   1  16
DOCKED: ATOM     16  C   UNL     1     140.072  74.582 221.073 -0.18 -0.04    +0.216 C  
DOCKED: BRANCH  16  17
DOCKED: ATOM     17  N   UNL     1     139.938  73.663 222.176 -0.13 +0.03    -0.342 N  
DOCKED: ATOM     18  C   UNL     1     140.304  72.289 222.113 -0.20 -0.03    +0.270 C  
DOCKED: ATOM     19  H   UNL     1     139.542  74.035 223.090 -0.52 -0.02    +0.164 HD 
DOCKED: ATOM     20  O   UNL     1     140.777  71.824 221.038 -0.12 +0.04    -0.268 OA 
DOCKED: BRANCH  18  21
DOCKED: ATOM     21  C   UNL     1     140.113  71.471 223.311 -0.31 -0.02    +0.128 A  
DOCKED: ATOM     22  C   UNL     1     139.450  70.261 223.243 -0.25 -0.01    +0.035 A  
DOCKED: ATOM     23  N   UNL     1     140.581  71.875 224.524 -0.26 +0.03    -0.243 NA 
DOCKED: ATOM     24  C   UNL     1     139.254  69.463 224.376 -0.33 -0.00    +0.013 A  
DOCKED: ATOM     25  C   UNL     1     140.396  71.110 225.620 -0.52 -0.01    +0.071 A  
DOCKED: ATOM     26  C   UNL     1     139.746  69.906 225.601 -0.46 -0.00    +0.003 A  
DOCKED: ATOM     27  C   UNL     1     140.906  71.601 226.808 -0.71 -0.01    +0.032 A  
DOCKED: ATOM     28  C   UNL     1     139.592  69.173 226.764 -0.50 -0.01    +0.049 A  
DOCKED: ATOM     29  C   UNL     1     140.774  70.900 227.994 -0.68 -0.01    +0.041 A  
DOCKED: ATOM     30  C   UNL     1     140.114  69.690 227.942 -0.52 -0.02    +0.123 A  
DOCKED: ATOM     31  F   UNL     1     139.971  68.977 229.101 -0.12 +0.03    -0.207 F  
DOCKED: ENDBRANCH  18  21
DOCKED: ENDBRANCH  16  17
DOCKED: ENDBRANCH   1  16
DOCKED: TORSDOF 6
DOCKED: TER
DOCKED: ENDMDL
________________________________________________________________________________


    CLUSTERING HISTOGRAM
    ____________________


________________________________________________________________________________
     |           |     |           |     |
Clus | Lowest    | Run | Mean      | Num | Histogram
-ter | Binding   |     | Binding   | in  |
Rank | Energy    |     | Energy    | Clus|    5    10   15   20   25   30   35
_____|___________|_____|___________|_____|____:____|____:____|____:____|____:___
   1 |     -8.69 |  15 |     -8.41 |  16 |################
   2 |     -7.68 |   2 |     -7.68 |   1 |#
   3 |     -7.35 |  10 |     -7.34 |   2 |##
   4 |     -6.46 |   9 |     -6.46 |   1 |#
_____|___________|_____|___________|_____|______________________________________


    RMSD TABLE
    __________


_______________________________________________________________________
     |      |      |           |         |                 |
Rank | Sub- | Run  | Binding   | Cluster | Reference       | Grep
     | Rank |      | Energy    | RMSD    | RMSD            | Pattern
_____|______|______|___________|_________|_________________|___________
   1      1     15       -8.69      0.00    272.27           RANKING
   1      2      8       -8.66      0.05    272.27           RANKING
   1      3     20       -8.61      0.97    272.27           RANKING
   1      4      7       -8.60      0.98    272.26           RANKING
   1      5     19       -8.59      1.07    272.30           RANKING
   1      6     12       -8.59      0.96    272.27           RANKING
   1      7     17       -8.58      0.96    272.25           RANKING
   1      8     14       -8.55      1.07    272.26           RANKING
   1      9      3       -8.55      1.98    272.39           RANKING
   1     10      6       -8.53      1.07    272.18           RANKING
   1     11      1       -8.49      1.00    272.21           RANKING
   1     12      5       -8.26      1.42    272.27           RANKING
   1     13     13       -8.17      1.35    272.31           RANKING
   1     14     18       -8.06      1.28    272.15           RANKING
   1     15     16       -7.94      1.08    272.06           RANKING
   1     16      4       -7.68      1.60    271.99           RANKING
   2      1      2       -7.68      0.00    271.56           RANKING
   3      1     10       -7.35      0.00    271.08           RANKING
   3      2     11       -7.33      0.06    271.09           RANKING
   4      1      9       -6.46      0.00    271.71           RANKING

Run time 0.434 sec
Idle time 0.000 sec
