AutoDock-GPU version: v1.6

**********************************************************
**    AutoDock-GPU AUTODOCKTOOLS-COMPATIBLE DLG FILE    **
**********************************************************


    DOCKING PARAMETERS
    ________________________


Ligand file:                               /home/a/REINVENT4/ReinventStudies/pleaseWork/justmol2mol_4_Compounds_ontop/graph-dock-hn62wh/graph-DockGPU/node-autodockgpu/inputs/ISLXDUTZNVGPBM-ADEGMZDYNA-N.pdbqt
Grid fld file:                             /home/a/REINVENT4/ReinventStudies/mols/Rad51/maps/rad51_receptor.maps.fld

Random seed:                               42
Number of runs:                            20
Number of energy evaluations:              1132076
Number of generations:                     42000
Size of population:                        150
Rate of crossover:                         80.000000%
Tournament selection probability limit:    60.000000%
Rate of mutation:                          2.000000%
Maximal allowed delta movement:            +/- 6.000000A
Maximal allowed delta angle:               +/- 90.000000

Rate of local search:                      100.000000%
Maximal number of local search iterations: 300
Rho lower bound:                           0.010000
Spread of local search delta movement:     2.000000A
Spread of local search delta angle:        74.999999
Limit of consecutive successes/failures:   4

Handle symmetry during clustering:         YES
RMSD tolerance:                            2.000000A

Program call in command line was:          /home/a/REINVENT4/ReinventStudies/adgpu-v1.6_linux_x64_cuda12_128wi --filelist batch.txt --heuristics 1 --nrun 20 --psize 150 --lsit 300 --seed 42 --heurmax 12000000 


    GRID PARAMETERS
    ________________________


Receptor name:                             rad51_receptor
Number of grid points (x, y, z):           53, 53, 53
Grid center (x, y, z):                     139.950000, 75.640000, 221.970000A
Grid size (x, y, z):                       19.500000, 19.500000, 19.500000A
Grid spacing:                              0.375000A


    LIGAND PARAMETERS
    ________________________


Ligand name:                               /home/a/REINVENT4/ReinventStudies/pleaseWork/justmol2mol_4_Compounds_ontop/graph-dock-hn62wh/graph-DockGPU/node-autodockgpu/inputs/ISLXDUTZNVGPBM-ADEGMZDYNA-N
Number of atoms:                           35
Number of rotatable bonds:                 6
Number of atom types:                      8


    DUMMY DATA (only for ADT-compatibility)
    ________________________


DPF> outlev 1
DPF> ga_run 20
DPF> fld /home/a/REINVENT4/ReinventStudies/mols/Rad51/maps/rad51_receptor.maps.fld
DPF> move /home/a/REINVENT4/ReinventStudies/pleaseWork/justmol2mol_4_Compounds_ontop/graph-dock-hn62wh/graph-DockGPU/node-autodockgpu/inputs/ISLXDUTZNVGPBM-ADEGMZDYNA-N.pdbqt


    COUNTER STATES
    ________________________


Number of energy evaluations performed:    717822
Number of generations used:                45


    INPUT LIGAND PDBQT FILE:
    ________________________


INPUT-LIGAND-PDBQT: REMARK SMILES O=C(NCC(=O)N1CCCC[C@H]1c1csc(-c2ccccc2)n1)c1ccc2cc(F)ccc2n1
INPUT-LIGAND-PDBQT: REMARK SMILES IDX 4 1 3 2 2 3 1 4 24 6 25 7 34 8 26 9 33 10 27 11 32 12 28 13
INPUT-LIGAND-PDBQT: REMARK SMILES IDX 31 14 29 15 30 16 5 17 6 18 7 19 8 20 12 21 9 22 11 23 10 24
INPUT-LIGAND-PDBQT: REMARK SMILES IDX 13 25 14 26 23 27 15 28 16 29 17 30 18 31 22 32 19 33 21 34
INPUT-LIGAND-PDBQT: REMARK SMILES IDX 20 35
INPUT-LIGAND-PDBQT: REMARK H PARENT 3 5
INPUT-LIGAND-PDBQT: ROOT
INPUT-LIGAND-PDBQT: ATOM      1  C   UNL     1       0.568  -0.882  -0.669  1.00  0.00     0.216 C 
INPUT-LIGAND-PDBQT: ENDROOT
INPUT-LIGAND-PDBQT: BRANCH   1   2
INPUT-LIGAND-PDBQT: ATOM      2  N   UNL     1       1.779  -0.122  -0.667  1.00  0.00    -0.342 N 
INPUT-LIGAND-PDBQT: ATOM      3  C   UNL     1       2.911  -0.669   0.009  1.00  0.00     0.270 C 
INPUT-LIGAND-PDBQT: ATOM      4  O   UNL     1       2.790  -1.787   0.566  1.00  0.00    -0.268 OA
INPUT-LIGAND-PDBQT: ATOM      5  H   UNL     1       1.857   0.808  -1.139  1.00  0.00     0.164 HD
INPUT-LIGAND-PDBQT: BRANCH   3   6
INPUT-LIGAND-PDBQT: ATOM      6  C   UNL     1       4.166   0.076   0.033  1.00  0.00     0.128 A 
INPUT-LIGAND-PDBQT: ATOM      7  C   UNL     1       5.239  -0.482   0.693  1.00  0.00     0.035 A 
INPUT-LIGAND-PDBQT: ATOM      8  N   UNL     1       4.315   1.277  -0.559  1.00  0.00    -0.243 NA
INPUT-LIGAND-PDBQT: ATOM      9  C   UNL     1       6.465   0.153   0.766  1.00  0.00     0.013 A 
INPUT-LIGAND-PDBQT: ATOM     10  C   UNL     1       5.485   1.941  -0.520  1.00  0.00     0.071 A 
INPUT-LIGAND-PDBQT: ATOM     11  C   UNL     1       6.575   1.387   0.143  1.00  0.00     0.003 A 
INPUT-LIGAND-PDBQT: ATOM     12  C   UNL     1       5.644   3.165  -1.122  1.00  0.00     0.032 A 
INPUT-LIGAND-PDBQT: ATOM     13  C   UNL     1       7.792   2.078   0.184  1.00  0.00     0.049 A 
INPUT-LIGAND-PDBQT: ATOM     14  C   UNL     1       6.815   3.885  -1.113  1.00  0.00     0.041 A 
INPUT-LIGAND-PDBQT: ATOM     15  C   UNL     1       7.893   3.316  -0.445  1.00  0.00     0.123 A 
INPUT-LIGAND-PDBQT: ATOM     16  F   UNL     1       9.086   3.964  -0.390  1.00  0.00    -0.207 F 
INPUT-LIGAND-PDBQT: ENDBRANCH   3   6
INPUT-LIGAND-PDBQT: ENDBRANCH   1   2
INPUT-LIGAND-PDBQT: BRANCH   1  17
INPUT-LIGAND-PDBQT: ATOM     17  C   UNL     1       0.051  -1.140   0.703  1.00  0.00     0.242 C 
INPUT-LIGAND-PDBQT: ATOM     18  O   UNL     1       0.599  -0.746   1.747  1.00  0.00    -0.273 OA
INPUT-LIGAND-PDBQT: BRANCH  17  19
INPUT-LIGAND-PDBQT: ATOM     19  N   UNL     1      -1.156  -1.892   0.813  1.00  0.00    -0.333 N 
INPUT-LIGAND-PDBQT: ATOM     20  C   UNL     1      -1.688  -2.163   2.132  1.00  0.00     0.120 C 
INPUT-LIGAND-PDBQT: ATOM     21  C   UNL     1      -1.871  -2.398  -0.345  1.00  0.00     0.135 C 
INPUT-LIGAND-PDBQT: ATOM     22  C   UNL     1      -2.666  -3.268   2.222  1.00  0.00     0.022 C 
INPUT-LIGAND-PDBQT: ATOM     23  C   UNL     1      -2.079  -3.889  -0.160  1.00  0.00     0.032 C 
INPUT-LIGAND-PDBQT: ATOM     24  C   UNL     1      -2.703  -4.266   1.130  1.00  0.00     0.004 C 
INPUT-LIGAND-PDBQT: BRANCH  21  25
INPUT-LIGAND-PDBQT: ATOM     25  C   UNL     1      -3.187  -1.707  -0.536  1.00  0.00     0.075 A 
INPUT-LIGAND-PDBQT: ATOM     26  C   UNL     1      -4.341  -2.396  -0.848  1.00  0.00     0.093 A 
INPUT-LIGAND-PDBQT: ATOM     27  N   UNL     1      -3.352  -0.410  -0.421  1.00  0.00    -0.239 NA
INPUT-LIGAND-PDBQT: ATOM     28  S   UNL     1      -5.608  -1.013  -0.945  1.00  0.00    -0.122 S 
INPUT-LIGAND-PDBQT: ATOM     29  C   UNL     1      -4.325   0.234  -0.543  1.00  0.00     0.123 A 
INPUT-LIGAND-PDBQT: BRANCH  29  30
INPUT-LIGAND-PDBQT: ATOM     30  C   UNL     1      -4.725   1.669  -0.458  1.00  0.00     0.010 A 
INPUT-LIGAND-PDBQT: ATOM     31  C   UNL     1      -6.019   2.040  -0.675  1.00  0.00     0.011 A 
INPUT-LIGAND-PDBQT: ATOM     32  C   UNL     1      -3.699   2.533  -0.151  1.00  0.00     0.011 A 
INPUT-LIGAND-PDBQT: ATOM     33  C   UNL     1      -6.312   3.396  -0.577  1.00  0.00     0.001 A 
INPUT-LIGAND-PDBQT: ATOM     34  C   UNL     1      -4.038   3.880  -0.063  1.00  0.00     0.001 A 
INPUT-LIGAND-PDBQT: ATOM     35  C   UNL     1      -5.327   4.331  -0.270  1.00  0.00     0.000 A 
INPUT-LIGAND-PDBQT: ENDBRANCH  29  30
INPUT-LIGAND-PDBQT: ENDBRANCH  21  25
INPUT-LIGAND-PDBQT: ENDBRANCH  17  19
INPUT-LIGAND-PDBQT: ENDBRANCH   1  17
INPUT-LIGAND-PDBQT: TORSDOF 6


    FINAL DOCKED STATE:
    ________________________


Run:   1 / 20
Time taken for this run:   0.039s

DOCKED: MODEL        1
DOCKED: USER    Run = 1
DOCKED: USER
DOCKED: USER    Estimated Free Energy of Binding    =  -6.91 kcal/mol  [=(1)+(2)+(3)-(4)]
DOCKED: USER
DOCKED: USER    (1) Final Intermolecular Energy     =  -8.70 kcal/mol
DOCKED: USER        vdW + Hbond + desolv Energy     =  -8.60 kcal/mol
DOCKED: USER        Electrostatic Energy            =  -0.10 kcal/mol
DOCKED: USER        Moving Ligand-Fixed Receptor    =  -8.70 kcal/mol
DOCKED: USER        Moving Ligand-Moving Receptor   =  +0.00 kcal/mol
DOCKED: USER    (2) Final Total Internal Energy     =  -4.47 kcal/mol
DOCKED: USER    (3) Torsional Free Energy           =  +1.79 kcal/mol
DOCKED: USER    (4) Unbound System's Energy         =  -4.47 kcal/mol
DOCKED: USER
DOCKED: USER
DOCKED: REMARK SMILES O=C(NCC(=O)N1CCCC[C@H]1c1csc(-c2ccccc2)n1)c1ccc2cc(F)ccc2n1
DOCKED: REMARK SMILES IDX 4 1 3 2 2 3 1 4 24 6 25 7 34 8 26 9 33 10 27 11 32 12 28 13
DOCKED: REMARK SMILES IDX 31 14 29 15 30 16 5 17 6 18 7 19 8 20 12 21 9 22 11 23 10 24
DOCKED: REMARK SMILES IDX 13 25 14 26 23 27 15 28 16 29 17 30 18 31 22 32 19 33 21 34
DOCKED: REMARK SMILES IDX 20 35
DOCKED: REMARK H PARENT 3 5
DOCKED: USER                              x       y       z     vdW  Elec       q    Type
DOCKED: USER                           _______ _______ _______ _____ _____    ______ ____
DOCKED: ROOT
DOCKED: ATOM      1  C   UNL     1     138.675  77.393 221.633 -0.15 -0.05    +0.216 C  
DOCKED: ENDROOT
DOCKED: BRANCH   1   2
DOCKED: ATOM      2  N   UNL     1     139.777  76.581 221.221 -0.09 +0.09    -0.342 N  
DOCKED: ATOM      3  C   UNL     1     139.924  75.296 221.825 -0.20 -0.05    +0.270 C  
DOCKED: ATOM      4  O   UNL     1     139.082  74.942 222.685 -0.39 +0.07    -0.268 OA 
DOCKED: ATOM      5  H   UNL     1     140.466  76.897 220.500 +0.06 -0.06    +0.164 HD 
DOCKED: BRANCH   3   6
DOCKED: ATOM      6  C   UNL     1     141.036  74.437 221.430 -0.26 -0.02    +0.128 A  
DOCKED: ATOM      7  C   UNL     1     140.809  73.081 221.344 -0.26 -0.00    +0.035 A  
DOCKED: ATOM      8  N   UNL     1     142.265  74.913 221.149 -0.12 +0.09    -0.243 NA 
DOCKED: ATOM      9  C   UNL     1     141.804  72.193 220.977 -0.23 -0.00    +0.013 A  
DOCKED: ATOM     10  C   UNL     1     143.271  74.096 220.787 -0.26 -0.02    +0.071 A  
DOCKED: ATOM     11  C   UNL     1     143.053  72.725 220.697 -0.29 -0.00    +0.003 A  
DOCKED: ATOM     12  C   UNL     1     144.526  74.575 220.499 -0.43 -0.01    +0.032 A  
DOCKED: ATOM     13  C   UNL     1     144.100  71.875 220.321 -0.30 -0.01    +0.049 A  
DOCKED: ATOM     14  C   UNL     1     145.588  73.786 220.125 -0.51 -0.00    +0.041 A  
DOCKED: ATOM     15  C   UNL     1     145.351  72.419 220.041 -0.36 +0.01    +0.123 A  
DOCKED: ATOM     16  F   UNL     1     146.349  71.571 219.678 -0.07 -0.20    -0.207 F  
DOCKED: ENDBRANCH   3   6
DOCKED: ENDBRANCH   1   2
DOCKED: BRANCH   1  17
DOCKED: ATOM     17  C   UNL     1     139.087  78.505 222.533 -0.20 -0.05    +0.242 C  
DOCKED: ATOM     18  O   UNL     1     138.389  78.960 223.455 -0.20 +0.04    -0.273 OA 
DOCKED: BRANCH  17  19
DOCKED: ATOM     19  N   UNL     1     140.374  79.079 222.310 -0.12 +0.09    -0.333 N  
DOCKED: ATOM     20  C   UNL     1     141.510  78.537 223.026 -0.46 -0.05    +0.120 C  
DOCKED: ATOM     21  C   UNL     1     140.589  80.186 221.395 -0.22 -0.04    +0.135 C  
DOCKED: ATOM     22  C   UNL     1     142.706  79.403 223.093 -0.54 -0.01    +0.022 C  
DOCKED: ATOM     23  C   UNL     1     141.310  81.289 222.147 -0.43 -0.01    +0.032 C  
DOCKED: ATOM     24  C   UNL     1     142.541  80.853 222.845 -0.58 -0.00    +0.004 C  
DOCKED: BRANCH  21  25
DOCKED: ATOM     25  C   UNL     1     141.380  79.772 220.192 -0.25 -0.03    +0.075 A  
DOCKED: ATOM     26  C   UNL     1     142.028  80.686 219.387 -0.25 -0.05    +0.093 A  
DOCKED: ATOM     27  N   UNL     1     141.524  78.525 219.809 -0.14 +0.13    -0.239 NA 
DOCKED: ATOM     28  S   UNL     1     142.819  79.578 218.094 -0.25 +0.12    -0.122 S  
DOCKED: ATOM     29  C   UNL     1     142.116  78.086 218.896 -0.24 -0.08    +0.123 A  
DOCKED: BRANCH  29  30
DOCKED: ATOM     30  C   UNL     1     142.404  76.750 218.297 -0.25 -0.01    +0.010 A  
DOCKED: ATOM     31  C   UNL     1     143.636  76.474 217.783 -0.19 -0.01    +0.011 A  
DOCKED: ATOM     32  C   UNL     1     141.345  75.871 218.321 -0.10 -0.00    +0.011 A  
DOCKED: ATOM     33  C   UNL     1     143.825  75.206 217.243 -0.18 -0.00    +0.001 A  
DOCKED: ATOM     34  C   UNL     1     141.580  74.615 217.770 -0.05 -0.00    +0.001 A  
DOCKED: ATOM     35  C   UNL     1     142.801  74.263 217.230 -0.08 -0.00    +0.000 A  
DOCKED: ENDBRANCH  29  30
DOCKED: ENDBRANCH  21  25
DOCKED: ENDBRANCH  17  19
DOCKED: ENDBRANCH   1  17
DOCKED: TORSDOF 6
DOCKED: TER
DOCKED: ENDMDL
________________________________________________________________________________


    FINAL DOCKED STATE:
    ________________________


Run:   2 / 20
Time taken for this run:   0.039s

DOCKED: MODEL        2
DOCKED: USER    Run = 2
DOCKED: USER
DOCKED: USER    Estimated Free Energy of Binding    =  -7.11 kcal/mol  [=(1)+(2)+(3)-(4)]
DOCKED: USER
DOCKED: USER    (1) Final Intermolecular Energy     =  -8.90 kcal/mol
DOCKED: USER        vdW + Hbond + desolv Energy     =  -8.80 kcal/mol
DOCKED: USER        Electrostatic Energy            =  -0.10 kcal/mol
DOCKED: USER        Moving Ligand-Fixed Receptor    =  -8.90 kcal/mol
DOCKED: USER        Moving Ligand-Moving Receptor   =  +0.00 kcal/mol
DOCKED: USER    (2) Final Total Internal Energy     =  -4.44 kcal/mol
DOCKED: USER    (3) Torsional Free Energy           =  +1.79 kcal/mol
DOCKED: USER    (4) Unbound System's Energy         =  -4.44 kcal/mol
DOCKED: USER
DOCKED: USER
DOCKED: REMARK SMILES O=C(NCC(=O)N1CCCC[C@H]1c1csc(-c2ccccc2)n1)c1ccc2cc(F)ccc2n1
DOCKED: REMARK SMILES IDX 4 1 3 2 2 3 1 4 24 6 25 7 34 8 26 9 33 10 27 11 32 12 28 13
DOCKED: REMARK SMILES IDX 31 14 29 15 30 16 5 17 6 18 7 19 8 20 12 21 9 22 11 23 10 24
DOCKED: REMARK SMILES IDX 13 25 14 26 23 27 15 28 16 29 17 30 18 31 22 32 19 33 21 34
DOCKED: REMARK SMILES IDX 20 35
DOCKED: REMARK H PARENT 3 5
DOCKED: USER                              x       y       z     vdW  Elec       q    Type
DOCKED: USER                           _______ _______ _______ _____ _____    ______ ____
DOCKED: ROOT
DOCKED: ATOM      1  C   UNL     1     138.661  77.345 222.063 -0.19 -0.04    +0.216 C  
DOCKED: ENDROOT
DOCKED: BRANCH   1   2
DOCKED: ATOM      2  N   UNL     1     139.805  76.580 221.675 -0.14 +0.09    -0.342 N  
DOCKED: ATOM      3  C   UNL     1     139.754  75.164 221.850 -0.20 -0.05    +0.270 C  
DOCKED: ATOM      4  O   UNL     1     138.711  74.660 222.333 -0.31 +0.08    -0.268 OA 
DOCKED: ATOM      5  H   UNL     1     140.664  77.022 221.274 +0.06 -0.06    +0.164 HD 
DOCKED: BRANCH   3   6
DOCKED: ATOM      6  C   UNL     1     140.902  74.348 221.466 -0.26 -0.02    +0.128 A  
DOCKED: ATOM      7  C   UNL     1     140.741  72.980 221.429 -0.26 -0.00    +0.035 A  
DOCKED: ATOM      8  N   UNL     1     142.100  74.875 221.149 -0.16 +0.08    -0.243 NA 
DOCKED: ATOM      9  C   UNL     1     141.774  72.131 221.076 -0.23 -0.00    +0.013 A  
DOCKED: ATOM     10  C   UNL     1     143.141  74.097 220.799 -0.25 -0.02    +0.071 A  
DOCKED: ATOM     11  C   UNL     1     142.991  72.715 220.757 -0.29 -0.00    +0.003 A  
DOCKED: ATOM     12  C   UNL     1     144.366  74.627 220.474 -0.43 -0.01    +0.032 A  
DOCKED: ATOM     13  C   UNL     1     144.074  71.905 220.393 -0.30 -0.01    +0.049 A  
DOCKED: ATOM     14  C   UNL     1     145.460  73.880 220.109 -0.47 -0.01    +0.041 A  
DOCKED: ATOM     15  C   UNL     1     145.291  72.501 220.075 -0.37 +0.01    +0.123 A  
DOCKED: ATOM     16  F   UNL     1     146.324  71.691 219.724 -0.09 -0.18    -0.207 F  
DOCKED: ENDBRANCH   3   6
DOCKED: ENDBRANCH   1   2
DOCKED: BRANCH   1  17
DOCKED: ATOM     17  C   UNL     1     139.026  78.617 222.744 -0.21 -0.04    +0.242 C  
DOCKED: ATOM     18  O   UNL     1     138.286  79.230 223.533 -0.20 +0.04    -0.273 OA 
DOCKED: BRANCH  17  19
DOCKED: ATOM     19  N   UNL     1     140.316  79.159 222.464 -0.13 +0.08    -0.333 N  
DOCKED: ATOM     20  C   UNL     1     141.469  78.583 223.123 -0.48 -0.04    +0.120 C  
DOCKED: ATOM     21  C   UNL     1     140.517  80.265 221.546 -0.23 -0.04    +0.135 C  
DOCKED: ATOM     22  C   UNL     1     142.690  79.417 223.139 -0.54 -0.01    +0.022 C  
DOCKED: ATOM     23  C   UNL     1     141.301  81.345 222.269 -0.44 -0.01    +0.032 C  
DOCKED: ATOM     24  C   UNL     1     142.552  80.871 222.906 -0.59 -0.00    +0.004 C  
DOCKED: BRANCH  21  25
DOCKED: ATOM     25  C   UNL     1     141.239  79.838 220.305 -0.24 -0.03    +0.075 A  
DOCKED: ATOM     26  C   UNL     1     141.852  80.743 219.462 -0.26 -0.04    +0.093 A  
DOCKED: ATOM     27  N   UNL     1     141.352  78.588 219.921 -0.13 +0.12    -0.239 NA 
DOCKED: ATOM     28  S   UNL     1     142.563  79.621 218.135 -0.36 +0.11    -0.122 S  
DOCKED: ATOM     29  C   UNL     1     141.891  78.140 218.980 -0.22 -0.07    +0.123 A  
DOCKED: BRANCH  29  30
DOCKED: ATOM     30  C   UNL     1     142.134  76.799 218.374 -0.22 -0.01    +0.010 A  
DOCKED: ATOM     31  C   UNL     1     143.351  76.491 217.842 -0.28 -0.01    +0.011 A  
DOCKED: ATOM     32  C   UNL     1     141.053  75.948 218.410 -0.08 -0.00    +0.011 A  
DOCKED: ATOM     33  C   UNL     1     143.499  75.221 217.296 -0.19 -0.00    +0.001 A  
DOCKED: ATOM     34  C   UNL     1     141.246  74.688 217.853 -0.05 -0.00    +0.001 A  
DOCKED: ATOM     35  C   UNL     1     142.450  74.305 217.295 -0.07 -0.00    +0.000 A  
DOCKED: ENDBRANCH  29  30
DOCKED: ENDBRANCH  21  25
DOCKED: ENDBRANCH  17  19
DOCKED: ENDBRANCH   1  17
DOCKED: TORSDOF 6
DOCKED: TER
DOCKED: ENDMDL
________________________________________________________________________________


    FINAL DOCKED STATE:
    ________________________


Run:   3 / 20
Time taken for this run:   0.039s

DOCKED: MODEL        3
DOCKED: USER    Run = 3
DOCKED: USER
DOCKED: USER    Estimated Free Energy of Binding    =  -7.08 kcal/mol  [=(1)+(2)+(3)-(4)]
DOCKED: USER
DOCKED: USER    (1) Final Intermolecular Energy     =  -8.87 kcal/mol
DOCKED: USER        vdW + Hbond + desolv Energy     =  -8.76 kcal/mol
DOCKED: USER        Electrostatic Energy            =  -0.10 kcal/mol
DOCKED: USER        Moving Ligand-Fixed Receptor    =  -8.87 kcal/mol
DOCKED: USER        Moving Ligand-Moving Receptor   =  +0.00 kcal/mol
DOCKED: USER    (2) Final Total Internal Energy     =  -4.33 kcal/mol
DOCKED: USER    (3) Torsional Free Energy           =  +1.79 kcal/mol
DOCKED: USER    (4) Unbound System's Energy         =  -4.33 kcal/mol
DOCKED: USER
DOCKED: USER
DOCKED: REMARK SMILES O=C(NCC(=O)N1CCCC[C@H]1c1csc(-c2ccccc2)n1)c1ccc2cc(F)ccc2n1
DOCKED: REMARK SMILES IDX 4 1 3 2 2 3 1 4 24 6 25 7 34 8 26 9 33 10 27 11 32 12 28 13
DOCKED: REMARK SMILES IDX 31 14 29 15 30 16 5 17 6 18 7 19 8 20 12 21 9 22 11 23 10 24
DOCKED: REMARK SMILES IDX 13 25 14 26 23 27 15 28 16 29 17 30 18 31 22 32 19 33 21 34
DOCKED: REMARK SMILES IDX 20 35
DOCKED: REMARK H PARENT 3 5
DOCKED: USER                              x       y       z     vdW  Elec       q    Type
DOCKED: USER                           _______ _______ _______ _____ _____    ______ ____
DOCKED: ROOT
DOCKED: ATOM      1  C   UNL     1     138.689  77.357 222.264 -0.21 -0.04    +0.216 C  
DOCKED: ENDROOT
DOCKED: BRANCH   1   2
DOCKED: ATOM      2  N   UNL     1     139.840  76.603 221.876 -0.16 +0.08    -0.342 N  
DOCKED: ATOM      3  C   UNL     1     139.748  75.178 221.906 -0.20 -0.05    +0.270 C  
DOCKED: ATOM      4  O   UNL     1     138.666  74.658 222.269 -0.28 +0.08    -0.268 OA 
DOCKED: ATOM      5  H   UNL     1     140.733  77.058 221.575 +0.05 -0.06    +0.164 HD 
DOCKED: BRANCH   3   6
DOCKED: ATOM      6  C   UNL     1     140.901  74.373 221.515 -0.26 -0.02    +0.128 A  
DOCKED: ATOM      7  C   UNL     1     140.760  73.002 221.502 -0.27 -0.00    +0.035 A  
DOCKED: ATOM      8  N   UNL     1     142.087  74.912 221.172 -0.16 +0.08    -0.243 NA 
DOCKED: ATOM      9  C   UNL     1     141.799  72.163 221.145 -0.24 -0.00    +0.013 A  
DOCKED: ATOM     10  C   UNL     1     143.134  74.143 220.817 -0.25 -0.02    +0.071 A  
DOCKED: ATOM     11  C   UNL     1     143.003  72.759 220.799 -0.29 -0.00    +0.003 A  
DOCKED: ATOM     12  C   UNL     1     144.345  74.686 220.465 -0.41 -0.01    +0.032 A  
DOCKED: ATOM     13  C   UNL     1     144.091  71.959 220.430 -0.31 -0.01    +0.049 A  
DOCKED: ATOM     14  C   UNL     1     145.444  73.949 220.094 -0.43 -0.01    +0.041 A  
DOCKED: ATOM     15  C   UNL     1     145.295  72.567 220.083 -0.38 +0.01    +0.123 A  
DOCKED: ATOM     16  F   UNL     1     146.334  71.767 219.728 -0.09 -0.19    -0.207 F  
DOCKED: ENDBRANCH   3   6
DOCKED: ENDBRANCH   1   2
DOCKED: BRANCH   1  17
DOCKED: ATOM     17  C   UNL     1     139.040  78.693 222.819 -0.21 -0.04    +0.242 C  
DOCKED: ATOM     18  O   UNL     1     138.280  79.387 223.516 -0.22 +0.04    -0.273 OA 
DOCKED: BRANCH  17  19
DOCKED: ATOM     19  N   UNL     1     140.340  79.200 222.523 -0.14 +0.08    -0.333 N  
DOCKED: ATOM     20  C   UNL     1     141.481  78.625 223.203 -0.49 -0.04    +0.120 C  
DOCKED: ATOM     21  C   UNL     1     140.564  80.270 221.568 -0.24 -0.04    +0.135 C  
DOCKED: ATOM     22  C   UNL     1     142.718  79.435 223.192 -0.51 -0.01    +0.022 C  
DOCKED: ATOM     23  C   UNL     1     141.367  81.358 222.254 -0.44 -0.01    +0.032 C  
DOCKED: ATOM     24  C   UNL     1     142.608  80.884 222.910 -0.57 -0.00    +0.004 C  
DOCKED: BRANCH  21  25
DOCKED: ATOM     25  C   UNL     1     141.279  79.787 220.343 -0.25 -0.03    +0.075 A  
DOCKED: ATOM     26  C   UNL     1     141.951  80.645 219.497 -0.25 -0.05    +0.093 A  
DOCKED: ATOM     27  N   UNL     1     141.330  78.527 219.978 -0.13 +0.12    -0.239 NA 
DOCKED: ATOM     28  S   UNL     1     142.620  79.467 218.196 -0.34 +0.11    -0.122 S  
DOCKED: ATOM     29  C   UNL     1     141.857  78.037 219.052 -0.22 -0.07    +0.123 A  
DOCKED: BRANCH  29  30
DOCKED: ATOM     30  C   UNL     1     142.037  76.675 218.468 -0.21 -0.00    +0.010 A  
DOCKED: ATOM     31  C   UNL     1     141.010  75.778 218.478 -0.08 -0.00    +0.011 A  
DOCKED: ATOM     32  C   UNL     1     143.286  76.437 217.944 -0.29 -0.01    +0.011 A  
DOCKED: ATOM     33  C   UNL     1     141.257  74.531 217.914 -0.05 -0.00    +0.001 A  
DOCKED: ATOM     34  C   UNL     1     143.488  75.176 217.390 -0.19 -0.00    +0.001 A  
DOCKED: ATOM     35  C   UNL     1     142.496  74.215 217.364 -0.07 -0.00    +0.000 A  
DOCKED: ENDBRANCH  29  30
DOCKED: ENDBRANCH  21  25
DOCKED: ENDBRANCH  17  19
DOCKED: ENDBRANCH   1  17
DOCKED: TORSDOF 6
DOCKED: TER
DOCKED: ENDMDL
________________________________________________________________________________


    FINAL DOCKED STATE:
    ________________________


Run:   4 / 20
Time taken for this run:   0.039s

DOCKED: MODEL        4
DOCKED: USER    Run = 4
DOCKED: USER
DOCKED: USER    Estimated Free Energy of Binding    =  -7.10 kcal/mol  [=(1)+(2)+(3)-(4)]
DOCKED: USER
DOCKED: USER    (1) Final Intermolecular Energy     =  -8.89 kcal/mol
DOCKED: USER        vdW + Hbond + desolv Energy     =  -8.79 kcal/mol
DOCKED: USER        Electrostatic Energy            =  -0.10 kcal/mol
DOCKED: USER        Moving Ligand-Fixed Receptor    =  -8.89 kcal/mol
DOCKED: USER        Moving Ligand-Moving Receptor   =  +0.00 kcal/mol
DOCKED: USER    (2) Final Total Internal Energy     =  -4.42 kcal/mol
DOCKED: USER    (3) Torsional Free Energy           =  +1.79 kcal/mol
DOCKED: USER    (4) Unbound System's Energy         =  -4.42 kcal/mol
DOCKED: USER
DOCKED: USER
DOCKED: REMARK SMILES O=C(NCC(=O)N1CCCC[C@H]1c1csc(-c2ccccc2)n1)c1ccc2cc(F)ccc2n1
DOCKED: REMARK SMILES IDX 4 1 3 2 2 3 1 4 24 6 25 7 34 8 26 9 33 10 27 11 32 12 28 13
DOCKED: REMARK SMILES IDX 31 14 29 15 30 16 5 17 6 18 7 19 8 20 12 21 9 22 11 23 10 24
DOCKED: REMARK SMILES IDX 13 25 14 26 23 27 15 28 16 29 17 30 18 31 22 32 19 33 21 34
DOCKED: REMARK SMILES IDX 20 35
DOCKED: REMARK H PARENT 3 5
DOCKED: USER                              x       y       z     vdW  Elec       q    Type
DOCKED: USER                           _______ _______ _______ _____ _____    ______ ____
DOCKED: ROOT
DOCKED: ATOM      1  C   UNL     1     138.700  77.340 222.055 -0.19 -0.04    +0.216 C  
DOCKED: ENDROOT
DOCKED: BRANCH   1   2
DOCKED: ATOM      2  N   UNL     1     139.841  76.569 221.670 -0.14 +0.09    -0.342 N  
DOCKED: ATOM      3  C   UNL     1     139.785  75.154 221.851 -0.19 -0.05    +0.270 C  
DOCKED: ATOM      4  O   UNL     1     138.741  74.656 222.337 -0.32 +0.08    -0.268 OA 
DOCKED: ATOM      5  H   UNL     1     140.702  77.006 221.266 +0.06 -0.06    +0.164 HD 
DOCKED: BRANCH   3   6
DOCKED: ATOM      6  C   UNL     1     140.930  74.333 221.470 -0.26 -0.02    +0.128 A  
DOCKED: ATOM      7  C   UNL     1     140.767  72.965 221.443 -0.26 -0.00    +0.035 A  
DOCKED: ATOM      8  N   UNL     1     142.129  74.854 221.146 -0.16 +0.08    -0.243 NA 
DOCKED: ATOM      9  C   UNL     1     141.796  72.111 221.094 -0.24 -0.00    +0.013 A  
DOCKED: ATOM     10  C   UNL     1     143.167  74.071 220.799 -0.25 -0.02    +0.071 A  
DOCKED: ATOM     11  C   UNL     1     143.013  72.689 220.768 -0.29 -0.00    +0.003 A  
DOCKED: ATOM     12  C   UNL     1     144.392  74.596 220.467 -0.44 -0.01    +0.032 A  
DOCKED: ATOM     13  C   UNL     1     144.093  71.874 220.407 -0.30 -0.01    +0.049 A  
DOCKED: ATOM     14  C   UNL     1     145.484  73.844 220.105 -0.48 -0.01    +0.041 A  
DOCKED: ATOM     15  C   UNL     1     145.311  72.465 220.081 -0.37 +0.01    +0.123 A  
DOCKED: ATOM     16  F   UNL     1     146.342  71.650 219.733 -0.08 -0.18    -0.207 F  
DOCKED: ENDBRANCH   3   6
DOCKED: ENDBRANCH   1   2
DOCKED: BRANCH   1  17
DOCKED: ATOM     17  C   UNL     1     139.068  78.588 222.778 -0.21 -0.04    +0.242 C  
DOCKED: ATOM     18  O   UNL     1     138.344  79.157 223.613 -0.18 +0.03    -0.273 OA 
DOCKED: BRANCH  17  19
DOCKED: ATOM     19  N   UNL     1     140.341  79.159 222.483 -0.13 +0.08    -0.333 N  
DOCKED: ATOM     20  C   UNL     1     141.513  78.626 223.146 -0.49 -0.04    +0.120 C  
DOCKED: ATOM     21  C   UNL     1     140.509  80.255 221.545 -0.23 -0.04    +0.135 C  
DOCKED: ATOM     22  C   UNL     1     142.711  79.493 223.142 -0.55 -0.01    +0.022 C  
DOCKED: ATOM     23  C   UNL     1     141.266  81.368 222.246 -0.43 -0.01    +0.032 C  
DOCKED: ATOM     24  C   UNL     1     142.532  80.940 222.885 -0.55 -0.00    +0.004 C  
DOCKED: BRANCH  21  25
DOCKED: ATOM     25  C   UNL     1     141.237  79.827 220.308 -0.24 -0.03    +0.075 A  
DOCKED: ATOM     26  C   UNL     1     141.862  80.730 219.473 -0.26 -0.04    +0.093 A  
DOCKED: ATOM     27  N   UNL     1     141.343  78.578 219.921 -0.13 +0.12    -0.239 NA 
DOCKED: ATOM     28  S   UNL     1     142.576  79.608 218.147 -0.36 +0.11    -0.122 S  
DOCKED: ATOM     29  C   UNL     1     141.887  78.128 218.983 -0.22 -0.07    +0.123 A  
DOCKED: BRANCH  29  30
DOCKED: ATOM     30  C   UNL     1     142.125  76.787 218.374 -0.22 -0.01    +0.010 A  
DOCKED: ATOM     31  C   UNL     1     141.143  75.842 218.378 -0.09 -0.00    +0.011 A  
DOCKED: ATOM     32  C   UNL     1     143.379  76.617 217.834 -0.26 -0.01    +0.011 A  
DOCKED: ATOM     33  C   UNL     1     141.442  74.617 217.791 -0.05 -0.00    +0.001 A  
DOCKED: ATOM     34  C   UNL     1     143.635  75.377 217.257 -0.20 -0.00    +0.001 A  
DOCKED: ATOM     35  C   UNL     1     142.690  74.370 217.223 -0.08 -0.00    +0.000 A  
DOCKED: ENDBRANCH  29  30
DOCKED: ENDBRANCH  21  25
DOCKED: ENDBRANCH  17  19
DOCKED: ENDBRANCH   1  17
DOCKED: TORSDOF 6
DOCKED: TER
DOCKED: ENDMDL
________________________________________________________________________________


    FINAL DOCKED STATE:
    ________________________


Run:   5 / 20
Time taken for this run:   0.039s

DOCKED: MODEL        5
DOCKED: USER    Run = 5
DOCKED: USER
DOCKED: USER    Estimated Free Energy of Binding    =  -7.10 kcal/mol  [=(1)+(2)+(3)-(4)]
DOCKED: USER
DOCKED: USER    (1) Final Intermolecular Energy     =  -8.89 kcal/mol
DOCKED: USER        vdW + Hbond + desolv Energy     =  -8.79 kcal/mol
DOCKED: USER        Electrostatic Energy            =  -0.10 kcal/mol
DOCKED: USER        Moving Ligand-Fixed Receptor    =  -8.89 kcal/mol
DOCKED: USER        Moving Ligand-Moving Receptor   =  +0.00 kcal/mol
DOCKED: USER    (2) Final Total Internal Energy     =  -4.45 kcal/mol
DOCKED: USER    (3) Torsional Free Energy           =  +1.79 kcal/mol
DOCKED: USER    (4) Unbound System's Energy         =  -4.45 kcal/mol
DOCKED: USER
DOCKED: USER
DOCKED: REMARK SMILES O=C(NCC(=O)N1CCCC[C@H]1c1csc(-c2ccccc2)n1)c1ccc2cc(F)ccc2n1
DOCKED: REMARK SMILES IDX 4 1 3 2 2 3 1 4 24 6 25 7 34 8 26 9 33 10 27 11 32 12 28 13
DOCKED: REMARK SMILES IDX 31 14 29 15 30 16 5 17 6 18 7 19 8 20 12 21 9 22 11 23 10 24
DOCKED: REMARK SMILES IDX 13 25 14 26 23 27 15 28 16 29 17 30 18 31 22 32 19 33 21 34
DOCKED: REMARK SMILES IDX 20 35
DOCKED: REMARK H PARENT 3 5
DOCKED: USER                              x       y       z     vdW  Elec       q    Type
DOCKED: USER                           _______ _______ _______ _____ _____    ______ ____
DOCKED: ROOT
DOCKED: ATOM      1  C   UNL     1     138.679  77.353 222.044 -0.19 -0.04    +0.216 C  
DOCKED: ENDROOT
DOCKED: BRANCH   1   2
DOCKED: ATOM      2  N   UNL     1     139.820  76.584 221.656 -0.14 +0.09    -0.342 N  
DOCKED: ATOM      3  C   UNL     1     139.771  75.171 221.849 -0.20 -0.05    +0.270 C  
DOCKED: ATOM      4  O   UNL     1     138.733  74.672 222.348 -0.32 +0.08    -0.268 OA 
DOCKED: ATOM      5  H   UNL     1     140.675  77.021 221.242 +0.06 -0.06    +0.164 HD 
DOCKED: BRANCH   3   6
DOCKED: ATOM      6  C   UNL     1     140.916  74.350 221.465 -0.26 -0.02    +0.128 A  
DOCKED: ATOM      7  C   UNL     1     140.752  72.983 221.431 -0.26 -0.00    +0.035 A  
DOCKED: ATOM      8  N   UNL     1     142.116  74.873 221.146 -0.16 +0.08    -0.243 NA 
DOCKED: ATOM      9  C   UNL     1     141.781  72.130 221.079 -0.23 -0.00    +0.013 A  
DOCKED: ATOM     10  C   UNL     1     143.154  74.091 220.796 -0.25 -0.02    +0.071 A  
DOCKED: ATOM     11  C   UNL     1     142.999  72.709 220.757 -0.29 -0.00    +0.003 A  
DOCKED: ATOM     12  C   UNL     1     144.379  74.617 220.468 -0.43 -0.01    +0.032 A  
DOCKED: ATOM     13  C   UNL     1     144.079  71.896 220.393 -0.30 -0.01    +0.049 A  
DOCKED: ATOM     14  C   UNL     1     145.471  73.866 220.104 -0.47 -0.01    +0.041 A  
DOCKED: ATOM     15  C   UNL     1     145.298  72.487 220.072 -0.37 +0.01    +0.123 A  
DOCKED: ATOM     16  F   UNL     1     146.328  71.674 219.721 -0.09 -0.18    -0.207 F  
DOCKED: ENDBRANCH   3   6
DOCKED: ENDBRANCH   1   2
DOCKED: BRANCH   1  17
DOCKED: ATOM     17  C   UNL     1     139.049  78.615 222.743 -0.21 -0.04    +0.242 C  
DOCKED: ATOM     18  O   UNL     1     138.319  79.210 223.554 -0.19 +0.04    -0.273 OA 
DOCKED: BRANCH  17  19
DOCKED: ATOM     19  N   UNL     1     140.331  79.168 222.452 -0.13 +0.08    -0.333 N  
DOCKED: ATOM     20  C   UNL     1     141.494  78.611 223.111 -0.49 -0.04    +0.120 C  
DOCKED: ATOM     21  C   UNL     1     140.516  80.269 221.523 -0.23 -0.04    +0.135 C  
DOCKED: ATOM     22  C   UNL     1     142.705  79.459 223.113 -0.55 -0.01    +0.022 C  
DOCKED: ATOM     23  C   UNL     1     141.290  81.363 222.232 -0.43 -0.01    +0.032 C  
DOCKED: ATOM     24  C   UNL     1     142.550  80.910 222.868 -0.56 -0.00    +0.004 C  
DOCKED: BRANCH  21  25
DOCKED: ATOM     25  C   UNL     1     141.237  79.838 220.282 -0.24 -0.03    +0.075 A  
DOCKED: ATOM     26  C   UNL     1     141.849  80.741 219.436 -0.26 -0.04    +0.093 A  
DOCKED: ATOM     27  N   UNL     1     141.350  78.587 219.902 -0.13 +0.12    -0.239 NA 
DOCKED: ATOM     28  S   UNL     1     142.560  79.615 218.112 -0.36 +0.11    -0.122 S  
DOCKED: ATOM     29  C   UNL     1     141.889  78.136 218.963 -0.22 -0.07    +0.123 A  
DOCKED: BRANCH  29  30
DOCKED: ATOM     30  C   UNL     1     142.133  76.793 218.360 -0.22 -0.01    +0.010 A  
DOCKED: ATOM     31  C   UNL     1     143.347  76.487 217.821 -0.28 -0.01    +0.011 A  
DOCKED: ATOM     32  C   UNL     1     141.054  75.939 218.407 -0.08 -0.00    +0.011 A  
DOCKED: ATOM     33  C   UNL     1     143.495  75.215 217.279 -0.18 -0.00    +0.001 A  
DOCKED: ATOM     34  C   UNL     1     141.248  74.677 217.854 -0.05 -0.00    +0.001 A  
DOCKED: ATOM     35  C   UNL     1     142.450  74.295 217.290 -0.07 -0.00    +0.000 A  
DOCKED: ENDBRANCH  29  30
DOCKED: ENDBRANCH  21  25
DOCKED: ENDBRANCH  17  19
DOCKED: ENDBRANCH   1  17
DOCKED: TORSDOF 6
DOCKED: TER
DOCKED: ENDMDL
________________________________________________________________________________


    FINAL DOCKED STATE:
    ________________________


Run:   6 / 20
Time taken for this run:   0.039s

DOCKED: MODEL        6
DOCKED: USER    Run = 6
DOCKED: USER
DOCKED: USER    Estimated Free Energy of Binding    =  -7.08 kcal/mol  [=(1)+(2)+(3)-(4)]
DOCKED: USER
DOCKED: USER    (1) Final Intermolecular Energy     =  -8.87 kcal/mol
DOCKED: USER        vdW + Hbond + desolv Energy     =  -8.77 kcal/mol
DOCKED: USER        Electrostatic Energy            =  -0.11 kcal/mol
DOCKED: USER        Moving Ligand-Fixed Receptor    =  -8.87 kcal/mol
DOCKED: USER        Moving Ligand-Moving Receptor   =  +0.00 kcal/mol
DOCKED: USER    (2) Final Total Internal Energy     =  -4.46 kcal/mol
DOCKED: USER    (3) Torsional Free Energy           =  +1.79 kcal/mol
DOCKED: USER    (4) Unbound System's Energy         =  -4.46 kcal/mol
DOCKED: USER
DOCKED: USER
DOCKED: REMARK SMILES O=C(NCC(=O)N1CCCC[C@H]1c1csc(-c2ccccc2)n1)c1ccc2cc(F)ccc2n1
DOCKED: REMARK SMILES IDX 4 1 3 2 2 3 1 4 24 6 25 7 34 8 26 9 33 10 27 11 32 12 28 13
DOCKED: REMARK SMILES IDX 31 14 29 15 30 16 5 17 6 18 7 19 8 20 12 21 9 22 11 23 10 24
DOCKED: REMARK SMILES IDX 13 25 14 26 23 27 15 28 16 29 17 30 18 31 22 32 19 33 21 34
DOCKED: REMARK SMILES IDX 20 35
DOCKED: REMARK H PARENT 3 5
DOCKED: USER                              x       y       z     vdW  Elec       q    Type
DOCKED: USER                           _______ _______ _______ _____ _____    ______ ____
DOCKED: ROOT
DOCKED: ATOM      1  C   UNL     1     138.651  77.358 222.016 -0.18 -0.04    +0.216 C  
DOCKED: ENDROOT
DOCKED: BRANCH   1   2
DOCKED: ATOM      2  N   UNL     1     139.795  76.594 221.628 -0.13 +0.09    -0.342 N  
DOCKED: ATOM      3  C   UNL     1     139.750  75.180 221.816 -0.20 -0.05    +0.270 C  
DOCKED: ATOM      4  O   UNL     1     138.712  74.676 222.308 -0.31 +0.08    -0.268 OA 
DOCKED: ATOM      5  H   UNL     1     140.650  77.035 221.218 +0.06 -0.06    +0.164 HD 
DOCKED: BRANCH   3   6
DOCKED: ATOM      6  C   UNL     1     140.899  74.364 221.432 -0.26 -0.02    +0.128 A  
DOCKED: ATOM      7  C   UNL     1     140.733  72.998 221.373 -0.26 -0.00    +0.035 A  
DOCKED: ATOM      8  N   UNL     1     142.103  74.891 221.136 -0.17 +0.08    -0.243 NA 
DOCKED: ATOM      9  C   UNL     1     141.766  72.149 221.019 -0.23 -0.00    +0.013 A  
DOCKED: ATOM     10  C   UNL     1     143.144  74.113 220.786 -0.25 -0.02    +0.071 A  
DOCKED: ATOM     11  C   UNL     1     142.989  72.733 220.722 -0.29 -0.00    +0.003 A  
DOCKED: ATOM     12  C   UNL     1     144.374  74.643 220.482 -0.41 -0.01    +0.032 A  
DOCKED: ATOM     13  C   UNL     1     144.072  71.924 220.358 -0.30 -0.01    +0.049 A  
DOCKED: ATOM     14  C   UNL     1     145.470  73.897 220.119 -0.46 -0.01    +0.041 A  
DOCKED: ATOM     15  C   UNL     1     145.296  72.519 220.062 -0.38 +0.01    +0.123 A  
DOCKED: ATOM     16  F   UNL     1     146.329  71.710 219.710 -0.09 -0.19    -0.207 F  
DOCKED: ENDBRANCH   3   6
DOCKED: ENDBRANCH   1   2
DOCKED: BRANCH   1  17
DOCKED: ATOM     17  C   UNL     1     139.014  78.620 222.717 -0.21 -0.04    +0.242 C  
DOCKED: ATOM     18  O   UNL     1     138.275  79.218 223.517 -0.20 +0.04    -0.273 OA 
DOCKED: BRANCH  17  19
DOCKED: ATOM     19  N   UNL     1     140.302  79.168 222.444 -0.13 +0.08    -0.333 N  
DOCKED: ATOM     20  C   UNL     1     141.456  78.596 223.105 -0.49 -0.04    +0.120 C  
DOCKED: ATOM     21  C   UNL     1     140.502  80.279 221.531 -0.23 -0.04    +0.135 C  
DOCKED: ATOM     22  C   UNL     1     142.673  79.435 223.128 -0.55 -0.01    +0.022 C  
DOCKED: ATOM     23  C   UNL     1     141.278  81.360 222.260 -0.44 -0.01    +0.032 C  
DOCKED: ATOM     24  C   UNL     1     142.529  80.890 222.900 -0.58 -0.00    +0.004 C  
DOCKED: BRANCH  21  25
DOCKED: ATOM     25  C   UNL     1     141.231  79.860 220.290 -0.24 -0.03    +0.075 A  
DOCKED: ATOM     26  C   UNL     1     141.843  80.771 219.454 -0.26 -0.04    +0.093 A  
DOCKED: ATOM     27  N   UNL     1     141.350  78.612 219.902 -0.13 +0.12    -0.239 NA 
DOCKED: ATOM     28  S   UNL     1     142.565  79.657 218.125 -0.36 +0.11    -0.122 S  
DOCKED: ATOM     29  C   UNL     1     141.895  78.170 218.962 -0.22 -0.07    +0.123 A  
DOCKED: BRANCH  29  30
DOCKED: ATOM     30  C   UNL     1     142.146  76.832 218.351 -0.22 -0.01    +0.010 A  
DOCKED: ATOM     31  C   UNL     1     143.364  76.534 217.816 -0.27 -0.01    +0.011 A  
DOCKED: ATOM     32  C   UNL     1     141.070  75.974 218.387 -0.08 -0.00    +0.011 A  
DOCKED: ATOM     33  C   UNL     1     143.519  75.266 217.266 -0.19 -0.00    +0.001 A  
DOCKED: ATOM     34  C   UNL     1     141.271  74.716 217.826 -0.05 -0.00    +0.001 A  
DOCKED: ATOM     35  C   UNL     1     142.477  74.343 217.265 -0.07 -0.00    +0.000 A  
DOCKED: ENDBRANCH  29  30
DOCKED: ENDBRANCH  21  25
DOCKED: ENDBRANCH  17  19
DOCKED: ENDBRANCH   1  17
DOCKED: TORSDOF 6
DOCKED: TER
DOCKED: ENDMDL
________________________________________________________________________________


    FINAL DOCKED STATE:
    ________________________


Run:   7 / 20
Time taken for this run:   0.039s

DOCKED: MODEL        7
DOCKED: USER    Run = 7
DOCKED: USER
DOCKED: USER    Estimated Free Energy of Binding    =  -7.11 kcal/mol  [=(1)+(2)+(3)-(4)]
DOCKED: USER
DOCKED: USER    (1) Final Intermolecular Energy     =  -8.90 kcal/mol
DOCKED: USER        vdW + Hbond + desolv Energy     =  -8.81 kcal/mol
DOCKED: USER        Electrostatic Energy            =  -0.09 kcal/mol
DOCKED: USER        Moving Ligand-Fixed Receptor    =  -8.90 kcal/mol
DOCKED: USER        Moving Ligand-Moving Receptor   =  +0.00 kcal/mol
DOCKED: USER    (2) Final Total Internal Energy     =  -4.43 kcal/mol
DOCKED: USER    (3) Torsional Free Energy           =  +1.79 kcal/mol
DOCKED: USER    (4) Unbound System's Energy         =  -4.43 kcal/mol
DOCKED: USER
DOCKED: USER
DOCKED: REMARK SMILES O=C(NCC(=O)N1CCCC[C@H]1c1csc(-c2ccccc2)n1)c1ccc2cc(F)ccc2n1
DOCKED: REMARK SMILES IDX 4 1 3 2 2 3 1 4 24 6 25 7 34 8 26 9 33 10 27 11 32 12 28 13
DOCKED: REMARK SMILES IDX 31 14 29 15 30 16 5 17 6 18 7 19 8 20 12 21 9 22 11 23 10 24
DOCKED: REMARK SMILES IDX 13 25 14 26 23 27 15 28 16 29 17 30 18 31 22 32 19 33 21 34
DOCKED: REMARK SMILES IDX 20 35
DOCKED: REMARK H PARENT 3 5
DOCKED: USER                              x       y       z     vdW  Elec       q    Type
DOCKED: USER                           _______ _______ _______ _____ _____    ______ ____
DOCKED: ROOT
DOCKED: ATOM      1  C   UNL     1     138.630  77.366 222.007 -0.18 -0.04    +0.216 C  
DOCKED: ENDROOT
DOCKED: BRANCH   1   2
DOCKED: ATOM      2  N   UNL     1     139.778  76.601 221.633 -0.13 +0.09    -0.342 N  
DOCKED: ATOM      3  C   UNL     1     139.736  75.189 221.837 -0.20 -0.05    +0.270 C  
DOCKED: ATOM      4  O   UNL     1     138.697  74.688 222.332 -0.30 +0.08    -0.268 OA 
DOCKED: ATOM      5  H   UNL     1     140.633  77.039 221.221 +0.06 -0.06    +0.164 HD 
DOCKED: BRANCH   3   6
DOCKED: ATOM      6  C   UNL     1     140.888  74.372 221.468 -0.26 -0.02    +0.128 A  
DOCKED: ATOM      7  C   UNL     1     140.736  73.003 221.457 -0.27 -0.00    +0.035 A  
DOCKED: ATOM      8  N   UNL     1     142.084  74.900 221.140 -0.17 +0.08    -0.243 NA 
DOCKED: ATOM      9  C   UNL     1     141.773  72.153 221.119 -0.24 -0.00    +0.013 A  
DOCKED: ATOM     10  C   UNL     1     143.129  74.121 220.804 -0.25 -0.02    +0.071 A  
DOCKED: ATOM     11  C   UNL     1     142.986  72.738 220.789 -0.29 -0.00    +0.003 A  
DOCKED: ATOM     12  C   UNL     1     144.350  74.653 220.468 -0.42 -0.01    +0.032 A  
DOCKED: ATOM     13  C   UNL     1     144.074  71.928 220.439 -0.31 -0.01    +0.049 A  
DOCKED: ATOM     14  C   UNL     1     145.448  73.905 220.116 -0.46 -0.01    +0.041 A  
DOCKED: ATOM     15  C   UNL     1     145.287  72.524 220.108 -0.38 +0.01    +0.123 A  
DOCKED: ATOM     16  F   UNL     1     146.325  71.714 219.772 -0.09 -0.18    -0.207 F  
DOCKED: ENDBRANCH   3   6
DOCKED: ENDBRANCH   1   2
DOCKED: BRANCH   1  17
DOCKED: ATOM     17  C   UNL     1     138.986  78.612 222.740 -0.20 -0.04    +0.242 C  
DOCKED: ATOM     18  O   UNL     1     138.241  79.188 223.551 -0.18 +0.03    -0.273 OA 
DOCKED: BRANCH  17  19
DOCKED: ATOM     19  N   UNL     1     140.272  79.173 222.483 -0.13 +0.08    -0.333 N  
DOCKED: ATOM     20  C   UNL     1     141.423  78.607 223.154 -0.49 -0.04    +0.120 C  
DOCKED: ATOM     21  C   UNL     1     140.472  80.291 221.578 -0.23 -0.04    +0.135 C  
DOCKED: ATOM     22  C   UNL     1     142.632  79.457 223.195 -0.56 -0.01    +0.022 C  
DOCKED: ATOM     23  C   UNL     1     141.230  81.374 222.322 -0.44 -0.01    +0.032 C  
DOCKED: ATOM     24  C   UNL     1     142.478  80.912 222.973 -0.58 -0.00    +0.004 C  
DOCKED: BRANCH  21  25
DOCKED: ATOM     25  C   UNL     1     141.217  79.885 220.344 -0.24 -0.03    +0.075 A  
DOCKED: ATOM     26  C   UNL     1     141.843  80.804 219.526 -0.26 -0.04    +0.093 A  
DOCKED: ATOM     27  N   UNL     1     141.340  78.641 219.943 -0.13 +0.12    -0.239 NA 
DOCKED: ATOM     28  S   UNL     1     142.582  79.704 218.195 -0.36 +0.11    -0.122 S  
DOCKED: ATOM     29  C   UNL     1     141.898  78.208 219.006 -0.22 -0.08    +0.123 A  
DOCKED: BRANCH  29  30
DOCKED: ATOM     30  C   UNL     1     142.156  76.877 218.384 -0.23 -0.01    +0.010 A  
DOCKED: ATOM     31  C   UNL     1     143.370  76.596 217.832 -0.27 -0.01    +0.011 A  
DOCKED: ATOM     32  C   UNL     1     141.090  76.008 218.426 -0.09 -0.00    +0.011 A  
DOCKED: ATOM     33  C   UNL     1     143.532  75.333 217.272 -0.19 -0.00    +0.001 A  
DOCKED: ATOM     34  C   UNL     1     141.297  74.756 217.855 -0.05 -0.00    +0.001 A  
DOCKED: ATOM     35  C   UNL     1     142.500  74.399 217.277 -0.07 -0.00    +0.000 A  
DOCKED: ENDBRANCH  29  30
DOCKED: ENDBRANCH  21  25
DOCKED: ENDBRANCH  17  19
DOCKED: ENDBRANCH   1  17
DOCKED: TORSDOF 6
DOCKED: TER
DOCKED: ENDMDL
________________________________________________________________________________


    FINAL DOCKED STATE:
    ________________________


Run:   8 / 20
Time taken for this run:   0.039s

DOCKED: MODEL        8
DOCKED: USER    Run = 8
DOCKED: USER
DOCKED: USER    Estimated Free Energy of Binding    =  -9.27 kcal/mol  [=(1)+(2)+(3)-(4)]
DOCKED: USER
DOCKED: USER    (1) Final Intermolecular Energy     = -11.06 kcal/mol
DOCKED: USER        vdW + Hbond + desolv Energy     = -10.95 kcal/mol
DOCKED: USER        Electrostatic Energy            =  -0.11 kcal/mol
DOCKED: USER        Moving Ligand-Fixed Receptor    = -11.06 kcal/mol
DOCKED: USER        Moving Ligand-Moving Receptor   =  +0.00 kcal/mol
DOCKED: USER    (2) Final Total Internal Energy     =  -1.81 kcal/mol
DOCKED: USER    (3) Torsional Free Energy           =  +1.79 kcal/mol
DOCKED: USER    (4) Unbound System's Energy         =  -1.81 kcal/mol
DOCKED: USER
DOCKED: USER
DOCKED: REMARK SMILES O=C(NCC(=O)N1CCCC[C@H]1c1csc(-c2ccccc2)n1)c1ccc2cc(F)ccc2n1
DOCKED: REMARK SMILES IDX 4 1 3 2 2 3 1 4 24 6 25 7 34 8 26 9 33 10 27 11 32 12 28 13
DOCKED: REMARK SMILES IDX 31 14 29 15 30 16 5 17 6 18 7 19 8 20 12 21 9 22 11 23 10 24
DOCKED: REMARK SMILES IDX 13 25 14 26 23 27 15 28 16 29 17 30 18 31 22 32 19 33 21 34
DOCKED: REMARK SMILES IDX 20 35
DOCKED: REMARK H PARENT 3 5
DOCKED: USER                              x       y       z     vdW  Elec       q    Type
DOCKED: USER                           _______ _______ _______ _____ _____    ______ ____
DOCKED: ROOT
DOCKED: ATOM      1  C   UNL     1     139.263  74.281 221.280 -0.16 -0.04    +0.216 C  
DOCKED: ENDROOT
DOCKED: BRANCH   1   2
DOCKED: ATOM      2  N   UNL     1     139.166  73.375 222.381 -0.04 +0.09    -0.342 N  
DOCKED: ATOM      3  C   UNL     1     140.279  72.522 222.647 -0.18 -0.03    +0.270 C  
DOCKED: ATOM      4  O   UNL     1     141.287  72.610 221.905 -0.26 +0.01    -0.268 OA 
DOCKED: ATOM      5  H   UNL     1     138.315  73.320 222.988 -0.50 -0.10    +0.164 HD 
DOCKED: BRANCH   3   6
DOCKED: ATOM      6  C   UNL     1     140.219  71.584 223.763 -0.34 -0.02    +0.128 A  
DOCKED: ATOM      7  C   UNL     1     139.666  70.342 223.537 -0.28 -0.01    +0.035 A  
DOCKED: ATOM      8  N   UNL     1     140.678  71.880 224.994 -0.29 +0.03    -0.243 NA 
DOCKED: ATOM      9  C   UNL     1     139.568  69.391 224.536 -0.34 -0.00    +0.013 A  
DOCKED: ATOM     10  C   UNL     1     140.609  70.994 226.004 -0.55 -0.01    +0.071 A  
DOCKED: ATOM     11  C   UNL     1     140.053  69.738 225.788 -0.48 -0.00    +0.003 A  
DOCKED: ATOM     12  C   UNL     1     141.076  71.290 227.261 -0.71 -0.01    +0.032 A  
DOCKED: ATOM     13  C   UNL     1     139.980  68.816 226.839 -0.56 -0.01    +0.049 A  
DOCKED: ATOM     14  C   UNL     1     141.030  70.423 228.327 -0.53 -0.01    +0.041 A  
DOCKED: ATOM     15  C   UNL     1     140.470  69.173 228.092 -0.53 -0.02    +0.123 A  
DOCKED: ATOM     16  F   UNL     1     140.388  68.258 229.093 -0.17 +0.05    -0.207 F  
DOCKED: ENDBRANCH   3   6
DOCKED: ENDBRANCH   1   2
DOCKED: BRANCH   1  17
DOCKED: ATOM     17  C   UNL     1     138.857  75.667 221.641 -0.18 -0.05    +0.242 C  
DOCKED: ATOM     18  O   UNL     1     137.883  75.950 222.360 -0.20 +0.07    -0.273 OA 
DOCKED: BRANCH  17  19
DOCKED: ATOM     19  N   UNL     1     139.647  76.734 221.119 -0.07 +0.09    -0.333 N  
DOCKED: ATOM     20  C   UNL     1     139.134  77.494 219.998 -0.06 -0.03    +0.120 C  
DOCKED: ATOM     21  C   UNL     1     140.945  77.087 221.665 -0.30 -0.06    +0.135 C  
DOCKED: ATOM     22  C   UNL     1     140.130  78.280 219.238 -0.10 -0.01    +0.022 C  
DOCKED: ATOM     23  C   UNL     1     141.952  77.091 220.531 -0.20 -0.02    +0.032 C  
DOCKED: ATOM     24  C   UNL     1     141.559  77.916 219.365 -0.25 -0.00    +0.004 C  
DOCKED: BRANCH  21  25
DOCKED: ATOM     25  C   UNL     1     140.921  78.421 222.348 -0.38 -0.03    +0.075 A  
DOCKED: ATOM     26  C   UNL     1     142.075  79.116 222.644 -0.48 -0.04    +0.093 A  
DOCKED: ATOM     27  N   UNL     1     139.819  79.033 222.712 -0.19 +0.05    -0.239 NA 
DOCKED: ATOM     28  S   UNL     1     141.400  80.665 223.462 -0.60 +0.02    -0.122 S  
DOCKED: ATOM     29  C   UNL     1     139.679  80.069 223.244 -0.33 -0.02    +0.123 A  
DOCKED: BRANCH  29  30
DOCKED: ATOM     30  C   UNL     1     138.559  80.926 223.731 -0.36 -0.00    +0.010 A  
DOCKED: ATOM     31  C   UNL     1     138.076  81.939 222.956 -0.19 -0.00    +0.011 A  
DOCKED: ATOM     32  C   UNL     1     138.089  80.598 224.982 -0.30 -0.00    +0.011 A  
DOCKED: ATOM     33  C   UNL     1     137.030  82.691 223.481 -0.17 -0.00    +0.001 A  
DOCKED: ATOM     34  C   UNL     1     137.042  81.377 225.467 -0.41 -0.00    +0.001 A  
DOCKED: ATOM     35  C   UNL     1     136.501  82.420 224.740 -0.25 -0.00    +0.000 A  
DOCKED: ENDBRANCH  29  30
DOCKED: ENDBRANCH  21  25
DOCKED: ENDBRANCH  17  19
DOCKED: ENDBRANCH   1  17
DOCKED: TORSDOF 6
DOCKED: TER
DOCKED: ENDMDL
________________________________________________________________________________


    FINAL DOCKED STATE:
    ________________________


Run:   9 / 20
Time taken for this run:   0.039s

DOCKED: MODEL        9
DOCKED: USER    Run = 9
DOCKED: USER
DOCKED: USER    Estimated Free Energy of Binding    =  -8.63 kcal/mol  [=(1)+(2)+(3)-(4)]
DOCKED: USER
DOCKED: USER    (1) Final Intermolecular Energy     = -10.42 kcal/mol
DOCKED: USER        vdW + Hbond + desolv Energy     = -10.44 kcal/mol
DOCKED: USER        Electrostatic Energy            =  +0.02 kcal/mol
DOCKED: USER        Moving Ligand-Fixed Receptor    = -10.42 kcal/mol
DOCKED: USER        Moving Ligand-Moving Receptor   =  +0.00 kcal/mol
DOCKED: USER    (2) Final Total Internal Energy     =  -2.10 kcal/mol
DOCKED: USER    (3) Torsional Free Energy           =  +1.79 kcal/mol
DOCKED: USER    (4) Unbound System's Energy         =  -2.10 kcal/mol
DOCKED: USER
DOCKED: USER
DOCKED: REMARK SMILES O=C(NCC(=O)N1CCCC[C@H]1c1csc(-c2ccccc2)n1)c1ccc2cc(F)ccc2n1
DOCKED: REMARK SMILES IDX 4 1 3 2 2 3 1 4 24 6 25 7 34 8 26 9 33 10 27 11 32 12 28 13
DOCKED: REMARK SMILES IDX 31 14 29 15 30 16 5 17 6 18 7 19 8 20 12 21 9 22 11 23 10 24
DOCKED: REMARK SMILES IDX 13 25 14 26 23 27 15 28 16 29 17 30 18 31 22 32 19 33 21 34
DOCKED: REMARK SMILES IDX 20 35
DOCKED: REMARK H PARENT 3 5
DOCKED: USER                              x       y       z     vdW  Elec       q    Type
DOCKED: USER                           _______ _______ _______ _____ _____    ______ ____
DOCKED: ROOT
DOCKED: ATOM      1  C   UNL     1     139.227  73.369 221.556 -0.16 -0.04    +0.216 C  
DOCKED: ENDROOT
DOCKED: BRANCH   1   2
DOCKED: ATOM      2  N   UNL     1     139.527  72.614 222.733 -0.13 +0.08    -0.342 N  
DOCKED: ATOM      3  C   UNL     1     139.085  71.258 222.788 -0.17 -0.06    +0.270 C  
DOCKED: ATOM      4  O   UNL     1     138.459  70.794 221.804 -0.06 +0.05    -0.268 OA 
DOCKED: ATOM      5  H   UNL     1     140.052  73.021 223.541 -0.26 -0.02    +0.164 HD 
DOCKED: BRANCH   3   6
DOCKED: ATOM      6  C   UNL     1     139.373  70.453 223.972 -0.28 -0.02    +0.128 A  
DOCKED: ATOM      7  C   UNL     1     139.010  69.124 223.956 -0.29 -0.01    +0.035 A  
DOCKED: ATOM      8  N   UNL     1     139.972  70.955 225.069 -0.29 +0.04    -0.243 NA 
DOCKED: ATOM      9  C   UNL     1     139.244  68.289 225.033 -0.43 -0.00    +0.013 A  
DOCKED: ATOM     10  C   UNL     1     140.224  70.189 226.146 -0.48 -0.01    +0.071 A  
DOCKED: ATOM     11  C   UNL     1     139.863  68.846 226.142 -0.53 -0.00    +0.003 A  
DOCKED: ATOM     12  C   UNL     1     140.836  70.694 227.268 -0.63 -0.01    +0.032 A  
DOCKED: ATOM     13  C   UNL     1     140.125  68.049 227.263 -0.61 -0.01    +0.049 A  
DOCKED: ATOM     14  C   UNL     1     141.116  69.957 228.393 -0.46 -0.01    +0.041 A  
DOCKED: ATOM     15  C   UNL     1     140.748  68.617 228.371 -0.55 -0.03    +0.123 A  
DOCKED: ATOM     16  F   UNL     1     140.990  67.820 229.444 -0.15 +0.06    -0.207 F  
DOCKED: ENDBRANCH   3   6
DOCKED: ENDBRANCH   1   2
DOCKED: BRANCH   1  17
DOCKED: ATOM     17  C   UNL     1     140.058  74.598 221.436 -0.20 -0.04    +0.242 C  
DOCKED: ATOM     18  O   UNL     1     141.043  74.854 222.151 -0.51 +0.01    -0.273 OA 
DOCKED: BRANCH  17  19
DOCKED: ATOM     19  N   UNL     1     139.689  75.538 220.429 -0.04 +0.08    -0.333 N  
DOCKED: ATOM     20  C   UNL     1     138.424  76.231 220.555 -0.08 -0.03    +0.120 C  
DOCKED: ATOM     21  C   UNL     1     140.531  75.826 219.281 -0.07 -0.04    +0.135 C  
DOCKED: ATOM     22  C   UNL     1     137.900  76.852 219.321 -0.03 -0.00    +0.022 C  
DOCKED: ATOM     23  C   UNL     1     139.701  75.636 218.025 -0.03 -0.01    +0.032 C  
DOCKED: ATOM     24  C   UNL     1     138.420  76.379 218.019 -0.01 -0.00    +0.004 C  
DOCKED: BRANCH  21  25
DOCKED: ATOM     25  C   UNL     1     141.091  77.215 219.332 -0.14 -0.03    +0.075 A  
DOCKED: ATOM     26  C   UNL     1     141.546  77.866 218.204 -0.16 -0.05    +0.093 A  
DOCKED: ATOM     27  N   UNL     1     141.190  77.920 220.435 -0.13 +0.11    -0.239 NA 
DOCKED: ATOM     28  S   UNL     1     142.098  79.519 218.903 -0.32 +0.08    -0.122 S  
DOCKED: ATOM     29  C   UNL     1     141.604  79.006 220.593 -0.25 -0.07    +0.123 A  
DOCKED: BRANCH  29  30
DOCKED: ATOM     30  C   UNL     1     141.802  79.966 221.718 -0.44 -0.00    +0.010 A  
DOCKED: ATOM     31  C   UNL     1     141.284  81.226 221.651 -0.40 -0.00    +0.011 A  
DOCKED: ATOM     32  C   UNL     1     142.525  79.468 222.777 -0.60 -0.00    +0.011 A  
DOCKED: ATOM     33  C   UNL     1     141.511  82.061 222.740 -0.32 -0.00    +0.001 A  
DOCKED: ATOM     34  C   UNL     1     142.727  80.338 223.844 -0.66 -0.00    +0.001 A  
DOCKED: ATOM     35  C   UNL     1     142.234  81.628 223.848 -0.58 -0.00    +0.000 A  
DOCKED: ENDBRANCH  29  30
DOCKED: ENDBRANCH  21  25
DOCKED: ENDBRANCH  17  19
DOCKED: ENDBRANCH   1  17
DOCKED: TORSDOF 6
DOCKED: TER
DOCKED: ENDMDL
________________________________________________________________________________


    FINAL DOCKED STATE:
    ________________________


Run:   10 / 20
Time taken for this run:   0.039s

DOCKED: MODEL        10
DOCKED: USER    Run = 10
DOCKED: USER
DOCKED: USER    Estimated Free Energy of Binding    =  -7.09 kcal/mol  [=(1)+(2)+(3)-(4)]
DOCKED: USER
DOCKED: USER    (1) Final Intermolecular Energy     =  -8.88 kcal/mol
DOCKED: USER        vdW + Hbond + desolv Energy     =  -8.77 kcal/mol
DOCKED: USER        Electrostatic Energy            =  -0.11 kcal/mol
DOCKED: USER        Moving Ligand-Fixed Receptor    =  -8.88 kcal/mol
DOCKED: USER        Moving Ligand-Moving Receptor   =  +0.00 kcal/mol
DOCKED: USER    (2) Final Total Internal Energy     =  -4.44 kcal/mol
DOCKED: USER    (3) Torsional Free Energy           =  +1.79 kcal/mol
DOCKED: USER    (4) Unbound System's Energy         =  -4.44 kcal/mol
DOCKED: USER
DOCKED: USER
DOCKED: REMARK SMILES O=C(NCC(=O)N1CCCC[C@H]1c1csc(-c2ccccc2)n1)c1ccc2cc(F)ccc2n1
DOCKED: REMARK SMILES IDX 4 1 3 2 2 3 1 4 24 6 25 7 34 8 26 9 33 10 27 11 32 12 28 13
DOCKED: REMARK SMILES IDX 31 14 29 15 30 16 5 17 6 18 7 19 8 20 12 21 9 22 11 23 10 24
DOCKED: REMARK SMILES IDX 13 25 14 26 23 27 15 28 16 29 17 30 18 31 22 32 19 33 21 34
DOCKED: REMARK SMILES IDX 20 35
DOCKED: REMARK H PARENT 3 5
DOCKED: USER                              x       y       z     vdW  Elec       q    Type
DOCKED: USER                           _______ _______ _______ _____ _____    ______ ____
DOCKED: ROOT
DOCKED: ATOM      1  C   UNL     1     138.753  77.312 221.965 -0.19 -0.04    +0.216 C  
DOCKED: ENDROOT
DOCKED: BRANCH   1   2
DOCKED: ATOM      2  N   UNL     1     139.886  76.531 221.574 -0.13 +0.09    -0.342 N  
DOCKED: ATOM      3  C   UNL     1     139.846  75.126 221.818 -0.19 -0.05    +0.270 C  
DOCKED: ATOM      4  O   UNL     1     138.822  74.643 222.360 -0.34 +0.08    -0.268 OA 
DOCKED: ATOM      5  H   UNL     1     140.728  76.955 221.122 +0.06 -0.06    +0.164 HD 
DOCKED: BRANCH   3   6
DOCKED: ATOM      6  C   UNL     1     140.982  74.294 221.432 -0.25 -0.02    +0.128 A  
DOCKED: ATOM      7  C   UNL     1     140.799  72.930 221.378 -0.26 -0.00    +0.035 A  
DOCKED: ATOM      8  N   UNL     1     142.192  74.804 221.130 -0.15 +0.08    -0.243 NA 
DOCKED: ATOM      9  C   UNL     1     141.819  72.067 221.022 -0.23 -0.00    +0.013 A  
DOCKED: ATOM     10  C   UNL     1     143.222  74.013 220.778 -0.26 -0.02    +0.071 A  
DOCKED: ATOM     11  C   UNL     1     143.048  72.634 220.719 -0.29 -0.00    +0.003 A  
DOCKED: ATOM     12  C   UNL     1     144.458  74.526 220.468 -0.46 -0.01    +0.032 A  
DOCKED: ATOM     13  C   UNL     1     144.120  71.810 220.353 -0.29 -0.01    +0.049 A  
DOCKED: ATOM     14  C   UNL     1     145.542  73.764 220.102 -0.51 -0.00    +0.041 A  
DOCKED: ATOM     15  C   UNL     1     145.350  72.388 220.050 -0.36 +0.01    +0.123 A  
DOCKED: ATOM     16  F   UNL     1     146.372  71.565 219.697 -0.07 -0.20    -0.207 F  
DOCKED: ENDBRANCH   3   6
DOCKED: ENDBRANCH   1   2
DOCKED: BRANCH   1  17
DOCKED: ATOM     17  C   UNL     1     139.133  78.525 222.740 -0.21 -0.04    +0.242 C  
DOCKED: ATOM     18  O   UNL     1     138.425  79.050 223.617 -0.17 +0.03    -0.273 OA 
DOCKED: BRANCH  17  19
DOCKED: ATOM     19  N   UNL     1     140.398  79.115 222.447 -0.13 +0.09    -0.333 N  
DOCKED: ATOM     20  C   UNL     1     141.578  78.588 223.099 -0.47 -0.05    +0.120 C  
DOCKED: ATOM     21  C   UNL     1     140.549  80.224 221.522 -0.23 -0.04    +0.135 C  
DOCKED: ATOM     22  C   UNL     1     142.766  79.469 223.101 -0.54 -0.01    +0.022 C  
DOCKED: ATOM     23  C   UNL     1     141.295  81.336 222.232 -0.44 -0.01    +0.032 C  
DOCKED: ATOM     24  C   UNL     1     142.569  80.916 222.862 -0.56 -0.00    +0.004 C  
DOCKED: BRANCH  21  25
DOCKED: ATOM     25  C   UNL     1     141.277  79.818 220.276 -0.24 -0.03    +0.075 A  
DOCKED: ATOM     26  C   UNL     1     141.862  80.741 219.433 -0.26 -0.04    +0.093 A  
DOCKED: ATOM     27  N   UNL     1     141.421  78.572 219.890 -0.14 +0.12    -0.239 NA 
DOCKED: ATOM     28  S   UNL     1     142.598  79.641 218.101 -0.35 +0.11    -0.122 S  
DOCKED: ATOM     29  C   UNL     1     141.969  78.140 218.946 -0.23 -0.08    +0.123 A  
DOCKED: BRANCH  29  30
DOCKED: ATOM     30  C   UNL     1     142.245  76.807 218.336 -0.24 -0.01    +0.010 A  
DOCKED: ATOM     31  C   UNL     1     143.470  76.531 217.804 -0.23 -0.01    +0.011 A  
DOCKED: ATOM     32  C   UNL     1     141.185  75.931 218.368 -0.09 -0.00    +0.011 A  
DOCKED: ATOM     33  C   UNL     1     143.650  75.266 217.255 -0.19 -0.00    +0.001 A  
DOCKED: ATOM     34  C   UNL     1     141.410  74.677 217.808 -0.05 -0.00    +0.001 A  
DOCKED: ATOM     35  C   UNL     1     142.624  74.325 217.251 -0.08 -0.00    +0.000 A  
DOCKED: ENDBRANCH  29  30
DOCKED: ENDBRANCH  21  25
DOCKED: ENDBRANCH  17  19
DOCKED: ENDBRANCH   1  17
DOCKED: TORSDOF 6
DOCKED: TER
DOCKED: ENDMDL
________________________________________________________________________________


    FINAL DOCKED STATE:
    ________________________


Run:   11 / 20
Time taken for this run:   0.039s

DOCKED: MODEL        11
DOCKED: USER    Run = 11
DOCKED: USER
DOCKED: USER    Estimated Free Energy of Binding    =  -7.10 kcal/mol  [=(1)+(2)+(3)-(4)]
DOCKED: USER
DOCKED: USER    (1) Final Intermolecular Energy     =  -8.89 kcal/mol
DOCKED: USER        vdW + Hbond + desolv Energy     =  -8.79 kcal/mol
DOCKED: USER        Electrostatic Energy            =  -0.10 kcal/mol
DOCKED: USER        Moving Ligand-Fixed Receptor    =  -8.89 kcal/mol
DOCKED: USER        Moving Ligand-Moving Receptor   =  +0.00 kcal/mol
DOCKED: USER    (2) Final Total Internal Energy     =  -4.44 kcal/mol
DOCKED: USER    (3) Torsional Free Energy           =  +1.79 kcal/mol
DOCKED: USER    (4) Unbound System's Energy         =  -4.44 kcal/mol
DOCKED: USER
DOCKED: USER
DOCKED: REMARK SMILES O=C(NCC(=O)N1CCCC[C@H]1c1csc(-c2ccccc2)n1)c1ccc2cc(F)ccc2n1
DOCKED: REMARK SMILES IDX 4 1 3 2 2 3 1 4 24 6 25 7 34 8 26 9 33 10 27 11 32 12 28 13
DOCKED: REMARK SMILES IDX 31 14 29 15 30 16 5 17 6 18 7 19 8 20 12 21 9 22 11 23 10 24
DOCKED: REMARK SMILES IDX 13 25 14 26 23 27 15 28 16 29 17 30 18 31 22 32 19 33 21 34
DOCKED: REMARK SMILES IDX 20 35
DOCKED: REMARK H PARENT 3 5
DOCKED: USER                              x       y       z     vdW  Elec       q    Type
DOCKED: USER                           _______ _______ _______ _____ _____    ______ ____
DOCKED: ROOT
DOCKED: ATOM      1  C   UNL     1     138.664  77.350 222.023 -0.19 -0.04    +0.216 C  
DOCKED: ENDROOT
DOCKED: BRANCH   1   2
DOCKED: ATOM      2  N   UNL     1     139.811  76.584 221.646 -0.14 +0.09    -0.342 N  
DOCKED: ATOM      3  C   UNL     1     139.763  75.170 221.833 -0.20 -0.05    +0.270 C  
DOCKED: ATOM      4  O   UNL     1     138.720  74.668 222.318 -0.31 +0.08    -0.268 OA 
DOCKED: ATOM      5  H   UNL     1     140.670  77.024 221.243 +0.06 -0.06    +0.164 HD 
DOCKED: BRANCH   3   6
DOCKED: ATOM      6  C   UNL     1     140.913  74.353 221.460 -0.26 -0.02    +0.128 A  
DOCKED: ATOM      7  C   UNL     1     140.760  72.984 221.447 -0.26 -0.00    +0.035 A  
DOCKED: ATOM      8  N   UNL     1     142.108  74.880 221.129 -0.17 +0.08    -0.243 NA 
DOCKED: ATOM      9  C   UNL     1     141.796  72.134 221.106 -0.24 -0.00    +0.013 A  
DOCKED: ATOM     10  C   UNL     1     143.152  74.102 220.789 -0.25 -0.02    +0.071 A  
DOCKED: ATOM     11  C   UNL     1     143.008  72.718 220.773 -0.29 -0.00    +0.003 A  
DOCKED: ATOM     12  C   UNL     1     144.372  74.632 220.451 -0.43 -0.01    +0.032 A  
DOCKED: ATOM     13  C   UNL     1     144.094  71.908 220.419 -0.31 -0.01    +0.049 A  
DOCKED: ATOM     14  C   UNL     1     145.469  73.884 220.095 -0.46 -0.01    +0.041 A  
DOCKED: ATOM     15  C   UNL     1     145.307  72.504 220.085 -0.38 +0.01    +0.123 A  
DOCKED: ATOM     16  F   UNL     1     146.344  71.694 219.745 -0.08 -0.18    -0.207 F  
DOCKED: ENDBRANCH   3   6
DOCKED: ENDBRANCH   1   2
DOCKED: BRANCH   1  17
DOCKED: ATOM     17  C   UNL     1     139.024  78.611 222.728 -0.21 -0.04    +0.242 C  
DOCKED: ATOM     18  O   UNL     1     138.284  79.202 223.533 -0.19 +0.04    -0.273 OA 
DOCKED: BRANCH  17  19
DOCKED: ATOM     19  N   UNL     1     140.308  79.167 222.452 -0.13 +0.08    -0.333 N  
DOCKED: ATOM     20  C   UNL     1     141.465  78.608 223.119 -0.49 -0.04    +0.120 C  
DOCKED: ATOM     21  C   UNL     1     140.499  80.274 221.532 -0.23 -0.04    +0.135 C  
DOCKED: ATOM     22  C   UNL     1     142.675  79.457 223.137 -0.55 -0.01    +0.022 C  
DOCKED: ATOM     23  C   UNL     1     141.266  81.365 222.254 -0.43 -0.01    +0.032 C  
DOCKED: ATOM     24  C   UNL     1     142.520  80.909 222.899 -0.57 -0.00    +0.004 C  
DOCKED: BRANCH  21  25
DOCKED: ATOM     25  C   UNL     1     141.233  79.851 220.295 -0.24 -0.03    +0.075 A  
DOCKED: ATOM     26  C   UNL     1     141.854  80.759 219.462 -0.26 -0.04    +0.093 A  
DOCKED: ATOM     27  N   UNL     1     141.348  78.603 219.907 -0.13 +0.12    -0.239 NA 
DOCKED: ATOM     28  S   UNL     1     142.577  79.643 218.136 -0.36 +0.11    -0.122 S  
DOCKED: ATOM     29  C   UNL     1     141.895  78.158 218.969 -0.22 -0.07    +0.123 A  
DOCKED: BRANCH  29  30
DOCKED: ATOM     30  C   UNL     1     142.143  76.819 218.359 -0.22 -0.01    +0.010 A  
DOCKED: ATOM     31  C   UNL     1     143.359  76.520 217.820 -0.27 -0.01    +0.011 A  
DOCKED: ATOM     32  C   UNL     1     141.067  75.962 218.400 -0.08 -0.00    +0.011 A  
DOCKED: ATOM     33  C   UNL     1     143.511  75.251 217.271 -0.19 -0.00    +0.001 A  
DOCKED: ATOM     34  C   UNL     1     141.265  74.704 217.840 -0.05 -0.00    +0.001 A  
DOCKED: ATOM     35  C   UNL     1     142.468  74.329 217.275 -0.07 -0.00    +0.000 A  
DOCKED: ENDBRANCH  29  30
DOCKED: ENDBRANCH  21  25
DOCKED: ENDBRANCH  17  19
DOCKED: ENDBRANCH   1  17
DOCKED: TORSDOF 6
DOCKED: TER
DOCKED: ENDMDL
________________________________________________________________________________


    FINAL DOCKED STATE:
    ________________________


Run:   12 / 20
Time taken for this run:   0.039s

DOCKED: MODEL        12
DOCKED: USER    Run = 12
DOCKED: USER
DOCKED: USER    Estimated Free Energy of Binding    =  -7.10 kcal/mol  [=(1)+(2)+(3)-(4)]
DOCKED: USER
DOCKED: USER    (1) Final Intermolecular Energy     =  -8.89 kcal/mol
DOCKED: USER        vdW + Hbond + desolv Energy     =  -8.78 kcal/mol
DOCKED: USER        Electrostatic Energy            =  -0.11 kcal/mol
DOCKED: USER        Moving Ligand-Fixed Receptor    =  -8.89 kcal/mol
DOCKED: USER        Moving Ligand-Moving Receptor   =  +0.00 kcal/mol
DOCKED: USER    (2) Final Total Internal Energy     =  -4.43 kcal/mol
DOCKED: USER    (3) Torsional Free Energy           =  +1.79 kcal/mol
DOCKED: USER    (4) Unbound System's Energy         =  -4.43 kcal/mol
DOCKED: USER
DOCKED: USER
DOCKED: REMARK SMILES O=C(NCC(=O)N1CCCC[C@H]1c1csc(-c2ccccc2)n1)c1ccc2cc(F)ccc2n1
DOCKED: REMARK SMILES IDX 4 1 3 2 2 3 1 4 24 6 25 7 34 8 26 9 33 10 27 11 32 12 28 13
DOCKED: REMARK SMILES IDX 31 14 29 15 30 16 5 17 6 18 7 19 8 20 12 21 9 22 11 23 10 24
DOCKED: REMARK SMILES IDX 13 25 14 26 23 27 15 28 16 29 17 30 18 31 22 32 19 33 21 34
DOCKED: REMARK SMILES IDX 20 35
DOCKED: REMARK H PARENT 3 5
DOCKED: USER                              x       y       z     vdW  Elec       q    Type
DOCKED: USER                           _______ _______ _______ _____ _____    ______ ____
DOCKED: ROOT
DOCKED: ATOM      1  C   UNL     1     138.627  77.380 222.055 -0.19 -0.04    +0.216 C  
DOCKED: ENDROOT
DOCKED: BRANCH   1   2
DOCKED: ATOM      2  N   UNL     1     139.775  76.623 221.665 -0.14 +0.09    -0.342 N  
DOCKED: ATOM      3  C   UNL     1     139.733  75.207 221.837 -0.20 -0.05    +0.270 C  
DOCKED: ATOM      4  O   UNL     1     138.693  74.696 222.319 -0.30 +0.08    -0.268 OA 
DOCKED: ATOM      5  H   UNL     1     140.631  77.071 221.264 +0.06 -0.06    +0.164 HD 
DOCKED: BRANCH   3   6
DOCKED: ATOM      6  C   UNL     1     140.885  74.399 221.450 -0.26 -0.02    +0.128 A  
DOCKED: ATOM      7  C   UNL     1     140.732  73.030 221.405 -0.26 -0.00    +0.035 A  
DOCKED: ATOM      8  N   UNL     1     142.082  74.933 221.140 -0.16 +0.08    -0.243 NA 
DOCKED: ATOM      9  C   UNL     1     141.769  72.188 221.049 -0.24 -0.00    +0.013 A  
DOCKED: ATOM     10  C   UNL     1     143.128  74.162 220.787 -0.25 -0.02    +0.071 A  
DOCKED: ATOM     11  C   UNL     1     142.984  72.780 220.737 -0.29 -0.00    +0.003 A  
DOCKED: ATOM     12  C   UNL     1     144.350  74.700 220.468 -0.41 -0.01    +0.032 A  
DOCKED: ATOM     13  C   UNL     1     144.071  71.978 220.370 -0.31 -0.01    +0.049 A  
DOCKED: ATOM     14  C   UNL     1     145.449  73.961 220.101 -0.43 -0.01    +0.041 A  
DOCKED: ATOM     15  C   UNL     1     145.287  72.581 220.058 -0.38 +0.01    +0.123 A  
DOCKED: ATOM     16  F   UNL     1     146.325  71.778 219.704 -0.09 -0.19    -0.207 F  
DOCKED: ENDBRANCH   3   6
DOCKED: ENDBRANCH   1   2
DOCKED: BRANCH   1  17
DOCKED: ATOM     17  C   UNL     1     138.985  78.659 222.728 -0.20 -0.04    +0.242 C  
DOCKED: ATOM     18  O   UNL     1     138.233  79.284 223.496 -0.20 +0.04    -0.273 OA 
DOCKED: BRANCH  17  19
DOCKED: ATOM     19  N   UNL     1     140.281  79.192 222.466 -0.13 +0.08    -0.333 N  
DOCKED: ATOM     20  C   UNL     1     141.423  78.601 223.132 -0.49 -0.04    +0.120 C  
DOCKED: ATOM     21  C   UNL     1     140.501  80.304 221.559 -0.23 -0.04    +0.135 C  
DOCKED: ATOM     22  C   UNL     1     142.650  79.425 223.166 -0.55 -0.01    +0.022 C  
DOCKED: ATOM     23  C   UNL     1     141.286  81.371 222.298 -0.44 -0.01    +0.032 C  
DOCKED: ATOM     24  C   UNL     1     142.527  80.883 222.944 -0.59 -0.00    +0.004 C  
DOCKED: BRANCH  21  25
DOCKED: ATOM     25  C   UNL     1     141.232  79.881 220.321 -0.24 -0.03    +0.075 A  
DOCKED: ATOM     26  C   UNL     1     141.862  80.788 219.493 -0.26 -0.04    +0.093 A  
DOCKED: ATOM     27  N   UNL     1     141.338  78.634 219.928 -0.13 +0.12    -0.239 NA 
DOCKED: ATOM     28  S   UNL     1     142.578  79.671 218.164 -0.36 +0.11    -0.122 S  
DOCKED: ATOM     29  C   UNL     1     141.883  78.189 218.989 -0.22 -0.07    +0.123 A  
DOCKED: BRANCH  29  30
DOCKED: ATOM     30  C   UNL     1     142.120  76.850 218.374 -0.22 -0.01    +0.010 A  
DOCKED: ATOM     31  C   UNL     1     141.136  75.906 218.370 -0.09 -0.00    +0.011 A  
DOCKED: ATOM     32  C   UNL     1     143.376  76.681 217.836 -0.26 -0.01    +0.011 A  
DOCKED: ATOM     33  C   UNL     1     141.436  74.685 217.777 -0.05 -0.00    +0.001 A  
DOCKED: ATOM     34  C   UNL     1     143.631  75.443 217.253 -0.20 -0.00    +0.001 A  
DOCKED: ATOM     35  C   UNL     1     142.684  74.439 217.212 -0.08 -0.00    +0.000 A  
DOCKED: ENDBRANCH  29  30
DOCKED: ENDBRANCH  21  25
DOCKED: ENDBRANCH  17  19
DOCKED: ENDBRANCH   1  17
DOCKED: TORSDOF 6
DOCKED: TER
DOCKED: ENDMDL
________________________________________________________________________________


    FINAL DOCKED STATE:
    ________________________


Run:   13 / 20
Time taken for this run:   0.039s

DOCKED: MODEL        13
DOCKED: USER    Run = 13
DOCKED: USER
DOCKED: USER    Estimated Free Energy of Binding    =  -7.09 kcal/mol  [=(1)+(2)+(3)-(4)]
DOCKED: USER
DOCKED: USER    (1) Final Intermolecular Energy     =  -8.88 kcal/mol
DOCKED: USER        vdW + Hbond + desolv Energy     =  -8.77 kcal/mol
DOCKED: USER        Electrostatic Energy            =  -0.11 kcal/mol
DOCKED: USER        Moving Ligand-Fixed Receptor    =  -8.88 kcal/mol
DOCKED: USER        Moving Ligand-Moving Receptor   =  +0.00 kcal/mol
DOCKED: USER    (2) Final Total Internal Energy     =  -4.46 kcal/mol
DOCKED: USER    (3) Torsional Free Energy           =  +1.79 kcal/mol
DOCKED: USER    (4) Unbound System's Energy         =  -4.46 kcal/mol
DOCKED: USER
DOCKED: USER
DOCKED: REMARK SMILES O=C(NCC(=O)N1CCCC[C@H]1c1csc(-c2ccccc2)n1)c1ccc2cc(F)ccc2n1
DOCKED: REMARK SMILES IDX 4 1 3 2 2 3 1 4 24 6 25 7 34 8 26 9 33 10 27 11 32 12 28 13
DOCKED: REMARK SMILES IDX 31 14 29 15 30 16 5 17 6 18 7 19 8 20 12 21 9 22 11 23 10 24
DOCKED: REMARK SMILES IDX 13 25 14 26 23 27 15 28 16 29 17 30 18 31 22 32 19 33 21 34
DOCKED: REMARK SMILES IDX 20 35
DOCKED: REMARK H PARENT 3 5
DOCKED: USER                              x       y       z     vdW  Elec       q    Type
DOCKED: USER                           _______ _______ _______ _____ _____    ______ ____
DOCKED: ROOT
DOCKED: ATOM      1  C   UNL     1     138.659  77.362 222.052 -0.19 -0.04    +0.216 C  
DOCKED: ENDROOT
DOCKED: BRANCH   1   2
DOCKED: ATOM      2  N   UNL     1     139.802  76.599 221.659 -0.14 +0.09    -0.342 N  
DOCKED: ATOM      3  C   UNL     1     139.758  75.184 221.841 -0.20 -0.05    +0.270 C  
DOCKED: ATOM      4  O   UNL     1     138.721  74.679 222.335 -0.31 +0.08    -0.268 OA 
DOCKED: ATOM      5  H   UNL     1     140.656  77.042 221.248 +0.06 -0.06    +0.164 HD 
DOCKED: BRANCH   3   6
DOCKED: ATOM      6  C   UNL     1     140.905  74.370 221.451 -0.26 -0.02    +0.128 A  
DOCKED: ATOM      7  C   UNL     1     140.743  73.003 221.398 -0.26 -0.00    +0.035 A  
DOCKED: ATOM      8  N   UNL     1     142.106  74.899 221.143 -0.16 +0.08    -0.243 NA 
DOCKED: ATOM      9  C   UNL     1     141.775  72.156 221.039 -0.23 -0.00    +0.013 A  
DOCKED: ATOM     10  C   UNL     1     143.146  74.123 220.787 -0.25 -0.02    +0.071 A  
DOCKED: ATOM     11  C   UNL     1     142.994  72.742 220.730 -0.29 -0.00    +0.003 A  
DOCKED: ATOM     12  C   UNL     1     144.372  74.655 220.472 -0.42 -0.01    +0.032 A  
DOCKED: ATOM     13  C   UNL     1     144.076  71.935 220.360 -0.30 -0.01    +0.049 A  
DOCKED: ATOM     14  C   UNL     1     145.467  73.910 220.102 -0.45 -0.01    +0.041 A  
DOCKED: ATOM     15  C   UNL     1     145.296  72.531 220.051 -0.38 +0.01    +0.123 A  
DOCKED: ATOM     16  F   UNL     1     146.329  71.724 219.694 -0.08 -0.19    -0.207 F  
DOCKED: ENDBRANCH   3   6
DOCKED: ENDBRANCH   1   2
DOCKED: BRANCH   1  17
DOCKED: ATOM     17  C   UNL     1     139.025  78.637 222.728 -0.21 -0.04    +0.242 C  
DOCKED: ATOM     18  O   UNL     1     138.285  79.255 223.512 -0.20 +0.04    -0.273 OA 
DOCKED: BRANCH  17  19
DOCKED: ATOM     19  N   UNL     1     140.315  79.175 222.447 -0.13 +0.08    -0.333 N  
DOCKED: ATOM     20  C   UNL     1     141.468  78.595 223.105 -0.49 -0.04    +0.120 C  
DOCKED: ATOM     21  C   UNL     1     140.519  80.282 221.530 -0.23 -0.04    +0.135 C  
DOCKED: ATOM     22  C   UNL     1     142.691  79.425 223.120 -0.55 -0.01    +0.022 C  
DOCKED: ATOM     23  C   UNL     1     141.306  81.358 222.252 -0.44 -0.01    +0.032 C  
DOCKED: ATOM     24  C   UNL     1     142.557  80.881 222.888 -0.58 -0.00    +0.004 C  
DOCKED: BRANCH  21  25
DOCKED: ATOM     25  C   UNL     1     141.239  79.853 220.287 -0.24 -0.03    +0.075 A  
DOCKED: ATOM     26  C   UNL     1     141.849  80.757 219.442 -0.26 -0.04    +0.093 A  
DOCKED: ATOM     27  N   UNL     1     141.352  78.603 219.906 -0.13 +0.12    -0.239 NA 
DOCKED: ATOM     28  S   UNL     1     142.559  79.634 218.115 -0.36 +0.11    -0.122 S  
DOCKED: ATOM     29  C   UNL     1     141.890  78.153 218.965 -0.22 -0.07    +0.123 A  
DOCKED: BRANCH  29  30
DOCKED: ATOM     30  C   UNL     1     142.134  76.811 218.360 -0.22 -0.01    +0.010 A  
DOCKED: ATOM     31  C   UNL     1     143.350  76.505 217.824 -0.28 -0.01    +0.011 A  
DOCKED: ATOM     32  C   UNL     1     141.054  75.959 218.400 -0.08 -0.00    +0.011 A  
DOCKED: ATOM     33  C   UNL     1     143.498  75.233 217.281 -0.19 -0.00    +0.001 A  
DOCKED: ATOM     34  C   UNL     1     141.247  74.698 217.845 -0.05 -0.00    +0.001 A  
DOCKED: ATOM     35  C   UNL     1     142.451  74.316 217.285 -0.07 -0.00    +0.000 A  
DOCKED: ENDBRANCH  29  30
DOCKED: ENDBRANCH  21  25
DOCKED: ENDBRANCH  17  19
DOCKED: ENDBRANCH   1  17
DOCKED: TORSDOF 6
DOCKED: TER
DOCKED: ENDMDL
________________________________________________________________________________


    FINAL DOCKED STATE:
    ________________________


Run:   14 / 20
Time taken for this run:   0.039s

DOCKED: MODEL        14
DOCKED: USER    Run = 14
DOCKED: USER
DOCKED: USER    Estimated Free Energy of Binding    =  -9.56 kcal/mol  [=(1)+(2)+(3)-(4)]
DOCKED: USER
DOCKED: USER    (1) Final Intermolecular Energy     = -11.35 kcal/mol
DOCKED: USER        vdW + Hbond + desolv Energy     = -11.34 kcal/mol
DOCKED: USER        Electrostatic Energy            =  -0.02 kcal/mol
DOCKED: USER        Moving Ligand-Fixed Receptor    = -11.35 kcal/mol
DOCKED: USER        Moving Ligand-Moving Receptor   =  +0.00 kcal/mol
DOCKED: USER    (2) Final Total Internal Energy     =  -1.85 kcal/mol
DOCKED: USER    (3) Torsional Free Energy           =  +1.79 kcal/mol
DOCKED: USER    (4) Unbound System's Energy         =  -1.85 kcal/mol
DOCKED: USER
DOCKED: USER
DOCKED: REMARK SMILES O=C(NCC(=O)N1CCCC[C@H]1c1csc(-c2ccccc2)n1)c1ccc2cc(F)ccc2n1
DOCKED: REMARK SMILES IDX 4 1 3 2 2 3 1 4 24 6 25 7 34 8 26 9 33 10 27 11 32 12 28 13
DOCKED: REMARK SMILES IDX 31 14 29 15 30 16 5 17 6 18 7 19 8 20 12 21 9 22 11 23 10 24
DOCKED: REMARK SMILES IDX 13 25 14 26 23 27 15 28 16 29 17 30 18 31 22 32 19 33 21 34
DOCKED: REMARK SMILES IDX 20 35
DOCKED: REMARK H PARENT 3 5
DOCKED: USER                              x       y       z     vdW  Elec       q    Type
DOCKED: USER                           _______ _______ _______ _____ _____    ______ ____
DOCKED: ROOT
DOCKED: ATOM      1  C   UNL     1     139.138  72.476 220.340 -0.05 -0.04    +0.216 C  
DOCKED: ENDROOT
DOCKED: BRANCH   1   2
DOCKED: ATOM      2  N   UNL     1     139.196  71.573 221.448 -0.05 +0.06    -0.342 N  
DOCKED: ATOM      3  C   UNL     1     139.752  72.052 222.673 -0.21 -0.05    +0.270 C  
DOCKED: ATOM      4  O   UNL     1     140.160  73.238 222.719 -0.72 +0.01    -0.268 OA 
DOCKED: ATOM      5  H   UNL     1     138.849  70.589 221.387 +0.04 -0.03    +0.164 HD 
DOCKED: BRANCH   3   6
DOCKED: ATOM      6  C   UNL     1     139.828  71.162 223.827 -0.33 -0.02    +0.128 A  
DOCKED: ATOM      7  C   UNL     1     139.289  69.899 223.708 -0.27 -0.01    +0.035 A  
DOCKED: ATOM      8  N   UNL     1     140.397  71.523 224.993 -0.32 +0.04    -0.243 NA 
DOCKED: ATOM      9  C   UNL     1     139.317  68.990 224.750 -0.37 -0.00    +0.013 A  
DOCKED: ATOM     10  C   UNL     1     140.453  70.680 226.041 -0.52 -0.01    +0.071 A  
DOCKED: ATOM     11  C   UNL     1     139.913  69.403 225.932 -0.48 -0.00    +0.003 A  
DOCKED: ATOM     12  C   UNL     1     141.033  71.042 227.232 -0.67 -0.01    +0.032 A  
DOCKED: ATOM     13  C   UNL     1     139.970  68.526 227.022 -0.59 -0.01    +0.049 A  
DOCKED: ATOM     14  C   UNL     1     141.116  70.221 228.332 -0.51 -0.01    +0.041 A  
DOCKED: ATOM     15  C   UNL     1     140.571  68.949 228.205 -0.54 -0.03    +0.123 A  
DOCKED: ATOM     16  F   UNL     1     140.613  68.077 229.246 -0.14 +0.05    -0.207 F  
DOCKED: ENDBRANCH   3   6
DOCKED: ENDBRANCH   1   2
DOCKED: BRANCH   1  17
DOCKED: ATOM     17  C   UNL     1     140.467  72.686 219.703 -0.04 -0.04    +0.242 C  
DOCKED: ATOM     18  O   UNL     1     141.182  71.775 219.251 -0.03 +0.05    -0.273 OA 
DOCKED: BRANCH  17  19
DOCKED: ATOM     19  N   UNL     1     140.939  74.029 219.610 -0.02 +0.08    -0.333 N  
DOCKED: ATOM     20  C   UNL     1     140.663  74.780 218.404 -0.03 -0.03    +0.120 C  
DOCKED: ATOM     21  C   UNL     1     141.687  74.671 220.676 -0.23 -0.04    +0.135 C  
DOCKED: ATOM     22  C   UNL     1     141.506  75.974 218.177 -0.11 -0.01    +0.022 C  
DOCKED: ATOM     23  C   UNL     1     142.976  75.214 220.091 -0.34 -0.02    +0.032 C  
DOCKED: ATOM     24  C   UNL     1     142.795  76.073 218.898 -0.31 -0.00    +0.004 C  
DOCKED: BRANCH  21  25
DOCKED: ATOM     25  C   UNL     1     140.903  75.771 221.325 -0.30 -0.02    +0.075 A  
DOCKED: ATOM     26  C   UNL     1     139.537  75.696 221.501 -0.25 -0.02    +0.093 A  
DOCKED: ATOM     27  N   UNL     1     141.441  76.880 221.777 -0.11 +0.13    -0.239 NA 
DOCKED: ATOM     28  S   UNL     1     139.162  77.330 222.349 -0.35 +0.02    -0.122 S  
DOCKED: ATOM     29  C   UNL     1     140.934  77.799 222.300 -0.36 -0.05    +0.123 A  
DOCKED: BRANCH  29  30
DOCKED: ATOM     30  C   UNL     1     141.341  79.114 222.874 -0.51 -0.00    +0.010 A  
DOCKED: ATOM     31  C   UNL     1     140.399  80.008 223.291 -0.45 -0.00    +0.011 A  
DOCKED: ATOM     32  C   UNL     1     142.700  79.317 222.936 -0.54 -0.01    +0.011 A  
DOCKED: ATOM     33  C   UNL     1     140.858  81.211 223.815 -0.36 -0.00    +0.001 A  
DOCKED: ATOM     34  C   UNL     1     143.114  80.535 223.468 -0.67 -0.00    +0.001 A  
DOCKED: ATOM     35  C   UNL     1     142.219  81.489 223.910 -0.60 -0.00    +0.000 A  
DOCKED: ENDBRANCH  29  30
DOCKED: ENDBRANCH  21  25
DOCKED: ENDBRANCH  17  19
DOCKED: ENDBRANCH   1  17
DOCKED: TORSDOF 6
DOCKED: TER
DOCKED: ENDMDL
________________________________________________________________________________


    FINAL DOCKED STATE:
    ________________________


Run:   15 / 20
Time taken for this run:   0.039s

DOCKED: MODEL        15
DOCKED: USER    Run = 15
DOCKED: USER
DOCKED: USER    Estimated Free Energy of Binding    =  -7.10 kcal/mol  [=(1)+(2)+(3)-(4)]
DOCKED: USER
DOCKED: USER    (1) Final Intermolecular Energy     =  -8.89 kcal/mol
DOCKED: USER        vdW + Hbond + desolv Energy     =  -8.79 kcal/mol
DOCKED: USER        Electrostatic Energy            =  -0.10 kcal/mol
DOCKED: USER        Moving Ligand-Fixed Receptor    =  -8.89 kcal/mol
DOCKED: USER        Moving Ligand-Moving Receptor   =  +0.00 kcal/mol
DOCKED: USER    (2) Final Total Internal Energy     =  -4.45 kcal/mol
DOCKED: USER    (3) Torsional Free Energy           =  +1.79 kcal/mol
DOCKED: USER    (4) Unbound System's Energy         =  -4.45 kcal/mol
DOCKED: USER
DOCKED: USER
DOCKED: REMARK SMILES O=C(NCC(=O)N1CCCC[C@H]1c1csc(-c2ccccc2)n1)c1ccc2cc(F)ccc2n1
DOCKED: REMARK SMILES IDX 4 1 3 2 2 3 1 4 24 6 25 7 34 8 26 9 33 10 27 11 32 12 28 13
DOCKED: REMARK SMILES IDX 31 14 29 15 30 16 5 17 6 18 7 19 8 20 12 21 9 22 11 23 10 24
DOCKED: REMARK SMILES IDX 13 25 14 26 23 27 15 28 16 29 17 30 18 31 22 32 19 33 21 34
DOCKED: REMARK SMILES IDX 20 35
DOCKED: REMARK H PARENT 3 5
DOCKED: USER                              x       y       z     vdW  Elec       q    Type
DOCKED: USER                           _______ _______ _______ _____ _____    ______ ____
DOCKED: ROOT
DOCKED: ATOM      1  C   UNL     1     138.672  77.369 222.021 -0.19 -0.04    +0.216 C  
DOCKED: ENDROOT
DOCKED: BRANCH   1   2
DOCKED: ATOM      2  N   UNL     1     139.813  76.599 221.633 -0.13 +0.09    -0.342 N  
DOCKED: ATOM      3  C   UNL     1     139.767  75.187 221.833 -0.20 -0.05    +0.270 C  
DOCKED: ATOM      4  O   UNL     1     138.731  74.690 222.337 -0.32 +0.08    -0.268 OA 
DOCKED: ATOM      5  H   UNL     1     140.666  77.036 221.213 +0.06 -0.06    +0.164 HD 
DOCKED: BRANCH   3   6
DOCKED: ATOM      6  C   UNL     1     140.912  74.366 221.449 -0.26 -0.02    +0.128 A  
DOCKED: ATOM      7  C   UNL     1     140.745  72.999 221.407 -0.26 -0.00    +0.035 A  
DOCKED: ATOM      8  N   UNL     1     142.114  74.888 221.138 -0.16 +0.08    -0.243 NA 
DOCKED: ATOM      9  C   UNL     1     141.774  72.146 221.054 -0.23 -0.00    +0.013 A  
DOCKED: ATOM     10  C   UNL     1     143.152  74.106 220.788 -0.25 -0.02    +0.071 A  
DOCKED: ATOM     11  C   UNL     1     142.995  72.725 220.741 -0.29 -0.00    +0.003 A  
DOCKED: ATOM     12  C   UNL     1     144.380  74.632 220.468 -0.43 -0.01    +0.032 A  
DOCKED: ATOM     13  C   UNL     1     144.074  71.911 220.377 -0.30 -0.01    +0.049 A  
DOCKED: ATOM     14  C   UNL     1     145.471  73.880 220.104 -0.46 -0.01    +0.041 A  
DOCKED: ATOM     15  C   UNL     1     145.296  72.502 220.064 -0.37 +0.01    +0.123 A  
DOCKED: ATOM     16  F   UNL     1     146.326  71.688 219.714 -0.09 -0.19    -0.207 F  
DOCKED: ENDBRANCH   3   6
DOCKED: ENDBRANCH   1   2
DOCKED: BRANCH   1  17
DOCKED: ATOM     17  C   UNL     1     139.041  78.622 222.735 -0.21 -0.04    +0.242 C  
DOCKED: ATOM     18  O   UNL     1     138.310  79.208 223.551 -0.19 +0.04    -0.273 OA 
DOCKED: BRANCH  17  19
DOCKED: ATOM     19  N   UNL     1     140.325  79.177 222.454 -0.13 +0.08    -0.333 N  
DOCKED: ATOM     20  C   UNL     1     141.485  78.614 223.113 -0.49 -0.04    +0.120 C  
DOCKED: ATOM     21  C   UNL     1     140.514  80.285 221.535 -0.23 -0.04    +0.135 C  
DOCKED: ATOM     22  C   UNL     1     142.697  79.461 223.127 -0.55 -0.01    +0.022 C  
DOCKED: ATOM     23  C   UNL     1     141.286  81.373 222.256 -0.44 -0.01    +0.032 C  
DOCKED: ATOM     24  C   UNL     1     142.543  80.914 222.893 -0.57 -0.00    +0.004 C  
DOCKED: BRANCH  21  25
DOCKED: ATOM     25  C   UNL     1     141.240  79.864 220.293 -0.24 -0.03    +0.075 A  
DOCKED: ATOM     26  C   UNL     1     141.848  80.774 219.453 -0.26 -0.04    +0.093 A  
DOCKED: ATOM     27  N   UNL     1     141.361  78.616 219.908 -0.13 +0.12    -0.239 NA 
DOCKED: ATOM     28  S   UNL     1     142.569  79.659 218.124 -0.36 +0.11    -0.122 S  
DOCKED: ATOM     29  C   UNL     1     141.904  78.172 218.967 -0.22 -0.08    +0.123 A  
DOCKED: BRANCH  29  30
DOCKED: ATOM     30  C   UNL     1     142.157  76.834 218.359 -0.23 -0.01    +0.010 A  
DOCKED: ATOM     31  C   UNL     1     143.376  76.535 217.825 -0.27 -0.01    +0.011 A  
DOCKED: ATOM     32  C   UNL     1     141.082  75.976 218.394 -0.09 -0.00    +0.011 A  
DOCKED: ATOM     33  C   UNL     1     143.532  75.267 217.278 -0.19 -0.00    +0.001 A  
DOCKED: ATOM     34  C   UNL     1     141.284  74.717 217.835 -0.05 -0.00    +0.001 A  
DOCKED: ATOM     35  C   UNL     1     142.490  74.343 217.276 -0.07 -0.00    +0.000 A  
DOCKED: ENDBRANCH  29  30
DOCKED: ENDBRANCH  21  25
DOCKED: ENDBRANCH  17  19
DOCKED: ENDBRANCH   1  17
DOCKED: TORSDOF 6
DOCKED: TER
DOCKED: ENDMDL
________________________________________________________________________________


    FINAL DOCKED STATE:
    ________________________


Run:   16 / 20
Time taken for this run:   0.039s

DOCKED: MODEL        16
DOCKED: USER    Run = 16
DOCKED: USER
DOCKED: USER    Estimated Free Energy of Binding    =  -9.35 kcal/mol  [=(1)+(2)+(3)-(4)]
DOCKED: USER
DOCKED: USER    (1) Final Intermolecular Energy     = -11.14 kcal/mol
DOCKED: USER        vdW + Hbond + desolv Energy     = -11.11 kcal/mol
DOCKED: USER        Electrostatic Energy            =  -0.04 kcal/mol
DOCKED: USER        Moving Ligand-Fixed Receptor    = -11.14 kcal/mol
DOCKED: USER        Moving Ligand-Moving Receptor   =  +0.00 kcal/mol
DOCKED: USER    (2) Final Total Internal Energy     =  -1.97 kcal/mol
DOCKED: USER    (3) Torsional Free Energy           =  +1.79 kcal/mol
DOCKED: USER    (4) Unbound System's Energy         =  -1.97 kcal/mol
DOCKED: USER
DOCKED: USER
DOCKED: REMARK SMILES O=C(NCC(=O)N1CCCC[C@H]1c1csc(-c2ccccc2)n1)c1ccc2cc(F)ccc2n1
DOCKED: REMARK SMILES IDX 4 1 3 2 2 3 1 4 24 6 25 7 34 8 26 9 33 10 27 11 32 12 28 13
DOCKED: REMARK SMILES IDX 31 14 29 15 30 16 5 17 6 18 7 19 8 20 12 21 9 22 11 23 10 24
DOCKED: REMARK SMILES IDX 13 25 14 26 23 27 15 28 16 29 17 30 18 31 22 32 19 33 21 34
DOCKED: REMARK SMILES IDX 20 35
DOCKED: REMARK H PARENT 3 5
DOCKED: USER                              x       y       z     vdW  Elec       q    Type
DOCKED: USER                           _______ _______ _______ _____ _____    ______ ____
DOCKED: ROOT
DOCKED: ATOM      1  C   UNL     1     137.783  72.914 220.910 -0.06 -0.05    +0.216 C  
DOCKED: ENDROOT
DOCKED: BRANCH   1   2
DOCKED: ATOM      2  N   UNL     1     138.302  72.572 222.197 -0.08 +0.10    -0.342 N  
DOCKED: ATOM      3  C   UNL     1     138.945  71.305 222.344 -0.13 -0.06    +0.270 C  
DOCKED: ATOM      4  O   UNL     1     139.023  70.557 221.340 -0.06 +0.05    -0.268 OA 
DOCKED: ATOM      5  H   UNL     1     138.226  73.212 223.020 -0.49 -0.10    +0.164 HD 
DOCKED: BRANCH   3   6
DOCKED: ATOM      6  C   UNL     1     139.489  70.919 223.642 -0.29 -0.02    +0.128 A  
DOCKED: ATOM      7  C   UNL     1     140.317  71.810 224.290 -0.38 -0.01    +0.035 A  
DOCKED: ATOM      8  N   UNL     1     139.216  69.737 224.227 -0.17 +0.04    -0.243 NA 
DOCKED: ATOM      9  C   UNL     1     140.877  71.527 225.522 -0.57 -0.00    +0.013 A  
DOCKED: ATOM     10  C   UNL     1     139.733  69.408 225.426 -0.39 -0.01    +0.071 A  
DOCKED: ATOM     11  C   UNL     1     140.570  70.300 226.088 -0.55 -0.00    +0.003 A  
DOCKED: ATOM     12  C   UNL     1     139.458  68.205 226.028 -0.54 -0.00    +0.032 A  
DOCKED: ATOM     13  C   UNL     1     141.108  69.957 227.335 -0.52 -0.01    +0.049 A  
DOCKED: ATOM     14  C   UNL     1     139.958  67.819 227.249 -0.59 -0.01    +0.041 A  
DOCKED: ATOM     15  C   UNL     1     140.793  68.723 227.896 -0.54 -0.03    +0.123 A  
DOCKED: ATOM     16  F   UNL     1     141.328  68.417 229.107 -0.16 +0.05    -0.207 F  
DOCKED: ENDBRANCH   3   6
DOCKED: ENDBRANCH   1   2
DOCKED: BRANCH   1  17
DOCKED: ATOM     17  C   UNL     1     138.849  73.055 219.881 -0.03 -0.05    +0.242 C  
DOCKED: ATOM     18  O   UNL     1     138.968  72.321 218.885 -0.01 +0.05    -0.273 OA 
DOCKED: BRANCH  17  19
DOCKED: ATOM     19  N   UNL     1     139.793  74.109 220.062 -0.02 +0.07    -0.333 N  
DOCKED: ATOM     20  C   UNL     1     140.177  74.903 218.913 -0.04 -0.03    +0.120 C  
DOCKED: ATOM     21  C   UNL     1     140.385  74.417 221.351 -0.24 -0.02    +0.135 C  
DOCKED: ATOM     22  C   UNL     1     141.431  75.675 219.049 -0.14 -0.01    +0.022 C  
DOCKED: ATOM     23  C   UNL     1     141.894  74.415 221.194 -0.18 -0.01    +0.032 C  
DOCKED: ATOM     24  C   UNL     1     142.397  75.271 220.094 -0.31 -0.00    +0.004 C  
DOCKED: BRANCH  21  25
DOCKED: ATOM     25  C   UNL     1     139.917  75.739 221.881 -0.31 -0.01    +0.075 A  
DOCKED: ATOM     26  C   UNL     1     138.582  76.015 222.092 -0.26 -0.02    +0.093 A  
DOCKED: ATOM     27  N   UNL     1     140.725  76.727 222.187 -0.27 +0.08    -0.239 NA 
DOCKED: ATOM     28  S   UNL     1     138.647  77.774 222.748 -0.30 +0.02    -0.122 S  
DOCKED: ATOM     29  C   UNL     1     140.475  77.793 222.608 -0.35 -0.03    +0.123 A  
DOCKED: BRANCH  29  30
DOCKED: ATOM     30  C   UNL     1     141.210  79.027 223.014 -0.52 -0.00    +0.010 A  
DOCKED: ATOM     31  C   UNL     1     142.571  79.078 222.938 -0.50 -0.01    +0.011 A  
DOCKED: ATOM     32  C   UNL     1     140.407  80.055 223.450 -0.46 -0.00    +0.011 A  
DOCKED: ATOM     33  C   UNL     1     143.181  80.263 223.333 -0.63 -0.00    +0.001 A  
DOCKED: ATOM     34  C   UNL     1     141.061  81.222 223.836 -0.42 -0.00    +0.001 A  
DOCKED: ATOM     35  C   UNL     1     142.435  81.348 223.786 -0.60 -0.00    +0.000 A  
DOCKED: ENDBRANCH  29  30
DOCKED: ENDBRANCH  21  25
DOCKED: ENDBRANCH  17  19
DOCKED: ENDBRANCH   1  17
DOCKED: TORSDOF 6
DOCKED: TER
DOCKED: ENDMDL
________________________________________________________________________________


    FINAL DOCKED STATE:
    ________________________


Run:   17 / 20
Time taken for this run:   0.039s

DOCKED: MODEL        17
DOCKED: USER    Run = 17
DOCKED: USER
DOCKED: USER    Estimated Free Energy of Binding    =  -7.12 kcal/mol  [=(1)+(2)+(3)-(4)]
DOCKED: USER
DOCKED: USER    (1) Final Intermolecular Energy     =  -8.91 kcal/mol
DOCKED: USER        vdW + Hbond + desolv Energy     =  -8.80 kcal/mol
DOCKED: USER        Electrostatic Energy            =  -0.10 kcal/mol
DOCKED: USER        Moving Ligand-Fixed Receptor    =  -8.91 kcal/mol
DOCKED: USER        Moving Ligand-Moving Receptor   =  +0.00 kcal/mol
DOCKED: USER    (2) Final Total Internal Energy     =  -4.20 kcal/mol
DOCKED: USER    (3) Torsional Free Energy           =  +1.79 kcal/mol
DOCKED: USER    (4) Unbound System's Energy         =  -4.20 kcal/mol
DOCKED: USER
DOCKED: USER
DOCKED: REMARK SMILES O=C(NCC(=O)N1CCCC[C@H]1c1csc(-c2ccccc2)n1)c1ccc2cc(F)ccc2n1
DOCKED: REMARK SMILES IDX 4 1 3 2 2 3 1 4 24 6 25 7 34 8 26 9 33 10 27 11 32 12 28 13
DOCKED: REMARK SMILES IDX 31 14 29 15 30 16 5 17 6 18 7 19 8 20 12 21 9 22 11 23 10 24
DOCKED: REMARK SMILES IDX 13 25 14 26 23 27 15 28 16 29 17 30 18 31 22 32 19 33 21 34
DOCKED: REMARK SMILES IDX 20 35
DOCKED: REMARK H PARENT 3 5
DOCKED: USER                              x       y       z     vdW  Elec       q    Type
DOCKED: USER                           _______ _______ _______ _____ _____    ______ ____
DOCKED: ROOT
DOCKED: ATOM      1  C   UNL     1     138.701  77.318 222.273 -0.21 -0.04    +0.216 C  
DOCKED: ENDROOT
DOCKED: BRANCH   1   2
DOCKED: ATOM      2  N   UNL     1     139.854  76.558 221.905 -0.17 +0.08    -0.342 N  
DOCKED: ATOM      3  C   UNL     1     139.732  75.136 221.860 -0.19 -0.05    +0.270 C  
DOCKED: ATOM      4  O   UNL     1     138.622  74.624 222.144 -0.25 +0.08    -0.268 OA 
DOCKED: ATOM      5  H   UNL     1     140.770  77.006 221.671 +0.05 -0.06    +0.164 HD 
DOCKED: BRANCH   3   6
DOCKED: ATOM      6  C   UNL     1     140.887  74.324 221.488 -0.26 -0.02    +0.128 A  
DOCKED: ATOM      7  C   UNL     1     140.749  72.953 221.507 -0.27 -0.00    +0.035 A  
DOCKED: ATOM      8  N   UNL     1     142.071  74.857 221.130 -0.17 +0.08    -0.243 NA 
DOCKED: ATOM      9  C   UNL     1     141.789  72.108 221.170 -0.24 -0.00    +0.013 A  
DOCKED: ATOM     10  C   UNL     1     143.118  74.083 220.792 -0.25 -0.02    +0.071 A  
DOCKED: ATOM     11  C   UNL     1     142.991  72.698 220.807 -0.29 -0.00    +0.003 A  
DOCKED: ATOM     12  C   UNL     1     144.328  74.620 220.425 -0.43 -0.01    +0.032 A  
DOCKED: ATOM     13  C   UNL     1     144.081  71.893 220.456 -0.31 -0.01    +0.049 A  
DOCKED: ATOM     14  C   UNL     1     145.429  73.877 220.071 -0.45 -0.01    +0.041 A  
DOCKED: ATOM     15  C   UNL     1     145.282  72.495 220.093 -0.38 +0.01    +0.123 A  
DOCKED: ATOM     16  F   UNL     1     146.323  71.689 219.756 -0.09 -0.18    -0.207 F  
DOCKED: ENDBRANCH   3   6
DOCKED: ENDBRANCH   1   2
DOCKED: BRANCH   1  17
DOCKED: ATOM     17  C   UNL     1     139.051  78.613 222.919 -0.20 -0.04    +0.242 C  
DOCKED: ATOM     18  O   UNL     1     138.306  79.235 223.696 -0.17 +0.03    -0.273 OA 
DOCKED: BRANCH  17  19
DOCKED: ATOM     19  N   UNL     1     140.331  79.166 222.618 -0.15 +0.08    -0.333 N  
DOCKED: ATOM     20  C   UNL     1     141.498  78.613 223.272 -0.49 -0.04    +0.120 C  
DOCKED: ATOM     21  C   UNL     1     140.509  80.263 221.683 -0.24 -0.04    +0.135 C  
DOCKED: ATOM     22  C   UNL     1     142.709  79.461 223.263 -0.49 -0.01    +0.022 C  
DOCKED: ATOM     23  C   UNL     1     141.287  81.361 222.383 -0.45 -0.01    +0.032 C  
DOCKED: ATOM     24  C   UNL     1     142.551  80.911 223.013 -0.58 -0.00    +0.004 C  
DOCKED: BRANCH  21  25
DOCKED: ATOM     25  C   UNL     1     141.223  79.828 220.440 -0.25 -0.03    +0.075 A  
DOCKED: ATOM     26  C   UNL     1     141.857  80.724 219.604 -0.26 -0.04    +0.093 A  
DOCKED: ATOM     27  N   UNL     1     141.308  78.578 220.048 -0.13 +0.12    -0.239 NA 
DOCKED: ATOM     28  S   UNL     1     142.545  79.595 218.270 -0.35 +0.11    -0.122 S  
DOCKED: ATOM     29  C   UNL     1     141.838  78.124 219.105 -0.22 -0.07    +0.123 A  
DOCKED: BRANCH  29  30
DOCKED: ATOM     30  C   UNL     1     142.052  76.781 218.490 -0.22 -0.01    +0.010 A  
DOCKED: ATOM     31  C   UNL     1     141.049  75.857 218.481 -0.08 -0.00    +0.011 A  
DOCKED: ATOM     32  C   UNL     1     143.306  76.587 217.959 -0.29 -0.01    +0.011 A  
DOCKED: ATOM     33  C   UNL     1     141.326  74.630 217.888 -0.05 -0.00    +0.001 A  
DOCKED: ATOM     34  C   UNL     1     143.539  75.345 217.376 -0.20 -0.00    +0.001 A  
DOCKED: ATOM     35  C   UNL     1     142.573  74.359 217.329 -0.08 -0.00    +0.000 A  
DOCKED: ENDBRANCH  29  30
DOCKED: ENDBRANCH  21  25
DOCKED: ENDBRANCH  17  19
DOCKED: ENDBRANCH   1  17
DOCKED: TORSDOF 6
DOCKED: TER
DOCKED: ENDMDL
________________________________________________________________________________


    FINAL DOCKED STATE:
    ________________________


Run:   18 / 20
Time taken for this run:   0.039s

DOCKED: MODEL        18
DOCKED: USER    Run = 18
DOCKED: USER
DOCKED: USER    Estimated Free Energy of Binding    =  -9.05 kcal/mol  [=(1)+(2)+(3)-(4)]
DOCKED: USER
DOCKED: USER    (1) Final Intermolecular Energy     = -10.84 kcal/mol
DOCKED: USER        vdW + Hbond + desolv Energy     = -10.79 kcal/mol
DOCKED: USER        Electrostatic Energy            =  -0.04 kcal/mol
DOCKED: USER        Moving Ligand-Fixed Receptor    = -10.84 kcal/mol
DOCKED: USER        Moving Ligand-Moving Receptor   =  +0.00 kcal/mol
DOCKED: USER    (2) Final Total Internal Energy     =  -2.30 kcal/mol
DOCKED: USER    (3) Torsional Free Energy           =  +1.79 kcal/mol
DOCKED: USER    (4) Unbound System's Energy         =  -2.30 kcal/mol
DOCKED: USER
DOCKED: USER
DOCKED: REMARK SMILES O=C(NCC(=O)N1CCCC[C@H]1c1csc(-c2ccccc2)n1)c1ccc2cc(F)ccc2n1
DOCKED: REMARK SMILES IDX 4 1 3 2 2 3 1 4 24 6 25 7 34 8 26 9 33 10 27 11 32 12 28 13
DOCKED: REMARK SMILES IDX 31 14 29 15 30 16 5 17 6 18 7 19 8 20 12 21 9 22 11 23 10 24
DOCKED: REMARK SMILES IDX 13 25 14 26 23 27 15 28 16 29 17 30 18 31 22 32 19 33 21 34
DOCKED: REMARK SMILES IDX 20 35
DOCKED: REMARK H PARENT 3 5
DOCKED: USER                              x       y       z     vdW  Elec       q    Type
DOCKED: USER                           _______ _______ _______ _____ _____    ______ ____
DOCKED: ROOT
DOCKED: ATOM      1  C   UNL     1     138.732  75.475 221.405 -0.16 -0.05    +0.216 C  
DOCKED: ENDROOT
DOCKED: BRANCH   1   2
DOCKED: ATOM      2  N   UNL     1     138.741  74.359 222.298 -0.01 +0.11    -0.342 N  
DOCKED: ATOM      3  C   UNL     1     139.741  73.358 222.109 -0.14 -0.04    +0.270 C  
DOCKED: ATOM      4  O   UNL     1     140.563  73.507 221.172 -0.21 +0.04    -0.268 OA 
DOCKED: ATOM      5  H   UNL     1     138.046  74.257 223.073 -0.52 -0.12    +0.164 HD 
DOCKED: BRANCH   3   6
DOCKED: ATOM      6  C   UNL     1     139.784  72.204 223.000 -0.25 -0.03    +0.128 A  
DOCKED: ATOM      7  C   UNL     1     139.199  71.032 222.572 -0.22 -0.01    +0.035 A  
DOCKED: ATOM      8  N   UNL     1     140.367  72.238 224.214 -0.12 +0.04    -0.243 NA 
DOCKED: ATOM      9  C   UNL     1     139.192  69.889 223.351 -0.25 -0.00    +0.013 A  
DOCKED: ATOM     10  C   UNL     1     140.391  71.156 225.015 -0.48 -0.01    +0.071 A  
DOCKED: ATOM     11  C   UNL     1     139.804  69.968 224.593 -0.38 -0.00    +0.003 A  
DOCKED: ATOM     12  C   UNL     1     140.984  71.184 226.253 -0.64 -0.00    +0.032 A  
DOCKED: ATOM     13  C   UNL     1     139.828  68.843 225.426 -0.42 -0.01    +0.049 A  
DOCKED: ATOM     14  C   UNL     1     141.037  70.110 227.109 -0.55 -0.01    +0.041 A  
DOCKED: ATOM     15  C   UNL     1     140.445  68.932 226.671 -0.49 -0.02    +0.123 A  
DOCKED: ATOM     16  F   UNL     1     140.454  67.825 227.459 -0.20 +0.06    -0.207 F  
DOCKED: ENDBRANCH   3   6
DOCKED: ENDBRANCH   1   2
DOCKED: BRANCH   1  17
DOCKED: ATOM     17  C   UNL     1     138.887  76.776 222.112 -0.21 -0.05    +0.242 C  
DOCKED: ATOM     18  O   UNL     1     138.097  77.209 222.969 -0.22 +0.05    -0.273 OA 
DOCKED: BRANCH  17  19
DOCKED: ATOM     19  N   UNL     1     140.022  77.571 221.774 -0.12 +0.09    -0.333 N  
DOCKED: ATOM     20  C   UNL     1     141.011  77.840 222.796 -0.38 -0.04    +0.120 C  
DOCKED: ATOM     21  C   UNL     1     140.224  78.121 220.445 -0.13 -0.05    +0.135 C  
DOCKED: ATOM     22  C   UNL     1     141.918  78.979 222.537 -0.51 -0.01    +0.022 C  
DOCKED: ATOM     23  C   UNL     1     140.445  79.615 220.579 -0.20 -0.01    +0.032 C  
DOCKED: ATOM     24  C   UNL     1     141.505  79.995 221.543 -0.41 -0.00    +0.004 C  
DOCKED: BRANCH  21  25
DOCKED: ATOM     25  C   UNL     1     141.385  77.482 219.746 -0.21 -0.04    +0.075 A  
DOCKED: ATOM     26  C   UNL     1     141.913  77.994 218.578 -0.22 -0.06    +0.093 A  
DOCKED: ATOM     27  N   UNL     1     141.992  76.401 220.179 -0.17 +0.13    -0.239 NA 
DOCKED: ATOM     28  S   UNL     1     143.306  76.788 218.217 -0.30 +0.08    -0.122 S  
DOCKED: ATOM     29  C   UNL     1     142.903  75.821 219.721 -0.31 -0.07    +0.123 A  
DOCKED: BRANCH  29  30
DOCKED: ATOM     30  C   UNL     1     143.723  74.615 220.038 -0.40 -0.00    +0.010 A  
DOCKED: ATOM     31  C   UNL     1     143.199  73.365 219.893 -0.26 -0.00    +0.011 A  
DOCKED: ATOM     32  C   UNL     1     145.002  74.888 220.467 -0.29 -0.01    +0.011 A  
DOCKED: ATOM     33  C   UNL     1     144.027  72.292 220.207 -0.33 -0.00    +0.001 A  
DOCKED: ATOM     34  C   UNL     1     145.795  73.785 220.770 -0.68 -0.00    +0.001 A  
DOCKED: ATOM     35  C   UNL     1     145.333  72.489 220.649 -0.41 -0.00    +0.000 A  
DOCKED: ENDBRANCH  29  30
DOCKED: ENDBRANCH  21  25
DOCKED: ENDBRANCH  17  19
DOCKED: ENDBRANCH   1  17
DOCKED: TORSDOF 6
DOCKED: TER
DOCKED: ENDMDL
________________________________________________________________________________


    FINAL DOCKED STATE:
    ________________________


Run:   19 / 20
Time taken for this run:   0.039s

DOCKED: MODEL        19
DOCKED: USER    Run = 19
DOCKED: USER
DOCKED: USER    Estimated Free Energy of Binding    =  -7.09 kcal/mol  [=(1)+(2)+(3)-(4)]
DOCKED: USER
DOCKED: USER    (1) Final Intermolecular Energy     =  -8.88 kcal/mol
DOCKED: USER        vdW + Hbond + desolv Energy     =  -8.78 kcal/mol
DOCKED: USER        Electrostatic Energy            =  -0.10 kcal/mol
DOCKED: USER        Moving Ligand-Fixed Receptor    =  -8.88 kcal/mol
DOCKED: USER        Moving Ligand-Moving Receptor   =  +0.00 kcal/mol
DOCKED: USER    (2) Final Total Internal Energy     =  -4.44 kcal/mol
DOCKED: USER    (3) Torsional Free Energy           =  +1.79 kcal/mol
DOCKED: USER    (4) Unbound System's Energy         =  -4.44 kcal/mol
DOCKED: USER
DOCKED: USER
DOCKED: REMARK SMILES O=C(NCC(=O)N1CCCC[C@H]1c1csc(-c2ccccc2)n1)c1ccc2cc(F)ccc2n1
DOCKED: REMARK SMILES IDX 4 1 3 2 2 3 1 4 24 6 25 7 34 8 26 9 33 10 27 11 32 12 28 13
DOCKED: REMARK SMILES IDX 31 14 29 15 30 16 5 17 6 18 7 19 8 20 12 21 9 22 11 23 10 24
DOCKED: REMARK SMILES IDX 13 25 14 26 23 27 15 28 16 29 17 30 18 31 22 32 19 33 21 34
DOCKED: REMARK SMILES IDX 20 35
DOCKED: REMARK H PARENT 3 5
DOCKED: USER                              x       y       z     vdW  Elec       q    Type
DOCKED: USER                           _______ _______ _______ _____ _____    ______ ____
DOCKED: ROOT
DOCKED: ATOM      1  C   UNL     1     138.704  77.315 221.965 -0.18 -0.04    +0.216 C  
DOCKED: ENDROOT
DOCKED: BRANCH   1   2
DOCKED: ATOM      2  N   UNL     1     139.839  76.538 221.576 -0.13 +0.09    -0.342 N  
DOCKED: ATOM      3  C   UNL     1     139.803  75.132 221.819 -0.19 -0.05    +0.270 C  
DOCKED: ATOM      4  O   UNL     1     138.780  74.646 222.359 -0.32 +0.08    -0.268 OA 
DOCKED: ATOM      5  H   UNL     1     140.682  76.965 221.126 +0.06 -0.06    +0.164 HD 
DOCKED: BRANCH   3   6
DOCKED: ATOM      6  C   UNL     1     140.943  74.304 221.435 -0.26 -0.02    +0.128 A  
DOCKED: ATOM      7  C   UNL     1     140.765  72.939 221.382 -0.26 -0.00    +0.035 A  
DOCKED: ATOM      8  N   UNL     1     142.151  74.818 221.133 -0.16 +0.08    -0.243 NA 
DOCKED: ATOM      9  C   UNL     1     141.788  72.080 221.029 -0.23 -0.00    +0.013 A  
DOCKED: ATOM     10  C   UNL     1     143.184  74.030 220.783 -0.25 -0.02    +0.071 A  
DOCKED: ATOM     11  C   UNL     1     143.016  72.650 220.726 -0.29 -0.00    +0.003 A  
DOCKED: ATOM     12  C   UNL     1     144.418  74.547 220.473 -0.45 -0.01    +0.032 A  
DOCKED: ATOM     13  C   UNL     1     144.090  71.830 220.362 -0.29 -0.01    +0.049 A  
DOCKED: ATOM     14  C   UNL     1     145.505  73.789 220.109 -0.50 -0.01    +0.041 A  
DOCKED: ATOM     15  C   UNL     1     145.318  72.412 220.059 -0.36 +0.01    +0.123 A  
DOCKED: ATOM     16  F   UNL     1     146.343  71.592 219.708 -0.08 -0.19    -0.207 F  
DOCKED: ENDBRANCH   3   6
DOCKED: ENDBRANCH   1   2
DOCKED: BRANCH   1  17
DOCKED: ATOM     17  C   UNL     1     139.080  78.539 222.724 -0.21 -0.04    +0.242 C  
DOCKED: ATOM     18  O   UNL     1     138.360  79.087 223.577 -0.18 +0.03    -0.273 OA 
DOCKED: BRANCH  17  19
DOCKED: ATOM     19  N   UNL     1     140.355  79.113 222.443 -0.13 +0.09    -0.333 N  
DOCKED: ATOM     20  C   UNL     1     141.523  78.565 223.099 -0.47 -0.04    +0.120 C  
DOCKED: ATOM     21  C   UNL     1     140.527  80.226 221.526 -0.23 -0.04    +0.135 C  
DOCKED: ATOM     22  C   UNL     1     142.723  79.429 223.114 -0.54 -0.01    +0.022 C  
DOCKED: ATOM     23  C   UNL     1     141.284  81.324 222.250 -0.44 -0.01    +0.032 C  
DOCKED: ATOM     24  C   UNL     1     142.548  80.881 222.884 -0.58 -0.00    +0.004 C  
DOCKED: BRANCH  21  25
DOCKED: ATOM     25  C   UNL     1     141.257  79.820 220.283 -0.24 -0.03    +0.075 A  
DOCKED: ATOM     26  C   UNL     1     141.849  80.741 219.443 -0.26 -0.04    +0.093 A  
DOCKED: ATOM     27  N   UNL     1     141.397  78.574 219.895 -0.13 +0.12    -0.239 NA 
DOCKED: ATOM     28  S   UNL     1     142.585  79.640 218.111 -0.35 +0.11    -0.122 S  
DOCKED: ATOM     29  C   UNL     1     141.946  78.141 218.952 -0.23 -0.08    +0.123 A  
DOCKED: BRANCH  29  30
DOCKED: ATOM     30  C   UNL     1     142.218  76.807 218.341 -0.23 -0.01    +0.010 A  
DOCKED: ATOM     31  C   UNL     1     143.445  76.525 217.817 -0.24 -0.01    +0.011 A  
DOCKED: ATOM     32  C   UNL     1     141.153  75.937 218.365 -0.09 -0.00    +0.011 A  
DOCKED: ATOM     33  C   UNL     1     143.620  75.260 217.266 -0.19 -0.00    +0.001 A  
DOCKED: ATOM     34  C   UNL     1     141.374  74.683 217.803 -0.05 -0.00    +0.001 A  
DOCKED: ATOM     35  C   UNL     1     142.589  74.325 217.253 -0.07 -0.00    +0.000 A  
DOCKED: ENDBRANCH  29  30
DOCKED: ENDBRANCH  21  25
DOCKED: ENDBRANCH  17  19
DOCKED: ENDBRANCH   1  17
DOCKED: TORSDOF 6
DOCKED: TER
DOCKED: ENDMDL
________________________________________________________________________________


    FINAL DOCKED STATE:
    ________________________


Run:   20 / 20
Time taken for this run:   0.039s

DOCKED: MODEL        20
DOCKED: USER    Run = 20
DOCKED: USER
DOCKED: USER    Estimated Free Energy of Binding    =  -7.01 kcal/mol  [=(1)+(2)+(3)-(4)]
DOCKED: USER
DOCKED: USER    (1) Final Intermolecular Energy     =  -8.80 kcal/mol
DOCKED: USER        vdW + Hbond + desolv Energy     =  -8.70 kcal/mol
DOCKED: USER        Electrostatic Energy            =  -0.11 kcal/mol
DOCKED: USER        Moving Ligand-Fixed Receptor    =  -8.80 kcal/mol
DOCKED: USER        Moving Ligand-Moving Receptor   =  +0.00 kcal/mol
DOCKED: USER    (2) Final Total Internal Energy     =  -4.46 kcal/mol
DOCKED: USER    (3) Torsional Free Energy           =  +1.79 kcal/mol
DOCKED: USER    (4) Unbound System's Energy         =  -4.46 kcal/mol
DOCKED: USER
DOCKED: USER
DOCKED: REMARK SMILES O=C(NCC(=O)N1CCCC[C@H]1c1csc(-c2ccccc2)n1)c1ccc2cc(F)ccc2n1
DOCKED: REMARK SMILES IDX 4 1 3 2 2 3 1 4 24 6 25 7 34 8 26 9 33 10 27 11 32 12 28 13
DOCKED: REMARK SMILES IDX 31 14 29 15 30 16 5 17 6 18 7 19 8 20 12 21 9 22 11 23 10 24
DOCKED: REMARK SMILES IDX 13 25 14 26 23 27 15 28 16 29 17 30 18 31 22 32 19 33 21 34
DOCKED: REMARK SMILES IDX 20 35
DOCKED: REMARK H PARENT 3 5
DOCKED: USER                              x       y       z     vdW  Elec       q    Type
DOCKED: USER                           _______ _______ _______ _____ _____    ______ ____
DOCKED: ROOT
DOCKED: ATOM      1  C   UNL     1     138.668  77.313 221.975 -0.18 -0.04    +0.216 C  
DOCKED: ENDROOT
DOCKED: BRANCH   1   2
DOCKED: ATOM      2  N   UNL     1     139.799  76.536 221.571 -0.13 +0.09    -0.342 N  
DOCKED: ATOM      3  C   UNL     1     139.764  75.129 221.808 -0.20 -0.05    +0.270 C  
DOCKED: ATOM      4  O   UNL     1     138.745  74.642 222.357 -0.31 +0.08    -0.268 OA 
DOCKED: ATOM      5  H   UNL     1     140.637  76.964 221.114 +0.06 -0.06    +0.164 HD 
DOCKED: BRANCH   3   6
DOCKED: ATOM      6  C   UNL     1     140.898  74.302 221.409 -0.25 -0.02    +0.128 A  
DOCKED: ATOM      7  C   UNL     1     140.705  72.942 221.308 -0.25 -0.00    +0.035 A  
DOCKED: ATOM      8  N   UNL     1     142.115  74.812 221.138 -0.16 +0.08    -0.243 NA 
DOCKED: ATOM      9  C   UNL     1     141.723  72.083 220.937 -0.22 -0.00    +0.013 A  
DOCKED: ATOM     10  C   UNL     1     143.143  74.024 220.773 -0.25 -0.02    +0.071 A  
DOCKED: ATOM     11  C   UNL     1     142.960  72.649 220.668 -0.28 -0.00    +0.003 A  
DOCKED: ATOM     12  C   UNL     1     144.387  74.537 220.495 -0.44 -0.01    +0.032 A  
DOCKED: ATOM     13  C   UNL     1     144.030  71.829 220.288 -0.29 -0.01    +0.049 A  
DOCKED: ATOM     14  C   UNL     1     145.469  73.779 220.117 -0.51 -0.01    +0.041 A  
DOCKED: ATOM     15  C   UNL     1     145.267  72.407 220.018 -0.36 +0.01    +0.123 A  
DOCKED: ATOM     16  F   UNL     1     146.287  71.588 219.651 -0.08 -0.19    -0.207 F  
DOCKED: ENDBRANCH   3   6
DOCKED: ENDBRANCH   1   2
DOCKED: BRANCH   1  17
DOCKED: ATOM     17  C   UNL     1     139.053  78.532 222.737 -0.21 -0.04    +0.242 C  
DOCKED: ATOM     18  O   UNL     1     138.342  79.076 223.600 -0.17 +0.03    -0.273 OA 
DOCKED: BRANCH  17  19
DOCKED: ATOM     19  N   UNL     1     140.327  79.106 222.448 -0.13 +0.09    -0.333 N  
DOCKED: ATOM     20  C   UNL     1     141.496  78.574 223.116 -0.48 -0.04    +0.120 C  
DOCKED: ATOM     21  C   UNL     1     140.496  80.203 221.512 -0.22 -0.04    +0.135 C  
DOCKED: ATOM     22  C   UNL     1     142.693  79.442 223.117 -0.55 -0.01    +0.022 C  
DOCKED: ATOM     23  C   UNL     1     141.249  81.315 222.216 -0.43 -0.01    +0.032 C  
DOCKED: ATOM     24  C   UNL     1     142.513  80.889 222.861 -0.58 -0.00    +0.004 C  
DOCKED: BRANCH  21  25
DOCKED: ATOM     25  C   UNL     1     141.230  79.776 220.277 -0.24 -0.03    +0.075 A  
DOCKED: ATOM     26  C   UNL     1     141.868  80.679 219.451 -0.26 -0.05    +0.093 A  
DOCKED: ATOM     27  N   UNL     1     141.331  78.528 219.884 -0.13 +0.12    -0.239 NA 
DOCKED: ATOM     28  S   UNL     1     142.583  79.559 218.124 -0.35 +0.11    -0.122 S  
DOCKED: ATOM     29  C   UNL     1     141.878  78.080 218.948 -0.22 -0.07    +0.123 A  
DOCKED: BRANCH  29  30
DOCKED: ATOM     30  C   UNL     1     142.112  76.740 218.334 -0.21 -0.01    +0.010 A  
DOCKED: ATOM     31  C   UNL     1     141.116  75.809 218.305 -0.08 -0.00    +0.011 A  
DOCKED: ATOM     32  C   UNL     1     143.377  76.556 217.824 -0.27 -0.01    +0.011 A  
DOCKED: ATOM     33  C   UNL     1     141.413  74.586 217.715 -0.05 -0.00    +0.001 A  
DOCKED: ATOM     34  C   UNL     1     143.629  75.317 217.242 -0.20 -0.00    +0.001 A  
DOCKED: ATOM     35  C   UNL     1     142.670  74.325 217.177 -0.08 -0.00    +0.000 A  
DOCKED: ENDBRANCH  29  30
DOCKED: ENDBRANCH  21  25
DOCKED: ENDBRANCH  17  19
DOCKED: ENDBRANCH   1  17
DOCKED: TORSDOF 6
DOCKED: TER
DOCKED: ENDMDL
________________________________________________________________________________


    CLUSTERING HISTOGRAM
    ____________________


________________________________________________________________________________
     |           |     |           |     |
Clus | Lowest    | Run | Mean      | Num | Histogram
-ter | Binding   |     | Binding   | in  |
Rank | Energy    |     | Energy    | Clus|    5    10   15   20   25   30   35
_____|___________|_____|___________|_____|____:____|____:____|____:____|____:___
   1 |     -9.56 |  14 |     -9.46 |   2 |##
   2 |     -9.27 |   8 |     -9.27 |   1 |#
   3 |     -9.05 |  18 |     -9.05 |   1 |#
   4 |     -8.63 |   9 |     -8.63 |   1 |#
   5 |     -7.12 |  17 |     -7.08 |  15 |###############
_____|___________|_____|___________|_____|______________________________________


    RMSD TABLE
    __________


_______________________________________________________________________
     |      |      |           |         |                 |
Rank | Sub- | Run  | Binding   | Cluster | Reference       | Grep
     | Rank |      | Energy    | RMSD    | RMSD            | Pattern
_____|______|______|___________|_________|_________________|___________
   1      1     14       -9.56      0.00    270.89           RANKING
   1      2     16       -9.35      1.24    270.77           RANKING
   2      1      8       -9.27      0.00    271.38           RANKING
   3      1     18       -9.05      0.00    270.59           RANKING
   4      1      9       -8.63      0.00    270.74           RANKING
   5      1     17       -7.12      0.00    270.30           RANKING
   5      2      7       -7.11      0.15    270.24           RANKING
   5      3      2       -7.11      0.14    270.23           RANKING
   5      4     15       -7.10      0.16    270.23           RANKING
   5      5      4       -7.10      0.14    270.24           RANKING
   5      6     12       -7.10      0.16    270.24           RANKING
   5      7      5       -7.10      0.16    270.22           RANKING
   5      8     11       -7.10      0.15    270.23           RANKING
   5      9     13       -7.09      0.16    270.22           RANKING
   5     10     19       -7.09      0.19    270.22           RANKING
   5     11     10       -7.09      0.21    270.23           RANKING
   5     12      6       -7.08      0.17    270.21           RANKING
   5     13      3       -7.08      0.11    270.28           RANKING
   5     14     20       -7.01      0.20    270.18           RANKING
   5     15      1       -6.91      0.39    270.20           RANKING

Run time 0.726 sec
Idle time 0.000 sec
