AutoDock-GPU version: v1.6

**********************************************************
**    AutoDock-GPU AUTODOCKTOOLS-COMPATIBLE DLG FILE    **
**********************************************************


    DOCKING PARAMETERS
    ________________________


Ligand file:                               /home/a/REINVENT4/ReinventStudies/pleaseWork/justmol2mol_4_Compounds_ontop/graph-dock-hn62wh/graph-DockGPU/node-autodockgpu/inputs/JHEZROVSOJKRMX-IWIRVXRANA-N.pdbqt
Grid fld file:                             /home/a/REINVENT4/ReinventStudies/mols/Rad51/maps/rad51_receptor.maps.fld

Random seed:                               42
Number of runs:                            20
Number of energy evaluations:              1132076
Number of generations:                     42000
Size of population:                        150
Rate of crossover:                         80.000000%
Tournament selection probability limit:    60.000000%
Rate of mutation:                          2.000000%
Maximal allowed delta movement:            +/- 6.000000A
Maximal allowed delta angle:               +/- 90.000000

Rate of local search:                      100.000000%
Maximal number of local search iterations: 300
Rho lower bound:                           0.010000
Spread of local search delta movement:     2.000000A
Spread of local search delta angle:        74.999999
Limit of consecutive successes/failures:   4

Handle symmetry during clustering:         YES
RMSD tolerance:                            2.000000A

Program call in command line was:          /home/a/REINVENT4/ReinventStudies/adgpu-v1.6_linux_x64_cuda12_128wi --filelist batch.txt --heuristics 1 --nrun 20 --psize 150 --lsit 300 --seed 42 --heurmax 12000000 


    GRID PARAMETERS
    ________________________


Receptor name:                             rad51_receptor
Number of grid points (x, y, z):           53, 53, 53
Grid center (x, y, z):                     139.950000, 75.640000, 221.970000A
Grid size (x, y, z):                       19.500000, 19.500000, 19.500000A
Grid spacing:                              0.375000A


    LIGAND PARAMETERS
    ________________________


Ligand name:                               /home/a/REINVENT4/ReinventStudies/pleaseWork/justmol2mol_4_Compounds_ontop/graph-dock-hn62wh/graph-DockGPU/node-autodockgpu/inputs/JHEZROVSOJKRMX-IWIRVXRANA-N
Number of atoms:                           31
Number of rotatable bonds:                 6
Number of atom types:                      8


    DUMMY DATA (only for ADT-compatibility)
    ________________________


DPF> outlev 1
DPF> ga_run 20
DPF> fld /home/a/REINVENT4/ReinventStudies/mols/Rad51/maps/rad51_receptor.maps.fld
DPF> move /home/a/REINVENT4/ReinventStudies/pleaseWork/justmol2mol_4_Compounds_ontop/graph-dock-hn62wh/graph-DockGPU/node-autodockgpu/inputs/JHEZROVSOJKRMX-IWIRVXRANA-N.pdbqt


    COUNTER STATES
    ________________________


Number of energy evaluations performed:    872592
Number of generations used:                55


    INPUT LIGAND PDBQT FILE:
    ________________________


INPUT-LIGAND-PDBQT: REMARK SMILES CN(CCNC(=O)c1ccc2cc(F)ccc2n1)[C@H]1CCC[C@H]1c1ccc(Cl)cc1
INPUT-LIGAND-PDBQT: REMARK SMILES IDX 3 1 2 2 1 3 19 4 20 5 23 6 21 7 22 8 24 9 25 10 30 11 26 12
INPUT-LIGAND-PDBQT: REMARK SMILES IDX 29 13 27 14 28 15 4 16 5 17 6 18 7 20 8 21 9 22 18 23 10 24
INPUT-LIGAND-PDBQT: REMARK SMILES IDX 17 25 11 26 16 27 12 28 15 29 13 30 14 31
INPUT-LIGAND-PDBQT: REMARK H PARENT 5 19
INPUT-LIGAND-PDBQT: ROOT
INPUT-LIGAND-PDBQT: ATOM      1  C   UNL     1      -0.513   0.280   0.200  1.00  0.00     0.105 C 
INPUT-LIGAND-PDBQT: ENDROOT
INPUT-LIGAND-PDBQT: BRANCH   1   2
INPUT-LIGAND-PDBQT: ATOM      2  N   UNL     1      -1.928   0.064   0.011  1.00  0.00    -0.301 NA
INPUT-LIGAND-PDBQT: ATOM      3  C   UNL     1      -2.271   0.456  -1.323  1.00  0.00     0.105 C 
INPUT-LIGAND-PDBQT: BRANCH   2   4
INPUT-LIGAND-PDBQT: ATOM      4  C   UNL     1      -2.349  -1.302   0.299  1.00  0.00     0.064 C 
INPUT-LIGAND-PDBQT: ATOM      5  C   UNL     1      -1.936  -1.780   1.630  1.00  0.00     0.020 C 
INPUT-LIGAND-PDBQT: ATOM      6  C   UNL     1      -3.806  -1.496   0.210  1.00  0.00     0.036 C 
INPUT-LIGAND-PDBQT: ATOM      7  C   UNL     1      -3.143  -2.081   2.421  1.00  0.00     0.002 C 
INPUT-LIGAND-PDBQT: ATOM      8  C   UNL     1      -4.206  -2.379   1.392  1.00  0.00     0.010 C 
INPUT-LIGAND-PDBQT: BRANCH   6   9
INPUT-LIGAND-PDBQT: ATOM      9  C   UNL     1      -4.637  -0.284   0.137  1.00  0.00    -0.043 A 
INPUT-LIGAND-PDBQT: ATOM     10  C   UNL     1      -5.582  -0.180  -0.890  1.00  0.00     0.005 A 
INPUT-LIGAND-PDBQT: ATOM     11  C   UNL     1      -4.562   0.776   1.010  1.00  0.00     0.005 A 
INPUT-LIGAND-PDBQT: ATOM     12  C   UNL     1      -6.385   0.944  -0.993  1.00  0.00     0.021 A 
INPUT-LIGAND-PDBQT: ATOM     13  C   UNL     1      -5.374   1.902   0.898  1.00  0.00     0.021 A 
INPUT-LIGAND-PDBQT: ATOM     14  C   UNL     1      -6.301   1.997  -0.113  1.00  0.00     0.041 A 
INPUT-LIGAND-PDBQT: ATOM     15  Cl  UNL     1      -7.322   3.404  -0.258  1.00  0.00    -0.084 Cl
INPUT-LIGAND-PDBQT: ENDBRANCH   6   9
INPUT-LIGAND-PDBQT: ENDBRANCH   2   4
INPUT-LIGAND-PDBQT: ENDBRANCH   1   2
INPUT-LIGAND-PDBQT: BRANCH   1  16
INPUT-LIGAND-PDBQT: ATOM     16  C   UNL     1       0.344  -0.648  -0.600  1.00  0.00     0.131 C 
INPUT-LIGAND-PDBQT: BRANCH  16  17
INPUT-LIGAND-PDBQT: ATOM     17  N   UNL     1       1.775  -0.401  -0.385  1.00  0.00    -0.349 N 
INPUT-LIGAND-PDBQT: ATOM     18  C   UNL     1       2.390   0.835  -0.677  1.00  0.00     0.269 C 
INPUT-LIGAND-PDBQT: ATOM     19  H   UNL     1       2.383  -1.162   0.002  1.00  0.00     0.163 HD
INPUT-LIGAND-PDBQT: ATOM     20  O   UNL     1       1.752   1.813  -1.145  1.00  0.00    -0.268 OA
INPUT-LIGAND-PDBQT: BRANCH  18  21
INPUT-LIGAND-PDBQT: ATOM     21  C   UNL     1       3.839   0.990  -0.426  1.00  0.00     0.128 A 
INPUT-LIGAND-PDBQT: ATOM     22  C   UNL     1       4.473   2.184  -0.700  1.00  0.00     0.035 A 
INPUT-LIGAND-PDBQT: ATOM     23  N   UNL     1       4.576  -0.017   0.073  1.00  0.00    -0.243 NA
INPUT-LIGAND-PDBQT: ATOM     24  C   UNL     1       5.824   2.306  -0.457  1.00  0.00     0.013 A 
INPUT-LIGAND-PDBQT: ATOM     25  C   UNL     1       5.900   0.078   0.320  1.00  0.00     0.071 A 
INPUT-LIGAND-PDBQT: ATOM     26  C   UNL     1       6.581   1.268   0.058  1.00  0.00     0.003 A 
INPUT-LIGAND-PDBQT: ATOM     27  C   UNL     1       6.633  -0.973   0.835  1.00  0.00     0.032 A 
INPUT-LIGAND-PDBQT: ATOM     28  C   UNL     1       7.932   1.408   0.295  1.00  0.00     0.049 A 
INPUT-LIGAND-PDBQT: ATOM     29  C   UNL     1       7.996  -0.876   1.090  1.00  0.00     0.041 A 
INPUT-LIGAND-PDBQT: ATOM     30  C   UNL     1       8.624   0.331   0.809  1.00  0.00     0.123 A 
INPUT-LIGAND-PDBQT: ATOM     31  F   UNL     1       9.950   0.476   1.039  1.00  0.00    -0.207 F 
INPUT-LIGAND-PDBQT: ENDBRANCH  18  21
INPUT-LIGAND-PDBQT: ENDBRANCH  16  17
INPUT-LIGAND-PDBQT: ENDBRANCH   1  16
INPUT-LIGAND-PDBQT: TORSDOF 6


    FINAL DOCKED STATE:
    ________________________


Run:   1 / 20
Time taken for this run:   0.039s

DOCKED: MODEL        1
DOCKED: USER    Run = 1
DOCKED: USER
DOCKED: USER    Estimated Free Energy of Binding    =  -8.25 kcal/mol  [=(1)+(2)+(3)-(4)]
DOCKED: USER
DOCKED: USER    (1) Final Intermolecular Energy     = -10.04 kcal/mol
DOCKED: USER        vdW + Hbond + desolv Energy     = -10.00 kcal/mol
DOCKED: USER        Electrostatic Energy            =  -0.03 kcal/mol
DOCKED: USER        Moving Ligand-Fixed Receptor    = -10.04 kcal/mol
DOCKED: USER        Moving Ligand-Moving Receptor   =  +0.00 kcal/mol
DOCKED: USER    (2) Final Total Internal Energy     =  -1.51 kcal/mol
DOCKED: USER    (3) Torsional Free Energy           =  +1.79 kcal/mol
DOCKED: USER    (4) Unbound System's Energy         =  -1.51 kcal/mol
DOCKED: USER
DOCKED: USER
DOCKED: REMARK SMILES CN(CCNC(=O)c1ccc2cc(F)ccc2n1)[C@H]1CCC[C@H]1c1ccc(Cl)cc1
DOCKED: REMARK SMILES IDX 3 1 2 2 1 3 19 4 20 5 23 6 21 7 22 8 24 9 25 10 30 11 26 12
DOCKED: REMARK SMILES IDX 29 13 27 14 28 15 4 16 5 17 6 18 7 20 8 21 9 22 18 23 10 24
DOCKED: REMARK SMILES IDX 17 25 11 26 16 27 12 28 15 29 13 30 14 31
DOCKED: REMARK H PARENT 5 19
DOCKED: USER                              x       y       z     vdW  Elec       q    Type
DOCKED: USER                           _______ _______ _______ _____ _____    ______ ____
DOCKED: ROOT
DOCKED: ATOM      1  C   UNL     1     139.369  76.837 222.129 -0.29 -0.02    +0.105 C  
DOCKED: ENDROOT
DOCKED: BRANCH   1   2
DOCKED: ATOM      2  N   UNL     1     139.470  77.987 221.263 -0.06 +0.08    -0.301 NA 
DOCKED: ATOM      3  C   UNL     1     138.169  78.275 220.739 -0.07 -0.02    +0.105 C  
DOCKED: BRANCH   2   4
DOCKED: ATOM      4  C   UNL     1     140.061  79.151 221.913 -0.26 -0.02    +0.064 C  
DOCKED: ATOM      5  C   UNL     1     140.467  78.908 223.308 -0.44 -0.00    +0.020 C  
DOCKED: ATOM      6  C   UNL     1     141.244  79.675 221.210 -0.33 -0.01    +0.036 C  
DOCKED: ATOM      7  C   UNL     1     141.926  79.092 223.416 -0.62 -0.00    +0.002 C  
DOCKED: ATOM      8  C   UNL     1     142.275  80.027 222.283 -0.55 -0.00    +0.010 C  
DOCKED: BRANCH   6   9
DOCKED: ATOM      9  C   UNL     1     141.828  78.825 220.161 -0.27 +0.03    -0.043 A  
DOCKED: ATOM     10  C   UNL     1     142.200  77.517 220.488 -0.27 -0.00    +0.005 A  
DOCKED: ATOM     11  C   UNL     1     142.041  79.215 218.859 -0.29 -0.00    +0.005 A  
DOCKED: ATOM     12  C   UNL     1     142.752  76.683 219.529 -0.36 -0.01    +0.021 A  
DOCKED: ATOM     13  C   UNL     1     142.597  78.370 217.902 -0.31 -0.02    +0.021 A  
DOCKED: ATOM     14  C   UNL     1     142.960  77.085 218.230 -0.31 -0.03    +0.041 A  
DOCKED: ATOM     15  Cl  UNL     1     143.654  76.021 217.035 -0.28 +0.05    -0.084 Cl 
DOCKED: ENDBRANCH   6   9
DOCKED: ENDBRANCH   2   4
DOCKED: ENDBRANCH   1   2
DOCKED: BRANCH   1  16
DOCKED: ATOM     16  C   UNL     1     139.528  75.535 221.412 -0.23 -0.03    +0.131 C  
DOCKED: BRANCH  16  17
DOCKED: ATOM     17  N   UNL     1     139.542  74.394 222.336 -0.09 +0.05    -0.349 N  
DOCKED: ATOM     18  C   UNL     1     139.957  73.102 221.950 -0.19 -0.04    +0.269 C  
DOCKED: ATOM     19  H   UNL     1     139.235  74.524 223.330 -0.52 -0.06    +0.163 HD 
DOCKED: ATOM     20  O   UNL     1     140.343  72.838 220.782 -0.10 +0.04    -0.268 OA 
DOCKED: BRANCH  18  21
DOCKED: ATOM     21  C   UNL     1     139.937  72.014 222.952 -0.29 -0.02    +0.128 A  
DOCKED: ATOM     22  C   UNL     1     139.507  70.751 222.605 -0.23 -0.01    +0.035 A  
DOCKED: ATOM     23  N   UNL     1     140.335  72.221 224.219 -0.14 +0.04    -0.243 NA 
DOCKED: ATOM     24  C   UNL     1     139.498  69.753 223.555 -0.25 -0.00    +0.013 A  
DOCKED: ATOM     25  C   UNL     1     140.336  71.260 225.167 -0.48 -0.01    +0.071 A  
DOCKED: ATOM     26  C   UNL     1     139.909  69.967 224.859 -0.40 -0.00    +0.003 A  
DOCKED: ATOM     27  C   UNL     1     140.752  71.500 226.462 -0.66 -0.01    +0.032 A  
DOCKED: ATOM     28  C   UNL     1     139.894  68.956 225.796 -0.46 -0.01    +0.049 A  
DOCKED: ATOM     29  C   UNL     1     140.754  70.511 227.439 -0.61 -0.01    +0.041 A  
DOCKED: ATOM     30  C   UNL     1     140.317  69.242 227.078 -0.49 -0.02    +0.123 A  
DOCKED: ATOM     31  F   UNL     1     140.300  68.245 227.993 -0.19 +0.05    -0.207 F  
DOCKED: ENDBRANCH  18  21
DOCKED: ENDBRANCH  16  17
DOCKED: ENDBRANCH   1  16
DOCKED: TORSDOF 6
DOCKED: TER
DOCKED: ENDMDL
________________________________________________________________________________


    FINAL DOCKED STATE:
    ________________________


Run:   2 / 20
Time taken for this run:   0.039s

DOCKED: MODEL        2
DOCKED: USER    Run = 2
DOCKED: USER
DOCKED: USER    Estimated Free Energy of Binding    =  -6.76 kcal/mol  [=(1)+(2)+(3)-(4)]
DOCKED: USER
DOCKED: USER    (1) Final Intermolecular Energy     =  -8.55 kcal/mol
DOCKED: USER        vdW + Hbond + desolv Energy     =  -8.34 kcal/mol
DOCKED: USER        Electrostatic Energy            =  -0.21 kcal/mol
DOCKED: USER        Moving Ligand-Fixed Receptor    =  -8.55 kcal/mol
DOCKED: USER        Moving Ligand-Moving Receptor   =  +0.00 kcal/mol
DOCKED: USER    (2) Final Total Internal Energy     =  -3.19 kcal/mol
DOCKED: USER    (3) Torsional Free Energy           =  +1.79 kcal/mol
DOCKED: USER    (4) Unbound System's Energy         =  -3.19 kcal/mol
DOCKED: USER
DOCKED: USER
DOCKED: REMARK SMILES CN(CCNC(=O)c1ccc2cc(F)ccc2n1)[C@H]1CCC[C@H]1c1ccc(Cl)cc1
DOCKED: REMARK SMILES IDX 3 1 2 2 1 3 19 4 20 5 23 6 21 7 22 8 24 9 25 10 30 11 26 12
DOCKED: REMARK SMILES IDX 29 13 27 14 28 15 4 16 5 17 6 18 7 20 8 21 9 22 18 23 10 24
DOCKED: REMARK SMILES IDX 17 25 11 26 16 27 12 28 15 29 13 30 14 31
DOCKED: REMARK H PARENT 5 19
DOCKED: USER                              x       y       z     vdW  Elec       q    Type
DOCKED: USER                           _______ _______ _______ _____ _____    ______ ____
DOCKED: ROOT
DOCKED: ATOM      1  C   UNL     1     138.713  78.224 222.889 -0.22 -0.02    +0.105 C  
DOCKED: ENDROOT
DOCKED: BRANCH   1   2
DOCKED: ATOM      2  N   UNL     1     139.492  78.953 221.916 -0.08 +0.07    -0.301 NA 
DOCKED: ATOM      3  C   UNL     1     138.609  79.420 220.889 -0.08 -0.02    +0.105 C  
DOCKED: BRANCH   2   4
DOCKED: ATOM      4  C   UNL     1     140.272  80.040 222.494 -0.33 -0.01    +0.064 C  
DOCKED: ATOM      5  C   UNL     1     140.787  79.746 223.843 -0.49 -0.00    +0.020 C  
DOCKED: ATOM      6  C   UNL     1     141.430  80.431 221.672 -0.40 -0.01    +0.036 C  
DOCKED: ATOM      7  C   UNL     1     142.261  79.765 223.802 -0.62 -0.00    +0.002 C  
DOCKED: ATOM      8  C   UNL     1     142.596  80.660 222.634 -0.57 -0.00    +0.010 C  
DOCKED: BRANCH   6   9
DOCKED: ATOM      9  C   UNL     1     141.805  79.526 220.575 -0.30 +0.02    -0.043 A  
DOCKED: ATOM     10  C   UNL     1     141.904  80.047 219.280 -0.30 -0.00    +0.005 A  
DOCKED: ATOM     11  C   UNL     1     142.071  78.184 220.718 -0.23 -0.00    +0.005 A  
DOCKED: ATOM     12  C   UNL     1     142.256  79.228 218.220 -0.30 -0.02    +0.021 A  
DOCKED: ATOM     13  C   UNL     1     142.424  77.369 219.645 -0.30 -0.01    +0.021 A  
DOCKED: ATOM     14  C   UNL     1     142.521  77.888 218.376 -0.31 -0.03    +0.041 A  
DOCKED: ATOM     15  Cl  UNL     1     142.965  76.872 217.028 -0.31 +0.06    -0.084 Cl 
DOCKED: ENDBRANCH   6   9
DOCKED: ENDBRANCH   2   4
DOCKED: ENDBRANCH   1   2
DOCKED: BRANCH   1  16
DOCKED: ATOM     16  C   UNL     1     138.565  76.772 222.568 -0.24 -0.03    +0.131 C  
DOCKED: BRANCH  16  17
DOCKED: ATOM     17  N   UNL     1     139.603  76.303 221.641 -0.13 +0.08    -0.349 N  
DOCKED: ATOM     18  C   UNL     1     140.034  74.960 221.592 -0.21 -0.05    +0.269 C  
DOCKED: ATOM     19  H   UNL     1     140.055  76.978 220.979 +0.06 -0.05    +0.163 HD 
DOCKED: ATOM     20  O   UNL     1     139.558  74.070 222.343 -0.80 +0.04    -0.268 OA 
DOCKED: BRANCH  18  21
DOCKED: ATOM     21  C   UNL     1     141.085  74.581 220.624 -0.20 -0.03    +0.128 A  
DOCKED: ATOM     22  C   UNL     1     140.780  74.411 219.290 -0.08 -0.01    +0.035 A  
DOCKED: ATOM     23  N   UNL     1     142.359  74.393 221.010 -0.14 +0.07    -0.243 NA 
DOCKED: ATOM     24  C   UNL     1     141.776  74.059 218.405 -0.07 -0.00    +0.013 A  
DOCKED: ATOM     25  C   UNL     1     143.353  74.049 220.163 -0.31 -0.02    +0.071 A  
DOCKED: ATOM     26  C   UNL     1     143.088  73.868 218.804 -0.17 -0.00    +0.003 A  
DOCKED: ATOM     27  C   UNL     1     144.654  73.864 220.586 -0.49 -0.01    +0.032 A  
DOCKED: ATOM     28  C   UNL     1     144.072  73.516 217.905 -0.14 -0.01    +0.049 A  
DOCKED: ATOM     29  C   UNL     1     145.678  73.510 219.715 -0.41 +0.00    +0.041 A  
DOCKED: ATOM     30  C   UNL     1     145.358  73.341 218.373 -0.18 +0.02    +0.123 A  
DOCKED: ATOM     31  F   UNL     1     146.319  72.995 217.485 +0.03 -0.23    -0.207 F  
DOCKED: ENDBRANCH  18  21
DOCKED: ENDBRANCH  16  17
DOCKED: ENDBRANCH   1  16
DOCKED: TORSDOF 6
DOCKED: TER
DOCKED: ENDMDL
________________________________________________________________________________


    FINAL DOCKED STATE:
    ________________________


Run:   3 / 20
Time taken for this run:   0.039s

DOCKED: MODEL        3
DOCKED: USER    Run = 3
DOCKED: USER
DOCKED: USER    Estimated Free Energy of Binding    =  -6.41 kcal/mol  [=(1)+(2)+(3)-(4)]
DOCKED: USER
DOCKED: USER    (1) Final Intermolecular Energy     =  -8.20 kcal/mol
DOCKED: USER        vdW + Hbond + desolv Energy     =  -8.17 kcal/mol
DOCKED: USER        Electrostatic Energy            =  -0.03 kcal/mol
DOCKED: USER        Moving Ligand-Fixed Receptor    =  -8.20 kcal/mol
DOCKED: USER        Moving Ligand-Moving Receptor   =  +0.00 kcal/mol
DOCKED: USER    (2) Final Total Internal Energy     =  -3.23 kcal/mol
DOCKED: USER    (3) Torsional Free Energy           =  +1.79 kcal/mol
DOCKED: USER    (4) Unbound System's Energy         =  -3.23 kcal/mol
DOCKED: USER
DOCKED: USER
DOCKED: REMARK SMILES CN(CCNC(=O)c1ccc2cc(F)ccc2n1)[C@H]1CCC[C@H]1c1ccc(Cl)cc1
DOCKED: REMARK SMILES IDX 3 1 2 2 1 3 19 4 20 5 23 6 21 7 22 8 24 9 25 10 30 11 26 12
DOCKED: REMARK SMILES IDX 29 13 27 14 28 15 4 16 5 17 6 18 7 20 8 21 9 22 18 23 10 24
DOCKED: REMARK SMILES IDX 17 25 11 26 16 27 12 28 15 29 13 30 14 31
DOCKED: REMARK H PARENT 5 19
DOCKED: USER                              x       y       z     vdW  Elec       q    Type
DOCKED: USER                           _______ _______ _______ _____ _____    ______ ____
DOCKED: ROOT
DOCKED: ATOM      1  C   UNL     1     138.265  80.329 222.724 -0.22 -0.02    +0.105 C  
DOCKED: ENDROOT
DOCKED: BRANCH   1   2
DOCKED: ATOM      2  N   UNL     1     139.480  80.797 222.099 -0.09 +0.05    -0.301 NA 
DOCKED: ATOM      3  C   UNL     1     139.269  82.142 221.653 -0.17 -0.02    +0.105 C  
DOCKED: BRANCH   2   4
DOCKED: ATOM      4  C   UNL     1     140.652  80.690 222.959 -0.41 -0.01    +0.064 C  
DOCKED: ATOM      5  C   UNL     1     140.622  79.522 223.856 -0.48 -0.00    +0.020 C  
DOCKED: ATOM      6  C   UNL     1     141.920  80.621 222.212 -0.50 -0.01    +0.036 C  
DOCKED: ATOM      7  C   UNL     1     141.760  78.643 223.528 -0.60 -0.00    +0.002 C  
DOCKED: ATOM      8  C   UNL     1     142.780  79.562 222.901 -0.57 -0.00    +0.010 C  
DOCKED: BRANCH   6   9
DOCKED: ATOM      9  C   UNL     1     141.829  80.383 220.763 -0.34 +0.02    -0.043 A  
DOCKED: ATOM     10  C   UNL     1     141.814  81.486 219.902 -0.23 -0.00    +0.005 A  
DOCKED: ATOM     11  C   UNL     1     141.756  79.143 220.172 -0.29 -0.00    +0.005 A  
DOCKED: ATOM     12  C   UNL     1     141.731  81.305 218.532 -0.26 -0.01    +0.021 A  
DOCKED: ATOM     13  C   UNL     1     141.673  78.971 218.792 -0.24 -0.01    +0.021 A  
DOCKED: ATOM     14  C   UNL     1     141.659  80.060 217.952 -0.22 -0.03    +0.041 A  
DOCKED: ATOM     15  Cl  UNL     1     141.556  79.851 216.224 -0.17 +0.07    -0.084 Cl 
DOCKED: ENDBRANCH   6   9
DOCKED: ENDBRANCH   2   4
DOCKED: ENDBRANCH   1   2
DOCKED: BRANCH   1  16
DOCKED: ATOM     16  C   UNL     1     137.672  79.132 222.053 -0.13 -0.02    +0.131 C  
DOCKED: BRANCH  16  17
DOCKED: ATOM     17  N   UNL     1     138.694  78.149 221.675 -0.05 +0.07    -0.349 N  
DOCKED: ATOM     18  C   UNL     1     138.709  76.830 222.178 -0.19 -0.05    +0.269 C  
DOCKED: ATOM     19  H   UNL     1     139.452  78.417 221.003 +0.06 -0.04    +0.163 HD 
DOCKED: ATOM     20  O   UNL     1     137.846  76.407 222.989 -0.25 +0.06    -0.268 OA 
DOCKED: BRANCH  18  21
DOCKED: ATOM     21  C   UNL     1     139.779  75.909 221.738 -0.27 -0.03    +0.128 A  
DOCKED: ATOM     22  C   UNL     1     139.665  74.551 221.951 -0.27 -0.01    +0.035 A  
DOCKED: ATOM     23  N   UNL     1     140.885  76.362 221.123 -0.18 +0.09    -0.243 NA 
DOCKED: ATOM     24  C   UNL     1     140.675  73.712 221.531 -0.30 -0.00    +0.013 A  
DOCKED: ATOM     25  C   UNL     1     141.887  75.560 220.702 -0.25 -0.03    +0.071 A  
DOCKED: ATOM     26  C   UNL     1     141.812  74.180 220.897 -0.28 -0.00    +0.003 A  
DOCKED: ATOM     27  C   UNL     1     143.012  76.052 220.071 -0.28 -0.02    +0.032 A  
DOCKED: ATOM     28  C   UNL     1     142.812  73.325 220.484 -0.27 -0.01    +0.049 A  
DOCKED: ATOM     29  C   UNL     1     144.044  75.228 219.637 -0.33 -0.02    +0.041 A  
DOCKED: ATOM     30  C   UNL     1     143.918  73.862 219.858 -0.30 -0.03    +0.123 A  
DOCKED: ATOM     31  F   UNL     1     144.896  73.016 219.455 -0.07 -0.00    -0.207 F  
DOCKED: ENDBRANCH  18  21
DOCKED: ENDBRANCH  16  17
DOCKED: ENDBRANCH   1  16
DOCKED: TORSDOF 6
DOCKED: TER
DOCKED: ENDMDL
________________________________________________________________________________


    FINAL DOCKED STATE:
    ________________________


Run:   4 / 20
Time taken for this run:   0.039s

DOCKED: MODEL        4
DOCKED: USER    Run = 4
DOCKED: USER
DOCKED: USER    Estimated Free Energy of Binding    =  -6.50 kcal/mol  [=(1)+(2)+(3)-(4)]
DOCKED: USER
DOCKED: USER    (1) Final Intermolecular Energy     =  -8.29 kcal/mol
DOCKED: USER        vdW + Hbond + desolv Energy     =  -8.26 kcal/mol
DOCKED: USER        Electrostatic Energy            =  -0.03 kcal/mol
DOCKED: USER        Moving Ligand-Fixed Receptor    =  -8.29 kcal/mol
DOCKED: USER        Moving Ligand-Moving Receptor   =  +0.00 kcal/mol
DOCKED: USER    (2) Final Total Internal Energy     =  -3.86 kcal/mol
DOCKED: USER    (3) Torsional Free Energy           =  +1.79 kcal/mol
DOCKED: USER    (4) Unbound System's Energy         =  -3.86 kcal/mol
DOCKED: USER
DOCKED: USER
DOCKED: REMARK SMILES CN(CCNC(=O)c1ccc2cc(F)ccc2n1)[C@H]1CCC[C@H]1c1ccc(Cl)cc1
DOCKED: REMARK SMILES IDX 3 1 2 2 1 3 19 4 20 5 23 6 21 7 22 8 24 9 25 10 30 11 26 12
DOCKED: REMARK SMILES IDX 29 13 27 14 28 15 4 16 5 17 6 18 7 20 8 21 9 22 18 23 10 24
DOCKED: REMARK SMILES IDX 17 25 11 26 16 27 12 28 15 29 13 30 14 31
DOCKED: REMARK H PARENT 5 19
DOCKED: USER                              x       y       z     vdW  Elec       q    Type
DOCKED: USER                           _______ _______ _______ _____ _____    ______ ____
DOCKED: ROOT
DOCKED: ATOM      1  C   UNL     1     141.852  80.819 221.131 -0.32 -0.04    +0.105 C  
DOCKED: ENDROOT
DOCKED: BRANCH   1   2
DOCKED: ATOM      2  N   UNL     1     141.988  79.883 222.222 -0.26 +0.12    -0.301 NA 
DOCKED: ATOM      3  C   UNL     1     143.326  79.965 222.724 -0.40 -0.04    +0.105 C  
DOCKED: BRANCH   2   4
DOCKED: ATOM      4  C   UNL     1     141.000  80.075 223.277 -0.48 -0.01    +0.064 C  
DOCKED: ATOM      5  C   UNL     1     140.119  81.235 223.059 -0.34 -0.00    +0.020 C  
DOCKED: ATOM      6  C   UNL     1     140.125  78.908 223.479 -0.35 -0.01    +0.036 C  
DOCKED: ATOM      7  C   UNL     1     138.730  80.758 222.933 -0.31 -0.00    +0.002 C  
DOCKED: ATOM      8  C   UNL     1     138.710  79.448 223.681 -0.30 -0.00    +0.010 C  
DOCKED: BRANCH   6   9
DOCKED: ATOM      9  C   UNL     1     140.161  77.861 222.445 -0.36 +0.01    -0.043 A  
DOCKED: ATOM     10  C   UNL     1     141.002  76.759 222.635 -0.35 -0.00    +0.005 A  
DOCKED: ATOM     11  C   UNL     1     139.421  77.875 221.285 -0.19 -0.00    +0.005 A  
DOCKED: ATOM     12  C   UNL     1     141.063  75.752 221.686 -0.35 -0.01    +0.021 A  
DOCKED: ATOM     13  C   UNL     1     139.490  76.856 220.337 -0.11 -0.01    +0.021 A  
DOCKED: ATOM     14  C   UNL     1     140.319  75.776 220.531 -0.18 -0.01    +0.041 A  
DOCKED: ATOM     15  Cl  UNL     1     140.408  74.497 219.348 -0.09 +0.02    -0.084 Cl 
DOCKED: ENDBRANCH   6   9
DOCKED: ENDBRANCH   2   4
DOCKED: ENDBRANCH   1   2
DOCKED: BRANCH   1  16
DOCKED: ATOM     16  C   UNL     1     141.559  80.168 219.818 -0.24 -0.06    +0.131 C  
DOCKED: BRANCH  16  17
DOCKED: ATOM     17  N   UNL     1     142.175  78.840 219.711 -0.07 +0.25    -0.349 N  
DOCKED: ATOM     18  C   UNL     1     142.251  78.127 218.496 -0.19 -0.18    +0.269 C  
DOCKED: ATOM     19  H   UNL     1     142.584  78.385 220.562 -0.34 -0.15    +0.163 HD 
DOCKED: ATOM     20  O   UNL     1     141.791  78.582 217.417 -0.13 +0.19    -0.268 OA 
DOCKED: BRANCH  18  21
DOCKED: ATOM     21  C   UNL     1     142.892  76.795 218.486 -0.27 -0.08    +0.128 A  
DOCKED: ATOM     22  C   UNL     1     142.980  76.069 217.317 -0.20 -0.02    +0.035 A  
DOCKED: ATOM     23  N   UNL     1     143.405  76.255 219.605 -0.27 +0.16    -0.243 NA 
DOCKED: ATOM     24  C   UNL     1     143.583  74.830 217.331 -0.16 -0.01    +0.013 A  
DOCKED: ATOM     25  C   UNL     1     144.000  75.044 219.645 -0.33 -0.04    +0.071 A  
DOCKED: ATOM     26  C   UNL     1     144.112  74.276 218.485 -0.20 -0.00    +0.003 A  
DOCKED: ATOM     27  C   UNL     1     144.521  74.514 220.809 -0.28 -0.01    +0.032 A  
DOCKED: ATOM     28  C   UNL     1     144.712  73.035 218.480 -0.21 +0.00    +0.049 A  
DOCKED: ATOM     29  C   UNL     1     145.134  73.268 220.851 -0.55 -0.01    +0.041 A  
DOCKED: ATOM     30  C   UNL     1     145.216  72.545 219.667 -0.33 +0.02    +0.123 A  
DOCKED: ATOM     31  F   UNL     1     145.804  71.326 219.655 -0.08 -0.11    -0.207 F  
DOCKED: ENDBRANCH  18  21
DOCKED: ENDBRANCH  16  17
DOCKED: ENDBRANCH   1  16
DOCKED: TORSDOF 6
DOCKED: TER
DOCKED: ENDMDL
________________________________________________________________________________


    FINAL DOCKED STATE:
    ________________________


Run:   5 / 20
Time taken for this run:   0.039s

DOCKED: MODEL        5
DOCKED: USER    Run = 5
DOCKED: USER
DOCKED: USER    Estimated Free Energy of Binding    =  -8.62 kcal/mol  [=(1)+(2)+(3)-(4)]
DOCKED: USER
DOCKED: USER    (1) Final Intermolecular Energy     = -10.41 kcal/mol
DOCKED: USER        vdW + Hbond + desolv Energy     = -10.34 kcal/mol
DOCKED: USER        Electrostatic Energy            =  -0.07 kcal/mol
DOCKED: USER        Moving Ligand-Fixed Receptor    = -10.41 kcal/mol
DOCKED: USER        Moving Ligand-Moving Receptor   =  +0.00 kcal/mol
DOCKED: USER    (2) Final Total Internal Energy     =  -1.30 kcal/mol
DOCKED: USER    (3) Torsional Free Energy           =  +1.79 kcal/mol
DOCKED: USER    (4) Unbound System's Energy         =  -1.30 kcal/mol
DOCKED: USER
DOCKED: USER
DOCKED: REMARK SMILES CN(CCNC(=O)c1ccc2cc(F)ccc2n1)[C@H]1CCC[C@H]1c1ccc(Cl)cc1
DOCKED: REMARK SMILES IDX 3 1 2 2 1 3 19 4 20 5 23 6 21 7 22 8 24 9 25 10 30 11 26 12
DOCKED: REMARK SMILES IDX 29 13 27 14 28 15 4 16 5 17 6 18 7 20 8 21 9 22 18 23 10 24
DOCKED: REMARK SMILES IDX 17 25 11 26 16 27 12 28 15 29 13 30 14 31
DOCKED: REMARK H PARENT 5 19
DOCKED: USER                              x       y       z     vdW  Elec       q    Type
DOCKED: USER                           _______ _______ _______ _____ _____    ______ ____
DOCKED: ROOT
DOCKED: ATOM      1  C   UNL     1     140.133  76.250 221.955 -0.33 -0.02    +0.105 C  
DOCKED: ENDROOT
DOCKED: BRANCH   1   2
DOCKED: ATOM      2  N   UNL     1     139.724  77.407 221.194 -0.07 +0.08    -0.301 NA 
DOCKED: ATOM      3  C   UNL     1     138.303  77.354 221.018 -0.10 -0.02    +0.105 C  
DOCKED: BRANCH   2   4
DOCKED: ATOM      4  C   UNL     1     140.149  78.670 221.787 -0.26 -0.02    +0.064 C  
DOCKED: ATOM      5  C   UNL     1     140.742  78.523 223.127 -0.45 -0.01    +0.020 C  
DOCKED: ATOM      6  C   UNL     1     141.127  79.402 220.965 -0.30 -0.01    +0.036 C  
DOCKED: ATOM      7  C   UNL     1     142.142  78.984 223.079 -0.56 -0.00    +0.002 C  
DOCKED: ATOM      8  C   UNL     1     142.181  79.955 221.924 -0.49 -0.00    +0.010 C  
DOCKED: BRANCH   6   9
DOCKED: ATOM      9  C   UNL     1     141.745  78.666 219.851 -0.27 +0.03    -0.043 A  
DOCKED: ATOM     10  C   UNL     1     142.407  77.464 220.126 -0.24 -0.00    +0.005 A  
DOCKED: ATOM     11  C   UNL     1     141.726  79.068 218.536 -0.25 -0.00    +0.005 A  
DOCKED: ATOM     12  C   UNL     1     143.001  76.741 219.104 -0.36 -0.01    +0.021 A  
DOCKED: ATOM     13  C   UNL     1     142.326  78.334 217.516 -0.26 -0.02    +0.021 A  
DOCKED: ATOM     14  C   UNL     1     142.974  77.153 217.793 -0.29 -0.03    +0.041 A  
DOCKED: ATOM     15  Cl  UNL     1     143.726  76.228 216.520 -0.27 +0.05    -0.084 Cl 
DOCKED: ENDBRANCH   6   9
DOCKED: ENDBRANCH   2   4
DOCKED: ENDBRANCH   1   2
DOCKED: BRANCH   1  16
DOCKED: ATOM     16  C   UNL     1     139.703  74.954 221.346 -0.23 -0.03    +0.131 C  
DOCKED: BRANCH  16  17
DOCKED: ATOM     17  N   UNL     1     139.580  73.887 222.347 -0.10 +0.05    -0.349 N  
DOCKED: ATOM     18  C   UNL     1     140.448  72.776 222.391 -0.15 -0.02    +0.269 C  
DOCKED: ATOM     19  H   UNL     1     138.822  73.935 223.070 -0.55 -0.10    +0.163 HD 
DOCKED: ATOM     20  O   UNL     1     141.389  72.621 221.571 -0.22 +0.02    -0.268 OA 
DOCKED: BRANCH  18  21
DOCKED: ATOM     21  C   UNL     1     140.246  71.751 223.438 -0.32 -0.02    +0.128 A  
DOCKED: ATOM     22  C   UNL     1     139.584  70.577 223.150 -0.27 -0.01    +0.035 A  
DOCKED: ATOM     23  N   UNL     1     140.699  71.930 224.691 -0.23 +0.03    -0.243 NA 
DOCKED: ATOM     24  C   UNL     1     139.408  69.636 224.141 -0.31 -0.00    +0.013 A  
DOCKED: ATOM     25  C   UNL     1     140.540  71.024 225.679 -0.53 -0.01    +0.071 A  
DOCKED: ATOM     26  C   UNL     1     139.876  69.822 225.430 -0.45 -0.00    +0.003 A  
DOCKED: ATOM     27  C   UNL     1     141.017  71.234 226.958 -0.68 -0.01    +0.032 A  
DOCKED: ATOM     28  C   UNL     1     139.692  68.869 226.410 -0.51 -0.01    +0.049 A  
DOCKED: ATOM     29  C   UNL     1     140.854  70.301 227.975 -0.60 -0.01    +0.041 A  
DOCKED: ATOM     30  C   UNL     1     140.184  69.122 227.673 -0.52 -0.02    +0.123 A  
DOCKED: ATOM     31  F   UNL     1     139.999  68.182 228.630 -0.16 +0.05    -0.207 F  
DOCKED: ENDBRANCH  18  21
DOCKED: ENDBRANCH  16  17
DOCKED: ENDBRANCH   1  16
DOCKED: TORSDOF 6
DOCKED: TER
DOCKED: ENDMDL
________________________________________________________________________________


    FINAL DOCKED STATE:
    ________________________


Run:   6 / 20
Time taken for this run:   0.039s

DOCKED: MODEL        6
DOCKED: USER    Run = 6
DOCKED: USER
DOCKED: USER    Estimated Free Energy of Binding    =  -7.08 kcal/mol  [=(1)+(2)+(3)-(4)]
DOCKED: USER
DOCKED: USER    (1) Final Intermolecular Energy     =  -8.87 kcal/mol
DOCKED: USER        vdW + Hbond + desolv Energy     =  -8.74 kcal/mol
DOCKED: USER        Electrostatic Energy            =  -0.13 kcal/mol
DOCKED: USER        Moving Ligand-Fixed Receptor    =  -8.87 kcal/mol
DOCKED: USER        Moving Ligand-Moving Receptor   =  +0.00 kcal/mol
DOCKED: USER    (2) Final Total Internal Energy     =  -2.78 kcal/mol
DOCKED: USER    (3) Torsional Free Energy           =  +1.79 kcal/mol
DOCKED: USER    (4) Unbound System's Energy         =  -2.78 kcal/mol
DOCKED: USER
DOCKED: USER
DOCKED: REMARK SMILES CN(CCNC(=O)c1ccc2cc(F)ccc2n1)[C@H]1CCC[C@H]1c1ccc(Cl)cc1
DOCKED: REMARK SMILES IDX 3 1 2 2 1 3 19 4 20 5 23 6 21 7 22 8 24 9 25 10 30 11 26 12
DOCKED: REMARK SMILES IDX 29 13 27 14 28 15 4 16 5 17 6 18 7 20 8 21 9 22 18 23 10 24
DOCKED: REMARK SMILES IDX 17 25 11 26 16 27 12 28 15 29 13 30 14 31
DOCKED: REMARK H PARENT 5 19
DOCKED: USER                              x       y       z     vdW  Elec       q    Type
DOCKED: USER                           _______ _______ _______ _____ _____    ______ ____
DOCKED: ROOT
DOCKED: ATOM      1  C   UNL     1     138.522  78.338 222.714 -0.25 -0.02    +0.105 C  
DOCKED: ENDROOT
DOCKED: BRANCH   1   2
DOCKED: ATOM      2  N   UNL     1     139.386  79.056 221.807 -0.07 +0.07    -0.301 NA 
DOCKED: ATOM      3  C   UNL     1     138.574  79.663 220.796 -0.08 -0.02    +0.105 C  
DOCKED: BRANCH   2   4
DOCKED: ATOM      4  C   UNL     1     140.241  80.032 222.472 -0.33 -0.01    +0.064 C  
DOCKED: ATOM      5  C   UNL     1     140.670  79.621 223.820 -0.49 -0.00    +0.020 C  
DOCKED: ATOM      6  C   UNL     1     141.464  80.350 221.715 -0.41 -0.01    +0.036 C  
DOCKED: ATOM      7  C   UNL     1     142.139  79.499 223.834 -0.60 -0.00    +0.002 C  
DOCKED: ATOM      8  C   UNL     1     142.606  80.415 222.729 -0.62 -0.00    +0.010 C  
DOCKED: BRANCH   6   9
DOCKED: ATOM      9  C   UNL     1     141.796  79.469 220.584 -0.30 +0.02    -0.043 A  
DOCKED: ATOM     10  C   UNL     1     142.072  80.049 219.341 -0.30 -0.00    +0.005 A  
DOCKED: ATOM     11  C   UNL     1     141.860  78.097 220.648 -0.32 -0.00    +0.005 A  
DOCKED: ATOM     12  C   UNL     1     142.390  79.255 218.252 -0.31 -0.02    +0.021 A  
DOCKED: ATOM     13  C   UNL     1     142.182  77.307 219.546 -0.31 -0.01    +0.021 A  
DOCKED: ATOM     14  C   UNL     1     142.452  77.884 218.328 -0.30 -0.03    +0.041 A  
DOCKED: ATOM     15  Cl  UNL     1     142.857  76.900 216.945 -0.30 +0.06    -0.084 Cl 
DOCKED: ENDBRANCH   6   9
DOCKED: ENDBRANCH   2   4
DOCKED: ENDBRANCH   1   2
DOCKED: BRANCH   1  16
DOCKED: ATOM     16  C   UNL     1     138.155  76.971 222.232 -0.23 -0.03    +0.131 C  
DOCKED: BRANCH  16  17
DOCKED: ATOM     17  N   UNL     1     139.338  76.167 221.899 -0.15 +0.08    -0.349 N  
DOCKED: ATOM     18  C   UNL     1     139.308  74.758 221.824 -0.18 -0.05    +0.269 C  
DOCKED: ATOM     19  H   UNL     1     140.252  76.641 221.705 +0.06 -0.05    +0.163 HD 
DOCKED: ATOM     20  O   UNL     1     138.263  74.092 222.039 -0.16 +0.08    -0.268 OA 
DOCKED: BRANCH  18  21
DOCKED: ATOM     21  C   UNL     1     140.551  74.034 221.481 -0.25 -0.02    +0.128 A  
DOCKED: ATOM     22  C   UNL     1     140.590  72.656 221.515 -0.25 -0.00    +0.035 A  
DOCKED: ATOM     23  N   UNL     1     141.670  74.689 221.126 -0.21 +0.06    -0.243 NA 
DOCKED: ATOM     24  C   UNL     1     141.759  72.002 221.190 -0.23 -0.00    +0.013 A  
DOCKED: ATOM     25  C   UNL     1     142.826  74.072 220.803 -0.25 -0.02    +0.071 A  
DOCKED: ATOM     26  C   UNL     1     142.910  72.679 220.825 -0.28 -0.00    +0.003 A  
DOCKED: ATOM     27  C   UNL     1     143.961  74.770 220.441 -0.37 -0.01    +0.032 A  
DOCKED: ATOM     28  C   UNL     1     144.070  72.008 220.503 -0.31 -0.01    +0.049 A  
DOCKED: ATOM     29  C   UNL     1     145.152  74.136 220.108 -0.44 -0.01    +0.041 A  
DOCKED: ATOM     30  C   UNL     1     145.180  72.747 220.148 -0.40 +0.00    +0.123 A  
DOCKED: ATOM     31  F   UNL     1     146.315  72.082 219.833 -0.10 -0.16    -0.207 F  
DOCKED: ENDBRANCH  18  21
DOCKED: ENDBRANCH  16  17
DOCKED: ENDBRANCH   1  16
DOCKED: TORSDOF 6
DOCKED: TER
DOCKED: ENDMDL
________________________________________________________________________________


    FINAL DOCKED STATE:
    ________________________


Run:   7 / 20
Time taken for this run:   0.039s

DOCKED: MODEL        7
DOCKED: USER    Run = 7
DOCKED: USER
DOCKED: USER    Estimated Free Energy of Binding    =  -6.77 kcal/mol  [=(1)+(2)+(3)-(4)]
DOCKED: USER
DOCKED: USER    (1) Final Intermolecular Energy     =  -8.56 kcal/mol
DOCKED: USER        vdW + Hbond + desolv Energy     =  -8.36 kcal/mol
DOCKED: USER        Electrostatic Energy            =  -0.20 kcal/mol
DOCKED: USER        Moving Ligand-Fixed Receptor    =  -8.56 kcal/mol
DOCKED: USER        Moving Ligand-Moving Receptor   =  +0.00 kcal/mol
DOCKED: USER    (2) Final Total Internal Energy     =  -3.35 kcal/mol
DOCKED: USER    (3) Torsional Free Energy           =  +1.79 kcal/mol
DOCKED: USER    (4) Unbound System's Energy         =  -3.35 kcal/mol
DOCKED: USER
DOCKED: USER
DOCKED: REMARK SMILES CN(CCNC(=O)c1ccc2cc(F)ccc2n1)[C@H]1CCC[C@H]1c1ccc(Cl)cc1
DOCKED: REMARK SMILES IDX 3 1 2 2 1 3 19 4 20 5 23 6 21 7 22 8 24 9 25 10 30 11 26 12
DOCKED: REMARK SMILES IDX 29 13 27 14 28 15 4 16 5 17 6 18 7 20 8 21 9 22 18 23 10 24
DOCKED: REMARK SMILES IDX 17 25 11 26 16 27 12 28 15 29 13 30 14 31
DOCKED: REMARK H PARENT 5 19
DOCKED: USER                              x       y       z     vdW  Elec       q    Type
DOCKED: USER                           _______ _______ _______ _____ _____    ______ ____
DOCKED: ROOT
DOCKED: ATOM      1  C   UNL     1     138.373  78.333 222.476 -0.22 -0.02    +0.105 C  
DOCKED: ENDROOT
DOCKED: BRANCH   1   2
DOCKED: ATOM      2  N   UNL     1     139.361  79.012 221.670 -0.06 +0.07    -0.301 NA 
DOCKED: ATOM      3  C   UNL     1     138.689  79.671 220.590 -0.07 -0.02    +0.105 C  
DOCKED: BRANCH   2   4
DOCKED: ATOM      4  C   UNL     1     140.195  79.934 222.431 -0.32 -0.01    +0.064 C  
DOCKED: ATOM      5  C   UNL     1     140.557  79.437 223.770 -0.49 -0.00    +0.020 C  
DOCKED: ATOM      6  C   UNL     1     141.454  80.281 221.751 -0.41 -0.01    +0.036 C  
DOCKED: ATOM      7  C   UNL     1     142.022  79.295 223.843 -0.60 -0.00    +0.002 C  
DOCKED: ATOM      8  C   UNL     1     142.549  80.269 222.818 -0.63 -0.00    +0.010 C  
DOCKED: BRANCH   6   9
DOCKED: ATOM      9  C   UNL     1     141.829  79.465 220.586 -0.30 +0.02    -0.043 A  
DOCKED: ATOM     10  C   UNL     1     141.875  80.076 219.327 -0.30 -0.00    +0.005 A  
DOCKED: ATOM     11  C   UNL     1     142.145  78.127 220.629 -0.20 -0.00    +0.005 A  
DOCKED: ATOM     12  C   UNL     1     142.225  79.343 218.205 -0.30 -0.02    +0.021 A  
DOCKED: ATOM     13  C   UNL     1     142.496  77.399 219.495 -0.30 -0.01    +0.021 A  
DOCKED: ATOM     14  C   UNL     1     142.539  78.006 218.262 -0.31 -0.03    +0.041 A  
DOCKED: ATOM     15  Cl  UNL     1     142.979  77.100 216.837 -0.31 +0.06    -0.084 Cl 
DOCKED: ENDBRANCH   6   9
DOCKED: ENDBRANCH   2   4
DOCKED: ENDBRANCH   1   2
DOCKED: BRANCH   1  16
DOCKED: ATOM     16  C   UNL     1     138.604  76.860 222.586 -0.24 -0.02    +0.131 C  
DOCKED: BRANCH  16  17
DOCKED: ATOM     17  N   UNL     1     139.636  76.392 221.653 -0.13 +0.08    -0.349 N  
DOCKED: ATOM     18  C   UNL     1     140.060  75.047 221.594 -0.22 -0.05    +0.269 C  
DOCKED: ATOM     19  H   UNL     1     140.088  77.069 220.993 +0.06 -0.05    +0.163 HD 
DOCKED: ATOM     20  O   UNL     1     139.583  74.155 222.342 -0.81 +0.04    -0.268 OA 
DOCKED: BRANCH  18  21
DOCKED: ATOM     21  C   UNL     1     141.106  74.669 220.620 -0.20 -0.03    +0.128 A  
DOCKED: ATOM     22  C   UNL     1     140.807  74.561 219.278 -0.08 -0.01    +0.035 A  
DOCKED: ATOM     23  N   UNL     1     142.369  74.422 221.007 -0.14 +0.07    -0.243 NA 
DOCKED: ATOM     24  C   UNL     1     141.798  74.209 218.387 -0.07 -0.00    +0.013 A  
DOCKED: ATOM     25  C   UNL     1     143.358  74.076 220.155 -0.31 -0.02    +0.071 A  
DOCKED: ATOM     26  C   UNL     1     143.098  73.956 218.788 -0.17 -0.00    +0.003 A  
DOCKED: ATOM     27  C   UNL     1     144.648  73.829 220.580 -0.49 -0.01    +0.032 A  
DOCKED: ATOM     28  C   UNL     1     144.077  73.605 217.883 -0.14 -0.01    +0.049 A  
DOCKED: ATOM     29  C   UNL     1     145.666  73.473 219.703 -0.42 +0.00    +0.041 A  
DOCKED: ATOM     30  C   UNL     1     145.352  73.367 218.354 -0.18 +0.02    +0.123 A  
DOCKED: ATOM     31  F   UNL     1     146.308  73.022 217.460 +0.01 -0.22    -0.207 F  
DOCKED: ENDBRANCH  18  21
DOCKED: ENDBRANCH  16  17
DOCKED: ENDBRANCH   1  16
DOCKED: TORSDOF 6
DOCKED: TER
DOCKED: ENDMDL
________________________________________________________________________________


    FINAL DOCKED STATE:
    ________________________


Run:   8 / 20
Time taken for this run:   0.039s

DOCKED: MODEL        8
DOCKED: USER    Run = 8
DOCKED: USER
DOCKED: USER    Estimated Free Energy of Binding    =  -6.64 kcal/mol  [=(1)+(2)+(3)-(4)]
DOCKED: USER
DOCKED: USER    (1) Final Intermolecular Energy     =  -8.43 kcal/mol
DOCKED: USER        vdW + Hbond + desolv Energy     =  -8.39 kcal/mol
DOCKED: USER        Electrostatic Energy            =  -0.04 kcal/mol
DOCKED: USER        Moving Ligand-Fixed Receptor    =  -8.43 kcal/mol
DOCKED: USER        Moving Ligand-Moving Receptor   =  +0.00 kcal/mol
DOCKED: USER    (2) Final Total Internal Energy     =  -3.71 kcal/mol
DOCKED: USER    (3) Torsional Free Energy           =  +1.79 kcal/mol
DOCKED: USER    (4) Unbound System's Energy         =  -3.71 kcal/mol
DOCKED: USER
DOCKED: USER
DOCKED: REMARK SMILES CN(CCNC(=O)c1ccc2cc(F)ccc2n1)[C@H]1CCC[C@H]1c1ccc(Cl)cc1
DOCKED: REMARK SMILES IDX 3 1 2 2 1 3 19 4 20 5 23 6 21 7 22 8 24 9 25 10 30 11 26 12
DOCKED: REMARK SMILES IDX 29 13 27 14 28 15 4 16 5 17 6 18 7 20 8 21 9 22 18 23 10 24
DOCKED: REMARK SMILES IDX 17 25 11 26 16 27 12 28 15 29 13 30 14 31
DOCKED: REMARK H PARENT 5 19
DOCKED: USER                              x       y       z     vdW  Elec       q    Type
DOCKED: USER                           _______ _______ _______ _____ _____    ______ ____
DOCKED: ROOT
DOCKED: ATOM      1  C   UNL     1     141.934  80.763 221.149 -0.30 -0.04    +0.105 C  
DOCKED: ENDROOT
DOCKED: BRANCH   1   2
DOCKED: ATOM      2  N   UNL     1     142.008  79.894 222.300 -0.27 +0.11    -0.301 NA 
DOCKED: ATOM      3  C   UNL     1     143.319  80.004 222.865 -0.42 -0.04    +0.105 C  
DOCKED: BRANCH   2   4
DOCKED: ATOM      4  C   UNL     1     140.969  80.154 223.289 -0.48 -0.01    +0.064 C  
DOCKED: ATOM      5  C   UNL     1     140.129  81.322 222.972 -0.30 -0.00    +0.020 C  
DOCKED: ATOM      6  C   UNL     1     140.057  79.016 223.492 -0.39 -0.01    +0.036 C  
DOCKED: ATOM      7  C   UNL     1     138.737  80.869 222.789 -0.29 -0.00    +0.002 C  
DOCKED: ATOM      8  C   UNL     1     138.645  79.594 223.591 -0.34 -0.00    +0.010 C  
DOCKED: BRANCH   6   9
DOCKED: ATOM      9  C   UNL     1     140.124  77.924 222.508 -0.36 +0.01    -0.043 A  
DOCKED: ATOM     10  C   UNL     1     141.019  76.872 222.734 -0.34 -0.00    +0.005 A  
DOCKED: ATOM     11  C   UNL     1     139.366  77.848 221.363 -0.19 -0.00    +0.005 A  
DOCKED: ATOM     12  C   UNL     1     141.112  75.824 221.833 -0.33 -0.01    +0.021 A  
DOCKED: ATOM     13  C   UNL     1     139.467  76.790 220.462 -0.12 -0.01    +0.021 A  
DOCKED: ATOM     14  C   UNL     1     140.348  75.760 220.691 -0.21 -0.01    +0.041 A  
DOCKED: ATOM     15  Cl  UNL     1     140.478  74.431 219.568 -0.12 +0.02    -0.084 Cl 
DOCKED: ENDBRANCH   6   9
DOCKED: ENDBRANCH   2   4
DOCKED: ENDBRANCH   1   2
DOCKED: BRANCH   1  16
DOCKED: ATOM     16  C   UNL     1     141.543  80.054 219.891 -0.24 -0.06    +0.131 C  
DOCKED: BRANCH  16  17
DOCKED: ATOM     17  N   UNL     1     142.176  78.734 219.782 -0.07 +0.25    -0.349 N  
DOCKED: ATOM     18  C   UNL     1     142.236  78.013 218.571 -0.19 -0.18    +0.269 C  
DOCKED: ATOM     19  H   UNL     1     142.609  78.292 220.628 -0.35 -0.15    +0.163 HD 
DOCKED: ATOM     20  O   UNL     1     141.747  78.452 217.499 -0.12 +0.18    -0.268 OA 
DOCKED: BRANCH  18  21
DOCKED: ATOM     21  C   UNL     1     142.895  76.689 218.559 -0.27 -0.08    +0.128 A  
DOCKED: ATOM     22  C   UNL     1     142.938  75.939 217.402 -0.19 -0.02    +0.035 A  
DOCKED: ATOM     23  N   UNL     1     143.470  76.181 219.663 -0.28 +0.16    -0.243 NA 
DOCKED: ATOM     24  C   UNL     1     143.559  74.709 217.414 -0.16 -0.00    +0.013 A  
DOCKED: ATOM     25  C   UNL     1     144.084  74.980 219.699 -0.34 -0.04    +0.071 A  
DOCKED: ATOM     26  C   UNL     1     144.151  74.188 218.551 -0.20 -0.00    +0.003 A  
DOCKED: ATOM     27  C   UNL     1     144.668  74.483 220.848 -0.29 -0.01    +0.032 A  
DOCKED: ATOM     28  C   UNL     1     144.768  72.956 218.545 -0.22 +0.00    +0.049 A  
DOCKED: ATOM     29  C   UNL     1     145.301  73.246 220.887 -0.58 -0.01    +0.041 A  
DOCKED: ATOM     30  C   UNL     1     145.337  72.499 219.716 -0.34 +0.03    +0.123 A  
DOCKED: ATOM     31  F   UNL     1     145.941  71.288 219.701 -0.09 -0.12    -0.207 F  
DOCKED: ENDBRANCH  18  21
DOCKED: ENDBRANCH  16  17
DOCKED: ENDBRANCH   1  16
DOCKED: TORSDOF 6
DOCKED: TER
DOCKED: ENDMDL
________________________________________________________________________________


    FINAL DOCKED STATE:
    ________________________


Run:   9 / 20
Time taken for this run:   0.039s

DOCKED: MODEL        9
DOCKED: USER    Run = 9
DOCKED: USER
DOCKED: USER    Estimated Free Energy of Binding    =  -6.81 kcal/mol  [=(1)+(2)+(3)-(4)]
DOCKED: USER
DOCKED: USER    (1) Final Intermolecular Energy     =  -8.60 kcal/mol
DOCKED: USER        vdW + Hbond + desolv Energy     =  -8.39 kcal/mol
DOCKED: USER        Electrostatic Energy            =  -0.21 kcal/mol
DOCKED: USER        Moving Ligand-Fixed Receptor    =  -8.60 kcal/mol
DOCKED: USER        Moving Ligand-Moving Receptor   =  +0.00 kcal/mol
DOCKED: USER    (2) Final Total Internal Energy     =  -3.33 kcal/mol
DOCKED: USER    (3) Torsional Free Energy           =  +1.79 kcal/mol
DOCKED: USER    (4) Unbound System's Energy         =  -3.33 kcal/mol
DOCKED: USER
DOCKED: USER
DOCKED: REMARK SMILES CN(CCNC(=O)c1ccc2cc(F)ccc2n1)[C@H]1CCC[C@H]1c1ccc(Cl)cc1
DOCKED: REMARK SMILES IDX 3 1 2 2 1 3 19 4 20 5 23 6 21 7 22 8 24 9 25 10 30 11 26 12
DOCKED: REMARK SMILES IDX 29 13 27 14 28 15 4 16 5 17 6 18 7 20 8 21 9 22 18 23 10 24
DOCKED: REMARK SMILES IDX 17 25 11 26 16 27 12 28 15 29 13 30 14 31
DOCKED: REMARK H PARENT 5 19
DOCKED: USER                              x       y       z     vdW  Elec       q    Type
DOCKED: USER                           _______ _______ _______ _____ _____    ______ ____
DOCKED: ROOT
DOCKED: ATOM      1  C   UNL     1     138.482  78.244 222.664 -0.24 -0.02    +0.105 C  
DOCKED: ENDROOT
DOCKED: BRANCH   1   2
DOCKED: ATOM      2  N   UNL     1     139.424  78.912 221.797 -0.07 +0.07    -0.301 NA 
DOCKED: ATOM      3  C   UNL     1     138.701  79.489 220.704 -0.08 -0.02    +0.105 C  
DOCKED: BRANCH   2   4
DOCKED: ATOM      4  C   UNL     1     140.244  79.901 222.486 -0.33 -0.01    +0.064 C  
DOCKED: ATOM      5  C   UNL     1     140.680  79.477 223.828 -0.50 -0.00    +0.020 C  
DOCKED: ATOM      6  C   UNL     1     141.459  80.274 221.741 -0.41 -0.01    +0.036 C  
DOCKED: ATOM      7  C   UNL     1     142.152  79.403 223.846 -0.59 -0.00    +0.002 C  
DOCKED: ATOM      8  C   UNL     1     142.594  80.355 222.762 -0.63 -0.00    +0.010 C  
DOCKED: BRANCH   6   9
DOCKED: ATOM      9  C   UNL     1     141.825  79.427 220.595 -0.30 +0.02    -0.043 A  
DOCKED: ATOM     10  C   UNL     1     141.844  79.999 219.318 -0.30 -0.00    +0.005 A  
DOCKED: ATOM     11  C   UNL     1     142.156  78.095 220.674 -0.20 -0.00    +0.005 A  
DOCKED: ATOM     12  C   UNL     1     142.185  79.237 218.213 -0.30 -0.02    +0.021 A  
DOCKED: ATOM     13  C   UNL     1     142.497  77.336 219.557 -0.31 -0.01    +0.021 A  
DOCKED: ATOM     14  C   UNL     1     142.515  77.905 218.305 -0.30 -0.03    +0.041 A  
DOCKED: ATOM     15  Cl  UNL     1     142.942  76.961 216.902 -0.31 +0.06    -0.084 Cl 
DOCKED: ENDBRANCH   6   9
DOCKED: ENDBRANCH   2   4
DOCKED: ENDBRANCH   1   2
DOCKED: BRANCH   1  16
DOCKED: ATOM     16  C   UNL     1     138.584  76.753 222.618 -0.23 -0.03    +0.131 C  
DOCKED: BRANCH  16  17
DOCKED: ATOM     17  N   UNL     1     139.621  76.299 221.684 -0.14 +0.08    -0.349 N  
DOCKED: ATOM     18  C   UNL     1     140.056  74.958 221.617 -0.21 -0.05    +0.269 C  
DOCKED: ATOM     19  H   UNL     1     140.068  76.984 221.029 +0.06 -0.05    +0.163 HD 
DOCKED: ATOM     20  O   UNL     1     139.586  74.058 222.359 -0.80 +0.04    -0.268 OA 
DOCKED: BRANCH  18  21
DOCKED: ATOM     21  C   UNL     1     141.106  74.595 220.642 -0.20 -0.03    +0.128 A  
DOCKED: ATOM     22  C   UNL     1     140.809  74.493 219.299 -0.08 -0.01    +0.035 A  
DOCKED: ATOM     23  N   UNL     1     142.371  74.356 221.029 -0.13 +0.07    -0.243 NA 
DOCKED: ATOM     24  C   UNL     1     141.804  74.154 218.407 -0.07 -0.00    +0.013 A  
DOCKED: ATOM     25  C   UNL     1     143.363  74.024 220.175 -0.31 -0.02    +0.071 A  
DOCKED: ATOM     26  C   UNL     1     143.106  73.910 218.808 -0.17 -0.00    +0.003 A  
DOCKED: ATOM     27  C   UNL     1     144.655  73.785 220.601 -0.50 -0.01    +0.032 A  
DOCKED: ATOM     28  C   UNL     1     144.089  73.572 217.902 -0.14 -0.01    +0.049 A  
DOCKED: ATOM     29  C   UNL     1     145.677  73.443 219.723 -0.44 +0.00    +0.041 A  
DOCKED: ATOM     30  C   UNL     1     145.365  73.342 218.373 -0.18 +0.02    +0.123 A  
DOCKED: ATOM     31  F   UNL     1     146.325  73.011 217.477 +0.02 -0.23    -0.207 F  
DOCKED: ENDBRANCH  18  21
DOCKED: ENDBRANCH  16  17
DOCKED: ENDBRANCH   1  16
DOCKED: TORSDOF 6
DOCKED: TER
DOCKED: ENDMDL
________________________________________________________________________________


    FINAL DOCKED STATE:
    ________________________


Run:   10 / 20
Time taken for this run:   0.039s

DOCKED: MODEL        10
DOCKED: USER    Run = 10
DOCKED: USER
DOCKED: USER    Estimated Free Energy of Binding    =  -8.53 kcal/mol  [=(1)+(2)+(3)-(4)]
DOCKED: USER
DOCKED: USER    (1) Final Intermolecular Energy     = -10.32 kcal/mol
DOCKED: USER        vdW + Hbond + desolv Energy     = -10.25 kcal/mol
DOCKED: USER        Electrostatic Energy            =  -0.07 kcal/mol
DOCKED: USER        Moving Ligand-Fixed Receptor    = -10.32 kcal/mol
DOCKED: USER        Moving Ligand-Moving Receptor   =  +0.00 kcal/mol
DOCKED: USER    (2) Final Total Internal Energy     =  -1.30 kcal/mol
DOCKED: USER    (3) Torsional Free Energy           =  +1.79 kcal/mol
DOCKED: USER    (4) Unbound System's Energy         =  -1.30 kcal/mol
DOCKED: USER
DOCKED: USER
DOCKED: REMARK SMILES CN(CCNC(=O)c1ccc2cc(F)ccc2n1)[C@H]1CCC[C@H]1c1ccc(Cl)cc1
DOCKED: REMARK SMILES IDX 3 1 2 2 1 3 19 4 20 5 23 6 21 7 22 8 24 9 25 10 30 11 26 12
DOCKED: REMARK SMILES IDX 29 13 27 14 28 15 4 16 5 17 6 18 7 20 8 21 9 22 18 23 10 24
DOCKED: REMARK SMILES IDX 17 25 11 26 16 27 12 28 15 29 13 30 14 31
DOCKED: REMARK H PARENT 5 19
DOCKED: USER                              x       y       z     vdW  Elec       q    Type
DOCKED: USER                           _______ _______ _______ _____ _____    ______ ____
DOCKED: ROOT
DOCKED: ATOM      1  C   UNL     1     140.300  76.026 221.762 -0.32 -0.03    +0.105 C  
DOCKED: ENDROOT
DOCKED: BRANCH   1   2
DOCKED: ATOM      2  N   UNL     1     139.697  77.179 221.137 -0.07 +0.08    -0.301 NA 
DOCKED: ATOM      3  C   UNL     1     138.276  76.999 221.133 -0.12 -0.02    +0.105 C  
DOCKED: BRANCH   2   4
DOCKED: ATOM      4  C   UNL     1     140.081  78.441 221.757 -0.26 -0.02    +0.064 C  
DOCKED: ATOM      5  C   UNL     1     140.676  78.285 223.096 -0.41 -0.01    +0.020 C  
DOCKED: ATOM      6  C   UNL     1     141.039  79.220 220.954 -0.29 -0.01    +0.036 C  
DOCKED: ATOM      7  C   UNL     1     142.061  78.790 223.061 -0.49 -0.00    +0.002 C  
DOCKED: ATOM      8  C   UNL     1     142.073  79.785 221.927 -0.48 -0.00    +0.010 C  
DOCKED: BRANCH   6   9
DOCKED: ATOM      9  C   UNL     1     141.681  78.527 219.826 -0.26 +0.02    -0.043 A  
DOCKED: ATOM     10  C   UNL     1     142.477  77.407 220.092 -0.24 -0.00    +0.005 A  
DOCKED: ATOM     11  C   UNL     1     141.564  78.895 218.506 -0.22 -0.00    +0.005 A  
DOCKED: ATOM     12  C   UNL     1     143.098  76.726 219.059 -0.36 -0.01    +0.021 A  
DOCKED: ATOM     13  C   UNL     1     142.193  78.204 217.473 -0.24 -0.02    +0.021 A  
DOCKED: ATOM     14  C   UNL     1     142.972  77.103 217.743 -0.29 -0.03    +0.041 A  
DOCKED: ATOM     15  Cl  UNL     1     143.762  76.232 216.454 -0.26 +0.05    -0.084 Cl 
DOCKED: ENDBRANCH   6   9
DOCKED: ENDBRANCH   2   4
DOCKED: ENDBRANCH   1   2
DOCKED: BRANCH   1  16
DOCKED: ATOM     16  C   UNL     1     139.762  74.725 221.258 -0.22 -0.03    +0.131 C  
DOCKED: BRANCH  16  17
DOCKED: ATOM     17  N   UNL     1     139.642  73.726 222.327 -0.11 +0.05    -0.349 N  
DOCKED: ATOM     18  C   UNL     1     140.462  72.580 222.399 -0.19 -0.02    +0.269 C  
DOCKED: ATOM     19  H   UNL     1     138.923  73.852 223.079 -0.55 -0.09    +0.163 HD 
DOCKED: ATOM     20  O   UNL     1     141.355  72.334 221.548 -0.19 +0.02    -0.268 OA 
DOCKED: BRANCH  18  21
DOCKED: ATOM     21  C   UNL     1     140.267  71.630 223.515 -0.33 -0.02    +0.128 A  
DOCKED: ATOM     22  C   UNL     1     139.615  70.432 223.309 -0.27 -0.01    +0.035 A  
DOCKED: ATOM     23  N   UNL     1     140.714  71.900 224.753 -0.25 +0.03    -0.243 NA 
DOCKED: ATOM     24  C   UNL     1     139.446  69.561 224.363 -0.33 -0.00    +0.013 A  
DOCKED: ATOM     25  C   UNL     1     140.561  71.064 225.802 -0.54 -0.01    +0.071 A  
DOCKED: ATOM     26  C   UNL     1     139.909  69.841 225.637 -0.46 -0.00    +0.003 A  
DOCKED: ATOM     27  C   UNL     1     141.033  71.367 227.064 -0.71 -0.01    +0.032 A  
DOCKED: ATOM     28  C   UNL     1     139.730  68.958 226.681 -0.52 -0.01    +0.049 A  
DOCKED: ATOM     29  C   UNL     1     140.876  70.506 228.144 -0.58 -0.01    +0.041 A  
DOCKED: ATOM     30  C   UNL     1     140.217  69.303 227.924 -0.53 -0.02    +0.123 A  
DOCKED: ATOM     31  F   UNL     1     140.038  68.431 228.944 -0.15 +0.04    -0.207 F  
DOCKED: ENDBRANCH  18  21
DOCKED: ENDBRANCH  16  17
DOCKED: ENDBRANCH   1  16
DOCKED: TORSDOF 6
DOCKED: TER
DOCKED: ENDMDL
________________________________________________________________________________


    FINAL DOCKED STATE:
    ________________________


Run:   11 / 20
Time taken for this run:   0.039s

DOCKED: MODEL        11
DOCKED: USER    Run = 11
DOCKED: USER
DOCKED: USER    Estimated Free Energy of Binding    =  -6.75 kcal/mol  [=(1)+(2)+(3)-(4)]
DOCKED: USER
DOCKED: USER    (1) Final Intermolecular Energy     =  -8.54 kcal/mol
DOCKED: USER        vdW + Hbond + desolv Energy     =  -8.33 kcal/mol
DOCKED: USER        Electrostatic Energy            =  -0.21 kcal/mol
DOCKED: USER        Moving Ligand-Fixed Receptor    =  -8.54 kcal/mol
DOCKED: USER        Moving Ligand-Moving Receptor   =  +0.00 kcal/mol
DOCKED: USER    (2) Final Total Internal Energy     =  -3.13 kcal/mol
DOCKED: USER    (3) Torsional Free Energy           =  +1.79 kcal/mol
DOCKED: USER    (4) Unbound System's Energy         =  -3.13 kcal/mol
DOCKED: USER
DOCKED: USER
DOCKED: REMARK SMILES CN(CCNC(=O)c1ccc2cc(F)ccc2n1)[C@H]1CCC[C@H]1c1ccc(Cl)cc1
DOCKED: REMARK SMILES IDX 3 1 2 2 1 3 19 4 20 5 23 6 21 7 22 8 24 9 25 10 30 11 26 12
DOCKED: REMARK SMILES IDX 29 13 27 14 28 15 4 16 5 17 6 18 7 20 8 21 9 22 18 23 10 24
DOCKED: REMARK SMILES IDX 17 25 11 26 16 27 12 28 15 29 13 30 14 31
DOCKED: REMARK H PARENT 5 19
DOCKED: USER                              x       y       z     vdW  Elec       q    Type
DOCKED: USER                           _______ _______ _______ _____ _____    ______ ____
DOCKED: ROOT
DOCKED: ATOM      1  C   UNL     1     138.670  78.277 222.808 -0.24 -0.02    +0.105 C  
DOCKED: ENDROOT
DOCKED: BRANCH   1   2
DOCKED: ATOM      2  N   UNL     1     139.443  79.055 221.868 -0.08 +0.07    -0.301 NA 
DOCKED: ATOM      3  C   UNL     1     138.550  79.608 220.896 -0.08 -0.02    +0.105 C  
DOCKED: BRANCH   2   4
DOCKED: ATOM      4  C   UNL     1     140.259  80.084 222.502 -0.33 -0.01    +0.064 C  
DOCKED: ATOM      5  C   UNL     1     140.738  79.715 223.845 -0.48 -0.00    +0.020 C  
DOCKED: ATOM      6  C   UNL     1     141.446  80.456 221.714 -0.41 -0.01    +0.036 C  
DOCKED: ATOM      7  C   UNL     1     142.212  79.672 223.828 -0.62 -0.00    +0.002 C  
DOCKED: ATOM      8  C   UNL     1     142.605  80.596 222.701 -0.60 -0.00    +0.010 C  
DOCKED: BRANCH   6   9
DOCKED: ATOM      9  C   UNL     1     141.801  79.579 220.587 -0.31 +0.02    -0.043 A  
DOCKED: ATOM     10  C   UNL     1     141.901  80.137 219.308 -0.31 -0.00    +0.005 A  
DOCKED: ATOM     11  C   UNL     1     142.049  78.229 220.688 -0.23 -0.00    +0.005 A  
DOCKED: ATOM     12  C   UNL     1     142.234  79.345 218.221 -0.30 -0.02    +0.021 A  
DOCKED: ATOM     13  C   UNL     1     142.383  77.442 219.589 -0.30 -0.01    +0.021 A  
DOCKED: ATOM     14  C   UNL     1     142.480  77.997 218.335 -0.30 -0.03    +0.041 A  
DOCKED: ATOM     15  Cl  UNL     1     142.900  77.016 216.955 -0.31 +0.06    -0.084 Cl 
DOCKED: ENDBRANCH   6   9
DOCKED: ENDBRANCH   2   4
DOCKED: ENDBRANCH   1   2
DOCKED: BRANCH   1  16
DOCKED: ATOM     16  C   UNL     1     138.427  76.871 222.360 -0.25 -0.03    +0.131 C  
DOCKED: BRANCH  16  17
DOCKED: ATOM     17  N   UNL     1     139.481  76.389 221.459 -0.11 +0.08    -0.349 N  
DOCKED: ATOM     18  C   UNL     1     139.981  75.070 221.505 -0.21 -0.05    +0.269 C  
DOCKED: ATOM     19  H   UNL     1     139.892  77.035 220.744 +0.05 -0.05    +0.163 HD 
DOCKED: ATOM     20  O   UNL     1     139.558  74.215 222.325 -0.79 +0.04    -0.268 OA 
DOCKED: BRANCH  18  21
DOCKED: ATOM     21  C   UNL     1     141.043  74.675 220.556 -0.19 -0.03    +0.128 A  
DOCKED: ATOM     22  C   UNL     1     140.755  74.490 219.220 -0.07 -0.01    +0.035 A  
DOCKED: ATOM     23  N   UNL     1     142.311  74.486 220.960 -0.16 +0.07    -0.243 NA 
DOCKED: ATOM     24  C   UNL     1     141.761  74.122 218.353 -0.07 -0.00    +0.013 A  
DOCKED: ATOM     25  C   UNL     1     143.314  74.127 220.131 -0.31 -0.02    +0.071 A  
DOCKED: ATOM     26  C   UNL     1     143.066  73.930 218.772 -0.17 -0.00    +0.003 A  
DOCKED: ATOM     27  C   UNL     1     144.609  73.942 220.574 -0.49 -0.01    +0.032 A  
DOCKED: ATOM     28  C   UNL     1     144.061  73.563 217.890 -0.14 -0.01    +0.049 A  
DOCKED: ATOM     29  C   UNL     1     145.642  73.573 219.721 -0.40 +0.00    +0.041 A  
DOCKED: ATOM     30  C   UNL     1     145.339  73.388 218.378 -0.18 +0.02    +0.123 A  
DOCKED: ATOM     31  F   UNL     1     146.310  73.027 217.506 +0.02 -0.22    -0.207 F  
DOCKED: ENDBRANCH  18  21
DOCKED: ENDBRANCH  16  17
DOCKED: ENDBRANCH   1  16
DOCKED: TORSDOF 6
DOCKED: TER
DOCKED: ENDMDL
________________________________________________________________________________


    FINAL DOCKED STATE:
    ________________________


Run:   12 / 20
Time taken for this run:   0.039s

DOCKED: MODEL        12
DOCKED: USER    Run = 12
DOCKED: USER
DOCKED: USER    Estimated Free Energy of Binding    =  -6.35 kcal/mol  [=(1)+(2)+(3)-(4)]
DOCKED: USER
DOCKED: USER    (1) Final Intermolecular Energy     =  -8.14 kcal/mol
DOCKED: USER        vdW + Hbond + desolv Energy     =  -8.08 kcal/mol
DOCKED: USER        Electrostatic Energy            =  -0.06 kcal/mol
DOCKED: USER        Moving Ligand-Fixed Receptor    =  -8.14 kcal/mol
DOCKED: USER        Moving Ligand-Moving Receptor   =  +0.00 kcal/mol
DOCKED: USER    (2) Final Total Internal Energy     =  -3.93 kcal/mol
DOCKED: USER    (3) Torsional Free Energy           =  +1.79 kcal/mol
DOCKED: USER    (4) Unbound System's Energy         =  -3.93 kcal/mol
DOCKED: USER
DOCKED: USER
DOCKED: REMARK SMILES CN(CCNC(=O)c1ccc2cc(F)ccc2n1)[C@H]1CCC[C@H]1c1ccc(Cl)cc1
DOCKED: REMARK SMILES IDX 3 1 2 2 1 3 19 4 20 5 23 6 21 7 22 8 24 9 25 10 30 11 26 12
DOCKED: REMARK SMILES IDX 29 13 27 14 28 15 4 16 5 17 6 18 7 20 8 21 9 22 18 23 10 24
DOCKED: REMARK SMILES IDX 17 25 11 26 16 27 12 28 15 29 13 30 14 31
DOCKED: REMARK H PARENT 5 19
DOCKED: USER                              x       y       z     vdW  Elec       q    Type
DOCKED: USER                           _______ _______ _______ _____ _____    ______ ____
DOCKED: ROOT
DOCKED: ATOM      1  C   UNL     1     141.830  81.063 221.232 -0.32 -0.03    +0.105 C  
DOCKED: ENDROOT
DOCKED: BRANCH   1   2
DOCKED: ATOM      2  N   UNL     1     141.942  80.020 222.225 -0.26 +0.11    -0.301 NA 
DOCKED: ATOM      3  C   UNL     1     143.285  80.010 222.721 -0.43 -0.04    +0.105 C  
DOCKED: BRANCH   2   4
DOCKED: ATOM      4  C   UNL     1     140.968  80.140 223.303 -0.48 -0.01    +0.064 C  
DOCKED: ATOM      5  C   UNL     1     140.041  81.274 223.140 -0.30 -0.00    +0.020 C  
DOCKED: ATOM      6  C   UNL     1     140.140  78.936 223.480 -0.36 -0.01    +0.036 C  
DOCKED: ATOM      7  C   UNL     1     138.668  80.751 223.022 -0.31 -0.00    +0.002 C  
DOCKED: ATOM      8  C   UNL     1     138.709  79.416 223.725 -0.28 -0.00    +0.010 C  
DOCKED: BRANCH   6   9
DOCKED: ATOM      9  C   UNL     1     140.194  77.927 222.410 -0.36 +0.01    -0.043 A  
DOCKED: ATOM     10  C   UNL     1     141.000  76.797 222.594 -0.36 -0.00    +0.005 A  
DOCKED: ATOM     11  C   UNL     1     139.505  78.001 221.222 -0.18 -0.00    +0.005 A  
DOCKED: ATOM     12  C   UNL     1     141.077  75.823 221.612 -0.36 -0.01    +0.021 A  
DOCKED: ATOM     13  C   UNL     1     139.589  77.016 220.241 -0.11 -0.01    +0.021 A  
DOCKED: ATOM     14  C   UNL     1     140.383  75.909 220.429 -0.17 -0.01    +0.041 A  
DOCKED: ATOM     15  Cl  UNL     1     140.492  74.671 219.204 -0.09 +0.02    -0.084 Cl 
DOCKED: ENDBRANCH   6   9
DOCKED: ENDBRANCH   2   4
DOCKED: ENDBRANCH   1   2
DOCKED: BRANCH   1  16
DOCKED: ATOM     16  C   UNL     1     141.614  80.546 219.846 -0.25 -0.06    +0.131 C  
DOCKED: BRANCH  16  17
DOCKED: ATOM     17  N   UNL     1     142.187  79.207 219.661 -0.08 +0.24    -0.349 N  
DOCKED: ATOM     18  C   UNL     1     142.241  78.565 218.406 -0.20 -0.20    +0.269 C  
DOCKED: ATOM     19  H   UNL     1     142.579  78.689 220.484 -0.32 -0.15    +0.163 HD 
DOCKED: ATOM     20  O   UNL     1     141.799  79.098 217.355 -0.13 +0.20    -0.268 OA 
DOCKED: BRANCH  18  21
DOCKED: ATOM     21  C   UNL     1     142.838  77.215 218.317 -0.27 -0.09    +0.128 A  
DOCKED: ATOM     22  C   UNL     1     142.910  76.560 217.106 -0.22 -0.02    +0.035 A  
DOCKED: ATOM     23  N   UNL     1     143.325  76.591 219.404 -0.26 +0.17    -0.243 NA 
DOCKED: ATOM     24  C   UNL     1     143.472  75.302 217.048 -0.18 -0.01    +0.013 A  
DOCKED: ATOM     25  C   UNL     1     143.880  75.361 219.372 -0.25 -0.04    +0.071 A  
DOCKED: ATOM     26  C   UNL     1     143.974  74.662 218.167 -0.16 -0.00    +0.003 A  
DOCKED: ATOM     27  C   UNL     1     144.374  74.744 220.504 -0.36 -0.01    +0.032 A  
DOCKED: ATOM     28  C   UNL     1     144.532  73.404 218.090 -0.18 -0.00    +0.049 A  
DOCKED: ATOM     29  C   UNL     1     144.946  73.477 220.473 -0.51 -0.01    +0.041 A  
DOCKED: ATOM     30  C   UNL     1     145.012  72.826 219.247 -0.27 +0.02    +0.123 A  
DOCKED: ATOM     31  F   UNL     1     145.559  71.591 219.163 -0.07 -0.12    -0.207 F  
DOCKED: ENDBRANCH  18  21
DOCKED: ENDBRANCH  16  17
DOCKED: ENDBRANCH   1  16
DOCKED: TORSDOF 6
DOCKED: TER
DOCKED: ENDMDL
________________________________________________________________________________


    FINAL DOCKED STATE:
    ________________________


Run:   13 / 20
Time taken for this run:   0.039s

DOCKED: MODEL        13
DOCKED: USER    Run = 13
DOCKED: USER
DOCKED: USER    Estimated Free Energy of Binding    =  -8.43 kcal/mol  [=(1)+(2)+(3)-(4)]
DOCKED: USER
DOCKED: USER    (1) Final Intermolecular Energy     = -10.22 kcal/mol
DOCKED: USER        vdW + Hbond + desolv Energy     = -10.15 kcal/mol
DOCKED: USER        Electrostatic Energy            =  -0.06 kcal/mol
DOCKED: USER        Moving Ligand-Fixed Receptor    = -10.22 kcal/mol
DOCKED: USER        Moving Ligand-Moving Receptor   =  +0.00 kcal/mol
DOCKED: USER    (2) Final Total Internal Energy     =  -1.33 kcal/mol
DOCKED: USER    (3) Torsional Free Energy           =  +1.79 kcal/mol
DOCKED: USER    (4) Unbound System's Energy         =  -1.33 kcal/mol
DOCKED: USER
DOCKED: USER
DOCKED: REMARK SMILES CN(CCNC(=O)c1ccc2cc(F)ccc2n1)[C@H]1CCC[C@H]1c1ccc(Cl)cc1
DOCKED: REMARK SMILES IDX 3 1 2 2 1 3 19 4 20 5 23 6 21 7 22 8 24 9 25 10 30 11 26 12
DOCKED: REMARK SMILES IDX 29 13 27 14 28 15 4 16 5 17 6 18 7 20 8 21 9 22 18 23 10 24
DOCKED: REMARK SMILES IDX 17 25 11 26 16 27 12 28 15 29 13 30 14 31
DOCKED: REMARK H PARENT 5 19
DOCKED: USER                              x       y       z     vdW  Elec       q    Type
DOCKED: USER                           _______ _______ _______ _____ _____    ______ ____
DOCKED: ROOT
DOCKED: ATOM      1  C   UNL     1     140.022  75.977 221.764 -0.30 -0.02    +0.105 C  
DOCKED: ENDROOT
DOCKED: BRANCH   1   2
DOCKED: ATOM      2  N   UNL     1     139.600  77.168 221.065 -0.06 +0.08    -0.301 NA 
DOCKED: ATOM      3  C   UNL     1     138.179  77.114 220.897 -0.09 -0.02    +0.105 C  
DOCKED: BRANCH   2   4
DOCKED: ATOM      4  C   UNL     1     140.022  78.402 221.717 -0.25 -0.02    +0.064 C  
DOCKED: ATOM      5  C   UNL     1     140.529  78.205 223.086 -0.35 -0.00    +0.020 C  
DOCKED: ATOM      6  C   UNL     1     141.068  79.127 220.976 -0.29 -0.01    +0.036 C  
DOCKED: ATOM      7  C   UNL     1     141.940  78.627 223.134 -0.49 -0.00    +0.002 C  
DOCKED: ATOM      8  C   UNL     1     142.076  79.625 222.011 -0.49 -0.00    +0.010 C  
DOCKED: BRANCH   6   9
DOCKED: ATOM      9  C   UNL     1     141.732  78.403 219.881 -0.27 +0.03    -0.043 A  
DOCKED: ATOM     10  C   UNL     1     142.414  77.218 220.178 -0.25 -0.00    +0.005 A  
DOCKED: ATOM     11  C   UNL     1     141.740  78.801 218.565 -0.24 -0.00    +0.005 A  
DOCKED: ATOM     12  C   UNL     1     143.052  76.506 219.175 -0.36 -0.01    +0.021 A  
DOCKED: ATOM     13  C   UNL     1     142.384  78.078 217.564 -0.27 -0.02    +0.021 A  
DOCKED: ATOM     14  C   UNL     1     143.052  76.914 217.862 -0.28 -0.03    +0.041 A  
DOCKED: ATOM     15  Cl  UNL     1     143.859  76.003 216.613 -0.26 +0.05    -0.084 Cl 
DOCKED: ENDBRANCH   6   9
DOCKED: ENDBRANCH   2   4
DOCKED: ENDBRANCH   1   2
DOCKED: BRANCH   1  16
DOCKED: ATOM     16  C   UNL     1     139.319  74.738 221.310 -0.20 -0.03    +0.131 C  
DOCKED: BRANCH  16  17
DOCKED: ATOM     17  N   UNL     1     139.301  73.702 222.349 -0.07 +0.08    -0.349 N  
DOCKED: ATOM     18  C   UNL     1     140.269  72.678 222.425 -0.19 -0.03    +0.269 C  
DOCKED: ATOM     19  H   UNL     1     138.545  73.704 223.075 -0.54 -0.12    +0.163 HD 
DOCKED: ATOM     20  O   UNL     1     141.217  72.583 221.603 -0.22 +0.02    -0.268 OA 
DOCKED: BRANCH  18  21
DOCKED: ATOM     21  C   UNL     1     140.169  71.677 223.509 -0.32 -0.02    +0.128 A  
DOCKED: ATOM     22  C   UNL     1     139.576  70.453 223.279 -0.27 -0.01    +0.035 A  
DOCKED: ATOM     23  N   UNL     1     140.649  71.926 224.740 -0.23 +0.03    -0.243 NA 
DOCKED: ATOM     24  C   UNL     1     139.495  69.536 224.304 -0.32 -0.00    +0.013 A  
DOCKED: ATOM     25  C   UNL     1     140.581  71.044 225.759 -0.54 -0.01    +0.071 A  
DOCKED: ATOM     26  C   UNL     1     139.991  69.793 225.570 -0.46 -0.00    +0.003 A  
DOCKED: ATOM     27  C   UNL     1     141.084  71.325 227.014 -0.70 -0.01    +0.032 A  
DOCKED: ATOM     28  C   UNL     1     139.901  68.863 226.584 -0.53 -0.01    +0.049 A  
DOCKED: ATOM     29  C   UNL     1     141.016  70.417 228.065 -0.58 -0.01    +0.041 A  
DOCKED: ATOM     30  C   UNL     1     140.416  69.188 227.821 -0.53 -0.02    +0.123 A  
DOCKED: ATOM     31  F   UNL     1     140.324  68.270 228.812 -0.18 +0.05    -0.207 F  
DOCKED: ENDBRANCH  18  21
DOCKED: ENDBRANCH  16  17
DOCKED: ENDBRANCH   1  16
DOCKED: TORSDOF 6
DOCKED: TER
DOCKED: ENDMDL
________________________________________________________________________________


    FINAL DOCKED STATE:
    ________________________


Run:   14 / 20
Time taken for this run:   0.039s

DOCKED: MODEL        14
DOCKED: USER    Run = 14
DOCKED: USER
DOCKED: USER    Estimated Free Energy of Binding    =  -6.74 kcal/mol  [=(1)+(2)+(3)-(4)]
DOCKED: USER
DOCKED: USER    (1) Final Intermolecular Energy     =  -8.53 kcal/mol
DOCKED: USER        vdW + Hbond + desolv Energy     =  -8.32 kcal/mol
DOCKED: USER        Electrostatic Energy            =  -0.22 kcal/mol
DOCKED: USER        Moving Ligand-Fixed Receptor    =  -8.53 kcal/mol
DOCKED: USER        Moving Ligand-Moving Receptor   =  +0.00 kcal/mol
DOCKED: USER    (2) Final Total Internal Energy     =  -3.36 kcal/mol
DOCKED: USER    (3) Torsional Free Energy           =  +1.79 kcal/mol
DOCKED: USER    (4) Unbound System's Energy         =  -3.36 kcal/mol
DOCKED: USER
DOCKED: USER
DOCKED: REMARK SMILES CN(CCNC(=O)c1ccc2cc(F)ccc2n1)[C@H]1CCC[C@H]1c1ccc(Cl)cc1
DOCKED: REMARK SMILES IDX 3 1 2 2 1 3 19 4 20 5 23 6 21 7 22 8 24 9 25 10 30 11 26 12
DOCKED: REMARK SMILES IDX 29 13 27 14 28 15 4 16 5 17 6 18 7 20 8 21 9 22 18 23 10 24
DOCKED: REMARK SMILES IDX 17 25 11 26 16 27 12 28 15 29 13 30 14 31
DOCKED: REMARK H PARENT 5 19
DOCKED: USER                              x       y       z     vdW  Elec       q    Type
DOCKED: USER                           _______ _______ _______ _____ _____    ______ ____
DOCKED: ROOT
DOCKED: ATOM      1  C   UNL     1     138.351  78.327 222.478 -0.22 -0.02    +0.105 C  
DOCKED: ENDROOT
DOCKED: BRANCH   1   2
DOCKED: ATOM      2  N   UNL     1     139.359  78.994 221.689 -0.06 +0.07    -0.301 NA 
DOCKED: ATOM      3  C   UNL     1     138.711  79.668 220.604 -0.07 -0.02    +0.105 C  
DOCKED: BRANCH   2   4
DOCKED: ATOM      4  C   UNL     1     140.197  79.900 222.465 -0.32 -0.01    +0.064 C  
DOCKED: ATOM      5  C   UNL     1     140.539  79.388 223.804 -0.48 -0.00    +0.020 C  
DOCKED: ATOM      6  C   UNL     1     141.468  80.236 221.801 -0.41 -0.01    +0.036 C  
DOCKED: ATOM      7  C   UNL     1     142.001  79.227 223.891 -0.57 -0.00    +0.002 C  
DOCKED: ATOM      8  C   UNL     1     142.551  80.202 222.879 -0.64 -0.00    +0.010 C  
DOCKED: BRANCH   6   9
DOCKED: ATOM      9  C   UNL     1     141.844  79.424 220.633 -0.29 +0.02    -0.043 A  
DOCKED: ATOM     10  C   UNL     1     141.880  80.036 219.375 -0.30 -0.00    +0.005 A  
DOCKED: ATOM     11  C   UNL     1     142.171  78.089 220.674 -0.20 -0.00    +0.005 A  
DOCKED: ATOM     12  C   UNL     1     142.231  79.308 218.250 -0.30 -0.02    +0.021 A  
DOCKED: ATOM     13  C   UNL     1     142.523  77.365 219.537 -0.30 -0.01    +0.021 A  
DOCKED: ATOM     14  C   UNL     1     142.556  77.973 218.305 -0.31 -0.03    +0.041 A  
DOCKED: ATOM     15  Cl  UNL     1     142.997  77.072 216.877 -0.31 +0.06    -0.084 Cl 
DOCKED: ENDBRANCH   6   9
DOCKED: ENDBRANCH   2   4
DOCKED: ENDBRANCH   1   2
DOCKED: BRANCH   1  16
DOCKED: ATOM     16  C   UNL     1     138.519  76.842 222.528 -0.24 -0.03    +0.131 C  
DOCKED: BRANCH  16  17
DOCKED: ATOM     17  N   UNL     1     139.563  76.373 221.609 -0.13 +0.08    -0.349 N  
DOCKED: ATOM     18  C   UNL     1     140.036  75.044 221.602 -0.22 -0.05    +0.269 C  
DOCKED: ATOM     19  H   UNL     1     139.988  77.039 220.919 +0.06 -0.05    +0.163 HD 
DOCKED: ATOM     20  O   UNL     1     139.595  74.166 222.388 -0.78 +0.04    -0.268 OA 
DOCKED: BRANCH  18  21
DOCKED: ATOM     21  C   UNL     1     141.091  74.665 220.638 -0.20 -0.03    +0.128 A  
DOCKED: ATOM     22  C   UNL     1     140.807  74.568 219.292 -0.08 -0.01    +0.035 A  
DOCKED: ATOM     23  N   UNL     1     142.347  74.405 221.039 -0.13 +0.07    -0.243 NA 
DOCKED: ATOM     24  C   UNL     1     141.806  74.214 218.411 -0.07 -0.00    +0.013 A  
DOCKED: ATOM     25  C   UNL     1     143.343  74.057 220.196 -0.31 -0.02    +0.071 A  
DOCKED: ATOM     26  C   UNL     1     143.099  73.949 218.826 -0.18 -0.00    +0.003 A  
DOCKED: ATOM     27  C   UNL     1     144.626  73.798 220.635 -0.49 -0.01    +0.032 A  
DOCKED: ATOM     28  C   UNL     1     144.087  73.596 217.930 -0.15 -0.01    +0.049 A  
DOCKED: ATOM     29  C   UNL     1     145.652  73.440 219.768 -0.45 +0.00    +0.041 A  
DOCKED: ATOM     30  C   UNL     1     145.354  73.345 218.415 -0.18 +0.02    +0.123 A  
DOCKED: ATOM     31  F   UNL     1     146.318  72.999 217.530 +0.04 -0.23    -0.207 F  
DOCKED: ENDBRANCH  18  21
DOCKED: ENDBRANCH  16  17
DOCKED: ENDBRANCH   1  16
DOCKED: TORSDOF 6
DOCKED: TER
DOCKED: ENDMDL
________________________________________________________________________________


    FINAL DOCKED STATE:
    ________________________


Run:   15 / 20
Time taken for this run:   0.039s

DOCKED: MODEL        15
DOCKED: USER    Run = 15
DOCKED: USER
DOCKED: USER    Estimated Free Energy of Binding    =  -6.61 kcal/mol  [=(1)+(2)+(3)-(4)]
DOCKED: USER
DOCKED: USER    (1) Final Intermolecular Energy     =  -8.40 kcal/mol
DOCKED: USER        vdW + Hbond + desolv Energy     =  -8.35 kcal/mol
DOCKED: USER        Electrostatic Energy            =  -0.05 kcal/mol
DOCKED: USER        Moving Ligand-Fixed Receptor    =  -8.40 kcal/mol
DOCKED: USER        Moving Ligand-Moving Receptor   =  +0.00 kcal/mol
DOCKED: USER    (2) Final Total Internal Energy     =  -3.75 kcal/mol
DOCKED: USER    (3) Torsional Free Energy           =  +1.79 kcal/mol
DOCKED: USER    (4) Unbound System's Energy         =  -3.75 kcal/mol
DOCKED: USER
DOCKED: USER
DOCKED: REMARK SMILES CN(CCNC(=O)c1ccc2cc(F)ccc2n1)[C@H]1CCC[C@H]1c1ccc(Cl)cc1
DOCKED: REMARK SMILES IDX 3 1 2 2 1 3 19 4 20 5 23 6 21 7 22 8 24 9 25 10 30 11 26 12
DOCKED: REMARK SMILES IDX 29 13 27 14 28 15 4 16 5 17 6 18 7 20 8 21 9 22 18 23 10 24
DOCKED: REMARK SMILES IDX 17 25 11 26 16 27 12 28 15 29 13 30 14 31
DOCKED: REMARK H PARENT 5 19
DOCKED: USER                              x       y       z     vdW  Elec       q    Type
DOCKED: USER                           _______ _______ _______ _____ _____    ______ ____
DOCKED: ROOT
DOCKED: ATOM      1  C   UNL     1     141.900  80.800 221.115 -0.30 -0.04    +0.105 C  
DOCKED: ENDROOT
DOCKED: BRANCH   1   2
DOCKED: ATOM      2  N   UNL     1     141.991  79.908 222.246 -0.26 +0.11    -0.301 NA 
DOCKED: ATOM      3  C   UNL     1     143.311  80.005 222.793 -0.42 -0.04    +0.105 C  
DOCKED: BRANCH   2   4
DOCKED: ATOM      4  C   UNL     1     140.967  80.148 223.256 -0.47 -0.01    +0.064 C  
DOCKED: ATOM      5  C   UNL     1     140.101  81.301 222.958 -0.31 -0.00    +0.020 C  
DOCKED: ATOM      6  C   UNL     1     140.079  78.993 223.474 -0.39 -0.01    +0.036 C  
DOCKED: ATOM      7  C   UNL     1     138.714  80.825 222.802 -0.29 -0.00    +0.002 C  
DOCKED: ATOM      8  C   UNL     1     138.660  79.547 223.602 -0.33 -0.00    +0.010 C  
DOCKED: BRANCH   6   9
DOCKED: ATOM      9  C   UNL     1     140.146  77.905 222.487 -0.36 +0.01    -0.043 A  
DOCKED: ATOM     10  C   UNL     1     141.049  76.858 222.703 -0.36 -0.00    +0.005 A  
DOCKED: ATOM     11  C   UNL     1     139.380  77.827 221.347 -0.19 -0.00    +0.005 A  
DOCKED: ATOM     12  C   UNL     1     141.142  75.813 221.798 -0.32 -0.01    +0.021 A  
DOCKED: ATOM     13  C   UNL     1     139.481  76.772 220.443 -0.12 -0.01    +0.021 A  
DOCKED: ATOM     14  C   UNL     1     140.370  75.747 220.662 -0.20 -0.01    +0.041 A  
DOCKED: ATOM     15  Cl  UNL     1     140.500  74.422 219.535 -0.11 +0.02    -0.084 Cl 
DOCKED: ENDBRANCH   6   9
DOCKED: ENDBRANCH   2   4
DOCKED: ENDBRANCH   1   2
DOCKED: BRANCH   1  16
DOCKED: ATOM     16  C   UNL     1     141.552  80.108 219.836 -0.24 -0.06    +0.131 C  
DOCKED: BRANCH  16  17
DOCKED: ATOM     17  N   UNL     1     142.191  78.790 219.730 -0.07 +0.25    -0.349 N  
DOCKED: ATOM     18  C   UNL     1     142.227  78.052 218.528 -0.19 -0.18    +0.269 C  
DOCKED: ATOM     19  H   UNL     1     142.645  78.362 220.572 -0.35 -0.16    +0.163 HD 
DOCKED: ATOM     20  O   UNL     1     141.711  78.473 217.461 -0.11 +0.18    -0.268 OA 
DOCKED: BRANCH  18  21
DOCKED: ATOM     21  C   UNL     1     142.894  76.732 218.519 -0.27 -0.08    +0.128 A  
DOCKED: ATOM     22  C   UNL     1     142.976  75.997 217.355 -0.20 -0.02    +0.035 A  
DOCKED: ATOM     23  N   UNL     1     143.436  76.213 219.634 -0.27 +0.16    -0.243 NA 
DOCKED: ATOM     24  C   UNL     1     143.603  74.770 217.369 -0.16 -0.00    +0.013 A  
DOCKED: ATOM     25  C   UNL     1     144.056  75.014 219.674 -0.34 -0.04    +0.071 A  
DOCKED: ATOM     26  C   UNL     1     144.163  74.238 218.518 -0.19 -0.00    +0.003 A  
DOCKED: ATOM     27  C   UNL     1     144.607  74.505 220.833 -0.28 -0.01    +0.032 A  
DOCKED: ATOM     28  C   UNL     1     144.787  73.009 218.514 -0.22 +0.00    +0.049 A  
DOCKED: ATOM     29  C   UNL     1     145.246  73.271 220.875 -0.57 -0.01    +0.041 A  
DOCKED: ATOM     30  C   UNL     1     145.321  72.539 219.696 -0.34 +0.02    +0.123 A  
DOCKED: ATOM     31  F   UNL     1     145.933  71.332 219.685 -0.09 -0.12    -0.207 F  
DOCKED: ENDBRANCH  18  21
DOCKED: ENDBRANCH  16  17
DOCKED: ENDBRANCH   1  16
DOCKED: TORSDOF 6
DOCKED: TER
DOCKED: ENDMDL
________________________________________________________________________________


    FINAL DOCKED STATE:
    ________________________


Run:   16 / 20
Time taken for this run:   0.039s

DOCKED: MODEL        16
DOCKED: USER    Run = 16
DOCKED: USER
DOCKED: USER    Estimated Free Energy of Binding    =  -6.40 kcal/mol  [=(1)+(2)+(3)-(4)]
DOCKED: USER
DOCKED: USER    (1) Final Intermolecular Energy     =  -8.19 kcal/mol
DOCKED: USER        vdW + Hbond + desolv Energy     =  -8.12 kcal/mol
DOCKED: USER        Electrostatic Energy            =  -0.07 kcal/mol
DOCKED: USER        Moving Ligand-Fixed Receptor    =  -8.19 kcal/mol
DOCKED: USER        Moving Ligand-Moving Receptor   =  +0.00 kcal/mol
DOCKED: USER    (2) Final Total Internal Energy     =  -3.84 kcal/mol
DOCKED: USER    (3) Torsional Free Energy           =  +1.79 kcal/mol
DOCKED: USER    (4) Unbound System's Energy         =  -3.84 kcal/mol
DOCKED: USER
DOCKED: USER
DOCKED: REMARK SMILES CN(CCNC(=O)c1ccc2cc(F)ccc2n1)[C@H]1CCC[C@H]1c1ccc(Cl)cc1
DOCKED: REMARK SMILES IDX 3 1 2 2 1 3 19 4 20 5 23 6 21 7 22 8 24 9 25 10 30 11 26 12
DOCKED: REMARK SMILES IDX 29 13 27 14 28 15 4 16 5 17 6 18 7 20 8 21 9 22 18 23 10 24
DOCKED: REMARK SMILES IDX 17 25 11 26 16 27 12 28 15 29 13 30 14 31
DOCKED: REMARK H PARENT 5 19
DOCKED: USER                              x       y       z     vdW  Elec       q    Type
DOCKED: USER                           _______ _______ _______ _____ _____    ______ ____
DOCKED: ROOT
DOCKED: ATOM      1  C   UNL     1     141.895  81.000 221.167 -0.29 -0.03    +0.105 C  
DOCKED: ENDROOT
DOCKED: BRANCH   1   2
DOCKED: ATOM      2  N   UNL     1     141.984  80.007 222.211 -0.26 +0.11    -0.301 NA 
DOCKED: ATOM      3  C   UNL     1     143.311  80.035 222.749 -0.43 -0.04    +0.105 C  
DOCKED: BRANCH   2   4
DOCKED: ATOM      4  C   UNL     1     140.975  80.168 223.251 -0.47 -0.01    +0.064 C  
DOCKED: ATOM      5  C   UNL     1     140.030  81.268 222.993 -0.32 -0.00    +0.020 C  
DOCKED: ATOM      6  C   UNL     1     140.167  78.957 223.474 -0.38 -0.01    +0.036 C  
DOCKED: ATOM      7  C   UNL     1     138.673  80.707 222.865 -0.30 -0.00    +0.002 C  
DOCKED: ATOM      8  C   UNL     1     138.720  79.417 223.647 -0.30 -0.00    +0.010 C  
DOCKED: BRANCH   6   9
DOCKED: ATOM      9  C   UNL     1     140.276  77.888 222.469 -0.37 +0.01    -0.043 A  
DOCKED: ATOM     10  C   UNL     1     139.527  77.996 221.291 -0.19 -0.00    +0.005 A  
DOCKED: ATOM     11  C   UNL     1     141.067  76.770 222.590 -0.35 -0.00    +0.005 A  
DOCKED: ATOM     12  C   UNL     1     139.602  77.012 220.319 -0.11 -0.01    +0.021 A  
DOCKED: ATOM     13  C   UNL     1     141.136  75.786 221.607 -0.34 -0.01    +0.021 A  
DOCKED: ATOM     14  C   UNL     1     140.398  75.899 220.452 -0.18 -0.01    +0.041 A  
DOCKED: ATOM     15  Cl  UNL     1     140.481  74.671 219.216 -0.09 +0.02    -0.084 Cl 
DOCKED: ENDBRANCH   6   9
DOCKED: ENDBRANCH   2   4
DOCKED: ENDBRANCH   1   2
DOCKED: BRANCH   1  16
DOCKED: ATOM     16  C   UNL     1     141.605  80.423 219.818 -0.25 -0.06    +0.131 C  
DOCKED: BRANCH  16  17
DOCKED: ATOM     17  N   UNL     1     142.198  79.091 219.649 -0.08 +0.24    -0.349 N  
DOCKED: ATOM     18  C   UNL     1     142.254  78.432 218.402 -0.20 -0.19    +0.269 C  
DOCKED: ATOM     19  H   UNL     1     142.603  78.592 220.477 -0.32 -0.15    +0.163 HD 
DOCKED: ATOM     20  O   UNL     1     141.797  78.942 217.347 -0.13 +0.20    -0.268 OA 
DOCKED: BRANCH  18  21
DOCKED: ATOM     21  C   UNL     1     142.872  77.090 218.330 -0.27 -0.08    +0.128 A  
DOCKED: ATOM     22  C   UNL     1     142.929  76.410 217.132 -0.22 -0.02    +0.035 A  
DOCKED: ATOM     23  N   UNL     1     143.394  76.499 219.418 -0.26 +0.17    -0.243 NA 
DOCKED: ATOM     24  C   UNL     1     143.511  75.161 217.088 -0.17 -0.01    +0.013 A  
DOCKED: ATOM     25  C   UNL     1     143.969  75.277 219.401 -0.23 -0.04    +0.071 A  
DOCKED: ATOM     26  C   UNL     1     144.049  74.554 218.209 -0.17 -0.00    +0.003 A  
DOCKED: ATOM     27  C   UNL     1     144.499  74.694 220.534 -0.35 -0.01    +0.032 A  
DOCKED: ATOM     28  C   UNL     1     144.627  73.304 218.147 -0.18 -0.00    +0.049 A  
DOCKED: ATOM     29  C   UNL     1     145.092  73.437 220.517 -0.53 -0.01    +0.041 A  
DOCKED: ATOM     30  C   UNL     1     145.143  72.760 219.305 -0.29 +0.02    +0.123 A  
DOCKED: ATOM     31  F   UNL     1     145.709  71.533 219.235 -0.08 -0.14    -0.207 F  
DOCKED: ENDBRANCH  18  21
DOCKED: ENDBRANCH  16  17
DOCKED: ENDBRANCH   1  16
DOCKED: TORSDOF 6
DOCKED: TER
DOCKED: ENDMDL
________________________________________________________________________________


    FINAL DOCKED STATE:
    ________________________


Run:   17 / 20
Time taken for this run:   0.039s

DOCKED: MODEL        17
DOCKED: USER    Run = 17
DOCKED: USER
DOCKED: USER    Estimated Free Energy of Binding    =  -6.63 kcal/mol  [=(1)+(2)+(3)-(4)]
DOCKED: USER
DOCKED: USER    (1) Final Intermolecular Energy     =  -8.42 kcal/mol
DOCKED: USER        vdW + Hbond + desolv Energy     =  -8.35 kcal/mol
DOCKED: USER        Electrostatic Energy            =  -0.07 kcal/mol
DOCKED: USER        Moving Ligand-Fixed Receptor    =  -8.42 kcal/mol
DOCKED: USER        Moving Ligand-Moving Receptor   =  +0.00 kcal/mol
DOCKED: USER    (2) Final Total Internal Energy     =  -3.66 kcal/mol
DOCKED: USER    (3) Torsional Free Energy           =  +1.79 kcal/mol
DOCKED: USER    (4) Unbound System's Energy         =  -3.66 kcal/mol
DOCKED: USER
DOCKED: USER
DOCKED: REMARK SMILES CN(CCNC(=O)c1ccc2cc(F)ccc2n1)[C@H]1CCC[C@H]1c1ccc(Cl)cc1
DOCKED: REMARK SMILES IDX 3 1 2 2 1 3 19 4 20 5 23 6 21 7 22 8 24 9 25 10 30 11 26 12
DOCKED: REMARK SMILES IDX 29 13 27 14 28 15 4 16 5 17 6 18 7 20 8 21 9 22 18 23 10 24
DOCKED: REMARK SMILES IDX 17 25 11 26 16 27 12 28 15 29 13 30 14 31
DOCKED: REMARK H PARENT 5 19
DOCKED: USER                              x       y       z     vdW  Elec       q    Type
DOCKED: USER                           _______ _______ _______ _____ _____    ______ ____
DOCKED: ROOT
DOCKED: ATOM      1  C   UNL     1     141.852  80.781 221.130 -0.32 -0.04    +0.105 C  
DOCKED: ENDROOT
DOCKED: BRANCH   1   2
DOCKED: ATOM      2  N   UNL     1     141.849  79.883 222.261 -0.25 +0.11    -0.301 NA 
DOCKED: ATOM      3  C   UNL     1     143.142  79.926 222.875 -0.46 -0.04    +0.105 C  
DOCKED: BRANCH   2   4
DOCKED: ATOM      4  C   UNL     1     140.785  80.160 223.218 -0.45 -0.01    +0.064 C  
DOCKED: ATOM      5  C   UNL     1     139.927  81.296 222.837 -0.31 -0.00    +0.020 C  
DOCKED: ATOM      6  C   UNL     1     139.893  79.011 223.450 -0.38 -0.01    +0.036 C  
DOCKED: ATOM      7  C   UNL     1     138.550  80.806 222.646 -0.26 -0.00    +0.002 C  
DOCKED: ATOM      8  C   UNL     1     138.468  79.563 223.498 -0.32 -0.00    +0.010 C  
DOCKED: BRANCH   6   9
DOCKED: ATOM      9  C   UNL     1     140.003  77.882 222.513 -0.35 +0.01    -0.043 A  
DOCKED: ATOM     10  C   UNL     1     141.019  76.941 222.714 -0.37 -0.00    +0.005 A  
DOCKED: ATOM     11  C   UNL     1     139.175  77.669 221.435 -0.20 -0.00    +0.005 A  
DOCKED: ATOM     12  C   UNL     1     141.155  75.862 221.855 -0.31 -0.01    +0.021 A  
DOCKED: ATOM     13  C   UNL     1     139.321  76.582 220.578 -0.13 -0.01    +0.021 A  
DOCKED: ATOM     14  C   UNL     1     140.321  75.660 220.782 -0.22 -0.01    +0.041 A  
DOCKED: ATOM     15  Cl  UNL     1     140.507  74.295 219.712 -0.13 +0.02    -0.084 Cl 
DOCKED: ENDBRANCH   6   9
DOCKED: ENDBRANCH   2   4
DOCKED: ENDBRANCH   1   2
DOCKED: BRANCH   1  16
DOCKED: ATOM     16  C   UNL     1     141.548  80.106 219.831 -0.24 -0.06    +0.131 C  
DOCKED: BRANCH  16  17
DOCKED: ATOM     17  N   UNL     1     142.198  78.794 219.726 -0.07 +0.25    -0.349 N  
DOCKED: ATOM     18  C   UNL     1     142.182  78.025 218.543 -0.19 -0.18    +0.269 C  
DOCKED: ATOM     19  H   UNL     1     142.703  78.394 220.553 -0.35 -0.16    +0.163 HD 
DOCKED: ATOM     20  O   UNL     1     141.605  78.412 217.494 -0.10 +0.17    -0.268 OA 
DOCKED: BRANCH  18  21
DOCKED: ATOM     21  C   UNL     1     142.867  76.715 218.532 -0.27 -0.08    +0.128 A  
DOCKED: ATOM     22  C   UNL     1     142.946  75.976 217.369 -0.20 -0.02    +0.035 A  
DOCKED: ATOM     23  N   UNL     1     143.429  76.207 219.642 -0.27 +0.16    -0.243 NA 
DOCKED: ATOM     24  C   UNL     1     143.590  74.758 217.382 -0.16 -0.00    +0.013 A  
DOCKED: ATOM     25  C   UNL     1     144.065  75.017 219.680 -0.34 -0.04    +0.071 A  
DOCKED: ATOM     26  C   UNL     1     144.169  74.238 218.527 -0.19 -0.00    +0.003 A  
DOCKED: ATOM     27  C   UNL     1     144.635  74.521 220.836 -0.28 -0.01    +0.032 A  
DOCKED: ATOM     28  C   UNL     1     144.810  73.017 218.522 -0.22 +0.00    +0.049 A  
DOCKED: ATOM     29  C   UNL     1     145.291  73.296 220.876 -0.58 -0.01    +0.041 A  
DOCKED: ATOM     30  C   UNL     1     145.363  72.560 219.700 -0.34 +0.03    +0.123 A  
DOCKED: ATOM     31  F   UNL     1     145.991  71.361 219.687 -0.09 -0.13    -0.207 F  
DOCKED: ENDBRANCH  18  21
DOCKED: ENDBRANCH  16  17
DOCKED: ENDBRANCH   1  16
DOCKED: TORSDOF 6
DOCKED: TER
DOCKED: ENDMDL
________________________________________________________________________________


    FINAL DOCKED STATE:
    ________________________


Run:   18 / 20
Time taken for this run:   0.039s

DOCKED: MODEL        18
DOCKED: USER    Run = 18
DOCKED: USER
DOCKED: USER    Estimated Free Energy of Binding    =  -6.65 kcal/mol  [=(1)+(2)+(3)-(4)]
DOCKED: USER
DOCKED: USER    (1) Final Intermolecular Energy     =  -8.44 kcal/mol
DOCKED: USER        vdW + Hbond + desolv Energy     =  -8.24 kcal/mol
DOCKED: USER        Electrostatic Energy            =  -0.20 kcal/mol
DOCKED: USER        Moving Ligand-Fixed Receptor    =  -8.44 kcal/mol
DOCKED: USER        Moving Ligand-Moving Receptor   =  +0.00 kcal/mol
DOCKED: USER    (2) Final Total Internal Energy     =  -3.33 kcal/mol
DOCKED: USER    (3) Torsional Free Energy           =  +1.79 kcal/mol
DOCKED: USER    (4) Unbound System's Energy         =  -3.33 kcal/mol
DOCKED: USER
DOCKED: USER
DOCKED: REMARK SMILES CN(CCNC(=O)c1ccc2cc(F)ccc2n1)[C@H]1CCC[C@H]1c1ccc(Cl)cc1
DOCKED: REMARK SMILES IDX 3 1 2 2 1 3 19 4 20 5 23 6 21 7 22 8 24 9 25 10 30 11 26 12
DOCKED: REMARK SMILES IDX 29 13 27 14 28 15 4 16 5 17 6 18 7 20 8 21 9 22 18 23 10 24
DOCKED: REMARK SMILES IDX 17 25 11 26 16 27 12 28 15 29 13 30 14 31
DOCKED: REMARK H PARENT 5 19
DOCKED: USER                              x       y       z     vdW  Elec       q    Type
DOCKED: USER                           _______ _______ _______ _____ _____    ______ ____
DOCKED: ROOT
DOCKED: ATOM      1  C   UNL     1     138.411  78.442 222.583 -0.23 -0.02    +0.105 C  
DOCKED: ENDROOT
DOCKED: BRANCH   1   2
DOCKED: ATOM      2  N   UNL     1     139.408  79.085 221.760 -0.07 +0.07    -0.301 NA 
DOCKED: ATOM      3  C   UNL     1     138.747  79.710 220.654 -0.08 -0.02    +0.105 C  
DOCKED: BRANCH   2   4
DOCKED: ATOM      4  C   UNL     1     140.245  80.028 222.494 -0.33 -0.01    +0.064 C  
DOCKED: ATOM      5  C   UNL     1     140.660  79.540 223.821 -0.49 -0.00    +0.020 C  
DOCKED: ATOM      6  C   UNL     1     141.473  80.403 221.774 -0.41 -0.01    +0.036 C  
DOCKED: ATOM      7  C   UNL     1     142.130  79.433 223.847 -0.59 -0.00    +0.002 C  
DOCKED: ATOM      8  C   UNL     1     142.601  80.418 222.806 -0.63 -0.00    +0.010 C  
DOCKED: BRANCH   6   9
DOCKED: ATOM      9  C   UNL     1     141.830  79.595 220.597 -0.31 +0.02    -0.043 A  
DOCKED: ATOM     10  C   UNL     1     142.111  78.236 220.777 -0.21 -0.00    +0.005 A  
DOCKED: ATOM     11  C   UNL     1     141.911  80.072 219.310 -0.30 -0.00    +0.005 A  
DOCKED: ATOM     12  C   UNL     1     142.450  77.441 219.695 -0.29 -0.01    +0.021 A  
DOCKED: ATOM     13  C   UNL     1     142.252  79.264 218.228 -0.30 -0.02    +0.021 A  
DOCKED: ATOM     14  C   UNL     1     142.527  77.929 218.412 -0.31 -0.03    +0.041 A  
DOCKED: ATOM     15  Cl  UNL     1     142.953  76.912 217.061 -0.31 +0.06    -0.084 Cl 
DOCKED: ENDBRANCH   6   9
DOCKED: ENDBRANCH   2   4
DOCKED: ENDBRANCH   1   2
DOCKED: BRANCH   1  16
DOCKED: ATOM     16  C   UNL     1     138.586  76.961 222.683 -0.23 -0.02    +0.131 C  
DOCKED: BRANCH  16  17
DOCKED: ATOM     17  N   UNL     1     139.618  76.463 221.765 -0.14 +0.08    -0.349 N  
DOCKED: ATOM     18  C   UNL     1     139.962  75.098 221.668 -0.21 -0.05    +0.269 C  
DOCKED: ATOM     19  H   UNL     1     140.132  77.134 221.145 +0.06 -0.05    +0.163 HD 
DOCKED: ATOM     20  O   UNL     1     139.407  74.211 222.366 -0.72 +0.05    -0.268 OA 
DOCKED: BRANCH  18  21
DOCKED: ATOM     21  C   UNL     1     141.015  74.692 220.712 -0.21 -0.03    +0.128 A  
DOCKED: ATOM     22  C   UNL     1     140.704  74.450 219.390 -0.08 -0.01    +0.035 A  
DOCKED: ATOM     23  N   UNL     1     142.294  74.547 221.098 -0.13 +0.07    -0.243 NA 
DOCKED: ATOM     24  C   UNL     1     141.701  74.073 218.517 -0.07 -0.00    +0.013 A  
DOCKED: ATOM     25  C   UNL     1     143.289  74.180 220.262 -0.31 -0.02    +0.071 A  
DOCKED: ATOM     26  C   UNL     1     143.019  73.926 218.916 -0.18 -0.00    +0.003 A  
DOCKED: ATOM     27  C   UNL     1     144.596  74.041 220.684 -0.47 -0.01    +0.032 A  
DOCKED: ATOM     28  C   UNL     1     144.004  73.549 218.028 -0.14 -0.01    +0.049 A  
DOCKED: ATOM     29  C   UNL     1     145.620  73.663 219.824 -0.41 -0.00    +0.041 A  
DOCKED: ATOM     30  C   UNL     1     145.296  73.421 218.495 -0.17 +0.01    +0.123 A  
DOCKED: ATOM     31  F   UNL     1     146.257  73.050 217.618 +0.03 -0.21    -0.207 F  
DOCKED: ENDBRANCH  18  21
DOCKED: ENDBRANCH  16  17
DOCKED: ENDBRANCH   1  16
DOCKED: TORSDOF 6
DOCKED: TER
DOCKED: ENDMDL
________________________________________________________________________________


    FINAL DOCKED STATE:
    ________________________


Run:   19 / 20
Time taken for this run:   0.039s

DOCKED: MODEL        19
DOCKED: USER    Run = 19
DOCKED: USER
DOCKED: USER    Estimated Free Energy of Binding    =  -7.63 kcal/mol  [=(1)+(2)+(3)-(4)]
DOCKED: USER
DOCKED: USER    (1) Final Intermolecular Energy     =  -9.42 kcal/mol
DOCKED: USER        vdW + Hbond + desolv Energy     =  -9.45 kcal/mol
DOCKED: USER        Electrostatic Energy            =  +0.03 kcal/mol
DOCKED: USER        Moving Ligand-Fixed Receptor    =  -9.42 kcal/mol
DOCKED: USER        Moving Ligand-Moving Receptor   =  +0.00 kcal/mol
DOCKED: USER    (2) Final Total Internal Energy     =  -1.92 kcal/mol
DOCKED: USER    (3) Torsional Free Energy           =  +1.79 kcal/mol
DOCKED: USER    (4) Unbound System's Energy         =  -1.92 kcal/mol
DOCKED: USER
DOCKED: USER
DOCKED: REMARK SMILES CN(CCNC(=O)c1ccc2cc(F)ccc2n1)[C@H]1CCC[C@H]1c1ccc(Cl)cc1
DOCKED: REMARK SMILES IDX 3 1 2 2 1 3 19 4 20 5 23 6 21 7 22 8 24 9 25 10 30 11 26 12
DOCKED: REMARK SMILES IDX 29 13 27 14 28 15 4 16 5 17 6 18 7 20 8 21 9 22 18 23 10 24
DOCKED: REMARK SMILES IDX 17 25 11 26 16 27 12 28 15 29 13 30 14 31
DOCKED: REMARK H PARENT 5 19
DOCKED: USER                              x       y       z     vdW  Elec       q    Type
DOCKED: USER                           _______ _______ _______ _____ _____    ______ ____
DOCKED: ROOT
DOCKED: ATOM      1  C   UNL     1     140.351  74.034 220.211 -0.12 -0.02    +0.105 C  
DOCKED: ENDROOT
DOCKED: BRANCH   1   2
DOCKED: ATOM      2  N   UNL     1     141.408  75.000 220.390 -0.11 +0.09    -0.301 NA 
DOCKED: ATOM      3  C   UNL     1     140.940  76.022 221.278 -0.29 -0.04    +0.105 C  
DOCKED: BRANCH   2   4
DOCKED: ATOM      4  C   UNL     1     142.658  74.412 220.854 -0.20 -0.02    +0.064 C  
DOCKED: ATOM      5  C   UNL     1     142.659  72.939 220.841 -0.26 -0.00    +0.020 C  
DOCKED: ATOM      6  C   UNL     1     143.832  74.845 220.077 -0.40 -0.02    +0.036 C  
DOCKED: ATOM      7  C   UNL     1     143.703  72.473 219.910 -0.28 -0.00    +0.002 C  
DOCKED: ATOM      8  C   UNL     1     144.700  73.605 219.861 -0.44 -0.00    +0.010 C  
DOCKED: BRANCH   6   9
DOCKED: ATOM      9  C   UNL     1     143.571  75.548 218.811 -0.28 +0.02    -0.043 A  
DOCKED: ATOM     10  C   UNL     1     143.171  76.888 218.858 -0.35 -0.00    +0.005 A  
DOCKED: ATOM     11  C   UNL     1     143.690  74.988 217.561 -0.19 -0.00    +0.005 A  
DOCKED: ATOM     12  C   UNL     1     142.917  77.586 217.689 -0.30 -0.02    +0.021 A  
DOCKED: ATOM     13  C   UNL     1     143.433  75.698 216.390 -0.18 -0.01    +0.021 A  
DOCKED: ATOM     14  C   UNL     1     143.041  77.015 216.445 -0.21 -0.03    +0.041 A  
DOCKED: ATOM     15  Cl  UNL     1     142.718  77.910 214.983 -0.16 +0.08    -0.084 Cl 
DOCKED: ENDBRANCH   6   9
DOCKED: ENDBRANCH   2   4
DOCKED: ENDBRANCH   1   2
DOCKED: BRANCH   1  16
DOCKED: ATOM     16  C   UNL     1     139.245  74.166 221.209 -0.17 -0.03    +0.131 C  
DOCKED: BRANCH  16  17
DOCKED: ATOM     17  N   UNL     1     139.422  73.262 222.352 -0.12 +0.07    -0.349 N  
DOCKED: ATOM     18  C   UNL     1     139.453  71.857 222.218 -0.17 -0.05    +0.269 C  
DOCKED: ATOM     19  H   UNL     1     139.534  73.656 223.316 -0.47 -0.04    +0.163 HD 
DOCKED: ATOM     20  O   UNL     1     139.329  71.282 221.106 -0.06 +0.05    -0.268 OA 
DOCKED: BRANCH  18  21
DOCKED: ATOM     21  C   UNL     1     139.637  71.027 223.428 -0.28 -0.02    +0.128 A  
DOCKED: ATOM     22  C   UNL     1     139.287  69.693 223.422 -0.24 -0.01    +0.035 A  
DOCKED: ATOM     23  N   UNL     1     140.148  71.541 224.560 -0.29 +0.04    -0.243 NA 
DOCKED: ATOM     24  C   UNL     1     139.468  68.939 224.561 -0.33 -0.00    +0.013 A  
DOCKED: ATOM     25  C   UNL     1     140.336  70.823 225.688 -0.51 -0.01    +0.071 A  
DOCKED: ATOM     26  C   UNL     1     139.996  69.470 225.725 -0.47 -0.00    +0.003 A  
DOCKED: ATOM     27  C   UNL     1     140.865  71.377 226.837 -0.69 -0.01    +0.032 A  
DOCKED: ATOM     28  C   UNL     1     140.171  68.700 226.855 -0.58 -0.01    +0.049 A  
DOCKED: ATOM     29  C   UNL     1     141.060  70.638 227.998 -0.62 -0.01    +0.041 A  
DOCKED: ATOM     30  C   UNL     1     140.701  69.296 227.981 -0.52 -0.02    +0.123 A  
DOCKED: ATOM     31  F   UNL     1     140.870  68.534 229.086 -0.15 +0.05    -0.207 F  
DOCKED: ENDBRANCH  18  21
DOCKED: ENDBRANCH  16  17
DOCKED: ENDBRANCH   1  16
DOCKED: TORSDOF 6
DOCKED: TER
DOCKED: ENDMDL
________________________________________________________________________________


    FINAL DOCKED STATE:
    ________________________


Run:   20 / 20
Time taken for this run:   0.039s

DOCKED: MODEL        20
DOCKED: USER    Run = 20
DOCKED: USER
DOCKED: USER    Estimated Free Energy of Binding    =  -6.30 kcal/mol  [=(1)+(2)+(3)-(4)]
DOCKED: USER
DOCKED: USER    (1) Final Intermolecular Energy     =  -8.09 kcal/mol
DOCKED: USER        vdW + Hbond + desolv Energy     =  -8.05 kcal/mol
DOCKED: USER        Electrostatic Energy            =  -0.05 kcal/mol
DOCKED: USER        Moving Ligand-Fixed Receptor    =  -8.09 kcal/mol
DOCKED: USER        Moving Ligand-Moving Receptor   =  +0.00 kcal/mol
DOCKED: USER    (2) Final Total Internal Energy     =  -3.91 kcal/mol
DOCKED: USER    (3) Torsional Free Energy           =  +1.79 kcal/mol
DOCKED: USER    (4) Unbound System's Energy         =  -3.91 kcal/mol
DOCKED: USER
DOCKED: USER
DOCKED: REMARK SMILES CN(CCNC(=O)c1ccc2cc(F)ccc2n1)[C@H]1CCC[C@H]1c1ccc(Cl)cc1
DOCKED: REMARK SMILES IDX 3 1 2 2 1 3 19 4 20 5 23 6 21 7 22 8 24 9 25 10 30 11 26 12
DOCKED: REMARK SMILES IDX 29 13 27 14 28 15 4 16 5 17 6 18 7 20 8 21 9 22 18 23 10 24
DOCKED: REMARK SMILES IDX 17 25 11 26 16 27 12 28 15 29 13 30 14 31
DOCKED: REMARK H PARENT 5 19
DOCKED: USER                              x       y       z     vdW  Elec       q    Type
DOCKED: USER                           _______ _______ _______ _____ _____    ______ ____
DOCKED: ROOT
DOCKED: ATOM      1  C   UNL     1     141.834  81.153 221.219 -0.31 -0.03    +0.105 C  
DOCKED: ENDROOT
DOCKED: BRANCH   1   2
DOCKED: ATOM      2  N   UNL     1     141.882  80.095 222.200 -0.25 +0.11    -0.301 NA 
DOCKED: ATOM      3  C   UNL     1     143.208  80.037 222.737 -0.46 -0.04    +0.105 C  
DOCKED: BRANCH   2   4
DOCKED: ATOM      4  C   UNL     1     140.878  80.231 223.248 -0.46 -0.01    +0.064 C  
DOCKED: ATOM      5  C   UNL     1     139.902  81.306 222.997 -0.28 -0.00    +0.020 C  
DOCKED: ATOM      6  C   UNL     1     140.105  79.000 223.481 -0.39 -0.01    +0.036 C  
DOCKED: ATOM      7  C   UNL     1     138.559  80.709 222.882 -0.29 -0.00    +0.002 C  
DOCKED: ATOM      8  C   UNL     1     138.647  79.423 223.667 -0.28 -0.00    +0.010 C  
DOCKED: BRANCH   6   9
DOCKED: ATOM      9  C   UNL     1     140.233  77.932 222.477 -0.37 +0.01    -0.043 A  
DOCKED: ATOM     10  C   UNL     1     139.475  78.021 221.304 -0.19 -0.00    +0.005 A  
DOCKED: ATOM     11  C   UNL     1     141.050  76.832 222.596 -0.36 -0.00    +0.005 A  
DOCKED: ATOM     12  C   UNL     1     139.567  77.037 220.333 -0.11 -0.01    +0.021 A  
DOCKED: ATOM     13  C   UNL     1     141.136  75.849 221.614 -0.34 -0.01    +0.021 A  
DOCKED: ATOM     14  C   UNL     1     140.389  75.943 220.464 -0.18 -0.01    +0.041 A  
DOCKED: ATOM     15  Cl  UNL     1     140.493  74.715 219.229 -0.09 +0.02    -0.084 Cl 
DOCKED: ENDBRANCH   6   9
DOCKED: ENDBRANCH   2   4
DOCKED: ENDBRANCH   1   2
DOCKED: BRANCH   1  16
DOCKED: ATOM     16  C   UNL     1     141.665  80.660 219.817 -0.25 -0.06    +0.131 C  
DOCKED: BRANCH  16  17
DOCKED: ATOM     17  N   UNL     1     142.199  79.304 219.641 -0.08 +0.24    -0.349 N  
DOCKED: ATOM     18  C   UNL     1     142.253  78.660 218.387 -0.20 -0.20    +0.269 C  
DOCKED: ATOM     19  H   UNL     1     142.562  78.775 220.470 -0.30 -0.15    +0.163 HD 
DOCKED: ATOM     20  O   UNL     1     141.843  79.205 217.330 -0.14 +0.21    -0.268 OA 
DOCKED: BRANCH  18  21
DOCKED: ATOM     21  C   UNL     1     142.810  77.293 218.308 -0.27 -0.09    +0.128 A  
DOCKED: ATOM     22  C   UNL     1     142.782  76.593 217.119 -0.21 -0.02    +0.035 A  
DOCKED: ATOM     23  N   UNL     1     143.356  76.695 219.381 -0.26 +0.18    -0.243 NA 
DOCKED: ATOM     24  C   UNL     1     143.308  75.320 217.069 -0.17 -0.01    +0.013 A  
DOCKED: ATOM     25  C   UNL     1     143.877  75.450 219.357 -0.23 -0.04    +0.071 A  
DOCKED: ATOM     26  C   UNL     1     143.870  74.707 218.175 -0.17 -0.00    +0.003 A  
DOCKED: ATOM     27  C   UNL     1     144.434  74.860 220.474 -0.37 -0.02    +0.032 A  
DOCKED: ATOM     28  C   UNL     1     144.392  73.432 218.106 -0.17 -0.01    +0.049 A  
DOCKED: ATOM     29  C   UNL     1     144.972  73.578 220.450 -0.52 -0.01    +0.041 A  
DOCKED: ATOM     30  C   UNL     1     144.937  72.883 219.248 -0.27 +0.01    +0.123 A  
DOCKED: ATOM     31  F   UNL     1     145.447  71.631 219.173 -0.07 -0.11    -0.207 F  
DOCKED: ENDBRANCH  18  21
DOCKED: ENDBRANCH  16  17
DOCKED: ENDBRANCH   1  16
DOCKED: TORSDOF 6
DOCKED: TER
DOCKED: ENDMDL
________________________________________________________________________________


    CLUSTERING HISTOGRAM
    ____________________


________________________________________________________________________________
     |           |     |           |     |
Clus | Lowest    | Run | Mean      | Num | Histogram
-ter | Binding   |     | Binding   | in  |
Rank | Energy    |     | Energy    | Clus|    5    10   15   20   25   30   35
_____|___________|_____|___________|_____|____:____|____:____|____:____|____:___
   1 |     -8.62 |   5 |     -8.46 |   4 |####
   2 |     -7.63 |  19 |     -7.63 |   1 |#
   3 |     -7.08 |   6 |     -6.75 |   8 |########
   4 |     -6.64 |   8 |     -6.49 |   7 |#######
_____|___________|_____|___________|_____|______________________________________


    RMSD TABLE
    __________


_______________________________________________________________________
     |      |      |           |         |                 |
Rank | Sub- | Run  | Binding   | Cluster | Reference       | Grep
     | Rank |      | Energy    | RMSD    | RMSD            | Pattern
_____|______|______|___________|_________|_________________|___________
   1      1      5       -8.62      0.00    270.72           RANKING
   1      2     10       -8.53      0.23    270.74           RANKING
   1      3     13       -8.43      0.28    270.70           RANKING
   1      4      1       -8.25      0.64    270.66           RANKING
   2      1     19       -7.63      0.00    270.09           RANKING
   3      1      6       -7.08      0.00    270.36           RANKING
   3      2      9       -6.81      1.14    270.10           RANKING
   3      3      7       -6.77      1.16    270.08           RANKING
   3      4      2       -6.76      1.14    270.13           RANKING
   3      5     11       -6.75      1.15    270.10           RANKING
   3      6     14       -6.74      1.14    270.10           RANKING
   3      7     18       -6.65      1.09    270.17           RANKING
   3      8      3       -6.41      1.54    270.50           RANKING
   4      1      8       -6.64      0.00    270.45           RANKING
   4      2     17       -6.63      0.14    270.41           RANKING
   4      3     15       -6.61      0.06    270.43           RANKING
   4      4      4       -6.50      0.14    270.40           RANKING
   4      5     16       -6.40      0.37    270.35           RANKING
   4      6     12       -6.35      0.46    270.34           RANKING
   4      7     20       -6.30      0.51    270.33           RANKING

Run time 0.716 sec
Idle time 0.000 sec
