AutoDock-GPU version: v1.6

**********************************************************
**    AutoDock-GPU AUTODOCKTOOLS-COMPATIBLE DLG FILE    **
**********************************************************


    DOCKING PARAMETERS
    ________________________


Ligand file:                               /home/a/REINVENT4/ReinventStudies/pleaseWork/justmol2mol_4_Compounds_ontop/graph-dock-hn62wh/graph-DockGPU/node-autodockgpu/inputs/JLPPKUBEXXVWNA-NAUSHLRJNA-N.pdbqt
Grid fld file:                             /home/a/REINVENT4/ReinventStudies/mols/Rad51/maps/rad51_receptor.maps.fld

Random seed:                               42
Number of runs:                            20
Number of energy evaluations:              1132076
Number of generations:                     42000
Size of population:                        150
Rate of crossover:                         80.000000%
Tournament selection probability limit:    60.000000%
Rate of mutation:                          2.000000%
Maximal allowed delta movement:            +/- 6.000000A
Maximal allowed delta angle:               +/- 90.000000

Rate of local search:                      100.000000%
Maximal number of local search iterations: 300
Rho lower bound:                           0.010000
Spread of local search delta movement:     2.000000A
Spread of local search delta angle:        74.999999
Limit of consecutive successes/failures:   4

Handle symmetry during clustering:         YES
RMSD tolerance:                            2.000000A

Program call in command line was:          /home/a/REINVENT4/ReinventStudies/adgpu-v1.6_linux_x64_cuda12_128wi --filelist batch.txt --heuristics 1 --nrun 20 --psize 150 --lsit 300 --seed 42 --heurmax 12000000 


    GRID PARAMETERS
    ________________________


Receptor name:                             rad51_receptor
Number of grid points (x, y, z):           53, 53, 53
Grid center (x, y, z):                     139.950000, 75.640000, 221.970000A
Grid size (x, y, z):                       19.500000, 19.500000, 19.500000A
Grid spacing:                              0.375000A


    LIGAND PARAMETERS
    ________________________


Ligand name:                               /home/a/REINVENT4/ReinventStudies/pleaseWork/justmol2mol_4_Compounds_ontop/graph-dock-hn62wh/graph-DockGPU/node-autodockgpu/inputs/JLPPKUBEXXVWNA-NAUSHLRJNA-N
Number of atoms:                           30
Number of rotatable bonds:                 5
Number of atom types:                      7


    DUMMY DATA (only for ADT-compatibility)
    ________________________


DPF> outlev 1
DPF> ga_run 20
DPF> fld /home/a/REINVENT4/ReinventStudies/mols/Rad51/maps/rad51_receptor.maps.fld
DPF> move /home/a/REINVENT4/ReinventStudies/pleaseWork/justmol2mol_4_Compounds_ontop/graph-dock-hn62wh/graph-DockGPU/node-autodockgpu/inputs/JLPPKUBEXXVWNA-NAUSHLRJNA-N.pdbqt


    COUNTER STATES
    ________________________


Number of energy evaluations performed:    867713
Number of generations used:                45


    INPUT LIGAND PDBQT FILE:
    ________________________


INPUT-LIGAND-PDBQT: REMARK SMILES O=C(NCC(=O)N1CCCC[C@H]1c1ccc(Cl)cc1)c1ccc2ccccc2n1
INPUT-LIGAND-PDBQT: REMARK SMILES IDX 5 1 6 2 4 3 3 4 2 5 1 6 20 8 21 9 29 10 22 11 28 12 23 13
INPUT-LIGAND-PDBQT: REMARK SMILES IDX 27 14 24 15 26 16 25 17 7 18 8 19 12 20 9 21 11 22 10 23
INPUT-LIGAND-PDBQT: REMARK SMILES IDX 13 24 14 25 19 26 15 27 18 28 16 29 17 30
INPUT-LIGAND-PDBQT: REMARK H PARENT 3 7
INPUT-LIGAND-PDBQT: ROOT
INPUT-LIGAND-PDBQT: ATOM      1  C   UNL     1      -1.525  -1.361   0.397  1.00  0.00     0.242 C 
INPUT-LIGAND-PDBQT: ATOM      2  O   UNL     1      -2.633  -2.051   0.265  1.00  0.00    -0.273 OA
INPUT-LIGAND-PDBQT: ENDROOT
INPUT-LIGAND-PDBQT: BRANCH   1   3
INPUT-LIGAND-PDBQT: ATOM      3  C   UNL     1      -0.354  -2.186   0.584  1.00  0.00     0.216 C 
INPUT-LIGAND-PDBQT: BRANCH   3   4
INPUT-LIGAND-PDBQT: ATOM      4  N   UNL     1       0.943  -1.623   0.617  1.00  0.00    -0.342 N 
INPUT-LIGAND-PDBQT: ATOM      5  C   UNL     1       1.449  -1.004  -0.573  1.00  0.00     0.270 C 
INPUT-LIGAND-PDBQT: ATOM      6  O   UNL     1       0.707  -1.006  -1.567  1.00  0.00    -0.268 OA
INPUT-LIGAND-PDBQT: ATOM      7  H   UNL     1       1.550  -1.645   1.490  1.00  0.00     0.164 HD
INPUT-LIGAND-PDBQT: BRANCH   5   8
INPUT-LIGAND-PDBQT: ATOM      8  C   UNL     1       2.787  -0.414  -0.555  1.00  0.00     0.128 A 
INPUT-LIGAND-PDBQT: ATOM      9  C   UNL     1       3.286   0.182  -1.685  1.00  0.00     0.035 A 
INPUT-LIGAND-PDBQT: ATOM     10  N   UNL     1       3.536  -0.456   0.581  1.00  0.00    -0.243 NA
INPUT-LIGAND-PDBQT: ATOM     11  C   UNL     1       4.559   0.735  -1.641  1.00  0.00     0.013 A 
INPUT-LIGAND-PDBQT: ATOM     12  C   UNL     1       4.772   0.070   0.655  1.00  0.00     0.071 A 
INPUT-LIGAND-PDBQT: ATOM     13  C   UNL     1       5.303   0.682  -0.478  1.00  0.00     0.000 A 
INPUT-LIGAND-PDBQT: ATOM     14  C   UNL     1       5.469  -0.012   1.842  1.00  0.00     0.029 A 
INPUT-LIGAND-PDBQT: ATOM     15  C   UNL     1       6.564   1.209  -0.376  1.00  0.00     0.010 A 
INPUT-LIGAND-PDBQT: ATOM     16  C   UNL     1       6.729   0.525   1.917  1.00  0.00     0.002 A 
INPUT-LIGAND-PDBQT: ATOM     17  C   UNL     1       7.284   1.138   0.810  1.00  0.00     0.001 A 
INPUT-LIGAND-PDBQT: ENDBRANCH   5   8
INPUT-LIGAND-PDBQT: ENDBRANCH   3   4
INPUT-LIGAND-PDBQT: ENDBRANCH   1   3
INPUT-LIGAND-PDBQT: BRANCH   1  18
INPUT-LIGAND-PDBQT: ATOM     18  N   UNL     1      -1.700   0.019   0.333  1.00  0.00    -0.334 N 
INPUT-LIGAND-PDBQT: ATOM     19  C   UNL     1      -0.665   1.043   0.539  1.00  0.00     0.120 C 
INPUT-LIGAND-PDBQT: ATOM     20  C   UNL     1      -2.997   0.655  -0.025  1.00  0.00     0.115 C 
INPUT-LIGAND-PDBQT: ATOM     21  C   UNL     1      -0.529   1.868  -0.717  1.00  0.00     0.022 C 
INPUT-LIGAND-PDBQT: ATOM     22  C   UNL     1      -2.803   0.979  -1.486  1.00  0.00     0.030 C 
INPUT-LIGAND-PDBQT: ATOM     23  C   UNL     1      -1.472   1.537  -1.811  1.00  0.00     0.004 C 
INPUT-LIGAND-PDBQT: BRANCH  20  24
INPUT-LIGAND-PDBQT: ATOM     24  C   UNL     1      -4.168  -0.130   0.274  1.00  0.00    -0.025 A 
INPUT-LIGAND-PDBQT: ATOM     25  C   UNL     1      -4.507  -0.671   1.498  1.00  0.00     0.007 A 
INPUT-LIGAND-PDBQT: ATOM     26  C   UNL     1      -5.075  -0.390  -0.762  1.00  0.00     0.007 A 
INPUT-LIGAND-PDBQT: ATOM     27  C   UNL     1      -5.650  -1.414   1.708  1.00  0.00     0.021 A 
INPUT-LIGAND-PDBQT: ATOM     28  C   UNL     1      -6.219  -1.133  -0.556  1.00  0.00     0.021 A 
INPUT-LIGAND-PDBQT: ATOM     29  C   UNL     1      -6.533  -1.661   0.678  1.00  0.00     0.041 A 
INPUT-LIGAND-PDBQT: ATOM     30  Cl  UNL     1      -7.953  -2.603   1.004  1.00  0.00    -0.084 Cl
INPUT-LIGAND-PDBQT: ENDBRANCH  20  24
INPUT-LIGAND-PDBQT: ENDBRANCH   1  18
INPUT-LIGAND-PDBQT: TORSDOF 5


    FINAL DOCKED STATE:
    ________________________


Run:   1 / 20
Time taken for this run:   0.035s

DOCKED: MODEL        1
DOCKED: USER    Run = 1
DOCKED: USER
DOCKED: USER    Estimated Free Energy of Binding    =  -7.21 kcal/mol  [=(1)+(2)+(3)-(4)]
DOCKED: USER
DOCKED: USER    (1) Final Intermolecular Energy     =  -8.70 kcal/mol
DOCKED: USER        vdW + Hbond + desolv Energy     =  -8.70 kcal/mol
DOCKED: USER        Electrostatic Energy            =  -0.01 kcal/mol
DOCKED: USER        Moving Ligand-Fixed Receptor    =  -8.70 kcal/mol
DOCKED: USER        Moving Ligand-Moving Receptor   =  +0.00 kcal/mol
DOCKED: USER    (2) Final Total Internal Energy     =  -2.83 kcal/mol
DOCKED: USER    (3) Torsional Free Energy           =  +1.49 kcal/mol
DOCKED: USER    (4) Unbound System's Energy         =  -2.83 kcal/mol
DOCKED: USER
DOCKED: USER
DOCKED: REMARK SMILES O=C(NCC(=O)N1CCCC[C@H]1c1ccc(Cl)cc1)c1ccc2ccccc2n1
DOCKED: REMARK SMILES IDX 5 1 6 2 4 3 3 4 2 5 1 6 20 8 21 9 29 10 22 11 28 12 23 13
DOCKED: REMARK SMILES IDX 27 14 24 15 26 16 25 17 7 18 8 19 12 20 9 21 11 22 10 23
DOCKED: REMARK SMILES IDX 13 24 14 25 19 26 15 27 18 28 16 29 17 30
DOCKED: REMARK H PARENT 3 7
DOCKED: USER                              x       y       z     vdW  Elec       q    Type
DOCKED: USER                           _______ _______ _______ _____ _____    ______ ____
DOCKED: ROOT
DOCKED: ATOM      1  C   UNL     1     142.319  73.026 220.530 -0.16 -0.04    +0.242 C  
DOCKED: ATOM      2  O   UNL     1     141.928  71.935 219.916 -0.08 +0.04    -0.273 OA 
DOCKED: ENDROOT
DOCKED: BRANCH   1   3
DOCKED: ATOM      3  C   UNL     1     141.279  73.646 221.318 -0.18 -0.03    +0.216 C  
DOCKED: BRANCH   3   4
DOCKED: ATOM      4  N   UNL     1     141.366  75.001 221.713 -0.12 +0.07    -0.342 N  
DOCKED: ATOM      5  C   UNL     1     140.150  75.722 221.950 -0.23 -0.05    +0.270 C  
DOCKED: ATOM      6  O   UNL     1     139.088  75.103 221.787 -0.27 +0.06    -0.268 OA 
DOCKED: ATOM      7  H   UNL     1     142.298  75.497 221.839 -0.49 -0.10    +0.164 HD 
DOCKED: BRANCH   5   8
DOCKED: ATOM      8  C   UNL     1     140.223  77.124 222.363 -0.33 -0.03    +0.128 A  
DOCKED: ATOM      9  C   UNL     1     139.069  77.837 222.562 -0.29 -0.01    +0.035 A  
DOCKED: ATOM     10  N   UNL     1     141.433  77.718 222.549 -0.23 +0.12    -0.243 NA 
DOCKED: ATOM     11  C   UNL     1     139.165  79.166 222.954 -0.33 -0.00    +0.013 A  
DOCKED: ATOM     12  C   UNL     1     141.559  79.003 222.928 -0.50 -0.03    +0.071 A  
DOCKED: ATOM     13  C   UNL     1     140.403  79.751 223.138 -0.44 -0.00    +0.000 A  
DOCKED: ATOM     14  C   UNL     1     142.820  79.535 223.097 -0.56 -0.01    +0.029 A  
DOCKED: ATOM     15  C   UNL     1     140.560  81.057 223.523 -0.40 -0.00    +0.010 A  
DOCKED: ATOM     16  C   UNL     1     142.949  80.844 223.484 -0.63 -0.00    +0.002 A  
DOCKED: ATOM     17  C   UNL     1     141.821  81.613 223.699 -0.53 -0.00    +0.001 A  
DOCKED: ENDBRANCH   5   8
DOCKED: ENDBRANCH   3   4
DOCKED: ENDBRANCH   1   3
DOCKED: BRANCH   1  18
DOCKED: ATOM     18  N   UNL     1     143.650  73.367 220.298 -0.14 +0.07    -0.334 N  
DOCKED: ATOM     19  C   UNL     1     144.834  72.699 220.857 -0.38 -0.02    +0.120 C  
DOCKED: ATOM     20  C   UNL     1     144.056  74.457 219.371 -0.27 -0.04    +0.115 C  
DOCKED: ATOM     21  C   UNL     1     145.675  72.156 219.728 -0.37 +0.01    +0.022 C  
DOCKED: ATOM     22  C   UNL     1     144.414  73.696 218.118 -0.18 -0.01    +0.030 C  
DOCKED: ATOM     23  C   UNL     1     145.192  72.461 218.361 -0.24 +0.00    +0.004 C  
DOCKED: BRANCH  20  24
DOCKED: ATOM     24  C   UNL     1     143.082  75.504 219.190 -0.31 +0.01    -0.025 A  
DOCKED: ATOM     25  C   UNL     1     143.111  76.763 219.757 -0.34 -0.01    +0.007 A  
DOCKED: ATOM     26  C   UNL     1     141.981  75.250 218.362 -0.12 -0.00    +0.007 A  
DOCKED: ATOM     27  C   UNL     1     142.138  77.715 219.535 -0.29 -0.01    +0.021 A  
DOCKED: ATOM     28  C   UNL     1     141.006  76.200 218.139 -0.07 -0.01    +0.021 A  
DOCKED: ATOM     29  C   UNL     1     141.060  77.450 218.717 -0.13 -0.02    +0.041 A  
DOCKED: ATOM     30  Cl  UNL     1     139.868  78.688 218.479 -0.07 +0.03    -0.084 Cl 
DOCKED: ENDBRANCH  20  24
DOCKED: ENDBRANCH   1  18
DOCKED: TORSDOF 5
DOCKED: TER
DOCKED: ENDMDL
________________________________________________________________________________


    FINAL DOCKED STATE:
    ________________________


Run:   2 / 20
Time taken for this run:   0.035s

DOCKED: MODEL        2
DOCKED: USER    Run = 2
DOCKED: USER
DOCKED: USER    Estimated Free Energy of Binding    =  -8.21 kcal/mol  [=(1)+(2)+(3)-(4)]
DOCKED: USER
DOCKED: USER    (1) Final Intermolecular Energy     =  -9.70 kcal/mol
DOCKED: USER        vdW + Hbond + desolv Energy     =  -9.61 kcal/mol
DOCKED: USER        Electrostatic Energy            =  -0.10 kcal/mol
DOCKED: USER        Moving Ligand-Fixed Receptor    =  -9.70 kcal/mol
DOCKED: USER        Moving Ligand-Moving Receptor   =  +0.00 kcal/mol
DOCKED: USER    (2) Final Total Internal Energy     =  -1.92 kcal/mol
DOCKED: USER    (3) Torsional Free Energy           =  +1.49 kcal/mol
DOCKED: USER    (4) Unbound System's Energy         =  -1.92 kcal/mol
DOCKED: USER
DOCKED: USER
DOCKED: REMARK SMILES O=C(NCC(=O)N1CCCC[C@H]1c1ccc(Cl)cc1)c1ccc2ccccc2n1
DOCKED: REMARK SMILES IDX 5 1 6 2 4 3 3 4 2 5 1 6 20 8 21 9 29 10 22 11 28 12 23 13
DOCKED: REMARK SMILES IDX 27 14 24 15 26 16 25 17 7 18 8 19 12 20 9 21 11 22 10 23
DOCKED: REMARK SMILES IDX 13 24 14 25 19 26 15 27 18 28 16 29 17 30
DOCKED: REMARK H PARENT 3 7
DOCKED: USER                              x       y       z     vdW  Elec       q    Type
DOCKED: USER                           _______ _______ _______ _____ _____    ______ ____
DOCKED: ROOT
DOCKED: ATOM      1  C   UNL     1     140.186  75.429 221.103 -0.19 -0.06    +0.242 C  
DOCKED: ATOM      2  O   UNL     1     140.315  75.964 222.294 -0.44 +0.05    -0.273 OA 
DOCKED: ENDROOT
DOCKED: BRANCH   1   3
DOCKED: ATOM      3  C   UNL     1     139.883  74.017 221.138 -0.17 -0.04    +0.216 C  
DOCKED: BRANCH   3   4
DOCKED: ATOM      4  N   UNL     1     139.839  73.305 222.359 -0.14 +0.04    -0.342 N  
DOCKED: ATOM      5  C   UNL     1     140.141  71.904 222.344 -0.20 -0.04    +0.270 C  
DOCKED: ATOM      6  O   UNL     1     140.422  71.401 221.245 -0.11 +0.04    -0.268 OA 
DOCKED: ATOM      7  H   UNL     1     139.591  73.774 223.281 -0.48 -0.03    +0.164 HD 
DOCKED: BRANCH   5   8
DOCKED: ATOM      8  C   UNL     1     140.104  71.154 223.599 -0.31 -0.02    +0.128 A  
DOCKED: ATOM      9  C   UNL     1     139.598  69.879 223.618 -0.25 -0.01    +0.035 A  
DOCKED: ATOM     10  N   UNL     1     140.570  71.719 224.746 -0.29 +0.04    -0.243 NA 
DOCKED: ATOM     11  C   UNL     1     139.575  69.188 224.822 -0.37 -0.00    +0.013 A  
DOCKED: ATOM     12  C   UNL     1     140.561  71.077 225.928 -0.55 -0.01    +0.071 A  
DOCKED: ATOM     13  C   UNL     1     140.053  69.780 225.976 -0.49 -0.00    +0.000 A  
DOCKED: ATOM     14  C   UNL     1     141.051  71.717 227.047 -0.75 -0.01    +0.029 A  
DOCKED: ATOM     15  C   UNL     1     140.054  69.149 227.192 -0.59 -0.00    +0.010 A  
DOCKED: ATOM     16  C   UNL     1     141.041  71.061 228.251 -0.68 -0.00    +0.002 A  
DOCKED: ATOM     17  C   UNL     1     140.543  69.774 228.332 -0.59 -0.00    +0.001 A  
DOCKED: ENDBRANCH   5   8
DOCKED: ENDBRANCH   3   4
DOCKED: ENDBRANCH   1   3
DOCKED: BRANCH   1  18
DOCKED: ATOM     18  N   UNL     1     140.367  76.324 220.052 -0.03 +0.11    -0.334 N  
DOCKED: ATOM     19  C   UNL     1     139.355  77.229 219.489 -0.04 -0.03    +0.120 C  
DOCKED: ATOM     20  C   UNL     1     141.679  76.527 219.379 -0.19 -0.05    +0.115 C  
DOCKED: ATOM     21  C   UNL     1     139.823  78.655 219.647 -0.10 -0.01    +0.022 C  
DOCKED: ATOM     22  C   UNL     1     142.194  77.777 220.050 -0.25 -0.02    +0.030 C  
DOCKED: ATOM     23  C   UNL     1     141.170  78.829 220.238 -0.26 -0.00    +0.004 C  
DOCKED: BRANCH  20  24
DOCKED: ATOM     24  C   UNL     1     142.573  75.399 219.426 -0.27 +0.01    -0.025 A  
DOCKED: ATOM     25  C   UNL     1     142.357  74.152 218.874 -0.13 -0.00    +0.007 A  
DOCKED: ATOM     26  C   UNL     1     143.796  75.548 220.094 -0.35 -0.00    +0.007 A  
DOCKED: ATOM     27  C   UNL     1     143.265  73.117 218.960 -0.15 -0.00    +0.021 A  
DOCKED: ATOM     28  C   UNL     1     144.706  74.515 220.183 -0.43 -0.01    +0.021 A  
DOCKED: ATOM     29  C   UNL     1     144.464  73.280 219.621 -0.33 -0.01    +0.041 A  
DOCKED: ATOM     30  Cl  UNL     1     145.564  71.941 219.696 -0.44 -0.03    -0.084 Cl 
DOCKED: ENDBRANCH  20  24
DOCKED: ENDBRANCH   1  18
DOCKED: TORSDOF 5
DOCKED: TER
DOCKED: ENDMDL
________________________________________________________________________________


    FINAL DOCKED STATE:
    ________________________


Run:   3 / 20
Time taken for this run:   0.035s

DOCKED: MODEL        3
DOCKED: USER    Run = 3
DOCKED: USER
DOCKED: USER    Estimated Free Energy of Binding    =  -7.33 kcal/mol  [=(1)+(2)+(3)-(4)]
DOCKED: USER
DOCKED: USER    (1) Final Intermolecular Energy     =  -8.82 kcal/mol
DOCKED: USER        vdW + Hbond + desolv Energy     =  -8.80 kcal/mol
DOCKED: USER        Electrostatic Energy            =  -0.02 kcal/mol
DOCKED: USER        Moving Ligand-Fixed Receptor    =  -8.82 kcal/mol
DOCKED: USER        Moving Ligand-Moving Receptor   =  +0.00 kcal/mol
DOCKED: USER    (2) Final Total Internal Energy     =  -2.35 kcal/mol
DOCKED: USER    (3) Torsional Free Energy           =  +1.49 kcal/mol
DOCKED: USER    (4) Unbound System's Energy         =  -2.35 kcal/mol
DOCKED: USER
DOCKED: USER
DOCKED: REMARK SMILES O=C(NCC(=O)N1CCCC[C@H]1c1ccc(Cl)cc1)c1ccc2ccccc2n1
DOCKED: REMARK SMILES IDX 5 1 6 2 4 3 3 4 2 5 1 6 20 8 21 9 29 10 22 11 28 12 23 13
DOCKED: REMARK SMILES IDX 27 14 24 15 26 16 25 17 7 18 8 19 12 20 9 21 11 22 10 23
DOCKED: REMARK SMILES IDX 13 24 14 25 19 26 15 27 18 28 16 29 17 30
DOCKED: REMARK H PARENT 3 7
DOCKED: USER                              x       y       z     vdW  Elec       q    Type
DOCKED: USER                           _______ _______ _______ _____ _____    ______ ____
DOCKED: ROOT
DOCKED: ATOM      1  C   UNL     1     139.588  78.239 221.792 -0.16 -0.06    +0.242 C  
DOCKED: ATOM      2  O   UNL     1     138.578  78.300 220.956 -0.05 +0.06    -0.273 OA 
DOCKED: ENDROOT
DOCKED: BRANCH   1   3
DOCKED: ATOM      3  C   UNL     1     139.757  76.937 222.393 -0.24 -0.05    +0.216 C  
DOCKED: BRANCH   3   4
DOCKED: ATOM      4  N   UNL     1     140.809  76.077 221.999 -0.21 +0.10    -0.342 N  
DOCKED: ATOM      5  C   UNL     1     140.477  74.867 221.305 -0.20 -0.05    +0.270 C  
DOCKED: ATOM      6  O   UNL     1     139.274  74.650 221.096 -0.14 +0.06    -0.268 OA 
DOCKED: ATOM      7  H   UNL     1     141.829  76.298 222.201 -0.52 -0.10    +0.164 HD 
DOCKED: BRANCH   5   8
DOCKED: ATOM      8  C   UNL     1     141.553  73.969 220.887 -0.23 -0.02    +0.128 A  
DOCKED: ATOM      9  C   UNL     1     141.263  72.679 220.522 -0.18 -0.01    +0.035 A  
DOCKED: ATOM     10  N   UNL     1     142.840  74.412 220.860 -0.17 +0.08    -0.243 NA 
DOCKED: ATOM     11  C   UNL     1     142.302  71.847 220.129 -0.18 -0.00    +0.013 A  
DOCKED: ATOM     12  C   UNL     1     143.869  73.630 220.484 -0.36 -0.02    +0.071 A  
DOCKED: ATOM     13  C   UNL     1     143.602  72.316 220.108 -0.29 -0.00    +0.000 A  
DOCKED: ATOM     14  C   UNL     1     145.145  74.151 220.483 -0.55 -0.01    +0.029 A  
DOCKED: ATOM     15  C   UNL     1     144.667  71.540 219.731 -0.30 +0.00    +0.010 A  
DOCKED: ATOM     16  C   UNL     1     146.193  73.354 220.100 -0.56 +0.00    +0.002 A  
DOCKED: ATOM     17  C   UNL     1     145.962  72.045 219.722 -0.36 +0.00    +0.001 A  
DOCKED: ENDBRANCH   5   8
DOCKED: ENDBRANCH   3   4
DOCKED: ENDBRANCH   1   3
DOCKED: BRANCH   1  18
DOCKED: ATOM     18  N   UNL     1     140.287  79.435 221.932 -0.08 +0.09    -0.334 N  
DOCKED: ATOM     19  C   UNL     1     139.878  80.599 222.733 -0.30 -0.02    +0.120 C  
DOCKED: ATOM     20  C   UNL     1     141.618  79.673 221.310 -0.33 -0.05    +0.115 C  
DOCKED: ATOM     21  C   UNL     1     140.923  80.864 223.788 -0.42 -0.00    +0.022 C  
DOCKED: ATOM     22  C   UNL     1     142.560  79.412 222.460 -0.51 -0.02    +0.030 C  
DOCKED: ATOM     23  C   UNL     1     142.116  79.986 223.749 -0.64 -0.00    +0.004 C  
DOCKED: BRANCH  20  24
DOCKED: ATOM     24  C   UNL     1     141.884  78.907 220.119 -0.24 +0.02    -0.025 A  
DOCKED: ATOM     25  C   UNL     1     142.247  77.576 220.059 -0.29 -0.00    +0.007 A  
DOCKED: ATOM     26  C   UNL     1     141.772  79.549 218.879 -0.27 -0.00    +0.007 A  
DOCKED: ATOM     27  C   UNL     1     142.486  76.908 218.876 -0.30 -0.01    +0.021 A  
DOCKED: ATOM     28  C   UNL     1     142.010  78.884 217.693 -0.25 -0.02    +0.021 A  
DOCKED: ATOM     29  C   UNL     1     142.371  77.554 217.663 -0.25 -0.03    +0.041 A  
DOCKED: ATOM     30  Cl  UNL     1     142.685  76.661 216.209 -0.22 +0.05    -0.084 Cl 
DOCKED: ENDBRANCH  20  24
DOCKED: ENDBRANCH   1  18
DOCKED: TORSDOF 5
DOCKED: TER
DOCKED: ENDMDL
________________________________________________________________________________


    FINAL DOCKED STATE:
    ________________________


Run:   4 / 20
Time taken for this run:   0.035s

DOCKED: MODEL        4
DOCKED: USER    Run = 4
DOCKED: USER
DOCKED: USER    Estimated Free Energy of Binding    =  -7.97 kcal/mol  [=(1)+(2)+(3)-(4)]
DOCKED: USER
DOCKED: USER    (1) Final Intermolecular Energy     =  -9.46 kcal/mol
DOCKED: USER        vdW + Hbond + desolv Energy     =  -9.40 kcal/mol
DOCKED: USER        Electrostatic Energy            =  -0.06 kcal/mol
DOCKED: USER        Moving Ligand-Fixed Receptor    =  -9.46 kcal/mol
DOCKED: USER        Moving Ligand-Moving Receptor   =  +0.00 kcal/mol
DOCKED: USER    (2) Final Total Internal Energy     =  -1.79 kcal/mol
DOCKED: USER    (3) Torsional Free Energy           =  +1.49 kcal/mol
DOCKED: USER    (4) Unbound System's Energy         =  -1.79 kcal/mol
DOCKED: USER
DOCKED: USER
DOCKED: REMARK SMILES O=C(NCC(=O)N1CCCC[C@H]1c1ccc(Cl)cc1)c1ccc2ccccc2n1
DOCKED: REMARK SMILES IDX 5 1 6 2 4 3 3 4 2 5 1 6 20 8 21 9 29 10 22 11 28 12 23 13
DOCKED: REMARK SMILES IDX 27 14 24 15 26 16 25 17 7 18 8 19 12 20 9 21 11 22 10 23
DOCKED: REMARK SMILES IDX 13 24 14 25 19 26 15 27 18 28 16 29 17 30
DOCKED: REMARK H PARENT 3 7
DOCKED: USER                              x       y       z     vdW  Elec       q    Type
DOCKED: USER                           _______ _______ _______ _____ _____    ______ ____
DOCKED: ROOT
DOCKED: ATOM      1  C   UNL     1     140.326  74.079 220.105 -0.07 -0.05    +0.242 C  
DOCKED: ATOM      2  O   UNL     1     140.020  74.521 218.909 -0.01 +0.06    -0.273 OA 
DOCKED: ENDROOT
DOCKED: BRANCH   1   3
DOCKED: ATOM      3  C   UNL     1     139.173  73.722 220.898 -0.11 -0.04    +0.216 C  
DOCKED: BRANCH   3   4
DOCKED: ATOM      4  N   UNL     1     139.314  73.136 222.177 -0.12 +0.08    -0.342 N  
DOCKED: ATOM      5  C   UNL     1     139.728  71.766 222.259 -0.18 -0.05    +0.270 C  
DOCKED: ATOM      6  O   UNL     1     139.935  71.176 221.187 -0.09 +0.04    -0.268 OA 
DOCKED: ATOM      7  H   UNL     1     139.124  73.675 223.074 -0.52 -0.08    +0.164 HD 
DOCKED: BRANCH   5   8
DOCKED: ATOM      8  C   UNL     1     139.883  71.145 223.574 -0.31 -0.02    +0.128 A  
DOCKED: ATOM      9  C   UNL     1     139.503  69.841 223.763 -0.27 -0.01    +0.035 A  
DOCKED: ATOM     10  N   UNL     1     140.403  71.860 224.609 -0.27 +0.04    -0.243 NA 
DOCKED: ATOM     11  C   UNL     1     139.661  69.276 225.021 -0.39 -0.00    +0.013 A  
DOCKED: ATOM     12  C   UNL     1     140.568  71.341 225.839 -0.54 -0.01    +0.071 A  
DOCKED: ATOM     13  C   UNL     1     140.191  70.019 226.058 -0.51 -0.00    +0.000 A  
DOCKED: ATOM     14  C   UNL     1     141.101  72.130 226.837 -0.71 -0.01    +0.029 A  
DOCKED: ATOM     15  C   UNL     1     140.368  69.515 227.321 -0.59 -0.00    +0.010 A  
DOCKED: ATOM     16  C   UNL     1     141.270  71.600 228.091 -0.75 -0.00    +0.002 A  
DOCKED: ATOM     17  C   UNL     1     140.905  70.291 228.340 -0.56 -0.00    +0.001 A  
DOCKED: ENDBRANCH   5   8
DOCKED: ENDBRANCH   3   4
DOCKED: ENDBRANCH   1   3
DOCKED: BRANCH   1  18
DOCKED: ATOM     18  N   UNL     1     141.693  74.046 220.369 -0.09 +0.08    -0.334 N  
DOCKED: ATOM     19  C   UNL     1     142.524  72.844 220.532 -0.21 -0.02    +0.120 C  
DOCKED: ATOM     20  C   UNL     1     142.529  75.274 220.466 -0.22 -0.05    +0.115 C  
DOCKED: ATOM     21  C   UNL     1     143.603  72.842 219.477 -0.23 -0.00    +0.022 C  
DOCKED: ATOM     22  C   UNL     1     143.166  75.336 219.099 -0.30 -0.01    +0.030 C  
DOCKED: ATOM     23  C   UNL     1     143.640  74.030 218.591 -0.20 -0.00    +0.004 C  
DOCKED: BRANCH  20  24
DOCKED: ATOM     24  C   UNL     1     141.825  76.466 220.864 -0.17 +0.01    -0.025 A  
DOCKED: ATOM     25  C   UNL     1     141.804  77.673 220.195 -0.31 -0.00    +0.007 A  
DOCKED: ATOM     26  C   UNL     1     141.075  76.430 222.047 -0.36 -0.00    +0.007 A  
DOCKED: ATOM     27  C   UNL     1     141.103  78.775 220.640 -0.27 -0.01    +0.021 A  
DOCKED: ATOM     28  C   UNL     1     140.373  77.529 222.496 -0.39 -0.01    +0.021 A  
DOCKED: ATOM     29  C   UNL     1     140.369  78.723 221.807 -0.28 -0.01    +0.041 A  
DOCKED: ATOM     30  Cl  UNL     1     139.509  80.141 222.315 -0.34 +0.02    -0.084 Cl 
DOCKED: ENDBRANCH  20  24
DOCKED: ENDBRANCH   1  18
DOCKED: TORSDOF 5
DOCKED: TER
DOCKED: ENDMDL
________________________________________________________________________________


    FINAL DOCKED STATE:
    ________________________


Run:   5 / 20
Time taken for this run:   0.035s

DOCKED: MODEL        5
DOCKED: USER    Run = 5
DOCKED: USER
DOCKED: USER    Estimated Free Energy of Binding    =  -7.25 kcal/mol  [=(1)+(2)+(3)-(4)]
DOCKED: USER
DOCKED: USER    (1) Final Intermolecular Energy     =  -8.74 kcal/mol
DOCKED: USER        vdW + Hbond + desolv Energy     =  -8.73 kcal/mol
DOCKED: USER        Electrostatic Energy            =  -0.01 kcal/mol
DOCKED: USER        Moving Ligand-Fixed Receptor    =  -8.74 kcal/mol
DOCKED: USER        Moving Ligand-Moving Receptor   =  +0.00 kcal/mol
DOCKED: USER    (2) Final Total Internal Energy     =  -2.90 kcal/mol
DOCKED: USER    (3) Torsional Free Energy           =  +1.49 kcal/mol
DOCKED: USER    (4) Unbound System's Energy         =  -2.90 kcal/mol
DOCKED: USER
DOCKED: USER
DOCKED: REMARK SMILES O=C(NCC(=O)N1CCCC[C@H]1c1ccc(Cl)cc1)c1ccc2ccccc2n1
DOCKED: REMARK SMILES IDX 5 1 6 2 4 3 3 4 2 5 1 6 20 8 21 9 29 10 22 11 28 12 23 13
DOCKED: REMARK SMILES IDX 27 14 24 15 26 16 25 17 7 18 8 19 12 20 9 21 11 22 10 23
DOCKED: REMARK SMILES IDX 13 24 14 25 19 26 15 27 18 28 16 29 17 30
DOCKED: REMARK H PARENT 3 7
DOCKED: USER                              x       y       z     vdW  Elec       q    Type
DOCKED: USER                           _______ _______ _______ _____ _____    ______ ____
DOCKED: ROOT
DOCKED: ATOM      1  C   UNL     1     142.325  73.037 220.555 -0.16 -0.04    +0.242 C  
DOCKED: ATOM      2  O   UNL     1     141.996  71.882 220.026 -0.09 +0.04    -0.273 OA 
DOCKED: ENDROOT
DOCKED: BRANCH   1   3
DOCKED: ATOM      3  C   UNL     1     141.249  73.656 221.294 -0.18 -0.03    +0.216 C  
DOCKED: BRANCH   3   4
DOCKED: ATOM      4  N   UNL     1     141.338  74.997 221.736 -0.12 +0.07    -0.342 N  
DOCKED: ATOM      5  C   UNL     1     140.124  75.737 221.921 -0.23 -0.05    +0.270 C  
DOCKED: ATOM      6  O   UNL     1     139.062  75.146 221.675 -0.23 +0.06    -0.268 OA 
DOCKED: ATOM      7  H   UNL     1     142.270  75.469 221.934 -0.50 -0.09    +0.164 HD 
DOCKED: BRANCH   5   8
DOCKED: ATOM      8  C   UNL     1     140.199  77.123 222.382 -0.33 -0.03    +0.128 A  
DOCKED: ATOM      9  C   UNL     1     139.046  77.815 222.653 -0.29 -0.01    +0.035 A  
DOCKED: ATOM     10  N   UNL     1     141.409  77.725 222.540 -0.23 +0.12    -0.243 NA 
DOCKED: ATOM     11  C   UNL     1     139.145  79.130 223.089 -0.35 -0.00    +0.013 A  
DOCKED: ATOM     12  C   UNL     1     141.538  78.997 222.960 -0.50 -0.03    +0.071 A  
DOCKED: ATOM     13  C   UNL     1     140.383  79.723 223.244 -0.45 -0.00    +0.000 A  
DOCKED: ATOM     14  C   UNL     1     142.799  79.537 223.096 -0.57 -0.01    +0.029 A  
DOCKED: ATOM     15  C   UNL     1     140.542  81.016 223.669 -0.38 -0.00    +0.010 A  
DOCKED: ATOM     16  C   UNL     1     142.929  80.833 223.525 -0.63 -0.00    +0.002 A  
DOCKED: ATOM     17  C   UNL     1     141.803  81.580 223.814 -0.53 -0.00    +0.001 A  
DOCKED: ENDBRANCH   5   8
DOCKED: ENDBRANCH   3   4
DOCKED: ENDBRANCH   1   3
DOCKED: BRANCH   1  18
DOCKED: ATOM     18  N   UNL     1     143.635  73.432 220.298 -0.15 +0.07    -0.334 N  
DOCKED: ATOM     19  C   UNL     1     144.855  72.834 220.859 -0.41 -0.02    +0.120 C  
DOCKED: ATOM     20  C   UNL     1     143.980  74.515 219.337 -0.27 -0.04    +0.115 C  
DOCKED: ATOM     21  C   UNL     1     145.707  72.301 219.734 -0.39 +0.01    +0.022 C  
DOCKED: ATOM     22  C   UNL     1     144.358  73.738 218.100 -0.18 -0.01    +0.030 C  
DOCKED: ATOM     23  C   UNL     1     145.195  72.547 218.365 -0.24 +0.00    +0.004 C  
DOCKED: BRANCH  20  24
DOCKED: ATOM     24  C   UNL     1     142.957  75.510 219.142 -0.30 +0.01    -0.025 A  
DOCKED: ATOM     25  C   UNL     1     141.785  75.359 218.427 -0.12 -0.00    +0.007 A  
DOCKED: ATOM     26  C   UNL     1     143.140  76.773 219.722 -0.35 -0.01    +0.007 A  
DOCKED: ATOM     27  C   UNL     1     140.849  76.362 218.284 -0.07 -0.01    +0.021 A  
DOCKED: ATOM     28  C   UNL     1     142.206  77.779 219.580 -0.29 -0.01    +0.021 A  
DOCKED: ATOM     29  C   UNL     1     141.044  77.599 218.861 -0.14 -0.02    +0.041 A  
DOCKED: ATOM     30  Cl  UNL     1     139.831  78.820 218.645 -0.07 +0.03    -0.084 Cl 
DOCKED: ENDBRANCH  20  24
DOCKED: ENDBRANCH   1  18
DOCKED: TORSDOF 5
DOCKED: TER
DOCKED: ENDMDL
________________________________________________________________________________


    FINAL DOCKED STATE:
    ________________________


Run:   6 / 20
Time taken for this run:   0.035s

DOCKED: MODEL        6
DOCKED: USER    Run = 6
DOCKED: USER
DOCKED: USER    Estimated Free Energy of Binding    =  -7.15 kcal/mol  [=(1)+(2)+(3)-(4)]
DOCKED: USER
DOCKED: USER    (1) Final Intermolecular Energy     =  -8.64 kcal/mol
DOCKED: USER        vdW + Hbond + desolv Energy     =  -8.64 kcal/mol
DOCKED: USER        Electrostatic Energy            =  -0.01 kcal/mol
DOCKED: USER        Moving Ligand-Fixed Receptor    =  -8.64 kcal/mol
DOCKED: USER        Moving Ligand-Moving Receptor   =  +0.00 kcal/mol
DOCKED: USER    (2) Final Total Internal Energy     =  -2.87 kcal/mol
DOCKED: USER    (3) Torsional Free Energy           =  +1.49 kcal/mol
DOCKED: USER    (4) Unbound System's Energy         =  -2.87 kcal/mol
DOCKED: USER
DOCKED: USER
DOCKED: REMARK SMILES O=C(NCC(=O)N1CCCC[C@H]1c1ccc(Cl)cc1)c1ccc2ccccc2n1
DOCKED: REMARK SMILES IDX 5 1 6 2 4 3 3 4 2 5 1 6 20 8 21 9 29 10 22 11 28 12 23 13
DOCKED: REMARK SMILES IDX 27 14 24 15 26 16 25 17 7 18 8 19 12 20 9 21 11 22 10 23
DOCKED: REMARK SMILES IDX 13 24 14 25 19 26 15 27 18 28 16 29 17 30
DOCKED: REMARK H PARENT 3 7
DOCKED: USER                              x       y       z     vdW  Elec       q    Type
DOCKED: USER                           _______ _______ _______ _____ _____    ______ ____
DOCKED: ROOT
DOCKED: ATOM      1  C   UNL     1     142.302  73.031 220.493 -0.15 -0.04    +0.242 C  
DOCKED: ATOM      2  O   UNL     1     141.852  72.000 219.818 -0.07 +0.04    -0.273 OA 
DOCKED: ENDROOT
DOCKED: BRANCH   1   3
DOCKED: ATOM      3  C   UNL     1     141.309  73.631 221.354 -0.16 -0.03    +0.216 C  
DOCKED: BRANCH   3   4
DOCKED: ATOM      4  N   UNL     1     141.391  74.992 221.732 -0.11 +0.07    -0.342 N  
DOCKED: ATOM      5  C   UNL     1     140.172  75.708 221.971 -0.23 -0.05    +0.270 C  
DOCKED: ATOM      6  O   UNL     1     139.113  75.080 221.825 -0.29 +0.06    -0.268 OA 
DOCKED: ATOM      7  H   UNL     1     142.321  75.496 221.842 -0.49 -0.10    +0.164 HD 
DOCKED: BRANCH   5   8
DOCKED: ATOM      8  C   UNL     1     140.239  77.115 222.365 -0.33 -0.03    +0.128 A  
DOCKED: ATOM      9  C   UNL     1     139.083  77.829 222.545 -0.29 -0.01    +0.035 A  
DOCKED: ATOM     10  N   UNL     1     141.447  77.714 222.555 -0.23 +0.12    -0.243 NA 
DOCKED: ATOM     11  C   UNL     1     139.174  79.163 222.920 -0.33 -0.00    +0.013 A  
DOCKED: ATOM     12  C   UNL     1     141.569  79.003 222.918 -0.50 -0.03    +0.071 A  
DOCKED: ATOM     13  C   UNL     1     140.410  79.752 223.107 -0.44 -0.00    +0.000 A  
DOCKED: ATOM     14  C   UNL     1     142.828  79.539 223.090 -0.56 -0.01    +0.029 A  
DOCKED: ATOM     15  C   UNL     1     140.561  81.064 223.476 -0.41 -0.00    +0.010 A  
DOCKED: ATOM     16  C   UNL     1     142.951  80.854 223.461 -0.62 -0.00    +0.002 A  
DOCKED: ATOM     17  C   UNL     1     141.820  81.624 223.656 -0.53 -0.00    +0.001 A  
DOCKED: ENDBRANCH   5   8
DOCKED: ENDBRANCH   3   4
DOCKED: ENDBRANCH   1   3
DOCKED: BRANCH   1  18
DOCKED: ATOM     18  N   UNL     1     143.637  73.339 220.243 -0.14 +0.07    -0.334 N  
DOCKED: ATOM     19  C   UNL     1     144.812  72.636 220.779 -0.38 -0.02    +0.120 C  
DOCKED: ATOM     20  C   UNL     1     144.058  74.426 219.318 -0.26 -0.04    +0.115 C  
DOCKED: ATOM     21  C   UNL     1     145.621  72.081 219.633 -0.35 +0.01    +0.022 C  
DOCKED: ATOM     22  C   UNL     1     144.377  73.666 218.054 -0.18 -0.00    +0.030 C  
DOCKED: ATOM     23  C   UNL     1     145.126  72.410 218.275 -0.22 +0.00    +0.004 C  
DOCKED: BRANCH  20  24
DOCKED: ATOM     24  C   UNL     1     143.109  75.499 219.161 -0.31 +0.01    -0.025 A  
DOCKED: ATOM     25  C   UNL     1     143.176  76.750 219.740 -0.34 -0.01    +0.007 A  
DOCKED: ATOM     26  C   UNL     1     141.991  75.282 218.343 -0.12 -0.00    +0.007 A  
DOCKED: ATOM     27  C   UNL     1     142.225  77.730 219.540 -0.29 -0.01    +0.021 A  
DOCKED: ATOM     28  C   UNL     1     141.038  76.258 218.142 -0.08 -0.01    +0.021 A  
DOCKED: ATOM     29  C   UNL     1     141.131  77.500 218.733 -0.14 -0.02    +0.041 A  
DOCKED: ATOM     30  Cl  UNL     1     139.969  78.771 218.522 -0.08 +0.03    -0.084 Cl 
DOCKED: ENDBRANCH  20  24
DOCKED: ENDBRANCH   1  18
DOCKED: TORSDOF 5
DOCKED: TER
DOCKED: ENDMDL
________________________________________________________________________________


    FINAL DOCKED STATE:
    ________________________


Run:   7 / 20
Time taken for this run:   0.035s

DOCKED: MODEL        7
DOCKED: USER    Run = 7
DOCKED: USER
DOCKED: USER    Estimated Free Energy of Binding    =  -7.24 kcal/mol  [=(1)+(2)+(3)-(4)]
DOCKED: USER
DOCKED: USER    (1) Final Intermolecular Energy     =  -8.74 kcal/mol
DOCKED: USER        vdW + Hbond + desolv Energy     =  -8.73 kcal/mol
DOCKED: USER        Electrostatic Energy            =  -0.01 kcal/mol
DOCKED: USER        Moving Ligand-Fixed Receptor    =  -8.74 kcal/mol
DOCKED: USER        Moving Ligand-Moving Receptor   =  +0.00 kcal/mol
DOCKED: USER    (2) Final Total Internal Energy     =  -2.89 kcal/mol
DOCKED: USER    (3) Torsional Free Energy           =  +1.49 kcal/mol
DOCKED: USER    (4) Unbound System's Energy         =  -2.89 kcal/mol
DOCKED: USER
DOCKED: USER
DOCKED: REMARK SMILES O=C(NCC(=O)N1CCCC[C@H]1c1ccc(Cl)cc1)c1ccc2ccccc2n1
DOCKED: REMARK SMILES IDX 5 1 6 2 4 3 3 4 2 5 1 6 20 8 21 9 29 10 22 11 28 12 23 13
DOCKED: REMARK SMILES IDX 27 14 24 15 26 16 25 17 7 18 8 19 12 20 9 21 11 22 10 23
DOCKED: REMARK SMILES IDX 13 24 14 25 19 26 15 27 18 28 16 29 17 30
DOCKED: REMARK H PARENT 3 7
DOCKED: USER                              x       y       z     vdW  Elec       q    Type
DOCKED: USER                           _______ _______ _______ _____ _____    ______ ____
DOCKED: ROOT
DOCKED: ATOM      1  C   UNL     1     142.346  72.997 220.589 -0.16 -0.04    +0.242 C  
DOCKED: ATOM      2  O   UNL     1     142.029  71.829 220.083 -0.09 +0.04    -0.273 OA 
DOCKED: ENDROOT
DOCKED: BRANCH   1   3
DOCKED: ATOM      3  C   UNL     1     141.263  73.623 221.311 -0.18 -0.03    +0.216 C  
DOCKED: BRANCH   3   4
DOCKED: ATOM      4  N   UNL     1     141.355  74.962 221.757 -0.10 +0.06    -0.342 N  
DOCKED: ATOM      5  C   UNL     1     140.143  75.710 221.927 -0.23 -0.05    +0.270 C  
DOCKED: ATOM      6  O   UNL     1     139.081  75.126 221.665 -0.23 +0.06    -0.268 OA 
DOCKED: ATOM      7  H   UNL     1     142.287  75.428 221.967 -0.50 -0.09    +0.164 HD 
DOCKED: BRANCH   5   8
DOCKED: ATOM      8  C   UNL     1     140.220  77.095 222.390 -0.33 -0.03    +0.128 A  
DOCKED: ATOM      9  C   UNL     1     139.069  77.787 222.667 -0.29 -0.01    +0.035 A  
DOCKED: ATOM     10  N   UNL     1     141.431  77.696 222.546 -0.22 +0.12    -0.243 NA 
DOCKED: ATOM     11  C   UNL     1     139.170  79.101 223.106 -0.35 -0.00    +0.013 A  
DOCKED: ATOM     12  C   UNL     1     141.562  78.966 222.969 -0.50 -0.03    +0.071 A  
DOCKED: ATOM     13  C   UNL     1     140.409  79.692 223.258 -0.46 -0.00    +0.000 A  
DOCKED: ATOM     14  C   UNL     1     142.824  79.505 223.102 -0.55 -0.01    +0.029 A  
DOCKED: ATOM     15  C   UNL     1     140.570  80.984 223.686 -0.39 -0.00    +0.010 A  
DOCKED: ATOM     16  C   UNL     1     142.957  80.801 223.534 -0.64 -0.00    +0.002 A  
DOCKED: ATOM     17  C   UNL     1     141.832  81.548 223.828 -0.54 -0.00    +0.001 A  
DOCKED: ENDBRANCH   5   8
DOCKED: ENDBRANCH   3   4
DOCKED: ENDBRANCH   1   3
DOCKED: BRANCH   1  18
DOCKED: ATOM     18  N   UNL     1     143.654  73.397 220.328 -0.15 +0.07    -0.334 N  
DOCKED: ATOM     19  C   UNL     1     144.879  72.807 220.889 -0.39 -0.02    +0.120 C  
DOCKED: ATOM     20  C   UNL     1     143.994  74.478 219.363 -0.27 -0.04    +0.115 C  
DOCKED: ATOM     21  C   UNL     1     145.731  72.273 219.764 -0.39 +0.01    +0.022 C  
DOCKED: ATOM     22  C   UNL     1     144.373  73.699 218.128 -0.18 -0.01    +0.030 C  
DOCKED: ATOM     23  C   UNL     1     145.215  72.512 218.396 -0.24 +0.00    +0.004 C  
DOCKED: BRANCH  20  24
DOCKED: ATOM     24  C   UNL     1     142.965  75.469 219.166 -0.30 +0.01    -0.025 A  
DOCKED: ATOM     25  C   UNL     1     141.785  75.303 218.470 -0.12 -0.00    +0.007 A  
DOCKED: ATOM     26  C   UNL     1     143.153  76.740 219.724 -0.36 -0.01    +0.007 A  
DOCKED: ATOM     27  C   UNL     1     140.845  76.302 218.324 -0.07 -0.01    +0.021 A  
DOCKED: ATOM     28  C   UNL     1     142.215  77.742 219.579 -0.29 -0.01    +0.021 A  
DOCKED: ATOM     29  C   UNL     1     141.044  77.549 218.879 -0.14 -0.02    +0.041 A  
DOCKED: ATOM     30  Cl  UNL     1     139.825  78.764 218.660 -0.07 +0.03    -0.084 Cl 
DOCKED: ENDBRANCH  20  24
DOCKED: ENDBRANCH   1  18
DOCKED: TORSDOF 5
DOCKED: TER
DOCKED: ENDMDL
________________________________________________________________________________


    FINAL DOCKED STATE:
    ________________________


Run:   8 / 20
Time taken for this run:   0.035s

DOCKED: MODEL        8
DOCKED: USER    Run = 8
DOCKED: USER
DOCKED: USER    Estimated Free Energy of Binding    =  -7.26 kcal/mol  [=(1)+(2)+(3)-(4)]
DOCKED: USER
DOCKED: USER    (1) Final Intermolecular Energy     =  -8.75 kcal/mol
DOCKED: USER        vdW + Hbond + desolv Energy     =  -8.74 kcal/mol
DOCKED: USER        Electrostatic Energy            =  -0.01 kcal/mol
DOCKED: USER        Moving Ligand-Fixed Receptor    =  -8.75 kcal/mol
DOCKED: USER        Moving Ligand-Moving Receptor   =  +0.00 kcal/mol
DOCKED: USER    (2) Final Total Internal Energy     =  -2.87 kcal/mol
DOCKED: USER    (3) Torsional Free Energy           =  +1.49 kcal/mol
DOCKED: USER    (4) Unbound System's Energy         =  -2.87 kcal/mol
DOCKED: USER
DOCKED: USER
DOCKED: REMARK SMILES O=C(NCC(=O)N1CCCC[C@H]1c1ccc(Cl)cc1)c1ccc2ccccc2n1
DOCKED: REMARK SMILES IDX 5 1 6 2 4 3 3 4 2 5 1 6 20 8 21 9 29 10 22 11 28 12 23 13
DOCKED: REMARK SMILES IDX 27 14 24 15 26 16 25 17 7 18 8 19 12 20 9 21 11 22 10 23
DOCKED: REMARK SMILES IDX 13 24 14 25 19 26 15 27 18 28 16 29 17 30
DOCKED: REMARK H PARENT 3 7
DOCKED: USER                              x       y       z     vdW  Elec       q    Type
DOCKED: USER                           _______ _______ _______ _____ _____    ______ ____
DOCKED: ROOT
DOCKED: ATOM      1  C   UNL     1     142.363  73.049 220.611 -0.16 -0.04    +0.242 C  
DOCKED: ATOM      2  O   UNL     1     142.057  71.866 220.133 -0.10 +0.04    -0.273 OA 
DOCKED: ENDROOT
DOCKED: BRANCH   1   3
DOCKED: ATOM      3  C   UNL     1     141.271  73.685 221.310 -0.18 -0.03    +0.216 C  
DOCKED: BRANCH   3   4
DOCKED: ATOM      4  N   UNL     1     141.356  75.033 221.731 -0.12 +0.07    -0.342 N  
DOCKED: ATOM      5  C   UNL     1     140.138  75.750 221.974 -0.23 -0.05    +0.270 C  
DOCKED: ATOM      6  O   UNL     1     139.077  75.134 221.793 -0.27 +0.06    -0.268 OA 
DOCKED: ATOM      7  H   UNL     1     142.287  75.527 221.872 -0.50 -0.10    +0.164 HD 
DOCKED: BRANCH   5   8
DOCKED: ATOM      8  C   UNL     1     140.208  77.143 222.412 -0.32 -0.03    +0.128 A  
DOCKED: ATOM      9  C   UNL     1     139.052  77.840 222.660 -0.29 -0.01    +0.035 A  
DOCKED: ATOM     10  N   UNL     1     141.416  77.748 222.575 -0.24 +0.12    -0.243 NA 
DOCKED: ATOM     11  C   UNL     1     139.146  79.161 223.076 -0.34 -0.00    +0.013 A  
DOCKED: ATOM     12  C   UNL     1     141.540  79.026 222.976 -0.50 -0.02    +0.071 A  
DOCKED: ATOM     13  C   UNL     1     140.383  79.757 223.235 -0.45 -0.00    +0.000 A  
DOCKED: ATOM     14  C   UNL     1     142.800  79.569 223.118 -0.57 -0.01    +0.029 A  
DOCKED: ATOM     15  C   UNL     1     140.537  81.056 223.642 -0.37 -0.00    +0.010 A  
DOCKED: ATOM     16  C   UNL     1     142.925  80.872 223.527 -0.63 -0.00    +0.002 A  
DOCKED: ATOM     17  C   UNL     1     141.796  81.623 223.791 -0.51 -0.00    +0.001 A  
DOCKED: ENDBRANCH   5   8
DOCKED: ENDBRANCH   3   4
DOCKED: ENDBRANCH   1   3
DOCKED: BRANCH   1  18
DOCKED: ATOM     18  N   UNL     1     143.670  73.451 220.347 -0.15 +0.07    -0.334 N  
DOCKED: ATOM     19  C   UNL     1     144.896  72.867 220.911 -0.40 -0.02    +0.120 C  
DOCKED: ATOM     20  C   UNL     1     144.006  74.527 219.375 -0.27 -0.05    +0.115 C  
DOCKED: ATOM     21  C   UNL     1     145.749  72.329 219.788 -0.39 +0.01    +0.022 C  
DOCKED: ATOM     22  C   UNL     1     144.386  73.741 218.145 -0.18 -0.01    +0.030 C  
DOCKED: ATOM     23  C   UNL     1     145.232  72.559 218.419 -0.24 +0.00    +0.004 C  
DOCKED: BRANCH  20  24
DOCKED: ATOM     24  C   UNL     1     142.974  75.513 219.173 -0.30 +0.01    -0.025 A  
DOCKED: ATOM     25  C   UNL     1     141.809  75.351 218.451 -0.12 -0.00    +0.007 A  
DOCKED: ATOM     26  C   UNL     1     143.142  76.778 219.753 -0.33 -0.01    +0.007 A  
DOCKED: ATOM     27  C   UNL     1     140.865  76.345 218.301 -0.08 -0.01    +0.021 A  
DOCKED: ATOM     28  C   UNL     1     142.200  77.775 219.606 -0.29 -0.01    +0.021 A  
DOCKED: ATOM     29  C   UNL     1     141.044  77.584 218.879 -0.14 -0.02    +0.041 A  
DOCKED: ATOM     30  Cl  UNL     1     139.822  78.795 218.655 -0.07 +0.03    -0.084 Cl 
DOCKED: ENDBRANCH  20  24
DOCKED: ENDBRANCH   1  18
DOCKED: TORSDOF 5
DOCKED: TER
DOCKED: ENDMDL
________________________________________________________________________________


    FINAL DOCKED STATE:
    ________________________


Run:   9 / 20
Time taken for this run:   0.035s

DOCKED: MODEL        9
DOCKED: USER    Run = 9
DOCKED: USER
DOCKED: USER    Estimated Free Energy of Binding    =  -7.29 kcal/mol  [=(1)+(2)+(3)-(4)]
DOCKED: USER
DOCKED: USER    (1) Final Intermolecular Energy     =  -8.78 kcal/mol
DOCKED: USER        vdW + Hbond + desolv Energy     =  -8.77 kcal/mol
DOCKED: USER        Electrostatic Energy            =  -0.01 kcal/mol
DOCKED: USER        Moving Ligand-Fixed Receptor    =  -8.78 kcal/mol
DOCKED: USER        Moving Ligand-Moving Receptor   =  +0.00 kcal/mol
DOCKED: USER    (2) Final Total Internal Energy     =  -2.86 kcal/mol
DOCKED: USER    (3) Torsional Free Energy           =  +1.49 kcal/mol
DOCKED: USER    (4) Unbound System's Energy         =  -2.86 kcal/mol
DOCKED: USER
DOCKED: USER
DOCKED: REMARK SMILES O=C(NCC(=O)N1CCCC[C@H]1c1ccc(Cl)cc1)c1ccc2ccccc2n1
DOCKED: REMARK SMILES IDX 5 1 6 2 4 3 3 4 2 5 1 6 20 8 21 9 29 10 22 11 28 12 23 13
DOCKED: REMARK SMILES IDX 27 14 24 15 26 16 25 17 7 18 8 19 12 20 9 21 11 22 10 23
DOCKED: REMARK SMILES IDX 13 24 14 25 19 26 15 27 18 28 16 29 17 30
DOCKED: REMARK H PARENT 3 7
DOCKED: USER                              x       y       z     vdW  Elec       q    Type
DOCKED: USER                           _______ _______ _______ _____ _____    ______ ____
DOCKED: ROOT
DOCKED: ATOM      1  C   UNL     1     142.392  73.066 220.573 -0.16 -0.04    +0.242 C  
DOCKED: ATOM      2  O   UNL     1     142.081  71.889 220.085 -0.09 +0.04    -0.273 OA 
DOCKED: ENDROOT
DOCKED: BRANCH   1   3
DOCKED: ATOM      3  C   UNL     1     141.303  73.700 221.279 -0.18 -0.03    +0.216 C  
DOCKED: BRANCH   3   4
DOCKED: ATOM      4  N   UNL     1     141.387  75.048 221.699 -0.13 +0.07    -0.342 N  
DOCKED: ATOM      5  C   UNL     1     140.169  75.758 221.962 -0.23 -0.05    +0.270 C  
DOCKED: ATOM      6  O   UNL     1     139.109  75.136 221.799 -0.28 +0.06    -0.268 OA 
DOCKED: ATOM      7  H   UNL     1     142.317  75.548 221.823 -0.49 -0.10    +0.164 HD 
DOCKED: BRANCH   5   8
DOCKED: ATOM      8  C   UNL     1     140.238  77.152 222.400 -0.33 -0.03    +0.128 A  
DOCKED: ATOM      9  C   UNL     1     139.083  77.847 222.653 -0.29 -0.01    +0.035 A  
DOCKED: ATOM     10  N   UNL     1     141.447  77.759 222.557 -0.24 +0.12    -0.243 NA 
DOCKED: ATOM     11  C   UNL     1     139.176  79.168 223.068 -0.34 -0.00    +0.013 A  
DOCKED: ATOM     12  C   UNL     1     141.570  79.037 222.958 -0.50 -0.03    +0.071 A  
DOCKED: ATOM     13  C   UNL     1     140.413  79.766 223.222 -0.45 -0.00    +0.000 A  
DOCKED: ATOM     14  C   UNL     1     142.830  79.582 223.094 -0.57 -0.01    +0.029 A  
DOCKED: ATOM     15  C   UNL     1     140.566  81.066 223.627 -0.37 -0.00    +0.010 A  
DOCKED: ATOM     16  C   UNL     1     142.955  80.885 223.503 -0.62 -0.00    +0.002 A  
DOCKED: ATOM     17  C   UNL     1     141.825  81.635 223.771 -0.52 -0.00    +0.001 A  
DOCKED: ENDBRANCH   5   8
DOCKED: ENDBRANCH   3   4
DOCKED: ENDBRANCH   1   3
DOCKED: BRANCH   1  18
DOCKED: ATOM     18  N   UNL     1     143.700  73.465 220.312 -0.15 +0.07    -0.334 N  
DOCKED: ATOM     19  C   UNL     1     144.923  72.883 220.883 -0.42 -0.02    +0.120 C  
DOCKED: ATOM     20  C   UNL     1     144.040  74.537 219.336 -0.26 -0.05    +0.115 C  
DOCKED: ATOM     21  C   UNL     1     145.780  72.339 219.767 -0.39 +0.01    +0.022 C  
DOCKED: ATOM     22  C   UNL     1     144.425  73.744 218.111 -0.18 -0.01    +0.030 C  
DOCKED: ATOM     23  C   UNL     1     145.269  72.563 218.394 -0.23 +0.00    +0.004 C  
DOCKED: BRANCH  20  24
DOCKED: ATOM     24  C   UNL     1     143.011  75.523 219.125 -0.30 +0.01    -0.025 A  
DOCKED: ATOM     25  C   UNL     1     141.856  75.363 218.386 -0.12 -0.00    +0.007 A  
DOCKED: ATOM     26  C   UNL     1     143.169  76.784 219.716 -0.34 -0.01    +0.007 A  
DOCKED: ATOM     27  C   UNL     1     140.913  76.358 218.229 -0.08 -0.01    +0.021 A  
DOCKED: ATOM     28  C   UNL     1     142.228  77.781 219.561 -0.28 -0.01    +0.021 A  
DOCKED: ATOM     29  C   UNL     1     141.083  77.593 218.817 -0.14 -0.02    +0.041 A  
DOCKED: ATOM     30  Cl  UNL     1     139.862  78.804 218.582 -0.07 +0.03    -0.084 Cl 
DOCKED: ENDBRANCH  20  24
DOCKED: ENDBRANCH   1  18
DOCKED: TORSDOF 5
DOCKED: TER
DOCKED: ENDMDL
________________________________________________________________________________


    FINAL DOCKED STATE:
    ________________________


Run:   10 / 20
Time taken for this run:   0.035s

DOCKED: MODEL        10
DOCKED: USER    Run = 10
DOCKED: USER
DOCKED: USER    Estimated Free Energy of Binding    =  -7.24 kcal/mol  [=(1)+(2)+(3)-(4)]
DOCKED: USER
DOCKED: USER    (1) Final Intermolecular Energy     =  -8.73 kcal/mol
DOCKED: USER        vdW + Hbond + desolv Energy     =  -8.72 kcal/mol
DOCKED: USER        Electrostatic Energy            =  -0.01 kcal/mol
DOCKED: USER        Moving Ligand-Fixed Receptor    =  -8.73 kcal/mol
DOCKED: USER        Moving Ligand-Moving Receptor   =  +0.00 kcal/mol
DOCKED: USER    (2) Final Total Internal Energy     =  -2.89 kcal/mol
DOCKED: USER    (3) Torsional Free Energy           =  +1.49 kcal/mol
DOCKED: USER    (4) Unbound System's Energy         =  -2.89 kcal/mol
DOCKED: USER
DOCKED: USER
DOCKED: REMARK SMILES O=C(NCC(=O)N1CCCC[C@H]1c1ccc(Cl)cc1)c1ccc2ccccc2n1
DOCKED: REMARK SMILES IDX 5 1 6 2 4 3 3 4 2 5 1 6 20 8 21 9 29 10 22 11 28 12 23 13
DOCKED: REMARK SMILES IDX 27 14 24 15 26 16 25 17 7 18 8 19 12 20 9 21 11 22 10 23
DOCKED: REMARK SMILES IDX 13 24 14 25 19 26 15 27 18 28 16 29 17 30
DOCKED: REMARK H PARENT 3 7
DOCKED: USER                              x       y       z     vdW  Elec       q    Type
DOCKED: USER                           _______ _______ _______ _____ _____    ______ ____
DOCKED: ROOT
DOCKED: ATOM      1  C   UNL     1     142.359  73.022 220.585 -0.16 -0.04    +0.242 C  
DOCKED: ATOM      2  O   UNL     1     142.038  71.859 220.069 -0.09 +0.04    -0.273 OA 
DOCKED: ENDROOT
DOCKED: BRANCH   1   3
DOCKED: ATOM      3  C   UNL     1     141.279  73.642 221.317 -0.18 -0.03    +0.216 C  
DOCKED: BRANCH   3   4
DOCKED: ATOM      4  N   UNL     1     141.364  74.985 221.753 -0.11 +0.07    -0.342 N  
DOCKED: ATOM      5  C   UNL     1     140.148  75.722 221.936 -0.23 -0.05    +0.270 C  
DOCKED: ATOM      6  O   UNL     1     139.088  75.126 221.693 -0.24 +0.06    -0.268 OA 
DOCKED: ATOM      7  H   UNL     1     142.295  75.462 221.947 -0.50 -0.09    +0.164 HD 
DOCKED: BRANCH   5   8
DOCKED: ATOM      8  C   UNL     1     140.218  77.110 222.389 -0.33 -0.03    +0.128 A  
DOCKED: ATOM      9  C   UNL     1     139.063  77.803 222.648 -0.29 -0.01    +0.035 A  
DOCKED: ATOM     10  N   UNL     1     141.427  77.714 222.554 -0.23 +0.12    -0.243 NA 
DOCKED: ATOM     11  C   UNL     1     139.158  79.120 223.078 -0.35 -0.00    +0.013 A  
DOCKED: ATOM     12  C   UNL     1     141.551  78.988 222.969 -0.50 -0.03    +0.071 A  
DOCKED: ATOM     13  C   UNL     1     140.394  79.715 223.239 -0.45 -0.00    +0.000 A  
DOCKED: ATOM     14  C   UNL     1     142.811  79.530 223.112 -0.56 -0.01    +0.029 A  
DOCKED: ATOM     15  C   UNL     1     140.549  81.010 223.659 -0.38 -0.00    +0.010 A  
DOCKED: ATOM     16  C   UNL     1     142.937  80.829 223.535 -0.64 -0.00    +0.002 A  
DOCKED: ATOM     17  C   UNL     1     141.809  81.576 223.811 -0.53 -0.00    +0.001 A  
DOCKED: ENDBRANCH   5   8
DOCKED: ENDBRANCH   3   4
DOCKED: ENDBRANCH   1   3
DOCKED: BRANCH   1  18
DOCKED: ATOM     18  N   UNL     1     143.667  73.422 220.323 -0.15 +0.07    -0.334 N  
DOCKED: ATOM     19  C   UNL     1     144.892  72.832 220.884 -0.40 -0.02    +0.120 C  
DOCKED: ATOM     20  C   UNL     1     144.005  74.503 219.358 -0.27 -0.04    +0.115 C  
DOCKED: ATOM     21  C   UNL     1     145.743  72.299 219.759 -0.39 +0.01    +0.022 C  
DOCKED: ATOM     22  C   UNL     1     144.384  73.722 218.123 -0.18 -0.01    +0.030 C  
DOCKED: ATOM     23  C   UNL     1     145.227  72.537 218.391 -0.24 +0.00    +0.004 C  
DOCKED: BRANCH  20  24
DOCKED: ATOM     24  C   UNL     1     142.976  75.492 219.160 -0.30 +0.01    -0.025 A  
DOCKED: ATOM     25  C   UNL     1     141.801  75.330 218.454 -0.12 -0.00    +0.007 A  
DOCKED: ATOM     26  C   UNL     1     143.156  76.760 219.730 -0.35 -0.01    +0.007 A  
DOCKED: ATOM     27  C   UNL     1     140.860  76.328 218.308 -0.07 -0.01    +0.021 A  
DOCKED: ATOM     28  C   UNL     1     142.218  77.761 219.586 -0.29 -0.01    +0.021 A  
DOCKED: ATOM     29  C   UNL     1     141.052  77.570 218.875 -0.14 -0.02    +0.041 A  
DOCKED: ATOM     30  Cl  UNL     1     139.833  78.785 218.657 -0.07 +0.03    -0.084 Cl 
DOCKED: ENDBRANCH  20  24
DOCKED: ENDBRANCH   1  18
DOCKED: TORSDOF 5
DOCKED: TER
DOCKED: ENDMDL
________________________________________________________________________________


    FINAL DOCKED STATE:
    ________________________


Run:   11 / 20
Time taken for this run:   0.035s

DOCKED: MODEL        11
DOCKED: USER    Run = 11
DOCKED: USER
DOCKED: USER    Estimated Free Energy of Binding    =  -8.83 kcal/mol  [=(1)+(2)+(3)-(4)]
DOCKED: USER
DOCKED: USER    (1) Final Intermolecular Energy     = -10.32 kcal/mol
DOCKED: USER        vdW + Hbond + desolv Energy     = -10.22 kcal/mol
DOCKED: USER        Electrostatic Energy            =  -0.09 kcal/mol
DOCKED: USER        Moving Ligand-Fixed Receptor    = -10.32 kcal/mol
DOCKED: USER        Moving Ligand-Moving Receptor   =  +0.00 kcal/mol
DOCKED: USER    (2) Final Total Internal Energy     =  -1.22 kcal/mol
DOCKED: USER    (3) Torsional Free Energy           =  +1.49 kcal/mol
DOCKED: USER    (4) Unbound System's Energy         =  -1.22 kcal/mol
DOCKED: USER
DOCKED: USER
DOCKED: REMARK SMILES O=C(NCC(=O)N1CCCC[C@H]1c1ccc(Cl)cc1)c1ccc2ccccc2n1
DOCKED: REMARK SMILES IDX 5 1 6 2 4 3 3 4 2 5 1 6 20 8 21 9 29 10 22 11 28 12 23 13
DOCKED: REMARK SMILES IDX 27 14 24 15 26 16 25 17 7 18 8 19 12 20 9 21 11 22 10 23
DOCKED: REMARK SMILES IDX 13 24 14 25 19 26 15 27 18 28 16 29 17 30
DOCKED: REMARK H PARENT 3 7
DOCKED: USER                              x       y       z     vdW  Elec       q    Type
DOCKED: USER                           _______ _______ _______ _____ _____    ______ ____
DOCKED: ROOT
DOCKED: ATOM      1  C   UNL     1     140.733  75.320 221.510 -0.24 -0.05    +0.242 C  
DOCKED: ATOM      2  O   UNL     1     140.351  75.972 222.582 -0.38 +0.04    -0.273 OA 
DOCKED: ENDROOT
DOCKED: BRANCH   1   3
DOCKED: ATOM      3  C   UNL     1     139.987  74.104 221.282 -0.19 -0.04    +0.216 C  
DOCKED: BRANCH   3   4
DOCKED: ATOM      4  N   UNL     1     139.685  73.218 222.342 -0.15 +0.06    -0.342 N  
DOCKED: ATOM      5  C   UNL     1     140.614  72.168 222.641 -0.19 -0.02    +0.270 C  
DOCKED: ATOM      6  O   UNL     1     141.634  72.103 221.938 -0.16 +0.01    -0.268 OA 
DOCKED: ATOM      7  H   UNL     1     138.796  73.306 222.920 -0.49 -0.08    +0.164 HD 
DOCKED: BRANCH   5   8
DOCKED: ATOM      8  C   UNL     1     140.318  71.246 223.737 -0.33 -0.02    +0.128 A  
DOCKED: ATOM      9  C   UNL     1     139.579  70.116 223.497 -0.27 -0.01    +0.035 A  
DOCKED: ATOM     10  N   UNL     1     140.775  71.509 224.992 -0.32 +0.03    -0.243 NA 
DOCKED: ATOM     11  C   UNL     1     139.312  69.257 224.555 -0.35 -0.00    +0.013 A  
DOCKED: ATOM     12  C   UNL     1     140.534  70.696 226.037 -0.53 -0.01    +0.071 A  
DOCKED: ATOM     13  C   UNL     1     139.786  69.541 225.821 -0.47 -0.00    +0.000 A  
DOCKED: ATOM     14  C   UNL     1     141.031  71.030 227.279 -0.67 -0.00    +0.029 A  
DOCKED: ATOM     15  C   UNL     1     139.554  68.731 226.903 -0.56 -0.00    +0.010 A  
DOCKED: ATOM     16  C   UNL     1     140.785  70.201 228.343 -0.57 -0.00    +0.002 A  
DOCKED: ATOM     17  C   UNL     1     140.046  69.048 228.163 -0.64 -0.00    +0.001 A  
DOCKED: ENDBRANCH   5   8
DOCKED: ENDBRANCH   3   4
DOCKED: ENDBRANCH   1   3
DOCKED: BRANCH   1  18
DOCKED: ATOM     18  N   UNL     1     141.776  75.926 220.813 -0.13 +0.16    -0.334 N  
DOCKED: ATOM     19  C   UNL     1     142.945  75.253 220.229 -0.24 -0.06    +0.120 C  
DOCKED: ATOM     20  C   UNL     1     141.808  77.382 220.509 -0.25 -0.07    +0.115 C  
DOCKED: ATOM     21  C   UNL     1     142.959  75.489 218.739 -0.26 -0.01    +0.022 C  
DOCKED: ATOM     22  C   UNL     1     141.317  77.423 219.083 -0.18 -0.01    +0.030 C  
DOCKED: ATOM     23  C   UNL     1     141.886  76.368 218.216 -0.17 -0.00    +0.004 C  
DOCKED: BRANCH  20  24
DOCKED: ATOM     24  C   UNL     1     141.077  78.217 221.429 -0.33 +0.01    -0.025 A  
DOCKED: ATOM     25  C   UNL     1     141.549  78.750 222.612 -0.50 -0.00    +0.007 A  
DOCKED: ATOM     26  C   UNL     1     139.748  78.537 221.121 -0.18 -0.00    +0.007 A  
DOCKED: ATOM     27  C   UNL     1     140.786  79.543 223.443 -0.50 -0.00    +0.021 A  
DOCKED: ATOM     28  C   UNL     1     138.982  79.331 221.950 -0.20 -0.00    +0.021 A  
DOCKED: ATOM     29  C   UNL     1     139.480  79.850 223.126 -0.35 -0.01    +0.041 A  
DOCKED: ATOM     30  Cl  UNL     1     138.571  80.853 224.212 -0.42 +0.01    -0.084 Cl 
DOCKED: ENDBRANCH  20  24
DOCKED: ENDBRANCH   1  18
DOCKED: TORSDOF 5
DOCKED: TER
DOCKED: ENDMDL
________________________________________________________________________________


    FINAL DOCKED STATE:
    ________________________


Run:   12 / 20
Time taken for this run:   0.035s

DOCKED: MODEL        12
DOCKED: USER    Run = 12
DOCKED: USER
DOCKED: USER    Estimated Free Energy of Binding    =  -7.33 kcal/mol  [=(1)+(2)+(3)-(4)]
DOCKED: USER
DOCKED: USER    (1) Final Intermolecular Energy     =  -8.82 kcal/mol
DOCKED: USER        vdW + Hbond + desolv Energy     =  -8.81 kcal/mol
DOCKED: USER        Electrostatic Energy            =  -0.01 kcal/mol
DOCKED: USER        Moving Ligand-Fixed Receptor    =  -8.82 kcal/mol
DOCKED: USER        Moving Ligand-Moving Receptor   =  +0.00 kcal/mol
DOCKED: USER    (2) Final Total Internal Energy     =  -2.84 kcal/mol
DOCKED: USER    (3) Torsional Free Energy           =  +1.49 kcal/mol
DOCKED: USER    (4) Unbound System's Energy         =  -2.84 kcal/mol
DOCKED: USER
DOCKED: USER
DOCKED: REMARK SMILES O=C(NCC(=O)N1CCCC[C@H]1c1ccc(Cl)cc1)c1ccc2ccccc2n1
DOCKED: REMARK SMILES IDX 5 1 6 2 4 3 3 4 2 5 1 6 20 8 21 9 29 10 22 11 28 12 23 13
DOCKED: REMARK SMILES IDX 27 14 24 15 26 16 25 17 7 18 8 19 12 20 9 21 11 22 10 23
DOCKED: REMARK SMILES IDX 13 24 14 25 19 26 15 27 18 28 16 29 17 30
DOCKED: REMARK H PARENT 3 7
DOCKED: USER                              x       y       z     vdW  Elec       q    Type
DOCKED: USER                           _______ _______ _______ _____ _____    ______ ____
DOCKED: ROOT
DOCKED: ATOM      1  C   UNL     1     142.397  73.017 220.554 -0.16 -0.04    +0.242 C  
DOCKED: ATOM      2  O   UNL     1     142.096  71.823 220.101 -0.09 +0.04    -0.273 OA 
DOCKED: ENDROOT
DOCKED: BRANCH   1   3
DOCKED: ATOM      3  C   UNL     1     141.299  73.667 221.231 -0.19 -0.03    +0.216 C  
DOCKED: BRANCH   3   4
DOCKED: ATOM      4  N   UNL     1     141.382  75.022 221.629 -0.15 +0.08    -0.342 N  
DOCKED: ATOM      5  C   UNL     1     140.169  75.712 221.959 -0.23 -0.05    +0.270 C  
DOCKED: ATOM      6  O   UNL     1     139.113  75.067 221.870 -0.31 +0.06    -0.268 OA 
DOCKED: ATOM      7  H   UNL     1     142.308  75.541 221.689 -0.48 -0.10    +0.164 HD 
DOCKED: BRANCH   5   8
DOCKED: ATOM      8  C   UNL     1     140.237  77.112 222.376 -0.33 -0.03    +0.128 A  
DOCKED: ATOM      9  C   UNL     1     139.081  77.821 222.577 -0.29 -0.01    +0.035 A  
DOCKED: ATOM     10  N   UNL     1     141.445  77.710 222.563 -0.23 +0.12    -0.243 NA 
DOCKED: ATOM     11  C   UNL     1     139.173  79.149 222.973 -0.33 -0.00    +0.013 A  
DOCKED: ATOM     12  C   UNL     1     141.568  78.994 222.945 -0.50 -0.03    +0.071 A  
DOCKED: ATOM     13  C   UNL     1     140.409  79.738 223.158 -0.45 -0.00    +0.000 A  
DOCKED: ATOM     14  C   UNL     1     142.827  79.530 223.115 -0.56 -0.01    +0.029 A  
DOCKED: ATOM     15  C   UNL     1     140.562  81.043 223.546 -0.40 -0.00    +0.010 A  
DOCKED: ATOM     16  C   UNL     1     142.951  80.839 223.505 -0.63 -0.00    +0.002 A  
DOCKED: ATOM     17  C   UNL     1     141.821  81.603 223.723 -0.53 -0.00    +0.001 A  
DOCKED: ENDBRANCH   5   8
DOCKED: ENDBRANCH   3   4
DOCKED: ENDBRANCH   1   3
DOCKED: BRANCH   1  18
DOCKED: ATOM     18  N   UNL     1     143.705  73.414 220.291 -0.15 +0.07    -0.334 N  
DOCKED: ATOM     19  C   UNL     1     144.929  72.825 220.855 -0.41 -0.02    +0.120 C  
DOCKED: ATOM     20  C   UNL     1     144.045  74.490 219.321 -0.26 -0.04    +0.115 C  
DOCKED: ATOM     21  C   UNL     1     145.781  72.286 219.733 -0.38 +0.01    +0.022 C  
DOCKED: ATOM     22  C   UNL     1     144.424  73.705 218.090 -0.18 -0.01    +0.030 C  
DOCKED: ATOM     23  C   UNL     1     145.266  72.519 218.363 -0.23 +0.00    +0.004 C  
DOCKED: BRANCH  20  24
DOCKED: ATOM     24  C   UNL     1     143.018  75.481 219.119 -0.30 +0.01    -0.025 A  
DOCKED: ATOM     25  C   UNL     1     141.860  75.328 218.383 -0.12 -0.00    +0.007 A  
DOCKED: ATOM     26  C   UNL     1     143.181  76.738 219.716 -0.36 -0.01    +0.007 A  
DOCKED: ATOM     27  C   UNL     1     140.919  76.326 218.235 -0.08 -0.01    +0.021 A  
DOCKED: ATOM     28  C   UNL     1     142.243  77.738 219.570 -0.28 -0.01    +0.021 A  
DOCKED: ATOM     29  C   UNL     1     141.094  77.558 218.829 -0.14 -0.02    +0.041 A  
DOCKED: ATOM     30  Cl  UNL     1     139.876  78.773 218.606 -0.07 +0.03    -0.084 Cl 
DOCKED: ENDBRANCH  20  24
DOCKED: ENDBRANCH   1  18
DOCKED: TORSDOF 5
DOCKED: TER
DOCKED: ENDMDL
________________________________________________________________________________


    FINAL DOCKED STATE:
    ________________________


Run:   13 / 20
Time taken for this run:   0.035s

DOCKED: MODEL        13
DOCKED: USER    Run = 13
DOCKED: USER
DOCKED: USER    Estimated Free Energy of Binding    =  -7.28 kcal/mol  [=(1)+(2)+(3)-(4)]
DOCKED: USER
DOCKED: USER    (1) Final Intermolecular Energy     =  -8.77 kcal/mol
DOCKED: USER        vdW + Hbond + desolv Energy     =  -8.77 kcal/mol
DOCKED: USER        Electrostatic Energy            =  -0.00 kcal/mol
DOCKED: USER        Moving Ligand-Fixed Receptor    =  -8.77 kcal/mol
DOCKED: USER        Moving Ligand-Moving Receptor   =  +0.00 kcal/mol
DOCKED: USER    (2) Final Total Internal Energy     =  -2.78 kcal/mol
DOCKED: USER    (3) Torsional Free Energy           =  +1.49 kcal/mol
DOCKED: USER    (4) Unbound System's Energy         =  -2.78 kcal/mol
DOCKED: USER
DOCKED: USER
DOCKED: REMARK SMILES O=C(NCC(=O)N1CCCC[C@H]1c1ccc(Cl)cc1)c1ccc2ccccc2n1
DOCKED: REMARK SMILES IDX 5 1 6 2 4 3 3 4 2 5 1 6 20 8 21 9 29 10 22 11 28 12 23 13
DOCKED: REMARK SMILES IDX 27 14 24 15 26 16 25 17 7 18 8 19 12 20 9 21 11 22 10 23
DOCKED: REMARK SMILES IDX 13 24 14 25 19 26 15 27 18 28 16 29 17 30
DOCKED: REMARK H PARENT 3 7
DOCKED: USER                              x       y       z     vdW  Elec       q    Type
DOCKED: USER                           _______ _______ _______ _____ _____    ______ ____
DOCKED: ROOT
DOCKED: ATOM      1  C   UNL     1     142.315  73.041 220.462 -0.15 -0.04    +0.242 C  
DOCKED: ATOM      2  O   UNL     1     141.914  71.964 219.828 -0.07 +0.04    -0.273 OA 
DOCKED: ENDROOT
DOCKED: BRANCH   1   3
DOCKED: ATOM      3  C   UNL     1     141.274  73.667 221.244 -0.19 -0.03    +0.216 C  
DOCKED: BRANCH   3   4
DOCKED: ATOM      4  N   UNL     1     141.358  75.027 221.624 -0.16 +0.08    -0.342 N  
DOCKED: ATOM      5  C   UNL     1     140.149  75.716 221.968 -0.23 -0.05    +0.270 C  
DOCKED: ATOM      6  O   UNL     1     139.094  75.066 221.905 -0.31 +0.06    -0.268 OA 
DOCKED: ATOM      7  H   UNL     1     142.283  75.550 221.662 -0.48 -0.10    +0.164 HD 
DOCKED: BRANCH   5   8
DOCKED: ATOM      8  C   UNL     1     140.219  77.121 222.366 -0.33 -0.03    +0.128 A  
DOCKED: ATOM      9  C   UNL     1     139.063  77.838 222.548 -0.29 -0.01    +0.035 A  
DOCKED: ATOM     10  N   UNL     1     141.428  77.717 222.556 -0.23 +0.12    -0.243 NA 
DOCKED: ATOM     11  C   UNL     1     139.158  79.170 222.927 -0.33 -0.00    +0.013 A  
DOCKED: ATOM     12  C   UNL     1     141.552  79.006 222.923 -0.50 -0.03    +0.071 A  
DOCKED: ATOM     13  C   UNL     1     140.394  79.757 223.115 -0.44 -0.00    +0.000 A  
DOCKED: ATOM     14  C   UNL     1     142.812  79.538 223.096 -0.57 -0.01    +0.029 A  
DOCKED: ATOM     15  C   UNL     1     140.549  81.067 223.487 -0.41 -0.00    +0.010 A  
DOCKED: ATOM     16  C   UNL     1     142.938  80.852 223.470 -0.62 -0.00    +0.002 A  
DOCKED: ATOM     17  C   UNL     1     141.809  81.624 223.667 -0.52 -0.00    +0.001 A  
DOCKED: ENDBRANCH   5   8
DOCKED: ENDBRANCH   3   4
DOCKED: ENDBRANCH   1   3
DOCKED: BRANCH   1  18
DOCKED: ATOM     18  N   UNL     1     143.653  73.364 220.252 -0.14 +0.07    -0.334 N  
DOCKED: ATOM     19  C   UNL     1     144.819  72.679 220.829 -0.39 -0.02    +0.120 C  
DOCKED: ATOM     20  C   UNL     1     144.090  74.449 219.332 -0.26 -0.04    +0.115 C  
DOCKED: ATOM     21  C   UNL     1     145.670  72.126 219.713 -0.37 +0.01    +0.022 C  
DOCKED: ATOM     22  C   UNL     1     144.457  73.684 218.084 -0.18 -0.00    +0.030 C  
DOCKED: ATOM     23  C   UNL     1     145.214  72.438 218.338 -0.23 +0.00    +0.004 C  
DOCKED: BRANCH  20  24
DOCKED: ATOM     24  C   UNL     1     143.133  75.509 219.136 -0.31 +0.01    -0.025 A  
DOCKED: ATOM     25  C   UNL     1     143.157  76.759 219.722 -0.35 -0.01    +0.007 A  
DOCKED: ATOM     26  C   UNL     1     142.056  75.279 218.270 -0.12 -0.00    +0.007 A  
DOCKED: ATOM     27  C   UNL     1     142.202  77.726 219.485 -0.30 -0.01    +0.021 A  
DOCKED: ATOM     28  C   UNL     1     141.099  76.244 218.031 -0.08 -0.01    +0.021 A  
DOCKED: ATOM     29  C   UNL     1     141.148  77.484 218.629 -0.13 -0.02    +0.041 A  
DOCKED: ATOM     30  Cl  UNL     1     139.978  78.739 218.372 -0.07 +0.03    -0.084 Cl 
DOCKED: ENDBRANCH  20  24
DOCKED: ENDBRANCH   1  18
DOCKED: TORSDOF 5
DOCKED: TER
DOCKED: ENDMDL
________________________________________________________________________________


    FINAL DOCKED STATE:
    ________________________


Run:   14 / 20
Time taken for this run:   0.035s

DOCKED: MODEL        14
DOCKED: USER    Run = 14
DOCKED: USER
DOCKED: USER    Estimated Free Energy of Binding    =  -7.25 kcal/mol  [=(1)+(2)+(3)-(4)]
DOCKED: USER
DOCKED: USER    (1) Final Intermolecular Energy     =  -8.74 kcal/mol
DOCKED: USER        vdW + Hbond + desolv Energy     =  -8.73 kcal/mol
DOCKED: USER        Electrostatic Energy            =  -0.01 kcal/mol
DOCKED: USER        Moving Ligand-Fixed Receptor    =  -8.74 kcal/mol
DOCKED: USER        Moving Ligand-Moving Receptor   =  +0.00 kcal/mol
DOCKED: USER    (2) Final Total Internal Energy     =  -2.87 kcal/mol
DOCKED: USER    (3) Torsional Free Energy           =  +1.49 kcal/mol
DOCKED: USER    (4) Unbound System's Energy         =  -2.87 kcal/mol
DOCKED: USER
DOCKED: USER
DOCKED: REMARK SMILES O=C(NCC(=O)N1CCCC[C@H]1c1ccc(Cl)cc1)c1ccc2ccccc2n1
DOCKED: REMARK SMILES IDX 5 1 6 2 4 3 3 4 2 5 1 6 20 8 21 9 29 10 22 11 28 12 23 13
DOCKED: REMARK SMILES IDX 27 14 24 15 26 16 25 17 7 18 8 19 12 20 9 21 11 22 10 23
DOCKED: REMARK SMILES IDX 13 24 14 25 19 26 15 27 18 28 16 29 17 30
DOCKED: REMARK H PARENT 3 7
DOCKED: USER                              x       y       z     vdW  Elec       q    Type
DOCKED: USER                           _______ _______ _______ _____ _____    ______ ____
DOCKED: ROOT
DOCKED: ATOM      1  C   UNL     1     142.321  73.065 220.480 -0.16 -0.04    +0.242 C  
DOCKED: ATOM      2  O   UNL     1     141.964  71.932 219.924 -0.08 +0.04    -0.273 OA 
DOCKED: ENDROOT
DOCKED: BRANCH   1   3
DOCKED: ATOM      3  C   UNL     1     141.262  73.691 221.238 -0.19 -0.03    +0.216 C  
DOCKED: BRANCH   3   4
DOCKED: ATOM      4  N   UNL     1     141.351  75.042 221.646 -0.15 +0.08    -0.342 N  
DOCKED: ATOM      5  C   UNL     1     140.136  75.754 221.920 -0.23 -0.05    +0.270 C  
DOCKED: ATOM      6  O   UNL     1     139.074  75.129 221.777 -0.26 +0.06    -0.268 OA 
DOCKED: ATOM      7  H   UNL     1     142.282  75.543 221.754 -0.49 -0.10    +0.164 HD 
DOCKED: BRANCH   5   8
DOCKED: ATOM      8  C   UNL     1     140.210  77.151 222.346 -0.34 -0.03    +0.128 A  
DOCKED: ATOM      9  C   UNL     1     139.057  77.858 222.571 -0.29 -0.01    +0.035 A  
DOCKED: ATOM     10  N   UNL     1     141.421  77.748 222.518 -0.23 +0.12    -0.243 NA 
DOCKED: ATOM     11  C   UNL     1     139.155  79.183 222.975 -0.33 -0.00    +0.013 A  
DOCKED: ATOM     12  C   UNL     1     141.549  79.030 222.908 -0.49 -0.03    +0.071 A  
DOCKED: ATOM     13  C   UNL     1     140.394  79.771 223.144 -0.44 -0.00    +0.000 A  
DOCKED: ATOM     14  C   UNL     1     142.811  79.565 223.060 -0.57 -0.01    +0.029 A  
DOCKED: ATOM     15  C   UNL     1     140.552  81.074 223.540 -0.39 -0.00    +0.010 A  
DOCKED: ATOM     16  C   UNL     1     142.940  80.871 223.458 -0.62 -0.00    +0.002 A  
DOCKED: ATOM     17  C   UNL     1     141.813  81.633 223.700 -0.52 -0.00    +0.001 A  
DOCKED: ENDBRANCH   5   8
DOCKED: ENDBRANCH   3   4
DOCKED: ENDBRANCH   1   3
DOCKED: BRANCH   1  18
DOCKED: ATOM     18  N   UNL     1     143.639  73.436 220.228 -0.14 +0.07    -0.334 N  
DOCKED: ATOM     19  C   UNL     1     144.846  72.825 220.806 -0.41 -0.02    +0.120 C  
DOCKED: ATOM     20  C   UNL     1     144.009  74.501 219.257 -0.25 -0.04    +0.115 C  
DOCKED: ATOM     21  C   UNL     1     145.697  72.265 219.693 -0.38 +0.01    +0.022 C  
DOCKED: ATOM     22  C   UNL     1     144.384  73.703 218.032 -0.18 -0.01    +0.030 C  
DOCKED: ATOM     23  C   UNL     1     145.199  72.502 218.318 -0.24 +0.00    +0.004 C  
DOCKED: BRANCH  20  24
DOCKED: ATOM     24  C   UNL     1     143.004  75.511 219.042 -0.29 +0.01    -0.025 A  
DOCKED: ATOM     25  C   UNL     1     141.891  75.406 218.233 -0.11 -0.00    +0.007 A  
DOCKED: ATOM     26  C   UNL     1     143.141  76.737 219.707 -0.36 -0.01    +0.007 A  
DOCKED: ATOM     27  C   UNL     1     140.968  76.420 218.077 -0.07 -0.01    +0.021 A  
DOCKED: ATOM     28  C   UNL     1     142.221  77.753 219.554 -0.29 -0.01    +0.021 A  
DOCKED: ATOM     29  C   UNL     1     141.117  77.620 218.739 -0.14 -0.02    +0.041 A  
DOCKED: ATOM     30  Cl  UNL     1     139.924  78.857 218.502 -0.07 +0.03    -0.084 Cl 
DOCKED: ENDBRANCH  20  24
DOCKED: ENDBRANCH   1  18
DOCKED: TORSDOF 5
DOCKED: TER
DOCKED: ENDMDL
________________________________________________________________________________


    FINAL DOCKED STATE:
    ________________________


Run:   15 / 20
Time taken for this run:   0.035s

DOCKED: MODEL        15
DOCKED: USER    Run = 15
DOCKED: USER
DOCKED: USER    Estimated Free Energy of Binding    =  -7.36 kcal/mol  [=(1)+(2)+(3)-(4)]
DOCKED: USER
DOCKED: USER    (1) Final Intermolecular Energy     =  -8.85 kcal/mol
DOCKED: USER        vdW + Hbond + desolv Energy     =  -8.83 kcal/mol
DOCKED: USER        Electrostatic Energy            =  -0.02 kcal/mol
DOCKED: USER        Moving Ligand-Fixed Receptor    =  -8.85 kcal/mol
DOCKED: USER        Moving Ligand-Moving Receptor   =  +0.00 kcal/mol
DOCKED: USER    (2) Final Total Internal Energy     =  -2.34 kcal/mol
DOCKED: USER    (3) Torsional Free Energy           =  +1.49 kcal/mol
DOCKED: USER    (4) Unbound System's Energy         =  -2.34 kcal/mol
DOCKED: USER
DOCKED: USER
DOCKED: REMARK SMILES O=C(NCC(=O)N1CCCC[C@H]1c1ccc(Cl)cc1)c1ccc2ccccc2n1
DOCKED: REMARK SMILES IDX 5 1 6 2 4 3 3 4 2 5 1 6 20 8 21 9 29 10 22 11 28 12 23 13
DOCKED: REMARK SMILES IDX 27 14 24 15 26 16 25 17 7 18 8 19 12 20 9 21 11 22 10 23
DOCKED: REMARK SMILES IDX 13 24 14 25 19 26 15 27 18 28 16 29 17 30
DOCKED: REMARK H PARENT 3 7
DOCKED: USER                              x       y       z     vdW  Elec       q    Type
DOCKED: USER                           _______ _______ _______ _____ _____    ______ ____
DOCKED: ROOT
DOCKED: ATOM      1  C   UNL     1     139.561  78.253 221.842 -0.17 -0.06    +0.242 C  
DOCKED: ATOM      2  O   UNL     1     138.531  78.315 221.031 -0.05 +0.06    -0.273 OA 
DOCKED: ENDROOT
DOCKED: BRANCH   1   3
DOCKED: ATOM      3  C   UNL     1     139.751  76.948 222.430 -0.22 -0.05    +0.216 C  
DOCKED: BRANCH   3   4
DOCKED: ATOM      4  N   UNL     1     140.805  76.101 222.013 -0.21 +0.10    -0.342 N  
DOCKED: ATOM      5  C   UNL     1     140.474  74.822 221.457 -0.21 -0.05    +0.270 C  
DOCKED: ATOM      6  O   UNL     1     139.269  74.537 221.380 -0.21 +0.06    -0.268 OA 
DOCKED: ATOM      7  H   UNL     1     141.827  76.382 222.100 -0.52 -0.11    +0.164 HD 
DOCKED: BRANCH   5   8
DOCKED: ATOM      8  C   UNL     1     141.552  73.936 221.019 -0.23 -0.02    +0.128 A  
DOCKED: ATOM      9  C   UNL     1     141.274  72.634 220.688 -0.19 -0.01    +0.035 A  
DOCKED: ATOM     10  N   UNL     1     142.828  74.402 220.939 -0.12 +0.08    -0.243 NA 
DOCKED: ATOM     11  C   UNL     1     142.315  71.814 220.274 -0.19 -0.00    +0.013 A  
DOCKED: ATOM     12  C   UNL     1     143.858  73.633 220.542 -0.35 -0.02    +0.071 A  
DOCKED: ATOM     13  C   UNL     1     143.604  72.307 220.199 -0.30 -0.00    +0.000 A  
DOCKED: ATOM     14  C   UNL     1     145.124  74.177 220.486 -0.54 -0.01    +0.029 A  
DOCKED: ATOM     15  C   UNL     1     144.670  71.545 219.799 -0.29 +0.00    +0.010 A  
DOCKED: ATOM     16  C   UNL     1     146.173  73.393 220.081 -0.57 +0.00    +0.002 A  
DOCKED: ATOM     17  C   UNL     1     145.954  72.073 219.736 -0.37 +0.00    +0.001 A  
DOCKED: ENDBRANCH   5   8
DOCKED: ENDBRANCH   3   4
DOCKED: ENDBRANCH   1   3
DOCKED: BRANCH   1  18
DOCKED: ATOM     18  N   UNL     1     140.258  79.452 221.972 -0.08 +0.09    -0.334 N  
DOCKED: ATOM     19  C   UNL     1     139.851  80.618 222.770 -0.30 -0.02    +0.120 C  
DOCKED: ATOM     20  C   UNL     1     141.585  79.690 221.342 -0.33 -0.05    +0.115 C  
DOCKED: ATOM     21  C   UNL     1     140.902  80.890 223.819 -0.41 -0.00    +0.022 C  
DOCKED: ATOM     22  C   UNL     1     142.534  79.436 222.487 -0.52 -0.01    +0.030 C  
DOCKED: ATOM     23  C   UNL     1     142.097  80.015 223.776 -0.64 -0.00    +0.004 C  
DOCKED: BRANCH  20  24
DOCKED: ATOM     24  C   UNL     1     141.846  78.919 220.152 -0.27 +0.02    -0.025 A  
DOCKED: ATOM     25  C   UNL     1     142.247  77.599 220.097 -0.28 -0.00    +0.007 A  
DOCKED: ATOM     26  C   UNL     1     141.686  79.544 218.908 -0.26 -0.00    +0.007 A  
DOCKED: ATOM     27  C   UNL     1     142.477  76.926 218.915 -0.30 -0.01    +0.021 A  
DOCKED: ATOM     28  C   UNL     1     141.916  78.874 217.724 -0.24 -0.02    +0.021 A  
DOCKED: ATOM     29  C   UNL     1     142.316  77.555 217.699 -0.24 -0.03    +0.041 A  
DOCKED: ATOM     30  Cl  UNL     1     142.622  76.656 216.247 -0.22 +0.05    -0.084 Cl 
DOCKED: ENDBRANCH  20  24
DOCKED: ENDBRANCH   1  18
DOCKED: TORSDOF 5
DOCKED: TER
DOCKED: ENDMDL
________________________________________________________________________________


    FINAL DOCKED STATE:
    ________________________


Run:   16 / 20
Time taken for this run:   0.035s

DOCKED: MODEL        16
DOCKED: USER    Run = 16
DOCKED: USER
DOCKED: USER    Estimated Free Energy of Binding    =  -7.31 kcal/mol  [=(1)+(2)+(3)-(4)]
DOCKED: USER
DOCKED: USER    (1) Final Intermolecular Energy     =  -8.81 kcal/mol
DOCKED: USER        vdW + Hbond + desolv Energy     =  -8.80 kcal/mol
DOCKED: USER        Electrostatic Energy            =  -0.01 kcal/mol
DOCKED: USER        Moving Ligand-Fixed Receptor    =  -8.81 kcal/mol
DOCKED: USER        Moving Ligand-Moving Receptor   =  +0.00 kcal/mol
DOCKED: USER    (2) Final Total Internal Energy     =  -2.84 kcal/mol
DOCKED: USER    (3) Torsional Free Energy           =  +1.49 kcal/mol
DOCKED: USER    (4) Unbound System's Energy         =  -2.84 kcal/mol
DOCKED: USER
DOCKED: USER
DOCKED: REMARK SMILES O=C(NCC(=O)N1CCCC[C@H]1c1ccc(Cl)cc1)c1ccc2ccccc2n1
DOCKED: REMARK SMILES IDX 5 1 6 2 4 3 3 4 2 5 1 6 20 8 21 9 29 10 22 11 28 12 23 13
DOCKED: REMARK SMILES IDX 27 14 24 15 26 16 25 17 7 18 8 19 12 20 9 21 11 22 10 23
DOCKED: REMARK SMILES IDX 13 24 14 25 19 26 15 27 18 28 16 29 17 30
DOCKED: REMARK H PARENT 3 7
DOCKED: USER                              x       y       z     vdW  Elec       q    Type
DOCKED: USER                           _______ _______ _______ _____ _____    ______ ____
DOCKED: ROOT
DOCKED: ATOM      1  C   UNL     1     142.428  72.993 220.573 -0.16 -0.04    +0.242 C  
DOCKED: ATOM      2  O   UNL     1     142.150  71.786 220.140 -0.10 +0.04    -0.273 OA 
DOCKED: ENDROOT
DOCKED: BRANCH   1   3
DOCKED: ATOM      3  C   UNL     1     141.316  73.635 221.235 -0.19 -0.03    +0.216 C  
DOCKED: BRANCH   3   4
DOCKED: ATOM      4  N   UNL     1     141.397  74.979 221.668 -0.13 +0.07    -0.342 N  
DOCKED: ATOM      5  C   UNL     1     140.178  75.680 221.949 -0.22 -0.05    +0.270 C  
DOCKED: ATOM      6  O   UNL     1     139.120  75.054 221.787 -0.28 +0.06    -0.268 OA 
DOCKED: ATOM      7  H   UNL     1     142.326  75.482 221.791 -0.48 -0.10    +0.164 HD 
DOCKED: BRANCH   5   8
DOCKED: ATOM      8  C   UNL     1     140.244  77.070 222.401 -0.33 -0.03    +0.128 A  
DOCKED: ATOM      9  C   UNL     1     139.087  77.758 222.661 -0.29 -0.01    +0.035 A  
DOCKED: ATOM     10  N   UNL     1     141.451  77.678 222.563 -0.22 +0.12    -0.243 NA 
DOCKED: ATOM     11  C   UNL     1     139.177  79.076 223.090 -0.35 -0.00    +0.013 A  
DOCKED: ATOM     12  C   UNL     1     141.571  78.953 222.976 -0.50 -0.03    +0.071 A  
DOCKED: ATOM     13  C   UNL     1     140.412  79.675 223.248 -0.46 -0.00    +0.000 A  
DOCKED: ATOM     14  C   UNL     1     142.829  79.499 223.117 -0.55 -0.01    +0.029 A  
DOCKED: ATOM     15  C   UNL     1     140.562  80.972 223.667 -0.39 -0.00    +0.010 A  
DOCKED: ATOM     16  C   UNL     1     142.951  80.799 223.539 -0.64 -0.00    +0.002 A  
DOCKED: ATOM     17  C   UNL     1     141.820  81.543 223.816 -0.54 -0.00    +0.001 A  
DOCKED: ENDBRANCH   5   8
DOCKED: ENDBRANCH   3   4
DOCKED: ENDBRANCH   1   3
DOCKED: BRANCH   1  18
DOCKED: ATOM     18  N   UNL     1     143.730  73.410 220.306 -0.15 +0.07    -0.334 N  
DOCKED: ATOM     19  C   UNL     1     144.964  72.839 220.866 -0.42 -0.02    +0.120 C  
DOCKED: ATOM     20  C   UNL     1     144.051  74.493 219.337 -0.27 -0.04    +0.115 C  
DOCKED: ATOM     21  C   UNL     1     145.820  72.314 219.740 -0.38 +0.01    +0.022 C  
DOCKED: ATOM     22  C   UNL     1     144.437  73.715 218.103 -0.18 -0.01    +0.030 C  
DOCKED: ATOM     23  C   UNL     1     145.297  72.541 218.372 -0.22 +0.00    +0.004 C  
DOCKED: BRANCH  20  24
DOCKED: ATOM     24  C   UNL     1     143.008  75.468 219.140 -0.30 +0.01    -0.025 A  
DOCKED: ATOM     25  C   UNL     1     141.841  75.294 218.424 -0.12 -0.00    +0.007 A  
DOCKED: ATOM     26  C   UNL     1     143.165  76.734 219.720 -0.36 -0.01    +0.007 A  
DOCKED: ATOM     27  C   UNL     1     140.886  76.278 218.279 -0.07 -0.01    +0.021 A  
DOCKED: ATOM     28  C   UNL     1     142.212  77.721 219.577 -0.29 -0.01    +0.021 A  
DOCKED: ATOM     29  C   UNL     1     141.055  77.519 218.856 -0.14 -0.02    +0.041 A  
DOCKED: ATOM     30  Cl  UNL     1     139.818  78.716 218.638 -0.07 +0.03    -0.084 Cl 
DOCKED: ENDBRANCH  20  24
DOCKED: ENDBRANCH   1  18
DOCKED: TORSDOF 5
DOCKED: TER
DOCKED: ENDMDL
________________________________________________________________________________


    FINAL DOCKED STATE:
    ________________________


Run:   17 / 20
Time taken for this run:   0.035s

DOCKED: MODEL        17
DOCKED: USER    Run = 17
DOCKED: USER
DOCKED: USER    Estimated Free Energy of Binding    =  -8.19 kcal/mol  [=(1)+(2)+(3)-(4)]
DOCKED: USER
DOCKED: USER    (1) Final Intermolecular Energy     =  -9.68 kcal/mol
DOCKED: USER        vdW + Hbond + desolv Energy     =  -9.58 kcal/mol
DOCKED: USER        Electrostatic Energy            =  -0.10 kcal/mol
DOCKED: USER        Moving Ligand-Fixed Receptor    =  -9.68 kcal/mol
DOCKED: USER        Moving Ligand-Moving Receptor   =  +0.00 kcal/mol
DOCKED: USER    (2) Final Total Internal Energy     =  -1.87 kcal/mol
DOCKED: USER    (3) Torsional Free Energy           =  +1.49 kcal/mol
DOCKED: USER    (4) Unbound System's Energy         =  -1.87 kcal/mol
DOCKED: USER
DOCKED: USER
DOCKED: REMARK SMILES O=C(NCC(=O)N1CCCC[C@H]1c1ccc(Cl)cc1)c1ccc2ccccc2n1
DOCKED: REMARK SMILES IDX 5 1 6 2 4 3 3 4 2 5 1 6 20 8 21 9 29 10 22 11 28 12 23 13
DOCKED: REMARK SMILES IDX 27 14 24 15 26 16 25 17 7 18 8 19 12 20 9 21 11 22 10 23
DOCKED: REMARK SMILES IDX 13 24 14 25 19 26 15 27 18 28 16 29 17 30
DOCKED: REMARK H PARENT 3 7
DOCKED: USER                              x       y       z     vdW  Elec       q    Type
DOCKED: USER                           _______ _______ _______ _____ _____    ______ ____
DOCKED: ROOT
DOCKED: ATOM      1  C   UNL     1     140.235  75.388 221.135 -0.20 -0.06    +0.242 C  
DOCKED: ATOM      2  O   UNL     1     140.461  75.902 222.321 -0.45 +0.05    -0.273 OA 
DOCKED: ENDROOT
DOCKED: BRANCH   1   3
DOCKED: ATOM      3  C   UNL     1     139.856  73.994 221.176 -0.17 -0.04    +0.216 C  
DOCKED: BRANCH   3   4
DOCKED: ATOM      4  N   UNL     1     139.804  73.284 222.398 -0.12 +0.05    -0.342 N  
DOCKED: ATOM      5  C   UNL     1     140.081  71.878 222.382 -0.20 -0.04    +0.270 C  
DOCKED: ATOM      6  O   UNL     1     140.350  71.370 221.283 -0.11 +0.04    -0.268 OA 
DOCKED: ATOM      7  H   UNL     1     139.566  73.757 223.320 -0.48 -0.04    +0.164 HD 
DOCKED: BRANCH   5   8
DOCKED: ATOM      8  C   UNL     1     140.034  71.128 223.637 -0.32 -0.02    +0.128 A  
DOCKED: ATOM      9  C   UNL     1     139.527  69.854 223.654 -0.26 -0.01    +0.035 A  
DOCKED: ATOM     10  N   UNL     1     140.493  71.694 224.787 -0.29 +0.04    -0.243 NA 
DOCKED: ATOM     11  C   UNL     1     139.494  69.165 224.859 -0.38 -0.00    +0.013 A  
DOCKED: ATOM     12  C   UNL     1     140.474  71.053 225.970 -0.54 -0.01    +0.071 A  
DOCKED: ATOM     13  C   UNL     1     139.965  69.757 226.015 -0.49 -0.00    +0.000 A  
DOCKED: ATOM     14  C   UNL     1     140.957  71.693 227.091 -0.75 -0.01    +0.029 A  
DOCKED: ATOM     15  C   UNL     1     139.957  69.126 227.231 -0.59 -0.00    +0.010 A  
DOCKED: ATOM     16  C   UNL     1     140.939  71.038 228.296 -0.67 -0.00    +0.002 A  
DOCKED: ATOM     17  C   UNL     1     140.439  69.752 228.374 -0.57 -0.00    +0.001 A  
DOCKED: ENDBRANCH   5   8
DOCKED: ENDBRANCH   3   4
DOCKED: ENDBRANCH   1   3
DOCKED: BRANCH   1  18
DOCKED: ATOM     18  N   UNL     1     140.408  76.282 220.082 -0.03 +0.11    -0.334 N  
DOCKED: ATOM     19  C   UNL     1     139.373  77.138 219.482 -0.05 -0.03    +0.120 C  
DOCKED: ATOM     20  C   UNL     1     141.728  76.538 219.444 -0.20 -0.05    +0.115 C  
DOCKED: ATOM     21  C   UNL     1     139.774  78.584 219.641 -0.10 -0.01    +0.022 C  
DOCKED: ATOM     22  C   UNL     1     142.168  77.814 220.119 -0.25 -0.02    +0.030 C  
DOCKED: ATOM     23  C   UNL     1     141.095  78.821 220.269 -0.26 -0.00    +0.004 C  
DOCKED: BRANCH  20  24
DOCKED: ATOM     24  C   UNL     1     142.670  75.450 219.526 -0.29 +0.01    -0.025 A  
DOCKED: ATOM     25  C   UNL     1     143.927  75.490 220.095 -0.36 -0.00    +0.007 A  
DOCKED: ATOM     26  C   UNL     1     142.303  74.213 218.981 -0.14 -0.00    +0.007 A  
DOCKED: ATOM     27  C   UNL     1     144.775  74.402 220.136 -0.43 -0.01    +0.021 A  
DOCKED: ATOM     28  C   UNL     1     143.148  73.123 219.020 -0.15 -0.00    +0.021 A  
DOCKED: ATOM     29  C   UNL     1     144.399  73.191 219.596 -0.32 -0.00    +0.041 A  
DOCKED: ATOM     30  Cl  UNL     1     145.509  71.860 219.677 -0.41 -0.03    -0.084 Cl 
DOCKED: ENDBRANCH  20  24
DOCKED: ENDBRANCH   1  18
DOCKED: TORSDOF 5
DOCKED: TER
DOCKED: ENDMDL
________________________________________________________________________________


    FINAL DOCKED STATE:
    ________________________


Run:   18 / 20
Time taken for this run:   0.035s

DOCKED: MODEL        18
DOCKED: USER    Run = 18
DOCKED: USER
DOCKED: USER    Estimated Free Energy of Binding    =  -7.17 kcal/mol  [=(1)+(2)+(3)-(4)]
DOCKED: USER
DOCKED: USER    (1) Final Intermolecular Energy     =  -8.66 kcal/mol
DOCKED: USER        vdW + Hbond + desolv Energy     =  -8.65 kcal/mol
DOCKED: USER        Electrostatic Energy            =  -0.01 kcal/mol
DOCKED: USER        Moving Ligand-Fixed Receptor    =  -8.66 kcal/mol
DOCKED: USER        Moving Ligand-Moving Receptor   =  +0.00 kcal/mol
DOCKED: USER    (2) Final Total Internal Energy     =  -2.91 kcal/mol
DOCKED: USER    (3) Torsional Free Energy           =  +1.49 kcal/mol
DOCKED: USER    (4) Unbound System's Energy         =  -2.91 kcal/mol
DOCKED: USER
DOCKED: USER
DOCKED: REMARK SMILES O=C(NCC(=O)N1CCCC[C@H]1c1ccc(Cl)cc1)c1ccc2ccccc2n1
DOCKED: REMARK SMILES IDX 5 1 6 2 4 3 3 4 2 5 1 6 20 8 21 9 29 10 22 11 28 12 23 13
DOCKED: REMARK SMILES IDX 27 14 24 15 26 16 25 17 7 18 8 19 12 20 9 21 11 22 10 23
DOCKED: REMARK SMILES IDX 13 24 14 25 19 26 15 27 18 28 16 29 17 30
DOCKED: REMARK H PARENT 3 7
DOCKED: USER                              x       y       z     vdW  Elec       q    Type
DOCKED: USER                           _______ _______ _______ _____ _____    ______ ____
DOCKED: ROOT
DOCKED: ATOM      1  C   UNL     1     142.308  73.047 220.528 -0.16 -0.04    +0.242 C  
DOCKED: ATOM      2  O   UNL     1     141.918  71.962 219.903 -0.08 +0.04    -0.273 OA 
DOCKED: ENDROOT
DOCKED: BRANCH   1   3
DOCKED: ATOM      3  C   UNL     1     141.274  73.644 221.342 -0.17 -0.03    +0.216 C  
DOCKED: BRANCH   3   4
DOCKED: ATOM      4  N   UNL     1     141.355  74.993 221.759 -0.11 +0.07    -0.342 N  
DOCKED: ATOM      5  C   UNL     1     140.136  75.715 221.977 -0.22 -0.05    +0.270 C  
DOCKED: ATOM      6  O   UNL     1     139.076  75.102 221.779 -0.27 +0.06    -0.268 OA 
DOCKED: ATOM      7  H   UNL     1     142.285  75.484 221.915 -0.50 -0.10    +0.164 HD 
DOCKED: BRANCH   5   8
DOCKED: ATOM      8  C   UNL     1     140.202  77.109 222.413 -0.32 -0.03    +0.128 A  
DOCKED: ATOM      9  C   UNL     1     139.046  77.802 222.665 -0.29 -0.01    +0.035 A  
DOCKED: ATOM     10  N   UNL     1     141.410  77.719 222.568 -0.23 +0.12    -0.243 NA 
DOCKED: ATOM     11  C   UNL     1     139.137  79.125 223.077 -0.34 -0.00    +0.013 A  
DOCKED: ATOM     12  C   UNL     1     141.531  78.998 222.966 -0.50 -0.02    +0.071 A  
DOCKED: ATOM     13  C   UNL     1     140.372  79.725 223.229 -0.45 -0.00    +0.000 A  
DOCKED: ATOM     14  C   UNL     1     142.789  79.546 223.101 -0.57 -0.01    +0.029 A  
DOCKED: ATOM     15  C   UNL     1     140.523  81.026 223.632 -0.38 -0.00    +0.010 A  
DOCKED: ATOM     16  C   UNL     1     142.912  80.850 223.507 -0.63 -0.00    +0.002 A  
DOCKED: ATOM     17  C   UNL     1     141.781  81.598 223.775 -0.51 -0.00    +0.001 A  
DOCKED: ENDBRANCH   5   8
DOCKED: ENDBRANCH   3   4
DOCKED: ENDBRANCH   1   3
DOCKED: BRANCH   1  18
DOCKED: ATOM     18  N   UNL     1     143.631  73.405 220.282 -0.14 +0.07    -0.334 N  
DOCKED: ATOM     19  C   UNL     1     144.829  72.771 220.851 -0.40 -0.02    +0.120 C  
DOCKED: ATOM     20  C   UNL     1     144.015  74.479 219.326 -0.27 -0.04    +0.115 C  
DOCKED: ATOM     21  C   UNL     1     145.674  72.215 219.731 -0.38 +0.01    +0.022 C  
DOCKED: ATOM     22  C   UNL     1     144.380  73.694 218.090 -0.18 -0.01    +0.030 C  
DOCKED: ATOM     23  C   UNL     1     145.180  72.479 218.359 -0.24 +0.00    +0.004 C  
DOCKED: BRANCH  20  24
DOCKED: ATOM     24  C   UNL     1     143.022  75.504 219.125 -0.30 +0.01    -0.025 A  
DOCKED: ATOM     25  C   UNL     1     141.867  75.397 218.376 -0.12 -0.00    +0.007 A  
DOCKED: ATOM     26  C   UNL     1     143.220  76.749 219.737 -0.34 -0.01    +0.007 A  
DOCKED: ATOM     27  C   UNL     1     140.961  76.426 218.230 -0.08 -0.01    +0.021 A  
DOCKED: ATOM     28  C   UNL     1     142.316  77.781 219.593 -0.24 -0.01    +0.021 A  
DOCKED: ATOM     29  C   UNL     1     141.170  77.646 218.839 -0.15 -0.02    +0.041 A  
DOCKED: ATOM     30  Cl  UNL     1     139.994  78.902 218.617 -0.08 +0.03    -0.084 Cl 
DOCKED: ENDBRANCH  20  24
DOCKED: ENDBRANCH   1  18
DOCKED: TORSDOF 5
DOCKED: TER
DOCKED: ENDMDL
________________________________________________________________________________


    FINAL DOCKED STATE:
    ________________________


Run:   19 / 20
Time taken for this run:   0.035s

DOCKED: MODEL        19
DOCKED: USER    Run = 19
DOCKED: USER
DOCKED: USER    Estimated Free Energy of Binding    =  -7.98 kcal/mol  [=(1)+(2)+(3)-(4)]
DOCKED: USER
DOCKED: USER    (1) Final Intermolecular Energy     =  -9.48 kcal/mol
DOCKED: USER        vdW + Hbond + desolv Energy     =  -9.42 kcal/mol
DOCKED: USER        Electrostatic Energy            =  -0.06 kcal/mol
DOCKED: USER        Moving Ligand-Fixed Receptor    =  -9.48 kcal/mol
DOCKED: USER        Moving Ligand-Moving Receptor   =  +0.00 kcal/mol
DOCKED: USER    (2) Final Total Internal Energy     =  -1.79 kcal/mol
DOCKED: USER    (3) Torsional Free Energy           =  +1.49 kcal/mol
DOCKED: USER    (4) Unbound System's Energy         =  -1.79 kcal/mol
DOCKED: USER
DOCKED: USER
DOCKED: REMARK SMILES O=C(NCC(=O)N1CCCC[C@H]1c1ccc(Cl)cc1)c1ccc2ccccc2n1
DOCKED: REMARK SMILES IDX 5 1 6 2 4 3 3 4 2 5 1 6 20 8 21 9 29 10 22 11 28 12 23 13
DOCKED: REMARK SMILES IDX 27 14 24 15 26 16 25 17 7 18 8 19 12 20 9 21 11 22 10 23
DOCKED: REMARK SMILES IDX 13 24 14 25 19 26 15 27 18 28 16 29 17 30
DOCKED: REMARK H PARENT 3 7
DOCKED: USER                              x       y       z     vdW  Elec       q    Type
DOCKED: USER                           _______ _______ _______ _____ _____    ______ ____
DOCKED: ROOT
DOCKED: ATOM      1  C   UNL     1     140.461  73.988 220.062 -0.07 -0.05    +0.242 C  
DOCKED: ATOM      2  O   UNL     1     140.146  74.129 218.796 -0.01 +0.06    -0.273 OA 
DOCKED: ENDROOT
DOCKED: BRANCH   1   3
DOCKED: ATOM      3  C   UNL     1     139.313  73.819 220.923 -0.12 -0.04    +0.216 C  
DOCKED: BRANCH   3   4
DOCKED: ATOM      4  N   UNL     1     139.434  73.216 222.196 -0.13 +0.07    -0.342 N  
DOCKED: ATOM      5  C   UNL     1     139.774  71.825 222.263 -0.19 -0.05    +0.270 C  
DOCKED: ATOM      6  O   UNL     1     139.940  71.234 221.185 -0.09 +0.04    -0.268 OA 
DOCKED: ATOM      7  H   UNL     1     139.279  73.757 223.099 -0.52 -0.06    +0.164 HD 
DOCKED: BRANCH   5   8
DOCKED: ATOM      8  C   UNL     1     139.906  71.186 223.572 -0.32 -0.02    +0.128 A  
DOCKED: ATOM      9  C   UNL     1     139.517  69.881 223.737 -0.27 -0.01    +0.035 A  
DOCKED: ATOM     10  N   UNL     1     140.413  71.885 224.624 -0.27 +0.04    -0.243 NA 
DOCKED: ATOM     11  C   UNL     1     139.653  69.298 224.990 -0.39 -0.00    +0.013 A  
DOCKED: ATOM     12  C   UNL     1     140.556  71.348 225.850 -0.54 -0.01    +0.071 A  
DOCKED: ATOM     13  C   UNL     1     140.170  70.024 226.045 -0.51 -0.00    +0.000 A  
DOCKED: ATOM     14  C   UNL     1     141.078  72.121 226.866 -0.72 -0.01    +0.029 A  
DOCKED: ATOM     15  C   UNL     1     140.326  69.503 227.303 -0.59 -0.00    +0.010 A  
DOCKED: ATOM     16  C   UNL     1     141.225  71.573 228.115 -0.75 -0.00    +0.002 A  
DOCKED: ATOM     17  C   UNL     1     140.850  70.262 228.342 -0.56 -0.00    +0.001 A  
DOCKED: ENDBRANCH   5   8
DOCKED: ENDBRANCH   3   4
DOCKED: ENDBRANCH   1   3
DOCKED: BRANCH   1  18
DOCKED: ATOM     18  N   UNL     1     141.829  74.031 220.319 -0.09 +0.08    -0.334 N  
DOCKED: ATOM     19  C   UNL     1     142.730  72.877 220.460 -0.22 -0.02    +0.120 C  
DOCKED: ATOM     20  C   UNL     1     142.593  75.303 220.429 -0.21 -0.06    +0.115 C  
DOCKED: ATOM     21  C   UNL     1     143.800  72.953 219.400 -0.24 -0.00    +0.022 C  
DOCKED: ATOM     22  C   UNL     1     143.217  75.422 219.060 -0.31 -0.01    +0.030 C  
DOCKED: ATOM     23  C   UNL     1     143.764  74.154 218.532 -0.21 -0.00    +0.004 C  
DOCKED: BRANCH  20  24
DOCKED: ATOM     24  C   UNL     1     141.822  76.447 220.848 -0.19 +0.01    -0.025 A  
DOCKED: ATOM     25  C   UNL     1     141.722  77.658 220.194 -0.30 -0.00    +0.007 A  
DOCKED: ATOM     26  C   UNL     1     141.088  76.352 222.038 -0.35 -0.00    +0.007 A  
DOCKED: ATOM     27  C   UNL     1     140.961  78.710 220.658 -0.25 -0.01    +0.021 A  
DOCKED: ATOM     28  C   UNL     1     140.325  77.402 222.506 -0.38 -0.01    +0.021 A  
DOCKED: ATOM     29  C   UNL     1     140.244  78.602 221.831 -0.27 -0.01    +0.041 A  
DOCKED: ATOM     30  Cl  UNL     1     139.305  79.960 222.364 -0.33 +0.02    -0.084 Cl 
DOCKED: ENDBRANCH  20  24
DOCKED: ENDBRANCH   1  18
DOCKED: TORSDOF 5
DOCKED: TER
DOCKED: ENDMDL
________________________________________________________________________________


    FINAL DOCKED STATE:
    ________________________


Run:   20 / 20
Time taken for this run:   0.035s

DOCKED: MODEL        20
DOCKED: USER    Run = 20
DOCKED: USER
DOCKED: USER    Estimated Free Energy of Binding    =  -8.63 kcal/mol  [=(1)+(2)+(3)-(4)]
DOCKED: USER
DOCKED: USER    (1) Final Intermolecular Energy     = -10.12 kcal/mol
DOCKED: USER        vdW + Hbond + desolv Energy     = -10.05 kcal/mol
DOCKED: USER        Electrostatic Energy            =  -0.08 kcal/mol
DOCKED: USER        Moving Ligand-Fixed Receptor    = -10.12 kcal/mol
DOCKED: USER        Moving Ligand-Moving Receptor   =  +0.00 kcal/mol
DOCKED: USER    (2) Final Total Internal Energy     =  -1.36 kcal/mol
DOCKED: USER    (3) Torsional Free Energy           =  +1.49 kcal/mol
DOCKED: USER    (4) Unbound System's Energy         =  -1.36 kcal/mol
DOCKED: USER
DOCKED: USER
DOCKED: REMARK SMILES O=C(NCC(=O)N1CCCC[C@H]1c1ccc(Cl)cc1)c1ccc2ccccc2n1
DOCKED: REMARK SMILES IDX 5 1 6 2 4 3 3 4 2 5 1 6 20 8 21 9 29 10 22 11 28 12 23 13
DOCKED: REMARK SMILES IDX 27 14 24 15 26 16 25 17 7 18 8 19 12 20 9 21 11 22 10 23
DOCKED: REMARK SMILES IDX 13 24 14 25 19 26 15 27 18 28 16 29 17 30
DOCKED: REMARK H PARENT 3 7
DOCKED: USER                              x       y       z     vdW  Elec       q    Type
DOCKED: USER                           _______ _______ _______ _____ _____    ______ ____
DOCKED: ROOT
DOCKED: ATOM      1  C   UNL     1     141.021  75.523 221.417 -0.24 -0.07    +0.242 C  
DOCKED: ATOM      2  O   UNL     1     140.852  76.072 222.596 -0.31 +0.06    -0.273 OA 
DOCKED: ENDROOT
DOCKED: BRANCH   1   3
DOCKED: ATOM      3  C   UNL     1     140.271  74.301 221.240 -0.20 -0.04    +0.216 C  
DOCKED: BRANCH   3   4
DOCKED: ATOM      4  N   UNL     1     139.935  73.480 222.341 -0.13 +0.03    -0.342 N  
DOCKED: ATOM      5  C   UNL     1     140.649  72.249 222.517 -0.19 -0.02    +0.270 C  
DOCKED: ATOM      6  O   UNL     1     141.523  71.980 221.679 -0.18 +0.02    -0.268 OA 
DOCKED: ATOM      7  H   UNL     1     139.176  73.744 223.037 -0.53 -0.07    +0.164 HD 
DOCKED: BRANCH   5   8
DOCKED: ATOM      8  C   UNL     1     140.317  71.389 223.652 -0.33 -0.02    +0.128 A  
DOCKED: ATOM      9  C   UNL     1     139.638  70.215 223.445 -0.26 -0.01    +0.035 A  
DOCKED: ATOM     10  N   UNL     1     140.681  71.752 224.913 -0.30 +0.03    -0.243 NA 
DOCKED: ATOM     11  C   UNL     1     139.335  69.417 224.540 -0.35 -0.00    +0.013 A  
DOCKED: ATOM     12  C   UNL     1     140.402  71.001 225.994 -0.54 -0.01    +0.071 A  
DOCKED: ATOM     13  C   UNL     1     139.713  69.804 225.812 -0.47 -0.00    +0.000 A  
DOCKED: ATOM     14  C   UNL     1     140.804  71.437 227.239 -0.73 -0.01    +0.029 A  
DOCKED: ATOM     15  C   UNL     1     139.441  69.058 226.929 -0.52 -0.00    +0.010 A  
DOCKED: ATOM     16  C   UNL     1     140.520  70.670 228.340 -0.60 -0.00    +0.002 A  
DOCKED: ATOM     17  C   UNL     1     139.837  69.478 228.193 -0.63 -0.00    +0.001 A  
DOCKED: ENDBRANCH   5   8
DOCKED: ENDBRANCH   3   4
DOCKED: ENDBRANCH   1   3
DOCKED: BRANCH   1  18
DOCKED: ATOM     18  N   UNL     1     141.887  76.222 220.580 -0.11 +0.18    -0.334 N  
DOCKED: ATOM     19  C   UNL     1     143.054  75.674 219.872 -0.29 -0.07    +0.120 C  
DOCKED: ATOM     20  C   UNL     1     141.696  77.657 220.235 -0.25 -0.07    +0.115 C  
DOCKED: ATOM     21  C   UNL     1     142.857  75.847 218.386 -0.25 -0.01    +0.022 C  
DOCKED: ATOM     22  C   UNL     1     141.035  77.577 218.880 -0.15 -0.01    +0.030 C  
DOCKED: ATOM     23  C   UNL     1     141.626  76.564 217.978 -0.14 -0.00    +0.004 C  
DOCKED: BRANCH  20  24
DOCKED: ATOM     24  C   UNL     1     140.980  78.434 221.216 -0.29 +0.01    -0.025 A  
DOCKED: ATOM     25  C   UNL     1     141.522  79.091 222.302 -0.47 -0.00    +0.007 A  
DOCKED: ATOM     26  C   UNL     1     139.590  78.552 221.083 -0.16 -0.00    +0.007 A  
DOCKED: ATOM     27  C   UNL     1     140.770  79.818 223.201 -0.47 -0.00    +0.021 A  
DOCKED: ATOM     28  C   UNL     1     138.834  79.278 221.980 -0.20 -0.00    +0.021 A  
DOCKED: ATOM     29  C   UNL     1     139.403  79.925 223.056 -0.34 -0.01    +0.041 A  
DOCKED: ATOM     30  Cl  UNL     1     138.511  80.853 224.219 -0.44 +0.01    -0.084 Cl 
DOCKED: ENDBRANCH  20  24
DOCKED: ENDBRANCH   1  18
DOCKED: TORSDOF 5
DOCKED: TER
DOCKED: ENDMDL
________________________________________________________________________________


    CLUSTERING HISTOGRAM
    ____________________


________________________________________________________________________________
     |           |     |           |     |
Clus | Lowest    | Run | Mean      | Num | Histogram
-ter | Binding   |     | Binding   | in  |
Rank | Energy    |     | Energy    | Clus|    5    10   15   20   25   30   35
_____|___________|_____|___________|_____|____:____|____:____|____:____|____:___
   1 |     -8.83 |  11 |     -8.35 |   4 |####
   2 |     -8.21 |   2 |     -8.20 |   2 |##
   3 |     -7.36 |  15 |     -7.34 |   2 |##
   4 |     -7.33 |  12 |     -7.25 |  12 |############
_____|___________|_____|___________|_____|______________________________________


    RMSD TABLE
    __________


_______________________________________________________________________
     |      |      |           |         |                 |
Rank | Sub- | Run  | Binding   | Cluster | Reference       | Grep
     | Rank |      | Energy    | RMSD    | RMSD            | Pattern
_____|______|______|___________|_________|_________________|___________
   1      1     11       -8.83      0.00    271.33           RANKING
   1      2     20       -8.63      0.37    271.30           RANKING
   1      3     19       -7.98      1.50    270.91           RANKING
   1      4      4       -7.97      1.51    270.91           RANKING
   2      1      2       -8.21      0.00    270.82           RANKING
   2      2     17       -8.19      0.10    270.82           RANKING
   3      1     15       -7.36      0.00    270.76           RANKING
   3      2      3       -7.33      0.10    270.72           RANKING
   4      1     12       -7.33      0.00    270.94           RANKING
   4      2     16       -7.31      0.07    270.96           RANKING
   4      3      9       -7.29      0.06    270.97           RANKING
   4      4     13       -7.28      0.13    270.89           RANKING
   4      5      8       -7.26      0.08    270.97           RANKING
   4      6     14       -7.25      0.10    270.89           RANKING
   4      7      5       -7.25      0.10    270.94           RANKING
   4      8      7       -7.24      0.11    270.95           RANKING
   4      9     10       -7.24      0.09    270.96           RANKING
   4     10      1       -7.21      0.11    270.91           RANKING
   4     11     18       -7.17      0.11    270.94           RANKING
   4     12      6       -7.15      0.13    270.90           RANKING

Run time 0.669 sec
Idle time 0.000 sec
