AutoDock-GPU version: v1.6

**********************************************************
**    AutoDock-GPU AUTODOCKTOOLS-COMPATIBLE DLG FILE    **
**********************************************************


    DOCKING PARAMETERS
    ________________________


Ligand file:                               /home/a/REINVENT4/ReinventStudies/pleaseWork/justmol2mol_4_Compounds_ontop/graph-dock-hn62wh/graph-DockGPU/node-autodockgpu/inputs/KCFTVOQNPLJGLL-OODIUDALNA-N.pdbqt
Grid fld file:                             /home/a/REINVENT4/ReinventStudies/mols/Rad51/maps/rad51_receptor.maps.fld

Random seed:                               42
Number of runs:                            20
Number of energy evaluations:              1259779
Number of generations:                     42000
Size of population:                        150
Rate of crossover:                         80.000000%
Tournament selection probability limit:    60.000000%
Rate of mutation:                          2.000000%
Maximal allowed delta movement:            +/- 6.000000A
Maximal allowed delta angle:               +/- 90.000000

Rate of local search:                      100.000000%
Maximal number of local search iterations: 300
Rho lower bound:                           0.010000
Spread of local search delta movement:     2.000000A
Spread of local search delta angle:        74.999999
Limit of consecutive successes/failures:   4

Handle symmetry during clustering:         YES
RMSD tolerance:                            2.000000A

Program call in command line was:          /home/a/REINVENT4/ReinventStudies/adgpu-v1.6_linux_x64_cuda12_128wi --filelist batch.txt --heuristics 1 --nrun 20 --psize 150 --lsit 300 --seed 42 --heurmax 12000000 


    GRID PARAMETERS
    ________________________


Receptor name:                             rad51_receptor
Number of grid points (x, y, z):           53, 53, 53
Grid center (x, y, z):                     139.950000, 75.640000, 221.970000A
Grid size (x, y, z):                       19.500000, 19.500000, 19.500000A
Grid spacing:                              0.375000A


    LIGAND PARAMETERS
    ________________________


Ligand name:                               /home/a/REINVENT4/ReinventStudies/pleaseWork/justmol2mol_4_Compounds_ontop/graph-dock-hn62wh/graph-DockGPU/node-autodockgpu/inputs/KCFTVOQNPLJGLL-OODIUDALNA-N
Number of atoms:                           30
Number of rotatable bonds:                 7
Number of atom types:                      6


    DUMMY DATA (only for ADT-compatibility)
    ________________________


DPF> outlev 1
DPF> ga_run 20
DPF> fld /home/a/REINVENT4/ReinventStudies/mols/Rad51/maps/rad51_receptor.maps.fld
DPF> move /home/a/REINVENT4/ReinventStudies/pleaseWork/justmol2mol_4_Compounds_ontop/graph-dock-hn62wh/graph-DockGPU/node-autodockgpu/inputs/KCFTVOQNPLJGLL-OODIUDALNA-N.pdbqt


    COUNTER STATES
    ________________________


Number of energy evaluations performed:    647422
Number of generations used:                35


    INPUT LIGAND PDBQT FILE:
    ________________________


INPUT-LIGAND-PDBQT: REMARK SMILES CC(C)C[C@H](NC(=O)CNC(=O)c1ccc2ccccc2n1)c1ccccc1
INPUT-LIGAND-PDBQT: REMARK SMILES IDX 6 1 7 2 8 3 5 5 4 6 2 7 1 8 3 9 23 10 24 11 28 12 25 13
INPUT-LIGAND-PDBQT: REMARK SMILES IDX 27 14 26 15 9 16 10 17 11 18 12 20 13 21 14 22 22 23 15 24
INPUT-LIGAND-PDBQT: REMARK SMILES IDX 21 25 16 26 20 27 17 28 19 29 18 30
INPUT-LIGAND-PDBQT: REMARK H PARENT 6 4 10 19
INPUT-LIGAND-PDBQT: ROOT
INPUT-LIGAND-PDBQT: ATOM      1  N   UNL     1      -1.209   0.249  -1.099  1.00  0.00    -0.348 N 
INPUT-LIGAND-PDBQT: ATOM      2  C   UNL     1      -0.772   1.004  -2.213  1.00  0.00     0.239 C 
INPUT-LIGAND-PDBQT: ATOM      3  O   UNL     1      -1.626   1.232  -3.135  1.00  0.00    -0.273 OA
INPUT-LIGAND-PDBQT: ATOM      4  H   UNL     1      -0.562   0.036  -0.326  1.00  0.00     0.164 HD
INPUT-LIGAND-PDBQT: ENDROOT
INPUT-LIGAND-PDBQT: BRANCH   1   5
INPUT-LIGAND-PDBQT: ATOM      5  C   UNL     1      -2.580  -0.253  -1.005  1.00  0.00     0.112 C 
INPUT-LIGAND-PDBQT: BRANCH   5   6
INPUT-LIGAND-PDBQT: ATOM      6  C   UNL     1      -2.449  -1.760  -0.941  1.00  0.00     0.033 C 
INPUT-LIGAND-PDBQT: BRANCH   6   7
INPUT-LIGAND-PDBQT: ATOM      7  C   UNL     1      -3.795  -2.458  -0.840  1.00  0.00    -0.015 C 
INPUT-LIGAND-PDBQT: ATOM      8  C   UNL     1      -4.609  -2.102  -2.060  1.00  0.00     0.007 C 
INPUT-LIGAND-PDBQT: ATOM      9  C   UNL     1      -3.518  -3.955  -0.895  1.00  0.00     0.007 C 
INPUT-LIGAND-PDBQT: ENDBRANCH   6   7
INPUT-LIGAND-PDBQT: ENDBRANCH   5   6
INPUT-LIGAND-PDBQT: BRANCH   5  10
INPUT-LIGAND-PDBQT: ATOM     10  C   UNL     1      -3.213   0.192   0.271  1.00  0.00    -0.026 A 
INPUT-LIGAND-PDBQT: ATOM     11  C   UNL     1      -4.490   0.709   0.332  1.00  0.00     0.006 A 
INPUT-LIGAND-PDBQT: ATOM     12  C   UNL     1      -2.473   0.073   1.433  1.00  0.00     0.006 A 
INPUT-LIGAND-PDBQT: ATOM     13  C   UNL     1      -5.087   1.123   1.505  1.00  0.00     0.000 A 
INPUT-LIGAND-PDBQT: ATOM     14  C   UNL     1      -3.054   0.485   2.637  1.00  0.00     0.000 A 
INPUT-LIGAND-PDBQT: ATOM     15  C   UNL     1      -4.336   0.998   2.657  1.00  0.00     0.000 A 
INPUT-LIGAND-PDBQT: ENDBRANCH   5  10
INPUT-LIGAND-PDBQT: ENDBRANCH   1   5
INPUT-LIGAND-PDBQT: BRANCH   2  16
INPUT-LIGAND-PDBQT: ATOM     16  C   UNL     1       0.576   1.550  -2.404  1.00  0.00     0.216 C 
INPUT-LIGAND-PDBQT: BRANCH  16  17
INPUT-LIGAND-PDBQT: ATOM     17  N   UNL     1       1.508   1.270  -1.341  1.00  0.00    -0.342 N 
INPUT-LIGAND-PDBQT: ATOM     18  C   UNL     1       2.832   1.780  -1.484  1.00  0.00     0.270 C 
INPUT-LIGAND-PDBQT: ATOM     19  H   UNL     1       1.309   0.731  -0.481  1.00  0.00     0.164 HD
INPUT-LIGAND-PDBQT: ATOM     20  O   UNL     1       3.057   2.438  -2.543  1.00  0.00    -0.268 OA
INPUT-LIGAND-PDBQT: BRANCH  18  21
INPUT-LIGAND-PDBQT: ATOM     21  C   UNL     1       3.849   1.551  -0.465  1.00  0.00     0.128 A 
INPUT-LIGAND-PDBQT: ATOM     22  C   UNL     1       5.114   2.096  -0.708  1.00  0.00     0.035 A 
INPUT-LIGAND-PDBQT: ATOM     23  N   UNL     1       3.623   0.855   0.663  1.00  0.00    -0.243 NA
INPUT-LIGAND-PDBQT: ATOM     24  C   UNL     1       6.133   1.923   0.206  1.00  0.00     0.013 A 
INPUT-LIGAND-PDBQT: ATOM     25  C   UNL     1       4.617   0.672   1.582  1.00  0.00     0.071 A 
INPUT-LIGAND-PDBQT: ATOM     26  C   UNL     1       5.874   1.206   1.354  1.00  0.00     0.000 A 
INPUT-LIGAND-PDBQT: ATOM     27  C   UNL     1       4.345  -0.047   2.726  1.00  0.00     0.029 A 
INPUT-LIGAND-PDBQT: ATOM     28  C   UNL     1       6.857   1.001   2.306  1.00  0.00     0.010 A 
INPUT-LIGAND-PDBQT: ATOM     29  C   UNL     1       5.365  -0.232   3.664  1.00  0.00     0.002 A 
INPUT-LIGAND-PDBQT: ATOM     30  C   UNL     1       6.633   0.293   3.460  1.00  0.00     0.001 A 
INPUT-LIGAND-PDBQT: ENDBRANCH  18  21
INPUT-LIGAND-PDBQT: ENDBRANCH  16  17
INPUT-LIGAND-PDBQT: ENDBRANCH   2  16
INPUT-LIGAND-PDBQT: TORSDOF 7


    FINAL DOCKED STATE:
    ________________________


Run:   1 / 20
Time taken for this run:   0.027s

DOCKED: MODEL        1
DOCKED: USER    Run = 1
DOCKED: USER
DOCKED: USER    Estimated Free Energy of Binding    =  -7.60 kcal/mol  [=(1)+(2)+(3)-(4)]
DOCKED: USER
DOCKED: USER    (1) Final Intermolecular Energy     =  -9.68 kcal/mol
DOCKED: USER        vdW + Hbond + desolv Energy     =  -9.66 kcal/mol
DOCKED: USER        Electrostatic Energy            =  -0.02 kcal/mol
DOCKED: USER        Moving Ligand-Fixed Receptor    =  -9.68 kcal/mol
DOCKED: USER        Moving Ligand-Moving Receptor   =  +0.00 kcal/mol
DOCKED: USER    (2) Final Total Internal Energy     =  -2.54 kcal/mol
DOCKED: USER    (3) Torsional Free Energy           =  +2.09 kcal/mol
DOCKED: USER    (4) Unbound System's Energy         =  -2.54 kcal/mol
DOCKED: USER
DOCKED: USER
DOCKED: REMARK SMILES CC(C)C[C@H](NC(=O)CNC(=O)c1ccc2ccccc2n1)c1ccccc1
DOCKED: REMARK SMILES IDX 6 1 7 2 8 3 5 5 4 6 2 7 1 8 3 9 23 10 24 11 28 12 25 13
DOCKED: REMARK SMILES IDX 27 14 26 15 9 16 10 17 11 18 12 20 13 21 14 22 22 23 15 24
DOCKED: REMARK SMILES IDX 21 25 16 26 20 27 17 28 19 29 18 30
DOCKED: REMARK H PARENT 6 4 10 19
DOCKED: USER                              x       y       z     vdW  Elec       q    Type
DOCKED: USER                           _______ _______ _______ _____ _____    ______ ____
DOCKED: ROOT
DOCKED: ATOM      1  N   UNL     1     138.352  70.790 224.233 -0.12 +0.07    -0.348 N  
DOCKED: ATOM      2  C   UNL     1     137.485  69.675 224.140 -0.18 -0.03    +0.239 C  
DOCKED: ATOM      3  O   UNL     1     138.020  68.515 224.175 -0.27 +0.01    -0.273 OA 
DOCKED: ATOM      4  H   UNL     1     137.974  71.748 224.210 -0.23 -0.06    +0.164 HD 
DOCKED: ENDROOT
DOCKED: BRANCH   1   5
DOCKED: ATOM      5  C   UNL     1     139.800  70.625 224.361 -0.35 -0.02    +0.112 C  
DOCKED: BRANCH   5   6
DOCKED: ATOM      6  C   UNL     1     140.402  71.751 223.547 -0.35 -0.00    +0.033 C  
DOCKED: BRANCH   6   7
DOCKED: ATOM      7  C   UNL     1     139.504  72.187 222.401 -0.28 +0.00    -0.015 C  
DOCKED: ATOM      8  C   UNL     1     139.995  73.520 221.891 -0.28 -0.00    +0.007 C  
DOCKED: ATOM      9  C   UNL     1     139.696  71.170 221.283 -0.15 -0.00    +0.007 C  
DOCKED: ENDBRANCH   6   7
DOCKED: ENDBRANCH   5   6
DOCKED: BRANCH   5  10
DOCKED: ATOM     10  C   UNL     1     140.225  70.824 225.777 -0.54 +0.00    -0.026 A  
DOCKED: ATOM     11  C   UNL     1     139.831  69.988 226.801 -0.52 -0.00    +0.006 A  
DOCKED: ATOM     12  C   UNL     1     141.050  71.898 226.057 -0.61 -0.00    +0.006 A  
DOCKED: ATOM     13  C   UNL     1     140.218  70.160 228.114 -0.63 -0.00    +0.000 A  
DOCKED: ATOM     14  C   UNL     1     141.458  72.096 227.380 -0.79 -0.00    +0.000 A  
DOCKED: ATOM     15  C   UNL     1     141.042  71.236 228.378 -0.66 -0.00    +0.000 A  
DOCKED: ENDBRANCH   5  10
DOCKED: ENDBRANCH   1   5
DOCKED: BRANCH   2  16
DOCKED: ATOM     16  C   UNL     1     136.025  69.731 224.009 -0.14 -0.02    +0.216 C  
DOCKED: BRANCH  16  17
DOCKED: ATOM     17  N   UNL     1     135.384  70.794 224.740 -0.07 +0.03    -0.342 N  
DOCKED: ATOM     18  C   UNL     1     135.558  72.121 224.249 -0.10 -0.04    +0.270 C  
DOCKED: ATOM     19  H   UNL     1     134.807  70.687 225.593 +0.06 -0.01    +0.164 HD 
DOCKED: ATOM     20  O   UNL     1     136.266  72.233 223.204 -0.12 +0.07    -0.268 OA 
DOCKED: BRANCH  18  21
DOCKED: ATOM     21  C   UNL     1     134.951  73.265 224.918 -0.20 -0.01    +0.128 A  
DOCKED: ATOM     22  C   UNL     1     135.445  74.528 224.574 -0.31 -0.01    +0.035 A  
DOCKED: ATOM     23  N   UNL     1     133.966  73.154 225.826 -0.32 +0.00    -0.243 NA 
DOCKED: ATOM     24  C   UNL     1     134.925  75.662 225.163 -0.36 -0.00    +0.013 A  
DOCKED: ATOM     25  C   UNL     1     133.436  74.264 226.422 -0.29 +0.00    +0.071 A  
DOCKED: ATOM     26  C   UNL     1     133.916  75.520 226.090 -0.39 -0.00    +0.000 A  
DOCKED: ATOM     27  C   UNL     1     132.427  74.108 227.347 -0.41 -0.00    +0.029 A  
DOCKED: ATOM     28  C   UNL     1     133.356  76.622 226.713 -0.36 -0.00    +0.010 A  
DOCKED: ATOM     29  C   UNL     1     131.888  75.246 227.954 -0.35 -0.00    +0.002 A  
DOCKED: ATOM     30  C   UNL     1     132.350  76.516 227.640 -0.34 +0.00    +0.001 A  
DOCKED: ENDBRANCH  18  21
DOCKED: ENDBRANCH  16  17
DOCKED: ENDBRANCH   2  16
DOCKED: TORSDOF 7
DOCKED: TER
DOCKED: ENDMDL
________________________________________________________________________________


    FINAL DOCKED STATE:
    ________________________


Run:   2 / 20
Time taken for this run:   0.027s

DOCKED: MODEL        2
DOCKED: USER    Run = 2
DOCKED: USER
DOCKED: USER    Estimated Free Energy of Binding    =  -8.30 kcal/mol  [=(1)+(2)+(3)-(4)]
DOCKED: USER
DOCKED: USER    (1) Final Intermolecular Energy     = -10.39 kcal/mol
DOCKED: USER        vdW + Hbond + desolv Energy     = -10.33 kcal/mol
DOCKED: USER        Electrostatic Energy            =  -0.06 kcal/mol
DOCKED: USER        Moving Ligand-Fixed Receptor    = -10.39 kcal/mol
DOCKED: USER        Moving Ligand-Moving Receptor   =  +0.00 kcal/mol
DOCKED: USER    (2) Final Total Internal Energy     =  -2.01 kcal/mol
DOCKED: USER    (3) Torsional Free Energy           =  +2.09 kcal/mol
DOCKED: USER    (4) Unbound System's Energy         =  -2.01 kcal/mol
DOCKED: USER
DOCKED: USER
DOCKED: REMARK SMILES CC(C)C[C@H](NC(=O)CNC(=O)c1ccc2ccccc2n1)c1ccccc1
DOCKED: REMARK SMILES IDX 6 1 7 2 8 3 5 5 4 6 2 7 1 8 3 9 23 10 24 11 28 12 25 13
DOCKED: REMARK SMILES IDX 27 14 26 15 9 16 10 17 11 18 12 20 13 21 14 22 22 23 15 24
DOCKED: REMARK SMILES IDX 21 25 16 26 20 27 17 28 19 29 18 30
DOCKED: REMARK H PARENT 6 4 10 19
DOCKED: USER                              x       y       z     vdW  Elec       q    Type
DOCKED: USER                           _______ _______ _______ _____ _____    ______ ____
DOCKED: ROOT
DOCKED: ATOM      1  N   UNL     1     141.815  74.417 220.381 -0.10 +0.09    -0.348 N  
DOCKED: ATOM      2  C   UNL     1     140.631  74.884 221.000 -0.19 -0.05    +0.239 C  
DOCKED: ATOM      3  O   UNL     1     140.657  76.060 221.497 -0.25 +0.08    -0.273 OA 
DOCKED: ATOM      4  H   UNL     1     141.849  73.476 219.963 +0.05 -0.03    +0.164 HD 
DOCKED: ENDROOT
DOCKED: BRANCH   1   5
DOCKED: ATOM      5  C   UNL     1     143.020  75.244 220.312 -0.19 -0.06    +0.112 C  
DOCKED: BRANCH   5   6
DOCKED: ATOM      6  C   UNL     1     144.106  74.322 219.797 -0.38 -0.01    +0.033 C  
DOCKED: BRANCH   6   7
DOCKED: ATOM      7  C   UNL     1     144.577  73.333 220.849 -0.48 +0.00    -0.015 C  
DOCKED: ATOM      8  C   UNL     1     144.216  71.941 220.390 -0.32 -0.00    +0.007 C  
DOCKED: ATOM      9  C   UNL     1     146.097  73.423 220.886 -0.69 -0.00    +0.007 C  
DOCKED: ENDBRANCH   6   7
DOCKED: ENDBRANCH   5   6
DOCKED: BRANCH   5  10
DOCKED: ATOM     10  C   UNL     1     142.849  76.333 219.306 -0.34 +0.02    -0.026 A  
DOCKED: ATOM     11  C   UNL     1     142.298  77.558 219.618 -0.30 -0.00    +0.006 A  
DOCKED: ATOM     12  C   UNL     1     143.268  76.087 218.012 -0.27 -0.00    +0.006 A  
DOCKED: ATOM     13  C   UNL     1     142.135  78.574 218.698 -0.29 -0.00    +0.000 A  
DOCKED: ATOM     14  C   UNL     1     143.115  77.100 217.059 -0.26 -0.00    +0.000 A  
DOCKED: ATOM     15  C   UNL     1     142.558  78.314 217.410 -0.29 -0.00    +0.000 A  
DOCKED: ENDBRANCH   5  10
DOCKED: ENDBRANCH   1   5
DOCKED: BRANCH   2  16
DOCKED: ATOM     16  C   UNL     1     139.375  74.137 221.123 -0.15 -0.04    +0.216 C  
DOCKED: BRANCH  16  17
DOCKED: ATOM     17  N   UNL     1     139.240  73.356 222.327 -0.10 +0.08    -0.342 N  
DOCKED: ATOM     18  C   UNL     1     140.209  72.334 222.553 -0.21 -0.03    +0.270 C  
DOCKED: ATOM     19  H   UNL     1     138.505  73.465 223.046 -0.52 -0.11    +0.164 HD 
DOCKED: ATOM     20  O   UNL     1     141.102  72.216 221.663 -0.20 +0.03    -0.268 OA 
DOCKED: BRANCH  18  21
DOCKED: ATOM     21  C   UNL     1     140.160  71.489 223.740 -0.34 -0.02    +0.128 A  
DOCKED: ATOM     22  C   UNL     1     139.578  70.226 223.588 -0.28 -0.01    +0.035 A  
DOCKED: ATOM     23  N   UNL     1     140.636  71.869 224.939 -0.28 +0.04    -0.243 NA 
DOCKED: ATOM     24  C   UNL     1     139.491  69.366 224.663 -0.36 -0.00    +0.013 A  
DOCKED: ATOM     25  C   UNL     1     140.561  71.034 226.017 -0.55 -0.01    +0.071 A  
DOCKED: ATOM     26  C   UNL     1     139.988  69.781 225.880 -0.48 -0.00    +0.000 A  
DOCKED: ATOM     27  C   UNL     1     141.061  71.460 227.229 -0.74 -0.00    +0.029 A  
DOCKED: ATOM     28  C   UNL     1     139.928  68.961 226.993 -0.58 -0.00    +0.010 A  
DOCKED: ATOM     29  C   UNL     1     140.983  70.602 228.330 -0.59 -0.00    +0.002 A  
DOCKED: ATOM     30  C   UNL     1     140.414  69.341 228.219 -0.63 -0.00    +0.001 A  
DOCKED: ENDBRANCH  18  21
DOCKED: ENDBRANCH  16  17
DOCKED: ENDBRANCH   2  16
DOCKED: TORSDOF 7
DOCKED: TER
DOCKED: ENDMDL
________________________________________________________________________________


    FINAL DOCKED STATE:
    ________________________


Run:   3 / 20
Time taken for this run:   0.027s

DOCKED: MODEL        3
DOCKED: USER    Run = 3
DOCKED: USER
DOCKED: USER    Estimated Free Energy of Binding    =  -7.64 kcal/mol  [=(1)+(2)+(3)-(4)]
DOCKED: USER
DOCKED: USER    (1) Final Intermolecular Energy     =  -9.73 kcal/mol
DOCKED: USER        vdW + Hbond + desolv Energy     =  -9.67 kcal/mol
DOCKED: USER        Electrostatic Energy            =  -0.06 kcal/mol
DOCKED: USER        Moving Ligand-Fixed Receptor    =  -9.73 kcal/mol
DOCKED: USER        Moving Ligand-Moving Receptor   =  +0.00 kcal/mol
DOCKED: USER    (2) Final Total Internal Energy     =  -2.54 kcal/mol
DOCKED: USER    (3) Torsional Free Energy           =  +2.09 kcal/mol
DOCKED: USER    (4) Unbound System's Energy         =  -2.54 kcal/mol
DOCKED: USER
DOCKED: USER
DOCKED: REMARK SMILES CC(C)C[C@H](NC(=O)CNC(=O)c1ccc2ccccc2n1)c1ccccc1
DOCKED: REMARK SMILES IDX 6 1 7 2 8 3 5 5 4 6 2 7 1 8 3 9 23 10 24 11 28 12 25 13
DOCKED: REMARK SMILES IDX 27 14 26 15 9 16 10 17 11 18 12 20 13 21 14 22 22 23 15 24
DOCKED: REMARK SMILES IDX 21 25 16 26 20 27 17 28 19 29 18 30
DOCKED: REMARK H PARENT 6 4 10 19
DOCKED: USER                              x       y       z     vdW  Elec       q    Type
DOCKED: USER                           _______ _______ _______ _____ _____    ______ ____
DOCKED: ROOT
DOCKED: ATOM      1  N   UNL     1     138.127  74.495 222.013 -0.09 +0.11    -0.348 N  
DOCKED: ATOM      2  C   UNL     1     138.028  73.743 220.818 -0.07 -0.05    +0.239 C  
DOCKED: ATOM      3  O   UNL     1     137.464  74.305 219.820 -0.01 +0.05    -0.273 OA 
DOCKED: ATOM      4  H   UNL     1     138.573  74.090 222.849 -0.56 -0.09    +0.164 HD 
DOCKED: ENDROOT
DOCKED: BRANCH   1   5
DOCKED: ATOM      5  C   UNL     1     137.603  75.858 222.105 -0.21 -0.03    +0.112 C  
DOCKED: BRANCH   5   6
DOCKED: ATOM      6  C   UNL     1     136.654  75.841 223.285 -0.21 -0.01    +0.033 C  
DOCKED: BRANCH   6   7
DOCKED: ATOM      7  C   UNL     1     135.834  74.564 223.355 -0.22 +0.00    -0.015 C  
DOCKED: ATOM      8  C   UNL     1     135.094  74.544 224.670 -0.33 -0.00    +0.007 C  
DOCKED: ATOM      9  C   UNL     1     134.793  74.650 222.246 -0.08 -0.00    +0.007 C  
DOCKED: ENDBRANCH   6   7
DOCKED: ENDBRANCH   5   6
DOCKED: BRANCH   5  10
DOCKED: ATOM     10  C   UNL     1     138.698  76.817 222.430 -0.30 +0.01    -0.026 A  
DOCKED: ATOM     11  C   UNL     1     138.461  78.116 222.828 -0.27 -0.00    +0.006 A  
DOCKED: ATOM     12  C   UNL     1     140.001  76.368 222.322 -0.39 -0.00    +0.006 A  
DOCKED: ATOM     13  C   UNL     1     139.465  79.013 223.132 -0.37 -0.00    +0.000 A  
DOCKED: ATOM     14  C   UNL     1     141.039  77.257 222.624 -0.42 -0.00    +0.000 A  
DOCKED: ATOM     15  C   UNL     1     140.761  78.550 223.020 -0.48 -0.00    +0.000 A  
DOCKED: ENDBRANCH   5  10
DOCKED: ENDBRANCH   1   5
DOCKED: BRANCH   2  16
DOCKED: ATOM     16  C   UNL     1     138.518  72.374 220.623 -0.05 -0.04    +0.216 C  
DOCKED: BRANCH  16  17
DOCKED: ATOM     17  N   UNL     1     138.665  71.597 221.827 -0.05 +0.07    -0.342 N  
DOCKED: ATOM     18  C   UNL     1     139.691  71.990 222.735 -0.21 -0.05    +0.270 C  
DOCKED: ATOM     19  H   UNL     1     138.095  70.777 222.097 +0.04 -0.03    +0.164 HD 
DOCKED: ATOM     20  O   UNL     1     140.378  72.996 222.388 -0.69 +0.02    -0.268 OA 
DOCKED: BRANCH  18  21
DOCKED: ATOM     21  C   UNL     1     139.921  71.268 223.981 -0.35 -0.02    +0.128 A  
DOCKED: ATOM     22  C   UNL     1     140.704  71.913 224.944 -0.31 -0.00    +0.035 A  
DOCKED: ATOM     23  N   UNL     1     139.425  70.043 224.229 -0.18 +0.04    -0.243 NA 
DOCKED: ATOM     24  C   UNL     1     140.971  71.297 226.150 -0.65 -0.00    +0.013 A  
DOCKED: ATOM     25  C   UNL     1     139.676  69.416 225.416 -0.39 -0.01    +0.071 A  
DOCKED: ATOM     26  C   UNL     1     140.450  70.042 226.378 -0.55 -0.00    +0.000 A  
DOCKED: ATOM     27  C   UNL     1     139.148  68.161 225.633 -0.49 -0.00    +0.029 A  
DOCKED: ATOM     28  C   UNL     1     140.683  69.377 227.569 -0.61 -0.00    +0.010 A  
DOCKED: ATOM     29  C   UNL     1     139.407  67.521 226.849 -0.57 -0.00    +0.002 A  
DOCKED: ATOM     30  C   UNL     1     140.179  68.128 227.829 -0.63 -0.00    +0.001 A  
DOCKED: ENDBRANCH  18  21
DOCKED: ENDBRANCH  16  17
DOCKED: ENDBRANCH   2  16
DOCKED: TORSDOF 7
DOCKED: TER
DOCKED: ENDMDL
________________________________________________________________________________


    FINAL DOCKED STATE:
    ________________________


Run:   4 / 20
Time taken for this run:   0.027s

DOCKED: MODEL        4
DOCKED: USER    Run = 4
DOCKED: USER
DOCKED: USER    Estimated Free Energy of Binding    =  -8.77 kcal/mol  [=(1)+(2)+(3)-(4)]
DOCKED: USER
DOCKED: USER    (1) Final Intermolecular Energy     = -10.86 kcal/mol
DOCKED: USER        vdW + Hbond + desolv Energy     = -10.78 kcal/mol
DOCKED: USER        Electrostatic Energy            =  -0.08 kcal/mol
DOCKED: USER        Moving Ligand-Fixed Receptor    = -10.86 kcal/mol
DOCKED: USER        Moving Ligand-Moving Receptor   =  +0.00 kcal/mol
DOCKED: USER    (2) Final Total Internal Energy     =  -1.36 kcal/mol
DOCKED: USER    (3) Torsional Free Energy           =  +2.09 kcal/mol
DOCKED: USER    (4) Unbound System's Energy         =  -1.36 kcal/mol
DOCKED: USER
DOCKED: USER
DOCKED: REMARK SMILES CC(C)C[C@H](NC(=O)CNC(=O)c1ccc2ccccc2n1)c1ccccc1
DOCKED: REMARK SMILES IDX 6 1 7 2 8 3 5 5 4 6 2 7 1 8 3 9 23 10 24 11 28 12 25 13
DOCKED: REMARK SMILES IDX 27 14 26 15 9 16 10 17 11 18 12 20 13 21 14 22 22 23 15 24
DOCKED: REMARK SMILES IDX 21 25 16 26 20 27 17 28 19 29 18 30
DOCKED: REMARK H PARENT 6 4 10 19
DOCKED: USER                              x       y       z     vdW  Elec       q    Type
DOCKED: USER                           _______ _______ _______ _____ _____    ______ ____
DOCKED: ROOT
DOCKED: ATOM      1  N   UNL     1     140.628  76.656 220.838 -0.09 +0.12    -0.348 N  
DOCKED: ATOM      2  C   UNL     1     140.709  75.257 221.038 -0.20 -0.06    +0.239 C  
DOCKED: ATOM      3  O   UNL     1     141.872  74.759 221.215 -0.26 +0.08    -0.273 OA 
DOCKED: ATOM      4  H   UNL     1     139.716  77.110 220.691 +0.05 -0.05    +0.164 HD 
DOCKED: ENDROOT
DOCKED: BRANCH   1   5
DOCKED: ATOM      5  C   UNL     1     141.824  77.498 220.832 -0.21 -0.07    +0.112 C  
DOCKED: BRANCH   5   6
DOCKED: ATOM      6  C   UNL     1     141.819  78.187 219.484 -0.27 -0.02    +0.033 C  
DOCKED: BRANCH   6   7
DOCKED: ATOM      7  C   UNL     1     142.146  77.238 218.343 -0.25 +0.01    -0.015 C  
DOCKED: ATOM      8  C   UNL     1     142.614  78.054 217.163 -0.26 -0.01    +0.007 C  
DOCKED: ATOM      9  C   UNL     1     143.321  76.386 218.805 -0.35 -0.00    +0.007 C  
DOCKED: ENDBRANCH   6   7
DOCKED: ENDBRANCH   5   6
DOCKED: BRANCH   5  10
DOCKED: ATOM     10  C   UNL     1     141.720  78.561 221.874 -0.40 +0.01    -0.026 A  
DOCKED: ATOM     11  C   UNL     1     141.918  79.898 221.601 -0.44 -0.00    +0.006 A  
DOCKED: ATOM     12  C   UNL     1     141.410  78.171 223.164 -0.52 -0.00    +0.006 A  
DOCKED: ATOM     13  C   UNL     1     141.824  80.891 222.555 -0.54 -0.00    +0.000 A  
DOCKED: ATOM     14  C   UNL     1     141.308  79.157 224.151 -0.52 -0.00    +0.000 A  
DOCKED: ATOM     15  C   UNL     1     141.514  80.486 223.838 -0.56 -0.00    +0.000 A  
DOCKED: ENDBRANCH   5  10
DOCKED: ENDBRANCH   1   5
DOCKED: BRANCH   2  16
DOCKED: ATOM     16  C   UNL     1     139.576  74.327 221.061 -0.15 -0.04    +0.216 C  
DOCKED: BRANCH  16  17
DOCKED: ATOM     17  N   UNL     1     139.432  73.564 222.275 -0.12 +0.07    -0.342 N  
DOCKED: ATOM     18  C   UNL     1     140.219  72.381 222.398 -0.21 -0.03    +0.270 C  
DOCKED: ATOM     19  H   UNL     1     138.810  73.791 223.069 -0.55 -0.10    +0.164 HD 
DOCKED: ATOM     20  O   UNL     1     140.976  72.118 221.417 -0.16 +0.03    -0.268 OA 
DOCKED: BRANCH  18  21
DOCKED: ATOM     21  C   UNL     1     140.146  71.539 223.587 -0.33 -0.02    +0.128 A  
DOCKED: ATOM     22  C   UNL     1     139.515  70.300 223.440 -0.28 -0.01    +0.035 A  
DOCKED: ATOM     23  N   UNL     1     140.647  71.901 224.781 -0.26 +0.03    -0.243 NA 
DOCKED: ATOM     24  C   UNL     1     139.402  69.445 224.517 -0.34 -0.00    +0.013 A  
DOCKED: ATOM     25  C   UNL     1     140.547  71.070 225.861 -0.54 -0.01    +0.071 A  
DOCKED: ATOM     26  C   UNL     1     139.924  69.840 225.730 -0.47 -0.00    +0.000 A  
DOCKED: ATOM     27  C   UNL     1     141.073  71.477 227.068 -0.73 -0.00    +0.029 A  
DOCKED: ATOM     28  C   UNL     1     139.841  69.024 226.844 -0.56 -0.00    +0.010 A  
DOCKED: ATOM     29  C   UNL     1     140.969  70.623 228.170 -0.63 -0.00    +0.002 A  
DOCKED: ATOM     30  C   UNL     1     140.350  69.386 228.066 -0.64 -0.00    +0.001 A  
DOCKED: ENDBRANCH  18  21
DOCKED: ENDBRANCH  16  17
DOCKED: ENDBRANCH   2  16
DOCKED: TORSDOF 7
DOCKED: TER
DOCKED: ENDMDL
________________________________________________________________________________


    FINAL DOCKED STATE:
    ________________________


Run:   5 / 20
Time taken for this run:   0.027s

DOCKED: MODEL        5
DOCKED: USER    Run = 5
DOCKED: USER
DOCKED: USER    Estimated Free Energy of Binding    =  -9.16 kcal/mol  [=(1)+(2)+(3)-(4)]
DOCKED: USER
DOCKED: USER    (1) Final Intermolecular Energy     = -11.25 kcal/mol
DOCKED: USER        vdW + Hbond + desolv Energy     = -11.15 kcal/mol
DOCKED: USER        Electrostatic Energy            =  -0.10 kcal/mol
DOCKED: USER        Moving Ligand-Fixed Receptor    = -11.25 kcal/mol
DOCKED: USER        Moving Ligand-Moving Receptor   =  +0.00 kcal/mol
DOCKED: USER    (2) Final Total Internal Energy     =  -1.34 kcal/mol
DOCKED: USER    (3) Torsional Free Energy           =  +2.09 kcal/mol
DOCKED: USER    (4) Unbound System's Energy         =  -1.34 kcal/mol
DOCKED: USER
DOCKED: USER
DOCKED: REMARK SMILES CC(C)C[C@H](NC(=O)CNC(=O)c1ccc2ccccc2n1)c1ccccc1
DOCKED: REMARK SMILES IDX 6 1 7 2 8 3 5 5 4 6 2 7 1 8 3 9 23 10 24 11 28 12 25 13
DOCKED: REMARK SMILES IDX 27 14 26 15 9 16 10 17 11 18 12 20 13 21 14 22 22 23 15 24
DOCKED: REMARK SMILES IDX 21 25 16 26 20 27 17 28 19 29 18 30
DOCKED: REMARK H PARENT 6 4 10 19
DOCKED: USER                              x       y       z     vdW  Elec       q    Type
DOCKED: USER                           _______ _______ _______ _____ _____    ______ ____
DOCKED: ROOT
DOCKED: ATOM      1  N   UNL     1     141.033  76.625 221.761 -0.18 +0.14    -0.348 N  
DOCKED: ATOM      2  C   UNL     1     139.998  75.806 221.251 -0.20 -0.06    +0.239 C  
DOCKED: ATOM      3  O   UNL     1     138.929  76.389 220.865 -0.07 +0.06    -0.273 OA 
DOCKED: ATOM      4  H   UNL     1     141.917  76.208 222.086 -0.53 -0.11    +0.164 HD 
DOCKED: ENDROOT
DOCKED: BRANCH   1   5
DOCKED: ATOM      5  C   UNL     1     140.887  78.079 221.847 -0.32 -0.04    +0.112 C  
DOCKED: BRANCH   5   6
DOCKED: ATOM      6  C   UNL     1     141.774  78.501 222.999 -0.45 -0.01    +0.033 C  
DOCKED: BRANCH   6   7
DOCKED: ATOM      7  C   UNL     1     141.150  79.599 223.843 -0.55 +0.00    -0.015 C  
DOCKED: ATOM      8  C   UNL     1     141.852  80.898 223.531 -0.62 -0.00    +0.007 C  
DOCKED: ATOM      9  C   UNL     1     139.704  79.738 223.382 -0.43 -0.00    +0.007 C  
DOCKED: ENDBRANCH   6   7
DOCKED: ENDBRANCH   5   6
DOCKED: BRANCH   5  10
DOCKED: ATOM     10  C   UNL     1     141.419  78.731 220.614 -0.29 +0.01    -0.026 A  
DOCKED: ATOM     11  C   UNL     1     141.330  80.088 220.389 -0.29 -0.00    +0.006 A  
DOCKED: ATOM     12  C   UNL     1     142.025  77.924 219.669 -0.29 -0.00    +0.006 A  
DOCKED: ATOM     13  C   UNL     1     141.819  80.704 219.255 -0.30 -0.00    +0.000 A  
DOCKED: ATOM     14  C   UNL     1     142.530  78.522 218.509 -0.32 -0.00    +0.000 A  
DOCKED: ATOM     15  C   UNL     1     142.421  79.885 218.320 -0.33 -0.00    +0.000 A  
DOCKED: ENDBRANCH   5  10
DOCKED: ENDBRANCH   1   5
DOCKED: BRANCH   2  16
DOCKED: ATOM     16  C   UNL     1     140.043  74.346 221.124 -0.18 -0.04    +0.216 C  
DOCKED: BRANCH  16  17
DOCKED: ATOM     17  N   UNL     1     139.776  73.616 222.338 -0.11 +0.04    -0.342 N  
DOCKED: ATOM     18  C   UNL     1     140.449  72.370 222.511 -0.19 -0.02    +0.270 C  
DOCKED: ATOM     19  H   UNL     1     139.139  73.908 223.099 -0.54 -0.08    +0.164 HD 
DOCKED: ATOM     20  O   UNL     1     141.225  72.029 221.570 -0.18 +0.03    -0.268 OA 
DOCKED: BRANCH  18  21
DOCKED: ATOM     21  C   UNL     1     140.246  71.556 223.703 -0.34 -0.02    +0.128 A  
DOCKED: ATOM     22  C   UNL     1     139.564  70.348 223.528 -0.29 -0.01    +0.035 A  
DOCKED: ATOM     23  N   UNL     1     140.676  71.914 224.926 -0.26 +0.03    -0.243 NA 
DOCKED: ATOM     24  C   UNL     1     139.330  69.519 224.606 -0.35 -0.00    +0.013 A  
DOCKED: ATOM     25  C   UNL     1     140.455  71.109 226.007 -0.55 -0.01    +0.071 A  
DOCKED: ATOM     26  C   UNL     1     139.781  69.910 225.848 -0.47 -0.00    +0.000 A  
DOCKED: ATOM     27  C   UNL     1     140.912  71.512 227.244 -0.74 -0.01    +0.029 A  
DOCKED: ATOM     28  C   UNL     1     139.575  69.120 226.965 -0.55 -0.00    +0.010 A  
DOCKED: ATOM     29  C   UNL     1     140.684  70.685 228.348 -0.59 -0.00    +0.002 A  
DOCKED: ATOM     30  C   UNL     1     140.011  69.479 228.216 -0.63 -0.00    +0.001 A  
DOCKED: ENDBRANCH  18  21
DOCKED: ENDBRANCH  16  17
DOCKED: ENDBRANCH   2  16
DOCKED: TORSDOF 7
DOCKED: TER
DOCKED: ENDMDL
________________________________________________________________________________


    FINAL DOCKED STATE:
    ________________________


Run:   6 / 20
Time taken for this run:   0.027s

DOCKED: MODEL        6
DOCKED: USER    Run = 6
DOCKED: USER
DOCKED: USER    Estimated Free Energy of Binding    =  -8.23 kcal/mol  [=(1)+(2)+(3)-(4)]
DOCKED: USER
DOCKED: USER    (1) Final Intermolecular Energy     = -10.32 kcal/mol
DOCKED: USER        vdW + Hbond + desolv Energy     = -10.30 kcal/mol
DOCKED: USER        Electrostatic Energy            =  -0.02 kcal/mol
DOCKED: USER        Moving Ligand-Fixed Receptor    = -10.32 kcal/mol
DOCKED: USER        Moving Ligand-Moving Receptor   =  +0.00 kcal/mol
DOCKED: USER    (2) Final Total Internal Energy     =  -1.76 kcal/mol
DOCKED: USER    (3) Torsional Free Energy           =  +2.09 kcal/mol
DOCKED: USER    (4) Unbound System's Energy         =  -1.76 kcal/mol
DOCKED: USER
DOCKED: USER
DOCKED: REMARK SMILES CC(C)C[C@H](NC(=O)CNC(=O)c1ccc2ccccc2n1)c1ccccc1
DOCKED: REMARK SMILES IDX 6 1 7 2 8 3 5 5 4 6 2 7 1 8 3 9 23 10 24 11 28 12 25 13
DOCKED: REMARK SMILES IDX 27 14 26 15 9 16 10 17 11 18 12 20 13 21 14 22 22 23 15 24
DOCKED: REMARK SMILES IDX 21 25 16 26 20 27 17 28 19 29 18 30
DOCKED: REMARK H PARENT 6 4 10 19
DOCKED: USER                              x       y       z     vdW  Elec       q    Type
DOCKED: USER                           _______ _______ _______ _____ _____    ______ ____
DOCKED: ROOT
DOCKED: ATOM      1  N   UNL     1     139.413  75.127 221.954 -0.16 +0.07    -0.348 N  
DOCKED: ATOM      2  C   UNL     1     138.559  74.419 221.076 -0.11 -0.05    +0.239 C  
DOCKED: ATOM      3  O   UNL     1     138.567  74.768 219.847 -0.02 +0.06    -0.273 OA 
DOCKED: ATOM      4  H   UNL     1     139.448  74.888 222.955 -0.41 -0.02    +0.164 HD 
DOCKED: ENDROOT
DOCKED: BRANCH   1   5
DOCKED: ATOM      5  C   UNL     1     140.269  76.215 221.478 -0.28 -0.03    +0.112 C  
DOCKED: BRANCH   5   6
DOCKED: ATOM      6  C   UNL     1     140.662  76.985 222.721 -0.31 -0.01    +0.033 C  
DOCKED: BRANCH   6   7
DOCKED: ATOM      7  C   UNL     1     140.711  78.485 222.485 -0.43 +0.00    -0.015 C  
DOCKED: ATOM      8  C   UNL     1     139.422  79.089 222.987 -0.36 -0.00    +0.007 C  
DOCKED: ATOM      9  C   UNL     1     141.839  79.029 223.352 -0.61 -0.00    +0.007 C  
DOCKED: ENDBRANCH   6   7
DOCKED: ENDBRANCH   5   6
DOCKED: BRANCH   5  10
DOCKED: ATOM     10  C   UNL     1     141.522  75.670 220.878 -0.29 +0.01    -0.026 A  
DOCKED: ATOM     11  C   UNL     1     142.361  76.424 220.086 -0.31 -0.00    +0.006 A  
DOCKED: ATOM     12  C   UNL     1     141.840  74.350 221.140 -0.26 -0.00    +0.006 A  
DOCKED: ATOM     13  C   UNL     1     143.523  75.933 219.526 -0.41 -0.00    +0.000 A  
DOCKED: ATOM     14  C   UNL     1     143.012  73.825 220.585 -0.31 -0.00    +0.000 A  
DOCKED: ATOM     15  C   UNL     1     143.827  74.613 219.796 -0.39 -0.00    +0.000 A  
DOCKED: ENDBRANCH   5  10
DOCKED: ENDBRANCH   1   5
DOCKED: BRANCH   2  16
DOCKED: ATOM     16  C   UNL     1     137.665  73.319 221.450 -0.09 -0.05    +0.216 C  
DOCKED: BRANCH  16  17
DOCKED: ATOM     17  N   UNL     1     137.997  72.650 222.683 +0.03 +0.13    -0.342 N  
DOCKED: ATOM     18  C   UNL     1     139.235  71.944 222.728 -0.18 -0.06    +0.270 C  
DOCKED: ATOM     19  H   UNL     1     137.421  72.632 223.542 -0.50 -0.09    +0.164 HD 
DOCKED: ATOM     20  O   UNL     1     139.927  71.978 221.667 -0.14 +0.04    -0.268 OA 
DOCKED: BRANCH  18  21
DOCKED: ATOM     21  C   UNL     1     139.663  71.235 223.928 -0.33 -0.03    +0.128 A  
DOCKED: ATOM     22  C   UNL     1     140.593  71.887 224.744 -0.34 -0.00    +0.035 A  
DOCKED: ATOM     23  N   UNL     1     139.211  70.014 224.266 -0.18 +0.04    -0.243 NA 
DOCKED: ATOM     24  C   UNL     1     141.050  71.283 225.897 -0.63 -0.00    +0.013 A  
DOCKED: ATOM     25  C   UNL     1     139.650  69.398 225.404 -0.39 -0.01    +0.071 A  
DOCKED: ATOM     26  C   UNL     1     140.571  70.032 226.221 -0.54 -0.00    +0.000 A  
DOCKED: ATOM     27  C   UNL     1     139.163  68.147 225.716 -0.50 -0.00    +0.029 A  
DOCKED: ATOM     28  C   UNL     1     140.993  69.379 227.365 -0.58 -0.00    +0.010 A  
DOCKED: ATOM     29  C   UNL     1     139.614  67.520 226.881 -0.60 -0.00    +0.002 A  
DOCKED: ATOM     30  C   UNL     1     140.536  68.134 227.717 -0.67 -0.00    +0.001 A  
DOCKED: ENDBRANCH  18  21
DOCKED: ENDBRANCH  16  17
DOCKED: ENDBRANCH   2  16
DOCKED: TORSDOF 7
DOCKED: TER
DOCKED: ENDMDL
________________________________________________________________________________


    FINAL DOCKED STATE:
    ________________________


Run:   7 / 20
Time taken for this run:   0.027s

DOCKED: MODEL        7
DOCKED: USER    Run = 7
DOCKED: USER
DOCKED: USER    Estimated Free Energy of Binding    =  -9.18 kcal/mol  [=(1)+(2)+(3)-(4)]
DOCKED: USER
DOCKED: USER    (1) Final Intermolecular Energy     = -11.27 kcal/mol
DOCKED: USER        vdW + Hbond + desolv Energy     = -11.17 kcal/mol
DOCKED: USER        Electrostatic Energy            =  -0.10 kcal/mol
DOCKED: USER        Moving Ligand-Fixed Receptor    = -11.27 kcal/mol
DOCKED: USER        Moving Ligand-Moving Receptor   =  +0.00 kcal/mol
DOCKED: USER    (2) Final Total Internal Energy     =  -1.33 kcal/mol
DOCKED: USER    (3) Torsional Free Energy           =  +2.09 kcal/mol
DOCKED: USER    (4) Unbound System's Energy         =  -1.33 kcal/mol
DOCKED: USER
DOCKED: USER
DOCKED: REMARK SMILES CC(C)C[C@H](NC(=O)CNC(=O)c1ccc2ccccc2n1)c1ccccc1
DOCKED: REMARK SMILES IDX 6 1 7 2 8 3 5 5 4 6 2 7 1 8 3 9 23 10 24 11 28 12 25 13
DOCKED: REMARK SMILES IDX 27 14 26 15 9 16 10 17 11 18 12 20 13 21 14 22 22 23 15 24
DOCKED: REMARK SMILES IDX 21 25 16 26 20 27 17 28 19 29 18 30
DOCKED: REMARK H PARENT 6 4 10 19
DOCKED: USER                              x       y       z     vdW  Elec       q    Type
DOCKED: USER                           _______ _______ _______ _____ _____    ______ ____
DOCKED: ROOT
DOCKED: ATOM      1  N   UNL     1     141.079  76.563 221.761 -0.18 +0.14    -0.348 N  
DOCKED: ATOM      2  C   UNL     1     140.049  75.746 221.237 -0.20 -0.06    +0.239 C  
DOCKED: ATOM      3  O   UNL     1     138.988  76.332 220.832 -0.07 +0.06    -0.273 OA 
DOCKED: ATOM      4  H   UNL     1     141.956  76.144 222.102 -0.53 -0.11    +0.164 HD 
DOCKED: ENDROOT
DOCKED: BRANCH   1   5
DOCKED: ATOM      5  C   UNL     1     140.937  78.017 221.839 -0.33 -0.04    +0.112 C  
DOCKED: BRANCH   5   6
DOCKED: ATOM      6  C   UNL     1     141.816  78.441 222.997 -0.41 -0.02    +0.033 C  
DOCKED: BRANCH   6   7
DOCKED: ATOM      7  C   UNL     1     141.177  79.527 223.846 -0.56 +0.00    -0.015 C  
DOCKED: ATOM      8  C   UNL     1     141.884  80.830 223.565 -0.62 -0.00    +0.007 C  
DOCKED: ATOM      9  C   UNL     1     139.739  79.673 223.363 -0.43 -0.00    +0.007 C  
DOCKED: ENDBRANCH   6   7
DOCKED: ENDBRANCH   5   6
DOCKED: BRANCH   5  10
DOCKED: ATOM     10  C   UNL     1     141.482  78.662 220.609 -0.30 +0.01    -0.026 A  
DOCKED: ATOM     11  C   UNL     1     141.442  80.025 220.398 -0.30 -0.00    +0.006 A  
DOCKED: ATOM     12  C   UNL     1     142.048  77.844 219.649 -0.29 -0.00    +0.006 A  
DOCKED: ATOM     13  C   UNL     1     141.943  80.633 219.266 -0.30 -0.00    +0.000 A  
DOCKED: ATOM     14  C   UNL     1     142.565  78.435 218.491 -0.32 -0.00    +0.000 A  
DOCKED: ATOM     15  C   UNL     1     142.505  79.803 218.317 -0.34 -0.00    +0.000 A  
DOCKED: ENDBRANCH   5  10
DOCKED: ENDBRANCH   1   5
DOCKED: BRANCH   2  16
DOCKED: ATOM     16  C   UNL     1     140.091  74.285 221.116 -0.18 -0.04    +0.216 C  
DOCKED: BRANCH  16  17
DOCKED: ATOM     17  N   UNL     1     139.821  73.561 222.332 -0.12 +0.04    -0.342 N  
DOCKED: ATOM     18  C   UNL     1     140.493  72.315 222.511 -0.20 -0.02    +0.270 C  
DOCKED: ATOM     19  H   UNL     1     139.184  73.857 223.091 -0.54 -0.07    +0.164 HD 
DOCKED: ATOM     20  O   UNL     1     141.269  71.969 221.572 -0.17 +0.03    -0.268 OA 
DOCKED: BRANCH  18  21
DOCKED: ATOM     21  C   UNL     1     140.288  71.506 223.707 -0.34 -0.02    +0.128 A  
DOCKED: ATOM     22  C   UNL     1     139.568  70.318 223.544 -0.29 -0.01    +0.035 A  
DOCKED: ATOM     23  N   UNL     1     140.750  71.851 224.922 -0.27 +0.03    -0.243 NA 
DOCKED: ATOM     24  C   UNL     1     139.329  69.496 224.626 -0.36 -0.00    +0.013 A  
DOCKED: ATOM     25  C   UNL     1     140.525  71.052 226.007 -0.55 -0.01    +0.071 A  
DOCKED: ATOM     26  C   UNL     1     139.814  69.873 225.860 -0.48 -0.00    +0.000 A  
DOCKED: ATOM     27  C   UNL     1     141.016  71.440 227.235 -0.73 -0.01    +0.029 A  
DOCKED: ATOM     28  C   UNL     1     139.605  69.088 226.980 -0.55 -0.00    +0.010 A  
DOCKED: ATOM     29  C   UNL     1     140.784  70.619 228.343 -0.59 -0.00    +0.002 A  
DOCKED: ATOM     30  C   UNL     1     140.074  69.433 228.223 -0.63 -0.00    +0.001 A  
DOCKED: ENDBRANCH  18  21
DOCKED: ENDBRANCH  16  17
DOCKED: ENDBRANCH   2  16
DOCKED: TORSDOF 7
DOCKED: TER
DOCKED: ENDMDL
________________________________________________________________________________


    FINAL DOCKED STATE:
    ________________________


Run:   8 / 20
Time taken for this run:   0.027s

DOCKED: MODEL        8
DOCKED: USER    Run = 8
DOCKED: USER
DOCKED: USER    Estimated Free Energy of Binding    =  -7.65 kcal/mol  [=(1)+(2)+(3)-(4)]
DOCKED: USER
DOCKED: USER    (1) Final Intermolecular Energy     =  -9.74 kcal/mol
DOCKED: USER        vdW + Hbond + desolv Energy     =  -9.72 kcal/mol
DOCKED: USER        Electrostatic Energy            =  -0.02 kcal/mol
DOCKED: USER        Moving Ligand-Fixed Receptor    =  -9.74 kcal/mol
DOCKED: USER        Moving Ligand-Moving Receptor   =  +0.00 kcal/mol
DOCKED: USER    (2) Final Total Internal Energy     =  -2.50 kcal/mol
DOCKED: USER    (3) Torsional Free Energy           =  +2.09 kcal/mol
DOCKED: USER    (4) Unbound System's Energy         =  -2.50 kcal/mol
DOCKED: USER
DOCKED: USER
DOCKED: REMARK SMILES CC(C)C[C@H](NC(=O)CNC(=O)c1ccc2ccccc2n1)c1ccccc1
DOCKED: REMARK SMILES IDX 6 1 7 2 8 3 5 5 4 6 2 7 1 8 3 9 23 10 24 11 28 12 25 13
DOCKED: REMARK SMILES IDX 27 14 26 15 9 16 10 17 11 18 12 20 13 21 14 22 22 23 15 24
DOCKED: REMARK SMILES IDX 21 25 16 26 20 27 17 28 19 29 18 30
DOCKED: REMARK H PARENT 6 4 10 19
DOCKED: USER                              x       y       z     vdW  Elec       q    Type
DOCKED: USER                           _______ _______ _______ _____ _____    ______ ____
DOCKED: ROOT
DOCKED: ATOM      1  N   UNL     1     138.364  70.879 224.190 -0.13 +0.08    -0.348 N  
DOCKED: ATOM      2  C   UNL     1     137.497  69.763 224.119 -0.18 -0.03    +0.239 C  
DOCKED: ATOM      3  O   UNL     1     138.033  68.604 224.154 -0.25 +0.02    -0.273 OA 
DOCKED: ATOM      4  H   UNL     1     137.986  71.837 224.166 -0.28 -0.07    +0.164 HD 
DOCKED: ENDROOT
DOCKED: BRANCH   1   5
DOCKED: ATOM      5  C   UNL     1     139.814  70.716 224.298 -0.36 -0.02    +0.112 C  
DOCKED: BRANCH   5   6
DOCKED: ATOM      6  C   UNL     1     140.404  71.868 223.513 -0.34 -0.00    +0.033 C  
DOCKED: BRANCH   6   7
DOCKED: ATOM      7  C   UNL     1     139.878  71.933 222.089 -0.27 +0.00    -0.015 C  
DOCKED: ATOM      8  C   UNL     1     139.079  73.203 221.934 -0.22 -0.00    +0.007 C  
DOCKED: ATOM      9  C   UNL     1     141.094  72.042 221.177 -0.22 -0.00    +0.007 C  
DOCKED: ENDBRANCH   6   7
DOCKED: ENDBRANCH   5   6
DOCKED: BRANCH   5  10
DOCKED: ATOM     10  C   UNL     1     140.253  70.873 225.716 -0.54 +0.00    -0.026 A  
DOCKED: ATOM     11  C   UNL     1     141.028  71.930 226.146 -0.60 -0.00    +0.006 A  
DOCKED: ATOM     12  C   UNL     1     139.856  69.909 226.624 -0.52 -0.00    +0.006 A  
DOCKED: ATOM     13  C   UNL     1     141.440  72.087 227.453 -0.80 -0.00    +0.000 A  
DOCKED: ATOM     14  C   UNL     1     140.259  70.044 227.957 -0.64 -0.00    +0.000 A  
DOCKED: ATOM     15  C   UNL     1     141.036  71.117 228.349 -0.67 -0.00    +0.000 A  
DOCKED: ENDBRANCH   5  10
DOCKED: ENDBRANCH   1   5
DOCKED: BRANCH   2  16
DOCKED: ATOM     16  C   UNL     1     136.035  69.818 224.008 -0.14 -0.02    +0.216 C  
DOCKED: BRANCH  16  17
DOCKED: ATOM     17  N   UNL     1     135.403  70.878 224.751 -0.06 +0.03    -0.342 N  
DOCKED: ATOM     18  C   UNL     1     135.529  72.202 224.235 -0.11 -0.04    +0.270 C  
DOCKED: ATOM     19  H   UNL     1     134.865  70.772 225.628 +0.06 -0.01    +0.164 HD 
DOCKED: ATOM     20  O   UNL     1     136.191  72.313 223.161 -0.12 +0.06    -0.268 OA 
DOCKED: BRANCH  18  21
DOCKED: ATOM     21  C   UNL     1     134.926  73.343 224.914 -0.21 -0.01    +0.128 A  
DOCKED: ATOM     22  C   UNL     1     135.431  74.605 224.586 -0.32 -0.01    +0.035 A  
DOCKED: ATOM     23  N   UNL     1     133.936  73.229 225.816 -0.33 +0.00    -0.243 NA 
DOCKED: ATOM     24  C   UNL     1     134.917  75.737 225.185 -0.34 -0.00    +0.013 A  
DOCKED: ATOM     25  C   UNL     1     133.411  74.336 226.420 -0.30 +0.00    +0.071 A  
DOCKED: ATOM     26  C   UNL     1     133.902  75.591 226.106 -0.39 -0.00    +0.000 A  
DOCKED: ATOM     27  C   UNL     1     132.396  74.177 227.339 -0.41 -0.00    +0.029 A  
DOCKED: ATOM     28  C   UNL     1     133.347  76.690 226.737 -0.36 -0.00    +0.010 A  
DOCKED: ATOM     29  C   UNL     1     131.862  75.312 227.956 -0.35 -0.00    +0.002 A  
DOCKED: ATOM     30  C   UNL     1     132.335  76.582 227.658 -0.34 +0.00    +0.001 A  
DOCKED: ENDBRANCH  18  21
DOCKED: ENDBRANCH  16  17
DOCKED: ENDBRANCH   2  16
DOCKED: TORSDOF 7
DOCKED: TER
DOCKED: ENDMDL
________________________________________________________________________________


    FINAL DOCKED STATE:
    ________________________


Run:   9 / 20
Time taken for this run:   0.027s

DOCKED: MODEL        9
DOCKED: USER    Run = 9
DOCKED: USER
DOCKED: USER    Estimated Free Energy of Binding    =  -8.71 kcal/mol  [=(1)+(2)+(3)-(4)]
DOCKED: USER
DOCKED: USER    (1) Final Intermolecular Energy     = -10.80 kcal/mol
DOCKED: USER        vdW + Hbond + desolv Energy     = -10.78 kcal/mol
DOCKED: USER        Electrostatic Energy            =  -0.01 kcal/mol
DOCKED: USER        Moving Ligand-Fixed Receptor    = -10.80 kcal/mol
DOCKED: USER        Moving Ligand-Moving Receptor   =  +0.00 kcal/mol
DOCKED: USER    (2) Final Total Internal Energy     =  -1.42 kcal/mol
DOCKED: USER    (3) Torsional Free Energy           =  +2.09 kcal/mol
DOCKED: USER    (4) Unbound System's Energy         =  -1.42 kcal/mol
DOCKED: USER
DOCKED: USER
DOCKED: REMARK SMILES CC(C)C[C@H](NC(=O)CNC(=O)c1ccc2ccccc2n1)c1ccccc1
DOCKED: REMARK SMILES IDX 6 1 7 2 8 3 5 5 4 6 2 7 1 8 3 9 23 10 24 11 28 12 25 13
DOCKED: REMARK SMILES IDX 27 14 26 15 9 16 10 17 11 18 12 20 13 21 14 22 22 23 15 24
DOCKED: REMARK SMILES IDX 21 25 16 26 20 27 17 28 19 29 18 30
DOCKED: REMARK H PARENT 6 4 10 19
DOCKED: USER                              x       y       z     vdW  Elec       q    Type
DOCKED: USER                           _______ _______ _______ _____ _____    ______ ____
DOCKED: ROOT
DOCKED: ATOM      1  N   UNL     1     140.709  76.583 220.833 -0.09 +0.12    -0.348 N  
DOCKED: ATOM      2  C   UNL     1     140.913  75.184 220.893 -0.19 -0.06    +0.239 C  
DOCKED: ATOM      3  O   UNL     1     142.117  74.765 220.815 -0.23 +0.09    -0.273 OA 
DOCKED: ATOM      4  H   UNL     1     139.758  76.975 220.892 +0.06 -0.05    +0.164 HD 
DOCKED: ENDROOT
DOCKED: BRANCH   1   5
DOCKED: ATOM      5  C   UNL     1     141.828  77.513 220.685 -0.23 -0.07    +0.112 C  
DOCKED: BRANCH   5   6
DOCKED: ATOM      6  C   UNL     1     141.563  78.253 219.391 -0.24 -0.02    +0.033 C  
DOCKED: BRANCH   6   7
DOCKED: ATOM      7  C   UNL     1     142.620  77.976 218.335 -0.31 +0.01    -0.015 C  
DOCKED: ATOM      8  C   UNL     1     143.320  76.687 218.688 -0.33 -0.00    +0.007 C  
DOCKED: ATOM      9  C   UNL     1     141.880  77.751 217.023 -0.17 -0.00    +0.007 C  
DOCKED: ENDBRANCH   6   7
DOCKED: ENDBRANCH   5   6
DOCKED: BRANCH   5  10
DOCKED: ATOM     10  C   UNL     1     141.816  78.523 221.784 -0.38 +0.01    -0.026 A  
DOCKED: ATOM     11  C   UNL     1     142.163  79.844 221.590 -0.43 -0.00    +0.006 A  
DOCKED: ATOM     12  C   UNL     1     141.438  78.099 223.045 -0.50 -0.00    +0.006 A  
DOCKED: ATOM     13  C   UNL     1     142.155  80.787 222.597 -0.57 -0.00    +0.000 A  
DOCKED: ATOM     14  C   UNL     1     141.421  79.035 224.084 -0.57 -0.00    +0.000 A  
DOCKED: ATOM     15  C   UNL     1     141.775  80.349 223.850 -0.59 -0.00    +0.000 A  
DOCKED: ENDBRANCH   5  10
DOCKED: ENDBRANCH   1   5
DOCKED: BRANCH   2  16
DOCKED: ATOM     16  C   UNL     1     139.863  74.169 221.038 -0.16 -0.04    +0.216 C  
DOCKED: BRANCH  16  17
DOCKED: ATOM     17  N   UNL     1     139.803  73.528 222.327 -0.13 +0.04    -0.342 N  
DOCKED: ATOM     18  C   UNL     1     140.166  72.150 222.387 -0.21 -0.04    +0.270 C  
DOCKED: ATOM     19  H   UNL     1     139.520  73.972 223.217 -0.50 -0.03    +0.164 HD 
DOCKED: ATOM     20  O   UNL     1     140.510  71.623 221.288 -0.12 +0.04    -0.268 OA 
DOCKED: BRANCH  18  21
DOCKED: ATOM     21  C   UNL     1     140.137  71.410 223.643 -0.33 -0.02    +0.128 A  
DOCKED: ATOM     22  C   UNL     1     139.569  70.133 223.606 -0.28 -0.01    +0.035 A  
DOCKED: ATOM     23  N   UNL     1     140.621  71.897 224.800 -0.26 +0.03    -0.243 NA 
DOCKED: ATOM     24  C   UNL     1     139.502  69.368 224.752 -0.37 -0.00    +0.013 A  
DOCKED: ATOM     25  C   UNL     1     140.565  71.157 225.946 -0.55 -0.01    +0.071 A  
DOCKED: ATOM     26  C   UNL     1     140.005  69.891 225.924 -0.49 -0.00    +0.000 A  
DOCKED: ATOM     27  C   UNL     1     141.072  71.691 227.111 -0.76 -0.01    +0.029 A  
DOCKED: ATOM     28  C   UNL     1     139.965  69.169 227.104 -0.58 -0.00    +0.010 A  
DOCKED: ATOM     29  C   UNL     1     141.013  70.930 228.283 -0.65 -0.00    +0.002 A  
DOCKED: ATOM     30  C   UNL     1     140.458  69.659 228.287 -0.61 -0.00    +0.001 A  
DOCKED: ENDBRANCH  18  21
DOCKED: ENDBRANCH  16  17
DOCKED: ENDBRANCH   2  16
DOCKED: TORSDOF 7
DOCKED: TER
DOCKED: ENDMDL
________________________________________________________________________________


    FINAL DOCKED STATE:
    ________________________


Run:   10 / 20
Time taken for this run:   0.027s

DOCKED: MODEL        10
DOCKED: USER    Run = 10
DOCKED: USER
DOCKED: USER    Estimated Free Energy of Binding    =  -7.64 kcal/mol  [=(1)+(2)+(3)-(4)]
DOCKED: USER
DOCKED: USER    (1) Final Intermolecular Energy     =  -9.73 kcal/mol
DOCKED: USER        vdW + Hbond + desolv Energy     =  -9.68 kcal/mol
DOCKED: USER        Electrostatic Energy            =  -0.05 kcal/mol
DOCKED: USER        Moving Ligand-Fixed Receptor    =  -9.73 kcal/mol
DOCKED: USER        Moving Ligand-Moving Receptor   =  +0.00 kcal/mol
DOCKED: USER    (2) Final Total Internal Energy     =  -2.54 kcal/mol
DOCKED: USER    (3) Torsional Free Energy           =  +2.09 kcal/mol
DOCKED: USER    (4) Unbound System's Energy         =  -2.54 kcal/mol
DOCKED: USER
DOCKED: USER
DOCKED: REMARK SMILES CC(C)C[C@H](NC(=O)CNC(=O)c1ccc2ccccc2n1)c1ccccc1
DOCKED: REMARK SMILES IDX 6 1 7 2 8 3 5 5 4 6 2 7 1 8 3 9 23 10 24 11 28 12 25 13
DOCKED: REMARK SMILES IDX 27 14 26 15 9 16 10 17 11 18 12 20 13 21 14 22 22 23 15 24
DOCKED: REMARK SMILES IDX 21 25 16 26 20 27 17 28 19 29 18 30
DOCKED: REMARK H PARENT 6 4 10 19
DOCKED: USER                              x       y       z     vdW  Elec       q    Type
DOCKED: USER                           _______ _______ _______ _____ _____    ______ ____
DOCKED: ROOT
DOCKED: ATOM      1  N   UNL     1     138.182  74.486 221.987 -0.10 +0.10    -0.348 N  
DOCKED: ATOM      2  C   UNL     1     138.087  73.721 220.800 -0.07 -0.05    +0.239 C  
DOCKED: ATOM      3  O   UNL     1     137.500  74.261 219.803 -0.01 +0.05    -0.273 OA 
DOCKED: ATOM      4  H   UNL     1     138.646  74.100 222.822 -0.56 -0.09    +0.164 HD 
DOCKED: ENDROOT
DOCKED: BRANCH   1   5
DOCKED: ATOM      5  C   UNL     1     137.630  75.839 222.071 -0.20 -0.03    +0.112 C  
DOCKED: BRANCH   5   6
DOCKED: ATOM      6  C   UNL     1     136.665  75.802 223.237 -0.21 -0.01    +0.033 C  
DOCKED: BRANCH   6   7
DOCKED: ATOM      7  C   UNL     1     135.829  74.534 223.262 -0.21 +0.00    -0.015 C  
DOCKED: ATOM      8  C   UNL     1     135.084  74.479 224.574 -0.32 -0.00    +0.007 C  
DOCKED: ATOM      9  C   UNL     1     134.793  74.668 222.153 -0.08 -0.00    +0.007 C  
DOCKED: ENDBRANCH   6   7
DOCKED: ENDBRANCH   5   6
DOCKED: BRANCH   5  10
DOCKED: ATOM     10  C   UNL     1     138.701  76.820 222.413 -0.30 +0.01    -0.026 A  
DOCKED: ATOM     11  C   UNL     1     138.433  78.114 222.807 -0.27 -0.00    +0.006 A  
DOCKED: ATOM     12  C   UNL     1     140.015  76.396 222.326 -0.39 -0.00    +0.006 A  
DOCKED: ATOM     13  C   UNL     1     139.414  79.030 223.126 -0.37 -0.00    +0.000 A  
DOCKED: ATOM     14  C   UNL     1     141.030  77.305 222.644 -0.43 -0.00    +0.000 A  
DOCKED: ATOM     15  C   UNL     1     140.720  78.593 223.034 -0.48 -0.00    +0.000 A  
DOCKED: ENDBRANCH   5  10
DOCKED: ENDBRANCH   1   5
DOCKED: BRANCH   2  16
DOCKED: ATOM     16  C   UNL     1     138.604  72.361 220.613 -0.05 -0.04    +0.216 C  
DOCKED: BRANCH  16  17
DOCKED: ATOM     17  N   UNL     1     138.731  71.581 221.818 -0.05 +0.07    -0.342 N  
DOCKED: ATOM     18  C   UNL     1     139.745  71.969 222.742 -0.21 -0.05    +0.270 C  
DOCKED: ATOM     19  H   UNL     1     138.155  70.762 222.078 +0.04 -0.03    +0.164 HD 
DOCKED: ATOM     20  O   UNL     1     140.439  72.975 222.407 -0.67 +0.01    -0.268 OA 
DOCKED: BRANCH  18  21
DOCKED: ATOM     21  C   UNL     1     139.954  71.244 223.989 -0.35 -0.02    +0.128 A  
DOCKED: ATOM     22  C   UNL     1     140.699  71.898 224.976 -0.35 -0.00    +0.035 A  
DOCKED: ATOM     23  N   UNL     1     139.475  70.009 224.217 -0.18 +0.04    -0.243 NA 
DOCKED: ATOM     24  C   UNL     1     140.945  71.280 226.185 -0.65 -0.00    +0.013 A  
DOCKED: ATOM     25  C   UNL     1     139.705  69.379 225.407 -0.39 -0.01    +0.071 A  
DOCKED: ATOM     26  C   UNL     1     140.441  70.014 226.393 -0.55 -0.00    +0.000 A  
DOCKED: ATOM     27  C   UNL     1     139.196  68.113 225.602 -0.49 -0.00    +0.029 A  
DOCKED: ATOM     28  C   UNL     1     140.655  69.346 227.586 -0.61 -0.00    +0.010 A  
DOCKED: ATOM     29  C   UNL     1     139.433  67.472 226.821 -0.58 -0.00    +0.002 A  
DOCKED: ATOM     30  C   UNL     1     140.167  68.086 227.826 -0.59 -0.00    +0.001 A  
DOCKED: ENDBRANCH  18  21
DOCKED: ENDBRANCH  16  17
DOCKED: ENDBRANCH   2  16
DOCKED: TORSDOF 7
DOCKED: TER
DOCKED: ENDMDL
________________________________________________________________________________


    FINAL DOCKED STATE:
    ________________________


Run:   11 / 20
Time taken for this run:   0.027s

DOCKED: MODEL        11
DOCKED: USER    Run = 11
DOCKED: USER
DOCKED: USER    Estimated Free Energy of Binding    =  -7.76 kcal/mol  [=(1)+(2)+(3)-(4)]
DOCKED: USER
DOCKED: USER    (1) Final Intermolecular Energy     =  -9.84 kcal/mol
DOCKED: USER        vdW + Hbond + desolv Energy     =  -9.86 kcal/mol
DOCKED: USER        Electrostatic Energy            =  +0.01 kcal/mol
DOCKED: USER        Moving Ligand-Fixed Receptor    =  -9.84 kcal/mol
DOCKED: USER        Moving Ligand-Moving Receptor   =  +0.00 kcal/mol
DOCKED: USER    (2) Final Total Internal Energy     =  -2.31 kcal/mol
DOCKED: USER    (3) Torsional Free Energy           =  +2.09 kcal/mol
DOCKED: USER    (4) Unbound System's Energy         =  -2.31 kcal/mol
DOCKED: USER
DOCKED: USER
DOCKED: REMARK SMILES CC(C)C[C@H](NC(=O)CNC(=O)c1ccc2ccccc2n1)c1ccccc1
DOCKED: REMARK SMILES IDX 6 1 7 2 8 3 5 5 4 6 2 7 1 8 3 9 23 10 24 11 28 12 25 13
DOCKED: REMARK SMILES IDX 27 14 26 15 9 16 10 17 11 18 12 20 13 21 14 22 22 23 15 24
DOCKED: REMARK SMILES IDX 21 25 16 26 20 27 17 28 19 29 18 30
DOCKED: REMARK H PARENT 6 4 10 19
DOCKED: USER                              x       y       z     vdW  Elec       q    Type
DOCKED: USER                           _______ _______ _______ _____ _____    ______ ____
DOCKED: ROOT
DOCKED: ATOM      1  N   UNL     1     139.095  75.233 222.014 -0.15 +0.08    -0.348 N  
DOCKED: ATOM      2  C   UNL     1     140.019  74.917 220.990 -0.17 -0.05    +0.239 C  
DOCKED: ATOM      3  O   UNL     1     140.258  75.820 220.120 -0.06 +0.08    -0.273 OA 
DOCKED: ATOM      4  H   UNL     1     138.865  74.542 222.743 -0.54 -0.06    +0.164 HD 
DOCKED: ENDROOT
DOCKED: BRANCH   1   5
DOCKED: ATOM      5  C   UNL     1     138.437  76.539 222.074 -0.24 -0.02    +0.112 C  
DOCKED: BRANCH   5   6
DOCKED: ATOM      6  C   UNL     1     137.295  76.365 223.053 -0.24 -0.01    +0.033 C  
DOCKED: BRANCH   6   7
DOCKED: ATOM      7  C   UNL     1     136.496  75.098 222.796 -0.19 +0.00    -0.015 C  
DOCKED: ATOM      8  C   UNL     1     135.475  74.948 223.897 -0.28 -0.00    +0.007 C  
DOCKED: ATOM      9  C   UNL     1     135.737  75.315 221.494 -0.08 -0.00    +0.007 C  
DOCKED: ENDBRANCH   6   7
DOCKED: ENDBRANCH   5   6
DOCKED: BRANCH   5  10
DOCKED: ATOM     10  C   UNL     1     139.360  77.563 222.647 -0.30 +0.00    -0.026 A  
DOCKED: ATOM     11  C   UNL     1     140.726  77.385 222.714 -0.42 -0.00    +0.006 A  
DOCKED: ATOM     12  C   UNL     1     138.804  78.735 223.125 -0.31 -0.00    +0.006 A  
DOCKED: ATOM     13  C   UNL     1     141.589  78.323 223.240 -0.53 -0.00    +0.000 A  
DOCKED: ATOM     14  C   UNL     1     139.657  79.704 223.664 -0.44 -0.00    +0.000 A  
DOCKED: ATOM     15  C   UNL     1     141.020  79.489 223.714 -0.55 -0.00    +0.000 A  
DOCKED: ENDBRANCH   5  10
DOCKED: ENDBRANCH   1   5
DOCKED: BRANCH   2  16
DOCKED: ATOM     16  C   UNL     1     140.729  73.642 220.840 -0.16 -0.04    +0.216 C  
DOCKED: BRANCH  16  17
DOCKED: ATOM     17  N   UNL     1     140.877  72.875 222.051 -0.15 +0.02    -0.342 N  
DOCKED: ATOM     18  C   UNL     1     139.696  72.301 222.607 -0.19 -0.05    +0.270 C  
DOCKED: ATOM     19  H   UNL     1     141.761  72.701 222.559 +0.10 +0.01    +0.164 HD 
DOCKED: ATOM     20  O   UNL     1     138.623  72.524 221.971 -0.13 +0.07    -0.268 OA 
DOCKED: BRANCH  18  21
DOCKED: ATOM     21  C   UNL     1     139.739  71.508 223.830 -0.33 -0.03    +0.128 A  
DOCKED: ATOM     22  C   UNL     1     139.042  70.296 223.816 -0.30 -0.01    +0.035 A  
DOCKED: ATOM     23  N   UNL     1     140.402  71.890 224.936 -0.26 +0.04    -0.243 NA 
DOCKED: ATOM     24  C   UNL     1     139.032  69.487 224.934 -0.38 -0.00    +0.013 A  
DOCKED: ATOM     25  C   UNL     1     140.406  71.104 226.054 -0.54 -0.01    +0.071 A  
DOCKED: ATOM     26  C   UNL     1     139.720  69.902 226.054 -0.48 -0.00    +0.000 A  
DOCKED: ATOM     27  C   UNL     1     141.097  71.530 227.167 -0.74 -0.00    +0.029 A  
DOCKED: ATOM     28  C   UNL     1     139.744  69.132 227.203 -0.57 -0.00    +0.010 A  
DOCKED: ATOM     29  C   UNL     1     141.099  70.724 228.309 -0.59 -0.00    +0.002 A  
DOCKED: ATOM     30  C   UNL     1     140.420  69.514 228.335 -0.62 -0.00    +0.001 A  
DOCKED: ENDBRANCH  18  21
DOCKED: ENDBRANCH  16  17
DOCKED: ENDBRANCH   2  16
DOCKED: TORSDOF 7
DOCKED: TER
DOCKED: ENDMDL
________________________________________________________________________________


    FINAL DOCKED STATE:
    ________________________


Run:   12 / 20
Time taken for this run:   0.027s

DOCKED: MODEL        12
DOCKED: USER    Run = 12
DOCKED: USER
DOCKED: USER    Estimated Free Energy of Binding    =  -8.57 kcal/mol  [=(1)+(2)+(3)-(4)]
DOCKED: USER
DOCKED: USER    (1) Final Intermolecular Energy     = -10.66 kcal/mol
DOCKED: USER        vdW + Hbond + desolv Energy     = -10.58 kcal/mol
DOCKED: USER        Electrostatic Energy            =  -0.08 kcal/mol
DOCKED: USER        Moving Ligand-Fixed Receptor    = -10.66 kcal/mol
DOCKED: USER        Moving Ligand-Moving Receptor   =  +0.00 kcal/mol
DOCKED: USER    (2) Final Total Internal Energy     =  -1.53 kcal/mol
DOCKED: USER    (3) Torsional Free Energy           =  +2.09 kcal/mol
DOCKED: USER    (4) Unbound System's Energy         =  -1.53 kcal/mol
DOCKED: USER
DOCKED: USER
DOCKED: REMARK SMILES CC(C)C[C@H](NC(=O)CNC(=O)c1ccc2ccccc2n1)c1ccccc1
DOCKED: REMARK SMILES IDX 6 1 7 2 8 3 5 5 4 6 2 7 1 8 3 9 23 10 24 11 28 12 25 13
DOCKED: REMARK SMILES IDX 27 14 26 15 9 16 10 17 11 18 12 20 13 21 14 22 22 23 15 24
DOCKED: REMARK SMILES IDX 21 25 16 26 20 27 17 28 19 29 18 30
DOCKED: REMARK H PARENT 6 4 10 19
DOCKED: USER                              x       y       z     vdW  Elec       q    Type
DOCKED: USER                           _______ _______ _______ _____ _____    ______ ____
DOCKED: ROOT
DOCKED: ATOM      1  N   UNL     1     138.228  70.774 224.389 -0.11 +0.07    -0.348 N  
DOCKED: ATOM      2  C   UNL     1     137.386  69.652 224.574 -0.18 -0.02    +0.239 C  
DOCKED: ATOM      3  O   UNL     1     137.952  68.520 224.747 -0.32 +0.00    -0.273 OA 
DOCKED: ATOM      4  H   UNL     1     137.825  71.711 224.246 -0.20 -0.06    +0.164 HD 
DOCKED: ENDROOT
DOCKED: BRANCH   1   5
DOCKED: ATOM      5  C   UNL     1     139.686  70.647 224.394 -0.35 -0.02    +0.112 C  
DOCKED: BRANCH   5   6
DOCKED: ATOM      6  C   UNL     1     140.191  71.829 223.595 -0.35 -0.01    +0.033 C  
DOCKED: BRANCH   6   7
DOCKED: ATOM      7  C   UNL     1     139.835  71.732 222.121 -0.26 +0.00    -0.015 C  
DOCKED: ATOM      8  C   UNL     1     138.709  72.696 221.839 -0.19 -0.00    +0.007 C  
DOCKED: ATOM      9  C   UNL     1     141.054  72.212 221.343 -0.25 -0.00    +0.007 C  
DOCKED: ENDBRANCH   6   7
DOCKED: ENDBRANCH   5   6
DOCKED: BRANCH   5  10
DOCKED: ATOM     10  C   UNL     1     140.218  70.787 225.781 -0.53 +0.00    -0.026 A  
DOCKED: ATOM     11  C   UNL     1     140.918  71.897 226.205 -0.62 -0.00    +0.006 A  
DOCKED: ATOM     12  C   UNL     1     139.991  69.749 226.666 -0.53 -0.00    +0.006 A  
DOCKED: ATOM     13  C   UNL     1     141.414  72.040 227.484 -0.79 -0.00    +0.000 A  
DOCKED: ATOM     14  C   UNL     1     140.483  69.868 227.970 -0.63 -0.00    +0.000 A  
DOCKED: ATOM     15  C   UNL     1     141.179  70.996 228.357 -0.60 -0.00    +0.000 A  
DOCKED: ENDBRANCH   5  10
DOCKED: ENDBRANCH   1   5
DOCKED: BRANCH   2  16
DOCKED: ATOM     16  C   UNL     1     135.920  69.672 224.585 -0.16 -0.02    +0.216 C  
DOCKED: BRANCH  16  17
DOCKED: ATOM     17  N   UNL     1     135.326  70.937 224.936 -0.05 +0.03    -0.342 N  
DOCKED: ATOM     18  C   UNL     1     134.314  70.926 225.941 -0.17 -0.01    +0.270 C  
DOCKED: ATOM     19  H   UNL     1     135.562  71.857 224.527 +0.04 -0.02    +0.164 HD 
DOCKED: ATOM     20  O   UNL     1     134.038  69.790 226.431 -0.57 +0.00    -0.268 OA 
DOCKED: BRANCH  18  21
DOCKED: ATOM     21  C   UNL     1     133.651  72.152 226.367 -0.31 -0.01    +0.128 A  
DOCKED: ATOM     22  C   UNL     1     132.463  72.005 227.090 -0.38 -0.01    +0.035 A  
DOCKED: ATOM     23  N   UNL     1     134.125  73.381 226.097 -0.56 -0.01    -0.243 NA 
DOCKED: ATOM     24  C   UNL     1     131.773  73.116 227.528 -0.41 -0.00    +0.013 A  
DOCKED: ATOM     25  C   UNL     1     133.458  74.496 226.521 -0.26 +0.01    +0.071 A  
DOCKED: ATOM     26  C   UNL     1     132.280  74.364 227.238 -0.42 -0.00    +0.000 A  
DOCKED: ATOM     27  C   UNL     1     133.977  75.738 226.225 -0.39 -0.00    +0.029 A  
DOCKED: ATOM     28  C   UNL     1     131.632  75.514 227.652 -0.36 -0.00    +0.010 A  
DOCKED: ATOM     29  C   UNL     1     133.291  76.876 226.661 -0.34 -0.00    +0.002 A  
DOCKED: ATOM     30  C   UNL     1     132.110  76.771 227.381 -0.33 -0.00    +0.001 A  
DOCKED: ENDBRANCH  18  21
DOCKED: ENDBRANCH  16  17
DOCKED: ENDBRANCH   2  16
DOCKED: TORSDOF 7
DOCKED: TER
DOCKED: ENDMDL
________________________________________________________________________________


    FINAL DOCKED STATE:
    ________________________


Run:   13 / 20
Time taken for this run:   0.027s

DOCKED: MODEL        13
DOCKED: USER    Run = 13
DOCKED: USER
DOCKED: USER    Estimated Free Energy of Binding    =  -7.65 kcal/mol  [=(1)+(2)+(3)-(4)]
DOCKED: USER
DOCKED: USER    (1) Final Intermolecular Energy     =  -9.74 kcal/mol
DOCKED: USER        vdW + Hbond + desolv Energy     =  -9.72 kcal/mol
DOCKED: USER        Electrostatic Energy            =  -0.02 kcal/mol
DOCKED: USER        Moving Ligand-Fixed Receptor    =  -9.74 kcal/mol
DOCKED: USER        Moving Ligand-Moving Receptor   =  +0.00 kcal/mol
DOCKED: USER    (2) Final Total Internal Energy     =  -2.49 kcal/mol
DOCKED: USER    (3) Torsional Free Energy           =  +2.09 kcal/mol
DOCKED: USER    (4) Unbound System's Energy         =  -2.49 kcal/mol
DOCKED: USER
DOCKED: USER
DOCKED: REMARK SMILES CC(C)C[C@H](NC(=O)CNC(=O)c1ccc2ccccc2n1)c1ccccc1
DOCKED: REMARK SMILES IDX 6 1 7 2 8 3 5 5 4 6 2 7 1 8 3 9 23 10 24 11 28 12 25 13
DOCKED: REMARK SMILES IDX 27 14 26 15 9 16 10 17 11 18 12 20 13 21 14 22 22 23 15 24
DOCKED: REMARK SMILES IDX 21 25 16 26 20 27 17 28 19 29 18 30
DOCKED: REMARK H PARENT 6 4 10 19
DOCKED: USER                              x       y       z     vdW  Elec       q    Type
DOCKED: USER                           _______ _______ _______ _____ _____    ______ ____
DOCKED: ROOT
DOCKED: ATOM      1  N   UNL     1     138.403  70.889 224.141 -0.13 +0.08    -0.348 N  
DOCKED: ATOM      2  C   UNL     1     137.532  69.775 224.122 -0.18 -0.03    +0.239 C  
DOCKED: ATOM      3  O   UNL     1     138.061  68.618 224.232 -0.27 +0.01    -0.273 OA 
DOCKED: ATOM      4  H   UNL     1     138.030  71.846 224.057 -0.26 -0.07    +0.164 HD 
DOCKED: ENDROOT
DOCKED: BRANCH   1   5
DOCKED: ATOM      5  C   UNL     1     139.851  70.726 224.279 -0.36 -0.02    +0.112 C  
DOCKED: BRANCH   5   6
DOCKED: ATOM      6  C   UNL     1     140.457  71.866 223.489 -0.33 -0.00    +0.033 C  
DOCKED: BRANCH   6   7
DOCKED: ATOM      7  C   UNL     1     139.870  71.984 222.092 -0.27 +0.00    -0.015 C  
DOCKED: ATOM      8  C   UNL     1     139.290  73.368 221.934 -0.24 -0.00    +0.007 C  
DOCKED: ATOM      9  C   UNL     1     141.033  71.860 221.115 -0.21 -0.00    +0.007 C  
DOCKED: ENDBRANCH   6   7
DOCKED: ENDBRANCH   5   6
DOCKED: BRANCH   5  10
DOCKED: ATOM     10  C   UNL     1     140.263  70.904 225.702 -0.54 +0.00    -0.026 A  
DOCKED: ATOM     11  C   UNL     1     141.069  71.942 226.123 -0.59 -0.00    +0.006 A  
DOCKED: ATOM     12  C   UNL     1     139.809  69.981 226.625 -0.51 -0.00    +0.006 A  
DOCKED: ATOM     13  C   UNL     1     141.457  72.118 227.436 -0.80 -0.00    +0.000 A  
DOCKED: ATOM     14  C   UNL     1     140.186  70.136 227.963 -0.64 -0.00    +0.000 A  
DOCKED: ATOM     15  C   UNL     1     140.995  71.188 228.346 -0.69 -0.00    +0.000 A  
DOCKED: ENDBRANCH   5  10
DOCKED: ENDBRANCH   1   5
DOCKED: BRANCH   2  16
DOCKED: ATOM     16  C   UNL     1     136.072  69.830 223.987 -0.14 -0.02    +0.216 C  
DOCKED: BRANCH  16  17
DOCKED: ATOM     17  N   UNL     1     135.426  70.879 224.734 -0.06 +0.03    -0.342 N  
DOCKED: ATOM     18  C   UNL     1     135.556  72.209 224.235 -0.11 -0.04    +0.270 C  
DOCKED: ATOM     19  H   UNL     1     134.875  70.761 225.601 +0.06 -0.01    +0.164 HD 
DOCKED: ATOM     20  O   UNL     1     136.232  72.334 223.171 -0.12 +0.07    -0.268 OA 
DOCKED: BRANCH  18  21
DOCKED: ATOM     21  C   UNL     1     134.940  73.340 224.918 -0.21 -0.01    +0.128 A  
DOCKED: ATOM     22  C   UNL     1     135.426  74.610 224.590 -0.32 -0.01    +0.035 A  
DOCKED: ATOM     23  N   UNL     1     133.955  73.211 225.823 -0.33 -0.00    -0.243 NA 
DOCKED: ATOM     24  C   UNL     1     134.898  75.734 225.193 -0.35 -0.00    +0.013 A  
DOCKED: ATOM     25  C   UNL     1     133.417  74.310 226.432 -0.30 +0.00    +0.071 A  
DOCKED: ATOM     26  C   UNL     1     133.889  75.573 226.117 -0.39 -0.00    +0.000 A  
DOCKED: ATOM     27  C   UNL     1     132.408  74.136 227.355 -0.41 -0.00    +0.029 A  
DOCKED: ATOM     28  C   UNL     1     133.322  76.663 226.753 -0.36 -0.00    +0.010 A  
DOCKED: ATOM     29  C   UNL     1     131.861  75.262 227.975 -0.35 -0.00    +0.002 A  
DOCKED: ATOM     30  C   UNL     1     132.315  76.539 227.677 -0.33 +0.00    +0.001 A  
DOCKED: ENDBRANCH  18  21
DOCKED: ENDBRANCH  16  17
DOCKED: ENDBRANCH   2  16
DOCKED: TORSDOF 7
DOCKED: TER
DOCKED: ENDMDL
________________________________________________________________________________


    FINAL DOCKED STATE:
    ________________________


Run:   14 / 20
Time taken for this run:   0.027s

DOCKED: MODEL        14
DOCKED: USER    Run = 14
DOCKED: USER
DOCKED: USER    Estimated Free Energy of Binding    =  -8.76 kcal/mol  [=(1)+(2)+(3)-(4)]
DOCKED: USER
DOCKED: USER    (1) Final Intermolecular Energy     = -10.84 kcal/mol
DOCKED: USER        vdW + Hbond + desolv Energy     = -10.76 kcal/mol
DOCKED: USER        Electrostatic Energy            =  -0.08 kcal/mol
DOCKED: USER        Moving Ligand-Fixed Receptor    = -10.84 kcal/mol
DOCKED: USER        Moving Ligand-Moving Receptor   =  +0.00 kcal/mol
DOCKED: USER    (2) Final Total Internal Energy     =  -1.37 kcal/mol
DOCKED: USER    (3) Torsional Free Energy           =  +2.09 kcal/mol
DOCKED: USER    (4) Unbound System's Energy         =  -1.37 kcal/mol
DOCKED: USER
DOCKED: USER
DOCKED: REMARK SMILES CC(C)C[C@H](NC(=O)CNC(=O)c1ccc2ccccc2n1)c1ccccc1
DOCKED: REMARK SMILES IDX 6 1 7 2 8 3 5 5 4 6 2 7 1 8 3 9 23 10 24 11 28 12 25 13
DOCKED: REMARK SMILES IDX 27 14 26 15 9 16 10 17 11 18 12 20 13 21 14 22 22 23 15 24
DOCKED: REMARK SMILES IDX 21 25 16 26 20 27 17 28 19 29 18 30
DOCKED: REMARK H PARENT 6 4 10 19
DOCKED: USER                              x       y       z     vdW  Elec       q    Type
DOCKED: USER                           _______ _______ _______ _____ _____    ______ ____
DOCKED: ROOT
DOCKED: ATOM      1  N   UNL     1     140.637  76.627 220.755 -0.08 +0.12    -0.348 N  
DOCKED: ATOM      2  C   UNL     1     140.722  75.242 221.035 -0.20 -0.06    +0.239 C  
DOCKED: ATOM      3  O   UNL     1     141.881  74.767 221.287 -0.25 +0.08    -0.273 OA 
DOCKED: ATOM      4  H   UNL     1     139.728  77.063 220.546 +0.05 -0.05    +0.164 HD 
DOCKED: ENDROOT
DOCKED: BRANCH   1   5
DOCKED: ATOM      5  C   UNL     1     141.825  77.481 220.751 -0.22 -0.07    +0.112 C  
DOCKED: BRANCH   5   6
DOCKED: ATOM      6  C   UNL     1     141.767  78.238 219.441 -0.27 -0.02    +0.033 C  
DOCKED: BRANCH   6   7
DOCKED: ATOM      7  C   UNL     1     142.111  77.364 218.247 -0.25 +0.01    -0.015 C  
DOCKED: ATOM      8  C   UNL     1     142.597  78.254 217.129 -0.26 -0.01    +0.007 C  
DOCKED: ATOM      9  C   UNL     1     143.279  76.482 218.671 -0.34 -0.00    +0.007 C  
DOCKED: ENDBRANCH   6   7
DOCKED: ENDBRANCH   5   6
DOCKED: BRANCH   5  10
DOCKED: ATOM     10  C   UNL     1     141.749  78.488 221.849 -0.38 +0.01    -0.026 A  
DOCKED: ATOM     11  C   UNL     1     141.423  78.155 223.147 -0.52 -0.00    +0.006 A  
DOCKED: ATOM     12  C   UNL     1     142.020  79.807 221.534 -0.42 -0.00    +0.006 A  
DOCKED: ATOM     13  C   UNL     1     141.350  79.076 224.172 -0.53 -0.00    +0.000 A  
DOCKED: ATOM     14  C   UNL     1     141.953  80.761 222.555 -0.55 -0.00    +0.000 A  
DOCKED: ATOM     15  C   UNL     1     141.623  80.389 223.843 -0.57 -0.00    +0.000 A  
DOCKED: ENDBRANCH   5  10
DOCKED: ENDBRANCH   1   5
DOCKED: BRANCH   2  16
DOCKED: ATOM     16  C   UNL     1     139.597  74.302 221.063 -0.16 -0.04    +0.216 C  
DOCKED: BRANCH  16  17
DOCKED: ATOM     17  N   UNL     1     139.458  73.546 222.282 -0.12 +0.07    -0.342 N  
DOCKED: ATOM     18  C   UNL     1     140.222  72.348 222.396 -0.21 -0.03    +0.270 C  
DOCKED: ATOM     19  H   UNL     1     138.854  73.790 223.086 -0.55 -0.10    +0.164 HD 
DOCKED: ATOM     20  O   UNL     1     140.956  72.066 221.403 -0.16 +0.03    -0.268 OA 
DOCKED: BRANCH  18  21
DOCKED: ATOM     21  C   UNL     1     140.152  71.512 223.589 -0.33 -0.02    +0.128 A  
DOCKED: ATOM     22  C   UNL     1     139.526  70.269 223.448 -0.27 -0.01    +0.035 A  
DOCKED: ATOM     23  N   UNL     1     140.648  71.883 224.782 -0.27 +0.03    -0.243 NA 
DOCKED: ATOM     24  C   UNL     1     139.417  69.419 224.529 -0.35 -0.00    +0.013 A  
DOCKED: ATOM     25  C   UNL     1     140.551  71.057 225.866 -0.54 -0.01    +0.071 A  
DOCKED: ATOM     26  C   UNL     1     139.935  69.823 225.740 -0.47 -0.00    +0.000 A  
DOCKED: ATOM     27  C   UNL     1     141.073  71.473 227.072 -0.73 -0.00    +0.029 A  
DOCKED: ATOM     28  C   UNL     1     139.854  69.012 226.859 -0.57 -0.00    +0.010 A  
DOCKED: ATOM     29  C   UNL     1     140.972  70.625 228.178 -0.62 -0.00    +0.002 A  
DOCKED: ATOM     30  C   UNL     1     140.360  69.383 228.079 -0.64 -0.00    +0.001 A  
DOCKED: ENDBRANCH  18  21
DOCKED: ENDBRANCH  16  17
DOCKED: ENDBRANCH   2  16
DOCKED: TORSDOF 7
DOCKED: TER
DOCKED: ENDMDL
________________________________________________________________________________


    FINAL DOCKED STATE:
    ________________________


Run:   15 / 20
Time taken for this run:   0.027s

DOCKED: MODEL        15
DOCKED: USER    Run = 15
DOCKED: USER
DOCKED: USER    Estimated Free Energy of Binding    =  -8.00 kcal/mol  [=(1)+(2)+(3)-(4)]
DOCKED: USER
DOCKED: USER    (1) Final Intermolecular Energy     = -10.08 kcal/mol
DOCKED: USER        vdW + Hbond + desolv Energy     = -10.01 kcal/mol
DOCKED: USER        Electrostatic Energy            =  -0.07 kcal/mol
DOCKED: USER        Moving Ligand-Fixed Receptor    = -10.08 kcal/mol
DOCKED: USER        Moving Ligand-Moving Receptor   =  +0.00 kcal/mol
DOCKED: USER    (2) Final Total Internal Energy     =  -2.32 kcal/mol
DOCKED: USER    (3) Torsional Free Energy           =  +2.09 kcal/mol
DOCKED: USER    (4) Unbound System's Energy         =  -2.32 kcal/mol
DOCKED: USER
DOCKED: USER
DOCKED: REMARK SMILES CC(C)C[C@H](NC(=O)CNC(=O)c1ccc2ccccc2n1)c1ccccc1
DOCKED: REMARK SMILES IDX 6 1 7 2 8 3 5 5 4 6 2 7 1 8 3 9 23 10 24 11 28 12 25 13
DOCKED: REMARK SMILES IDX 27 14 26 15 9 16 10 17 11 18 12 20 13 21 14 22 22 23 15 24
DOCKED: REMARK SMILES IDX 21 25 16 26 20 27 17 28 19 29 18 30
DOCKED: REMARK H PARENT 6 4 10 19
DOCKED: USER                              x       y       z     vdW  Elec       q    Type
DOCKED: USER                           _______ _______ _______ _____ _____    ______ ____
DOCKED: ROOT
DOCKED: ATOM      1  N   UNL     1     138.506  75.010 221.880 -0.12 +0.09    -0.348 N  
DOCKED: ATOM      2  C   UNL     1     138.550  74.341 220.633 -0.07 -0.05    +0.239 C  
DOCKED: ATOM      3  O   UNL     1     138.106  74.973 219.616 -0.01 +0.06    -0.273 OA 
DOCKED: ATOM      4  H   UNL     1     138.851  74.548 222.733 -0.54 -0.06    +0.164 HD 
DOCKED: ENDROOT
DOCKED: BRANCH   1   5
DOCKED: ATOM      5  C   UNL     1     137.972  76.367 222.002 -0.21 -0.02    +0.112 C  
DOCKED: BRANCH   5   6
DOCKED: ATOM      6  C   UNL     1     136.930  76.288 223.098 -0.24 -0.01    +0.033 C  
DOCKED: BRANCH   6   7
DOCKED: ATOM      7  C   UNL     1     136.187  74.962 223.100 -0.21 +0.00    -0.015 C  
DOCKED: ATOM      8  C   UNL     1     135.416  74.851 224.393 -0.33 -0.00    +0.007 C  
DOCKED: ATOM      9  C   UNL     1     135.172  75.027 221.966 -0.09 -0.00    +0.007 C  
DOCKED: ENDBRANCH   6   7
DOCKED: ENDBRANCH   5   6
DOCKED: BRANCH   5  10
DOCKED: ATOM     10  C   UNL     1     139.034  77.306 222.466 -0.30 +0.01    -0.026 A  
DOCKED: ATOM     11  C   UNL     1     140.380  77.030 222.349 -0.41 -0.00    +0.006 A  
DOCKED: ATOM     12  C   UNL     1     138.633  78.501 223.035 -0.29 -0.00    +0.006 A  
DOCKED: ATOM     13  C   UNL     1     141.372  77.891 222.773 -0.44 -0.00    +0.000 A  
DOCKED: ATOM     14  C   UNL     1     139.618  79.392 223.474 -0.43 -0.00    +0.000 A  
DOCKED: ATOM     15  C   UNL     1     140.957  79.080 223.339 -0.53 -0.00    +0.000 A  
DOCKED: ENDBRANCH   5  10
DOCKED: ENDBRANCH   1   5
DOCKED: BRANCH   2  16
DOCKED: ATOM     16  C   UNL     1     139.062  72.986 220.404 -0.06 -0.04    +0.216 C  
DOCKED: BRANCH  16  17
DOCKED: ATOM     17  N   UNL     1     138.995  72.104 221.542 -0.06 +0.07    -0.342 N  
DOCKED: ATOM     18  C   UNL     1     139.884  72.368 222.625 -0.20 -0.04    +0.270 C  
DOCKED: ATOM     19  H   UNL     1     138.362  71.293 221.649 +0.04 -0.03    +0.164 HD 
DOCKED: ATOM     20  O   UNL     1     140.651  73.365 222.476 -0.69 -0.02    -0.268 OA 
DOCKED: BRANCH  18  21
DOCKED: ATOM     21  C   UNL     1     139.895  71.534 223.820 -0.34 -0.03    +0.128 A  
DOCKED: ATOM     22  C   UNL     1     139.251  70.296 223.727 -0.30 -0.01    +0.035 A  
DOCKED: ATOM     23  N   UNL     1     140.481  71.901 224.974 -0.25 +0.04    -0.243 NA 
DOCKED: ATOM     24  C   UNL     1     139.214  69.448 224.815 -0.37 -0.00    +0.013 A  
DOCKED: ATOM     25  C   UNL     1     140.457  71.077 226.063 -0.55 -0.01    +0.071 A  
DOCKED: ATOM     26  C   UNL     1     139.823  69.848 225.984 -0.48 -0.00    +0.000 A  
DOCKED: ATOM     27  C   UNL     1     141.069  71.489 227.226 -0.74 -0.00    +0.029 A  
DOCKED: ATOM     28  C   UNL     1     139.818  69.039 227.106 -0.58 -0.00    +0.010 A  
DOCKED: ATOM     29  C   UNL     1     141.043  70.643 228.339 -0.59 -0.00    +0.002 A  
DOCKED: ATOM     30  C   UNL     1     140.415  69.407 228.286 -0.63 -0.00    +0.001 A  
DOCKED: ENDBRANCH  18  21
DOCKED: ENDBRANCH  16  17
DOCKED: ENDBRANCH   2  16
DOCKED: TORSDOF 7
DOCKED: TER
DOCKED: ENDMDL
________________________________________________________________________________


    FINAL DOCKED STATE:
    ________________________


Run:   16 / 20
Time taken for this run:   0.027s

DOCKED: MODEL        16
DOCKED: USER    Run = 16
DOCKED: USER
DOCKED: USER    Estimated Free Energy of Binding    =  -9.12 kcal/mol  [=(1)+(2)+(3)-(4)]
DOCKED: USER
DOCKED: USER    (1) Final Intermolecular Energy     = -11.21 kcal/mol
DOCKED: USER        vdW + Hbond + desolv Energy     = -11.14 kcal/mol
DOCKED: USER        Electrostatic Energy            =  -0.07 kcal/mol
DOCKED: USER        Moving Ligand-Fixed Receptor    = -11.21 kcal/mol
DOCKED: USER        Moving Ligand-Moving Receptor   =  +0.00 kcal/mol
DOCKED: USER    (2) Final Total Internal Energy     =  -1.34 kcal/mol
DOCKED: USER    (3) Torsional Free Energy           =  +2.09 kcal/mol
DOCKED: USER    (4) Unbound System's Energy         =  -1.34 kcal/mol
DOCKED: USER
DOCKED: USER
DOCKED: REMARK SMILES CC(C)C[C@H](NC(=O)CNC(=O)c1ccc2ccccc2n1)c1ccccc1
DOCKED: REMARK SMILES IDX 6 1 7 2 8 3 5 5 4 6 2 7 1 8 3 9 23 10 24 11 28 12 25 13
DOCKED: REMARK SMILES IDX 27 14 26 15 9 16 10 17 11 18 12 20 13 21 14 22 22 23 15 24
DOCKED: REMARK SMILES IDX 21 25 16 26 20 27 17 28 19 29 18 30
DOCKED: REMARK H PARENT 6 4 10 19
DOCKED: USER                              x       y       z     vdW  Elec       q    Type
DOCKED: USER                           _______ _______ _______ _____ _____    ______ ____
DOCKED: ROOT
DOCKED: ATOM      1  N   UNL     1     141.035  76.582 221.804 -0.19 +0.14    -0.348 N  
DOCKED: ATOM      2  C   UNL     1     140.052  75.785 221.170 -0.19 -0.06    +0.239 C  
DOCKED: ATOM      3  O   UNL     1     139.065  76.392 220.634 -0.06 +0.07    -0.273 OA 
DOCKED: ATOM      4  H   UNL     1     141.853  76.145 222.253 -0.52 -0.10    +0.164 HD 
DOCKED: ENDROOT
DOCKED: BRANCH   1   5
DOCKED: ATOM      5  C   UNL     1     140.926  78.041 221.848 -0.33 -0.04    +0.112 C  
DOCKED: BRANCH   5   6
DOCKED: ATOM      6  C   UNL     1     141.814  78.473 222.995 -0.42 -0.01    +0.033 C  
DOCKED: BRANCH   6   7
DOCKED: ATOM      7  C   UNL     1     141.195  79.586 223.824 -0.56 +0.00    -0.015 C  
DOCKED: ATOM      8  C   UNL     1     141.930  80.869 223.522 -0.62 -0.00    +0.007 C  
DOCKED: ATOM      9  C   UNL     1     139.763  79.753 223.334 -0.43 -0.00    +0.007 C  
DOCKED: ENDBRANCH   6   7
DOCKED: ENDBRANCH   5   6
DOCKED: BRANCH   5  10
DOCKED: ATOM     10  C   UNL     1     141.484  78.644 220.602 -0.30 +0.01    -0.026 A  
DOCKED: ATOM     11  C   UNL     1     141.466  80.000 220.355 -0.30 -0.00    +0.006 A  
DOCKED: ATOM     12  C   UNL     1     142.041  77.791 219.667 -0.29 -0.00    +0.006 A  
DOCKED: ATOM     13  C   UNL     1     141.980  80.570 219.208 -0.31 -0.00    +0.000 A  
DOCKED: ATOM     14  C   UNL     1     142.570  78.342 218.496 -0.32 -0.00    +0.000 A  
DOCKED: ATOM     15  C   UNL     1     142.533  79.706 218.284 -0.34 -0.00    +0.000 A  
DOCKED: ENDBRANCH   5  10
DOCKED: ENDBRANCH   1   5
DOCKED: BRANCH   2  16
DOCKED: ATOM     16  C   UNL     1     140.067  74.322 221.073 -0.18 -0.04    +0.216 C  
DOCKED: BRANCH  16  17
DOCKED: ATOM     17  N   UNL     1     139.873  73.622 222.318 -0.11 +0.03    -0.342 N  
DOCKED: ATOM     18  C   UNL     1     140.380  72.292 222.403 -0.21 -0.03    +0.270 C  
DOCKED: ATOM     19  H   UNL     1     139.397  73.992 223.158 -0.51 -0.05    +0.164 HD 
DOCKED: ATOM     20  O   UNL     1     140.960  71.856 221.365 -0.15 +0.03    -0.268 OA 
DOCKED: BRANCH  18  21
DOCKED: ATOM     21  C   UNL     1     140.234  71.499 223.618 -0.33 -0.02    +0.128 A  
DOCKED: ATOM     22  C   UNL     1     139.575  70.272 223.491 -0.28 -0.01    +0.035 A  
DOCKED: ATOM     23  N   UNL     1     140.693  71.894 224.819 -0.27 +0.03    -0.243 NA 
DOCKED: ATOM     24  C   UNL     1     139.393  69.463 224.593 -0.35 -0.00    +0.013 A  
DOCKED: ATOM     25  C   UNL     1     140.525  71.108 225.923 -0.55 -0.01    +0.071 A  
DOCKED: ATOM     26  C   UNL     1     139.874  69.891 225.812 -0.48 -0.00    +0.000 A  
DOCKED: ATOM     27  C   UNL     1     141.011  71.547 227.136 -0.74 -0.00    +0.029 A  
DOCKED: ATOM     28  C   UNL     1     139.722  69.121 226.951 -0.56 -0.00    +0.010 A  
DOCKED: ATOM     29  C   UNL     1     140.837  70.740 228.264 -0.62 -0.00    +0.002 A  
DOCKED: ATOM     30  C   UNL     1     140.189  69.516 228.179 -0.63 -0.00    +0.001 A  
DOCKED: ENDBRANCH  18  21
DOCKED: ENDBRANCH  16  17
DOCKED: ENDBRANCH   2  16
DOCKED: TORSDOF 7
DOCKED: TER
DOCKED: ENDMDL
________________________________________________________________________________


    FINAL DOCKED STATE:
    ________________________


Run:   17 / 20
Time taken for this run:   0.027s

DOCKED: MODEL        17
DOCKED: USER    Run = 17
DOCKED: USER
DOCKED: USER    Estimated Free Energy of Binding    =  -7.73 kcal/mol  [=(1)+(2)+(3)-(4)]
DOCKED: USER
DOCKED: USER    (1) Final Intermolecular Energy     =  -9.82 kcal/mol
DOCKED: USER        vdW + Hbond + desolv Energy     =  -9.84 kcal/mol
DOCKED: USER        Electrostatic Energy            =  +0.02 kcal/mol
DOCKED: USER        Moving Ligand-Fixed Receptor    =  -9.82 kcal/mol
DOCKED: USER        Moving Ligand-Moving Receptor   =  +0.00 kcal/mol
DOCKED: USER    (2) Final Total Internal Energy     =  -2.32 kcal/mol
DOCKED: USER    (3) Torsional Free Energy           =  +2.09 kcal/mol
DOCKED: USER    (4) Unbound System's Energy         =  -2.32 kcal/mol
DOCKED: USER
DOCKED: USER
DOCKED: REMARK SMILES CC(C)C[C@H](NC(=O)CNC(=O)c1ccc2ccccc2n1)c1ccccc1
DOCKED: REMARK SMILES IDX 6 1 7 2 8 3 5 5 4 6 2 7 1 8 3 9 23 10 24 11 28 12 25 13
DOCKED: REMARK SMILES IDX 27 14 26 15 9 16 10 17 11 18 12 20 13 21 14 22 22 23 15 24
DOCKED: REMARK SMILES IDX 21 25 16 26 20 27 17 28 19 29 18 30
DOCKED: REMARK H PARENT 6 4 10 19
DOCKED: USER                              x       y       z     vdW  Elec       q    Type
DOCKED: USER                           _______ _______ _______ _____ _____    ______ ____
DOCKED: ROOT
DOCKED: ATOM      1  N   UNL     1     139.201  75.216 222.031 -0.16 +0.07    -0.348 N  
DOCKED: ATOM      2  C   UNL     1     140.062  74.871 220.962 -0.17 -0.05    +0.239 C  
DOCKED: ATOM      3  O   UNL     1     140.227  75.741 220.041 -0.06 +0.08    -0.273 OA 
DOCKED: ATOM      4  H   UNL     1     139.032  74.553 222.800 -0.51 -0.05    +0.164 HD 
DOCKED: ENDROOT
DOCKED: BRANCH   1   5
DOCKED: ATOM      5  C   UNL     1     138.525  76.513 222.081 -0.25 -0.02    +0.112 C  
DOCKED: BRANCH   5   6
DOCKED: ATOM      6  C   UNL     1     137.383  76.329 223.058 -0.23 -0.01    +0.033 C  
DOCKED: BRANCH   6   7
DOCKED: ATOM      7  C   UNL     1     136.569  75.078 222.774 -0.19 +0.00    -0.015 C  
DOCKED: ATOM      8  C   UNL     1     135.520  74.938 223.850 -0.27 -0.00    +0.007 C  
DOCKED: ATOM      9  C   UNL     1     135.844  75.316 221.455 -0.08 -0.00    +0.007 C  
DOCKED: ENDBRANCH   6   7
DOCKED: ENDBRANCH   5   6
DOCKED: BRANCH   5  10
DOCKED: ATOM     10  C   UNL     1     139.431  77.553 222.648 -0.30 +0.01    -0.026 A  
DOCKED: ATOM     11  C   UNL     1     140.800  77.401 222.708 -0.43 -0.00    +0.006 A  
DOCKED: ATOM     12  C   UNL     1     138.856  78.715 223.130 -0.31 -0.00    +0.006 A  
DOCKED: ATOM     13  C   UNL     1     141.650  78.355 223.229 -0.52 -0.00    +0.000 A  
DOCKED: ATOM     14  C   UNL     1     139.694  79.700 223.663 -0.44 -0.00    +0.000 A  
DOCKED: ATOM     15  C   UNL     1     141.061  79.510 223.706 -0.55 -0.00    +0.000 A  
DOCKED: ENDBRANCH   5  10
DOCKED: ENDBRANCH   1   5
DOCKED: BRANCH   2  16
DOCKED: ATOM     16  C   UNL     1     140.784  73.603 220.817 -0.16 -0.04    +0.216 C  
DOCKED: BRANCH  16  17
DOCKED: ATOM     17  N   UNL     1     140.921  72.833 222.028 -0.15 +0.02    -0.342 N  
DOCKED: ATOM     18  C   UNL     1     139.727  72.302 222.601 -0.19 -0.05    +0.270 C  
DOCKED: ATOM     19  H   UNL     1     141.804  72.627 222.524 +0.09 +0.01    +0.164 HD 
DOCKED: ATOM     20  O   UNL     1     138.655  72.563 221.979 -0.13 +0.07    -0.268 OA 
DOCKED: BRANCH  18  21
DOCKED: ATOM     21  C   UNL     1     139.759  71.510 223.824 -0.33 -0.03    +0.128 A  
DOCKED: ATOM     22  C   UNL     1     139.061  70.298 223.805 -0.30 -0.01    +0.035 A  
DOCKED: ATOM     23  N   UNL     1     140.411  71.892 224.936 -0.26 +0.04    -0.243 NA 
DOCKED: ATOM     24  C   UNL     1     139.039  69.490 224.923 -0.38 -0.00    +0.013 A  
DOCKED: ATOM     25  C   UNL     1     140.403  71.107 226.055 -0.54 -0.01    +0.071 A  
DOCKED: ATOM     26  C   UNL     1     139.717  69.905 226.049 -0.48 -0.00    +0.000 A  
DOCKED: ATOM     27  C   UNL     1     141.085  71.534 227.174 -0.74 -0.00    +0.029 A  
DOCKED: ATOM     28  C   UNL     1     139.730  69.136 227.199 -0.57 -0.00    +0.010 A  
DOCKED: ATOM     29  C   UNL     1     141.074  70.728 228.317 -0.60 -0.00    +0.002 A  
DOCKED: ATOM     30  C   UNL     1     140.395  69.518 228.337 -0.62 -0.00    +0.001 A  
DOCKED: ENDBRANCH  18  21
DOCKED: ENDBRANCH  16  17
DOCKED: ENDBRANCH   2  16
DOCKED: TORSDOF 7
DOCKED: TER
DOCKED: ENDMDL
________________________________________________________________________________


    FINAL DOCKED STATE:
    ________________________


Run:   18 / 20
Time taken for this run:   0.027s

DOCKED: MODEL        18
DOCKED: USER    Run = 18
DOCKED: USER
DOCKED: USER    Estimated Free Energy of Binding    =  -7.65 kcal/mol  [=(1)+(2)+(3)-(4)]
DOCKED: USER
DOCKED: USER    (1) Final Intermolecular Energy     =  -9.74 kcal/mol
DOCKED: USER        vdW + Hbond + desolv Energy     =  -9.70 kcal/mol
DOCKED: USER        Electrostatic Energy            =  -0.04 kcal/mol
DOCKED: USER        Moving Ligand-Fixed Receptor    =  -9.74 kcal/mol
DOCKED: USER        Moving Ligand-Moving Receptor   =  +0.00 kcal/mol
DOCKED: USER    (2) Final Total Internal Energy     =  -2.49 kcal/mol
DOCKED: USER    (3) Torsional Free Energy           =  +2.09 kcal/mol
DOCKED: USER    (4) Unbound System's Energy         =  -2.49 kcal/mol
DOCKED: USER
DOCKED: USER
DOCKED: REMARK SMILES CC(C)C[C@H](NC(=O)CNC(=O)c1ccc2ccccc2n1)c1ccccc1
DOCKED: REMARK SMILES IDX 6 1 7 2 8 3 5 5 4 6 2 7 1 8 3 9 23 10 24 11 28 12 25 13
DOCKED: REMARK SMILES IDX 27 14 26 15 9 16 10 17 11 18 12 20 13 21 14 22 22 23 15 24
DOCKED: REMARK SMILES IDX 21 25 16 26 20 27 17 28 19 29 18 30
DOCKED: REMARK H PARENT 6 4 10 19
DOCKED: USER                              x       y       z     vdW  Elec       q    Type
DOCKED: USER                           _______ _______ _______ _____ _____    ______ ____
DOCKED: ROOT
DOCKED: ATOM      1  N   UNL     1     138.188  74.677 222.084 -0.08 +0.11    -0.348 N  
DOCKED: ATOM      2  C   UNL     1     137.836  73.843 220.996 -0.07 -0.05    +0.239 C  
DOCKED: ATOM      3  O   UNL     1     137.025  74.320 220.133 -0.02 +0.05    -0.273 OA 
DOCKED: ATOM      4  H   UNL     1     138.839  74.343 222.809 -0.56 -0.07    +0.164 HD 
DOCKED: ENDROOT
DOCKED: BRANCH   1   5
DOCKED: ATOM      5  C   UNL     1     137.645  76.029 222.218 -0.22 -0.03    +0.112 C  
DOCKED: BRANCH   5   6
DOCKED: ATOM      6  C   UNL     1     136.721  75.970 223.416 -0.19 -0.01    +0.033 C  
DOCKED: BRANCH   6   7
DOCKED: ATOM      7  C   UNL     1     135.598  74.962 223.235 -0.22 +0.00    -0.015 C  
DOCKED: ATOM      8  C   UNL     1     135.367  74.265 224.554 -0.29 -0.00    +0.007 C  
DOCKED: ATOM      9  C   UNL     1     134.340  75.759 222.913 -0.11 -0.00    +0.007 C  
DOCKED: ENDBRANCH   6   7
DOCKED: ENDBRANCH   5   6
DOCKED: BRANCH   5  10
DOCKED: ATOM     10  C   UNL     1     138.732  76.998 222.545 -0.29 +0.00    -0.026 A  
DOCKED: ATOM     11  C   UNL     1     138.484  78.263 223.034 -0.26 -0.00    +0.006 A  
DOCKED: ATOM     12  C   UNL     1     140.039  76.593 222.342 -0.39 -0.00    +0.006 A  
DOCKED: ATOM     13  C   UNL     1     139.480  79.168 223.340 -0.39 -0.00    +0.000 A  
DOCKED: ATOM     14  C   UNL     1     141.068  77.490 222.645 -0.45 -0.00    +0.000 A  
DOCKED: ATOM     15  C   UNL     1     140.779  78.749 223.133 -0.49 -0.00    +0.000 A  
DOCKED: ENDBRANCH   5  10
DOCKED: ENDBRANCH   1   5
DOCKED: BRANCH   2  16
DOCKED: ATOM     16  C   UNL     1     138.321  72.477 220.770 -0.05 -0.04    +0.216 C  
DOCKED: BRANCH  16  17
DOCKED: ATOM     17  N   UNL     1     138.501  71.685 221.961 -0.06 +0.07    -0.342 N  
DOCKED: ATOM     18  C   UNL     1     139.606  72.012 222.800 -0.19 -0.06    +0.270 C  
DOCKED: ATOM     19  H   UNL     1     137.904  70.897 222.265 +0.04 -0.03    +0.164 HD 
DOCKED: ATOM     20  O   UNL     1     140.325  72.980 222.411 -0.68 +0.02    -0.268 OA 
DOCKED: BRANCH  18  21
DOCKED: ATOM     21  C   UNL     1     139.875  71.271 224.026 -0.35 -0.02    +0.128 A  
DOCKED: ATOM     22  C   UNL     1     140.696  71.896 224.970 -0.35 -0.00    +0.035 A  
DOCKED: ATOM     23  N   UNL     1     139.379  70.046 224.274 -0.18 +0.04    -0.243 NA 
DOCKED: ATOM     24  C   UNL     1     141.001  71.261 226.156 -0.65 -0.00    +0.013 A  
DOCKED: ATOM     25  C   UNL     1     139.668  69.399 225.442 -0.39 -0.01    +0.071 A  
DOCKED: ATOM     26  C   UNL     1     140.480  70.006 226.385 -0.55 -0.00    +0.000 A  
DOCKED: ATOM     27  C   UNL     1     139.140  68.144 225.659 -0.49 -0.00    +0.029 A  
DOCKED: ATOM     28  C   UNL     1     140.751  69.322 227.557 -0.61 -0.00    +0.010 A  
DOCKED: ATOM     29  C   UNL     1     139.437  67.485 226.855 -0.57 -0.00    +0.002 A  
DOCKED: ATOM     30  C   UNL     1     140.248  68.072 227.817 -0.59 -0.00    +0.001 A  
DOCKED: ENDBRANCH  18  21
DOCKED: ENDBRANCH  16  17
DOCKED: ENDBRANCH   2  16
DOCKED: TORSDOF 7
DOCKED: TER
DOCKED: ENDMDL
________________________________________________________________________________


    FINAL DOCKED STATE:
    ________________________


Run:   19 / 20
Time taken for this run:   0.027s

DOCKED: MODEL        19
DOCKED: USER    Run = 19
DOCKED: USER
DOCKED: USER    Estimated Free Energy of Binding    =  -7.98 kcal/mol  [=(1)+(2)+(3)-(4)]
DOCKED: USER
DOCKED: USER    (1) Final Intermolecular Energy     = -10.07 kcal/mol
DOCKED: USER        vdW + Hbond + desolv Energy     = -10.00 kcal/mol
DOCKED: USER        Electrostatic Energy            =  -0.07 kcal/mol
DOCKED: USER        Moving Ligand-Fixed Receptor    = -10.07 kcal/mol
DOCKED: USER        Moving Ligand-Moving Receptor   =  +0.00 kcal/mol
DOCKED: USER    (2) Final Total Internal Energy     =  -2.33 kcal/mol
DOCKED: USER    (3) Torsional Free Energy           =  +2.09 kcal/mol
DOCKED: USER    (4) Unbound System's Energy         =  -2.33 kcal/mol
DOCKED: USER
DOCKED: USER
DOCKED: REMARK SMILES CC(C)C[C@H](NC(=O)CNC(=O)c1ccc2ccccc2n1)c1ccccc1
DOCKED: REMARK SMILES IDX 6 1 7 2 8 3 5 5 4 6 2 7 1 8 3 9 23 10 24 11 28 12 25 13
DOCKED: REMARK SMILES IDX 27 14 26 15 9 16 10 17 11 18 12 20 13 21 14 22 22 23 15 24
DOCKED: REMARK SMILES IDX 21 25 16 26 20 27 17 28 19 29 18 30
DOCKED: REMARK H PARENT 6 4 10 19
DOCKED: USER                              x       y       z     vdW  Elec       q    Type
DOCKED: USER                           _______ _______ _______ _____ _____    ______ ____
DOCKED: ROOT
DOCKED: ATOM      1  N   UNL     1     138.428  74.988 221.903 -0.12 +0.09    -0.348 N  
DOCKED: ATOM      2  C   UNL     1     138.428  74.311 220.660 -0.07 -0.05    +0.239 C  
DOCKED: ATOM      3  O   UNL     1     137.954  74.939 219.654 -0.01 +0.06    -0.273 OA 
DOCKED: ATOM      4  H   UNL     1     138.799  74.529 222.748 -0.55 -0.07    +0.164 HD 
DOCKED: ENDROOT
DOCKED: BRANCH   1   5
DOCKED: ATOM      5  C   UNL     1     137.906  76.348 222.034 -0.21 -0.02    +0.112 C  
DOCKED: BRANCH   5   6
DOCKED: ATOM      6  C   UNL     1     136.869  76.273 223.134 -0.23 -0.01    +0.033 C  
DOCKED: BRANCH   6   7
DOCKED: ATOM      7  C   UNL     1     136.162  74.928 223.178 -0.20 +0.00    -0.015 C  
DOCKED: ATOM      8  C   UNL     1     135.411  74.827 224.483 -0.33 -0.00    +0.007 C  
DOCKED: ATOM      9  C   UNL     1     135.132  74.938 222.056 -0.09 -0.00    +0.007 C  
DOCKED: ENDBRANCH   6   7
DOCKED: ENDBRANCH   5   6
DOCKED: BRANCH   5  10
DOCKED: ATOM     10  C   UNL     1     138.978  77.277 222.497 -0.30 +0.00    -0.026 A  
DOCKED: ATOM     11  C   UNL     1     140.321  76.987 222.380 -0.40 -0.00    +0.006 A  
DOCKED: ATOM     12  C   UNL     1     138.590  78.477 223.064 -0.28 -0.00    +0.006 A  
DOCKED: ATOM     13  C   UNL     1     141.322  77.837 222.804 -0.43 -0.00    +0.000 A  
DOCKED: ATOM     14  C   UNL     1     139.584  79.358 223.502 -0.42 -0.00    +0.000 A  
DOCKED: ATOM     15  C   UNL     1     140.919  79.031 223.368 -0.53 -0.00    +0.000 A  
DOCKED: ENDBRANCH   5  10
DOCKED: ENDBRANCH   1   5
DOCKED: BRANCH   2  16
DOCKED: ATOM     16  C   UNL     1     138.925  72.952 220.424 -0.05 -0.04    +0.216 C  
DOCKED: BRANCH  16  17
DOCKED: ATOM     17  N   UNL     1     138.888  72.077 221.568 -0.06 +0.07    -0.342 N  
DOCKED: ATOM     18  C   UNL     1     139.817  72.336 222.618 -0.20 -0.05    +0.270 C  
DOCKED: ATOM     19  H   UNL     1     138.250  71.273 221.702 +0.04 -0.03    +0.164 HD 
DOCKED: ATOM     20  O   UNL     1     140.589  73.324 222.437 -0.71 -0.01    -0.268 OA 
DOCKED: BRANCH  18  21
DOCKED: ATOM     21  C   UNL     1     139.860  71.509 223.817 -0.34 -0.03    +0.128 A  
DOCKED: ATOM     22  C   UNL     1     139.246  70.255 223.736 -0.29 -0.01    +0.035 A  
DOCKED: ATOM     23  N   UNL     1     140.448  71.896 224.963 -0.26 +0.04    -0.243 NA 
DOCKED: ATOM     24  C   UNL     1     139.241  69.411 224.828 -0.37 -0.00    +0.013 A  
DOCKED: ATOM     25  C   UNL     1     140.456  71.077 226.056 -0.55 -0.01    +0.071 A  
DOCKED: ATOM     26  C   UNL     1     139.851  69.833 225.989 -0.48 -0.00    +0.000 A  
DOCKED: ATOM     27  C   UNL     1     141.069  71.510 227.211 -0.74 -0.00    +0.029 A  
DOCKED: ATOM     28  C   UNL     1     139.878  69.029 227.116 -0.58 -0.00    +0.010 A  
DOCKED: ATOM     29  C   UNL     1     141.075  70.669 228.328 -0.59 -0.00    +0.002 A  
DOCKED: ATOM     30  C   UNL     1     140.477  69.417 228.287 -0.63 -0.00    +0.001 A  
DOCKED: ENDBRANCH  18  21
DOCKED: ENDBRANCH  16  17
DOCKED: ENDBRANCH   2  16
DOCKED: TORSDOF 7
DOCKED: TER
DOCKED: ENDMDL
________________________________________________________________________________


    FINAL DOCKED STATE:
    ________________________


Run:   20 / 20
Time taken for this run:   0.027s

DOCKED: MODEL        20
DOCKED: USER    Run = 20
DOCKED: USER
DOCKED: USER    Estimated Free Energy of Binding    =  -8.61 kcal/mol  [=(1)+(2)+(3)-(4)]
DOCKED: USER
DOCKED: USER    (1) Final Intermolecular Energy     = -10.70 kcal/mol
DOCKED: USER        vdW + Hbond + desolv Energy     = -10.68 kcal/mol
DOCKED: USER        Electrostatic Energy            =  -0.03 kcal/mol
DOCKED: USER        Moving Ligand-Fixed Receptor    = -10.70 kcal/mol
DOCKED: USER        Moving Ligand-Moving Receptor   =  +0.00 kcal/mol
DOCKED: USER    (2) Final Total Internal Energy     =  -1.45 kcal/mol
DOCKED: USER    (3) Torsional Free Energy           =  +2.09 kcal/mol
DOCKED: USER    (4) Unbound System's Energy         =  -1.45 kcal/mol
DOCKED: USER
DOCKED: USER
DOCKED: REMARK SMILES CC(C)C[C@H](NC(=O)CNC(=O)c1ccc2ccccc2n1)c1ccccc1
DOCKED: REMARK SMILES IDX 6 1 7 2 8 3 5 5 4 6 2 7 1 8 3 9 23 10 24 11 28 12 25 13
DOCKED: REMARK SMILES IDX 27 14 26 15 9 16 10 17 11 18 12 20 13 21 14 22 22 23 15 24
DOCKED: REMARK SMILES IDX 21 25 16 26 20 27 17 28 19 29 18 30
DOCKED: REMARK H PARENT 6 4 10 19
DOCKED: USER                              x       y       z     vdW  Elec       q    Type
DOCKED: USER                           _______ _______ _______ _____ _____    ______ ____
DOCKED: ROOT
DOCKED: ATOM      1  N   UNL     1     140.408  76.477 220.978 -0.09 +0.11    -0.348 N  
DOCKED: ATOM      2  C   UNL     1     140.581  75.083 220.805 -0.17 -0.06    +0.239 C  
DOCKED: ATOM      3  O   UNL     1     141.727  74.682 220.408 -0.16 +0.08    -0.273 OA 
DOCKED: ATOM      4  H   UNL     1     139.505  76.855 221.297 +0.06 -0.04    +0.164 HD 
DOCKED: ENDROOT
DOCKED: BRANCH   1   5
DOCKED: ATOM      5  C   UNL     1     141.492  77.422 220.710 -0.25 -0.06    +0.112 C  
DOCKED: BRANCH   5   6
DOCKED: ATOM      6  C   UNL     1     141.063  78.181 219.472 -0.19 -0.02    +0.033 C  
DOCKED: BRANCH   6   7
DOCKED: ATOM      7  C   UNL     1     141.965  77.909 218.280 -0.25 +0.01    -0.015 C  
DOCKED: ATOM      8  C   UNL     1     142.593  79.213 217.851 -0.31 -0.01    +0.007 C  
DOCKED: ATOM      9  C   UNL     1     143.085  77.003 218.775 -0.32 -0.00    +0.007 C  
DOCKED: ENDBRANCH   6   7
DOCKED: ENDBRANCH   5   6
DOCKED: BRANCH   5  10
DOCKED: ATOM     10  C   UNL     1     141.608  78.413 221.820 -0.38 +0.01    -0.026 A  
DOCKED: ATOM     11  C   UNL     1     141.416  78.078 223.144 -0.50 -0.00    +0.006 A  
DOCKED: ATOM     12  C   UNL     1     141.923  79.718 221.488 -0.41 -0.00    +0.006 A  
DOCKED: ATOM     13  C   UNL     1     141.520  78.984 224.179 -0.56 -0.00    +0.000 A  
DOCKED: ATOM     14  C   UNL     1     142.036  80.657 222.519 -0.55 -0.00    +0.000 A  
DOCKED: ATOM     15  C   UNL     1     141.835  80.283 223.833 -0.61 -0.00    +0.000 A  
DOCKED: ENDBRANCH   5  10
DOCKED: ENDBRANCH   1   5
DOCKED: BRANCH   2  16
DOCKED: ATOM     16  C   UNL     1     139.562  74.056 221.044 -0.15 -0.04    +0.216 C  
DOCKED: BRANCH  16  17
DOCKED: ATOM     17  N   UNL     1     139.604  73.441 222.347 -0.14 +0.06    -0.342 N  
DOCKED: ATOM     18  C   UNL     1     139.929  72.053 222.402 -0.20 -0.04    +0.270 C  
DOCKED: ATOM     19  H   UNL     1     139.418  73.910 223.249 -0.48 -0.05    +0.164 HD 
DOCKED: ATOM     20  O   UNL     1     140.154  71.496 221.287 -0.10 +0.04    -0.268 OA 
DOCKED: BRANCH  18  21
DOCKED: ATOM     21  C   UNL     1     139.996  71.338 223.671 -0.33 -0.02    +0.128 A  
DOCKED: ATOM     22  C   UNL     1     139.519  70.024 223.676 -0.28 -0.01    +0.035 A  
DOCKED: ATOM     23  N   UNL     1     140.482  71.881 224.801 -0.27 +0.04    -0.243 NA 
DOCKED: ATOM     24  C   UNL     1     139.545  69.279 224.837 -0.37 -0.00    +0.013 A  
DOCKED: ATOM     25  C   UNL     1     140.519  71.161 225.962 -0.55 -0.01    +0.071 A  
DOCKED: ATOM     26  C   UNL     1     140.050  69.859 225.981 -0.50 -0.00    +0.000 A  
DOCKED: ATOM     27  C   UNL     1     141.026  71.753 227.099 -0.76 -0.01    +0.029 A  
DOCKED: ATOM     28  C   UNL     1     140.101  69.159 227.174 -0.59 -0.00    +0.010 A  
DOCKED: ATOM     29  C   UNL     1     141.061  71.013 228.284 -0.66 -0.00    +0.002 A  
DOCKED: ATOM     30  C   UNL     1     140.598  69.706 228.330 -0.60 -0.00    +0.001 A  
DOCKED: ENDBRANCH  18  21
DOCKED: ENDBRANCH  16  17
DOCKED: ENDBRANCH   2  16
DOCKED: TORSDOF 7
DOCKED: TER
DOCKED: ENDMDL
________________________________________________________________________________


    CLUSTERING HISTOGRAM
    ____________________


________________________________________________________________________________
     |           |     |           |     |
Clus | Lowest    | Run | Mean      | Num | Histogram
-ter | Binding   |     | Binding   | in  |
Rank | Energy    |     | Energy    | Clus|    5    10   15   20   25   30   35
_____|___________|_____|___________|_____|____:____|____:____|____:____|____:___
   1 |     -9.18 |   7 |     -8.86 |   5 |#####
   2 |     -8.77 |   4 |     -8.75 |   3 |###
   3 |     -8.57 |  12 |     -7.87 |   4 |####
   4 |     -8.30 |   2 |     -8.30 |   1 |#
   5 |     -8.00 |  15 |     -7.77 |   7 |#######
_____|___________|_____|___________|_____|______________________________________


    RMSD TABLE
    __________


_______________________________________________________________________
     |      |      |           |         |                 |
Rank | Sub- | Run  | Binding   | Cluster | Reference       | Grep
     | Rank |      | Energy    | RMSD    | RMSD            | Pattern
_____|______|______|___________|_________|_________________|___________
   1      1      7       -9.18      0.00    270.68           RANKING
   1      2      5       -9.16      0.09    270.67           RANKING
   1      3     16       -9.12      0.13    270.66           RANKING
   1      4     20       -8.61      1.99    270.56           RANKING
   1      5      6       -8.23      1.94    270.07           RANKING
   2      1      4       -8.77      0.00    270.53           RANKING
   2      2     14       -8.76      0.09    270.52           RANKING
   2      3      9       -8.71      0.38    270.58           RANKING
   3      1     12       -8.57      0.00    270.10           RANKING
   3      2      8       -7.65      1.22    270.02           RANKING
   3      3     13       -7.65      1.23    270.03           RANKING
   3      4      1       -7.60      1.26    270.02           RANKING
   4      1      2       -8.30      0.00    270.01           RANKING
   5      1     15       -8.00      0.00    270.02           RANKING
   5      2     19       -7.98      0.08    270.01           RANKING
   5      3     11       -7.76      1.11    270.35           RANKING
   5      4     17       -7.73      1.12    270.36           RANKING
   5      5     18       -7.65      0.94    269.83           RANKING
   5      6     10       -7.64      0.89    269.74           RANKING
   5      7      3       -7.64      0.90    269.75           RANKING

Run time 0.527 sec
Idle time 0.000 sec
