AutoDock-GPU version: v1.6

**********************************************************
**    AutoDock-GPU AUTODOCKTOOLS-COMPATIBLE DLG FILE    **
**********************************************************


    DOCKING PARAMETERS
    ________________________


Ligand file:                               /home/a/REINVENT4/ReinventStudies/pleaseWork/justmol2mol_4_Compounds_ontop/graph-dock-hn62wh/graph-DockGPU/node-autodockgpu/inputs/KRTGUGHRFGRYOX-ZSWWDKBRNA-N.pdbqt
Grid fld file:                             /home/a/REINVENT4/ReinventStudies/mols/Rad51/maps/rad51_receptor.maps.fld

Random seed:                               42
Number of runs:                            20
Number of energy evaluations:              1132076
Number of generations:                     42000
Size of population:                        150
Rate of crossover:                         80.000000%
Tournament selection probability limit:    60.000000%
Rate of mutation:                          2.000000%
Maximal allowed delta movement:            +/- 6.000000A
Maximal allowed delta angle:               +/- 90.000000

Rate of local search:                      100.000000%
Maximal number of local search iterations: 300
Rho lower bound:                           0.010000
Spread of local search delta movement:     2.000000A
Spread of local search delta angle:        74.999999
Limit of consecutive successes/failures:   4

Handle symmetry during clustering:         YES
RMSD tolerance:                            2.000000A

Program call in command line was:          /home/a/REINVENT4/ReinventStudies/adgpu-v1.6_linux_x64_cuda12_128wi --filelist batch.txt --heuristics 1 --nrun 20 --psize 150 --lsit 300 --seed 42 --heurmax 12000000 


    GRID PARAMETERS
    ________________________


Receptor name:                             rad51_receptor
Number of grid points (x, y, z):           53, 53, 53
Grid center (x, y, z):                     139.950000, 75.640000, 221.970000A
Grid size (x, y, z):                       19.500000, 19.500000, 19.500000A
Grid spacing:                              0.375000A


    LIGAND PARAMETERS
    ________________________


Ligand name:                               /home/a/REINVENT4/ReinventStudies/pleaseWork/justmol2mol_4_Compounds_ontop/graph-dock-hn62wh/graph-DockGPU/node-autodockgpu/inputs/KRTGUGHRFGRYOX-ZSWWDKBRNA-N
Number of atoms:                           29
Number of rotatable bonds:                 5
Number of atom types:                      7


    DUMMY DATA (only for ADT-compatibility)
    ________________________


DPF> outlev 1
DPF> ga_run 20
DPF> fld /home/a/REINVENT4/ReinventStudies/mols/Rad51/maps/rad51_receptor.maps.fld
DPF> move /home/a/REINVENT4/ReinventStudies/pleaseWork/justmol2mol_4_Compounds_ontop/graph-dock-hn62wh/graph-DockGPU/node-autodockgpu/inputs/KRTGUGHRFGRYOX-ZSWWDKBRNA-N.pdbqt


    COUNTER STATES
    ________________________


Number of energy evaluations performed:    705278
Number of generations used:                35


    INPUT LIGAND PDBQT FILE:
    ________________________


INPUT-LIGAND-PDBQT: REMARK SMILES O=C(NCC(=O)N1CCCC[C@H]1C1CCCC1)c1ccc2ccc(Cl)cc2n1
INPUT-LIGAND-PDBQT: REMARK SMILES IDX 4 1 3 2 2 3 1 4 18 6 19 7 28 8 20 9 27 10 21 11 26 12 22 13
INPUT-LIGAND-PDBQT: REMARK SMILES IDX 24 14 23 15 25 16 5 17 6 18 7 19 8 20 12 21 9 22 11 23 10 24
INPUT-LIGAND-PDBQT: REMARK SMILES IDX 13 25 14 26 17 27 15 28 16 29
INPUT-LIGAND-PDBQT: REMARK H PARENT 3 5
INPUT-LIGAND-PDBQT: ROOT
INPUT-LIGAND-PDBQT: ATOM      1  C   UNL     1      -0.188  -0.738  -1.949  1.00  0.00     0.216 C 
INPUT-LIGAND-PDBQT: ENDROOT
INPUT-LIGAND-PDBQT: BRANCH   1   2
INPUT-LIGAND-PDBQT: ATOM      2  N   UNL     1       1.029  -0.407  -1.313  1.00  0.00    -0.342 N 
INPUT-LIGAND-PDBQT: ATOM      3  C   UNL     1       2.165  -0.204  -2.221  1.00  0.00     0.270 C 
INPUT-LIGAND-PDBQT: ATOM      4  O   UNL     1       1.948  -0.343  -3.458  1.00  0.00    -0.268 OA
INPUT-LIGAND-PDBQT: ATOM      5  H   UNL     1       1.271  -0.254  -0.335  1.00  0.00     0.164 HD
INPUT-LIGAND-PDBQT: BRANCH   3   6
INPUT-LIGAND-PDBQT: ATOM      6  C   UNL     1       3.461   0.139  -1.682  1.00  0.00     0.128 A 
INPUT-LIGAND-PDBQT: ATOM      7  C   UNL     1       4.497   0.319  -2.572  1.00  0.00     0.035 A 
INPUT-LIGAND-PDBQT: ATOM      8  N   UNL     1       3.719   0.292  -0.374  1.00  0.00    -0.243 NA
INPUT-LIGAND-PDBQT: ATOM      9  C   UNL     1       5.747   0.643  -2.144  1.00  0.00     0.013 A 
INPUT-LIGAND-PDBQT: ATOM     10  C   UNL     1       4.946   0.612   0.072  1.00  0.00     0.073 A 
INPUT-LIGAND-PDBQT: ATOM     11  C   UNL     1       5.995   0.797  -0.801  1.00  0.00     0.000 A 
INPUT-LIGAND-PDBQT: ATOM     12  C   UNL     1       5.206   0.768   1.411  1.00  0.00     0.049 A 
INPUT-LIGAND-PDBQT: ATOM     13  C   UNL     1       7.273   1.126  -0.394  1.00  0.00     0.012 A 
INPUT-LIGAND-PDBQT: ATOM     14  C   UNL     1       6.471   1.097   1.854  1.00  0.00     0.043 A 
INPUT-LIGAND-PDBQT: ATOM     15  C   UNL     1       7.510   1.277   0.957  1.00  0.00     0.021 A 
INPUT-LIGAND-PDBQT: ATOM     16  Cl  UNL     1       6.839   1.304   3.562  1.00  0.00    -0.084 Cl
INPUT-LIGAND-PDBQT: ENDBRANCH   3   6
INPUT-LIGAND-PDBQT: ENDBRANCH   1   2
INPUT-LIGAND-PDBQT: BRANCH   1  17
INPUT-LIGAND-PDBQT: ATOM     17  C   UNL     1      -1.395  -1.016  -1.184  1.00  0.00     0.242 C 
INPUT-LIGAND-PDBQT: ATOM     18  O   UNL     1      -2.432  -1.195  -1.985  1.00  0.00    -0.273 OA
INPUT-LIGAND-PDBQT: BRANCH  17  19
INPUT-LIGAND-PDBQT: ATOM     19  N   UNL     1      -1.689  -1.129   0.158  1.00  0.00    -0.338 N 
INPUT-LIGAND-PDBQT: ATOM     20  C   UNL     1      -0.690  -1.185   1.251  1.00  0.00     0.120 C 
INPUT-LIGAND-PDBQT: ATOM     21  C   UNL     1      -3.066  -1.140   0.709  1.00  0.00     0.088 C 
INPUT-LIGAND-PDBQT: ATOM     22  C   UNL     1      -0.751   0.174   1.894  1.00  0.00     0.022 C 
INPUT-LIGAND-PDBQT: ATOM     23  C   UNL     1      -3.039  -0.819   2.171  1.00  0.00     0.025 C 
INPUT-LIGAND-PDBQT: ATOM     24  C   UNL     1      -2.085   0.225   2.619  1.00  0.00     0.004 C 
INPUT-LIGAND-PDBQT: BRANCH  21  25
INPUT-LIGAND-PDBQT: ATOM     25  C   UNL     1      -3.967  -0.323  -0.100  1.00  0.00     0.012 C 
INPUT-LIGAND-PDBQT: ATOM     26  C   UNL     1      -3.591   1.108  -0.355  1.00  0.00     0.006 C 
INPUT-LIGAND-PDBQT: ATOM     27  C   UNL     1      -5.315  -0.044   0.604  1.00  0.00     0.006 C 
INPUT-LIGAND-PDBQT: ATOM     28  C   UNL     1      -4.822   1.515  -1.183  1.00  0.00     0.000 C 
INPUT-LIGAND-PDBQT: ATOM     29  C   UNL     1      -5.980   0.725  -0.557  1.00  0.00     0.000 C 
INPUT-LIGAND-PDBQT: ENDBRANCH  21  25
INPUT-LIGAND-PDBQT: ENDBRANCH  17  19
INPUT-LIGAND-PDBQT: ENDBRANCH   1  17
INPUT-LIGAND-PDBQT: TORSDOF 5


    FINAL DOCKED STATE:
    ________________________


Run:   1 / 20
Time taken for this run:   0.029s

DOCKED: MODEL        1
DOCKED: USER    Run = 1
DOCKED: USER
DOCKED: USER    Estimated Free Energy of Binding    =  -8.18 kcal/mol  [=(1)+(2)+(3)-(4)]
DOCKED: USER
DOCKED: USER    (1) Final Intermolecular Energy     =  -9.68 kcal/mol
DOCKED: USER        vdW + Hbond + desolv Energy     =  -9.60 kcal/mol
DOCKED: USER        Electrostatic Energy            =  -0.08 kcal/mol
DOCKED: USER        Moving Ligand-Fixed Receptor    =  -9.68 kcal/mol
DOCKED: USER        Moving Ligand-Moving Receptor   =  +0.00 kcal/mol
DOCKED: USER    (2) Final Total Internal Energy     =  -1.40 kcal/mol
DOCKED: USER    (3) Torsional Free Energy           =  +1.49 kcal/mol
DOCKED: USER    (4) Unbound System's Energy         =  -1.40 kcal/mol
DOCKED: USER
DOCKED: USER
DOCKED: REMARK SMILES O=C(NCC(=O)N1CCCC[C@H]1C1CCCC1)c1ccc2ccc(Cl)cc2n1
DOCKED: REMARK SMILES IDX 4 1 3 2 2 3 1 4 18 6 19 7 28 8 20 9 27 10 21 11 26 12 22 13
DOCKED: REMARK SMILES IDX 24 14 23 15 25 16 5 17 6 18 7 19 8 20 12 21 9 22 11 23 10 24
DOCKED: REMARK SMILES IDX 13 25 14 26 17 27 15 28 16 29
DOCKED: REMARK H PARENT 3 5
DOCKED: USER                              x       y       z     vdW  Elec       q    Type
DOCKED: USER                           _______ _______ _______ _____ _____    ______ ____
DOCKED: ROOT
DOCKED: ATOM      1  C   UNL     1     139.886  75.660 221.599 -0.24 -0.05    +0.216 C  
DOCKED: ENDROOT
DOCKED: BRANCH   1   2
DOCKED: ATOM      2  N   UNL     1     139.485  74.529 222.345 -0.09 +0.05    -0.342 N  
DOCKED: ATOM      3  C   UNL     1     140.352  73.353 222.197 -0.04 -0.01    +0.270 C  
DOCKED: ATOM      4  O   UNL     1     141.351  73.465 221.432 -0.28 +0.03    -0.268 OA 
DOCKED: ATOM      5  H   UNL     1     138.715  74.375 222.994 -0.55 -0.09    +0.164 HD 
DOCKED: BRANCH   3   6
DOCKED: ATOM      6  C   UNL     1     140.039  72.138 222.912 -0.28 -0.02    +0.128 A  
DOCKED: ATOM      7  C   UNL     1     139.275  71.192 222.265 -0.21 -0.01    +0.035 A  
DOCKED: ATOM      8  N   UNL     1     140.444  71.873 224.164 -0.27 +0.03    -0.243 NA 
DOCKED: ATOM      9  C   UNL     1     138.938  70.021 222.870 -0.21 -0.00    +0.013 A  
DOCKED: ATOM     10  C   UNL     1     140.123  70.723 224.783 -0.42 -0.01    +0.073 A  
DOCKED: ATOM     11  C   UNL     1     139.361  69.764 224.153 -0.33 -0.00    +0.000 A  
DOCKED: ATOM     12  C   UNL     1     140.539  70.456 226.064 -0.53 -0.01    +0.049 A  
DOCKED: ATOM     13  C   UNL     1     139.004  68.568 224.744 -0.39 -0.00    +0.012 A  
DOCKED: ATOM     14  C   UNL     1     140.201  69.271 226.686 -0.52 -0.01    +0.043 A  
DOCKED: ATOM     15  C   UNL     1     139.433  68.322 226.032 -0.54 -0.00    +0.021 A  
DOCKED: ATOM     16  Cl  UNL     1     140.717  68.896 228.325 -0.78 +0.02    -0.084 Cl 
DOCKED: ENDBRANCH   3   6
DOCKED: ENDBRANCH   1   2
DOCKED: BRANCH   1  17
DOCKED: ATOM     17  C   UNL     1     139.467  77.004 221.972 -0.22 -0.06    +0.242 C  
DOCKED: ATOM     18  O   UNL     1     138.174  77.036 222.250 -0.17 +0.05    -0.273 OA 
DOCKED: BRANCH  17  19
DOCKED: ATOM     19  N   UNL     1     140.104  78.220 222.094 -0.12 +0.09    -0.338 N  
DOCKED: ATOM     20  C   UNL     1     140.363  78.926 223.370 -0.35 -0.02    +0.120 C  
DOCKED: ATOM     21  C   UNL     1     140.688  78.969 220.955 -0.22 -0.03    +0.088 C  
DOCKED: ATOM     22  C   UNL     1     141.833  78.729 223.624 -0.59 -0.01    +0.022 C  
DOCKED: ATOM     23  C   UNL     1     141.673  79.981 221.454 -0.40 -0.01    +0.025 C  
DOCKED: ATOM     24  C   UNL     1     142.546  79.577 222.584 -0.58 -0.00    +0.004 C  
DOCKED: BRANCH  21  25
DOCKED: ATOM     25  C   UNL     1     141.184  78.063 219.922 -0.24 -0.01    +0.012 C  
DOCKED: ATOM     26  C   UNL     1     142.317  77.142 220.271 -0.20 -0.00    +0.006 C  
DOCKED: ATOM     27  C   UNL     1     141.889  78.805 218.764 -0.27 -0.00    +0.006 C  
DOCKED: ATOM     28  C   UNL     1     142.474  76.458 218.901 -0.30 -0.00    +0.000 C  
DOCKED: ATOM     29  C   UNL     1     142.165  77.567 217.885 -0.25 -0.00    +0.000 C  
DOCKED: ENDBRANCH  21  25
DOCKED: ENDBRANCH  17  19
DOCKED: ENDBRANCH   1  17
DOCKED: TORSDOF 5
DOCKED: TER
DOCKED: ENDMDL
________________________________________________________________________________


    FINAL DOCKED STATE:
    ________________________


Run:   2 / 20
Time taken for this run:   0.029s

DOCKED: MODEL        2
DOCKED: USER    Run = 2
DOCKED: USER
DOCKED: USER    Estimated Free Energy of Binding    =  -6.65 kcal/mol  [=(1)+(2)+(3)-(4)]
DOCKED: USER
DOCKED: USER    (1) Final Intermolecular Energy     =  -8.14 kcal/mol
DOCKED: USER        vdW + Hbond + desolv Energy     =  -8.09 kcal/mol
DOCKED: USER        Electrostatic Energy            =  -0.05 kcal/mol
DOCKED: USER        Moving Ligand-Fixed Receptor    =  -8.14 kcal/mol
DOCKED: USER        Moving Ligand-Moving Receptor   =  +0.00 kcal/mol
DOCKED: USER    (2) Final Total Internal Energy     =  -2.69 kcal/mol
DOCKED: USER    (3) Torsional Free Energy           =  +1.49 kcal/mol
DOCKED: USER    (4) Unbound System's Energy         =  -2.69 kcal/mol
DOCKED: USER
DOCKED: USER
DOCKED: REMARK SMILES O=C(NCC(=O)N1CCCC[C@H]1C1CCCC1)c1ccc2ccc(Cl)cc2n1
DOCKED: REMARK SMILES IDX 4 1 3 2 2 3 1 4 18 6 19 7 28 8 20 9 27 10 21 11 26 12 22 13
DOCKED: REMARK SMILES IDX 24 14 23 15 25 16 5 17 6 18 7 19 8 20 12 21 9 22 11 23 10 24
DOCKED: REMARK SMILES IDX 13 25 14 26 17 27 15 28 16 29
DOCKED: REMARK H PARENT 3 5
DOCKED: USER                              x       y       z     vdW  Elec       q    Type
DOCKED: USER                           _______ _______ _______ _____ _____    ______ ____
DOCKED: ROOT
DOCKED: ATOM      1  C   UNL     1     141.464  81.446 219.586 -0.19 -0.08    +0.216 C  
DOCKED: ENDROOT
DOCKED: BRANCH   1   2
DOCKED: ATOM      2  N   UNL     1     141.899  80.150 219.940 -0.14 +0.18    -0.342 N  
DOCKED: ATOM      3  C   UNL     1     140.972  79.068 219.585 -0.11 -0.12    +0.270 C  
DOCKED: ATOM      4  O   UNL     1     139.896  79.395 219.009 -0.03 +0.09    -0.268 OA 
DOCKED: ATOM      5  H   UNL     1     142.755  79.811 220.377 -0.19 -0.13    +0.164 HD 
DOCKED: BRANCH   3   6
DOCKED: ATOM      6  C   UNL     1     141.313  77.700 219.899 -0.19 -0.06    +0.128 A  
DOCKED: ATOM      7  C   UNL     1     140.304  76.875 220.345 -0.16 -0.01    +0.035 A  
DOCKED: ATOM      8  N   UNL     1     142.547  77.183 219.785 -0.21 +0.17    -0.243 NA 
DOCKED: ATOM      9  C   UNL     1     140.544  75.574 220.662 -0.23 -0.00    +0.013 A  
DOCKED: ATOM     10  C   UNL     1     142.807  75.901 220.092 -0.28 -0.04    +0.073 A  
DOCKED: ATOM     11  C   UNL     1     141.812  75.059 220.539 -0.29 -0.00    +0.000 A  
DOCKED: ATOM     12  C   UNL     1     144.070  75.376 219.974 -0.36 -0.03    +0.049 A  
DOCKED: ATOM     13  C   UNL     1     142.028  73.735 220.868 -0.27 -0.00    +0.012 A  
DOCKED: ATOM     14  C   UNL     1     144.322  74.057 220.293 -0.44 -0.01    +0.043 A  
DOCKED: ATOM     15  C   UNL     1     143.306  73.231 220.741 -0.29 -0.00    +0.021 A  
DOCKED: ATOM     16  Cl  UNL     1     145.929  73.352 220.154 -0.73 -0.01    -0.084 Cl 
DOCKED: ENDBRANCH   3   6
DOCKED: ENDBRANCH   1   2
DOCKED: BRANCH   1  17
DOCKED: ATOM     17  C   UNL     1     140.600  82.224 220.462 -0.18 -0.06    +0.242 C  
DOCKED: ATOM     18  O   UNL     1     140.949  83.500 220.458 -0.18 +0.06    -0.273 OA 
DOCKED: BRANCH  17  19
DOCKED: ATOM     19  N   UNL     1     139.527  81.932 221.275 -0.07 +0.06    -0.338 N  
DOCKED: ATOM     20  C   UNL     1     138.102  82.038 220.883 -0.08 -0.02    +0.120 C  
DOCKED: ATOM     21  C   UNL     1     139.650  81.396 222.653 -0.24 -0.01    +0.088 C  
DOCKED: ATOM     22  C   UNL     1     137.655  80.616 220.677 -0.06 -0.00    +0.022 C  
DOCKED: ATOM     23  C   UNL     1     138.358  80.773 223.082 -0.29 -0.00    +0.025 C  
DOCKED: ATOM     24  C   UNL     1     137.609  79.996 222.064 -0.15 -0.00    +0.004 C  
DOCKED: BRANCH  21  25
DOCKED: ATOM     25  C   UNL     1     140.834  80.552 222.789 -0.45 -0.00    +0.012 C  
DOCKED: ATOM     26  C   UNL     1     140.743  79.340 223.671 -0.52 -0.00    +0.006 C  
DOCKED: ATOM     27  C   UNL     1     141.984  81.253 223.547 -0.61 -0.00    +0.006 C  
DOCKED: ATOM     28  C   UNL     1     142.189  78.840 223.508 -0.52 -0.00    +0.000 C  
DOCKED: ATOM     29  C   UNL     1     143.025  80.123 223.400 -0.62 -0.00    +0.000 C  
DOCKED: ENDBRANCH  21  25
DOCKED: ENDBRANCH  17  19
DOCKED: ENDBRANCH   1  17
DOCKED: TORSDOF 5
DOCKED: TER
DOCKED: ENDMDL
________________________________________________________________________________


    FINAL DOCKED STATE:
    ________________________


Run:   3 / 20
Time taken for this run:   0.029s

DOCKED: MODEL        3
DOCKED: USER    Run = 3
DOCKED: USER
DOCKED: USER    Estimated Free Energy of Binding    =  -7.35 kcal/mol  [=(1)+(2)+(3)-(4)]
DOCKED: USER
DOCKED: USER    (1) Final Intermolecular Energy     =  -8.84 kcal/mol
DOCKED: USER        vdW + Hbond + desolv Energy     =  -8.81 kcal/mol
DOCKED: USER        Electrostatic Energy            =  -0.03 kcal/mol
DOCKED: USER        Moving Ligand-Fixed Receptor    =  -8.84 kcal/mol
DOCKED: USER        Moving Ligand-Moving Receptor   =  +0.00 kcal/mol
DOCKED: USER    (2) Final Total Internal Energy     =  -2.18 kcal/mol
DOCKED: USER    (3) Torsional Free Energy           =  +1.49 kcal/mol
DOCKED: USER    (4) Unbound System's Energy         =  -2.18 kcal/mol
DOCKED: USER
DOCKED: USER
DOCKED: REMARK SMILES O=C(NCC(=O)N1CCCC[C@H]1C1CCCC1)c1ccc2ccc(Cl)cc2n1
DOCKED: REMARK SMILES IDX 4 1 3 2 2 3 1 4 18 6 19 7 28 8 20 9 27 10 21 11 26 12 22 13
DOCKED: REMARK SMILES IDX 24 14 23 15 25 16 5 17 6 18 7 19 8 20 12 21 9 22 11 23 10 24
DOCKED: REMARK SMILES IDX 13 25 14 26 17 27 15 28 16 29
DOCKED: REMARK H PARENT 3 5
DOCKED: USER                              x       y       z     vdW  Elec       q    Type
DOCKED: USER                           _______ _______ _______ _____ _____    ______ ____
DOCKED: ROOT
DOCKED: ATOM      1  C   UNL     1     140.492  72.829 219.728 -0.05 -0.04    +0.216 C  
DOCKED: ENDROOT
DOCKED: BRANCH   1   2
DOCKED: ATOM      2  N   UNL     1     140.240  74.176 220.072 -0.03 +0.07    -0.342 N  
DOCKED: ATOM      3  C   UNL     1     140.237  74.455 221.514 -0.20 -0.04    +0.270 C  
DOCKED: ATOM      4  O   UNL     1     140.455  73.483 222.291 -0.77 +0.00    -0.268 OA 
DOCKED: ATOM      5  H   UNL     1     140.084  75.009 219.506 +0.04 -0.04    +0.164 HD 
DOCKED: BRANCH   3   6
DOCKED: ATOM      6  C   UNL     1     139.991  75.800 221.983 -0.30 -0.03    +0.128 A  
DOCKED: ATOM      7  C   UNL     1     138.680  76.197 222.126 -0.28 -0.01    +0.035 A  
DOCKED: ATOM      8  N   UNL     1     140.956  76.683 222.285 -0.27 +0.09    -0.243 NA 
DOCKED: ATOM      9  C   UNL     1     138.366  77.447 222.562 -0.28 -0.00    +0.013 A  
DOCKED: ATOM     10  C   UNL     1     140.668  77.922 222.718 -0.41 -0.02    +0.073 A  
DOCKED: ATOM     11  C   UNL     1     139.365  78.340 222.869 -0.32 -0.00    +0.000 A  
DOCKED: ATOM     12  C   UNL     1     141.658  78.823 223.027 -0.52 -0.02    +0.049 A  
DOCKED: ATOM     13  C   UNL     1     139.017  79.602 223.310 -0.36 -0.00    +0.012 A  
DOCKED: ATOM     14  C   UNL     1     141.347  80.093 223.471 -0.53 -0.01    +0.043 A  
DOCKED: ATOM     15  C   UNL     1     140.029  80.489 223.614 -0.42 -0.00    +0.021 A  
DOCKED: ATOM     16  Cl  UNL     1     142.589  81.271 223.875 -0.68 +0.01    -0.084 Cl 
DOCKED: ENDBRANCH   3   6
DOCKED: ENDBRANCH   1   2
DOCKED: BRANCH   1  17
DOCKED: ATOM     17  C   UNL     1     141.845  72.340 219.509 -0.06 -0.04    +0.242 C  
DOCKED: ATOM     18  O   UNL     1     141.877  71.465 218.518 -0.02 +0.04    -0.273 OA 
DOCKED: BRANCH  17  19
DOCKED: ATOM     19  N   UNL     1     143.070  72.580 220.093 -0.08 +0.05    -0.338 N  
DOCKED: ATOM     20  C   UNL     1     144.067  71.542 220.447 -0.21 -0.01    +0.120 C  
DOCKED: ATOM     21  C   UNL     1     143.599  73.933 220.390 -0.33 -0.02    +0.088 C  
DOCKED: ATOM     22  C   UNL     1     145.137  71.667 219.397 -0.31 +0.01    +0.022 C  
DOCKED: ATOM     23  C   UNL     1     145.082  73.876 220.585 -0.55 -0.01    +0.025 C  
DOCKED: ATOM     24  C   UNL     1     145.850  72.975 219.691 -0.46 +0.00    +0.004 C  
DOCKED: BRANCH  21  25
DOCKED: ATOM     25  C   UNL     1     143.129  74.912 219.412 -0.31 -0.00    +0.012 C  
DOCKED: ATOM     26  C   UNL     1     143.653  74.821 218.008 -0.20 -0.00    +0.006 C  
DOCKED: ATOM     27  C   UNL     1     143.630  76.344 219.711 -0.35 -0.00    +0.006 C  
DOCKED: ATOM     28  C   UNL     1     142.913  76.034 217.418 -0.21 -0.00    +0.000 C  
DOCKED: ATOM     29  C   UNL     1     142.874  77.052 218.567 -0.34 -0.00    +0.000 C  
DOCKED: ENDBRANCH  21  25
DOCKED: ENDBRANCH  17  19
DOCKED: ENDBRANCH   1  17
DOCKED: TORSDOF 5
DOCKED: TER
DOCKED: ENDMDL
________________________________________________________________________________


    FINAL DOCKED STATE:
    ________________________


Run:   4 / 20
Time taken for this run:   0.029s

DOCKED: MODEL        4
DOCKED: USER    Run = 4
DOCKED: USER
DOCKED: USER    Estimated Free Energy of Binding    =  -7.07 kcal/mol  [=(1)+(2)+(3)-(4)]
DOCKED: USER
DOCKED: USER    (1) Final Intermolecular Energy     =  -8.56 kcal/mol
DOCKED: USER        vdW + Hbond + desolv Energy     =  -8.57 kcal/mol
DOCKED: USER        Electrostatic Energy            =  +0.00 kcal/mol
DOCKED: USER        Moving Ligand-Fixed Receptor    =  -8.56 kcal/mol
DOCKED: USER        Moving Ligand-Moving Receptor   =  +0.00 kcal/mol
DOCKED: USER    (2) Final Total Internal Energy     =  -2.30 kcal/mol
DOCKED: USER    (3) Torsional Free Energy           =  +1.49 kcal/mol
DOCKED: USER    (4) Unbound System's Energy         =  -2.30 kcal/mol
DOCKED: USER
DOCKED: USER
DOCKED: REMARK SMILES O=C(NCC(=O)N1CCCC[C@H]1C1CCCC1)c1ccc2ccc(Cl)cc2n1
DOCKED: REMARK SMILES IDX 4 1 3 2 2 3 1 4 18 6 19 7 28 8 20 9 27 10 21 11 26 12 22 13
DOCKED: REMARK SMILES IDX 24 14 23 15 25 16 5 17 6 18 7 19 8 20 12 21 9 22 11 23 10 24
DOCKED: REMARK SMILES IDX 13 25 14 26 17 27 15 28 16 29
DOCKED: REMARK H PARENT 3 5
DOCKED: USER                              x       y       z     vdW  Elec       q    Type
DOCKED: USER                           _______ _______ _______ _____ _____    ______ ____
DOCKED: ROOT
DOCKED: ATOM      1  C   UNL     1     142.071  76.606 220.192 -0.18 -0.12    +0.216 C  
DOCKED: ENDROOT
DOCKED: BRANCH   1   2
DOCKED: ATOM      2  N   UNL     1     141.745  75.519 221.033 -0.13 +0.14    -0.342 N  
DOCKED: ATOM      3  C   UNL     1     140.700  74.627 220.513 -0.13 -0.06    +0.270 C  
DOCKED: ATOM      4  O   UNL     1     140.204  74.914 219.387 -0.03 +0.07    -0.268 OA 
DOCKED: ATOM      5  H   UNL     1     142.117  75.212 221.931 -0.38 -0.06    +0.164 HD 
DOCKED: BRANCH   3   6
DOCKED: ATOM      6  C   UNL     1     140.286  73.480 221.289 -0.21 -0.02    +0.128 A  
DOCKED: ATOM      7  C   UNL     1     139.417  72.589 220.698 -0.11 -0.01    +0.035 A  
DOCKED: ATOM      8  N   UNL     1     140.691  73.230 222.543 -0.54 -0.01    -0.243 NA 
DOCKED: ATOM      9  C   UNL     1     138.979  71.485 221.362 -0.13 -0.00    +0.013 A  
DOCKED: ATOM     10  C   UNL     1     140.272  72.145 223.218 -0.31 -0.01    +0.073 A  
DOCKED: ATOM     11  C   UNL     1     139.404  71.242 222.646 -0.26 -0.00    +0.000 A  
DOCKED: ATOM     12  C   UNL     1     140.689  71.892 224.501 -0.32 -0.01    +0.049 A  
DOCKED: ATOM     13  C   UNL     1     138.944  70.114 223.297 -0.25 -0.00    +0.012 A  
DOCKED: ATOM     14  C   UNL     1     140.251  70.774 225.182 -0.49 -0.01    +0.043 A  
DOCKED: ATOM     15  C   UNL     1     139.377  69.881 224.586 -0.36 -0.00    +0.021 A  
DOCKED: ATOM     16  Cl  UNL     1     140.765  70.420 226.827 -0.76 +0.01    -0.084 Cl 
DOCKED: ENDBRANCH   3   6
DOCKED: ENDBRANCH   1   2
DOCKED: BRANCH   1  17
DOCKED: ATOM     17  C   UNL     1     141.919  77.984 220.637 -0.15 -0.16    +0.242 C  
DOCKED: ATOM     18  O   UNL     1     141.915  78.815 219.609 -0.19 +0.17    -0.273 OA 
DOCKED: BRANCH  17  19
DOCKED: ATOM     19  N   UNL     1     141.783  78.598 221.864 -0.19 +0.18    -0.338 N  
DOCKED: ATOM     20  C   UNL     1     142.603  79.734 222.346 -0.44 -0.06    +0.120 C  
DOCKED: ATOM     21  C   UNL     1     140.739  78.249 222.857 -0.40 -0.03    +0.088 C  
DOCKED: ATOM     22  C   UNL     1     141.697  80.931 222.240 -0.49 -0.01    +0.022 C  
DOCKED: ATOM     23  C   UNL     1     140.575  79.362 223.845 -0.48 -0.00    +0.025 C  
DOCKED: ATOM     24  C   UNL     1     140.648  80.749 223.324 -0.47 -0.00    +0.004 C  
DOCKED: BRANCH  21  25
DOCKED: ATOM     25  C   UNL     1     139.513  77.802 222.202 -0.32 -0.00    +0.012 C  
DOCKED: ATOM     26  C   UNL     1     138.235  78.525 222.517 -0.25 -0.00    +0.006 C  
DOCKED: ATOM     27  C   UNL     1     139.060  76.400 222.673 -0.25 -0.00    +0.006 C  
DOCKED: ATOM     28  C   UNL     1     137.286  77.687 221.642 -0.14 -0.00    +0.000 C  
DOCKED: ATOM     29  C   UNL     1     137.851  76.262 221.724 -0.21 -0.00    +0.000 C  
DOCKED: ENDBRANCH  21  25
DOCKED: ENDBRANCH  17  19
DOCKED: ENDBRANCH   1  17
DOCKED: TORSDOF 5
DOCKED: TER
DOCKED: ENDMDL
________________________________________________________________________________


    FINAL DOCKED STATE:
    ________________________


Run:   5 / 20
Time taken for this run:   0.029s

DOCKED: MODEL        5
DOCKED: USER    Run = 5
DOCKED: USER
DOCKED: USER    Estimated Free Energy of Binding    =  -7.06 kcal/mol  [=(1)+(2)+(3)-(4)]
DOCKED: USER
DOCKED: USER    (1) Final Intermolecular Energy     =  -8.55 kcal/mol
DOCKED: USER        vdW + Hbond + desolv Energy     =  -8.55 kcal/mol
DOCKED: USER        Electrostatic Energy            =  -0.01 kcal/mol
DOCKED: USER        Moving Ligand-Fixed Receptor    =  -8.55 kcal/mol
DOCKED: USER        Moving Ligand-Moving Receptor   =  +0.00 kcal/mol
DOCKED: USER    (2) Final Total Internal Energy     =  -2.33 kcal/mol
DOCKED: USER    (3) Torsional Free Energy           =  +1.49 kcal/mol
DOCKED: USER    (4) Unbound System's Energy         =  -2.33 kcal/mol
DOCKED: USER
DOCKED: USER
DOCKED: REMARK SMILES O=C(NCC(=O)N1CCCC[C@H]1C1CCCC1)c1ccc2ccc(Cl)cc2n1
DOCKED: REMARK SMILES IDX 4 1 3 2 2 3 1 4 18 6 19 7 28 8 20 9 27 10 21 11 26 12 22 13
DOCKED: REMARK SMILES IDX 24 14 23 15 25 16 5 17 6 18 7 19 8 20 12 21 9 22 11 23 10 24
DOCKED: REMARK SMILES IDX 13 25 14 26 17 27 15 28 16 29
DOCKED: REMARK H PARENT 3 5
DOCKED: USER                              x       y       z     vdW  Elec       q    Type
DOCKED: USER                           _______ _______ _______ _____ _____    ______ ____
DOCKED: ROOT
DOCKED: ATOM      1  C   UNL     1     142.133  76.732 220.192 -0.18 -0.13    +0.216 C  
DOCKED: ENDROOT
DOCKED: BRANCH   1   2
DOCKED: ATOM      2  N   UNL     1     141.784  75.623 220.994 -0.13 +0.15    -0.342 N  
DOCKED: ATOM      3  C   UNL     1     140.669  74.817 220.482 -0.13 -0.07    +0.270 C  
DOCKED: ATOM      4  O   UNL     1     140.140  75.187 219.396 -0.03 +0.07    -0.268 OA 
DOCKED: ATOM      5  H   UNL     1     142.177  75.253 221.858 -0.42 -0.07    +0.164 HD 
DOCKED: BRANCH   3   6
DOCKED: ATOM      6  C   UNL     1     140.225  73.657 221.221 -0.21 -0.02    +0.128 A  
DOCKED: ATOM      7  C   UNL     1     139.284  72.843 220.629 -0.10 -0.01    +0.035 A  
DOCKED: ATOM      8  N   UNL     1     140.668  73.324 222.443 -0.60 -0.01    -0.243 NA 
DOCKED: ATOM      9  C   UNL     1     138.815  71.732 221.259 -0.12 -0.00    +0.013 A  
DOCKED: ATOM     10  C   UNL     1     140.219  72.231 223.084 -0.31 -0.01    +0.073 A  
DOCKED: ATOM     11  C   UNL     1     139.280  71.404 222.510 -0.25 -0.00    +0.000 A  
DOCKED: ATOM     12  C   UNL     1     140.676  71.894 224.334 -0.31 -0.01    +0.049 A  
DOCKED: ATOM     13  C   UNL     1     138.787  70.271 223.126 -0.24 -0.00    +0.012 A  
DOCKED: ATOM     14  C   UNL     1     140.206  70.768 224.980 -0.47 -0.01    +0.043 A  
DOCKED: ATOM     15  C   UNL     1     139.260  69.953 224.383 -0.34 -0.00    +0.021 A  
DOCKED: ATOM     16  Cl  UNL     1     140.768  70.307 226.582 -0.74 +0.01    -0.084 Cl 
DOCKED: ENDBRANCH   3   6
DOCKED: ENDBRANCH   1   2
DOCKED: BRANCH   1  17
DOCKED: ATOM     17  C   UNL     1     141.900  78.098 220.639 -0.15 -0.16    +0.242 C  
DOCKED: ATOM     18  O   UNL     1     141.799  78.922 219.609 -0.18 +0.16    -0.273 OA 
DOCKED: BRANCH  17  19
DOCKED: ATOM     19  N   UNL     1     141.767  78.708 221.868 -0.19 +0.18    -0.338 N  
DOCKED: ATOM     20  C   UNL     1     142.581  79.848 222.350 -0.46 -0.05    +0.120 C  
DOCKED: ATOM     21  C   UNL     1     140.730  78.348 222.866 -0.41 -0.03    +0.088 C  
DOCKED: ATOM     22  C   UNL     1     141.665  81.038 222.252 -0.48 -0.01    +0.022 C  
DOCKED: ATOM     23  C   UNL     1     140.563  79.456 223.858 -0.47 -0.00    +0.025 C  
DOCKED: ATOM     24  C   UNL     1     140.624  80.845 223.341 -0.47 -0.00    +0.004 C  
DOCKED: BRANCH  21  25
DOCKED: ATOM     25  C   UNL     1     139.503  77.894 222.215 -0.31 -0.00    +0.012 C  
DOCKED: ATOM     26  C   UNL     1     138.224  78.612 222.533 -0.25 -0.00    +0.006 C  
DOCKED: ATOM     27  C   UNL     1     139.059  76.491 222.692 -0.24 -0.00    +0.006 C  
DOCKED: ATOM     28  C   UNL     1     137.276  77.768 221.663 -0.14 -0.00    +0.000 C  
DOCKED: ATOM     29  C   UNL     1     137.847  76.346 221.747 -0.21 -0.00    +0.000 C  
DOCKED: ENDBRANCH  21  25
DOCKED: ENDBRANCH  17  19
DOCKED: ENDBRANCH   1  17
DOCKED: TORSDOF 5
DOCKED: TER
DOCKED: ENDMDL
________________________________________________________________________________


    FINAL DOCKED STATE:
    ________________________


Run:   6 / 20
Time taken for this run:   0.029s

DOCKED: MODEL        6
DOCKED: USER    Run = 6
DOCKED: USER
DOCKED: USER    Estimated Free Energy of Binding    =  -7.33 kcal/mol  [=(1)+(2)+(3)-(4)]
DOCKED: USER
DOCKED: USER    (1) Final Intermolecular Energy     =  -8.82 kcal/mol
DOCKED: USER        vdW + Hbond + desolv Energy     =  -8.78 kcal/mol
DOCKED: USER        Electrostatic Energy            =  -0.04 kcal/mol
DOCKED: USER        Moving Ligand-Fixed Receptor    =  -8.82 kcal/mol
DOCKED: USER        Moving Ligand-Moving Receptor   =  +0.00 kcal/mol
DOCKED: USER    (2) Final Total Internal Energy     =  -2.22 kcal/mol
DOCKED: USER    (3) Torsional Free Energy           =  +1.49 kcal/mol
DOCKED: USER    (4) Unbound System's Energy         =  -2.22 kcal/mol
DOCKED: USER
DOCKED: USER
DOCKED: REMARK SMILES O=C(NCC(=O)N1CCCC[C@H]1C1CCCC1)c1ccc2ccc(Cl)cc2n1
DOCKED: REMARK SMILES IDX 4 1 3 2 2 3 1 4 18 6 19 7 28 8 20 9 27 10 21 11 26 12 22 13
DOCKED: REMARK SMILES IDX 24 14 23 15 25 16 5 17 6 18 7 19 8 20 12 21 9 22 11 23 10 24
DOCKED: REMARK SMILES IDX 13 25 14 26 17 27 15 28 16 29
DOCKED: REMARK H PARENT 3 5
DOCKED: USER                              x       y       z     vdW  Elec       q    Type
DOCKED: USER                           _______ _______ _______ _____ _____    ______ ____
DOCKED: ROOT
DOCKED: ATOM      1  C   UNL     1     140.508  72.904 219.630 -0.04 -0.04    +0.216 C  
DOCKED: ENDROOT
DOCKED: BRANCH   1   2
DOCKED: ATOM      2  N   UNL     1     140.233  74.236 220.011 -0.02 +0.08    -0.342 N  
DOCKED: ATOM      3  C   UNL     1     140.294  74.490 221.456 -0.20 -0.04    +0.270 C  
DOCKED: ATOM      4  O   UNL     1     140.581  73.511 222.203 -0.74 -0.00    -0.268 OA 
DOCKED: ATOM      5  H   UNL     1     140.023  75.073 219.470 +0.04 -0.04    +0.164 HD 
DOCKED: BRANCH   3   6
DOCKED: ATOM      6  C   UNL     1     140.031  75.817 221.963 -0.30 -0.03    +0.128 A  
DOCKED: ATOM      7  C   UNL     1     138.715  76.185 222.139 -0.29 -0.01    +0.035 A  
DOCKED: ATOM      8  N   UNL     1     140.983  76.711 222.270 -0.27 +0.09    -0.243 NA 
DOCKED: ATOM      9  C   UNL     1     138.385  77.418 222.611 -0.29 -0.00    +0.013 A  
DOCKED: ATOM     10  C   UNL     1     140.680  77.934 222.738 -0.40 -0.02    +0.073 A  
DOCKED: ATOM     11  C   UNL     1     139.372  78.322 222.922 -0.32 -0.00    +0.000 A  
DOCKED: ATOM     12  C   UNL     1     141.657  78.846 223.052 -0.53 -0.02    +0.049 A  
DOCKED: ATOM     13  C   UNL     1     139.008  79.566 223.400 -0.37 -0.00    +0.012 A  
DOCKED: ATOM     14  C   UNL     1     141.331  80.098 223.532 -0.52 -0.01    +0.043 A  
DOCKED: ATOM     15  C   UNL     1     140.008  80.465 223.708 -0.41 -0.00    +0.021 A  
DOCKED: ATOM     16  Cl  UNL     1     142.557  81.291 223.943 -0.67 +0.01    -0.084 Cl 
DOCKED: ENDBRANCH   3   6
DOCKED: ENDBRANCH   1   2
DOCKED: BRANCH   1  17
DOCKED: ATOM     17  C   UNL     1     141.868  72.385 219.604 -0.07 -0.04    +0.242 C  
DOCKED: ATOM     18  O   UNL     1     141.966  71.354 218.782 -0.03 +0.04    -0.273 OA 
DOCKED: BRANCH  17  19
DOCKED: ATOM     19  N   UNL     1     143.048  72.723 220.232 -0.09 +0.05    -0.338 N  
DOCKED: ATOM     20  C   UNL     1     144.075  71.761 220.698 -0.19 -0.02    +0.120 C  
DOCKED: ATOM     21  C   UNL     1     143.493  74.117 220.471 -0.33 -0.03    +0.088 C  
DOCKED: ATOM     22  C   UNL     1     145.191  71.880 219.696 -0.34 +0.00    +0.022 C  
DOCKED: ATOM     23  C   UNL     1     144.965  74.150 220.743 -0.48 -0.01    +0.025 C  
DOCKED: ATOM     24  C   UNL     1     145.822  73.240 219.945 -0.53 +0.00    +0.004 C  
DOCKED: BRANCH  21  25
DOCKED: ATOM     25  C   UNL     1     143.026  75.011 219.414 -0.31 -0.00    +0.012 C  
DOCKED: ATOM     26  C   UNL     1     143.701  74.938 218.074 -0.20 -0.00    +0.006 C  
DOCKED: ATOM     27  C   UNL     1     143.340  76.497 219.705 -0.35 -0.00    +0.006 C  
DOCKED: ATOM     28  C   UNL     1     142.903  76.046 217.365 -0.21 -0.00    +0.000 C  
DOCKED: ATOM     29  C   UNL     1     142.638  77.086 218.463 -0.32 -0.00    +0.000 C  
DOCKED: ENDBRANCH  21  25
DOCKED: ENDBRANCH  17  19
DOCKED: ENDBRANCH   1  17
DOCKED: TORSDOF 5
DOCKED: TER
DOCKED: ENDMDL
________________________________________________________________________________


    FINAL DOCKED STATE:
    ________________________


Run:   7 / 20
Time taken for this run:   0.029s

DOCKED: MODEL        7
DOCKED: USER    Run = 7
DOCKED: USER
DOCKED: USER    Estimated Free Energy of Binding    =  -6.61 kcal/mol  [=(1)+(2)+(3)-(4)]
DOCKED: USER
DOCKED: USER    (1) Final Intermolecular Energy     =  -8.10 kcal/mol
DOCKED: USER        vdW + Hbond + desolv Energy     =  -8.05 kcal/mol
DOCKED: USER        Electrostatic Energy            =  -0.05 kcal/mol
DOCKED: USER        Moving Ligand-Fixed Receptor    =  -8.10 kcal/mol
DOCKED: USER        Moving Ligand-Moving Receptor   =  +0.00 kcal/mol
DOCKED: USER    (2) Final Total Internal Energy     =  -2.72 kcal/mol
DOCKED: USER    (3) Torsional Free Energy           =  +1.49 kcal/mol
DOCKED: USER    (4) Unbound System's Energy         =  -2.72 kcal/mol
DOCKED: USER
DOCKED: USER
DOCKED: REMARK SMILES O=C(NCC(=O)N1CCCC[C@H]1C1CCCC1)c1ccc2ccc(Cl)cc2n1
DOCKED: REMARK SMILES IDX 4 1 3 2 2 3 1 4 18 6 19 7 28 8 20 9 27 10 21 11 26 12 22 13
DOCKED: REMARK SMILES IDX 24 14 23 15 25 16 5 17 6 18 7 19 8 20 12 21 9 22 11 23 10 24
DOCKED: REMARK SMILES IDX 13 25 14 26 17 27 15 28 16 29
DOCKED: REMARK H PARENT 3 5
DOCKED: USER                              x       y       z     vdW  Elec       q    Type
DOCKED: USER                           _______ _______ _______ _____ _____    ______ ____
DOCKED: ROOT
DOCKED: ATOM      1  C   UNL     1     141.480  81.455 219.535 -0.19 -0.08    +0.216 C  
DOCKED: ENDROOT
DOCKED: BRANCH   1   2
DOCKED: ATOM      2  N   UNL     1     141.919  80.158 219.880 -0.14 +0.18    -0.342 N  
DOCKED: ATOM      3  C   UNL     1     140.962  79.084 219.587 -0.11 -0.12    +0.270 C  
DOCKED: ATOM      4  O   UNL     1     139.860  79.418 219.067 -0.03 +0.09    -0.268 OA 
DOCKED: ATOM      5  H   UNL     1     142.794  79.812 220.274 -0.17 -0.13    +0.164 HD 
DOCKED: BRANCH   3   6
DOCKED: ATOM      6  C   UNL     1     141.303  77.714 219.897 -0.19 -0.06    +0.128 A  
DOCKED: ATOM      7  C   UNL     1     140.289  76.880 220.311 -0.15 -0.01    +0.035 A  
DOCKED: ATOM      8  N   UNL     1     142.542  77.206 219.809 -0.21 +0.17    -0.243 NA 
DOCKED: ATOM      9  C   UNL     1     140.529  75.577 220.622 -0.22 -0.00    +0.013 A  
DOCKED: ATOM     10  C   UNL     1     142.803  75.922 220.110 -0.26 -0.04    +0.073 A  
DOCKED: ATOM     11  C   UNL     1     141.803  75.071 220.525 -0.29 -0.00    +0.000 A  
DOCKED: ATOM     12  C   UNL     1     144.072  75.406 220.018 -0.35 -0.03    +0.049 A  
DOCKED: ATOM     13  C   UNL     1     142.018  73.746 220.847 -0.28 -0.00    +0.012 A  
DOCKED: ATOM     14  C   UNL     1     144.324  74.086 220.331 -0.44 -0.01    +0.043 A  
DOCKED: ATOM     15  C   UNL     1     143.302  73.249 220.747 -0.29 -0.00    +0.021 A  
DOCKED: ATOM     16  Cl  UNL     1     145.937  73.392 220.224 -0.75 -0.01    -0.084 Cl 
DOCKED: ENDBRANCH   3   6
DOCKED: ENDBRANCH   1   2
DOCKED: BRANCH   1  17
DOCKED: ATOM     17  C   UNL     1     140.620  82.227 220.420 -0.18 -0.06    +0.242 C  
DOCKED: ATOM     18  O   UNL     1     140.977  83.500 220.436 -0.18 +0.06    -0.273 OA 
DOCKED: BRANCH  17  19
DOCKED: ATOM     19  N   UNL     1     139.543  81.931 221.228 -0.07 +0.06    -0.338 N  
DOCKED: ATOM     20  C   UNL     1     138.120  82.022 220.824 -0.08 -0.02    +0.120 C  
DOCKED: ATOM     21  C   UNL     1     139.660  81.405 222.610 -0.24 -0.01    +0.088 C  
DOCKED: ATOM     22  C   UNL     1     137.687  80.595 220.624 -0.06 -0.00    +0.022 C  
DOCKED: ATOM     23  C   UNL     1     138.370  80.773 223.032 -0.29 -0.00    +0.025 C  
DOCKED: ATOM     24  C   UNL     1     137.635  79.984 222.014 -0.15 -0.00    +0.004 C  
DOCKED: BRANCH  21  25
DOCKED: ATOM     25  C   UNL     1     140.850  80.571 222.760 -0.45 -0.00    +0.012 C  
DOCKED: ATOM     26  C   UNL     1     140.747  79.334 223.605 -0.52 -0.00    +0.006 C  
DOCKED: ATOM     27  C   UNL     1     141.967  81.265 223.573 -0.61 -0.00    +0.006 C  
DOCKED: ATOM     28  C   UNL     1     142.204  78.857 223.475 -0.52 -0.00    +0.000 C  
DOCKED: ATOM     29  C   UNL     1     143.026  80.152 223.429 -0.62 -0.00    +0.000 C  
DOCKED: ENDBRANCH  21  25
DOCKED: ENDBRANCH  17  19
DOCKED: ENDBRANCH   1  17
DOCKED: TORSDOF 5
DOCKED: TER
DOCKED: ENDMDL
________________________________________________________________________________


    FINAL DOCKED STATE:
    ________________________


Run:   8 / 20
Time taken for this run:   0.029s

DOCKED: MODEL        8
DOCKED: USER    Run = 8
DOCKED: USER
DOCKED: USER    Estimated Free Energy of Binding    =  -7.90 kcal/mol  [=(1)+(2)+(3)-(4)]
DOCKED: USER
DOCKED: USER    (1) Final Intermolecular Energy     =  -9.39 kcal/mol
DOCKED: USER        vdW + Hbond + desolv Energy     =  -9.35 kcal/mol
DOCKED: USER        Electrostatic Energy            =  -0.04 kcal/mol
DOCKED: USER        Moving Ligand-Fixed Receptor    =  -9.39 kcal/mol
DOCKED: USER        Moving Ligand-Moving Receptor   =  +0.00 kcal/mol
DOCKED: USER    (2) Final Total Internal Energy     =  -1.34 kcal/mol
DOCKED: USER    (3) Torsional Free Energy           =  +1.49 kcal/mol
DOCKED: USER    (4) Unbound System's Energy         =  -1.34 kcal/mol
DOCKED: USER
DOCKED: USER
DOCKED: REMARK SMILES O=C(NCC(=O)N1CCCC[C@H]1C1CCCC1)c1ccc2ccc(Cl)cc2n1
DOCKED: REMARK SMILES IDX 4 1 3 2 2 3 1 4 18 6 19 7 28 8 20 9 27 10 21 11 26 12 22 13
DOCKED: REMARK SMILES IDX 24 14 23 15 25 16 5 17 6 18 7 19 8 20 12 21 9 22 11 23 10 24
DOCKED: REMARK SMILES IDX 13 25 14 26 17 27 15 28 16 29
DOCKED: REMARK H PARENT 3 5
DOCKED: USER                              x       y       z     vdW  Elec       q    Type
DOCKED: USER                           _______ _______ _______ _____ _____    ______ ____
DOCKED: ROOT
DOCKED: ATOM      1  C   UNL     1     140.003  75.506 221.148 -0.20 -0.05    +0.216 C  
DOCKED: ENDROOT
DOCKED: BRANCH   1   2
DOCKED: ATOM      2  N   UNL     1     139.558  74.514 222.049 -0.15 +0.05    -0.342 N  
DOCKED: ATOM      3  C   UNL     1     140.283  73.239 221.971 -0.19 -0.03    +0.270 C  
DOCKED: ATOM      4  O   UNL     1     141.215  73.156 221.122 -0.19 +0.04    -0.268 OA 
DOCKED: ATOM      5  H   UNL     1     138.839  74.518 222.772 -0.55 -0.07    +0.164 HD 
DOCKED: BRANCH   3   6
DOCKED: ATOM      6  C   UNL     1     139.914  72.151 222.847 -0.28 -0.02    +0.128 A  
DOCKED: ATOM      7  C   UNL     1     138.892  71.321 222.441 -0.20 -0.01    +0.035 A  
DOCKED: ATOM      8  N   UNL     1     140.502  71.897 224.026 -0.26 +0.03    -0.243 NA 
DOCKED: ATOM      9  C   UNL     1     138.486  70.274 223.209 -0.23 -0.00    +0.013 A  
DOCKED: ATOM     10  C   UNL     1     140.117  70.868 224.801 -0.43 -0.01    +0.073 A  
DOCKED: ATOM     11  C   UNL     1     139.098  70.027 224.414 -0.35 -0.00    +0.000 A  
DOCKED: ATOM     12  C   UNL     1     140.721  70.612 226.007 -0.55 -0.01    +0.049 A  
DOCKED: ATOM     13  C   UNL     1     138.666  68.958 225.173 -0.40 -0.00    +0.012 A  
DOCKED: ATOM     14  C   UNL     1     140.316  69.552 226.792 -0.53 -0.01    +0.043 A  
DOCKED: ATOM     15  C   UNL     1     139.288  68.720 226.382 -0.51 -0.00    +0.021 A  
DOCKED: ATOM     16  Cl  UNL     1     141.067  69.195 228.343 -0.70 +0.02    -0.084 Cl 
DOCKED: ENDBRANCH   3   6
DOCKED: ENDBRANCH   1   2
DOCKED: BRANCH   1  17
DOCKED: ATOM     17  C   UNL     1     140.849  76.607 221.586 -0.24 -0.09    +0.242 C  
DOCKED: ATOM     18  O   UNL     1     141.017  76.582 222.897 -0.24 +0.08    -0.273 OA 
DOCKED: BRANCH  17  19
DOCKED: ATOM     19  N   UNL     1     141.497  77.645 220.951 -0.13 +0.18    -0.338 N  
DOCKED: ATOM     20  C   UNL     1     142.164  77.558 219.631 -0.26 -0.08    +0.120 C  
DOCKED: ATOM     21  C   UNL     1     141.557  79.032 221.475 -0.35 -0.04    +0.088 C  
DOCKED: ATOM     22  C   UNL     1     141.230  78.262 218.684 -0.18 -0.01    +0.022 C  
DOCKED: ATOM     23  C   UNL     1     141.916  79.983 220.376 -0.27 -0.01    +0.025 C  
DOCKED: ATOM     24  C   UNL     1     141.317  79.735 219.042 -0.23 -0.00    +0.004 C  
DOCKED: BRANCH  21  25
DOCKED: ATOM     25  C   UNL     1     140.352  79.365 222.230 -0.34 -0.00    +0.012 C  
DOCKED: ATOM     26  C   UNL     1     139.725  80.711 222.007 -0.26 -0.00    +0.006 C  
DOCKED: ATOM     27  C   UNL     1     140.621  79.528 223.744 -0.50 -0.00    +0.006 C  
DOCKED: ATOM     28  C   UNL     1     138.567  80.584 223.013 -0.31 -0.00    +0.000 C  
DOCKED: ATOM     29  C   UNL     1     139.158  79.769 224.172 -0.33 -0.00    +0.000 C  
DOCKED: ENDBRANCH  21  25
DOCKED: ENDBRANCH  17  19
DOCKED: ENDBRANCH   1  17
DOCKED: TORSDOF 5
DOCKED: TER
DOCKED: ENDMDL
________________________________________________________________________________


    FINAL DOCKED STATE:
    ________________________


Run:   9 / 20
Time taken for this run:   0.029s

DOCKED: MODEL        9
DOCKED: USER    Run = 9
DOCKED: USER
DOCKED: USER    Estimated Free Energy of Binding    =  -6.64 kcal/mol  [=(1)+(2)+(3)-(4)]
DOCKED: USER
DOCKED: USER    (1) Final Intermolecular Energy     =  -8.13 kcal/mol
DOCKED: USER        vdW + Hbond + desolv Energy     =  -8.08 kcal/mol
DOCKED: USER        Electrostatic Energy            =  -0.05 kcal/mol
DOCKED: USER        Moving Ligand-Fixed Receptor    =  -8.13 kcal/mol
DOCKED: USER        Moving Ligand-Moving Receptor   =  +0.00 kcal/mol
DOCKED: USER    (2) Final Total Internal Energy     =  -2.68 kcal/mol
DOCKED: USER    (3) Torsional Free Energy           =  +1.49 kcal/mol
DOCKED: USER    (4) Unbound System's Energy         =  -2.68 kcal/mol
DOCKED: USER
DOCKED: USER
DOCKED: REMARK SMILES O=C(NCC(=O)N1CCCC[C@H]1C1CCCC1)c1ccc2ccc(Cl)cc2n1
DOCKED: REMARK SMILES IDX 4 1 3 2 2 3 1 4 18 6 19 7 28 8 20 9 27 10 21 11 26 12 22 13
DOCKED: REMARK SMILES IDX 24 14 23 15 25 16 5 17 6 18 7 19 8 20 12 21 9 22 11 23 10 24
DOCKED: REMARK SMILES IDX 13 25 14 26 17 27 15 28 16 29
DOCKED: REMARK H PARENT 3 5
DOCKED: USER                              x       y       z     vdW  Elec       q    Type
DOCKED: USER                           _______ _______ _______ _____ _____    ______ ____
DOCKED: ROOT
DOCKED: ATOM      1  C   UNL     1     141.492  81.446 219.588 -0.19 -0.08    +0.216 C  
DOCKED: ENDROOT
DOCKED: BRANCH   1   2
DOCKED: ATOM      2  N   UNL     1     141.919  80.150 219.951 -0.14 +0.18    -0.342 N  
DOCKED: ATOM      3  C   UNL     1     141.012  79.066 219.552 -0.12 -0.12    +0.270 C  
DOCKED: ATOM      4  O   UNL     1     139.958  79.393 218.936 -0.03 +0.09    -0.268 OA 
DOCKED: ATOM      5  H   UNL     1     142.758  79.812 220.420 -0.20 -0.13    +0.164 HD 
DOCKED: BRANCH   3   6
DOCKED: ATOM      6  C   UNL     1     141.347  77.697 219.870 -0.19 -0.06    +0.128 A  
DOCKED: ATOM      7  C   UNL     1     140.332  76.876 220.309 -0.16 -0.01    +0.035 A  
DOCKED: ATOM      8  N   UNL     1     142.580  77.177 219.766 -0.22 +0.17    -0.243 NA 
DOCKED: ATOM      9  C   UNL     1     140.566  75.574 220.629 -0.22 -0.00    +0.013 A  
DOCKED: ATOM     10  C   UNL     1     142.834  75.895 220.077 -0.29 -0.04    +0.073 A  
DOCKED: ATOM     11  C   UNL     1     141.834  75.056 220.516 -0.29 -0.00    +0.000 A  
DOCKED: ATOM     12  C   UNL     1     144.097  75.366 219.969 -0.34 -0.03    +0.049 A  
DOCKED: ATOM     13  C   UNL     1     142.043  73.732 220.848 -0.28 -0.00    +0.012 A  
DOCKED: ATOM     14  C   UNL     1     144.343  74.047 220.291 -0.44 -0.01    +0.043 A  
DOCKED: ATOM     15  C   UNL     1     143.321  73.224 220.732 -0.29 -0.00    +0.021 A  
DOCKED: ATOM     16  Cl  UNL     1     145.948  73.338 220.165 -0.73 -0.01    -0.084 Cl 
DOCKED: ENDBRANCH   3   6
DOCKED: ENDBRANCH   1   2
DOCKED: BRANCH   1  17
DOCKED: ATOM     17  C   UNL     1     140.582  82.211 220.430 -0.17 -0.06    +0.242 C  
DOCKED: ATOM     18  O   UNL     1     140.880  83.499 220.401 -0.17 +0.06    -0.273 OA 
DOCKED: BRANCH  17  19
DOCKED: ATOM     19  N   UNL     1     139.506  81.896 221.232 -0.07 +0.06    -0.338 N  
DOCKED: ATOM     20  C   UNL     1     138.084  81.971 220.824 -0.08 -0.02    +0.120 C  
DOCKED: ATOM     21  C   UNL     1     139.626  81.363 222.611 -0.25 -0.01    +0.088 C  
DOCKED: ATOM     22  C   UNL     1     137.670  80.540 220.614 -0.06 -0.00    +0.022 C  
DOCKED: ATOM     23  C   UNL     1     138.343  80.713 223.026 -0.29 -0.00    +0.025 C  
DOCKED: ATOM     24  C   UNL     1     137.621  79.920 222.000 -0.15 -0.00    +0.004 C  
DOCKED: BRANCH  21  25
DOCKED: ATOM     25  C   UNL     1     140.826  80.544 222.761 -0.45 -0.00    +0.012 C  
DOCKED: ATOM     26  C   UNL     1     140.725  79.278 223.561 -0.52 -0.00    +0.006 C  
DOCKED: ATOM     27  C   UNL     1     141.913  81.228 223.621 -0.61 -0.00    +0.006 C  
DOCKED: ATOM     28  C   UNL     1     142.192  78.829 223.448 -0.52 -0.00    +0.000 C  
DOCKED: ATOM     29  C   UNL     1     142.994  80.138 223.464 -0.63 -0.00    +0.000 C  
DOCKED: ENDBRANCH  21  25
DOCKED: ENDBRANCH  17  19
DOCKED: ENDBRANCH   1  17
DOCKED: TORSDOF 5
DOCKED: TER
DOCKED: ENDMDL
________________________________________________________________________________


    FINAL DOCKED STATE:
    ________________________


Run:   10 / 20
Time taken for this run:   0.029s

DOCKED: MODEL        10
DOCKED: USER    Run = 10
DOCKED: USER
DOCKED: USER    Estimated Free Energy of Binding    =  -7.32 kcal/mol  [=(1)+(2)+(3)-(4)]
DOCKED: USER
DOCKED: USER    (1) Final Intermolecular Energy     =  -8.81 kcal/mol
DOCKED: USER        vdW + Hbond + desolv Energy     =  -8.77 kcal/mol
DOCKED: USER        Electrostatic Energy            =  -0.04 kcal/mol
DOCKED: USER        Moving Ligand-Fixed Receptor    =  -8.81 kcal/mol
DOCKED: USER        Moving Ligand-Moving Receptor   =  +0.00 kcal/mol
DOCKED: USER    (2) Final Total Internal Energy     =  -2.24 kcal/mol
DOCKED: USER    (3) Torsional Free Energy           =  +1.49 kcal/mol
DOCKED: USER    (4) Unbound System's Energy         =  -2.24 kcal/mol
DOCKED: USER
DOCKED: USER
DOCKED: REMARK SMILES O=C(NCC(=O)N1CCCC[C@H]1C1CCCC1)c1ccc2ccc(Cl)cc2n1
DOCKED: REMARK SMILES IDX 4 1 3 2 2 3 1 4 18 6 19 7 28 8 20 9 27 10 21 11 26 12 22 13
DOCKED: REMARK SMILES IDX 24 14 23 15 25 16 5 17 6 18 7 19 8 20 12 21 9 22 11 23 10 24
DOCKED: REMARK SMILES IDX 13 25 14 26 17 27 15 28 16 29
DOCKED: REMARK H PARENT 3 5
DOCKED: USER                              x       y       z     vdW  Elec       q    Type
DOCKED: USER                           _______ _______ _______ _____ _____    ______ ____
DOCKED: ROOT
DOCKED: ATOM      1  C   UNL     1     140.482  72.831 219.682 -0.04 -0.04    +0.216 C  
DOCKED: ENDROOT
DOCKED: BRANCH   1   2
DOCKED: ATOM      2  N   UNL     1     140.193  74.164 220.049 -0.02 +0.07    -0.342 N  
DOCKED: ATOM      3  C   UNL     1     140.342  74.457 221.481 -0.20 -0.04    +0.270 C  
DOCKED: ATOM      4  O   UNL     1     140.706  73.506 222.230 -0.73 -0.01    -0.268 OA 
DOCKED: ATOM      5  H   UNL     1     139.922  74.981 219.504 +0.03 -0.04    +0.164 HD 
DOCKED: BRANCH   3   6
DOCKED: ATOM      6  C   UNL     1     140.073  75.788 221.972 -0.30 -0.03    +0.128 A  
DOCKED: ATOM      7  C   UNL     1     138.755  76.159 222.127 -0.29 -0.01    +0.035 A  
DOCKED: ATOM      8  N   UNL     1     141.022  76.684 222.285 -0.27 +0.09    -0.243 NA 
DOCKED: ATOM      9  C   UNL     1     138.419  77.396 222.585 -0.29 -0.00    +0.013 A  
DOCKED: ATOM     10  C   UNL     1     140.713  77.912 222.739 -0.41 -0.02    +0.073 A  
DOCKED: ATOM     11  C   UNL     1     139.403  78.302 222.902 -0.32 -0.00    +0.000 A  
DOCKED: ATOM     12  C   UNL     1     141.687  78.825 223.058 -0.53 -0.02    +0.049 A  
DOCKED: ATOM     13  C   UNL     1     139.034  79.550 223.364 -0.37 -0.00    +0.012 A  
DOCKED: ATOM     14  C   UNL     1     141.355  80.082 223.523 -0.53 -0.01    +0.043 A  
DOCKED: ATOM     15  C   UNL     1     140.030  80.451 223.678 -0.41 -0.00    +0.021 A  
DOCKED: ATOM     16  Cl  UNL     1     142.577  81.277 223.941 -0.67 +0.01    -0.084 Cl 
DOCKED: ENDBRANCH   3   6
DOCKED: ENDBRANCH   1   2
DOCKED: BRANCH   1  17
DOCKED: ATOM     17  C   UNL     1     141.852  72.352 219.576 -0.06 -0.04    +0.242 C  
DOCKED: ATOM     18  O   UNL     1     141.948  71.389 218.675 -0.02 +0.04    -0.273 OA 
DOCKED: BRANCH  17  19
DOCKED: ATOM     19  N   UNL     1     143.042  72.670 220.195 -0.09 +0.05    -0.338 N  
DOCKED: ATOM     20  C   UNL     1     144.066  71.693 220.635 -0.19 -0.02    +0.120 C  
DOCKED: ATOM     21  C   UNL     1     143.503  74.057 220.447 -0.33 -0.03    +0.088 C  
DOCKED: ATOM     22  C   UNL     1     145.171  71.816 219.621 -0.33 +0.01    +0.022 C  
DOCKED: ATOM     23  C   UNL     1     144.978  74.073 220.701 -0.51 -0.01    +0.025 C  
DOCKED: ATOM     24  C   UNL     1     145.817  73.166 219.880 -0.51 +0.00    +0.004 C  
DOCKED: BRANCH  21  25
DOCKED: ATOM     25  C   UNL     1     143.032  74.969 219.407 -0.31 -0.00    +0.012 C  
DOCKED: ATOM     26  C   UNL     1     143.692  74.911 218.060 -0.20 -0.00    +0.006 C  
DOCKED: ATOM     27  C   UNL     1     143.358  76.448 219.717 -0.36 -0.00    +0.006 C  
DOCKED: ATOM     28  C   UNL     1     142.895  76.035 217.375 -0.21 -0.00    +0.000 C  
DOCKED: ATOM     29  C   UNL     1     142.647  77.060 218.491 -0.32 -0.00    +0.000 C  
DOCKED: ENDBRANCH  21  25
DOCKED: ENDBRANCH  17  19
DOCKED: ENDBRANCH   1  17
DOCKED: TORSDOF 5
DOCKED: TER
DOCKED: ENDMDL
________________________________________________________________________________


    FINAL DOCKED STATE:
    ________________________


Run:   11 / 20
Time taken for this run:   0.029s

DOCKED: MODEL        11
DOCKED: USER    Run = 11
DOCKED: USER
DOCKED: USER    Estimated Free Energy of Binding    =  -8.32 kcal/mol  [=(1)+(2)+(3)-(4)]
DOCKED: USER
DOCKED: USER    (1) Final Intermolecular Energy     =  -9.81 kcal/mol
DOCKED: USER        vdW + Hbond + desolv Energy     =  -9.76 kcal/mol
DOCKED: USER        Electrostatic Energy            =  -0.05 kcal/mol
DOCKED: USER        Moving Ligand-Fixed Receptor    =  -9.81 kcal/mol
DOCKED: USER        Moving Ligand-Moving Receptor   =  +0.00 kcal/mol
DOCKED: USER    (2) Final Total Internal Energy     =  -1.25 kcal/mol
DOCKED: USER    (3) Torsional Free Energy           =  +1.49 kcal/mol
DOCKED: USER    (4) Unbound System's Energy         =  -1.25 kcal/mol
DOCKED: USER
DOCKED: USER
DOCKED: REMARK SMILES O=C(NCC(=O)N1CCCC[C@H]1C1CCCC1)c1ccc2ccc(Cl)cc2n1
DOCKED: REMARK SMILES IDX 4 1 3 2 2 3 1 4 18 6 19 7 28 8 20 9 27 10 21 11 26 12 22 13
DOCKED: REMARK SMILES IDX 24 14 23 15 25 16 5 17 6 18 7 19 8 20 12 21 9 22 11 23 10 24
DOCKED: REMARK SMILES IDX 13 25 14 26 17 27 15 28 16 29
DOCKED: REMARK H PARENT 3 5
DOCKED: USER                              x       y       z     vdW  Elec       q    Type
DOCKED: USER                           _______ _______ _______ _____ _____    ______ ____
DOCKED: ROOT
DOCKED: ATOM      1  C   UNL     1     139.290  75.442 221.548 -0.20 -0.05    +0.216 C  
DOCKED: ENDROOT
DOCKED: BRANCH   1   2
DOCKED: ATOM      2  N   UNL     1     139.016  74.301 222.335 -0.04 +0.09    -0.342 N  
DOCKED: ATOM      3  C   UNL     1     139.971  73.197 222.177 -0.15 -0.03    +0.270 C  
DOCKED: ATOM      4  O   UNL     1     140.925  73.371 221.368 -0.27 +0.03    -0.268 OA 
DOCKED: ATOM      5  H   UNL     1     138.288  74.101 223.020 -0.55 -0.12    +0.164 HD 
DOCKED: BRANCH   3   6
DOCKED: ATOM      6  C   UNL     1     139.790  71.979 222.933 -0.27 -0.02    +0.128 A  
DOCKED: ATOM      7  C   UNL     1     139.053  70.970 222.354 -0.19 -0.01    +0.035 A  
DOCKED: ATOM      8  N   UNL     1     140.292  71.770 224.160 -0.28 +0.04    -0.243 NA 
DOCKED: ATOM      9  C   UNL     1     138.838  69.793 223.001 -0.22 -0.00    +0.013 A  
DOCKED: ATOM     10  C   UNL     1     140.092  70.615 224.818 -0.41 -0.01    +0.073 A  
DOCKED: ATOM     11  C   UNL     1     139.359  69.594 224.256 -0.33 -0.00    +0.000 A  
DOCKED: ATOM     12  C   UNL     1     140.607  70.405 226.073 -0.53 -0.01    +0.049 A  
DOCKED: ATOM     13  C   UNL     1     139.125  68.389 224.891 -0.40 -0.00    +0.012 A  
DOCKED: ATOM     14  C   UNL     1     140.394  69.214 226.736 -0.54 -0.01    +0.043 A  
DOCKED: ATOM     15  C   UNL     1     139.653  68.201 226.152 -0.57 -0.00    +0.021 A  
DOCKED: ATOM     16  Cl  UNL     1     141.039  68.911 228.345 -0.74 +0.02    -0.084 Cl 
DOCKED: ENDBRANCH   3   6
DOCKED: ENDBRANCH   1   2
DOCKED: BRANCH   1  17
DOCKED: ATOM     17  C   UNL     1     140.340  76.383 221.912 -0.27 -0.06    +0.242 C  
DOCKED: ATOM     18  O   UNL     1     141.415  75.747 222.345 -0.28 +0.08    -0.273 OA 
DOCKED: BRANCH  17  19
DOCKED: ATOM     19  N   UNL     1     140.456  77.756 221.907 -0.14 +0.11    -0.338 N  
DOCKED: ATOM     20  C   UNL     1     140.505  78.615 223.113 -0.37 -0.03    +0.120 C  
DOCKED: ATOM     21  C   UNL     1     140.623  78.571 220.679 -0.20 -0.03    +0.088 C  
DOCKED: ATOM     22  C   UNL     1     141.948  79.022 223.234 -0.58 -0.01    +0.022 C  
DOCKED: ATOM     23  C   UNL     1     141.165  79.923 221.027 -0.31 -0.01    +0.025 C  
DOCKED: ATOM     24  C   UNL     1     142.200  79.986 222.088 -0.53 -0.00    +0.004 C  
DOCKED: BRANCH  21  25
DOCKED: ATOM     25  C   UNL     1     141.362  77.840 219.653 -0.24 -0.01    +0.012 C  
DOCKED: ATOM     26  C   UNL     1     142.616  77.120 220.059 -0.23 -0.00    +0.006 C  
DOCKED: ATOM     27  C   UNL     1     142.008  78.773 218.603 -0.28 -0.00    +0.006 C  
DOCKED: ATOM     28  C   UNL     1     143.010  76.568 218.679 -0.34 -0.00    +0.000 C  
DOCKED: ATOM     29  C   UNL     1     142.582  77.666 217.694 -0.30 -0.00    +0.000 C  
DOCKED: ENDBRANCH  21  25
DOCKED: ENDBRANCH  17  19
DOCKED: ENDBRANCH   1  17
DOCKED: TORSDOF 5
DOCKED: TER
DOCKED: ENDMDL
________________________________________________________________________________


    FINAL DOCKED STATE:
    ________________________


Run:   12 / 20
Time taken for this run:   0.029s

DOCKED: MODEL        12
DOCKED: USER    Run = 12
DOCKED: USER
DOCKED: USER    Estimated Free Energy of Binding    =  -7.86 kcal/mol  [=(1)+(2)+(3)-(4)]
DOCKED: USER
DOCKED: USER    (1) Final Intermolecular Energy     =  -9.35 kcal/mol
DOCKED: USER        vdW + Hbond + desolv Energy     =  -9.31 kcal/mol
DOCKED: USER        Electrostatic Energy            =  -0.04 kcal/mol
DOCKED: USER        Moving Ligand-Fixed Receptor    =  -9.35 kcal/mol
DOCKED: USER        Moving Ligand-Moving Receptor   =  +0.00 kcal/mol
DOCKED: USER    (2) Final Total Internal Energy     =  -1.38 kcal/mol
DOCKED: USER    (3) Torsional Free Energy           =  +1.49 kcal/mol
DOCKED: USER    (4) Unbound System's Energy         =  -1.38 kcal/mol
DOCKED: USER
DOCKED: USER
DOCKED: REMARK SMILES O=C(NCC(=O)N1CCCC[C@H]1C1CCCC1)c1ccc2ccc(Cl)cc2n1
DOCKED: REMARK SMILES IDX 4 1 3 2 2 3 1 4 18 6 19 7 28 8 20 9 27 10 21 11 26 12 22 13
DOCKED: REMARK SMILES IDX 24 14 23 15 25 16 5 17 6 18 7 19 8 20 12 21 9 22 11 23 10 24
DOCKED: REMARK SMILES IDX 13 25 14 26 17 27 15 28 16 29
DOCKED: REMARK H PARENT 3 5
DOCKED: USER                              x       y       z     vdW  Elec       q    Type
DOCKED: USER                           _______ _______ _______ _____ _____    ______ ____
DOCKED: ROOT
DOCKED: ATOM      1  C   UNL     1     139.855  75.768 221.373 -0.21 -0.05    +0.216 C  
DOCKED: ENDROOT
DOCKED: BRANCH   1   2
DOCKED: ATOM      2  N   UNL     1     139.518  74.700 222.235 -0.12 +0.05    -0.342 N  
DOCKED: ATOM      3  C   UNL     1     140.235  73.445 221.972 -0.18 -0.02    +0.270 C  
DOCKED: ATOM      4  O   UNL     1     141.066  73.443 221.020 -0.19 +0.04    -0.268 OA 
DOCKED: ATOM      5  H   UNL     1     138.885  74.635 223.030 -0.54 -0.08    +0.164 HD 
DOCKED: BRANCH   3   6
DOCKED: ATOM      6  C   UNL     1     139.972  72.284 222.791 -0.28 -0.02    +0.128 A  
DOCKED: ATOM      7  C   UNL     1     139.147  71.310 222.273 -0.20 -0.01    +0.035 A  
DOCKED: ATOM      8  N   UNL     1     140.477  72.096 224.020 -0.21 +0.03    -0.243 NA 
DOCKED: ATOM      9  C   UNL     1     138.850  70.187 222.982 -0.22 -0.00    +0.013 A  
DOCKED: ATOM     10  C   UNL     1     140.197  70.995 224.738 -0.44 -0.01    +0.073 A  
DOCKED: ATOM     11  C   UNL     1     139.376  70.009 224.239 -0.34 -0.00    +0.000 A  
DOCKED: ATOM     12  C   UNL     1     140.716  70.806 225.995 -0.56 -0.01    +0.049 A  
DOCKED: ATOM     13  C   UNL     1     139.058  68.860 224.936 -0.39 -0.00    +0.012 A  
DOCKED: ATOM     14  C   UNL     1     140.421  69.670 226.721 -0.52 -0.01    +0.043 A  
DOCKED: ATOM     15  C   UNL     1     139.592  68.692 226.198 -0.53 -0.00    +0.021 A  
DOCKED: ATOM     16  Cl  UNL     1     141.068  69.396 228.334 -0.67 +0.02    -0.084 Cl 
DOCKED: ENDBRANCH   3   6
DOCKED: ENDBRANCH   1   2
DOCKED: BRANCH   1  17
DOCKED: ATOM     17  C   UNL     1     140.798  76.801 221.776 -0.25 -0.09    +0.242 C  
DOCKED: ATOM     18  O   UNL     1     141.049  76.734 223.073 -0.24 +0.09    -0.273 OA 
DOCKED: BRANCH  17  19
DOCKED: ATOM     19  N   UNL     1     141.469  77.812 221.121 -0.14 +0.18    -0.338 N  
DOCKED: ATOM     20  C   UNL     1     142.164  77.673 219.820 -0.24 -0.08    +0.120 C  
DOCKED: ATOM     21  C   UNL     1     141.530  79.214 221.598 -0.36 -0.04    +0.088 C  
DOCKED: ATOM     22  C   UNL     1     141.258  78.352 218.828 -0.19 -0.01    +0.022 C  
DOCKED: ATOM     23  C   UNL     1     141.922  80.124 220.476 -0.29 -0.01    +0.025 C  
DOCKED: ATOM     24  C   UNL     1     141.351  79.836 219.137 -0.24 -0.00    +0.004 C  
DOCKED: BRANCH  21  25
DOCKED: ATOM     25  C   UNL     1     140.311  79.584 222.314 -0.34 -0.00    +0.012 C  
DOCKED: ATOM     26  C   UNL     1     139.810  80.993 222.182 -0.29 -0.00    +0.006 C  
DOCKED: ATOM     27  C   UNL     1     140.499  79.591 223.849 -0.47 -0.00    +0.006 C  
DOCKED: ATOM     28  C   UNL     1     138.587  80.880 223.107 -0.32 -0.00    +0.000 C  
DOCKED: ATOM     29  C   UNL     1     139.037  79.919 224.217 -0.32 -0.00    +0.000 C  
DOCKED: ENDBRANCH  21  25
DOCKED: ENDBRANCH  17  19
DOCKED: ENDBRANCH   1  17
DOCKED: TORSDOF 5
DOCKED: TER
DOCKED: ENDMDL
________________________________________________________________________________


    FINAL DOCKED STATE:
    ________________________


Run:   13 / 20
Time taken for this run:   0.029s

DOCKED: MODEL        13
DOCKED: USER    Run = 13
DOCKED: USER
DOCKED: USER    Estimated Free Energy of Binding    =  -7.06 kcal/mol  [=(1)+(2)+(3)-(4)]
DOCKED: USER
DOCKED: USER    (1) Final Intermolecular Energy     =  -8.55 kcal/mol
DOCKED: USER        vdW + Hbond + desolv Energy     =  -8.55 kcal/mol
DOCKED: USER        Electrostatic Energy            =  -0.01 kcal/mol
DOCKED: USER        Moving Ligand-Fixed Receptor    =  -8.55 kcal/mol
DOCKED: USER        Moving Ligand-Moving Receptor   =  +0.00 kcal/mol
DOCKED: USER    (2) Final Total Internal Energy     =  -2.31 kcal/mol
DOCKED: USER    (3) Torsional Free Energy           =  +1.49 kcal/mol
DOCKED: USER    (4) Unbound System's Energy         =  -2.31 kcal/mol
DOCKED: USER
DOCKED: USER
DOCKED: REMARK SMILES O=C(NCC(=O)N1CCCC[C@H]1C1CCCC1)c1ccc2ccc(Cl)cc2n1
DOCKED: REMARK SMILES IDX 4 1 3 2 2 3 1 4 18 6 19 7 28 8 20 9 27 10 21 11 26 12 22 13
DOCKED: REMARK SMILES IDX 24 14 23 15 25 16 5 17 6 18 7 19 8 20 12 21 9 22 11 23 10 24
DOCKED: REMARK SMILES IDX 13 25 14 26 17 27 15 28 16 29
DOCKED: REMARK H PARENT 3 5
DOCKED: USER                              x       y       z     vdW  Elec       q    Type
DOCKED: USER                           _______ _______ _______ _____ _____    ______ ____
DOCKED: ROOT
DOCKED: ATOM      1  C   UNL     1     142.048  76.662 220.230 -0.17 -0.13    +0.216 C  
DOCKED: ENDROOT
DOCKED: BRANCH   1   2
DOCKED: ATOM      2  N   UNL     1     141.695  75.579 221.064 -0.13 +0.14    -0.342 N  
DOCKED: ATOM      3  C   UNL     1     140.569  74.769 220.582 -0.13 -0.06    +0.270 C  
DOCKED: ATOM      4  O   UNL     1     140.036  75.114 219.489 -0.03 +0.07    -0.268 OA 
DOCKED: ATOM      5  H   UNL     1     142.091  75.228 221.935 -0.37 -0.06    +0.164 HD 
DOCKED: BRANCH   3   6
DOCKED: ATOM      6  C   UNL     1     140.120  73.633 221.354 -0.22 -0.02    +0.128 A  
DOCKED: ATOM      7  C   UNL     1     139.102  72.866 220.831 -0.11 -0.01    +0.035 A  
DOCKED: ATOM      8  N   UNL     1     140.630  73.280 222.544 -0.56 -0.01    -0.243 NA 
DOCKED: ATOM      9  C   UNL     1     138.623  71.781 221.497 -0.13 -0.00    +0.013 A  
DOCKED: ATOM     10  C   UNL     1     140.172  72.212 223.220 -0.30 -0.01    +0.073 A  
DOCKED: ATOM     11  C   UNL     1     139.156  71.431 222.715 -0.26 -0.00    +0.000 A  
DOCKED: ATOM     12  C   UNL     1     140.696  71.853 224.437 -0.33 -0.01    +0.049 A  
DOCKED: ATOM     13  C   UNL     1     138.651  70.325 223.369 -0.25 -0.00    +0.012 A  
DOCKED: ATOM     14  C   UNL     1     140.217  70.753 225.119 -0.48 -0.01    +0.043 A  
DOCKED: ATOM     15  C   UNL     1     139.193  69.985 224.591 -0.35 -0.00    +0.021 A  
DOCKED: ATOM     16  Cl  UNL     1     140.865  70.265 226.680 -0.73 +0.01    -0.084 Cl 
DOCKED: ENDBRANCH   3   6
DOCKED: ENDBRANCH   1   2
DOCKED: BRANCH   1  17
DOCKED: ATOM     17  C   UNL     1     141.872  78.042 220.659 -0.17 -0.15    +0.242 C  
DOCKED: ATOM     18  O   UNL     1     141.816  78.858 219.620 -0.18 +0.16    -0.273 OA 
DOCKED: BRANCH  17  19
DOCKED: ATOM     19  N   UNL     1     141.755  78.671 221.881 -0.19 +0.18    -0.338 N  
DOCKED: ATOM     20  C   UNL     1     142.601  79.794 222.349 -0.45 -0.06    +0.120 C  
DOCKED: ATOM     21  C   UNL     1     140.707  78.354 222.882 -0.40 -0.02    +0.088 C  
DOCKED: ATOM     22  C   UNL     1     141.720  81.008 222.235 -0.49 -0.01    +0.022 C  
DOCKED: ATOM     23  C   UNL     1     140.572  79.479 223.860 -0.47 -0.00    +0.025 C  
DOCKED: ATOM     24  C   UNL     1     140.673  80.859 223.325 -0.47 -0.00    +0.004 C  
DOCKED: BRANCH  21  25
DOCKED: ATOM     25  C   UNL     1     139.469  77.927 222.235 -0.31 -0.00    +0.012 C  
DOCKED: ATOM     26  C   UNL     1     138.206  78.669 222.562 -0.25 -0.00    +0.006 C  
DOCKED: ATOM     27  C   UNL     1     138.999  76.532 222.708 -0.25 -0.00    +0.006 C  
DOCKED: ATOM     28  C   UNL     1     137.237  77.848 221.693 -0.14 -0.00    +0.000 C  
DOCKED: ATOM     29  C   UNL     1     137.780  76.414 221.769 -0.21 -0.00    +0.000 C  
DOCKED: ENDBRANCH  21  25
DOCKED: ENDBRANCH  17  19
DOCKED: ENDBRANCH   1  17
DOCKED: TORSDOF 5
DOCKED: TER
DOCKED: ENDMDL
________________________________________________________________________________


    FINAL DOCKED STATE:
    ________________________


Run:   14 / 20
Time taken for this run:   0.029s

DOCKED: MODEL        14
DOCKED: USER    Run = 14
DOCKED: USER
DOCKED: USER    Estimated Free Energy of Binding    =  -7.29 kcal/mol  [=(1)+(2)+(3)-(4)]
DOCKED: USER
DOCKED: USER    (1) Final Intermolecular Energy     =  -8.79 kcal/mol
DOCKED: USER        vdW + Hbond + desolv Energy     =  -8.75 kcal/mol
DOCKED: USER        Electrostatic Energy            =  -0.04 kcal/mol
DOCKED: USER        Moving Ligand-Fixed Receptor    =  -8.79 kcal/mol
DOCKED: USER        Moving Ligand-Moving Receptor   =  +0.00 kcal/mol
DOCKED: USER    (2) Final Total Internal Energy     =  -2.24 kcal/mol
DOCKED: USER    (3) Torsional Free Energy           =  +1.49 kcal/mol
DOCKED: USER    (4) Unbound System's Energy         =  -2.24 kcal/mol
DOCKED: USER
DOCKED: USER
DOCKED: REMARK SMILES O=C(NCC(=O)N1CCCC[C@H]1C1CCCC1)c1ccc2ccc(Cl)cc2n1
DOCKED: REMARK SMILES IDX 4 1 3 2 2 3 1 4 18 6 19 7 28 8 20 9 27 10 21 11 26 12 22 13
DOCKED: REMARK SMILES IDX 24 14 23 15 25 16 5 17 6 18 7 19 8 20 12 21 9 22 11 23 10 24
DOCKED: REMARK SMILES IDX 13 25 14 26 17 27 15 28 16 29
DOCKED: REMARK H PARENT 3 5
DOCKED: USER                              x       y       z     vdW  Elec       q    Type
DOCKED: USER                           _______ _______ _______ _____ _____    ______ ____
DOCKED: ROOT
DOCKED: ATOM      1  C   UNL     1     140.454  72.756 219.762 -0.05 -0.04    +0.216 C  
DOCKED: ENDROOT
DOCKED: BRANCH   1   2
DOCKED: ATOM      2  N   UNL     1     140.175  74.102 220.085 -0.02 +0.07    -0.342 N  
DOCKED: ATOM      3  C   UNL     1     140.332  74.441 221.505 -0.20 -0.04    +0.270 C  
DOCKED: ATOM      4  O   UNL     1     140.694  73.515 222.284 -0.73 -0.01    -0.268 OA 
DOCKED: ATOM      5  H   UNL     1     139.906  74.902 219.514 +0.03 -0.04    +0.164 HD 
DOCKED: BRANCH   3   6
DOCKED: ATOM      6  C   UNL     1     140.072  75.791 221.953 -0.30 -0.03    +0.128 A  
DOCKED: ATOM      7  C   UNL     1     138.758  76.196 222.035 -0.28 -0.01    +0.035 A  
DOCKED: ATOM      8  N   UNL     1     141.027  76.671 222.292 -0.27 +0.09    -0.243 NA 
DOCKED: ATOM      9  C   UNL     1     138.431  77.451 222.447 -0.28 -0.00    +0.013 A  
DOCKED: ATOM     10  C   UNL     1     140.727  77.916 222.702 -0.41 -0.02    +0.073 A  
DOCKED: ATOM     11  C   UNL     1     139.421  78.341 222.791 -0.33 -0.00    +0.000 A  
DOCKED: ATOM     12  C   UNL     1     141.707  78.813 223.048 -0.53 -0.02    +0.049 A  
DOCKED: ATOM     13  C   UNL     1     139.061  79.608 223.206 -0.35 -0.00    +0.012 A  
DOCKED: ATOM     14  C   UNL     1     141.384  80.088 223.467 -0.53 -0.01    +0.043 A  
DOCKED: ATOM     15  C   UNL     1     140.063  80.493 223.548 -0.42 -0.00    +0.021 A  
DOCKED: ATOM     16  Cl  UNL     1     142.613  81.263 223.918 -0.66 +0.01    -0.084 Cl 
DOCKED: ENDBRANCH   3   6
DOCKED: ENDBRANCH   1   2
DOCKED: BRANCH   1  17
DOCKED: ATOM     17  C   UNL     1     141.816  72.298 219.524 -0.06 -0.04    +0.242 C  
DOCKED: ATOM     18  O   UNL     1     141.857  71.437 218.521 -0.02 +0.04    -0.273 OA 
DOCKED: BRANCH  17  19
DOCKED: ATOM     19  N   UNL     1     143.041  72.556 220.100 -0.08 +0.05    -0.338 N  
DOCKED: ATOM     20  C   UNL     1     144.047  71.531 220.466 -0.21 -0.02    +0.120 C  
DOCKED: ATOM     21  C   UNL     1     143.560  73.918 220.374 -0.32 -0.02    +0.088 C  
DOCKED: ATOM     22  C   UNL     1     145.113  71.648 219.410 -0.30 +0.01    +0.022 C  
DOCKED: ATOM     23  C   UNL     1     145.045  73.875 220.565 -0.55 -0.01    +0.025 C  
DOCKED: ATOM     24  C   UNL     1     145.816  72.967 219.682 -0.46 +0.00    +0.004 C  
DOCKED: BRANCH  21  25
DOCKED: ATOM     25  C   UNL     1     143.079  74.878 219.384 -0.30 -0.00    +0.012 C  
DOCKED: ATOM     26  C   UNL     1     143.678  74.839 218.008 -0.20 -0.00    +0.006 C  
DOCKED: ATOM     27  C   UNL     1     143.473  76.334 219.723 -0.37 -0.00    +0.006 C  
DOCKED: ATOM     28  C   UNL     1     142.894  76.011 217.393 -0.21 -0.00    +0.000 C  
DOCKED: ATOM     29  C   UNL     1     142.733  77.009 218.548 -0.33 -0.00    +0.000 C  
DOCKED: ENDBRANCH  21  25
DOCKED: ENDBRANCH  17  19
DOCKED: ENDBRANCH   1  17
DOCKED: TORSDOF 5
DOCKED: TER
DOCKED: ENDMDL
________________________________________________________________________________


    FINAL DOCKED STATE:
    ________________________


Run:   15 / 20
Time taken for this run:   0.029s

DOCKED: MODEL        15
DOCKED: USER    Run = 15
DOCKED: USER
DOCKED: USER    Estimated Free Energy of Binding    =  -8.21 kcal/mol  [=(1)+(2)+(3)-(4)]
DOCKED: USER
DOCKED: USER    (1) Final Intermolecular Energy     =  -9.70 kcal/mol
DOCKED: USER        vdW + Hbond + desolv Energy     =  -9.65 kcal/mol
DOCKED: USER        Electrostatic Energy            =  -0.05 kcal/mol
DOCKED: USER        Moving Ligand-Fixed Receptor    =  -9.70 kcal/mol
DOCKED: USER        Moving Ligand-Moving Receptor   =  +0.00 kcal/mol
DOCKED: USER    (2) Final Total Internal Energy     =  -1.66 kcal/mol
DOCKED: USER    (3) Torsional Free Energy           =  +1.49 kcal/mol
DOCKED: USER    (4) Unbound System's Energy         =  -1.66 kcal/mol
DOCKED: USER
DOCKED: USER
DOCKED: REMARK SMILES O=C(NCC(=O)N1CCCC[C@H]1C1CCCC1)c1ccc2ccc(Cl)cc2n1
DOCKED: REMARK SMILES IDX 4 1 3 2 2 3 1 4 18 6 19 7 28 8 20 9 27 10 21 11 26 12 22 13
DOCKED: REMARK SMILES IDX 24 14 23 15 25 16 5 17 6 18 7 19 8 20 12 21 9 22 11 23 10 24
DOCKED: REMARK SMILES IDX 13 25 14 26 17 27 15 28 16 29
DOCKED: REMARK H PARENT 3 5
DOCKED: USER                              x       y       z     vdW  Elec       q    Type
DOCKED: USER                           _______ _______ _______ _____ _____    ______ ____
DOCKED: ROOT
DOCKED: ATOM      1  C   UNL     1     136.383  69.209 224.838 -0.12 -0.01    +0.216 C  
DOCKED: ENDROOT
DOCKED: BRANCH   1   2
DOCKED: ATOM      2  N   UNL     1     135.758  70.446 225.112 +0.01 +0.03    -0.342 N  
DOCKED: ATOM      3  C   UNL     1     134.612  70.369 226.025 -0.15 -0.01    +0.270 C  
DOCKED: ATOM      4  O   UNL     1     134.301  69.227 226.468 -0.68 +0.00    -0.268 OA 
DOCKED: ATOM      5  H   UNL     1     135.966  71.398 224.815 +0.05 -0.02    +0.164 HD 
DOCKED: BRANCH   3   6
DOCKED: ATOM      6  C   UNL     1     133.894  71.573 226.378 -0.31 -0.01    +0.128 A  
DOCKED: ATOM      7  C   UNL     1     132.788  71.444 227.189 -0.35 -0.00    +0.035 A  
DOCKED: ATOM      8  N   UNL     1     134.235  72.804 225.966 -0.30 -0.00    -0.243 NA 
DOCKED: ATOM      9  C   UNL     1     132.059  72.529 227.566 -0.38 -0.00    +0.013 A  
DOCKED: ATOM     10  C   UNL     1     133.530  73.890 226.326 -0.29 +0.00    +0.073 A  
DOCKED: ATOM     11  C   UNL     1     132.422  73.783 227.136 -0.42 -0.00    +0.000 A  
DOCKED: ATOM     12  C   UNL     1     133.882  75.148 225.903 -0.34 -0.00    +0.049 A  
DOCKED: ATOM     13  C   UNL     1     131.664  74.867 227.533 -0.38 -0.00    +0.012 A  
DOCKED: ATOM     14  C   UNL     1     133.149  76.254 226.280 -0.30 -0.00    +0.043 A  
DOCKED: ATOM     15  C   UNL     1     132.038  76.122 227.095 -0.31 -0.00    +0.021 A  
DOCKED: ATOM     16  Cl  UNL     1     133.572  77.880 225.756 -0.17 +0.01    -0.084 Cl 
DOCKED: ENDBRANCH   3   6
DOCKED: ENDBRANCH   1   2
DOCKED: BRANCH   1  17
DOCKED: ATOM     17  C   UNL     1     137.831  69.095 224.730 -0.20 -0.02    +0.242 C  
DOCKED: ATOM     18  O   UNL     1     138.291  68.142 225.523 -0.48 -0.01    -0.273 OA 
DOCKED: BRANCH  17  19
DOCKED: ATOM     19  N   UNL     1     138.804  69.748 224.004 -0.12 +0.05    -0.338 N  
DOCKED: ATOM     20  C   UNL     1     138.679  70.167 222.589 -0.16 -0.02    +0.120 C  
DOCKED: ATOM     21  C   UNL     1     140.105  70.188 224.565 -0.33 -0.01    +0.088 C  
DOCKED: ATOM     22  C   UNL     1     138.473  71.657 222.649 -0.21 -0.01    +0.022 C  
DOCKED: ATOM     23  C   UNL     1     140.719  71.232 223.685 -0.25 -0.00    +0.025 C  
DOCKED: ATOM     24  C   UNL     1     139.807  72.237 223.087 -0.27 -0.00    +0.004 C  
DOCKED: BRANCH  21  25
DOCKED: ATOM     25  C   UNL     1     139.979  70.547 225.976 -0.52 -0.00    +0.012 C  
DOCKED: ATOM     26  C   UNL     1     140.875  71.623 226.517 -0.69 -0.00    +0.006 C  
DOCKED: ATOM     27  C   UNL     1     140.442  69.417 226.924 -0.59 -0.00    +0.006 C  
DOCKED: ATOM     28  C   UNL     1     140.393  71.597 227.978 -0.77 -0.00    +0.000 C  
DOCKED: ATOM     29  C   UNL     1     140.078  70.118 228.249 -0.61 -0.00    +0.000 C  
DOCKED: ENDBRANCH  21  25
DOCKED: ENDBRANCH  17  19
DOCKED: ENDBRANCH   1  17
DOCKED: TORSDOF 5
DOCKED: TER
DOCKED: ENDMDL
________________________________________________________________________________


    FINAL DOCKED STATE:
    ________________________


Run:   16 / 20
Time taken for this run:   0.029s

DOCKED: MODEL        16
DOCKED: USER    Run = 16
DOCKED: USER
DOCKED: USER    Estimated Free Energy of Binding    =  -7.12 kcal/mol  [=(1)+(2)+(3)-(4)]
DOCKED: USER
DOCKED: USER    (1) Final Intermolecular Energy     =  -8.61 kcal/mol
DOCKED: USER        vdW + Hbond + desolv Energy     =  -8.60 kcal/mol
DOCKED: USER        Electrostatic Energy            =  -0.01 kcal/mol
DOCKED: USER        Moving Ligand-Fixed Receptor    =  -8.61 kcal/mol
DOCKED: USER        Moving Ligand-Moving Receptor   =  +0.00 kcal/mol
DOCKED: USER    (2) Final Total Internal Energy     =  -2.28 kcal/mol
DOCKED: USER    (3) Torsional Free Energy           =  +1.49 kcal/mol
DOCKED: USER    (4) Unbound System's Energy         =  -2.28 kcal/mol
DOCKED: USER
DOCKED: USER
DOCKED: REMARK SMILES O=C(NCC(=O)N1CCCC[C@H]1C1CCCC1)c1ccc2ccc(Cl)cc2n1
DOCKED: REMARK SMILES IDX 4 1 3 2 2 3 1 4 18 6 19 7 28 8 20 9 27 10 21 11 26 12 22 13
DOCKED: REMARK SMILES IDX 24 14 23 15 25 16 5 17 6 18 7 19 8 20 12 21 9 22 11 23 10 24
DOCKED: REMARK SMILES IDX 13 25 14 26 17 27 15 28 16 29
DOCKED: REMARK H PARENT 3 5
DOCKED: USER                              x       y       z     vdW  Elec       q    Type
DOCKED: USER                           _______ _______ _______ _____ _____    ______ ____
DOCKED: ROOT
DOCKED: ATOM      1  C   UNL     1     142.085  76.655 220.244 -0.16 -0.13    +0.216 C  
DOCKED: ENDROOT
DOCKED: BRANCH   1   2
DOCKED: ATOM      2  N   UNL     1     141.761  75.557 221.070 -0.13 +0.14    -0.342 N  
DOCKED: ATOM      3  C   UNL     1     140.732  74.659 220.529 -0.13 -0.06    +0.270 C  
DOCKED: ATOM      4  O   UNL     1     140.247  74.951 219.400 -0.03 +0.07    -0.268 OA 
DOCKED: ATOM      5  H   UNL     1     142.125  75.246 221.970 -0.42 -0.07    +0.164 HD 
DOCKED: BRANCH   3   6
DOCKED: ATOM      6  C   UNL     1     140.321  73.500 221.288 -0.21 -0.02    +0.128 A  
DOCKED: ATOM      7  C   UNL     1     139.476  72.601 220.676 -0.11 -0.01    +0.035 A  
DOCKED: ATOM      8  N   UNL     1     140.707  73.246 222.548 -0.53 -0.02    -0.243 NA 
DOCKED: ATOM      9  C   UNL     1     139.043  71.486 221.323 -0.13 -0.00    +0.013 A  
DOCKED: ATOM     10  C   UNL     1     140.292  72.151 223.207 -0.31 -0.01    +0.073 A  
DOCKED: ATOM     11  C   UNL     1     139.448  71.239 222.613 -0.26 -0.00    +0.000 A  
DOCKED: ATOM     12  C   UNL     1     140.690  71.894 224.496 -0.31 -0.01    +0.049 A  
DOCKED: ATOM     13  C   UNL     1     138.994  70.099 223.247 -0.25 -0.00    +0.012 A  
DOCKED: ATOM     14  C   UNL     1     140.256  70.765 225.160 -0.48 -0.01    +0.043 A  
DOCKED: ATOM     15  C   UNL     1     139.407  69.863 224.542 -0.35 -0.00    +0.021 A  
DOCKED: ATOM     16  Cl  UNL     1     140.745  70.405 226.812 -0.76 +0.01    -0.084 Cl 
DOCKED: ENDBRANCH   3   6
DOCKED: ENDBRANCH   1   2
DOCKED: BRANCH   1  17
DOCKED: ATOM     17  C   UNL     1     141.843  78.026 220.671 -0.19 -0.15    +0.242 C  
DOCKED: ATOM     18  O   UNL     1     141.686  78.825 219.630 -0.17 +0.16    -0.273 OA 
DOCKED: BRANCH  17  19
DOCKED: ATOM     19  N   UNL     1     141.747  78.659 221.892 -0.19 +0.18    -0.338 N  
DOCKED: ATOM     20  C   UNL     1     142.587  79.796 222.334 -0.45 -0.06    +0.120 C  
DOCKED: ATOM     21  C   UNL     1     140.728  78.332 222.919 -0.40 -0.02    +0.088 C  
DOCKED: ATOM     22  C   UNL     1     141.686  80.998 222.236 -0.49 -0.01    +0.022 C  
DOCKED: ATOM     23  C   UNL     1     140.600  79.460 223.895 -0.45 -0.00    +0.025 C  
DOCKED: ATOM     24  C   UNL     1     140.667  80.839 223.351 -0.47 -0.00    +0.004 C  
DOCKED: BRANCH  21  25
DOCKED: ATOM     25  C   UNL     1     139.481  77.884 222.305 -0.32 -0.00    +0.012 C  
DOCKED: ATOM     26  C   UNL     1     138.201  78.538 222.739 -0.26 -0.00    +0.006 C  
DOCKED: ATOM     27  C   UNL     1     139.103  76.439 222.707 -0.24 -0.00    +0.006 C  
DOCKED: ATOM     28  C   UNL     1     137.231  77.725 221.864 -0.16 -0.00    +0.000 C  
DOCKED: ATOM     29  C   UNL     1     137.845  76.319 221.820 -0.22 -0.00    +0.000 C  
DOCKED: ENDBRANCH  21  25
DOCKED: ENDBRANCH  17  19
DOCKED: ENDBRANCH   1  17
DOCKED: TORSDOF 5
DOCKED: TER
DOCKED: ENDMDL
________________________________________________________________________________


    FINAL DOCKED STATE:
    ________________________


Run:   17 / 20
Time taken for this run:   0.029s

DOCKED: MODEL        17
DOCKED: USER    Run = 17
DOCKED: USER
DOCKED: USER    Estimated Free Energy of Binding    =  -8.21 kcal/mol  [=(1)+(2)+(3)-(4)]
DOCKED: USER
DOCKED: USER    (1) Final Intermolecular Energy     =  -9.70 kcal/mol
DOCKED: USER        vdW + Hbond + desolv Energy     =  -9.65 kcal/mol
DOCKED: USER        Electrostatic Energy            =  -0.05 kcal/mol
DOCKED: USER        Moving Ligand-Fixed Receptor    =  -9.70 kcal/mol
DOCKED: USER        Moving Ligand-Moving Receptor   =  +0.00 kcal/mol
DOCKED: USER    (2) Final Total Internal Energy     =  -1.65 kcal/mol
DOCKED: USER    (3) Torsional Free Energy           =  +1.49 kcal/mol
DOCKED: USER    (4) Unbound System's Energy         =  -1.65 kcal/mol
DOCKED: USER
DOCKED: USER
DOCKED: REMARK SMILES O=C(NCC(=O)N1CCCC[C@H]1C1CCCC1)c1ccc2ccc(Cl)cc2n1
DOCKED: REMARK SMILES IDX 4 1 3 2 2 3 1 4 18 6 19 7 28 8 20 9 27 10 21 11 26 12 22 13
DOCKED: REMARK SMILES IDX 24 14 23 15 25 16 5 17 6 18 7 19 8 20 12 21 9 22 11 23 10 24
DOCKED: REMARK SMILES IDX 13 25 14 26 17 27 15 28 16 29
DOCKED: REMARK H PARENT 3 5
DOCKED: USER                              x       y       z     vdW  Elec       q    Type
DOCKED: USER                           _______ _______ _______ _____ _____    ______ ____
DOCKED: ROOT
DOCKED: ATOM      1  C   UNL     1     136.326  69.241 224.803 -0.14 -0.01    +0.216 C  
DOCKED: ENDROOT
DOCKED: BRANCH   1   2
DOCKED: ATOM      2  N   UNL     1     135.697  70.473 225.087 -0.00 +0.03    -0.342 N  
DOCKED: ATOM      3  C   UNL     1     134.577  70.391 226.032 -0.16 -0.01    +0.270 C  
DOCKED: ATOM      4  O   UNL     1     134.289  69.249 226.491 -0.67 -0.00    -0.268 OA 
DOCKED: ATOM      5  H   UNL     1     135.887  71.426 224.779 +0.05 -0.02    +0.164 HD 
DOCKED: BRANCH   3   6
DOCKED: ATOM      6  C   UNL     1     133.857  71.590 226.397 -0.31 -0.01    +0.128 A  
DOCKED: ATOM      7  C   UNL     1     132.738  71.450 227.188 -0.34 -0.00    +0.035 A  
DOCKED: ATOM      8  N   UNL     1     134.209  72.828 226.015 -0.33 -0.01    -0.243 NA 
DOCKED: ATOM      9  C   UNL     1     132.007  72.530 227.574 -0.38 -0.00    +0.013 A  
DOCKED: ATOM     10  C   UNL     1     133.502  73.910 226.385 -0.29 +0.00    +0.073 A  
DOCKED: ATOM     11  C   UNL     1     132.380  73.791 227.176 -0.42 -0.00    +0.000 A  
DOCKED: ATOM     12  C   UNL     1     133.864  75.174 225.993 -0.35 -0.00    +0.049 A  
DOCKED: ATOM     13  C   UNL     1     131.620  74.869 227.582 -0.37 -0.00    +0.012 A  
DOCKED: ATOM     14  C   UNL     1     133.128  76.275 226.380 -0.30 -0.00    +0.043 A  
DOCKED: ATOM     15  C   UNL     1     132.004  76.131 227.175 -0.32 -0.00    +0.021 A  
DOCKED: ATOM     16  Cl  UNL     1     133.565  77.909 225.895 -0.15 +0.01    -0.084 Cl 
DOCKED: ENDBRANCH   3   6
DOCKED: ENDBRANCH   1   2
DOCKED: BRANCH   1  17
DOCKED: ATOM     17  C   UNL     1     137.775  69.128 224.722 -0.19 -0.02    +0.242 C  
DOCKED: ATOM     18  O   UNL     1     138.223  68.190 225.541 -0.43 -0.01    -0.273 OA 
DOCKED: BRANCH  17  19
DOCKED: ATOM     19  N   UNL     1     138.760  69.768 224.001 -0.12 +0.05    -0.338 N  
DOCKED: ATOM     20  C   UNL     1     138.642  70.200 222.589 -0.16 -0.02    +0.120 C  
DOCKED: ATOM     21  C   UNL     1     140.068  70.181 224.565 -0.34 -0.01    +0.088 C  
DOCKED: ATOM     22  C   UNL     1     138.463  71.693 222.660 -0.21 -0.01    +0.022 C  
DOCKED: ATOM     23  C   UNL     1     140.701  71.220 223.692 -0.27 -0.00    +0.025 C  
DOCKED: ATOM     24  C   UNL     1     139.807  72.246 223.101 -0.26 -0.00    +0.004 C  
DOCKED: BRANCH  21  25
DOCKED: ATOM     25  C   UNL     1     139.949  70.531 225.978 -0.52 -0.00    +0.012 C  
DOCKED: ATOM     26  C   UNL     1     140.830  71.621 226.516 -0.69 -0.00    +0.006 C  
DOCKED: ATOM     27  C   UNL     1     140.443  69.406 226.916 -0.59 -0.00    +0.006 C  
DOCKED: ATOM     28  C   UNL     1     140.362  71.580 227.981 -0.76 -0.00    +0.000 C  
DOCKED: ATOM     29  C   UNL     1     140.078  70.095 228.248 -0.61 -0.00    +0.000 C  
DOCKED: ENDBRANCH  21  25
DOCKED: ENDBRANCH  17  19
DOCKED: ENDBRANCH   1  17
DOCKED: TORSDOF 5
DOCKED: TER
DOCKED: ENDMDL
________________________________________________________________________________


    FINAL DOCKED STATE:
    ________________________


Run:   18 / 20
Time taken for this run:   0.029s

DOCKED: MODEL        18
DOCKED: USER    Run = 18
DOCKED: USER
DOCKED: USER    Estimated Free Energy of Binding    =  -6.68 kcal/mol  [=(1)+(2)+(3)-(4)]
DOCKED: USER
DOCKED: USER    (1) Final Intermolecular Energy     =  -8.17 kcal/mol
DOCKED: USER        vdW + Hbond + desolv Energy     =  -8.12 kcal/mol
DOCKED: USER        Electrostatic Energy            =  -0.05 kcal/mol
DOCKED: USER        Moving Ligand-Fixed Receptor    =  -8.17 kcal/mol
DOCKED: USER        Moving Ligand-Moving Receptor   =  +0.00 kcal/mol
DOCKED: USER    (2) Final Total Internal Energy     =  -2.65 kcal/mol
DOCKED: USER    (3) Torsional Free Energy           =  +1.49 kcal/mol
DOCKED: USER    (4) Unbound System's Energy         =  -2.65 kcal/mol
DOCKED: USER
DOCKED: USER
DOCKED: REMARK SMILES O=C(NCC(=O)N1CCCC[C@H]1C1CCCC1)c1ccc2ccc(Cl)cc2n1
DOCKED: REMARK SMILES IDX 4 1 3 2 2 3 1 4 18 6 19 7 28 8 20 9 27 10 21 11 26 12 22 13
DOCKED: REMARK SMILES IDX 24 14 23 15 25 16 5 17 6 18 7 19 8 20 12 21 9 22 11 23 10 24
DOCKED: REMARK SMILES IDX 13 25 14 26 17 27 15 28 16 29
DOCKED: REMARK H PARENT 3 5
DOCKED: USER                              x       y       z     vdW  Elec       q    Type
DOCKED: USER                           _______ _______ _______ _____ _____    ______ ____
DOCKED: ROOT
DOCKED: ATOM      1  C   UNL     1     141.476  81.439 219.665 -0.19 -0.08    +0.216 C  
DOCKED: ENDROOT
DOCKED: BRANCH   1   2
DOCKED: ATOM      2  N   UNL     1     141.905  80.143 220.030 -0.14 +0.17    -0.342 N  
DOCKED: ATOM      3  C   UNL     1     141.014  79.056 219.607 -0.12 -0.12    +0.270 C  
DOCKED: ATOM      4  O   UNL     1     139.971  79.378 218.971 -0.03 +0.09    -0.268 OA 
DOCKED: ATOM      5  H   UNL     1     142.736  79.808 220.515 -0.22 -0.13    +0.164 HD 
DOCKED: BRANCH   3   6
DOCKED: ATOM      6  C   UNL     1     141.351  77.687 219.925 -0.19 -0.06    +0.128 A  
DOCKED: ATOM      7  C   UNL     1     140.347  76.875 220.406 -0.16 -0.01    +0.035 A  
DOCKED: ATOM      8  N   UNL     1     142.577  77.159 219.784 -0.22 +0.17    -0.243 NA 
DOCKED: ATOM      9  C   UNL     1     140.584  75.575 220.729 -0.24 -0.00    +0.013 A  
DOCKED: ATOM     10  C   UNL     1     142.835  75.877 220.097 -0.28 -0.04    +0.073 A  
DOCKED: ATOM     11  C   UNL     1     141.845  75.049 220.578 -0.30 -0.00    +0.000 A  
DOCKED: ATOM     12  C   UNL     1     144.090  75.340 219.951 -0.35 -0.03    +0.049 A  
DOCKED: ATOM     13  C   UNL     1     142.058  73.726 220.913 -0.26 -0.00    +0.012 A  
DOCKED: ATOM     14  C   UNL     1     144.339  74.022 220.276 -0.44 -0.01    +0.043 A  
DOCKED: ATOM     15  C   UNL     1     143.328  73.209 220.758 -0.29 -0.00    +0.021 A  
DOCKED: ATOM     16  Cl  UNL     1     145.935  73.303 220.102 -0.72 -0.01    -0.084 Cl 
DOCKED: ENDBRANCH   3   6
DOCKED: ENDBRANCH   1   2
DOCKED: BRANCH   1  17
DOCKED: ATOM     17  C   UNL     1     140.563  82.202 220.503 -0.18 -0.06    +0.242 C  
DOCKED: ATOM     18  O   UNL     1     140.859  83.491 220.474 -0.18 +0.06    -0.273 OA 
DOCKED: BRANCH  17  19
DOCKED: ATOM     19  N   UNL     1     139.485  81.886 221.302 -0.07 +0.06    -0.338 N  
DOCKED: ATOM     20  C   UNL     1     138.063  81.968 220.892 -0.08 -0.02    +0.120 C  
DOCKED: ATOM     21  C   UNL     1     139.600  81.346 222.678 -0.25 -0.01    +0.088 C  
DOCKED: ATOM     22  C   UNL     1     137.646  80.539 220.674 -0.06 -0.00    +0.022 C  
DOCKED: ATOM     23  C   UNL     1     138.314  80.697 223.087 -0.29 -0.00    +0.025 C  
DOCKED: ATOM     24  C   UNL     1     137.593  79.912 222.056 -0.15 -0.00    +0.004 C  
DOCKED: BRANCH  21  25
DOCKED: ATOM     25  C   UNL     1     140.797  80.522 222.826 -0.45 -0.00    +0.012 C  
DOCKED: ATOM     26  C   UNL     1     140.732  79.332 223.738 -0.51 -0.00    +0.006 C  
DOCKED: ATOM     27  C   UNL     1     141.944  81.260 223.555 -0.61 -0.00    +0.006 C  
DOCKED: ATOM     28  C   UNL     1     142.184  78.850 223.575 -0.51 -0.00    +0.000 C  
DOCKED: ATOM     29  C   UNL     1     143.000  80.142 223.429 -0.63 -0.00    +0.000 C  
DOCKED: ENDBRANCH  21  25
DOCKED: ENDBRANCH  17  19
DOCKED: ENDBRANCH   1  17
DOCKED: TORSDOF 5
DOCKED: TER
DOCKED: ENDMDL
________________________________________________________________________________


    FINAL DOCKED STATE:
    ________________________


Run:   19 / 20
Time taken for this run:   0.029s

DOCKED: MODEL        19
DOCKED: USER    Run = 19
DOCKED: USER
DOCKED: USER    Estimated Free Energy of Binding    =  -7.31 kcal/mol  [=(1)+(2)+(3)-(4)]
DOCKED: USER
DOCKED: USER    (1) Final Intermolecular Energy     =  -8.80 kcal/mol
DOCKED: USER        vdW + Hbond + desolv Energy     =  -8.77 kcal/mol
DOCKED: USER        Electrostatic Energy            =  -0.04 kcal/mol
DOCKED: USER        Moving Ligand-Fixed Receptor    =  -8.80 kcal/mol
DOCKED: USER        Moving Ligand-Moving Receptor   =  +0.00 kcal/mol
DOCKED: USER    (2) Final Total Internal Energy     =  -2.24 kcal/mol
DOCKED: USER    (3) Torsional Free Energy           =  +1.49 kcal/mol
DOCKED: USER    (4) Unbound System's Energy         =  -2.24 kcal/mol
DOCKED: USER
DOCKED: USER
DOCKED: REMARK SMILES O=C(NCC(=O)N1CCCC[C@H]1C1CCCC1)c1ccc2ccc(Cl)cc2n1
DOCKED: REMARK SMILES IDX 4 1 3 2 2 3 1 4 18 6 19 7 28 8 20 9 27 10 21 11 26 12 22 13
DOCKED: REMARK SMILES IDX 24 14 23 15 25 16 5 17 6 18 7 19 8 20 12 21 9 22 11 23 10 24
DOCKED: REMARK SMILES IDX 13 25 14 26 17 27 15 28 16 29
DOCKED: REMARK H PARENT 3 5
DOCKED: USER                              x       y       z     vdW  Elec       q    Type
DOCKED: USER                           _______ _______ _______ _____ _____    ______ ____
DOCKED: ROOT
DOCKED: ATOM      1  C   UNL     1     140.500  72.822 219.632 -0.04 -0.04    +0.216 C  
DOCKED: ENDROOT
DOCKED: BRANCH   1   2
DOCKED: ATOM      2  N   UNL     1     140.213  74.152 220.011 -0.02 +0.07    -0.342 N  
DOCKED: ATOM      3  C   UNL     1     140.343  74.427 221.448 -0.20 -0.04    +0.270 C  
DOCKED: ATOM      4  O   UNL     1     140.692  73.466 222.190 -0.72 -0.00    -0.268 OA 
DOCKED: ATOM      5  H   UNL     1     139.954  74.977 219.472 +0.03 -0.04    +0.164 HD 
DOCKED: BRANCH   3   6
DOCKED: ATOM      6  C   UNL     1     140.073  75.754 221.951 -0.30 -0.03    +0.128 A  
DOCKED: ATOM      7  C   UNL     1     138.755  76.120 222.118 -0.29 -0.01    +0.035 A  
DOCKED: ATOM      8  N   UNL     1     141.021  76.650 222.265 -0.27 +0.09    -0.243 NA 
DOCKED: ATOM      9  C   UNL     1     138.419  77.351 222.587 -0.29 -0.00    +0.013 A  
DOCKED: ATOM     10  C   UNL     1     140.712  77.873 222.730 -0.41 -0.02    +0.073 A  
DOCKED: ATOM     11  C   UNL     1     139.402  78.258 222.905 -0.32 -0.00    +0.000 A  
DOCKED: ATOM     12  C   UNL     1     141.685  78.787 223.050 -0.53 -0.02    +0.049 A  
DOCKED: ATOM     13  C   UNL     1     139.032  79.501 223.379 -0.37 -0.00    +0.012 A  
DOCKED: ATOM     14  C   UNL     1     141.353  80.039 223.527 -0.53 -0.01    +0.043 A  
DOCKED: ATOM     15  C   UNL     1     140.028  80.403 223.693 -0.41 -0.00    +0.021 A  
DOCKED: ATOM     16  Cl  UNL     1     142.574  81.234 223.946 -0.69 +0.01    -0.084 Cl 
DOCKED: ENDBRANCH   3   6
DOCKED: ENDBRANCH   1   2
DOCKED: BRANCH   1  17
DOCKED: ATOM     17  C   UNL     1     141.871  72.347 219.506 -0.06 -0.04    +0.242 C  
DOCKED: ATOM     18  O   UNL     1     141.965  71.416 218.572 -0.02 +0.04    -0.273 OA 
DOCKED: BRANCH  17  19
DOCKED: ATOM     19  N   UNL     1     143.062  72.644 220.132 -0.08 +0.05    -0.338 N  
DOCKED: ATOM     20  C   UNL     1     144.080  71.651 220.550 -0.20 -0.02    +0.120 C  
DOCKED: ATOM     21  C   UNL     1     143.531  74.022 220.417 -0.33 -0.03    +0.088 C  
DOCKED: ATOM     22  C   UNL     1     145.187  71.791 219.539 -0.32 +0.01    +0.022 C  
DOCKED: ATOM     23  C   UNL     1     145.006  74.023 220.672 -0.52 -0.01    +0.025 C  
DOCKED: ATOM     24  C   UNL     1     145.840  73.131 219.831 -0.50 +0.00    +0.004 C  
DOCKED: BRANCH  21  25
DOCKED: ATOM     25  C   UNL     1     143.065  74.961 219.399 -0.31 -0.00    +0.012 C  
DOCKED: ATOM     26  C   UNL     1     143.687  74.893 218.034 -0.20 -0.00    +0.006 C  
DOCKED: ATOM     27  C   UNL     1     143.454  76.424 219.714 -0.35 -0.00    +0.006 C  
DOCKED: ATOM     28  C   UNL     1     142.913  76.051 217.382 -0.21 -0.00    +0.000 C  
DOCKED: ATOM     29  C   UNL     1     142.733  77.073 218.513 -0.33 -0.00    +0.000 C  
DOCKED: ENDBRANCH  21  25
DOCKED: ENDBRANCH  17  19
DOCKED: ENDBRANCH   1  17
DOCKED: TORSDOF 5
DOCKED: TER
DOCKED: ENDMDL
________________________________________________________________________________


    FINAL DOCKED STATE:
    ________________________


Run:   20 / 20
Time taken for this run:   0.029s

DOCKED: MODEL        20
DOCKED: USER    Run = 20
DOCKED: USER
DOCKED: USER    Estimated Free Energy of Binding    =  -7.36 kcal/mol  [=(1)+(2)+(3)-(4)]
DOCKED: USER
DOCKED: USER    (1) Final Intermolecular Energy     =  -8.85 kcal/mol
DOCKED: USER        vdW + Hbond + desolv Energy     =  -8.81 kcal/mol
DOCKED: USER        Electrostatic Energy            =  -0.03 kcal/mol
DOCKED: USER        Moving Ligand-Fixed Receptor    =  -8.85 kcal/mol
DOCKED: USER        Moving Ligand-Moving Receptor   =  +0.00 kcal/mol
DOCKED: USER    (2) Final Total Internal Energy     =  -2.18 kcal/mol
DOCKED: USER    (3) Torsional Free Energy           =  +1.49 kcal/mol
DOCKED: USER    (4) Unbound System's Energy         =  -2.18 kcal/mol
DOCKED: USER
DOCKED: USER
DOCKED: REMARK SMILES O=C(NCC(=O)N1CCCC[C@H]1C1CCCC1)c1ccc2ccc(Cl)cc2n1
DOCKED: REMARK SMILES IDX 4 1 3 2 2 3 1 4 18 6 19 7 28 8 20 9 27 10 21 11 26 12 22 13
DOCKED: REMARK SMILES IDX 24 14 23 15 25 16 5 17 6 18 7 19 8 20 12 21 9 22 11 23 10 24
DOCKED: REMARK SMILES IDX 13 25 14 26 17 27 15 28 16 29
DOCKED: REMARK H PARENT 3 5
DOCKED: USER                              x       y       z     vdW  Elec       q    Type
DOCKED: USER                           _______ _______ _______ _____ _____    ______ ____
DOCKED: ROOT
DOCKED: ATOM      1  C   UNL     1     140.473  72.855 219.713 -0.04 -0.04    +0.216 C  
DOCKED: ENDROOT
DOCKED: BRANCH   1   2
DOCKED: ATOM      2  N   UNL     1     140.230  74.201 220.066 -0.02 +0.07    -0.342 N  
DOCKED: ATOM      3  C   UNL     1     140.192  74.463 221.510 -0.20 -0.04    +0.270 C  
DOCKED: ATOM      4  O   UNL     1     140.376  73.479 222.281 -0.78 +0.00    -0.268 OA 
DOCKED: ATOM      5  H   UNL     1     140.099  75.042 219.506 +0.04 -0.04    +0.164 HD 
DOCKED: BRANCH   3   6
DOCKED: ATOM      6  C   UNL     1     139.951  75.805 221.988 -0.30 -0.02    +0.128 A  
DOCKED: ATOM      7  C   UNL     1     138.641  76.201 222.149 -0.28 -0.01    +0.035 A  
DOCKED: ATOM      8  N   UNL     1     140.918  76.687 222.284 -0.27 +0.09    -0.243 NA 
DOCKED: ATOM      9  C   UNL     1     138.331  77.449 222.595 -0.28 -0.00    +0.013 A  
DOCKED: ATOM     10  C   UNL     1     140.635  77.925 222.726 -0.40 -0.02    +0.073 A  
DOCKED: ATOM     11  C   UNL     1     139.333  78.340 222.895 -0.32 -0.00    +0.000 A  
DOCKED: ATOM     12  C   UNL     1     141.628  78.824 223.028 -0.52 -0.02    +0.049 A  
DOCKED: ATOM     13  C   UNL     1     138.990  79.600 223.345 -0.37 -0.00    +0.012 A  
DOCKED: ATOM     14  C   UNL     1     141.322  80.091 223.482 -0.52 -0.01    +0.043 A  
DOCKED: ATOM     15  C   UNL     1     140.005  80.487 223.642 -0.41 -0.00    +0.021 A  
DOCKED: ATOM     16  Cl  UNL     1     142.568  81.269 223.877 -0.69 +0.01    -0.084 Cl 
DOCKED: ENDBRANCH   3   6
DOCKED: ENDBRANCH   1   2
DOCKED: BRANCH   1  17
DOCKED: ATOM     17  C   UNL     1     141.825  72.349 219.530 -0.06 -0.04    +0.242 C  
DOCKED: ATOM     18  O   UNL     1     141.860  71.421 218.588 -0.02 +0.04    -0.273 OA 
DOCKED: BRANCH  17  19
DOCKED: ATOM     19  N   UNL     1     143.048  72.615 220.109 -0.08 +0.05    -0.338 N  
DOCKED: ATOM     20  C   UNL     1     144.059  71.597 220.479 -0.21 -0.02    +0.120 C  
DOCKED: ATOM     21  C   UNL     1     143.558  73.981 220.383 -0.33 -0.03    +0.088 C  
DOCKED: ATOM     22  C   UNL     1     145.127  71.719 219.426 -0.31 +0.01    +0.022 C  
DOCKED: ATOM     23  C   UNL     1     145.042  73.947 220.578 -0.54 -0.01    +0.025 C  
DOCKED: ATOM     24  C   UNL     1     145.822  73.042 219.698 -0.47 +0.00    +0.004 C  
DOCKED: BRANCH  21  25
DOCKED: ATOM     25  C   UNL     1     143.073  74.936 219.390 -0.31 -0.00    +0.012 C  
DOCKED: ATOM     26  C   UNL     1     143.663  74.886 218.010 -0.20 -0.00    +0.006 C  
DOCKED: ATOM     27  C   UNL     1     143.475  76.393 219.716 -0.36 -0.00    +0.006 C  
DOCKED: ATOM     28  C   UNL     1     142.879  76.057 217.393 -0.21 -0.00    +0.000 C  
DOCKED: ATOM     29  C   UNL     1     142.729  77.063 218.543 -0.33 -0.00    +0.000 C  
DOCKED: ENDBRANCH  21  25
DOCKED: ENDBRANCH  17  19
DOCKED: ENDBRANCH   1  17
DOCKED: TORSDOF 5
DOCKED: TER
DOCKED: ENDMDL
________________________________________________________________________________


    CLUSTERING HISTOGRAM
    ____________________


________________________________________________________________________________
     |           |     |           |     |
Clus | Lowest    | Run | Mean      | Num | Histogram
-ter | Binding   |     | Binding   | in  |
Rank | Energy    |     | Energy    | Clus|    5    10   15   20   25   30   35
_____|___________|_____|___________|_____|____:____|____:____|____:____|____:___
   1 |     -8.32 |  11 |     -7.65 |   7 |#######
   2 |     -8.21 |  17 |     -8.21 |   2 |##
   3 |     -7.36 |  20 |     -7.33 |   6 |######
   4 |     -7.06 |   5 |     -7.06 |   1 |#
   5 |     -6.68 |  18 |     -6.64 |   4 |####
_____|___________|_____|___________|_____|______________________________________


    RMSD TABLE
    __________


_______________________________________________________________________
     |      |      |           |         |                 |
Rank | Sub- | Run  | Binding   | Cluster | Reference       | Grep
     | Rank |      | Energy    | RMSD    | RMSD            | Pattern
_____|______|______|___________|_________|_________________|___________
   1      1     11       -8.32      0.00    271.35           RANKING
   1      2      1       -8.18      0.79    271.41           RANKING
   1      3      8       -7.90      1.04    271.57           RANKING
   1      4     12       -7.86      1.08    271.66           RANKING
   1      5     16       -7.12      1.96    271.31           RANKING
   1      6      4       -7.07      1.95    271.28           RANKING
   1      7     13       -7.06      1.97    271.29           RANKING
   2      1     17       -8.21      0.00    271.21           RANKING
   2      2     15       -8.21      0.06    271.20           RANKING
   3      1     20       -7.36      0.00    270.95           RANKING
   3      2      3       -7.35      0.06    270.96           RANKING
   3      3      6       -7.33      0.15    271.01           RANKING
   3      4     10       -7.32      0.13    270.99           RANKING
   3      5     19       -7.31      0.12    270.97           RANKING
   3      6     14       -7.29      0.12    270.94           RANKING
   4      1      5       -7.06      0.00    271.25           RANKING
   5      1     18       -6.68      0.00    271.67           RANKING
   5      2      2       -6.65      0.07    271.65           RANKING
   5      3      9       -6.64      0.08    271.63           RANKING
   5      4      7       -6.61      0.11    271.65           RANKING

Run time 0.542 sec
Idle time 0.000 sec
