AutoDock-GPU version: v1.6

**********************************************************
**    AutoDock-GPU AUTODOCKTOOLS-COMPATIBLE DLG FILE    **
**********************************************************


    DOCKING PARAMETERS
    ________________________


Ligand file:                               /home/a/REINVENT4/ReinventStudies/pleaseWork/justmol2mol_4_Compounds_ontop/graph-dock-hn62wh/graph-DockGPU/node-autodockgpu/inputs/KRTGUGHRFGRYOX-GOANIERMNA-N.pdbqt
Grid fld file:                             /home/a/REINVENT4/ReinventStudies/mols/Rad51/maps/rad51_receptor.maps.fld

Random seed:                               42
Number of runs:                            20
Number of energy evaluations:              1132076
Number of generations:                     42000
Size of population:                        150
Rate of crossover:                         80.000000%
Tournament selection probability limit:    60.000000%
Rate of mutation:                          2.000000%
Maximal allowed delta movement:            +/- 6.000000A
Maximal allowed delta angle:               +/- 90.000000

Rate of local search:                      100.000000%
Maximal number of local search iterations: 300
Rho lower bound:                           0.010000
Spread of local search delta movement:     2.000000A
Spread of local search delta angle:        74.999999
Limit of consecutive successes/failures:   4

Handle symmetry during clustering:         YES
RMSD tolerance:                            2.000000A

Program call in command line was:          /home/a/REINVENT4/ReinventStudies/adgpu-v1.6_linux_x64_cuda12_128wi --filelist batch.txt --heuristics 1 --nrun 20 --psize 150 --lsit 300 --seed 42 --heurmax 12000000 


    GRID PARAMETERS
    ________________________


Receptor name:                             rad51_receptor
Number of grid points (x, y, z):           53, 53, 53
Grid center (x, y, z):                     139.950000, 75.640000, 221.970000A
Grid size (x, y, z):                       19.500000, 19.500000, 19.500000A
Grid spacing:                              0.375000A


    LIGAND PARAMETERS
    ________________________


Ligand name:                               /home/a/REINVENT4/ReinventStudies/pleaseWork/justmol2mol_4_Compounds_ontop/graph-dock-hn62wh/graph-DockGPU/node-autodockgpu/inputs/KRTGUGHRFGRYOX-GOANIERMNA-N
Number of atoms:                           29
Number of rotatable bonds:                 5
Number of atom types:                      7


    DUMMY DATA (only for ADT-compatibility)
    ________________________


DPF> outlev 1
DPF> ga_run 20
DPF> fld /home/a/REINVENT4/ReinventStudies/mols/Rad51/maps/rad51_receptor.maps.fld
DPF> move /home/a/REINVENT4/ReinventStudies/pleaseWork/justmol2mol_4_Compounds_ontop/graph-dock-hn62wh/graph-DockGPU/node-autodockgpu/inputs/KRTGUGHRFGRYOX-GOANIERMNA-N.pdbqt


    COUNTER STATES
    ________________________


Number of energy evaluations performed:    1130078
Number of generations used:                55


    INPUT LIGAND PDBQT FILE:
    ________________________


INPUT-LIGAND-PDBQT: REMARK SMILES O=C(NCC(=O)N1CCCC[C@@H]1C1CCCC1)c1ccc2ccc(Cl)cc2n1
INPUT-LIGAND-PDBQT: REMARK SMILES IDX 4 1 3 2 2 3 1 4 18 6 19 7 28 8 20 9 27 10 21 11 26 12 22 13
INPUT-LIGAND-PDBQT: REMARK SMILES IDX 24 14 23 15 25 16 5 17 6 18 7 19 8 20 12 21 9 22 11 23 10 24
INPUT-LIGAND-PDBQT: REMARK SMILES IDX 13 25 14 26 17 27 15 28 16 29
INPUT-LIGAND-PDBQT: REMARK H PARENT 3 5
INPUT-LIGAND-PDBQT: ROOT
INPUT-LIGAND-PDBQT: ATOM      1  C   UNL     1       0.357  -1.103  -0.125  1.00  0.00     0.216 C 
INPUT-LIGAND-PDBQT: ENDROOT
INPUT-LIGAND-PDBQT: BRANCH   1   2
INPUT-LIGAND-PDBQT: ATOM      2  N   UNL     1       1.649  -0.486  -0.043  1.00  0.00    -0.342 N 
INPUT-LIGAND-PDBQT: ATOM      3  C   UNL     1       2.771  -1.239  -0.514  1.00  0.00     0.270 C 
INPUT-LIGAND-PDBQT: ATOM      4  O   UNL     1       2.494  -2.396  -0.964  1.00  0.00    -0.268 OA
INPUT-LIGAND-PDBQT: ATOM      5  H   UNL     1       1.804   0.477   0.341  1.00  0.00     0.164 HD
INPUT-LIGAND-PDBQT: BRANCH   3   6
INPUT-LIGAND-PDBQT: ATOM      6  C   UNL     1       4.127  -0.715  -0.480  1.00  0.00     0.128 A 
INPUT-LIGAND-PDBQT: ATOM      7  C   UNL     1       5.133  -1.525  -0.960  1.00  0.00     0.035 A 
INPUT-LIGAND-PDBQT: ATOM      8  N   UNL     1       4.456   0.488  -0.018  1.00  0.00    -0.243 NA
INPUT-LIGAND-PDBQT: ATOM      9  C   UNL     1       6.434  -1.095  -0.958  1.00  0.00     0.013 A 
INPUT-LIGAND-PDBQT: ATOM     10  C   UNL     1       5.726   0.937  -0.004  1.00  0.00     0.073 A 
INPUT-LIGAND-PDBQT: ATOM     11  C   UNL     1       6.755   0.138  -0.482  1.00  0.00     0.000 A 
INPUT-LIGAND-PDBQT: ATOM     12  C   UNL     1       5.999   2.200   0.491  1.00  0.00     0.049 A 
INPUT-LIGAND-PDBQT: ATOM     13  C   UNL     1       8.067   0.578  -0.477  1.00  0.00     0.012 A 
INPUT-LIGAND-PDBQT: ATOM     14  C   UNL     1       7.305   2.661   0.505  1.00  0.00     0.043 A 
INPUT-LIGAND-PDBQT: ATOM     15  C   UNL     1       8.304   1.838   0.021  1.00  0.00     0.021 A 
INPUT-LIGAND-PDBQT: ATOM     16  Cl  UNL     1       7.756   4.226   1.103  1.00  0.00    -0.084 Cl
INPUT-LIGAND-PDBQT: ENDBRANCH   3   6
INPUT-LIGAND-PDBQT: ENDBRANCH   1   2
INPUT-LIGAND-PDBQT: BRANCH   1  17
INPUT-LIGAND-PDBQT: ATOM     17  C   UNL     1      -0.730  -0.231   0.392  1.00  0.00     0.242 C 
INPUT-LIGAND-PDBQT: ATOM     18  O   UNL     1      -0.497   0.931   0.849  1.00  0.00    -0.273 OA
INPUT-LIGAND-PDBQT: BRANCH  17  19
INPUT-LIGAND-PDBQT: ATOM     19  N   UNL     1      -2.052  -0.759   0.351  1.00  0.00    -0.338 N 
INPUT-LIGAND-PDBQT: ATOM     20  C   UNL     1      -2.372  -2.071  -0.158  1.00  0.00     0.120 C 
INPUT-LIGAND-PDBQT: ATOM     21  C   UNL     1      -3.148   0.052   0.844  1.00  0.00     0.088 C 
INPUT-LIGAND-PDBQT: ATOM     22  C   UNL     1      -3.488  -2.780   0.501  1.00  0.00     0.022 C 
INPUT-LIGAND-PDBQT: ATOM     23  C   UNL     1      -3.736  -0.727   1.968  1.00  0.00     0.025 C 
INPUT-LIGAND-PDBQT: ATOM     24  C   UNL     1      -4.191  -2.092   1.611  1.00  0.00     0.004 C 
INPUT-LIGAND-PDBQT: BRANCH  21  25
INPUT-LIGAND-PDBQT: ATOM     25  C   UNL     1      -4.129   0.353  -0.260  1.00  0.00     0.012 C 
INPUT-LIGAND-PDBQT: ATOM     26  C   UNL     1      -3.453   1.102  -1.376  1.00  0.00     0.006 C 
INPUT-LIGAND-PDBQT: ATOM     27  C   UNL     1      -5.311   1.135   0.193  1.00  0.00     0.006 C 
INPUT-LIGAND-PDBQT: ATOM     28  C   UNL     1      -4.025   2.510  -1.210  1.00  0.00     0.000 C 
INPUT-LIGAND-PDBQT: ATOM     29  C   UNL     1      -5.475   2.195  -0.906  1.00  0.00     0.000 C 
INPUT-LIGAND-PDBQT: ENDBRANCH  21  25
INPUT-LIGAND-PDBQT: ENDBRANCH  17  19
INPUT-LIGAND-PDBQT: ENDBRANCH   1  17
INPUT-LIGAND-PDBQT: TORSDOF 5


    FINAL DOCKED STATE:
    ________________________


Run:   1 / 20
Time taken for this run:   0.045s

DOCKED: MODEL        1
DOCKED: USER    Run = 1
DOCKED: USER
DOCKED: USER    Estimated Free Energy of Binding    =  -8.67 kcal/mol  [=(1)+(2)+(3)-(4)]
DOCKED: USER
DOCKED: USER    (1) Final Intermolecular Energy     = -10.16 kcal/mol
DOCKED: USER        vdW + Hbond + desolv Energy     = -10.08 kcal/mol
DOCKED: USER        Electrostatic Energy            =  -0.08 kcal/mol
DOCKED: USER        Moving Ligand-Fixed Receptor    = -10.16 kcal/mol
DOCKED: USER        Moving Ligand-Moving Receptor   =  +0.00 kcal/mol
DOCKED: USER    (2) Final Total Internal Energy     =  -1.54 kcal/mol
DOCKED: USER    (3) Torsional Free Energy           =  +1.49 kcal/mol
DOCKED: USER    (4) Unbound System's Energy         =  -1.54 kcal/mol
DOCKED: USER
DOCKED: USER
DOCKED: REMARK SMILES O=C(NCC(=O)N1CCCC[C@@H]1C1CCCC1)c1ccc2ccc(Cl)cc2n1
DOCKED: REMARK SMILES IDX 4 1 3 2 2 3 1 4 18 6 19 7 28 8 20 9 27 10 21 11 26 12 22 13
DOCKED: REMARK SMILES IDX 24 14 23 15 25 16 5 17 6 18 7 19 8 20 12 21 9 22 11 23 10 24
DOCKED: REMARK SMILES IDX 13 25 14 26 17 27 15 28 16 29
DOCKED: REMARK H PARENT 3 5
DOCKED: USER                              x       y       z     vdW  Elec       q    Type
DOCKED: USER                           _______ _______ _______ _____ _____    ______ ____
DOCKED: ROOT
DOCKED: ATOM      1  C   UNL     1     140.564  74.732 221.241 -0.22 -0.04    +0.216 C  
DOCKED: ENDROOT
DOCKED: BRANCH   1   2
DOCKED: ATOM      2  N   UNL     1     139.998  73.801 222.174 -0.10 +0.03    -0.342 N  
DOCKED: ATOM      3  C   UNL     1     140.620  72.517 222.284 -0.19 -0.02    +0.270 C  
DOCKED: ATOM      4  O   UNL     1     141.627  72.338 221.528 -0.19 +0.02    -0.268 OA 
DOCKED: ATOM      5  H   UNL     1     139.162  74.018 222.768 -0.53 -0.05    +0.164 HD 
DOCKED: BRANCH   3   6
DOCKED: ATOM      6  C   UNL     1     140.132  71.495 223.196 -0.30 -0.02    +0.128 A  
DOCKED: ATOM      7  C   UNL     1     138.989  70.816 222.836 -0.23 -0.01    +0.035 A  
DOCKED: ATOM      8  N   UNL     1     140.716  71.175 224.347 -0.28 +0.03    -0.243 NA 
DOCKED: ATOM      9  C   UNL     1     138.474  69.839 223.648 -0.27 -0.00    +0.013 A  
DOCKED: ATOM     10  C   UNL     1     140.232  70.220 225.165 -0.42 -0.01    +0.073 A  
DOCKED: ATOM     11  C   UNL     1     139.082  69.524 224.823 -0.38 -0.00    +0.000 A  
DOCKED: ATOM     12  C   UNL     1     140.889  69.938 226.350 -0.51 -0.01    +0.049 A  
DOCKED: ATOM     13  C   UNL     1     138.566  68.540 225.647 -0.39 -0.00    +0.012 A  
DOCKED: ATOM     14  C   UNL     1     140.391  68.956 227.190 -0.59 -0.01    +0.043 A  
DOCKED: ATOM     15  C   UNL     1     139.243  68.283 226.817 -0.47 -0.00    +0.021 A  
DOCKED: ATOM     16  Cl  UNL     1     141.136  68.524 228.696 -0.68 +0.02    -0.084 Cl 
DOCKED: ENDBRANCH   3   6
DOCKED: ENDBRANCH   1   2
DOCKED: BRANCH   1  17
DOCKED: ATOM     17  C   UNL     1     140.399  76.146 221.669 -0.25 -0.06    +0.242 C  
DOCKED: ATOM     18  O   UNL     1     139.653  76.469 222.645 -0.30 +0.05    -0.273 OA 
DOCKED: BRANCH  17  19
DOCKED: ATOM     19  N   UNL     1     141.120  77.129 220.932 -0.12 +0.15    -0.338 N  
DOCKED: ATOM     20  C   UNL     1     142.242  76.822 220.077 -0.26 -0.07    +0.120 C  
DOCKED: ATOM     21  C   UNL     1     140.718  78.518 221.033 -0.24 -0.03    +0.088 C  
DOCKED: ATOM     22  C   UNL     1     142.397  77.656 218.867 -0.30 -0.01    +0.022 C  
DOCKED: ATOM     23  C   UNL     1     140.342  78.919 219.650 -0.13 -0.01    +0.025 C  
DOCKED: ATOM     24  C   UNL     1     141.408  78.737 218.636 -0.21 -0.00    +0.004 C  
DOCKED: BRANCH  21  25
DOCKED: ATOM     25  C   UNL     1     141.825  79.353 221.624 -0.43 -0.01    +0.012 C  
DOCKED: ATOM     26  C   UNL     1     142.095  78.941 223.045 -0.54 -0.00    +0.006 C  
DOCKED: ATOM     27  C   UNL     1     141.547  80.814 221.594 -0.42 -0.00    +0.006 C  
DOCKED: ATOM     28  C   UNL     1     141.514  80.114 223.835 -0.57 -0.00    +0.000 C  
DOCKED: ATOM     29  C   UNL     1     141.977  81.284 222.992 -0.56 -0.00    +0.000 C  
DOCKED: ENDBRANCH  21  25
DOCKED: ENDBRANCH  17  19
DOCKED: ENDBRANCH   1  17
DOCKED: TORSDOF 5
DOCKED: TER
DOCKED: ENDMDL
________________________________________________________________________________


    FINAL DOCKED STATE:
    ________________________


Run:   2 / 20
Time taken for this run:   0.045s

DOCKED: MODEL        2
DOCKED: USER    Run = 2
DOCKED: USER
DOCKED: USER    Estimated Free Energy of Binding    =  -8.27 kcal/mol  [=(1)+(2)+(3)-(4)]
DOCKED: USER
DOCKED: USER    (1) Final Intermolecular Energy     =  -9.76 kcal/mol
DOCKED: USER        vdW + Hbond + desolv Energy     =  -9.68 kcal/mol
DOCKED: USER        Electrostatic Energy            =  -0.07 kcal/mol
DOCKED: USER        Moving Ligand-Fixed Receptor    =  -9.76 kcal/mol
DOCKED: USER        Moving Ligand-Moving Receptor   =  +0.00 kcal/mol
DOCKED: USER    (2) Final Total Internal Energy     =  -1.51 kcal/mol
DOCKED: USER    (3) Torsional Free Energy           =  +1.49 kcal/mol
DOCKED: USER    (4) Unbound System's Energy         =  -1.51 kcal/mol
DOCKED: USER
DOCKED: USER
DOCKED: REMARK SMILES O=C(NCC(=O)N1CCCC[C@@H]1C1CCCC1)c1ccc2ccc(Cl)cc2n1
DOCKED: REMARK SMILES IDX 4 1 3 2 2 3 1 4 18 6 19 7 28 8 20 9 27 10 21 11 26 12 22 13
DOCKED: REMARK SMILES IDX 24 14 23 15 25 16 5 17 6 18 7 19 8 20 12 21 9 22 11 23 10 24
DOCKED: REMARK SMILES IDX 13 25 14 26 17 27 15 28 16 29
DOCKED: REMARK H PARENT 3 5
DOCKED: USER                              x       y       z     vdW  Elec       q    Type
DOCKED: USER                           _______ _______ _______ _____ _____    ______ ____
DOCKED: ROOT
DOCKED: ATOM      1  C   UNL     1     139.119  74.943 221.073 -0.14 -0.05    +0.216 C  
DOCKED: ENDROOT
DOCKED: BRANCH   1   2
DOCKED: ATOM      2  N   UNL     1     139.096  73.922 222.080 -0.10 +0.08    -0.342 N  
DOCKED: ATOM      3  C   UNL     1     139.323  72.574 221.658 -0.14 -0.05    +0.270 C  
DOCKED: ATOM      4  O   UNL     1     139.526  72.425 220.411 -0.04 +0.05    -0.268 OA 
DOCKED: ATOM      5  H   UNL     1     138.922  74.118 223.095 -0.56 -0.09    +0.164 HD 
DOCKED: BRANCH   3   6
DOCKED: ATOM      6  C   UNL     1     139.322  71.458 222.590 -0.22 -0.03    +0.128 A  
DOCKED: ATOM      7  C   UNL     1     138.747  70.279 222.169 -0.15 -0.01    +0.035 A  
DOCKED: ATOM      8  N   UNL     1     139.837  71.502 223.815 -0.26 +0.05    -0.243 NA 
DOCKED: ATOM      9  C   UNL     1     138.711  69.187 222.995 -0.23 -0.00    +0.013 A  
DOCKED: ATOM     10  C   UNL     1     139.816  70.445 224.650 -0.38 -0.01    +0.073 A  
DOCKED: ATOM     11  C   UNL     1     139.242  69.248 224.246 -0.33 -0.00    +0.000 A  
DOCKED: ATOM     12  C   UNL     1     140.370  70.559 225.912 -0.52 -0.01    +0.049 A  
DOCKED: ATOM     13  C   UNL     1     139.209  68.148 225.086 -0.44 -0.00    +0.012 A  
DOCKED: ATOM     14  C   UNL     1     140.349  69.471 226.769 -0.53 -0.01    +0.043 A  
DOCKED: ATOM     15  C   UNL     1     139.768  68.295 226.334 -0.58 -0.00    +0.021 A  
DOCKED: ATOM     16  Cl  UNL     1     141.014  69.508 228.371 -0.62 +0.02    -0.084 Cl 
DOCKED: ENDBRANCH   3   6
DOCKED: ENDBRANCH   1   2
DOCKED: BRANCH   1  17
DOCKED: ATOM     17  C   UNL     1     139.483  76.278 221.617 -0.20 -0.06    +0.242 C  
DOCKED: ATOM     18  O   UNL     1     138.773  76.860 222.495 -0.23 +0.05    -0.273 OA 
DOCKED: BRANCH  17  19
DOCKED: ATOM     19  N   UNL     1     140.670  76.878 221.108 -0.11 +0.12    -0.338 N  
DOCKED: ATOM     20  C   UNL     1     141.811  76.124 220.648 -0.19 -0.06    +0.120 C  
DOCKED: ATOM     21  C   UNL     1     140.752  78.324 221.040 -0.24 -0.03    +0.088 C  
DOCKED: ATOM     22  C   UNL     1     142.571  76.701 219.520 -0.34 -0.01    +0.022 C  
DOCKED: ATOM     23  C   UNL     1     140.937  78.637 219.596 -0.19 -0.01    +0.025 C  
DOCKED: ATOM     24  C   UNL     1     142.115  77.998 218.964 -0.29 -0.00    +0.004 C  
DOCKED: BRANCH  21  25
DOCKED: ATOM     25  C   UNL     1     141.866  78.838 221.916 -0.43 -0.01    +0.012 C  
DOCKED: ATOM     26  C   UNL     1     141.542  78.610 223.368 -0.58 -0.00    +0.006 C  
DOCKED: ATOM     27  C   UNL     1     142.162  80.281 221.714 -0.47 -0.00    +0.006 C  
DOCKED: ATOM     28  C   UNL     1     141.227  80.025 223.852 -0.52 -0.00    +0.000 C  
DOCKED: ATOM     29  C   UNL     1     142.309  80.816 223.146 -0.63 -0.00    +0.000 C  
DOCKED: ENDBRANCH  21  25
DOCKED: ENDBRANCH  17  19
DOCKED: ENDBRANCH   1  17
DOCKED: TORSDOF 5
DOCKED: TER
DOCKED: ENDMDL
________________________________________________________________________________


    FINAL DOCKED STATE:
    ________________________


Run:   3 / 20
Time taken for this run:   0.045s

DOCKED: MODEL        3
DOCKED: USER    Run = 3
DOCKED: USER
DOCKED: USER    Estimated Free Energy of Binding    =  -8.17 kcal/mol  [=(1)+(2)+(3)-(4)]
DOCKED: USER
DOCKED: USER    (1) Final Intermolecular Energy     =  -9.66 kcal/mol
DOCKED: USER        vdW + Hbond + desolv Energy     =  -9.60 kcal/mol
DOCKED: USER        Electrostatic Energy            =  -0.06 kcal/mol
DOCKED: USER        Moving Ligand-Fixed Receptor    =  -9.66 kcal/mol
DOCKED: USER        Moving Ligand-Moving Receptor   =  +0.00 kcal/mol
DOCKED: USER    (2) Final Total Internal Energy     =  -1.44 kcal/mol
DOCKED: USER    (3) Torsional Free Energy           =  +1.49 kcal/mol
DOCKED: USER    (4) Unbound System's Energy         =  -1.44 kcal/mol
DOCKED: USER
DOCKED: USER
DOCKED: REMARK SMILES O=C(NCC(=O)N1CCCC[C@@H]1C1CCCC1)c1ccc2ccc(Cl)cc2n1
DOCKED: REMARK SMILES IDX 4 1 3 2 2 3 1 4 18 6 19 7 28 8 20 9 27 10 21 11 26 12 22 13
DOCKED: REMARK SMILES IDX 24 14 23 15 25 16 5 17 6 18 7 19 8 20 12 21 9 22 11 23 10 24
DOCKED: REMARK SMILES IDX 13 25 14 26 17 27 15 28 16 29
DOCKED: REMARK H PARENT 3 5
DOCKED: USER                              x       y       z     vdW  Elec       q    Type
DOCKED: USER                           _______ _______ _______ _____ _____    ______ ____
DOCKED: ROOT
DOCKED: ATOM      1  C   UNL     1     139.449  75.459 221.679 -0.22 -0.04    +0.216 C  
DOCKED: ENDROOT
DOCKED: BRANCH   1   2
DOCKED: ATOM      2  N   UNL     1     139.129  74.229 222.343 -0.05 +0.09    -0.342 N  
DOCKED: ATOM      3  C   UNL     1     140.125  73.202 222.348 -0.07 -0.02    +0.270 C  
DOCKED: ATOM      4  O   UNL     1     141.209  73.499 221.752 -0.42 +0.01    -0.268 OA 
DOCKED: ATOM      5  H   UNL     1     138.210  74.053 222.817 -0.54 -0.10    +0.164 HD 
DOCKED: BRANCH   3   6
DOCKED: ATOM      6  C   UNL     1     139.911  71.915 222.991 -0.29 -0.02    +0.128 A  
DOCKED: ATOM      7  C   UNL     1     139.281  70.936 222.255 -0.20 -0.01    +0.035 A  
DOCKED: ATOM      8  N   UNL     1     140.282  71.626 224.235 -0.28 +0.04    -0.243 NA 
DOCKED: ATOM      9  C   UNL     1     139.046  69.699 222.798 -0.21 -0.00    +0.013 A  
DOCKED: ATOM     10  C   UNL     1     140.065  70.420 224.794 -0.39 -0.01    +0.073 A  
DOCKED: ATOM     11  C   UNL     1     139.431  69.418 224.072 -0.30 -0.00    +0.000 A  
DOCKED: ATOM     12  C   UNL     1     140.477  70.185 226.094 -0.50 -0.01    +0.049 A  
DOCKED: ATOM     13  C   UNL     1     139.197  68.172 224.626 -0.38 -0.00    +0.012 A  
DOCKED: ATOM     14  C   UNL     1     140.253  68.945 226.669 -0.55 -0.01    +0.043 A  
DOCKED: ATOM     15  C   UNL     1     139.620  67.972 225.920 -0.57 -0.00    +0.021 A  
DOCKED: ATOM     16  Cl  UNL     1     140.729  68.546 228.289 -0.81 +0.02    -0.084 Cl 
DOCKED: ENDBRANCH   3   6
DOCKED: ENDBRANCH   1   2
DOCKED: BRANCH   1  17
DOCKED: ATOM     17  C   UNL     1     138.599  76.593 222.127 -0.20 -0.05    +0.242 C  
DOCKED: ATOM     18  O   UNL     1     137.354  76.454 222.337 -0.16 +0.06    -0.273 OA 
DOCKED: BRANCH  17  19
DOCKED: ATOM     19  N   UNL     1     139.247  77.847 222.312 -0.13 +0.07    -0.338 N  
DOCKED: ATOM     20  C   UNL     1     138.653  78.955 223.022 -0.26 -0.02    +0.120 C  
DOCKED: ATOM     21  C   UNL     1     140.575  78.040 221.764 -0.30 -0.03    +0.088 C  
DOCKED: ATOM     22  C   UNL     1     139.575  79.818 223.787 -0.43 -0.00    +0.022 C  
DOCKED: ATOM     23  C   UNL     1     141.444  78.329 222.938 -0.51 -0.01    +0.025 C  
DOCKED: ATOM     24  C   UNL     1     141.022  79.492 223.756 -0.55 -0.00    +0.004 C  
DOCKED: BRANCH  21  25
DOCKED: ATOM     25  C   UNL     1     140.573  79.137 220.730 -0.23 -0.00    +0.012 C  
DOCKED: ATOM     26  C   UNL     1     140.413  78.559 219.350 -0.13 -0.00    +0.006 C  
DOCKED: ATOM     27  C   UNL     1     141.799  79.979 220.756 -0.35 -0.00    +0.006 C  
DOCKED: ATOM     28  C   UNL     1     141.813  78.739 218.763 -0.27 -0.00    +0.000 C  
DOCKED: ATOM     29  C   UNL     1     142.160  80.123 219.270 -0.30 -0.00    +0.000 C  
DOCKED: ENDBRANCH  21  25
DOCKED: ENDBRANCH  17  19
DOCKED: ENDBRANCH   1  17
DOCKED: TORSDOF 5
DOCKED: TER
DOCKED: ENDMDL
________________________________________________________________________________


    FINAL DOCKED STATE:
    ________________________


Run:   4 / 20
Time taken for this run:   0.045s

DOCKED: MODEL        4
DOCKED: USER    Run = 4
DOCKED: USER
DOCKED: USER    Estimated Free Energy of Binding    =  -7.29 kcal/mol  [=(1)+(2)+(3)-(4)]
DOCKED: USER
DOCKED: USER    (1) Final Intermolecular Energy     =  -8.78 kcal/mol
DOCKED: USER        vdW + Hbond + desolv Energy     =  -8.78 kcal/mol
DOCKED: USER        Electrostatic Energy            =  +0.01 kcal/mol
DOCKED: USER        Moving Ligand-Fixed Receptor    =  -8.78 kcal/mol
DOCKED: USER        Moving Ligand-Moving Receptor   =  +0.00 kcal/mol
DOCKED: USER    (2) Final Total Internal Energy     =  -2.30 kcal/mol
DOCKED: USER    (3) Torsional Free Energy           =  +1.49 kcal/mol
DOCKED: USER    (4) Unbound System's Energy         =  -2.30 kcal/mol
DOCKED: USER
DOCKED: USER
DOCKED: REMARK SMILES O=C(NCC(=O)N1CCCC[C@@H]1C1CCCC1)c1ccc2ccc(Cl)cc2n1
DOCKED: REMARK SMILES IDX 4 1 3 2 2 3 1 4 18 6 19 7 28 8 20 9 27 10 21 11 26 12 22 13
DOCKED: REMARK SMILES IDX 24 14 23 15 25 16 5 17 6 18 7 19 8 20 12 21 9 22 11 23 10 24
DOCKED: REMARK SMILES IDX 13 25 14 26 17 27 15 28 16 29
DOCKED: REMARK H PARENT 3 5
DOCKED: USER                              x       y       z     vdW  Elec       q    Type
DOCKED: USER                           _______ _______ _______ _____ _____    ______ ____
DOCKED: ROOT
DOCKED: ATOM      1  C   UNL     1     142.866  76.016 219.739 -0.26 -0.12    +0.216 C  
DOCKED: ENDROOT
DOCKED: BRANCH   1   2
DOCKED: ATOM      2  N   UNL     1     142.226  75.184 220.717 -0.14 +0.14    -0.342 N  
DOCKED: ATOM      3  C   UNL     1     141.134  74.371 220.278 -0.12 -0.06    +0.270 C  
DOCKED: ATOM      4  O   UNL     1     140.844  74.475 219.044 -0.03 +0.07    -0.268 OA 
DOCKED: ATOM      5  H   UNL     1     142.520  75.148 221.722 -0.40 -0.08    +0.164 HD 
DOCKED: BRANCH   3   6
DOCKED: ATOM      6  C   UNL     1     140.411  73.489 221.181 -0.21 -0.02    +0.128 A  
DOCKED: ATOM      7  C   UNL     1     139.164  73.058 220.785 -0.12 -0.01    +0.035 A  
DOCKED: ATOM      8  N   UNL     1     140.875  73.075 222.357 -0.54 -0.00    -0.243 NA 
DOCKED: ATOM      9  C   UNL     1     138.428  72.226 221.587 -0.14 -0.00    +0.013 A  
DOCKED: ATOM     10  C   UNL     1     140.173  72.257 223.166 -0.30 -0.01    +0.073 A  
DOCKED: ATOM     11  C   UNL     1     138.915  71.811 222.787 -0.25 -0.00    +0.000 A  
DOCKED: ATOM     12  C   UNL     1     140.714  71.865 224.377 -0.30 -0.01    +0.049 A  
DOCKED: ATOM     13  C   UNL     1     138.176  70.971 223.602 -0.26 -0.00    +0.012 A  
DOCKED: ATOM     14  C   UNL     1     139.993  71.023 225.208 -0.48 -0.01    +0.043 A  
DOCKED: ATOM     15  C   UNL     1     138.743  70.599 224.798 -0.29 -0.00    +0.021 A  
DOCKED: ATOM     16  Cl  UNL     1     140.577  70.472 226.745 -0.76 +0.01    -0.084 Cl 
DOCKED: ENDBRANCH   3   6
DOCKED: ENDBRANCH   1   2
DOCKED: BRANCH   1  17
DOCKED: ATOM     17  C   UNL     1     142.207  77.340 219.591 -0.21 -0.15    +0.242 C  
DOCKED: ATOM     18  O   UNL     1     142.599  78.192 218.735 -0.24 +0.21    -0.273 OA 
DOCKED: BRANCH  17  19
DOCKED: ATOM     19  N   UNL     1     141.110  77.612 220.458 -0.09 +0.15    -0.338 N  
DOCKED: ATOM     20  C   UNL     1     139.734  77.621 220.024 -0.08 -0.04    +0.120 C  
DOCKED: ATOM     21  C   UNL     1     141.372  77.897 221.855 -0.30 -0.04    +0.088 C  
DOCKED: ATOM     22  C   UNL     1     138.730  77.156 221.004 -0.14 -0.01    +0.022 C  
DOCKED: ATOM     23  C   UNL     1     140.663  76.829 222.612 -0.32 -0.01    +0.025 C  
DOCKED: ATOM     24  C   UNL     1     139.208  76.734 222.343 -0.33 -0.00    +0.004 C  
DOCKED: BRANCH  21  25
DOCKED: ATOM     25  C   UNL     1     140.920  79.291 222.210 -0.40 -0.00    +0.012 C  
DOCKED: ATOM     26  C   UNL     1     141.812  80.315 221.564 -0.44 -0.00    +0.006 C  
DOCKED: ATOM     27  C   UNL     1     140.881  79.546 223.675 -0.53 -0.00    +0.006 C  
DOCKED: ATOM     28  C   UNL     1     142.608  80.845 222.757 -0.56 -0.00    +0.000 C  
DOCKED: ATOM     29  C   UNL     1     141.521  80.936 223.808 -0.55 -0.00    +0.000 C  
DOCKED: ENDBRANCH  21  25
DOCKED: ENDBRANCH  17  19
DOCKED: ENDBRANCH   1  17
DOCKED: TORSDOF 5
DOCKED: TER
DOCKED: ENDMDL
________________________________________________________________________________


    FINAL DOCKED STATE:
    ________________________


Run:   5 / 20
Time taken for this run:   0.045s

DOCKED: MODEL        5
DOCKED: USER    Run = 5
DOCKED: USER
DOCKED: USER    Estimated Free Energy of Binding    =  -8.63 kcal/mol  [=(1)+(2)+(3)-(4)]
DOCKED: USER
DOCKED: USER    (1) Final Intermolecular Energy     = -10.12 kcal/mol
DOCKED: USER        vdW + Hbond + desolv Energy     = -10.06 kcal/mol
DOCKED: USER        Electrostatic Energy            =  -0.07 kcal/mol
DOCKED: USER        Moving Ligand-Fixed Receptor    = -10.12 kcal/mol
DOCKED: USER        Moving Ligand-Moving Receptor   =  +0.00 kcal/mol
DOCKED: USER    (2) Final Total Internal Energy     =  -1.42 kcal/mol
DOCKED: USER    (3) Torsional Free Energy           =  +1.49 kcal/mol
DOCKED: USER    (4) Unbound System's Energy         =  -1.42 kcal/mol
DOCKED: USER
DOCKED: USER
DOCKED: REMARK SMILES O=C(NCC(=O)N1CCCC[C@@H]1C1CCCC1)c1ccc2ccc(Cl)cc2n1
DOCKED: REMARK SMILES IDX 4 1 3 2 2 3 1 4 18 6 19 7 28 8 20 9 27 10 21 11 26 12 22 13
DOCKED: REMARK SMILES IDX 24 14 23 15 25 16 5 17 6 18 7 19 8 20 12 21 9 22 11 23 10 24
DOCKED: REMARK SMILES IDX 13 25 14 26 17 27 15 28 16 29
DOCKED: REMARK H PARENT 3 5
DOCKED: USER                              x       y       z     vdW  Elec       q    Type
DOCKED: USER                           _______ _______ _______ _____ _____    ______ ____
DOCKED: ROOT
DOCKED: ATOM      1  C   UNL     1     139.138  74.674 221.286 -0.16 -0.05    +0.216 C  
DOCKED: ENDROOT
DOCKED: BRANCH   1   2
DOCKED: ATOM      2  N   UNL     1     138.821  73.611 222.195 -0.04 +0.10    -0.342 N  
DOCKED: ATOM      3  C   UNL     1     139.819  72.608 222.411 -0.19 -0.05    +0.270 C  
DOCKED: ATOM      4  O   UNL     1     140.900  72.773 221.761 -0.29 +0.02    -0.268 OA 
DOCKED: ATOM      5  H   UNL     1     137.905  73.539 222.699 -0.48 -0.08    +0.164 HD 
DOCKED: BRANCH   3   6
DOCKED: ATOM      6  C   UNL     1     139.608  71.485 223.310 -0.29 -0.03    +0.128 A  
DOCKED: ATOM      7  C   UNL     1     138.648  70.562 222.959 -0.22 -0.01    +0.035 A  
DOCKED: ATOM      8  N   UNL     1     140.279  71.293 224.442 -0.29 +0.04    -0.243 NA 
DOCKED: ATOM      9  C   UNL     1     138.397  69.479 223.760 -0.28 -0.00    +0.013 A  
DOCKED: ATOM     10  C   UNL     1     140.054  70.238 225.249 -0.42 -0.01    +0.073 A  
DOCKED: ATOM     11  C   UNL     1     139.091  69.296 224.915 -0.39 -0.00    +0.000 A  
DOCKED: ATOM     12  C   UNL     1     140.789  70.099 226.413 -0.52 -0.01    +0.049 A  
DOCKED: ATOM     13  C   UNL     1     138.842  68.205 225.728 -0.45 -0.00    +0.012 A  
DOCKED: ATOM     14  C   UNL     1     140.557  69.014 227.242 -0.59 -0.01    +0.043 A  
DOCKED: ATOM     15  C   UNL     1     139.590  68.096 226.878 -0.61 -0.00    +0.021 A  
DOCKED: ATOM     16  Cl  UNL     1     141.420  68.745 228.723 -0.49 +0.02    -0.084 Cl 
DOCKED: ENDBRANCH   3   6
DOCKED: ENDBRANCH   1   2
DOCKED: BRANCH   1  17
DOCKED: ATOM     17  C   UNL     1     139.602  75.904 221.979 -0.24 -0.05    +0.242 C  
DOCKED: ATOM     18  O   UNL     1     139.052  76.320 223.046 -0.17 +0.05    -0.273 OA 
DOCKED: BRANCH  17  19
DOCKED: ATOM     19  N   UNL     1     140.696  76.600 221.391 -0.15 +0.12    -0.338 N  
DOCKED: ATOM     20  C   UNL     1     141.849  75.942 220.825 -0.14 -0.06    +0.120 C  
DOCKED: ATOM     21  C   UNL     1     140.668  78.049 221.350 -0.27 -0.03    +0.088 C  
DOCKED: ATOM     22  C   UNL     1     142.472  76.593 219.654 -0.34 -0.01    +0.022 C  
DOCKED: ATOM     23  C   UNL     1     140.712  78.400 219.905 -0.18 -0.01    +0.025 C  
DOCKED: ATOM     24  C   UNL     1     141.879  77.861 219.166 -0.28 -0.00    +0.004 C  
DOCKED: BRANCH  21  25
DOCKED: ATOM     25  C   UNL     1     141.808  78.629 222.148 -0.43 -0.01    +0.012 C  
DOCKED: ATOM     26  C   UNL     1     141.465  78.660 223.612 -0.58 -0.00    +0.006 C  
DOCKED: ATOM     27  C   UNL     1     142.195  80.000 221.719 -0.46 -0.00    +0.006 C  
DOCKED: ATOM     28  C   UNL     1     141.238  80.152 223.857 -0.50 -0.00    +0.000 C  
DOCKED: ATOM     29  C   UNL     1     142.369  80.750 223.048 -0.63 -0.00    +0.000 C  
DOCKED: ENDBRANCH  21  25
DOCKED: ENDBRANCH  17  19
DOCKED: ENDBRANCH   1  17
DOCKED: TORSDOF 5
DOCKED: TER
DOCKED: ENDMDL
________________________________________________________________________________


    FINAL DOCKED STATE:
    ________________________


Run:   6 / 20
Time taken for this run:   0.045s

DOCKED: MODEL        6
DOCKED: USER    Run = 6
DOCKED: USER
DOCKED: USER    Estimated Free Energy of Binding    =  -8.52 kcal/mol  [=(1)+(2)+(3)-(4)]
DOCKED: USER
DOCKED: USER    (1) Final Intermolecular Energy     = -10.01 kcal/mol
DOCKED: USER        vdW + Hbond + desolv Energy     =  -9.94 kcal/mol
DOCKED: USER        Electrostatic Energy            =  -0.07 kcal/mol
DOCKED: USER        Moving Ligand-Fixed Receptor    = -10.01 kcal/mol
DOCKED: USER        Moving Ligand-Moving Receptor   =  +0.00 kcal/mol
DOCKED: USER    (2) Final Total Internal Energy     =  -1.53 kcal/mol
DOCKED: USER    (3) Torsional Free Energy           =  +1.49 kcal/mol
DOCKED: USER    (4) Unbound System's Energy         =  -1.53 kcal/mol
DOCKED: USER
DOCKED: USER
DOCKED: REMARK SMILES O=C(NCC(=O)N1CCCC[C@@H]1C1CCCC1)c1ccc2ccc(Cl)cc2n1
DOCKED: REMARK SMILES IDX 4 1 3 2 2 3 1 4 18 6 19 7 28 8 20 9 27 10 21 11 26 12 22 13
DOCKED: REMARK SMILES IDX 24 14 23 15 25 16 5 17 6 18 7 19 8 20 12 21 9 22 11 23 10 24
DOCKED: REMARK SMILES IDX 13 25 14 26 17 27 15 28 16 29
DOCKED: REMARK H PARENT 3 5
DOCKED: USER                              x       y       z     vdW  Elec       q    Type
DOCKED: USER                           _______ _______ _______ _____ _____    ______ ____
DOCKED: ROOT
DOCKED: ATOM      1  C   UNL     1     140.053  74.425 221.188 -0.19 -0.04    +0.216 C  
DOCKED: ENDROOT
DOCKED: BRANCH   1   2
DOCKED: ATOM      2  N   UNL     1     139.772  73.447 222.198 -0.14 +0.05    -0.342 N  
DOCKED: ATOM      3  C   UNL     1     140.177  72.098 221.943 -0.18 -0.04    +0.270 C  
DOCKED: ATOM      4  O   UNL     1     140.755  71.911 220.825 -0.10 +0.04    -0.268 OA 
DOCKED: ATOM      5  H   UNL     1     139.289  73.673 223.101 -0.51 -0.06    +0.164 HD 
DOCKED: BRANCH   3   6
DOCKED: ATOM      6  C   UNL     1     139.944  71.024 222.895 -0.24 -0.02    +0.128 A  
DOCKED: ATOM      7  C   UNL     1     139.142  69.979 222.489 -0.18 -0.01    +0.035 A  
DOCKED: ATOM      8  N   UNL     1     140.451  70.986 224.123 -0.24 +0.03    -0.243 NA 
DOCKED: ATOM      9  C   UNL     1     138.880  68.933 223.335 -0.25 -0.00    +0.013 A  
DOCKED: ATOM     10  C   UNL     1     140.211  69.971 224.976 -0.37 -0.01    +0.073 A  
DOCKED: ATOM     11  C   UNL     1     139.406  68.908 224.589 -0.35 -0.00    +0.000 A  
DOCKED: ATOM     12  C   UNL     1     140.771  69.994 226.241 -0.51 -0.01    +0.049 A  
DOCKED: ATOM     13  C   UNL     1     139.145  67.855 225.448 -0.42 -0.00    +0.012 A  
DOCKED: ATOM     14  C   UNL     1     140.524  68.950 227.117 -0.58 -0.01    +0.043 A  
DOCKED: ATOM     15  C   UNL     1     139.718  67.909 226.697 -0.63 -0.00    +0.021 A  
DOCKED: ATOM     16  Cl  UNL     1     141.176  68.880 228.723 -0.53 +0.02    -0.084 Cl 
DOCKED: ENDBRANCH   3   6
DOCKED: ENDBRANCH   1   2
DOCKED: BRANCH   1  17
DOCKED: ATOM     17  C   UNL     1     140.114  75.808 221.729 -0.24 -0.05    +0.242 C  
DOCKED: ATOM     18  O   UNL     1     139.402  76.174 222.714 -0.34 +0.05    -0.273 OA 
DOCKED: BRANCH  17  19
DOCKED: ATOM     19  N   UNL     1     141.013  76.708 221.089 -0.13 +0.14    -0.338 N  
DOCKED: ATOM     20  C   UNL     1     142.172  76.283 220.341 -0.17 -0.07    +0.120 C  
DOCKED: ATOM     21  C   UNL     1     140.766  78.134 221.185 -0.26 -0.03    +0.088 C  
DOCKED: ATOM     22  C   UNL     1     142.542  77.108 219.173 -0.33 -0.01    +0.022 C  
DOCKED: ATOM     23  C   UNL     1     140.579  78.593 219.781 -0.16 -0.01    +0.025 C  
DOCKED: ATOM     24  C   UNL     1     141.712  78.300 218.872 -0.25 -0.00    +0.004 C  
DOCKED: BRANCH  21  25
DOCKED: ATOM     25  C   UNL     1     141.898  78.826 221.900 -0.42 -0.01    +0.012 C  
DOCKED: ATOM     26  C   UNL     1     141.766  78.650 223.388 -0.59 -0.00    +0.006 C  
DOCKED: ATOM     27  C   UNL     1     141.991  80.280 221.597 -0.45 -0.00    +0.006 C  
DOCKED: ATOM     28  C   UNL     1     141.336  80.046 223.840 -0.54 -0.00    +0.000 C  
DOCKED: ATOM     29  C   UNL     1     142.228  80.913 222.976 -0.61 -0.00    +0.000 C  
DOCKED: ENDBRANCH  21  25
DOCKED: ENDBRANCH  17  19
DOCKED: ENDBRANCH   1  17
DOCKED: TORSDOF 5
DOCKED: TER
DOCKED: ENDMDL
________________________________________________________________________________


    FINAL DOCKED STATE:
    ________________________


Run:   7 / 20
Time taken for this run:   0.045s

DOCKED: MODEL        7
DOCKED: USER    Run = 7
DOCKED: USER
DOCKED: USER    Estimated Free Energy of Binding    =  -8.84 kcal/mol  [=(1)+(2)+(3)-(4)]
DOCKED: USER
DOCKED: USER    (1) Final Intermolecular Energy     = -10.33 kcal/mol
DOCKED: USER        vdW + Hbond + desolv Energy     = -10.25 kcal/mol
DOCKED: USER        Electrostatic Energy            =  -0.08 kcal/mol
DOCKED: USER        Moving Ligand-Fixed Receptor    = -10.33 kcal/mol
DOCKED: USER        Moving Ligand-Moving Receptor   =  +0.00 kcal/mol
DOCKED: USER    (2) Final Total Internal Energy     =  -1.43 kcal/mol
DOCKED: USER    (3) Torsional Free Energy           =  +1.49 kcal/mol
DOCKED: USER    (4) Unbound System's Energy         =  -1.43 kcal/mol
DOCKED: USER
DOCKED: USER
DOCKED: REMARK SMILES O=C(NCC(=O)N1CCCC[C@@H]1C1CCCC1)c1ccc2ccc(Cl)cc2n1
DOCKED: REMARK SMILES IDX 4 1 3 2 2 3 1 4 18 6 19 7 28 8 20 9 27 10 21 11 26 12 22 13
DOCKED: REMARK SMILES IDX 24 14 23 15 25 16 5 17 6 18 7 19 8 20 12 21 9 22 11 23 10 24
DOCKED: REMARK SMILES IDX 13 25 14 26 17 27 15 28 16 29
DOCKED: REMARK H PARENT 3 5
DOCKED: USER                              x       y       z     vdW  Elec       q    Type
DOCKED: USER                           _______ _______ _______ _____ _____    ______ ____
DOCKED: ROOT
DOCKED: ATOM      1  C   UNL     1     140.176  74.407 221.199 -0.20 -0.04    +0.216 C  
DOCKED: ENDROOT
DOCKED: BRANCH   1   2
DOCKED: ATOM      2  N   UNL     1     139.703  73.440 222.146 -0.15 +0.05    -0.342 N  
DOCKED: ATOM      3  C   UNL     1     140.476  72.248 222.314 -0.21 -0.03    +0.270 C  
DOCKED: ATOM      4  O   UNL     1     141.520  72.175 221.591 -0.19 +0.02    -0.268 OA 
DOCKED: ATOM      5  H   UNL     1     138.829  73.568 222.711 -0.52 -0.07    +0.164 HD 
DOCKED: BRANCH   3   6
DOCKED: ATOM      6  C   UNL     1     140.092  71.199 223.246 -0.28 -0.02    +0.128 A  
DOCKED: ATOM      7  C   UNL     1     139.002  70.424 222.916 -0.22 -0.01    +0.035 A  
DOCKED: ATOM      8  N   UNL     1     140.723  70.943 224.389 -0.25 +0.03    -0.243 NA 
DOCKED: ATOM      9  C   UNL     1     138.585  69.418 223.748 -0.28 -0.00    +0.013 A  
DOCKED: ATOM     10  C   UNL     1     140.336  69.961 225.226 -0.40 -0.01    +0.073 A  
DOCKED: ATOM     11  C   UNL     1     139.240  69.168 224.914 -0.39 -0.00    +0.000 A  
DOCKED: ATOM     12  C   UNL     1     141.037  69.747 226.400 -0.51 -0.01    +0.049 A  
DOCKED: ATOM     13  C   UNL     1     138.824  68.154 225.759 -0.45 -0.00    +0.012 A  
DOCKED: ATOM     14  C   UNL     1     140.638  68.737 227.260 -0.61 -0.01    +0.043 A  
DOCKED: ATOM     15  C   UNL     1     139.543  67.968 226.917 -0.59 -0.00    +0.021 A  
DOCKED: ATOM     16  Cl  UNL     1     141.446  68.386 228.754 -0.54 +0.02    -0.084 Cl 
DOCKED: ENDBRANCH   3   6
DOCKED: ENDBRANCH   1   2
DOCKED: BRANCH   1  17
DOCKED: ATOM     17  C   UNL     1     140.191  75.789 221.746 -0.24 -0.05    +0.242 C  
DOCKED: ATOM     18  O   UNL     1     139.470  76.125 222.736 -0.34 +0.05    -0.273 OA 
DOCKED: BRANCH  17  19
DOCKED: ATOM     19  N   UNL     1     141.056  76.723 221.109 -0.14 +0.14    -0.338 N  
DOCKED: ATOM     20  C   UNL     1     142.202  76.340 220.319 -0.17 -0.07    +0.120 C  
DOCKED: ATOM     21  C   UNL     1     140.786  78.141 221.251 -0.26 -0.03    +0.088 C  
DOCKED: ATOM     22  C   UNL     1     142.525  77.204 219.165 -0.32 -0.01    +0.022 C  
DOCKED: ATOM     23  C   UNL     1     140.553  78.635 219.866 -0.16 -0.01    +0.025 C  
DOCKED: ATOM     24  C   UNL     1     141.667  78.388 218.919 -0.25 -0.00    +0.004 C  
DOCKED: BRANCH  21  25
DOCKED: ATOM     25  C   UNL     1     141.924  78.834 221.955 -0.42 -0.01    +0.012 C  
DOCKED: ATOM     26  C   UNL     1     141.809  78.655 223.445 -0.60 -0.00    +0.006 C  
DOCKED: ATOM     27  C   UNL     1     142.011  80.288 221.654 -0.46 -0.00    +0.006 C  
DOCKED: ATOM     28  C   UNL     1     141.380  80.049 223.903 -0.49 -0.00    +0.000 C  
DOCKED: ATOM     29  C   UNL     1     142.262  80.920 223.032 -0.61 -0.00    +0.000 C  
DOCKED: ENDBRANCH  21  25
DOCKED: ENDBRANCH  17  19
DOCKED: ENDBRANCH   1  17
DOCKED: TORSDOF 5
DOCKED: TER
DOCKED: ENDMDL
________________________________________________________________________________


    FINAL DOCKED STATE:
    ________________________


Run:   8 / 20
Time taken for this run:   0.045s

DOCKED: MODEL        8
DOCKED: USER    Run = 8
DOCKED: USER
DOCKED: USER    Estimated Free Energy of Binding    =  -7.87 kcal/mol  [=(1)+(2)+(3)-(4)]
DOCKED: USER
DOCKED: USER    (1) Final Intermolecular Energy     =  -9.36 kcal/mol
DOCKED: USER        vdW + Hbond + desolv Energy     =  -9.28 kcal/mol
DOCKED: USER        Electrostatic Energy            =  -0.08 kcal/mol
DOCKED: USER        Moving Ligand-Fixed Receptor    =  -9.36 kcal/mol
DOCKED: USER        Moving Ligand-Moving Receptor   =  +0.00 kcal/mol
DOCKED: USER    (2) Final Total Internal Energy     =  -1.76 kcal/mol
DOCKED: USER    (3) Torsional Free Energy           =  +1.49 kcal/mol
DOCKED: USER    (4) Unbound System's Energy         =  -1.76 kcal/mol
DOCKED: USER
DOCKED: USER
DOCKED: REMARK SMILES O=C(NCC(=O)N1CCCC[C@@H]1C1CCCC1)c1ccc2ccc(Cl)cc2n1
DOCKED: REMARK SMILES IDX 4 1 3 2 2 3 1 4 18 6 19 7 28 8 20 9 27 10 21 11 26 12 22 13
DOCKED: REMARK SMILES IDX 24 14 23 15 25 16 5 17 6 18 7 19 8 20 12 21 9 22 11 23 10 24
DOCKED: REMARK SMILES IDX 13 25 14 26 17 27 15 28 16 29
DOCKED: REMARK H PARENT 3 5
DOCKED: USER                              x       y       z     vdW  Elec       q    Type
DOCKED: USER                           _______ _______ _______ _____ _____    ______ ____
DOCKED: ROOT
DOCKED: ATOM      1  C   UNL     1     138.523  76.386 221.820 -0.19 -0.05    +0.216 C  
DOCKED: ENDROOT
DOCKED: BRANCH   1   2
DOCKED: ATOM      2  N   UNL     1     137.698  75.643 222.728 -0.13 +0.10    -0.342 N  
DOCKED: ATOM      3  C   UNL     1     136.486  76.259 223.174 -0.15 -0.06    +0.270 C  
DOCKED: ATOM      4  O   UNL     1     136.268  77.421 222.706 -0.12 +0.04    -0.268 OA 
DOCKED: ATOM      5  H   UNL     1     137.942  74.683 223.074 -0.48 -0.10    +0.164 HD 
DOCKED: BRANCH   3   6
DOCKED: ATOM      6  C   UNL     1     135.573  75.600 224.094 -0.26 -0.02    +0.128 A  
DOCKED: ATOM      7  C   UNL     1     134.711  76.398 224.814 -0.23 -0.00    +0.035 A  
DOCKED: ATOM      8  N   UNL     1     135.518  74.285 224.285 -0.19 +0.05    -0.243 NA 
DOCKED: ATOM      9  C   UNL     1     133.824  75.844 225.699 -0.32 -0.00    +0.013 A  
DOCKED: ATOM     10  C   UNL     1     134.657  73.713 225.148 -0.27 -0.00    +0.073 A  
DOCKED: ATOM     11  C   UNL     1     133.779  74.498 225.883 -0.35 +0.00    +0.000 A  
DOCKED: ATOM     12  C   UNL     1     134.652  72.337 225.298 -0.20 -0.00    +0.049 A  
DOCKED: ATOM     13  C   UNL     1     132.886  73.932 226.776 -0.37 +0.00    +0.012 A  
DOCKED: ATOM     14  C   UNL     1     133.766  71.750 226.186 -0.33 -0.00    +0.043 A  
DOCKED: ATOM     15  C   UNL     1     132.907  72.562 226.901 -0.40 -0.00    +0.021 A  
DOCKED: ATOM     16  Cl  UNL     1     133.677  70.037 226.450 -0.33 +0.00    -0.084 Cl 
DOCKED: ENDBRANCH   3   6
DOCKED: ENDBRANCH   1   2
DOCKED: BRANCH   1  17
DOCKED: ATOM     17  C   UNL     1     139.881  75.802 221.668 -0.23 -0.05    +0.242 C  
DOCKED: ATOM     18  O   UNL     1     140.141  74.609 222.019 -0.78 +0.02    -0.273 OA 
DOCKED: BRANCH  17  19
DOCKED: ATOM     19  N   UNL     1     140.884  76.644 221.108 -0.13 +0.13    -0.338 N  
DOCKED: ATOM     20  C   UNL     1     142.068  76.146 220.451 -0.18 -0.07    +0.120 C  
DOCKED: ATOM     21  C   UNL     1     140.722  78.082 221.193 -0.25 -0.03    +0.088 C  
DOCKED: ATOM     22  C   UNL     1     142.582  76.948 219.321 -0.34 -0.01    +0.022 C  
DOCKED: ATOM     23  C   UNL     1     140.676  78.555 219.783 -0.17 -0.01    +0.025 C  
DOCKED: ATOM     24  C   UNL     1     141.857  78.191 218.964 -0.27 -0.00    +0.004 C  
DOCKED: BRANCH  21  25
DOCKED: ATOM     25  C   UNL     1     141.835  78.699 222.001 -0.43 -0.01    +0.012 C  
DOCKED: ATOM     26  C   UNL     1     141.536  78.601 223.472 -0.59 -0.00    +0.006 C  
DOCKED: ATOM     27  C   UNL     1     142.097  80.123 221.660 -0.46 -0.00    +0.006 C  
DOCKED: ATOM     28  C   UNL     1     141.196  80.049 223.827 -0.52 -0.00    +0.000 C  
DOCKED: ATOM     29  C   UNL     1     142.251  80.792 223.034 -0.63 -0.00    +0.000 C  
DOCKED: ENDBRANCH  21  25
DOCKED: ENDBRANCH  17  19
DOCKED: ENDBRANCH   1  17
DOCKED: TORSDOF 5
DOCKED: TER
DOCKED: ENDMDL
________________________________________________________________________________


    FINAL DOCKED STATE:
    ________________________


Run:   9 / 20
Time taken for this run:   0.045s

DOCKED: MODEL        9
DOCKED: USER    Run = 9
DOCKED: USER
DOCKED: USER    Estimated Free Energy of Binding    =  -8.23 kcal/mol  [=(1)+(2)+(3)-(4)]
DOCKED: USER
DOCKED: USER    (1) Final Intermolecular Energy     =  -9.73 kcal/mol
DOCKED: USER        vdW + Hbond + desolv Energy     =  -9.69 kcal/mol
DOCKED: USER        Electrostatic Energy            =  -0.04 kcal/mol
DOCKED: USER        Moving Ligand-Fixed Receptor    =  -9.73 kcal/mol
DOCKED: USER        Moving Ligand-Moving Receptor   =  +0.00 kcal/mol
DOCKED: USER    (2) Final Total Internal Energy     =  -1.54 kcal/mol
DOCKED: USER    (3) Torsional Free Energy           =  +1.49 kcal/mol
DOCKED: USER    (4) Unbound System's Energy         =  -1.54 kcal/mol
DOCKED: USER
DOCKED: USER
DOCKED: REMARK SMILES O=C(NCC(=O)N1CCCC[C@@H]1C1CCCC1)c1ccc2ccc(Cl)cc2n1
DOCKED: REMARK SMILES IDX 4 1 3 2 2 3 1 4 18 6 19 7 28 8 20 9 27 10 21 11 26 12 22 13
DOCKED: REMARK SMILES IDX 24 14 23 15 25 16 5 17 6 18 7 19 8 20 12 21 9 22 11 23 10 24
DOCKED: REMARK SMILES IDX 13 25 14 26 17 27 15 28 16 29
DOCKED: REMARK H PARENT 3 5
DOCKED: USER                              x       y       z     vdW  Elec       q    Type
DOCKED: USER                           _______ _______ _______ _____ _____    ______ ____
DOCKED: ROOT
DOCKED: ATOM      1  C   UNL     1     139.611  74.796 221.096 -0.17 -0.04    +0.216 C  
DOCKED: ENDROOT
DOCKED: BRANCH   1   2
DOCKED: ATOM      2  N   UNL     1     139.542  73.771 222.096 -0.14 +0.06    -0.342 N  
DOCKED: ATOM      3  C   UNL     1     139.577  72.411 221.652 -0.15 -0.05    +0.270 C  
DOCKED: ATOM      4  O   UNL     1     139.670  72.257 220.392 -0.04 +0.05    -0.268 OA 
DOCKED: ATOM      5  H   UNL     1     139.467  73.972 223.122 -0.52 -0.04    +0.164 HD 
DOCKED: BRANCH   3   6
DOCKED: ATOM      6  C   UNL     1     139.513  71.290 222.576 -0.22 -0.02    +0.128 A  
DOCKED: ATOM      7  C   UNL     1     138.876  70.148 222.145 -0.16 -0.01    +0.035 A  
DOCKED: ATOM      8  N   UNL     1     140.028  71.298 223.802 -0.25 +0.04    -0.243 NA 
DOCKED: ATOM      9  C   UNL     1     138.779  69.053 222.964 -0.23 -0.00    +0.013 A  
DOCKED: ATOM     10  C   UNL     1     139.948  70.237 224.629 -0.37 -0.01    +0.073 A  
DOCKED: ATOM     11  C   UNL     1     139.309  69.076 224.216 -0.31 -0.00    +0.000 A  
DOCKED: ATOM     12  C   UNL     1     140.505  70.312 225.893 -0.50 -0.01    +0.049 A  
DOCKED: ATOM     13  C   UNL     1     139.215  67.974 225.048 -0.41 -0.00    +0.012 A  
DOCKED: ATOM     14  C   UNL     1     140.422  69.221 226.742 -0.54 -0.01    +0.043 A  
DOCKED: ATOM     15  C   UNL     1     139.779  68.082 226.297 -0.60 -0.00    +0.021 A  
DOCKED: ATOM     16  Cl  UNL     1     141.086  69.210 228.345 -0.69 +0.02    -0.084 Cl 
DOCKED: ENDBRANCH   3   6
DOCKED: ENDBRANCH   1   2
DOCKED: BRANCH   1  17
DOCKED: ATOM     17  C   UNL     1     139.881  76.141 221.669 -0.23 -0.06    +0.242 C  
DOCKED: ATOM     18  O   UNL     1     139.239  76.583 222.671 -0.27 +0.05    -0.273 OA 
DOCKED: BRANCH  17  19
DOCKED: ATOM     19  N   UNL     1     140.898  76.915 221.040 -0.12 +0.14    -0.338 N  
DOCKED: ATOM     20  C   UNL     1     142.063  76.342 220.411 -0.17 -0.07    +0.120 C  
DOCKED: ATOM     21  C   UNL     1     140.771  78.359 221.022 -0.24 -0.03    +0.088 C  
DOCKED: ATOM     22  C   UNL     1     142.584  77.046 219.222 -0.33 -0.01    +0.022 C  
DOCKED: ATOM     23  C   UNL     1     140.722  78.729 219.581 -0.17 -0.01    +0.025 C  
DOCKED: ATOM     24  C   UNL     1     141.886  78.278 218.781 -0.27 -0.00    +0.004 C  
DOCKED: BRANCH  21  25
DOCKED: ATOM     25  C   UNL     1     141.906  79.005 221.773 -0.43 -0.01    +0.012 C  
DOCKED: ATOM     26  C   UNL     1     141.816  78.687 223.241 -0.58 -0.00    +0.006 C  
DOCKED: ATOM     27  C   UNL     1     141.964  80.483 221.607 -0.45 -0.00    +0.006 C  
DOCKED: ATOM     28  C   UNL     1     141.370  80.025 223.832 -0.55 -0.00    +0.000 C  
DOCKED: ATOM     29  C   UNL     1     142.223  80.989 223.033 -0.60 -0.00    +0.000 C  
DOCKED: ENDBRANCH  21  25
DOCKED: ENDBRANCH  17  19
DOCKED: ENDBRANCH   1  17
DOCKED: TORSDOF 5
DOCKED: TER
DOCKED: ENDMDL
________________________________________________________________________________


    FINAL DOCKED STATE:
    ________________________


Run:   10 / 20
Time taken for this run:   0.045s

DOCKED: MODEL        10
DOCKED: USER    Run = 10
DOCKED: USER
DOCKED: USER    Estimated Free Energy of Binding    =  -8.49 kcal/mol  [=(1)+(2)+(3)-(4)]
DOCKED: USER
DOCKED: USER    (1) Final Intermolecular Energy     =  -9.98 kcal/mol
DOCKED: USER        vdW + Hbond + desolv Energy     =  -9.91 kcal/mol
DOCKED: USER        Electrostatic Energy            =  -0.07 kcal/mol
DOCKED: USER        Moving Ligand-Fixed Receptor    =  -9.98 kcal/mol
DOCKED: USER        Moving Ligand-Moving Receptor   =  +0.00 kcal/mol
DOCKED: USER    (2) Final Total Internal Energy     =  -1.42 kcal/mol
DOCKED: USER    (3) Torsional Free Energy           =  +1.49 kcal/mol
DOCKED: USER    (4) Unbound System's Energy         =  -1.42 kcal/mol
DOCKED: USER
DOCKED: USER
DOCKED: REMARK SMILES O=C(NCC(=O)N1CCCC[C@@H]1C1CCCC1)c1ccc2ccc(Cl)cc2n1
DOCKED: REMARK SMILES IDX 4 1 3 2 2 3 1 4 18 6 19 7 28 8 20 9 27 10 21 11 26 12 22 13
DOCKED: REMARK SMILES IDX 24 14 23 15 25 16 5 17 6 18 7 19 8 20 12 21 9 22 11 23 10 24
DOCKED: REMARK SMILES IDX 13 25 14 26 17 27 15 28 16 29
DOCKED: REMARK H PARENT 3 5
DOCKED: USER                              x       y       z     vdW  Elec       q    Type
DOCKED: USER                           _______ _______ _______ _____ _____    ______ ____
DOCKED: ROOT
DOCKED: ATOM      1  C   UNL     1     139.187  74.877 220.773 -0.11 -0.05    +0.216 C  
DOCKED: ENDROOT
DOCKED: BRANCH   1   2
DOCKED: ATOM      2  N   UNL     1     138.798  73.750 221.571 -0.10 +0.08    -0.342 N  
DOCKED: ATOM      3  C   UNL     1     139.835  73.029 222.244 -0.17 -0.04    +0.270 C  
DOCKED: ATOM      4  O   UNL     1     141.011  73.475 222.059 -0.61 -0.00    -0.268 OA 
DOCKED: ATOM      5  H   UNL     1     137.804  73.438 221.679 +0.01 -0.04    +0.164 HD 
DOCKED: BRANCH   3   6
DOCKED: ATOM      6  C   UNL     1     139.558  71.871 223.079 -0.27 -0.03    +0.128 A  
DOCKED: ATOM      7  C   UNL     1     138.597  70.987 222.640 -0.20 -0.01    +0.035 A  
DOCKED: ATOM      8  N   UNL     1     140.169  71.613 224.232 -0.28 +0.04    -0.243 NA 
DOCKED: ATOM      9  C   UNL     1     138.285  69.874 223.377 -0.24 -0.00    +0.013 A  
DOCKED: ATOM     10  C   UNL     1     139.883  70.528 224.977 -0.41 -0.01    +0.073 A  
DOCKED: ATOM     11  C   UNL     1     138.919  69.624 224.555 -0.35 -0.00    +0.000 A  
DOCKED: ATOM     12  C   UNL     1     140.557  70.320 226.168 -0.52 -0.01    +0.049 A  
DOCKED: ATOM     13  C   UNL     1     138.609  68.503 225.304 -0.39 -0.00    +0.012 A  
DOCKED: ATOM     14  C   UNL     1     140.264  69.204 226.933 -0.55 -0.01    +0.043 A  
DOCKED: ATOM     15  C   UNL     1     139.297  68.325 226.481 -0.53 -0.00    +0.021 A  
DOCKED: ATOM     16  Cl  UNL     1     141.048  68.849 228.439 -0.71 +0.02    -0.084 Cl 
DOCKED: ENDBRANCH   3   6
DOCKED: ENDBRANCH   1   2
DOCKED: BRANCH   1  17
DOCKED: ATOM     17  C   UNL     1     139.686  76.014 221.590 -0.22 -0.06    +0.242 C  
DOCKED: ATOM     18  O   UNL     1     139.172  76.308 222.714 -0.29 +0.05    -0.273 OA 
DOCKED: BRANCH  17  19
DOCKED: ATOM     19  N   UNL     1     140.772  76.763 221.054 -0.12 +0.13    -0.338 N  
DOCKED: ATOM     20  C   UNL     1     141.942  76.161 220.461 -0.21 -0.06    +0.120 C  
DOCKED: ATOM     21  C   UNL     1     140.715  78.211 221.097 -0.24 -0.03    +0.088 C  
DOCKED: ATOM     22  C   UNL     1     142.561  76.890 219.336 -0.34 -0.01    +0.022 C  
DOCKED: ATOM     23  C   UNL     1     140.765  78.647 219.674 -0.18 -0.01    +0.025 C  
DOCKED: ATOM     24  C   UNL     1     141.948  78.174 218.917 -0.28 -0.00    +0.004 C  
DOCKED: BRANCH  21  25
DOCKED: ATOM     25  C   UNL     1     141.837  78.765 221.937 -0.44 -0.01    +0.012 C  
DOCKED: ATOM     26  C   UNL     1     141.538  78.587 223.401 -0.58 -0.00    +0.006 C  
DOCKED: ATOM     27  C   UNL     1     142.118  80.204 221.679 -0.46 -0.00    +0.006 C  
DOCKED: ATOM     28  C   UNL     1     141.218  80.016 223.839 -0.53 -0.00    +0.000 C  
DOCKED: ATOM     29  C   UNL     1     142.282  80.790 223.089 -0.63 -0.00    +0.000 C  
DOCKED: ENDBRANCH  21  25
DOCKED: ENDBRANCH  17  19
DOCKED: ENDBRANCH   1  17
DOCKED: TORSDOF 5
DOCKED: TER
DOCKED: ENDMDL
________________________________________________________________________________


    FINAL DOCKED STATE:
    ________________________


Run:   11 / 20
Time taken for this run:   0.045s

DOCKED: MODEL        11
DOCKED: USER    Run = 11
DOCKED: USER
DOCKED: USER    Estimated Free Energy of Binding    =  -8.84 kcal/mol  [=(1)+(2)+(3)-(4)]
DOCKED: USER
DOCKED: USER    (1) Final Intermolecular Energy     = -10.33 kcal/mol
DOCKED: USER        vdW + Hbond + desolv Energy     = -10.25 kcal/mol
DOCKED: USER        Electrostatic Energy            =  -0.08 kcal/mol
DOCKED: USER        Moving Ligand-Fixed Receptor    = -10.33 kcal/mol
DOCKED: USER        Moving Ligand-Moving Receptor   =  +0.00 kcal/mol
DOCKED: USER    (2) Final Total Internal Energy     =  -1.46 kcal/mol
DOCKED: USER    (3) Torsional Free Energy           =  +1.49 kcal/mol
DOCKED: USER    (4) Unbound System's Energy         =  -1.46 kcal/mol
DOCKED: USER
DOCKED: USER
DOCKED: REMARK SMILES O=C(NCC(=O)N1CCCC[C@@H]1C1CCCC1)c1ccc2ccc(Cl)cc2n1
DOCKED: REMARK SMILES IDX 4 1 3 2 2 3 1 4 18 6 19 7 28 8 20 9 27 10 21 11 26 12 22 13
DOCKED: REMARK SMILES IDX 24 14 23 15 25 16 5 17 6 18 7 19 8 20 12 21 9 22 11 23 10 24
DOCKED: REMARK SMILES IDX 13 25 14 26 17 27 15 28 16 29
DOCKED: REMARK H PARENT 3 5
DOCKED: USER                              x       y       z     vdW  Elec       q    Type
DOCKED: USER                           _______ _______ _______ _____ _____    ______ ____
DOCKED: ROOT
DOCKED: ATOM      1  C   UNL     1     140.303  74.444 221.199 -0.20 -0.04    +0.216 C  
DOCKED: ENDROOT
DOCKED: BRANCH   1   2
DOCKED: ATOM      2  N   UNL     1     139.819  73.487 222.150 -0.14 +0.05    -0.342 N  
DOCKED: ATOM      3  C   UNL     1     140.536  72.254 222.268 -0.20 -0.03    +0.270 C  
DOCKED: ATOM      4  O   UNL     1     141.545  72.140 221.502 -0.18 +0.02    -0.268 OA 
DOCKED: ATOM      5  H   UNL     1     138.977  73.648 222.753 -0.51 -0.06    +0.164 HD 
DOCKED: BRANCH   3   6
DOCKED: ATOM      6  C   UNL     1     140.138  71.210 223.199 -0.28 -0.02    +0.128 A  
DOCKED: ATOM      7  C   UNL     1     139.044  70.443 222.862 -0.22 -0.01    +0.035 A  
DOCKED: ATOM      8  N   UNL     1     140.757  70.951 224.347 -0.24 +0.03    -0.243 NA 
DOCKED: ATOM      9  C   UNL     1     138.613  69.442 223.693 -0.27 -0.00    +0.013 A  
DOCKED: ATOM     10  C   UNL     1     140.356  69.973 225.183 -0.40 -0.01    +0.073 A  
DOCKED: ATOM     11  C   UNL     1     139.257  69.189 224.864 -0.39 -0.00    +0.000 A  
DOCKED: ATOM     12  C   UNL     1     141.046  69.757 226.362 -0.51 -0.01    +0.049 A  
DOCKED: ATOM     13  C   UNL     1     138.826  68.180 225.708 -0.45 -0.00    +0.012 A  
DOCKED: ATOM     14  C   UNL     1     140.634  68.752 227.221 -0.60 -0.01    +0.043 A  
DOCKED: ATOM     15  C   UNL     1     139.535  67.990 226.871 -0.60 -0.00    +0.021 A  
DOCKED: ATOM     16  Cl  UNL     1     141.427  68.397 228.723 -0.57 +0.02    -0.084 Cl 
DOCKED: ENDBRANCH   3   6
DOCKED: ENDBRANCH   1   2
DOCKED: BRANCH   1  17
DOCKED: ATOM     17  C   UNL     1     140.241  75.840 221.706 -0.24 -0.06    +0.242 C  
DOCKED: ATOM     18  O   UNL     1     139.495  76.166 222.681 -0.34 +0.05    -0.273 OA 
DOCKED: BRANCH  17  19
DOCKED: ATOM     19  N   UNL     1     141.060  76.801 221.047 -0.13 +0.14    -0.338 N  
DOCKED: ATOM     20  C   UNL     1     142.191  76.453 220.221 -0.21 -0.07    +0.120 C  
DOCKED: ATOM     21  C   UNL     1     140.754  78.209 221.202 -0.26 -0.03    +0.088 C  
DOCKED: ATOM     22  C   UNL     1     142.455  77.329 219.061 -0.31 -0.01    +0.022 C  
DOCKED: ATOM     23  C   UNL     1     140.466  78.701 219.827 -0.15 -0.01    +0.025 C  
DOCKED: ATOM     24  C   UNL     1     141.557  78.490 218.847 -0.23 -0.00    +0.004 C  
DOCKED: BRANCH  21  25
DOCKED: ATOM     25  C   UNL     1     141.893  78.932 221.875 -0.44 -0.01    +0.012 C  
DOCKED: ATOM     26  C   UNL     1     141.826  78.748 223.367 -0.60 -0.00    +0.006 C  
DOCKED: ATOM     27  C   UNL     1     141.933  80.389 221.575 -0.44 -0.00    +0.006 C  
DOCKED: ATOM     28  C   UNL     1     141.374  80.130 223.840 -0.54 -0.00    +0.000 C  
DOCKED: ATOM     29  C   UNL     1     142.206  81.025 222.945 -0.59 -0.00    +0.000 C  
DOCKED: ENDBRANCH  21  25
DOCKED: ENDBRANCH  17  19
DOCKED: ENDBRANCH   1  17
DOCKED: TORSDOF 5
DOCKED: TER
DOCKED: ENDMDL
________________________________________________________________________________


    FINAL DOCKED STATE:
    ________________________


Run:   12 / 20
Time taken for this run:   0.045s

DOCKED: MODEL        12
DOCKED: USER    Run = 12
DOCKED: USER
DOCKED: USER    Estimated Free Energy of Binding    =  -8.63 kcal/mol  [=(1)+(2)+(3)-(4)]
DOCKED: USER
DOCKED: USER    (1) Final Intermolecular Energy     = -10.12 kcal/mol
DOCKED: USER        vdW + Hbond + desolv Energy     = -10.05 kcal/mol
DOCKED: USER        Electrostatic Energy            =  -0.07 kcal/mol
DOCKED: USER        Moving Ligand-Fixed Receptor    = -10.12 kcal/mol
DOCKED: USER        Moving Ligand-Moving Receptor   =  +0.00 kcal/mol
DOCKED: USER    (2) Final Total Internal Energy     =  -1.55 kcal/mol
DOCKED: USER    (3) Torsional Free Energy           =  +1.49 kcal/mol
DOCKED: USER    (4) Unbound System's Energy         =  -1.55 kcal/mol
DOCKED: USER
DOCKED: USER
DOCKED: REMARK SMILES O=C(NCC(=O)N1CCCC[C@@H]1C1CCCC1)c1ccc2ccc(Cl)cc2n1
DOCKED: REMARK SMILES IDX 4 1 3 2 2 3 1 4 18 6 19 7 28 8 20 9 27 10 21 11 26 12 22 13
DOCKED: REMARK SMILES IDX 24 14 23 15 25 16 5 17 6 18 7 19 8 20 12 21 9 22 11 23 10 24
DOCKED: REMARK SMILES IDX 13 25 14 26 17 27 15 28 16 29
DOCKED: REMARK H PARENT 3 5
DOCKED: USER                              x       y       z     vdW  Elec       q    Type
DOCKED: USER                           _______ _______ _______ _____ _____    ______ ____
DOCKED: ROOT
DOCKED: ATOM      1  C   UNL     1     140.378  74.552 221.284 -0.21 -0.04    +0.216 C  
DOCKED: ENDROOT
DOCKED: BRANCH   1   2
DOCKED: ATOM      2  N   UNL     1     139.979  73.608 222.287 -0.11 +0.03    -0.342 N  
DOCKED: ATOM      3  C   UNL     1     140.379  72.246 222.108 -0.20 -0.03    +0.270 C  
DOCKED: ATOM      4  O   UNL     1     141.058  72.016 221.058 -0.13 +0.03    -0.268 OA 
DOCKED: ATOM      5  H   UNL     1     139.417  73.869 223.132 -0.51 -0.05    +0.164 HD 
DOCKED: BRANCH   3   6
DOCKED: ATOM      6  C   UNL     1     140.032  71.203 223.060 -0.27 -0.02    +0.128 A  
DOCKED: ATOM      7  C   UNL     1     139.018  70.337 222.713 -0.20 -0.01    +0.035 A  
DOCKED: ATOM      8  N   UNL     1     140.626  71.033 224.238 -0.26 +0.03    -0.243 NA 
DOCKED: ATOM      9  C   UNL     1     138.639  69.331 223.563 -0.27 -0.00    +0.013 A  
DOCKED: ATOM     10  C   UNL     1     140.275  70.054 225.093 -0.39 -0.01    +0.073 A  
DOCKED: ATOM     11  C   UNL     1     139.257  69.171 224.764 -0.38 -0.00    +0.000 A  
DOCKED: ATOM     12  C   UNL     1     140.936  69.933 226.303 -0.51 -0.01    +0.049 A  
DOCKED: ATOM     13  C   UNL     1     138.879  68.157 225.627 -0.45 -0.00    +0.012 A  
DOCKED: ATOM     14  C   UNL     1     140.574  68.926 227.182 -0.59 -0.01    +0.043 A  
DOCKED: ATOM     15  C   UNL     1     139.555  68.065 226.821 -0.60 -0.00    +0.021 A  
DOCKED: ATOM     16  Cl  UNL     1     141.336  68.687 228.722 -0.54 +0.02    -0.084 Cl 
DOCKED: ENDBRANCH   3   6
DOCKED: ENDBRANCH   1   2
DOCKED: BRANCH   1  17
DOCKED: ATOM     17  C   UNL     1     140.272  75.960 221.746 -0.25 -0.06    +0.242 C  
DOCKED: ATOM     18  O   UNL     1     139.508  76.297 222.703 -0.32 +0.05    -0.273 OA 
DOCKED: BRANCH  17  19
DOCKED: ATOM     19  N   UNL     1     141.072  76.922 221.064 -0.13 +0.15    -0.338 N  
DOCKED: ATOM     20  C   UNL     1     142.196  76.576 220.227 -0.20 -0.07    +0.120 C  
DOCKED: ATOM     21  C   UNL     1     140.753  78.329 221.206 -0.25 -0.03    +0.088 C  
DOCKED: ATOM     22  C   UNL     1     142.436  77.441 219.054 -0.31 -0.01    +0.022 C  
DOCKED: ATOM     23  C   UNL     1     140.441  78.801 219.829 -0.15 -0.01    +0.025 C  
DOCKED: ATOM     24  C   UNL     1     141.522  78.589 218.837 -0.23 -0.00    +0.004 C  
DOCKED: BRANCH  21  25
DOCKED: ATOM     25  C   UNL     1     141.892  79.072 221.855 -0.45 -0.01    +0.012 C  
DOCKED: ATOM     26  C   UNL     1     141.874  78.868 223.346 -0.59 -0.00    +0.006 C  
DOCKED: ATOM     27  C   UNL     1     141.885  80.533 221.574 -0.44 -0.00    +0.006 C  
DOCKED: ATOM     28  C   UNL     1     141.401  80.231 223.851 -0.53 -0.00    +0.000 C  
DOCKED: ATOM     29  C   UNL     1     142.183  81.159 222.944 -0.56 -0.00    +0.000 C  
DOCKED: ENDBRANCH  21  25
DOCKED: ENDBRANCH  17  19
DOCKED: ENDBRANCH   1  17
DOCKED: TORSDOF 5
DOCKED: TER
DOCKED: ENDMDL
________________________________________________________________________________


    FINAL DOCKED STATE:
    ________________________


Run:   13 / 20
Time taken for this run:   0.045s

DOCKED: MODEL        13
DOCKED: USER    Run = 13
DOCKED: USER
DOCKED: USER    Estimated Free Energy of Binding    =  -8.80 kcal/mol  [=(1)+(2)+(3)-(4)]
DOCKED: USER
DOCKED: USER    (1) Final Intermolecular Energy     = -10.29 kcal/mol
DOCKED: USER        vdW + Hbond + desolv Energy     = -10.21 kcal/mol
DOCKED: USER        Electrostatic Energy            =  -0.08 kcal/mol
DOCKED: USER        Moving Ligand-Fixed Receptor    = -10.29 kcal/mol
DOCKED: USER        Moving Ligand-Moving Receptor   =  +0.00 kcal/mol
DOCKED: USER    (2) Final Total Internal Energy     =  -1.49 kcal/mol
DOCKED: USER    (3) Torsional Free Energy           =  +1.49 kcal/mol
DOCKED: USER    (4) Unbound System's Energy         =  -1.49 kcal/mol
DOCKED: USER
DOCKED: USER
DOCKED: REMARK SMILES O=C(NCC(=O)N1CCCC[C@@H]1C1CCCC1)c1ccc2ccc(Cl)cc2n1
DOCKED: REMARK SMILES IDX 4 1 3 2 2 3 1 4 18 6 19 7 28 8 20 9 27 10 21 11 26 12 22 13
DOCKED: REMARK SMILES IDX 24 14 23 15 25 16 5 17 6 18 7 19 8 20 12 21 9 22 11 23 10 24
DOCKED: REMARK SMILES IDX 13 25 14 26 17 27 15 28 16 29
DOCKED: REMARK H PARENT 3 5
DOCKED: USER                              x       y       z     vdW  Elec       q    Type
DOCKED: USER                           _______ _______ _______ _____ _____    ______ ____
DOCKED: ROOT
DOCKED: ATOM      1  C   UNL     1     140.460  74.517 221.283 -0.22 -0.04    +0.216 C  
DOCKED: ENDROOT
DOCKED: BRANCH   1   2
DOCKED: ATOM      2  N   UNL     1     139.968  73.563 222.233 -0.13 +0.03    -0.342 N  
DOCKED: ATOM      3  C   UNL     1     140.624  72.293 222.294 -0.20 -0.02    +0.270 C  
DOCKED: ATOM      4  O   UNL     1     141.593  72.147 221.483 -0.18 +0.02    -0.268 OA 
DOCKED: ATOM      5  H   UNL     1     139.161  73.753 222.875 -0.52 -0.06    +0.164 HD 
DOCKED: BRANCH   3   6
DOCKED: ATOM      6  C   UNL     1     140.211  71.249 223.219 -0.28 -0.02    +0.128 A  
DOCKED: ATOM      7  C   UNL     1     139.114  70.491 222.871 -0.22 -0.01    +0.035 A  
DOCKED: ATOM      8  N   UNL     1     140.820  70.982 224.370 -0.23 +0.03    -0.243 NA 
DOCKED: ATOM      9  C   UNL     1     138.670  69.491 223.696 -0.27 -0.00    +0.013 A  
DOCKED: ATOM     10  C   UNL     1     140.406  70.004 225.200 -0.40 -0.01    +0.073 A  
DOCKED: ATOM     11  C   UNL     1     139.303  69.229 224.870 -0.39 -0.00    +0.000 A  
DOCKED: ATOM     12  C   UNL     1     141.086  69.779 226.383 -0.51 -0.01    +0.049 A  
DOCKED: ATOM     13  C   UNL     1     138.859  68.220 225.707 -0.46 -0.00    +0.012 A  
DOCKED: ATOM     14  C   UNL     1     140.659  68.774 227.236 -0.60 -0.01    +0.043 A  
DOCKED: ATOM     15  C   UNL     1     139.558  68.022 226.875 -0.60 -0.00    +0.021 A  
DOCKED: ATOM     16  Cl  UNL     1     141.439  68.408 228.742 -0.55 +0.02    -0.084 Cl 
DOCKED: ENDBRANCH   3   6
DOCKED: ENDBRANCH   1   2
DOCKED: BRANCH   1  17
DOCKED: ATOM     17  C   UNL     1     140.290  75.922 221.738 -0.25 -0.06    +0.242 C  
DOCKED: ATOM     18  O   UNL     1     139.489  76.231 222.674 -0.33 +0.05    -0.273 OA 
DOCKED: BRANCH  17  19
DOCKED: ATOM     19  N   UNL     1     141.071  76.912 221.074 -0.13 +0.15    -0.338 N  
DOCKED: ATOM     20  C   UNL     1     142.184  76.603 220.210 -0.21 -0.07    +0.120 C  
DOCKED: ATOM     21  C   UNL     1     140.742  78.310 221.266 -0.26 -0.03    +0.088 C  
DOCKED: ATOM     22  C   UNL     1     142.398  77.506 219.061 -0.31 -0.01    +0.022 C  
DOCKED: ATOM     23  C   UNL     1     140.404  78.822 219.910 -0.15 -0.01    +0.025 C  
DOCKED: ATOM     24  C   UNL     1     141.470  78.651 218.894 -0.22 -0.00    +0.004 C  
DOCKED: BRANCH  21  25
DOCKED: ATOM     25  C   UNL     1     141.885  79.044 221.920 -0.46 -0.01    +0.012 C  
DOCKED: ATOM     26  C   UNL     1     141.830  78.878 223.415 -0.61 -0.00    +0.006 C  
DOCKED: ATOM     27  C   UNL     1     141.918  80.496 221.601 -0.45 -0.00    +0.006 C  
DOCKED: ATOM     28  C   UNL     1     141.379  80.265 223.875 -0.50 -0.00    +0.000 C  
DOCKED: ATOM     29  C   UNL     1     142.202  81.150 222.962 -0.57 -0.00    +0.000 C  
DOCKED: ENDBRANCH  21  25
DOCKED: ENDBRANCH  17  19
DOCKED: ENDBRANCH   1  17
DOCKED: TORSDOF 5
DOCKED: TER
DOCKED: ENDMDL
________________________________________________________________________________


    FINAL DOCKED STATE:
    ________________________


Run:   14 / 20
Time taken for this run:   0.045s

DOCKED: MODEL        14
DOCKED: USER    Run = 14
DOCKED: USER
DOCKED: USER    Estimated Free Energy of Binding    =  -8.78 kcal/mol  [=(1)+(2)+(3)-(4)]
DOCKED: USER
DOCKED: USER    (1) Final Intermolecular Energy     = -10.27 kcal/mol
DOCKED: USER        vdW + Hbond + desolv Energy     = -10.19 kcal/mol
DOCKED: USER        Electrostatic Energy            =  -0.09 kcal/mol
DOCKED: USER        Moving Ligand-Fixed Receptor    = -10.27 kcal/mol
DOCKED: USER        Moving Ligand-Moving Receptor   =  +0.00 kcal/mol
DOCKED: USER    (2) Final Total Internal Energy     =  -1.50 kcal/mol
DOCKED: USER    (3) Torsional Free Energy           =  +1.49 kcal/mol
DOCKED: USER    (4) Unbound System's Energy         =  -1.50 kcal/mol
DOCKED: USER
DOCKED: USER
DOCKED: REMARK SMILES O=C(NCC(=O)N1CCCC[C@@H]1C1CCCC1)c1ccc2ccc(Cl)cc2n1
DOCKED: REMARK SMILES IDX 4 1 3 2 2 3 1 4 18 6 19 7 28 8 20 9 27 10 21 11 26 12 22 13
DOCKED: REMARK SMILES IDX 24 14 23 15 25 16 5 17 6 18 7 19 8 20 12 21 9 22 11 23 10 24
DOCKED: REMARK SMILES IDX 13 25 14 26 17 27 15 28 16 29
DOCKED: REMARK H PARENT 3 5
DOCKED: USER                              x       y       z     vdW  Elec       q    Type
DOCKED: USER                           _______ _______ _______ _____ _____    ______ ____
DOCKED: ROOT
DOCKED: ATOM      1  C   UNL     1     140.227  74.515 221.236 -0.20 -0.04    +0.216 C  
DOCKED: ENDROOT
DOCKED: BRANCH   1   2
DOCKED: ATOM      2  N   UNL     1     139.791  73.562 222.215 -0.13 +0.04    -0.342 N  
DOCKED: ATOM      3  C   UNL     1     140.402  72.268 222.195 -0.20 -0.03    +0.270 C  
DOCKED: ATOM      4  O   UNL     1     141.283  72.102 221.293 -0.16 +0.03    -0.268 OA 
DOCKED: ATOM      5  H   UNL     1     139.056  73.770 222.934 -0.53 -0.07    +0.164 HD 
DOCKED: BRANCH   3   6
DOCKED: ATOM      6  C   UNL     1     140.039  71.224 223.139 -0.28 -0.02    +0.128 A  
DOCKED: ATOM      7  C   UNL     1     138.984  70.403 222.803 -0.21 -0.01    +0.035 A  
DOCKED: ATOM      8  N   UNL     1     140.656  71.011 224.298 -0.26 +0.03    -0.243 NA 
DOCKED: ATOM      9  C   UNL     1     138.589  69.398 223.646 -0.27 -0.00    +0.013 A  
DOCKED: ATOM     10  C   UNL     1     140.289  70.031 225.146 -0.40 -0.01    +0.073 A  
DOCKED: ATOM     11  C   UNL     1     139.229  69.193 224.829 -0.39 -0.00    +0.000 A  
DOCKED: ATOM     12  C   UNL     1     140.974  69.865 226.336 -0.51 -0.01    +0.049 A  
DOCKED: ATOM     13  C   UNL     1     138.835  68.180 225.684 -0.45 -0.00    +0.012 A  
DOCKED: ATOM     14  C   UNL     1     140.597  68.857 227.208 -0.60 -0.01    +0.043 A  
DOCKED: ATOM     15  C   UNL     1     139.537  68.042 226.859 -0.59 -0.00    +0.021 A  
DOCKED: ATOM     16  Cl  UNL     1     141.387  68.563 228.724 -0.56 +0.02    -0.084 Cl 
DOCKED: ENDBRANCH   3   6
DOCKED: ENDBRANCH   1   2
DOCKED: BRANCH   1  17
DOCKED: ATOM     17  C   UNL     1     140.199  75.912 221.742 -0.25 -0.06    +0.242 C  
DOCKED: ATOM     18  O   UNL     1     139.461  76.258 222.716 -0.32 +0.05    -0.273 OA 
DOCKED: BRANCH  17  19
DOCKED: ATOM     19  N   UNL     1     141.043  76.852 221.083 -0.13 +0.14    -0.338 N  
DOCKED: ATOM     20  C   UNL     1     142.190  76.476 220.291 -0.18 -0.07    +0.120 C  
DOCKED: ATOM     21  C   UNL     1     140.749  78.266 221.203 -0.25 -0.03    +0.088 C  
DOCKED: ATOM     22  C   UNL     1     142.490  77.326 219.120 -0.31 -0.01    +0.022 C  
DOCKED: ATOM     23  C   UNL     1     140.497  78.733 219.812 -0.15 -0.01    +0.025 C  
DOCKED: ATOM     24  C   UNL     1     141.608  78.490 218.862 -0.24 -0.00    +0.004 C  
DOCKED: BRANCH  21  25
DOCKED: ATOM     25  C   UNL     1     141.879  78.991 221.888 -0.45 -0.01    +0.012 C  
DOCKED: ATOM     26  C   UNL     1     141.801  78.801 223.378 -0.60 -0.00    +0.006 C  
DOCKED: ATOM     27  C   UNL     1     141.913  80.449 221.594 -0.45 -0.00    +0.006 C  
DOCKED: ATOM     28  C   UNL     1     141.338  80.178 223.854 -0.52 -0.00    +0.000 C  
DOCKED: ATOM     29  C   UNL     1     142.173  81.081 222.969 -0.58 -0.00    +0.000 C  
DOCKED: ENDBRANCH  21  25
DOCKED: ENDBRANCH  17  19
DOCKED: ENDBRANCH   1  17
DOCKED: TORSDOF 5
DOCKED: TER
DOCKED: ENDMDL
________________________________________________________________________________


    FINAL DOCKED STATE:
    ________________________


Run:   15 / 20
Time taken for this run:   0.045s

DOCKED: MODEL        15
DOCKED: USER    Run = 15
DOCKED: USER
DOCKED: USER    Estimated Free Energy of Binding    =  -8.80 kcal/mol  [=(1)+(2)+(3)-(4)]
DOCKED: USER
DOCKED: USER    (1) Final Intermolecular Energy     = -10.30 kcal/mol
DOCKED: USER        vdW + Hbond + desolv Energy     = -10.22 kcal/mol
DOCKED: USER        Electrostatic Energy            =  -0.08 kcal/mol
DOCKED: USER        Moving Ligand-Fixed Receptor    = -10.30 kcal/mol
DOCKED: USER        Moving Ligand-Moving Receptor   =  +0.00 kcal/mol
DOCKED: USER    (2) Final Total Internal Energy     =  -1.41 kcal/mol
DOCKED: USER    (3) Torsional Free Energy           =  +1.49 kcal/mol
DOCKED: USER    (4) Unbound System's Energy         =  -1.41 kcal/mol
DOCKED: USER
DOCKED: USER
DOCKED: REMARK SMILES O=C(NCC(=O)N1CCCC[C@@H]1C1CCCC1)c1ccc2ccc(Cl)cc2n1
DOCKED: REMARK SMILES IDX 4 1 3 2 2 3 1 4 18 6 19 7 28 8 20 9 27 10 21 11 26 12 22 13
DOCKED: REMARK SMILES IDX 24 14 23 15 25 16 5 17 6 18 7 19 8 20 12 21 9 22 11 23 10 24
DOCKED: REMARK SMILES IDX 13 25 14 26 17 27 15 28 16 29
DOCKED: REMARK H PARENT 3 5
DOCKED: USER                              x       y       z     vdW  Elec       q    Type
DOCKED: USER                           _______ _______ _______ _____ _____    ______ ____
DOCKED: ROOT
DOCKED: ATOM      1  C   UNL     1     139.846  74.491 221.164 -0.18 -0.04    +0.216 C  
DOCKED: ENDROOT
DOCKED: BRANCH   1   2
DOCKED: ATOM      2  N   UNL     1     139.436  73.499 222.115 -0.13 +0.07    -0.342 N  
DOCKED: ATOM      3  C   UNL     1     140.263  72.340 222.258 -0.21 -0.03    +0.270 C  
DOCKED: ATOM      4  O   UNL     1     141.293  72.317 221.512 -0.19 +0.03    -0.268 OA 
DOCKED: ATOM      5  H   UNL     1     138.570  73.585 222.700 -0.52 -0.08    +0.164 HD 
DOCKED: BRANCH   3   6
DOCKED: ATOM      6  C   UNL     1     139.946  71.270 223.190 -0.29 -0.02    +0.128 A  
DOCKED: ATOM      7  C   UNL     1     138.915  70.421 222.855 -0.21 -0.01    +0.035 A  
DOCKED: ATOM      8  N   UNL     1     140.584  71.061 224.339 -0.27 +0.03    -0.243 NA 
DOCKED: ATOM      9  C   UNL     1     138.562  69.391 223.687 -0.27 -0.00    +0.013 A  
DOCKED: ATOM     10  C   UNL     1     140.259  70.057 225.176 -0.40 -0.01    +0.073 A  
DOCKED: ATOM     11  C   UNL     1     139.223  69.190 224.858 -0.39 -0.00    +0.000 A  
DOCKED: ATOM     12  C   UNL     1     140.964  69.896 226.356 -0.51 -0.01    +0.049 A  
DOCKED: ATOM     13  C   UNL     1     138.872  68.152 225.703 -0.46 -0.00    +0.012 A  
DOCKED: ATOM     14  C   UNL     1     140.630  68.864 227.216 -0.60 -0.01    +0.043 A  
DOCKED: ATOM     15  C   UNL     1     139.593  68.019 226.867 -0.61 -0.00    +0.021 A  
DOCKED: ATOM     16  Cl  UNL     1     141.448  68.573 228.718 -0.54 +0.02    -0.084 Cl 
DOCKED: ENDBRANCH   3   6
DOCKED: ENDBRANCH   1   2
DOCKED: BRANCH   1  17
DOCKED: ATOM     17  C   UNL     1     140.068  75.824 221.784 -0.24 -0.05    +0.242 C  
DOCKED: ATOM     18  O   UNL     1     139.446  76.189 222.830 -0.27 +0.04    -0.273 OA 
DOCKED: BRANCH  17  19
DOCKED: ATOM     19  N   UNL     1     141.014  76.678 221.150 -0.14 +0.14    -0.338 N  
DOCKED: ATOM     20  C   UNL     1     142.167  76.196 220.427 -0.16 -0.07    +0.120 C  
DOCKED: ATOM     21  C   UNL     1     140.825  78.114 221.224 -0.27 -0.04    +0.088 C  
DOCKED: ATOM     22  C   UNL     1     142.591  76.990 219.256 -0.33 -0.01    +0.022 C  
DOCKED: ATOM     23  C   UNL     1     140.681  78.562 219.812 -0.17 -0.01    +0.025 C  
DOCKED: ATOM     24  C   UNL     1     141.817  78.211 218.926 -0.26 -0.00    +0.004 C  
DOCKED: BRANCH  21  25
DOCKED: ATOM     25  C   UNL     1     141.972  78.767 221.951 -0.38 -0.01    +0.012 C  
DOCKED: ATOM     26  C   UNL     1     141.790  78.647 223.439 -0.60 -0.00    +0.006 C  
DOCKED: ATOM     27  C   UNL     1     142.152  80.204 221.607 -0.45 -0.00    +0.006 C  
DOCKED: ATOM     28  C   UNL     1     141.423  80.077 223.835 -0.55 -0.00    +0.000 C  
DOCKED: ATOM     29  C   UNL     1     142.385  80.867 222.972 -0.61 -0.00    +0.000 C  
DOCKED: ENDBRANCH  21  25
DOCKED: ENDBRANCH  17  19
DOCKED: ENDBRANCH   1  17
DOCKED: TORSDOF 5
DOCKED: TER
DOCKED: ENDMDL
________________________________________________________________________________


    FINAL DOCKED STATE:
    ________________________


Run:   16 / 20
Time taken for this run:   0.045s

DOCKED: MODEL        16
DOCKED: USER    Run = 16
DOCKED: USER
DOCKED: USER    Estimated Free Energy of Binding    =  -8.72 kcal/mol  [=(1)+(2)+(3)-(4)]
DOCKED: USER
DOCKED: USER    (1) Final Intermolecular Energy     = -10.21 kcal/mol
DOCKED: USER        vdW + Hbond + desolv Energy     = -10.13 kcal/mol
DOCKED: USER        Electrostatic Energy            =  -0.08 kcal/mol
DOCKED: USER        Moving Ligand-Fixed Receptor    = -10.21 kcal/mol
DOCKED: USER        Moving Ligand-Moving Receptor   =  +0.00 kcal/mol
DOCKED: USER    (2) Final Total Internal Energy     =  -1.52 kcal/mol
DOCKED: USER    (3) Torsional Free Energy           =  +1.49 kcal/mol
DOCKED: USER    (4) Unbound System's Energy         =  -1.52 kcal/mol
DOCKED: USER
DOCKED: USER
DOCKED: REMARK SMILES O=C(NCC(=O)N1CCCC[C@@H]1C1CCCC1)c1ccc2ccc(Cl)cc2n1
DOCKED: REMARK SMILES IDX 4 1 3 2 2 3 1 4 18 6 19 7 28 8 20 9 27 10 21 11 26 12 22 13
DOCKED: REMARK SMILES IDX 24 14 23 15 25 16 5 17 6 18 7 19 8 20 12 21 9 22 11 23 10 24
DOCKED: REMARK SMILES IDX 13 25 14 26 17 27 15 28 16 29
DOCKED: REMARK H PARENT 3 5
DOCKED: USER                              x       y       z     vdW  Elec       q    Type
DOCKED: USER                           _______ _______ _______ _____ _____    ______ ____
DOCKED: ROOT
DOCKED: ATOM      1  C   UNL     1     140.534  74.710 221.257 -0.22 -0.04    +0.216 C  
DOCKED: ENDROOT
DOCKED: BRANCH   1   2
DOCKED: ATOM      2  N   UNL     1     139.978  73.777 222.194 -0.10 +0.03    -0.342 N  
DOCKED: ATOM      3  C   UNL     1     140.607  72.496 222.301 -0.19 -0.02    +0.270 C  
DOCKED: ATOM      4  O   UNL     1     141.610  72.322 221.540 -0.19 +0.02    -0.268 OA 
DOCKED: ATOM      5  H   UNL     1     139.145  73.990 222.794 -0.53 -0.06    +0.164 HD 
DOCKED: BRANCH   3   6
DOCKED: ATOM      6  C   UNL     1     140.131  71.472 223.217 -0.30 -0.02    +0.128 A  
DOCKED: ATOM      7  C   UNL     1     138.989  70.787 222.865 -0.23 -0.01    +0.035 A  
DOCKED: ATOM      8  N   UNL     1     140.723  71.158 224.366 -0.28 +0.03    -0.243 NA 
DOCKED: ATOM      9  C   UNL     1     138.484  69.809 223.681 -0.27 -0.00    +0.013 A  
DOCKED: ATOM     10  C   UNL     1     140.249  70.201 225.188 -0.42 -0.01    +0.073 A  
DOCKED: ATOM     11  C   UNL     1     139.101  69.498 224.853 -0.38 -0.00    +0.000 A  
DOCKED: ATOM     12  C   UNL     1     140.915  69.923 226.369 -0.52 -0.01    +0.049 A  
DOCKED: ATOM     13  C   UNL     1     138.596  68.512 225.682 -0.39 -0.00    +0.012 A  
DOCKED: ATOM     14  C   UNL     1     140.428  68.940 227.213 -0.59 -0.01    +0.043 A  
DOCKED: ATOM     15  C   UNL     1     139.281  68.260 226.847 -0.48 -0.00    +0.021 A  
DOCKED: ATOM     16  Cl  UNL     1     141.184  68.513 228.715 -0.66 +0.02    -0.084 Cl 
DOCKED: ENDBRANCH   3   6
DOCKED: ENDBRANCH   1   2
DOCKED: BRANCH   1  17
DOCKED: ATOM     17  C   UNL     1     140.346  76.124 221.674 -0.25 -0.06    +0.242 C  
DOCKED: ATOM     18  O   UNL     1     139.553  76.447 222.613 -0.29 +0.05    -0.273 OA 
DOCKED: BRANCH  17  19
DOCKED: ATOM     19  N   UNL     1     141.098  77.108 220.970 -0.12 +0.15    -0.338 N  
DOCKED: ATOM     20  C   UNL     1     142.204  76.793 220.098 -0.26 -0.07    +0.120 C  
DOCKED: ATOM     21  C   UNL     1     140.747  78.506 221.126 -0.25 -0.03    +0.088 C  
DOCKED: ATOM     22  C   UNL     1     142.385  77.665 218.920 -0.30 -0.01    +0.022 C  
DOCKED: ATOM     23  C   UNL     1     140.380  78.971 219.761 -0.14 -0.01    +0.025 C  
DOCKED: ATOM     24  C   UNL     1     141.435  78.789 218.734 -0.22 -0.00    +0.004 C  
DOCKED: BRANCH  21  25
DOCKED: ATOM     25  C   UNL     1     141.887  79.277 221.741 -0.44 -0.01    +0.012 C  
DOCKED: ATOM     26  C   UNL     1     141.998  78.971 223.210 -0.58 -0.00    +0.006 C  
DOCKED: ATOM     27  C   UNL     1     141.768  80.750 221.568 -0.44 -0.00    +0.006 C  
DOCKED: ATOM     28  C   UNL     1     141.483  80.262 223.847 -0.55 -0.00    +0.000 C  
DOCKED: ATOM     29  C   UNL     1     142.133  81.299 222.955 -0.53 -0.00    +0.000 C  
DOCKED: ENDBRANCH  21  25
DOCKED: ENDBRANCH  17  19
DOCKED: ENDBRANCH   1  17
DOCKED: TORSDOF 5
DOCKED: TER
DOCKED: ENDMDL
________________________________________________________________________________


    FINAL DOCKED STATE:
    ________________________


Run:   17 / 20
Time taken for this run:   0.045s

DOCKED: MODEL        17
DOCKED: USER    Run = 17
DOCKED: USER
DOCKED: USER    Estimated Free Energy of Binding    =  -8.62 kcal/mol  [=(1)+(2)+(3)-(4)]
DOCKED: USER
DOCKED: USER    (1) Final Intermolecular Energy     = -10.11 kcal/mol
DOCKED: USER        vdW + Hbond + desolv Energy     = -10.04 kcal/mol
DOCKED: USER        Electrostatic Energy            =  -0.07 kcal/mol
DOCKED: USER        Moving Ligand-Fixed Receptor    = -10.11 kcal/mol
DOCKED: USER        Moving Ligand-Moving Receptor   =  +0.00 kcal/mol
DOCKED: USER    (2) Final Total Internal Energy     =  -1.57 kcal/mol
DOCKED: USER    (3) Torsional Free Energy           =  +1.49 kcal/mol
DOCKED: USER    (4) Unbound System's Energy         =  -1.57 kcal/mol
DOCKED: USER
DOCKED: USER
DOCKED: REMARK SMILES O=C(NCC(=O)N1CCCC[C@@H]1C1CCCC1)c1ccc2ccc(Cl)cc2n1
DOCKED: REMARK SMILES IDX 4 1 3 2 2 3 1 4 18 6 19 7 28 8 20 9 27 10 21 11 26 12 22 13
DOCKED: REMARK SMILES IDX 24 14 23 15 25 16 5 17 6 18 7 19 8 20 12 21 9 22 11 23 10 24
DOCKED: REMARK SMILES IDX 13 25 14 26 17 27 15 28 16 29
DOCKED: REMARK H PARENT 3 5
DOCKED: USER                              x       y       z     vdW  Elec       q    Type
DOCKED: USER                           _______ _______ _______ _____ _____    ______ ____
DOCKED: ROOT
DOCKED: ATOM      1  C   UNL     1     140.603  74.575 221.320 -0.22 -0.04    +0.216 C  
DOCKED: ENDROOT
DOCKED: BRANCH   1   2
DOCKED: ATOM      2  N   UNL     1     140.141  73.634 222.299 -0.06 +0.01    -0.342 N  
DOCKED: ATOM      3  C   UNL     1     140.570  72.276 222.164 -0.20 -0.03    +0.270 C  
DOCKED: ATOM      4  O   UNL     1     141.330  72.047 221.170 -0.15 +0.03    -0.268 OA 
DOCKED: ATOM      5  H   UNL     1     139.513  73.896 223.097 -0.52 -0.03    +0.164 HD 
DOCKED: BRANCH   3   6
DOCKED: ATOM      6  C   UNL     1     140.165  71.237 223.097 -0.27 -0.02    +0.128 A  
DOCKED: ATOM      7  C   UNL     1     139.107  70.433 222.733 -0.21 -0.01    +0.035 A  
DOCKED: ATOM      8  N   UNL     1     140.747  71.016 224.273 -0.24 +0.03    -0.243 NA 
DOCKED: ATOM      9  C   UNL     1     138.673  69.435 223.565 -0.26 -0.00    +0.013 A  
DOCKED: ATOM     10  C   UNL     1     140.342  70.041 225.110 -0.40 -0.01    +0.073 A  
DOCKED: ATOM     11  C   UNL     1     139.278  69.220 224.764 -0.38 -0.00    +0.000 A  
DOCKED: ATOM     12  C   UNL     1     140.992  69.865 226.319 -0.51 -0.01    +0.049 A  
DOCKED: ATOM     13  C   UNL     1     138.844  68.214 225.609 -0.44 -0.00    +0.012 A  
DOCKED: ATOM     14  C   UNL     1     140.574  68.863 227.179 -0.59 -0.01    +0.043 A  
DOCKED: ATOM     15  C   UNL     1     139.512  68.064 226.802 -0.59 -0.00    +0.021 A  
DOCKED: ATOM     16  Cl  UNL     1     141.319  68.557 228.716 -0.60 +0.02    -0.084 Cl 
DOCKED: ENDBRANCH   3   6
DOCKED: ENDBRANCH   1   2
DOCKED: BRANCH   1  17
DOCKED: ATOM     17  C   UNL     1     140.383  75.986 221.730 -0.25 -0.06    +0.242 C  
DOCKED: ATOM     18  O   UNL     1     139.588  76.295 222.671 -0.32 +0.05    -0.273 OA 
DOCKED: BRANCH  17  19
DOCKED: ATOM     19  N   UNL     1     141.108  76.983 221.017 -0.13 +0.15    -0.338 N  
DOCKED: ATOM     20  C   UNL     1     142.201  76.688 220.121 -0.25 -0.07    +0.120 C  
DOCKED: ATOM     21  C   UNL     1     140.742  78.375 221.187 -0.25 -0.03    +0.088 C  
DOCKED: ATOM     22  C   UNL     1     142.346  77.569 218.945 -0.30 -0.01    +0.022 C  
DOCKED: ATOM     23  C   UNL     1     140.342  78.843 219.832 -0.14 -0.01    +0.025 C  
DOCKED: ATOM     24  C   UNL     1     141.378  78.681 218.784 -0.21 -0.00    +0.004 C  
DOCKED: BRANCH  21  25
DOCKED: ATOM     25  C   UNL     1     141.883  79.159 221.784 -0.44 -0.01    +0.012 C  
DOCKED: ATOM     26  C   UNL     1     141.943  78.951 223.273 -0.59 -0.00    +0.006 C  
DOCKED: ATOM     27  C   UNL     1     141.808  80.619 221.508 -0.43 -0.00    +0.006 C  
DOCKED: ATOM     28  C   UNL     1     141.445  80.295 223.805 -0.55 -0.00    +0.000 C  
DOCKED: ATOM     29  C   UNL     1     142.147  81.253 222.866 -0.54 -0.00    +0.000 C  
DOCKED: ENDBRANCH  21  25
DOCKED: ENDBRANCH  17  19
DOCKED: ENDBRANCH   1  17
DOCKED: TORSDOF 5
DOCKED: TER
DOCKED: ENDMDL
________________________________________________________________________________


    FINAL DOCKED STATE:
    ________________________


Run:   18 / 20
Time taken for this run:   0.045s

DOCKED: MODEL        18
DOCKED: USER    Run = 18
DOCKED: USER
DOCKED: USER    Estimated Free Energy of Binding    =  -8.75 kcal/mol  [=(1)+(2)+(3)-(4)]
DOCKED: USER
DOCKED: USER    (1) Final Intermolecular Energy     = -10.24 kcal/mol
DOCKED: USER        vdW + Hbond + desolv Energy     = -10.16 kcal/mol
DOCKED: USER        Electrostatic Energy            =  -0.08 kcal/mol
DOCKED: USER        Moving Ligand-Fixed Receptor    = -10.24 kcal/mol
DOCKED: USER        Moving Ligand-Moving Receptor   =  +0.00 kcal/mol
DOCKED: USER    (2) Final Total Internal Energy     =  -1.53 kcal/mol
DOCKED: USER    (3) Torsional Free Energy           =  +1.49 kcal/mol
DOCKED: USER    (4) Unbound System's Energy         =  -1.53 kcal/mol
DOCKED: USER
DOCKED: USER
DOCKED: REMARK SMILES O=C(NCC(=O)N1CCCC[C@@H]1C1CCCC1)c1ccc2ccc(Cl)cc2n1
DOCKED: REMARK SMILES IDX 4 1 3 2 2 3 1 4 18 6 19 7 28 8 20 9 27 10 21 11 26 12 22 13
DOCKED: REMARK SMILES IDX 24 14 23 15 25 16 5 17 6 18 7 19 8 20 12 21 9 22 11 23 10 24
DOCKED: REMARK SMILES IDX 13 25 14 26 17 27 15 28 16 29
DOCKED: REMARK H PARENT 3 5
DOCKED: USER                              x       y       z     vdW  Elec       q    Type
DOCKED: USER                           _______ _______ _______ _____ _____    ______ ____
DOCKED: ROOT
DOCKED: ATOM      1  C   UNL     1     140.518  74.448 221.342 -0.22 -0.03    +0.216 C  
DOCKED: ENDROOT
DOCKED: BRANCH   1   2
DOCKED: ATOM      2  N   UNL     1     140.031  73.503 222.306 -0.12 +0.03    -0.342 N  
DOCKED: ATOM      3  C   UNL     1     140.599  72.190 222.288 -0.20 -0.03    +0.270 C  
DOCKED: ATOM      4  O   UNL     1     141.493  72.000 221.403 -0.17 +0.03    -0.268 OA 
DOCKED: ATOM      5  H   UNL     1     139.289  73.731 223.010 -0.51 -0.06    +0.164 HD 
DOCKED: BRANCH   3   6
DOCKED: ATOM      6  C   UNL     1     140.183  71.152 223.217 -0.27 -0.02    +0.128 A  
DOCKED: ATOM      7  C   UNL     1     139.084  70.395 222.873 -0.22 -0.01    +0.035 A  
DOCKED: ATOM      8  N   UNL     1     140.791  70.888 224.370 -0.22 +0.03    -0.243 NA 
DOCKED: ATOM      9  C   UNL     1     138.637  69.400 223.702 -0.28 -0.00    +0.013 A  
DOCKED: ATOM     10  C   UNL     1     140.374  69.916 225.204 -0.39 -0.01    +0.073 A  
DOCKED: ATOM     11  C   UNL     1     139.269  69.142 224.878 -0.39 -0.00    +0.000 A  
DOCKED: ATOM     12  C   UNL     1     141.053  69.694 226.389 -0.51 -0.01    +0.049 A  
DOCKED: ATOM     13  C   UNL     1     138.822  68.138 225.720 -0.45 -0.00    +0.012 A  
DOCKED: ATOM     14  C   UNL     1     140.624  68.694 227.246 -0.61 -0.01    +0.043 A  
DOCKED: ATOM     15  C   UNL     1     139.520  67.943 226.889 -0.59 -0.00    +0.021 A  
DOCKED: ATOM     16  Cl  UNL     1     141.402  68.333 228.754 -0.56 +0.02    -0.084 Cl 
DOCKED: ENDBRANCH   3   6
DOCKED: ENDBRANCH   1   2
DOCKED: BRANCH   1  17
DOCKED: ATOM     17  C   UNL     1     140.282  75.857 221.749 -0.25 -0.06    +0.242 C  
DOCKED: ATOM     18  O   UNL     1     139.451  76.162 222.660 -0.34 +0.05    -0.273 OA 
DOCKED: BRANCH  17  19
DOCKED: ATOM     19  N   UNL     1     141.034  76.857 221.069 -0.13 +0.14    -0.338 N  
DOCKED: ATOM     20  C   UNL     1     142.132  76.564 220.179 -0.23 -0.07    +0.120 C  
DOCKED: ATOM     21  C   UNL     1     140.692  78.252 221.270 -0.26 -0.03    +0.088 C  
DOCKED: ATOM     22  C   UNL     1     142.307  77.471 219.026 -0.30 -0.01    +0.022 C  
DOCKED: ATOM     23  C   UNL     1     140.317  78.761 219.923 -0.14 -0.01    +0.025 C  
DOCKED: ATOM     24  C   UNL     1     141.362  78.604 218.883 -0.21 -0.00    +0.004 C  
DOCKED: BRANCH  21  25
DOCKED: ATOM     25  C   UNL     1     141.841  78.999 221.899 -0.46 -0.01    +0.012 C  
DOCKED: ATOM     26  C   UNL     1     141.803  78.860 223.397 -0.61 -0.00    +0.006 C  
DOCKED: ATOM     27  C   UNL     1     141.868  80.446 221.554 -0.44 -0.00    +0.006 C  
DOCKED: ATOM     28  C   UNL     1     141.354  80.253 223.837 -0.53 -0.00    +0.000 C  
DOCKED: ATOM     29  C   UNL     1     142.165  81.124 222.900 -0.56 -0.00    +0.000 C  
DOCKED: ENDBRANCH  21  25
DOCKED: ENDBRANCH  17  19
DOCKED: ENDBRANCH   1  17
DOCKED: TORSDOF 5
DOCKED: TER
DOCKED: ENDMDL
________________________________________________________________________________


    FINAL DOCKED STATE:
    ________________________


Run:   19 / 20
Time taken for this run:   0.045s

DOCKED: MODEL        19
DOCKED: USER    Run = 19
DOCKED: USER
DOCKED: USER    Estimated Free Energy of Binding    =  -7.85 kcal/mol  [=(1)+(2)+(3)-(4)]
DOCKED: USER
DOCKED: USER    (1) Final Intermolecular Energy     =  -9.34 kcal/mol
DOCKED: USER        vdW + Hbond + desolv Energy     =  -9.25 kcal/mol
DOCKED: USER        Electrostatic Energy            =  -0.08 kcal/mol
DOCKED: USER        Moving Ligand-Fixed Receptor    =  -9.34 kcal/mol
DOCKED: USER        Moving Ligand-Moving Receptor   =  +0.00 kcal/mol
DOCKED: USER    (2) Final Total Internal Energy     =  -1.77 kcal/mol
DOCKED: USER    (3) Torsional Free Energy           =  +1.49 kcal/mol
DOCKED: USER    (4) Unbound System's Energy         =  -1.77 kcal/mol
DOCKED: USER
DOCKED: USER
DOCKED: REMARK SMILES O=C(NCC(=O)N1CCCC[C@@H]1C1CCCC1)c1ccc2ccc(Cl)cc2n1
DOCKED: REMARK SMILES IDX 4 1 3 2 2 3 1 4 18 6 19 7 28 8 20 9 27 10 21 11 26 12 22 13
DOCKED: REMARK SMILES IDX 24 14 23 15 25 16 5 17 6 18 7 19 8 20 12 21 9 22 11 23 10 24
DOCKED: REMARK SMILES IDX 13 25 14 26 17 27 15 28 16 29
DOCKED: REMARK H PARENT 3 5
DOCKED: USER                              x       y       z     vdW  Elec       q    Type
DOCKED: USER                           _______ _______ _______ _____ _____    ______ ____
DOCKED: ROOT
DOCKED: ATOM      1  C   UNL     1     138.525  76.406 221.851 -0.19 -0.05    +0.216 C  
DOCKED: ENDROOT
DOCKED: BRANCH   1   2
DOCKED: ATOM      2  N   UNL     1     137.691  75.662 222.750 -0.12 +0.10    -0.342 N  
DOCKED: ATOM      3  C   UNL     1     136.494  76.292 223.215 -0.14 -0.06    +0.270 C  
DOCKED: ATOM      4  O   UNL     1     136.295  77.468 222.771 -0.12 +0.04    -0.268 OA 
DOCKED: ATOM      5  H   UNL     1     137.918  74.691 223.075 -0.48 -0.10    +0.164 HD 
DOCKED: BRANCH   3   6
DOCKED: ATOM      6  C   UNL     1     135.573  75.633 224.127 -0.26 -0.02    +0.128 A  
DOCKED: ATOM      7  C   UNL     1     134.703  76.431 224.838 -0.23 -0.00    +0.035 A  
DOCKED: ATOM      8  N   UNL     1     135.518  74.318 224.318 -0.19 +0.05    -0.243 NA 
DOCKED: ATOM      9  C   UNL     1     133.809  75.876 225.715 -0.32 -0.00    +0.013 A  
DOCKED: ATOM     10  C   UNL     1     134.649  73.745 225.174 -0.27 -0.00    +0.073 A  
DOCKED: ATOM     11  C   UNL     1     133.764  74.530 225.900 -0.35 +0.00    +0.000 A  
DOCKED: ATOM     12  C   UNL     1     134.645  72.370 225.325 -0.20 -0.00    +0.049 A  
DOCKED: ATOM     13  C   UNL     1     132.863  73.964 226.785 -0.37 +0.00    +0.012 A  
DOCKED: ATOM     14  C   UNL     1     133.751  71.782 226.205 -0.33 -0.00    +0.043 A  
DOCKED: ATOM     15  C   UNL     1     132.885  72.594 226.912 -0.40 -0.00    +0.021 A  
DOCKED: ATOM     16  Cl  UNL     1     133.662  70.070 226.469 -0.33 +0.00    -0.084 Cl 
DOCKED: ENDBRANCH   3   6
DOCKED: ENDBRANCH   1   2
DOCKED: BRANCH   1  17
DOCKED: ATOM     17  C   UNL     1     139.883  75.820 221.708 -0.23 -0.05    +0.242 C  
DOCKED: ATOM     18  O   UNL     1     140.145  74.635 222.085 -0.77 +0.02    -0.273 OA 
DOCKED: BRANCH  17  19
DOCKED: ATOM     19  N   UNL     1     140.883  76.650 221.126 -0.13 +0.13    -0.338 N  
DOCKED: ATOM     20  C   UNL     1     142.065  76.138 220.474 -0.17 -0.07    +0.120 C  
DOCKED: ATOM     21  C   UNL     1     140.722  78.089 221.183 -0.25 -0.03    +0.088 C  
DOCKED: ATOM     22  C   UNL     1     142.573  76.915 219.326 -0.34 -0.01    +0.022 C  
DOCKED: ATOM     23  C   UNL     1     140.670  78.533 219.763 -0.17 -0.01    +0.025 C  
DOCKED: ATOM     24  C   UNL     1     141.847  78.152 218.946 -0.27 -0.00    +0.004 C  
DOCKED: BRANCH  21  25
DOCKED: ATOM     25  C   UNL     1     141.840  78.722 221.972 -0.43 -0.01    +0.012 C  
DOCKED: ATOM     26  C   UNL     1     141.586  78.583 223.449 -0.58 -0.00    +0.006 C  
DOCKED: ATOM     27  C   UNL     1     142.049  80.161 221.657 -0.46 -0.00    +0.006 C  
DOCKED: ATOM     28  C   UNL     1     141.214  80.011 223.846 -0.53 -0.00    +0.000 C  
DOCKED: ATOM     29  C   UNL     1     142.223  80.804 223.040 -0.63 -0.00    +0.000 C  
DOCKED: ENDBRANCH  21  25
DOCKED: ENDBRANCH  17  19
DOCKED: ENDBRANCH   1  17
DOCKED: TORSDOF 5
DOCKED: TER
DOCKED: ENDMDL
________________________________________________________________________________


    FINAL DOCKED STATE:
    ________________________


Run:   20 / 20
Time taken for this run:   0.045s

DOCKED: MODEL        20
DOCKED: USER    Run = 20
DOCKED: USER
DOCKED: USER    Estimated Free Energy of Binding    =  -7.39 kcal/mol  [=(1)+(2)+(3)-(4)]
DOCKED: USER
DOCKED: USER    (1) Final Intermolecular Energy     =  -8.89 kcal/mol
DOCKED: USER        vdW + Hbond + desolv Energy     =  -8.87 kcal/mol
DOCKED: USER        Electrostatic Energy            =  -0.01 kcal/mol
DOCKED: USER        Moving Ligand-Fixed Receptor    =  -8.89 kcal/mol
DOCKED: USER        Moving Ligand-Moving Receptor   =  +0.00 kcal/mol
DOCKED: USER    (2) Final Total Internal Energy     =  -2.19 kcal/mol
DOCKED: USER    (3) Torsional Free Energy           =  +1.49 kcal/mol
DOCKED: USER    (4) Unbound System's Energy         =  -2.19 kcal/mol
DOCKED: USER
DOCKED: USER
DOCKED: REMARK SMILES O=C(NCC(=O)N1CCCC[C@@H]1C1CCCC1)c1ccc2ccc(Cl)cc2n1
DOCKED: REMARK SMILES IDX 4 1 3 2 2 3 1 4 18 6 19 7 28 8 20 9 27 10 21 11 26 12 22 13
DOCKED: REMARK SMILES IDX 24 14 23 15 25 16 5 17 6 18 7 19 8 20 12 21 9 22 11 23 10 24
DOCKED: REMARK SMILES IDX 13 25 14 26 17 27 15 28 16 29
DOCKED: REMARK H PARENT 3 5
DOCKED: USER                              x       y       z     vdW  Elec       q    Type
DOCKED: USER                           _______ _______ _______ _____ _____    ______ ____
DOCKED: ROOT
DOCKED: ATOM      1  C   UNL     1     142.926  76.034 219.765 -0.25 -0.13    +0.216 C  
DOCKED: ENDROOT
DOCKED: BRANCH   1   2
DOCKED: ATOM      2  N   UNL     1     142.270  75.200 220.730 -0.13 +0.15    -0.342 N  
DOCKED: ATOM      3  C   UNL     1     141.187  74.385 220.270 -0.12 -0.07    +0.270 C  
DOCKED: ATOM      4  O   UNL     1     140.921  74.491 219.031 -0.03 +0.07    -0.268 OA 
DOCKED: ATOM      5  H   UNL     1     142.545  75.163 221.740 -0.42 -0.08    +0.164 HD 
DOCKED: BRANCH   3   6
DOCKED: ATOM      6  C   UNL     1     140.450  73.501 221.158 -0.21 -0.02    +0.128 A  
DOCKED: ATOM      7  C   UNL     1     139.200  73.089 220.749 -0.12 -0.01    +0.035 A  
DOCKED: ATOM      8  N   UNL     1     140.901  73.069 222.332 -0.54 -0.00    -0.243 NA 
DOCKED: ATOM      9  C   UNL     1     138.450  72.255 221.537 -0.14 -0.00    +0.013 A  
DOCKED: ATOM     10  C   UNL     1     140.186  72.249 223.127 -0.31 -0.01    +0.073 A  
DOCKED: ATOM     11  C   UNL     1     138.925  71.821 222.735 -0.25 -0.00    +0.000 A  
DOCKED: ATOM     12  C   UNL     1     140.715  71.836 224.337 -0.30 -0.01    +0.049 A  
DOCKED: ATOM     13  C   UNL     1     138.172  70.980 223.535 -0.25 -0.00    +0.012 A  
DOCKED: ATOM     14  C   UNL     1     139.979  70.994 225.153 -0.47 -0.01    +0.043 A  
DOCKED: ATOM     15  C   UNL     1     138.728  70.588 224.731 -0.30 -0.00    +0.021 A  
DOCKED: ATOM     16  Cl  UNL     1     140.549  70.418 226.687 -0.75 +0.01    -0.084 Cl 
DOCKED: ENDBRANCH   3   6
DOCKED: ENDBRANCH   1   2
DOCKED: BRANCH   1  17
DOCKED: ATOM     17  C   UNL     1     142.160  77.271 219.459 -0.21 -0.15    +0.242 C  
DOCKED: ATOM     18  O   UNL     1     142.414  77.981 218.437 -0.21 +0.19    -0.273 OA 
DOCKED: BRANCH  17  19
DOCKED: ATOM     19  N   UNL     1     141.122  77.626 220.368 -0.09 +0.15    -0.338 N  
DOCKED: ATOM     20  C   UNL     1     139.747  77.814 219.974 -0.08 -0.04    +0.120 C  
DOCKED: ATOM     21  C   UNL     1     141.448  77.812 221.768 -0.27 -0.05    +0.088 C  
DOCKED: ATOM     22  C   UNL     1     138.719  77.421 220.960 -0.13 -0.01    +0.022 C  
DOCKED: ATOM     23  C   UNL     1     140.638  76.797 222.496 -0.36 -0.01    +0.025 C  
DOCKED: ATOM     24  C   UNL     1     139.176  76.883 222.265 -0.32 -0.00    +0.004 C  
DOCKED: BRANCH  21  25
DOCKED: ATOM     25  C   UNL     1     141.169  79.229 222.198 -0.43 -0.00    +0.012 C  
DOCKED: ATOM     26  C   UNL     1     142.174  80.171 221.592 -0.45 -0.00    +0.006 C  
DOCKED: ATOM     27  C   UNL     1     141.172  79.413 223.675 -0.57 -0.00    +0.006 C  
DOCKED: ATOM     28  C   UNL     1     143.037  80.540 222.799 -0.57 -0.00    +0.000 C  
DOCKED: ATOM     29  C   UNL     1     141.976  80.707 223.868 -0.61 -0.00    +0.000 C  
DOCKED: ENDBRANCH  21  25
DOCKED: ENDBRANCH  17  19
DOCKED: ENDBRANCH   1  17
DOCKED: TORSDOF 5
DOCKED: TER
DOCKED: ENDMDL
________________________________________________________________________________


    CLUSTERING HISTOGRAM
    ____________________


________________________________________________________________________________
     |           |     |           |     |
Clus | Lowest    | Run | Mean      | Num | Histogram
-ter | Binding   |     | Binding   | in  |
Rank | Energy    |     | Energy    | Clus|    5    10   15   20   25   30   35
_____|___________|_____|___________|_____|____:____|____:____|____:____|____:___
   1 |     -8.84 |   7 |     -8.61 |  16 |################
   2 |     -7.87 |   8 |     -7.86 |   2 |##
   3 |     -7.39 |  20 |     -7.34 |   2 |##
_____|___________|_____|___________|_____|______________________________________


    RMSD TABLE
    __________


_______________________________________________________________________
     |      |      |           |         |                 |
Rank | Sub- | Run  | Binding   | Cluster | Reference       | Grep
     | Rank |      | Energy    | RMSD    | RMSD            | Pattern
_____|______|______|___________|_________|_________________|___________
   1      1      7       -8.84      0.00    271.73           RANKING
   1      2     11       -8.84      0.11    271.71           RANKING
   1      3     15       -8.80      0.17    271.69           RANKING
   1      4     13       -8.80      0.21    271.77           RANKING
   1      5     14       -8.78      0.17    271.70           RANKING
   1      6     18       -8.75      0.23    271.74           RANKING
   1      7     16       -8.72      0.39    271.75           RANKING
   1      8      1       -8.67      0.44    271.72           RANKING
   1      9      5       -8.63      0.54    271.69           RANKING
   1     10     12       -8.63      0.30    271.70           RANKING
   1     11     17       -8.62      0.34    271.72           RANKING
   1     12      6       -8.52      0.39    271.59           RANKING
   1     13     10       -8.49      0.72    271.48           RANKING
   1     14      2       -8.27      0.88    271.39           RANKING
   1     15      9       -8.23      0.75    271.41           RANKING
   1     16      3       -8.17      1.25    271.43           RANKING
   2      1      8       -7.87      0.00    271.10           RANKING
   2      2     19       -7.85      0.04    271.12           RANKING
   3      1     20       -7.39      0.00    271.27           RANKING
   3      2      4       -7.29      0.21    271.27           RANKING

Run time 0.855 sec
Idle time 0.000 sec
