AutoDock-GPU version: v1.6

**********************************************************
**    AutoDock-GPU AUTODOCKTOOLS-COMPATIBLE DLG FILE    **
**********************************************************


    DOCKING PARAMETERS
    ________________________


Ligand file:                               /home/a/REINVENT4/ReinventStudies/pleaseWork/justmol2mol_4_Compounds_ontop/graph-dock-hn62wh/graph-DockGPU/node-autodockgpu/inputs/LNKNVISDOJTBRH-BDWLMLNDNA-N.pdbqt
Grid fld file:                             /home/a/REINVENT4/ReinventStudies/mols/Rad51/maps/rad51_receptor.maps.fld

Random seed:                               42
Number of runs:                            20
Number of energy evaluations:              1132076
Number of generations:                     42000
Size of population:                        150
Rate of crossover:                         80.000000%
Tournament selection probability limit:    60.000000%
Rate of mutation:                          2.000000%
Maximal allowed delta movement:            +/- 6.000000A
Maximal allowed delta angle:               +/- 90.000000

Rate of local search:                      100.000000%
Maximal number of local search iterations: 300
Rho lower bound:                           0.010000
Spread of local search delta movement:     2.000000A
Spread of local search delta angle:        74.999999
Limit of consecutive successes/failures:   4

Handle symmetry during clustering:         YES
RMSD tolerance:                            2.000000A

Program call in command line was:          /home/a/REINVENT4/ReinventStudies/adgpu-v1.6_linux_x64_cuda12_128wi --filelist batch.txt --heuristics 1 --nrun 20 --psize 150 --lsit 300 --seed 42 --heurmax 12000000 


    GRID PARAMETERS
    ________________________


Receptor name:                             rad51_receptor
Number of grid points (x, y, z):           53, 53, 53
Grid center (x, y, z):                     139.950000, 75.640000, 221.970000A
Grid size (x, y, z):                       19.500000, 19.500000, 19.500000A
Grid spacing:                              0.375000A


    LIGAND PARAMETERS
    ________________________


Ligand name:                               /home/a/REINVENT4/ReinventStudies/pleaseWork/justmol2mol_4_Compounds_ontop/graph-dock-hn62wh/graph-DockGPU/node-autodockgpu/inputs/LNKNVISDOJTBRH-BDWLMLNDNA-N
Number of atoms:                           30
Number of rotatable bonds:                 5
Number of atom types:                      7


    DUMMY DATA (only for ADT-compatibility)
    ________________________


DPF> outlev 1
DPF> ga_run 20
DPF> fld /home/a/REINVENT4/ReinventStudies/mols/Rad51/maps/rad51_receptor.maps.fld
DPF> move /home/a/REINVENT4/ReinventStudies/pleaseWork/justmol2mol_4_Compounds_ontop/graph-dock-hn62wh/graph-DockGPU/node-autodockgpu/inputs/LNKNVISDOJTBRH-BDWLMLNDNA-N.pdbqt


    COUNTER STATES
    ________________________


Number of energy evaluations performed:    507989
Number of generations used:                30


    INPUT LIGAND PDBQT FILE:
    ________________________


INPUT-LIGAND-PDBQT: REMARK SMILES O=C(NCC(=O)N1CCC[C@H]1c1ncc(Cl)cn1)c1ccc2cc(Cl)ccc2n1
INPUT-LIGAND-PDBQT: REMARK SMILES IDX 4 1 3 2 2 3 1 4 19 6 20 7 29 8 21 9 28 10 22 11 27 12 23 13
INPUT-LIGAND-PDBQT: REMARK SMILES IDX 26 14 24 15 25 16 5 17 6 18 7 19 8 20 11 21 9 22 10 23 12 24
INPUT-LIGAND-PDBQT: REMARK SMILES IDX 13 25 18 26 14 27 17 28 15 29 16 30
INPUT-LIGAND-PDBQT: REMARK H PARENT 3 5
INPUT-LIGAND-PDBQT: ROOT
INPUT-LIGAND-PDBQT: ATOM      1  C   UNL     1      -0.194   0.462  -1.516  1.00  0.00     0.216 C 
INPUT-LIGAND-PDBQT: ENDROOT
INPUT-LIGAND-PDBQT: BRANCH   1   2
INPUT-LIGAND-PDBQT: ATOM      2  N   UNL     1       1.126   0.073  -1.151  1.00  0.00    -0.342 N 
INPUT-LIGAND-PDBQT: ATOM      3  C   UNL     1       1.833   0.871  -0.204  1.00  0.00     0.270 C 
INPUT-LIGAND-PDBQT: ATOM      4  O   UNL     1       1.296   1.900   0.298  1.00  0.00    -0.268 OA
INPUT-LIGAND-PDBQT: ATOM      5  H   UNL     1       1.587  -0.784  -1.562  1.00  0.00     0.164 HD
INPUT-LIGAND-PDBQT: BRANCH   3   6
INPUT-LIGAND-PDBQT: ATOM      6  C   UNL     1       3.189   0.484   0.181  1.00  0.00     0.128 A 
INPUT-LIGAND-PDBQT: ATOM      7  C   UNL     1       3.878   1.253   1.097  1.00  0.00     0.035 A 
INPUT-LIGAND-PDBQT: ATOM      8  N   UNL     1       3.813  -0.596  -0.316  1.00  0.00    -0.243 NA
INPUT-LIGAND-PDBQT: ATOM      9  C   UNL     1       5.172   0.934   1.502  1.00  0.00     0.013 A 
INPUT-LIGAND-PDBQT: ATOM     10  C   UNL     1       5.072  -0.938   0.054  1.00  0.00     0.071 A 
INPUT-LIGAND-PDBQT: ATOM     11  C   UNL     1       5.791  -0.189   0.971  1.00  0.00     0.002 A 
INPUT-LIGAND-PDBQT: ATOM     12  C   UNL     1       5.687  -2.056  -0.476  1.00  0.00     0.030 A 
INPUT-LIGAND-PDBQT: ATOM     13  C   UNL     1       7.051  -0.476   1.382  1.00  0.00     0.030 A 
INPUT-LIGAND-PDBQT: ATOM     14  C   UNL     1       6.972  -2.362  -0.066  1.00  0.00     0.023 A 
INPUT-LIGAND-PDBQT: ATOM     15  C   UNL     1       7.668  -1.599   0.850  1.00  0.00     0.041 A 
INPUT-LIGAND-PDBQT: ATOM     16  Cl  UNL     1       9.293  -1.985   1.368  1.00  0.00    -0.084 Cl
INPUT-LIGAND-PDBQT: ENDBRANCH   3   6
INPUT-LIGAND-PDBQT: ENDBRANCH   1   2
INPUT-LIGAND-PDBQT: BRANCH   1  17
INPUT-LIGAND-PDBQT: ATOM     17  C   UNL     1      -1.126   0.494  -0.338  1.00  0.00     0.242 C 
INPUT-LIGAND-PDBQT: ATOM     18  O   UNL     1      -0.680   0.192   0.797  1.00  0.00    -0.273 OA
INPUT-LIGAND-PDBQT: BRANCH  17  19
INPUT-LIGAND-PDBQT: ATOM     19  N   UNL     1      -2.478   0.870  -0.577  1.00  0.00    -0.331 N 
INPUT-LIGAND-PDBQT: ATOM     20  C   UNL     1      -3.094   1.236  -1.839  1.00  0.00     0.120 C 
INPUT-LIGAND-PDBQT: ATOM     21  C   UNL     1      -3.471   0.935   0.497  1.00  0.00     0.153 C 
INPUT-LIGAND-PDBQT: ATOM     22  C   UNL     1      -4.215   2.159  -1.411  1.00  0.00     0.024 C 
INPUT-LIGAND-PDBQT: ATOM     23  C   UNL     1      -4.237   2.176   0.089  1.00  0.00     0.035 C 
INPUT-LIGAND-PDBQT: BRANCH  21  24
INPUT-LIGAND-PDBQT: ATOM     24  C   UNL     1      -4.414  -0.205   0.466  1.00  0.00     0.150 A 
INPUT-LIGAND-PDBQT: ATOM     25  N   UNL     1      -4.766  -0.891   1.572  1.00  0.00    -0.238 NA
INPUT-LIGAND-PDBQT: ATOM     26  N   UNL     1      -4.937  -0.566  -0.719  1.00  0.00    -0.238 NA
INPUT-LIGAND-PDBQT: ATOM     27  C   UNL     1      -5.622  -1.929   1.552  1.00  0.00     0.135 A 
INPUT-LIGAND-PDBQT: ATOM     28  C   UNL     1      -5.807  -1.605  -0.811  1.00  0.00     0.135 A 
INPUT-LIGAND-PDBQT: ATOM     29  C   UNL     1      -6.153  -2.293   0.343  1.00  0.00     0.077 A 
INPUT-LIGAND-PDBQT: ATOM     30  Cl  UNL     1      -7.286  -3.632   0.169  1.00  0.00    -0.081 Cl
INPUT-LIGAND-PDBQT: ENDBRANCH  21  24
INPUT-LIGAND-PDBQT: ENDBRANCH  17  19
INPUT-LIGAND-PDBQT: ENDBRANCH   1  17
INPUT-LIGAND-PDBQT: TORSDOF 5


    FINAL DOCKED STATE:
    ________________________


Run:   1 / 20
Time taken for this run:   0.022s

DOCKED: MODEL        1
DOCKED: USER    Run = 1
DOCKED: USER
DOCKED: USER    Estimated Free Energy of Binding    =  -7.43 kcal/mol  [=(1)+(2)+(3)-(4)]
DOCKED: USER
DOCKED: USER    (1) Final Intermolecular Energy     =  -8.92 kcal/mol
DOCKED: USER        vdW + Hbond + desolv Energy     =  -8.95 kcal/mol
DOCKED: USER        Electrostatic Energy            =  +0.03 kcal/mol
DOCKED: USER        Moving Ligand-Fixed Receptor    =  -8.92 kcal/mol
DOCKED: USER        Moving Ligand-Moving Receptor   =  +0.00 kcal/mol
DOCKED: USER    (2) Final Total Internal Energy     =  -2.24 kcal/mol
DOCKED: USER    (3) Torsional Free Energy           =  +1.49 kcal/mol
DOCKED: USER    (4) Unbound System's Energy         =  -2.24 kcal/mol
DOCKED: USER
DOCKED: USER
DOCKED: REMARK SMILES O=C(NCC(=O)N1CCC[C@H]1c1ncc(Cl)cn1)c1ccc2cc(Cl)ccc2n1
DOCKED: REMARK SMILES IDX 4 1 3 2 2 3 1 4 19 6 20 7 29 8 21 9 28 10 22 11 27 12 23 13
DOCKED: REMARK SMILES IDX 26 14 24 15 25 16 5 17 6 18 7 19 8 20 11 21 9 22 10 23 12 24
DOCKED: REMARK SMILES IDX 13 25 18 26 14 27 17 28 15 29 16 30
DOCKED: REMARK H PARENT 3 5
DOCKED: USER                              x       y       z     vdW  Elec       q    Type
DOCKED: USER                           _______ _______ _______ _____ _____    ______ ____
DOCKED: ROOT
DOCKED: ATOM      1  C   UNL     1     141.349  73.367 219.689 -0.07 -0.04    +0.216 C  
DOCKED: ENDROOT
DOCKED: BRANCH   1   2
DOCKED: ATOM      2  N   UNL     1     141.263  72.458 220.782 -0.08 +0.05    -0.342 N  
DOCKED: ATOM      3  C   UNL     1     140.534  72.855 221.941 -0.20 -0.03    +0.270 C  
DOCKED: ATOM      4  O   UNL     1     139.978  73.989 221.994 -0.81 +0.03    -0.268 OA 
DOCKED: ATOM      5  H   UNL     1     141.723  71.507 220.751 +0.05 -0.02    +0.164 HD 
DOCKED: BRANCH   3   6
DOCKED: ATOM      6  C   UNL     1     140.437  71.932 223.071 -0.29 -0.01    +0.128 A  
DOCKED: ATOM      7  C   UNL     1     139.937  70.662 222.866 -0.23 -0.01    +0.035 A  
DOCKED: ATOM      8  N   UNL     1     140.813  72.257 224.318 +0.15 +0.02    -0.243 NA 
DOCKED: ATOM      9  C   UNL     1     139.821  69.739 223.903 -0.21 -0.00    +0.013 A  
DOCKED: ATOM     10  C   UNL     1     140.714  71.386 225.353 -0.52 -0.01    +0.071 A  
DOCKED: ATOM     11  C   UNL     1     140.218  70.104 225.182 -0.45 -0.00    +0.002 A  
DOCKED: ATOM     12  C   UNL     1     141.109  71.750 226.626 -0.71 -0.00    +0.030 A  
DOCKED: ATOM     13  C   UNL     1     140.093  69.187 226.173 -0.50 -0.01    +0.030 A  
DOCKED: ATOM     14  C   UNL     1     140.989  70.826 227.647 -0.66 -0.00    +0.023 A  
DOCKED: ATOM     15  C   UNL     1     140.490  69.553 227.451 -0.57 -0.01    +0.041 A  
DOCKED: ATOM     16  Cl  UNL     1     140.337  68.384 228.742 -0.55 +0.02    -0.084 Cl 
DOCKED: ENDBRANCH   3   6
DOCKED: ENDBRANCH   1   2
DOCKED: BRANCH   1  17
DOCKED: ATOM     17  C   UNL     1     142.552  74.263 219.785 -0.16 -0.07    +0.242 C  
DOCKED: ATOM     18  O   UNL     1     142.389  75.506 219.712 -0.17 +0.12    -0.273 OA 
DOCKED: BRANCH  17  19
DOCKED: ATOM     19  N   UNL     1     143.822  73.644 219.956 -0.15 +0.08    -0.331 N  
DOCKED: ATOM     20  C   UNL     1     144.632  73.584 221.159 -0.17 -0.03    +0.120 C  
DOCKED: ATOM     21  C   UNL     1     144.505  72.950 218.863 -0.19 -0.00    +0.153 C  
DOCKED: ATOM     22  C   UNL     1     146.040  73.478 220.612 -0.64 +0.00    +0.024 C  
DOCKED: ATOM     23  C   UNL     1     145.936  73.374 219.119 -0.22 +0.01    +0.035 C  
DOCKED: BRANCH  21  24
DOCKED: ATOM     24  C   UNL     1     144.442  71.478 219.001 -0.16 +0.02    +0.150 A  
DOCKED: ATOM     25  N   UNL     1     143.354  70.834 219.469 -0.08 +0.01    -0.238 NA 
DOCKED: ATOM     26  N   UNL     1     145.520  70.758 218.642 -0.20 -0.14    -0.238 NA 
DOCKED: ATOM     27  C   UNL     1     143.289  69.497 219.597 -0.15 -0.01    +0.135 A  
DOCKED: ATOM     28  C   UNL     1     145.523  69.404 218.747 -0.26 +0.04    +0.135 A  
DOCKED: ATOM     29  C   UNL     1     144.389  68.768 219.230 -0.27 +0.00    +0.077 A  
DOCKED: ATOM     30  Cl  UNL     1     144.443  67.010 219.345 -0.48 +0.02    -0.081 Cl 
DOCKED: ENDBRANCH  21  24
DOCKED: ENDBRANCH  17  19
DOCKED: ENDBRANCH   1  17
DOCKED: TORSDOF 5
DOCKED: TER
DOCKED: ENDMDL
________________________________________________________________________________


    FINAL DOCKED STATE:
    ________________________


Run:   2 / 20
Time taken for this run:   0.022s

DOCKED: MODEL        2
DOCKED: USER    Run = 2
DOCKED: USER
DOCKED: USER    Estimated Free Energy of Binding    =  -8.20 kcal/mol  [=(1)+(2)+(3)-(4)]
DOCKED: USER
DOCKED: USER    (1) Final Intermolecular Energy     =  -9.69 kcal/mol
DOCKED: USER        vdW + Hbond + desolv Energy     =  -9.61 kcal/mol
DOCKED: USER        Electrostatic Energy            =  -0.08 kcal/mol
DOCKED: USER        Moving Ligand-Fixed Receptor    =  -9.69 kcal/mol
DOCKED: USER        Moving Ligand-Moving Receptor   =  +0.00 kcal/mol
DOCKED: USER    (2) Final Total Internal Energy     =  -1.77 kcal/mol
DOCKED: USER    (3) Torsional Free Energy           =  +1.49 kcal/mol
DOCKED: USER    (4) Unbound System's Energy         =  -1.77 kcal/mol
DOCKED: USER
DOCKED: USER
DOCKED: REMARK SMILES O=C(NCC(=O)N1CCC[C@H]1c1ncc(Cl)cn1)c1ccc2cc(Cl)ccc2n1
DOCKED: REMARK SMILES IDX 4 1 3 2 2 3 1 4 19 6 20 7 29 8 21 9 28 10 22 11 27 12 23 13
DOCKED: REMARK SMILES IDX 26 14 24 15 25 16 5 17 6 18 7 19 8 20 11 21 9 22 10 23 12 24
DOCKED: REMARK SMILES IDX 13 25 18 26 14 27 17 28 15 29 16 30
DOCKED: REMARK H PARENT 3 5
DOCKED: USER                              x       y       z     vdW  Elec       q    Type
DOCKED: USER                           _______ _______ _______ _____ _____    ______ ____
DOCKED: ROOT
DOCKED: ATOM      1  C   UNL     1     138.799  74.590 221.025 -0.12 -0.05    +0.216 C  
DOCKED: ENDROOT
DOCKED: BRANCH   1   2
DOCKED: ATOM      2  N   UNL     1     138.947  73.720 222.143 -0.07 +0.09    -0.342 N  
DOCKED: ATOM      3  C   UNL     1     139.643  72.489 221.960 -0.18 -0.05    +0.270 C  
DOCKED: ATOM      4  O   UNL     1     140.117  72.180 220.829 -0.08 +0.04    -0.268 OA 
DOCKED: ATOM      5  H   UNL     1     138.556  73.965 223.093 -0.55 -0.12    +0.164 HD 
DOCKED: BRANCH   3   6
DOCKED: ATOM      6  C   UNL     1     139.803  71.587 223.098 -0.29 -0.02    +0.128 A  
DOCKED: ATOM      7  C   UNL     1     139.433  70.263 222.970 -0.23 -0.01    +0.035 A  
DOCKED: ATOM      8  N   UNL     1     140.297  71.980 224.283 -0.23 +0.04    -0.243 NA 
DOCKED: ATOM      9  C   UNL     1     139.562  69.356 224.019 -0.26 -0.00    +0.013 A  
DOCKED: ATOM     10  C   UNL     1     140.437  71.127 225.328 -0.50 -0.01    +0.071 A  
DOCKED: ATOM     11  C   UNL     1     140.077  69.792 225.232 -0.43 -0.00    +0.002 A  
DOCKED: ATOM     12  C   UNL     1     140.949  71.563 226.535 -0.68 -0.00    +0.030 A  
DOCKED: ATOM     13  C   UNL     1     140.191  68.889 226.237 -0.52 -0.01    +0.030 A  
DOCKED: ATOM     14  C   UNL     1     141.073  70.653 227.569 -0.63 -0.00    +0.023 A  
DOCKED: ATOM     15  C   UNL     1     140.706  69.327 227.449 -0.58 -0.01    +0.041 A  
DOCKED: ATOM     16  Cl  UNL     1     140.861  68.177 228.757 -0.64 +0.02    -0.084 Cl 
DOCKED: ENDBRANCH   3   6
DOCKED: ENDBRANCH   1   2
DOCKED: BRANCH   1  17
DOCKED: ATOM     17  C   UNL     1     138.868  76.039 221.416 -0.16 -0.05    +0.242 C  
DOCKED: ATOM     18  O   UNL     1     137.831  76.601 221.849 -0.12 +0.06    -0.273 OA 
DOCKED: BRANCH  17  19
DOCKED: ATOM     19  N   UNL     1     140.120  76.701 221.272 -0.11 +0.10    -0.331 N  
DOCKED: ATOM     20  C   UNL     1     140.797  77.550 222.235 -0.36 -0.04    +0.120 C  
DOCKED: ATOM     21  C   UNL     1     140.924  76.595 220.053 -0.15 -0.06    +0.153 C  
DOCKED: ATOM     22  C   UNL     1     141.615  78.471 221.355 -0.36 -0.01    +0.024 C  
DOCKED: ATOM     23  C   UNL     1     141.437  78.015 219.937 -0.25 -0.02    +0.035 C  
DOCKED: BRANCH  21  24
DOCKED: ATOM     24  C   UNL     1     142.095  75.707 220.222 -0.23 -0.07    +0.150 A  
DOCKED: ATOM     25  N   UNL     1     143.356  76.105 219.958 -0.23 +0.16    -0.238 NA 
DOCKED: ATOM     26  N   UNL     1     141.885  74.453 220.658 -0.17 +0.06    -0.238 NA 
DOCKED: ATOM     27  C   UNL     1     144.426  75.303 220.109 -0.19 -0.08    +0.135 A  
DOCKED: ATOM     28  C   UNL     1     142.920  73.591 220.831 -0.21 -0.03    +0.135 A  
DOCKED: ATOM     29  C   UNL     1     144.208  74.026 220.553 -0.40 -0.02    +0.077 A  
DOCKED: ATOM     30  Cl  UNL     1     145.515  72.869 220.796 -0.69 +0.01    -0.081 Cl 
DOCKED: ENDBRANCH  21  24
DOCKED: ENDBRANCH  17  19
DOCKED: ENDBRANCH   1  17
DOCKED: TORSDOF 5
DOCKED: TER
DOCKED: ENDMDL
________________________________________________________________________________


    FINAL DOCKED STATE:
    ________________________


Run:   3 / 20
Time taken for this run:   0.022s

DOCKED: MODEL        3
DOCKED: USER    Run = 3
DOCKED: USER
DOCKED: USER    Estimated Free Energy of Binding    =  -6.92 kcal/mol  [=(1)+(2)+(3)-(4)]
DOCKED: USER
DOCKED: USER    (1) Final Intermolecular Energy     =  -8.41 kcal/mol
DOCKED: USER        vdW + Hbond + desolv Energy     =  -8.36 kcal/mol
DOCKED: USER        Electrostatic Energy            =  -0.05 kcal/mol
DOCKED: USER        Moving Ligand-Fixed Receptor    =  -8.41 kcal/mol
DOCKED: USER        Moving Ligand-Moving Receptor   =  +0.00 kcal/mol
DOCKED: USER    (2) Final Total Internal Energy     =  -2.89 kcal/mol
DOCKED: USER    (3) Torsional Free Energy           =  +1.49 kcal/mol
DOCKED: USER    (4) Unbound System's Energy         =  -2.89 kcal/mol
DOCKED: USER
DOCKED: USER
DOCKED: REMARK SMILES O=C(NCC(=O)N1CCC[C@H]1c1ncc(Cl)cn1)c1ccc2cc(Cl)ccc2n1
DOCKED: REMARK SMILES IDX 4 1 3 2 2 3 1 4 19 6 20 7 29 8 21 9 28 10 22 11 27 12 23 13
DOCKED: REMARK SMILES IDX 26 14 24 15 25 16 5 17 6 18 7 19 8 20 11 21 9 22 10 23 12 24
DOCKED: REMARK SMILES IDX 13 25 18 26 14 27 17 28 15 29 16 30
DOCKED: REMARK H PARENT 3 5
DOCKED: USER                              x       y       z     vdW  Elec       q    Type
DOCKED: USER                           _______ _______ _______ _____ _____    ______ ____
DOCKED: ROOT
DOCKED: ATOM      1  C   UNL     1     138.842  77.965 222.725 -0.21 -0.04    +0.216 C  
DOCKED: ENDROOT
DOCKED: BRANCH   1   2
DOCKED: ATOM      2  N   UNL     1     139.838  77.061 222.258 -0.18 +0.08    -0.342 N  
DOCKED: ATOM      3  C   UNL     1     139.485  75.691 222.085 -0.21 -0.05    +0.270 C  
DOCKED: ATOM      4  O   UNL     1     138.313  75.291 222.341 -0.23 +0.08    -0.268 OA 
DOCKED: ATOM      5  H   UNL     1     140.821  77.381 222.040 +0.04 -0.06    +0.164 HD 
DOCKED: BRANCH   3   6
DOCKED: ATOM      6  C   UNL     1     140.497  74.751 221.606 -0.28 -0.02    +0.128 A  
DOCKED: ATOM      7  C   UNL     1     140.186  73.408 221.519 -0.26 -0.00    +0.035 A  
DOCKED: ATOM      8  N   UNL     1     141.733  75.126 221.240 -0.21 +0.08    -0.243 NA 
DOCKED: ATOM      9  C   UNL     1     141.109  72.466 221.070 -0.23 -0.00    +0.013 A  
DOCKED: ATOM     10  C   UNL     1     142.657  74.238 220.798 -0.25 -0.02    +0.071 A  
DOCKED: ATOM     11  C   UNL     1     142.379  72.885 220.698 -0.26 -0.00    +0.002 A  
DOCKED: ATOM     12  C   UNL     1     143.921  74.656 220.429 -0.39 -0.01    +0.030 A  
DOCKED: ATOM     13  C   UNL     1     143.257  71.947 220.265 -0.25 -0.00    +0.030 A  
DOCKED: ATOM     14  C   UNL     1     144.828  73.711 219.985 -0.46 -0.00    +0.023 A  
DOCKED: ATOM     15  C   UNL     1     144.526  72.367 219.894 -0.33 -0.00    +0.041 A  
DOCKED: ATOM     16  Cl  UNL     1     145.672  71.171 219.333 -0.31 -0.05    -0.084 Cl 
DOCKED: ENDBRANCH   3   6
DOCKED: ENDBRANCH   1   2
DOCKED: BRANCH   1  17
DOCKED: ATOM     17  C   UNL     1     139.436  79.198 223.346 -0.25 -0.04    +0.242 C  
DOCKED: ATOM     18  O   UNL     1     138.745  79.861 224.159 -0.30 +0.03    -0.273 OA 
DOCKED: BRANCH  17  19
DOCKED: ATOM     19  N   UNL     1     140.765  79.548 222.975 -0.19 +0.08    -0.331 N  
DOCKED: ATOM     20  C   UNL     1     142.007  79.119 223.590 -0.51 -0.04    +0.120 C  
DOCKED: ATOM     21  C   UNL     1     141.051  80.443 221.852 -0.31 -0.04    +0.153 C  
DOCKED: ATOM     22  C   UNL     1     142.945  80.269 223.292 -0.64 -0.01    +0.024 C  
DOCKED: ATOM     23  C   UNL     1     142.204  81.242 222.423 -0.45 -0.01    +0.035 C  
DOCKED: BRANCH  21  24
DOCKED: ATOM     24  C   UNL     1     141.553  79.718 220.663 -0.25 -0.07    +0.150 A  
DOCKED: ATOM     25  N   UNL     1     141.868  80.339 219.509 -0.19 +0.12    -0.238 NA 
DOCKED: ATOM     26  N   UNL     1     141.697  78.384 220.746 -0.19 +0.14    -0.238 NA 
DOCKED: ATOM     27  C   UNL     1     142.323  79.687 218.424 -0.26 -0.11    +0.135 A  
DOCKED: ATOM     28  C   UNL     1     142.152  77.664 219.688 -0.25 -0.09    +0.135 A  
DOCKED: ATOM     29  C   UNL     1     142.470  78.328 218.513 -0.28 -0.06    +0.077 A  
DOCKED: ATOM     30  Cl  UNL     1     143.056  77.348 217.171 -0.29 +0.06    -0.081 Cl 
DOCKED: ENDBRANCH  21  24
DOCKED: ENDBRANCH  17  19
DOCKED: ENDBRANCH   1  17
DOCKED: TORSDOF 5
DOCKED: TER
DOCKED: ENDMDL
________________________________________________________________________________


    FINAL DOCKED STATE:
    ________________________


Run:   4 / 20
Time taken for this run:   0.022s

DOCKED: MODEL        4
DOCKED: USER    Run = 4
DOCKED: USER
DOCKED: USER    Estimated Free Energy of Binding    =  -6.93 kcal/mol  [=(1)+(2)+(3)-(4)]
DOCKED: USER
DOCKED: USER    (1) Final Intermolecular Energy     =  -8.42 kcal/mol
DOCKED: USER        vdW + Hbond + desolv Energy     =  -8.37 kcal/mol
DOCKED: USER        Electrostatic Energy            =  -0.05 kcal/mol
DOCKED: USER        Moving Ligand-Fixed Receptor    =  -8.42 kcal/mol
DOCKED: USER        Moving Ligand-Moving Receptor   =  +0.00 kcal/mol
DOCKED: USER    (2) Final Total Internal Energy     =  -2.89 kcal/mol
DOCKED: USER    (3) Torsional Free Energy           =  +1.49 kcal/mol
DOCKED: USER    (4) Unbound System's Energy         =  -2.89 kcal/mol
DOCKED: USER
DOCKED: USER
DOCKED: REMARK SMILES O=C(NCC(=O)N1CCC[C@H]1c1ncc(Cl)cn1)c1ccc2cc(Cl)ccc2n1
DOCKED: REMARK SMILES IDX 4 1 3 2 2 3 1 4 19 6 20 7 29 8 21 9 28 10 22 11 27 12 23 13
DOCKED: REMARK SMILES IDX 26 14 24 15 25 16 5 17 6 18 7 19 8 20 11 21 9 22 10 23 12 24
DOCKED: REMARK SMILES IDX 13 25 18 26 14 27 17 28 15 29 16 30
DOCKED: REMARK H PARENT 3 5
DOCKED: USER                              x       y       z     vdW  Elec       q    Type
DOCKED: USER                           _______ _______ _______ _____ _____    ______ ____
DOCKED: ROOT
DOCKED: ATOM      1  C   UNL     1     138.879  77.942 222.725 -0.20 -0.04    +0.216 C  
DOCKED: ENDROOT
DOCKED: BRANCH   1   2
DOCKED: ATOM      2  N   UNL     1     139.871  77.031 222.261 -0.18 +0.08    -0.342 N  
DOCKED: ATOM      3  C   UNL     1     139.511  75.662 222.091 -0.21 -0.05    +0.270 C  
DOCKED: ATOM      4  O   UNL     1     138.337  75.269 222.348 -0.23 +0.08    -0.268 OA 
DOCKED: ATOM      5  H   UNL     1     140.856  77.345 222.042 +0.04 -0.06    +0.164 HD 
DOCKED: BRANCH   3   6
DOCKED: ATOM      6  C   UNL     1     140.518  74.716 221.614 -0.27 -0.02    +0.128 A  
DOCKED: ATOM      7  C   UNL     1     140.203  73.374 221.537 -0.26 -0.00    +0.035 A  
DOCKED: ATOM      8  N   UNL     1     141.754  75.085 221.242 -0.21 +0.08    -0.243 NA 
DOCKED: ATOM      9  C   UNL     1     141.121  72.426 221.091 -0.23 -0.00    +0.013 A  
DOCKED: ATOM     10  C   UNL     1     142.674  74.191 220.803 -0.25 -0.02    +0.071 A  
DOCKED: ATOM     11  C   UNL     1     142.391  72.838 220.713 -0.26 -0.00    +0.002 A  
DOCKED: ATOM     12  C   UNL     1     143.938  74.602 220.427 -0.40 -0.01    +0.030 A  
DOCKED: ATOM     13  C   UNL     1     143.265  71.894 220.283 -0.25 -0.00    +0.030 A  
DOCKED: ATOM     14  C   UNL     1     144.841  73.651 219.986 -0.46 -0.00    +0.023 A  
DOCKED: ATOM     15  C   UNL     1     144.534  72.308 219.905 -0.33 -0.00    +0.041 A  
DOCKED: ATOM     16  Cl  UNL     1     145.675  71.105 219.349 -0.31 -0.05    -0.084 Cl 
DOCKED: ENDBRANCH   3   6
DOCKED: ENDBRANCH   1   2
DOCKED: BRANCH   1  17
DOCKED: ATOM     17  C   UNL     1     139.479  79.164 223.361 -0.25 -0.04    +0.242 C  
DOCKED: ATOM     18  O   UNL     1     138.803  79.803 224.204 -0.30 +0.03    -0.273 OA 
DOCKED: BRANCH  17  19
DOCKED: ATOM     19  N   UNL     1     140.797  79.532 222.968 -0.19 +0.08    -0.331 N  
DOCKED: ATOM     20  C   UNL     1     142.054  79.147 223.583 -0.50 -0.04    +0.120 C  
DOCKED: ATOM     21  C   UNL     1     141.054  80.402 221.818 -0.30 -0.04    +0.153 C  
DOCKED: ATOM     22  C   UNL     1     142.964  80.308 223.244 -0.64 -0.01    +0.024 C  
DOCKED: ATOM     23  C   UNL     1     142.194  81.240 222.356 -0.44 -0.01    +0.035 C  
DOCKED: BRANCH  21  24
DOCKED: ATOM     24  C   UNL     1     141.560  79.655 220.645 -0.25 -0.07    +0.150 A  
DOCKED: ATOM     25  N   UNL     1     141.849  80.250 219.470 -0.18 +0.13    -0.238 NA 
DOCKED: ATOM     26  N   UNL     1     141.737  78.327 220.764 -0.19 +0.14    -0.238 NA 
DOCKED: ATOM     27  C   UNL     1     142.309  79.579 218.399 -0.26 -0.11    +0.135 A  
DOCKED: ATOM     28  C   UNL     1     142.198  77.588 219.722 -0.25 -0.09    +0.135 A  
DOCKED: ATOM     29  C   UNL     1     142.488  78.226 218.525 -0.29 -0.06    +0.077 A  
DOCKED: ATOM     30  Cl  UNL     1     143.084  77.222 217.204 -0.29 +0.06    -0.081 Cl 
DOCKED: ENDBRANCH  21  24
DOCKED: ENDBRANCH  17  19
DOCKED: ENDBRANCH   1  17
DOCKED: TORSDOF 5
DOCKED: TER
DOCKED: ENDMDL
________________________________________________________________________________


    FINAL DOCKED STATE:
    ________________________


Run:   5 / 20
Time taken for this run:   0.022s

DOCKED: MODEL        5
DOCKED: USER    Run = 5
DOCKED: USER
DOCKED: USER    Estimated Free Energy of Binding    =  -6.87 kcal/mol  [=(1)+(2)+(3)-(4)]
DOCKED: USER
DOCKED: USER    (1) Final Intermolecular Energy     =  -8.36 kcal/mol
DOCKED: USER        vdW + Hbond + desolv Energy     =  -8.31 kcal/mol
DOCKED: USER        Electrostatic Energy            =  -0.05 kcal/mol
DOCKED: USER        Moving Ligand-Fixed Receptor    =  -8.36 kcal/mol
DOCKED: USER        Moving Ligand-Moving Receptor   =  +0.00 kcal/mol
DOCKED: USER    (2) Final Total Internal Energy     =  -2.92 kcal/mol
DOCKED: USER    (3) Torsional Free Energy           =  +1.49 kcal/mol
DOCKED: USER    (4) Unbound System's Energy         =  -2.92 kcal/mol
DOCKED: USER
DOCKED: USER
DOCKED: REMARK SMILES O=C(NCC(=O)N1CCC[C@H]1c1ncc(Cl)cn1)c1ccc2cc(Cl)ccc2n1
DOCKED: REMARK SMILES IDX 4 1 3 2 2 3 1 4 19 6 20 7 29 8 21 9 28 10 22 11 27 12 23 13
DOCKED: REMARK SMILES IDX 26 14 24 15 25 16 5 17 6 18 7 19 8 20 11 21 9 22 10 23 12 24
DOCKED: REMARK SMILES IDX 13 25 18 26 14 27 17 28 15 29 16 30
DOCKED: REMARK H PARENT 3 5
DOCKED: USER                              x       y       z     vdW  Elec       q    Type
DOCKED: USER                           _______ _______ _______ _____ _____    ______ ____
DOCKED: ROOT
DOCKED: ATOM      1  C   UNL     1     138.679  78.046 222.822 -0.17 -0.04    +0.216 C  
DOCKED: ENDROOT
DOCKED: BRANCH   1   2
DOCKED: ATOM      2  N   UNL     1     139.685  77.160 222.344 -0.18 +0.08    -0.342 N  
DOCKED: ATOM      3  C   UNL     1     139.359  75.781 222.187 -0.21 -0.05    +0.270 C  
DOCKED: ATOM      4  O   UNL     1     138.200  75.358 222.468 -0.20 +0.08    -0.268 OA 
DOCKED: ATOM      5  H   UNL     1     140.657  77.499 222.105 +0.06 -0.06    +0.164 HD 
DOCKED: BRANCH   3   6
DOCKED: ATOM      6  C   UNL     1     140.382  74.859 221.696 -0.25 -0.02    +0.128 A  
DOCKED: ATOM      7  C   UNL     1     140.108  73.507 221.649 -0.27 -0.00    +0.035 A  
DOCKED: ATOM      8  N   UNL     1     141.594  75.261 221.282 -0.22 +0.08    -0.243 NA 
DOCKED: ATOM      9  C   UNL     1     141.043  72.581 221.191 -0.24 -0.00    +0.013 A  
DOCKED: ATOM     10  C   UNL     1     142.529  74.389 220.830 -0.25 -0.02    +0.071 A  
DOCKED: ATOM     11  C   UNL     1     142.287  73.027 220.769 -0.27 -0.00    +0.002 A  
DOCKED: ATOM     12  C   UNL     1     143.768  74.835 220.410 -0.35 -0.01    +0.030 A  
DOCKED: ATOM     13  C   UNL     1     143.178  72.104 220.329 -0.25 -0.00    +0.030 A  
DOCKED: ATOM     14  C   UNL     1     144.688  73.906 219.958 -0.44 -0.01    +0.023 A  
DOCKED: ATOM     15  C   UNL     1     144.422  72.552 219.907 -0.33 -0.00    +0.041 A  
DOCKED: ATOM     16  Cl  UNL     1     145.585  71.377 219.336 -0.36 -0.05    -0.084 Cl 
DOCKED: ENDBRANCH   3   6
DOCKED: ENDBRANCH   1   2
DOCKED: BRANCH   1  17
DOCKED: ATOM     17  C   UNL     1     139.246  79.357 223.287 -0.25 -0.04    +0.242 C  
DOCKED: ATOM     18  O   UNL     1     138.504  80.150 223.918 -0.28 +0.03    -0.273 OA 
DOCKED: BRANCH  17  19
DOCKED: ATOM     19  N   UNL     1     140.610  79.630 222.983 -0.18 +0.08    -0.331 N  
DOCKED: ATOM     20  C   UNL     1     141.794  79.090 223.626 -0.53 -0.04    +0.120 C  
DOCKED: ATOM     21  C   UNL     1     141.002  80.549 221.913 -0.31 -0.04    +0.153 C  
DOCKED: ATOM     22  C   UNL     1     142.819  80.184 223.415 -0.64 -0.01    +0.024 C  
DOCKED: ATOM     23  C   UNL     1     142.181  81.242 222.563 -0.47 -0.01    +0.035 C  
DOCKED: BRANCH  21  24
DOCKED: ATOM     24  C   UNL     1     141.502  79.842 220.713 -0.25 -0.07    +0.150 A  
DOCKED: ATOM     25  N   UNL     1     141.965  80.489 219.625 -0.19 +0.12    -0.238 NA 
DOCKED: ATOM     26  N   UNL     1     141.490  78.497 220.717 -0.17 +0.13    -0.238 NA 
DOCKED: ATOM     27  C   UNL     1     142.420  79.853 218.530 -0.26 -0.11    +0.135 A  
DOCKED: ATOM     28  C   UNL     1     141.935  77.792 219.644 -0.23 -0.08    +0.135 A  
DOCKED: ATOM     29  C   UNL     1     142.407  78.483 218.538 -0.28 -0.06    +0.077 A  
DOCKED: ATOM     30  Cl  UNL     1     142.974  77.521 217.174 -0.32 +0.07    -0.081 Cl 
DOCKED: ENDBRANCH  21  24
DOCKED: ENDBRANCH  17  19
DOCKED: ENDBRANCH   1  17
DOCKED: TORSDOF 5
DOCKED: TER
DOCKED: ENDMDL
________________________________________________________________________________


    FINAL DOCKED STATE:
    ________________________


Run:   6 / 20
Time taken for this run:   0.022s

DOCKED: MODEL        6
DOCKED: USER    Run = 6
DOCKED: USER
DOCKED: USER    Estimated Free Energy of Binding    =  -6.30 kcal/mol  [=(1)+(2)+(3)-(4)]
DOCKED: USER
DOCKED: USER    (1) Final Intermolecular Energy     =  -7.79 kcal/mol
DOCKED: USER        vdW + Hbond + desolv Energy     =  -7.79 kcal/mol
DOCKED: USER        Electrostatic Energy            =  -0.00 kcal/mol
DOCKED: USER        Moving Ligand-Fixed Receptor    =  -7.79 kcal/mol
DOCKED: USER        Moving Ligand-Moving Receptor   =  +0.00 kcal/mol
DOCKED: USER    (2) Final Total Internal Energy     =  -3.05 kcal/mol
DOCKED: USER    (3) Torsional Free Energy           =  +1.49 kcal/mol
DOCKED: USER    (4) Unbound System's Energy         =  -3.05 kcal/mol
DOCKED: USER
DOCKED: USER
DOCKED: REMARK SMILES O=C(NCC(=O)N1CCC[C@H]1c1ncc(Cl)cn1)c1ccc2cc(Cl)ccc2n1
DOCKED: REMARK SMILES IDX 4 1 3 2 2 3 1 4 19 6 20 7 29 8 21 9 28 10 22 11 27 12 23 13
DOCKED: REMARK SMILES IDX 26 14 24 15 25 16 5 17 6 18 7 19 8 20 11 21 9 22 10 23 12 24
DOCKED: REMARK SMILES IDX 13 25 18 26 14 27 17 28 15 29 16 30
DOCKED: REMARK H PARENT 3 5
DOCKED: USER                              x       y       z     vdW  Elec       q    Type
DOCKED: USER                           _______ _______ _______ _____ _____    ______ ____
DOCKED: ROOT
DOCKED: ATOM      1  C   UNL     1     142.574  74.278 220.834 -0.15 -0.06    +0.216 C  
DOCKED: ENDROOT
DOCKED: BRANCH   1   2
DOCKED: ATOM      2  N   UNL     1     141.837  75.422 221.252 -0.11 +0.14    -0.342 N  
DOCKED: ATOM      3  C   UNL     1     140.550  75.227 221.834 -0.16 -0.04    +0.270 C  
DOCKED: ATOM      4  O   UNL     1     140.078  74.063 221.974 -0.82 +0.02    -0.268 OA 
DOCKED: ATOM      5  H   UNL     1     142.219  76.401 221.141 -0.45 -0.12    +0.164 HD 
DOCKED: BRANCH   3   6
DOCKED: ATOM      6  C   UNL     1     139.782  76.393 222.268 -0.31 -0.03    +0.128 A  
DOCKED: ATOM      7  C   UNL     1     138.403  76.326 222.286 -0.28 -0.01    +0.035 A  
DOCKED: ATOM      8  N   UNL     1     140.352  77.545 222.656 -0.24 +0.06    -0.243 NA 
DOCKED: ATOM      9  C   UNL     1     137.619  77.404 222.690 -0.25 -0.00    +0.013 A  
DOCKED: ATOM     10  C   UNL     1     139.621  78.615 223.056 -0.32 -0.01    +0.071 A  
DOCKED: ATOM     11  C   UNL     1     138.237  78.582 223.086 -0.25 -0.00    +0.002 A  
DOCKED: ATOM     12  C   UNL     1     140.238  79.787 223.450 -0.44 -0.01    +0.030 A  
DOCKED: ATOM     13  C   UNL     1     137.449  79.615 223.474 -0.23 -0.00    +0.030 A  
DOCKED: ATOM     14  C   UNL     1     139.448  80.850 223.848 -0.37 -0.00    +0.023 A  
DOCKED: ATOM     15  C   UNL     1     138.069  80.791 223.870 -0.34 -0.00    +0.041 A  
DOCKED: ATOM     16  Cl  UNL     1     137.070  82.135 224.373 -0.28 +0.01    -0.084 Cl 
DOCKED: ENDBRANCH   3   6
DOCKED: ENDBRANCH   1   2
DOCKED: BRANCH   1  17
DOCKED: ATOM     17  C   UNL     1     143.299  74.507 219.538 -0.21 -0.09    +0.242 C  
DOCKED: ATOM     18  O   UNL     1     144.410  73.950 219.357 -0.21 +0.07    -0.273 OA 
DOCKED: BRANCH  17  19
DOCKED: ATOM     19  N   UNL     1     142.677  75.353 218.576 -0.07 +0.14    -0.331 N  
DOCKED: ATOM     20  C   UNL     1     141.367  75.204 217.969 -0.05 -0.04    +0.120 C  
DOCKED: ATOM     21  C   UNL     1     143.333  76.552 218.051 -0.22 -0.10    +0.153 C  
DOCKED: ATOM     22  C   UNL     1     141.538  75.886 216.629 -0.06 -0.01    +0.024 C  
DOCKED: ATOM     23  C   UNL     1     142.914  76.482 216.598 -0.19 -0.02    +0.035 C  
DOCKED: BRANCH  21  24
DOCKED: ATOM     24  C   UNL     1     142.774  77.798 218.621 -0.24 -0.11    +0.150 A  
DOCKED: ATOM     25  N   UNL     1     142.173  77.844 219.826 -0.18 +0.16    -0.238 NA 
DOCKED: ATOM     26  N   UNL     1     142.872  78.928 217.898 -0.22 +0.25    -0.238 NA 
DOCKED: ATOM     27  C   UNL     1     141.661  78.973 220.350 -0.23 -0.07    +0.135 A  
DOCKED: ATOM     28  C   UNL     1     142.376  80.102 218.367 -0.27 -0.11    +0.135 A  
DOCKED: ATOM     29  C   UNL     1     141.764  80.121 219.611 -0.27 -0.04    +0.077 A  
DOCKED: ATOM     30  Cl  UNL     1     141.138  81.670 220.174 -0.34 +0.02    -0.081 Cl 
DOCKED: ENDBRANCH  21  24
DOCKED: ENDBRANCH  17  19
DOCKED: ENDBRANCH   1  17
DOCKED: TORSDOF 5
DOCKED: TER
DOCKED: ENDMDL
________________________________________________________________________________


    FINAL DOCKED STATE:
    ________________________


Run:   7 / 20
Time taken for this run:   0.022s

DOCKED: MODEL        7
DOCKED: USER    Run = 7
DOCKED: USER
DOCKED: USER    Estimated Free Energy of Binding    =  -6.87 kcal/mol  [=(1)+(2)+(3)-(4)]
DOCKED: USER
DOCKED: USER    (1) Final Intermolecular Energy     =  -8.36 kcal/mol
DOCKED: USER        vdW + Hbond + desolv Energy     =  -8.32 kcal/mol
DOCKED: USER        Electrostatic Energy            =  -0.04 kcal/mol
DOCKED: USER        Moving Ligand-Fixed Receptor    =  -8.36 kcal/mol
DOCKED: USER        Moving Ligand-Moving Receptor   =  +0.00 kcal/mol
DOCKED: USER    (2) Final Total Internal Energy     =  -2.92 kcal/mol
DOCKED: USER    (3) Torsional Free Energy           =  +1.49 kcal/mol
DOCKED: USER    (4) Unbound System's Energy         =  -2.92 kcal/mol
DOCKED: USER
DOCKED: USER
DOCKED: REMARK SMILES O=C(NCC(=O)N1CCC[C@H]1c1ncc(Cl)cn1)c1ccc2cc(Cl)ccc2n1
DOCKED: REMARK SMILES IDX 4 1 3 2 2 3 1 4 19 6 20 7 29 8 21 9 28 10 22 11 27 12 23 13
DOCKED: REMARK SMILES IDX 26 14 24 15 25 16 5 17 6 18 7 19 8 20 11 21 9 22 10 23 12 24
DOCKED: REMARK SMILES IDX 13 25 18 26 14 27 17 28 15 29 16 30
DOCKED: REMARK H PARENT 3 5
DOCKED: USER                              x       y       z     vdW  Elec       q    Type
DOCKED: USER                           _______ _______ _______ _____ _____    ______ ____
DOCKED: ROOT
DOCKED: ATOM      1  C   UNL     1     138.858  77.961 222.719 -0.21 -0.04    +0.216 C  
DOCKED: ENDROOT
DOCKED: BRANCH   1   2
DOCKED: ATOM      2  N   UNL     1     139.849  77.052 222.250 -0.18 +0.08    -0.342 N  
DOCKED: ATOM      3  C   UNL     1     139.491  75.682 222.084 -0.21 -0.05    +0.270 C  
DOCKED: ATOM      4  O   UNL     1     138.319  75.287 222.349 -0.23 +0.08    -0.268 OA 
DOCKED: ATOM      5  H   UNL     1     140.831  77.368 222.025 +0.04 -0.06    +0.164 HD 
DOCKED: BRANCH   3   6
DOCKED: ATOM      6  C   UNL     1     140.498  74.737 221.604 -0.28 -0.02    +0.128 A  
DOCKED: ATOM      7  C   UNL     1     140.173  73.400 221.494 -0.26 -0.00    +0.035 A  
DOCKED: ATOM      8  N   UNL     1     141.742  75.103 221.258 -0.21 +0.08    -0.243 NA 
DOCKED: ATOM      9  C   UNL     1     141.090  72.454 221.042 -0.22 -0.00    +0.013 A  
DOCKED: ATOM     10  C   UNL     1     142.662  74.211 220.814 -0.25 -0.02    +0.071 A  
DOCKED: ATOM     11  C   UNL     1     142.369  72.863 220.691 -0.26 -0.00    +0.002 A  
DOCKED: ATOM     12  C   UNL     1     143.935  74.620 220.466 -0.39 -0.01    +0.030 A  
DOCKED: ATOM     13  C   UNL     1     143.242  71.921 220.255 -0.25 -0.00    +0.030 A  
DOCKED: ATOM     14  C   UNL     1     144.836  73.671 220.019 -0.47 -0.00    +0.023 A  
DOCKED: ATOM     15  C   UNL     1     144.520  72.332 219.905 -0.33 -0.00    +0.041 A  
DOCKED: ATOM     16  Cl  UNL     1     145.660  71.131 219.341 -0.32 -0.05    -0.084 Cl 
DOCKED: ENDBRANCH   3   6
DOCKED: ENDBRANCH   1   2
DOCKED: BRANCH   1  17
DOCKED: ATOM     17  C   UNL     1     139.458  79.199 223.322 -0.25 -0.04    +0.242 C  
DOCKED: ATOM     18  O   UNL     1     138.776  79.869 224.137 -0.30 +0.03    -0.273 OA 
DOCKED: BRANCH  17  19
DOCKED: ATOM     19  N   UNL     1     140.782  79.547 222.931 -0.19 +0.08    -0.331 N  
DOCKED: ATOM     20  C   UNL     1     142.030  79.174 223.572 -0.51 -0.04    +0.120 C  
DOCKED: ATOM     21  C   UNL     1     141.056  80.379 221.758 -0.30 -0.04    +0.153 C  
DOCKED: ATOM     22  C   UNL     1     142.951  80.319 223.207 -0.65 -0.01    +0.024 C  
DOCKED: ATOM     23  C   UNL     1     142.196  81.227 222.282 -0.43 -0.01    +0.035 C  
DOCKED: BRANCH  21  24
DOCKED: ATOM     24  C   UNL     1     141.571  79.593 220.615 -0.25 -0.07    +0.150 A  
DOCKED: ATOM     25  N   UNL     1     141.795  78.265 220.684 -0.19 +0.15    -0.238 NA 
DOCKED: ATOM     26  N   UNL     1     141.824  80.237 219.462 -0.18 +0.12    -0.238 NA 
DOCKED: ATOM     27  C   UNL     1     142.263  77.543 219.649 -0.25 -0.09    +0.135 A  
DOCKED: ATOM     28  C   UNL     1     142.298  79.570 218.378 -0.26 -0.11    +0.135 A  
DOCKED: ATOM     29  C   UNL     1     142.519  78.204 218.477 -0.29 -0.06    +0.077 A  
DOCKED: ATOM     30  Cl  UNL     1     143.134  77.385 217.042 -0.26 +0.07    -0.081 Cl 
DOCKED: ENDBRANCH  21  24
DOCKED: ENDBRANCH  17  19
DOCKED: ENDBRANCH   1  17
DOCKED: TORSDOF 5
DOCKED: TER
DOCKED: ENDMDL
________________________________________________________________________________


    FINAL DOCKED STATE:
    ________________________


Run:   8 / 20
Time taken for this run:   0.022s

DOCKED: MODEL        8
DOCKED: USER    Run = 8
DOCKED: USER
DOCKED: USER    Estimated Free Energy of Binding    =  -7.77 kcal/mol  [=(1)+(2)+(3)-(4)]
DOCKED: USER
DOCKED: USER    (1) Final Intermolecular Energy     =  -9.26 kcal/mol
DOCKED: USER        vdW + Hbond + desolv Energy     =  -9.23 kcal/mol
DOCKED: USER        Electrostatic Energy            =  -0.03 kcal/mol
DOCKED: USER        Moving Ligand-Fixed Receptor    =  -9.26 kcal/mol
DOCKED: USER        Moving Ligand-Moving Receptor   =  +0.00 kcal/mol
DOCKED: USER    (2) Final Total Internal Energy     =  -1.75 kcal/mol
DOCKED: USER    (3) Torsional Free Energy           =  +1.49 kcal/mol
DOCKED: USER    (4) Unbound System's Energy         =  -1.75 kcal/mol
DOCKED: USER
DOCKED: USER
DOCKED: REMARK SMILES O=C(NCC(=O)N1CCC[C@H]1c1ncc(Cl)cn1)c1ccc2cc(Cl)ccc2n1
DOCKED: REMARK SMILES IDX 4 1 3 2 2 3 1 4 19 6 20 7 29 8 21 9 28 10 22 11 27 12 23 13
DOCKED: REMARK SMILES IDX 26 14 24 15 25 16 5 17 6 18 7 19 8 20 11 21 9 22 10 23 12 24
DOCKED: REMARK SMILES IDX 13 25 18 26 14 27 17 28 15 29 16 30
DOCKED: REMARK H PARENT 3 5
DOCKED: USER                              x       y       z     vdW  Elec       q    Type
DOCKED: USER                           _______ _______ _______ _____ _____    ______ ____
DOCKED: ROOT
DOCKED: ATOM      1  C   UNL     1     140.199  72.164 222.071 -0.21 -0.03    +0.216 C  
DOCKED: ENDROOT
DOCKED: BRANCH   1   2
DOCKED: ATOM      2  N   UNL     1     140.256  73.587 222.044 -0.14 +0.02    -0.342 N  
DOCKED: ATOM      3  C   UNL     1     141.316  74.212 221.324 -0.14 -0.04    +0.270 C  
DOCKED: ATOM      4  O   UNL     1     142.184  73.514 220.724 -0.18 +0.05    -0.268 OA 
DOCKED: ATOM      5  H   UNL     1     139.537  74.182 222.540 -0.23 -0.02    +0.164 HD 
DOCKED: BRANCH   3   6
DOCKED: ATOM      6  C   UNL     1     141.388  75.671 221.286 -0.26 -0.05    +0.128 A  
DOCKED: ATOM      7  C   UNL     1     141.819  76.298 220.135 -0.27 -0.02    +0.035 A  
DOCKED: ATOM      8  N   UNL     1     141.052  76.449 222.328 -0.27 +0.09    -0.243 NA 
DOCKED: ATOM      9  C   UNL     1     141.908  77.685 220.041 -0.30 -0.01    +0.013 A  
DOCKED: ATOM     10  C   UNL     1     141.126  77.802 222.274 -0.39 -0.03    +0.071 A  
DOCKED: ATOM     11  C   UNL     1     141.554  78.463 221.134 -0.35 -0.00    +0.002 A  
DOCKED: ATOM     12  C   UNL     1     140.773  78.575 223.363 -0.42 -0.01    +0.030 A  
DOCKED: ATOM     13  C   UNL     1     141.650  79.811 221.015 -0.35 -0.01    +0.030 A  
DOCKED: ATOM     14  C   UNL     1     140.866  79.951 223.257 -0.48 -0.00    +0.023 A  
DOCKED: ATOM     15  C   UNL     1     141.296  80.587 222.109 -0.40 -0.01    +0.041 A  
DOCKED: ATOM     16  Cl  UNL     1     141.414  82.326 221.975 -0.39 +0.01    -0.084 Cl 
DOCKED: ENDBRANCH   3   6
DOCKED: ENDBRANCH   1   2
DOCKED: BRANCH   1  17
DOCKED: ATOM     17  C   UNL     1     138.871  71.655 222.558 -0.16 -0.06    +0.242 C  
DOCKED: ATOM     18  O   UNL     1     137.925  72.469 222.700 -0.11 +0.10    -0.273 OA 
DOCKED: BRANCH  17  19
DOCKED: ATOM     19  N   UNL     1     138.760  70.263 222.833 -0.08 +0.06    -0.331 N  
DOCKED: ATOM     20  C   UNL     1     139.405  69.161 222.143 -0.08 -0.02    +0.120 C  
DOCKED: ATOM     21  C   UNL     1     137.924  69.747 223.919 -0.22 -0.02    +0.153 C  
DOCKED: ATOM     22  C   UNL     1     138.438  68.017 222.359 -0.23 -0.00    +0.024 C  
DOCKED: ATOM     23  C   UNL     1     137.345  68.514 223.258 -0.15 -0.00    +0.035 C  
DOCKED: BRANCH  21  24
DOCKED: ATOM     24  C   UNL     1     138.721  69.301 225.083 -0.30 -0.02    +0.150 A  
DOCKED: ATOM     25  N   UNL     1     138.837  68.004 225.434 -0.68 -0.00    -0.238 NA 
DOCKED: ATOM     26  N   UNL     1     139.352  70.234 225.818 -0.20 +0.04    -0.238 NA 
DOCKED: ATOM     27  C   UNL     1     139.559  67.590 226.491 -0.53 -0.02    +0.135 A  
DOCKED: ATOM     28  C   UNL     1     140.097  69.885 226.899 -0.45 -0.02    +0.135 A  
DOCKED: ATOM     29  C   UNL     1     140.201  68.543 227.236 -0.58 -0.02    +0.077 A  
DOCKED: ATOM     30  Cl  UNL     1     141.180  68.145 228.647 -0.67 +0.02    -0.081 Cl 
DOCKED: ENDBRANCH  21  24
DOCKED: ENDBRANCH  17  19
DOCKED: ENDBRANCH   1  17
DOCKED: TORSDOF 5
DOCKED: TER
DOCKED: ENDMDL
________________________________________________________________________________


    FINAL DOCKED STATE:
    ________________________


Run:   9 / 20
Time taken for this run:   0.022s

DOCKED: MODEL        9
DOCKED: USER    Run = 9
DOCKED: USER
DOCKED: USER    Estimated Free Energy of Binding    =  -6.84 kcal/mol  [=(1)+(2)+(3)-(4)]
DOCKED: USER
DOCKED: USER    (1) Final Intermolecular Energy     =  -8.33 kcal/mol
DOCKED: USER        vdW + Hbond + desolv Energy     =  -8.30 kcal/mol
DOCKED: USER        Electrostatic Energy            =  -0.03 kcal/mol
DOCKED: USER        Moving Ligand-Fixed Receptor    =  -8.33 kcal/mol
DOCKED: USER        Moving Ligand-Moving Receptor   =  +0.00 kcal/mol
DOCKED: USER    (2) Final Total Internal Energy     =  -2.91 kcal/mol
DOCKED: USER    (3) Torsional Free Energy           =  +1.49 kcal/mol
DOCKED: USER    (4) Unbound System's Energy         =  -2.91 kcal/mol
DOCKED: USER
DOCKED: USER
DOCKED: REMARK SMILES O=C(NCC(=O)N1CCC[C@H]1c1ncc(Cl)cn1)c1ccc2cc(Cl)ccc2n1
DOCKED: REMARK SMILES IDX 4 1 3 2 2 3 1 4 19 6 20 7 29 8 21 9 28 10 22 11 27 12 23 13
DOCKED: REMARK SMILES IDX 26 14 24 15 25 16 5 17 6 18 7 19 8 20 11 21 9 22 10 23 12 24
DOCKED: REMARK SMILES IDX 13 25 18 26 14 27 17 28 15 29 16 30
DOCKED: REMARK H PARENT 3 5
DOCKED: USER                              x       y       z     vdW  Elec       q    Type
DOCKED: USER                           _______ _______ _______ _____ _____    ______ ____
DOCKED: ROOT
DOCKED: ATOM      1  C   UNL     1     138.687  78.110 222.736 -0.20 -0.04    +0.216 C  
DOCKED: ENDROOT
DOCKED: BRANCH   1   2
DOCKED: ATOM      2  N   UNL     1     139.671  77.208 222.241 -0.16 +0.08    -0.342 N  
DOCKED: ATOM      3  C   UNL     1     139.376  75.813 222.239 -0.21 -0.05    +0.270 C  
DOCKED: ATOM      4  O   UNL     1     138.264  75.391 222.668 -0.19 +0.09    -0.268 OA 
DOCKED: ATOM      5  H   UNL     1     140.604  77.547 221.879 +0.07 -0.06    +0.164 HD 
DOCKED: BRANCH   3   6
DOCKED: ATOM      6  C   UNL     1     140.377  74.875 221.733 -0.25 -0.02    +0.128 A  
DOCKED: ATOM      7  C   UNL     1     140.076  73.529 221.679 -0.27 -0.00    +0.035 A  
DOCKED: ATOM      8  N   UNL     1     141.594  75.256 221.313 -0.22 +0.08    -0.243 NA 
DOCKED: ATOM      9  C   UNL     1     140.988  72.588 221.206 -0.24 -0.00    +0.013 A  
DOCKED: ATOM     10  C   UNL     1     142.508  74.369 220.847 -0.25 -0.02    +0.071 A  
DOCKED: ATOM     11  C   UNL     1     142.238  73.012 220.778 -0.27 -0.00    +0.002 A  
DOCKED: ATOM     12  C   UNL     1     143.752  74.793 220.422 -0.35 -0.01    +0.030 A  
DOCKED: ATOM     13  C   UNL     1     143.107  72.076 220.324 -0.25 -0.00    +0.030 A  
DOCKED: ATOM     14  C   UNL     1     144.649  73.849 219.955 -0.44 -0.01    +0.023 A  
DOCKED: ATOM     15  C   UNL     1     144.356  72.501 219.896 -0.32 -0.00    +0.041 A  
DOCKED: ATOM     16  Cl  UNL     1     145.491  71.308 219.308 -0.36 -0.04    -0.084 Cl 
DOCKED: ENDBRANCH   3   6
DOCKED: ENDBRANCH   1   2
DOCKED: BRANCH   1  17
DOCKED: ATOM     17  C   UNL     1     139.297  79.326 223.374 -0.26 -0.04    +0.242 C  
DOCKED: ATOM     18  O   UNL     1     138.601  80.008 224.167 -0.30 +0.03    -0.273 OA 
DOCKED: BRANCH  17  19
DOCKED: ATOM     19  N   UNL     1     140.645  79.639 223.042 -0.19 +0.07    -0.331 N  
DOCKED: ATOM     20  C   UNL     1     141.858  79.144 223.666 -0.53 -0.04    +0.120 C  
DOCKED: ATOM     21  C   UNL     1     140.987  80.562 221.957 -0.31 -0.04    +0.153 C  
DOCKED: ATOM     22  C   UNL     1     142.843  80.268 223.427 -0.65 -0.01    +0.024 C  
DOCKED: ATOM     23  C   UNL     1     142.156  81.297 222.579 -0.45 -0.01    +0.035 C  
DOCKED: BRANCH  21  24
DOCKED: ATOM     24  C   UNL     1     141.486  79.860 220.754 -0.25 -0.06    +0.150 A  
DOCKED: ATOM     25  N   UNL     1     141.832  80.508 219.623 -0.19 +0.12    -0.238 NA 
DOCKED: ATOM     26  N   UNL     1     141.596  78.521 220.798 -0.18 +0.13    -0.238 NA 
DOCKED: ATOM     27  C   UNL     1     142.286  79.877 218.524 -0.27 -0.10    +0.135 A  
DOCKED: ATOM     28  C   UNL     1     142.047  77.822 219.724 -0.23 -0.09    +0.135 A  
DOCKED: ATOM     29  C   UNL     1     142.398  78.513 218.574 -0.28 -0.06    +0.077 A  
DOCKED: ATOM     30  Cl  UNL     1     142.978  77.559 217.210 -0.31 +0.07    -0.081 Cl 
DOCKED: ENDBRANCH  21  24
DOCKED: ENDBRANCH  17  19
DOCKED: ENDBRANCH   1  17
DOCKED: TORSDOF 5
DOCKED: TER
DOCKED: ENDMDL
________________________________________________________________________________


    FINAL DOCKED STATE:
    ________________________


Run:   10 / 20
Time taken for this run:   0.022s

DOCKED: MODEL        10
DOCKED: USER    Run = 10
DOCKED: USER
DOCKED: USER    Estimated Free Energy of Binding    =  -6.86 kcal/mol  [=(1)+(2)+(3)-(4)]
DOCKED: USER
DOCKED: USER    (1) Final Intermolecular Energy     =  -8.36 kcal/mol
DOCKED: USER        vdW + Hbond + desolv Energy     =  -8.27 kcal/mol
DOCKED: USER        Electrostatic Energy            =  -0.08 kcal/mol
DOCKED: USER        Moving Ligand-Fixed Receptor    =  -8.36 kcal/mol
DOCKED: USER        Moving Ligand-Moving Receptor   =  +0.00 kcal/mol
DOCKED: USER    (2) Final Total Internal Energy     =  -2.56 kcal/mol
DOCKED: USER    (3) Torsional Free Energy           =  +1.49 kcal/mol
DOCKED: USER    (4) Unbound System's Energy         =  -2.56 kcal/mol
DOCKED: USER
DOCKED: USER
DOCKED: REMARK SMILES O=C(NCC(=O)N1CCC[C@H]1c1ncc(Cl)cn1)c1ccc2cc(Cl)ccc2n1
DOCKED: REMARK SMILES IDX 4 1 3 2 2 3 1 4 19 6 20 7 29 8 21 9 28 10 22 11 27 12 23 13
DOCKED: REMARK SMILES IDX 26 14 24 15 25 16 5 17 6 18 7 19 8 20 11 21 9 22 10 23 12 24
DOCKED: REMARK SMILES IDX 13 25 18 26 14 27 17 28 15 29 16 30
DOCKED: REMARK H PARENT 3 5
DOCKED: USER                              x       y       z     vdW  Elec       q    Type
DOCKED: USER                           _______ _______ _______ _____ _____    ______ ____
DOCKED: ROOT
DOCKED: ATOM      1  C   UNL     1     136.565  73.637 221.894 -0.08 -0.05    +0.216 C  
DOCKED: ENDROOT
DOCKED: BRANCH   1   2
DOCKED: ATOM      2  N   UNL     1     137.406  74.699 222.332 -0.07 +0.11    -0.342 N  
DOCKED: ATOM      3  C   UNL     1     137.107  76.025 221.902 -0.12 -0.06    +0.270 C  
DOCKED: ATOM      4  O   UNL     1     136.116  76.249 221.150 -0.03 +0.05    -0.268 OA 
DOCKED: ATOM      5  H   UNL     1     138.238  74.526 222.961 -0.53 -0.10    +0.164 HD 
DOCKED: BRANCH   3   6
DOCKED: ATOM      6  C   UNL     1     137.962  77.126 222.344 -0.22 -0.02    +0.128 A  
DOCKED: ATOM      7  C   UNL     1     137.385  78.320 222.724 -0.21 -0.01    +0.035 A  
DOCKED: ATOM      8  N   UNL     1     139.301  77.038 222.401 -0.21 +0.05    -0.243 NA 
DOCKED: ATOM      9  C   UNL     1     138.147  79.404 223.154 -0.28 -0.00    +0.013 A  
DOCKED: ATOM     10  C   UNL     1     140.076  78.071 222.814 -0.31 -0.02    +0.071 A  
DOCKED: ATOM     11  C   UNL     1     139.529  79.283 223.202 -0.39 -0.00    +0.002 A  
DOCKED: ATOM     12  C   UNL     1     141.452  77.949 222.861 -0.42 -0.01    +0.030 A  
DOCKED: ATOM     13  C   UNL     1     140.248  80.353 223.624 -0.42 -0.00    +0.030 A  
DOCKED: ATOM     14  C   UNL     1     142.198  79.032 223.289 -0.58 -0.01    +0.023 A  
DOCKED: ATOM     15  C   UNL     1     141.629  80.231 223.672 -0.55 -0.01    +0.041 A  
DOCKED: ATOM     16  Cl  UNL     1     142.572  81.600 224.212 -0.54 +0.01    -0.084 Cl 
DOCKED: ENDBRANCH   3   6
DOCKED: ENDBRANCH   1   2
DOCKED: BRANCH   1  17
DOCKED: ATOM     17  C   UNL     1     136.818  72.361 222.646 -0.10 -0.07    +0.242 C  
DOCKED: ATOM     18  O   UNL     1     135.970  71.974 223.488 -0.12 +0.06    -0.273 OA 
DOCKED: BRANCH  17  19
DOCKED: ATOM     19  N   UNL     1     138.019  71.653 222.358 -0.07 +0.08    -0.331 N  
DOCKED: ATOM     20  C   UNL     1     138.231  70.624 221.356 -0.07 -0.02    +0.120 C  
DOCKED: ATOM     21  C   UNL     1     139.263  71.897 223.089 -0.20 -0.04    +0.153 C  
DOCKED: ATOM     22  C   UNL     1     139.355  69.803 221.950 -0.15 -0.00    +0.024 C  
DOCKED: ATOM     23  C   UNL     1     139.792  70.484 223.214 -0.24 -0.01    +0.035 C  
DOCKED: BRANCH  21  24
DOCKED: ATOM     24  C   UNL     1     140.242  72.674 222.297 -0.26 -0.02    +0.150 A  
DOCKED: ATOM     25  N   UNL     1     140.152  74.009 222.131 -0.78 +0.01    -0.238 NA 
DOCKED: ATOM     26  N   UNL     1     141.261  72.013 221.720 -0.16 +0.02    -0.238 NA 
DOCKED: ATOM     27  C   UNL     1     141.037  74.723 221.412 -0.27 -0.02    +0.135 A  
DOCKED: ATOM     28  C   UNL     1     142.191  72.672 220.980 -0.19 -0.02    +0.135 A  
DOCKED: ATOM     29  C   UNL     1     142.074  74.046 220.826 -0.25 -0.02    +0.077 A  
DOCKED: ATOM     30  Cl  UNL     1     143.306  74.852 219.857 -0.46 +0.03    -0.081 Cl 
DOCKED: ENDBRANCH  21  24
DOCKED: ENDBRANCH  17  19
DOCKED: ENDBRANCH   1  17
DOCKED: TORSDOF 5
DOCKED: TER
DOCKED: ENDMDL
________________________________________________________________________________


    FINAL DOCKED STATE:
    ________________________


Run:   11 / 20
Time taken for this run:   0.022s

DOCKED: MODEL        11
DOCKED: USER    Run = 11
DOCKED: USER
DOCKED: USER    Estimated Free Energy of Binding    =  -7.98 kcal/mol  [=(1)+(2)+(3)-(4)]
DOCKED: USER
DOCKED: USER    (1) Final Intermolecular Energy     =  -9.47 kcal/mol
DOCKED: USER        vdW + Hbond + desolv Energy     =  -9.41 kcal/mol
DOCKED: USER        Electrostatic Energy            =  -0.06 kcal/mol
DOCKED: USER        Moving Ligand-Fixed Receptor    =  -9.47 kcal/mol
DOCKED: USER        Moving Ligand-Moving Receptor   =  +0.00 kcal/mol
DOCKED: USER    (2) Final Total Internal Energy     =  -1.85 kcal/mol
DOCKED: USER    (3) Torsional Free Energy           =  +1.49 kcal/mol
DOCKED: USER    (4) Unbound System's Energy         =  -1.85 kcal/mol
DOCKED: USER
DOCKED: USER
DOCKED: REMARK SMILES O=C(NCC(=O)N1CCC[C@H]1c1ncc(Cl)cn1)c1ccc2cc(Cl)ccc2n1
DOCKED: REMARK SMILES IDX 4 1 3 2 2 3 1 4 19 6 20 7 29 8 21 9 28 10 22 11 27 12 23 13
DOCKED: REMARK SMILES IDX 26 14 24 15 25 16 5 17 6 18 7 19 8 20 11 21 9 22 10 23 12 24
DOCKED: REMARK SMILES IDX 13 25 18 26 14 27 17 28 15 29 16 30
DOCKED: REMARK H PARENT 3 5
DOCKED: USER                              x       y       z     vdW  Elec       q    Type
DOCKED: USER                           _______ _______ _______ _____ _____    ______ ____
DOCKED: ROOT
DOCKED: ATOM      1  C   UNL     1     138.385  74.379 220.768 -0.08 -0.05    +0.216 C  
DOCKED: ENDROOT
DOCKED: BRANCH   1   2
DOCKED: ATOM      2  N   UNL     1     138.594  73.569 221.920 -0.10 +0.10    -0.342 N  
DOCKED: ATOM      3  C   UNL     1     139.350  72.368 221.779 -0.14 -0.05    +0.270 C  
DOCKED: ATOM      4  O   UNL     1     139.821  72.033 220.654 -0.06 +0.05    -0.268 OA 
DOCKED: ATOM      5  H   UNL     1     138.207  73.836 222.866 -0.54 -0.10    +0.164 HD 
DOCKED: BRANCH   3   6
DOCKED: ATOM      6  C   UNL     1     139.573  71.526 222.953 -0.27 -0.03    +0.128 A  
DOCKED: ATOM      7  C   UNL     1     139.205  70.196 222.912 -0.22 -0.01    +0.035 A  
DOCKED: ATOM      8  N   UNL     1     140.125  71.982 224.089 -0.22 +0.05    -0.243 NA 
DOCKED: ATOM      9  C   UNL     1     139.393  69.346 224.000 -0.28 -0.00    +0.013 A  
DOCKED: ATOM     10  C   UNL     1     140.324  71.185 225.167 -0.48 -0.01    +0.071 A  
DOCKED: ATOM     11  C   UNL     1     139.967  69.846 225.160 -0.43 -0.00    +0.002 A  
DOCKED: ATOM     12  C   UNL     1     140.895  71.685 226.322 -0.65 -0.00    +0.030 A  
DOCKED: ATOM     13  C   UNL     1     140.138  68.997 226.203 -0.51 -0.01    +0.030 A  
DOCKED: ATOM     14  C   UNL     1     141.077  70.830 227.394 -0.65 -0.00    +0.023 A  
DOCKED: ATOM     15  C   UNL     1     140.712  69.499 227.362 -0.57 -0.01    +0.041 A  
DOCKED: ATOM     16  Cl  UNL     1     140.941  68.419 228.718 -0.70 +0.02    -0.084 Cl 
DOCKED: ENDBRANCH   3   6
DOCKED: ENDBRANCH   1   2
DOCKED: BRANCH   1  17
DOCKED: ATOM     17  C   UNL     1     138.417  75.847 221.088 -0.10 -0.05    +0.242 C  
DOCKED: ATOM     18  O   UNL     1     137.342  76.497 221.060 -0.05 +0.05    -0.273 OA 
DOCKED: BRANCH  17  19
DOCKED: ATOM     19  N   UNL     1     139.677  76.424 221.411 -0.11 +0.08    -0.331 N  
DOCKED: ATOM     20  C   UNL     1     140.168  76.826 222.716 -0.15 -0.03    +0.120 C  
DOCKED: ATOM     21  C   UNL     1     140.694  76.697 220.393 -0.16 -0.06    +0.153 C  
DOCKED: ATOM     22  C   UNL     1     141.142  77.936 222.382 -0.43 -0.01    +0.024 C  
DOCKED: ATOM     23  C   UNL     1     141.228  78.025 220.887 -0.30 -0.02    +0.035 C  
DOCKED: BRANCH  21  24
DOCKED: ATOM     24  C   UNL     1     141.807  75.724 220.429 -0.22 -0.07    +0.150 A  
DOCKED: ATOM     25  N   UNL     1     141.644  74.442 220.812 -0.18 +0.06    -0.238 NA 
DOCKED: ATOM     26  N   UNL     1     143.032  76.144 220.064 -0.21 +0.16    -0.238 NA 
DOCKED: ATOM     27  C   UNL     1     142.651  73.551 220.849 -0.21 -0.03    +0.135 A  
DOCKED: ATOM     28  C   UNL     1     144.093  75.297 220.078 -0.32 -0.08    +0.135 A  
DOCKED: ATOM     29  C   UNL     1     143.896  73.982 220.475 -0.37 -0.02    +0.077 A  
DOCKED: ATOM     30  Cl  UNL     1     145.306  72.925 220.474 -0.69 +0.00    -0.081 Cl 
DOCKED: ENDBRANCH  21  24
DOCKED: ENDBRANCH  17  19
DOCKED: ENDBRANCH   1  17
DOCKED: TORSDOF 5
DOCKED: TER
DOCKED: ENDMDL
________________________________________________________________________________


    FINAL DOCKED STATE:
    ________________________


Run:   12 / 20
Time taken for this run:   0.022s

DOCKED: MODEL        12
DOCKED: USER    Run = 12
DOCKED: USER
DOCKED: USER    Estimated Free Energy of Binding    =  -6.93 kcal/mol  [=(1)+(2)+(3)-(4)]
DOCKED: USER
DOCKED: USER    (1) Final Intermolecular Energy     =  -8.42 kcal/mol
DOCKED: USER        vdW + Hbond + desolv Energy     =  -8.37 kcal/mol
DOCKED: USER        Electrostatic Energy            =  -0.05 kcal/mol
DOCKED: USER        Moving Ligand-Fixed Receptor    =  -8.42 kcal/mol
DOCKED: USER        Moving Ligand-Moving Receptor   =  +0.00 kcal/mol
DOCKED: USER    (2) Final Total Internal Energy     =  -2.89 kcal/mol
DOCKED: USER    (3) Torsional Free Energy           =  +1.49 kcal/mol
DOCKED: USER    (4) Unbound System's Energy         =  -2.89 kcal/mol
DOCKED: USER
DOCKED: USER
DOCKED: REMARK SMILES O=C(NCC(=O)N1CCC[C@H]1c1ncc(Cl)cn1)c1ccc2cc(Cl)ccc2n1
DOCKED: REMARK SMILES IDX 4 1 3 2 2 3 1 4 19 6 20 7 29 8 21 9 28 10 22 11 27 12 23 13
DOCKED: REMARK SMILES IDX 26 14 24 15 25 16 5 17 6 18 7 19 8 20 11 21 9 22 10 23 12 24
DOCKED: REMARK SMILES IDX 13 25 18 26 14 27 17 28 15 29 16 30
DOCKED: REMARK H PARENT 3 5
DOCKED: USER                              x       y       z     vdW  Elec       q    Type
DOCKED: USER                           _______ _______ _______ _____ _____    ______ ____
DOCKED: ROOT
DOCKED: ATOM      1  C   UNL     1     138.882  77.931 222.722 -0.21 -0.04    +0.216 C  
DOCKED: ENDROOT
DOCKED: BRANCH   1   2
DOCKED: ATOM      2  N   UNL     1     139.871  77.019 222.256 -0.18 +0.08    -0.342 N  
DOCKED: ATOM      3  C   UNL     1     139.508  75.651 222.082 -0.21 -0.05    +0.270 C  
DOCKED: ATOM      4  O   UNL     1     138.332  75.261 222.336 -0.23 +0.08    -0.268 OA 
DOCKED: ATOM      5  H   UNL     1     140.857  77.331 222.040 +0.04 -0.06    +0.164 HD 
DOCKED: BRANCH   3   6
DOCKED: ATOM      6  C   UNL     1     140.512  74.703 221.604 -0.28 -0.02    +0.128 A  
DOCKED: ATOM      7  C   UNL     1     140.189  73.365 221.508 -0.26 -0.00    +0.035 A  
DOCKED: ATOM      8  N   UNL     1     141.754  75.068 221.247 -0.21 +0.08    -0.243 NA 
DOCKED: ATOM      9  C   UNL     1     141.104  72.415 221.060 -0.22 -0.00    +0.013 A  
DOCKED: ATOM     10  C   UNL     1     142.673  74.172 220.806 -0.25 -0.02    +0.071 A  
DOCKED: ATOM     11  C   UNL     1     142.381  72.822 220.698 -0.26 -0.00    +0.002 A  
DOCKED: ATOM     12  C   UNL     1     143.943  74.579 220.447 -0.40 -0.01    +0.030 A  
DOCKED: ATOM     13  C   UNL     1     143.252  71.878 220.266 -0.25 -0.00    +0.030 A  
DOCKED: ATOM     14  C   UNL     1     144.843  73.627 220.004 -0.46 -0.00    +0.023 A  
DOCKED: ATOM     15  C   UNL     1     144.527  72.287 219.904 -0.32 -0.00    +0.041 A  
DOCKED: ATOM     16  Cl  UNL     1     145.665  71.082 219.345 -0.31 -0.05    -0.084 Cl 
DOCKED: ENDBRANCH   3   6
DOCKED: ENDBRANCH   1   2
DOCKED: BRANCH   1  17
DOCKED: ATOM     17  C   UNL     1     139.485  79.151 223.358 -0.25 -0.04    +0.242 C  
DOCKED: ATOM     18  O   UNL     1     138.809  79.793 224.201 -0.30 +0.03    -0.273 OA 
DOCKED: BRANCH  17  19
DOCKED: ATOM     19  N   UNL     1     140.804  79.516 222.966 -0.19 +0.08    -0.331 N  
DOCKED: ATOM     20  C   UNL     1     142.059  79.130 223.585 -0.50 -0.04    +0.120 C  
DOCKED: ATOM     21  C   UNL     1     141.065  80.381 221.814 -0.31 -0.04    +0.153 C  
DOCKED: ATOM     22  C   UNL     1     142.972  80.288 223.244 -0.64 -0.01    +0.024 C  
DOCKED: ATOM     23  C   UNL     1     142.205  81.219 222.352 -0.44 -0.01    +0.035 C  
DOCKED: BRANCH  21  24
DOCKED: ATOM     24  C   UNL     1     141.572  79.629 220.645 -0.25 -0.07    +0.150 A  
DOCKED: ATOM     25  N   UNL     1     141.869  80.221 219.470 -0.18 +0.13    -0.238 NA 
DOCKED: ATOM     26  N   UNL     1     141.741  78.301 220.767 -0.19 +0.14    -0.238 NA 
DOCKED: ATOM     27  C   UNL     1     142.330  79.544 218.402 -0.26 -0.11    +0.135 A  
DOCKED: ATOM     28  C   UNL     1     142.202  77.557 219.728 -0.26 -0.09    +0.135 A  
DOCKED: ATOM     29  C   UNL     1     142.501  78.192 218.531 -0.29 -0.06    +0.077 A  
DOCKED: ATOM     30  Cl  UNL     1     143.097  77.181 217.215 -0.29 +0.06    -0.081 Cl 
DOCKED: ENDBRANCH  21  24
DOCKED: ENDBRANCH  17  19
DOCKED: ENDBRANCH   1  17
DOCKED: TORSDOF 5
DOCKED: TER
DOCKED: ENDMDL
________________________________________________________________________________


    FINAL DOCKED STATE:
    ________________________


Run:   13 / 20
Time taken for this run:   0.022s

DOCKED: MODEL        13
DOCKED: USER    Run = 13
DOCKED: USER
DOCKED: USER    Estimated Free Energy of Binding    =  -6.88 kcal/mol  [=(1)+(2)+(3)-(4)]
DOCKED: USER
DOCKED: USER    (1) Final Intermolecular Energy     =  -8.37 kcal/mol
DOCKED: USER        vdW + Hbond + desolv Energy     =  -8.33 kcal/mol
DOCKED: USER        Electrostatic Energy            =  -0.04 kcal/mol
DOCKED: USER        Moving Ligand-Fixed Receptor    =  -8.37 kcal/mol
DOCKED: USER        Moving Ligand-Moving Receptor   =  +0.00 kcal/mol
DOCKED: USER    (2) Final Total Internal Energy     =  -2.91 kcal/mol
DOCKED: USER    (3) Torsional Free Energy           =  +1.49 kcal/mol
DOCKED: USER    (4) Unbound System's Energy         =  -2.91 kcal/mol
DOCKED: USER
DOCKED: USER
DOCKED: REMARK SMILES O=C(NCC(=O)N1CCC[C@H]1c1ncc(Cl)cn1)c1ccc2cc(Cl)ccc2n1
DOCKED: REMARK SMILES IDX 4 1 3 2 2 3 1 4 19 6 20 7 29 8 21 9 28 10 22 11 27 12 23 13
DOCKED: REMARK SMILES IDX 26 14 24 15 25 16 5 17 6 18 7 19 8 20 11 21 9 22 10 23 12 24
DOCKED: REMARK SMILES IDX 13 25 18 26 14 27 17 28 15 29 16 30
DOCKED: REMARK H PARENT 3 5
DOCKED: USER                              x       y       z     vdW  Elec       q    Type
DOCKED: USER                           _______ _______ _______ _____ _____    ______ ____
DOCKED: ROOT
DOCKED: ATOM      1  C   UNL     1     138.866  77.987 222.759 -0.19 -0.04    +0.216 C  
DOCKED: ENDROOT
DOCKED: BRANCH   1   2
DOCKED: ATOM      2  N   UNL     1     139.856  77.078 222.290 -0.18 +0.08    -0.342 N  
DOCKED: ATOM      3  C   UNL     1     139.490  75.713 222.099 -0.21 -0.05    +0.270 C  
DOCKED: ATOM      4  O   UNL     1     138.312  75.323 222.342 -0.23 +0.08    -0.268 OA 
DOCKED: ATOM      5  H   UNL     1     140.844  77.390 222.082 +0.04 -0.06    +0.164 HD 
DOCKED: BRANCH   3   6
DOCKED: ATOM      6  C   UNL     1     140.495  74.768 221.616 -0.27 -0.02    +0.128 A  
DOCKED: ATOM      7  C   UNL     1     140.175  73.429 221.523 -0.26 -0.00    +0.035 A  
DOCKED: ATOM      8  N   UNL     1     141.735  75.136 221.254 -0.21 +0.08    -0.243 NA 
DOCKED: ATOM      9  C   UNL     1     141.091  72.482 221.070 -0.23 -0.00    +0.013 A  
DOCKED: ATOM     10  C   UNL     1     142.653  74.243 220.810 -0.25 -0.02    +0.071 A  
DOCKED: ATOM     11  C   UNL     1     142.365  72.892 220.703 -0.26 -0.00    +0.002 A  
DOCKED: ATOM     12  C   UNL     1     143.921  74.653 220.445 -0.39 -0.01    +0.030 A  
DOCKED: ATOM     13  C   UNL     1     143.237  71.950 220.267 -0.25 -0.00    +0.030 A  
DOCKED: ATOM     14  C   UNL     1     144.822  73.703 219.997 -0.46 -0.00    +0.023 A  
DOCKED: ATOM     15  C   UNL     1     144.509  72.362 219.900 -0.32 -0.00    +0.041 A  
DOCKED: ATOM     16  Cl  UNL     1     145.648  71.161 219.335 -0.32 -0.05    -0.084 Cl 
DOCKED: ENDBRANCH   3   6
DOCKED: ENDBRANCH   1   2
DOCKED: BRANCH   1  17
DOCKED: ATOM     17  C   UNL     1     139.468  79.226 223.360 -0.25 -0.04    +0.242 C  
DOCKED: ATOM     18  O   UNL     1     138.794  79.889 224.187 -0.30 +0.03    -0.273 OA 
DOCKED: BRANCH  17  19
DOCKED: ATOM     19  N   UNL     1     140.785  79.583 222.953 -0.19 +0.08    -0.331 N  
DOCKED: ATOM     20  C   UNL     1     142.043  79.212 223.573 -0.51 -0.04    +0.120 C  
DOCKED: ATOM     21  C   UNL     1     141.038  80.424 221.782 -0.30 -0.04    +0.153 C  
DOCKED: ATOM     22  C   UNL     1     142.953  80.363 223.203 -0.65 -0.01    +0.024 C  
DOCKED: ATOM     23  C   UNL     1     142.181  81.275 222.295 -0.42 -0.01    +0.035 C  
DOCKED: BRANCH  21  24
DOCKED: ATOM     24  C   UNL     1     141.540  79.648 220.626 -0.25 -0.07    +0.150 A  
DOCKED: ATOM     25  N   UNL     1     141.742  78.316 220.674 -0.19 +0.14    -0.238 NA 
DOCKED: ATOM     26  N   UNL     1     141.803  80.307 219.483 -0.18 +0.12    -0.238 NA 
DOCKED: ATOM     27  C   UNL     1     142.199  77.604 219.627 -0.25 -0.09    +0.135 A  
DOCKED: ATOM     28  C   UNL     1     142.267  79.650 218.389 -0.26 -0.10    +0.135 A  
DOCKED: ATOM     29  C   UNL     1     142.465  78.279 218.465 -0.28 -0.06    +0.077 A  
DOCKED: ATOM     30  Cl  UNL     1     143.068  77.474 217.018 -0.28 +0.07    -0.081 Cl 
DOCKED: ENDBRANCH  21  24
DOCKED: ENDBRANCH  17  19
DOCKED: ENDBRANCH   1  17
DOCKED: TORSDOF 5
DOCKED: TER
DOCKED: ENDMDL
________________________________________________________________________________


    FINAL DOCKED STATE:
    ________________________


Run:   14 / 20
Time taken for this run:   0.022s

DOCKED: MODEL        14
DOCKED: USER    Run = 14
DOCKED: USER
DOCKED: USER    Estimated Free Energy of Binding    =  -7.84 kcal/mol  [=(1)+(2)+(3)-(4)]
DOCKED: USER
DOCKED: USER    (1) Final Intermolecular Energy     =  -9.33 kcal/mol
DOCKED: USER        vdW + Hbond + desolv Energy     =  -9.26 kcal/mol
DOCKED: USER        Electrostatic Energy            =  -0.07 kcal/mol
DOCKED: USER        Moving Ligand-Fixed Receptor    =  -9.33 kcal/mol
DOCKED: USER        Moving Ligand-Moving Receptor   =  +0.00 kcal/mol
DOCKED: USER    (2) Final Total Internal Energy     =  -1.82 kcal/mol
DOCKED: USER    (3) Torsional Free Energy           =  +1.49 kcal/mol
DOCKED: USER    (4) Unbound System's Energy         =  -1.82 kcal/mol
DOCKED: USER
DOCKED: USER
DOCKED: REMARK SMILES O=C(NCC(=O)N1CCC[C@H]1c1ncc(Cl)cn1)c1ccc2cc(Cl)ccc2n1
DOCKED: REMARK SMILES IDX 4 1 3 2 2 3 1 4 19 6 20 7 29 8 21 9 28 10 22 11 27 12 23 13
DOCKED: REMARK SMILES IDX 26 14 24 15 25 16 5 17 6 18 7 19 8 20 11 21 9 22 10 23 12 24
DOCKED: REMARK SMILES IDX 13 25 18 26 14 27 17 28 15 29 16 30
DOCKED: REMARK H PARENT 3 5
DOCKED: USER                              x       y       z     vdW  Elec       q    Type
DOCKED: USER                           _______ _______ _______ _____ _____    ______ ____
DOCKED: ROOT
DOCKED: ATOM      1  C   UNL     1     135.638  70.748 224.235 -0.13 -0.03    +0.216 C  
DOCKED: ENDROOT
DOCKED: BRANCH   1   2
DOCKED: ATOM      2  N   UNL     1     134.958  71.888 224.752 -0.08 +0.03    -0.342 N  
DOCKED: ATOM      3  C   UNL     1     134.158  71.730 225.921 -0.16 -0.01    +0.270 C  
DOCKED: ATOM      4  O   UNL     1     134.057  70.602 226.484 -0.31 +0.01    -0.268 OA 
DOCKED: ATOM      5  H   UNL     1     135.034  72.836 224.292 +0.04 -0.02    +0.164 HD 
DOCKED: BRANCH   3   6
DOCKED: ATOM      6  C   UNL     1     133.454  72.891 226.463 -0.31 -0.00    +0.128 A  
DOCKED: ATOM      7  C   UNL     1     132.234  72.714 227.083 -0.39 -0.01    +0.035 A  
DOCKED: ATOM      8  N   UNL     1     133.937  74.142 226.390 -0.76 -0.03    -0.243 NA 
DOCKED: ATOM      9  C   UNL     1     131.517  73.782 227.618 -0.39 -0.00    +0.013 A  
DOCKED: ATOM     10  C   UNL     1     133.269  75.206 226.899 -0.32 +0.00    +0.071 A  
DOCKED: ATOM     11  C   UNL     1     132.042  75.064 227.528 -0.41 -0.00    +0.002 A  
DOCKED: ATOM     12  C   UNL     1     133.792  76.482 226.808 -0.36 -0.00    +0.030 A  
DOCKED: ATOM     13  C   UNL     1     131.324  76.085 228.057 -0.24 +0.00    +0.030 A  
DOCKED: ATOM     14  C   UNL     1     133.071  77.534 227.343 -0.34 -0.00    +0.023 A  
DOCKED: ATOM     15  C   UNL     1     131.851  77.366 227.965 -0.31 +0.00    +0.041 A  
DOCKED: ATOM     16  Cl  UNL     1     130.938  78.696 228.641 -0.31 -0.02    -0.084 Cl 
DOCKED: ENDBRANCH   3   6
DOCKED: ENDBRANCH   1   2
DOCKED: BRANCH   1  17
DOCKED: ATOM     17  C   UNL     1     136.791  71.124 223.348 -0.12 -0.05    +0.242 C  
DOCKED: ATOM     18  O   UNL     1     136.763  72.230 222.753 -0.10 +0.07    -0.273 OA 
DOCKED: BRANCH  17  19
DOCKED: ATOM     19  N   UNL     1     137.863  70.195 223.231 -0.08 +0.06    -0.331 N  
DOCKED: ATOM     20  C   UNL     1     139.130  70.375 222.547 -0.17 -0.02    +0.120 C  
DOCKED: ATOM     21  C   UNL     1     137.807  68.860 223.830 -0.20 -0.01    +0.153 C  
DOCKED: ATOM     22  C   UNL     1     139.504  68.961 222.156 -0.06 -0.00    +0.024 C  
DOCKED: ATOM     23  C   UNL     1     138.473  68.043 222.742 -0.25 -0.01    +0.035 C  
DOCKED: BRANCH  21  24
DOCKED: ATOM     24  C   UNL     1     138.641  68.750 225.047 -0.31 -0.01    +0.150 A  
DOCKED: ATOM     25  N   UNL     1     138.888  69.797 225.860 -0.17 +0.03    -0.238 NA 
DOCKED: ATOM     26  N   UNL     1     139.171  67.552 225.349 -0.82 -0.01    -0.238 NA 
DOCKED: ATOM     27  C   UNL     1     139.645  69.706 226.968 -0.42 -0.02    +0.135 A  
DOCKED: ATOM     28  C   UNL     1     139.946  67.389 226.453 -0.55 -0.02    +0.135 A  
DOCKED: ATOM     29  C   UNL     1     140.183  68.483 227.272 -0.59 -0.02    +0.077 A  
DOCKED: ATOM     30  Cl  UNL     1     141.193  68.218 228.692 -0.67 +0.02    -0.081 Cl 
DOCKED: ENDBRANCH  21  24
DOCKED: ENDBRANCH  17  19
DOCKED: ENDBRANCH   1  17
DOCKED: TORSDOF 5
DOCKED: TER
DOCKED: ENDMDL
________________________________________________________________________________


    FINAL DOCKED STATE:
    ________________________


Run:   15 / 20
Time taken for this run:   0.022s

DOCKED: MODEL        15
DOCKED: USER    Run = 15
DOCKED: USER
DOCKED: USER    Estimated Free Energy of Binding    =  -7.33 kcal/mol  [=(1)+(2)+(3)-(4)]
DOCKED: USER
DOCKED: USER    (1) Final Intermolecular Energy     =  -8.82 kcal/mol
DOCKED: USER        vdW + Hbond + desolv Energy     =  -8.86 kcal/mol
DOCKED: USER        Electrostatic Energy            =  +0.03 kcal/mol
DOCKED: USER        Moving Ligand-Fixed Receptor    =  -8.82 kcal/mol
DOCKED: USER        Moving Ligand-Moving Receptor   =  +0.00 kcal/mol
DOCKED: USER    (2) Final Total Internal Energy     =  -2.27 kcal/mol
DOCKED: USER    (3) Torsional Free Energy           =  +1.49 kcal/mol
DOCKED: USER    (4) Unbound System's Energy         =  -2.27 kcal/mol
DOCKED: USER
DOCKED: USER
DOCKED: REMARK SMILES O=C(NCC(=O)N1CCC[C@H]1c1ncc(Cl)cn1)c1ccc2cc(Cl)ccc2n1
DOCKED: REMARK SMILES IDX 4 1 3 2 2 3 1 4 19 6 20 7 29 8 21 9 28 10 22 11 27 12 23 13
DOCKED: REMARK SMILES IDX 26 14 24 15 25 16 5 17 6 18 7 19 8 20 11 21 9 22 10 23 12 24
DOCKED: REMARK SMILES IDX 13 25 18 26 14 27 17 28 15 29 16 30
DOCKED: REMARK H PARENT 3 5
DOCKED: USER                              x       y       z     vdW  Elec       q    Type
DOCKED: USER                           _______ _______ _______ _____ _____    ______ ____
DOCKED: ROOT
DOCKED: ATOM      1  C   UNL     1     141.299  73.320 219.629 -0.07 -0.04    +0.216 C  
DOCKED: ENDROOT
DOCKED: BRANCH   1   2
DOCKED: ATOM      2  N   UNL     1     141.223  72.416 220.727 -0.07 +0.05    -0.342 N  
DOCKED: ATOM      3  C   UNL     1     140.526  72.829 221.900 -0.20 -0.03    +0.270 C  
DOCKED: ATOM      4  O   UNL     1     139.989  73.973 221.960 -0.79 +0.03    -0.268 OA 
DOCKED: ATOM      5  H   UNL     1     141.667  71.458 220.691 +0.05 -0.02    +0.164 HD 
DOCKED: BRANCH   3   6
DOCKED: ATOM      6  C   UNL     1     140.438  71.913 223.036 -0.29 -0.01    +0.128 A  
DOCKED: ATOM      7  C   UNL     1     139.968  70.631 222.836 -0.21 -0.01    +0.035 A  
DOCKED: ATOM      8  N   UNL     1     140.795  72.255 224.284 +0.12 +0.02    -0.243 NA 
DOCKED: ATOM      9  C   UNL     1     139.862  69.713 223.879 -0.19 -0.00    +0.013 A  
DOCKED: ATOM     10  C   UNL     1     140.707  71.389 225.324 -0.52 -0.01    +0.071 A  
DOCKED: ATOM     11  C   UNL     1     140.240  70.096 225.158 -0.45 -0.00    +0.002 A  
DOCKED: ATOM     12  C   UNL     1     141.082  71.772 226.598 -0.71 -0.00    +0.030 A  
DOCKED: ATOM     13  C   UNL     1     140.126  69.183 226.155 -0.50 -0.01    +0.030 A  
DOCKED: ATOM     14  C   UNL     1     140.973  70.852 227.625 -0.67 -0.00    +0.023 A  
DOCKED: ATOM     15  C   UNL     1     140.504  69.567 227.434 -0.57 -0.01    +0.041 A  
DOCKED: ATOM     16  Cl  UNL     1     140.364  68.404 228.732 -0.59 +0.02    -0.084 Cl 
DOCKED: ENDBRANCH   3   6
DOCKED: ENDBRANCH   1   2
DOCKED: BRANCH   1  17
DOCKED: ATOM     17  C   UNL     1     142.535  74.173 219.677 -0.14 -0.07    +0.242 C  
DOCKED: ATOM     18  O   UNL     1     142.428  75.408 219.476 -0.15 +0.12    -0.273 OA 
DOCKED: BRANCH  17  19
DOCKED: ATOM     19  N   UNL     1     143.773  73.525 219.951 -0.14 +0.07    -0.331 N  
DOCKED: ATOM     20  C   UNL     1     144.469  73.430 221.221 -0.07 -0.03    +0.120 C  
DOCKED: ATOM     21  C   UNL     1     144.539  72.833 218.912 -0.19 +0.00    +0.153 C  
DOCKED: ATOM     22  C   UNL     1     145.918  73.303 220.801 -0.66 -0.00    +0.024 C  
DOCKED: ATOM     23  C   UNL     1     145.949  73.224 219.303 -0.31 +0.01    +0.035 C  
DOCKED: BRANCH  21  24
DOCKED: ATOM     24  C   UNL     1     144.435  71.361 219.018 -0.16 +0.02    +0.150 A  
DOCKED: ATOM     25  N   UNL     1     143.321  70.738 219.454 -0.08 +0.01    -0.238 NA 
DOCKED: ATOM     26  N   UNL     1     145.500  70.621 218.663 -0.18 -0.13    -0.238 NA 
DOCKED: ATOM     27  C   UNL     1     143.219  69.400 219.554 -0.14 -0.01    +0.135 A  
DOCKED: ATOM     28  C   UNL     1     145.465  69.265 218.740 -0.26 +0.04    +0.135 A  
DOCKED: ATOM     29  C   UNL     1     144.307  68.649 219.191 -0.26 -0.00    +0.077 A  
DOCKED: ATOM     30  Cl  UNL     1     144.313  66.889 219.270 -0.45 +0.03    -0.081 Cl 
DOCKED: ENDBRANCH  21  24
DOCKED: ENDBRANCH  17  19
DOCKED: ENDBRANCH   1  17
DOCKED: TORSDOF 5
DOCKED: TER
DOCKED: ENDMDL
________________________________________________________________________________


    FINAL DOCKED STATE:
    ________________________


Run:   16 / 20
Time taken for this run:   0.022s

DOCKED: MODEL        16
DOCKED: USER    Run = 16
DOCKED: USER
DOCKED: USER    Estimated Free Energy of Binding    =  -8.04 kcal/mol  [=(1)+(2)+(3)-(4)]
DOCKED: USER
DOCKED: USER    (1) Final Intermolecular Energy     =  -9.54 kcal/mol
DOCKED: USER        vdW + Hbond + desolv Energy     =  -9.47 kcal/mol
DOCKED: USER        Electrostatic Energy            =  -0.07 kcal/mol
DOCKED: USER        Moving Ligand-Fixed Receptor    =  -9.54 kcal/mol
DOCKED: USER        Moving Ligand-Moving Receptor   =  +0.00 kcal/mol
DOCKED: USER    (2) Final Total Internal Energy     =  -1.42 kcal/mol
DOCKED: USER    (3) Torsional Free Energy           =  +1.49 kcal/mol
DOCKED: USER    (4) Unbound System's Energy         =  -1.42 kcal/mol
DOCKED: USER
DOCKED: USER
DOCKED: REMARK SMILES O=C(NCC(=O)N1CCC[C@H]1c1ncc(Cl)cn1)c1ccc2cc(Cl)ccc2n1
DOCKED: REMARK SMILES IDX 4 1 3 2 2 3 1 4 19 6 20 7 29 8 21 9 28 10 22 11 27 12 23 13
DOCKED: REMARK SMILES IDX 26 14 24 15 25 16 5 17 6 18 7 19 8 20 11 21 9 22 10 23 12 24
DOCKED: REMARK SMILES IDX 13 25 18 26 14 27 17 28 15 29 16 30
DOCKED: REMARK H PARENT 3 5
DOCKED: USER                              x       y       z     vdW  Elec       q    Type
DOCKED: USER                           _______ _______ _______ _____ _____    ______ ____
DOCKED: ROOT
DOCKED: ATOM      1  C   UNL     1     135.092  68.865 224.118 -0.09 -0.01    +0.216 C  
DOCKED: ENDROOT
DOCKED: BRANCH   1   2
DOCKED: ATOM      2  N   UNL     1     134.656  70.154 224.536 -0.06 +0.03    -0.342 N  
DOCKED: ATOM      3  C   UNL     1     134.014  70.277 225.803 -0.18 -0.02    +0.270 C  
DOCKED: ATOM      4  O   UNL     1     133.838  69.262 226.536 -0.74 -0.02    -0.268 OA 
DOCKED: ATOM      5  H   UNL     1     134.796  71.011 223.934 +0.04 -0.02    +0.164 HD 
DOCKED: BRANCH   3   6
DOCKED: ATOM      6  C   UNL     1     133.561  71.594 226.246 -0.29 -0.01    +0.128 A  
DOCKED: ATOM      7  C   UNL     1     132.464  71.688 227.078 -0.35 -0.00    +0.035 A  
DOCKED: ATOM      8  N   UNL     1     134.162  72.738 225.882 -0.26 +0.00    -0.243 NA 
DOCKED: ATOM      9  C   UNL     1     131.986  72.915 227.533 -0.39 -0.00    +0.013 A  
DOCKED: ATOM     10  C   UNL     1     133.726  73.951 226.303 -0.24 +0.01    +0.071 A  
DOCKED: ATOM     11  C   UNL     1     132.629  74.080 227.139 -0.40 -0.00    +0.002 A  
DOCKED: ATOM     12  C   UNL     1     134.367  75.110 225.910 -0.39 +0.00    +0.030 A  
DOCKED: ATOM     13  C   UNL     1     132.143  75.261 227.596 -0.38 -0.00    +0.030 A  
DOCKED: ATOM     14  C   UNL     1     133.883  76.322 226.368 -0.36 -0.00    +0.023 A  
DOCKED: ATOM     15  C   UNL     1     132.787  76.425 227.201 -0.36 -0.00    +0.041 A  
DOCKED: ATOM     16  Cl  UNL     1     132.174  77.957 227.779 -0.38 -0.00    -0.084 Cl 
DOCKED: ENDBRANCH   3   6
DOCKED: ENDBRANCH   1   2
DOCKED: BRANCH   1  17
DOCKED: ATOM     17  C   UNL     1     136.183  68.938 223.087 -0.10 -0.02    +0.242 C  
DOCKED: ATOM     18  O   UNL     1     136.037  68.315 222.005 -0.07 +0.04    -0.273 OA 
DOCKED: BRANCH  17  19
DOCKED: ATOM     19  N   UNL     1     137.332  69.717 223.397 -0.07 +0.05    -0.331 N  
DOCKED: ATOM     20  C   UNL     1     137.384  71.108 223.809 -0.19 -0.03    +0.120 C  
DOCKED: ATOM     21  C   UNL     1     138.688  69.169 223.331 -0.20 -0.02    +0.153 C  
DOCKED: ATOM     22  C   UNL     1     138.745  71.554 223.319 -0.22 -0.01    +0.024 C  
DOCKED: ATOM     23  C   UNL     1     139.435  70.350 222.749 -0.22 -0.01    +0.035 C  
DOCKED: BRANCH  21  24
DOCKED: ATOM     24  C   UNL     1     139.254  68.896 224.671 -0.29 -0.02    +0.150 A  
DOCKED: ATOM     25  N   UNL     1     139.157  67.694 225.273 -0.81 -0.00    -0.238 NA 
DOCKED: ATOM     26  N   UNL     1     139.890  69.895 225.308 -0.23 +0.04    -0.238 NA 
DOCKED: ATOM     27  C   UNL     1     139.668  67.438 226.491 -0.53 -0.02    +0.135 A  
DOCKED: ATOM     28  C   UNL     1     140.429  69.705 226.541 -0.44 -0.02    +0.135 A  
DOCKED: ATOM     29  C   UNL     1     140.316  68.458 227.137 -0.59 -0.02    +0.077 A  
DOCKED: ATOM     30  Cl  UNL     1     141.033  68.265 228.735 -0.69 +0.02    -0.081 Cl 
DOCKED: ENDBRANCH  21  24
DOCKED: ENDBRANCH  17  19
DOCKED: ENDBRANCH   1  17
DOCKED: TORSDOF 5
DOCKED: TER
DOCKED: ENDMDL
________________________________________________________________________________


    FINAL DOCKED STATE:
    ________________________


Run:   17 / 20
Time taken for this run:   0.022s

DOCKED: MODEL        17
DOCKED: USER    Run = 17
DOCKED: USER
DOCKED: USER    Estimated Free Energy of Binding    =  -6.92 kcal/mol  [=(1)+(2)+(3)-(4)]
DOCKED: USER
DOCKED: USER    (1) Final Intermolecular Energy     =  -8.41 kcal/mol
DOCKED: USER        vdW + Hbond + desolv Energy     =  -8.36 kcal/mol
DOCKED: USER        Electrostatic Energy            =  -0.05 kcal/mol
DOCKED: USER        Moving Ligand-Fixed Receptor    =  -8.41 kcal/mol
DOCKED: USER        Moving Ligand-Moving Receptor   =  +0.00 kcal/mol
DOCKED: USER    (2) Final Total Internal Energy     =  -2.89 kcal/mol
DOCKED: USER    (3) Torsional Free Energy           =  +1.49 kcal/mol
DOCKED: USER    (4) Unbound System's Energy         =  -2.89 kcal/mol
DOCKED: USER
DOCKED: USER
DOCKED: REMARK SMILES O=C(NCC(=O)N1CCC[C@H]1c1ncc(Cl)cn1)c1ccc2cc(Cl)ccc2n1
DOCKED: REMARK SMILES IDX 4 1 3 2 2 3 1 4 19 6 20 7 29 8 21 9 28 10 22 11 27 12 23 13
DOCKED: REMARK SMILES IDX 26 14 24 15 25 16 5 17 6 18 7 19 8 20 11 21 9 22 10 23 12 24
DOCKED: REMARK SMILES IDX 13 25 18 26 14 27 17 28 15 29 16 30
DOCKED: REMARK H PARENT 3 5
DOCKED: USER                              x       y       z     vdW  Elec       q    Type
DOCKED: USER                           _______ _______ _______ _____ _____    ______ ____
DOCKED: ROOT
DOCKED: ATOM      1  C   UNL     1     138.872  77.961 222.778 -0.18 -0.04    +0.216 C  
DOCKED: ENDROOT
DOCKED: BRANCH   1   2
DOCKED: ATOM      2  N   UNL     1     139.862  77.054 222.304 -0.18 +0.08    -0.342 N  
DOCKED: ATOM      3  C   UNL     1     139.496  75.691 222.105 -0.21 -0.05    +0.270 C  
DOCKED: ATOM      4  O   UNL     1     138.317  75.300 222.345 -0.23 +0.08    -0.268 OA 
DOCKED: ATOM      5  H   UNL     1     140.850  77.367 222.099 +0.04 -0.06    +0.164 HD 
DOCKED: BRANCH   3   6
DOCKED: ATOM      6  C   UNL     1     140.501  74.748 221.618 -0.27 -0.02    +0.128 A  
DOCKED: ATOM      7  C   UNL     1     140.187  73.406 221.536 -0.26 -0.00    +0.035 A  
DOCKED: ATOM      8  N   UNL     1     141.734  75.120 221.240 -0.21 +0.08    -0.243 NA 
DOCKED: ATOM      9  C   UNL     1     141.103  72.461 221.080 -0.23 -0.00    +0.013 A  
DOCKED: ATOM     10  C   UNL     1     142.653  74.229 220.791 -0.25 -0.02    +0.071 A  
DOCKED: ATOM     11  C   UNL     1     142.371  72.876 220.696 -0.26 -0.00    +0.002 A  
DOCKED: ATOM     12  C   UNL     1     143.915  74.644 220.410 -0.39 -0.01    +0.030 A  
DOCKED: ATOM     13  C   UNL     1     143.243  71.936 220.257 -0.25 -0.00    +0.030 A  
DOCKED: ATOM     14  C   UNL     1     144.816  73.696 219.959 -0.45 -0.00    +0.023 A  
DOCKED: ATOM     15  C   UNL     1     144.510  72.353 219.874 -0.32 -0.00    +0.041 A  
DOCKED: ATOM     16  Cl  UNL     1     145.649  71.154 219.305 -0.32 -0.05    -0.084 Cl 
DOCKED: ENDBRANCH   3   6
DOCKED: ENDBRANCH   1   2
DOCKED: BRANCH   1  17
DOCKED: ATOM     17  C   UNL     1     139.474  79.194 223.390 -0.25 -0.04    +0.242 C  
DOCKED: ATOM     18  O   UNL     1     138.799  79.850 224.223 -0.31 +0.03    -0.273 OA 
DOCKED: BRANCH  17  19
DOCKED: ATOM     19  N   UNL     1     140.792  79.554 222.988 -0.19 +0.08    -0.331 N  
DOCKED: ATOM     20  C   UNL     1     142.050  79.160 223.594 -0.50 -0.04    +0.120 C  
DOCKED: ATOM     21  C   UNL     1     141.046  80.423 221.838 -0.31 -0.04    +0.153 C  
DOCKED: ATOM     22  C   UNL     1     142.966  80.315 223.250 -0.64 -0.01    +0.024 C  
DOCKED: ATOM     23  C   UNL     1     142.196  81.254 222.369 -0.44 -0.01    +0.035 C  
DOCKED: BRANCH  21  24
DOCKED: ATOM     24  C   UNL     1     141.540  79.675 220.661 -0.25 -0.07    +0.150 A  
DOCKED: ATOM     25  N   UNL     1     141.825  80.270 219.485 -0.18 +0.12    -0.238 NA 
DOCKED: ATOM     26  N   UNL     1     141.707  78.346 220.776 -0.19 +0.14    -0.238 NA 
DOCKED: ATOM     27  C   UNL     1     142.273  79.596 218.410 -0.26 -0.10    +0.135 A  
DOCKED: ATOM     28  C   UNL     1     142.156  77.605 219.730 -0.25 -0.09    +0.135 A  
DOCKED: ATOM     29  C   UNL     1     142.443  78.242 218.532 -0.28 -0.06    +0.077 A  
DOCKED: ATOM     30  Cl  UNL     1     143.023  77.235 217.207 -0.31 +0.06    -0.081 Cl 
DOCKED: ENDBRANCH  21  24
DOCKED: ENDBRANCH  17  19
DOCKED: ENDBRANCH   1  17
DOCKED: TORSDOF 5
DOCKED: TER
DOCKED: ENDMDL
________________________________________________________________________________


    FINAL DOCKED STATE:
    ________________________


Run:   18 / 20
Time taken for this run:   0.022s

DOCKED: MODEL        18
DOCKED: USER    Run = 18
DOCKED: USER
DOCKED: USER    Estimated Free Energy of Binding    =  -6.89 kcal/mol  [=(1)+(2)+(3)-(4)]
DOCKED: USER
DOCKED: USER    (1) Final Intermolecular Energy     =  -8.38 kcal/mol
DOCKED: USER        vdW + Hbond + desolv Energy     =  -8.34 kcal/mol
DOCKED: USER        Electrostatic Energy            =  -0.04 kcal/mol
DOCKED: USER        Moving Ligand-Fixed Receptor    =  -8.38 kcal/mol
DOCKED: USER        Moving Ligand-Moving Receptor   =  +0.00 kcal/mol
DOCKED: USER    (2) Final Total Internal Energy     =  -2.91 kcal/mol
DOCKED: USER    (3) Torsional Free Energy           =  +1.49 kcal/mol
DOCKED: USER    (4) Unbound System's Energy         =  -2.91 kcal/mol
DOCKED: USER
DOCKED: USER
DOCKED: REMARK SMILES O=C(NCC(=O)N1CCC[C@H]1c1ncc(Cl)cn1)c1ccc2cc(Cl)ccc2n1
DOCKED: REMARK SMILES IDX 4 1 3 2 2 3 1 4 19 6 20 7 29 8 21 9 28 10 22 11 27 12 23 13
DOCKED: REMARK SMILES IDX 26 14 24 15 25 16 5 17 6 18 7 19 8 20 11 21 9 22 10 23 12 24
DOCKED: REMARK SMILES IDX 13 25 18 26 14 27 17 28 15 29 16 30
DOCKED: REMARK H PARENT 3 5
DOCKED: USER                              x       y       z     vdW  Elec       q    Type
DOCKED: USER                           _______ _______ _______ _____ _____    ______ ____
DOCKED: ROOT
DOCKED: ATOM      1  C   UNL     1     138.729  78.056 222.754 -0.19 -0.04    +0.216 C  
DOCKED: ENDROOT
DOCKED: BRANCH   1   2
DOCKED: ATOM      2  N   UNL     1     139.726  77.158 222.279 -0.17 +0.08    -0.342 N  
DOCKED: ATOM      3  C   UNL     1     139.396  75.777 222.157 -0.21 -0.05    +0.270 C  
DOCKED: ATOM      4  O   UNL     1     138.241  75.362 222.464 -0.21 +0.08    -0.268 OA 
DOCKED: ATOM      5  H   UNL     1     140.695  77.490 222.019 +0.06 -0.06    +0.164 HD 
DOCKED: BRANCH   3   6
DOCKED: ATOM      6  C   UNL     1     140.409  74.843 221.671 -0.26 -0.02    +0.128 A  
DOCKED: ATOM      7  C   UNL     1     140.115  73.496 221.609 -0.27 -0.00    +0.035 A  
DOCKED: ATOM      8  N   UNL     1     141.633  75.229 221.274 -0.22 +0.08    -0.243 NA 
DOCKED: ATOM      9  C   UNL     1     141.040  72.559 221.154 -0.24 -0.00    +0.013 A  
DOCKED: ATOM     10  C   UNL     1     142.560  74.346 220.826 -0.25 -0.02    +0.071 A  
DOCKED: ATOM     11  C   UNL     1     142.297  72.988 220.751 -0.26 -0.00    +0.002 A  
DOCKED: ATOM     12  C   UNL     1     143.811  74.775 220.426 -0.36 -0.01    +0.030 A  
DOCKED: ATOM     13  C   UNL     1     143.178  72.055 220.313 -0.25 -0.00    +0.030 A  
DOCKED: ATOM     14  C   UNL     1     144.721  73.835 219.976 -0.45 -0.01    +0.023 A  
DOCKED: ATOM     15  C   UNL     1     144.434  72.486 219.911 -0.32 -0.00    +0.041 A  
DOCKED: ATOM     16  Cl  UNL     1     145.584  71.298 219.343 -0.36 -0.04    -0.084 Cl 
DOCKED: ENDBRANCH   3   6
DOCKED: ENDBRANCH   1   2
DOCKED: BRANCH   1  17
DOCKED: ATOM     17  C   UNL     1     139.319  79.306 223.343 -0.25 -0.04    +0.242 C  
DOCKED: ATOM     18  O   UNL     1     138.608  80.016 224.096 -0.29 +0.03    -0.273 OA 
DOCKED: BRANCH  17  19
DOCKED: ATOM     19  N   UNL     1     140.667  79.618 223.010 -0.19 +0.08    -0.331 N  
DOCKED: ATOM     20  C   UNL     1     141.880  79.123 223.636 -0.52 -0.04    +0.120 C  
DOCKED: ATOM     21  C   UNL     1     141.010  80.538 221.924 -0.31 -0.04    +0.153 C  
DOCKED: ATOM     22  C   UNL     1     142.866  80.246 223.395 -0.65 -0.01    +0.024 C  
DOCKED: ATOM     23  C   UNL     1     142.179  81.274 222.545 -0.46 -0.01    +0.035 C  
DOCKED: BRANCH  21  24
DOCKED: ATOM     24  C   UNL     1     141.510  79.834 220.722 -0.25 -0.07    +0.150 A  
DOCKED: ATOM     25  N   UNL     1     141.862  80.479 219.592 -0.19 +0.12    -0.238 NA 
DOCKED: ATOM     26  N   UNL     1     141.614  78.494 220.767 -0.18 +0.13    -0.238 NA 
DOCKED: ATOM     27  C   UNL     1     142.317  79.846 218.495 -0.27 -0.10    +0.135 A  
DOCKED: ATOM     28  C   UNL     1     142.065  77.792 219.696 -0.23 -0.09    +0.135 A  
DOCKED: ATOM     29  C   UNL     1     142.422  78.481 218.546 -0.28 -0.06    +0.077 A  
DOCKED: ATOM     30  Cl  UNL     1     143.002  77.524 217.184 -0.30 +0.07    -0.081 Cl 
DOCKED: ENDBRANCH  21  24
DOCKED: ENDBRANCH  17  19
DOCKED: ENDBRANCH   1  17
DOCKED: TORSDOF 5
DOCKED: TER
DOCKED: ENDMDL
________________________________________________________________________________


    FINAL DOCKED STATE:
    ________________________


Run:   19 / 20
Time taken for this run:   0.022s

DOCKED: MODEL        19
DOCKED: USER    Run = 19
DOCKED: USER
DOCKED: USER    Estimated Free Energy of Binding    =  -6.88 kcal/mol  [=(1)+(2)+(3)-(4)]
DOCKED: USER
DOCKED: USER    (1) Final Intermolecular Energy     =  -8.37 kcal/mol
DOCKED: USER        vdW + Hbond + desolv Energy     =  -8.34 kcal/mol
DOCKED: USER        Electrostatic Energy            =  -0.04 kcal/mol
DOCKED: USER        Moving Ligand-Fixed Receptor    =  -8.37 kcal/mol
DOCKED: USER        Moving Ligand-Moving Receptor   =  +0.00 kcal/mol
DOCKED: USER    (2) Final Total Internal Energy     =  -2.91 kcal/mol
DOCKED: USER    (3) Torsional Free Energy           =  +1.49 kcal/mol
DOCKED: USER    (4) Unbound System's Energy         =  -2.91 kcal/mol
DOCKED: USER
DOCKED: USER
DOCKED: REMARK SMILES O=C(NCC(=O)N1CCC[C@H]1c1ncc(Cl)cn1)c1ccc2cc(Cl)ccc2n1
DOCKED: REMARK SMILES IDX 4 1 3 2 2 3 1 4 19 6 20 7 29 8 21 9 28 10 22 11 27 12 23 13
DOCKED: REMARK SMILES IDX 26 14 24 15 25 16 5 17 6 18 7 19 8 20 11 21 9 22 10 23 12 24
DOCKED: REMARK SMILES IDX 13 25 18 26 14 27 17 28 15 29 16 30
DOCKED: REMARK H PARENT 3 5
DOCKED: USER                              x       y       z     vdW  Elec       q    Type
DOCKED: USER                           _______ _______ _______ _____ _____    ______ ____
DOCKED: ROOT
DOCKED: ATOM      1  C   UNL     1     138.680  78.100 222.818 -0.18 -0.04    +0.216 C  
DOCKED: ENDROOT
DOCKED: BRANCH   1   2
DOCKED: ATOM      2  N   UNL     1     139.679  77.207 222.337 -0.17 +0.08    -0.342 N  
DOCKED: ATOM      3  C   UNL     1     139.360  75.821 222.235 -0.21 -0.05    +0.270 C  
DOCKED: ATOM      4  O   UNL     1     138.215  75.399 222.567 -0.20 +0.08    -0.268 OA 
DOCKED: ATOM      5  H   UNL     1     140.639  77.546 222.056 +0.06 -0.06    +0.164 HD 
DOCKED: BRANCH   3   6
DOCKED: ATOM      6  C   UNL     1     140.375  74.892 221.742 -0.25 -0.02    +0.128 A  
DOCKED: ATOM      7  C   UNL     1     140.106  73.538 221.735 -0.27 -0.00    +0.035 A  
DOCKED: ATOM      8  N   UNL     1     141.575  75.288 221.289 -0.22 +0.08    -0.243 NA 
DOCKED: ATOM      9  C   UNL     1     141.034  72.605 221.277 -0.25 -0.00    +0.013 A  
DOCKED: ATOM     10  C   UNL     1     142.503  74.410 220.836 -0.25 -0.02    +0.071 A  
DOCKED: ATOM     11  C   UNL     1     142.266  73.045 220.814 -0.27 -0.00    +0.002 A  
DOCKED: ATOM     12  C   UNL     1     143.729  74.850 220.375 -0.35 -0.01    +0.030 A  
DOCKED: ATOM     13  C   UNL     1     143.150  72.116 220.375 -0.26 -0.00    +0.030 A  
DOCKED: ATOM     14  C   UNL     1     144.642  73.914 219.924 -0.43 -0.01    +0.023 A  
DOCKED: ATOM     15  C   UNL     1     144.381  72.558 219.912 -0.32 -0.00    +0.041 A  
DOCKED: ATOM     16  Cl  UNL     1     145.535  71.374 219.342 -0.37 -0.04    -0.084 Cl 
DOCKED: ENDBRANCH   3   6
DOCKED: ENDBRANCH   1   2
DOCKED: BRANCH   1  17
DOCKED: ATOM     17  C   UNL     1     139.265  79.382 223.341 -0.26 -0.04    +0.242 C  
DOCKED: ATOM     18  O   UNL     1     138.539  80.145 224.026 -0.29 +0.03    -0.273 OA 
DOCKED: BRANCH  17  19
DOCKED: ATOM     19  N   UNL     1     140.625  79.662 223.029 -0.19 +0.07    -0.331 N  
DOCKED: ATOM     20  C   UNL     1     141.816  79.130 223.664 -0.53 -0.04    +0.120 C  
DOCKED: ATOM     21  C   UNL     1     141.005  80.582 221.955 -0.31 -0.04    +0.153 C  
DOCKED: ATOM     22  C   UNL     1     142.834  80.229 223.446 -0.65 -0.01    +0.024 C  
DOCKED: ATOM     23  C   UNL     1     142.184  81.282 222.597 -0.46 -0.01    +0.035 C  
DOCKED: BRANCH  21  24
DOCKED: ATOM     24  C   UNL     1     141.501  79.877 220.753 -0.25 -0.06    +0.150 A  
DOCKED: ATOM     25  N   UNL     1     141.931  80.525 219.652 -0.19 +0.12    -0.238 NA 
DOCKED: ATOM     26  N   UNL     1     141.522  78.532 220.768 -0.17 +0.13    -0.238 NA 
DOCKED: ATOM     27  C   UNL     1     142.383  79.890 218.555 -0.26 -0.10    +0.135 A  
DOCKED: ATOM     28  C   UNL     1     141.966  77.829 219.694 -0.23 -0.08    +0.135 A  
DOCKED: ATOM     29  C   UNL     1     142.403  78.521 218.574 -0.28 -0.06    +0.077 A  
DOCKED: ATOM     30  Cl  UNL     1     142.969  77.561 217.209 -0.32 +0.07    -0.081 Cl 
DOCKED: ENDBRANCH  21  24
DOCKED: ENDBRANCH  17  19
DOCKED: ENDBRANCH   1  17
DOCKED: TORSDOF 5
DOCKED: TER
DOCKED: ENDMDL
________________________________________________________________________________


    FINAL DOCKED STATE:
    ________________________


Run:   20 / 20
Time taken for this run:   0.022s

DOCKED: MODEL        20
DOCKED: USER    Run = 20
DOCKED: USER
DOCKED: USER    Estimated Free Energy of Binding    =  -7.10 kcal/mol  [=(1)+(2)+(3)-(4)]
DOCKED: USER
DOCKED: USER    (1) Final Intermolecular Energy     =  -8.59 kcal/mol
DOCKED: USER        vdW + Hbond + desolv Energy     =  -8.60 kcal/mol
DOCKED: USER        Electrostatic Energy            =  +0.01 kcal/mol
DOCKED: USER        Moving Ligand-Fixed Receptor    =  -8.59 kcal/mol
DOCKED: USER        Moving Ligand-Moving Receptor   =  +0.00 kcal/mol
DOCKED: USER    (2) Final Total Internal Energy     =  -2.28 kcal/mol
DOCKED: USER    (3) Torsional Free Energy           =  +1.49 kcal/mol
DOCKED: USER    (4) Unbound System's Energy         =  -2.28 kcal/mol
DOCKED: USER
DOCKED: USER
DOCKED: REMARK SMILES O=C(NCC(=O)N1CCC[C@H]1c1ncc(Cl)cn1)c1ccc2cc(Cl)ccc2n1
DOCKED: REMARK SMILES IDX 4 1 3 2 2 3 1 4 19 6 20 7 29 8 21 9 28 10 22 11 27 12 23 13
DOCKED: REMARK SMILES IDX 26 14 24 15 25 16 5 17 6 18 7 19 8 20 11 21 9 22 10 23 12 24
DOCKED: REMARK SMILES IDX 13 25 18 26 14 27 17 28 15 29 16 30
DOCKED: REMARK H PARENT 3 5
DOCKED: USER                              x       y       z     vdW  Elec       q    Type
DOCKED: USER                           _______ _______ _______ _____ _____    ______ ____
DOCKED: ROOT
DOCKED: ATOM      1  C   UNL     1     141.507  73.250 219.174 -0.04 -0.04    +0.216 C  
DOCKED: ENDROOT
DOCKED: BRANCH   1   2
DOCKED: ATOM      2  N   UNL     1     141.370  72.400 220.308 -0.05 +0.05    -0.342 N  
DOCKED: ATOM      3  C   UNL     1     140.480  72.794 221.350 -0.16 -0.04    +0.270 C  
DOCKED: ATOM      4  O   UNL     1     139.828  73.874 221.264 -0.22 +0.05    -0.268 OA 
DOCKED: ATOM      5  H   UNL     1     141.908  71.495 220.393 +0.05 -0.02    +0.164 HD 
DOCKED: BRANCH   3   6
DOCKED: ATOM      6  C   UNL     1     140.328  71.931 222.521 -0.27 -0.02    +0.128 A  
DOCKED: ATOM      7  C   UNL     1     139.761  70.682 222.372 -0.20 -0.01    +0.035 A  
DOCKED: ATOM      8  N   UNL     1     140.717  72.293 223.754 -0.13 +0.01    -0.243 NA 
DOCKED: ATOM      9  C   UNL     1     139.590  69.817 223.450 -0.24 -0.00    +0.013 A  
DOCKED: ATOM     10  C   UNL     1     140.567  71.478 224.827 -0.46 -0.01    +0.071 A  
DOCKED: ATOM     11  C   UNL     1     140.002  70.218 224.713 -0.41 -0.00    +0.002 A  
DOCKED: ATOM     12  C   UNL     1     140.977  71.880 226.084 -0.59 -0.00    +0.030 A  
DOCKED: ATOM     13  C   UNL     1     139.824  69.357 225.745 -0.45 -0.00    +0.030 A  
DOCKED: ATOM     14  C   UNL     1     140.802  71.012 227.147 -0.67 -0.00    +0.023 A  
DOCKED: ATOM     15  C   UNL     1     140.236  69.760 227.007 -0.54 -0.01    +0.041 A  
DOCKED: ATOM     16  Cl  UNL     1     140.015  68.663 228.350 -0.71 +0.02    -0.084 Cl 
DOCKED: ENDBRANCH   3   6
DOCKED: ENDBRANCH   1   2
DOCKED: BRANCH   1  17
DOCKED: ATOM     17  C   UNL     1     142.733  74.114 219.254 -0.12 -0.07    +0.242 C  
DOCKED: ATOM     18  O   UNL     1     142.671  75.296 218.833 -0.12 +0.11    -0.273 OA 
DOCKED: BRANCH  17  19
DOCKED: ATOM     19  N   UNL     1     143.911  73.539 219.809 -0.13 +0.07    -0.331 N  
DOCKED: ATOM     20  C   UNL     1     144.291  73.456 221.207 +0.04 -0.03    +0.120 C  
DOCKED: ATOM     21  C   UNL     1     144.946  72.923 218.976 -0.23 +0.02    +0.153 C  
DOCKED: ATOM     22  C   UNL     1     145.803  73.430 221.144 -0.68 -0.00    +0.024 C  
DOCKED: ATOM     23  C   UNL     1     146.193  73.391 219.696 -0.40 +0.01    +0.035 C  
DOCKED: BRANCH  21  24
DOCKED: ATOM     24  C   UNL     1     144.918  71.445 219.040 -0.20 +0.04    +0.150 A  
DOCKED: ATOM     25  N   UNL     1     145.941  70.677 218.614 -0.25 -0.20    -0.238 NA 
DOCKED: ATOM     26  N   UNL     1     143.823  70.850 219.545 -0.10 +0.00    -0.238 NA 
DOCKED: ATOM     27  C   UNL     1     145.924  69.333 218.668 -0.28 +0.06    +0.135 A  
DOCKED: ATOM     28  C   UNL     1     143.739  69.497 219.629 -0.19 -0.00    +0.135 A  
DOCKED: ATOM     29  C   UNL     1     144.807  68.731 219.184 -0.30 +0.01    +0.077 A  
DOCKED: ATOM     30  Cl  UNL     1     144.647  66.980 219.316 -0.53 +0.02    -0.081 Cl 
DOCKED: ENDBRANCH  21  24
DOCKED: ENDBRANCH  17  19
DOCKED: ENDBRANCH   1  17
DOCKED: TORSDOF 5
DOCKED: TER
DOCKED: ENDMDL
________________________________________________________________________________


    CLUSTERING HISTOGRAM
    ____________________


________________________________________________________________________________
     |           |     |           |     |
Clus | Lowest    | Run | Mean      | Num | Histogram
-ter | Binding   |     | Binding   | in  |
Rank | Energy    |     | Energy    | Clus|    5    10   15   20   25   30   35
_____|___________|_____|___________|_____|____:____|____:____|____:____|____:___
   1 |     -8.20 |   2 |     -8.09 |   2 |##
   2 |     -8.04 |  16 |     -7.94 |   2 |##
   3 |     -7.77 |   8 |     -7.77 |   1 |#
   4 |     -7.43 |   1 |     -7.29 |   3 |###
   5 |     -6.93 |  12 |     -6.89 |  10 |##########
   6 |     -6.86 |  10 |     -6.86 |   1 |#
   7 |     -6.30 |   6 |     -6.30 |   1 |#
_____|___________|_____|___________|_____|______________________________________


    RMSD TABLE
    __________


_______________________________________________________________________
     |      |      |           |         |                 |
Rank | Sub- | Run  | Binding   | Cluster | Reference       | Grep
     | Rank |      | Energy    | RMSD    | RMSD            | Pattern
_____|______|______|___________|_________|_________________|___________
   1      1      2       -8.20      0.00    270.81           RANKING
   1      2     11       -7.98      0.45    270.65           RANKING
   2      1     16       -8.04      0.00    270.17           RANKING
   2      2     14       -7.84      1.34    270.48           RANKING
   3      1      8       -7.77      0.00    270.81           RANKING
   4      1      1       -7.43      0.00    270.47           RANKING
   4      2     15       -7.33      0.13    270.42           RANKING
   4      3     20       -7.10      0.53    270.27           RANKING
   5      1     12       -6.93      0.00    270.85           RANKING
   5      2      4       -6.93      0.03    270.86           RANKING
   5      3     17       -6.92      0.06    270.86           RANKING
   5      4      3       -6.92      0.09    270.86           RANKING
   5      5     18       -6.89      0.23    270.88           RANKING
   5      6     19       -6.88      0.31    270.91           RANKING
   5      7     13       -6.88      0.10    270.85           RANKING
   5      8      7       -6.87      0.07    270.84           RANKING
   5      9      5       -6.87      0.29    270.87           RANKING
   5     10      9       -6.84      0.28    270.89           RANKING
   6      1     10       -6.86      0.00    270.35           RANKING
   7      1      6       -6.30      0.00    270.46           RANKING

Run time 0.409 sec
Idle time 0.000 sec
