AutoDock-GPU version: v1.6

**********************************************************
**    AutoDock-GPU AUTODOCKTOOLS-COMPATIBLE DLG FILE    **
**********************************************************


    DOCKING PARAMETERS
    ________________________


Ligand file:                               /home/a/REINVENT4/ReinventStudies/pleaseWork/justmol2mol_4_Compounds_ontop/graph-dock-hn62wh/graph-DockGPU/node-autodockgpu/inputs/LSCNNXKRXNUWAP-IXXALHEGNA-N.pdbqt
Grid fld file:                             /home/a/REINVENT4/ReinventStudies/mols/Rad51/maps/rad51_receptor.maps.fld

Random seed:                               42
Number of runs:                            20
Number of energy evaluations:              1132076
Number of generations:                     42000
Size of population:                        150
Rate of crossover:                         80.000000%
Tournament selection probability limit:    60.000000%
Rate of mutation:                          2.000000%
Maximal allowed delta movement:            +/- 6.000000A
Maximal allowed delta angle:               +/- 90.000000

Rate of local search:                      100.000000%
Maximal number of local search iterations: 300
Rho lower bound:                           0.010000
Spread of local search delta movement:     2.000000A
Spread of local search delta angle:        74.999999
Limit of consecutive successes/failures:   4

Handle symmetry during clustering:         YES
RMSD tolerance:                            2.000000A

Program call in command line was:          /home/a/REINVENT4/ReinventStudies/adgpu-v1.6_linux_x64_cuda12_128wi --filelist batch.txt --heuristics 1 --nrun 20 --psize 150 --lsit 300 --seed 42 --heurmax 12000000 


    GRID PARAMETERS
    ________________________


Receptor name:                             rad51_receptor
Number of grid points (x, y, z):           53, 53, 53
Grid center (x, y, z):                     139.950000, 75.640000, 221.970000A
Grid size (x, y, z):                       19.500000, 19.500000, 19.500000A
Grid spacing:                              0.375000A


    LIGAND PARAMETERS
    ________________________


Ligand name:                               /home/a/REINVENT4/ReinventStudies/pleaseWork/justmol2mol_4_Compounds_ontop/graph-dock-hn62wh/graph-DockGPU/node-autodockgpu/inputs/LSCNNXKRXNUWAP-IXXALHEGNA-N
Number of atoms:                           35
Number of rotatable bonds:                 6
Number of atom types:                      7


    DUMMY DATA (only for ADT-compatibility)
    ________________________


DPF> outlev 1
DPF> ga_run 20
DPF> fld /home/a/REINVENT4/ReinventStudies/mols/Rad51/maps/rad51_receptor.maps.fld
DPF> move /home/a/REINVENT4/ReinventStudies/pleaseWork/justmol2mol_4_Compounds_ontop/graph-dock-hn62wh/graph-DockGPU/node-autodockgpu/inputs/LSCNNXKRXNUWAP-IXXALHEGNA-N.pdbqt


    COUNTER STATES
    ________________________


Number of energy evaluations performed:    344410
Number of generations used:                30


    INPUT LIGAND PDBQT FILE:
    ________________________


INPUT-LIGAND-PDBQT: REMARK SMILES CC(C)[C@H]1C[C@H](NC(=O)CNC(=O)c2ccc3cc(F)ccc3n2)[C@H](c2ccc(F)cc2)C1
INPUT-LIGAND-PDBQT: REMARK SMILES IDX 7 1 8 2 9 3 6 5 4 6 5 7 33 8 25 9 2 10 1 11 3 12 26 13 27 14
INPUT-LIGAND-PDBQT: REMARK SMILES IDX 32 15 28 16 31 17 29 18 30 19 10 20 11 21 12 22 13 24 14 25
INPUT-LIGAND-PDBQT: REMARK SMILES IDX 15 26 24 27 16 28 23 29 17 30 22 31 18 32 21 33 19 34 20 35
INPUT-LIGAND-PDBQT: REMARK H PARENT 7 4 11 23
INPUT-LIGAND-PDBQT: ROOT
INPUT-LIGAND-PDBQT: ATOM      1  N   UNL     1      -1.263   0.166  -0.722  1.00  0.00    -0.351 N 
INPUT-LIGAND-PDBQT: ATOM      2  C   UNL     1       0.127  -0.111  -0.496  1.00  0.00     0.239 C 
INPUT-LIGAND-PDBQT: ATOM      3  O   UNL     1       0.666   0.315   0.561  1.00  0.00    -0.273 OA
INPUT-LIGAND-PDBQT: ATOM      4  H   UNL     1      -1.713  -0.177  -1.585  1.00  0.00     0.163 HD
INPUT-LIGAND-PDBQT: ENDROOT
INPUT-LIGAND-PDBQT: BRANCH   1   5
INPUT-LIGAND-PDBQT: ATOM      5  C   UNL     1      -1.957   0.924   0.288  1.00  0.00     0.089 C 
INPUT-LIGAND-PDBQT: ATOM      6  C   UNL     1      -3.740   1.513  -1.175  1.00  0.00    -0.006 C 
INPUT-LIGAND-PDBQT: ATOM      7  C   UNL     1      -2.554   2.133  -0.447  1.00  0.00     0.029 C 
INPUT-LIGAND-PDBQT: ATOM      8  C   UNL     1      -4.004   0.173  -0.524  1.00  0.00     0.014 C 
INPUT-LIGAND-PDBQT: ATOM      9  C   UNL     1      -3.234   0.267   0.753  1.00  0.00     0.042 C 
INPUT-LIGAND-PDBQT: BRANCH   6  10
INPUT-LIGAND-PDBQT: ATOM     10  C   UNL     1      -4.980   2.348  -0.986  1.00  0.00    -0.014 C 
INPUT-LIGAND-PDBQT: ATOM     11  C   UNL     1      -6.124   1.705  -1.718  1.00  0.00     0.007 C 
INPUT-LIGAND-PDBQT: ATOM     12  C   UNL     1      -4.766   3.732  -1.523  1.00  0.00     0.007 C 
INPUT-LIGAND-PDBQT: ENDBRANCH   6  10
INPUT-LIGAND-PDBQT: BRANCH   9  13
INPUT-LIGAND-PDBQT: ATOM     13  C   UNL     1      -3.049  -0.997   1.469  1.00  0.00    -0.043 A 
INPUT-LIGAND-PDBQT: ATOM     14  C   UNL     1      -3.485  -1.099   2.762  1.00  0.00     0.007 A 
INPUT-LIGAND-PDBQT: ATOM     15  C   UNL     1      -2.446  -2.072   0.855  1.00  0.00     0.007 A 
INPUT-LIGAND-PDBQT: ATOM     16  C   UNL     1      -3.326  -2.288   3.472  1.00  0.00     0.039 A 
INPUT-LIGAND-PDBQT: ATOM     17  C   UNL     1      -2.280  -3.268   1.555  1.00  0.00     0.039 A 
INPUT-LIGAND-PDBQT: ATOM     18  C   UNL     1      -2.722  -3.365   2.860  1.00  0.00     0.123 A 
INPUT-LIGAND-PDBQT: ATOM     19  F   UNL     1      -2.595  -4.494   3.602  1.00  0.00    -0.207 F 
INPUT-LIGAND-PDBQT: ENDBRANCH   9  13
INPUT-LIGAND-PDBQT: ENDBRANCH   1   5
INPUT-LIGAND-PDBQT: BRANCH   2  20
INPUT-LIGAND-PDBQT: ATOM     20  C   UNL     1       0.861  -0.892  -1.527  1.00  0.00     0.216 C 
INPUT-LIGAND-PDBQT: BRANCH  20  21
INPUT-LIGAND-PDBQT: ATOM     21  N   UNL     1       2.240  -1.064  -1.114  1.00  0.00    -0.342 N 
INPUT-LIGAND-PDBQT: ATOM     22  C   UNL     1       3.004   0.126  -0.914  1.00  0.00     0.270 C 
INPUT-LIGAND-PDBQT: ATOM     23  H   UNL     1       2.666  -2.021  -0.966  1.00  0.00     0.164 HD
INPUT-LIGAND-PDBQT: ATOM     24  O   UNL     1       2.481   1.267  -1.095  1.00  0.00    -0.268 OA
INPUT-LIGAND-PDBQT: BRANCH  22  25
INPUT-LIGAND-PDBQT: ATOM     25  C   UNL     1       4.399   0.020  -0.498  1.00  0.00     0.128 A 
INPUT-LIGAND-PDBQT: ATOM     26  C   UNL     1       5.143   1.165  -0.304  1.00  0.00     0.035 A 
INPUT-LIGAND-PDBQT: ATOM     27  N   UNL     1       5.018  -1.156  -0.288  1.00  0.00    -0.243 NA
INPUT-LIGAND-PDBQT: ATOM     28  C   UNL     1       6.465   1.154   0.089  1.00  0.00     0.013 A 
INPUT-LIGAND-PDBQT: ATOM     29  C   UNL     1       6.320  -1.216   0.100  1.00  0.00     0.071 A 
INPUT-LIGAND-PDBQT: ATOM     30  C   UNL     1       7.073  -0.066   0.297  1.00  0.00     0.003 A 
INPUT-LIGAND-PDBQT: ATOM     31  C   UNL     1       6.940  -2.431   0.311  1.00  0.00     0.032 A 
INPUT-LIGAND-PDBQT: ATOM     32  C   UNL     1       8.389  -0.091   0.688  1.00  0.00     0.049 A 
INPUT-LIGAND-PDBQT: ATOM     33  C   UNL     1       8.274  -2.478   0.708  1.00  0.00     0.041 A 
INPUT-LIGAND-PDBQT: ATOM     34  C   UNL     1       8.986  -1.304   0.893  1.00  0.00     0.123 A 
INPUT-LIGAND-PDBQT: ATOM     35  F   UNL     1      10.286  -1.309   1.278  1.00  0.00    -0.207 F 
INPUT-LIGAND-PDBQT: ENDBRANCH  22  25
INPUT-LIGAND-PDBQT: ENDBRANCH  20  21
INPUT-LIGAND-PDBQT: ENDBRANCH   2  20
INPUT-LIGAND-PDBQT: TORSDOF 6


    FINAL DOCKED STATE:
    ________________________


Run:   1 / 20
Time taken for this run:   0.019s

DOCKED: MODEL        1
DOCKED: USER    Run = 1
DOCKED: USER
DOCKED: USER    Estimated Free Energy of Binding    =  -8.69 kcal/mol  [=(1)+(2)+(3)-(4)]
DOCKED: USER
DOCKED: USER    (1) Final Intermolecular Energy     = -10.48 kcal/mol
DOCKED: USER        vdW + Hbond + desolv Energy     = -10.56 kcal/mol
DOCKED: USER        Electrostatic Energy            =  +0.08 kcal/mol
DOCKED: USER        Moving Ligand-Fixed Receptor    = -10.48 kcal/mol
DOCKED: USER        Moving Ligand-Moving Receptor   =  +0.00 kcal/mol
DOCKED: USER    (2) Final Total Internal Energy     =  -1.79 kcal/mol
DOCKED: USER    (3) Torsional Free Energy           =  +1.79 kcal/mol
DOCKED: USER    (4) Unbound System's Energy         =  -1.79 kcal/mol
DOCKED: USER
DOCKED: USER
DOCKED: REMARK SMILES CC(C)[C@H]1C[C@H](NC(=O)CNC(=O)c2ccc3cc(F)ccc3n2)[C@H](c2ccc(F)cc2)C1
DOCKED: REMARK SMILES IDX 7 1 8 2 9 3 6 5 4 6 5 7 33 8 25 9 2 10 1 11 3 12 26 13 27 14
DOCKED: REMARK SMILES IDX 32 15 28 16 31 17 29 18 30 19 10 20 11 21 12 22 13 24 14 25
DOCKED: REMARK SMILES IDX 15 26 24 27 16 28 23 29 17 30 22 31 18 32 21 33 19 34 20 35
DOCKED: REMARK H PARENT 7 4 11 23
DOCKED: USER                              x       y       z     vdW  Elec       q    Type
DOCKED: USER                           _______ _______ _______ _____ _____    ______ ____
DOCKED: ROOT
DOCKED: ATOM      1  N   UNL     1     141.026  76.512 221.212 -0.14 +0.14    -0.351 N  
DOCKED: ATOM      2  C   UNL     1     140.347  75.333 220.754 -0.16 -0.06    +0.239 C  
DOCKED: ATOM      3  O   UNL     1     139.139  75.425 220.408 -0.05 +0.06    -0.273 OA 
DOCKED: ATOM      4  H   UNL     1     142.015  76.447 221.499 -0.47 -0.12    +0.163 HD 
DOCKED: ENDROOT
DOCKED: BRANCH   1   5
DOCKED: ATOM      5  C   UNL     1     140.269  77.738 221.245 -0.23 -0.03    +0.089 C  
DOCKED: ATOM      6  C   UNL     1     141.524  78.632 223.060 -0.57 +0.00    -0.006 C  
DOCKED: ATOM      7  C   UNL     1     140.136  78.095 222.733 -0.37 -0.01    +0.029 C  
DOCKED: ATOM      8  C   UNL     1     142.197  78.941 221.741 -0.32 -0.01    +0.014 C  
DOCKED: ATOM      9  C   UNL     1     141.056  78.937 220.776 -0.27 -0.02    +0.042 C  
DOCKED: BRANCH   6  10
DOCKED: ATOM     10  C   UNL     1     141.430  79.928 223.823 -0.56 +0.00    -0.014 C  
DOCKED: ATOM     11  C   UNL     1     140.161  80.635 223.440 -0.44 -0.00    +0.007 C  
DOCKED: ATOM     12  C   UNL     1     142.602  80.808 223.504 -0.66 -0.00    +0.007 C  
DOCKED: ENDBRANCH   6  10
DOCKED: BRANCH   9  13
DOCKED: ATOM     13  C   UNL     1     141.431  78.911 219.361 -0.22 +0.02    -0.043 A  
DOCKED: ATOM     14  C   UNL     1     142.196  79.927 218.856 -0.32 -0.00    +0.007 A  
DOCKED: ATOM     15  C   UNL     1     141.022  77.880 218.544 -0.13 -0.00    +0.007 A  
DOCKED: ATOM     16  C   UNL     1     142.571  79.932 217.514 -0.26 -0.04    +0.039 A  
DOCKED: ATOM     17  C   UNL     1     141.391  77.874 217.197 -0.12 -0.02    +0.039 A  
DOCKED: ATOM     18  C   UNL     1     142.163  78.902 216.694 -0.17 -0.12    +0.123 A  
DOCKED: ATOM     19  F   UNL     1     142.559  78.963 215.397 -0.03 +0.26    -0.207 F  
DOCKED: ENDBRANCH   9  13
DOCKED: ENDBRANCH   1   5
DOCKED: BRANCH   2  20
DOCKED: ATOM     20  C   UNL     1     141.112  74.058 220.713 -0.17 -0.04    +0.216 C  
DOCKED: BRANCH  20  21
DOCKED: ATOM     21  N   UNL     1     141.009  73.389 221.995 -0.13 +0.01    -0.342 N  
DOCKED: ATOM     22  C   UNL     1     140.270  72.167 222.024 -0.19 -0.04    +0.270 C  
DOCKED: ATOM     23  H   UNL     1     141.457  73.781 222.869 +0.20 +0.07    +0.164 HD 
DOCKED: ATOM     24  O   UNL     1     139.737  71.709 220.968 -0.07 +0.05    -0.268 OA 
DOCKED: BRANCH  22  25
DOCKED: ATOM     25  C   UNL     1     140.129  71.446 223.285 -0.30 -0.02    +0.128 A  
DOCKED: ATOM     26  C   UNL     1     139.429  70.258 223.318 -0.26 -0.01    +0.035 A  
DOCKED: ATOM     27  N   UNL     1     140.654  71.881 224.445 -0.26 +0.03    -0.243 NA 
DOCKED: ATOM     28  C   UNL     1     139.250  69.514 224.465 -0.34 -0.00    +0.013 A  
DOCKED: ATOM     29  C   UNL     1     140.503  71.181 225.602 -0.53 -0.01    +0.071 A  
DOCKED: ATOM     30  C   UNL     1     139.799  69.984 225.640 -0.46 -0.00    +0.003 A  
DOCKED: ATOM     31  C   UNL     1     141.047  71.641 226.783 -0.72 -0.01    +0.032 A  
DOCKED: ATOM     32  C   UNL     1     139.628  69.253 226.789 -0.50 -0.01    +0.049 A  
DOCKED: ATOM     33  C   UNL     1     140.885  70.914 227.960 -0.68 -0.01    +0.041 A  
DOCKED: ATOM     34  C   UNL     1     140.175  69.724 227.950 -0.52 -0.02    +0.123 A  
DOCKED: ATOM     35  F   UNL     1     139.995  68.990 229.075 -0.13 +0.03    -0.207 F  
DOCKED: ENDBRANCH  22  25
DOCKED: ENDBRANCH  20  21
DOCKED: ENDBRANCH   2  20
DOCKED: TORSDOF 6
DOCKED: TER
DOCKED: ENDMDL
________________________________________________________________________________


    FINAL DOCKED STATE:
    ________________________


Run:   2 / 20
Time taken for this run:   0.019s

DOCKED: MODEL        2
DOCKED: USER    Run = 2
DOCKED: USER
DOCKED: USER    Estimated Free Energy of Binding    =  -9.00 kcal/mol  [=(1)+(2)+(3)-(4)]
DOCKED: USER
DOCKED: USER    (1) Final Intermolecular Energy     = -10.79 kcal/mol
DOCKED: USER        vdW + Hbond + desolv Energy     = -10.75 kcal/mol
DOCKED: USER        Electrostatic Energy            =  -0.03 kcal/mol
DOCKED: USER        Moving Ligand-Fixed Receptor    = -10.79 kcal/mol
DOCKED: USER        Moving Ligand-Moving Receptor   =  +0.00 kcal/mol
DOCKED: USER    (2) Final Total Internal Energy     =  -1.73 kcal/mol
DOCKED: USER    (3) Torsional Free Energy           =  +1.79 kcal/mol
DOCKED: USER    (4) Unbound System's Energy         =  -1.73 kcal/mol
DOCKED: USER
DOCKED: USER
DOCKED: REMARK SMILES CC(C)[C@H]1C[C@H](NC(=O)CNC(=O)c2ccc3cc(F)ccc3n2)[C@H](c2ccc(F)cc2)C1
DOCKED: REMARK SMILES IDX 7 1 8 2 9 3 6 5 4 6 5 7 33 8 25 9 2 10 1 11 3 12 26 13 27 14
DOCKED: REMARK SMILES IDX 32 15 28 16 31 17 29 18 30 19 10 20 11 21 12 22 13 24 14 25
DOCKED: REMARK SMILES IDX 15 26 24 27 16 28 23 29 17 30 22 31 18 32 21 33 19 34 20 35
DOCKED: REMARK H PARENT 7 4 11 23
DOCKED: USER                              x       y       z     vdW  Elec       q    Type
DOCKED: USER                           _______ _______ _______ _____ _____    ______ ____
DOCKED: ROOT
DOCKED: ATOM      1  N   UNL     1     140.399  76.874 220.953 -0.08 +0.12    -0.351 N  
DOCKED: ATOM      2  C   UNL     1     139.538  75.800 221.360 -0.19 -0.05    +0.239 C  
DOCKED: ATOM      3  O   UNL     1     138.429  76.079 221.889 -0.17 +0.06    -0.273 OA 
DOCKED: ATOM      4  H   UNL     1     141.310  76.655 220.520 +0.04 -0.07    +0.163 HD 
DOCKED: ENDROOT
DOCKED: BRANCH   1   5
DOCKED: ATOM      5  C   UNL     1     139.930  78.217 221.180 -0.18 -0.03    +0.089 C  
DOCKED: ATOM      6  C   UNL     1     141.467  78.607 222.955 -0.55 +0.00    -0.006 C  
DOCKED: ATOM      7  C   UNL     1     139.977  78.414 222.702 -0.37 -0.01    +0.029 C  
DOCKED: ATOM      8  C   UNL     1     142.103  78.924 221.619 -0.32 -0.01    +0.014 C  
DOCKED: ATOM      9  C   UNL     1     140.926  79.273 220.767 -0.26 -0.02    +0.042 C  
DOCKED: BRANCH   6  10
DOCKED: ATOM     10  C   UNL     1     141.709  79.793 223.853 -0.59 +0.00    -0.014 C  
DOCKED: ATOM     11  C   UNL     1     140.553  80.745 223.733 -0.40 -0.00    +0.007 C  
DOCKED: ATOM     12  C   UNL     1     142.973  80.498 223.459 -0.68 -0.00    +0.007 C  
DOCKED: ENDBRANCH   6  10
DOCKED: BRANCH   9  13
DOCKED: ATOM     13  C   UNL     1     141.191  79.339 219.328 -0.20 +0.02    -0.043 A  
DOCKED: ATOM     14  C   UNL     1     142.189  80.156 218.872 -0.33 -0.00    +0.007 A  
DOCKED: ATOM     15  C   UNL     1     140.449  78.591 218.441 -0.09 -0.00    +0.007 A  
DOCKED: ATOM     16  C   UNL     1     142.468  80.241 217.509 -0.27 -0.04    +0.039 A  
DOCKED: ATOM     17  C   UNL     1     140.718  78.667 217.074 -0.07 -0.02    +0.039 A  
DOCKED: ATOM     18  C   UNL     1     141.727  79.494 216.619 -0.14 -0.10    +0.123 A  
DOCKED: ATOM     19  F   UNL     1     142.045  79.619 215.306 -0.03 +0.21    -0.207 F  
DOCKED: ENDBRANCH   9  13
DOCKED: ENDBRANCH   1   5
DOCKED: BRANCH   2  20
DOCKED: ATOM     20  C   UNL     1     140.005  74.406 221.134 -0.18 -0.04    +0.216 C  
DOCKED: BRANCH  20  21
DOCKED: ATOM     21  N   UNL     1     139.773  73.618 222.329 -0.12 +0.04    -0.342 N  
DOCKED: ATOM     22  C   UNL     1     140.532  72.415 222.462 -0.19 -0.02    +0.270 C  
DOCKED: ATOM     23  H   UNL     1     139.079  73.913 223.070 -0.54 -0.08    +0.164 HD 
DOCKED: ATOM     24  O   UNL     1     141.362  72.073 221.566 -0.18 +0.03    -0.268 OA 
DOCKED: BRANCH  22  25
DOCKED: ATOM     25  C   UNL     1     140.345  71.577 223.642 -0.33 -0.02    +0.128 A  
DOCKED: ATOM     26  C   UNL     1     139.683  70.373 223.527 -0.28 -0.01    +0.035 A  
DOCKED: ATOM     27  N   UNL     1     140.791  71.917 224.865 -0.21 +0.03    -0.243 NA 
DOCKED: ATOM     28  C   UNL     1     139.464  69.522 224.590 -0.35 -0.00    +0.013 A  
DOCKED: ATOM     29  C   UNL     1     140.598  71.110 225.943 -0.55 -0.01    +0.071 A  
DOCKED: ATOM     30  C   UNL     1     139.932  69.897 225.832 -0.48 -0.00    +0.003 A  
DOCKED: ATOM     31  C   UNL     1     141.062  71.475 227.191 -0.73 -0.01    +0.032 A  
DOCKED: ATOM     32  C   UNL     1     139.721  69.059 226.899 -0.53 -0.01    +0.049 A  
DOCKED: ATOM     33  C   UNL     1     140.858  70.639 228.286 -0.57 -0.01    +0.041 A  
DOCKED: ATOM     34  C   UNL     1     140.188  69.436 228.128 -0.52 -0.02    +0.123 A  
DOCKED: ATOM     35  F   UNL     1     139.969  68.597 229.170 -0.11 +0.04    -0.207 F  
DOCKED: ENDBRANCH  22  25
DOCKED: ENDBRANCH  20  21
DOCKED: ENDBRANCH   2  20
DOCKED: TORSDOF 6
DOCKED: TER
DOCKED: ENDMDL
________________________________________________________________________________


    FINAL DOCKED STATE:
    ________________________


Run:   3 / 20
Time taken for this run:   0.019s

DOCKED: MODEL        3
DOCKED: USER    Run = 3
DOCKED: USER
DOCKED: USER    Estimated Free Energy of Binding    =  -8.43 kcal/mol  [=(1)+(2)+(3)-(4)]
DOCKED: USER
DOCKED: USER    (1) Final Intermolecular Energy     = -10.22 kcal/mol
DOCKED: USER        vdW + Hbond + desolv Energy     = -10.14 kcal/mol
DOCKED: USER        Electrostatic Energy            =  -0.09 kcal/mol
DOCKED: USER        Moving Ligand-Fixed Receptor    = -10.22 kcal/mol
DOCKED: USER        Moving Ligand-Moving Receptor   =  +0.00 kcal/mol
DOCKED: USER    (2) Final Total Internal Energy     =  -2.11 kcal/mol
DOCKED: USER    (3) Torsional Free Energy           =  +1.79 kcal/mol
DOCKED: USER    (4) Unbound System's Energy         =  -2.11 kcal/mol
DOCKED: USER
DOCKED: USER
DOCKED: REMARK SMILES CC(C)[C@H]1C[C@H](NC(=O)CNC(=O)c2ccc3cc(F)ccc3n2)[C@H](c2ccc(F)cc2)C1
DOCKED: REMARK SMILES IDX 7 1 8 2 9 3 6 5 4 6 5 7 33 8 25 9 2 10 1 11 3 12 26 13 27 14
DOCKED: REMARK SMILES IDX 32 15 28 16 31 17 29 18 30 19 10 20 11 21 12 22 13 24 14 25
DOCKED: REMARK SMILES IDX 15 26 24 27 16 28 23 29 17 30 22 31 18 32 21 33 19 34 20 35
DOCKED: REMARK H PARENT 7 4 11 23
DOCKED: USER                              x       y       z     vdW  Elec       q    Type
DOCKED: USER                           _______ _______ _______ _____ _____    ______ ____
DOCKED: ROOT
DOCKED: ATOM      1  N   UNL     1     139.085  75.126 221.063 -0.07 +0.08    -0.351 N  
DOCKED: ATOM      2  C   UNL     1     138.614  74.060 220.225 -0.04 -0.05    +0.239 C  
DOCKED: ATOM      3  O   UNL     1     138.941  74.056 219.008 -0.01 +0.06    -0.273 OA 
DOCKED: ATOM      4  H   UNL     1     138.821  75.139 222.061 -0.02 -0.04    +0.163 HD 
DOCKED: ENDROOT
DOCKED: BRANCH   1   5
DOCKED: ATOM      5  C   UNL     1     139.910  76.134 220.447 -0.14 -0.02    +0.089 C  
DOCKED: ATOM      6  C   UNL     1     139.939  77.505 222.392 -0.37 +0.00    -0.006 C  
DOCKED: ATOM      7  C   UNL     1     139.380  77.475 220.975 -0.16 -0.01    +0.029 C  
DOCKED: ATOM      8  C   UNL     1     141.038  76.468 222.454 -0.22 -0.00    +0.014 C  
DOCKED: ATOM      9  C   UNL     1     141.309  76.185 221.012 -0.28 -0.02    +0.042 C  
DOCKED: BRANCH   6  10
DOCKED: ATOM     10  C   UNL     1     140.572  78.839 222.690 -0.43 +0.00    -0.014 C  
DOCKED: ATOM     11  C   UNL     1     141.827  78.623 223.488 -0.59 -0.00    +0.007 C  
DOCKED: ATOM     12  C   UNL     1     139.630  79.703 223.475 -0.44 -0.00    +0.007 C  
DOCKED: ENDBRANCH   6  10
DOCKED: BRANCH   9  13
DOCKED: ATOM     13  C   UNL     1     142.122  74.996 220.748 -0.28 +0.02    -0.043 A  
DOCKED: ATOM     14  C   UNL     1     143.311  75.138 220.084 -0.38 -0.00    +0.007 A  
DOCKED: ATOM     15  C   UNL     1     141.703  73.751 221.159 -0.26 -0.00    +0.007 A  
DOCKED: ATOM     16  C   UNL     1     144.110  74.027 219.818 -0.37 -0.01    +0.039 A  
DOCKED: ATOM     17  C   UNL     1     142.494  72.631 220.897 -0.24 -0.01    +0.039 A  
DOCKED: ATOM     18  C   UNL     1     143.692  72.779 220.227 -0.26 -0.02    +0.123 A  
DOCKED: ATOM     19  F   UNL     1     144.512  71.738 219.938 -0.06 +0.00    -0.207 F  
DOCKED: ENDBRANCH   9  13
DOCKED: ENDBRANCH   1   5
DOCKED: BRANCH   2  20
DOCKED: ATOM     20  C   UNL     1     137.760  73.010 220.843 -0.05 -0.05    +0.216 C  
DOCKED: BRANCH  20  21
DOCKED: ATOM     21  N   UNL     1     138.282  72.670 222.152 -0.07 +0.10    -0.342 N  
DOCKED: ATOM     22  C   UNL     1     138.898  71.388 222.285 -0.13 -0.06    +0.270 C  
DOCKED: ATOM     23  H   UNL     1     138.213  73.333 222.973 -0.50 -0.10    +0.164 HD 
DOCKED: ATOM     24  O   UNL     1     138.974  70.603 221.292 -0.06 +0.05    -0.268 OA 
DOCKED: BRANCH  22  25
DOCKED: ATOM     25  C   UNL     1     139.442  70.986 223.578 -0.29 -0.03    +0.128 A  
DOCKED: ATOM     26  C   UNL     1     140.309  71.826 224.245 -0.38 -0.01    +0.035 A  
DOCKED: ATOM     27  N   UNL     1     139.143  69.816 224.171 -0.17 +0.04    -0.243 NA 
DOCKED: ATOM     28  C   UNL     1     140.867  71.523 225.470 -0.56 -0.00    +0.013 A  
DOCKED: ATOM     29  C   UNL     1     139.670  69.475 225.378 -0.38 -0.01    +0.071 A  
DOCKED: ATOM     30  C   UNL     1     140.542  70.318 226.054 -0.55 -0.00    +0.003 A  
DOCKED: ATOM     31  C   UNL     1     139.353  68.271 225.973 -0.52 -0.00    +0.032 A  
DOCKED: ATOM     32  C   UNL     1     141.092  70.004 227.273 -0.53 -0.01    +0.049 A  
DOCKED: ATOM     33  C   UNL     1     139.899  67.934 227.209 -0.60 -0.01    +0.041 A  
DOCKED: ATOM     34  C   UNL     1     140.765  68.807 227.847 -0.54 -0.03    +0.123 A  
DOCKED: ATOM     35  F   UNL     1     141.318  68.514 229.050 -0.16 +0.05    -0.207 F  
DOCKED: ENDBRANCH  22  25
DOCKED: ENDBRANCH  20  21
DOCKED: ENDBRANCH   2  20
DOCKED: TORSDOF 6
DOCKED: TER
DOCKED: ENDMDL
________________________________________________________________________________


    FINAL DOCKED STATE:
    ________________________


Run:   4 / 20
Time taken for this run:   0.019s

DOCKED: MODEL        4
DOCKED: USER    Run = 4
DOCKED: USER
DOCKED: USER    Estimated Free Energy of Binding    =  -7.20 kcal/mol  [=(1)+(2)+(3)-(4)]
DOCKED: USER
DOCKED: USER    (1) Final Intermolecular Energy     =  -8.99 kcal/mol
DOCKED: USER        vdW + Hbond + desolv Energy     =  -8.98 kcal/mol
DOCKED: USER        Electrostatic Energy            =  -0.01 kcal/mol
DOCKED: USER        Moving Ligand-Fixed Receptor    =  -8.99 kcal/mol
DOCKED: USER        Moving Ligand-Moving Receptor   =  +0.00 kcal/mol
DOCKED: USER    (2) Final Total Internal Energy     =  -2.84 kcal/mol
DOCKED: USER    (3) Torsional Free Energy           =  +1.79 kcal/mol
DOCKED: USER    (4) Unbound System's Energy         =  -2.84 kcal/mol
DOCKED: USER
DOCKED: USER
DOCKED: REMARK SMILES CC(C)[C@H]1C[C@H](NC(=O)CNC(=O)c2ccc3cc(F)ccc3n2)[C@H](c2ccc(F)cc2)C1
DOCKED: REMARK SMILES IDX 7 1 8 2 9 3 6 5 4 6 5 7 33 8 25 9 2 10 1 11 3 12 26 13 27 14
DOCKED: REMARK SMILES IDX 32 15 28 16 31 17 29 18 30 19 10 20 11 21 12 22 13 24 14 25
DOCKED: REMARK SMILES IDX 15 26 24 27 16 28 23 29 17 30 22 31 18 32 21 33 19 34 20 35
DOCKED: REMARK H PARENT 7 4 11 23
DOCKED: USER                              x       y       z     vdW  Elec       q    Type
DOCKED: USER                           _______ _______ _______ _____ _____    ______ ____
DOCKED: ROOT
DOCKED: ATOM      1  N   UNL     1     139.233  71.626 223.021 -0.14 +0.08    -0.351 N  
DOCKED: ATOM      2  C   UNL     1     139.489  72.225 221.742 -0.15 -0.04    +0.239 C  
DOCKED: ATOM      3  O   UNL     1     140.452  71.795 221.052 -0.10 +0.04    -0.273 OA 
DOCKED: ATOM      4  H   UNL     1     138.448  71.972 223.594 -0.19 -0.07    +0.163 HD 
DOCKED: ENDROOT
DOCKED: BRANCH   1   5
DOCKED: ATOM      5  C   UNL     1     140.109  70.560 223.436 -0.14 -0.01    +0.089 C  
DOCKED: ATOM      6  C   UNL     1     139.991  71.164 225.735 -0.49 +0.00    -0.006 C  
DOCKED: ATOM      7  C   UNL     1     140.966  71.151 224.565 -0.36 -0.00    +0.029 C  
DOCKED: ATOM      8  C   UNL     1     138.847  70.245 225.365 -0.22 -0.00    +0.014 C  
DOCKED: ATOM      9  C   UNL     1     139.401  69.475 224.211 -0.30 -0.01    +0.042 C  
DOCKED: BRANCH   6  10
DOCKED: ATOM     10  C   UNL     1     140.633  70.594 226.974 -0.64 +0.00    -0.014 C  
DOCKED: ATOM     11  C   UNL     1     139.698  69.599 227.601 -0.60 -0.00    +0.007 C  
DOCKED: ATOM     12  C   UNL     1     140.926  71.685 227.960 -0.82 -0.00    +0.007 C  
DOCKED: ENDBRANCH   6  10
DOCKED: BRANCH   9  13
DOCKED: ATOM     13  C   UNL     1     138.421  68.709 223.439 -0.26 +0.01    -0.043 A  
DOCKED: ATOM     14  C   UNL     1     138.849  67.656 222.677 -0.25 -0.00    +0.007 A  
DOCKED: ATOM     15  C   UNL     1     137.084  69.039 223.474 -0.20 -0.00    +0.007 A  
DOCKED: ATOM     16  C   UNL     1     137.942  66.905 221.931 -0.21 -0.01    +0.039 A  
DOCKED: ATOM     17  C   UNL     1     136.166  68.295 222.731 -0.12 -0.00    +0.039 A  
DOCKED: ATOM     18  C   UNL     1     136.604  67.233 221.965 -0.12 -0.02    +0.123 A  
DOCKED: ATOM     19  F   UNL     1     135.771  66.466 221.217 -0.03 +0.04    -0.207 F  
DOCKED: ENDBRANCH   9  13
DOCKED: ENDBRANCH   1   5
DOCKED: BRANCH   2  20
DOCKED: ATOM     20  C   UNL     1     138.595  73.327 221.295 -0.11 -0.05    +0.216 C  
DOCKED: BRANCH  20  21
DOCKED: ATOM     21  N   UNL     1     137.661  73.653 222.355 +0.02 +0.13    -0.342 N  
DOCKED: ATOM     22  C   UNL     1     136.672  72.670 222.664 -0.08 -0.08    +0.270 C  
DOCKED: ATOM     23  H   UNL     1     137.704  74.572 222.878 -0.45 -0.09    +0.164 HD 
DOCKED: ATOM     24  O   UNL     1     136.632  71.573 222.029 -0.04 +0.05    -0.268 OA 
DOCKED: BRANCH  22  25
DOCKED: ATOM     25  C   UNL     1     135.701  72.938 223.720 -0.17 -0.03    +0.128 A  
DOCKED: ATOM     26  C   UNL     1     134.922  71.911 224.209 -0.17 -0.00    +0.035 A  
DOCKED: ATOM     27  N   UNL     1     135.517  74.157 224.259 -0.18 +0.05    -0.243 NA 
DOCKED: ATOM     28  C   UNL     1     133.983  72.078 225.205 -0.22 -0.00    +0.013 A  
DOCKED: ATOM     29  C   UNL     1     134.603  74.369 225.244 -0.31 -0.00    +0.071 A  
DOCKED: ATOM     30  C   UNL     1     133.816  73.338 225.739 -0.31 -0.00    +0.003 A  
DOCKED: ATOM     31  C   UNL     1     134.426  75.627 225.786 -0.39 -0.00    +0.032 A  
DOCKED: ATOM     32  C   UNL     1     132.884  73.518 226.731 -0.36 -0.00    +0.049 A  
DOCKED: ATOM     33  C   UNL     1     133.486  75.830 226.793 -0.39 -0.00    +0.041 A  
DOCKED: ATOM     34  C   UNL     1     132.723  74.770 227.257 -0.32 +0.00    +0.123 A  
DOCKED: ATOM     35  F   UNL     1     131.798  74.929 228.235 -0.14 +0.01    -0.207 F  
DOCKED: ENDBRANCH  22  25
DOCKED: ENDBRANCH  20  21
DOCKED: ENDBRANCH   2  20
DOCKED: TORSDOF 6
DOCKED: TER
DOCKED: ENDMDL
________________________________________________________________________________


    FINAL DOCKED STATE:
    ________________________


Run:   5 / 20
Time taken for this run:   0.019s

DOCKED: MODEL        5
DOCKED: USER    Run = 5
DOCKED: USER
DOCKED: USER    Estimated Free Energy of Binding    =  -8.64 kcal/mol  [=(1)+(2)+(3)-(4)]
DOCKED: USER
DOCKED: USER    (1) Final Intermolecular Energy     = -10.43 kcal/mol
DOCKED: USER        vdW + Hbond + desolv Energy     = -10.30 kcal/mol
DOCKED: USER        Electrostatic Energy            =  -0.13 kcal/mol
DOCKED: USER        Moving Ligand-Fixed Receptor    = -10.43 kcal/mol
DOCKED: USER        Moving Ligand-Moving Receptor   =  +0.00 kcal/mol
DOCKED: USER    (2) Final Total Internal Energy     =  -1.62 kcal/mol
DOCKED: USER    (3) Torsional Free Energy           =  +1.79 kcal/mol
DOCKED: USER    (4) Unbound System's Energy         =  -1.62 kcal/mol
DOCKED: USER
DOCKED: USER
DOCKED: REMARK SMILES CC(C)[C@H]1C[C@H](NC(=O)CNC(=O)c2ccc3cc(F)ccc3n2)[C@H](c2ccc(F)cc2)C1
DOCKED: REMARK SMILES IDX 7 1 8 2 9 3 6 5 4 6 5 7 33 8 25 9 2 10 1 11 3 12 26 13 27 14
DOCKED: REMARK SMILES IDX 32 15 28 16 31 17 29 18 30 19 10 20 11 21 12 22 13 24 14 25
DOCKED: REMARK SMILES IDX 15 26 24 27 16 28 23 29 17 30 22 31 18 32 21 33 19 34 20 35
DOCKED: REMARK H PARENT 7 4 11 23
DOCKED: USER                              x       y       z     vdW  Elec       q    Type
DOCKED: USER                           _______ _______ _______ _____ _____    ______ ____
DOCKED: ROOT
DOCKED: ATOM      1  N   UNL     1     140.593  75.708 220.013 -0.03 +0.11    -0.351 N  
DOCKED: ATOM      2  C   UNL     1     140.216  75.022 221.216 -0.20 -0.05    +0.239 C  
DOCKED: ATOM      3  O   UNL     1     140.939  75.154 222.241 -0.49 +0.02    -0.273 OA 
DOCKED: ATOM      4  H   UNL     1     140.009  75.605 219.169 +0.03 -0.04    +0.163 HD 
DOCKED: ENDROOT
DOCKED: BRANCH   1   5
DOCKED: ATOM      5  C   UNL     1     141.789  76.511 220.058 -0.25 -0.04    +0.089 C  
DOCKED: ATOM      6  C   UNL     1     141.494  77.332 217.843 -0.15 +0.00    -0.006 C  
DOCKED: ATOM      7  C   UNL     1     142.400  76.412 218.653 -0.26 -0.01    +0.029 C  
DOCKED: ATOM      8  C   UNL     1     140.736  78.187 218.835 -0.13 -0.01    +0.014 C  
DOCKED: ATOM      9  C   UNL     1     141.509  77.994 220.099 -0.27 -0.02    +0.042 C  
DOCKED: BRANCH   6  10
DOCKED: ATOM     10  C   UNL     1     142.308  78.266 216.986 -0.23 +0.01    -0.014 C  
DOCKED: ATOM     11  C   UNL     1     143.381  77.482 216.284 -0.14 -0.01    +0.007 C  
DOCKED: ATOM     12  C   UNL     1     142.945  79.329 217.830 -0.21 -0.01    +0.007 C  
DOCKED: ENDBRANCH   6  10
DOCKED: BRANCH   9  13
DOCKED: ATOM     13  C   UNL     1     140.846  78.460 221.318 -0.28 +0.02    -0.043 A  
DOCKED: ATOM     14  C   UNL     1     139.480  78.547 221.341 -0.18 -0.00    +0.007 A  
DOCKED: ATOM     15  C   UNL     1     141.580  78.809 222.430 -0.48 -0.00    +0.007 A  
DOCKED: ATOM     16  C   UNL     1     138.817  78.986 222.486 -0.25 -0.01    +0.039 A  
DOCKED: ATOM     17  C   UNL     1     140.928  79.250 223.582 -0.51 -0.01    +0.039 A  
DOCKED: ATOM     18  C   UNL     1     139.550  79.336 223.599 -0.34 -0.02    +0.123 A  
DOCKED: ATOM     19  F   UNL     1     138.848  79.756 224.682 -0.07 +0.02    -0.207 F  
DOCKED: ENDBRANCH   9  13
DOCKED: ENDBRANCH   1   5
DOCKED: BRANCH   2  20
DOCKED: ATOM     20  C   UNL     1     138.985  74.188 221.190 -0.14 -0.05    +0.216 C  
DOCKED: BRANCH  20  21
DOCKED: ATOM     21  N   UNL     1     138.949  73.341 222.365 -0.02 +0.10    -0.342 N  
DOCKED: ATOM     22  C   UNL     1     140.007  72.392 222.506 -0.20 -0.04    +0.270 C  
DOCKED: ATOM     23  H   UNL     1     138.179  73.415 223.087 -0.51 -0.11    +0.164 HD 
DOCKED: ATOM     24  O   UNL     1     140.924  72.313 221.633 -0.20 +0.03    -0.268 OA 
DOCKED: BRANCH  22  25
DOCKED: ATOM     25  C   UNL     1     140.027  71.509 223.668 -0.34 -0.02    +0.128 A  
DOCKED: ATOM     26  C   UNL     1     139.497  70.239 223.570 -0.28 -0.01    +0.035 A  
DOCKED: ATOM     27  N   UNL     1     140.543  71.868 224.858 -0.27 +0.04    -0.243 NA 
DOCKED: ATOM     28  C   UNL     1     139.477  69.342 224.618 -0.35 -0.00    +0.013 A  
DOCKED: ATOM     29  C   UNL     1     140.545  71.017 225.919 -0.54 -0.01    +0.071 A  
DOCKED: ATOM     30  C   UNL     1     140.013  69.738 225.825 -0.48 -0.00    +0.003 A  
DOCKED: ATOM     31  C   UNL     1     141.078  71.401 227.132 -0.72 -0.01    +0.032 A  
DOCKED: ATOM     32  C   UNL     1     139.999  68.854 226.876 -0.56 -0.01    +0.049 A  
DOCKED: ATOM     33  C   UNL     1     141.074  70.520 228.211 -0.56 -0.01    +0.041 A  
DOCKED: ATOM     34  C   UNL     1     140.532  69.253 228.071 -0.53 -0.02    +0.123 A  
DOCKED: ATOM     35  F   UNL     1     140.509  68.367 229.097 -0.17 +0.05    -0.207 F  
DOCKED: ENDBRANCH  22  25
DOCKED: ENDBRANCH  20  21
DOCKED: ENDBRANCH   2  20
DOCKED: TORSDOF 6
DOCKED: TER
DOCKED: ENDMDL
________________________________________________________________________________


    FINAL DOCKED STATE:
    ________________________


Run:   6 / 20
Time taken for this run:   0.019s

DOCKED: MODEL        6
DOCKED: USER    Run = 6
DOCKED: USER
DOCKED: USER    Estimated Free Energy of Binding    =  -8.88 kcal/mol  [=(1)+(2)+(3)-(4)]
DOCKED: USER
DOCKED: USER    (1) Final Intermolecular Energy     = -10.67 kcal/mol
DOCKED: USER        vdW + Hbond + desolv Energy     = -10.54 kcal/mol
DOCKED: USER        Electrostatic Energy            =  -0.13 kcal/mol
DOCKED: USER        Moving Ligand-Fixed Receptor    = -10.67 kcal/mol
DOCKED: USER        Moving Ligand-Moving Receptor   =  +0.00 kcal/mol
DOCKED: USER    (2) Final Total Internal Energy     =  -1.71 kcal/mol
DOCKED: USER    (3) Torsional Free Energy           =  +1.79 kcal/mol
DOCKED: USER    (4) Unbound System's Energy         =  -1.71 kcal/mol
DOCKED: USER
DOCKED: USER
DOCKED: REMARK SMILES CC(C)[C@H]1C[C@H](NC(=O)CNC(=O)c2ccc3cc(F)ccc3n2)[C@H](c2ccc(F)cc2)C1
DOCKED: REMARK SMILES IDX 7 1 8 2 9 3 6 5 4 6 5 7 33 8 25 9 2 10 1 11 3 12 26 13 27 14
DOCKED: REMARK SMILES IDX 32 15 28 16 31 17 29 18 30 19 10 20 11 21 12 22 13 24 14 25
DOCKED: REMARK SMILES IDX 15 26 24 27 16 28 23 29 17 30 22 31 18 32 21 33 19 34 20 35
DOCKED: REMARK H PARENT 7 4 11 23
DOCKED: USER                              x       y       z     vdW  Elec       q    Type
DOCKED: USER                           _______ _______ _______ _____ _____    ______ ____
DOCKED: ROOT
DOCKED: ATOM      1  N   UNL     1     140.845  75.999 220.084 -0.05 +0.12    -0.351 N  
DOCKED: ATOM      2  C   UNL     1     140.537  75.150 221.199 -0.21 -0.05    +0.239 C  
DOCKED: ATOM      3  O   UNL     1     141.297  75.171 222.205 -0.31 +0.03    -0.273 OA 
DOCKED: ATOM      4  H   UNL     1     140.230  75.988 219.255 +0.04 -0.05    +0.163 HD 
DOCKED: ENDROOT
DOCKED: BRANCH   1   5
DOCKED: ATOM      5  C   UNL     1     142.018  76.829 220.191 -0.25 -0.05    +0.089 C  
DOCKED: ATOM      6  C   UNL     1     141.760  77.725 218.000 -0.21 +0.00    -0.006 C  
DOCKED: ATOM      7  C   UNL     1     142.668  76.799 218.800 -0.32 -0.02    +0.029 C  
DOCKED: ATOM      8  C   UNL     1     140.954  78.523 219.002 -0.16 -0.01    +0.014 C  
DOCKED: ATOM      9  C   UNL     1     141.699  78.302 220.278 -0.28 -0.02    +0.042 C  
DOCKED: BRANCH   6  10
DOCKED: ATOM     10  C   UNL     1     142.572  78.711 217.200 -0.24 +0.01    -0.014 C  
DOCKED: ATOM     11  C   UNL     1     142.300  80.099 217.705 -0.30 -0.01    +0.007 C  
DOCKED: ATOM     12  C   UNL     1     142.206  78.633 215.748 -0.14 -0.01    +0.007 C  
DOCKED: ENDBRANCH   6  10
DOCKED: BRANCH   9  13
DOCKED: ATOM     13  C   UNL     1     140.992  78.706 221.495 -0.31 +0.02    -0.043 A  
DOCKED: ATOM     14  C   UNL     1     139.624  78.735 221.491 -0.20 -0.00    +0.007 A  
DOCKED: ATOM     15  C   UNL     1     141.688  79.054 222.631 -0.52 -0.00    +0.007 A  
DOCKED: ATOM     16  C   UNL     1     138.919  79.113 222.633 -0.27 -0.01    +0.039 A  
DOCKED: ATOM     17  C   UNL     1     140.995  79.435 223.781 -0.52 -0.01    +0.039 A  
DOCKED: ATOM     18  C   UNL     1     139.614  79.462 223.771 -0.36 -0.02    +0.123 A  
DOCKED: ATOM     19  F   UNL     1     138.873  79.822 224.850 -0.00 +0.02    -0.207 F  
DOCKED: ENDBRANCH   9  13
DOCKED: ENDBRANCH   1   5
DOCKED: BRANCH   2  20
DOCKED: ATOM     20  C   UNL     1     139.331  74.285 221.107 -0.15 -0.04    +0.216 C  
DOCKED: BRANCH  20  21
DOCKED: ATOM     21  N   UNL     1     139.230  73.465 222.299 -0.10 +0.08    -0.342 N  
DOCKED: ATOM     22  C   UNL     1     140.163  72.391 222.420 -0.21 -0.03    +0.270 C  
DOCKED: ATOM     23  H   UNL     1     138.504  73.649 223.046 -0.54 -0.11    +0.164 HD 
DOCKED: ATOM     24  O   UNL     1     141.029  72.182 221.517 -0.18 +0.03    -0.268 OA 
DOCKED: BRANCH  22  25
DOCKED: ATOM     25  C   UNL     1     140.114  71.529 223.597 -0.33 -0.02    +0.128 A  
DOCKED: ATOM     26  C   UNL     1     139.522  70.286 223.509 -0.28 -0.01    +0.035 A  
DOCKED: ATOM     27  N   UNL     1     140.623  71.882 224.791 -0.27 +0.03    -0.243 NA 
DOCKED: ATOM     28  C   UNL     1     139.433  69.411 224.571 -0.35 -0.00    +0.013 A  
DOCKED: ATOM     29  C   UNL     1     140.559  71.052 225.866 -0.54 -0.01    +0.071 A  
DOCKED: ATOM     30  C   UNL     1     139.964  69.800 225.782 -0.47 -0.00    +0.003 A  
DOCKED: ATOM     31  C   UNL     1     141.087  71.430 227.084 -0.72 -0.01    +0.032 A  
DOCKED: ATOM     32  C   UNL     1     139.883  68.938 226.848 -0.54 -0.01    +0.049 A  
DOCKED: ATOM     33  C   UNL     1     141.014  70.570 228.177 -0.58 -0.01    +0.041 A  
DOCKED: ATOM     34  C   UNL     1     140.412  69.329 228.047 -0.53 -0.02    +0.123 A  
DOCKED: ATOM     35  F   UNL     1     140.321  68.465 229.087 -0.16 +0.04    -0.207 F  
DOCKED: ENDBRANCH  22  25
DOCKED: ENDBRANCH  20  21
DOCKED: ENDBRANCH   2  20
DOCKED: TORSDOF 6
DOCKED: TER
DOCKED: ENDMDL
________________________________________________________________________________


    FINAL DOCKED STATE:
    ________________________


Run:   7 / 20
Time taken for this run:   0.019s

DOCKED: MODEL        7
DOCKED: USER    Run = 7
DOCKED: USER
DOCKED: USER    Estimated Free Energy of Binding    =  -7.63 kcal/mol  [=(1)+(2)+(3)-(4)]
DOCKED: USER
DOCKED: USER    (1) Final Intermolecular Energy     =  -9.42 kcal/mol
DOCKED: USER        vdW + Hbond + desolv Energy     =  -9.40 kcal/mol
DOCKED: USER        Electrostatic Energy            =  -0.02 kcal/mol
DOCKED: USER        Moving Ligand-Fixed Receptor    =  -9.42 kcal/mol
DOCKED: USER        Moving Ligand-Moving Receptor   =  +0.00 kcal/mol
DOCKED: USER    (2) Final Total Internal Energy     =  -2.78 kcal/mol
DOCKED: USER    (3) Torsional Free Energy           =  +1.79 kcal/mol
DOCKED: USER    (4) Unbound System's Energy         =  -2.78 kcal/mol
DOCKED: USER
DOCKED: USER
DOCKED: REMARK SMILES CC(C)[C@H]1C[C@H](NC(=O)CNC(=O)c2ccc3cc(F)ccc3n2)[C@H](c2ccc(F)cc2)C1
DOCKED: REMARK SMILES IDX 7 1 8 2 9 3 6 5 4 6 5 7 33 8 25 9 2 10 1 11 3 12 26 13 27 14
DOCKED: REMARK SMILES IDX 32 15 28 16 31 17 29 18 30 19 10 20 11 21 12 22 13 24 14 25
DOCKED: REMARK SMILES IDX 15 26 24 27 16 28 23 29 17 30 22 31 18 32 21 33 19 34 20 35
DOCKED: REMARK H PARENT 7 4 11 23
DOCKED: USER                              x       y       z     vdW  Elec       q    Type
DOCKED: USER                           _______ _______ _______ _____ _____    ______ ____
DOCKED: ROOT
DOCKED: ATOM      1  N   UNL     1     141.237  73.038 220.034 -0.03 +0.06    -0.351 N  
DOCKED: ATOM      2  C   UNL     1     139.895  72.844 219.563 -0.03 -0.05    +0.239 C  
DOCKED: ATOM      3  O   UNL     1     139.719  72.472 218.372 -0.00 +0.05    -0.273 OA 
DOCKED: ATOM      4  H   UNL     1     141.391  73.344 221.008 +0.05 -0.02    +0.163 HD 
DOCKED: ENDROOT
DOCKED: BRANCH   1   5
DOCKED: ATOM      5  C   UNL     1     142.306  72.791 219.100 -0.09 -0.02    +0.089 C  
DOCKED: ATOM      6  C   UNL     1     143.974  73.659 220.560 -0.41 +0.00    -0.006 C  
DOCKED: ATOM      7  C   UNL     1     143.263  73.982 219.252 -0.24 -0.01    +0.029 C  
DOCKED: ATOM      8  C   UNL     1     143.723  72.194 220.847 -0.30 -0.00    +0.014 C  
DOCKED: ATOM      9  C   UNL     1     143.230  71.679 219.534 -0.18 -0.00    +0.042 C  
DOCKED: BRANCH   6  10
DOCKED: ATOM     10  C   UNL     1     145.464  73.831 220.416 -0.58 +0.00    -0.014 C  
DOCKED: ATOM     11  C   UNL     1     145.937  73.060 219.216 -0.30 +0.00    +0.007 C  
DOCKED: ATOM     12  C   UNL     1     146.170  73.324 221.638 -0.69 -0.00    +0.007 C  
DOCKED: ENDBRANCH   6  10
DOCKED: BRANCH   9  13
DOCKED: ATOM     13  C   UNL     1     142.616  70.350 219.572 -0.14 +0.00    -0.043 A  
DOCKED: ATOM     14  C   UNL     1     141.356  70.214 220.087 -0.11 -0.00    +0.007 A  
DOCKED: ATOM     15  C   UNL     1     143.293  69.248 219.096 -0.19 -0.00    +0.007 A  
DOCKED: ATOM     16  C   UNL     1     140.742  68.963 220.137 -0.11 -0.01    +0.039 A  
DOCKED: ATOM     17  C   UNL     1     142.689  67.991 219.141 -0.18 -0.01    +0.039 A  
DOCKED: ATOM     18  C   UNL     1     141.417  67.859 219.662 -0.13 -0.03    +0.123 A  
DOCKED: ATOM     19  F   UNL     1     140.768  66.670 219.738 -0.04 +0.06    -0.207 F  
DOCKED: ENDBRANCH   9  13
DOCKED: ENDBRANCH   1   5
DOCKED: BRANCH   2  20
DOCKED: ATOM     20  C   UNL     1     138.778  73.094 220.512 -0.06 -0.04    +0.216 C  
DOCKED: BRANCH  20  21
DOCKED: ATOM     21  N   UNL     1     138.839  72.134 221.597 -0.06 +0.07    -0.342 N  
DOCKED: ATOM     22  C   UNL     1     139.815  72.372 222.612 -0.19 -0.05    +0.270 C  
DOCKED: ATOM     23  H   UNL     1     138.195  71.295 221.640 +0.04 -0.03    +0.164 HD 
DOCKED: ATOM     24  O   UNL     1     140.580  73.381 222.547 -0.68 -0.02    -0.268 OA 
DOCKED: BRANCH  22  25
DOCKED: ATOM     25  C   UNL     1     139.927  71.442 223.730 -0.34 -0.02    +0.128 A  
DOCKED: ATOM     26  C   UNL     1     139.530  70.130 223.570 -0.28 -0.01    +0.035 A  
DOCKED: ATOM     27  N   UNL     1     140.404  71.794 224.938 -0.27 +0.04    -0.243 NA 
DOCKED: ATOM     28  C   UNL     1     139.603  69.187 224.574 -0.33 -0.00    +0.013 A  
DOCKED: ATOM     29  C   UNL     1     140.495  70.899 225.957 -0.54 -0.01    +0.071 A  
DOCKED: ATOM     30  C   UNL     1     140.097  69.578 225.801 -0.48 -0.00    +0.003 A  
DOCKED: ATOM     31  C   UNL     1     140.987  71.278 227.190 -0.70 -0.01    +0.032 A  
DOCKED: ATOM     32  C   UNL     1     140.175  68.649 226.809 -0.58 -0.01    +0.049 A  
DOCKED: ATOM     33  C   UNL     1     141.074  70.351 228.225 -0.54 -0.01    +0.041 A  
DOCKED: ATOM     34  C   UNL     1     140.666  69.042 228.023 -0.53 -0.03    +0.123 A  
DOCKED: ATOM     35  F   UNL     1     140.734  68.111 229.006 -0.19 +0.05    -0.207 F  
DOCKED: ENDBRANCH  22  25
DOCKED: ENDBRANCH  20  21
DOCKED: ENDBRANCH   2  20
DOCKED: TORSDOF 6
DOCKED: TER
DOCKED: ENDMDL
________________________________________________________________________________


    FINAL DOCKED STATE:
    ________________________


Run:   8 / 20
Time taken for this run:   0.019s

DOCKED: MODEL        8
DOCKED: USER    Run = 8
DOCKED: USER
DOCKED: USER    Estimated Free Energy of Binding    =  -8.25 kcal/mol  [=(1)+(2)+(3)-(4)]
DOCKED: USER
DOCKED: USER    (1) Final Intermolecular Energy     = -10.04 kcal/mol
DOCKED: USER        vdW + Hbond + desolv Energy     =  -9.98 kcal/mol
DOCKED: USER        Electrostatic Energy            =  -0.07 kcal/mol
DOCKED: USER        Moving Ligand-Fixed Receptor    = -10.04 kcal/mol
DOCKED: USER        Moving Ligand-Moving Receptor   =  +0.00 kcal/mol
DOCKED: USER    (2) Final Total Internal Energy     =  -2.29 kcal/mol
DOCKED: USER    (3) Torsional Free Energy           =  +1.79 kcal/mol
DOCKED: USER    (4) Unbound System's Energy         =  -2.29 kcal/mol
DOCKED: USER
DOCKED: USER
DOCKED: REMARK SMILES CC(C)[C@H]1C[C@H](NC(=O)CNC(=O)c2ccc3cc(F)ccc3n2)[C@H](c2ccc(F)cc2)C1
DOCKED: REMARK SMILES IDX 7 1 8 2 9 3 6 5 4 6 5 7 33 8 25 9 2 10 1 11 3 12 26 13 27 14
DOCKED: REMARK SMILES IDX 32 15 28 16 31 17 29 18 30 19 10 20 11 21 12 22 13 24 14 25
DOCKED: REMARK SMILES IDX 15 26 24 27 16 28 23 29 17 30 22 31 18 32 21 33 19 34 20 35
DOCKED: REMARK H PARENT 7 4 11 23
DOCKED: USER                              x       y       z     vdW  Elec       q    Type
DOCKED: USER                           _______ _______ _______ _____ _____    ______ ____
DOCKED: ROOT
DOCKED: ATOM      1  N   UNL     1     138.801  75.230 221.233 -0.08 +0.08    -0.351 N  
DOCKED: ATOM      2  C   UNL     1     138.254  74.164 220.443 -0.05 -0.05    +0.239 C  
DOCKED: ATOM      3  O   UNL     1     138.594  74.070 219.232 -0.01 +0.06    -0.273 OA 
DOCKED: ATOM      4  H   UNL     1     138.528  75.316 222.224 -0.04 -0.04    +0.163 HD 
DOCKED: ENDROOT
DOCKED: BRANCH   1   5
DOCKED: ATOM      5  C   UNL     1     139.712  76.134 220.579 -0.14 -0.02    +0.089 C  
DOCKED: ATOM      6  C   UNL     1     139.806  77.614 222.441 -0.35 +0.00    -0.006 C  
DOCKED: ATOM      7  C   UNL     1     139.275  77.540 221.015 -0.16 -0.01    +0.029 C  
DOCKED: ATOM      8  C   UNL     1     140.822  76.504 222.590 -0.19 -0.00    +0.014 C  
DOCKED: ATOM      9  C   UNL     1     141.099  76.115 221.175 -0.31 -0.02    +0.042 C  
DOCKED: BRANCH   6  10
DOCKED: ATOM     10  C   UNL     1     140.533  78.913 222.675 -0.43 +0.00    -0.014 C  
DOCKED: ATOM     11  C   UNL     1     141.783  78.643 223.464 -0.60 -0.00    +0.007 C  
DOCKED: ATOM     12  C   UNL     1     139.664  79.869 223.439 -0.43 -0.00    +0.007 C  
DOCKED: ENDBRANCH   6  10
DOCKED: BRANCH   9  13
DOCKED: ATOM     13  C   UNL     1     141.825  74.855 221.000 -0.28 +0.01    -0.043 A  
DOCKED: ATOM     14  C   UNL     1     143.068  74.877 220.428 -0.34 -0.00    +0.007 A  
DOCKED: ATOM     15  C   UNL     1     141.271  73.661 221.404 -0.27 -0.00    +0.007 A  
DOCKED: ATOM     16  C   UNL     1     143.787  73.697 220.249 -0.36 -0.01    +0.039 A  
DOCKED: ATOM     17  C   UNL     1     141.980  72.472 221.230 -0.23 -0.00    +0.039 A  
DOCKED: ATOM     18  C   UNL     1     143.234  72.501 220.652 -0.23 -0.02    +0.123 A  
DOCKED: ATOM     19  F   UNL     1     143.981  71.386 220.450 -0.07 +0.02    -0.207 F  
DOCKED: ENDBRANCH   9  13
DOCKED: ENDBRANCH   1   5
DOCKED: BRANCH   2  20
DOCKED: ATOM     20  C   UNL     1     137.311  73.220 221.099 -0.06 -0.05    +0.216 C  
DOCKED: BRANCH  20  21
DOCKED: ATOM     21  N   UNL     1     137.870  72.775 222.361 -0.05 +0.11    -0.342 N  
DOCKED: ATOM     22  C   UNL     1     138.736  71.641 222.316 -0.13 -0.06    +0.270 C  
DOCKED: ATOM     23  H   UNL     1     137.651  73.263 223.274 -0.50 -0.12    +0.164 HD 
DOCKED: ATOM     24  O   UNL     1     138.989  71.066 221.214 -0.05 +0.05    -0.268 OA 
DOCKED: BRANCH  22  25
DOCKED: ATOM     25  C   UNL     1     139.330  71.144 223.552 -0.29 -0.03    +0.128 A  
DOCKED: ATOM     26  C   UNL     1     140.305  71.884 224.187 -0.37 -0.01    +0.035 A  
DOCKED: ATOM     27  N   UNL     1     138.977  69.978 224.124 -0.17 +0.04    -0.243 NA 
DOCKED: ATOM     28  C   UNL     1     140.917  71.489 225.358 -0.55 -0.00    +0.013 A  
DOCKED: ATOM     29  C   UNL     1     139.553  69.547 225.278 -0.37 -0.01    +0.071 A  
DOCKED: ATOM     30  C   UNL     1     140.534  70.290 225.921 -0.54 -0.00    +0.003 A  
DOCKED: ATOM     31  C   UNL     1     139.178  68.349 225.851 -0.49 -0.00    +0.032 A  
DOCKED: ATOM     32  C   UNL     1     141.136  69.884 227.087 -0.50 -0.01    +0.049 A  
DOCKED: ATOM     33  C   UNL     1     139.776  67.919 227.033 -0.60 -0.01    +0.041 A  
DOCKED: ATOM     34  C   UNL     1     140.751  68.694 227.640 -0.55 -0.03    +0.123 A  
DOCKED: ATOM     35  F   UNL     1     141.357  68.309 228.790 -0.18 +0.05    -0.207 F  
DOCKED: ENDBRANCH  22  25
DOCKED: ENDBRANCH  20  21
DOCKED: ENDBRANCH   2  20
DOCKED: TORSDOF 6
DOCKED: TER
DOCKED: ENDMDL
________________________________________________________________________________


    FINAL DOCKED STATE:
    ________________________


Run:   9 / 20
Time taken for this run:   0.019s

DOCKED: MODEL        9
DOCKED: USER    Run = 9
DOCKED: USER
DOCKED: USER    Estimated Free Energy of Binding    =  -9.27 kcal/mol  [=(1)+(2)+(3)-(4)]
DOCKED: USER
DOCKED: USER    (1) Final Intermolecular Energy     = -11.06 kcal/mol
DOCKED: USER        vdW + Hbond + desolv Energy     = -11.04 kcal/mol
DOCKED: USER        Electrostatic Energy            =  -0.02 kcal/mol
DOCKED: USER        Moving Ligand-Fixed Receptor    = -11.06 kcal/mol
DOCKED: USER        Moving Ligand-Moving Receptor   =  +0.00 kcal/mol
DOCKED: USER    (2) Final Total Internal Energy     =  -1.58 kcal/mol
DOCKED: USER    (3) Torsional Free Energy           =  +1.79 kcal/mol
DOCKED: USER    (4) Unbound System's Energy         =  -1.58 kcal/mol
DOCKED: USER
DOCKED: USER
DOCKED: REMARK SMILES CC(C)[C@H]1C[C@H](NC(=O)CNC(=O)c2ccc3cc(F)ccc3n2)[C@H](c2ccc(F)cc2)C1
DOCKED: REMARK SMILES IDX 7 1 8 2 9 3 6 5 4 6 5 7 33 8 25 9 2 10 1 11 3 12 26 13 27 14
DOCKED: REMARK SMILES IDX 32 15 28 16 31 17 29 18 30 19 10 20 11 21 12 22 13 24 14 25
DOCKED: REMARK SMILES IDX 15 26 24 27 16 28 23 29 17 30 22 31 18 32 21 33 19 34 20 35
DOCKED: REMARK H PARENT 7 4 11 23
DOCKED: USER                              x       y       z     vdW  Elec       q    Type
DOCKED: USER                           _______ _______ _______ _____ _____    ______ ____
DOCKED: ROOT
DOCKED: ATOM      1  N   UNL     1     140.659  76.651 221.215 -0.12 +0.12    -0.351 N  
DOCKED: ATOM      2  C   UNL     1     139.742  75.568 221.000 -0.16 -0.06    +0.239 C  
DOCKED: ATOM      3  O   UNL     1     138.515  75.829 220.871 -0.06 +0.06    -0.273 OA 
DOCKED: ATOM      4  H   UNL     1     141.665  76.447 221.324 -0.23 -0.09    +0.163 HD 
DOCKED: ENDROOT
DOCKED: BRANCH   1   5
DOCKED: ATOM      5  C   UNL     1     140.108  77.981 221.271 -0.21 -0.03    +0.089 C  
DOCKED: ATOM      6  C   UNL     1     141.488  78.631 223.099 -0.57 +0.00    -0.006 C  
DOCKED: ATOM      7  C   UNL     1     140.033  78.329 222.765 -0.37 -0.01    +0.029 C  
DOCKED: ATOM      8  C   UNL     1     142.204  78.851 221.784 -0.29 -0.01    +0.014 C  
DOCKED: ATOM      9  C   UNL     1     141.078  79.047 220.822 -0.28 -0.02    +0.042 C  
DOCKED: BRANCH   6  10
DOCKED: ATOM     10  C   UNL     1     141.603  79.911 223.884 -0.55 +0.00    -0.014 C  
DOCKED: ATOM     11  C   UNL     1     140.498  80.843 223.473 -0.46 -0.00    +0.007 C  
DOCKED: ATOM     12  C   UNL     1     142.925  80.569 223.623 -0.67 -0.00    +0.007 C  
DOCKED: ENDBRANCH   6  10
DOCKED: BRANCH   9  13
DOCKED: ATOM     13  C   UNL     1     141.445  78.985 219.405 -0.23 +0.02    -0.043 A  
DOCKED: ATOM     14  C   UNL     1     142.274  77.985 218.976 -0.30 -0.00    +0.007 A  
DOCKED: ATOM     15  C   UNL     1     140.964  79.917 218.513 -0.16 -0.00    +0.007 A  
DOCKED: ATOM     16  C   UNL     1     142.642  77.897 217.634 -0.28 -0.03    +0.039 A  
DOCKED: ATOM     17  C   UNL     1     141.326  79.840 217.167 -0.14 -0.03    +0.039 A  
DOCKED: ATOM     18  C   UNL     1     142.164  78.829 216.739 -0.17 -0.11    +0.123 A  
DOCKED: ATOM     19  F   UNL     1     142.557  78.690 215.448 -0.04 +0.24    -0.207 F  
DOCKED: ENDBRANCH   9  13
DOCKED: ENDBRANCH   1   5
DOCKED: BRANCH   2  20
DOCKED: ATOM     20  C   UNL     1     140.291  74.187 220.939 -0.17 -0.04    +0.216 C  
DOCKED: BRANCH  20  21
DOCKED: ATOM     21  N   UNL     1     139.946  73.475 222.154 -0.15 +0.04    -0.342 N  
DOCKED: ATOM     22  C   UNL     1     140.685  72.285 222.432 -0.19 -0.02    +0.270 C  
DOCKED: ATOM     23  H   UNL     1     139.185  73.813 222.806 -0.51 -0.06    +0.164 HD 
DOCKED: ATOM     24  O   UNL     1     141.595  71.890 221.642 -0.17 +0.02    -0.268 OA 
DOCKED: BRANCH  22  25
DOCKED: ATOM     25  C   UNL     1     140.385  71.522 223.640 -0.33 -0.02    +0.128 A  
DOCKED: ATOM     26  C   UNL     1     139.570  70.412 223.562 -0.30 -0.01    +0.035 A  
DOCKED: ATOM     27  N   UNL     1     140.867  71.844 224.854 -0.22 +0.03    -0.243 NA 
DOCKED: ATOM     28  C   UNL     1     139.237  69.636 224.652 -0.36 -0.00    +0.013 A  
DOCKED: ATOM     29  C   UNL     1     140.566  71.108 225.958 -0.55 -0.01    +0.071 A  
DOCKED: ATOM     30  C   UNL     1     139.746  69.990 225.884 -0.47 -0.00    +0.003 A  
DOCKED: ATOM     31  C   UNL     1     141.069  71.452 227.196 -0.73 -0.01    +0.032 A  
DOCKED: ATOM     32  C   UNL     1     139.422  69.226 226.978 -0.49 -0.01    +0.049 A  
DOCKED: ATOM     33  C   UNL     1     140.753  70.690 228.318 -0.57 -0.01    +0.041 A  
DOCKED: ATOM     34  C   UNL     1     139.931  69.582 228.196 -0.51 -0.02    +0.123 A  
DOCKED: ATOM     35  F   UNL     1     139.600  68.816 229.265 -0.03 +0.03    -0.207 F  
DOCKED: ENDBRANCH  22  25
DOCKED: ENDBRANCH  20  21
DOCKED: ENDBRANCH   2  20
DOCKED: TORSDOF 6
DOCKED: TER
DOCKED: ENDMDL
________________________________________________________________________________


    FINAL DOCKED STATE:
    ________________________


Run:   10 / 20
Time taken for this run:   0.019s

DOCKED: MODEL        10
DOCKED: USER    Run = 10
DOCKED: USER
DOCKED: USER    Estimated Free Energy of Binding    =  -8.00 kcal/mol  [=(1)+(2)+(3)-(4)]
DOCKED: USER
DOCKED: USER    (1) Final Intermolecular Energy     =  -9.79 kcal/mol
DOCKED: USER        vdW + Hbond + desolv Energy     =  -9.73 kcal/mol
DOCKED: USER        Electrostatic Energy            =  -0.06 kcal/mol
DOCKED: USER        Moving Ligand-Fixed Receptor    =  -9.79 kcal/mol
DOCKED: USER        Moving Ligand-Moving Receptor   =  +0.00 kcal/mol
DOCKED: USER    (2) Final Total Internal Energy     =  -2.29 kcal/mol
DOCKED: USER    (3) Torsional Free Energy           =  +1.79 kcal/mol
DOCKED: USER    (4) Unbound System's Energy         =  -2.29 kcal/mol
DOCKED: USER
DOCKED: USER
DOCKED: REMARK SMILES CC(C)[C@H]1C[C@H](NC(=O)CNC(=O)c2ccc3cc(F)ccc3n2)[C@H](c2ccc(F)cc2)C1
DOCKED: REMARK SMILES IDX 7 1 8 2 9 3 6 5 4 6 5 7 33 8 25 9 2 10 1 11 3 12 26 13 27 14
DOCKED: REMARK SMILES IDX 32 15 28 16 31 17 29 18 30 19 10 20 11 21 12 22 13 24 14 25
DOCKED: REMARK SMILES IDX 15 26 24 27 16 28 23 29 17 30 22 31 18 32 21 33 19 34 20 35
DOCKED: REMARK H PARENT 7 4 11 23
DOCKED: USER                              x       y       z     vdW  Elec       q    Type
DOCKED: USER                           _______ _______ _______ _____ _____    ______ ____
DOCKED: ROOT
DOCKED: ATOM      1  N   UNL     1     138.754  74.960 221.195 -0.08 +0.08    -0.351 N  
DOCKED: ATOM      2  C   UNL     1     137.685  74.354 220.453 -0.04 -0.05    +0.239 C  
DOCKED: ATOM      3  O   UNL     1     137.524  74.682 219.246 -0.01 +0.05    -0.273 OA 
DOCKED: ATOM      4  H   UNL     1     138.894  74.700 222.184 -0.10 -0.04    +0.163 HD 
DOCKED: ENDROOT
DOCKED: BRANCH   1   5
DOCKED: ATOM      5  C   UNL     1     139.580  75.915 220.501 -0.13 -0.02    +0.089 C  
DOCKED: ATOM      6  C   UNL     1     139.600  77.441 222.327 -0.35 +0.00    -0.006 C  
DOCKED: ATOM      7  C   UNL     1     139.047  77.294 220.916 -0.14 -0.01    +0.029 C  
DOCKED: ATOM      8  C   UNL     1     140.701  76.415 222.477 -0.28 -0.00    +0.014 C  
DOCKED: ATOM      9  C   UNL     1     140.977  76.015 221.064 -0.30 -0.01    +0.042 C  
DOCKED: BRANCH   6  10
DOCKED: ATOM     10  C   UNL     1     140.231  78.797 222.516 -0.38 +0.00    -0.014 C  
DOCKED: ATOM     11  C   UNL     1     141.523  78.639 223.267 -0.58 -0.00    +0.007 C  
DOCKED: ATOM     12  C   UNL     1     139.315  79.696 223.293 -0.40 -0.00    +0.007 C  
DOCKED: ENDBRANCH   6  10
DOCKED: BRANCH   9  13
DOCKED: ATOM     13  C   UNL     1     141.793  74.810 220.901 -0.29 +0.01    -0.043 A  
DOCKED: ATOM     14  C   UNL     1     143.071  74.931 220.427 -0.33 -0.00    +0.007 A  
DOCKED: ATOM     15  C   UNL     1     141.288  73.569 221.219 -0.28 -0.00    +0.007 A  
DOCKED: ATOM     16  C   UNL     1     143.875  73.805 220.260 -0.37 -0.01    +0.039 A  
DOCKED: ATOM     17  C   UNL     1     142.082  72.433 221.056 -0.23 -0.00    +0.039 A  
DOCKED: ATOM     18  C   UNL     1     143.371  72.562 220.577 -0.25 -0.02    +0.123 A  
DOCKED: ATOM     19  F   UNL     1     144.201  71.504 220.393 -0.07 +0.02    -0.207 F  
DOCKED: ENDBRANCH   9  13
DOCKED: ENDBRANCH   1   5
DOCKED: BRANCH   2  20
DOCKED: ATOM     20  C   UNL     1     136.821  73.366 221.151 -0.05 -0.05    +0.216 C  
DOCKED: BRANCH  20  21
DOCKED: ATOM     21  N   UNL     1     137.489  72.902 222.352 -0.06 +0.11    -0.342 N  
DOCKED: ATOM     22  C   UNL     1     138.330  71.756 222.218 -0.11 -0.06    +0.270 C  
DOCKED: ATOM     23  H   UNL     1     137.363  73.384 223.285 -0.51 -0.11    +0.164 HD 
DOCKED: ATOM     24  O   UNL     1     138.472  71.188 221.093 -0.04 +0.05    -0.268 OA 
DOCKED: BRANCH  22  25
DOCKED: ATOM     25  C   UNL     1     139.030  71.240 223.390 -0.25 -0.03    +0.128 A  
DOCKED: ATOM     26  C   UNL     1     140.129  71.913 223.881 -0.34 -0.01    +0.035 A  
DOCKED: ATOM     27  N   UNL     1     138.659  70.120 224.035 -0.16 +0.04    -0.243 NA 
DOCKED: ATOM     28  C   UNL     1     140.846  71.495 224.982 -0.48 -0.00    +0.013 A  
DOCKED: ATOM     29  C   UNL     1     139.335  69.669 225.126 -0.36 -0.01    +0.071 A  
DOCKED: ATOM     30  C   UNL     1     140.442  70.343 225.624 -0.52 -0.00    +0.003 A  
DOCKED: ATOM     31  C   UNL     1     138.941  68.517 225.776 -0.45 -0.00    +0.032 A  
DOCKED: ATOM     32  C   UNL     1     141.147  69.916 226.722 -0.51 -0.01    +0.049 A  
DOCKED: ATOM     33  C   UNL     1     139.643  68.067 226.891 -0.60 -0.01    +0.041 A  
DOCKED: ATOM     34  C   UNL     1     140.742  68.773 227.354 -0.53 -0.03    +0.123 A  
DOCKED: ATOM     35  F   UNL     1     141.451  68.366 228.435 -0.17 +0.06    -0.207 F  
DOCKED: ENDBRANCH  22  25
DOCKED: ENDBRANCH  20  21
DOCKED: ENDBRANCH   2  20
DOCKED: TORSDOF 6
DOCKED: TER
DOCKED: ENDMDL
________________________________________________________________________________


    FINAL DOCKED STATE:
    ________________________


Run:   11 / 20
Time taken for this run:   0.019s

DOCKED: MODEL        11
DOCKED: USER    Run = 11
DOCKED: USER
DOCKED: USER    Estimated Free Energy of Binding    =  -8.76 kcal/mol  [=(1)+(2)+(3)-(4)]
DOCKED: USER
DOCKED: USER    (1) Final Intermolecular Energy     = -10.55 kcal/mol
DOCKED: USER        vdW + Hbond + desolv Energy     = -10.63 kcal/mol
DOCKED: USER        Electrostatic Energy            =  +0.08 kcal/mol
DOCKED: USER        Moving Ligand-Fixed Receptor    = -10.55 kcal/mol
DOCKED: USER        Moving Ligand-Moving Receptor   =  +0.00 kcal/mol
DOCKED: USER    (2) Final Total Internal Energy     =  -1.87 kcal/mol
DOCKED: USER    (3) Torsional Free Energy           =  +1.79 kcal/mol
DOCKED: USER    (4) Unbound System's Energy         =  -1.87 kcal/mol
DOCKED: USER
DOCKED: USER
DOCKED: REMARK SMILES CC(C)[C@H]1C[C@H](NC(=O)CNC(=O)c2ccc3cc(F)ccc3n2)[C@H](c2ccc(F)cc2)C1
DOCKED: REMARK SMILES IDX 7 1 8 2 9 3 6 5 4 6 5 7 33 8 25 9 2 10 1 11 3 12 26 13 27 14
DOCKED: REMARK SMILES IDX 32 15 28 16 31 17 29 18 30 19 10 20 11 21 12 22 13 24 14 25
DOCKED: REMARK SMILES IDX 15 26 24 27 16 28 23 29 17 30 22 31 18 32 21 33 19 34 20 35
DOCKED: REMARK H PARENT 7 4 11 23
DOCKED: USER                              x       y       z     vdW  Elec       q    Type
DOCKED: USER                           _______ _______ _______ _____ _____    ______ ____
DOCKED: ROOT
DOCKED: ATOM      1  N   UNL     1     140.983  76.322 221.363 -0.16 +0.13    -0.351 N  
DOCKED: ATOM      2  C   UNL     1     140.496  75.229 220.570 -0.14 -0.06    +0.239 C  
DOCKED: ATOM      3  O   UNL     1     139.466  75.404 219.864 -0.03 +0.07    -0.273 OA 
DOCKED: ATOM      4  H   UNL     1     141.824  76.188 221.946 -0.53 -0.10    +0.163 HD 
DOCKED: ENDROOT
DOCKED: BRANCH   1   5
DOCKED: ATOM      5  C   UNL     1     140.251  77.561 221.299 -0.24 -0.03    +0.089 C  
DOCKED: ATOM      6  C   UNL     1     141.427  78.518 223.133 -0.56 +0.00    -0.006 C  
DOCKED: ATOM      7  C   UNL     1     140.047  77.992 222.759 -0.33 -0.01    +0.029 C  
DOCKED: ATOM      8  C   UNL     1     142.175  78.751 221.839 -0.28 -0.01    +0.014 C  
DOCKED: ATOM      9  C   UNL     1     141.087  78.722 220.816 -0.28 -0.02    +0.042 C  
DOCKED: BRANCH   6  10
DOCKED: ATOM     10  C   UNL     1     141.321  79.851 223.829 -0.55 +0.00    -0.014 C  
DOCKED: ATOM     11  C   UNL     1     140.025  80.506 223.444 -0.45 -0.00    +0.007 C  
DOCKED: ATOM     12  C   UNL     1     142.461  80.741 223.431 -0.66 -0.00    +0.007 C  
DOCKED: ENDBRANCH   6  10
DOCKED: BRANCH   9  13
DOCKED: ATOM     13  C   UNL     1     141.534  78.620 219.426 -0.24 +0.02    -0.043 A  
DOCKED: ATOM     14  C   UNL     1     142.460  77.669 219.093 -0.30 -0.00    +0.007 A  
DOCKED: ATOM     15  C   UNL     1     141.034  79.467 218.462 -0.16 -0.00    +0.007 A  
DOCKED: ATOM     16  C   UNL     1     142.907  77.545 217.778 -0.29 -0.03    +0.039 A  
DOCKED: ATOM     17  C   UNL     1     141.473  79.353 217.142 -0.15 -0.03    +0.039 A  
DOCKED: ATOM     18  C   UNL     1     142.408  78.391 216.812 -0.18 -0.12    +0.123 A  
DOCKED: ATOM     19  F   UNL     1     142.881  78.222 215.551 -0.05 +0.25    -0.207 F  
DOCKED: ENDBRANCH   9  13
DOCKED: ENDBRANCH   1   5
DOCKED: BRANCH   2  20
DOCKED: ATOM     20  C   UNL     1     141.237  73.941 220.623 -0.17 -0.04    +0.216 C  
DOCKED: BRANCH  20  21
DOCKED: ATOM     21  N   UNL     1     141.056  73.331 221.926 -0.14 +0.01    -0.342 N  
DOCKED: ATOM     22  C   UNL     1     140.401  72.062 221.956 -0.19 -0.03    +0.270 C  
DOCKED: ATOM     23  H   UNL     1     141.390  73.797 222.815 +0.16 +0.06    +0.164 HD 
DOCKED: ATOM     24  O   UNL     1     140.006  71.515 220.883 -0.07 +0.04    -0.268 OA 
DOCKED: BRANCH  22  25
DOCKED: ATOM     25  C   UNL     1     140.188  71.396 223.237 -0.30 -0.02    +0.128 A  
DOCKED: ATOM     26  C   UNL     1     139.478  70.215 223.283 -0.25 -0.01    +0.035 A  
DOCKED: ATOM     27  N   UNL     1     140.655  71.877 224.404 -0.26 +0.03    -0.243 NA 
DOCKED: ATOM     28  C   UNL     1     139.232  69.522 224.450 -0.34 -0.00    +0.013 A  
DOCKED: ATOM     29  C   UNL     1     140.437  71.228 225.579 -0.52 -0.01    +0.071 A  
DOCKED: ATOM     30  C   UNL     1     139.723  70.038 225.630 -0.46 -0.00    +0.003 A  
DOCKED: ATOM     31  C   UNL     1     140.922  71.735 226.768 -0.71 -0.01    +0.032 A  
DOCKED: ATOM     32  C   UNL     1     139.485  69.358 226.799 -0.48 -0.01    +0.049 A  
DOCKED: ATOM     33  C   UNL     1     140.692  71.060 227.964 -0.71 -0.01    +0.041 A  
DOCKED: ATOM     34  C   UNL     1     139.974  69.876 227.967 -0.53 -0.02    +0.123 A  
DOCKED: ATOM     35  F   UNL     1     139.729  69.191 229.111 -0.10 +0.03    -0.207 F  
DOCKED: ENDBRANCH  22  25
DOCKED: ENDBRANCH  20  21
DOCKED: ENDBRANCH   2  20
DOCKED: TORSDOF 6
DOCKED: TER
DOCKED: ENDMDL
________________________________________________________________________________


    FINAL DOCKED STATE:
    ________________________


Run:   12 / 20
Time taken for this run:   0.019s

DOCKED: MODEL        12
DOCKED: USER    Run = 12
DOCKED: USER
DOCKED: USER    Estimated Free Energy of Binding    =  -9.10 kcal/mol  [=(1)+(2)+(3)-(4)]
DOCKED: USER
DOCKED: USER    (1) Final Intermolecular Energy     = -10.89 kcal/mol
DOCKED: USER        vdW + Hbond + desolv Energy     = -10.90 kcal/mol
DOCKED: USER        Electrostatic Energy            =  +0.01 kcal/mol
DOCKED: USER        Moving Ligand-Fixed Receptor    = -10.89 kcal/mol
DOCKED: USER        Moving Ligand-Moving Receptor   =  +0.00 kcal/mol
DOCKED: USER    (2) Final Total Internal Energy     =  -1.66 kcal/mol
DOCKED: USER    (3) Torsional Free Energy           =  +1.79 kcal/mol
DOCKED: USER    (4) Unbound System's Energy         =  -1.66 kcal/mol
DOCKED: USER
DOCKED: USER
DOCKED: REMARK SMILES CC(C)[C@H]1C[C@H](NC(=O)CNC(=O)c2ccc3cc(F)ccc3n2)[C@H](c2ccc(F)cc2)C1
DOCKED: REMARK SMILES IDX 7 1 8 2 9 3 6 5 4 6 5 7 33 8 25 9 2 10 1 11 3 12 26 13 27 14
DOCKED: REMARK SMILES IDX 32 15 28 16 31 17 29 18 30 19 10 20 11 21 12 22 13 24 14 25
DOCKED: REMARK SMILES IDX 15 26 24 27 16 28 23 29 17 30 22 31 18 32 21 33 19 34 20 35
DOCKED: REMARK H PARENT 7 4 11 23
DOCKED: USER                              x       y       z     vdW  Elec       q    Type
DOCKED: USER                           _______ _______ _______ _____ _____    ______ ____
DOCKED: ROOT
DOCKED: ATOM      1  N   UNL     1     140.696  76.496 221.537 -0.16 +0.12    -0.351 N  
DOCKED: ATOM      2  C   UNL     1     140.066  75.454 220.778 -0.15 -0.06    +0.239 C  
DOCKED: ATOM      3  O   UNL     1     139.060  75.740 220.074 -0.03 +0.06    -0.273 OA 
DOCKED: ATOM      4  H   UNL     1     141.519  76.272 222.117 -0.30 -0.08    +0.163 HD 
DOCKED: ENDROOT
DOCKED: BRANCH   1   5
DOCKED: ATOM      5  C   UNL     1     140.126  77.817 221.442 -0.23 -0.03    +0.089 C  
DOCKED: ATOM      6  C   UNL     1     141.432  78.665 223.243 -0.58 +0.00    -0.006 C  
DOCKED: ATOM      7  C   UNL     1     139.993  78.309 222.891 -0.33 -0.01    +0.029 C  
DOCKED: ATOM      8  C   UNL     1     142.192  78.766 221.938 -0.29 -0.01    +0.014 C  
DOCKED: ATOM      9  C   UNL     1     141.099  78.848 220.923 -0.29 -0.02    +0.042 C  
DOCKED: BRANCH   6  10
DOCKED: ATOM     10  C   UNL     1     141.503  80.018 223.902 -0.50 +0.00    -0.014 C  
DOCKED: ATOM     11  C   UNL     1     140.357  80.862 223.419 -0.44 -0.00    +0.007 C  
DOCKED: ATOM     12  C   UNL     1     142.795  80.699 223.562 -0.66 -0.00    +0.007 C  
DOCKED: ENDBRANCH   6  10
DOCKED: BRANCH   9  13
DOCKED: ATOM     13  C   UNL     1     141.517  78.654 219.533 -0.24 +0.02    -0.043 A  
DOCKED: ATOM     14  C   UNL     1     141.138  79.571 218.591 -0.18 -0.00    +0.007 A  
DOCKED: ATOM     15  C   UNL     1     142.281  77.566 219.174 -0.30 -0.00    +0.007 A  
DOCKED: ATOM     16  C   UNL     1     141.520  79.417 217.259 -0.16 -0.03    +0.039 A  
DOCKED: ATOM     17  C   UNL     1     142.669  77.400 217.844 -0.28 -0.03    +0.039 A  
DOCKED: ATOM     18  C   UNL     1     142.284  78.328 216.896 -0.19 -0.11    +0.123 A  
DOCKED: ATOM     19  F   UNL     1     142.624  78.233 215.586 -0.05 +0.22    -0.207 F  
DOCKED: ENDBRANCH   9  13
DOCKED: ENDBRANCH   1   5
DOCKED: BRANCH   2  20
DOCKED: ATOM     20  C   UNL     1     140.638  74.084 220.862 -0.17 -0.04    +0.216 C  
DOCKED: BRANCH  20  21
DOCKED: ATOM     21  N   UNL     1     140.249  73.472 222.118 -0.13 +0.02    -0.342 N  
DOCKED: ATOM     22  C   UNL     1     140.681  72.129 222.339 -0.20 -0.02    +0.270 C  
DOCKED: ATOM     23  H   UNL     1     139.674  73.990 222.839 -0.34 -0.01    +0.164 HD 
DOCKED: ATOM     24  O   UNL     1     141.370  71.520 221.466 -0.14 +0.03    -0.268 OA 
DOCKED: BRANCH  22  25
DOCKED: ATOM     25  C   UNL     1     140.322  71.458 223.584 -0.33 -0.02    +0.128 A  
DOCKED: ATOM     26  C   UNL     1     139.538  70.323 223.547 -0.29 -0.01    +0.035 A  
DOCKED: ATOM     27  N   UNL     1     140.718  71.889 224.795 -0.27 +0.03    -0.243 NA 
DOCKED: ATOM     28  C   UNL     1     139.154  69.628 224.675 -0.36 -0.00    +0.013 A  
DOCKED: ATOM     29  C   UNL     1     140.364  71.237 225.935 -0.53 -0.01    +0.071 A  
DOCKED: ATOM     30  C   UNL     1     139.576  70.094 225.902 -0.46 -0.00    +0.003 A  
DOCKED: ATOM     31  C   UNL     1     140.779  71.694 227.169 -0.74 -0.01    +0.032 A  
DOCKED: ATOM     32  C   UNL     1     139.200  69.412 227.033 -0.43 -0.01    +0.049 A  
DOCKED: ATOM     33  C   UNL     1     140.409  71.016 228.328 -0.62 -0.01    +0.041 A  
DOCKED: ATOM     34  C   UNL     1     139.621  69.879 228.247 -0.50 -0.02    +0.123 A  
DOCKED: ATOM     35  F   UNL     1     139.240  69.193 229.353 -0.01 +0.02    -0.207 F  
DOCKED: ENDBRANCH  22  25
DOCKED: ENDBRANCH  20  21
DOCKED: ENDBRANCH   2  20
DOCKED: TORSDOF 6
DOCKED: TER
DOCKED: ENDMDL
________________________________________________________________________________


    FINAL DOCKED STATE:
    ________________________


Run:   13 / 20
Time taken for this run:   0.019s

DOCKED: MODEL        13
DOCKED: USER    Run = 13
DOCKED: USER
DOCKED: USER    Estimated Free Energy of Binding    =  -7.30 kcal/mol  [=(1)+(2)+(3)-(4)]
DOCKED: USER
DOCKED: USER    (1) Final Intermolecular Energy     =  -9.09 kcal/mol
DOCKED: USER        vdW + Hbond + desolv Energy     =  -9.06 kcal/mol
DOCKED: USER        Electrostatic Energy            =  -0.04 kcal/mol
DOCKED: USER        Moving Ligand-Fixed Receptor    =  -9.09 kcal/mol
DOCKED: USER        Moving Ligand-Moving Receptor   =  +0.00 kcal/mol
DOCKED: USER    (2) Final Total Internal Energy     =  -3.00 kcal/mol
DOCKED: USER    (3) Torsional Free Energy           =  +1.79 kcal/mol
DOCKED: USER    (4) Unbound System's Energy         =  -3.00 kcal/mol
DOCKED: USER
DOCKED: USER
DOCKED: REMARK SMILES CC(C)[C@H]1C[C@H](NC(=O)CNC(=O)c2ccc3cc(F)ccc3n2)[C@H](c2ccc(F)cc2)C1
DOCKED: REMARK SMILES IDX 7 1 8 2 9 3 6 5 4 6 5 7 33 8 25 9 2 10 1 11 3 12 26 13 27 14
DOCKED: REMARK SMILES IDX 32 15 28 16 31 17 29 18 30 19 10 20 11 21 12 22 13 24 14 25
DOCKED: REMARK SMILES IDX 15 26 24 27 16 28 23 29 17 30 22 31 18 32 21 33 19 34 20 35
DOCKED: REMARK H PARENT 7 4 11 23
DOCKED: USER                              x       y       z     vdW  Elec       q    Type
DOCKED: USER                           _______ _______ _______ _____ _____    ______ ____
DOCKED: ROOT
DOCKED: ATOM      1  N   UNL     1     139.652  74.159 220.156 -0.02 +0.07    -0.351 N  
DOCKED: ATOM      2  C   UNL     1     139.730  72.993 219.322 -0.02 -0.05    +0.239 C  
DOCKED: ATOM      3  O   UNL     1     140.467  73.027 218.300 -0.01 +0.06    -0.273 OA 
DOCKED: ATOM      4  H   UNL     1     139.050  74.141 220.994 +0.04 -0.03    +0.163 HD 
DOCKED: ENDROOT
DOCKED: BRANCH   1   5
DOCKED: ATOM      5  C   UNL     1     140.432  75.305 219.762 -0.10 -0.02    +0.089 C  
DOCKED: ATOM      6  C   UNL     1     139.868  76.540 221.717 -0.33 +0.00    -0.006 C  
DOCKED: ATOM      7  C   UNL     1     139.619  76.527 220.214 -0.11 -0.01    +0.029 C  
DOCKED: ATOM      8  C   UNL     1     141.070  75.657 221.972 -0.29 -0.00    +0.014 C  
DOCKED: ATOM      9  C   UNL     1     141.665  75.506 220.610 -0.27 -0.02    +0.042 C  
DOCKED: BRANCH   6  10
DOCKED: ATOM     10  C   UNL     1     140.230  77.925 222.187 -0.37 +0.00    -0.014 C  
DOCKED: ATOM     11  C   UNL     1     140.556  78.781 220.996 -0.25 -0.00    +0.007 C  
DOCKED: ATOM     12  C   UNL     1     141.420  77.875 223.099 -0.40 -0.00    +0.007 C  
DOCKED: ENDBRANCH   6  10
DOCKED: BRANCH   9  13
DOCKED: ATOM     13  C   UNL     1     142.677  74.455 220.480 -0.30 +0.01    -0.043 A  
DOCKED: ATOM     14  C   UNL     1     143.898  74.770 219.948 -0.42 -0.00    +0.007 A  
DOCKED: ATOM     15  C   UNL     1     142.411  73.167 220.888 -0.26 -0.00    +0.007 A  
DOCKED: ATOM     16  C   UNL     1     144.884  73.794 219.811 -0.42 -0.01    +0.039 A  
DOCKED: ATOM     17  C   UNL     1     143.390  72.181 220.757 -0.28 -0.01    +0.039 A  
DOCKED: ATOM     18  C   UNL     1     144.620  72.504 220.218 -0.33 -0.01    +0.123 A  
DOCKED: ATOM     19  F   UNL     1     145.619  71.600 220.060 -0.05 -0.05    -0.207 F  
DOCKED: ENDBRANCH   9  13
DOCKED: ENDBRANCH   1   5
DOCKED: BRANCH   2  20
DOCKED: ATOM     20  C   UNL     1     138.932  71.800 219.712 -0.02 -0.04    +0.216 C  
DOCKED: BRANCH  20  21
DOCKED: ATOM     21  N   UNL     1     139.488  71.218 220.917 -0.03 +0.06    -0.342 N  
DOCKED: ATOM     22  C   UNL     1     138.982  71.708 222.160 -0.13 -0.06    +0.270 C  
DOCKED: ATOM     23  H   UNL     1     140.232  70.467 220.886 +0.04 -0.03    +0.164 HD 
DOCKED: ATOM     24  O   UNL     1     138.090  72.609 222.183 -0.12 +0.08    -0.268 OA 
DOCKED: BRANCH  22  25
DOCKED: ATOM     25  C   UNL     1     139.502  71.162 223.410 -0.28 -0.03    +0.128 A  
DOCKED: ATOM     26  C   UNL     1     140.439  71.874 224.129 -0.36 -0.00    +0.035 A  
DOCKED: ATOM     27  N   UNL     1     139.113  69.977 223.915 -0.16 +0.04    -0.243 NA 
DOCKED: ATOM     28  C   UNL     1     140.980  71.432 225.318 -0.54 -0.00    +0.013 A  
DOCKED: ATOM     29  C   UNL     1     139.618  69.501 225.083 -0.36 -0.01    +0.071 A  
DOCKED: ATOM     30  C   UNL     1     140.562  70.214 225.811 -0.53 -0.00    +0.003 A  
DOCKED: ATOM     31  C   UNL     1     139.208  68.283 225.587 -0.48 -0.00    +0.032 A  
DOCKED: ATOM     32  C   UNL     1     141.093  69.762 226.994 -0.52 -0.01    +0.049 A  
DOCKED: ATOM     33  C   UNL     1     139.735  67.807 226.786 -0.62 -0.01    +0.041 A  
DOCKED: ATOM     34  C   UNL     1     140.674  68.554 227.478 -0.56 -0.03    +0.123 A  
DOCKED: ATOM     35  F   UNL     1     141.210  68.123 228.647 -0.19 +0.06    -0.207 F  
DOCKED: ENDBRANCH  22  25
DOCKED: ENDBRANCH  20  21
DOCKED: ENDBRANCH   2  20
DOCKED: TORSDOF 6
DOCKED: TER
DOCKED: ENDMDL
________________________________________________________________________________


    FINAL DOCKED STATE:
    ________________________


Run:   14 / 20
Time taken for this run:   0.019s

DOCKED: MODEL        14
DOCKED: USER    Run = 14
DOCKED: USER
DOCKED: USER    Estimated Free Energy of Binding    =  -8.15 kcal/mol  [=(1)+(2)+(3)-(4)]
DOCKED: USER
DOCKED: USER    (1) Final Intermolecular Energy     =  -9.94 kcal/mol
DOCKED: USER        vdW + Hbond + desolv Energy     =  -9.87 kcal/mol
DOCKED: USER        Electrostatic Energy            =  -0.07 kcal/mol
DOCKED: USER        Moving Ligand-Fixed Receptor    =  -9.94 kcal/mol
DOCKED: USER        Moving Ligand-Moving Receptor   =  +0.00 kcal/mol
DOCKED: USER    (2) Final Total Internal Energy     =  -2.29 kcal/mol
DOCKED: USER    (3) Torsional Free Energy           =  +1.79 kcal/mol
DOCKED: USER    (4) Unbound System's Energy         =  -2.29 kcal/mol
DOCKED: USER
DOCKED: USER
DOCKED: REMARK SMILES CC(C)[C@H]1C[C@H](NC(=O)CNC(=O)c2ccc3cc(F)ccc3n2)[C@H](c2ccc(F)cc2)C1
DOCKED: REMARK SMILES IDX 7 1 8 2 9 3 6 5 4 6 5 7 33 8 25 9 2 10 1 11 3 12 26 13 27 14
DOCKED: REMARK SMILES IDX 32 15 28 16 31 17 29 18 30 19 10 20 11 21 12 22 13 24 14 25
DOCKED: REMARK SMILES IDX 15 26 24 27 16 28 23 29 17 30 22 31 18 32 21 33 19 34 20 35
DOCKED: REMARK H PARENT 7 4 11 23
DOCKED: USER                              x       y       z     vdW  Elec       q    Type
DOCKED: USER                           _______ _______ _______ _____ _____    ______ ____
DOCKED: ROOT
DOCKED: ATOM      1  N   UNL     1     138.840  75.491 221.069 -0.06 +0.08    -0.351 N  
DOCKED: ATOM      2  C   UNL     1     138.605  74.272 220.348 -0.05 -0.05    +0.239 C  
DOCKED: ATOM      3  O   UNL     1     139.217  74.082 219.262 -0.01 +0.06    -0.273 OA 
DOCKED: ATOM      4  H   UNL     1     138.342  75.656 221.957 +0.03 -0.04    +0.163 HD 
DOCKED: ENDROOT
DOCKED: BRANCH   1   5
DOCKED: ATOM      5  C   UNL     1     139.771  76.428 220.494 -0.13 -0.02    +0.089 C  
DOCKED: ATOM      6  C   UNL     1     139.834  77.784 222.450 -0.35 +0.00    -0.006 C  
DOCKED: ATOM      7  C   UNL     1     139.334  77.807 221.011 -0.16 -0.01    +0.029 C  
DOCKED: ATOM      8  C   UNL     1     140.840  76.658 222.548 -0.28 -0.00    +0.014 C  
DOCKED: ATOM      9  C   UNL     1     141.145  76.359 221.116 -0.30 -0.02    +0.042 C  
DOCKED: BRANCH   6  10
DOCKED: ATOM     10  C   UNL     1     140.565  79.059 222.782 -0.44 +0.00    -0.014 C  
DOCKED: ATOM     11  C   UNL     1     140.991  79.731 221.507 -0.34 -0.00    +0.007 C  
DOCKED: ATOM     12  C   UNL     1     141.777  78.766 223.615 -0.60 -0.00    +0.007 C  
DOCKED: ENDBRANCH   6  10
DOCKED: BRANCH   9  13
DOCKED: ATOM     13  C   UNL     1     141.866  75.107 220.876 -0.29 +0.02    -0.043 A  
DOCKED: ATOM     14  C   UNL     1     142.969  75.120 220.067 -0.35 -0.00    +0.007 A  
DOCKED: ATOM     15  C   UNL     1     141.445  73.930 221.454 -0.23 -0.00    +0.007 A  
DOCKED: ATOM     16  C   UNL     1     143.680  73.947 219.818 -0.32 -0.01    +0.039 A  
DOCKED: ATOM     17  C   UNL     1     142.147  72.748 221.213 -0.22 -0.00    +0.039 A  
DOCKED: ATOM     18  C   UNL     1     143.260  72.767 220.395 -0.24 -0.02    +0.123 A  
DOCKED: ATOM     19  F   UNL     1     143.991  71.659 220.115 -0.06 +0.02    -0.207 F  
DOCKED: ENDBRANCH   9  13
DOCKED: ENDBRANCH   1   5
DOCKED: BRANCH   2  20
DOCKED: ATOM     20  C   UNL     1     137.646  73.292 220.924 -0.06 -0.05    +0.216 C  
DOCKED: BRANCH  20  21
DOCKED: ATOM     21  N   UNL     1     138.135  72.836 222.211 -0.06 +0.11    -0.342 N  
DOCKED: ATOM     22  C   UNL     1     138.939  71.656 222.211 -0.13 -0.06    +0.270 C  
DOCKED: ATOM     23  H   UNL     1     137.910  73.347 223.109 -0.49 -0.11    +0.164 HD 
DOCKED: ATOM     24  O   UNL     1     139.201  71.053 221.126 -0.06 +0.05    -0.268 OA 
DOCKED: BRANCH  22  25
DOCKED: ATOM     25  C   UNL     1     139.462  71.145 223.474 -0.29 -0.03    +0.128 A  
DOCKED: ATOM     26  C   UNL     1     140.370  71.895 224.191 -0.36 -0.01    +0.035 A  
DOCKED: ATOM     27  N   UNL     1     139.102  69.958 223.994 -0.16 +0.04    -0.243 NA 
DOCKED: ATOM     28  C   UNL     1     140.912  71.488 225.393 -0.55 -0.00    +0.013 A  
DOCKED: ATOM     29  C   UNL     1     139.609  69.514 225.176 -0.37 -0.01    +0.071 A  
DOCKED: ATOM     30  C   UNL     1     140.524  70.266 225.901 -0.54 -0.00    +0.003 A  
DOCKED: ATOM     31  C   UNL     1     139.229  68.293 225.695 -0.49 -0.00    +0.032 A  
DOCKED: ATOM     32  C   UNL     1     141.056  69.848 227.096 -0.53 -0.01    +0.049 A  
DOCKED: ATOM     33  C   UNL     1     139.757  67.851 226.906 -0.61 -0.01    +0.041 A  
DOCKED: ATOM     34  C   UNL     1     140.667  68.636 227.595 -0.55 -0.03    +0.123 A  
DOCKED: ATOM     35  F   UNL     1     141.203  68.240 228.776 -0.19 +0.05    -0.207 F  
DOCKED: ENDBRANCH  22  25
DOCKED: ENDBRANCH  20  21
DOCKED: ENDBRANCH   2  20
DOCKED: TORSDOF 6
DOCKED: TER
DOCKED: ENDMDL
________________________________________________________________________________


    FINAL DOCKED STATE:
    ________________________


Run:   15 / 20
Time taken for this run:   0.019s

DOCKED: MODEL        15
DOCKED: USER    Run = 15
DOCKED: USER
DOCKED: USER    Estimated Free Energy of Binding    =  -6.87 kcal/mol  [=(1)+(2)+(3)-(4)]
DOCKED: USER
DOCKED: USER    (1) Final Intermolecular Energy     =  -8.66 kcal/mol
DOCKED: USER        vdW + Hbond + desolv Energy     =  -8.54 kcal/mol
DOCKED: USER        Electrostatic Energy            =  -0.12 kcal/mol
DOCKED: USER        Moving Ligand-Fixed Receptor    =  -8.66 kcal/mol
DOCKED: USER        Moving Ligand-Moving Receptor   =  +0.00 kcal/mol
DOCKED: USER    (2) Final Total Internal Energy     =  -3.32 kcal/mol
DOCKED: USER    (3) Torsional Free Energy           =  +1.79 kcal/mol
DOCKED: USER    (4) Unbound System's Energy         =  -3.32 kcal/mol
DOCKED: USER
DOCKED: USER
DOCKED: REMARK SMILES CC(C)[C@H]1C[C@H](NC(=O)CNC(=O)c2ccc3cc(F)ccc3n2)[C@H](c2ccc(F)cc2)C1
DOCKED: REMARK SMILES IDX 7 1 8 2 9 3 6 5 4 6 5 7 33 8 25 9 2 10 1 11 3 12 26 13 27 14
DOCKED: REMARK SMILES IDX 32 15 28 16 31 17 29 18 30 19 10 20 11 21 12 22 13 24 14 25
DOCKED: REMARK SMILES IDX 15 26 24 27 16 28 23 29 17 30 22 31 18 32 21 33 19 34 20 35
DOCKED: REMARK H PARENT 7 4 11 23
DOCKED: USER                              x       y       z     vdW  Elec       q    Type
DOCKED: USER                           _______ _______ _______ _____ _____    ______ ____
DOCKED: ROOT
DOCKED: ATOM      1  N   UNL     1     139.603  77.273 221.439 -0.08 +0.09    -0.351 N  
DOCKED: ATOM      2  C   UNL     1     139.019  76.401 220.460 -0.06 -0.06    +0.239 C  
DOCKED: ATOM      3  O   UNL     1     138.712  76.873 219.333 -0.01 +0.07    -0.273 OA 
DOCKED: ATOM      4  H   UNL     1     139.855  76.896 222.366 +0.06 -0.04    +0.163 HD 
DOCKED: ENDROOT
DOCKED: BRANCH   1   5
DOCKED: ATOM      5  C   UNL     1     139.800  78.650 221.061 -0.16 -0.03    +0.089 C  
DOCKED: ATOM      6  C   UNL     1     140.869  79.210 223.113 -0.51 +0.00    -0.006 C  
DOCKED: ATOM      7  C   UNL     1     139.577  79.462 222.345 -0.28 -0.01    +0.029 C  
DOCKED: ATOM      8  C   UNL     1     141.872  78.666 222.119 -0.41 -0.01    +0.014 C  
DOCKED: ATOM      9  C   UNL     1     141.247  78.994 220.803 -0.29 -0.02    +0.042 C  
DOCKED: BRANCH   6  10
DOCKED: ATOM     10  C   UNL     1     141.433  80.500 223.649 -0.55 +0.00    -0.014 C  
DOCKED: ATOM     11  C   UNL     1     141.042  81.627 222.735 -0.43 -0.00    +0.007 C  
DOCKED: ATOM     12  C   UNL     1     142.929  80.425 223.727 -0.66 -0.00    +0.007 C  
DOCKED: ENDBRANCH   6  10
DOCKED: BRANCH   9  13
DOCKED: ATOM     13  C   UNL     1     141.840  78.326 219.642 -0.27 +0.03    -0.043 A  
DOCKED: ATOM     14  C   UNL     1     141.710  78.899 218.406 -0.24 -0.00    +0.007 A  
DOCKED: ATOM     15  C   UNL     1     142.521  77.138 219.786 -0.34 -0.00    +0.007 A  
DOCKED: ATOM     16  C   UNL     1     142.263  78.291 217.281 -0.24 -0.03    +0.039 A  
DOCKED: ATOM     17  C   UNL     1     143.080  76.518 218.667 -0.32 -0.02    +0.039 A  
DOCKED: ATOM     18  C   UNL     1     142.945  77.101 217.422 -0.24 -0.09    +0.123 A  
DOCKED: ATOM     19  F   UNL     1     143.460  76.557 216.291 -0.07 +0.14    -0.207 F  
DOCKED: ENDBRANCH   9  13
DOCKED: ENDBRANCH   1   5
DOCKED: BRANCH   2  20
DOCKED: ATOM     20  C   UNL     1     138.806  74.976 220.832 -0.10 -0.05    +0.216 C  
DOCKED: BRANCH  20  21
DOCKED: ATOM     21  N   UNL     1     139.950  74.191 220.413 -0.04 +0.07    -0.342 N  
DOCKED: ATOM     22  C   UNL     1     141.173  74.409 221.119 -0.19 -0.05    +0.270 C  
DOCKED: ATOM     23  H   UNL     1     139.890  73.488 219.624 +0.03 -0.03    +0.164 HD 
DOCKED: ATOM     24  O   UNL     1     141.231  75.255 222.062 -0.45 +0.05    -0.268 OA 
DOCKED: BRANCH  22  25
DOCKED: ATOM     25  C   UNL     1     142.361  73.649 220.745 -0.22 -0.03    +0.128 A  
DOCKED: ATOM     26  C   UNL     1     143.604  74.242 220.824 -0.27 -0.01    +0.035 A  
DOCKED: ATOM     27  N   UNL     1     142.316  72.375 220.316 -0.10 +0.04    -0.243 NA 
DOCKED: ATOM     28  C   UNL     1     144.776  73.596 220.491 -0.52 -0.00    +0.013 A  
DOCKED: ATOM     29  C   UNL     1     143.446  71.698 219.976 -0.21 -0.01    +0.071 A  
DOCKED: ATOM     30  C   UNL     1     144.699  72.290 220.055 -0.38 -0.00    +0.003 A  
DOCKED: ATOM     31  C   UNL     1     143.382  70.390 219.538 -0.19 -0.00    +0.032 A  
DOCKED: ATOM     32  C   UNL     1     145.859  71.635 219.720 -0.27 +0.03    +0.049 A  
DOCKED: ATOM     33  C   UNL     1     144.546  69.709 219.193 -0.25 +0.01    +0.041 A  
DOCKED: ATOM     34  C   UNL     1     145.776  70.340 219.289 -0.22 +0.07    +0.123 A  
DOCKED: ATOM     35  F   UNL     1     146.931  69.710 218.961 -0.06 -0.22    -0.207 F  
DOCKED: ENDBRANCH  22  25
DOCKED: ENDBRANCH  20  21
DOCKED: ENDBRANCH   2  20
DOCKED: TORSDOF 6
DOCKED: TER
DOCKED: ENDMDL
________________________________________________________________________________


    FINAL DOCKED STATE:
    ________________________


Run:   16 / 20
Time taken for this run:   0.019s

DOCKED: MODEL        16
DOCKED: USER    Run = 16
DOCKED: USER
DOCKED: USER    Estimated Free Energy of Binding    =  -7.16 kcal/mol  [=(1)+(2)+(3)-(4)]
DOCKED: USER
DOCKED: USER    (1) Final Intermolecular Energy     =  -8.95 kcal/mol
DOCKED: USER        vdW + Hbond + desolv Energy     =  -8.77 kcal/mol
DOCKED: USER        Electrostatic Energy            =  -0.18 kcal/mol
DOCKED: USER        Moving Ligand-Fixed Receptor    =  -8.95 kcal/mol
DOCKED: USER        Moving Ligand-Moving Receptor   =  +0.00 kcal/mol
DOCKED: USER    (2) Final Total Internal Energy     =  -3.25 kcal/mol
DOCKED: USER    (3) Torsional Free Energy           =  +1.79 kcal/mol
DOCKED: USER    (4) Unbound System's Energy         =  -3.25 kcal/mol
DOCKED: USER
DOCKED: USER
DOCKED: REMARK SMILES CC(C)[C@H]1C[C@H](NC(=O)CNC(=O)c2ccc3cc(F)ccc3n2)[C@H](c2ccc(F)cc2)C1
DOCKED: REMARK SMILES IDX 7 1 8 2 9 3 6 5 4 6 5 7 33 8 25 9 2 10 1 11 3 12 26 13 27 14
DOCKED: REMARK SMILES IDX 32 15 28 16 31 17 29 18 30 19 10 20 11 21 12 22 13 24 14 25
DOCKED: REMARK SMILES IDX 15 26 24 27 16 28 23 29 17 30 22 31 18 32 21 33 19 34 20 35
DOCKED: REMARK H PARENT 7 4 11 23
DOCKED: USER                              x       y       z     vdW  Elec       q    Type
DOCKED: USER                           _______ _______ _______ _____ _____    ______ ____
DOCKED: ROOT
DOCKED: ATOM      1  N   UNL     1     139.462  77.806 221.554 -0.07 +0.09    -0.351 N  
DOCKED: ATOM      2  C   UNL     1     138.594  77.063 220.685 -0.06 -0.05    +0.239 C  
DOCKED: ATOM      3  O   UNL     1     138.189  77.608 219.623 -0.01 +0.06    -0.273 OA 
DOCKED: ATOM      4  H   UNL     1     139.798  77.370 222.427 +0.07 -0.04    +0.163 HD 
DOCKED: ENDROOT
DOCKED: BRANCH   1   5
DOCKED: ATOM      5  C   UNL     1     139.814  79.143 221.148 -0.16 -0.02    +0.089 C  
DOCKED: ATOM      6  C   UNL     1     140.884  79.643 223.216 -0.51 +0.00    -0.006 C  
DOCKED: ATOM      7  C   UNL     1     139.646  80.009 222.405 -0.29 -0.01    +0.029 C  
DOCKED: ATOM      8  C   UNL     1     141.848  78.969 222.265 -0.49 -0.01    +0.014 C  
DOCKED: ATOM      9  C   UNL     1     141.296  79.326 220.923 -0.31 -0.02    +0.042 C  
DOCKED: BRANCH   6  10
DOCKED: ATOM     10  C   UNL     1     141.568  80.881 223.736 -0.55 +0.00    -0.014 C  
DOCKED: ATOM     11  C   UNL     1     141.429  81.983 222.724 -0.34 -0.00    +0.007 C  
DOCKED: ATOM     12  C   UNL     1     143.024  80.612 223.976 -0.60 -0.00    +0.007 C  
DOCKED: ENDBRANCH   6  10
DOCKED: BRANCH   9  13
DOCKED: ATOM     13  C   UNL     1     141.844  78.567 219.797 -0.27 +0.03    -0.043 A  
DOCKED: ATOM     14  C   UNL     1     142.218  77.265 219.991 -0.33 -0.00    +0.007 A  
DOCKED: ATOM     15  C   UNL     1     141.983  79.150 218.557 -0.28 -0.00    +0.007 A  
DOCKED: ATOM     16  C   UNL     1     142.742  76.514 218.940 -0.31 -0.02    +0.039 A  
DOCKED: ATOM     17  C   UNL     1     142.507  78.409 217.496 -0.28 -0.03    +0.039 A  
DOCKED: ATOM     18  C   UNL     1     142.883  77.096 217.698 -0.25 -0.08    +0.123 A  
DOCKED: ATOM     19  F   UNL     1     143.399  76.315 216.716 -0.07 +0.13    -0.207 F  
DOCKED: ENDBRANCH   9  13
DOCKED: ENDBRANCH   1   5
DOCKED: BRANCH   2  20
DOCKED: ATOM     20  C   UNL     1     138.219  75.681 221.087 -0.10 -0.05    +0.216 C  
DOCKED: BRANCH  20  21
DOCKED: ATOM     21  N   UNL     1     139.233  74.752 220.631 -0.04 +0.07    -0.342 N  
DOCKED: ATOM     22  C   UNL     1     140.473  74.754 221.341 -0.20 -0.05    +0.270 C  
DOCKED: ATOM     23  H   UNL     1     139.071  74.100 219.814 +0.03 -0.03    +0.164 HD 
DOCKED: ATOM     24  O   UNL     1     140.654  75.540 222.320 -0.50 +0.03    -0.268 OA 
DOCKED: BRANCH  22  25
DOCKED: ATOM     25  C   UNL     1     141.535  73.841 220.931 -0.22 -0.02    +0.128 A  
DOCKED: ATOM     26  C   UNL     1     141.220  72.553 220.552 -0.17 -0.01    +0.035 A  
DOCKED: ATOM     27  N   UNL     1     142.834  74.189 220.901 -0.14 +0.07    -0.243 NA 
DOCKED: ATOM     28  C   UNL     1     142.161  71.628 220.151 -0.17 -0.00    +0.013 A  
DOCKED: ATOM     29  C   UNL     1     143.797  73.311 220.512 -0.34 -0.01    +0.071 A  
DOCKED: ATOM     30  C   UNL     1     143.485  72.013 220.129 -0.27 -0.00    +0.003 A  
DOCKED: ATOM     31  C   UNL     1     145.126  73.683 220.487 -0.56 -0.01    +0.032 A  
DOCKED: ATOM     32  C   UNL     1     144.432  71.102 219.732 -0.24 +0.00    +0.049 A  
DOCKED: ATOM     33  C   UNL     1     146.102  72.774 220.087 -0.46 +0.01    +0.041 A  
DOCKED: ATOM     34  C   UNL     1     145.743  71.489 219.712 -0.20 +0.06    +0.123 A  
DOCKED: ATOM     35  F   UNL     1     146.664  70.576 219.318 -0.05 -0.26    -0.207 F  
DOCKED: ENDBRANCH  22  25
DOCKED: ENDBRANCH  20  21
DOCKED: ENDBRANCH   2  20
DOCKED: TORSDOF 6
DOCKED: TER
DOCKED: ENDMDL
________________________________________________________________________________


    FINAL DOCKED STATE:
    ________________________


Run:   17 / 20
Time taken for this run:   0.019s

DOCKED: MODEL        17
DOCKED: USER    Run = 17
DOCKED: USER
DOCKED: USER    Estimated Free Energy of Binding    =  -8.38 kcal/mol  [=(1)+(2)+(3)-(4)]
DOCKED: USER
DOCKED: USER    (1) Final Intermolecular Energy     = -10.17 kcal/mol
DOCKED: USER        vdW + Hbond + desolv Energy     = -10.09 kcal/mol
DOCKED: USER        Electrostatic Energy            =  -0.08 kcal/mol
DOCKED: USER        Moving Ligand-Fixed Receptor    = -10.17 kcal/mol
DOCKED: USER        Moving Ligand-Moving Receptor   =  +0.00 kcal/mol
DOCKED: USER    (2) Final Total Internal Energy     =  -2.17 kcal/mol
DOCKED: USER    (3) Torsional Free Energy           =  +1.79 kcal/mol
DOCKED: USER    (4) Unbound System's Energy         =  -2.17 kcal/mol
DOCKED: USER
DOCKED: USER
DOCKED: REMARK SMILES CC(C)[C@H]1C[C@H](NC(=O)CNC(=O)c2ccc3cc(F)ccc3n2)[C@H](c2ccc(F)cc2)C1
DOCKED: REMARK SMILES IDX 7 1 8 2 9 3 6 5 4 6 5 7 33 8 25 9 2 10 1 11 3 12 26 13 27 14
DOCKED: REMARK SMILES IDX 32 15 28 16 31 17 29 18 30 19 10 20 11 21 12 22 13 24 14 25
DOCKED: REMARK SMILES IDX 15 26 24 27 16 28 23 29 17 30 22 31 18 32 21 33 19 34 20 35
DOCKED: REMARK H PARENT 7 4 11 23
DOCKED: USER                              x       y       z     vdW  Elec       q    Type
DOCKED: USER                           _______ _______ _______ _____ _____    ______ ____
DOCKED: ROOT
DOCKED: ATOM      1  N   UNL     1     138.965  75.190 221.104 -0.07 +0.08    -0.351 N  
DOCKED: ATOM      2  C   UNL     1     138.547  74.071 220.309 -0.05 -0.05    +0.239 C  
DOCKED: ATOM      3  O   UNL     1     138.951  73.989 219.118 -0.01 +0.06    -0.273 OA 
DOCKED: ATOM      4  H   UNL     1     138.639  75.267 222.080 -0.01 -0.04    +0.163 HD 
DOCKED: ENDROOT
DOCKED: BRANCH   1   5
DOCKED: ATOM      5  C   UNL     1     139.828  76.159 220.477 -0.14 -0.02    +0.089 C  
DOCKED: ATOM      6  C   UNL     1     139.884  77.565 222.396 -0.36 +0.00    -0.006 C  
DOCKED: ATOM      7  C   UNL     1     139.337  77.526 220.975 -0.16 -0.01    +0.029 C  
DOCKED: ATOM      8  C   UNL     1     140.949  76.495 222.488 -0.23 -0.00    +0.014 C  
DOCKED: ATOM      9  C   UNL     1     141.223  76.176 221.054 -0.29 -0.02    +0.042 C  
DOCKED: BRANCH   6  10
DOCKED: ATOM     10  C   UNL     1     140.557  78.884 222.674 -0.43 +0.00    -0.014 C  
DOCKED: ATOM     11  C   UNL     1     141.812  78.640 223.465 -0.60 -0.00    +0.007 C  
DOCKED: ATOM     12  C   UNL     1     139.647  79.782 223.458 -0.44 -0.00    +0.007 C  
DOCKED: ENDBRANCH   6  10
DOCKED: BRANCH   9  13
DOCKED: ATOM     13  C   UNL     1     141.999  74.957 220.819 -0.29 +0.02    -0.043 A  
DOCKED: ATOM     14  C   UNL     1     143.193  75.046 220.156 -0.36 -0.00    +0.007 A  
DOCKED: ATOM     15  C   UNL     1     141.541  73.735 221.258 -0.26 -0.00    +0.007 A  
DOCKED: ATOM     16  C   UNL     1     143.958  73.906 219.917 -0.36 -0.01    +0.039 A  
DOCKED: ATOM     17  C   UNL     1     142.297  72.585 221.025 -0.22 -0.00    +0.039 A  
DOCKED: ATOM     18  C   UNL     1     143.501  72.681 220.355 -0.25 -0.02    +0.123 A  
DOCKED: ATOM     19  F   UNL     1     144.289  71.608 220.092 -0.06 +0.01    -0.207 F  
DOCKED: ENDBRANCH   9  13
DOCKED: ENDBRANCH   1   5
DOCKED: BRANCH   2  20
DOCKED: ATOM     20  C   UNL     1     137.656  73.060 220.939 -0.06 -0.05    +0.216 C  
DOCKED: BRANCH  20  21
DOCKED: ATOM     21  N   UNL     1     138.178  72.699 222.242 -0.07 +0.10    -0.342 N  
DOCKED: ATOM     22  C   UNL     1     138.886  71.462 222.331 -0.13 -0.06    +0.270 C  
DOCKED: ATOM     23  H   UNL     1     138.044  73.317 223.091 -0.50 -0.11    +0.164 HD 
DOCKED: ATOM     24  O   UNL     1     139.038  70.730 221.307 -0.06 +0.05    -0.268 OA 
DOCKED: BRANCH  22  25
DOCKED: ATOM     25  C   UNL     1     139.435  71.042 223.617 -0.29 -0.03    +0.128 A  
DOCKED: ATOM     26  C   UNL     1     140.326  71.860 224.279 -0.38 -0.01    +0.035 A  
DOCKED: ATOM     27  N   UNL     1     139.118  69.876 224.208 -0.17 +0.04    -0.243 NA 
DOCKED: ATOM     28  C   UNL     1     140.890  71.540 225.496 -0.56 -0.00    +0.013 A  
DOCKED: ATOM     29  C   UNL     1     139.650  69.518 225.407 -0.39 -0.01    +0.071 A  
DOCKED: ATOM     30  C   UNL     1     140.546  70.339 226.078 -0.55 -0.00    +0.003 A  
DOCKED: ATOM     31  C   UNL     1     139.314  68.317 226.000 -0.52 -0.00    +0.032 A  
DOCKED: ATOM     32  C   UNL     1     141.102  70.008 227.290 -0.52 -0.01    +0.049 A  
DOCKED: ATOM     33  C   UNL     1     139.866  67.963 227.229 -0.60 -0.01    +0.041 A  
DOCKED: ATOM     34  C   UNL     1     140.756  68.815 227.862 -0.54 -0.03    +0.123 A  
DOCKED: ATOM     35  F   UNL     1     141.315  68.505 229.058 -0.16 +0.05    -0.207 F  
DOCKED: ENDBRANCH  22  25
DOCKED: ENDBRANCH  20  21
DOCKED: ENDBRANCH   2  20
DOCKED: TORSDOF 6
DOCKED: TER
DOCKED: ENDMDL
________________________________________________________________________________


    FINAL DOCKED STATE:
    ________________________


Run:   18 / 20
Time taken for this run:   0.019s

DOCKED: MODEL        18
DOCKED: USER    Run = 18
DOCKED: USER
DOCKED: USER    Estimated Free Energy of Binding    =  -9.07 kcal/mol  [=(1)+(2)+(3)-(4)]
DOCKED: USER
DOCKED: USER    (1) Final Intermolecular Energy     = -10.86 kcal/mol
DOCKED: USER        vdW + Hbond + desolv Energy     = -10.86 kcal/mol
DOCKED: USER        Electrostatic Energy            =  +0.00 kcal/mol
DOCKED: USER        Moving Ligand-Fixed Receptor    = -10.86 kcal/mol
DOCKED: USER        Moving Ligand-Moving Receptor   =  +0.00 kcal/mol
DOCKED: USER    (2) Final Total Internal Energy     =  -1.66 kcal/mol
DOCKED: USER    (3) Torsional Free Energy           =  +1.79 kcal/mol
DOCKED: USER    (4) Unbound System's Energy         =  -1.66 kcal/mol
DOCKED: USER
DOCKED: USER
DOCKED: REMARK SMILES CC(C)[C@H]1C[C@H](NC(=O)CNC(=O)c2ccc3cc(F)ccc3n2)[C@H](c2ccc(F)cc2)C1
DOCKED: REMARK SMILES IDX 7 1 8 2 9 3 6 5 4 6 5 7 33 8 25 9 2 10 1 11 3 12 26 13 27 14
DOCKED: REMARK SMILES IDX 32 15 28 16 31 17 29 18 30 19 10 20 11 21 12 22 13 24 14 25
DOCKED: REMARK SMILES IDX 15 26 24 27 16 28 23 29 17 30 22 31 18 32 21 33 19 34 20 35
DOCKED: REMARK H PARENT 7 4 11 23
DOCKED: USER                              x       y       z     vdW  Elec       q    Type
DOCKED: USER                           _______ _______ _______ _____ _____    ______ ____
DOCKED: ROOT
DOCKED: ATOM      1  N   UNL     1     140.563  76.826 221.051 -0.10 +0.12    -0.351 N  
DOCKED: ATOM      2  C   UNL     1     139.644  75.740 221.247 -0.18 -0.06    +0.239 C  
DOCKED: ATOM      3  O   UNL     1     138.450  76.005 221.551 -0.13 +0.06    -0.273 OA 
DOCKED: ATOM      4  H   UNL     1     141.543  76.620 220.804 -0.01 -0.08    +0.163 HD 
DOCKED: ENDROOT
DOCKED: BRANCH   1   5
DOCKED: ATOM      5  C   UNL     1     140.050  78.162 221.219 -0.20 -0.03    +0.089 C  
DOCKED: ATOM      6  C   UNL     1     141.548  78.668 222.998 -0.56 +0.00    -0.006 C  
DOCKED: ATOM      7  C   UNL     1     140.069  78.419 222.733 -0.38 -0.01    +0.029 C  
DOCKED: ATOM      8  C   UNL     1     142.193  78.952 221.660 -0.31 -0.01    +0.014 C  
DOCKED: ATOM      9  C   UNL     1     141.020  79.231 220.778 -0.27 -0.02    +0.042 C  
DOCKED: BRANCH   6  10
DOCKED: ATOM     10  C   UNL     1     141.740  79.895 223.851 -0.59 +0.00    -0.014 C  
DOCKED: ATOM     11  C   UNL     1     140.640  80.876 223.559 -0.45 -0.00    +0.007 C  
DOCKED: ATOM     12  C   UNL     1     143.064  80.536 223.556 -0.66 -0.00    +0.007 C  
DOCKED: ENDBRANCH   6  10
DOCKED: BRANCH   9  13
DOCKED: ATOM     13  C   UNL     1     141.304  79.248 219.342 -0.21 +0.02    -0.043 A  
DOCKED: ATOM     14  C   UNL     1     142.254  78.400 218.841 -0.29 -0.00    +0.007 A  
DOCKED: ATOM     15  C   UNL     1     140.628  80.103 218.500 -0.12 -0.00    +0.007 A  
DOCKED: ATOM     16  C   UNL     1     142.549  78.390 217.479 -0.28 -0.03    +0.039 A  
DOCKED: ATOM     17  C   UNL     1     140.913  80.103 217.134 -0.10 -0.02    +0.039 A  
DOCKED: ATOM     18  C   UNL     1     141.873  79.245 216.635 -0.15 -0.11    +0.123 A  
DOCKED: ATOM     19  F   UNL     1     142.204  79.189 215.320 -0.04 +0.22    -0.207 F  
DOCKED: ENDBRANCH   9  13
DOCKED: ENDBRANCH   1   5
DOCKED: BRANCH   2  20
DOCKED: ATOM     20  C   UNL     1     140.154  74.354 221.079 -0.18 -0.04    +0.216 C  
DOCKED: BRANCH  20  21
DOCKED: ATOM     21  N   UNL     1     139.960  73.613 222.310 -0.11 +0.03    -0.342 N  
DOCKED: ATOM     22  C   UNL     1     140.413  72.259 222.324 -0.21 -0.03    +0.270 C  
DOCKED: ATOM     23  H   UNL     1     139.506  74.048 223.161 -0.51 -0.03    +0.164 HD 
DOCKED: ATOM     24  O   UNL     1     140.956  71.749 221.297 -0.14 +0.03    -0.268 OA 
DOCKED: BRANCH  22  25
DOCKED: ATOM     25  C   UNL     1     140.246  71.460 223.534 -0.32 -0.02    +0.128 A  
DOCKED: ATOM     26  C   UNL     1     139.606  70.240 223.464 -0.27 -0.01    +0.035 A  
DOCKED: ATOM     27  N   UNL     1     140.689  71.851 224.742 -0.27 +0.03    -0.243 NA 
DOCKED: ATOM     28  C   UNL     1     139.407  69.423 224.557 -0.35 -0.00    +0.013 A  
DOCKED: ATOM     29  C   UNL     1     140.516  71.079 225.848 -0.54 -0.01    +0.071 A  
DOCKED: ATOM     30  C   UNL     1     139.872  69.850 225.783 -0.47 -0.00    +0.003 A  
DOCKED: ATOM     31  C   UNL     1     140.977  71.495 227.081 -0.73 -0.01    +0.032 A  
DOCKED: ATOM     32  C   UNL     1     139.680  69.047 226.880 -0.52 -0.01    +0.049 A  
DOCKED: ATOM     33  C   UNL     1     140.793  70.695 228.206 -0.59 -0.01    +0.041 A  
DOCKED: ATOM     34  C   UNL     1     140.145  69.476 228.093 -0.52 -0.02    +0.123 A  
DOCKED: ATOM     35  F   UNL     1     139.946  68.669 229.164 -0.11 +0.03    -0.207 F  
DOCKED: ENDBRANCH  22  25
DOCKED: ENDBRANCH  20  21
DOCKED: ENDBRANCH   2  20
DOCKED: TORSDOF 6
DOCKED: TER
DOCKED: ENDMDL
________________________________________________________________________________


    FINAL DOCKED STATE:
    ________________________


Run:   19 / 20
Time taken for this run:   0.019s

DOCKED: MODEL        19
DOCKED: USER    Run = 19
DOCKED: USER
DOCKED: USER    Estimated Free Energy of Binding    =  -7.15 kcal/mol  [=(1)+(2)+(3)-(4)]
DOCKED: USER
DOCKED: USER    (1) Final Intermolecular Energy     =  -8.94 kcal/mol
DOCKED: USER        vdW + Hbond + desolv Energy     =  -8.77 kcal/mol
DOCKED: USER        Electrostatic Energy            =  -0.17 kcal/mol
DOCKED: USER        Moving Ligand-Fixed Receptor    =  -8.94 kcal/mol
DOCKED: USER        Moving Ligand-Moving Receptor   =  +0.00 kcal/mol
DOCKED: USER    (2) Final Total Internal Energy     =  -3.28 kcal/mol
DOCKED: USER    (3) Torsional Free Energy           =  +1.79 kcal/mol
DOCKED: USER    (4) Unbound System's Energy         =  -3.28 kcal/mol
DOCKED: USER
DOCKED: USER
DOCKED: REMARK SMILES CC(C)[C@H]1C[C@H](NC(=O)CNC(=O)c2ccc3cc(F)ccc3n2)[C@H](c2ccc(F)cc2)C1
DOCKED: REMARK SMILES IDX 7 1 8 2 9 3 6 5 4 6 5 7 33 8 25 9 2 10 1 11 3 12 26 13 27 14
DOCKED: REMARK SMILES IDX 32 15 28 16 31 17 29 18 30 19 10 20 11 21 12 22 13 24 14 25
DOCKED: REMARK SMILES IDX 15 26 24 27 16 28 23 29 17 30 22 31 18 32 21 33 19 34 20 35
DOCKED: REMARK H PARENT 7 4 11 23
DOCKED: USER                              x       y       z     vdW  Elec       q    Type
DOCKED: USER                           _______ _______ _______ _____ _____    ______ ____
DOCKED: ROOT
DOCKED: ATOM      1  N   UNL     1     139.452  77.844 221.541 -0.06 +0.09    -0.351 N  
DOCKED: ATOM      2  C   UNL     1     138.631  77.082 220.642 -0.06 -0.06    +0.239 C  
DOCKED: ATOM      3  O   UNL     1     138.276  77.608 219.553 -0.01 +0.06    -0.273 OA 
DOCKED: ATOM      4  H   UNL     1     139.747  77.423 222.435 +0.07 -0.04    +0.163 HD 
DOCKED: ENDROOT
DOCKED: BRANCH   1   5
DOCKED: ATOM      5  C   UNL     1     139.817  79.176 221.132 -0.16 -0.02    +0.089 C  
DOCKED: ATOM      6  C   UNL     1     140.908  79.664 223.190 -0.51 +0.00    -0.006 C  
DOCKED: ATOM      7  C   UNL     1     139.669  80.044 222.390 -0.29 -0.01    +0.029 C  
DOCKED: ATOM      8  C   UNL     1     141.857  78.978 222.232 -0.49 -0.01    +0.014 C  
DOCKED: ATOM      9  C   UNL     1     141.298  79.341 220.895 -0.31 -0.02    +0.042 C  
DOCKED: BRANCH   6  10
DOCKED: ATOM     10  C   UNL     1     141.611  80.893 223.705 -0.56 +0.00    -0.014 C  
DOCKED: ATOM     11  C   UNL     1     141.433  82.013 222.718 -0.33 -0.00    +0.007 C  
DOCKED: ATOM     12  C   UNL     1     143.075  80.622 223.885 -0.62 -0.00    +0.007 C  
DOCKED: ENDBRANCH   6  10
DOCKED: BRANCH   9  13
DOCKED: ATOM     13  C   UNL     1     141.829  78.576 219.764 -0.27 +0.03    -0.043 A  
DOCKED: ATOM     14  C   UNL     1     142.213  77.278 219.961 -0.33 -0.00    +0.007 A  
DOCKED: ATOM     15  C   UNL     1     141.941  79.150 218.517 -0.28 -0.00    +0.007 A  
DOCKED: ATOM     16  C   UNL     1     142.720  76.521 218.907 -0.31 -0.02    +0.039 A  
DOCKED: ATOM     17  C   UNL     1     142.449  78.403 217.453 -0.27 -0.03    +0.039 A  
DOCKED: ATOM     18  C   UNL     1     142.835  77.093 217.658 -0.24 -0.08    +0.123 A  
DOCKED: ATOM     19  F   UNL     1     143.336  76.306 216.672 -0.07 +0.13    -0.207 F  
DOCKED: ENDBRANCH   9  13
DOCKED: ENDBRANCH   1   5
DOCKED: BRANCH   2  20
DOCKED: ATOM     20  C   UNL     1     138.244  75.705 221.046 -0.10 -0.05    +0.216 C  
DOCKED: BRANCH  20  21
DOCKED: ATOM     21  N   UNL     1     139.258  74.767 220.606 -0.04 +0.07    -0.342 N  
DOCKED: ATOM     22  C   UNL     1     140.493  74.773 221.323 -0.20 -0.05    +0.270 C  
DOCKED: ATOM     23  H   UNL     1     139.098  74.107 219.795 +0.03 -0.03    +0.164 HD 
DOCKED: ATOM     24  O   UNL     1     140.672  75.569 222.294 -0.50 +0.04    -0.268 OA 
DOCKED: BRANCH  22  25
DOCKED: ATOM     25  C   UNL     1     141.555  73.853 220.929 -0.22 -0.02    +0.128 A  
DOCKED: ATOM     26  C   UNL     1     141.244  72.549 220.607 -0.18 -0.01    +0.035 A  
DOCKED: ATOM     27  N   UNL     1     142.851  74.209 220.860 -0.16 +0.07    -0.243 NA 
DOCKED: ATOM     28  C   UNL     1     142.185  71.616 220.224 -0.18 -0.00    +0.013 A  
DOCKED: ATOM     29  C   UNL     1     143.814  73.323 220.487 -0.34 -0.01    +0.071 A  
DOCKED: ATOM     30  C   UNL     1     143.505  72.009 220.162 -0.27 -0.00    +0.003 A  
DOCKED: ATOM     31  C   UNL     1     145.139  73.705 220.422 -0.55 -0.01    +0.032 A  
DOCKED: ATOM     32  C   UNL     1     144.452  71.090 219.782 -0.23 +0.00    +0.049 A  
DOCKED: ATOM     33  C   UNL     1     146.114  72.788 220.039 -0.45 +0.02    +0.041 A  
DOCKED: ATOM     34  C   UNL     1     145.759  71.487 219.722 -0.20 +0.06    +0.123 A  
DOCKED: ATOM     35  F   UNL     1     146.680  70.565 219.347 -0.06 -0.25    -0.207 F  
DOCKED: ENDBRANCH  22  25
DOCKED: ENDBRANCH  20  21
DOCKED: ENDBRANCH   2  20
DOCKED: TORSDOF 6
DOCKED: TER
DOCKED: ENDMDL
________________________________________________________________________________


    FINAL DOCKED STATE:
    ________________________


Run:   20 / 20
Time taken for this run:   0.019s

DOCKED: MODEL        20
DOCKED: USER    Run = 20
DOCKED: USER
DOCKED: USER    Estimated Free Energy of Binding    =  -7.01 kcal/mol  [=(1)+(2)+(3)-(4)]
DOCKED: USER
DOCKED: USER    (1) Final Intermolecular Energy     =  -8.80 kcal/mol
DOCKED: USER        vdW + Hbond + desolv Energy     =  -8.69 kcal/mol
DOCKED: USER        Electrostatic Energy            =  -0.11 kcal/mol
DOCKED: USER        Moving Ligand-Fixed Receptor    =  -8.80 kcal/mol
DOCKED: USER        Moving Ligand-Moving Receptor   =  +0.00 kcal/mol
DOCKED: USER    (2) Final Total Internal Energy     =  -3.00 kcal/mol
DOCKED: USER    (3) Torsional Free Energy           =  +1.79 kcal/mol
DOCKED: USER    (4) Unbound System's Energy         =  -3.00 kcal/mol
DOCKED: USER
DOCKED: USER
DOCKED: REMARK SMILES CC(C)[C@H]1C[C@H](NC(=O)CNC(=O)c2ccc3cc(F)ccc3n2)[C@H](c2ccc(F)cc2)C1
DOCKED: REMARK SMILES IDX 7 1 8 2 9 3 6 5 4 6 5 7 33 8 25 9 2 10 1 11 3 12 26 13 27 14
DOCKED: REMARK SMILES IDX 32 15 28 16 31 17 29 18 30 19 10 20 11 21 12 22 13 24 14 25
DOCKED: REMARK SMILES IDX 15 26 24 27 16 28 23 29 17 30 22 31 18 32 21 33 19 34 20 35
DOCKED: REMARK H PARENT 7 4 11 23
DOCKED: USER                              x       y       z     vdW  Elec       q    Type
DOCKED: USER                           _______ _______ _______ _____ _____    ______ ____
DOCKED: ROOT
DOCKED: ATOM      1  N   UNL     1     139.882  75.795 221.327 -0.12 +0.08    -0.351 N  
DOCKED: ATOM      2  C   UNL     1     139.644  74.406 221.603 -0.20 -0.04    +0.239 C  
DOCKED: ATOM      3  O   UNL     1     140.589  73.709 222.063 -0.77 +0.00    -0.273 OA 
DOCKED: ATOM      4  H   UNL     1     139.116  76.373 220.948 +0.05 -0.04    +0.163 HD 
DOCKED: ENDROOT
DOCKED: BRANCH   1   5
DOCKED: ATOM      5  C   UNL     1     141.202  76.304 221.599 -0.22 -0.04    +0.089 C  
DOCKED: ATOM      6  C   UNL     1     141.679  76.699 219.300 -0.23 +0.00    -0.006 C  
DOCKED: ATOM      7  C   UNL     1     142.083  75.787 220.452 -0.25 -0.01    +0.029 C  
DOCKED: ATOM      8  C   UNL     1     140.963  77.885 219.908 -0.21 -0.01    +0.014 C  
DOCKED: ATOM      9  C   UNL     1     141.329  77.788 221.354 -0.32 -0.02    +0.042 C  
DOCKED: BRANCH   6  10
DOCKED: ATOM     10  C   UNL     1     142.894  77.233 218.588 -0.33 +0.01    -0.014 C  
DOCKED: ATOM     11  C   UNL     1     142.582  78.594 218.033 -0.32 -0.01    +0.007 C  
DOCKED: ATOM     12  C   UNL     1     143.287  76.320 217.465 -0.26 -0.00    +0.007 C  
DOCKED: ENDBRANCH   6  10
DOCKED: BRANCH   9  13
DOCKED: ATOM     13  C   UNL     1     140.543  78.630 222.258 -0.35 +0.01    -0.043 A  
DOCKED: ATOM     14  C   UNL     1     139.198  78.409 222.371 -0.28 -0.00    +0.007 A  
DOCKED: ATOM     15  C   UNL     1     141.144  79.631 222.988 -0.49 -0.00    +0.007 A  
DOCKED: ATOM     16  C   UNL     1     138.420  79.191 223.224 -0.28 -0.01    +0.039 A  
DOCKED: ATOM     17  C   UNL     1     140.377  80.421 223.845 -0.39 -0.01    +0.039 A  
DOCKED: ATOM     18  C   UNL     1     139.019  80.194 223.955 -0.34 -0.01    +0.123 A  
DOCKED: ATOM     19  F   UNL     1     138.210  80.921 224.767 -0.14 +0.02    -0.207 F  
DOCKED: ENDBRANCH   9  13
DOCKED: ENDBRANCH   1   5
DOCKED: BRANCH   2  20
DOCKED: ATOM     20  C   UNL     1     138.288  73.861 221.329 -0.11 -0.05    +0.216 C  
DOCKED: BRANCH  20  21
DOCKED: ATOM     21  N   UNL     1     137.366  74.323 222.348 -0.05 +0.12    -0.342 N  
DOCKED: ATOM     22  C   UNL     1     136.847  75.645 222.194 -0.13 -0.06    +0.270 C  
DOCKED: ATOM     23  H   UNL     1     137.086  73.715 223.168 -0.47 -0.09    +0.164 HD 
DOCKED: ATOM     24  O   UNL     1     137.191  76.362 221.206 -0.05 +0.05    -0.268 OA 
DOCKED: BRANCH  22  25
DOCKED: ATOM     25  C   UNL     1     135.914  76.168 223.187 -0.20 -0.02    +0.128 A  
DOCKED: ATOM     26  C   UNL     1     135.399  77.439 223.037 -0.15 -0.00    +0.035 A  
DOCKED: ATOM     27  N   UNL     1     135.517  75.469 224.265 -0.21 +0.04    -0.243 NA 
DOCKED: ATOM     28  C   UNL     1     134.513  78.008 223.927 -0.15 -0.00    +0.013 A  
DOCKED: ATOM     29  C   UNL     1     134.645  75.989 225.170 -0.29 -0.01    +0.071 A  
DOCKED: ATOM     30  C   UNL     1     134.123  77.268 225.023 -0.15 -0.00    +0.003 A  
DOCKED: ATOM     31  C   UNL     1     134.247  75.258 226.271 -0.38 +0.00    +0.032 A  
DOCKED: ATOM     32  C   UNL     1     133.242  77.823 225.917 -0.20 -0.01    +0.049 A  
DOCKED: ATOM     33  C   UNL     1     133.354  75.803 227.189 -0.34 +0.00    +0.041 A  
DOCKED: ATOM     34  C   UNL     1     132.859  77.084 227.002 -0.28 -0.01    +0.123 A  
DOCKED: ATOM     35  F   UNL     1     131.988  77.649 227.874 -0.07 -0.01    -0.207 F  
DOCKED: ENDBRANCH  22  25
DOCKED: ENDBRANCH  20  21
DOCKED: ENDBRANCH   2  20
DOCKED: TORSDOF 6
DOCKED: TER
DOCKED: ENDMDL
________________________________________________________________________________


    CLUSTERING HISTOGRAM
    ____________________


________________________________________________________________________________
     |           |     |           |     |
Clus | Lowest    | Run | Mean      | Num | Histogram
-ter | Binding   |     | Binding   | in  |
Rank | Energy    |     | Energy    | Clus|    5    10   15   20   25   30   35
_____|___________|_____|___________|_____|____:____|____:____|____:____|____:___
   1 |     -9.27 |   9 |     -8.98 |   6 |######
   2 |     -8.88 |   6 |     -8.76 |   2 |##
   3 |     -8.43 |   3 |     -8.09 |   6 |######
   4 |     -7.63 |   7 |     -7.63 |   1 |#
   5 |     -7.20 |   4 |     -7.20 |   1 |#
   6 |     -7.16 |  16 |     -7.06 |   3 |###
   7 |     -7.01 |  20 |     -7.01 |   1 |#
_____|___________|_____|___________|_____|______________________________________


    RMSD TABLE
    __________


_______________________________________________________________________
     |      |      |           |         |                 |
Rank | Sub- | Run  | Binding   | Cluster | Reference       | Grep
     | Rank |      | Energy    | RMSD    | RMSD            | Pattern
_____|______|______|___________|_________|_________________|___________
   1      1      9       -9.27      0.00    271.07           RANKING
   1      2     12       -9.10      0.40    271.08           RANKING
   1      3     18       -9.07      0.36    271.04           RANKING
   1      4      2       -9.00      0.60    271.05           RANKING
   1      5     11       -8.76      0.74    270.96           RANKING
   1      6      1       -8.69      0.79    270.98           RANKING
   2      1      6       -8.88      0.00    270.92           RANKING
   2      2      5       -8.64      0.45    270.82           RANKING
   3      1      3       -8.43      0.00    270.59           RANKING
   3      2     17       -8.38      0.13    270.61           RANKING
   3      3      8       -8.25      0.39    270.56           RANKING
   3      4     14       -8.15      0.43    270.53           RANKING
   3      5     10       -8.00      0.62    270.38           RANKING
   3      6     13       -7.30      1.29    270.24           RANKING
   4      1      7       -7.63      0.00    269.96           RANKING
   5      1      4       -7.20      0.00    269.73           RANKING
   6      1     16       -7.16      0.00    270.31           RANKING
   6      2     19       -7.15      0.05    270.30           RANKING
   6      3     15       -6.87      0.80    270.13           RANKING
   7      1     20       -7.01      0.00    270.46           RANKING

Run time 0.357 sec
Idle time 0.000 sec
