AutoDock-GPU version: v1.6

**********************************************************
**    AutoDock-GPU AUTODOCKTOOLS-COMPATIBLE DLG FILE    **
**********************************************************


    DOCKING PARAMETERS
    ________________________


Ligand file:                               /home/a/REINVENT4/ReinventStudies/pleaseWork/justmol2mol_4_Compounds_ontop/graph-dock-hn62wh/graph-DockGPU/node-autodockgpu/inputs/MIKPBGFZXFMRHA-PWCLMUQJNA-N.pdbqt
Grid fld file:                             /home/a/REINVENT4/ReinventStudies/mols/Rad51/maps/rad51_receptor.maps.fld

Random seed:                               42
Number of runs:                            20
Number of energy evaluations:              1259779
Number of generations:                     42000
Size of population:                        150
Rate of crossover:                         80.000000%
Tournament selection probability limit:    60.000000%
Rate of mutation:                          2.000000%
Maximal allowed delta movement:            +/- 6.000000A
Maximal allowed delta angle:               +/- 90.000000

Rate of local search:                      100.000000%
Maximal number of local search iterations: 300
Rho lower bound:                           0.010000
Spread of local search delta movement:     2.000000A
Spread of local search delta angle:        74.999999
Limit of consecutive successes/failures:   4

Handle symmetry during clustering:         YES
RMSD tolerance:                            2.000000A

Program call in command line was:          /home/a/REINVENT4/ReinventStudies/adgpu-v1.6_linux_x64_cuda12_128wi --filelist batch.txt --heuristics 1 --nrun 20 --psize 150 --lsit 300 --seed 42 --heurmax 12000000 


    GRID PARAMETERS
    ________________________


Receptor name:                             rad51_receptor
Number of grid points (x, y, z):           53, 53, 53
Grid center (x, y, z):                     139.950000, 75.640000, 221.970000A
Grid size (x, y, z):                       19.500000, 19.500000, 19.500000A
Grid spacing:                              0.375000A


    LIGAND PARAMETERS
    ________________________


Ligand name:                               /home/a/REINVENT4/ReinventStudies/pleaseWork/justmol2mol_4_Compounds_ontop/graph-dock-hn62wh/graph-DockGPU/node-autodockgpu/inputs/MIKPBGFZXFMRHA-PWCLMUQJNA-N
Number of atoms:                           32
Number of rotatable bonds:                 7
Number of atom types:                      7


    DUMMY DATA (only for ADT-compatibility)
    ________________________


DPF> outlev 1
DPF> ga_run 20
DPF> fld /home/a/REINVENT4/ReinventStudies/mols/Rad51/maps/rad51_receptor.maps.fld
DPF> move /home/a/REINVENT4/ReinventStudies/pleaseWork/justmol2mol_4_Compounds_ontop/graph-dock-hn62wh/graph-DockGPU/node-autodockgpu/inputs/MIKPBGFZXFMRHA-PWCLMUQJNA-N.pdbqt


    COUNTER STATES
    ________________________


Number of energy evaluations performed:    554470
Number of generations used:                30


    INPUT LIGAND PDBQT FILE:
    ________________________


INPUT-LIGAND-PDBQT: REMARK SMILES O=C(NCC(=O)N1CC[C@H](O)[C@H]1Cc1ccccc1)c1ccc2cc(F)ccc2n1
INPUT-LIGAND-PDBQT: REMARK SMILES IDX 4 1 3 2 2 3 1 4 20 6 21 7 30 8 22 9 29 10 23 11 28 12 24 13
INPUT-LIGAND-PDBQT: REMARK SMILES IDX 27 14 25 15 26 16 5 17 6 18 7 19 8 20 12 21 9 22 10 23 13 24
INPUT-LIGAND-PDBQT: REMARK SMILES IDX 14 25 15 26 19 27 16 28 18 29 17 30 11 31
INPUT-LIGAND-PDBQT: REMARK H PARENT 3 5 11 32
INPUT-LIGAND-PDBQT: ROOT
INPUT-LIGAND-PDBQT: ATOM      1  C   UNL     1       0.673  -1.749  -0.515  1.00  0.00     0.216 C 
INPUT-LIGAND-PDBQT: ENDROOT
INPUT-LIGAND-PDBQT: BRANCH   1   2
INPUT-LIGAND-PDBQT: ATOM      2  N   UNL     1       2.003  -1.211  -0.432  1.00  0.00    -0.342 N 
INPUT-LIGAND-PDBQT: ATOM      3  C   UNL     1       2.442  -0.441   0.672  1.00  0.00     0.270 C 
INPUT-LIGAND-PDBQT: ATOM      4  O   UNL     1       1.698  -0.176   1.654  1.00  0.00    -0.268 OA
INPUT-LIGAND-PDBQT: ATOM      5  H   UNL     1       2.694  -1.388  -1.220  1.00  0.00     0.164 HD
INPUT-LIGAND-PDBQT: BRANCH   3   6
INPUT-LIGAND-PDBQT: ATOM      6  C   UNL     1       3.827   0.067   0.664  1.00  0.00     0.128 A 
INPUT-LIGAND-PDBQT: ATOM      7  C   UNL     1       4.313   0.823   1.711  1.00  0.00     0.035 A 
INPUT-LIGAND-PDBQT: ATOM      8  N   UNL     1       4.659  -0.201  -0.384  1.00  0.00    -0.243 NA
INPUT-LIGAND-PDBQT: ATOM      9  C   UNL     1       5.625   1.304   1.702  1.00  0.00     0.013 A 
INPUT-LIGAND-PDBQT: ATOM     10  C   UNL     1       5.929   0.240  -0.437  1.00  0.00     0.071 A 
INPUT-LIGAND-PDBQT: ATOM     11  C   UNL     1       6.426   0.996   0.604  1.00  0.00     0.003 A 
INPUT-LIGAND-PDBQT: ATOM     12  C   UNL     1       6.662  -0.101  -1.550  1.00  0.00     0.032 A 
INPUT-LIGAND-PDBQT: ATOM     13  C   UNL     1       7.740   1.450   0.544  1.00  0.00     0.049 A 
INPUT-LIGAND-PDBQT: ATOM     14  C   UNL     1       7.971   0.354  -1.604  1.00  0.00     0.041 A 
INPUT-LIGAND-PDBQT: ATOM     15  C   UNL     1       8.492   1.116  -0.569  1.00  0.00     0.123 A 
INPUT-LIGAND-PDBQT: ATOM     16  F   UNL     1       9.789   1.539  -0.672  1.00  0.00    -0.207 F 
INPUT-LIGAND-PDBQT: ENDBRANCH   3   6
INPUT-LIGAND-PDBQT: ENDBRANCH   1   2
INPUT-LIGAND-PDBQT: BRANCH   1  17
INPUT-LIGAND-PDBQT: ATOM     17  C   UNL     1      -0.368  -0.693  -0.484  1.00  0.00     0.242 C 
INPUT-LIGAND-PDBQT: ATOM     18  O   UNL     1      -0.037   0.537  -0.392  1.00  0.00    -0.273 OA
INPUT-LIGAND-PDBQT: BRANCH  17  19
INPUT-LIGAND-PDBQT: ATOM     19  N   UNL     1      -1.732  -1.068  -0.557  1.00  0.00    -0.335 N 
INPUT-LIGAND-PDBQT: ATOM     20  C   UNL     1      -2.267  -2.411  -0.664  1.00  0.00     0.122 C 
INPUT-LIGAND-PDBQT: ATOM     21  C   UNL     1      -2.886  -0.170  -0.541  1.00  0.00     0.118 C 
INPUT-LIGAND-PDBQT: ATOM     22  C   UNL     1      -3.686  -2.278  -1.146  1.00  0.00     0.055 C 
INPUT-LIGAND-PDBQT: ATOM     23  C   UNL     1      -3.803  -0.838  -1.526  1.00  0.00     0.139 C 
INPUT-LIGAND-PDBQT: BRANCH  21  24
INPUT-LIGAND-PDBQT: ATOM     24  C   UNL     1      -3.430  -0.215   0.884  1.00  0.00     0.063 C 
INPUT-LIGAND-PDBQT: BRANCH  24  25
INPUT-LIGAND-PDBQT: ATOM     25  C   UNL     1      -4.608   0.689   0.938  1.00  0.00    -0.046 A 
INPUT-LIGAND-PDBQT: ATOM     26  C   UNL     1      -5.895   0.281   0.688  1.00  0.00     0.004 A 
INPUT-LIGAND-PDBQT: ATOM     27  C   UNL     1      -4.412   2.020   1.257  1.00  0.00     0.004 A 
INPUT-LIGAND-PDBQT: ATOM     28  C   UNL     1      -6.974   1.135   0.742  1.00  0.00     0.000 A 
INPUT-LIGAND-PDBQT: ATOM     29  C   UNL     1      -5.461   2.924   1.325  1.00  0.00     0.000 A 
INPUT-LIGAND-PDBQT: ATOM     30  C   UNL     1      -6.735   2.455   1.063  1.00  0.00     0.000 A 
INPUT-LIGAND-PDBQT: ENDBRANCH  24  25
INPUT-LIGAND-PDBQT: ENDBRANCH  21  24
INPUT-LIGAND-PDBQT: BRANCH  23  31
INPUT-LIGAND-PDBQT: ATOM     31  O   UNL     1      -3.194  -0.677  -2.790  1.00  0.00    -0.391 OA
INPUT-LIGAND-PDBQT: ATOM     32  H   UNL     1      -2.857  -1.524  -3.155  1.00  0.00     0.211 HD
INPUT-LIGAND-PDBQT: ENDBRANCH  23  31
INPUT-LIGAND-PDBQT: ENDBRANCH  17  19
INPUT-LIGAND-PDBQT: ENDBRANCH   1  17
INPUT-LIGAND-PDBQT: TORSDOF 7


    FINAL DOCKED STATE:
    ________________________


Run:   1 / 20
Time taken for this run:   0.025s

DOCKED: MODEL        1
DOCKED: USER    Run = 1
DOCKED: USER
DOCKED: USER    Estimated Free Energy of Binding    =  -8.83 kcal/mol  [=(1)+(2)+(3)-(4)]
DOCKED: USER
DOCKED: USER    (1) Final Intermolecular Energy     = -10.92 kcal/mol
DOCKED: USER        vdW + Hbond + desolv Energy     = -10.84 kcal/mol
DOCKED: USER        Electrostatic Energy            =  -0.09 kcal/mol
DOCKED: USER        Moving Ligand-Fixed Receptor    = -10.92 kcal/mol
DOCKED: USER        Moving Ligand-Moving Receptor   =  +0.00 kcal/mol
DOCKED: USER    (2) Final Total Internal Energy     =  -1.82 kcal/mol
DOCKED: USER    (3) Torsional Free Energy           =  +2.09 kcal/mol
DOCKED: USER    (4) Unbound System's Energy         =  -1.82 kcal/mol
DOCKED: USER
DOCKED: USER
DOCKED: REMARK SMILES O=C(NCC(=O)N1CC[C@H](O)[C@H]1Cc1ccccc1)c1ccc2cc(F)ccc2n1
DOCKED: REMARK SMILES IDX 4 1 3 2 2 3 1 4 20 6 21 7 30 8 22 9 29 10 23 11 28 12 24 13
DOCKED: REMARK SMILES IDX 27 14 25 15 26 16 5 17 6 18 7 19 8 20 12 21 9 22 10 23 13 24
DOCKED: REMARK SMILES IDX 14 25 15 26 19 27 16 28 18 29 17 30 11 31
DOCKED: REMARK H PARENT 3 5 11 32
DOCKED: USER                              x       y       z     vdW  Elec       q    Type
DOCKED: USER                           _______ _______ _______ _____ _____    ______ ____
DOCKED: ROOT
DOCKED: ATOM      1  C   UNL     1     139.497  74.200 221.224 -0.17 -0.04    +0.216 C  
DOCKED: ENDROOT
DOCKED: BRANCH   1   2
DOCKED: ATOM      2  N   UNL     1     139.552  73.289 222.334 -0.14 +0.06    -0.342 N  
DOCKED: ATOM      3  C   UNL     1     139.575  71.884 222.161 -0.17 -0.05    +0.270 C  
DOCKED: ATOM      4  O   UNL     1     139.549  71.339 221.025 -0.06 +0.05    -0.268 OA 
DOCKED: ATOM      5  H   UNL     1     139.576  73.667 223.327 -0.47 -0.04    +0.164 HD 
DOCKED: BRANCH   3   6
DOCKED: ATOM      6  C   UNL     1     139.632  71.032 223.364 -0.28 -0.02    +0.128 A  
DOCKED: ATOM      7  C   UNL     1     139.170  69.732 223.337 -0.24 -0.01    +0.035 A  
DOCKED: ATOM      8  N   UNL     1     140.145  71.514 224.533 -0.29 +0.04    -0.243 NA 
DOCKED: ATOM      9  C   UNL     1     139.224  68.926 224.478 -0.35 -0.00    +0.013 A  
DOCKED: ATOM     10  C   UNL     1     140.218  70.777 225.656 -0.49 -0.01    +0.071 A  
DOCKED: ATOM     11  C   UNL     1     139.759  69.476 225.641 -0.45 -0.00    +0.003 A  
DOCKED: ATOM     12  C   UNL     1     140.757  71.383 226.767 -0.68 -0.01    +0.032 A  
DOCKED: ATOM     13  C   UNL     1     139.837  68.717 226.805 -0.55 -0.01    +0.049 A  
DOCKED: ATOM     14  C   UNL     1     140.832  70.622 227.924 -0.64 -0.01    +0.041 A  
DOCKED: ATOM     15  C   UNL     1     140.377  69.312 227.932 -0.53 -0.02    +0.123 A  
DOCKED: ATOM     16  F   UNL     1     140.474  68.605 229.100 -0.15 +0.04    -0.207 F  
DOCKED: ENDBRANCH   3   6
DOCKED: ENDBRANCH   1   2
DOCKED: BRANCH   1  17
DOCKED: ATOM     17  C   UNL     1     140.058  75.532 221.557 -0.23 -0.05    +0.242 C  
DOCKED: ATOM     18  O   UNL     1     139.902  76.025 222.725 -0.39 +0.04    -0.273 OA 
DOCKED: BRANCH  17  19
DOCKED: ATOM     19  N   UNL     1     140.768  76.249 220.562 -0.08 +0.12    -0.335 N  
DOCKED: ATOM     20  C   UNL     1     140.633  76.119 219.124 -0.08 -0.04    +0.122 C  
DOCKED: ATOM     21  C   UNL     1     141.789  77.272 220.784 -0.18 -0.07    +0.118 C  
DOCKED: ATOM     22  C   UNL     1     141.863  76.734 218.514 -0.19 -0.03    +0.055 C  
DOCKED: ATOM     23  C   UNL     1     142.764  76.971 219.681 -0.24 -0.10    +0.139 C  
DOCKED: BRANCH  21  24
DOCKED: ATOM     24  C   UNL     1     141.086  78.612 220.590 -0.25 -0.03    +0.063 C  
DOCKED: BRANCH  24  25
DOCKED: ATOM     25  C   UNL     1     141.497  79.495 221.713 -0.38 +0.02    -0.046 A  
DOCKED: ATOM     26  C   UNL     1     142.182  79.055 222.818 -0.56 -0.00    +0.004 A  
DOCKED: ATOM     27  C   UNL     1     141.178  80.839 221.654 -0.38 -0.00    +0.004 A  
DOCKED: ATOM     28  C   UNL     1     142.553  79.889 223.849 -0.60 -0.00    +0.000 A  
DOCKED: ATOM     29  C   UNL     1     141.525  81.724 222.663 -0.47 -0.00    +0.000 A  
DOCKED: ATOM     30  C   UNL     1     142.214  81.223 223.752 -0.64 -0.00    +0.000 A  
DOCKED: ENDBRANCH  24  25
DOCKED: ENDBRANCH  21  24
DOCKED: BRANCH  23  31
DOCKED: ATOM     31  O   UNL     1     143.360  75.736 220.020 -0.23 +0.24    -0.391 OA 
DOCKED: ATOM     32  H   UNL     1     143.270  75.525 220.975 -0.26 -0.16    +0.211 HD 
DOCKED: ENDBRANCH  23  31
DOCKED: ENDBRANCH  17  19
DOCKED: ENDBRANCH   1  17
DOCKED: TORSDOF 7
DOCKED: TER
DOCKED: ENDMDL
________________________________________________________________________________


    FINAL DOCKED STATE:
    ________________________


Run:   2 / 20
Time taken for this run:   0.025s

DOCKED: MODEL        2
DOCKED: USER    Run = 2
DOCKED: USER
DOCKED: USER    Estimated Free Energy of Binding    =  -8.47 kcal/mol  [=(1)+(2)+(3)-(4)]
DOCKED: USER
DOCKED: USER    (1) Final Intermolecular Energy     = -10.55 kcal/mol
DOCKED: USER        vdW + Hbond + desolv Energy     = -10.48 kcal/mol
DOCKED: USER        Electrostatic Energy            =  -0.07 kcal/mol
DOCKED: USER        Moving Ligand-Fixed Receptor    = -10.55 kcal/mol
DOCKED: USER        Moving Ligand-Moving Receptor   =  +0.00 kcal/mol
DOCKED: USER    (2) Final Total Internal Energy     =  -1.91 kcal/mol
DOCKED: USER    (3) Torsional Free Energy           =  +2.09 kcal/mol
DOCKED: USER    (4) Unbound System's Energy         =  -1.91 kcal/mol
DOCKED: USER
DOCKED: USER
DOCKED: REMARK SMILES O=C(NCC(=O)N1CC[C@H](O)[C@H]1Cc1ccccc1)c1ccc2cc(F)ccc2n1
DOCKED: REMARK SMILES IDX 4 1 3 2 2 3 1 4 20 6 21 7 30 8 22 9 29 10 23 11 28 12 24 13
DOCKED: REMARK SMILES IDX 27 14 25 15 26 16 5 17 6 18 7 19 8 20 12 21 9 22 10 23 13 24
DOCKED: REMARK SMILES IDX 14 25 15 26 19 27 16 28 18 29 17 30 11 31
DOCKED: REMARK H PARENT 3 5 11 32
DOCKED: USER                              x       y       z     vdW  Elec       q    Type
DOCKED: USER                           _______ _______ _______ _____ _____    ______ ____
DOCKED: ROOT
DOCKED: ATOM      1  C   UNL     1     138.664  73.870 221.873 -0.12 -0.06    +0.216 C  
DOCKED: ENDROOT
DOCKED: BRANCH   1   2
DOCKED: ATOM      2  N   UNL     1     139.139  75.175 222.245 -0.16 +0.07    -0.342 N  
DOCKED: ATOM      3  C   UNL     1     138.302  76.317 222.237 -0.19 -0.06    +0.270 C  
DOCKED: ATOM      4  O   UNL     1     137.088  76.267 221.904 -0.11 +0.06    -0.268 OA 
DOCKED: ATOM      5  H   UNL     1     140.152  75.303 222.539 +0.01 -0.00    +0.164 HD 
DOCKED: BRANCH   3   6
DOCKED: ATOM      6  C   UNL     1     138.884  77.613 222.636 -0.25 -0.02    +0.128 A  
DOCKED: ATOM      7  C   UNL     1     138.078  78.697 222.919 -0.23 -0.01    +0.035 A  
DOCKED: ATOM      8  N   UNL     1     140.236  77.766 222.734 -0.23 +0.06    -0.243 NA 
DOCKED: ATOM      9  C   UNL     1     138.630  79.924 223.296 -0.34 -0.00    +0.013 A  
DOCKED: ATOM     10  C   UNL     1     140.813  78.927 223.093 -0.45 -0.02    +0.071 A  
DOCKED: ATOM     11  C   UNL     1     140.018  80.017 223.379 -0.44 -0.00    +0.003 A  
DOCKED: ATOM     12  C   UNL     1     142.187  78.949 223.154 -0.54 -0.01    +0.032 A  
DOCKED: ATOM     13  C   UNL     1     140.620  81.216 223.750 -0.27 -0.01    +0.049 A  
DOCKED: ATOM     14  C   UNL     1     142.781  80.146 223.525 -0.63 -0.01    +0.041 A  
DOCKED: ATOM     15  C   UNL     1     142.002  81.255 223.816 -0.52 -0.02    +0.123 A  
DOCKED: ATOM     16  F   UNL     1     142.638  82.411 224.177 +0.01 +0.00    -0.207 F  
DOCKED: ENDBRANCH   3   6
DOCKED: ENDBRANCH   1   2
DOCKED: BRANCH   1  17
DOCKED: ATOM     17  C   UNL     1     139.580  72.789 222.309 -0.18 -0.05    +0.242 C  
DOCKED: ATOM     18  O   UNL     1     140.843  72.978 222.319 -0.60 +0.00    -0.273 OA 
DOCKED: BRANCH  17  19
DOCKED: ATOM     19  N   UNL     1     139.035  71.545 222.713 -0.12 +0.08    -0.335 N  
DOCKED: ATOM     20  C   UNL     1     138.676  70.428 221.861 -0.12 -0.02    +0.122 C  
DOCKED: ATOM     21  C   UNL     1     138.720  71.133 224.080 -0.26 -0.03    +0.118 C  
DOCKED: ATOM     22  C   UNL     1     137.758  69.546 222.663 -0.16 -0.01    +0.055 C  
DOCKED: ATOM     23  C   UNL     1     137.448  70.359 223.877 -0.20 -0.02    +0.139 C  
DOCKED: BRANCH  21  24
DOCKED: ATOM     24  C   UNL     1     139.877  70.243 224.525 -0.37 -0.01    +0.063 C  
DOCKED: BRANCH  24  25
DOCKED: ATOM     25  C   UNL     1     140.314  70.719 225.863 -0.53 +0.01    -0.046 A  
DOCKED: ATOM     26  C   UNL     1     141.032  71.872 226.066 -0.62 -0.00    +0.004 A  
DOCKED: ATOM     27  C   UNL     1     139.986  69.968 226.976 -0.56 -0.00    +0.004 A  
DOCKED: ATOM     28  C   UNL     1     141.429  72.295 227.315 -0.81 -0.00    +0.000 A  
DOCKED: ATOM     29  C   UNL     1     140.359  70.346 228.257 -0.60 -0.00    +0.000 A  
DOCKED: ATOM     30  C   UNL     1     141.081  71.517 228.399 -0.71 -0.00    +0.000 A  
DOCKED: ENDBRANCH  24  25
DOCKED: ENDBRANCH  21  24
DOCKED: BRANCH  23  31
DOCKED: ATOM     31  O   UNL     1     136.471  71.313 223.517 -0.08 +0.08    -0.391 OA 
DOCKED: ATOM     32  H   UNL     1     136.741  72.230 223.740 -0.11 -0.07    +0.211 HD 
DOCKED: ENDBRANCH  23  31
DOCKED: ENDBRANCH  17  19
DOCKED: ENDBRANCH   1  17
DOCKED: TORSDOF 7
DOCKED: TER
DOCKED: ENDMDL
________________________________________________________________________________


    FINAL DOCKED STATE:
    ________________________


Run:   3 / 20
Time taken for this run:   0.025s

DOCKED: MODEL        3
DOCKED: USER    Run = 3
DOCKED: USER
DOCKED: USER    Estimated Free Energy of Binding    =  -7.35 kcal/mol  [=(1)+(2)+(3)-(4)]
DOCKED: USER
DOCKED: USER    (1) Final Intermolecular Energy     =  -9.44 kcal/mol
DOCKED: USER        vdW + Hbond + desolv Energy     =  -9.38 kcal/mol
DOCKED: USER        Electrostatic Energy            =  -0.07 kcal/mol
DOCKED: USER        Moving Ligand-Fixed Receptor    =  -9.44 kcal/mol
DOCKED: USER        Moving Ligand-Moving Receptor   =  +0.00 kcal/mol
DOCKED: USER    (2) Final Total Internal Energy     =  -3.32 kcal/mol
DOCKED: USER    (3) Torsional Free Energy           =  +2.09 kcal/mol
DOCKED: USER    (4) Unbound System's Energy         =  -3.32 kcal/mol
DOCKED: USER
DOCKED: USER
DOCKED: REMARK SMILES O=C(NCC(=O)N1CC[C@H](O)[C@H]1Cc1ccccc1)c1ccc2cc(F)ccc2n1
DOCKED: REMARK SMILES IDX 4 1 3 2 2 3 1 4 20 6 21 7 30 8 22 9 29 10 23 11 28 12 24 13
DOCKED: REMARK SMILES IDX 27 14 25 15 26 16 5 17 6 18 7 19 8 20 12 21 9 22 10 23 13 24
DOCKED: REMARK SMILES IDX 14 25 15 26 19 27 16 28 18 29 17 30 11 31
DOCKED: REMARK H PARENT 3 5 11 32
DOCKED: USER                              x       y       z     vdW  Elec       q    Type
DOCKED: USER                           _______ _______ _______ _____ _____    ______ ____
DOCKED: ROOT
DOCKED: ATOM      1  C   UNL     1     139.720  73.973 221.502 -0.19 -0.04    +0.216 C  
DOCKED: ENDROOT
DOCKED: BRANCH   1   2
DOCKED: ATOM      2  N   UNL     1     138.569  74.299 222.298 +0.02 +0.11    -0.342 N  
DOCKED: ATOM      3  C   UNL     1     137.887  75.534 222.175 -0.15 -0.07    +0.270 C  
DOCKED: ATOM      4  O   UNL     1     138.243  76.429 221.362 -0.09 +0.06    -0.268 OA 
DOCKED: ATOM      5  H   UNL     1     138.204  73.599 223.009 -0.53 -0.11    +0.164 HD 
DOCKED: BRANCH   3   6
DOCKED: ATOM      6  C   UNL     1     136.715  75.774 223.038 -0.22 -0.03    +0.128 A  
DOCKED: ATOM      7  C   UNL     1     136.120  77.018 223.099 -0.20 -0.01    +0.035 A  
DOCKED: ATOM      8  N   UNL     1     136.193  74.767 223.797 -0.07 +0.08    -0.243 NA 
DOCKED: ATOM      9  C   UNL     1     135.009  77.244 223.916 -0.16 -0.00    +0.013 A  
DOCKED: ATOM     10  C   UNL     1     135.126  74.937 224.599 -0.31 -0.01    +0.071 A  
DOCKED: ATOM     11  C   UNL     1     134.523  76.176 224.667 -0.26 -0.00    +0.003 A  
DOCKED: ATOM     12  C   UNL     1     134.700  73.840 225.311 -0.29 -0.00    +0.032 A  
DOCKED: ATOM     13  C   UNL     1     133.420  76.346 225.498 -0.23 -0.00    +0.049 A  
DOCKED: ATOM     14  C   UNL     1     133.600  74.016 226.137 -0.32 +0.00    +0.041 A  
DOCKED: ATOM     15  C   UNL     1     132.977  75.253 226.222 -0.26 -0.00    +0.123 A  
DOCKED: ATOM     16  F   UNL     1     131.896  75.372 227.051 -0.08 +0.01    -0.207 F  
DOCKED: ENDBRANCH   3   6
DOCKED: ENDBRANCH   1   2
DOCKED: BRANCH   1  17
DOCKED: ATOM     17  C   UNL     1     140.303  72.658 221.860 -0.20 -0.03    +0.242 C  
DOCKED: ATOM     18  O   UNL     1     141.547  72.431 221.679 -0.20 +0.02    -0.273 OA 
DOCKED: BRANCH  17  19
DOCKED: ATOM     19  N   UNL     1     139.461  71.657 222.406 -0.12 +0.06    -0.335 N  
DOCKED: ATOM     20  C   UNL     1     138.782  70.597 221.688 -0.11 -0.02    +0.122 C  
DOCKED: ATOM     21  C   UNL     1     139.103  71.491 223.814 -0.22 -0.03    +0.118 C  
DOCKED: ATOM     22  C   UNL     1     137.694  70.085 222.593 -0.14 -0.01    +0.055 C  
DOCKED: ATOM     23  C   UNL     1     137.663  71.074 223.712 -0.19 -0.03    +0.139 C  
DOCKED: BRANCH  21  24
DOCKED: ATOM     24  C   UNL     1     139.996  70.372 224.342 -0.35 -0.01    +0.063 C  
DOCKED: BRANCH  24  25
DOCKED: ATOM     25  C   UNL     1     140.343  70.708 225.748 -0.53 +0.01    -0.046 A  
DOCKED: ATOM     26  C   UNL     1     139.989  69.935 226.826 -0.55 -0.00    +0.004 A  
DOCKED: ATOM     27  C   UNL     1     141.062  71.862 225.999 -0.61 -0.00    +0.004 A  
DOCKED: ATOM     28  C   UNL     1     140.319  70.264 228.122 -0.63 -0.00    +0.000 A  
DOCKED: ATOM     29  C   UNL     1     141.420  72.243 227.283 -0.82 -0.00    +0.000 A  
DOCKED: ATOM     30  C   UNL     1     141.036  71.424 228.329 -0.75 -0.00    +0.000 A  
DOCKED: ENDBRANCH  24  25
DOCKED: ENDBRANCH  21  24
DOCKED: BRANCH  23  31
DOCKED: ATOM     31  O   UNL     1     136.963  72.214 223.258 -0.10 +0.12    -0.391 OA 
DOCKED: ATOM     32  H   UNL     1     137.014  72.963 223.891 -0.53 -0.13    +0.211 HD 
DOCKED: ENDBRANCH  23  31
DOCKED: ENDBRANCH  17  19
DOCKED: ENDBRANCH   1  17
DOCKED: TORSDOF 7
DOCKED: TER
DOCKED: ENDMDL
________________________________________________________________________________


    FINAL DOCKED STATE:
    ________________________


Run:   4 / 20
Time taken for this run:   0.025s

DOCKED: MODEL        4
DOCKED: USER    Run = 4
DOCKED: USER
DOCKED: USER    Estimated Free Energy of Binding    =  -7.55 kcal/mol  [=(1)+(2)+(3)-(4)]
DOCKED: USER
DOCKED: USER    (1) Final Intermolecular Energy     =  -9.63 kcal/mol
DOCKED: USER        vdW + Hbond + desolv Energy     =  -9.62 kcal/mol
DOCKED: USER        Electrostatic Energy            =  -0.02 kcal/mol
DOCKED: USER        Moving Ligand-Fixed Receptor    =  -9.63 kcal/mol
DOCKED: USER        Moving Ligand-Moving Receptor   =  +0.00 kcal/mol
DOCKED: USER    (2) Final Total Internal Energy     =  -3.28 kcal/mol
DOCKED: USER    (3) Torsional Free Energy           =  +2.09 kcal/mol
DOCKED: USER    (4) Unbound System's Energy         =  -3.28 kcal/mol
DOCKED: USER
DOCKED: USER
DOCKED: REMARK SMILES O=C(NCC(=O)N1CC[C@H](O)[C@H]1Cc1ccccc1)c1ccc2cc(F)ccc2n1
DOCKED: REMARK SMILES IDX 4 1 3 2 2 3 1 4 20 6 21 7 30 8 22 9 29 10 23 11 28 12 24 13
DOCKED: REMARK SMILES IDX 27 14 25 15 26 16 5 17 6 18 7 19 8 20 12 21 9 22 10 23 13 24
DOCKED: REMARK SMILES IDX 14 25 15 26 19 27 16 28 18 29 17 30 11 31
DOCKED: REMARK H PARENT 3 5 11 32
DOCKED: USER                              x       y       z     vdW  Elec       q    Type
DOCKED: USER                           _______ _______ _______ _____ _____    ______ ____
DOCKED: ROOT
DOCKED: ATOM      1  C   UNL     1     138.432  74.576 221.734 -0.14 -0.06    +0.216 C  
DOCKED: ENDROOT
DOCKED: BRANCH   1   2
DOCKED: ATOM      2  N   UNL     1     137.358  74.404 222.673 +0.23 +0.15    -0.342 N  
DOCKED: ATOM      3  C   UNL     1     136.575  75.488 223.138 -0.13 -0.08    +0.270 C  
DOCKED: ATOM      4  O   UNL     1     136.767  76.675 222.760 -0.17 +0.05    -0.268 OA 
DOCKED: ATOM      5  H   UNL     1     137.131  73.433 223.043 -0.42 -0.08    +0.164 HD 
DOCKED: BRANCH   3   6
DOCKED: ATOM      6  C   UNL     1     135.494  75.208 224.102 -0.26 -0.03    +0.128 A  
DOCKED: ATOM      7  C   UNL     1     134.672  76.217 224.561 -0.25 -0.00    +0.035 A  
DOCKED: ATOM      8  N   UNL     1     135.285  73.941 224.563 -0.19 +0.04    -0.243 NA 
DOCKED: ATOM      9  C   UNL     1     133.649  75.950 225.475 -0.27 -0.00    +0.013 A  
DOCKED: ATOM     10  C   UNL     1     134.314  73.636 225.442 -0.28 -0.00    +0.071 A  
DOCKED: ATOM     11  C   UNL     1     133.485  74.636 225.907 -0.32 -0.00    +0.003 A  
DOCKED: ATOM     12  C   UNL     1     134.210  72.319 225.825 -0.27 -0.00    +0.032 A  
DOCKED: ATOM     13  C   UNL     1     132.482  74.315 226.817 -0.35 -0.00    +0.049 A  
DOCKED: ATOM     14  C   UNL     1     133.208  72.005 226.732 -0.39 -0.00    +0.041 A  
DOCKED: ATOM     15  C   UNL     1     132.363  72.994 227.213 -0.36 -0.02    +0.123 A  
DOCKED: ATOM     16  F   UNL     1     131.391  72.631 228.105 -0.14 +0.06    -0.207 F  
DOCKED: ENDBRANCH   3   6
DOCKED: ENDBRANCH   1   2
DOCKED: BRANCH   1  17
DOCKED: ATOM     17  C   UNL     1     139.549  73.630 221.971 -0.18 -0.04    +0.242 C  
DOCKED: ATOM     18  O   UNL     1     140.756  73.993 221.769 -0.62 +0.02    -0.273 OA 
DOCKED: BRANCH  17  19
DOCKED: ATOM     19  N   UNL     1     139.257  72.319 222.422 -0.13 +0.08    -0.335 N  
DOCKED: ATOM     20  C   UNL     1     138.898  71.172 221.610 -0.12 -0.02    +0.122 C  
DOCKED: ATOM     21  C   UNL     1     139.256  71.853 223.808 +0.19 -0.04    +0.118 C  
DOCKED: ATOM     22  C   UNL     1     138.269  70.165 222.533 -0.16 -0.01    +0.055 C  
DOCKED: ATOM     23  C   UNL     1     138.082  70.915 223.811 -0.22 -0.03    +0.139 C  
DOCKED: BRANCH  21  24
DOCKED: ATOM     24  C   UNL     1     140.583  71.126 224.005 -0.33 -0.01    +0.063 C  
DOCKED: BRANCH  24  25
DOCKED: ATOM     25  C   UNL     1     140.731  70.859 225.459 -0.54 +0.01    -0.046 A  
DOCKED: ATOM     26  C   UNL     1     140.946  71.839 226.396 -0.68 -0.00    +0.004 A  
DOCKED: ATOM     27  C   UNL     1     140.650  69.554 225.909 -0.50 -0.00    +0.004 A  
DOCKED: ATOM     28  C   UNL     1     141.083  71.572 227.740 -0.81 -0.00    +0.000 A  
DOCKED: ATOM     29  C   UNL     1     140.781  69.227 227.250 -0.61 -0.00    +0.000 A  
DOCKED: ATOM     30  C   UNL     1     140.996  70.257 228.147 -0.60 -0.00    +0.000 A  
DOCKED: ENDBRANCH  24  25
DOCKED: ENDBRANCH  21  24
DOCKED: BRANCH  23  31
DOCKED: ATOM     31  O   UNL     1     136.937  71.730 223.667 -0.11 +0.10    -0.391 OA 
DOCKED: ATOM     32  H   UNL     1     136.978  72.536 224.225 -0.48 -0.10    +0.211 HD 
DOCKED: ENDBRANCH  23  31
DOCKED: ENDBRANCH  17  19
DOCKED: ENDBRANCH   1  17
DOCKED: TORSDOF 7
DOCKED: TER
DOCKED: ENDMDL
________________________________________________________________________________


    FINAL DOCKED STATE:
    ________________________


Run:   5 / 20
Time taken for this run:   0.025s

DOCKED: MODEL        5
DOCKED: USER    Run = 5
DOCKED: USER
DOCKED: USER    Estimated Free Energy of Binding    =  -8.66 kcal/mol  [=(1)+(2)+(3)-(4)]
DOCKED: USER
DOCKED: USER    (1) Final Intermolecular Energy     = -10.75 kcal/mol
DOCKED: USER        vdW + Hbond + desolv Energy     = -10.67 kcal/mol
DOCKED: USER        Electrostatic Energy            =  -0.08 kcal/mol
DOCKED: USER        Moving Ligand-Fixed Receptor    = -10.75 kcal/mol
DOCKED: USER        Moving Ligand-Moving Receptor   =  +0.00 kcal/mol
DOCKED: USER    (2) Final Total Internal Energy     =  -2.18 kcal/mol
DOCKED: USER    (3) Torsional Free Energy           =  +2.09 kcal/mol
DOCKED: USER    (4) Unbound System's Energy         =  -2.18 kcal/mol
DOCKED: USER
DOCKED: USER
DOCKED: REMARK SMILES O=C(NCC(=O)N1CC[C@H](O)[C@H]1Cc1ccccc1)c1ccc2cc(F)ccc2n1
DOCKED: REMARK SMILES IDX 4 1 3 2 2 3 1 4 20 6 21 7 30 8 22 9 29 10 23 11 28 12 24 13
DOCKED: REMARK SMILES IDX 27 14 25 15 26 16 5 17 6 18 7 19 8 20 12 21 9 22 10 23 13 24
DOCKED: REMARK SMILES IDX 14 25 15 26 19 27 16 28 18 29 17 30 11 31
DOCKED: REMARK H PARENT 3 5 11 32
DOCKED: USER                              x       y       z     vdW  Elec       q    Type
DOCKED: USER                           _______ _______ _______ _____ _____    ______ ____
DOCKED: ROOT
DOCKED: ATOM      1  C   UNL     1     138.606  74.145 221.333 -0.13 -0.05    +0.216 C  
DOCKED: ENDROOT
DOCKED: BRANCH   1   2
DOCKED: ATOM      2  N   UNL     1     138.731  73.130 222.343 -0.05 +0.11    -0.342 N  
DOCKED: ATOM      3  C   UNL     1     139.985  72.605 222.739 -0.16 -0.04    +0.270 C  
DOCKED: ATOM      4  O   UNL     1     141.073  72.990 222.234 -0.50 -0.00    -0.268 OA 
DOCKED: ATOM      5  H   UNL     1     137.860  72.749 222.819 -0.27 -0.07    +0.164 HD 
DOCKED: BRANCH   3   6
DOCKED: ATOM      6  C   UNL     1     140.008  71.565 223.786 -0.34 -0.02    +0.128 A  
DOCKED: ATOM      7  C   UNL     1     139.548  70.290 223.531 -0.28 -0.01    +0.035 A  
DOCKED: ATOM      8  N   UNL     1     140.487  71.846 225.032 -0.27 +0.04    -0.243 NA 
DOCKED: ATOM      9  C   UNL     1     139.571  69.306 224.524 -0.34 -0.00    +0.013 A  
DOCKED: ATOM     10  C   UNL     1     140.529  70.933 226.019 -0.54 -0.01    +0.071 A  
DOCKED: ATOM     11  C   UNL     1     140.073  69.654 225.776 -0.47 -0.00    +0.003 A  
DOCKED: ATOM     12  C   UNL     1     141.036  71.345 227.230 -0.72 -0.01    +0.032 A  
DOCKED: ATOM     13  C   UNL     1     140.118  68.713 226.801 -0.57 -0.01    +0.049 A  
DOCKED: ATOM     14  C   UNL     1     141.079  70.402 228.247 -0.54 -0.01    +0.041 A  
DOCKED: ATOM     15  C   UNL     1     140.625  69.111 228.026 -0.53 -0.02    +0.123 A  
DOCKED: ATOM     16  F   UNL     1     140.690  68.220 229.062 -0.18 +0.05    -0.207 F  
DOCKED: ENDBRANCH   3   6
DOCKED: ENDBRANCH   1   2
DOCKED: BRANCH   1  17
DOCKED: ATOM     17  C   UNL     1     139.463  75.324 221.605 -0.21 -0.05    +0.242 C  
DOCKED: ATOM     18  O   UNL     1     139.345  75.968 222.701 -0.37 +0.05    -0.273 OA 
DOCKED: BRANCH  17  19
DOCKED: ATOM     19  N   UNL     1     140.413  75.724 220.633 -0.08 +0.09    -0.335 N  
DOCKED: ATOM     20  C   UNL     1     140.384  75.442 219.212 -0.06 -0.03    +0.122 C  
DOCKED: ATOM     21  C   UNL     1     141.626  76.507 220.868 -0.15 -0.06    +0.118 C  
DOCKED: ATOM     22  C   UNL     1     141.777  75.676 218.692 -0.14 -0.02    +0.055 C  
DOCKED: ATOM     23  C   UNL     1     142.597  75.850 219.928 -0.26 -0.07    +0.139 C  
DOCKED: BRANCH  21  24
DOCKED: ATOM     24  C   UNL     1     141.287  77.935 220.452 -0.26 -0.03    +0.063 C  
DOCKED: BRANCH  24  25
DOCKED: ATOM     25  C   UNL     1     141.595  78.819 221.606 -0.37 +0.02    -0.046 A  
DOCKED: ATOM     26  C   UNL     1     141.995  80.126 221.481 -0.43 -0.00    +0.004 A  
DOCKED: ATOM     27  C   UNL     1     141.477  78.308 222.886 -0.51 -0.00    +0.004 A  
DOCKED: ATOM     28  C   UNL     1     142.277  80.929 222.564 -0.55 -0.00    +0.000 A  
DOCKED: ATOM     29  C   UNL     1     141.749  79.070 224.012 -0.60 -0.00    +0.000 A  
DOCKED: ATOM     30  C   UNL     1     142.148  80.381 223.823 -0.64 -0.00    +0.000 A  
DOCKED: ENDBRANCH  24  25
DOCKED: ENDBRANCH  21  24
DOCKED: BRANCH  23  31
DOCKED: ATOM     31  O   UNL     1     142.844  74.567 220.464 -0.17 +0.14    -0.391 OA 
DOCKED: ATOM     32  H   UNL     1     142.410  74.433 221.334 +0.02 -0.06    +0.211 HD 
DOCKED: ENDBRANCH  23  31
DOCKED: ENDBRANCH  17  19
DOCKED: ENDBRANCH   1  17
DOCKED: TORSDOF 7
DOCKED: TER
DOCKED: ENDMDL
________________________________________________________________________________


    FINAL DOCKED STATE:
    ________________________


Run:   6 / 20
Time taken for this run:   0.025s

DOCKED: MODEL        6
DOCKED: USER    Run = 6
DOCKED: USER
DOCKED: USER    Estimated Free Energy of Binding    =  -6.95 kcal/mol  [=(1)+(2)+(3)-(4)]
DOCKED: USER
DOCKED: USER    (1) Final Intermolecular Energy     =  -9.04 kcal/mol
DOCKED: USER        vdW + Hbond + desolv Energy     =  -9.02 kcal/mol
DOCKED: USER        Electrostatic Energy            =  -0.02 kcal/mol
DOCKED: USER        Moving Ligand-Fixed Receptor    =  -9.04 kcal/mol
DOCKED: USER        Moving Ligand-Moving Receptor   =  +0.00 kcal/mol
DOCKED: USER    (2) Final Total Internal Energy     =  -3.30 kcal/mol
DOCKED: USER    (3) Torsional Free Energy           =  +2.09 kcal/mol
DOCKED: USER    (4) Unbound System's Energy         =  -3.30 kcal/mol
DOCKED: USER
DOCKED: USER
DOCKED: REMARK SMILES O=C(NCC(=O)N1CC[C@H](O)[C@H]1Cc1ccccc1)c1ccc2cc(F)ccc2n1
DOCKED: REMARK SMILES IDX 4 1 3 2 2 3 1 4 20 6 21 7 30 8 22 9 29 10 23 11 28 12 24 13
DOCKED: REMARK SMILES IDX 27 14 25 15 26 16 5 17 6 18 7 19 8 20 12 21 9 22 10 23 13 24
DOCKED: REMARK SMILES IDX 14 25 15 26 19 27 16 28 18 29 17 30 11 31
DOCKED: REMARK H PARENT 3 5 11 32
DOCKED: USER                              x       y       z     vdW  Elec       q    Type
DOCKED: USER                           _______ _______ _______ _____ _____    ______ ____
DOCKED: ROOT
DOCKED: ATOM      1  C   UNL     1     138.602  75.011 221.814 -0.17 -0.05    +0.216 C  
DOCKED: ENDROOT
DOCKED: BRANCH   1   2
DOCKED: ATOM      2  N   UNL     1     137.491  74.873 222.714 +0.13 +0.14    -0.342 N  
DOCKED: ATOM      3  C   UNL     1     136.682  75.971 223.095 -0.17 -0.07    +0.270 C  
DOCKED: ATOM      4  O   UNL     1     136.882  77.141 222.670 -0.15 +0.05    -0.268 OA 
DOCKED: ATOM      5  H   UNL     1     137.255  73.919 223.118 -0.48 -0.10    +0.164 HD 
DOCKED: BRANCH   3   6
DOCKED: ATOM      6  C   UNL     1     135.563  75.727 224.025 -0.25 -0.02    +0.128 A  
DOCKED: ATOM      7  C   UNL     1     134.720  76.750 224.406 -0.19 -0.00    +0.035 A  
DOCKED: ATOM      8  N   UNL     1     135.340  74.479 224.529 -0.21 +0.04    -0.243 NA 
DOCKED: ATOM      9  C   UNL     1     133.661  76.518 225.288 -0.23 -0.00    +0.013 A  
DOCKED: ATOM     10  C   UNL     1     134.333  74.207 225.380 -0.30 -0.00    +0.071 A  
DOCKED: ATOM     11  C   UNL     1     133.483  75.222 225.768 -0.31 -0.00    +0.003 A  
DOCKED: ATOM     12  C   UNL     1     134.218  72.907 225.814 -0.28 +0.00    +0.032 A  
DOCKED: ATOM     13  C   UNL     1     132.445  74.935 226.649 -0.32 -0.00    +0.049 A  
DOCKED: ATOM     14  C   UNL     1     133.180  72.627 226.691 -0.38 -0.00    +0.041 A  
DOCKED: ATOM     15  C   UNL     1     132.314  73.632 227.095 -0.34 -0.01    +0.123 A  
DOCKED: ATOM     16  F   UNL     1     131.307  73.302 227.961 -0.15 +0.04    -0.207 F  
DOCKED: ENDBRANCH   3   6
DOCKED: ENDBRANCH   1   2
DOCKED: BRANCH   1  17
DOCKED: ATOM     17  C   UNL     1     139.454  73.798 221.775 -0.18 -0.05    +0.242 C  
DOCKED: ATOM     18  O   UNL     1     140.699  73.891 221.505 -0.44 +0.03    -0.273 OA 
DOCKED: BRANCH  17  19
DOCKED: ATOM     19  N   UNL     1     138.867  72.536 222.039 -0.10 +0.08    -0.335 N  
DOCKED: ATOM     20  C   UNL     1     138.264  71.631 221.080 -0.07 -0.02    +0.122 C  
DOCKED: ATOM     21  C   UNL     1     138.747  71.885 223.343 +0.05 -0.04    +0.118 C  
DOCKED: ATOM     22  C   UNL     1     137.413  70.669 221.862 -0.09 -0.01    +0.055 C  
DOCKED: ATOM     23  C   UNL     1     137.390  71.248 223.240 -0.16 -0.03    +0.139 C  
DOCKED: BRANCH  21  24
DOCKED: ATOM     24  C   UNL     1     139.871  70.855 223.401 -0.30 -0.01    +0.063 C  
DOCKED: BRANCH  24  25
DOCKED: ATOM     25  C   UNL     1     140.163  70.596 224.834 -0.43 +0.01    -0.046 A  
DOCKED: ATOM     26  C   UNL     1     140.685  71.536 225.689 -0.60 -0.00    +0.004 A  
DOCKED: ATOM     27  C   UNL     1     139.898  69.341 225.352 -0.43 -0.00    +0.004 A  
DOCKED: ATOM     28  C   UNL     1     140.949  71.276 227.015 -0.72 -0.00    +0.000 A  
DOCKED: ATOM     29  C   UNL     1     140.145  69.024 226.678 -0.57 -0.00    +0.000 A  
DOCKED: ATOM     30  C   UNL     1     140.672  70.011 227.491 -0.61 -0.00    +0.000 A  
DOCKED: ENDBRANCH  24  25
DOCKED: ENDBRANCH  21  24
DOCKED: BRANCH  23  31
DOCKED: ATOM     31  O   UNL     1     136.463  72.313 223.242 -0.10 +0.11    -0.391 OA 
DOCKED: ATOM     32  H   UNL     1     136.633  72.957 223.963 -0.46 -0.10    +0.211 HD 
DOCKED: ENDBRANCH  23  31
DOCKED: ENDBRANCH  17  19
DOCKED: ENDBRANCH   1  17
DOCKED: TORSDOF 7
DOCKED: TER
DOCKED: ENDMDL
________________________________________________________________________________


    FINAL DOCKED STATE:
    ________________________


Run:   7 / 20
Time taken for this run:   0.025s

DOCKED: MODEL        7
DOCKED: USER    Run = 7
DOCKED: USER
DOCKED: USER    Estimated Free Energy of Binding    =  -9.16 kcal/mol  [=(1)+(2)+(3)-(4)]
DOCKED: USER
DOCKED: USER    (1) Final Intermolecular Energy     = -11.25 kcal/mol
DOCKED: USER        vdW + Hbond + desolv Energy     = -11.12 kcal/mol
DOCKED: USER        Electrostatic Energy            =  -0.13 kcal/mol
DOCKED: USER        Moving Ligand-Fixed Receptor    = -11.25 kcal/mol
DOCKED: USER        Moving Ligand-Moving Receptor   =  +0.00 kcal/mol
DOCKED: USER    (2) Final Total Internal Energy     =  -1.46 kcal/mol
DOCKED: USER    (3) Torsional Free Energy           =  +2.09 kcal/mol
DOCKED: USER    (4) Unbound System's Energy         =  -1.46 kcal/mol
DOCKED: USER
DOCKED: USER
DOCKED: REMARK SMILES O=C(NCC(=O)N1CC[C@H](O)[C@H]1Cc1ccccc1)c1ccc2cc(F)ccc2n1
DOCKED: REMARK SMILES IDX 4 1 3 2 2 3 1 4 20 6 21 7 30 8 22 9 29 10 23 11 28 12 24 13
DOCKED: REMARK SMILES IDX 27 14 25 15 26 16 5 17 6 18 7 19 8 20 12 21 9 22 10 23 13 24
DOCKED: REMARK SMILES IDX 14 25 15 26 19 27 16 28 18 29 17 30 11 31
DOCKED: REMARK H PARENT 3 5 11 32
DOCKED: USER                              x       y       z     vdW  Elec       q    Type
DOCKED: USER                           _______ _______ _______ _____ _____    ______ ____
DOCKED: ROOT
DOCKED: ATOM      1  C   UNL     1     139.140  74.397 221.180 -0.15 -0.05    +0.216 C  
DOCKED: ENDROOT
DOCKED: BRANCH   1   2
DOCKED: ATOM      2  N   UNL     1     139.128  73.418 222.232 -0.09 +0.09    -0.342 N  
DOCKED: ATOM      3  C   UNL     1     140.222  72.554 222.477 -0.20 -0.03    +0.270 C  
DOCKED: ATOM      4  O   UNL     1     141.278  72.585 221.790 -0.24 +0.02    -0.268 OA 
DOCKED: ATOM      5  H   UNL     1     138.273  73.326 222.858 -0.50 -0.09    +0.164 HD 
DOCKED: BRANCH   3   6
DOCKED: ATOM      6  C   UNL     1     140.113  71.582 223.581 -0.33 -0.02    +0.128 A  
DOCKED: ATOM      7  C   UNL     1     139.507  70.357 223.393 -0.28 -0.01    +0.035 A  
DOCKED: ATOM      8  N   UNL     1     140.611  71.877 224.817 -0.27 +0.03    -0.243 NA 
DOCKED: ATOM      9  C   UNL     1     139.404  69.438 224.440 -0.34 -0.00    +0.013 A  
DOCKED: ATOM     10  C   UNL     1     140.536  71.024 225.855 -0.54 -0.01    +0.071 A  
DOCKED: ATOM     11  C   UNL     1     139.932  69.797 225.679 -0.46 -0.00    +0.003 A  
DOCKED: ATOM     12  C   UNL     1     141.078  71.444 227.048 -0.72 -0.01    +0.032 A  
DOCKED: ATOM     13  C   UNL     1     139.857  68.919 226.756 -0.53 -0.01    +0.049 A  
DOCKED: ATOM     14  C   UNL     1     140.999  70.564 228.117 -0.59 -0.01    +0.041 A  
DOCKED: ATOM     15  C   UNL     1     140.397  69.325 227.964 -0.53 -0.02    +0.123 A  
DOCKED: ATOM     16  F   UNL     1     140.347  68.495 229.050 -0.17 +0.04    -0.207 F  
DOCKED: ENDBRANCH   3   6
DOCKED: ENDBRANCH   1   2
DOCKED: BRANCH   1  17
DOCKED: ATOM     17  C   UNL     1     139.959  75.585 221.522 -0.23 -0.05    +0.242 C  
DOCKED: ATOM     18  O   UNL     1     139.958  76.049 222.712 -0.39 +0.04    -0.273 OA 
DOCKED: BRANCH  17  19
DOCKED: ATOM     19  N   UNL     1     140.740  76.197 220.511 -0.08 +0.11    -0.335 N  
DOCKED: ATOM     20  C   UNL     1     140.647  75.982 219.081 -0.07 -0.04    +0.122 C  
DOCKED: ATOM     21  C   UNL     1     141.808  77.177 220.707 -0.18 -0.07    +0.118 C  
DOCKED: ATOM     22  C   UNL     1     141.928  76.490 218.479 -0.18 -0.03    +0.055 C  
DOCKED: ATOM     23  C   UNL     1     142.801  76.754 219.662 -0.29 -0.09    +0.139 C  
DOCKED: BRANCH  21  24
DOCKED: ATOM     24  C   UNL     1     141.187  78.537 220.403 -0.25 -0.03    +0.063 C  
DOCKED: BRANCH  24  25
DOCKED: ATOM     25  C   UNL     1     141.499  79.433 221.547 -0.37 +0.02    -0.046 A  
DOCKED: ATOM     26  C   UNL     1     141.468  80.804 221.473 -0.40 -0.00    +0.004 A  
DOCKED: ATOM     27  C   UNL     1     141.842  78.868 222.761 -0.53 -0.00    +0.004 A  
DOCKED: ATOM     28  C   UNL     1     141.761  81.617 222.545 -0.48 -0.00    +0.000 A  
DOCKED: ATOM     29  C   UNL     1     142.148  79.638 223.872 -0.61 -0.00    +0.000 A  
DOCKED: ATOM     30  C   UNL     1     142.100  81.013 223.738 -0.63 -0.00    +0.000 A  
DOCKED: ENDBRANCH  24  25
DOCKED: ENDBRANCH  21  24
DOCKED: BRANCH  23  31
DOCKED: ATOM     31  O   UNL     1     143.317  75.514 220.100 -0.23 +0.22    -0.391 OA 
DOCKED: ATOM     32  H   UNL     1     143.133  75.345 221.050 -0.27 -0.14    +0.211 HD 
DOCKED: ENDBRANCH  23  31
DOCKED: ENDBRANCH  17  19
DOCKED: ENDBRANCH   1  17
DOCKED: TORSDOF 7
DOCKED: TER
DOCKED: ENDMDL
________________________________________________________________________________


    FINAL DOCKED STATE:
    ________________________


Run:   8 / 20
Time taken for this run:   0.025s

DOCKED: MODEL        8
DOCKED: USER    Run = 8
DOCKED: USER
DOCKED: USER    Estimated Free Energy of Binding    =  -8.83 kcal/mol  [=(1)+(2)+(3)-(4)]
DOCKED: USER
DOCKED: USER    (1) Final Intermolecular Energy     = -10.92 kcal/mol
DOCKED: USER        vdW + Hbond + desolv Energy     = -10.83 kcal/mol
DOCKED: USER        Electrostatic Energy            =  -0.09 kcal/mol
DOCKED: USER        Moving Ligand-Fixed Receptor    = -10.92 kcal/mol
DOCKED: USER        Moving Ligand-Moving Receptor   =  +0.00 kcal/mol
DOCKED: USER    (2) Final Total Internal Energy     =  -1.82 kcal/mol
DOCKED: USER    (3) Torsional Free Energy           =  +2.09 kcal/mol
DOCKED: USER    (4) Unbound System's Energy         =  -1.82 kcal/mol
DOCKED: USER
DOCKED: USER
DOCKED: REMARK SMILES O=C(NCC(=O)N1CC[C@H](O)[C@H]1Cc1ccccc1)c1ccc2cc(F)ccc2n1
DOCKED: REMARK SMILES IDX 4 1 3 2 2 3 1 4 20 6 21 7 30 8 22 9 29 10 23 11 28 12 24 13
DOCKED: REMARK SMILES IDX 27 14 25 15 26 16 5 17 6 18 7 19 8 20 12 21 9 22 10 23 13 24
DOCKED: REMARK SMILES IDX 14 25 15 26 19 27 16 28 18 29 17 30 11 31
DOCKED: REMARK H PARENT 3 5 11 32
DOCKED: USER                              x       y       z     vdW  Elec       q    Type
DOCKED: USER                           _______ _______ _______ _____ _____    ______ ____
DOCKED: ROOT
DOCKED: ATOM      1  C   UNL     1     139.547  74.182 221.204 -0.17 -0.04    +0.216 C  
DOCKED: ENDROOT
DOCKED: BRANCH   1   2
DOCKED: ATOM      2  N   UNL     1     139.586  73.277 222.320 -0.15 +0.06    -0.342 N  
DOCKED: ATOM      3  C   UNL     1     139.636  71.871 222.154 -0.17 -0.05    +0.270 C  
DOCKED: ATOM      4  O   UNL     1     139.650  71.321 221.021 -0.07 +0.05    -0.268 OA 
DOCKED: ATOM      5  H   UNL     1     139.577  73.660 223.311 -0.47 -0.04    +0.164 HD 
DOCKED: BRANCH   3   6
DOCKED: ATOM      6  C   UNL     1     139.674  71.026 223.362 -0.28 -0.02    +0.128 A  
DOCKED: ATOM      7  C   UNL     1     139.197  69.731 223.339 -0.24 -0.01    +0.035 A  
DOCKED: ATOM      8  N   UNL     1     140.183  71.509 224.533 -0.30 +0.04    -0.243 NA 
DOCKED: ATOM      9  C   UNL     1     139.233  68.931 224.485 -0.35 -0.00    +0.013 A  
DOCKED: ATOM     10  C   UNL     1     140.238  70.777 225.660 -0.50 -0.01    +0.071 A  
DOCKED: ATOM     11  C   UNL     1     139.765  69.481 225.649 -0.45 -0.00    +0.003 A  
DOCKED: ATOM     12  C   UNL     1     140.776  71.383 226.772 -0.68 -0.01    +0.032 A  
DOCKED: ATOM     13  C   UNL     1     139.824  68.729 226.818 -0.55 -0.01    +0.049 A  
DOCKED: ATOM     14  C   UNL     1     140.833  70.628 227.934 -0.64 -0.01    +0.041 A  
DOCKED: ATOM     15  C   UNL     1     140.362  69.323 227.946 -0.53 -0.02    +0.123 A  
DOCKED: ATOM     16  F   UNL     1     140.442  68.622 229.118 -0.13 +0.04    -0.207 F  
DOCKED: ENDBRANCH   3   6
DOCKED: ENDBRANCH   1   2
DOCKED: BRANCH   1  17
DOCKED: ATOM     17  C   UNL     1     140.078  75.524 221.546 -0.23 -0.05    +0.242 C  
DOCKED: ATOM     18  O   UNL     1     139.915  76.003 222.718 -0.40 +0.04    -0.273 OA 
DOCKED: BRANCH  17  19
DOCKED: ATOM     19  N   UNL     1     140.765  76.266 220.554 -0.08 +0.12    -0.335 N  
DOCKED: ATOM     20  C   UNL     1     140.607  76.164 219.116 -0.08 -0.04    +0.122 C  
DOCKED: ATOM     21  C   UNL     1     141.782  77.292 220.780 -0.19 -0.07    +0.118 C  
DOCKED: ATOM     22  C   UNL     1     141.821  76.801 218.498 -0.18 -0.03    +0.055 C  
DOCKED: ATOM     23  C   UNL     1     142.740  77.021 219.655 -0.24 -0.10    +0.139 C  
DOCKED: BRANCH  21  24
DOCKED: ATOM     24  C   UNL     1     141.066  78.631 220.625 -0.25 -0.03    +0.063 C  
DOCKED: BRANCH  24  25
DOCKED: ATOM     25  C   UNL     1     141.471  79.486 221.771 -0.38 +0.02    -0.046 A  
DOCKED: ATOM     26  C   UNL     1     141.874  78.991 222.987 -0.57 -0.00    +0.004 A  
DOCKED: ATOM     27  C   UNL     1     141.444  80.860 221.619 -0.41 -0.00    +0.004 A  
DOCKED: ATOM     28  C   UNL     1     142.244  79.801 224.037 -0.55 -0.00    +0.000 A  
DOCKED: ATOM     29  C   UNL     1     141.806  81.722 222.643 -0.46 -0.00    +0.000 A  
DOCKED: ATOM     30  C   UNL     1     142.203  81.166 223.844 -0.65 -0.00    +0.000 A  
DOCKED: ENDBRANCH  24  25
DOCKED: ENDBRANCH  21  24
DOCKED: BRANCH  23  31
DOCKED: ATOM     31  O   UNL     1     143.351  75.785 219.958 -0.23 +0.24    -0.391 OA 
DOCKED: ATOM     32  H   UNL     1     143.296  75.563 220.913 -0.26 -0.16    +0.211 HD 
DOCKED: ENDBRANCH  23  31
DOCKED: ENDBRANCH  17  19
DOCKED: ENDBRANCH   1  17
DOCKED: TORSDOF 7
DOCKED: TER
DOCKED: ENDMDL
________________________________________________________________________________


    FINAL DOCKED STATE:
    ________________________


Run:   9 / 20
Time taken for this run:   0.025s

DOCKED: MODEL        9
DOCKED: USER    Run = 9
DOCKED: USER
DOCKED: USER    Estimated Free Energy of Binding    =  -7.54 kcal/mol  [=(1)+(2)+(3)-(4)]
DOCKED: USER
DOCKED: USER    (1) Final Intermolecular Energy     =  -9.62 kcal/mol
DOCKED: USER        vdW + Hbond + desolv Energy     =  -9.60 kcal/mol
DOCKED: USER        Electrostatic Energy            =  -0.02 kcal/mol
DOCKED: USER        Moving Ligand-Fixed Receptor    =  -9.62 kcal/mol
DOCKED: USER        Moving Ligand-Moving Receptor   =  +0.00 kcal/mol
DOCKED: USER    (2) Final Total Internal Energy     =  -3.28 kcal/mol
DOCKED: USER    (3) Torsional Free Energy           =  +2.09 kcal/mol
DOCKED: USER    (4) Unbound System's Energy         =  -3.28 kcal/mol
DOCKED: USER
DOCKED: USER
DOCKED: REMARK SMILES O=C(NCC(=O)N1CC[C@H](O)[C@H]1Cc1ccccc1)c1ccc2cc(F)ccc2n1
DOCKED: REMARK SMILES IDX 4 1 3 2 2 3 1 4 20 6 21 7 30 8 22 9 29 10 23 11 28 12 24 13
DOCKED: REMARK SMILES IDX 27 14 25 15 26 16 5 17 6 18 7 19 8 20 12 21 9 22 10 23 13 24
DOCKED: REMARK SMILES IDX 14 25 15 26 19 27 16 28 18 29 17 30 11 31
DOCKED: REMARK H PARENT 3 5 11 32
DOCKED: USER                              x       y       z     vdW  Elec       q    Type
DOCKED: USER                           _______ _______ _______ _____ _____    ______ ____
DOCKED: ROOT
DOCKED: ATOM      1  C   UNL     1     138.410  74.588 221.720 -0.15 -0.06    +0.216 C  
DOCKED: ENDROOT
DOCKED: BRANCH   1   2
DOCKED: ATOM      2  N   UNL     1     137.333  74.426 222.658 +0.18 +0.14    -0.342 N  
DOCKED: ATOM      3  C   UNL     1     136.567  75.519 223.130 -0.14 -0.08    +0.270 C  
DOCKED: ATOM      4  O   UNL     1     136.777  76.705 222.761 -0.17 +0.05    -0.268 OA 
DOCKED: ATOM      5  H   UNL     1     137.090  73.456 223.020 -0.40 -0.08    +0.164 HD 
DOCKED: BRANCH   3   6
DOCKED: ATOM      6  C   UNL     1     135.481  75.249 224.092 -0.26 -0.02    +0.128 A  
DOCKED: ATOM      7  C   UNL     1     134.656  76.262 224.535 -0.25 -0.00    +0.035 A  
DOCKED: ATOM      8  N   UNL     1     135.271  73.987 224.565 -0.19 +0.04    -0.243 NA 
DOCKED: ATOM      9  C   UNL     1     133.629  76.005 225.447 -0.26 -0.00    +0.013 A  
DOCKED: ATOM     10  C   UNL     1     134.295  73.691 225.442 -0.28 -0.00    +0.071 A  
DOCKED: ATOM     11  C   UNL     1     133.463  74.695 225.893 -0.32 -0.00    +0.003 A  
DOCKED: ATOM     12  C   UNL     1     134.189  72.378 225.840 -0.27 -0.00    +0.032 A  
DOCKED: ATOM     13  C   UNL     1     132.456  74.385 226.801 -0.35 -0.00    +0.049 A  
DOCKED: ATOM     14  C   UNL     1     133.183  72.074 226.744 -0.39 -0.00    +0.041 A  
DOCKED: ATOM     15  C   UNL     1     132.335  73.068 227.211 -0.36 -0.02    +0.123 A  
DOCKED: ATOM     16  F   UNL     1     131.359  72.714 228.102 -0.15 +0.06    -0.207 F  
DOCKED: ENDBRANCH   3   6
DOCKED: ENDBRANCH   1   2
DOCKED: BRANCH   1  17
DOCKED: ATOM     17  C   UNL     1     139.523  73.640 221.967 -0.18 -0.04    +0.242 C  
DOCKED: ATOM     18  O   UNL     1     140.732  73.998 221.765 -0.63 +0.02    -0.273 OA 
DOCKED: BRANCH  17  19
DOCKED: ATOM     19  N   UNL     1     139.226  72.334 222.428 -0.13 +0.08    -0.335 N  
DOCKED: ATOM     20  C   UNL     1     138.861  71.183 221.625 -0.12 -0.02    +0.122 C  
DOCKED: ATOM     21  C   UNL     1     139.226  71.878 223.817 +0.25 -0.04    +0.118 C  
DOCKED: ATOM     22  C   UNL     1     138.229  70.185 222.556 -0.16 -0.01    +0.055 C  
DOCKED: ATOM     23  C   UNL     1     138.048  70.945 223.829 -0.21 -0.03    +0.139 C  
DOCKED: BRANCH  21  24
DOCKED: ATOM     24  C   UNL     1     140.550  71.146 224.016 -0.35 -0.01    +0.063 C  
DOCKED: BRANCH  24  25
DOCKED: ATOM     25  C   UNL     1     140.698  70.885 225.472 -0.54 +0.01    -0.046 A  
DOCKED: ATOM     26  C   UNL     1     140.902  71.870 226.406 -0.67 -0.00    +0.004 A  
DOCKED: ATOM     27  C   UNL     1     140.628  69.581 225.925 -0.50 -0.00    +0.004 A  
DOCKED: ATOM     28  C   UNL     1     141.039  71.608 227.751 -0.81 -0.00    +0.000 A  
DOCKED: ATOM     29  C   UNL     1     140.759  69.259 227.267 -0.61 -0.00    +0.000 A  
DOCKED: ATOM     30  C   UNL     1     140.963  70.293 228.162 -0.60 -0.00    +0.000 A  
DOCKED: ENDBRANCH  24  25
DOCKED: ENDBRANCH  21  24
DOCKED: BRANCH  23  31
DOCKED: ATOM     31  O   UNL     1     136.906  71.764 223.681 -0.11 +0.11    -0.391 OA 
DOCKED: ATOM     32  H   UNL     1     136.955  72.578 224.228 -0.50 -0.10    +0.211 HD 
DOCKED: ENDBRANCH  23  31
DOCKED: ENDBRANCH  17  19
DOCKED: ENDBRANCH   1  17
DOCKED: TORSDOF 7
DOCKED: TER
DOCKED: ENDMDL
________________________________________________________________________________


    FINAL DOCKED STATE:
    ________________________


Run:   10 / 20
Time taken for this run:   0.025s

DOCKED: MODEL        10
DOCKED: USER    Run = 10
DOCKED: USER
DOCKED: USER    Estimated Free Energy of Binding    =  -7.08 kcal/mol  [=(1)+(2)+(3)-(4)]
DOCKED: USER
DOCKED: USER    (1) Final Intermolecular Energy     =  -9.16 kcal/mol
DOCKED: USER        vdW + Hbond + desolv Energy     =  -9.14 kcal/mol
DOCKED: USER        Electrostatic Energy            =  -0.02 kcal/mol
DOCKED: USER        Moving Ligand-Fixed Receptor    =  -9.16 kcal/mol
DOCKED: USER        Moving Ligand-Moving Receptor   =  +0.00 kcal/mol
DOCKED: USER    (2) Final Total Internal Energy     =  -3.19 kcal/mol
DOCKED: USER    (3) Torsional Free Energy           =  +2.09 kcal/mol
DOCKED: USER    (4) Unbound System's Energy         =  -3.19 kcal/mol
DOCKED: USER
DOCKED: USER
DOCKED: REMARK SMILES O=C(NCC(=O)N1CC[C@H](O)[C@H]1Cc1ccccc1)c1ccc2cc(F)ccc2n1
DOCKED: REMARK SMILES IDX 4 1 3 2 2 3 1 4 20 6 21 7 30 8 22 9 29 10 23 11 28 12 24 13
DOCKED: REMARK SMILES IDX 27 14 25 15 26 16 5 17 6 18 7 19 8 20 12 21 9 22 10 23 13 24
DOCKED: REMARK SMILES IDX 14 25 15 26 19 27 16 28 18 29 17 30 11 31
DOCKED: REMARK H PARENT 3 5 11 32
DOCKED: USER                              x       y       z     vdW  Elec       q    Type
DOCKED: USER                           _______ _______ _______ _____ _____    ______ ____
DOCKED: ROOT
DOCKED: ATOM      1  C   UNL     1     139.236  74.478 221.425 -0.18 -0.05    +0.216 C  
DOCKED: ENDROOT
DOCKED: BRANCH   1   2
DOCKED: ATOM      2  N   UNL     1     138.124  74.483 222.336 +0.01 +0.12    -0.342 N  
DOCKED: ATOM      3  C   UNL     1     137.302  75.620 222.521 -0.14 -0.07    +0.270 C  
DOCKED: ATOM      4  O   UNL     1     137.488  76.702 221.901 -0.12 +0.05    -0.268 OA 
DOCKED: ATOM      5  H   UNL     1     137.899  73.610 222.899 -0.51 -0.10    +0.164 HD 
DOCKED: BRANCH   3   6
DOCKED: ATOM      6  C   UNL     1     136.184  75.527 223.479 -0.24 -0.03    +0.128 A  
DOCKED: ATOM      7  C   UNL     1     135.459  76.645 223.838 -0.20 -0.01    +0.035 A  
DOCKED: ATOM      8  N   UNL     1     135.843  74.327 224.033 -0.14 +0.07    -0.243 NA 
DOCKED: ATOM      9  C   UNL     1     134.401  76.554 224.747 -0.22 -0.00    +0.013 A  
DOCKED: ATOM     10  C   UNL     1     134.833  74.191 224.911 -0.29 -0.01    +0.071 A  
DOCKED: ATOM     11  C   UNL     1     134.101  75.301 225.277 -0.31 -0.00    +0.003 A  
DOCKED: ATOM     12  C   UNL     1     134.592  72.926 225.395 -0.23 -0.00    +0.032 A  
DOCKED: ATOM     13  C   UNL     1     133.058  75.155 226.186 -0.30 -0.00    +0.049 A  
DOCKED: ATOM     14  C   UNL     1     133.551  72.786 226.300 -0.34 -0.00    +0.041 A  
DOCKED: ATOM     15  C   UNL     1     132.802  73.889 226.683 -0.31 -0.00    +0.123 A  
DOCKED: ATOM     16  F   UNL     1     131.785  73.696 227.578 -0.14 +0.03    -0.207 F  
DOCKED: ENDBRANCH   3   6
DOCKED: ENDBRANCH   1   2
DOCKED: BRANCH   1  17
DOCKED: ATOM     17  C   UNL     1     139.880  73.146 221.326 -0.16 -0.04    +0.242 C  
DOCKED: ATOM     18  O   UNL     1     140.945  72.993 220.638 -0.11 +0.04    -0.273 OA 
DOCKED: BRANCH  17  19
DOCKED: ATOM     19  N   UNL     1     139.298  72.047 222.004 -0.10 +0.07    -0.335 N  
DOCKED: ATOM     20  C   UNL     1     138.672  70.882 221.409 -0.09 -0.02    +0.122 C  
DOCKED: ATOM     21  C   UNL     1     139.207  71.863 223.452 -0.08 -0.03    +0.118 C  
DOCKED: ATOM     22  C   UNL     1     137.838  70.239 222.483 -0.14 -0.01    +0.055 C  
DOCKED: ATOM     23  C   UNL     1     137.847  71.239 223.593 -0.18 -0.04    +0.139 C  
DOCKED: BRANCH  21  24
DOCKED: ATOM     24  C   UNL     1     140.331  70.900 223.822 -0.31 -0.01    +0.063 C  
DOCKED: BRANCH  24  25
DOCKED: ATOM     25  C   UNL     1     140.410  70.859 225.305 -0.51 +0.01    -0.046 A  
DOCKED: ATOM     26  C   UNL     1     139.879  69.849 226.069 -0.49 -0.00    +0.004 A  
DOCKED: ATOM     27  C   UNL     1     141.051  71.890 225.966 -0.59 -0.00    +0.004 A  
DOCKED: ATOM     28  C   UNL     1     139.962  69.829 227.444 -0.60 -0.00    +0.000 A  
DOCKED: ATOM     29  C   UNL     1     141.163  71.922 227.348 -0.81 -0.00    +0.000 A  
DOCKED: ATOM     30  C   UNL     1     140.609  70.877 228.065 -0.70 -0.00    +0.000 A  
DOCKED: ENDBRANCH  24  25
DOCKED: ENDBRANCH  21  24
DOCKED: BRANCH  23  31
DOCKED: ATOM     31  O   UNL     1     136.921  72.254 223.264 -0.10 +0.13    -0.391 OA 
DOCKED: ATOM     32  H   UNL     1     136.939  72.999 223.902 -0.53 -0.12    +0.211 HD 
DOCKED: ENDBRANCH  23  31
DOCKED: ENDBRANCH  17  19
DOCKED: ENDBRANCH   1  17
DOCKED: TORSDOF 7
DOCKED: TER
DOCKED: ENDMDL
________________________________________________________________________________


    FINAL DOCKED STATE:
    ________________________


Run:   11 / 20
Time taken for this run:   0.025s

DOCKED: MODEL        11
DOCKED: USER    Run = 11
DOCKED: USER
DOCKED: USER    Estimated Free Energy of Binding    =  -8.73 kcal/mol  [=(1)+(2)+(3)-(4)]
DOCKED: USER
DOCKED: USER    (1) Final Intermolecular Energy     = -10.81 kcal/mol
DOCKED: USER        vdW + Hbond + desolv Energy     = -10.71 kcal/mol
DOCKED: USER        Electrostatic Energy            =  -0.10 kcal/mol
DOCKED: USER        Moving Ligand-Fixed Receptor    = -10.81 kcal/mol
DOCKED: USER        Moving Ligand-Moving Receptor   =  +0.00 kcal/mol
DOCKED: USER    (2) Final Total Internal Energy     =  -1.88 kcal/mol
DOCKED: USER    (3) Torsional Free Energy           =  +2.09 kcal/mol
DOCKED: USER    (4) Unbound System's Energy         =  -1.88 kcal/mol
DOCKED: USER
DOCKED: USER
DOCKED: REMARK SMILES O=C(NCC(=O)N1CC[C@H](O)[C@H]1Cc1ccccc1)c1ccc2cc(F)ccc2n1
DOCKED: REMARK SMILES IDX 4 1 3 2 2 3 1 4 20 6 21 7 30 8 22 9 29 10 23 11 28 12 24 13
DOCKED: REMARK SMILES IDX 27 14 25 15 26 16 5 17 6 18 7 19 8 20 12 21 9 22 10 23 13 24
DOCKED: REMARK SMILES IDX 14 25 15 26 19 27 16 28 18 29 17 30 11 31
DOCKED: REMARK H PARENT 3 5 11 32
DOCKED: USER                              x       y       z     vdW  Elec       q    Type
DOCKED: USER                           _______ _______ _______ _____ _____    ______ ____
DOCKED: ROOT
DOCKED: ATOM      1  C   UNL     1     138.985  73.933 221.573 -0.16 -0.05    +0.216 C  
DOCKED: ENDROOT
DOCKED: BRANCH   1   2
DOCKED: ATOM      2  N   UNL     1     139.430  75.241 221.970 -0.17 +0.07    -0.342 N  
DOCKED: ATOM      3  C   UNL     1     138.529  76.293 222.260 -0.20 -0.06    +0.270 C  
DOCKED: ATOM      4  O   UNL     1     137.278  76.155 222.191 -0.15 +0.06    -0.268 OA 
DOCKED: ATOM      5  H   UNL     1     140.471  75.442 222.052 +0.04 -0.02    +0.164 HD 
DOCKED: BRANCH   3   6
DOCKED: ATOM      6  C   UNL     1     139.085  77.600 222.659 -0.25 -0.02    +0.128 A  
DOCKED: ATOM      7  C   UNL     1     138.258  78.673 222.926 -0.25 -0.01    +0.035 A  
DOCKED: ATOM      8  N   UNL     1     140.433  77.776 222.772 -0.24 +0.06    -0.243 NA 
DOCKED: ATOM      9  C   UNL     1     138.786  79.911 223.303 -0.35 -0.00    +0.013 A  
DOCKED: ATOM     10  C   UNL     1     140.987  78.948 223.132 -0.47 -0.02    +0.071 A  
DOCKED: ATOM     11  C   UNL     1     140.172  80.027 223.402 -0.45 -0.00    +0.003 A  
DOCKED: ATOM     12  C   UNL     1     142.360  78.992 223.209 -0.50 -0.01    +0.032 A  
DOCKED: ATOM     13  C   UNL     1     140.750  81.237 223.773 -0.30 -0.01    +0.049 A  
DOCKED: ATOM     14  C   UNL     1     142.931  80.200 223.580 -0.61 -0.01    +0.041 A  
DOCKED: ATOM     15  C   UNL     1     142.130  81.299 223.855 -0.52 -0.02    +0.123 A  
DOCKED: ATOM     16  F   UNL     1     142.744  82.467 224.217 +0.09 +0.00    -0.207 F  
DOCKED: ENDBRANCH   3   6
DOCKED: ENDBRANCH   1   2
DOCKED: BRANCH   1  17
DOCKED: ATOM     17  C   UNL     1     139.792  72.850 222.186 -0.19 -0.04    +0.242 C  
DOCKED: ATOM     18  O   UNL     1     141.059  72.969 222.288 -0.52 -0.00    -0.273 OA 
DOCKED: BRANCH  17  19
DOCKED: ATOM     19  N   UNL     1     139.138  71.684 222.654 -0.12 +0.08    -0.335 N  
DOCKED: ATOM     20  C   UNL     1     138.617  70.592 221.856 -0.11 -0.02    +0.122 C  
DOCKED: ATOM     21  C   UNL     1     138.852  71.344 224.047 -0.16 -0.03    +0.118 C  
DOCKED: ATOM     22  C   UNL     1     137.653  69.836 222.728 -0.15 -0.01    +0.055 C  
DOCKED: ATOM     23  C   UNL     1     137.495  70.709 223.930 -0.19 -0.03    +0.139 C  
DOCKED: BRANCH  21  24
DOCKED: ATOM     24  C   UNL     1     139.928  70.345 224.462 -0.37 -0.01    +0.063 C  
DOCKED: BRANCH  24  25
DOCKED: ATOM     25  C   UNL     1     140.361  70.706 225.837 -0.53 +0.01    -0.046 A  
DOCKED: ATOM     26  C   UNL     1     140.086  69.947 226.947 -0.56 -0.00    +0.004 A  
DOCKED: ATOM     27  C   UNL     1     141.085  71.869 226.023 -0.61 -0.00    +0.004 A  
DOCKED: ATOM     28  C   UNL     1     140.495  70.299 228.214 -0.60 -0.00    +0.000 A  
DOCKED: ATOM     29  C   UNL     1     141.522  72.273 227.275 -0.78 -0.00    +0.000 A  
DOCKED: ATOM     30  C   UNL     1     141.214  71.468 228.357 -0.71 -0.00    +0.000 A  
DOCKED: ENDBRANCH  24  25
DOCKED: ENDBRANCH  21  24
DOCKED: BRANCH  23  31
DOCKED: ATOM     31  O   UNL     1     136.608  71.753 223.588 -0.10 +0.09    -0.391 OA 
DOCKED: ATOM     32  H   UNL     1     136.954  72.637 223.841 -0.50 -0.10    +0.211 HD 
DOCKED: ENDBRANCH  23  31
DOCKED: ENDBRANCH  17  19
DOCKED: ENDBRANCH   1  17
DOCKED: TORSDOF 7
DOCKED: TER
DOCKED: ENDMDL
________________________________________________________________________________


    FINAL DOCKED STATE:
    ________________________


Run:   12 / 20
Time taken for this run:   0.025s

DOCKED: MODEL        12
DOCKED: USER    Run = 12
DOCKED: USER
DOCKED: USER    Estimated Free Energy of Binding    =  -8.83 kcal/mol  [=(1)+(2)+(3)-(4)]
DOCKED: USER
DOCKED: USER    (1) Final Intermolecular Energy     = -10.92 kcal/mol
DOCKED: USER        vdW + Hbond + desolv Energy     = -10.84 kcal/mol
DOCKED: USER        Electrostatic Energy            =  -0.09 kcal/mol
DOCKED: USER        Moving Ligand-Fixed Receptor    = -10.92 kcal/mol
DOCKED: USER        Moving Ligand-Moving Receptor   =  +0.00 kcal/mol
DOCKED: USER    (2) Final Total Internal Energy     =  -1.82 kcal/mol
DOCKED: USER    (3) Torsional Free Energy           =  +2.09 kcal/mol
DOCKED: USER    (4) Unbound System's Energy         =  -1.82 kcal/mol
DOCKED: USER
DOCKED: USER
DOCKED: REMARK SMILES O=C(NCC(=O)N1CC[C@H](O)[C@H]1Cc1ccccc1)c1ccc2cc(F)ccc2n1
DOCKED: REMARK SMILES IDX 4 1 3 2 2 3 1 4 20 6 21 7 30 8 22 9 29 10 23 11 28 12 24 13
DOCKED: REMARK SMILES IDX 27 14 25 15 26 16 5 17 6 18 7 19 8 20 12 21 9 22 10 23 13 24
DOCKED: REMARK SMILES IDX 14 25 15 26 19 27 16 28 18 29 17 30 11 31
DOCKED: REMARK H PARENT 3 5 11 32
DOCKED: USER                              x       y       z     vdW  Elec       q    Type
DOCKED: USER                           _______ _______ _______ _____ _____    ______ ____
DOCKED: ROOT
DOCKED: ATOM      1  C   UNL     1     139.576  74.171 221.204 -0.17 -0.04    +0.216 C  
DOCKED: ENDROOT
DOCKED: BRANCH   1   2
DOCKED: ATOM      2  N   UNL     1     139.603  73.270 222.324 -0.15 +0.06    -0.342 N  
DOCKED: ATOM      3  C   UNL     1     139.674  71.865 222.165 -0.18 -0.05    +0.270 C  
DOCKED: ATOM      4  O   UNL     1     139.719  71.311 221.035 -0.07 +0.05    -0.268 OA 
DOCKED: ATOM      5  H   UNL     1     139.567  73.657 223.313 -0.47 -0.04    +0.164 HD 
DOCKED: BRANCH   3   6
DOCKED: ATOM      6  C   UNL     1     139.696  71.025 223.378 -0.28 -0.02    +0.128 A  
DOCKED: ATOM      7  C   UNL     1     139.204  69.736 223.358 -0.24 -0.01    +0.035 A  
DOCKED: ATOM      8  N   UNL     1     140.205  71.507 224.548 -0.30 +0.04    -0.243 NA 
DOCKED: ATOM      9  C   UNL     1     139.226  68.941 224.507 -0.35 -0.00    +0.013 A  
DOCKED: ATOM     10  C   UNL     1     140.247  70.780 225.679 -0.50 -0.01    +0.071 A  
DOCKED: ATOM     11  C   UNL     1     139.759  69.490 225.672 -0.45 -0.00    +0.003 A  
DOCKED: ATOM     12  C   UNL     1     140.787  71.385 226.791 -0.68 -0.01    +0.032 A  
DOCKED: ATOM     13  C   UNL     1     139.804  68.742 226.844 -0.55 -0.01    +0.049 A  
DOCKED: ATOM     14  C   UNL     1     140.829  70.634 227.956 -0.64 -0.01    +0.041 A  
DOCKED: ATOM     15  C   UNL     1     140.344  69.335 227.972 -0.53 -0.02    +0.123 A  
DOCKED: ATOM     16  F   UNL     1     140.410  68.639 229.148 -0.11 +0.04    -0.207 F  
DOCKED: ENDBRANCH   3   6
DOCKED: ENDBRANCH   1   2
DOCKED: BRANCH   1  17
DOCKED: ATOM     17  C   UNL     1     140.075  75.523 221.553 -0.23 -0.05    +0.242 C  
DOCKED: ATOM     18  O   UNL     1     139.905  75.990 222.730 -0.39 +0.04    -0.273 OA 
DOCKED: BRANCH  17  19
DOCKED: ATOM     19  N   UNL     1     140.741  76.288 220.564 -0.08 +0.12    -0.335 N  
DOCKED: ATOM     20  C   UNL     1     140.579  76.193 219.127 -0.08 -0.04    +0.122 C  
DOCKED: ATOM     21  C   UNL     1     141.736  77.335 220.794 -0.20 -0.07    +0.118 C  
DOCKED: ATOM     22  C   UNL     1     141.776  76.862 218.508 -0.18 -0.03    +0.055 C  
DOCKED: ATOM     23  C   UNL     1     142.695  77.094 219.663 -0.24 -0.10    +0.139 C  
DOCKED: BRANCH  21  24
DOCKED: ATOM     24  C   UNL     1     140.989  78.658 220.653 -0.25 -0.03    +0.063 C  
DOCKED: BRANCH  24  25
DOCKED: ATOM     25  C   UNL     1     141.439  79.542 221.759 -0.38 +0.02    -0.046 A  
DOCKED: ATOM     26  C   UNL     1     142.169  79.104 222.836 -0.57 -0.00    +0.004 A  
DOCKED: ATOM     27  C   UNL     1     141.110  80.884 221.715 -0.38 -0.00    +0.004 A  
DOCKED: ATOM     28  C   UNL     1     142.576  79.939 223.853 -0.61 -0.00    +0.000 A  
DOCKED: ATOM     29  C   UNL     1     141.492  81.770 222.711 -0.46 -0.00    +0.000 A  
DOCKED: ATOM     30  C   UNL     1     142.226  81.271 223.771 -0.64 -0.00    +0.000 A  
DOCKED: ENDBRANCH  24  25
DOCKED: ENDBRANCH  21  24
DOCKED: BRANCH  23  31
DOCKED: ATOM     31  O   UNL     1     143.335  75.870 219.955 -0.23 +0.25    -0.391 OA 
DOCKED: ATOM     32  H   UNL     1     143.236  75.609 220.896 -0.27 -0.16    +0.211 HD 
DOCKED: ENDBRANCH  23  31
DOCKED: ENDBRANCH  17  19
DOCKED: ENDBRANCH   1  17
DOCKED: TORSDOF 7
DOCKED: TER
DOCKED: ENDMDL
________________________________________________________________________________


    FINAL DOCKED STATE:
    ________________________


Run:   13 / 20
Time taken for this run:   0.025s

DOCKED: MODEL        13
DOCKED: USER    Run = 13
DOCKED: USER
DOCKED: USER    Estimated Free Energy of Binding    =  -8.84 kcal/mol  [=(1)+(2)+(3)-(4)]
DOCKED: USER
DOCKED: USER    (1) Final Intermolecular Energy     = -10.93 kcal/mol
DOCKED: USER        vdW + Hbond + desolv Energy     = -10.84 kcal/mol
DOCKED: USER        Electrostatic Energy            =  -0.09 kcal/mol
DOCKED: USER        Moving Ligand-Fixed Receptor    = -10.93 kcal/mol
DOCKED: USER        Moving Ligand-Moving Receptor   =  +0.00 kcal/mol
DOCKED: USER    (2) Final Total Internal Energy     =  -1.82 kcal/mol
DOCKED: USER    (3) Torsional Free Energy           =  +2.09 kcal/mol
DOCKED: USER    (4) Unbound System's Energy         =  -1.82 kcal/mol
DOCKED: USER
DOCKED: USER
DOCKED: REMARK SMILES O=C(NCC(=O)N1CC[C@H](O)[C@H]1Cc1ccccc1)c1ccc2cc(F)ccc2n1
DOCKED: REMARK SMILES IDX 4 1 3 2 2 3 1 4 20 6 21 7 30 8 22 9 29 10 23 11 28 12 24 13
DOCKED: REMARK SMILES IDX 27 14 25 15 26 16 5 17 6 18 7 19 8 20 12 21 9 22 10 23 13 24
DOCKED: REMARK SMILES IDX 14 25 15 26 19 27 16 28 18 29 17 30 11 31
DOCKED: REMARK H PARENT 3 5 11 32
DOCKED: USER                              x       y       z     vdW  Elec       q    Type
DOCKED: USER                           _______ _______ _______ _____ _____    ______ ____
DOCKED: ROOT
DOCKED: ATOM      1  C   UNL     1     139.515  74.163 221.216 -0.16 -0.04    +0.216 C  
DOCKED: ENDROOT
DOCKED: BRANCH   1   2
DOCKED: ATOM      2  N   UNL     1     139.569  73.253 222.327 -0.14 +0.06    -0.342 N  
DOCKED: ATOM      3  C   UNL     1     139.605  71.849 222.156 -0.17 -0.05    +0.270 C  
DOCKED: ATOM      4  O   UNL     1     139.592  71.303 221.020 -0.07 +0.05    -0.268 OA 
DOCKED: ATOM      5  H   UNL     1     139.582  73.633 223.320 -0.47 -0.04    +0.164 HD 
DOCKED: BRANCH   3   6
DOCKED: ATOM      6  C   UNL     1     139.660  70.998 223.360 -0.28 -0.02    +0.128 A  
DOCKED: ATOM      7  C   UNL     1     139.198  69.698 223.334 -0.24 -0.01    +0.035 A  
DOCKED: ATOM      8  N   UNL     1     140.171  71.482 224.529 -0.29 +0.04    -0.243 NA 
DOCKED: ATOM      9  C   UNL     1     139.250  68.894 224.475 -0.34 -0.00    +0.013 A  
DOCKED: ATOM     10  C   UNL     1     140.242  70.745 225.653 -0.49 -0.01    +0.071 A  
DOCKED: ATOM     11  C   UNL     1     139.783  69.445 225.639 -0.45 -0.00    +0.003 A  
DOCKED: ATOM     12  C   UNL     1     140.779  71.353 226.764 -0.68 -0.01    +0.032 A  
DOCKED: ATOM     13  C   UNL     1     139.859  68.687 226.804 -0.56 -0.01    +0.049 A  
DOCKED: ATOM     14  C   UNL     1     140.852  70.593 227.922 -0.63 -0.01    +0.041 A  
DOCKED: ATOM     15  C   UNL     1     140.397  69.283 227.931 -0.53 -0.02    +0.123 A  
DOCKED: ATOM     16  F   UNL     1     140.492  68.578 229.100 -0.15 +0.04    -0.207 F  
DOCKED: ENDBRANCH   3   6
DOCKED: ENDBRANCH   1   2
DOCKED: BRANCH   1  17
DOCKED: ATOM     17  C   UNL     1     140.088  75.492 221.544 -0.23 -0.05    +0.242 C  
DOCKED: ATOM     18  O   UNL     1     139.947  75.985 222.713 -0.40 +0.04    -0.273 OA 
DOCKED: BRANCH  17  19
DOCKED: ATOM     19  N   UNL     1     140.792  76.204 220.542 -0.08 +0.12    -0.335 N  
DOCKED: ATOM     20  C   UNL     1     140.668  76.050 219.106 -0.08 -0.04    +0.122 C  
DOCKED: ATOM     21  C   UNL     1     141.797  77.245 220.755 -0.18 -0.07    +0.118 C  
DOCKED: ATOM     22  C   UNL     1     141.892  76.675 218.493 -0.18 -0.03    +0.055 C  
DOCKED: ATOM     23  C   UNL     1     142.782  76.943 219.662 -0.25 -0.10    +0.139 C  
DOCKED: BRANCH  21  24
DOCKED: ATOM     24  C   UNL     1     141.075  78.572 220.537 -0.25 -0.03    +0.063 C  
DOCKED: BRANCH  24  25
DOCKED: ATOM     25  C   UNL     1     141.451  79.472 221.658 -0.37 +0.02    -0.046 A  
DOCKED: ATOM     26  C   UNL     1     141.439  80.842 221.573 -0.40 -0.00    +0.004 A  
DOCKED: ATOM     27  C   UNL     1     141.837  78.911 222.861 -0.55 -0.00    +0.004 A  
DOCKED: ATOM     28  C   UNL     1     141.793  81.659 222.623 -0.48 -0.00    +0.000 A  
DOCKED: ATOM     29  C   UNL     1     142.204  79.685 223.951 -0.59 -0.00    +0.000 A  
DOCKED: ATOM     30  C   UNL     1     142.173  81.060 223.806 -0.64 -0.00    +0.000 A  
DOCKED: ENDBRANCH  24  25
DOCKED: ENDBRANCH  21  24
DOCKED: BRANCH  23  31
DOCKED: ATOM     31  O   UNL     1     143.395  75.723 220.023 -0.24 +0.24    -0.391 OA 
DOCKED: ATOM     32  H   UNL     1     143.284  75.514 220.976 -0.26 -0.16    +0.211 HD 
DOCKED: ENDBRANCH  23  31
DOCKED: ENDBRANCH  17  19
DOCKED: ENDBRANCH   1  17
DOCKED: TORSDOF 7
DOCKED: TER
DOCKED: ENDMDL
________________________________________________________________________________


    FINAL DOCKED STATE:
    ________________________


Run:   14 / 20
Time taken for this run:   0.025s

DOCKED: MODEL        14
DOCKED: USER    Run = 14
DOCKED: USER
DOCKED: USER    Estimated Free Energy of Binding    =  -6.97 kcal/mol  [=(1)+(2)+(3)-(4)]
DOCKED: USER
DOCKED: USER    (1) Final Intermolecular Energy     =  -9.06 kcal/mol
DOCKED: USER        vdW + Hbond + desolv Energy     =  -9.03 kcal/mol
DOCKED: USER        Electrostatic Energy            =  -0.03 kcal/mol
DOCKED: USER        Moving Ligand-Fixed Receptor    =  -9.06 kcal/mol
DOCKED: USER        Moving Ligand-Moving Receptor   =  +0.00 kcal/mol
DOCKED: USER    (2) Final Total Internal Energy     =  -3.50 kcal/mol
DOCKED: USER    (3) Torsional Free Energy           =  +2.09 kcal/mol
DOCKED: USER    (4) Unbound System's Energy         =  -3.50 kcal/mol
DOCKED: USER
DOCKED: USER
DOCKED: REMARK SMILES O=C(NCC(=O)N1CC[C@H](O)[C@H]1Cc1ccccc1)c1ccc2cc(F)ccc2n1
DOCKED: REMARK SMILES IDX 4 1 3 2 2 3 1 4 20 6 21 7 30 8 22 9 29 10 23 11 28 12 24 13
DOCKED: REMARK SMILES IDX 27 14 25 15 26 16 5 17 6 18 7 19 8 20 12 21 9 22 10 23 13 24
DOCKED: REMARK SMILES IDX 14 25 15 26 19 27 16 28 18 29 17 30 11 31
DOCKED: REMARK H PARENT 3 5 11 32
DOCKED: USER                              x       y       z     vdW  Elec       q    Type
DOCKED: USER                           _______ _______ _______ _____ _____    ______ ____
DOCKED: ROOT
DOCKED: ATOM      1  C   UNL     1     140.631  70.471 220.892 -0.02 -0.03    +0.216 C  
DOCKED: ENDROOT
DOCKED: BRANCH   1   2
DOCKED: ATOM      2  N   UNL     1     140.248  71.828 221.172 -0.07 +0.05    -0.342 N  
DOCKED: ATOM      3  C   UNL     1     141.197  72.868 221.317 -0.16 -0.03    +0.270 C  
DOCKED: ATOM      4  O   UNL     1     142.438  72.676 221.210 -0.18 +0.03    -0.268 OA 
DOCKED: ATOM      5  H   UNL     1     139.220  72.075 221.279 +0.04 -0.03    +0.164 HD 
DOCKED: BRANCH   3   6
DOCKED: ATOM      6  C   UNL     1     140.704  74.229 221.605 -0.27 -0.01    +0.128 A  
DOCKED: ATOM      7  C   UNL     1     141.524  75.329 221.453 -0.26 -0.01    +0.035 A  
DOCKED: ATOM      8  N   UNL     1     139.423  74.428 222.030 -0.56 +0.04    -0.243 NA 
DOCKED: ATOM      9  C   UNL     1     141.056  76.617 221.726 -0.36 -0.01    +0.013 A  
DOCKED: ATOM     10  C   UNL     1     138.928  75.649 222.305 -0.28 -0.02    +0.071 A  
DOCKED: ATOM     11  C   UNL     1     139.737  76.755 222.156 -0.36 -0.00    +0.003 A  
DOCKED: ATOM     12  C   UNL     1     137.619  75.711 222.724 -0.22 -0.01    +0.032 A  
DOCKED: ATOM     13  C   UNL     1     139.221  78.015 222.442 -0.28 -0.01    +0.049 A  
DOCKED: ATOM     14  C   UNL     1     137.110  76.970 223.008 -0.20 -0.01    +0.041 A  
DOCKED: ATOM     15  C   UNL     1     137.906  78.097 222.866 -0.17 -0.02    +0.123 A  
DOCKED: ATOM     16  F   UNL     1     137.354  79.314 223.158 -0.06 +0.03    -0.207 F  
DOCKED: ENDBRANCH   3   6
DOCKED: ENDBRANCH   1   2
DOCKED: BRANCH   1  17
DOCKED: ATOM     17  C   UNL     1     139.630  69.489 221.375 -0.06 -0.04    +0.242 C  
DOCKED: ATOM     18  O   UNL     1     139.464  68.381 220.761 -0.09 +0.06    -0.273 OA 
DOCKED: BRANCH  17  19
DOCKED: ATOM     19  N   UNL     1     138.862  69.797 222.524 -0.07 +0.06    -0.335 N  
DOCKED: ATOM     20  C   UNL     1     137.502  69.382 222.807 -0.14 -0.02    +0.122 C  
DOCKED: ATOM     21  C   UNL     1     139.287  70.603 223.668 -0.28 -0.02    +0.118 C  
DOCKED: ATOM     22  C   UNL     1     136.984  70.291 223.888 -0.21 -0.01    +0.055 C  
DOCKED: ATOM     23  C   UNL     1     138.028  71.355 223.993 -0.07 -0.04    +0.139 C  
DOCKED: BRANCH  21  24
DOCKED: ATOM     24  C   UNL     1     139.671  69.609 224.760 -0.35 -0.01    +0.063 C  
DOCKED: BRANCH  24  25
DOCKED: ATOM     25  C   UNL     1     140.176  70.393 225.917 -0.50 +0.01    -0.046 A  
DOCKED: ATOM     26  C   UNL     1     140.958  71.515 225.794 -0.63 -0.00    +0.004 A  
DOCKED: ATOM     27  C   UNL     1     139.848  69.981 227.195 -0.55 -0.00    +0.004 A  
DOCKED: ATOM     28  C   UNL     1     141.418  72.228 226.879 -0.75 -0.00    +0.000 A  
DOCKED: ATOM     29  C   UNL     1     140.284  70.660 228.323 -0.62 -0.00    +0.000 A  
DOCKED: ATOM     30  C   UNL     1     141.069  71.783 228.137 -0.81 -0.00    +0.000 A  
DOCKED: ENDBRANCH  24  25
DOCKED: ENDBRANCH  21  24
DOCKED: BRANCH  23  31
DOCKED: ATOM     31  O   UNL     1     137.830  72.257 222.925 -0.07 +0.14    -0.391 OA 
DOCKED: ATOM     32  H   UNL     1     138.392  73.059 223.002 -0.44 -0.12    +0.211 HD 
DOCKED: ENDBRANCH  23  31
DOCKED: ENDBRANCH  17  19
DOCKED: ENDBRANCH   1  17
DOCKED: TORSDOF 7
DOCKED: TER
DOCKED: ENDMDL
________________________________________________________________________________


    FINAL DOCKED STATE:
    ________________________


Run:   15 / 20
Time taken for this run:   0.025s

DOCKED: MODEL        15
DOCKED: USER    Run = 15
DOCKED: USER
DOCKED: USER    Estimated Free Energy of Binding    =  -8.85 kcal/mol  [=(1)+(2)+(3)-(4)]
DOCKED: USER
DOCKED: USER    (1) Final Intermolecular Energy     = -10.94 kcal/mol
DOCKED: USER        vdW + Hbond + desolv Energy     = -10.80 kcal/mol
DOCKED: USER        Electrostatic Energy            =  -0.13 kcal/mol
DOCKED: USER        Moving Ligand-Fixed Receptor    = -10.94 kcal/mol
DOCKED: USER        Moving Ligand-Moving Receptor   =  +0.00 kcal/mol
DOCKED: USER    (2) Final Total Internal Energy     =  -1.50 kcal/mol
DOCKED: USER    (3) Torsional Free Energy           =  +2.09 kcal/mol
DOCKED: USER    (4) Unbound System's Energy         =  -1.50 kcal/mol
DOCKED: USER
DOCKED: USER
DOCKED: REMARK SMILES O=C(NCC(=O)N1CC[C@H](O)[C@H]1Cc1ccccc1)c1ccc2cc(F)ccc2n1
DOCKED: REMARK SMILES IDX 4 1 3 2 2 3 1 4 20 6 21 7 30 8 22 9 29 10 23 11 28 12 24 13
DOCKED: REMARK SMILES IDX 27 14 25 15 26 16 5 17 6 18 7 19 8 20 12 21 9 22 10 23 13 24
DOCKED: REMARK SMILES IDX 14 25 15 26 19 27 16 28 18 29 17 30 11 31
DOCKED: REMARK H PARENT 3 5 11 32
DOCKED: USER                              x       y       z     vdW  Elec       q    Type
DOCKED: USER                           _______ _______ _______ _____ _____    ______ ____
DOCKED: ROOT
DOCKED: ATOM      1  C   UNL     1     139.107  74.406 221.217 -0.15 -0.05    +0.216 C  
DOCKED: ENDROOT
DOCKED: BRANCH   1   2
DOCKED: ATOM      2  N   UNL     1     139.104  73.422 222.265 -0.08 +0.09    -0.342 N  
DOCKED: ATOM      3  C   UNL     1     140.215  72.582 222.520 -0.19 -0.03    +0.270 C  
DOCKED: ATOM      4  O   UNL     1     141.279  72.640 221.847 -0.25 +0.02    -0.268 OA 
DOCKED: ATOM      5  H   UNL     1     138.244  73.308 222.879 -0.50 -0.09    +0.164 HD 
DOCKED: BRANCH   3   6
DOCKED: ATOM      6  C   UNL     1     140.114  71.603 223.619 -0.33 -0.02    +0.128 A  
DOCKED: ATOM      7  C   UNL     1     139.514  70.376 223.425 -0.28 -0.01    +0.035 A  
DOCKED: ATOM      8  N   UNL     1     140.613  71.894 224.856 -0.27 +0.04    -0.243 NA 
DOCKED: ATOM      9  C   UNL     1     139.419  69.450 224.467 -0.34 -0.00    +0.013 A  
DOCKED: ATOM     10  C   UNL     1     140.544  71.034 225.889 -0.54 -0.01    +0.071 A  
DOCKED: ATOM     11  C   UNL     1     139.948  69.804 225.706 -0.47 -0.00    +0.003 A  
DOCKED: ATOM     12  C   UNL     1     141.086  71.450 227.083 -0.72 -0.01    +0.032 A  
DOCKED: ATOM     13  C   UNL     1     139.879  68.919 226.778 -0.54 -0.01    +0.049 A  
DOCKED: ATOM     14  C   UNL     1     141.015  70.564 228.147 -0.58 -0.01    +0.041 A  
DOCKED: ATOM     15  C   UNL     1     140.420  69.321 227.987 -0.53 -0.02    +0.123 A  
DOCKED: ATOM     16  F   UNL     1     140.377  68.485 229.069 -0.16 +0.04    -0.207 F  
DOCKED: ENDBRANCH   3   6
DOCKED: ENDBRANCH   1   2
DOCKED: BRANCH   1  17
DOCKED: ATOM     17  C   UNL     1     139.949  75.582 221.547 -0.23 -0.05    +0.242 C  
DOCKED: ATOM     18  O   UNL     1     139.951  76.063 222.730 -0.38 +0.04    -0.273 OA 
DOCKED: BRANCH  17  19
DOCKED: ATOM     19  N   UNL     1     140.749  76.163 220.533 -0.08 +0.11    -0.335 N  
DOCKED: ATOM     20  C   UNL     1     140.672  75.915 219.107 -0.08 -0.04    +0.122 C  
DOCKED: ATOM     21  C   UNL     1     141.824  77.137 220.719 -0.17 -0.07    +0.118 C  
DOCKED: ATOM     22  C   UNL     1     141.966  76.397 218.509 -0.18 -0.03    +0.055 C  
DOCKED: ATOM     23  C   UNL     1     142.826  76.680 219.697 -0.29 -0.09    +0.139 C  
DOCKED: BRANCH  21  24
DOCKED: ATOM     24  C   UNL     1     141.220  78.495 220.376 -0.25 -0.03    +0.063 C  
DOCKED: BRANCH  24  25
DOCKED: ATOM     25  C   UNL     1     141.254  79.321 221.611 -0.34 +0.02    -0.046 A  
DOCKED: ATOM     26  C   UNL     1     140.182  79.474 222.456 -0.34 -0.00    +0.004 A  
DOCKED: ATOM     27  C   UNL     1     142.424  79.978 221.941 -0.46 -0.00    +0.004 A  
DOCKED: ATOM     28  C   UNL     1     140.233  80.244 223.596 -0.45 -0.00    +0.000 A  
DOCKED: ATOM     29  C   UNL     1     142.532  80.768 223.076 -0.63 -0.00    +0.000 A  
DOCKED: ATOM     30  C   UNL     1     141.420  80.884 223.889 -0.50 -0.00    +0.000 A  
DOCKED: ENDBRANCH  24  25
DOCKED: ENDBRANCH  21  24
DOCKED: BRANCH  23  31
DOCKED: ATOM     31  O   UNL     1     143.324  75.446 220.170 -0.21 +0.22    -0.391 OA 
DOCKED: ATOM     32  H   UNL     1     143.129  75.302 221.122 -0.29 -0.14    +0.211 HD 
DOCKED: ENDBRANCH  23  31
DOCKED: ENDBRANCH  17  19
DOCKED: ENDBRANCH   1  17
DOCKED: TORSDOF 7
DOCKED: TER
DOCKED: ENDMDL
________________________________________________________________________________


    FINAL DOCKED STATE:
    ________________________


Run:   16 / 20
Time taken for this run:   0.025s

DOCKED: MODEL        16
DOCKED: USER    Run = 16
DOCKED: USER
DOCKED: USER    Estimated Free Energy of Binding    =  -7.01 kcal/mol  [=(1)+(2)+(3)-(4)]
DOCKED: USER
DOCKED: USER    (1) Final Intermolecular Energy     =  -9.10 kcal/mol
DOCKED: USER        vdW + Hbond + desolv Energy     =  -9.05 kcal/mol
DOCKED: USER        Electrostatic Energy            =  -0.05 kcal/mol
DOCKED: USER        Moving Ligand-Fixed Receptor    =  -9.10 kcal/mol
DOCKED: USER        Moving Ligand-Moving Receptor   =  +0.00 kcal/mol
DOCKED: USER    (2) Final Total Internal Energy     =  -3.50 kcal/mol
DOCKED: USER    (3) Torsional Free Energy           =  +2.09 kcal/mol
DOCKED: USER    (4) Unbound System's Energy         =  -3.50 kcal/mol
DOCKED: USER
DOCKED: USER
DOCKED: REMARK SMILES O=C(NCC(=O)N1CC[C@H](O)[C@H]1Cc1ccccc1)c1ccc2cc(F)ccc2n1
DOCKED: REMARK SMILES IDX 4 1 3 2 2 3 1 4 20 6 21 7 30 8 22 9 29 10 23 11 28 12 24 13
DOCKED: REMARK SMILES IDX 27 14 25 15 26 16 5 17 6 18 7 19 8 20 12 21 9 22 10 23 13 24
DOCKED: REMARK SMILES IDX 14 25 15 26 19 27 16 28 18 29 17 30 11 31
DOCKED: REMARK H PARENT 3 5 11 32
DOCKED: USER                              x       y       z     vdW  Elec       q    Type
DOCKED: USER                           _______ _______ _______ _____ _____    ______ ____
DOCKED: ROOT
DOCKED: ATOM      1  C   UNL     1     140.658  70.410 220.835 -0.02 -0.03    +0.216 C  
DOCKED: ENDROOT
DOCKED: BRANCH   1   2
DOCKED: ATOM      2  N   UNL     1     140.276  71.766 221.116 -0.06 +0.05    -0.342 N  
DOCKED: ATOM      3  C   UNL     1     141.225  72.805 221.273 -0.16 -0.03    +0.270 C  
DOCKED: ATOM      4  O   UNL     1     142.466  72.611 221.177 -0.18 +0.03    -0.268 OA 
DOCKED: ATOM      5  H   UNL     1     139.247  72.015 221.213 +0.04 -0.03    +0.164 HD 
DOCKED: BRANCH   3   6
DOCKED: ATOM      6  C   UNL     1     140.732  74.166 221.559 -0.26 -0.01    +0.128 A  
DOCKED: ATOM      7  C   UNL     1     141.545  75.267 221.387 -0.27 -0.01    +0.035 A  
DOCKED: ATOM      8  N   UNL     1     139.456  74.363 222.002 -0.57 +0.04    -0.243 NA 
DOCKED: ATOM      9  C   UNL     1     141.076  76.555 221.659 -0.36 -0.01    +0.013 A  
DOCKED: ATOM     10  C   UNL     1     138.961  75.584 222.277 -0.28 -0.02    +0.071 A  
DOCKED: ATOM     11  C   UNL     1     139.764  76.692 222.108 -0.35 -0.00    +0.003 A  
DOCKED: ATOM     12  C   UNL     1     137.659  75.645 222.716 -0.20 -0.01    +0.032 A  
DOCKED: ATOM     13  C   UNL     1     139.248  77.952 222.394 -0.29 -0.01    +0.049 A  
DOCKED: ATOM     14  C   UNL     1     137.150  76.903 222.999 -0.20 -0.01    +0.041 A  
DOCKED: ATOM     15  C   UNL     1     137.939  78.032 222.837 -0.18 -0.02    +0.123 A  
DOCKED: ATOM     16  F   UNL     1     137.388  79.249 223.130 -0.06 +0.03    -0.207 F  
DOCKED: ENDBRANCH   3   6
DOCKED: ENDBRANCH   1   2
DOCKED: BRANCH   1  17
DOCKED: ATOM     17  C   UNL     1     139.667  69.427 221.335 -0.06 -0.04    +0.242 C  
DOCKED: ATOM     18  O   UNL     1     139.506  68.311 220.735 -0.09 +0.06    -0.273 OA 
DOCKED: BRANCH  17  19
DOCKED: ATOM     19  N   UNL     1     138.902  69.743 222.484 -0.06 +0.06    -0.335 N  
DOCKED: ATOM     20  C   UNL     1     137.537  69.344 222.765 -0.14 -0.02    +0.122 C  
DOCKED: ATOM     21  C   UNL     1     139.336  70.543 223.628 -0.27 -0.02    +0.118 C  
DOCKED: ATOM     22  C   UNL     1     137.030  70.258 223.847 -0.22 -0.01    +0.055 C  
DOCKED: ATOM     23  C   UNL     1     138.086  71.310 223.954 -0.11 -0.04    +0.139 C  
DOCKED: BRANCH  21  24
DOCKED: ATOM     24  C   UNL     1     139.707  69.544 224.720 -0.33 -0.01    +0.063 C  
DOCKED: BRANCH  24  25
DOCKED: ATOM     25  C   UNL     1     140.160  70.324 225.901 -0.49 +0.01    -0.046 A  
DOCKED: ATOM     26  C   UNL     1     139.819  70.017 227.195 -0.55 -0.00    +0.004 A  
DOCKED: ATOM     27  C   UNL     1     140.972  71.425 225.700 -0.61 -0.00    +0.004 A  
DOCKED: ATOM     28  C   UNL     1     140.248  70.753 228.276 -0.63 -0.00    +0.000 A  
DOCKED: ATOM     29  C   UNL     1     141.433  72.203 226.751 -0.70 -0.00    +0.000 A  
DOCKED: ATOM     30  C   UNL     1     141.056  71.845 228.032 -0.83 -0.00    +0.000 A  
DOCKED: ENDBRANCH  24  25
DOCKED: ENDBRANCH  21  24
DOCKED: BRANCH  23  31
DOCKED: ATOM     31  O   UNL     1     137.899  72.215 222.886 -0.08 +0.14    -0.391 OA 
DOCKED: ATOM     32  H   UNL     1     138.220  73.118 223.099 -0.46 -0.13    +0.211 HD 
DOCKED: ENDBRANCH  23  31
DOCKED: ENDBRANCH  17  19
DOCKED: ENDBRANCH   1  17
DOCKED: TORSDOF 7
DOCKED: TER
DOCKED: ENDMDL
________________________________________________________________________________


    FINAL DOCKED STATE:
    ________________________


Run:   17 / 20
Time taken for this run:   0.025s

DOCKED: MODEL        17
DOCKED: USER    Run = 17
DOCKED: USER
DOCKED: USER    Estimated Free Energy of Binding    =  -8.84 kcal/mol  [=(1)+(2)+(3)-(4)]
DOCKED: USER
DOCKED: USER    (1) Final Intermolecular Energy     = -10.93 kcal/mol
DOCKED: USER        vdW + Hbond + desolv Energy     = -10.84 kcal/mol
DOCKED: USER        Electrostatic Energy            =  -0.09 kcal/mol
DOCKED: USER        Moving Ligand-Fixed Receptor    = -10.93 kcal/mol
DOCKED: USER        Moving Ligand-Moving Receptor   =  +0.00 kcal/mol
DOCKED: USER    (2) Final Total Internal Energy     =  -1.81 kcal/mol
DOCKED: USER    (3) Torsional Free Energy           =  +2.09 kcal/mol
DOCKED: USER    (4) Unbound System's Energy         =  -1.81 kcal/mol
DOCKED: USER
DOCKED: USER
DOCKED: REMARK SMILES O=C(NCC(=O)N1CC[C@H](O)[C@H]1Cc1ccccc1)c1ccc2cc(F)ccc2n1
DOCKED: REMARK SMILES IDX 4 1 3 2 2 3 1 4 20 6 21 7 30 8 22 9 29 10 23 11 28 12 24 13
DOCKED: REMARK SMILES IDX 27 14 25 15 26 16 5 17 6 18 7 19 8 20 12 21 9 22 10 23 13 24
DOCKED: REMARK SMILES IDX 14 25 15 26 19 27 16 28 18 29 17 30 11 31
DOCKED: REMARK H PARENT 3 5 11 32
DOCKED: USER                              x       y       z     vdW  Elec       q    Type
DOCKED: USER                           _______ _______ _______ _____ _____    ______ ____
DOCKED: ROOT
DOCKED: ATOM      1  C   UNL     1     139.467  74.178 221.236 -0.16 -0.04    +0.216 C  
DOCKED: ENDROOT
DOCKED: BRANCH   1   2
DOCKED: ATOM      2  N   UNL     1     139.540  73.266 222.345 -0.14 +0.07    -0.342 N  
DOCKED: ATOM      3  C   UNL     1     139.565  71.861 222.171 -0.17 -0.05    +0.270 C  
DOCKED: ATOM      4  O   UNL     1     139.524  71.316 221.035 -0.06 +0.05    -0.268 OA 
DOCKED: ATOM      5  H   UNL     1     139.578  73.645 223.337 -0.47 -0.04    +0.164 HD 
DOCKED: BRANCH   3   6
DOCKED: ATOM      6  C   UNL     1     139.642  71.009 223.373 -0.28 -0.02    +0.128 A  
DOCKED: ATOM      7  C   UNL     1     139.181  69.709 223.353 -0.24 -0.01    +0.035 A  
DOCKED: ATOM      8  N   UNL     1     140.172  71.492 224.534 -0.30 +0.04    -0.243 NA 
DOCKED: ATOM      9  C   UNL     1     139.255  68.903 224.492 -0.34 -0.00    +0.013 A  
DOCKED: ATOM     10  C   UNL     1     140.263  70.755 225.655 -0.50 -0.01    +0.071 A  
DOCKED: ATOM     11  C   UNL     1     139.807  69.453 225.647 -0.46 -0.00    +0.003 A  
DOCKED: ATOM     12  C   UNL     1     140.819  71.361 226.758 -0.68 -0.01    +0.032 A  
DOCKED: ATOM     13  C   UNL     1     139.904  68.695 226.810 -0.56 -0.01    +0.049 A  
DOCKED: ATOM     14  C   UNL     1     140.913  70.600 227.913 -0.63 -0.01    +0.041 A  
DOCKED: ATOM     15  C   UNL     1     140.460  69.290 227.929 -0.53 -0.02    +0.123 A  
DOCKED: ATOM     16  F   UNL     1     140.577  68.583 229.094 -0.15 +0.04    -0.207 F  
DOCKED: ENDBRANCH   3   6
DOCKED: ENDBRANCH   1   2
DOCKED: BRANCH   1  17
DOCKED: ATOM     17  C   UNL     1     140.035  75.509 221.559 -0.23 -0.05    +0.242 C  
DOCKED: ATOM     18  O   UNL     1     139.874  76.015 222.720 -0.40 +0.04    -0.273 OA 
DOCKED: BRANCH  17  19
DOCKED: ATOM     19  N   UNL     1     140.756  76.210 220.561 -0.08 +0.11    -0.335 N  
DOCKED: ATOM     20  C   UNL     1     140.622  76.075 219.124 -0.08 -0.04    +0.122 C  
DOCKED: ATOM     21  C   UNL     1     141.791  77.220 220.780 -0.17 -0.07    +0.118 C  
DOCKED: ATOM     22  C   UNL     1     141.861  76.669 218.513 -0.18 -0.03    +0.055 C  
DOCKED: ATOM     23  C   UNL     1     142.764  76.899 219.681 -0.26 -0.10    +0.139 C  
DOCKED: BRANCH  21  24
DOCKED: ATOM     24  C   UNL     1     141.108  78.569 220.578 -0.25 -0.03    +0.063 C  
DOCKED: BRANCH  24  25
DOCKED: ATOM     25  C   UNL     1     141.473  79.429 221.734 -0.38 +0.02    -0.046 A  
DOCKED: ATOM     26  C   UNL     1     141.855  78.939 222.958 -0.56 -0.00    +0.004 A  
DOCKED: ATOM     27  C   UNL     1     141.430  80.802 221.581 -0.40 -0.00    +0.004 A  
DOCKED: ATOM     28  C   UNL     1     142.188  79.753 224.018 -0.57 -0.00    +0.000 A  
DOCKED: ATOM     29  C   UNL     1     141.755  81.669 222.614 -0.48 -0.00    +0.000 A  
DOCKED: ATOM     30  C   UNL     1     142.132  81.118 223.825 -0.64 -0.00    +0.000 A  
DOCKED: ENDBRANCH  24  25
DOCKED: ENDBRANCH  21  24
DOCKED: BRANCH  23  31
DOCKED: ATOM     31  O   UNL     1     143.342  75.658 220.027 -0.23 +0.24    -0.391 OA 
DOCKED: ATOM     32  H   UNL     1     143.275  75.468 220.988 -0.26 -0.16    +0.211 HD 
DOCKED: ENDBRANCH  23  31
DOCKED: ENDBRANCH  17  19
DOCKED: ENDBRANCH   1  17
DOCKED: TORSDOF 7
DOCKED: TER
DOCKED: ENDMDL
________________________________________________________________________________


    FINAL DOCKED STATE:
    ________________________


Run:   18 / 20
Time taken for this run:   0.025s

DOCKED: MODEL        18
DOCKED: USER    Run = 18
DOCKED: USER
DOCKED: USER    Estimated Free Energy of Binding    =  -7.53 kcal/mol  [=(1)+(2)+(3)-(4)]
DOCKED: USER
DOCKED: USER    (1) Final Intermolecular Energy     =  -9.62 kcal/mol
DOCKED: USER        vdW + Hbond + desolv Energy     =  -9.62 kcal/mol
DOCKED: USER        Electrostatic Energy            =  +0.01 kcal/mol
DOCKED: USER        Moving Ligand-Fixed Receptor    =  -9.62 kcal/mol
DOCKED: USER        Moving Ligand-Moving Receptor   =  +0.00 kcal/mol
DOCKED: USER    (2) Final Total Internal Energy     =  -2.58 kcal/mol
DOCKED: USER    (3) Torsional Free Energy           =  +2.09 kcal/mol
DOCKED: USER    (4) Unbound System's Energy         =  -2.58 kcal/mol
DOCKED: USER
DOCKED: USER
DOCKED: REMARK SMILES O=C(NCC(=O)N1CC[C@H](O)[C@H]1Cc1ccccc1)c1ccc2cc(F)ccc2n1
DOCKED: REMARK SMILES IDX 4 1 3 2 2 3 1 4 20 6 21 7 30 8 22 9 29 10 23 11 28 12 24 13
DOCKED: REMARK SMILES IDX 27 14 25 15 26 16 5 17 6 18 7 19 8 20 12 21 9 22 10 23 13 24
DOCKED: REMARK SMILES IDX 14 25 15 26 19 27 16 28 18 29 17 30 11 31
DOCKED: REMARK H PARENT 3 5 11 32
DOCKED: USER                              x       y       z     vdW  Elec       q    Type
DOCKED: USER                           _______ _______ _______ _____ _____    ______ ____
DOCKED: ROOT
DOCKED: ATOM      1  C   UNL     1     138.248  74.297 221.687 -0.13 -0.06    +0.216 C  
DOCKED: ENDROOT
DOCKED: BRANCH   1   2
DOCKED: ATOM      2  N   UNL     1     137.209  74.247 222.678 +0.17 +0.14    -0.342 N  
DOCKED: ATOM      3  C   UNL     1     136.491  75.399 223.083 -0.13 -0.08    +0.270 C  
DOCKED: ATOM      4  O   UNL     1     136.715  76.542 222.602 -0.15 +0.05    -0.268 OA 
DOCKED: ATOM      5  H   UNL     1     136.958  73.321 223.135 -0.40 -0.08    +0.164 HD 
DOCKED: BRANCH   3   6
DOCKED: ATOM      6  C   UNL     1     135.442  75.245 224.108 -0.26 -0.02    +0.128 A  
DOCKED: ATOM      7  C   UNL     1     134.759  76.340 224.596 -0.24 -0.00    +0.035 A  
DOCKED: ATOM      8  N   UNL     1     135.125  74.011 224.598 -0.19 +0.04    -0.243 NA 
DOCKED: ATOM      9  C   UNL     1     133.766  76.193 225.568 -0.28 -0.00    +0.013 A  
DOCKED: ATOM     10  C   UNL     1     134.177  73.820 225.533 -0.29 -0.00    +0.071 A  
DOCKED: ATOM     11  C   UNL     1     133.487  74.907 226.028 -0.34 -0.00    +0.003 A  
DOCKED: ATOM     12  C   UNL     1     133.954  72.526 225.940 -0.31 -0.00    +0.032 A  
DOCKED: ATOM     13  C   UNL     1     132.507  74.704 226.995 -0.36 -0.00    +0.049 A  
DOCKED: ATOM     14  C   UNL     1     132.976  72.329 226.904 -0.40 -0.00    +0.041 A  
DOCKED: ATOM     15  C   UNL     1     132.270  73.408 227.417 -0.33 -0.02    +0.123 A  
DOCKED: ATOM     16  F   UNL     1     131.316  73.159 228.365 -0.12 +0.06    -0.207 F  
DOCKED: ENDBRANCH   3   6
DOCKED: ENDBRANCH   1   2
DOCKED: BRANCH   1  17
DOCKED: ATOM     17  C   UNL     1     139.401  73.431 222.032 -0.15 -0.05    +0.242 C  
DOCKED: ATOM     18  O   UNL     1     140.587  73.906 222.036 -0.78 +0.00    -0.273 OA 
DOCKED: BRANCH  17  19
DOCKED: ATOM     19  N   UNL     1     139.170  72.071 222.355 -0.12 +0.08    -0.335 N  
DOCKED: ATOM     20  C   UNL     1     139.059  70.958 221.434 -0.11 -0.02    +0.122 C  
DOCKED: ATOM     21  C   UNL     1     138.992  71.511 223.694 -0.20 -0.03    +0.118 C  
DOCKED: ATOM     22  C   UNL     1     138.390  69.837 222.183 -0.14 -0.01    +0.055 C  
DOCKED: ATOM     23  C   UNL     1     137.929  70.477 223.451 -0.19 -0.03    +0.139 C  
DOCKED: BRANCH  21  24
DOCKED: ATOM     24  C   UNL     1     140.335  70.889 224.068 -0.35 -0.01    +0.063 C  
DOCKED: BRANCH  24  25
DOCKED: ATOM     25  C   UNL     1     140.414  70.864 225.552 -0.53 +0.01    -0.046 A  
DOCKED: ATOM     26  C   UNL     1     139.867  69.872 226.328 -0.50 -0.00    +0.004 A  
DOCKED: ATOM     27  C   UNL     1     141.074  71.891 226.201 -0.66 -0.00    +0.004 A  
DOCKED: ATOM     28  C   UNL     1     139.951  69.867 227.703 -0.62 -0.00    +0.000 A  
DOCKED: ATOM     29  C   UNL     1     141.188  71.937 227.582 -0.83 -0.00    +0.000 A  
DOCKED: ATOM     30  C   UNL     1     140.616  70.910 228.311 -0.64 -0.00    +0.000 A  
DOCKED: ENDBRANCH  24  25
DOCKED: ENDBRANCH  21  24
DOCKED: BRANCH  23  31
DOCKED: ATOM     31  O   UNL     1     136.749  71.197 223.164 -0.07 +0.08    -0.391 OA 
DOCKED: ATOM     32  H   UNL     1     136.586  71.281 222.199 +0.04 -0.04    +0.211 HD 
DOCKED: ENDBRANCH  23  31
DOCKED: ENDBRANCH  17  19
DOCKED: ENDBRANCH   1  17
DOCKED: TORSDOF 7
DOCKED: TER
DOCKED: ENDMDL
________________________________________________________________________________


    FINAL DOCKED STATE:
    ________________________


Run:   19 / 20
Time taken for this run:   0.025s

DOCKED: MODEL        19
DOCKED: USER    Run = 19
DOCKED: USER
DOCKED: USER    Estimated Free Energy of Binding    =  -8.36 kcal/mol  [=(1)+(2)+(3)-(4)]
DOCKED: USER
DOCKED: USER    (1) Final Intermolecular Energy     = -10.44 kcal/mol
DOCKED: USER        vdW + Hbond + desolv Energy     = -10.38 kcal/mol
DOCKED: USER        Electrostatic Energy            =  -0.06 kcal/mol
DOCKED: USER        Moving Ligand-Fixed Receptor    = -10.44 kcal/mol
DOCKED: USER        Moving Ligand-Moving Receptor   =  +0.00 kcal/mol
DOCKED: USER    (2) Final Total Internal Energy     =  -2.09 kcal/mol
DOCKED: USER    (3) Torsional Free Energy           =  +2.09 kcal/mol
DOCKED: USER    (4) Unbound System's Energy         =  -2.09 kcal/mol
DOCKED: USER
DOCKED: USER
DOCKED: REMARK SMILES O=C(NCC(=O)N1CC[C@H](O)[C@H]1Cc1ccccc1)c1ccc2cc(F)ccc2n1
DOCKED: REMARK SMILES IDX 4 1 3 2 2 3 1 4 20 6 21 7 30 8 22 9 29 10 23 11 28 12 24 13
DOCKED: REMARK SMILES IDX 27 14 25 15 26 16 5 17 6 18 7 19 8 20 12 21 9 22 10 23 13 24
DOCKED: REMARK SMILES IDX 14 25 15 26 19 27 16 28 18 29 17 30 11 31
DOCKED: REMARK H PARENT 3 5 11 32
DOCKED: USER                              x       y       z     vdW  Elec       q    Type
DOCKED: USER                           _______ _______ _______ _____ _____    ______ ____
DOCKED: ROOT
DOCKED: ATOM      1  C   UNL     1     141.303  71.874 221.159 -0.15 -0.03    +0.216 C  
DOCKED: ENDROOT
DOCKED: BRANCH   1   2
DOCKED: ATOM      2  N   UNL     1     141.519  73.289 221.033 -0.12 +0.05    -0.342 N  
DOCKED: ATOM      3  C   UNL     1     140.669  74.243 221.643 -0.17 -0.03    +0.270 C  
DOCKED: ATOM      4  O   UNL     1     139.669  73.916 222.337 -0.81 +0.03    -0.268 OA 
DOCKED: ATOM      5  H   UNL     1     142.342  73.648 220.464 +0.06 -0.04    +0.164 HD 
DOCKED: BRANCH   3   6
DOCKED: ATOM      6  C   UNL     1     140.975  75.674 221.455 -0.29 -0.04    +0.128 A  
DOCKED: ATOM      7  C   UNL     1     141.417  76.152 220.239 -0.24 -0.01    +0.035 A  
DOCKED: ATOM      8  N   UNL     1     140.827  76.557 222.485 -0.27 +0.07    -0.243 NA 
DOCKED: ATOM      9  C   UNL     1     141.707  77.508 220.062 -0.29 -0.01    +0.013 A  
DOCKED: ATOM     10  C   UNL     1     141.093  77.870 222.362 -0.41 -0.03    +0.071 A  
DOCKED: ATOM     11  C   UNL     1     141.535  78.360 221.151 -0.35 -0.00    +0.003 A  
DOCKED: ATOM     12  C   UNL     1     140.901  78.652 223.477 -0.46 -0.01    +0.032 A  
DOCKED: ATOM     13  C   UNL     1     141.809  79.719 221.030 -0.35 -0.02    +0.049 A  
DOCKED: ATOM     14  C   UNL     1     141.176  80.006 223.350 -0.50 -0.01    +0.041 A  
DOCKED: ATOM     15  C   UNL     1     141.622  80.521 222.142 -0.39 -0.04    +0.123 A  
DOCKED: ATOM     16  F   UNL     1     141.877  81.863 222.070 -0.13 +0.04    -0.207 F  
DOCKED: ENDBRANCH   3   6
DOCKED: ENDBRANCH   1   2
DOCKED: BRANCH   1  17
DOCKED: ATOM     17  C   UNL     1     139.872  71.506 221.037 -0.09 -0.04    +0.242 C  
DOCKED: ATOM     18  O   UNL     1     139.252  71.684 219.935 -0.02 +0.05    -0.273 OA 
DOCKED: BRANCH  17  19
DOCKED: ATOM     19  N   UNL     1     139.203  70.956 222.158 -0.07 +0.06    -0.335 N  
DOCKED: ATOM     20  C   UNL     1     138.239  69.873 222.159 -0.12 -0.02    +0.122 C  
DOCKED: ATOM     21  C   UNL     1     139.350  71.372 223.552 -0.28 -0.03    +0.118 C  
DOCKED: ATOM     22  C   UNL     1     137.503  69.946 223.470 -0.20 -0.01    +0.055 C  
DOCKED: ATOM     23  C   UNL     1     137.939  71.250 224.055 -0.10 -0.04    +0.139 C  
DOCKED: BRANCH  21  24
DOCKED: ATOM     24  C   UNL     1     140.287  70.354 224.195 -0.26 -0.01    +0.063 C  
DOCKED: BRANCH  24  25
DOCKED: ATOM     25  C   UNL     1     140.463  70.748 225.617 -0.53 +0.01    -0.046 A  
DOCKED: ATOM     26  C   UNL     1     141.087  71.904 226.017 -0.59 -0.00    +0.004 A  
DOCKED: ATOM     27  C   UNL     1     139.974  69.913 226.605 -0.53 -0.00    +0.004 A  
DOCKED: ATOM     28  C   UNL     1     141.241  72.251 227.341 -0.83 -0.00    +0.000 A  
DOCKED: ATOM     29  C   UNL     1     140.101  70.212 227.953 -0.64 -0.00    +0.000 A  
DOCKED: ATOM     30  C   UNL     1     140.740  71.390 228.295 -0.74 -0.00    +0.000 A  
DOCKED: ENDBRANCH  24  25
DOCKED: ENDBRANCH  21  24
DOCKED: BRANCH  23  31
DOCKED: ATOM     31  O   UNL     1     137.211  72.274 223.410 -0.04 +0.15    -0.391 OA 
DOCKED: ATOM     32  H   UNL     1     137.785  73.014 223.114 -0.47 -0.12    +0.211 HD 
DOCKED: ENDBRANCH  23  31
DOCKED: ENDBRANCH  17  19
DOCKED: ENDBRANCH   1  17
DOCKED: TORSDOF 7
DOCKED: TER
DOCKED: ENDMDL
________________________________________________________________________________


    FINAL DOCKED STATE:
    ________________________


Run:   20 / 20
Time taken for this run:   0.025s

DOCKED: MODEL        20
DOCKED: USER    Run = 20
DOCKED: USER
DOCKED: USER    Estimated Free Energy of Binding    =  -6.61 kcal/mol  [=(1)+(2)+(3)-(4)]
DOCKED: USER
DOCKED: USER    (1) Final Intermolecular Energy     =  -8.69 kcal/mol
DOCKED: USER        vdW + Hbond + desolv Energy     =  -8.62 kcal/mol
DOCKED: USER        Electrostatic Energy            =  -0.07 kcal/mol
DOCKED: USER        Moving Ligand-Fixed Receptor    =  -8.69 kcal/mol
DOCKED: USER        Moving Ligand-Moving Receptor   =  +0.00 kcal/mol
DOCKED: USER    (2) Final Total Internal Energy     =  -3.31 kcal/mol
DOCKED: USER    (3) Torsional Free Energy           =  +2.09 kcal/mol
DOCKED: USER    (4) Unbound System's Energy         =  -3.31 kcal/mol
DOCKED: USER
DOCKED: USER
DOCKED: REMARK SMILES O=C(NCC(=O)N1CC[C@H](O)[C@H]1Cc1ccccc1)c1ccc2cc(F)ccc2n1
DOCKED: REMARK SMILES IDX 4 1 3 2 2 3 1 4 20 6 21 7 30 8 22 9 29 10 23 11 28 12 24 13
DOCKED: REMARK SMILES IDX 27 14 25 15 26 16 5 17 6 18 7 19 8 20 12 21 9 22 10 23 13 24
DOCKED: REMARK SMILES IDX 14 25 15 26 19 27 16 28 18 29 17 30 11 31
DOCKED: REMARK H PARENT 3 5 11 32
DOCKED: USER                              x       y       z     vdW  Elec       q    Type
DOCKED: USER                           _______ _______ _______ _____ _____    ______ ____
DOCKED: ROOT
DOCKED: ATOM      1  C   UNL     1     140.236  73.838 221.545 -0.21 -0.03    +0.216 C  
DOCKED: ENDROOT
DOCKED: BRANCH   1   2
DOCKED: ATOM      2  N   UNL     1     138.950  74.169 222.094 -0.09 +0.09    -0.342 N  
DOCKED: ATOM      3  C   UNL     1     137.980  74.900 221.367 -0.11 -0.06    +0.270 C  
DOCKED: ATOM      4  O   UNL     1     138.178  75.309 220.192 -0.03 +0.06    -0.268 OA 
DOCKED: ATOM      5  H   UNL     1     138.703  73.861 223.081 -0.55 -0.11    +0.164 HD 
DOCKED: BRANCH   3   6
DOCKED: ATOM      6  C   UNL     1     136.689  75.189 222.019 -0.14 -0.03    +0.128 A  
DOCKED: ATOM      7  C   UNL     1     135.580  75.539 221.275 -0.06 -0.01    +0.035 A  
DOCKED: ATOM      8  N   UNL     1     136.564  75.117 223.376 -0.07 +0.08    -0.243 NA 
DOCKED: ATOM      9  C   UNL     1     134.357  75.813 221.894 -0.05 -0.00    +0.013 A  
DOCKED: ATOM     10  C   UNL     1     135.408  75.372 224.015 -0.27 -0.01    +0.071 A  
DOCKED: ATOM     11  C   UNL     1     134.293  75.722 223.283 -0.12 -0.00    +0.003 A  
DOCKED: ATOM     12  C   UNL     1     135.417  75.263 225.387 -0.35 -0.00    +0.032 A  
DOCKED: ATOM     13  C   UNL     1     133.100  75.985 223.950 -0.09 -0.01    +0.049 A  
DOCKED: ATOM     14  C   UNL     1     134.225  75.526 226.046 -0.39 -0.00    +0.041 A  
DOCKED: ATOM     15  C   UNL     1     133.091  75.880 225.330 -0.16 -0.01    +0.123 A  
DOCKED: ATOM     16  F   UNL     1     131.941  76.128 226.028 -0.02 +0.01    -0.207 F  
DOCKED: ENDBRANCH   3   6
DOCKED: ENDBRANCH   1   2
DOCKED: BRANCH   1  17
DOCKED: ATOM     17  C   UNL     1     140.544  72.391 221.654 -0.19 -0.03    +0.242 C  
DOCKED: ATOM     18  O   UNL     1     141.639  71.927 221.188 -0.15 +0.03    -0.273 OA 
DOCKED: BRANCH  17  19
DOCKED: ATOM     19  N   UNL     1     139.607  71.533 222.281 -0.12 +0.06    -0.335 N  
DOCKED: ATOM     20  C   UNL     1     138.812  70.496 221.654 -0.11 -0.02    +0.122 C  
DOCKED: ATOM     21  C   UNL     1     139.248  71.521 223.698 -0.24 -0.03    +0.118 C  
DOCKED: ATOM     22  C   UNL     1     137.686  70.178 222.599 -0.14 -0.01    +0.055 C  
DOCKED: ATOM     23  C   UNL     1     137.771  71.252 223.634 -0.17 -0.04    +0.139 C  
DOCKED: BRANCH  21  24
DOCKED: ATOM     24  C   UNL     1     140.024  70.361 224.316 -0.34 -0.01    +0.063 C  
DOCKED: BRANCH  24  25
DOCKED: ATOM     25  C   UNL     1     140.343  70.737 225.717 -0.53 +0.01    -0.046 A  
DOCKED: ATOM     26  C   UNL     1     139.944  70.011 226.812 -0.54 -0.00    +0.004 A  
DOCKED: ATOM     27  C   UNL     1     141.085  71.881 225.947 -0.58 -0.00    +0.004 A  
DOCKED: ATOM     28  C   UNL     1     140.249  70.377 228.104 -0.63 -0.00    +0.000 A  
DOCKED: ATOM     29  C   UNL     1     141.421  72.297 227.227 -0.81 -0.00    +0.000 A  
DOCKED: ATOM     30  C   UNL     1     140.990  71.525 228.290 -0.77 -0.00    +0.000 A  
DOCKED: ENDBRANCH  24  25
DOCKED: ENDBRANCH  21  24
DOCKED: BRANCH  23  31
DOCKED: ATOM     31  O   UNL     1     137.190  72.419 223.089 -0.07 +0.14    -0.391 OA 
DOCKED: ATOM     32  H   UNL     1     137.076  73.129 223.757 -0.51 -0.14    +0.211 HD 
DOCKED: ENDBRANCH  23  31
DOCKED: ENDBRANCH  17  19
DOCKED: ENDBRANCH   1  17
DOCKED: TORSDOF 7
DOCKED: TER
DOCKED: ENDMDL
________________________________________________________________________________


    CLUSTERING HISTOGRAM
    ____________________


________________________________________________________________________________
     |           |     |           |     |
Clus | Lowest    | Run | Mean      | Num | Histogram
-ter | Binding   |     | Binding   | in  |
Rank | Energy    |     | Energy    | Clus|    5    10   15   20   25   30   35
_____|___________|_____|___________|_____|____:____|____:____|____:____|____:___
   1 |     -9.16 |   7 |     -8.86 |   8 |########
   2 |     -8.73 |  11 |     -8.52 |   3 |###
   3 |     -7.55 |   4 |     -7.23 |   7 |#######
   4 |     -7.01 |  16 |     -6.99 |   2 |##
_____|___________|_____|___________|_____|______________________________________


    RMSD TABLE
    __________


_______________________________________________________________________
     |      |      |           |         |                 |
Rank | Sub- | Run  | Binding   | Cluster | Reference       | Grep
     | Rank |      | Energy    | RMSD    | RMSD            | Pattern
_____|______|______|___________|_________|_________________|___________
   1      1      7       -9.16      0.00    271.09           RANKING
   1      2     15       -8.85      0.54    271.08           RANKING
   1      3     13       -8.84      0.59    271.00           RANKING
   1      4     17       -8.84      0.60    271.01           RANKING
   1      5     12       -8.83      0.61    271.03           RANKING
   1      6      1       -8.83      0.61    271.01           RANKING
   1      7      8       -8.83      0.59    271.02           RANKING
   1      8      5       -8.66      0.62    271.03           RANKING
   2      1     11       -8.73      0.00    271.26           RANKING
   2      2      2       -8.47      0.26    271.18           RANKING
   2      3     19       -8.36      1.82    270.62           RANKING
   3      1      4       -7.55      0.00    270.16           RANKING
   3      2      9       -7.54      0.05    270.16           RANKING
   3      3     18       -7.53      0.62    270.05           RANKING
   3      4      3       -7.35      1.15    270.16           RANKING
   3      5     10       -7.08      0.81    269.99           RANKING
   3      6      6       -6.95      0.70    269.90           RANKING
   3      7     20       -6.61      1.61    269.83           RANKING
   4      1     16       -7.01      0.00    270.06           RANKING
   4      2     14       -6.97      0.09    270.09           RANKING

Run time 0.477 sec
Idle time 0.000 sec
