AutoDock-GPU version: v1.6

**********************************************************
**    AutoDock-GPU AUTODOCKTOOLS-COMPATIBLE DLG FILE    **
**********************************************************


    DOCKING PARAMETERS
    ________________________


Ligand file:                               /home/a/REINVENT4/ReinventStudies/pleaseWork/justmol2mol_4_Compounds_ontop/graph-dock-hn62wh/graph-DockGPU/node-autodockgpu/inputs/NHWJLCLQNHDNSZ-NAUSHLRJNA-N.pdbqt
Grid fld file:                             /home/a/REINVENT4/ReinventStudies/mols/Rad51/maps/rad51_receptor.maps.fld

Random seed:                               42
Number of runs:                            20
Number of energy evaluations:              1132076
Number of generations:                     42000
Size of population:                        150
Rate of crossover:                         80.000000%
Tournament selection probability limit:    60.000000%
Rate of mutation:                          2.000000%
Maximal allowed delta movement:            +/- 6.000000A
Maximal allowed delta angle:               +/- 90.000000

Rate of local search:                      100.000000%
Maximal number of local search iterations: 300
Rho lower bound:                           0.010000
Spread of local search delta movement:     2.000000A
Spread of local search delta angle:        74.999999
Limit of consecutive successes/failures:   4

Handle symmetry during clustering:         YES
RMSD tolerance:                            2.000000A

Program call in command line was:          /home/a/REINVENT4/ReinventStudies/adgpu-v1.6_linux_x64_cuda12_128wi --filelist batch.txt --heuristics 1 --nrun 20 --psize 150 --lsit 300 --seed 42 --heurmax 12000000 


    GRID PARAMETERS
    ________________________


Receptor name:                             rad51_receptor
Number of grid points (x, y, z):           53, 53, 53
Grid center (x, y, z):                     139.950000, 75.640000, 221.970000A
Grid size (x, y, z):                       19.500000, 19.500000, 19.500000A
Grid spacing:                              0.375000A


    LIGAND PARAMETERS
    ________________________


Ligand name:                               /home/a/REINVENT4/ReinventStudies/pleaseWork/justmol2mol_4_Compounds_ontop/graph-dock-hn62wh/graph-DockGPU/node-autodockgpu/inputs/NHWJLCLQNHDNSZ-NAUSHLRJNA-N
Number of atoms:                           30
Number of rotatable bonds:                 5
Number of atom types:                      7


    DUMMY DATA (only for ADT-compatibility)
    ________________________


DPF> outlev 1
DPF> ga_run 20
DPF> fld /home/a/REINVENT4/ReinventStudies/mols/Rad51/maps/rad51_receptor.maps.fld
DPF> move /home/a/REINVENT4/ReinventStudies/pleaseWork/justmol2mol_4_Compounds_ontop/graph-dock-hn62wh/graph-DockGPU/node-autodockgpu/inputs/NHWJLCLQNHDNSZ-NAUSHLRJNA-N.pdbqt


    COUNTER STATES
    ________________________


Number of energy evaluations performed:    1142445
Number of generations used:                57


    INPUT LIGAND PDBQT FILE:
    ________________________


INPUT-LIGAND-PDBQT: REMARK SMILES O=C(NCC(=O)N1CCCC[C@H]1c1ccccc1)c1ccc2cc(Cl)ccc2n1
INPUT-LIGAND-PDBQT: REMARK SMILES IDX 4 1 3 2 2 3 1 4 19 6 20 7 29 8 21 9 28 10 22 11 27 12 23 13
INPUT-LIGAND-PDBQT: REMARK SMILES IDX 26 14 24 15 25 16 5 17 6 18 7 19 8 20 12 21 9 22 11 23 10 24
INPUT-LIGAND-PDBQT: REMARK SMILES IDX 13 25 14 26 18 27 15 28 17 29 16 30
INPUT-LIGAND-PDBQT: REMARK H PARENT 3 5
INPUT-LIGAND-PDBQT: ROOT
INPUT-LIGAND-PDBQT: ATOM      1  C   UNL     1       0.002  -1.347   0.317  1.00  0.00     0.216 C 
INPUT-LIGAND-PDBQT: ENDROOT
INPUT-LIGAND-PDBQT: BRANCH   1   2
INPUT-LIGAND-PDBQT: ATOM      2  N   UNL     1       1.221  -0.652  -0.031  1.00  0.00    -0.342 N 
INPUT-LIGAND-PDBQT: ATOM      3  C   UNL     1       2.434  -1.175   0.537  1.00  0.00     0.270 C 
INPUT-LIGAND-PDBQT: ATOM      4  O   UNL     1       2.296  -2.184   1.277  1.00  0.00    -0.268 OA
INPUT-LIGAND-PDBQT: ATOM      5  H   UNL     1       1.249   0.191  -0.662  1.00  0.00     0.164 HD
INPUT-LIGAND-PDBQT: BRANCH   3   6
INPUT-LIGAND-PDBQT: ATOM      6  C   UNL     1       3.724  -0.557   0.257  1.00  0.00     0.128 A 
INPUT-LIGAND-PDBQT: ATOM      7  C   UNL     1       4.832  -1.131   0.849  1.00  0.00     0.035 A 
INPUT-LIGAND-PDBQT: ATOM      8  N   UNL     1       3.870   0.522  -0.534  1.00  0.00    -0.243 NA
INPUT-LIGAND-PDBQT: ATOM      9  C   UNL     1       6.109  -0.650   0.670  1.00  0.00     0.013 A 
INPUT-LIGAND-PDBQT: ATOM     10  C   UNL     1       5.119   1.028  -0.735  1.00  0.00     0.071 A 
INPUT-LIGAND-PDBQT: ATOM     11  C   UNL     1       6.237   0.465  -0.151  1.00  0.00     0.002 A 
INPUT-LIGAND-PDBQT: ATOM     12  C   UNL     1       5.303   2.128  -1.536  1.00  0.00     0.030 A 
INPUT-LIGAND-PDBQT: ATOM     13  C   UNL     1       7.487   0.978  -0.357  1.00  0.00     0.030 A 
INPUT-LIGAND-PDBQT: ATOM     14  C   UNL     1       6.576   2.664  -1.756  1.00  0.00     0.023 A 
INPUT-LIGAND-PDBQT: ATOM     15  C   UNL     1       7.681   2.085  -1.162  1.00  0.00     0.041 A 
INPUT-LIGAND-PDBQT: ATOM     16  Cl  UNL     1       9.306   2.677  -1.374  1.00  0.00    -0.084 Cl
INPUT-LIGAND-PDBQT: ENDBRANCH   3   6
INPUT-LIGAND-PDBQT: ENDBRANCH   1   2
INPUT-LIGAND-PDBQT: BRANCH   1  17
INPUT-LIGAND-PDBQT: ATOM     17  C   UNL     1      -1.186  -0.700  -0.341  1.00  0.00     0.242 C 
INPUT-LIGAND-PDBQT: ATOM     18  O   UNL     1      -0.946   0.303  -1.062  1.00  0.00    -0.273 OA
INPUT-LIGAND-PDBQT: BRANCH  17  19
INPUT-LIGAND-PDBQT: ATOM     19  N   UNL     1      -2.493  -1.221  -0.137  1.00  0.00    -0.334 N 
INPUT-LIGAND-PDBQT: ATOM     20  C   UNL     1      -2.659  -2.382   0.714  1.00  0.00     0.120 C 
INPUT-LIGAND-PDBQT: ATOM     21  C   UNL     1      -3.584  -0.548  -0.800  1.00  0.00     0.115 C 
INPUT-LIGAND-PDBQT: ATOM     22  C   UNL     1      -4.086  -2.684   1.029  1.00  0.00     0.022 C 
INPUT-LIGAND-PDBQT: ATOM     23  C   UNL     1      -4.885  -1.275  -0.779  1.00  0.00     0.030 C 
INPUT-LIGAND-PDBQT: ATOM     24  C   UNL     1      -4.837  -2.681  -0.285  1.00  0.00     0.004 C 
INPUT-LIGAND-PDBQT: BRANCH  21  25
INPUT-LIGAND-PDBQT: ATOM     25  C   UNL     1      -3.724   0.873  -0.374  1.00  0.00    -0.025 A 
INPUT-LIGAND-PDBQT: ATOM     26  C   UNL     1      -3.926   1.884  -1.294  1.00  0.00     0.006 A 
INPUT-LIGAND-PDBQT: ATOM     27  C   UNL     1      -3.653   1.199   0.965  1.00  0.00     0.006 A 
INPUT-LIGAND-PDBQT: ATOM     28  C   UNL     1      -4.055   3.198  -0.894  1.00  0.00     0.000 A 
INPUT-LIGAND-PDBQT: ATOM     29  C   UNL     1      -3.781   2.514   1.377  1.00  0.00     0.000 A 
INPUT-LIGAND-PDBQT: ATOM     30  C   UNL     1      -3.984   3.536   0.461  1.00  0.00     0.000 A 
INPUT-LIGAND-PDBQT: ENDBRANCH  21  25
INPUT-LIGAND-PDBQT: ENDBRANCH  17  19
INPUT-LIGAND-PDBQT: ENDBRANCH   1  17
INPUT-LIGAND-PDBQT: TORSDOF 5


    FINAL DOCKED STATE:
    ________________________


Run:   1 / 20
Time taken for this run:   0.046s

DOCKED: MODEL        1
DOCKED: USER    Run = 1
DOCKED: USER
DOCKED: USER    Estimated Free Energy of Binding    =  -8.18 kcal/mol  [=(1)+(2)+(3)-(4)]
DOCKED: USER
DOCKED: USER    (1) Final Intermolecular Energy     =  -9.67 kcal/mol
DOCKED: USER        vdW + Hbond + desolv Energy     =  -9.70 kcal/mol
DOCKED: USER        Electrostatic Energy            =  +0.03 kcal/mol
DOCKED: USER        Moving Ligand-Fixed Receptor    =  -9.67 kcal/mol
DOCKED: USER        Moving Ligand-Moving Receptor   =  +0.00 kcal/mol
DOCKED: USER    (2) Final Total Internal Energy     =  -2.07 kcal/mol
DOCKED: USER    (3) Torsional Free Energy           =  +1.49 kcal/mol
DOCKED: USER    (4) Unbound System's Energy         =  -2.07 kcal/mol
DOCKED: USER
DOCKED: USER
DOCKED: REMARK SMILES O=C(NCC(=O)N1CCCC[C@H]1c1ccccc1)c1ccc2cc(Cl)ccc2n1
DOCKED: REMARK SMILES IDX 4 1 3 2 2 3 1 4 19 6 20 7 29 8 21 9 28 10 22 11 27 12 23 13
DOCKED: REMARK SMILES IDX 26 14 24 15 25 16 5 17 6 18 7 19 8 20 12 21 9 22 11 23 10 24
DOCKED: REMARK SMILES IDX 13 25 14 26 18 27 15 28 17 29 16 30
DOCKED: REMARK H PARENT 3 5
DOCKED: USER                              x       y       z     vdW  Elec       q    Type
DOCKED: USER                           _______ _______ _______ _____ _____    ______ ____
DOCKED: ROOT
DOCKED: ATOM      1  C   UNL     1     139.712  74.913 220.936 -0.15 -0.05    +0.216 C  
DOCKED: ENDROOT
DOCKED: BRANCH   1   2
DOCKED: ATOM      2  N   UNL     1     139.747  74.125 222.147 -0.10 +0.04    -0.342 N  
DOCKED: ATOM      3  C   UNL     1     140.025  72.724 221.985 -0.20 -0.04    +0.270 C  
DOCKED: ATOM      4  O   UNL     1     140.208  72.340 220.800 -0.08 +0.04    -0.268 OA 
DOCKED: ATOM      5  H   UNL     1     139.582  74.527 223.107 -0.52 -0.00    +0.164 HD 
DOCKED: BRANCH   3   6
DOCKED: ATOM      6  C   UNL     1     140.086  71.830 223.134 -0.30 -0.02    +0.128 A  
DOCKED: ATOM      7  C   UNL     1     139.628  70.541 222.947 -0.24 -0.01    +0.035 A  
DOCKED: ATOM      8  N   UNL     1     140.558  72.205 224.337 -0.06 +0.03    -0.243 NA 
DOCKED: ATOM      9  C   UNL     1     139.628  69.594 223.946 -0.26 -0.00    +0.013 A  
DOCKED: ATOM     10  C   UNL     1     140.574  71.296 225.352 -0.51 -0.01    +0.071 A  
DOCKED: ATOM     11  C   UNL     1     140.120  70.003 225.180 -0.44 -0.00    +0.002 A  
DOCKED: ATOM     12  C   UNL     1     141.049  71.646 226.592 -0.70 -0.00    +0.030 A  
DOCKED: ATOM     13  C   UNL     1     140.139  69.096 226.203 -0.51 -0.01    +0.030 A  
DOCKED: ATOM     14  C   UNL     1     141.074  70.729 227.648 -0.64 -0.00    +0.023 A  
DOCKED: ATOM     15  C   UNL     1     140.615  69.440 227.454 -0.58 -0.01    +0.041 A  
DOCKED: ATOM     16  Cl  UNL     1     140.606  68.226 228.704 -0.61 +0.02    -0.084 Cl 
DOCKED: ENDBRANCH   3   6
DOCKED: ENDBRANCH   1   2
DOCKED: BRANCH   1  17
DOCKED: ATOM     17  C   UNL     1     140.864  75.880 220.896 -0.20 -0.08    +0.242 C  
DOCKED: ATOM     18  O   UNL     1     141.193  76.400 221.994 -0.28 +0.11    -0.273 OA 
DOCKED: BRANCH  17  19
DOCKED: ATOM     19  N   UNL     1     141.521  76.165 219.668 -0.07 +0.14    -0.334 N  
DOCKED: ATOM     20  C   UNL     1     141.590  77.539 219.213 -0.19 -0.06    +0.120 C  
DOCKED: ATOM     21  C   UNL     1     142.085  75.050 218.945 -0.13 -0.04    +0.115 C  
DOCKED: ATOM     22  C   UNL     1     142.497  77.729 218.043 -0.30 -0.02    +0.022 C  
DOCKED: ATOM     23  C   UNL     1     142.521  75.352 217.553 -0.13 -0.01    +0.030 C  
DOCKED: ATOM     24  C   UNL     1     142.116  76.683 217.018 -0.15 -0.00    +0.004 C  
DOCKED: BRANCH  21  25
DOCKED: ATOM     25  C   UNL     1     143.135  74.335 219.724 -0.29 +0.01    -0.025 A  
DOCKED: ATOM     26  C   UNL     1     144.304  74.965 220.105 -0.42 -0.00    +0.006 A  
DOCKED: ATOM     27  C   UNL     1     142.947  73.015 220.079 -0.24 -0.00    +0.006 A  
DOCKED: ATOM     28  C   UNL     1     145.273  74.298 220.826 -0.53 -0.00    +0.000 A  
DOCKED: ATOM     29  C   UNL     1     143.912  72.336 220.803 -0.35 -0.00    +0.000 A  
DOCKED: ATOM     30  C   UNL     1     145.089  72.960 221.189 -0.52 -0.00    +0.000 A  
DOCKED: ENDBRANCH  21  25
DOCKED: ENDBRANCH  17  19
DOCKED: ENDBRANCH   1  17
DOCKED: TORSDOF 5
DOCKED: TER
DOCKED: ENDMDL
________________________________________________________________________________


    FINAL DOCKED STATE:
    ________________________


Run:   2 / 20
Time taken for this run:   0.046s

DOCKED: MODEL        2
DOCKED: USER    Run = 2
DOCKED: USER
DOCKED: USER    Estimated Free Energy of Binding    =  -8.39 kcal/mol  [=(1)+(2)+(3)-(4)]
DOCKED: USER
DOCKED: USER    (1) Final Intermolecular Energy     =  -9.88 kcal/mol
DOCKED: USER        vdW + Hbond + desolv Energy     =  -9.89 kcal/mol
DOCKED: USER        Electrostatic Energy            =  +0.01 kcal/mol
DOCKED: USER        Moving Ligand-Fixed Receptor    =  -9.88 kcal/mol
DOCKED: USER        Moving Ligand-Moving Receptor   =  +0.00 kcal/mol
DOCKED: USER    (2) Final Total Internal Energy     =  -2.04 kcal/mol
DOCKED: USER    (3) Torsional Free Energy           =  +1.49 kcal/mol
DOCKED: USER    (4) Unbound System's Energy         =  -2.04 kcal/mol
DOCKED: USER
DOCKED: USER
DOCKED: REMARK SMILES O=C(NCC(=O)N1CCCC[C@H]1c1ccccc1)c1ccc2cc(Cl)ccc2n1
DOCKED: REMARK SMILES IDX 4 1 3 2 2 3 1 4 19 6 20 7 29 8 21 9 28 10 22 11 27 12 23 13
DOCKED: REMARK SMILES IDX 26 14 24 15 25 16 5 17 6 18 7 19 8 20 12 21 9 22 11 23 10 24
DOCKED: REMARK SMILES IDX 13 25 14 26 18 27 15 28 17 29 16 30
DOCKED: REMARK H PARENT 3 5
DOCKED: USER                              x       y       z     vdW  Elec       q    Type
DOCKED: USER                           _______ _______ _______ _____ _____    ______ ____
DOCKED: ROOT
DOCKED: ATOM      1  C   UNL     1     139.932  74.472 220.920 -0.16 -0.04    +0.216 C  
DOCKED: ENDROOT
DOCKED: BRANCH   1   2
DOCKED: ATOM      2  N   UNL     1     139.890  73.740 222.165 -0.12 +0.03    -0.342 N  
DOCKED: ATOM      3  C   UNL     1     140.206  72.339 222.089 -0.20 -0.04    +0.270 C  
DOCKED: ATOM      4  O   UNL     1     140.483  71.907 220.940 -0.10 +0.04    -0.268 OA 
DOCKED: ATOM      5  H   UNL     1     139.647  74.181 223.090 -0.48 -0.00    +0.164 HD 
DOCKED: BRANCH   3   6
DOCKED: ATOM      6  C   UNL     1     140.196  71.499 223.280 -0.31 -0.02    +0.128 A  
DOCKED: ATOM      7  C   UNL     1     139.647  70.239 223.150 -0.23 -0.01    +0.035 A  
DOCKED: ATOM      8  N   UNL     1     140.688  71.897 224.468 -0.25 +0.03    -0.243 NA 
DOCKED: ATOM      9  C   UNL     1     139.574  69.343 224.193 -0.29 -0.00    +0.013 A  
DOCKED: ATOM     10  C   UNL     1     140.633  71.039 225.525 -0.53 -0.01    +0.071 A  
DOCKED: ATOM     11  C   UNL     1     140.088  69.774 225.411 -0.45 -0.00    +0.002 A  
DOCKED: ATOM     12  C   UNL     1     141.126  71.413 226.751 -0.69 -0.00    +0.030 A  
DOCKED: ATOM     13  C   UNL     1     140.037  68.919 226.475 -0.54 -0.01    +0.030 A  
DOCKED: ATOM     14  C   UNL     1     141.080  70.548 227.849 -0.62 -0.00    +0.023 A  
DOCKED: ATOM     15  C   UNL     1     140.531  69.287 227.713 -0.59 -0.01    +0.041 A  
DOCKED: ATOM     16  Cl  UNL     1     140.427  68.138 229.019 -0.21 +0.02    -0.084 Cl 
DOCKED: ENDBRANCH   3   6
DOCKED: ENDBRANCH   1   2
DOCKED: BRANCH   1  17
DOCKED: ATOM     17  C   UNL     1     140.866  75.646 221.023 -0.21 -0.07    +0.242 C  
DOCKED: ATOM     18  O   UNL     1     140.976  76.173 222.161 -0.36 +0.09    -0.273 OA 
DOCKED: BRANCH  17  19
DOCKED: ATOM     19  N   UNL     1     141.571  76.108 219.878 -0.08 +0.14    -0.334 N  
DOCKED: ATOM     20  C   UNL     1     141.618  77.532 219.612 -0.22 -0.06    +0.120 C  
DOCKED: ATOM     21  C   UNL     1     142.202  75.113 219.044 -0.15 -0.04    +0.115 C  
DOCKED: ATOM     22  C   UNL     1     142.572  77.897 218.524 -0.32 -0.02    +0.022 C  
DOCKED: ATOM     23  C   UNL     1     142.693  75.608 217.727 -0.17 -0.01    +0.030 C  
DOCKED: ATOM     24  C   UNL     1     142.272  76.988 217.352 -0.20 -0.00    +0.004 C  
DOCKED: BRANCH  21  25
DOCKED: ATOM     25  C   UNL     1     143.236  74.327 219.774 -0.31 +0.01    -0.025 A  
DOCKED: ATOM     26  C   UNL     1     143.031  73.002 220.108 -0.25 -0.00    +0.006 A  
DOCKED: ATOM     27  C   UNL     1     144.429  74.924 220.130 -0.41 -0.00    +0.006 A  
DOCKED: ATOM     28  C   UNL     1     143.992  72.279 220.784 -0.36 -0.00    +0.000 A  
DOCKED: ATOM     29  C   UNL     1     145.399  74.208 220.808 -0.58 -0.00    +0.000 A  
DOCKED: ATOM     30  C   UNL     1     145.203  72.877 221.147 -0.52 -0.00    +0.000 A  
DOCKED: ENDBRANCH  21  25
DOCKED: ENDBRANCH  17  19
DOCKED: ENDBRANCH   1  17
DOCKED: TORSDOF 5
DOCKED: TER
DOCKED: ENDMDL
________________________________________________________________________________


    FINAL DOCKED STATE:
    ________________________


Run:   3 / 20
Time taken for this run:   0.046s

DOCKED: MODEL        3
DOCKED: USER    Run = 3
DOCKED: USER
DOCKED: USER    Estimated Free Energy of Binding    =  -8.36 kcal/mol  [=(1)+(2)+(3)-(4)]
DOCKED: USER
DOCKED: USER    (1) Final Intermolecular Energy     =  -9.85 kcal/mol
DOCKED: USER        vdW + Hbond + desolv Energy     =  -9.87 kcal/mol
DOCKED: USER        Electrostatic Energy            =  +0.02 kcal/mol
DOCKED: USER        Moving Ligand-Fixed Receptor    =  -9.85 kcal/mol
DOCKED: USER        Moving Ligand-Moving Receptor   =  +0.00 kcal/mol
DOCKED: USER    (2) Final Total Internal Energy     =  -2.04 kcal/mol
DOCKED: USER    (3) Torsional Free Energy           =  +1.49 kcal/mol
DOCKED: USER    (4) Unbound System's Energy         =  -2.04 kcal/mol
DOCKED: USER
DOCKED: USER
DOCKED: REMARK SMILES O=C(NCC(=O)N1CCCC[C@H]1c1ccccc1)c1ccc2cc(Cl)ccc2n1
DOCKED: REMARK SMILES IDX 4 1 3 2 2 3 1 4 19 6 20 7 29 8 21 9 28 10 22 11 27 12 23 13
DOCKED: REMARK SMILES IDX 26 14 24 15 25 16 5 17 6 18 7 19 8 20 12 21 9 22 11 23 10 24
DOCKED: REMARK SMILES IDX 13 25 14 26 18 27 15 28 17 29 16 30
DOCKED: REMARK H PARENT 3 5
DOCKED: USER                              x       y       z     vdW  Elec       q    Type
DOCKED: USER                           _______ _______ _______ _____ _____    ______ ____
DOCKED: ROOT
DOCKED: ATOM      1  C   UNL     1     139.835  74.785 220.927 -0.16 -0.05    +0.216 C  
DOCKED: ENDROOT
DOCKED: BRANCH   1   2
DOCKED: ATOM      2  N   UNL     1     139.818  74.006 222.144 -0.10 +0.04    -0.342 N  
DOCKED: ATOM      3  C   UNL     1     140.129  72.608 222.007 -0.20 -0.04    +0.270 C  
DOCKED: ATOM      4  O   UNL     1     140.381  72.220 220.837 -0.09 +0.04    -0.268 OA 
DOCKED: ATOM      5  H   UNL     1     139.595  74.411 223.091 -0.51 -0.00    +0.164 HD 
DOCKED: BRANCH   3   6
DOCKED: ATOM      6  C   UNL     1     140.142  71.723 223.165 -0.30 -0.02    +0.128 A  
DOCKED: ATOM      7  C   UNL     1     139.621  70.457 222.988 -0.24 -0.01    +0.035 A  
DOCKED: ATOM      8  N   UNL     1     140.630  72.085 224.366 -0.12 +0.03    -0.243 NA 
DOCKED: ATOM      9  C   UNL     1     139.571  69.520 223.996 -0.28 -0.00    +0.013 A  
DOCKED: ATOM     10  C   UNL     1     140.598  71.186 225.389 -0.52 -0.01    +0.071 A  
DOCKED: ATOM     11  C   UNL     1     140.080  69.915 225.228 -0.44 -0.00    +0.002 A  
DOCKED: ATOM     12  C   UNL     1     141.087  71.523 226.627 -0.70 -0.00    +0.030 A  
DOCKED: ATOM     13  C   UNL     1     140.052  69.018 226.259 -0.51 -0.01    +0.030 A  
DOCKED: ATOM     14  C   UNL     1     141.064  70.616 227.691 -0.63 -0.00    +0.023 A  
DOCKED: ATOM     15  C   UNL     1     140.542  69.350 227.508 -0.58 -0.01    +0.041 A  
DOCKED: ATOM     16  Cl  UNL     1     140.469  68.149 228.769 -0.46 +0.02    -0.084 Cl 
DOCKED: ENDBRANCH   3   6
DOCKED: ENDBRANCH   1   2
DOCKED: BRANCH   1  17
DOCKED: ATOM     17  C   UNL     1     140.925  75.821 220.974 -0.20 -0.08    +0.242 C  
DOCKED: ATOM     18  O   UNL     1     141.175  76.316 222.104 -0.30 +0.11    -0.273 OA 
DOCKED: BRANCH  17  19
DOCKED: ATOM     19  N   UNL     1     141.613  76.196 219.787 -0.08 +0.15    -0.334 N  
DOCKED: ATOM     20  C   UNL     1     141.676  77.598 219.427 -0.22 -0.06    +0.120 C  
DOCKED: ATOM     21  C   UNL     1     142.213  75.138 219.010 -0.15 -0.04    +0.115 C  
DOCKED: ATOM     22  C   UNL     1     142.613  77.876 218.299 -0.31 -0.02    +0.022 C  
DOCKED: ATOM     23  C   UNL     1     142.685  75.537 217.653 -0.16 -0.01    +0.030 C  
DOCKED: ATOM     24  C   UNL     1     142.277  76.896 217.196 -0.19 -0.00    +0.004 C  
DOCKED: BRANCH  21  25
DOCKED: ATOM     25  C   UNL     1     143.250  74.386 219.770 -0.31 +0.01    -0.025 A  
DOCKED: ATOM     26  C   UNL     1     143.065  73.063 220.125 -0.26 -0.00    +0.006 A  
DOCKED: ATOM     27  C   UNL     1     144.425  75.011 220.133 -0.38 -0.00    +0.006 A  
DOCKED: ATOM     28  C   UNL     1     144.028  72.371 220.829 -0.36 -0.00    +0.000 A  
DOCKED: ATOM     29  C   UNL     1     145.398  74.326 220.839 -0.53 -0.00    +0.000 A  
DOCKED: ATOM     30  C   UNL     1     145.222  72.998 221.200 -0.57 -0.00    +0.000 A  
DOCKED: ENDBRANCH  21  25
DOCKED: ENDBRANCH  17  19
DOCKED: ENDBRANCH   1  17
DOCKED: TORSDOF 5
DOCKED: TER
DOCKED: ENDMDL
________________________________________________________________________________


    FINAL DOCKED STATE:
    ________________________


Run:   4 / 20
Time taken for this run:   0.046s

DOCKED: MODEL        4
DOCKED: USER    Run = 4
DOCKED: USER
DOCKED: USER    Estimated Free Energy of Binding    =  -8.38 kcal/mol  [=(1)+(2)+(3)-(4)]
DOCKED: USER
DOCKED: USER    (1) Final Intermolecular Energy     =  -9.87 kcal/mol
DOCKED: USER        vdW + Hbond + desolv Energy     =  -9.87 kcal/mol
DOCKED: USER        Electrostatic Energy            =  +0.00 kcal/mol
DOCKED: USER        Moving Ligand-Fixed Receptor    =  -9.87 kcal/mol
DOCKED: USER        Moving Ligand-Moving Receptor   =  +0.00 kcal/mol
DOCKED: USER    (2) Final Total Internal Energy     =  -2.03 kcal/mol
DOCKED: USER    (3) Torsional Free Energy           =  +1.49 kcal/mol
DOCKED: USER    (4) Unbound System's Energy         =  -2.03 kcal/mol
DOCKED: USER
DOCKED: USER
DOCKED: REMARK SMILES O=C(NCC(=O)N1CCCC[C@H]1c1ccccc1)c1ccc2cc(Cl)ccc2n1
DOCKED: REMARK SMILES IDX 4 1 3 2 2 3 1 4 19 6 20 7 29 8 21 9 28 10 22 11 27 12 23 13
DOCKED: REMARK SMILES IDX 26 14 24 15 25 16 5 17 6 18 7 19 8 20 12 21 9 22 11 23 10 24
DOCKED: REMARK SMILES IDX 13 25 14 26 18 27 15 28 17 29 16 30
DOCKED: REMARK H PARENT 3 5
DOCKED: USER                              x       y       z     vdW  Elec       q    Type
DOCKED: USER                           _______ _______ _______ _____ _____    ______ ____
DOCKED: ROOT
DOCKED: ATOM      1  C   UNL     1     139.899  74.528 220.921 -0.16 -0.04    +0.216 C  
DOCKED: ENDROOT
DOCKED: BRANCH   1   2
DOCKED: ATOM      2  N   UNL     1     139.855  73.788 222.163 -0.12 +0.04    -0.342 N  
DOCKED: ATOM      3  C   UNL     1     140.178  72.390 222.080 -0.20 -0.04    +0.270 C  
DOCKED: ATOM      4  O   UNL     1     140.464  71.965 220.930 -0.10 +0.04    -0.268 OA 
DOCKED: ATOM      5  H   UNL     1     139.604  74.223 223.089 -0.50 -0.01    +0.164 HD 
DOCKED: BRANCH   3   6
DOCKED: ATOM      6  C   UNL     1     140.167  71.543 223.267 -0.31 -0.02    +0.128 A  
DOCKED: ATOM      7  C   UNL     1     139.621  70.282 223.128 -0.23 -0.01    +0.035 A  
DOCKED: ATOM      8  N   UNL     1     140.655  71.935 224.458 -0.22 +0.03    -0.243 NA 
DOCKED: ATOM      9  C   UNL     1     139.548  69.381 224.166 -0.29 -0.00    +0.013 A  
DOCKED: ATOM     10  C   UNL     1     140.599  71.071 225.510 -0.52 -0.01    +0.071 A  
DOCKED: ATOM     11  C   UNL     1     140.057  69.806 225.388 -0.45 -0.00    +0.002 A  
DOCKED: ATOM     12  C   UNL     1     141.088  71.440 226.740 -0.70 -0.00    +0.030 A  
DOCKED: ATOM     13  C   UNL     1     140.005  68.945 226.447 -0.53 -0.01    +0.030 A  
DOCKED: ATOM     14  C   UNL     1     141.040  70.569 227.833 -0.63 -0.00    +0.023 A  
DOCKED: ATOM     15  C   UNL     1     140.494  69.308 227.688 -0.59 -0.01    +0.041 A  
DOCKED: ATOM     16  Cl  UNL     1     140.390  68.151 228.987 -0.22 +0.02    -0.084 Cl 
DOCKED: ENDBRANCH   3   6
DOCKED: ENDBRANCH   1   2
DOCKED: BRANCH   1  17
DOCKED: ATOM     17  C   UNL     1     140.886  75.659 221.010 -0.21 -0.07    +0.242 C  
DOCKED: ATOM     18  O   UNL     1     141.051  76.166 222.150 -0.35 +0.09    -0.273 OA 
DOCKED: BRANCH  17  19
DOCKED: ATOM     19  N   UNL     1     141.576  76.104 219.849 -0.08 +0.14    -0.334 N  
DOCKED: ATOM     20  C   UNL     1     141.610  77.522 219.555 -0.21 -0.06    +0.120 C  
DOCKED: ATOM     21  C   UNL     1     142.208  75.098 219.030 -0.15 -0.04    +0.115 C  
DOCKED: ATOM     22  C   UNL     1     142.550  77.875 218.452 -0.32 -0.02    +0.022 C  
DOCKED: ATOM     23  C   UNL     1     142.683  75.571 217.699 -0.17 -0.01    +0.030 C  
DOCKED: ATOM     24  C   UNL     1     142.248  76.940 217.300 -0.19 -0.00    +0.004 C  
DOCKED: BRANCH  21  25
DOCKED: ATOM     25  C   UNL     1     143.255  74.335 219.765 -0.31 +0.01    -0.025 A  
DOCKED: ATOM     26  C   UNL     1     144.440  74.930 220.155 -0.40 -0.00    +0.006 A  
DOCKED: ATOM     27  C   UNL     1     143.049  73.005 220.070 -0.25 -0.00    +0.006 A  
DOCKED: ATOM     28  C   UNL     1     145.406  74.218 220.836 -0.58 -0.00    +0.000 A  
DOCKED: ATOM     29  C   UNL     1     144.012  72.282 220.753 -0.36 -0.00    +0.000 A  
DOCKED: ATOM     30  C   UNL     1     145.204  72.870 221.148 -0.52 -0.00    +0.000 A  
DOCKED: ENDBRANCH  21  25
DOCKED: ENDBRANCH  17  19
DOCKED: ENDBRANCH   1  17
DOCKED: TORSDOF 5
DOCKED: TER
DOCKED: ENDMDL
________________________________________________________________________________


    FINAL DOCKED STATE:
    ________________________


Run:   5 / 20
Time taken for this run:   0.046s

DOCKED: MODEL        5
DOCKED: USER    Run = 5
DOCKED: USER
DOCKED: USER    Estimated Free Energy of Binding    =  -8.42 kcal/mol  [=(1)+(2)+(3)-(4)]
DOCKED: USER
DOCKED: USER    (1) Final Intermolecular Energy     =  -9.91 kcal/mol
DOCKED: USER        vdW + Hbond + desolv Energy     =  -9.92 kcal/mol
DOCKED: USER        Electrostatic Energy            =  +0.00 kcal/mol
DOCKED: USER        Moving Ligand-Fixed Receptor    =  -9.91 kcal/mol
DOCKED: USER        Moving Ligand-Moving Receptor   =  +0.00 kcal/mol
DOCKED: USER    (2) Final Total Internal Energy     =  -2.02 kcal/mol
DOCKED: USER    (3) Torsional Free Energy           =  +1.49 kcal/mol
DOCKED: USER    (4) Unbound System's Energy         =  -2.02 kcal/mol
DOCKED: USER
DOCKED: USER
DOCKED: REMARK SMILES O=C(NCC(=O)N1CCCC[C@H]1c1ccccc1)c1ccc2cc(Cl)ccc2n1
DOCKED: REMARK SMILES IDX 4 1 3 2 2 3 1 4 19 6 20 7 29 8 21 9 28 10 22 11 27 12 23 13
DOCKED: REMARK SMILES IDX 26 14 24 15 25 16 5 17 6 18 7 19 8 20 12 21 9 22 11 23 10 24
DOCKED: REMARK SMILES IDX 13 25 14 26 18 27 15 28 17 29 16 30
DOCKED: REMARK H PARENT 3 5
DOCKED: USER                              x       y       z     vdW  Elec       q    Type
DOCKED: USER                           _______ _______ _______ _____ _____    ______ ____
DOCKED: ROOT
DOCKED: ATOM      1  C   UNL     1     139.885  74.562 220.934 -0.16 -0.04    +0.216 C  
DOCKED: ENDROOT
DOCKED: BRANCH   1   2
DOCKED: ATOM      2  N   UNL     1     139.847  73.815 222.171 -0.11 +0.04    -0.342 N  
DOCKED: ATOM      3  C   UNL     1     140.187  72.421 222.081 -0.20 -0.04    +0.270 C  
DOCKED: ATOM      4  O   UNL     1     140.479  72.007 220.928 -0.10 +0.04    -0.268 OA 
DOCKED: ATOM      5  H   UNL     1     139.590  74.241 223.099 -0.52 -0.01    +0.164 HD 
DOCKED: BRANCH   3   6
DOCKED: ATOM      6  C   UNL     1     140.183  71.567 223.262 -0.31 -0.02    +0.128 A  
DOCKED: ATOM      7  C   UNL     1     139.646  70.303 223.117 -0.23 -0.01    +0.035 A  
DOCKED: ATOM      8  N   UNL     1     140.670  71.955 224.455 -0.21 +0.03    -0.243 NA 
DOCKED: ATOM      9  C   UNL     1     139.580  69.395 224.149 -0.29 -0.00    +0.013 A  
DOCKED: ATOM     10  C   UNL     1     140.622  71.085 225.502 -0.52 -0.01    +0.071 A  
DOCKED: ATOM     11  C   UNL     1     140.089  69.817 225.373 -0.45 -0.00    +0.002 A  
DOCKED: ATOM     12  C   UNL     1     141.109  71.449 226.733 -0.70 -0.00    +0.030 A  
DOCKED: ATOM     13  C   UNL     1     140.043  68.949 226.427 -0.53 -0.01    +0.030 A  
DOCKED: ATOM     14  C   UNL     1     141.070  70.571 227.821 -0.63 -0.00    +0.023 A  
DOCKED: ATOM     15  C   UNL     1     140.532  69.308 227.669 -0.59 -0.01    +0.041 A  
DOCKED: ATOM     16  Cl  UNL     1     140.437  68.143 228.962 -0.27 +0.02    -0.084 Cl 
DOCKED: ENDBRANCH   3   6
DOCKED: ENDBRANCH   1   2
DOCKED: BRANCH   1  17
DOCKED: ATOM     17  C   UNL     1     140.884  75.684 221.020 -0.21 -0.07    +0.242 C  
DOCKED: ATOM     18  O   UNL     1     141.056  76.191 222.158 -0.35 +0.09    -0.273 OA 
DOCKED: BRANCH  17  19
DOCKED: ATOM     19  N   UNL     1     141.576  76.121 219.857 -0.08 +0.14    -0.334 N  
DOCKED: ATOM     20  C   UNL     1     141.618  77.538 219.558 -0.21 -0.06    +0.120 C  
DOCKED: ATOM     21  C   UNL     1     142.202  75.108 219.041 -0.15 -0.04    +0.115 C  
DOCKED: ATOM     22  C   UNL     1     142.561  77.880 218.453 -0.32 -0.02    +0.022 C  
DOCKED: ATOM     23  C   UNL     1     142.680  75.573 217.708 -0.17 -0.01    +0.030 C  
DOCKED: ATOM     24  C   UNL     1     142.252  76.943 217.305 -0.19 -0.00    +0.004 C  
DOCKED: BRANCH  21  25
DOCKED: ATOM     25  C   UNL     1     143.245  74.341 219.779 -0.31 +0.01    -0.025 A  
DOCKED: ATOM     26  C   UNL     1     143.060  73.014 220.115 -0.26 -0.00    +0.006 A  
DOCKED: ATOM     27  C   UNL     1     144.425  74.958 220.140 -0.40 -0.00    +0.006 A  
DOCKED: ATOM     28  C   UNL     1     144.028  72.308 220.798 -0.36 -0.00    +0.000 A  
DOCKED: ATOM     29  C   UNL     1     145.403  74.260 220.826 -0.56 -0.00    +0.000 A  
DOCKED: ATOM     30  C   UNL     1     145.227  72.927 221.167 -0.54 -0.00    +0.000 A  
DOCKED: ENDBRANCH  21  25
DOCKED: ENDBRANCH  17  19
DOCKED: ENDBRANCH   1  17
DOCKED: TORSDOF 5
DOCKED: TER
DOCKED: ENDMDL
________________________________________________________________________________


    FINAL DOCKED STATE:
    ________________________


Run:   6 / 20
Time taken for this run:   0.046s

DOCKED: MODEL        6
DOCKED: USER    Run = 6
DOCKED: USER
DOCKED: USER    Estimated Free Energy of Binding    =  -8.38 kcal/mol  [=(1)+(2)+(3)-(4)]
DOCKED: USER
DOCKED: USER    (1) Final Intermolecular Energy     =  -9.87 kcal/mol
DOCKED: USER        vdW + Hbond + desolv Energy     =  -9.89 kcal/mol
DOCKED: USER        Electrostatic Energy            =  +0.01 kcal/mol
DOCKED: USER        Moving Ligand-Fixed Receptor    =  -9.87 kcal/mol
DOCKED: USER        Moving Ligand-Moving Receptor   =  +0.00 kcal/mol
DOCKED: USER    (2) Final Total Internal Energy     =  -2.02 kcal/mol
DOCKED: USER    (3) Torsional Free Energy           =  +1.49 kcal/mol
DOCKED: USER    (4) Unbound System's Energy         =  -2.02 kcal/mol
DOCKED: USER
DOCKED: USER
DOCKED: REMARK SMILES O=C(NCC(=O)N1CCCC[C@H]1c1ccccc1)c1ccc2cc(Cl)ccc2n1
DOCKED: REMARK SMILES IDX 4 1 3 2 2 3 1 4 19 6 20 7 29 8 21 9 28 10 22 11 27 12 23 13
DOCKED: REMARK SMILES IDX 26 14 24 15 25 16 5 17 6 18 7 19 8 20 12 21 9 22 11 23 10 24
DOCKED: REMARK SMILES IDX 13 25 14 26 18 27 15 28 17 29 16 30
DOCKED: REMARK H PARENT 3 5
DOCKED: USER                              x       y       z     vdW  Elec       q    Type
DOCKED: USER                           _______ _______ _______ _____ _____    ______ ____
DOCKED: ROOT
DOCKED: ATOM      1  C   UNL     1     139.834  74.752 220.940 -0.16 -0.05    +0.216 C  
DOCKED: ENDROOT
DOCKED: BRANCH   1   2
DOCKED: ATOM      2  N   UNL     1     139.810  73.981 222.163 -0.10 +0.04    -0.342 N  
DOCKED: ATOM      3  C   UNL     1     140.140  72.587 222.040 -0.20 -0.04    +0.270 C  
DOCKED: ATOM      4  O   UNL     1     140.414  72.194 220.875 -0.10 +0.04    -0.268 OA 
DOCKED: ATOM      5  H   UNL     1     139.568  74.389 223.103 -0.53 -0.01    +0.164 HD 
DOCKED: BRANCH   3   6
DOCKED: ATOM      6  C   UNL     1     140.149  71.709 223.204 -0.31 -0.02    +0.128 A  
DOCKED: ATOM      7  C   UNL     1     139.620  70.445 223.036 -0.24 -0.01    +0.035 A  
DOCKED: ATOM      8  N   UNL     1     140.640  72.077 224.402 -0.12 +0.03    -0.243 NA 
DOCKED: ATOM      9  C   UNL     1     139.565  69.516 224.050 -0.29 -0.00    +0.013 A  
DOCKED: ATOM     10  C   UNL     1     140.604  71.185 225.431 -0.52 -0.01    +0.071 A  
DOCKED: ATOM     11  C   UNL     1     140.078  69.917 225.279 -0.44 -0.00    +0.002 A  
DOCKED: ATOM     12  C   UNL     1     141.096  71.528 226.666 -0.70 -0.00    +0.030 A  
DOCKED: ATOM     13  C   UNL     1     140.045  69.027 226.316 -0.52 -0.01    +0.030 A  
DOCKED: ATOM     14  C   UNL     1     141.068  70.628 227.737 -0.63 -0.00    +0.023 A  
DOCKED: ATOM     15  C   UNL     1     140.538  69.364 227.563 -0.58 -0.01    +0.041 A  
DOCKED: ATOM     16  Cl  UNL     1     140.459  68.173 228.832 -0.40 +0.02    -0.084 Cl 
DOCKED: ENDBRANCH   3   6
DOCKED: ENDBRANCH   1   2
DOCKED: BRANCH   1  17
DOCKED: ATOM     17  C   UNL     1     140.915  75.797 220.992 -0.21 -0.08    +0.242 C  
DOCKED: ATOM     18  O   UNL     1     141.162  76.288 222.124 -0.31 +0.10    -0.273 OA 
DOCKED: BRANCH  17  19
DOCKED: ATOM     19  N   UNL     1     141.598  76.184 219.806 -0.08 +0.14    -0.334 N  
DOCKED: ATOM     20  C   UNL     1     141.653  77.589 219.457 -0.21 -0.06    +0.120 C  
DOCKED: ATOM     21  C   UNL     1     142.200  75.135 219.019 -0.15 -0.04    +0.115 C  
DOCKED: ATOM     22  C   UNL     1     142.586  77.880 218.329 -0.32 -0.02    +0.022 C  
DOCKED: ATOM     23  C   UNL     1     142.667  75.547 217.664 -0.16 -0.01    +0.030 C  
DOCKED: ATOM     24  C   UNL     1     142.252  76.908 217.218 -0.19 -0.00    +0.004 C  
DOCKED: BRANCH  21  25
DOCKED: ATOM     25  C   UNL     1     143.243  74.381 219.771 -0.31 +0.01    -0.025 A  
DOCKED: ATOM     26  C   UNL     1     143.063  73.056 220.118 -0.26 -0.00    +0.006 A  
DOCKED: ATOM     27  C   UNL     1     144.418  75.009 220.132 -0.38 -0.00    +0.006 A  
DOCKED: ATOM     28  C   UNL     1     144.032  72.363 220.815 -0.36 -0.00    +0.000 A  
DOCKED: ATOM     29  C   UNL     1     145.396  74.323 220.831 -0.53 -0.00    +0.000 A  
DOCKED: ATOM     30  C   UNL     1     145.224  72.992 221.185 -0.56 -0.00    +0.000 A  
DOCKED: ENDBRANCH  21  25
DOCKED: ENDBRANCH  17  19
DOCKED: ENDBRANCH   1  17
DOCKED: TORSDOF 5
DOCKED: TER
DOCKED: ENDMDL
________________________________________________________________________________


    FINAL DOCKED STATE:
    ________________________


Run:   7 / 20
Time taken for this run:   0.046s

DOCKED: MODEL        7
DOCKED: USER    Run = 7
DOCKED: USER
DOCKED: USER    Estimated Free Energy of Binding    =  -8.41 kcal/mol  [=(1)+(2)+(3)-(4)]
DOCKED: USER
DOCKED: USER    (1) Final Intermolecular Energy     =  -9.90 kcal/mol
DOCKED: USER        vdW + Hbond + desolv Energy     =  -9.90 kcal/mol
DOCKED: USER        Electrostatic Energy            =  +0.00 kcal/mol
DOCKED: USER        Moving Ligand-Fixed Receptor    =  -9.90 kcal/mol
DOCKED: USER        Moving Ligand-Moving Receptor   =  +0.00 kcal/mol
DOCKED: USER    (2) Final Total Internal Energy     =  -2.03 kcal/mol
DOCKED: USER    (3) Torsional Free Energy           =  +1.49 kcal/mol
DOCKED: USER    (4) Unbound System's Energy         =  -2.03 kcal/mol
DOCKED: USER
DOCKED: USER
DOCKED: REMARK SMILES O=C(NCC(=O)N1CCCC[C@H]1c1ccccc1)c1ccc2cc(Cl)ccc2n1
DOCKED: REMARK SMILES IDX 4 1 3 2 2 3 1 4 19 6 20 7 29 8 21 9 28 10 22 11 27 12 23 13
DOCKED: REMARK SMILES IDX 26 14 24 15 25 16 5 17 6 18 7 19 8 20 12 21 9 22 11 23 10 24
DOCKED: REMARK SMILES IDX 13 25 14 26 18 27 15 28 17 29 16 30
DOCKED: REMARK H PARENT 3 5
DOCKED: USER                              x       y       z     vdW  Elec       q    Type
DOCKED: USER                           _______ _______ _______ _____ _____    ______ ____
DOCKED: ROOT
DOCKED: ATOM      1  C   UNL     1     139.910  74.530 220.926 -0.16 -0.04    +0.216 C  
DOCKED: ENDROOT
DOCKED: BRANCH   1   2
DOCKED: ATOM      2  N   UNL     1     139.865  73.790 222.167 -0.12 +0.04    -0.342 N  
DOCKED: ATOM      3  C   UNL     1     140.184  72.391 222.083 -0.20 -0.04    +0.270 C  
DOCKED: ATOM      4  O   UNL     1     140.466  71.966 220.932 -0.10 +0.04    -0.268 OA 
DOCKED: ATOM      5  H   UNL     1     139.618  74.225 223.094 -0.50 -0.00    +0.164 HD 
DOCKED: BRANCH   3   6
DOCKED: ATOM      6  C   UNL     1     140.172  71.543 223.269 -0.31 -0.02    +0.128 A  
DOCKED: ATOM      7  C   UNL     1     139.618  70.286 223.132 -0.23 -0.01    +0.035 A  
DOCKED: ATOM      8  N   UNL     1     140.666  71.932 224.459 -0.22 +0.03    -0.243 NA 
DOCKED: ATOM      9  C   UNL     1     139.543  69.384 224.169 -0.29 -0.00    +0.013 A  
DOCKED: ATOM     10  C   UNL     1     140.609  71.067 225.511 -0.52 -0.01    +0.071 A  
DOCKED: ATOM     11  C   UNL     1     140.060  69.806 225.389 -0.45 -0.00    +0.002 A  
DOCKED: ATOM     12  C   UNL     1     141.104  71.432 226.739 -0.69 -0.00    +0.030 A  
DOCKED: ATOM     13  C   UNL     1     140.006  68.943 226.448 -0.53 -0.01    +0.030 A  
DOCKED: ATOM     14  C   UNL     1     141.056  70.560 227.831 -0.63 -0.00    +0.023 A  
DOCKED: ATOM     15  C   UNL     1     140.502  69.303 227.688 -0.59 -0.01    +0.041 A  
DOCKED: ATOM     16  Cl  UNL     1     140.395  68.146 228.986 -0.22 +0.02    -0.084 Cl 
DOCKED: ENDBRANCH   3   6
DOCKED: ENDBRANCH   1   2
DOCKED: BRANCH   1  17
DOCKED: ATOM     17  C   UNL     1     140.879  75.676 221.024 -0.21 -0.07    +0.242 C  
DOCKED: ATOM     18  O   UNL     1     141.019  76.192 222.163 -0.35 +0.09    -0.273 OA 
DOCKED: BRANCH  17  19
DOCKED: ATOM     19  N   UNL     1     141.582  76.124 219.872 -0.08 +0.14    -0.334 N  
DOCKED: ATOM     20  C   UNL     1     141.622  77.544 219.584 -0.22 -0.06    +0.120 C  
DOCKED: ATOM     21  C   UNL     1     142.218  75.120 219.054 -0.16 -0.04    +0.115 C  
DOCKED: ATOM     22  C   UNL     1     142.575  77.897 218.491 -0.32 -0.02    +0.022 C  
DOCKED: ATOM     23  C   UNL     1     142.708  75.596 217.729 -0.17 -0.01    +0.030 C  
DOCKED: ATOM     24  C   UNL     1     142.280  76.969 217.333 -0.20 -0.00    +0.004 C  
DOCKED: BRANCH  21  25
DOCKED: ATOM     25  C   UNL     1     143.256  74.350 219.796 -0.31 +0.01    -0.025 A  
DOCKED: ATOM     26  C   UNL     1     143.064  73.025 220.136 -0.26 -0.00    +0.006 A  
DOCKED: ATOM     27  C   UNL     1     144.439  74.962 220.156 -0.39 -0.00    +0.006 A  
DOCKED: ATOM     28  C   UNL     1     144.028  72.317 220.823 -0.36 -0.00    +0.000 A  
DOCKED: ATOM     29  C   UNL     1     145.413  74.261 220.845 -0.56 -0.00    +0.000 A  
DOCKED: ATOM     30  C   UNL     1     145.229  72.930 221.192 -0.54 -0.00    +0.000 A  
DOCKED: ENDBRANCH  21  25
DOCKED: ENDBRANCH  17  19
DOCKED: ENDBRANCH   1  17
DOCKED: TORSDOF 5
DOCKED: TER
DOCKED: ENDMDL
________________________________________________________________________________


    FINAL DOCKED STATE:
    ________________________


Run:   8 / 20
Time taken for this run:   0.046s

DOCKED: MODEL        8
DOCKED: USER    Run = 8
DOCKED: USER
DOCKED: USER    Estimated Free Energy of Binding    =  -8.59 kcal/mol  [=(1)+(2)+(3)-(4)]
DOCKED: USER
DOCKED: USER    (1) Final Intermolecular Energy     = -10.08 kcal/mol
DOCKED: USER        vdW + Hbond + desolv Energy     = -10.03 kcal/mol
DOCKED: USER        Electrostatic Energy            =  -0.04 kcal/mol
DOCKED: USER        Moving Ligand-Fixed Receptor    = -10.08 kcal/mol
DOCKED: USER        Moving Ligand-Moving Receptor   =  +0.00 kcal/mol
DOCKED: USER    (2) Final Total Internal Energy     =  -1.45 kcal/mol
DOCKED: USER    (3) Torsional Free Energy           =  +1.49 kcal/mol
DOCKED: USER    (4) Unbound System's Energy         =  -1.45 kcal/mol
DOCKED: USER
DOCKED: USER
DOCKED: REMARK SMILES O=C(NCC(=O)N1CCCC[C@H]1c1ccccc1)c1ccc2cc(Cl)ccc2n1
DOCKED: REMARK SMILES IDX 4 1 3 2 2 3 1 4 19 6 20 7 29 8 21 9 28 10 22 11 27 12 23 13
DOCKED: REMARK SMILES IDX 26 14 24 15 25 16 5 17 6 18 7 19 8 20 12 21 9 22 11 23 10 24
DOCKED: REMARK SMILES IDX 13 25 14 26 18 27 15 28 17 29 16 30
DOCKED: REMARK H PARENT 3 5
DOCKED: USER                              x       y       z     vdW  Elec       q    Type
DOCKED: USER                           _______ _______ _______ _____ _____    ______ ____
DOCKED: ROOT
DOCKED: ATOM      1  C   UNL     1     140.169  71.742 222.257 -0.21 -0.03    +0.216 C  
DOCKED: ENDROOT
DOCKED: BRANCH   1   2
DOCKED: ATOM      2  N   UNL     1     140.229  73.183 222.350 -0.14 +0.02    -0.342 N  
DOCKED: ATOM      3  C   UNL     1     141.048  73.849 221.374 -0.18 -0.03    +0.270 C  
DOCKED: ATOM      4  O   UNL     1     141.624  73.097 220.545 -0.13 +0.04    -0.268 OA 
DOCKED: ATOM      5  H   UNL     1     139.712  73.740 223.080 -0.44 -0.01    +0.164 HD 
DOCKED: BRANCH   3   6
DOCKED: ATOM      6  C   UNL     1     141.185  75.300 221.369 -0.28 -0.04    +0.128 A  
DOCKED: ATOM      7  C   UNL     1     141.944  75.852 220.356 -0.27 -0.02    +0.035 A  
DOCKED: ATOM      8  N   UNL     1     140.614  76.099 222.290 -0.35 +0.06    -0.243 NA 
DOCKED: ATOM      9  C   UNL     1     142.155  77.206 220.232 -0.30 -0.01    +0.013 A  
DOCKED: ATOM     10  C   UNL     1     140.800  77.446 222.201 -0.38 -0.03    +0.071 A  
DOCKED: ATOM     11  C   UNL     1     141.556  78.013 221.193 -0.34 -0.00    +0.002 A  
DOCKED: ATOM     12  C   UNL     1     140.233  78.289 223.124 -0.32 -0.01    +0.030 A  
DOCKED: ATOM     13  C   UNL     1     141.739  79.365 221.110 -0.35 -0.02    +0.030 A  
DOCKED: ATOM     14  C   UNL     1     140.411  79.674 223.052 -0.42 -0.00    +0.023 A  
DOCKED: ATOM     15  C   UNL     1     141.171  80.220 222.036 -0.38 -0.01    +0.041 A  
DOCKED: ATOM     16  Cl  UNL     1     141.451  81.931 221.859 -0.48 +0.02    -0.084 Cl 
DOCKED: ENDBRANCH   3   6
DOCKED: ENDBRANCH   1   2
DOCKED: BRANCH   1  17
DOCKED: ATOM     17  C   UNL     1     139.773  71.139 223.577 -0.26 -0.04    +0.242 C  
DOCKED: ATOM     18  O   UNL     1     140.462  71.479 224.574 -0.35 +0.04    -0.273 OA 
DOCKED: BRANCH  17  19
DOCKED: ATOM     19  N   UNL     1     138.675  70.239 223.656 -0.11 +0.06    -0.334 N  
DOCKED: ATOM     20  C   UNL     1     138.152  69.665 222.433 -0.14 -0.02    +0.120 C  
DOCKED: ATOM     21  C   UNL     1     138.148  69.953 224.969 -0.22 -0.01    +0.115 C  
DOCKED: ATOM     22  C   UNL     1     137.164  68.571 222.670 -0.17 -0.00    +0.022 C  
DOCKED: ATOM     23  C   UNL     1     136.846  69.228 224.986 -0.22 -0.00    +0.030 C  
DOCKED: ATOM     24  C   UNL     1     136.157  69.097 223.670 -0.17 -0.00    +0.004 C  
DOCKED: BRANCH  21  25
DOCKED: ATOM     25  C   UNL     1     139.157  69.323 225.866 -0.43 +0.00    -0.025 A  
DOCKED: ATOM     26  C   UNL     1     139.622  68.041 225.640 -0.54 -0.00    +0.006 A  
DOCKED: ATOM     27  C   UNL     1     139.647  70.025 226.949 -0.49 -0.00    +0.006 A  
DOCKED: ATOM     28  C   UNL     1     140.556  67.463 226.475 -0.68 -0.00    +0.000 A  
DOCKED: ATOM     29  C   UNL     1     140.584  69.454 227.792 -0.63 -0.00    +0.000 A  
DOCKED: ATOM     30  C   UNL     1     141.057  68.168 227.574 -0.67 -0.00    +0.000 A  
DOCKED: ENDBRANCH  21  25
DOCKED: ENDBRANCH  17  19
DOCKED: ENDBRANCH   1  17
DOCKED: TORSDOF 5
DOCKED: TER
DOCKED: ENDMDL
________________________________________________________________________________


    FINAL DOCKED STATE:
    ________________________


Run:   9 / 20
Time taken for this run:   0.046s

DOCKED: MODEL        9
DOCKED: USER    Run = 9
DOCKED: USER
DOCKED: USER    Estimated Free Energy of Binding    =  -8.41 kcal/mol  [=(1)+(2)+(3)-(4)]
DOCKED: USER
DOCKED: USER    (1) Final Intermolecular Energy     =  -9.91 kcal/mol
DOCKED: USER        vdW + Hbond + desolv Energy     =  -9.91 kcal/mol
DOCKED: USER        Electrostatic Energy            =  +0.00 kcal/mol
DOCKED: USER        Moving Ligand-Fixed Receptor    =  -9.91 kcal/mol
DOCKED: USER        Moving Ligand-Moving Receptor   =  +0.00 kcal/mol
DOCKED: USER    (2) Final Total Internal Energy     =  -2.03 kcal/mol
DOCKED: USER    (3) Torsional Free Energy           =  +1.49 kcal/mol
DOCKED: USER    (4) Unbound System's Energy         =  -2.03 kcal/mol
DOCKED: USER
DOCKED: USER
DOCKED: REMARK SMILES O=C(NCC(=O)N1CCCC[C@H]1c1ccccc1)c1ccc2cc(Cl)ccc2n1
DOCKED: REMARK SMILES IDX 4 1 3 2 2 3 1 4 19 6 20 7 29 8 21 9 28 10 22 11 27 12 23 13
DOCKED: REMARK SMILES IDX 26 14 24 15 25 16 5 17 6 18 7 19 8 20 12 21 9 22 11 23 10 24
DOCKED: REMARK SMILES IDX 13 25 14 26 18 27 15 28 17 29 16 30
DOCKED: REMARK H PARENT 3 5
DOCKED: USER                              x       y       z     vdW  Elec       q    Type
DOCKED: USER                           _______ _______ _______ _____ _____    ______ ____
DOCKED: ROOT
DOCKED: ATOM      1  C   UNL     1     139.890  74.515 220.936 -0.16 -0.04    +0.216 C  
DOCKED: ENDROOT
DOCKED: BRANCH   1   2
DOCKED: ATOM      2  N   UNL     1     139.854  73.775 222.177 -0.12 +0.04    -0.342 N  
DOCKED: ATOM      3  C   UNL     1     140.190  72.379 222.095 -0.20 -0.04    +0.270 C  
DOCKED: ATOM      4  O   UNL     1     140.477  71.958 220.944 -0.10 +0.04    -0.268 OA 
DOCKED: ATOM      5  H   UNL     1     139.602  74.208 223.104 -0.51 -0.01    +0.164 HD 
DOCKED: BRANCH   3   6
DOCKED: ATOM      6  C   UNL     1     140.188  71.533 223.281 -0.31 -0.02    +0.128 A  
DOCKED: ATOM      7  C   UNL     1     139.657  70.266 223.143 -0.23 -0.01    +0.035 A  
DOCKED: ATOM      8  N   UNL     1     140.672  71.931 224.473 -0.22 +0.03    -0.243 NA 
DOCKED: ATOM      9  C   UNL     1     139.593  69.364 224.181 -0.28 -0.00    +0.013 A  
DOCKED: ATOM     10  C   UNL     1     140.625  71.066 225.525 -0.53 -0.01    +0.071 A  
DOCKED: ATOM     11  C   UNL     1     140.098  69.796 225.402 -0.45 -0.00    +0.002 A  
DOCKED: ATOM     12  C   UNL     1     141.110  71.440 226.754 -0.70 -0.00    +0.030 A  
DOCKED: ATOM     13  C   UNL     1     140.055  68.934 226.462 -0.53 -0.01    +0.030 A  
DOCKED: ATOM     14  C   UNL     1     141.072  70.569 227.847 -0.63 -0.00    +0.023 A  
DOCKED: ATOM     15  C   UNL     1     140.540  69.302 227.703 -0.59 -0.01    +0.041 A  
DOCKED: ATOM     16  Cl  UNL     1     140.449  68.145 229.002 -0.24 +0.02    -0.084 Cl 
DOCKED: ENDBRANCH   3   6
DOCKED: ENDBRANCH   1   2
DOCKED: BRANCH   1  17
DOCKED: ATOM     17  C   UNL     1     140.873  75.650 221.020 -0.21 -0.07    +0.242 C  
DOCKED: ATOM     18  O   UNL     1     141.031  76.167 222.156 -0.36 +0.09    -0.273 OA 
DOCKED: BRANCH  17  19
DOCKED: ATOM     19  N   UNL     1     141.567  76.088 219.859 -0.08 +0.14    -0.334 N  
DOCKED: ATOM     20  C   UNL     1     141.597  77.504 219.554 -0.21 -0.06    +0.120 C  
DOCKED: ATOM     21  C   UNL     1     142.205  75.078 219.050 -0.15 -0.04    +0.115 C  
DOCKED: ATOM     22  C   UNL     1     142.542  77.850 218.452 -0.32 -0.02    +0.022 C  
DOCKED: ATOM     23  C   UNL     1     142.685  75.541 217.717 -0.16 -0.01    +0.030 C  
DOCKED: ATOM     24  C   UNL     1     142.247  76.906 217.306 -0.19 -0.00    +0.004 C  
DOCKED: BRANCH  21  25
DOCKED: ATOM     25  C   UNL     1     143.252  74.323 219.796 -0.31 +0.01    -0.025 A  
DOCKED: ATOM     26  C   UNL     1     143.072  72.999 220.147 -0.26 -0.00    +0.006 A  
DOCKED: ATOM     27  C   UNL     1     144.429  74.950 220.150 -0.40 -0.00    +0.006 A  
DOCKED: ATOM     28  C   UNL     1     144.044  72.305 220.838 -0.36 -0.00    +0.000 A  
DOCKED: ATOM     29  C   UNL     1     145.411  74.263 220.843 -0.56 -0.00    +0.000 A  
DOCKED: ATOM     30  C   UNL     1     145.240  72.933 221.200 -0.54 -0.00    +0.000 A  
DOCKED: ENDBRANCH  21  25
DOCKED: ENDBRANCH  17  19
DOCKED: ENDBRANCH   1  17
DOCKED: TORSDOF 5
DOCKED: TER
DOCKED: ENDMDL
________________________________________________________________________________


    FINAL DOCKED STATE:
    ________________________


Run:   10 / 20
Time taken for this run:   0.046s

DOCKED: MODEL        10
DOCKED: USER    Run = 10
DOCKED: USER
DOCKED: USER    Estimated Free Energy of Binding    =  -8.59 kcal/mol  [=(1)+(2)+(3)-(4)]
DOCKED: USER
DOCKED: USER    (1) Final Intermolecular Energy     = -10.08 kcal/mol
DOCKED: USER        vdW + Hbond + desolv Energy     = -10.04 kcal/mol
DOCKED: USER        Electrostatic Energy            =  -0.04 kcal/mol
DOCKED: USER        Moving Ligand-Fixed Receptor    = -10.08 kcal/mol
DOCKED: USER        Moving Ligand-Moving Receptor   =  +0.00 kcal/mol
DOCKED: USER    (2) Final Total Internal Energy     =  -1.47 kcal/mol
DOCKED: USER    (3) Torsional Free Energy           =  +1.49 kcal/mol
DOCKED: USER    (4) Unbound System's Energy         =  -1.47 kcal/mol
DOCKED: USER
DOCKED: USER
DOCKED: REMARK SMILES O=C(NCC(=O)N1CCCC[C@H]1c1ccccc1)c1ccc2cc(Cl)ccc2n1
DOCKED: REMARK SMILES IDX 4 1 3 2 2 3 1 4 19 6 20 7 29 8 21 9 28 10 22 11 27 12 23 13
DOCKED: REMARK SMILES IDX 26 14 24 15 25 16 5 17 6 18 7 19 8 20 12 21 9 22 11 23 10 24
DOCKED: REMARK SMILES IDX 13 25 14 26 18 27 15 28 17 29 16 30
DOCKED: REMARK H PARENT 3 5
DOCKED: USER                              x       y       z     vdW  Elec       q    Type
DOCKED: USER                           _______ _______ _______ _____ _____    ______ ____
DOCKED: ROOT
DOCKED: ATOM      1  C   UNL     1     140.182  71.775 222.265 -0.21 -0.03    +0.216 C  
DOCKED: ENDROOT
DOCKED: BRANCH   1   2
DOCKED: ATOM      2  N   UNL     1     140.241  73.216 222.357 -0.13 +0.02    -0.342 N  
DOCKED: ATOM      3  C   UNL     1     141.051  73.882 221.373 -0.18 -0.03    +0.270 C  
DOCKED: ATOM      4  O   UNL     1     141.619  73.130 220.539 -0.13 +0.04    -0.268 OA 
DOCKED: ATOM      5  H   UNL     1     139.731  73.773 223.091 -0.44 -0.01    +0.164 HD 
DOCKED: BRANCH   3   6
DOCKED: ATOM      6  C   UNL     1     141.186  75.333 221.366 -0.28 -0.04    +0.128 A  
DOCKED: ATOM      7  C   UNL     1     141.960  75.883 220.362 -0.27 -0.02    +0.035 A  
DOCKED: ATOM      8  N   UNL     1     140.601  76.134 222.276 -0.34 +0.06    -0.243 NA 
DOCKED: ATOM      9  C   UNL     1     142.171  77.237 220.237 -0.30 -0.01    +0.013 A  
DOCKED: ATOM     10  C   UNL     1     140.788  77.481 222.186 -0.38 -0.03    +0.071 A  
DOCKED: ATOM     11  C   UNL     1     141.558  78.046 221.188 -0.34 -0.00    +0.002 A  
DOCKED: ATOM     12  C   UNL     1     140.206  78.326 223.098 -0.35 -0.01    +0.030 A  
DOCKED: ATOM     13  C   UNL     1     141.741  79.398 221.104 -0.35 -0.02    +0.030 A  
DOCKED: ATOM     14  C   UNL     1     140.384  79.711 223.025 -0.41 -0.00    +0.023 A  
DOCKED: ATOM     15  C   UNL     1     141.158  80.255 222.018 -0.37 -0.01    +0.041 A  
DOCKED: ATOM     16  Cl  UNL     1     141.440  81.966 221.841 -0.47 +0.02    -0.084 Cl 
DOCKED: ENDBRANCH   3   6
DOCKED: ENDBRANCH   1   2
DOCKED: BRANCH   1  17
DOCKED: ATOM     17  C   UNL     1     139.780  71.174 223.584 -0.26 -0.04    +0.242 C  
DOCKED: ATOM     18  O   UNL     1     140.461  71.518 224.585 -0.36 +0.04    -0.273 OA 
DOCKED: BRANCH  17  19
DOCKED: ATOM     19  N   UNL     1     138.685  70.270 223.658 -0.11 +0.06    -0.334 N  
DOCKED: ATOM     20  C   UNL     1     138.177  69.683 222.435 -0.14 -0.02    +0.120 C  
DOCKED: ATOM     21  C   UNL     1     138.144  69.992 224.967 -0.21 -0.01    +0.115 C  
DOCKED: ATOM     22  C   UNL     1     137.192  68.587 222.670 -0.17 -0.00    +0.022 C  
DOCKED: ATOM     23  C   UNL     1     136.845  69.261 224.976 -0.24 -0.00    +0.030 C  
DOCKED: ATOM     24  C   UNL     1     136.171  69.117 223.654 -0.18 -0.00    +0.004 C  
DOCKED: BRANCH  21  25
DOCKED: ATOM     25  C   UNL     1     139.146  69.374 225.881 -0.43 +0.00    -0.025 A  
DOCKED: ATOM     26  C   UNL     1     139.628  70.051 226.985 -0.48 -0.00    +0.006 A  
DOCKED: ATOM     27  C   UNL     1     139.609  68.099 225.631 -0.53 -0.00    +0.006 A  
DOCKED: ATOM     28  C   UNL     1     140.555  69.474 227.828 -0.63 -0.00    +0.000 A  
DOCKED: ATOM     29  C   UNL     1     140.540  67.511 226.470 -0.68 -0.00    +0.000 A  
DOCKED: ATOM     30  C   UNL     1     141.029  68.182 227.581 -0.67 -0.00    +0.000 A  
DOCKED: ENDBRANCH  21  25
DOCKED: ENDBRANCH  17  19
DOCKED: ENDBRANCH   1  17
DOCKED: TORSDOF 5
DOCKED: TER
DOCKED: ENDMDL
________________________________________________________________________________


    FINAL DOCKED STATE:
    ________________________


Run:   11 / 20
Time taken for this run:   0.046s

DOCKED: MODEL        11
DOCKED: USER    Run = 11
DOCKED: USER
DOCKED: USER    Estimated Free Energy of Binding    =  -8.33 kcal/mol  [=(1)+(2)+(3)-(4)]
DOCKED: USER
DOCKED: USER    (1) Final Intermolecular Energy     =  -9.82 kcal/mol
DOCKED: USER        vdW + Hbond + desolv Energy     =  -9.84 kcal/mol
DOCKED: USER        Electrostatic Energy            =  +0.02 kcal/mol
DOCKED: USER        Moving Ligand-Fixed Receptor    =  -9.82 kcal/mol
DOCKED: USER        Moving Ligand-Moving Receptor   =  +0.00 kcal/mol
DOCKED: USER    (2) Final Total Internal Energy     =  -2.03 kcal/mol
DOCKED: USER    (3) Torsional Free Energy           =  +1.49 kcal/mol
DOCKED: USER    (4) Unbound System's Energy         =  -2.03 kcal/mol
DOCKED: USER
DOCKED: USER
DOCKED: REMARK SMILES O=C(NCC(=O)N1CCCC[C@H]1c1ccccc1)c1ccc2cc(Cl)ccc2n1
DOCKED: REMARK SMILES IDX 4 1 3 2 2 3 1 4 19 6 20 7 29 8 21 9 28 10 22 11 27 12 23 13
DOCKED: REMARK SMILES IDX 26 14 24 15 25 16 5 17 6 18 7 19 8 20 12 21 9 22 11 23 10 24
DOCKED: REMARK SMILES IDX 13 25 14 26 18 27 15 28 17 29 16 30
DOCKED: REMARK H PARENT 3 5
DOCKED: USER                              x       y       z     vdW  Elec       q    Type
DOCKED: USER                           _______ _______ _______ _____ _____    ______ ____
DOCKED: ROOT
DOCKED: ATOM      1  C   UNL     1     139.802  74.825 220.922 -0.16 -0.05    +0.216 C  
DOCKED: ENDROOT
DOCKED: BRANCH   1   2
DOCKED: ATOM      2  N   UNL     1     139.791  74.045 222.139 -0.10 +0.04    -0.342 N  
DOCKED: ATOM      3  C   UNL     1     140.115  72.651 222.002 -0.20 -0.04    +0.270 C  
DOCKED: ATOM      4  O   UNL     1     140.374  72.266 220.831 -0.09 +0.04    -0.268 OA 
DOCKED: ATOM      5  H   UNL     1     139.562  74.448 223.085 -0.52 -0.01    +0.164 HD 
DOCKED: BRANCH   3   6
DOCKED: ATOM      6  C   UNL     1     140.136  71.765 223.159 -0.30 -0.02    +0.128 A  
DOCKED: ATOM      7  C   UNL     1     139.625  70.494 222.981 -0.24 -0.01    +0.035 A  
DOCKED: ATOM      8  N   UNL     1     140.619  72.131 224.361 -0.10 +0.03    -0.243 NA 
DOCKED: ATOM      9  C   UNL     1     139.583  69.557 223.988 -0.28 -0.00    +0.013 A  
DOCKED: ATOM     10  C   UNL     1     140.594  71.231 225.383 -0.52 -0.01    +0.071 A  
DOCKED: ATOM     11  C   UNL     1     140.088  69.956 225.221 -0.44 -0.00    +0.002 A  
DOCKED: ATOM     12  C   UNL     1     141.079  71.572 226.622 -0.70 -0.00    +0.030 A  
DOCKED: ATOM     13  C   UNL     1     140.066  69.058 226.251 -0.51 -0.01    +0.030 A  
DOCKED: ATOM     14  C   UNL     1     141.063  70.664 227.686 -0.64 -0.00    +0.023 A  
DOCKED: ATOM     15  C   UNL     1     140.552  69.393 227.501 -0.58 -0.01    +0.041 A  
DOCKED: ATOM     16  Cl  UNL     1     140.489  68.192 228.761 -0.49 +0.02    -0.084 Cl 
DOCKED: ENDBRANCH   3   6
DOCKED: ENDBRANCH   1   2
DOCKED: BRANCH   1  17
DOCKED: ATOM     17  C   UNL     1     140.924  75.828 220.943 -0.20 -0.08    +0.242 C  
DOCKED: ATOM     18  O   UNL     1     141.213  76.317 222.066 -0.29 +0.11    -0.273 OA 
DOCKED: BRANCH  17  19
DOCKED: ATOM     19  N   UNL     1     141.598  76.178 219.741 -0.08 +0.14    -0.334 N  
DOCKED: ATOM     20  C   UNL     1     141.643  77.570 219.344 -0.21 -0.06    +0.120 C  
DOCKED: ATOM     21  C   UNL     1     142.203  75.107 218.987 -0.15 -0.04    +0.115 C  
DOCKED: ATOM     22  C   UNL     1     142.568  77.829 218.201 -0.32 -0.02    +0.022 C  
DOCKED: ATOM     23  C   UNL     1     142.660  75.475 217.616 -0.15 -0.01    +0.030 C  
DOCKED: ATOM     24  C   UNL     1     142.233  76.817 217.127 -0.18 -0.00    +0.004 C  
DOCKED: BRANCH  21  25
DOCKED: ATOM     25  C   UNL     1     143.255  74.386 219.758 -0.31 +0.01    -0.025 A  
DOCKED: ATOM     26  C   UNL     1     144.429  75.010 220.132 -0.38 -0.00    +0.006 A  
DOCKED: ATOM     27  C   UNL     1     143.063  73.066 220.112 -0.26 -0.00    +0.006 A  
DOCKED: ATOM     28  C   UNL     1     145.399  74.338 220.846 -0.53 -0.00    +0.000 A  
DOCKED: ATOM     29  C   UNL     1     144.030  72.382 220.829 -0.36 -0.00    +0.000 A  
DOCKED: ATOM     30  C   UNL     1     145.212  73.000 221.209 -0.56 -0.00    +0.000 A  
DOCKED: ENDBRANCH  21  25
DOCKED: ENDBRANCH  17  19
DOCKED: ENDBRANCH   1  17
DOCKED: TORSDOF 5
DOCKED: TER
DOCKED: ENDMDL
________________________________________________________________________________


    FINAL DOCKED STATE:
    ________________________


Run:   12 / 20
Time taken for this run:   0.046s

DOCKED: MODEL        12
DOCKED: USER    Run = 12
DOCKED: USER
DOCKED: USER    Estimated Free Energy of Binding    =  -8.58 kcal/mol  [=(1)+(2)+(3)-(4)]
DOCKED: USER
DOCKED: USER    (1) Final Intermolecular Energy     = -10.07 kcal/mol
DOCKED: USER        vdW + Hbond + desolv Energy     = -10.02 kcal/mol
DOCKED: USER        Electrostatic Energy            =  -0.05 kcal/mol
DOCKED: USER        Moving Ligand-Fixed Receptor    = -10.07 kcal/mol
DOCKED: USER        Moving Ligand-Moving Receptor   =  +0.00 kcal/mol
DOCKED: USER    (2) Final Total Internal Energy     =  -1.47 kcal/mol
DOCKED: USER    (3) Torsional Free Energy           =  +1.49 kcal/mol
DOCKED: USER    (4) Unbound System's Energy         =  -1.47 kcal/mol
DOCKED: USER
DOCKED: USER
DOCKED: REMARK SMILES O=C(NCC(=O)N1CCCC[C@H]1c1ccccc1)c1ccc2cc(Cl)ccc2n1
DOCKED: REMARK SMILES IDX 4 1 3 2 2 3 1 4 19 6 20 7 29 8 21 9 28 10 22 11 27 12 23 13
DOCKED: REMARK SMILES IDX 26 14 24 15 25 16 5 17 6 18 7 19 8 20 12 21 9 22 11 23 10 24
DOCKED: REMARK SMILES IDX 13 25 14 26 18 27 15 28 17 29 16 30
DOCKED: REMARK H PARENT 3 5
DOCKED: USER                              x       y       z     vdW  Elec       q    Type
DOCKED: USER                           _______ _______ _______ _____ _____    ______ ____
DOCKED: ROOT
DOCKED: ATOM      1  C   UNL     1     140.197  71.750 222.293 -0.22 -0.03    +0.216 C  
DOCKED: ENDROOT
DOCKED: BRANCH   1   2
DOCKED: ATOM      2  N   UNL     1     140.236  73.194 222.359 -0.14 +0.02    -0.342 N  
DOCKED: ATOM      3  C   UNL     1     141.102  73.849 221.416 -0.17 -0.03    +0.270 C  
DOCKED: ATOM      4  O   UNL     1     141.731  73.086 220.636 -0.14 +0.04    -0.268 OA 
DOCKED: ATOM      5  H   UNL     1     139.673  73.759 223.047 -0.44 -0.01    +0.164 HD 
DOCKED: BRANCH   3   6
DOCKED: ATOM      6  C   UNL     1     141.223  75.301 221.388 -0.28 -0.04    +0.128 A  
DOCKED: ATOM      7  C   UNL     1     141.952  75.846 220.349 -0.27 -0.02    +0.035 A  
DOCKED: ATOM      8  N   UNL     1     140.667  76.106 222.311 -0.35 +0.06    -0.243 NA 
DOCKED: ATOM      9  C   UNL     1     142.145  77.200 220.201 -0.31 -0.01    +0.013 A  
DOCKED: ATOM     10  C   UNL     1     140.837  77.454 222.199 -0.38 -0.03    +0.071 A  
DOCKED: ATOM     11  C   UNL     1     141.562  78.014 221.166 -0.34 -0.00    +0.002 A  
DOCKED: ATOM     12  C   UNL     1     140.283  78.304 223.124 -0.33 -0.01    +0.030 A  
DOCKED: ATOM     13  C   UNL     1     141.729  79.366 221.060 -0.34 -0.02    +0.030 A  
DOCKED: ATOM     14  C   UNL     1     140.445  79.690 223.029 -0.42 -0.00    +0.023 A  
DOCKED: ATOM     15  C   UNL     1     141.175  80.229 221.987 -0.37 -0.01    +0.041 A  
DOCKED: ATOM     16  Cl  UNL     1     141.433  81.940 221.780 -0.47 +0.02    -0.084 Cl 
DOCKED: ENDBRANCH   3   6
DOCKED: ENDBRANCH   1   2
DOCKED: BRANCH   1  17
DOCKED: ATOM     17  C   UNL     1     139.760  71.169 223.610 -0.26 -0.05    +0.242 C  
DOCKED: ATOM     18  O   UNL     1     140.413  71.531 224.623 -0.36 +0.04    -0.273 OA 
DOCKED: BRANCH  17  19
DOCKED: ATOM     19  N   UNL     1     138.664  70.264 223.669 -0.11 +0.06    -0.334 N  
DOCKED: ATOM     20  C   UNL     1     138.152  69.704 222.434 -0.13 -0.02    +0.120 C  
DOCKED: ATOM     21  C   UNL     1     138.128  69.959 224.973 -0.21 -0.01    +0.115 C  
DOCKED: ATOM     22  C   UNL     1     137.167  68.604 222.649 -0.17 -0.00    +0.022 C  
DOCKED: ATOM     23  C   UNL     1     136.829  69.229 224.971 -0.22 -0.00    +0.030 C  
DOCKED: ATOM     24  C   UNL     1     136.150  69.113 223.648 -0.18 -0.00    +0.004 C  
DOCKED: BRANCH  21  25
DOCKED: ATOM     25  C   UNL     1     139.132  69.321 225.870 -0.43 +0.00    -0.025 A  
DOCKED: ATOM     26  C   UNL     1     139.613  69.972 226.991 -0.50 -0.00    +0.006 A  
DOCKED: ATOM     27  C   UNL     1     139.599  68.054 225.588 -0.53 -0.00    +0.006 A  
DOCKED: ATOM     28  C   UNL     1     140.543  69.376 227.818 -0.63 -0.00    +0.000 A  
DOCKED: ATOM     29  C   UNL     1     140.532  67.447 226.411 -0.67 -0.00    +0.000 A  
DOCKED: ATOM     30  C   UNL     1     141.021  68.092 227.538 -0.66 -0.00    +0.000 A  
DOCKED: ENDBRANCH  21  25
DOCKED: ENDBRANCH  17  19
DOCKED: ENDBRANCH   1  17
DOCKED: TORSDOF 5
DOCKED: TER
DOCKED: ENDMDL
________________________________________________________________________________


    FINAL DOCKED STATE:
    ________________________


Run:   13 / 20
Time taken for this run:   0.046s

DOCKED: MODEL        13
DOCKED: USER    Run = 13
DOCKED: USER
DOCKED: USER    Estimated Free Energy of Binding    =  -8.57 kcal/mol  [=(1)+(2)+(3)-(4)]
DOCKED: USER
DOCKED: USER    (1) Final Intermolecular Energy     = -10.07 kcal/mol
DOCKED: USER        vdW + Hbond + desolv Energy     = -10.02 kcal/mol
DOCKED: USER        Electrostatic Energy            =  -0.05 kcal/mol
DOCKED: USER        Moving Ligand-Fixed Receptor    = -10.07 kcal/mol
DOCKED: USER        Moving Ligand-Moving Receptor   =  +0.00 kcal/mol
DOCKED: USER    (2) Final Total Internal Energy     =  -1.47 kcal/mol
DOCKED: USER    (3) Torsional Free Energy           =  +1.49 kcal/mol
DOCKED: USER    (4) Unbound System's Energy         =  -1.47 kcal/mol
DOCKED: USER
DOCKED: USER
DOCKED: REMARK SMILES O=C(NCC(=O)N1CCCC[C@H]1c1ccccc1)c1ccc2cc(Cl)ccc2n1
DOCKED: REMARK SMILES IDX 4 1 3 2 2 3 1 4 19 6 20 7 29 8 21 9 28 10 22 11 27 12 23 13
DOCKED: REMARK SMILES IDX 26 14 24 15 25 16 5 17 6 18 7 19 8 20 12 21 9 22 11 23 10 24
DOCKED: REMARK SMILES IDX 13 25 14 26 18 27 15 28 17 29 16 30
DOCKED: REMARK H PARENT 3 5
DOCKED: USER                              x       y       z     vdW  Elec       q    Type
DOCKED: USER                           _______ _______ _______ _____ _____    ______ ____
DOCKED: ROOT
DOCKED: ATOM      1  C   UNL     1     140.149  71.752 222.298 -0.22 -0.03    +0.216 C  
DOCKED: ENDROOT
DOCKED: BRANCH   1   2
DOCKED: ATOM      2  N   UNL     1     140.200  73.195 222.366 -0.13 +0.02    -0.342 N  
DOCKED: ATOM      3  C   UNL     1     141.050  73.846 221.407 -0.18 -0.03    +0.270 C  
DOCKED: ATOM      4  O   UNL     1     141.656  73.081 220.612 -0.14 +0.04    -0.268 OA 
DOCKED: ATOM      5  H   UNL     1     139.657  73.763 223.068 -0.46 -0.02    +0.164 HD 
DOCKED: BRANCH   3   6
DOCKED: ATOM      6  C   UNL     1     141.181  75.297 221.379 -0.28 -0.04    +0.128 A  
DOCKED: ATOM      7  C   UNL     1     141.931  75.836 220.352 -0.27 -0.02    +0.035 A  
DOCKED: ATOM      8  N   UNL     1     140.615  76.107 222.293 -0.35 +0.06    -0.243 NA 
DOCKED: ATOM      9  C   UNL     1     142.136  77.189 220.206 -0.30 -0.01    +0.013 A  
DOCKED: ATOM     10  C   UNL     1     140.796  77.453 222.182 -0.38 -0.03    +0.071 A  
DOCKED: ATOM     11  C   UNL     1     141.543  78.008 221.161 -0.34 -0.00    +0.002 A  
DOCKED: ATOM     12  C   UNL     1     140.233  78.308 223.098 -0.35 -0.01    +0.030 A  
DOCKED: ATOM     13  C   UNL     1     141.720  79.359 221.056 -0.34 -0.02    +0.030 A  
DOCKED: ATOM     14  C   UNL     1     140.406  79.693 223.003 -0.41 -0.00    +0.023 A  
DOCKED: ATOM     15  C   UNL     1     141.156  80.226 221.973 -0.37 -0.01    +0.041 A  
DOCKED: ATOM     16  Cl  UNL     1     141.430  81.935 221.769 -0.47 +0.02    -0.084 Cl 
DOCKED: ENDBRANCH   3   6
DOCKED: ENDBRANCH   1   2
DOCKED: BRANCH   1  17
DOCKED: ATOM     17  C   UNL     1     139.718  71.172 223.618 -0.26 -0.05    +0.242 C  
DOCKED: ATOM     18  O   UNL     1     140.374  71.537 224.628 -0.36 +0.04    -0.273 OA 
DOCKED: BRANCH  17  19
DOCKED: ATOM     19  N   UNL     1     138.626  70.264 223.682 -0.11 +0.06    -0.334 N  
DOCKED: ATOM     20  C   UNL     1     138.103  69.710 222.450 -0.13 -0.02    +0.120 C  
DOCKED: ATOM     21  C   UNL     1     138.105  69.948 224.990 -0.20 -0.01    +0.115 C  
DOCKED: ATOM     22  C   UNL     1     137.123  68.606 222.668 -0.17 -0.00    +0.022 C  
DOCKED: ATOM     23  C   UNL     1     136.807  69.215 224.997 -0.20 -0.00    +0.030 C  
DOCKED: ATOM     24  C   UNL     1     136.115  69.106 223.680 -0.17 -0.00    +0.004 C  
DOCKED: BRANCH  21  25
DOCKED: ATOM     25  C   UNL     1     139.120  69.308 225.873 -0.43 +0.00    -0.025 A  
DOCKED: ATOM     26  C   UNL     1     139.591  68.033 225.622 -0.53 -0.00    +0.006 A  
DOCKED: ATOM     27  C   UNL     1     139.609  69.992 226.967 -0.49 -0.00    +0.006 A  
DOCKED: ATOM     28  C   UNL     1     140.531  67.445 226.442 -0.68 -0.00    +0.000 A  
DOCKED: ATOM     29  C   UNL     1     140.552  69.411 227.796 -0.63 -0.00    +0.000 A  
DOCKED: ATOM     30  C   UNL     1     141.031  68.132 227.553 -0.67 -0.00    +0.000 A  
DOCKED: ENDBRANCH  21  25
DOCKED: ENDBRANCH  17  19
DOCKED: ENDBRANCH   1  17
DOCKED: TORSDOF 5
DOCKED: TER
DOCKED: ENDMDL
________________________________________________________________________________


    FINAL DOCKED STATE:
    ________________________


Run:   14 / 20
Time taken for this run:   0.046s

DOCKED: MODEL        14
DOCKED: USER    Run = 14
DOCKED: USER
DOCKED: USER    Estimated Free Energy of Binding    =  -8.37 kcal/mol  [=(1)+(2)+(3)-(4)]
DOCKED: USER
DOCKED: USER    (1) Final Intermolecular Energy     =  -9.86 kcal/mol
DOCKED: USER        vdW + Hbond + desolv Energy     =  -9.86 kcal/mol
DOCKED: USER        Electrostatic Energy            =  +0.00 kcal/mol
DOCKED: USER        Moving Ligand-Fixed Receptor    =  -9.86 kcal/mol
DOCKED: USER        Moving Ligand-Moving Receptor   =  +0.00 kcal/mol
DOCKED: USER    (2) Final Total Internal Energy     =  -2.04 kcal/mol
DOCKED: USER    (3) Torsional Free Energy           =  +1.49 kcal/mol
DOCKED: USER    (4) Unbound System's Energy         =  -2.04 kcal/mol
DOCKED: USER
DOCKED: USER
DOCKED: REMARK SMILES O=C(NCC(=O)N1CCCC[C@H]1c1ccccc1)c1ccc2cc(Cl)ccc2n1
DOCKED: REMARK SMILES IDX 4 1 3 2 2 3 1 4 19 6 20 7 29 8 21 9 28 10 22 11 27 12 23 13
DOCKED: REMARK SMILES IDX 26 14 24 15 25 16 5 17 6 18 7 19 8 20 12 21 9 22 11 23 10 24
DOCKED: REMARK SMILES IDX 13 25 14 26 18 27 15 28 17 29 16 30
DOCKED: REMARK H PARENT 3 5
DOCKED: USER                              x       y       z     vdW  Elec       q    Type
DOCKED: USER                           _______ _______ _______ _____ _____    ______ ____
DOCKED: ROOT
DOCKED: ATOM      1  C   UNL     1     139.938  74.470 220.917 -0.16 -0.04    +0.216 C  
DOCKED: ENDROOT
DOCKED: BRANCH   1   2
DOCKED: ATOM      2  N   UNL     1     139.894  73.740 222.164 -0.12 +0.03    -0.342 N  
DOCKED: ATOM      3  C   UNL     1     140.199  72.337 222.089 -0.20 -0.04    +0.270 C  
DOCKED: ATOM      4  O   UNL     1     140.471  71.901 220.940 -0.10 +0.04    -0.268 OA 
DOCKED: ATOM      5  H   UNL     1     139.656  74.185 223.089 -0.47 +0.00    +0.164 HD 
DOCKED: BRANCH   3   6
DOCKED: ATOM      6  C   UNL     1     140.186  71.500 223.282 -0.31 -0.02    +0.128 A  
DOCKED: ATOM      7  C   UNL     1     139.635  70.240 223.154 -0.23 -0.01    +0.035 A  
DOCKED: ATOM      8  N   UNL     1     140.677  71.898 224.470 -0.25 +0.03    -0.243 NA 
DOCKED: ATOM      9  C   UNL     1     139.559  69.347 224.198 -0.29 -0.00    +0.013 A  
DOCKED: ATOM     10  C   UNL     1     140.619  71.042 225.529 -0.52 -0.01    +0.071 A  
DOCKED: ATOM     11  C   UNL     1     140.072  69.779 225.416 -0.45 -0.00    +0.002 A  
DOCKED: ATOM     12  C   UNL     1     141.110  71.418 226.755 -0.69 -0.00    +0.030 A  
DOCKED: ATOM     13  C   UNL     1     140.017  68.925 226.482 -0.53 -0.01    +0.030 A  
DOCKED: ATOM     14  C   UNL     1     141.061  70.555 227.854 -0.63 -0.00    +0.023 A  
DOCKED: ATOM     15  C   UNL     1     140.509  69.296 227.720 -0.59 -0.01    +0.041 A  
DOCKED: ATOM     16  Cl  UNL     1     140.401  68.149 229.027 -0.19 +0.02    -0.084 Cl 
DOCKED: ENDBRANCH   3   6
DOCKED: ENDBRANCH   1   2
DOCKED: BRANCH   1  17
DOCKED: ATOM     17  C   UNL     1     140.837  75.670 221.034 -0.21 -0.07    +0.242 C  
DOCKED: ATOM     18  O   UNL     1     140.909  76.204 222.171 -0.36 +0.08    -0.273 OA 
DOCKED: BRANCH  17  19
DOCKED: ATOM     19  N   UNL     1     141.551  76.147 219.900 -0.08 +0.14    -0.334 N  
DOCKED: ATOM     20  C   UNL     1     141.593  77.574 219.649 -0.22 -0.06    +0.120 C  
DOCKED: ATOM     21  C   UNL     1     142.198  75.164 219.065 -0.16 -0.04    +0.115 C  
DOCKED: ATOM     22  C   UNL     1     142.557  77.955 218.575 -0.32 -0.02    +0.022 C  
DOCKED: ATOM     23  C   UNL     1     142.700  75.674 217.757 -0.18 -0.01    +0.030 C  
DOCKED: ATOM     24  C   UNL     1     142.275  77.056 217.391 -0.21 -0.00    +0.004 C  
DOCKED: BRANCH  21  25
DOCKED: ATOM     25  C   UNL     1     143.229  74.377 219.798 -0.31 +0.01    -0.025 A  
DOCKED: ATOM     26  C   UNL     1     144.441  74.935 220.155 -0.40 -0.00    +0.006 A  
DOCKED: ATOM     27  C   UNL     1     142.979  73.062 220.134 -0.26 -0.00    +0.006 A  
DOCKED: ATOM     28  C   UNL     1     145.392  74.202 220.835 -0.58 -0.00    +0.000 A  
DOCKED: ATOM     29  C   UNL     1     143.926  72.318 220.815 -0.35 -0.00    +0.000 A  
DOCKED: ATOM     30  C   UNL     1     145.146  72.869 221.178 -0.51 -0.00    +0.000 A  
DOCKED: ENDBRANCH  21  25
DOCKED: ENDBRANCH  17  19
DOCKED: ENDBRANCH   1  17
DOCKED: TORSDOF 5
DOCKED: TER
DOCKED: ENDMDL
________________________________________________________________________________


    FINAL DOCKED STATE:
    ________________________


Run:   15 / 20
Time taken for this run:   0.046s

DOCKED: MODEL        15
DOCKED: USER    Run = 15
DOCKED: USER
DOCKED: USER    Estimated Free Energy of Binding    =  -8.33 kcal/mol  [=(1)+(2)+(3)-(4)]
DOCKED: USER
DOCKED: USER    (1) Final Intermolecular Energy     =  -9.82 kcal/mol
DOCKED: USER        vdW + Hbond + desolv Energy     =  -9.84 kcal/mol
DOCKED: USER        Electrostatic Energy            =  +0.02 kcal/mol
DOCKED: USER        Moving Ligand-Fixed Receptor    =  -9.82 kcal/mol
DOCKED: USER        Moving Ligand-Moving Receptor   =  +0.00 kcal/mol
DOCKED: USER    (2) Final Total Internal Energy     =  -2.04 kcal/mol
DOCKED: USER    (3) Torsional Free Energy           =  +1.49 kcal/mol
DOCKED: USER    (4) Unbound System's Energy         =  -2.04 kcal/mol
DOCKED: USER
DOCKED: USER
DOCKED: REMARK SMILES O=C(NCC(=O)N1CCCC[C@H]1c1ccccc1)c1ccc2cc(Cl)ccc2n1
DOCKED: REMARK SMILES IDX 4 1 3 2 2 3 1 4 19 6 20 7 29 8 21 9 28 10 22 11 27 12 23 13
DOCKED: REMARK SMILES IDX 26 14 24 15 25 16 5 17 6 18 7 19 8 20 12 21 9 22 11 23 10 24
DOCKED: REMARK SMILES IDX 13 25 14 26 18 27 15 28 17 29 16 30
DOCKED: REMARK H PARENT 3 5
DOCKED: USER                              x       y       z     vdW  Elec       q    Type
DOCKED: USER                           _______ _______ _______ _____ _____    ______ ____
DOCKED: ROOT
DOCKED: ATOM      1  C   UNL     1     139.846  74.768 220.928 -0.16 -0.05    +0.216 C  
DOCKED: ENDROOT
DOCKED: BRANCH   1   2
DOCKED: ATOM      2  N   UNL     1     139.829  73.993 222.148 -0.10 +0.04    -0.342 N  
DOCKED: ATOM      3  C   UNL     1     140.135  72.594 222.016 -0.20 -0.04    +0.270 C  
DOCKED: ATOM      4  O   UNL     1     140.384  72.201 220.846 -0.09 +0.04    -0.268 OA 
DOCKED: ATOM      5  H   UNL     1     139.609  74.403 223.093 -0.50 -0.00    +0.164 HD 
DOCKED: BRANCH   3   6
DOCKED: ATOM      6  C   UNL     1     140.148  71.713 223.177 -0.30 -0.02    +0.128 A  
DOCKED: ATOM      7  C   UNL     1     139.629  70.445 223.004 -0.24 -0.01    +0.035 A  
DOCKED: ATOM      8  N   UNL     1     140.631  72.081 224.378 -0.12 +0.03    -0.243 NA 
DOCKED: ATOM      9  C   UNL     1     139.580  69.513 224.015 -0.28 -0.00    +0.013 A  
DOCKED: ATOM     10  C   UNL     1     140.599  71.186 225.404 -0.52 -0.01    +0.071 A  
DOCKED: ATOM     11  C   UNL     1     140.085  69.913 225.246 -0.44 -0.00    +0.002 A  
DOCKED: ATOM     12  C   UNL     1     141.085  71.529 226.642 -0.70 -0.00    +0.030 A  
DOCKED: ATOM     13  C   UNL     1     140.056  69.020 226.281 -0.51 -0.01    +0.030 A  
DOCKED: ATOM     14  C   UNL     1     141.061  70.626 227.709 -0.63 -0.00    +0.023 A  
DOCKED: ATOM     15  C   UNL     1     140.543  69.358 227.530 -0.58 -0.01    +0.041 A  
DOCKED: ATOM     16  Cl  UNL     1     140.470  68.162 228.795 -0.44 +0.02    -0.084 Cl 
DOCKED: ENDBRANCH   3   6
DOCKED: ENDBRANCH   1   2
DOCKED: BRANCH   1  17
DOCKED: ATOM     17  C   UNL     1     140.928  75.812 220.976 -0.21 -0.08    +0.242 C  
DOCKED: ATOM     18  O   UNL     1     141.173  76.309 222.105 -0.30 +0.11    -0.273 OA 
DOCKED: BRANCH  17  19
DOCKED: ATOM     19  N   UNL     1     141.614  76.192 219.790 -0.08 +0.15    -0.334 N  
DOCKED: ATOM     20  C   UNL     1     141.671  77.595 219.432 -0.22 -0.06    +0.120 C  
DOCKED: ATOM     21  C   UNL     1     142.218  75.139 219.010 -0.15 -0.04    +0.115 C  
DOCKED: ATOM     22  C   UNL     1     142.606  77.879 218.305 -0.31 -0.02    +0.022 C  
DOCKED: ATOM     23  C   UNL     1     142.688  75.542 217.654 -0.16 -0.01    +0.030 C  
DOCKED: ATOM     24  C   UNL     1     142.274  76.901 217.199 -0.19 -0.00    +0.004 C  
DOCKED: BRANCH  21  25
DOCKED: ATOM     25  C   UNL     1     143.258  74.389 219.768 -0.31 +0.01    -0.025 A  
DOCKED: ATOM     26  C   UNL     1     144.443  74.988 220.150 -0.38 -0.00    +0.006 A  
DOCKED: ATOM     27  C   UNL     1     143.045  73.067 220.103 -0.26 -0.00    +0.006 A  
DOCKED: ATOM     28  C   UNL     1     145.403  74.289 220.852 -0.54 -0.00    +0.000 A  
DOCKED: ATOM     29  C   UNL     1     144.002  72.356 220.807 -0.36 -0.00    +0.000 A  
DOCKED: ATOM     30  C   UNL     1     145.195  72.949 221.195 -0.54 -0.00    +0.000 A  
DOCKED: ENDBRANCH  21  25
DOCKED: ENDBRANCH  17  19
DOCKED: ENDBRANCH   1  17
DOCKED: TORSDOF 5
DOCKED: TER
DOCKED: ENDMDL
________________________________________________________________________________


    FINAL DOCKED STATE:
    ________________________


Run:   16 / 20
Time taken for this run:   0.046s

DOCKED: MODEL        16
DOCKED: USER    Run = 16
DOCKED: USER
DOCKED: USER    Estimated Free Energy of Binding    =  -8.41 kcal/mol  [=(1)+(2)+(3)-(4)]
DOCKED: USER
DOCKED: USER    (1) Final Intermolecular Energy     =  -9.91 kcal/mol
DOCKED: USER        vdW + Hbond + desolv Energy     =  -9.88 kcal/mol
DOCKED: USER        Electrostatic Energy            =  -0.02 kcal/mol
DOCKED: USER        Moving Ligand-Fixed Receptor    =  -9.91 kcal/mol
DOCKED: USER        Moving Ligand-Moving Receptor   =  +0.00 kcal/mol
DOCKED: USER    (2) Final Total Internal Energy     =  -1.74 kcal/mol
DOCKED: USER    (3) Torsional Free Energy           =  +1.49 kcal/mol
DOCKED: USER    (4) Unbound System's Energy         =  -1.74 kcal/mol
DOCKED: USER
DOCKED: USER
DOCKED: REMARK SMILES O=C(NCC(=O)N1CCCC[C@H]1c1ccccc1)c1ccc2cc(Cl)ccc2n1
DOCKED: REMARK SMILES IDX 4 1 3 2 2 3 1 4 19 6 20 7 29 8 21 9 28 10 22 11 27 12 23 13
DOCKED: REMARK SMILES IDX 26 14 24 15 25 16 5 17 6 18 7 19 8 20 12 21 9 22 11 23 10 24
DOCKED: REMARK SMILES IDX 13 25 14 26 18 27 15 28 17 29 16 30
DOCKED: REMARK H PARENT 3 5
DOCKED: USER                              x       y       z     vdW  Elec       q    Type
DOCKED: USER                           _______ _______ _______ _____ _____    ______ ____
DOCKED: ROOT
DOCKED: ATOM      1  C   UNL     1     139.516  75.005 221.123 -0.17 -0.05    +0.216 C  
DOCKED: ENDROOT
DOCKED: BRANCH   1   2
DOCKED: ATOM      2  N   UNL     1     139.605  74.191 222.314 -0.08 +0.05    -0.342 N  
DOCKED: ATOM      3  C   UNL     1     139.832  72.786 222.107 -0.19 -0.04    +0.270 C  
DOCKED: ATOM      4  O   UNL     1     139.927  72.423 220.906 -0.08 +0.05    -0.268 OA 
DOCKED: ATOM      5  H   UNL     1     139.514  74.577 223.290 -0.48 -0.01    +0.164 HD 
DOCKED: BRANCH   3   6
DOCKED: ATOM      6  C   UNL     1     139.940  71.867 223.234 -0.30 -0.02    +0.128 A  
DOCKED: ATOM      7  C   UNL     1     139.503  70.573 223.027 -0.25 -0.01    +0.035 A  
DOCKED: ATOM      8  N   UNL     1     140.436  72.223 224.433 -0.03 +0.04    -0.243 NA 
DOCKED: ATOM      9  C   UNL     1     139.547  69.604 224.003 -0.29 -0.00    +0.013 A  
DOCKED: ATOM     10  C   UNL     1     140.496  71.291 225.425 -0.51 -0.01    +0.071 A  
DOCKED: ATOM     11  C   UNL     1     140.063  69.993 225.234 -0.44 -0.00    +0.002 A  
DOCKED: ATOM     12  C   UNL     1     140.996  71.622 226.660 -0.70 -0.00    +0.030 A  
DOCKED: ATOM     13  C   UNL     1     140.126  69.064 226.234 -0.51 -0.01    +0.030 A  
DOCKED: ATOM     14  C   UNL     1     141.066  70.681 227.693 -0.64 -0.00    +0.023 A  
DOCKED: ATOM     15  C   UNL     1     140.628  69.388 227.480 -0.58 -0.01    +0.041 A  
DOCKED: ATOM     16  Cl  UNL     1     140.675  68.145 228.700 -0.62 +0.02    -0.084 Cl 
DOCKED: ENDBRANCH   3   6
DOCKED: ENDBRANCH   1   2
DOCKED: BRANCH   1  17
DOCKED: ATOM     17  C   UNL     1     140.157  76.347 221.346 -0.21 -0.07    +0.242 C  
DOCKED: ATOM     18  O   UNL     1     140.346  76.682 222.545 -0.32 +0.07    -0.273 OA 
DOCKED: BRANCH  17  19
DOCKED: ATOM     19  N   UNL     1     140.518  77.164 220.240 -0.05 +0.12    -0.334 N  
DOCKED: ATOM     20  C   UNL     1     139.711  77.111 219.038 -0.04 -0.04    +0.120 C  
DOCKED: ATOM     21  C   UNL     1     141.680  78.006 220.391 -0.26 -0.07    +0.115 C  
DOCKED: ATOM     22  C   UNL     1     140.055  78.174 218.049 -0.05 -0.01    +0.022 C  
DOCKED: ATOM     23  C   UNL     1     142.176  78.636 219.135 -0.25 -0.02    +0.030 C  
DOCKED: ATOM     24  C   UNL     1     141.557  78.142 217.871 -0.19 -0.00    +0.004 C  
DOCKED: BRANCH  21  25
DOCKED: ATOM     25  C   UNL     1     141.533  78.993 221.498 -0.37 +0.01    -0.025 A  
DOCKED: ATOM     26  C   UNL     1     140.415  79.800 221.599 -0.26 -0.00    +0.006 A  
DOCKED: ATOM     27  C   UNL     1     142.526  79.113 222.448 -0.46 -0.00    +0.006 A  
DOCKED: ATOM     28  C   UNL     1     140.284  80.712 222.626 -0.37 -0.00    +0.000 A  
DOCKED: ATOM     29  C   UNL     1     142.404  80.025 223.482 -0.66 -0.00    +0.000 A  
DOCKED: ATOM     30  C   UNL     1     141.286  80.839 223.592 -0.53 -0.00    +0.000 A  
DOCKED: ENDBRANCH  21  25
DOCKED: ENDBRANCH  17  19
DOCKED: ENDBRANCH   1  17
DOCKED: TORSDOF 5
DOCKED: TER
DOCKED: ENDMDL
________________________________________________________________________________


    FINAL DOCKED STATE:
    ________________________


Run:   17 / 20
Time taken for this run:   0.046s

DOCKED: MODEL        17
DOCKED: USER    Run = 17
DOCKED: USER
DOCKED: USER    Estimated Free Energy of Binding    =  -7.48 kcal/mol  [=(1)+(2)+(3)-(4)]
DOCKED: USER
DOCKED: USER    (1) Final Intermolecular Energy     =  -8.97 kcal/mol
DOCKED: USER        vdW + Hbond + desolv Energy     =  -8.88 kcal/mol
DOCKED: USER        Electrostatic Energy            =  -0.09 kcal/mol
DOCKED: USER        Moving Ligand-Fixed Receptor    =  -8.97 kcal/mol
DOCKED: USER        Moving Ligand-Moving Receptor   =  +0.00 kcal/mol
DOCKED: USER    (2) Final Total Internal Energy     =  -2.32 kcal/mol
DOCKED: USER    (3) Torsional Free Energy           =  +1.49 kcal/mol
DOCKED: USER    (4) Unbound System's Energy         =  -2.32 kcal/mol
DOCKED: USER
DOCKED: USER
DOCKED: REMARK SMILES O=C(NCC(=O)N1CCCC[C@H]1c1ccccc1)c1ccc2cc(Cl)ccc2n1
DOCKED: REMARK SMILES IDX 4 1 3 2 2 3 1 4 19 6 20 7 29 8 21 9 28 10 22 11 27 12 23 13
DOCKED: REMARK SMILES IDX 26 14 24 15 25 16 5 17 6 18 7 19 8 20 12 21 9 22 11 23 10 24
DOCKED: REMARK SMILES IDX 13 25 14 26 18 27 15 28 17 29 16 30
DOCKED: REMARK H PARENT 3 5
DOCKED: USER                              x       y       z     vdW  Elec       q    Type
DOCKED: USER                           _______ _______ _______ _____ _____    ______ ____
DOCKED: ROOT
DOCKED: ATOM      1  C   UNL     1     142.263  76.823 220.083 -0.21 -0.14    +0.216 C  
DOCKED: ENDROOT
DOCKED: BRANCH   1   2
DOCKED: ATOM      2  N   UNL     1     141.797  75.761 220.946 -0.12 +0.16    -0.342 N  
DOCKED: ATOM      3  C   UNL     1     140.718  74.958 220.438 -0.13 -0.07    +0.270 C  
DOCKED: ATOM      4  O   UNL     1     140.300  75.272 219.293 -0.03 +0.07    -0.268 OA 
DOCKED: ATOM      5  H   UNL     1     142.205  75.565 221.897 -0.51 -0.09    +0.164 HD 
DOCKED: BRANCH   3   6
DOCKED: ATOM      6  C   UNL     1     140.165  73.859 221.220 -0.21 -0.02    +0.128 A  
DOCKED: ATOM      7  C   UNL     1     138.994  73.291 220.757 -0.11 -0.01    +0.035 A  
DOCKED: ATOM      8  N   UNL     1     140.738  73.391 222.344 -0.64 -0.01    -0.243 NA 
DOCKED: ATOM      9  C   UNL     1     138.365  72.248 221.397 -0.12 -0.00    +0.013 A  
DOCKED: ATOM     10  C   UNL     1     140.144  72.358 223.006 -0.28 -0.01    +0.071 A  
DOCKED: ATOM     11  C   UNL     1     138.974  71.780 222.556 -0.24 -0.00    +0.002 A  
DOCKED: ATOM     12  C   UNL     1     140.702  71.857 224.157 -0.32 -0.00    +0.030 A  
DOCKED: ATOM     13  C   UNL     1     138.384  70.744 223.225 -0.23 -0.01    +0.030 A  
DOCKED: ATOM     14  C   UNL     1     140.110  70.798 224.852 -0.47 -0.00    +0.023 A  
DOCKED: ATOM     15  C   UNL     1     138.939  70.234 224.384 -0.33 -0.01    +0.041 A  
DOCKED: ATOM     16  Cl  UNL     1     138.125  68.913 225.177 -0.40 +0.00    -0.084 Cl 
DOCKED: ENDBRANCH   3   6
DOCKED: ENDBRANCH   1   2
DOCKED: BRANCH   1  17
DOCKED: ATOM     17  C   UNL     1     141.431  78.063 220.267 -0.18 -0.13    +0.242 C  
DOCKED: ATOM     18  O   UNL     1     140.620  78.332 219.343 -0.06 +0.11    -0.273 OA 
DOCKED: BRANCH  17  19
DOCKED: ATOM     19  N   UNL     1     141.580  78.862 221.434 -0.16 +0.17    -0.334 N  
DOCKED: ATOM     20  C   UNL     1     142.135  80.194 221.304 -0.31 -0.05    +0.120 C  
DOCKED: ATOM     21  C   UNL     1     141.162  78.284 222.688 -0.43 -0.04    +0.115 C  
DOCKED: ATOM     22  C   UNL     1     142.023  81.004 222.552 -0.53 -0.01    +0.022 C  
DOCKED: ATOM     23  C   UNL     1     141.579  79.038 223.904 -0.58 -0.01    +0.030 C  
DOCKED: ATOM     24  C   UNL     1     142.551  80.147 223.682 -0.66 -0.00    +0.004 C  
DOCKED: BRANCH  21  25
DOCKED: ATOM     25  C   UNL     1     139.712  77.940 222.706 -0.34 +0.01    -0.025 A  
DOCKED: ATOM     26  C   UNL     1     138.740  78.922 222.709 -0.29 -0.00    +0.006 A  
DOCKED: ATOM     27  C   UNL     1     139.320  76.617 222.718 -0.25 -0.00    +0.006 A  
DOCKED: ATOM     28  C   UNL     1     137.399  78.598 222.725 -0.22 -0.00    +0.000 A  
DOCKED: ATOM     29  C   UNL     1     137.978  76.281 222.735 -0.30 -0.00    +0.000 A  
DOCKED: ATOM     30  C   UNL     1     136.994  77.259 222.738 -0.23 -0.00    +0.000 A  
DOCKED: ENDBRANCH  21  25
DOCKED: ENDBRANCH  17  19
DOCKED: ENDBRANCH   1  17
DOCKED: TORSDOF 5
DOCKED: TER
DOCKED: ENDMDL
________________________________________________________________________________


    FINAL DOCKED STATE:
    ________________________


Run:   18 / 20
Time taken for this run:   0.046s

DOCKED: MODEL        18
DOCKED: USER    Run = 18
DOCKED: USER
DOCKED: USER    Estimated Free Energy of Binding    =  -8.25 kcal/mol  [=(1)+(2)+(3)-(4)]
DOCKED: USER
DOCKED: USER    (1) Final Intermolecular Energy     =  -9.74 kcal/mol
DOCKED: USER        vdW + Hbond + desolv Energy     =  -9.77 kcal/mol
DOCKED: USER        Electrostatic Energy            =  +0.03 kcal/mol
DOCKED: USER        Moving Ligand-Fixed Receptor    =  -9.74 kcal/mol
DOCKED: USER        Moving Ligand-Moving Receptor   =  +0.00 kcal/mol
DOCKED: USER    (2) Final Total Internal Energy     =  -2.07 kcal/mol
DOCKED: USER    (3) Torsional Free Energy           =  +1.49 kcal/mol
DOCKED: USER    (4) Unbound System's Energy         =  -2.07 kcal/mol
DOCKED: USER
DOCKED: USER
DOCKED: REMARK SMILES O=C(NCC(=O)N1CCCC[C@H]1c1ccccc1)c1ccc2cc(Cl)ccc2n1
DOCKED: REMARK SMILES IDX 4 1 3 2 2 3 1 4 19 6 20 7 29 8 21 9 28 10 22 11 27 12 23 13
DOCKED: REMARK SMILES IDX 26 14 24 15 25 16 5 17 6 18 7 19 8 20 12 21 9 22 11 23 10 24
DOCKED: REMARK SMILES IDX 13 25 14 26 18 27 15 28 17 29 16 30
DOCKED: REMARK H PARENT 3 5
DOCKED: USER                              x       y       z     vdW  Elec       q    Type
DOCKED: USER                           _______ _______ _______ _____ _____    ______ ____
DOCKED: ROOT
DOCKED: ATOM      1  C   UNL     1     139.813  74.865 220.924 -0.16 -0.05    +0.216 C  
DOCKED: ENDROOT
DOCKED: BRANCH   1   2
DOCKED: ATOM      2  N   UNL     1     139.823  74.087 222.143 -0.09 +0.04    -0.342 N  
DOCKED: ATOM      3  C   UNL     1     140.079  72.679 221.995 -0.20 -0.04    +0.270 C  
DOCKED: ATOM      4  O   UNL     1     140.265  72.282 220.814 -0.09 +0.04    -0.268 OA 
DOCKED: ATOM      5  H   UNL     1     139.657  74.500 223.097 -0.45 +0.01    +0.164 HD 
DOCKED: BRANCH   3   6
DOCKED: ATOM      6  C   UNL     1     140.114  71.795 223.152 -0.30 -0.02    +0.128 A  
DOCKED: ATOM      7  C   UNL     1     139.617  70.518 222.977 -0.24 -0.01    +0.035 A  
DOCKED: ATOM      8  N   UNL     1     140.599  72.167 224.352 -0.08 +0.03    -0.243 NA 
DOCKED: ATOM      9  C   UNL     1     139.590  69.581 223.985 -0.28 -0.00    +0.013 A  
DOCKED: ATOM     10  C   UNL     1     140.589  71.267 225.375 -0.51 -0.01    +0.071 A  
DOCKED: ATOM     11  C   UNL     1     140.096  69.986 225.215 -0.44 -0.00    +0.002 A  
DOCKED: ATOM     12  C   UNL     1     141.075  71.614 226.611 -0.70 -0.00    +0.030 A  
DOCKED: ATOM     13  C   UNL     1     140.089  69.089 226.246 -0.51 -0.01    +0.030 A  
DOCKED: ATOM     14  C   UNL     1     141.074  70.707 227.675 -0.64 -0.00    +0.023 A  
DOCKED: ATOM     15  C   UNL     1     140.577  69.430 227.494 -0.58 -0.01    +0.041 A  
DOCKED: ATOM     16  Cl  UNL     1     140.532  68.229 228.755 -0.53 +0.02    -0.084 Cl 
DOCKED: ENDBRANCH   3   6
DOCKED: ENDBRANCH   1   2
DOCKED: BRANCH   1  17
DOCKED: ATOM     17  C   UNL     1     140.880  75.924 220.960 -0.20 -0.08    +0.242 C  
DOCKED: ATOM     18  O   UNL     1     141.104  76.452 222.080 -0.31 +0.11    -0.273 OA 
DOCKED: BRANCH  17  19
DOCKED: ATOM     19  N   UNL     1     141.576  76.283 219.773 -0.08 +0.15    -0.334 N  
DOCKED: ATOM     20  C   UNL     1     141.667  77.683 219.412 -0.21 -0.07    +0.120 C  
DOCKED: ATOM     21  C   UNL     1     142.156  75.213 218.997 -0.15 -0.04    +0.115 C  
DOCKED: ATOM     22  C   UNL     1     142.611  77.942 218.285 -0.31 -0.02    +0.022 C  
DOCKED: ATOM     23  C   UNL     1     142.637  75.601 217.641 -0.16 -0.01    +0.030 C  
DOCKED: ATOM     24  C   UNL     1     142.256  76.968 217.182 -0.19 -0.00    +0.004 C  
DOCKED: BRANCH  21  25
DOCKED: ATOM     25  C   UNL     1     143.177  74.441 219.759 -0.31 +0.01    -0.025 A  
DOCKED: ATOM     26  C   UNL     1     144.382  75.008 220.128 -0.39 -0.00    +0.006 A  
DOCKED: ATOM     27  C   UNL     1     142.925  73.131 220.112 -0.25 -0.00    +0.006 A  
DOCKED: ATOM     28  C   UNL     1     145.324  74.289 220.833 -0.54 -0.00    +0.000 A  
DOCKED: ATOM     29  C   UNL     1     143.863  72.400 220.819 -0.35 -0.00    +0.000 A  
DOCKED: ATOM     30  C   UNL     1     145.076  72.960 221.194 -0.52 -0.00    +0.000 A  
DOCKED: ENDBRANCH  21  25
DOCKED: ENDBRANCH  17  19
DOCKED: ENDBRANCH   1  17
DOCKED: TORSDOF 5
DOCKED: TER
DOCKED: ENDMDL
________________________________________________________________________________


    FINAL DOCKED STATE:
    ________________________


Run:   19 / 20
Time taken for this run:   0.046s

DOCKED: MODEL        19
DOCKED: USER    Run = 19
DOCKED: USER
DOCKED: USER    Estimated Free Energy of Binding    =  -8.36 kcal/mol  [=(1)+(2)+(3)-(4)]
DOCKED: USER
DOCKED: USER    (1) Final Intermolecular Energy     =  -9.85 kcal/mol
DOCKED: USER        vdW + Hbond + desolv Energy     =  -9.86 kcal/mol
DOCKED: USER        Electrostatic Energy            =  +0.01 kcal/mol
DOCKED: USER        Moving Ligand-Fixed Receptor    =  -9.85 kcal/mol
DOCKED: USER        Moving Ligand-Moving Receptor   =  +0.00 kcal/mol
DOCKED: USER    (2) Final Total Internal Energy     =  -2.04 kcal/mol
DOCKED: USER    (3) Torsional Free Energy           =  +1.49 kcal/mol
DOCKED: USER    (4) Unbound System's Energy         =  -2.04 kcal/mol
DOCKED: USER
DOCKED: USER
DOCKED: REMARK SMILES O=C(NCC(=O)N1CCCC[C@H]1c1ccccc1)c1ccc2cc(Cl)ccc2n1
DOCKED: REMARK SMILES IDX 4 1 3 2 2 3 1 4 19 6 20 7 29 8 21 9 28 10 22 11 27 12 23 13
DOCKED: REMARK SMILES IDX 26 14 24 15 25 16 5 17 6 18 7 19 8 20 12 21 9 22 11 23 10 24
DOCKED: REMARK SMILES IDX 13 25 14 26 18 27 15 28 17 29 16 30
DOCKED: REMARK H PARENT 3 5
DOCKED: USER                              x       y       z     vdW  Elec       q    Type
DOCKED: USER                           _______ _______ _______ _____ _____    ______ ____
DOCKED: ROOT
DOCKED: ATOM      1  C   UNL     1     139.888  74.580 220.934 -0.16 -0.04    +0.216 C  
DOCKED: ENDROOT
DOCKED: BRANCH   1   2
DOCKED: ATOM      2  N   UNL     1     139.860  73.834 222.172 -0.11 +0.04    -0.342 N  
DOCKED: ATOM      3  C   UNL     1     140.160  72.431 222.074 -0.20 -0.04    +0.270 C  
DOCKED: ATOM      4  O   UNL     1     140.415  72.010 220.916 -0.10 +0.04    -0.268 OA 
DOCKED: ATOM      5  H   UNL     1     139.636  74.267 223.106 -0.48 +0.00    +0.164 HD 
DOCKED: BRANCH   3   6
DOCKED: ATOM      6  C   UNL     1     140.162  71.578 223.256 -0.31 -0.02    +0.128 A  
DOCKED: ATOM      7  C   UNL     1     139.627  70.312 223.112 -0.23 -0.01    +0.035 A  
DOCKED: ATOM      8  N   UNL     1     140.651  71.967 224.448 -0.20 +0.03    -0.243 NA 
DOCKED: ATOM      9  C   UNL     1     139.566  69.404 224.144 -0.29 -0.00    +0.013 A  
DOCKED: ATOM     10  C   UNL     1     140.607  71.096 225.495 -0.52 -0.01    +0.071 A  
DOCKED: ATOM     11  C   UNL     1     140.077  69.827 225.366 -0.45 -0.00    +0.002 A  
DOCKED: ATOM     12  C   UNL     1     141.097  71.462 226.724 -0.70 -0.00    +0.030 A  
DOCKED: ATOM     13  C   UNL     1     140.036  68.959 226.421 -0.53 -0.01    +0.030 A  
DOCKED: ATOM     14  C   UNL     1     141.062  70.584 227.812 -0.63 -0.00    +0.023 A  
DOCKED: ATOM     15  C   UNL     1     140.527  69.319 227.662 -0.59 -0.01    +0.041 A  
DOCKED: ATOM     16  Cl  UNL     1     140.438  68.154 228.955 -0.28 +0.02    -0.084 Cl 
DOCKED: ENDBRANCH   3   6
DOCKED: ENDBRANCH   1   2
DOCKED: BRANCH   1  17
DOCKED: ATOM     17  C   UNL     1     140.893  75.697 221.009 -0.21 -0.08    +0.242 C  
DOCKED: ATOM     18  O   UNL     1     141.066  76.216 222.142 -0.35 +0.09    -0.273 OA 
DOCKED: BRANCH  17  19
DOCKED: ATOM     19  N   UNL     1     141.591  76.115 219.843 -0.08 +0.14    -0.334 N  
DOCKED: ATOM     20  C   UNL     1     141.641  77.528 219.526 -0.22 -0.06    +0.120 C  
DOCKED: ATOM     21  C   UNL     1     142.214  75.089 219.041 -0.15 -0.04    +0.115 C  
DOCKED: ATOM     22  C   UNL     1     142.589  77.852 218.419 -0.32 -0.02    +0.022 C  
DOCKED: ATOM     23  C   UNL     1     142.698  75.535 217.703 -0.16 -0.01    +0.030 C  
DOCKED: ATOM     24  C   UNL     1     142.278  76.903 217.282 -0.19 -0.00    +0.004 C  
DOCKED: BRANCH  21  25
DOCKED: ATOM     25  C   UNL     1     143.251  74.326 219.791 -0.31 +0.01    -0.025 A  
DOCKED: ATOM     26  C   UNL     1     144.447  74.910 220.162 -0.41 -0.00    +0.006 A  
DOCKED: ATOM     27  C   UNL     1     143.023  73.008 220.129 -0.26 -0.00    +0.006 A  
DOCKED: ATOM     28  C   UNL     1     145.403  74.199 220.857 -0.57 -0.00    +0.000 A  
DOCKED: ATOM     29  C   UNL     1     143.976  72.285 220.826 -0.35 -0.00    +0.000 A  
DOCKED: ATOM     30  C   UNL     1     145.180  72.863 221.203 -0.51 -0.00    +0.000 A  
DOCKED: ENDBRANCH  21  25
DOCKED: ENDBRANCH  17  19
DOCKED: ENDBRANCH   1  17
DOCKED: TORSDOF 5
DOCKED: TER
DOCKED: ENDMDL
________________________________________________________________________________


    FINAL DOCKED STATE:
    ________________________


Run:   20 / 20
Time taken for this run:   0.046s

DOCKED: MODEL        20
DOCKED: USER    Run = 20
DOCKED: USER
DOCKED: USER    Estimated Free Energy of Binding    =  -8.39 kcal/mol  [=(1)+(2)+(3)-(4)]
DOCKED: USER
DOCKED: USER    (1) Final Intermolecular Energy     =  -9.88 kcal/mol
DOCKED: USER        vdW + Hbond + desolv Energy     =  -9.86 kcal/mol
DOCKED: USER        Electrostatic Energy            =  -0.02 kcal/mol
DOCKED: USER        Moving Ligand-Fixed Receptor    =  -9.88 kcal/mol
DOCKED: USER        Moving Ligand-Moving Receptor   =  +0.00 kcal/mol
DOCKED: USER    (2) Final Total Internal Energy     =  -1.79 kcal/mol
DOCKED: USER    (3) Torsional Free Energy           =  +1.49 kcal/mol
DOCKED: USER    (4) Unbound System's Energy         =  -1.79 kcal/mol
DOCKED: USER
DOCKED: USER
DOCKED: REMARK SMILES O=C(NCC(=O)N1CCCC[C@H]1c1ccccc1)c1ccc2cc(Cl)ccc2n1
DOCKED: REMARK SMILES IDX 4 1 3 2 2 3 1 4 19 6 20 7 29 8 21 9 28 10 22 11 27 12 23 13
DOCKED: REMARK SMILES IDX 26 14 24 15 25 16 5 17 6 18 7 19 8 20 12 21 9 22 11 23 10 24
DOCKED: REMARK SMILES IDX 13 25 14 26 18 27 15 28 17 29 16 30
DOCKED: REMARK H PARENT 3 5
DOCKED: USER                              x       y       z     vdW  Elec       q    Type
DOCKED: USER                           _______ _______ _______ _____ _____    ______ ____
DOCKED: ROOT
DOCKED: ATOM      1  C   UNL     1     139.574  75.054 221.121 -0.17 -0.05    +0.216 C  
DOCKED: ENDROOT
DOCKED: BRANCH   1   2
DOCKED: ATOM      2  N   UNL     1     139.658  74.233 222.308 -0.07 +0.04    -0.342 N  
DOCKED: ATOM      3  C   UNL     1     139.876  72.828 222.094 -0.19 -0.04    +0.270 C  
DOCKED: ATOM      4  O   UNL     1     139.970  72.470 220.890 -0.08 +0.05    -0.268 OA 
DOCKED: ATOM      5  H   UNL     1     139.568  74.615 223.285 -0.47 -0.00    +0.164 HD 
DOCKED: BRANCH   3   6
DOCKED: ATOM      6  C   UNL     1     139.979  71.903 223.215 -0.30 -0.02    +0.128 A  
DOCKED: ATOM      7  C   UNL     1     139.552  70.607 222.995 -0.26 -0.01    +0.035 A  
DOCKED: ATOM      8  N   UNL     1     140.459  72.255 224.422 -0.01 +0.04    -0.243 NA 
DOCKED: ATOM      9  C   UNL     1     139.593  69.632 223.965 -0.28 -0.00    +0.013 A  
DOCKED: ATOM     10  C   UNL     1     140.514  71.317 225.409 -0.51 -0.01    +0.071 A  
DOCKED: ATOM     11  C   UNL     1     140.092  70.017 225.205 -0.44 -0.00    +0.002 A  
DOCKED: ATOM     12  C   UNL     1     140.998  71.643 226.651 -0.70 -0.00    +0.030 A  
DOCKED: ATOM     13  C   UNL     1     140.151  69.081 226.199 -0.51 -0.01    +0.030 A  
DOCKED: ATOM     14  C   UNL     1     141.064  70.696 227.679 -0.64 -0.00    +0.023 A  
DOCKED: ATOM     15  C   UNL     1     140.637  69.401 227.453 -0.58 -0.01    +0.041 A  
DOCKED: ATOM     16  Cl  UNL     1     140.679  68.151 228.666 -0.63 +0.02    -0.084 Cl 
DOCKED: ENDBRANCH   3   6
DOCKED: ENDBRANCH   1   2
DOCKED: BRANCH   1  17
DOCKED: ATOM     17  C   UNL     1     140.043  76.454 221.407 -0.21 -0.07    +0.242 C  
DOCKED: ATOM     18  O   UNL     1     140.044  76.805 222.616 -0.29 +0.06    -0.273 OA 
DOCKED: BRANCH  17  19
DOCKED: ATOM     19  N   UNL     1     140.455  77.306 220.346 -0.05 +0.12    -0.334 N  
DOCKED: ATOM     20  C   UNL     1     139.665  77.345 219.132 -0.04 -0.04    +0.120 C  
DOCKED: ATOM     21  C   UNL     1     141.651  78.087 220.552 -0.26 -0.07    +0.115 C  
DOCKED: ATOM     22  C   UNL     1     140.069  78.437 218.200 -0.06 -0.01    +0.022 C  
DOCKED: ATOM     23  C   UNL     1     142.192  78.753 219.333 -0.20 -0.02    +0.030 C  
DOCKED: ATOM     24  C   UNL     1     141.571  78.346 218.040 -0.20 -0.00    +0.004 C  
DOCKED: BRANCH  21  25
DOCKED: ATOM     25  C   UNL     1     141.530  79.027 221.702 -0.39 +0.01    -0.025 A  
DOCKED: ATOM     26  C   UNL     1     142.487  79.072 222.698 -0.50 -0.00    +0.006 A  
DOCKED: ATOM     27  C   UNL     1     140.445  79.875 221.785 -0.28 -0.00    +0.006 A  
DOCKED: ATOM     28  C   UNL     1     142.370  79.944 223.761 -0.63 -0.00    +0.000 A  
DOCKED: ATOM     29  C   UNL     1     140.318  80.753 222.847 -0.39 -0.00    +0.000 A  
DOCKED: ATOM     30  C   UNL     1     141.273  80.807 223.852 -0.51 -0.00    +0.000 A  
DOCKED: ENDBRANCH  21  25
DOCKED: ENDBRANCH  17  19
DOCKED: ENDBRANCH   1  17
DOCKED: TORSDOF 5
DOCKED: TER
DOCKED: ENDMDL
________________________________________________________________________________


    CLUSTERING HISTOGRAM
    ____________________


________________________________________________________________________________
     |           |     |           |     |
Clus | Lowest    | Run | Mean      | Num | Histogram
-ter | Binding   |     | Binding   | in  |
Rank | Energy    |     | Energy    | Clus|    5    10   15   20   25   30   35
_____|___________|_____|___________|_____|____:____|____:____|____:____|____:___
   1 |     -8.59 |  10 |     -8.58 |   4 |####
   2 |     -8.42 |   5 |     -8.35 |  13 |#############
   3 |     -8.41 |  16 |     -8.40 |   2 |##
   4 |     -7.48 |  17 |     -7.48 |   1 |#
_____|___________|_____|___________|_____|______________________________________


    RMSD TABLE
    __________


_______________________________________________________________________
     |      |      |           |         |                 |
Rank | Sub- | Run  | Binding   | Cluster | Reference       | Grep
     | Rank |      | Energy    | RMSD    | RMSD            | Pattern
_____|______|______|___________|_________|_________________|___________
   1      1     10       -8.59      0.00    271.06           RANKING
   1      2      8       -8.59      0.04    271.05           RANKING
   1      3     12       -8.58      0.07    271.05           RANKING
   1      4     13       -8.57      0.06    271.04           RANKING
   2      1      5       -8.42      0.00    270.95           RANKING
   2      2      9       -8.41      0.04    270.96           RANKING
   2      3      7       -8.41      0.03    270.96           RANKING
   2      4      2       -8.39      0.06    270.95           RANKING
   2      5      6       -8.38      0.13    270.93           RANKING
   2      6      4       -8.38      0.03    270.94           RANKING
   2      7     14       -8.37      0.09    270.96           RANKING
   2      8      3       -8.36      0.15    270.91           RANKING
   2      9     19       -8.36      0.04    270.94           RANKING
   2     10     11       -8.33      0.19    270.89           RANKING
   2     11     15       -8.33      0.14    270.91           RANKING
   2     12     18       -8.25      0.22    270.90           RANKING
   2     13      1       -8.18      0.28    270.84           RANKING
   3      1     16       -8.41      0.00    271.37           RANKING
   3      2     20       -8.39      0.17    271.44           RANKING
   4      1     17       -7.48      0.00    270.88           RANKING

Run time 0.885 sec
Idle time 0.000 sec
