AutoDock-GPU version: v1.6

**********************************************************
**    AutoDock-GPU AUTODOCKTOOLS-COMPATIBLE DLG FILE    **
**********************************************************


    DOCKING PARAMETERS
    ________________________


Ligand file:                               /home/a/REINVENT4/ReinventStudies/pleaseWork/justmol2mol_4_Compounds_ontop/graph-dock-hn62wh/graph-DockGPU/node-autodockgpu/inputs/NHWJLCLQNHDNSZ-BAKOIFDKNA-N.pdbqt
Grid fld file:                             /home/a/REINVENT4/ReinventStudies/mols/Rad51/maps/rad51_receptor.maps.fld

Random seed:                               42
Number of runs:                            20
Number of energy evaluations:              1132076
Number of generations:                     42000
Size of population:                        150
Rate of crossover:                         80.000000%
Tournament selection probability limit:    60.000000%
Rate of mutation:                          2.000000%
Maximal allowed delta movement:            +/- 6.000000A
Maximal allowed delta angle:               +/- 90.000000

Rate of local search:                      100.000000%
Maximal number of local search iterations: 300
Rho lower bound:                           0.010000
Spread of local search delta movement:     2.000000A
Spread of local search delta angle:        74.999999
Limit of consecutive successes/failures:   4

Handle symmetry during clustering:         YES
RMSD tolerance:                            2.000000A

Program call in command line was:          /home/a/REINVENT4/ReinventStudies/adgpu-v1.6_linux_x64_cuda12_128wi --filelist batch.txt --heuristics 1 --nrun 20 --psize 150 --lsit 300 --seed 42 --heurmax 12000000 


    GRID PARAMETERS
    ________________________


Receptor name:                             rad51_receptor
Number of grid points (x, y, z):           53, 53, 53
Grid center (x, y, z):                     139.950000, 75.640000, 221.970000A
Grid size (x, y, z):                       19.500000, 19.500000, 19.500000A
Grid spacing:                              0.375000A


    LIGAND PARAMETERS
    ________________________


Ligand name:                               /home/a/REINVENT4/ReinventStudies/pleaseWork/justmol2mol_4_Compounds_ontop/graph-dock-hn62wh/graph-DockGPU/node-autodockgpu/inputs/NHWJLCLQNHDNSZ-BAKOIFDKNA-N
Number of atoms:                           30
Number of rotatable bonds:                 5
Number of atom types:                      7


    DUMMY DATA (only for ADT-compatibility)
    ________________________


DPF> outlev 1
DPF> ga_run 20
DPF> fld /home/a/REINVENT4/ReinventStudies/mols/Rad51/maps/rad51_receptor.maps.fld
DPF> move /home/a/REINVENT4/ReinventStudies/pleaseWork/justmol2mol_4_Compounds_ontop/graph-dock-hn62wh/graph-DockGPU/node-autodockgpu/inputs/NHWJLCLQNHDNSZ-BAKOIFDKNA-N.pdbqt


    COUNTER STATES
    ________________________


Number of energy evaluations performed:    908950
Number of generations used:                45


    INPUT LIGAND PDBQT FILE:
    ________________________


INPUT-LIGAND-PDBQT: REMARK SMILES O=C(NCC(=O)N1CCCC[C@@H]1c1ccccc1)c1ccc2cc(Cl)ccc2n1
INPUT-LIGAND-PDBQT: REMARK SMILES IDX 4 1 3 2 2 3 1 4 19 6 20 7 29 8 21 9 28 10 22 11 27 12 23 13
INPUT-LIGAND-PDBQT: REMARK SMILES IDX 26 14 24 15 25 16 5 17 6 18 7 19 8 20 12 21 9 22 11 23 10 24
INPUT-LIGAND-PDBQT: REMARK SMILES IDX 13 25 14 26 18 27 15 28 17 29 16 30
INPUT-LIGAND-PDBQT: REMARK H PARENT 3 5
INPUT-LIGAND-PDBQT: ROOT
INPUT-LIGAND-PDBQT: ATOM      1  C   UNL     1       0.128  -1.738  -0.775  1.00  0.00     0.216 C 
INPUT-LIGAND-PDBQT: ENDROOT
INPUT-LIGAND-PDBQT: BRANCH   1   2
INPUT-LIGAND-PDBQT: ATOM      2  N   UNL     1       1.384  -1.051  -0.540  1.00  0.00    -0.342 N 
INPUT-LIGAND-PDBQT: ATOM      3  C   UNL     1       1.746  -0.770   0.804  1.00  0.00     0.270 C 
INPUT-LIGAND-PDBQT: ATOM      4  O   UNL     1       1.040  -1.083   1.797  1.00  0.00    -0.268 OA
INPUT-LIGAND-PDBQT: ATOM      5  H   UNL     1       2.032  -0.754  -1.308  1.00  0.00     0.164 HD
INPUT-LIGAND-PDBQT: BRANCH   3   6
INPUT-LIGAND-PDBQT: ATOM      6  C   UNL     1       3.023  -0.071   1.045  1.00  0.00     0.128 A 
INPUT-LIGAND-PDBQT: ATOM      7  C   UNL     1       3.435   0.233   2.322  1.00  0.00     0.035 A 
INPUT-LIGAND-PDBQT: ATOM      8  N   UNL     1       3.828   0.293   0.011  1.00  0.00    -0.243 NA
INPUT-LIGAND-PDBQT: ATOM      9  C   UNL     1       4.627   0.886   2.558  1.00  0.00     0.013 A 
INPUT-LIGAND-PDBQT: ATOM     10  C   UNL     1       4.996   0.933   0.238  1.00  0.00     0.071 A 
INPUT-LIGAND-PDBQT: ATOM     11  C   UNL     1       5.423   1.244   1.511  1.00  0.00     0.002 A 
INPUT-LIGAND-PDBQT: ATOM     12  C   UNL     1       5.774   1.278  -0.864  1.00  0.00     0.030 A 
INPUT-LIGAND-PDBQT: ATOM     13  C   UNL     1       6.627   1.899   1.673  1.00  0.00     0.030 A 
INPUT-LIGAND-PDBQT: ATOM     14  C   UNL     1       6.989   1.937  -0.719  1.00  0.00     0.023 A 
INPUT-LIGAND-PDBQT: ATOM     15  C   UNL     1       7.396   2.239   0.569  1.00  0.00     0.041 A 
INPUT-LIGAND-PDBQT: ATOM     16  Cl  UNL     1       8.913   3.065   0.781  1.00  0.00    -0.084 Cl
INPUT-LIGAND-PDBQT: ENDBRANCH   3   6
INPUT-LIGAND-PDBQT: ENDBRANCH   1   2
INPUT-LIGAND-PDBQT: BRANCH   1  17
INPUT-LIGAND-PDBQT: ATOM     17  C   UNL     1      -1.026  -0.958  -0.249  1.00  0.00     0.242 C 
INPUT-LIGAND-PDBQT: ATOM     18  O   UNL     1      -0.751   0.143   0.302  1.00  0.00    -0.273 OA
INPUT-LIGAND-PDBQT: BRANCH  17  19
INPUT-LIGAND-PDBQT: ATOM     19  N   UNL     1      -2.322  -1.478  -0.393  1.00  0.00    -0.334 N 
INPUT-LIGAND-PDBQT: ATOM     20  C   UNL     1      -2.556  -2.773  -1.050  1.00  0.00     0.120 C 
INPUT-LIGAND-PDBQT: ATOM     21  C   UNL     1      -3.479  -0.773   0.094  1.00  0.00     0.115 C 
INPUT-LIGAND-PDBQT: ATOM     22  C   UNL     1      -3.686  -3.497  -0.349  1.00  0.00     0.022 C 
INPUT-LIGAND-PDBQT: ATOM     23  C   UNL     1      -4.674  -1.229  -0.729  1.00  0.00     0.030 C 
INPUT-LIGAND-PDBQT: ATOM     24  C   UNL     1      -4.951  -2.667  -0.324  1.00  0.00     0.004 C 
INPUT-LIGAND-PDBQT: BRANCH  21  25
INPUT-LIGAND-PDBQT: ATOM     25  C   UNL     1      -3.344   0.703   0.068  1.00  0.00    -0.025 A 
INPUT-LIGAND-PDBQT: ATOM     26  C   UNL     1      -2.833   1.403  -1.005  1.00  0.00     0.006 A 
INPUT-LIGAND-PDBQT: ATOM     27  C   UNL     1      -3.744   1.458   1.168  1.00  0.00     0.006 A 
INPUT-LIGAND-PDBQT: ATOM     28  C   UNL     1      -2.713   2.784  -1.013  1.00  0.00     0.000 A 
INPUT-LIGAND-PDBQT: ATOM     29  C   UNL     1      -3.643   2.830   1.202  1.00  0.00     0.000 A 
INPUT-LIGAND-PDBQT: ATOM     30  C   UNL     1      -3.127   3.507   0.112  1.00  0.00     0.000 A 
INPUT-LIGAND-PDBQT: ENDBRANCH  21  25
INPUT-LIGAND-PDBQT: ENDBRANCH  17  19
INPUT-LIGAND-PDBQT: ENDBRANCH   1  17
INPUT-LIGAND-PDBQT: TORSDOF 5


    FINAL DOCKED STATE:
    ________________________


Run:   1 / 20
Time taken for this run:   0.038s

DOCKED: MODEL        1
DOCKED: USER    Run = 1
DOCKED: USER
DOCKED: USER    Estimated Free Energy of Binding    =  -8.21 kcal/mol  [=(1)+(2)+(3)-(4)]
DOCKED: USER
DOCKED: USER    (1) Final Intermolecular Energy     =  -9.70 kcal/mol
DOCKED: USER        vdW + Hbond + desolv Energy     =  -9.73 kcal/mol
DOCKED: USER        Electrostatic Energy            =  +0.03 kcal/mol
DOCKED: USER        Moving Ligand-Fixed Receptor    =  -9.70 kcal/mol
DOCKED: USER        Moving Ligand-Moving Receptor   =  +0.00 kcal/mol
DOCKED: USER    (2) Final Total Internal Energy     =  -2.11 kcal/mol
DOCKED: USER    (3) Torsional Free Energy           =  +1.49 kcal/mol
DOCKED: USER    (4) Unbound System's Energy         =  -2.11 kcal/mol
DOCKED: USER
DOCKED: USER
DOCKED: REMARK SMILES O=C(NCC(=O)N1CCCC[C@@H]1c1ccccc1)c1ccc2cc(Cl)ccc2n1
DOCKED: REMARK SMILES IDX 4 1 3 2 2 3 1 4 19 6 20 7 29 8 21 9 28 10 22 11 27 12 23 13
DOCKED: REMARK SMILES IDX 26 14 24 15 25 16 5 17 6 18 7 19 8 20 12 21 9 22 11 23 10 24
DOCKED: REMARK SMILES IDX 13 25 14 26 18 27 15 28 17 29 16 30
DOCKED: REMARK H PARENT 3 5
DOCKED: USER                              x       y       z     vdW  Elec       q    Type
DOCKED: USER                           _______ _______ _______ _____ _____    ______ ____
DOCKED: ROOT
DOCKED: ATOM      1  C   UNL     1     139.905  74.776 220.919 -0.16 -0.05    +0.216 C  
DOCKED: ENDROOT
DOCKED: BRANCH   1   2
DOCKED: ATOM      2  N   UNL     1     139.909  73.867 222.050 -0.14 +0.04    -0.342 N  
DOCKED: ATOM      3  C   UNL     1     139.996  72.475 221.783 -0.18 -0.04    +0.270 C  
DOCKED: ATOM      4  O   UNL     1     140.069  71.990 220.625 -0.06 +0.04    -0.268 OA 
DOCKED: ATOM      5  H   UNL     1     139.851  74.185 223.047 -0.33 +0.03    +0.164 HD 
DOCKED: BRANCH   3   6
DOCKED: ATOM      6  C   UNL     1     139.999  71.549 222.932 -0.28 -0.02    +0.128 A  
DOCKED: ATOM      7  C   UNL     1     139.519  70.265 222.809 -0.21 -0.01    +0.035 A  
DOCKED: ATOM      8  N   UNL     1     140.476  71.939 224.144 -0.25 +0.03    -0.243 NA 
DOCKED: ATOM      9  C   UNL     1     139.518  69.391 223.877 -0.25 -0.00    +0.013 A  
DOCKED: ATOM     10  C   UNL     1     140.476  71.086 225.192 -0.49 -0.01    +0.071 A  
DOCKED: ATOM     11  C   UNL     1     140.000  69.797 225.086 -0.42 -0.00    +0.002 A  
DOCKED: ATOM     12  C   UNL     1     140.978  71.547 226.406 -0.67 -0.00    +0.030 A  
DOCKED: ATOM     13  C   UNL     1     140.029  68.977 226.196 -0.51 -0.01    +0.030 A  
DOCKED: ATOM     14  C   UNL     1     141.015  70.735 227.534 -0.64 -0.00    +0.023 A  
DOCKED: ATOM     15  C   UNL     1     140.531  69.446 227.402 -0.57 -0.01    +0.041 A  
DOCKED: ATOM     16  Cl  UNL     1     140.564  68.406 228.797 -0.56 +0.02    -0.084 Cl 
DOCKED: ENDBRANCH   3   6
DOCKED: ENDBRANCH   1   2
DOCKED: BRANCH   1  17
DOCKED: ATOM     17  C   UNL     1     140.832  75.920 221.138 -0.22 -0.08    +0.242 C  
DOCKED: ATOM     18  O   UNL     1     141.073  76.222 222.339 -0.37 +0.09    -0.273 OA 
DOCKED: BRANCH  17  19
DOCKED: ATOM     19  N   UNL     1     141.372  76.583 220.024 -0.08 +0.15    -0.334 N  
DOCKED: ATOM     20  C   UNL     1     140.567  77.526 219.234 -0.10 -0.05    +0.120 C  
DOCKED: ATOM     21  C   UNL     1     142.733  76.372 219.604 -0.31 -0.07    +0.115 C  
DOCKED: ATOM     22  C   UNL     1     141.441  78.676 218.779 -0.21 -0.01    +0.022 C  
DOCKED: ATOM     23  C   UNL     1     142.808  76.686 218.118 -0.28 -0.02    +0.030 C  
DOCKED: ATOM     24  C   UNL     1     142.636  78.190 217.988 -0.31 -0.00    +0.004 C  
DOCKED: BRANCH  21  25
DOCKED: ATOM     25  C   UNL     1     143.251  75.012 219.890 -0.36 +0.01    -0.025 A  
DOCKED: ATOM     26  C   UNL     1     142.557  73.856 219.602 -0.20 -0.00    +0.006 A  
DOCKED: ATOM     27  C   UNL     1     144.502  74.855 220.481 -0.38 -0.00    +0.006 A  
DOCKED: ATOM     28  C   UNL     1     143.056  72.592 219.877 -0.22 -0.00    +0.000 A  
DOCKED: ATOM     29  C   UNL     1     145.035  73.619 220.770 -0.58 -0.00    +0.000 A  
DOCKED: ATOM     30  C   UNL     1     144.318  72.476 220.471 -0.39 -0.00    +0.000 A  
DOCKED: ENDBRANCH  21  25
DOCKED: ENDBRANCH  17  19
DOCKED: ENDBRANCH   1  17
DOCKED: TORSDOF 5
DOCKED: TER
DOCKED: ENDMDL
________________________________________________________________________________


    FINAL DOCKED STATE:
    ________________________


Run:   2 / 20
Time taken for this run:   0.038s

DOCKED: MODEL        2
DOCKED: USER    Run = 2
DOCKED: USER
DOCKED: USER    Estimated Free Energy of Binding    =  -8.47 kcal/mol  [=(1)+(2)+(3)-(4)]
DOCKED: USER
DOCKED: USER    (1) Final Intermolecular Energy     =  -9.96 kcal/mol
DOCKED: USER        vdW + Hbond + desolv Energy     =  -9.97 kcal/mol
DOCKED: USER        Electrostatic Energy            =  +0.02 kcal/mol
DOCKED: USER        Moving Ligand-Fixed Receptor    =  -9.96 kcal/mol
DOCKED: USER        Moving Ligand-Moving Receptor   =  +0.00 kcal/mol
DOCKED: USER    (2) Final Total Internal Energy     =  -1.98 kcal/mol
DOCKED: USER    (3) Torsional Free Energy           =  +1.49 kcal/mol
DOCKED: USER    (4) Unbound System's Energy         =  -1.98 kcal/mol
DOCKED: USER
DOCKED: USER
DOCKED: REMARK SMILES O=C(NCC(=O)N1CCCC[C@@H]1c1ccccc1)c1ccc2cc(Cl)ccc2n1
DOCKED: REMARK SMILES IDX 4 1 3 2 2 3 1 4 19 6 20 7 29 8 21 9 28 10 22 11 27 12 23 13
DOCKED: REMARK SMILES IDX 26 14 24 15 25 16 5 17 6 18 7 19 8 20 12 21 9 22 11 23 10 24
DOCKED: REMARK SMILES IDX 13 25 14 26 18 27 15 28 17 29 16 30
DOCKED: REMARK H PARENT 3 5
DOCKED: USER                              x       y       z     vdW  Elec       q    Type
DOCKED: USER                           _______ _______ _______ _____ _____    ______ ____
DOCKED: ROOT
DOCKED: ATOM      1  C   UNL     1     139.785  74.941 220.992 -0.16 -0.05    +0.216 C  
DOCKED: ENDROOT
DOCKED: BRANCH   1   2
DOCKED: ATOM      2  N   UNL     1     139.771  74.005 222.099 -0.12 +0.04    -0.342 N  
DOCKED: ATOM      3  C   UNL     1     140.027  72.637 221.815 -0.19 -0.04    +0.270 C  
DOCKED: ATOM      4  O   UNL     1     140.265  72.196 220.662 -0.07 +0.04    -0.268 OA 
DOCKED: ATOM      5  H   UNL     1     139.582  74.286 223.091 -0.52 -0.01    +0.164 HD 
DOCKED: BRANCH   3   6
DOCKED: ATOM      6  C   UNL     1     140.013  71.682 222.941 -0.29 -0.02    +0.128 A  
DOCKED: ATOM      7  C   UNL     1     139.500  70.415 222.789 -0.22 -0.01    +0.035 A  
DOCKED: ATOM      8  N   UNL     1     140.506  72.030 224.160 -0.20 +0.03    -0.243 NA 
DOCKED: ATOM      9  C   UNL     1     139.482  69.515 223.834 -0.26 -0.00    +0.013 A  
DOCKED: ATOM     10  C   UNL     1     140.490  71.151 225.186 -0.50 -0.01    +0.071 A  
DOCKED: ATOM     11  C   UNL     1     139.980  69.878 225.050 -0.42 -0.00    +0.002 A  
DOCKED: ATOM     12  C   UNL     1     141.010  71.569 226.408 -0.68 -0.00    +0.030 A  
DOCKED: ATOM     13  C   UNL     1     139.994  69.030 226.139 -0.50 -0.00    +0.030 A  
DOCKED: ATOM     14  C   UNL     1     141.032  70.728 227.515 -0.64 -0.00    +0.023 A  
DOCKED: ATOM     15  C   UNL     1     140.514  69.455 227.353 -0.57 -0.01    +0.041 A  
DOCKED: ATOM     16  Cl  UNL     1     140.528  68.380 228.722 -0.63 +0.02    -0.084 Cl 
DOCKED: ENDBRANCH   3   6
DOCKED: ENDBRANCH   1   2
DOCKED: BRANCH   1  17
DOCKED: ATOM     17  C   UNL     1     140.949  75.867 221.076 -0.21 -0.08    +0.242 C  
DOCKED: ATOM     18  O   UNL     1     141.406  76.085 222.231 -0.26 +0.11    -0.273 OA 
DOCKED: BRANCH  17  19
DOCKED: ATOM     19  N   UNL     1     141.459  76.429 219.895 -0.08 +0.15    -0.334 N  
DOCKED: ATOM     20  C   UNL     1     140.611  77.238 219.007 -0.08 -0.05    +0.120 C  
DOCKED: ATOM     21  C   UNL     1     142.831  76.242 219.499 -0.31 -0.07    +0.115 C  
DOCKED: ATOM     22  C   UNL     1     141.428  78.373 218.427 -0.19 -0.01    +0.022 C  
DOCKED: ATOM     23  C   UNL     1     142.896  76.394 217.987 -0.26 -0.02    +0.030 C  
DOCKED: ATOM     24  C   UNL     1     142.650  77.864 217.692 -0.29 -0.00    +0.004 C  
DOCKED: BRANCH  21  25
DOCKED: ATOM     25  C   UNL     1     143.415  74.950 219.932 -0.37 +0.01    -0.025 A  
DOCKED: ATOM     26  C   UNL     1     142.754  73.744 219.835 -0.24 -0.00    +0.006 A  
DOCKED: ATOM     27  C   UNL     1     144.699  74.913 220.471 -0.36 -0.00    +0.006 A  
DOCKED: ATOM     28  C   UNL     1     143.315  72.544 220.245 -0.28 -0.00    +0.000 A  
DOCKED: ATOM     29  C   UNL     1     145.294  73.745 220.889 -0.62 -0.00    +0.000 A  
DOCKED: ATOM     30  C   UNL     1     144.609  72.549 220.780 -0.43 -0.00    +0.000 A  
DOCKED: ENDBRANCH  21  25
DOCKED: ENDBRANCH  17  19
DOCKED: ENDBRANCH   1  17
DOCKED: TORSDOF 5
DOCKED: TER
DOCKED: ENDMDL
________________________________________________________________________________


    FINAL DOCKED STATE:
    ________________________


Run:   3 / 20
Time taken for this run:   0.038s

DOCKED: MODEL        3
DOCKED: USER    Run = 3
DOCKED: USER
DOCKED: USER    Estimated Free Energy of Binding    =  -8.68 kcal/mol  [=(1)+(2)+(3)-(4)]
DOCKED: USER
DOCKED: USER    (1) Final Intermolecular Energy     = -10.17 kcal/mol
DOCKED: USER        vdW + Hbond + desolv Energy     = -10.17 kcal/mol
DOCKED: USER        Electrostatic Energy            =  -0.00 kcal/mol
DOCKED: USER        Moving Ligand-Fixed Receptor    = -10.17 kcal/mol
DOCKED: USER        Moving Ligand-Moving Receptor   =  +0.00 kcal/mol
DOCKED: USER    (2) Final Total Internal Energy     =  -1.67 kcal/mol
DOCKED: USER    (3) Torsional Free Energy           =  +1.49 kcal/mol
DOCKED: USER    (4) Unbound System's Energy         =  -1.67 kcal/mol
DOCKED: USER
DOCKED: USER
DOCKED: REMARK SMILES O=C(NCC(=O)N1CCCC[C@@H]1c1ccccc1)c1ccc2cc(Cl)ccc2n1
DOCKED: REMARK SMILES IDX 4 1 3 2 2 3 1 4 19 6 20 7 29 8 21 9 28 10 22 11 27 12 23 13
DOCKED: REMARK SMILES IDX 26 14 24 15 25 16 5 17 6 18 7 19 8 20 12 21 9 22 11 23 10 24
DOCKED: REMARK SMILES IDX 13 25 14 26 18 27 15 28 17 29 16 30
DOCKED: REMARK H PARENT 3 5
DOCKED: USER                              x       y       z     vdW  Elec       q    Type
DOCKED: USER                           _______ _______ _______ _____ _____    ______ ____
DOCKED: ROOT
DOCKED: ATOM      1  C   UNL     1     139.649  75.227 221.240 -0.19 -0.05    +0.216 C  
DOCKED: ENDROOT
DOCKED: BRANCH   1   2
DOCKED: ATOM      2  N   UNL     1     139.672  74.248 222.311 -0.06 +0.04    -0.342 N  
DOCKED: ATOM      3  C   UNL     1     139.978  72.903 221.975 -0.19 -0.04    +0.270 C  
DOCKED: ATOM      4  O   UNL     1     140.229  72.515 220.804 -0.09 +0.04    -0.268 OA 
DOCKED: ATOM      5  H   UNL     1     139.476  74.484 223.312 -0.48 -0.02    +0.164 HD 
DOCKED: BRANCH   3   6
DOCKED: ATOM      6  C   UNL     1     140.003  71.906 223.062 -0.30 -0.02    +0.128 A  
DOCKED: ATOM      7  C   UNL     1     139.539  70.626 222.862 -0.24 -0.01    +0.035 A  
DOCKED: ATOM      8  N   UNL     1     140.484  72.226 224.294 -0.07 +0.03    -0.243 NA 
DOCKED: ATOM      9  C   UNL     1     139.558  69.687 223.873 -0.28 -0.00    +0.013 A  
DOCKED: ATOM     10  C   UNL     1     140.503  71.309 225.286 -0.50 -0.01    +0.071 A  
DOCKED: ATOM     11  C   UNL     1     140.043  70.023 225.101 -0.43 -0.00    +0.002 A  
DOCKED: ATOM     12  C   UNL     1     141.008  71.699 226.523 -0.69 -0.00    +0.030 A  
DOCKED: ATOM     13  C   UNL     1     140.092  69.135 226.157 -0.50 -0.01    +0.030 A  
DOCKED: ATOM     14  C   UNL     1     141.065  70.819 227.597 -0.65 -0.00    +0.023 A  
DOCKED: ATOM     15  C   UNL     1     140.597  69.533 227.387 -0.57 -0.01    +0.041 A  
DOCKED: ATOM     16  Cl  UNL     1     140.655  68.409 228.714 -0.68 +0.02    -0.084 Cl 
DOCKED: ENDBRANCH   3   6
DOCKED: ENDBRANCH   1   2
DOCKED: BRANCH   1  17
DOCKED: ATOM     17  C   UNL     1     140.696  76.267 221.429 -0.24 -0.08    +0.242 C  
DOCKED: ATOM     18  O   UNL     1     141.066  76.478 222.617 -0.33 +0.09    -0.273 OA 
DOCKED: BRANCH  17  19
DOCKED: ATOM     19  N   UNL     1     141.202  76.938 220.305 -0.09 +0.15    -0.334 N  
DOCKED: ATOM     20  C   UNL     1     141.890  76.210 219.228 -0.19 -0.05    +0.120 C  
DOCKED: ATOM     21  C   UNL     1     141.070  78.363 220.151 -0.20 -0.05    +0.115 C  
DOCKED: ATOM     22  C   UNL     1     141.538  76.832 217.893 -0.13 -0.01    +0.022 C  
DOCKED: ATOM     23  C   UNL     1     142.198  78.833 219.244 -0.22 -0.02    +0.030 C  
DOCKED: ATOM     24  C   UNL     1     141.880  78.306 217.855 -0.24 -0.00    +0.004 C  
DOCKED: BRANCH  21  25
DOCKED: ATOM     25  C   UNL     1     141.065  79.113 221.430 -0.32 +0.01    -0.025 A  
DOCKED: ATOM     26  C   UNL     1     139.914  79.528 222.066 -0.27 -0.00    +0.006 A  
DOCKED: ATOM     27  C   UNL     1     142.269  79.433 222.053 -0.48 -0.00    +0.006 A  
DOCKED: ATOM     28  C   UNL     1     139.927  80.228 223.262 -0.42 -0.00    +0.000 A  
DOCKED: ATOM     29  C   UNL     1     142.327  80.127 223.241 -0.64 -0.00    +0.000 A  
DOCKED: ATOM     30  C   UNL     1     141.157  80.531 223.857 -0.49 -0.00    +0.000 A  
DOCKED: ENDBRANCH  21  25
DOCKED: ENDBRANCH  17  19
DOCKED: ENDBRANCH   1  17
DOCKED: TORSDOF 5
DOCKED: TER
DOCKED: ENDMDL
________________________________________________________________________________


    FINAL DOCKED STATE:
    ________________________


Run:   4 / 20
Time taken for this run:   0.038s

DOCKED: MODEL        4
DOCKED: USER    Run = 4
DOCKED: USER
DOCKED: USER    Estimated Free Energy of Binding    =  -8.40 kcal/mol  [=(1)+(2)+(3)-(4)]
DOCKED: USER
DOCKED: USER    (1) Final Intermolecular Energy     =  -9.89 kcal/mol
DOCKED: USER        vdW + Hbond + desolv Energy     =  -9.91 kcal/mol
DOCKED: USER        Electrostatic Energy            =  +0.02 kcal/mol
DOCKED: USER        Moving Ligand-Fixed Receptor    =  -9.89 kcal/mol
DOCKED: USER        Moving Ligand-Moving Receptor   =  +0.00 kcal/mol
DOCKED: USER    (2) Final Total Internal Energy     =  -2.03 kcal/mol
DOCKED: USER    (3) Torsional Free Energy           =  +1.49 kcal/mol
DOCKED: USER    (4) Unbound System's Energy         =  -2.03 kcal/mol
DOCKED: USER
DOCKED: USER
DOCKED: REMARK SMILES O=C(NCC(=O)N1CCCC[C@@H]1c1ccccc1)c1ccc2cc(Cl)ccc2n1
DOCKED: REMARK SMILES IDX 4 1 3 2 2 3 1 4 19 6 20 7 29 8 21 9 28 10 22 11 27 12 23 13
DOCKED: REMARK SMILES IDX 26 14 24 15 25 16 5 17 6 18 7 19 8 20 12 21 9 22 11 23 10 24
DOCKED: REMARK SMILES IDX 13 25 14 26 18 27 15 28 17 29 16 30
DOCKED: REMARK H PARENT 3 5
DOCKED: USER                              x       y       z     vdW  Elec       q    Type
DOCKED: USER                           _______ _______ _______ _____ _____    ______ ____
DOCKED: ROOT
DOCKED: ATOM      1  C   UNL     1     139.761  74.996 220.996 -0.16 -0.05    +0.216 C  
DOCKED: ENDROOT
DOCKED: BRANCH   1   2
DOCKED: ATOM      2  N   UNL     1     139.756  74.060 222.105 -0.12 +0.04    -0.342 N  
DOCKED: ATOM      3  C   UNL     1     140.012  72.692 221.820 -0.19 -0.04    +0.270 C  
DOCKED: ATOM      4  O   UNL     1     140.242  72.251 220.665 -0.07 +0.04    -0.268 OA 
DOCKED: ATOM      5  H   UNL     1     139.574  74.341 223.097 -0.53 -0.01    +0.164 HD 
DOCKED: BRANCH   3   6
DOCKED: ATOM      6  C   UNL     1     140.008  71.738 222.946 -0.29 -0.02    +0.128 A  
DOCKED: ATOM      7  C   UNL     1     139.504  70.467 222.796 -0.23 -0.01    +0.035 A  
DOCKED: ATOM      8  N   UNL     1     140.501  72.090 224.164 -0.18 +0.03    -0.243 NA 
DOCKED: ATOM      9  C   UNL     1     139.495  69.568 223.842 -0.27 -0.00    +0.013 A  
DOCKED: ATOM     10  C   UNL     1     140.493  71.212 225.191 -0.49 -0.01    +0.071 A  
DOCKED: ATOM     11  C   UNL     1     139.993  69.935 225.056 -0.42 -0.00    +0.002 A  
DOCKED: ATOM     12  C   UNL     1     141.013  71.635 226.412 -0.68 -0.00    +0.030 A  
DOCKED: ATOM     13  C   UNL     1     140.015  69.088 226.146 -0.50 -0.01    +0.030 A  
DOCKED: ATOM     14  C   UNL     1     141.044  70.795 227.518 -0.65 -0.00    +0.023 A  
DOCKED: ATOM     15  C   UNL     1     140.535  69.518 227.359 -0.57 -0.01    +0.041 A  
DOCKED: ATOM     16  Cl  UNL     1     140.560  68.444 228.728 -0.66 +0.02    -0.084 Cl 
DOCKED: ENDBRANCH   3   6
DOCKED: ENDBRANCH   1   2
DOCKED: BRANCH   1  17
DOCKED: ATOM     17  C   UNL     1     140.936  75.908 221.059 -0.21 -0.08    +0.242 C  
DOCKED: ATOM     18  O   UNL     1     141.413  76.126 222.207 -0.26 +0.11    -0.273 OA 
DOCKED: BRANCH  17  19
DOCKED: ATOM     19  N   UNL     1     141.436  76.459 219.868 -0.08 +0.15    -0.334 N  
DOCKED: ATOM     20  C   UNL     1     140.589  77.288 218.998 -0.08 -0.05    +0.120 C  
DOCKED: ATOM     21  C   UNL     1     142.794  76.240 219.444 -0.30 -0.07    +0.115 C  
DOCKED: ATOM     22  C   UNL     1     141.421  78.404 218.401 -0.19 -0.01    +0.022 C  
DOCKED: ATOM     23  C   UNL     1     142.833  76.391 217.932 -0.25 -0.02    +0.030 C  
DOCKED: ATOM     24  C   UNL     1     142.615  77.867 217.642 -0.29 -0.00    +0.004 C  
DOCKED: BRANCH  21  25
DOCKED: ATOM     25  C   UNL     1     143.357  74.934 219.865 -0.36 +0.01    -0.025 A  
DOCKED: ATOM     26  C   UNL     1     142.703  73.732 219.696 -0.22 -0.00    +0.006 A  
DOCKED: ATOM     27  C   UNL     1     144.611  74.879 220.468 -0.39 -0.00    +0.006 A  
DOCKED: ATOM     28  C   UNL     1     143.243  72.519 220.096 -0.26 -0.00    +0.000 A  
DOCKED: ATOM     29  C   UNL     1     145.185  73.698 220.879 -0.61 -0.00    +0.000 A  
DOCKED: ATOM     30  C   UNL     1     144.507  72.506 220.697 -0.42 -0.00    +0.000 A  
DOCKED: ENDBRANCH  21  25
DOCKED: ENDBRANCH  17  19
DOCKED: ENDBRANCH   1  17
DOCKED: TORSDOF 5
DOCKED: TER
DOCKED: ENDMDL
________________________________________________________________________________


    FINAL DOCKED STATE:
    ________________________


Run:   5 / 20
Time taken for this run:   0.038s

DOCKED: MODEL        5
DOCKED: USER    Run = 5
DOCKED: USER
DOCKED: USER    Estimated Free Energy of Binding    =  -8.42 kcal/mol  [=(1)+(2)+(3)-(4)]
DOCKED: USER
DOCKED: USER    (1) Final Intermolecular Energy     =  -9.91 kcal/mol
DOCKED: USER        vdW + Hbond + desolv Energy     =  -9.93 kcal/mol
DOCKED: USER        Electrostatic Energy            =  +0.02 kcal/mol
DOCKED: USER        Moving Ligand-Fixed Receptor    =  -9.91 kcal/mol
DOCKED: USER        Moving Ligand-Moving Receptor   =  +0.00 kcal/mol
DOCKED: USER    (2) Final Total Internal Energy     =  -2.01 kcal/mol
DOCKED: USER    (3) Torsional Free Energy           =  +1.49 kcal/mol
DOCKED: USER    (4) Unbound System's Energy         =  -2.01 kcal/mol
DOCKED: USER
DOCKED: USER
DOCKED: REMARK SMILES O=C(NCC(=O)N1CCCC[C@@H]1c1ccccc1)c1ccc2cc(Cl)ccc2n1
DOCKED: REMARK SMILES IDX 4 1 3 2 2 3 1 4 19 6 20 7 29 8 21 9 28 10 22 11 27 12 23 13
DOCKED: REMARK SMILES IDX 26 14 24 15 25 16 5 17 6 18 7 19 8 20 12 21 9 22 11 23 10 24
DOCKED: REMARK SMILES IDX 13 25 14 26 18 27 15 28 17 29 16 30
DOCKED: REMARK H PARENT 3 5
DOCKED: USER                              x       y       z     vdW  Elec       q    Type
DOCKED: USER                           _______ _______ _______ _____ _____    ______ ____
DOCKED: ROOT
DOCKED: ATOM      1  C   UNL     1     139.740  74.982 221.003 -0.16 -0.05    +0.216 C  
DOCKED: ENDROOT
DOCKED: BRANCH   1   2
DOCKED: ATOM      2  N   UNL     1     139.740  74.044 222.110 -0.12 +0.04    -0.342 N  
DOCKED: ATOM      3  C   UNL     1     139.963  72.672 221.819 -0.18 -0.04    +0.270 C  
DOCKED: ATOM      4  O   UNL     1     140.160  72.228 220.658 -0.07 +0.04    -0.268 OA 
DOCKED: ATOM      5  H   UNL     1     139.584  74.327 223.107 -0.52 -0.01    +0.164 HD 
DOCKED: BRANCH   3   6
DOCKED: ATOM      6  C   UNL     1     139.963  71.717 222.943 -0.29 -0.02    +0.128 A  
DOCKED: ATOM      7  C   UNL     1     139.455  70.447 222.795 -0.22 -0.01    +0.035 A  
DOCKED: ATOM      8  N   UNL     1     140.465  72.065 224.158 -0.19 +0.03    -0.243 NA 
DOCKED: ATOM      9  C   UNL     1     139.450  69.546 223.840 -0.27 -0.00    +0.013 A  
DOCKED: ATOM     10  C   UNL     1     140.462  71.186 225.184 -0.49 -0.01    +0.071 A  
DOCKED: ATOM     11  C   UNL     1     139.957  69.911 225.051 -0.42 -0.00    +0.002 A  
DOCKED: ATOM     12  C   UNL     1     140.991  71.605 226.402 -0.67 -0.00    +0.030 A  
DOCKED: ATOM     13  C   UNL     1     139.985  69.062 226.139 -0.50 -0.00    +0.030 A  
DOCKED: ATOM     14  C   UNL     1     141.027  70.764 227.508 -0.64 -0.00    +0.023 A  
DOCKED: ATOM     15  C   UNL     1     140.514  69.488 227.350 -0.57 -0.01    +0.041 A  
DOCKED: ATOM     16  Cl  UNL     1     140.545  68.413 228.717 -0.65 +0.02    -0.084 Cl 
DOCKED: ENDBRANCH   3   6
DOCKED: ENDBRANCH   1   2
DOCKED: BRANCH   1  17
DOCKED: ATOM     17  C   UNL     1     140.879  75.936 221.098 -0.21 -0.08    +0.242 C  
DOCKED: ATOM     18  O   UNL     1     141.318  76.168 222.258 -0.28 +0.11    -0.273 OA 
DOCKED: BRANCH  17  19
DOCKED: ATOM     19  N   UNL     1     141.388  76.507 219.921 -0.08 +0.15    -0.334 N  
DOCKED: ATOM     20  C   UNL     1     140.550  77.355 219.060 -0.08 -0.05    +0.120 C  
DOCKED: ATOM     21  C   UNL     1     142.749  76.294 219.503 -0.30 -0.07    +0.115 C  
DOCKED: ATOM     22  C   UNL     1     141.388  78.480 218.491 -0.19 -0.01    +0.022 C  
DOCKED: ATOM     23  C   UNL     1     142.799  76.474 217.994 -0.26 -0.02    +0.030 C  
DOCKED: ATOM     24  C   UNL     1     142.586  77.955 217.731 -0.30 -0.00    +0.004 C  
DOCKED: BRANCH  21  25
DOCKED: ATOM     25  C   UNL     1     143.307  74.980 219.904 -0.36 +0.01    -0.025 A  
DOCKED: ATOM     26  C   UNL     1     142.627  73.788 219.761 -0.22 -0.00    +0.006 A  
DOCKED: ATOM     27  C   UNL     1     144.582  74.904 220.457 -0.37 -0.00    +0.006 A  
DOCKED: ATOM     28  C   UNL     1     143.162  72.567 220.141 -0.26 -0.00    +0.000 A  
DOCKED: ATOM     29  C   UNL     1     145.152  73.714 220.848 -0.61 -0.00    +0.000 A  
DOCKED: ATOM     30  C   UNL     1     144.448  72.534 220.693 -0.42 -0.00    +0.000 A  
DOCKED: ENDBRANCH  21  25
DOCKED: ENDBRANCH  17  19
DOCKED: ENDBRANCH   1  17
DOCKED: TORSDOF 5
DOCKED: TER
DOCKED: ENDMDL
________________________________________________________________________________


    FINAL DOCKED STATE:
    ________________________


Run:   6 / 20
Time taken for this run:   0.038s

DOCKED: MODEL        6
DOCKED: USER    Run = 6
DOCKED: USER
DOCKED: USER    Estimated Free Energy of Binding    =  -8.08 kcal/mol  [=(1)+(2)+(3)-(4)]
DOCKED: USER
DOCKED: USER    (1) Final Intermolecular Energy     =  -9.57 kcal/mol
DOCKED: USER        vdW + Hbond + desolv Energy     =  -9.53 kcal/mol
DOCKED: USER        Electrostatic Energy            =  -0.04 kcal/mol
DOCKED: USER        Moving Ligand-Fixed Receptor    =  -9.57 kcal/mol
DOCKED: USER        Moving Ligand-Moving Receptor   =  +0.00 kcal/mol
DOCKED: USER    (2) Final Total Internal Energy     =  -2.14 kcal/mol
DOCKED: USER    (3) Torsional Free Energy           =  +1.49 kcal/mol
DOCKED: USER    (4) Unbound System's Energy         =  -2.14 kcal/mol
DOCKED: USER
DOCKED: USER
DOCKED: REMARK SMILES O=C(NCC(=O)N1CCCC[C@@H]1c1ccccc1)c1ccc2cc(Cl)ccc2n1
DOCKED: REMARK SMILES IDX 4 1 3 2 2 3 1 4 19 6 20 7 29 8 21 9 28 10 22 11 27 12 23 13
DOCKED: REMARK SMILES IDX 26 14 24 15 25 16 5 17 6 18 7 19 8 20 12 21 9 22 11 23 10 24
DOCKED: REMARK SMILES IDX 13 25 14 26 18 27 15 28 17 29 16 30
DOCKED: REMARK H PARENT 3 5
DOCKED: USER                              x       y       z     vdW  Elec       q    Type
DOCKED: USER                           _______ _______ _______ _____ _____    ______ ____
DOCKED: ROOT
DOCKED: ATOM      1  C   UNL     1     135.639  69.787 224.926 -0.16 -0.01    +0.216 C  
DOCKED: ENDROOT
DOCKED: BRANCH   1   2
DOCKED: ATOM      2  N   UNL     1     135.014  71.017 225.375 -0.03 +0.02    -0.342 N  
DOCKED: ATOM      3  C   UNL     1     133.833  70.915 226.157 -0.21 -0.02    +0.270 C  
DOCKED: ATOM      4  O   UNL     1     133.302  69.821 226.480 -0.58 -0.01    -0.268 OA 
DOCKED: ATOM      5  H   UNL     1     135.388  71.970 225.151 +0.05 -0.01    +0.164 HD 
DOCKED: BRANCH   3   6
DOCKED: ATOM      6  C   UNL     1     133.196  72.164 226.614 -0.33 -0.01    +0.128 A  
DOCKED: ATOM      7  C   UNL     1     131.972  72.147 227.243 -0.38 -0.01    +0.035 A  
DOCKED: ATOM      8  N   UNL     1     133.800  73.368 226.425 -0.71 -0.02    -0.243 NA 
DOCKED: ATOM      9  C   UNL     1     131.368  73.310 227.675 -0.39 -0.00    +0.013 A  
DOCKED: ATOM     10  C   UNL     1     133.211  74.509 226.846 -0.27 +0.01    +0.071 A  
DOCKED: ATOM     11  C   UNL     1     131.987  74.509 227.479 -0.42 -0.00    +0.002 A  
DOCKED: ATOM     12  C   UNL     1     133.882  75.709 226.623 -0.40 +0.00    +0.030 A  
DOCKED: ATOM     13  C   UNL     1     131.441  75.710 227.883 -0.27 +0.00    +0.030 A  
DOCKED: ATOM     14  C   UNL     1     133.348  76.927 227.024 -0.36 -0.00    +0.023 A  
DOCKED: ATOM     15  C   UNL     1     132.117  76.901 227.656 -0.32 +0.00    +0.041 A  
DOCKED: ATOM     16  Cl  UNL     1     131.422  78.412 228.170 -0.33 -0.01    -0.084 Cl 
DOCKED: ENDBRANCH   3   6
DOCKED: ENDBRANCH   1   2
DOCKED: BRANCH   1  17
DOCKED: ATOM     17  C   UNL     1     136.816  70.060 224.056 -0.15 -0.03    +0.242 C  
DOCKED: ATOM     18  O   UNL     1     137.233  71.251 224.039 -0.16 +0.06    -0.273 OA 
DOCKED: BRANCH  17  19
DOCKED: ATOM     19  N   UNL     1     137.383  69.005 223.324 -0.08 +0.04    -0.334 N  
DOCKED: ATOM     20  C   UNL     1     136.591  68.244 222.346 -0.12 -0.02    +0.120 C  
DOCKED: ATOM     21  C   UNL     1     138.759  68.618 223.495 -0.24 -0.02    +0.115 C  
DOCKED: ATOM     22  C   UNL     1     137.464  67.884 221.162 -0.11 -0.00    +0.022 C  
DOCKED: ATOM     23  C   UNL     1     138.877  67.156 223.094 -0.18 -0.00    +0.030 C  
DOCKED: ATOM     24  C   UNL     1     138.690  67.107 221.587 -0.22 -0.00    +0.004 C  
DOCKED: BRANCH  21  25
DOCKED: ATOM     25  C   UNL     1     139.286  68.842 224.862 -0.38 +0.00    -0.025 A  
DOCKED: ATOM     26  C   UNL     1     139.246  67.890 225.860 -0.55 -0.00    +0.006 A  
DOCKED: ATOM     27  C   UNL     1     139.860  70.067 225.195 -0.43 -0.00    +0.006 A  
DOCKED: ATOM     28  C   UNL     1     139.743  68.116 227.134 -0.63 -0.00    +0.000 A  
DOCKED: ATOM     29  C   UNL     1     140.366  70.333 226.447 -0.57 -0.00    +0.000 A  
DOCKED: ATOM     30  C   UNL     1     140.313  69.360 227.429 -0.61 -0.00    +0.000 A  
DOCKED: ENDBRANCH  21  25
DOCKED: ENDBRANCH  17  19
DOCKED: ENDBRANCH   1  17
DOCKED: TORSDOF 5
DOCKED: TER
DOCKED: ENDMDL
________________________________________________________________________________


    FINAL DOCKED STATE:
    ________________________


Run:   7 / 20
Time taken for this run:   0.038s

DOCKED: MODEL        7
DOCKED: USER    Run = 7
DOCKED: USER
DOCKED: USER    Estimated Free Energy of Binding    =  -8.75 kcal/mol  [=(1)+(2)+(3)-(4)]
DOCKED: USER
DOCKED: USER    (1) Final Intermolecular Energy     = -10.24 kcal/mol
DOCKED: USER        vdW + Hbond + desolv Energy     = -10.20 kcal/mol
DOCKED: USER        Electrostatic Energy            =  -0.05 kcal/mol
DOCKED: USER        Moving Ligand-Fixed Receptor    = -10.24 kcal/mol
DOCKED: USER        Moving Ligand-Moving Receptor   =  +0.00 kcal/mol
DOCKED: USER    (2) Final Total Internal Energy     =  -1.49 kcal/mol
DOCKED: USER    (3) Torsional Free Energy           =  +1.49 kcal/mol
DOCKED: USER    (4) Unbound System's Energy         =  -1.49 kcal/mol
DOCKED: USER
DOCKED: USER
DOCKED: REMARK SMILES O=C(NCC(=O)N1CCCC[C@@H]1c1ccccc1)c1ccc2cc(Cl)ccc2n1
DOCKED: REMARK SMILES IDX 4 1 3 2 2 3 1 4 19 6 20 7 29 8 21 9 28 10 22 11 27 12 23 13
DOCKED: REMARK SMILES IDX 26 14 24 15 25 16 5 17 6 18 7 19 8 20 12 21 9 22 11 23 10 24
DOCKED: REMARK SMILES IDX 13 25 14 26 18 27 15 28 17 29 16 30
DOCKED: REMARK H PARENT 3 5
DOCKED: USER                              x       y       z     vdW  Elec       q    Type
DOCKED: USER                           _______ _______ _______ _____ _____    ______ ____
DOCKED: ROOT
DOCKED: ATOM      1  C   UNL     1     139.588  75.056 220.926 -0.15 -0.05    +0.216 C  
DOCKED: ENDROOT
DOCKED: BRANCH   1   2
DOCKED: ATOM      2  N   UNL     1     139.492  74.086 222.000 -0.15 +0.06    -0.342 N  
DOCKED: ATOM      3  C   UNL     1     140.318  72.934 221.930 -0.20 -0.03    +0.270 C  
DOCKED: ATOM      4  O   UNL     1     141.125  72.709 220.992 -0.15 +0.04    -0.268 OA 
DOCKED: ATOM      5  H   UNL     1     138.847  74.194 222.819 -0.56 -0.07    +0.164 HD 
DOCKED: BRANCH   3   6
DOCKED: ATOM      6  C   UNL     1     140.222  71.945 223.022 -0.30 -0.02    +0.128 A  
DOCKED: ATOM      7  C   UNL     1     139.654  70.710 222.812 -0.24 -0.01    +0.035 A  
DOCKED: ATOM      8  N   UNL     1     140.691  72.229 224.267 -0.04 +0.02    -0.243 NA 
DOCKED: ATOM      9  C   UNL     1     139.559  69.779 223.826 -0.28 -0.00    +0.013 A  
DOCKED: ATOM     10  C   UNL     1     140.600  71.320 225.262 -0.50 -0.01    +0.071 A  
DOCKED: ATOM     11  C   UNL     1     140.034  70.078 225.068 -0.43 -0.00    +0.002 A  
DOCKED: ATOM     12  C   UNL     1     141.099  71.673 226.513 -0.70 -0.00    +0.030 A  
DOCKED: ATOM     13  C   UNL     1     139.972  69.197 226.128 -0.49 -0.00    +0.030 A  
DOCKED: ATOM     14  C   UNL     1     141.045  70.797 227.591 -0.65 -0.00    +0.023 A  
DOCKED: ATOM     15  C   UNL     1     140.472  69.556 227.371 -0.57 -0.01    +0.041 A  
DOCKED: ATOM     16  Cl  UNL     1     140.391  68.439 228.703 -0.63 +0.02    -0.084 Cl 
DOCKED: ENDBRANCH   3   6
DOCKED: ENDBRANCH   1   2
DOCKED: BRANCH   1  17
DOCKED: ATOM     17  C   UNL     1     140.712  76.006 221.149 -0.21 -0.08    +0.242 C  
DOCKED: ATOM     18  O   UNL     1     141.153  76.083 222.329 -0.35 +0.09    -0.273 OA 
DOCKED: BRANCH  17  19
DOCKED: ATOM     19  N   UNL     1     141.207  76.744 220.062 -0.08 +0.14    -0.334 N  
DOCKED: ATOM     20  C   UNL     1     141.889  76.083 218.939 -0.16 -0.05    +0.120 C  
DOCKED: ATOM     21  C   UNL     1     141.071  78.175 219.993 -0.19 -0.05    +0.115 C  
DOCKED: ATOM     22  C   UNL     1     141.524  76.781 217.646 -0.12 -0.01    +0.022 C  
DOCKED: ATOM     23  C   UNL     1     142.190  78.701 219.107 -0.25 -0.02    +0.030 C  
DOCKED: ATOM     24  C   UNL     1     141.863  78.255 217.692 -0.23 -0.00    +0.004 C  
DOCKED: BRANCH  21  25
DOCKED: ATOM     25  C   UNL     1     141.074  78.848 221.314 -0.31 +0.01    -0.025 A  
DOCKED: ATOM     26  C   UNL     1     142.225  79.227 221.974 -0.46 -0.00    +0.006 A  
DOCKED: ATOM     27  C   UNL     1     139.870  79.129 221.955 -0.26 -0.00    +0.006 A  
DOCKED: ATOM     28  C   UNL     1     142.210  79.855 223.210 -0.63 -0.00    +0.000 A  
DOCKED: ATOM     29  C   UNL     1     139.810  79.751 223.181 -0.40 -0.00    +0.000 A  
DOCKED: ATOM     30  C   UNL     1     140.979  80.121 223.821 -0.50 -0.00    +0.000 A  
DOCKED: ENDBRANCH  21  25
DOCKED: ENDBRANCH  17  19
DOCKED: ENDBRANCH   1  17
DOCKED: TORSDOF 5
DOCKED: TER
DOCKED: ENDMDL
________________________________________________________________________________


    FINAL DOCKED STATE:
    ________________________


Run:   8 / 20
Time taken for this run:   0.038s

DOCKED: MODEL        8
DOCKED: USER    Run = 8
DOCKED: USER
DOCKED: USER    Estimated Free Energy of Binding    =  -8.41 kcal/mol  [=(1)+(2)+(3)-(4)]
DOCKED: USER
DOCKED: USER    (1) Final Intermolecular Energy     =  -9.91 kcal/mol
DOCKED: USER        vdW + Hbond + desolv Energy     =  -9.92 kcal/mol
DOCKED: USER        Electrostatic Energy            =  +0.01 kcal/mol
DOCKED: USER        Moving Ligand-Fixed Receptor    =  -9.91 kcal/mol
DOCKED: USER        Moving Ligand-Moving Receptor   =  +0.00 kcal/mol
DOCKED: USER    (2) Final Total Internal Energy     =  -2.02 kcal/mol
DOCKED: USER    (3) Torsional Free Energy           =  +1.49 kcal/mol
DOCKED: USER    (4) Unbound System's Energy         =  -2.02 kcal/mol
DOCKED: USER
DOCKED: USER
DOCKED: REMARK SMILES O=C(NCC(=O)N1CCCC[C@@H]1c1ccccc1)c1ccc2cc(Cl)ccc2n1
DOCKED: REMARK SMILES IDX 4 1 3 2 2 3 1 4 19 6 20 7 29 8 21 9 28 10 22 11 27 12 23 13
DOCKED: REMARK SMILES IDX 26 14 24 15 25 16 5 17 6 18 7 19 8 20 12 21 9 22 11 23 10 24
DOCKED: REMARK SMILES IDX 13 25 14 26 18 27 15 28 17 29 16 30
DOCKED: REMARK H PARENT 3 5
DOCKED: USER                              x       y       z     vdW  Elec       q    Type
DOCKED: USER                           _______ _______ _______ _____ _____    ______ ____
DOCKED: ROOT
DOCKED: ATOM      1  C   UNL     1     139.795  74.984 221.003 -0.17 -0.05    +0.216 C  
DOCKED: ENDROOT
DOCKED: BRANCH   1   2
DOCKED: ATOM      2  N   UNL     1     139.773  74.047 222.109 -0.12 +0.04    -0.342 N  
DOCKED: ATOM      3  C   UNL     1     140.025  72.678 221.826 -0.19 -0.04    +0.270 C  
DOCKED: ATOM      4  O   UNL     1     140.265  72.237 220.672 -0.08 +0.04    -0.268 OA 
DOCKED: ATOM      5  H   UNL     1     139.581  74.328 223.100 -0.52 -0.01    +0.164 HD 
DOCKED: BRANCH   3   6
DOCKED: ATOM      6  C   UNL     1     140.002  71.723 222.950 -0.29 -0.02    +0.128 A  
DOCKED: ATOM      7  C   UNL     1     139.461  70.466 222.802 -0.23 -0.01    +0.035 A  
DOCKED: ATOM      8  N   UNL     1     140.515  72.058 224.164 -0.19 +0.03    -0.243 NA 
DOCKED: ATOM      9  C   UNL     1     139.435  69.566 223.847 -0.27 -0.00    +0.013 A  
DOCKED: ATOM     10  C   UNL     1     140.491  71.179 225.190 -0.50 -0.01    +0.071 A  
DOCKED: ATOM     11  C   UNL     1     139.953  69.917 225.058 -0.42 -0.00    +0.002 A  
DOCKED: ATOM     12  C   UNL     1     141.032  71.584 226.407 -0.68 -0.00    +0.030 A  
DOCKED: ATOM     13  C   UNL     1     139.961  69.068 226.146 -0.50 -0.00    +0.030 A  
DOCKED: ATOM     14  C   UNL     1     141.048  70.742 227.513 -0.64 -0.00    +0.023 A  
DOCKED: ATOM     15  C   UNL     1     140.502  69.480 227.355 -0.57 -0.01    +0.041 A  
DOCKED: ATOM     16  Cl  UNL     1     140.508  68.404 228.723 -0.64 +0.02    -0.084 Cl 
DOCKED: ENDBRANCH   3   6
DOCKED: ENDBRANCH   1   2
DOCKED: BRANCH   1  17
DOCKED: ATOM     17  C   UNL     1     140.933  75.938 221.120 -0.22 -0.08    +0.242 C  
DOCKED: ATOM     18  O   UNL     1     141.376  76.137 222.284 -0.26 +0.11    -0.273 OA 
DOCKED: BRANCH  17  19
DOCKED: ATOM     19  N   UNL     1     141.435  76.546 219.958 -0.08 +0.15    -0.334 N  
DOCKED: ATOM     20  C   UNL     1     140.597  77.435 219.139 -0.09 -0.05    +0.120 C  
DOCKED: ATOM     21  C   UNL     1     142.787  76.330 219.515 -0.31 -0.07    +0.115 C  
DOCKED: ATOM     22  C   UNL     1     141.442  78.569 218.600 -0.20 -0.01    +0.022 C  
DOCKED: ATOM     23  C   UNL     1     142.821  76.564 218.013 -0.27 -0.02    +0.030 C  
DOCKED: ATOM     24  C   UNL     1     142.624  78.057 217.806 -0.30 -0.00    +0.004 C  
DOCKED: BRANCH  21  25
DOCKED: ATOM     25  C   UNL     1     143.332  74.996 219.861 -0.36 +0.01    -0.025 A  
DOCKED: ATOM     26  C   UNL     1     142.668  73.813 219.611 -0.21 -0.00    +0.006 A  
DOCKED: ATOM     27  C   UNL     1     144.579  74.890 220.472 -0.38 -0.00    +0.006 A  
DOCKED: ATOM     28  C   UNL     1     143.191  72.573 219.940 -0.24 -0.00    +0.000 A  
DOCKED: ATOM     29  C   UNL     1     145.136  73.679 220.815 -0.60 -0.00    +0.000 A  
DOCKED: ATOM     30  C   UNL     1     144.448  72.508 220.553 -0.41 -0.00    +0.000 A  
DOCKED: ENDBRANCH  21  25
DOCKED: ENDBRANCH  17  19
DOCKED: ENDBRANCH   1  17
DOCKED: TORSDOF 5
DOCKED: TER
DOCKED: ENDMDL
________________________________________________________________________________


    FINAL DOCKED STATE:
    ________________________


Run:   9 / 20
Time taken for this run:   0.038s

DOCKED: MODEL        9
DOCKED: USER    Run = 9
DOCKED: USER
DOCKED: USER    Estimated Free Energy of Binding    =  -8.40 kcal/mol  [=(1)+(2)+(3)-(4)]
DOCKED: USER
DOCKED: USER    (1) Final Intermolecular Energy     =  -9.89 kcal/mol
DOCKED: USER        vdW + Hbond + desolv Energy     =  -9.91 kcal/mol
DOCKED: USER        Electrostatic Energy            =  +0.02 kcal/mol
DOCKED: USER        Moving Ligand-Fixed Receptor    =  -9.89 kcal/mol
DOCKED: USER        Moving Ligand-Moving Receptor   =  +0.00 kcal/mol
DOCKED: USER    (2) Final Total Internal Energy     =  -2.02 kcal/mol
DOCKED: USER    (3) Torsional Free Energy           =  +1.49 kcal/mol
DOCKED: USER    (4) Unbound System's Energy         =  -2.02 kcal/mol
DOCKED: USER
DOCKED: USER
DOCKED: REMARK SMILES O=C(NCC(=O)N1CCCC[C@@H]1c1ccccc1)c1ccc2cc(Cl)ccc2n1
DOCKED: REMARK SMILES IDX 4 1 3 2 2 3 1 4 19 6 20 7 29 8 21 9 28 10 22 11 27 12 23 13
DOCKED: REMARK SMILES IDX 26 14 24 15 25 16 5 17 6 18 7 19 8 20 12 21 9 22 11 23 10 24
DOCKED: REMARK SMILES IDX 13 25 14 26 18 27 15 28 17 29 16 30
DOCKED: REMARK H PARENT 3 5
DOCKED: USER                              x       y       z     vdW  Elec       q    Type
DOCKED: USER                           _______ _______ _______ _____ _____    ______ ____
DOCKED: ROOT
DOCKED: ATOM      1  C   UNL     1     139.702  74.972 221.025 -0.16 -0.05    +0.216 C  
DOCKED: ENDROOT
DOCKED: BRANCH   1   2
DOCKED: ATOM      2  N   UNL     1     139.722  74.031 222.129 -0.12 +0.04    -0.342 N  
DOCKED: ATOM      3  C   UNL     1     139.953  72.662 221.832 -0.18 -0.04    +0.270 C  
DOCKED: ATOM      4  O   UNL     1     140.140  72.223 220.668 -0.07 +0.04    -0.268 OA 
DOCKED: ATOM      5  H   UNL     1     139.576  74.311 223.129 -0.52 -0.01    +0.164 HD 
DOCKED: BRANCH   3   6
DOCKED: ATOM      6  C   UNL     1     139.974  71.704 222.954 -0.29 -0.02    +0.128 A  
DOCKED: ATOM      7  C   UNL     1     139.492  70.425 222.803 -0.22 -0.01    +0.035 A  
DOCKED: ATOM      8  N   UNL     1     140.471  72.060 224.169 -0.19 +0.03    -0.243 NA 
DOCKED: ATOM      9  C   UNL     1     139.507  69.521 223.846 -0.26 -0.00    +0.013 A  
DOCKED: ATOM     10  C   UNL     1     140.487  71.178 225.193 -0.50 -0.01    +0.071 A  
DOCKED: ATOM     11  C   UNL     1     140.008  69.893 225.058 -0.42 -0.00    +0.002 A  
DOCKED: ATOM     12  C   UNL     1     141.009  71.605 226.411 -0.68 -0.00    +0.030 A  
DOCKED: ATOM     13  C   UNL     1     140.054  69.042 226.144 -0.50 -0.01    +0.030 A  
DOCKED: ATOM     14  C   UNL     1     141.063  70.762 227.515 -0.64 -0.00    +0.023 A  
DOCKED: ATOM     15  C   UNL     1     140.576  69.476 227.354 -0.57 -0.01    +0.041 A  
DOCKED: ATOM     16  Cl  UNL     1     140.631  68.398 228.719 -0.67 +0.02    -0.084 Cl 
DOCKED: ENDBRANCH   3   6
DOCKED: ENDBRANCH   1   2
DOCKED: BRANCH   1  17
DOCKED: ATOM     17  C   UNL     1     140.860  75.905 221.083 -0.21 -0.08    +0.242 C  
DOCKED: ATOM     18  O   UNL     1     141.321  76.153 222.231 -0.28 +0.11    -0.273 OA 
DOCKED: BRANCH  17  19
DOCKED: ATOM     19  N   UNL     1     141.363  76.442 219.887 -0.08 +0.14    -0.334 N  
DOCKED: ATOM     20  C   UNL     1     140.516  77.254 219.000 -0.08 -0.04    +0.120 C  
DOCKED: ATOM     21  C   UNL     1     142.725  76.227 219.474 -0.30 -0.07    +0.115 C  
DOCKED: ATOM     22  C   UNL     1     141.343  78.366 218.392 -0.18 -0.01    +0.022 C  
DOCKED: ATOM     23  C   UNL     1     142.772  76.357 217.960 -0.24 -0.02    +0.030 C  
DOCKED: ATOM     24  C   UNL     1     142.545  77.827 217.648 -0.29 -0.00    +0.004 C  
DOCKED: BRANCH  21  25
DOCKED: ATOM     25  C   UNL     1     143.295  74.931 219.917 -0.36 +0.01    -0.025 A  
DOCKED: ATOM     26  C   UNL     1     142.624  73.730 219.817 -0.22 -0.00    +0.006 A  
DOCKED: ATOM     27  C   UNL     1     144.572  74.885 220.469 -0.39 -0.00    +0.006 A  
DOCKED: ATOM     28  C   UNL     1     143.171  72.527 220.236 -0.27 -0.00    +0.000 A  
DOCKED: ATOM     29  C   UNL     1     145.153  73.714 220.897 -0.60 -0.00    +0.000 A  
DOCKED: ATOM     30  C   UNL     1     144.459  72.523 220.785 -0.42 -0.00    +0.000 A  
DOCKED: ENDBRANCH  21  25
DOCKED: ENDBRANCH  17  19
DOCKED: ENDBRANCH   1  17
DOCKED: TORSDOF 5
DOCKED: TER
DOCKED: ENDMDL
________________________________________________________________________________


    FINAL DOCKED STATE:
    ________________________


Run:   10 / 20
Time taken for this run:   0.038s

DOCKED: MODEL        10
DOCKED: USER    Run = 10
DOCKED: USER
DOCKED: USER    Estimated Free Energy of Binding    =  -8.75 kcal/mol  [=(1)+(2)+(3)-(4)]
DOCKED: USER
DOCKED: USER    (1) Final Intermolecular Energy     = -10.24 kcal/mol
DOCKED: USER        vdW + Hbond + desolv Energy     = -10.18 kcal/mol
DOCKED: USER        Electrostatic Energy            =  -0.06 kcal/mol
DOCKED: USER        Moving Ligand-Fixed Receptor    = -10.24 kcal/mol
DOCKED: USER        Moving Ligand-Moving Receptor   =  +0.00 kcal/mol
DOCKED: USER    (2) Final Total Internal Energy     =  -1.54 kcal/mol
DOCKED: USER    (3) Torsional Free Energy           =  +1.49 kcal/mol
DOCKED: USER    (4) Unbound System's Energy         =  -1.54 kcal/mol
DOCKED: USER
DOCKED: USER
DOCKED: REMARK SMILES O=C(NCC(=O)N1CCCC[C@@H]1c1ccccc1)c1ccc2cc(Cl)ccc2n1
DOCKED: REMARK SMILES IDX 4 1 3 2 2 3 1 4 19 6 20 7 29 8 21 9 28 10 22 11 27 12 23 13
DOCKED: REMARK SMILES IDX 26 14 24 15 25 16 5 17 6 18 7 19 8 20 12 21 9 22 11 23 10 24
DOCKED: REMARK SMILES IDX 13 25 14 26 18 27 15 28 17 29 16 30
DOCKED: REMARK H PARENT 3 5
DOCKED: USER                              x       y       z     vdW  Elec       q    Type
DOCKED: USER                           _______ _______ _______ _____ _____    ______ ____
DOCKED: ROOT
DOCKED: ATOM      1  C   UNL     1     136.047  69.269 224.440 -0.15 -0.01    +0.216 C  
DOCKED: ENDROOT
DOCKED: BRANCH   1   2
DOCKED: ATOM      2  N   UNL     1     135.389  70.479 224.895 -0.08 +0.03    -0.342 N  
DOCKED: ATOM      3  C   UNL     1     134.399  70.357 225.906 -0.18 -0.02    +0.270 C  
DOCKED: ATOM      4  O   UNL     1     134.063  69.261 226.425 -0.72 -0.00    -0.268 OA 
DOCKED: ATOM      5  H   UNL     1     135.607  71.432 224.517 +0.05 -0.02    +0.164 HD 
DOCKED: BRANCH   3   6
DOCKED: ATOM      6  C   UNL     1     133.728  71.586 226.370 -0.31 -0.01    +0.128 A  
DOCKED: ATOM      7  C   UNL     1     132.594  71.526 227.147 -0.34 -0.00    +0.035 A  
DOCKED: ATOM      8  N   UNL     1     134.212  72.814 226.042 -0.33 -0.01    -0.243 NA 
DOCKED: ATOM      9  C   UNL     1     131.960  72.669 227.586 -0.39 -0.00    +0.013 A  
DOCKED: ATOM     10  C   UNL     1     133.593  73.937 226.470 -0.26 +0.01    +0.071 A  
DOCKED: ATOM     11  C   UNL     1     132.457  73.893 227.249 -0.42 -0.00    +0.002 A  
DOCKED: ATOM     12  C   UNL     1     134.139  75.163 226.099 -0.39 +0.00    +0.030 A  
DOCKED: ATOM     13  C   UNL     1     131.875  75.077 227.652 -0.38 -0.00    +0.030 A  
DOCKED: ATOM     14  C   UNL     1     133.566  76.365 226.497 -0.36 -0.00    +0.023 A  
DOCKED: ATOM     15  C   UNL     1     132.426  76.294 227.278 -0.34 -0.00    +0.041 A  
DOCKED: ATOM     16  Cl  UNL     1     131.685  77.784 227.791 -0.35 -0.00    -0.084 Cl 
DOCKED: ENDBRANCH   3   6
DOCKED: ENDBRANCH   1   2
DOCKED: BRANCH   1  17
DOCKED: ATOM     17  C   UNL     1     137.488  69.259 224.815 -0.19 -0.02    +0.242 C  
DOCKED: ATOM     18  O   UNL     1     137.828  68.429 225.701 -0.14 -0.00    -0.273 OA 
DOCKED: BRANCH  17  19
DOCKED: ATOM     19  N   UNL     1     138.364  70.150 224.175 -0.12 +0.05    -0.334 N  
DOCKED: ATOM     20  C   UNL     1     138.212  70.480 222.750 -0.16 -0.02    +0.120 C  
DOCKED: ATOM     21  C   UNL     1     139.449  70.782 224.881 -0.36 -0.02    +0.115 C  
DOCKED: ATOM     22  C   UNL     1     138.555  71.939 222.531 -0.20 -0.01    +0.022 C  
DOCKED: ATOM     23  C   UNL     1     140.518  71.134 223.858 -0.34 -0.00    +0.030 C  
DOCKED: ATOM     24  C   UNL     1     139.951  72.264 223.015 -0.31 -0.00    +0.004 C  
DOCKED: BRANCH  21  25
DOCKED: ATOM     25  C   UNL     1     140.011  69.966 225.983 -0.48 +0.00    -0.025 A  
DOCKED: ATOM     26  C   UNL     1     140.623  68.745 225.792 -0.47 -0.00    +0.006 A  
DOCKED: ATOM     27  C   UNL     1     139.937  70.424 227.296 -0.56 -0.00    +0.006 A  
DOCKED: ATOM     28  C   UNL     1     141.143  67.993 226.834 -0.65 -0.00    +0.000 A  
DOCKED: ATOM     29  C   UNL     1     140.441  69.711 228.360 -0.59 -0.00    +0.000 A  
DOCKED: ATOM     30  C   UNL     1     141.050  68.489 228.140 -0.66 -0.00    +0.000 A  
DOCKED: ENDBRANCH  21  25
DOCKED: ENDBRANCH  17  19
DOCKED: ENDBRANCH   1  17
DOCKED: TORSDOF 5
DOCKED: TER
DOCKED: ENDMDL
________________________________________________________________________________


    FINAL DOCKED STATE:
    ________________________


Run:   11 / 20
Time taken for this run:   0.038s

DOCKED: MODEL        11
DOCKED: USER    Run = 11
DOCKED: USER
DOCKED: USER    Estimated Free Energy of Binding    =  -8.35 kcal/mol  [=(1)+(2)+(3)-(4)]
DOCKED: USER
DOCKED: USER    (1) Final Intermolecular Energy     =  -9.84 kcal/mol
DOCKED: USER        vdW + Hbond + desolv Energy     =  -9.86 kcal/mol
DOCKED: USER        Electrostatic Energy            =  +0.02 kcal/mol
DOCKED: USER        Moving Ligand-Fixed Receptor    =  -9.84 kcal/mol
DOCKED: USER        Moving Ligand-Moving Receptor   =  +0.00 kcal/mol
DOCKED: USER    (2) Final Total Internal Energy     =  -2.06 kcal/mol
DOCKED: USER    (3) Torsional Free Energy           =  +1.49 kcal/mol
DOCKED: USER    (4) Unbound System's Energy         =  -2.06 kcal/mol
DOCKED: USER
DOCKED: USER
DOCKED: REMARK SMILES O=C(NCC(=O)N1CCCC[C@@H]1c1ccccc1)c1ccc2cc(Cl)ccc2n1
DOCKED: REMARK SMILES IDX 4 1 3 2 2 3 1 4 19 6 20 7 29 8 21 9 28 10 22 11 27 12 23 13
DOCKED: REMARK SMILES IDX 26 14 24 15 25 16 5 17 6 18 7 19 8 20 12 21 9 22 11 23 10 24
DOCKED: REMARK SMILES IDX 13 25 14 26 18 27 15 28 17 29 16 30
DOCKED: REMARK H PARENT 3 5
DOCKED: USER                              x       y       z     vdW  Elec       q    Type
DOCKED: USER                           _______ _______ _______ _____ _____    ______ ____
DOCKED: ROOT
DOCKED: ATOM      1  C   UNL     1     139.736  74.985 220.986 -0.16 -0.05    +0.216 C  
DOCKED: ENDROOT
DOCKED: BRANCH   1   2
DOCKED: ATOM      2  N   UNL     1     139.745  74.044 222.090 -0.12 +0.04    -0.342 N  
DOCKED: ATOM      3  C   UNL     1     139.981  72.676 221.794 -0.18 -0.04    +0.270 C  
DOCKED: ATOM      4  O   UNL     1     140.183  72.237 220.633 -0.07 +0.04    -0.268 OA 
DOCKED: ATOM      5  H   UNL     1     139.585  74.323 223.087 -0.52 -0.01    +0.164 HD 
DOCKED: BRANCH   3   6
DOCKED: ATOM      6  C   UNL     1     139.990  71.717 222.916 -0.29 -0.02    +0.128 A  
DOCKED: ATOM      7  C   UNL     1     139.503  70.440 222.761 -0.22 -0.01    +0.035 A  
DOCKED: ATOM      8  N   UNL     1     140.479  72.070 224.135 -0.19 +0.03    -0.243 NA 
DOCKED: ATOM      9  C   UNL     1     139.506  69.536 223.803 -0.26 -0.00    +0.013 A  
DOCKED: ATOM     10  C   UNL     1     140.484  71.188 225.158 -0.49 -0.01    +0.071 A  
DOCKED: ATOM     11  C   UNL     1     140.000  69.905 225.019 -0.42 -0.00    +0.002 A  
DOCKED: ATOM     12  C   UNL     1     140.999  71.612 226.381 -0.67 -0.00    +0.030 A  
DOCKED: ATOM     13  C   UNL     1     140.035  69.054 226.105 -0.50 -0.01    +0.030 A  
DOCKED: ATOM     14  C   UNL     1     141.042  70.768 227.484 -0.64 -0.00    +0.023 A  
DOCKED: ATOM     15  C   UNL     1     140.550  69.485 227.319 -0.57 -0.01    +0.041 A  
DOCKED: ATOM     16  Cl  UNL     1     140.590  68.406 228.684 -0.67 +0.02    -0.084 Cl 
DOCKED: ENDBRANCH   3   6
DOCKED: ENDBRANCH   1   2
DOCKED: BRANCH   1  17
DOCKED: ATOM     17  C   UNL     1     140.893  75.920 221.058 -0.21 -0.08    +0.242 C  
DOCKED: ATOM     18  O   UNL     1     141.349  76.156 222.210 -0.27 +0.11    -0.273 OA 
DOCKED: BRANCH  17  19
DOCKED: ATOM     19  N   UNL     1     141.398  76.472 219.870 -0.08 +0.14    -0.334 N  
DOCKED: ATOM     20  C   UNL     1     140.562  77.320 219.007 -0.08 -0.05    +0.120 C  
DOCKED: ATOM     21  C   UNL     1     142.753  76.238 219.443 -0.30 -0.07    +0.115 C  
DOCKED: ATOM     22  C   UNL     1     141.408  78.428 218.417 -0.19 -0.01    +0.022 C  
DOCKED: ATOM     23  C   UNL     1     142.791  76.400 217.931 -0.25 -0.02    +0.030 C  
DOCKED: ATOM     24  C   UNL     1     142.593  77.880 217.652 -0.29 -0.00    +0.004 C  
DOCKED: BRANCH  21  25
DOCKED: ATOM     25  C   UNL     1     143.298  74.922 219.853 -0.35 +0.01    -0.025 A  
DOCKED: ATOM     26  C   UNL     1     142.633  73.729 219.665 -0.21 -0.00    +0.006 A  
DOCKED: ATOM     27  C   UNL     1     144.546  74.847 220.466 -0.40 -0.00    +0.006 A  
DOCKED: ATOM     28  C   UNL     1     143.157  72.506 220.055 -0.25 -0.00    +0.000 A  
DOCKED: ATOM     29  C   UNL     1     145.104  73.655 220.869 -0.59 -0.00    +0.000 A  
DOCKED: ATOM     30  C   UNL     1     144.416  72.473 220.667 -0.40 -0.00    +0.000 A  
DOCKED: ENDBRANCH  21  25
DOCKED: ENDBRANCH  17  19
DOCKED: ENDBRANCH   1  17
DOCKED: TORSDOF 5
DOCKED: TER
DOCKED: ENDMDL
________________________________________________________________________________


    FINAL DOCKED STATE:
    ________________________


Run:   12 / 20
Time taken for this run:   0.038s

DOCKED: MODEL        12
DOCKED: USER    Run = 12
DOCKED: USER
DOCKED: USER    Estimated Free Energy of Binding    =  -8.37 kcal/mol  [=(1)+(2)+(3)-(4)]
DOCKED: USER
DOCKED: USER    (1) Final Intermolecular Energy     =  -9.86 kcal/mol
DOCKED: USER        vdW + Hbond + desolv Energy     =  -9.87 kcal/mol
DOCKED: USER        Electrostatic Energy            =  +0.01 kcal/mol
DOCKED: USER        Moving Ligand-Fixed Receptor    =  -9.86 kcal/mol
DOCKED: USER        Moving Ligand-Moving Receptor   =  +0.00 kcal/mol
DOCKED: USER    (2) Final Total Internal Energy     =  -2.00 kcal/mol
DOCKED: USER    (3) Torsional Free Energy           =  +1.49 kcal/mol
DOCKED: USER    (4) Unbound System's Energy         =  -2.00 kcal/mol
DOCKED: USER
DOCKED: USER
DOCKED: REMARK SMILES O=C(NCC(=O)N1CCCC[C@@H]1c1ccccc1)c1ccc2cc(Cl)ccc2n1
DOCKED: REMARK SMILES IDX 4 1 3 2 2 3 1 4 19 6 20 7 29 8 21 9 28 10 22 11 27 12 23 13
DOCKED: REMARK SMILES IDX 26 14 24 15 25 16 5 17 6 18 7 19 8 20 12 21 9 22 11 23 10 24
DOCKED: REMARK SMILES IDX 13 25 14 26 18 27 15 28 17 29 16 30
DOCKED: REMARK H PARENT 3 5
DOCKED: USER                              x       y       z     vdW  Elec       q    Type
DOCKED: USER                           _______ _______ _______ _____ _____    ______ ____
DOCKED: ROOT
DOCKED: ATOM      1  C   UNL     1     139.755  74.952 220.970 -0.16 -0.05    +0.216 C  
DOCKED: ENDROOT
DOCKED: BRANCH   1   2
DOCKED: ATOM      2  N   UNL     1     139.746  74.024 222.085 -0.13 +0.04    -0.342 N  
DOCKED: ATOM      3  C   UNL     1     139.961  72.649 221.806 -0.18 -0.04    +0.270 C  
DOCKED: ATOM      4  O   UNL     1     140.158  72.194 220.650 -0.07 +0.04    -0.268 OA 
DOCKED: ATOM      5  H   UNL     1     139.589  74.317 223.079 -0.51 -0.01    +0.164 HD 
DOCKED: BRANCH   3   6
DOCKED: ATOM      6  C   UNL     1     139.952  71.703 222.939 -0.29 -0.02    +0.128 A  
DOCKED: ATOM      7  C   UNL     1     139.399  70.449 222.812 -0.22 -0.01    +0.035 A  
DOCKED: ATOM      8  N   UNL     1     140.488  72.045 224.141 -0.20 +0.03    -0.243 NA 
DOCKED: ATOM      9  C   UNL     1     139.386  69.558 223.864 -0.28 -0.00    +0.013 A  
DOCKED: ATOM     10  C   UNL     1     140.477  71.175 225.174 -0.49 -0.01    +0.071 A  
DOCKED: ATOM     11  C   UNL     1     139.928  69.915 225.063 -0.42 -0.00    +0.002 A  
DOCKED: ATOM     12  C   UNL     1     141.042  71.586 226.378 -0.68 -0.00    +0.030 A  
DOCKED: ATOM     13  C   UNL     1     139.949  69.075 226.158 -0.50 -0.00    +0.030 A  
DOCKED: ATOM     14  C   UNL     1     141.073  70.753 227.490 -0.64 -0.00    +0.023 A  
DOCKED: ATOM     15  C   UNL     1     140.515  69.494 227.354 -0.57 -0.01    +0.041 A  
DOCKED: ATOM     16  Cl  UNL     1     140.538  68.429 228.730 -0.64 +0.02    -0.084 Cl 
DOCKED: ENDBRANCH   3   6
DOCKED: ENDBRANCH   1   2
DOCKED: BRANCH   1  17
DOCKED: ATOM     17  C   UNL     1     140.840  75.962 221.112 -0.21 -0.08    +0.242 C  
DOCKED: ATOM     18  O   UNL     1     141.238  76.194 222.286 -0.30 +0.10    -0.273 OA 
DOCKED: BRANCH  17  19
DOCKED: ATOM     19  N   UNL     1     141.346  76.583 219.959 -0.08 +0.15    -0.334 N  
DOCKED: ATOM     20  C   UNL     1     140.506  77.466 219.136 -0.09 -0.05    +0.120 C  
DOCKED: ATOM     21  C   UNL     1     142.707  76.389 219.530 -0.30 -0.07    +0.115 C  
DOCKED: ATOM     22  C   UNL     1     141.342  78.615 218.613 -0.19 -0.01    +0.022 C  
DOCKED: ATOM     23  C   UNL     1     142.754  76.632 218.029 -0.27 -0.02    +0.030 C  
DOCKED: ATOM     24  C   UNL     1     142.539  78.123 217.829 -0.30 -0.00    +0.004 C  
DOCKED: BRANCH  21  25
DOCKED: ATOM     25  C   UNL     1     143.266  75.060 219.874 -0.36 +0.01    -0.025 A  
DOCKED: ATOM     26  C   UNL     1     144.500  74.881 220.463 -0.39 -0.00    +0.006 A  
DOCKED: ATOM     27  C   UNL     1     142.535  73.906 219.603 -0.20 -0.00    +0.006 A  
DOCKED: ATOM     28  C   UNL     1     145.009  73.631 220.778 -0.58 -0.00    +0.000 A  
DOCKED: ATOM     29  C   UNL     1     143.001  72.645 219.899 -0.22 -0.00    +0.000 A  
DOCKED: ATOM     30  C   UNL     1     144.243  72.495 220.490 -0.39 -0.00    +0.000 A  
DOCKED: ENDBRANCH  21  25
DOCKED: ENDBRANCH  17  19
DOCKED: ENDBRANCH   1  17
DOCKED: TORSDOF 5
DOCKED: TER
DOCKED: ENDMDL
________________________________________________________________________________


    FINAL DOCKED STATE:
    ________________________


Run:   13 / 20
Time taken for this run:   0.038s

DOCKED: MODEL        13
DOCKED: USER    Run = 13
DOCKED: USER
DOCKED: USER    Estimated Free Energy of Binding    =  -7.85 kcal/mol  [=(1)+(2)+(3)-(4)]
DOCKED: USER
DOCKED: USER    (1) Final Intermolecular Energy     =  -9.34 kcal/mol
DOCKED: USER        vdW + Hbond + desolv Energy     =  -9.40 kcal/mol
DOCKED: USER        Electrostatic Energy            =  +0.06 kcal/mol
DOCKED: USER        Moving Ligand-Fixed Receptor    =  -9.34 kcal/mol
DOCKED: USER        Moving Ligand-Moving Receptor   =  +0.00 kcal/mol
DOCKED: USER    (2) Final Total Internal Energy     =  -2.08 kcal/mol
DOCKED: USER    (3) Torsional Free Energy           =  +1.49 kcal/mol
DOCKED: USER    (4) Unbound System's Energy         =  -2.08 kcal/mol
DOCKED: USER
DOCKED: USER
DOCKED: REMARK SMILES O=C(NCC(=O)N1CCCC[C@@H]1c1ccccc1)c1ccc2cc(Cl)ccc2n1
DOCKED: REMARK SMILES IDX 4 1 3 2 2 3 1 4 19 6 20 7 29 8 21 9 28 10 22 11 27 12 23 13
DOCKED: REMARK SMILES IDX 26 14 24 15 25 16 5 17 6 18 7 19 8 20 12 21 9 22 11 23 10 24
DOCKED: REMARK SMILES IDX 13 25 14 26 18 27 15 28 17 29 16 30
DOCKED: REMARK H PARENT 3 5
DOCKED: USER                              x       y       z     vdW  Elec       q    Type
DOCKED: USER                           _______ _______ _______ _____ _____    ______ ____
DOCKED: ROOT
DOCKED: ATOM      1  C   UNL     1     141.278  74.996 220.429 -0.17 -0.06    +0.216 C  
DOCKED: ENDROOT
DOCKED: BRANCH   1   2
DOCKED: ATOM      2  N   UNL     1     141.061  74.120 221.564 -0.16 +0.04    -0.342 N  
DOCKED: ATOM      3  C   UNL     1     140.252  72.969 221.370 -0.16 -0.04    +0.270 C  
DOCKED: ATOM      4  O   UNL     1     139.717  72.670 220.272 -0.04 +0.05    -0.268 OA 
DOCKED: ATOM      5  H   UNL     1     141.468  74.293 222.514 +0.09 +0.03    +0.164 HD 
DOCKED: BRANCH   3   6
DOCKED: ATOM      6  C   UNL     1     140.030  72.076 222.524 -0.27 -0.02    +0.128 A  
DOCKED: ATOM      7  C   UNL     1     139.138  71.031 222.450 -0.21 -0.01    +0.035 A  
DOCKED: ATOM      8  N   UNL     1     140.700  72.263 223.692 -0.21 +0.01    -0.243 NA 
DOCKED: ATOM      9  C   UNL     1     138.924  70.191 223.523 -0.27 -0.00    +0.013 A  
DOCKED: ATOM     10  C   UNL     1     140.492  71.442 224.745 -0.45 -0.01    +0.071 A  
DOCKED: ATOM     11  C   UNL     1     139.603  70.390 224.688 -0.41 -0.00    +0.002 A  
DOCKED: ATOM     12  C   UNL     1     141.210  71.687 225.913 -0.56 -0.00    +0.030 A  
DOCKED: ATOM     13  C   UNL     1     139.438  69.590 225.800 -0.43 -0.00    +0.030 A  
DOCKED: ATOM     14  C   UNL     1     141.057  70.891 227.042 -0.65 -0.00    +0.023 A  
DOCKED: ATOM     15  C   UNL     1     140.158  69.842 226.959 -0.53 -0.01    +0.041 A  
DOCKED: ATOM     16  Cl  UNL     1     139.944  68.828 228.358 -0.72 +0.01    -0.084 Cl 
DOCKED: ENDBRANCH   3   6
DOCKED: ENDBRANCH   1   2
DOCKED: BRANCH   1  17
DOCKED: ATOM     17  C   UNL     1     140.725  76.356 220.677 -0.16 -0.08    +0.242 C  
DOCKED: ATOM     18  O   UNL     1     141.406  77.324 220.240 -0.15 +0.14    -0.273 OA 
DOCKED: BRANCH  17  19
DOCKED: ATOM     19  N   UNL     1     139.508  76.481 221.366 -0.10 +0.08    -0.334 N  
DOCKED: ATOM     20  C   UNL     1     138.286  75.822 220.882 -0.11 -0.03    +0.120 C  
DOCKED: ATOM     21  C   UNL     1     139.399  77.256 222.575 -0.23 -0.02    +0.115 C  
DOCKED: ATOM     22  C   UNL     1     137.474  75.334 222.063 -0.21 -0.01    +0.022 C  
DOCKED: ATOM     23  C   UNL     1     137.952  77.707 222.701 -0.25 -0.01    +0.030 C  
DOCKED: ATOM     24  C   UNL     1     137.140  76.462 223.015 -0.25 -0.00    +0.004 C  
DOCKED: BRANCH  21  25
DOCKED: ATOM     25  C   UNL     1     140.326  78.411 222.639 -0.39 +0.01    -0.025 A  
DOCKED: ATOM     26  C   UNL     1     140.095  79.611 221.998 -0.27 -0.00    +0.006 A  
DOCKED: ATOM     27  C   UNL     1     141.503  78.318 223.377 -0.54 -0.00    +0.006 A  
DOCKED: ATOM     28  C   UNL     1     140.973  80.681 222.069 -0.39 -0.00    +0.000 A  
DOCKED: ATOM     29  C   UNL     1     142.402  79.356 223.474 -0.59 -0.00    +0.000 A  
DOCKED: ATOM     30  C   UNL     1     142.146  80.548 222.822 -0.60 -0.00    +0.000 A  
DOCKED: ENDBRANCH  21  25
DOCKED: ENDBRANCH  17  19
DOCKED: ENDBRANCH   1  17
DOCKED: TORSDOF 5
DOCKED: TER
DOCKED: ENDMDL
________________________________________________________________________________


    FINAL DOCKED STATE:
    ________________________


Run:   14 / 20
Time taken for this run:   0.038s

DOCKED: MODEL        14
DOCKED: USER    Run = 14
DOCKED: USER
DOCKED: USER    Estimated Free Energy of Binding    =  -8.42 kcal/mol  [=(1)+(2)+(3)-(4)]
DOCKED: USER
DOCKED: USER    (1) Final Intermolecular Energy     =  -9.92 kcal/mol
DOCKED: USER        vdW + Hbond + desolv Energy     =  -9.93 kcal/mol
DOCKED: USER        Electrostatic Energy            =  +0.02 kcal/mol
DOCKED: USER        Moving Ligand-Fixed Receptor    =  -9.92 kcal/mol
DOCKED: USER        Moving Ligand-Moving Receptor   =  +0.00 kcal/mol
DOCKED: USER    (2) Final Total Internal Energy     =  -2.00 kcal/mol
DOCKED: USER    (3) Torsional Free Energy           =  +1.49 kcal/mol
DOCKED: USER    (4) Unbound System's Energy         =  -2.00 kcal/mol
DOCKED: USER
DOCKED: USER
DOCKED: REMARK SMILES O=C(NCC(=O)N1CCCC[C@@H]1c1ccccc1)c1ccc2cc(Cl)ccc2n1
DOCKED: REMARK SMILES IDX 4 1 3 2 2 3 1 4 19 6 20 7 29 8 21 9 28 10 22 11 27 12 23 13
DOCKED: REMARK SMILES IDX 26 14 24 15 25 16 5 17 6 18 7 19 8 20 12 21 9 22 11 23 10 24
DOCKED: REMARK SMILES IDX 13 25 14 26 18 27 15 28 17 29 16 30
DOCKED: REMARK H PARENT 3 5
DOCKED: USER                              x       y       z     vdW  Elec       q    Type
DOCKED: USER                           _______ _______ _______ _____ _____    ______ ____
DOCKED: ROOT
DOCKED: ATOM      1  C   UNL     1     139.813  75.007 220.988 -0.17 -0.05    +0.216 C  
DOCKED: ENDROOT
DOCKED: BRANCH   1   2
DOCKED: ATOM      2  N   UNL     1     139.787  74.074 222.098 -0.12 +0.04    -0.342 N  
DOCKED: ATOM      3  C   UNL     1     140.059  72.708 221.823 -0.19 -0.04    +0.270 C  
DOCKED: ATOM      4  O   UNL     1     140.321  72.265 220.675 -0.08 +0.04    -0.268 OA 
DOCKED: ATOM      5  H   UNL     1     139.577  74.357 223.085 -0.52 -0.01    +0.164 HD 
DOCKED: BRANCH   3   6
DOCKED: ATOM      6  C   UNL     1     140.032  71.757 222.951 -0.29 -0.02    +0.128 A  
DOCKED: ATOM      7  C   UNL     1     139.484  70.502 222.808 -0.23 -0.01    +0.035 A  
DOCKED: ATOM      8  N   UNL     1     140.546  72.094 224.164 -0.17 +0.03    -0.243 NA 
DOCKED: ATOM      9  C   UNL     1     139.454  69.606 223.856 -0.28 -0.00    +0.013 A  
DOCKED: ATOM     10  C   UNL     1     140.518  71.219 225.193 -0.50 -0.01    +0.071 A  
DOCKED: ATOM     11  C   UNL     1     139.974  69.959 225.066 -0.42 -0.00    +0.002 A  
DOCKED: ATOM     12  C   UNL     1     141.062  71.626 226.409 -0.68 -0.00    +0.030 A  
DOCKED: ATOM     13  C   UNL     1     139.978  69.114 226.157 -0.50 -0.00    +0.030 A  
DOCKED: ATOM     14  C   UNL     1     141.074  70.787 227.517 -0.65 -0.00    +0.023 A  
DOCKED: ATOM     15  C   UNL     1     140.522  69.528 227.365 -0.57 -0.01    +0.041 A  
DOCKED: ATOM     16  Cl  UNL     1     140.522  68.456 228.736 -0.64 +0.02    -0.084 Cl 
DOCKED: ENDBRANCH   3   6
DOCKED: ENDBRANCH   1   2
DOCKED: BRANCH   1  17
DOCKED: ATOM     17  C   UNL     1     140.970  75.940 221.088 -0.22 -0.08    +0.242 C  
DOCKED: ATOM     18  O   UNL     1     141.429  76.136 222.247 -0.25 +0.11    -0.273 OA 
DOCKED: BRANCH  17  19
DOCKED: ATOM     19  N   UNL     1     141.471  76.533 219.918 -0.09 +0.15    -0.334 N  
DOCKED: ATOM     20  C   UNL     1     140.628  77.399 219.081 -0.09 -0.05    +0.120 C  
DOCKED: ATOM     21  C   UNL     1     142.828  76.323 219.485 -0.31 -0.07    +0.115 C  
DOCKED: ATOM     22  C   UNL     1     141.465  78.532 218.526 -0.20 -0.01    +0.022 C  
DOCKED: ATOM     23  C   UNL     1     142.865  76.531 217.979 -0.27 -0.02    +0.030 C  
DOCKED: ATOM     24  C   UNL     1     142.655  78.018 217.746 -0.29 -0.00    +0.004 C  
DOCKED: BRANCH  21  25
DOCKED: ATOM     25  C   UNL     1     143.384  74.999 219.856 -0.37 +0.01    -0.025 A  
DOCKED: ATOM     26  C   UNL     1     142.730  73.807 219.628 -0.22 -0.00    +0.006 A  
DOCKED: ATOM     27  C   UNL     1     144.632  74.916 220.469 -0.36 -0.00    +0.006 A  
DOCKED: ATOM     28  C   UNL     1     143.264  72.577 219.981 -0.25 -0.00    +0.000 A  
DOCKED: ATOM     29  C   UNL     1     145.199  73.717 220.835 -0.62 -0.00    +0.000 A  
DOCKED: ATOM     30  C   UNL     1     144.521  72.535 220.595 -0.42 -0.00    +0.000 A  
DOCKED: ENDBRANCH  21  25
DOCKED: ENDBRANCH  17  19
DOCKED: ENDBRANCH   1  17
DOCKED: TORSDOF 5
DOCKED: TER
DOCKED: ENDMDL
________________________________________________________________________________


    FINAL DOCKED STATE:
    ________________________


Run:   15 / 20
Time taken for this run:   0.038s

DOCKED: MODEL        15
DOCKED: USER    Run = 15
DOCKED: USER
DOCKED: USER    Estimated Free Energy of Binding    =  -8.42 kcal/mol  [=(1)+(2)+(3)-(4)]
DOCKED: USER
DOCKED: USER    (1) Final Intermolecular Energy     =  -9.91 kcal/mol
DOCKED: USER        vdW + Hbond + desolv Energy     =  -9.92 kcal/mol
DOCKED: USER        Electrostatic Energy            =  +0.01 kcal/mol
DOCKED: USER        Moving Ligand-Fixed Receptor    =  -9.91 kcal/mol
DOCKED: USER        Moving Ligand-Moving Receptor   =  +0.00 kcal/mol
DOCKED: USER    (2) Final Total Internal Energy     =  -2.00 kcal/mol
DOCKED: USER    (3) Torsional Free Energy           =  +1.49 kcal/mol
DOCKED: USER    (4) Unbound System's Energy         =  -2.00 kcal/mol
DOCKED: USER
DOCKED: USER
DOCKED: REMARK SMILES O=C(NCC(=O)N1CCCC[C@@H]1c1ccccc1)c1ccc2cc(Cl)ccc2n1
DOCKED: REMARK SMILES IDX 4 1 3 2 2 3 1 4 19 6 20 7 29 8 21 9 28 10 22 11 27 12 23 13
DOCKED: REMARK SMILES IDX 26 14 24 15 25 16 5 17 6 18 7 19 8 20 12 21 9 22 11 23 10 24
DOCKED: REMARK SMILES IDX 13 25 14 26 18 27 15 28 17 29 16 30
DOCKED: REMARK H PARENT 3 5
DOCKED: USER                              x       y       z     vdW  Elec       q    Type
DOCKED: USER                           _______ _______ _______ _____ _____    ______ ____
DOCKED: ROOT
DOCKED: ATOM      1  C   UNL     1     139.769  74.929 221.003 -0.16 -0.05    +0.216 C  
DOCKED: ENDROOT
DOCKED: BRANCH   1   2
DOCKED: ATOM      2  N   UNL     1     139.757  73.990 222.109 -0.12 +0.04    -0.342 N  
DOCKED: ATOM      3  C   UNL     1     140.029  72.626 221.825 -0.19 -0.04    +0.270 C  
DOCKED: ATOM      4  O   UNL     1     140.278  72.189 220.672 -0.08 +0.04    -0.268 OA 
DOCKED: ATOM      5  H   UNL     1     139.559  74.268 223.100 -0.53 -0.01    +0.164 HD 
DOCKED: BRANCH   3   6
DOCKED: ATOM      6  C   UNL     1     140.017  71.669 222.949 -0.29 -0.02    +0.128 A  
DOCKED: ATOM      7  C   UNL     1     139.511  70.399 222.794 -0.22 -0.01    +0.035 A  
DOCKED: ATOM      8  N   UNL     1     140.505  72.017 224.170 -0.21 +0.03    -0.243 NA 
DOCKED: ATOM      9  C   UNL     1     139.495  69.498 223.838 -0.26 -0.00    +0.013 A  
DOCKED: ATOM     10  C   UNL     1     140.491  71.137 225.195 -0.50 -0.01    +0.071 A  
DOCKED: ATOM     11  C   UNL     1     139.988  69.861 225.055 -0.42 -0.00    +0.002 A  
DOCKED: ATOM     12  C   UNL     1     141.005  71.556 226.419 -0.68 -0.00    +0.030 A  
DOCKED: ATOM     13  C   UNL     1     140.004  69.012 226.143 -0.50 -0.01    +0.030 A  
DOCKED: ATOM     14  C   UNL     1     141.029  70.714 227.524 -0.64 -0.00    +0.023 A  
DOCKED: ATOM     15  C   UNL     1     140.519  69.438 227.359 -0.57 -0.01    +0.041 A  
DOCKED: ATOM     16  Cl  UNL     1     140.535  68.361 228.727 -0.62 +0.02    -0.084 Cl 
DOCKED: ENDBRANCH   3   6
DOCKED: ENDBRANCH   1   2
DOCKED: BRANCH   1  17
DOCKED: ATOM     17  C   UNL     1     140.906  75.884 221.112 -0.22 -0.08    +0.242 C  
DOCKED: ATOM     18  O   UNL     1     141.353  76.091 222.273 -0.28 +0.10    -0.273 OA 
DOCKED: BRANCH  17  19
DOCKED: ATOM     19  N   UNL     1     141.405  76.485 219.945 -0.08 +0.15    -0.334 N  
DOCKED: ATOM     20  C   UNL     1     140.557  77.345 219.107 -0.09 -0.05    +0.120 C  
DOCKED: ATOM     21  C   UNL     1     142.765  76.289 219.516 -0.30 -0.07    +0.115 C  
DOCKED: ATOM     22  C   UNL     1     141.384  78.488 218.558 -0.19 -0.01    +0.022 C  
DOCKED: ATOM     23  C   UNL     1     142.806  76.502 218.010 -0.26 -0.02    +0.030 C  
DOCKED: ATOM     24  C   UNL     1     142.582  77.987 217.780 -0.30 -0.00    +0.004 C  
DOCKED: BRANCH  21  25
DOCKED: ATOM     25  C   UNL     1     143.334  74.971 219.884 -0.36 +0.01    -0.025 A  
DOCKED: ATOM     26  C   UNL     1     142.681  73.774 219.674 -0.22 -0.00    +0.006 A  
DOCKED: ATOM     27  C   UNL     1     144.592  74.896 220.478 -0.37 -0.00    +0.006 A  
DOCKED: ATOM     28  C   UNL     1     143.227  72.549 220.025 -0.25 -0.00    +0.000 A  
DOCKED: ATOM     29  C   UNL     1     145.170  73.702 220.842 -0.61 -0.00    +0.000 A  
DOCKED: ATOM     30  C   UNL     1     144.494  72.516 220.619 -0.42 -0.00    +0.000 A  
DOCKED: ENDBRANCH  21  25
DOCKED: ENDBRANCH  17  19
DOCKED: ENDBRANCH   1  17
DOCKED: TORSDOF 5
DOCKED: TER
DOCKED: ENDMDL
________________________________________________________________________________


    FINAL DOCKED STATE:
    ________________________


Run:   16 / 20
Time taken for this run:   0.038s

DOCKED: MODEL        16
DOCKED: USER    Run = 16
DOCKED: USER
DOCKED: USER    Estimated Free Energy of Binding    =  -8.20 kcal/mol  [=(1)+(2)+(3)-(4)]
DOCKED: USER
DOCKED: USER    (1) Final Intermolecular Energy     =  -9.69 kcal/mol
DOCKED: USER        vdW + Hbond + desolv Energy     =  -9.65 kcal/mol
DOCKED: USER        Electrostatic Energy            =  -0.04 kcal/mol
DOCKED: USER        Moving Ligand-Fixed Receptor    =  -9.69 kcal/mol
DOCKED: USER        Moving Ligand-Moving Receptor   =  +0.00 kcal/mol
DOCKED: USER    (2) Final Total Internal Energy     =  -1.77 kcal/mol
DOCKED: USER    (3) Torsional Free Energy           =  +1.49 kcal/mol
DOCKED: USER    (4) Unbound System's Energy         =  -1.77 kcal/mol
DOCKED: USER
DOCKED: USER
DOCKED: REMARK SMILES O=C(NCC(=O)N1CCCC[C@@H]1c1ccccc1)c1ccc2cc(Cl)ccc2n1
DOCKED: REMARK SMILES IDX 4 1 3 2 2 3 1 4 19 6 20 7 29 8 21 9 28 10 22 11 27 12 23 13
DOCKED: REMARK SMILES IDX 26 14 24 15 25 16 5 17 6 18 7 19 8 20 12 21 9 22 11 23 10 24
DOCKED: REMARK SMILES IDX 13 25 14 26 18 27 15 28 17 29 16 30
DOCKED: REMARK H PARENT 3 5
DOCKED: USER                              x       y       z     vdW  Elec       q    Type
DOCKED: USER                           _______ _______ _______ _____ _____    ______ ____
DOCKED: ROOT
DOCKED: ATOM      1  C   UNL     1     140.463  73.367 219.472 -0.04 -0.04    +0.216 C  
DOCKED: ENDROOT
DOCKED: BRANCH   1   2
DOCKED: ATOM      2  N   UNL     1     140.405  72.409 220.560 -0.04 +0.06    -0.342 N  
DOCKED: ATOM      3  C   UNL     1     140.239  72.909 221.878 -0.20 -0.03    +0.270 C  
DOCKED: ATOM      4  O   UNL     1     140.141  74.133 222.153 -0.83 +0.01    -0.268 OA 
DOCKED: ATOM      5  H   UNL     1     140.478  71.373 220.421 +0.04 -0.03    +0.164 HD 
DOCKED: BRANCH   3   6
DOCKED: ATOM      6  C   UNL     1     140.180  71.936 222.985 -0.30 -0.02    +0.128 A  
DOCKED: ATOM      7  C   UNL     1     139.642  70.683 222.800 -0.24 -0.01    +0.035 A  
DOCKED: ATOM      8  N   UNL     1     140.654  72.250 224.221 -0.05 +0.02    -0.243 NA 
DOCKED: ATOM      9  C   UNL     1     139.583  69.765 223.829 -0.28 -0.00    +0.013 A  
DOCKED: ATOM     10  C   UNL     1     140.597  71.355 225.231 -0.50 -0.01    +0.071 A  
DOCKED: ATOM     11  C   UNL     1     140.063  70.096 225.061 -0.44 -0.00    +0.002 A  
DOCKED: ATOM     12  C   UNL     1     141.100  71.739 226.471 -0.69 -0.00    +0.030 A  
DOCKED: ATOM     13  C   UNL     1     140.035  69.229 226.135 -0.49 -0.00    +0.030 A  
DOCKED: ATOM     14  C   UNL     1     141.080  70.879 227.562 -0.66 -0.00    +0.023 A  
DOCKED: ATOM     15  C   UNL     1     140.538  69.621 227.367 -0.56 -0.01    +0.041 A  
DOCKED: ATOM     16  Cl  UNL     1     140.500  68.523 228.717 -0.69 +0.02    -0.084 Cl 
DOCKED: ENDBRANCH   3   6
DOCKED: ENDBRANCH   1   2
DOCKED: BRANCH   1  17
DOCKED: ATOM     17  C   UNL     1     141.731  73.241 218.702 -0.02 -0.05    +0.242 C  
DOCKED: ATOM     18  O   UNL     1     141.619  73.190 217.447 -0.00 +0.06    -0.273 OA 
DOCKED: BRANCH  17  19
DOCKED: ATOM     19  N   UNL     1     142.948  73.187 219.399 -0.04 +0.06    -0.334 N  
DOCKED: ATOM     20  C   UNL     1     143.404  71.947 220.045 -0.20 -0.01    +0.120 C  
DOCKED: ATOM     21  C   UNL     1     143.806  74.338 219.513 -0.29 -0.04    +0.115 C  
DOCKED: ATOM     22  C   UNL     1     144.907  71.830 219.907 -0.30 +0.00    +0.022 C  
DOCKED: ATOM     23  C   UNL     1     144.643  74.164 220.772 -0.41 -0.01    +0.030 C  
DOCKED: ATOM     24  C   UNL     1     145.618  73.034 220.486 -0.60 -0.00    +0.004 C  
DOCKED: BRANCH  21  25
DOCKED: ATOM     25  C   UNL     1     143.084  75.633 219.527 -0.35 +0.01    -0.025 A  
DOCKED: ATOM     26  C   UNL     1     142.162  75.981 220.492 -0.24 -0.00    +0.006 A  
DOCKED: ATOM     27  C   UNL     1     143.323  76.573 218.528 -0.34 -0.00    +0.006 A  
DOCKED: ATOM     28  C   UNL     1     141.495  77.197 220.489 -0.29 -0.00    +0.000 A  
DOCKED: ATOM     29  C   UNL     1     142.684  77.791 218.488 -0.33 -0.00    +0.000 A  
DOCKED: ATOM     30  C   UNL     1     141.764  78.115 219.468 -0.27 -0.00    +0.000 A  
DOCKED: ENDBRANCH  21  25
DOCKED: ENDBRANCH  17  19
DOCKED: ENDBRANCH   1  17
DOCKED: TORSDOF 5
DOCKED: TER
DOCKED: ENDMDL
________________________________________________________________________________


    FINAL DOCKED STATE:
    ________________________


Run:   17 / 20
Time taken for this run:   0.038s

DOCKED: MODEL        17
DOCKED: USER    Run = 17
DOCKED: USER
DOCKED: USER    Estimated Free Energy of Binding    =  -8.73 kcal/mol  [=(1)+(2)+(3)-(4)]
DOCKED: USER
DOCKED: USER    (1) Final Intermolecular Energy     = -10.22 kcal/mol
DOCKED: USER        vdW + Hbond + desolv Energy     = -10.19 kcal/mol
DOCKED: USER        Electrostatic Energy            =  -0.03 kcal/mol
DOCKED: USER        Moving Ligand-Fixed Receptor    = -10.22 kcal/mol
DOCKED: USER        Moving Ligand-Moving Receptor   =  +0.00 kcal/mol
DOCKED: USER    (2) Final Total Internal Energy     =  -1.62 kcal/mol
DOCKED: USER    (3) Torsional Free Energy           =  +1.49 kcal/mol
DOCKED: USER    (4) Unbound System's Energy         =  -1.62 kcal/mol
DOCKED: USER
DOCKED: USER
DOCKED: REMARK SMILES O=C(NCC(=O)N1CCCC[C@@H]1c1ccccc1)c1ccc2cc(Cl)ccc2n1
DOCKED: REMARK SMILES IDX 4 1 3 2 2 3 1 4 19 6 20 7 29 8 21 9 28 10 22 11 27 12 23 13
DOCKED: REMARK SMILES IDX 26 14 24 15 25 16 5 17 6 18 7 19 8 20 12 21 9 22 11 23 10 24
DOCKED: REMARK SMILES IDX 13 25 14 26 18 27 15 28 17 29 16 30
DOCKED: REMARK H PARENT 3 5
DOCKED: USER                              x       y       z     vdW  Elec       q    Type
DOCKED: USER                           _______ _______ _______ _____ _____    ______ ____
DOCKED: ROOT
DOCKED: ATOM      1  C   UNL     1     139.578  75.243 221.264 -0.19 -0.05    +0.216 C  
DOCKED: ENDROOT
DOCKED: BRANCH   1   2
DOCKED: ATOM      2  N   UNL     1     139.588  74.257 222.328 -0.09 +0.05    -0.342 N  
DOCKED: ATOM      3  C   UNL     1     140.004  72.938 222.008 -0.19 -0.04    +0.270 C  
DOCKED: ATOM      4  O   UNL     1     140.361  72.579 220.857 -0.10 +0.04    -0.268 OA 
DOCKED: ATOM      5  H   UNL     1     139.306  74.470 223.315 -0.50 -0.05    +0.164 HD 
DOCKED: BRANCH   3   6
DOCKED: ATOM      6  C   UNL     1     140.014  71.934 223.089 -0.30 -0.02    +0.128 A  
DOCKED: ATOM      7  C   UNL     1     139.538  70.660 222.880 -0.25 -0.01    +0.035 A  
DOCKED: ATOM      8  N   UNL     1     140.495  72.240 224.324 -0.05 +0.03    -0.243 NA 
DOCKED: ATOM      9  C   UNL     1     139.544  69.715 223.884 -0.28 -0.00    +0.013 A  
DOCKED: ATOM     10  C   UNL     1     140.502  71.317 225.311 -0.50 -0.01    +0.071 A  
DOCKED: ATOM     11  C   UNL     1     140.029  70.037 225.116 -0.43 -0.00    +0.002 A  
DOCKED: ATOM     12  C   UNL     1     141.007  71.694 226.552 -0.69 -0.00    +0.030 A  
DOCKED: ATOM     13  C   UNL     1     140.065  69.142 226.166 -0.50 -0.01    +0.030 A  
DOCKED: ATOM     14  C   UNL     1     141.052  70.806 227.620 -0.65 -0.00    +0.023 A  
DOCKED: ATOM     15  C   UNL     1     140.571  69.527 227.400 -0.57 -0.01    +0.041 A  
DOCKED: ATOM     16  Cl  UNL     1     140.613  68.393 228.720 -0.66 +0.02    -0.084 Cl 
DOCKED: ENDBRANCH   3   6
DOCKED: ENDBRANCH   1   2
DOCKED: BRANCH   1  17
DOCKED: ATOM     17  C   UNL     1     140.661  76.249 221.442 -0.24 -0.08    +0.242 C  
DOCKED: ATOM     18  O   UNL     1     141.055  76.441 222.625 -0.33 +0.09    -0.273 OA 
DOCKED: BRANCH  17  19
DOCKED: ATOM     19  N   UNL     1     141.171  76.909 220.313 -0.09 +0.15    -0.334 N  
DOCKED: ATOM     20  C   UNL     1     141.855  76.169 219.241 -0.18 -0.05    +0.120 C  
DOCKED: ATOM     21  C   UNL     1     141.048  78.334 220.149 -0.19 -0.05    +0.115 C  
DOCKED: ATOM     22  C   UNL     1     141.506  76.785 217.902 -0.12 -0.01    +0.022 C  
DOCKED: ATOM     23  C   UNL     1     142.179  78.790 219.240 -0.22 -0.02    +0.030 C  
DOCKED: ATOM     24  C   UNL     1     141.858  78.255 217.854 -0.23 -0.00    +0.004 C  
DOCKED: BRANCH  21  25
DOCKED: ATOM     25  C   UNL     1     141.048  79.092 221.424 -0.32 +0.01    -0.025 A  
DOCKED: ATOM     26  C   UNL     1     139.899  79.485 222.077 -0.27 -0.00    +0.006 A  
DOCKED: ATOM     27  C   UNL     1     142.255  79.444 222.024 -0.48 -0.00    +0.006 A  
DOCKED: ATOM     28  C   UNL     1     139.916  80.194 223.268 -0.42 -0.00    +0.000 A  
DOCKED: ATOM     29  C   UNL     1     142.318  80.146 223.206 -0.64 -0.00    +0.000 A  
DOCKED: ATOM     30  C   UNL     1     141.150  80.528 223.840 -0.50 -0.00    +0.000 A  
DOCKED: ENDBRANCH  21  25
DOCKED: ENDBRANCH  17  19
DOCKED: ENDBRANCH   1  17
DOCKED: TORSDOF 5
DOCKED: TER
DOCKED: ENDMDL
________________________________________________________________________________


    FINAL DOCKED STATE:
    ________________________


Run:   18 / 20
Time taken for this run:   0.038s

DOCKED: MODEL        18
DOCKED: USER    Run = 18
DOCKED: USER
DOCKED: USER    Estimated Free Energy of Binding    =  -8.63 kcal/mol  [=(1)+(2)+(3)-(4)]
DOCKED: USER
DOCKED: USER    (1) Final Intermolecular Energy     = -10.12 kcal/mol
DOCKED: USER        vdW + Hbond + desolv Energy     = -10.13 kcal/mol
DOCKED: USER        Electrostatic Energy            =  +0.01 kcal/mol
DOCKED: USER        Moving Ligand-Fixed Receptor    = -10.12 kcal/mol
DOCKED: USER        Moving Ligand-Moving Receptor   =  +0.00 kcal/mol
DOCKED: USER    (2) Final Total Internal Energy     =  -1.70 kcal/mol
DOCKED: USER    (3) Torsional Free Energy           =  +1.49 kcal/mol
DOCKED: USER    (4) Unbound System's Energy         =  -1.70 kcal/mol
DOCKED: USER
DOCKED: USER
DOCKED: REMARK SMILES O=C(NCC(=O)N1CCCC[C@@H]1c1ccccc1)c1ccc2cc(Cl)ccc2n1
DOCKED: REMARK SMILES IDX 4 1 3 2 2 3 1 4 19 6 20 7 29 8 21 9 28 10 22 11 27 12 23 13
DOCKED: REMARK SMILES IDX 26 14 24 15 25 16 5 17 6 18 7 19 8 20 12 21 9 22 11 23 10 24
DOCKED: REMARK SMILES IDX 13 25 14 26 18 27 15 28 17 29 16 30
DOCKED: REMARK H PARENT 3 5
DOCKED: USER                              x       y       z     vdW  Elec       q    Type
DOCKED: USER                           _______ _______ _______ _____ _____    ______ ____
DOCKED: ROOT
DOCKED: ATOM      1  C   UNL     1     139.651  75.201 221.223 -0.19 -0.05    +0.216 C  
DOCKED: ENDROOT
DOCKED: BRANCH   1   2
DOCKED: ATOM      2  N   UNL     1     139.694  74.227 222.298 -0.06 +0.04    -0.342 N  
DOCKED: ATOM      3  C   UNL     1     139.926  72.869 221.955 -0.19 -0.04    +0.270 C  
DOCKED: ATOM      4  O   UNL     1     140.096  72.466 220.776 -0.08 +0.05    -0.268 OA 
DOCKED: ATOM      5  H   UNL     1     139.563  74.476 223.307 -0.47 -0.01    +0.164 HD 
DOCKED: BRANCH   3   6
DOCKED: ATOM      6  C   UNL     1     139.971  71.878 223.047 -0.30 -0.02    +0.128 A  
DOCKED: ATOM      7  C   UNL     1     139.527  70.590 222.855 -0.24 -0.01    +0.035 A  
DOCKED: ATOM      8  N   UNL     1     140.452  72.210 224.275 -0.10 +0.03    -0.243 NA 
DOCKED: ATOM      9  C   UNL     1     139.564  69.656 223.869 -0.28 -0.00    +0.013 A  
DOCKED: ATOM     10  C   UNL     1     140.490  71.298 225.272 -0.50 -0.01    +0.071 A  
DOCKED: ATOM     11  C   UNL     1     140.049  70.004 225.094 -0.43 -0.00    +0.002 A  
DOCKED: ATOM     12  C   UNL     1     140.994  71.702 226.505 -0.69 -0.00    +0.030 A  
DOCKED: ATOM     13  C   UNL     1     140.116  69.122 226.154 -0.50 -0.01    +0.030 A  
DOCKED: ATOM     14  C   UNL     1     141.069  70.827 227.582 -0.65 -0.00    +0.023 A  
DOCKED: ATOM     15  C   UNL     1     140.620  69.534 227.380 -0.57 -0.01    +0.041 A  
DOCKED: ATOM     16  Cl  UNL     1     140.701  68.416 228.711 -0.70 +0.02    -0.084 Cl 
DOCKED: ENDBRANCH   3   6
DOCKED: ENDBRANCH   1   2
DOCKED: BRANCH   1  17
DOCKED: ATOM     17  C   UNL     1     140.688  76.254 221.399 -0.24 -0.08    +0.242 C  
DOCKED: ATOM     18  O   UNL     1     141.061  76.477 222.583 -0.33 +0.09    -0.273 OA 
DOCKED: BRANCH  17  19
DOCKED: ATOM     19  N   UNL     1     141.181  76.921 220.266 -0.09 +0.15    -0.334 N  
DOCKED: ATOM     20  C   UNL     1     141.832  76.186 219.171 -0.18 -0.05    +0.120 C  
DOCKED: ATOM     21  C   UNL     1     141.072  78.349 220.122 -0.20 -0.05    +0.115 C  
DOCKED: ATOM     22  C   UNL     1     141.461  76.821 217.847 -0.12 -0.01    +0.022 C  
DOCKED: ATOM     23  C   UNL     1     142.187  78.803 219.193 -0.23 -0.02    +0.030 C  
DOCKED: ATOM     24  C   UNL     1     141.830  78.288 217.809 -0.23 -0.00    +0.004 C  
DOCKED: BRANCH  21  25
DOCKED: ATOM     25  C   UNL     1     141.109  79.092 221.404 -0.32 +0.01    -0.025 A  
DOCKED: ATOM     26  C   UNL     1     142.276  79.416 222.064 -0.48 -0.00    +0.006 A  
DOCKED: ATOM     27  C   UNL     1     139.921  79.502 222.005 -0.26 -0.00    +0.006 A  
DOCKED: ATOM     28  C   UNL     1     142.293  80.110 223.264 -0.64 -0.00    +0.000 A  
DOCKED: ATOM     29  C   UNL     1     139.892  80.194 223.195 -0.41 -0.00    +0.000 A  
DOCKED: ATOM     30  C   UNL     1     141.078  80.505 223.835 -0.49 -0.00    +0.000 A  
DOCKED: ENDBRANCH  21  25
DOCKED: ENDBRANCH  17  19
DOCKED: ENDBRANCH   1  17
DOCKED: TORSDOF 5
DOCKED: TER
DOCKED: ENDMDL
________________________________________________________________________________


    FINAL DOCKED STATE:
    ________________________


Run:   19 / 20
Time taken for this run:   0.038s

DOCKED: MODEL        19
DOCKED: USER    Run = 19
DOCKED: USER
DOCKED: USER    Estimated Free Energy of Binding    =  -8.39 kcal/mol  [=(1)+(2)+(3)-(4)]
DOCKED: USER
DOCKED: USER    (1) Final Intermolecular Energy     =  -9.88 kcal/mol
DOCKED: USER        vdW + Hbond + desolv Energy     =  -9.89 kcal/mol
DOCKED: USER        Electrostatic Energy            =  +0.01 kcal/mol
DOCKED: USER        Moving Ligand-Fixed Receptor    =  -9.88 kcal/mol
DOCKED: USER        Moving Ligand-Moving Receptor   =  +0.00 kcal/mol
DOCKED: USER    (2) Final Total Internal Energy     =  -2.05 kcal/mol
DOCKED: USER    (3) Torsional Free Energy           =  +1.49 kcal/mol
DOCKED: USER    (4) Unbound System's Energy         =  -2.05 kcal/mol
DOCKED: USER
DOCKED: USER
DOCKED: REMARK SMILES O=C(NCC(=O)N1CCCC[C@@H]1c1ccccc1)c1ccc2cc(Cl)ccc2n1
DOCKED: REMARK SMILES IDX 4 1 3 2 2 3 1 4 19 6 20 7 29 8 21 9 28 10 22 11 27 12 23 13
DOCKED: REMARK SMILES IDX 26 14 24 15 25 16 5 17 6 18 7 19 8 20 12 21 9 22 11 23 10 24
DOCKED: REMARK SMILES IDX 13 25 14 26 18 27 15 28 17 29 16 30
DOCKED: REMARK H PARENT 3 5
DOCKED: USER                              x       y       z     vdW  Elec       q    Type
DOCKED: USER                           _______ _______ _______ _____ _____    ______ ____
DOCKED: ROOT
DOCKED: ATOM      1  C   UNL     1     139.705  74.916 220.991 -0.16 -0.05    +0.216 C  
DOCKED: ENDROOT
DOCKED: BRANCH   1   2
DOCKED: ATOM      2  N   UNL     1     139.722  73.982 222.101 -0.13 +0.05    -0.342 N  
DOCKED: ATOM      3  C   UNL     1     139.929  72.607 221.809 -0.18 -0.04    +0.270 C  
DOCKED: ATOM      4  O   UNL     1     140.098  72.159 220.646 -0.07 +0.04    -0.268 OA 
DOCKED: ATOM      5  H   UNL     1     139.590  74.269 223.100 -0.52 -0.01    +0.164 HD 
DOCKED: BRANCH   3   6
DOCKED: ATOM      6  C   UNL     1     139.948  71.655 222.936 -0.28 -0.02    +0.128 A  
DOCKED: ATOM      7  C   UNL     1     139.458  70.377 222.793 -0.22 -0.01    +0.035 A  
DOCKED: ATOM      8  N   UNL     1     140.448  72.015 224.149 -0.22 +0.03    -0.243 NA 
DOCKED: ATOM      9  C   UNL     1     139.471  69.480 223.840 -0.26 -0.00    +0.013 A  
DOCKED: ATOM     10  C   UNL     1     140.461  71.139 225.177 -0.49 -0.01    +0.071 A  
DOCKED: ATOM     11  C   UNL     1     139.976  69.856 225.049 -0.42 -0.00    +0.002 A  
DOCKED: ATOM     12  C   UNL     1     140.987  71.570 226.392 -0.67 -0.00    +0.030 A  
DOCKED: ATOM     13  C   UNL     1     140.019  69.011 226.140 -0.50 -0.01    +0.030 A  
DOCKED: ATOM     14  C   UNL     1     141.039  70.732 227.500 -0.64 -0.00    +0.023 A  
DOCKED: ATOM     15  C   UNL     1     140.545  69.448 227.347 -0.57 -0.01    +0.041 A  
DOCKED: ATOM     16  Cl  UNL     1     140.597  68.378 228.718 -0.65 +0.02    -0.084 Cl 
DOCKED: ENDBRANCH   3   6
DOCKED: ENDBRANCH   1   2
DOCKED: BRANCH   1  17
DOCKED: ATOM     17  C   UNL     1     140.778  75.940 221.124 -0.21 -0.08    +0.242 C  
DOCKED: ATOM     18  O   UNL     1     141.161  76.197 222.298 -0.33 +0.09    -0.273 OA 
DOCKED: BRANCH  17  19
DOCKED: ATOM     19  N   UNL     1     141.290  76.544 219.965 -0.08 +0.14    -0.334 N  
DOCKED: ATOM     20  C   UNL     1     140.459  77.428 219.135 -0.08 -0.04    +0.120 C  
DOCKED: ATOM     21  C   UNL     1     142.648  76.329 219.537 -0.30 -0.07    +0.115 C  
DOCKED: ATOM     22  C   UNL     1     141.307  78.562 218.600 -0.19 -0.01    +0.022 C  
DOCKED: ATOM     23  C   UNL     1     142.696  76.558 218.034 -0.26 -0.02    +0.030 C  
DOCKED: ATOM     24  C   UNL     1     142.498  78.049 217.819 -0.30 -0.00    +0.004 C  
DOCKED: BRANCH  21  25
DOCKED: ATOM     25  C   UNL     1     143.192  74.997 219.893 -0.35 +0.01    -0.025 A  
DOCKED: ATOM     26  C   UNL     1     142.508  73.816 219.692 -0.21 -0.00    +0.006 A  
DOCKED: ATOM     27  C   UNL     1     144.458  74.892 220.463 -0.39 -0.00    +0.006 A  
DOCKED: ATOM     28  C   UNL     1     143.031  72.578 220.031 -0.24 -0.00    +0.000 A  
DOCKED: ATOM     29  C   UNL     1     145.016  73.684 220.814 -0.58 -0.00    +0.000 A  
DOCKED: ATOM     30  C   UNL     1     144.308  72.515 220.601 -0.40 -0.00    +0.000 A  
DOCKED: ENDBRANCH  21  25
DOCKED: ENDBRANCH  17  19
DOCKED: ENDBRANCH   1  17
DOCKED: TORSDOF 5
DOCKED: TER
DOCKED: ENDMDL
________________________________________________________________________________


    FINAL DOCKED STATE:
    ________________________


Run:   20 / 20
Time taken for this run:   0.038s

DOCKED: MODEL        20
DOCKED: USER    Run = 20
DOCKED: USER
DOCKED: USER    Estimated Free Energy of Binding    =  -8.47 kcal/mol  [=(1)+(2)+(3)-(4)]
DOCKED: USER
DOCKED: USER    (1) Final Intermolecular Energy     =  -9.96 kcal/mol
DOCKED: USER        vdW + Hbond + desolv Energy     =  -9.97 kcal/mol
DOCKED: USER        Electrostatic Energy            =  +0.00 kcal/mol
DOCKED: USER        Moving Ligand-Fixed Receptor    =  -9.96 kcal/mol
DOCKED: USER        Moving Ligand-Moving Receptor   =  +0.00 kcal/mol
DOCKED: USER    (2) Final Total Internal Energy     =  -1.96 kcal/mol
DOCKED: USER    (3) Torsional Free Energy           =  +1.49 kcal/mol
DOCKED: USER    (4) Unbound System's Energy         =  -1.96 kcal/mol
DOCKED: USER
DOCKED: USER
DOCKED: REMARK SMILES O=C(NCC(=O)N1CCCC[C@@H]1c1ccccc1)c1ccc2cc(Cl)ccc2n1
DOCKED: REMARK SMILES IDX 4 1 3 2 2 3 1 4 19 6 20 7 29 8 21 9 28 10 22 11 27 12 23 13
DOCKED: REMARK SMILES IDX 26 14 24 15 25 16 5 17 6 18 7 19 8 20 12 21 9 22 11 23 10 24
DOCKED: REMARK SMILES IDX 13 25 14 26 18 27 15 28 17 29 16 30
DOCKED: REMARK H PARENT 3 5
DOCKED: USER                              x       y       z     vdW  Elec       q    Type
DOCKED: USER                           _______ _______ _______ _____ _____    ______ ____
DOCKED: ROOT
DOCKED: ATOM      1  C   UNL     1     139.728  74.855 220.993 -0.16 -0.05    +0.216 C  
DOCKED: ENDROOT
DOCKED: BRANCH   1   2
DOCKED: ATOM      2  N   UNL     1     139.719  73.920 222.102 -0.13 +0.05    -0.342 N  
DOCKED: ATOM      3  C   UNL     1     139.941  72.547 221.816 -0.18 -0.04    +0.270 C  
DOCKED: ATOM      4  O   UNL     1     140.144  72.100 220.657 -0.07 +0.04    -0.268 OA 
DOCKED: ATOM      5  H   UNL     1     139.557  74.206 223.097 -0.53 -0.01    +0.164 HD 
DOCKED: BRANCH   3   6
DOCKED: ATOM      6  C   UNL     1     139.932  71.595 222.942 -0.28 -0.02    +0.128 A  
DOCKED: ATOM      7  C   UNL     1     139.403  70.333 222.800 -0.22 -0.01    +0.035 A  
DOCKED: ATOM      8  N   UNL     1     140.446  71.938 224.154 -0.25 +0.03    -0.243 NA 
DOCKED: ATOM      9  C   UNL     1     139.390  69.435 223.847 -0.27 -0.00    +0.013 A  
DOCKED: ATOM     10  C   UNL     1     140.435  71.062 225.182 -0.49 -0.01    +0.071 A  
DOCKED: ATOM     11  C   UNL     1     139.909  69.794 225.055 -0.41 -0.00    +0.002 A  
DOCKED: ATOM     12  C   UNL     1     140.977  71.475 226.396 -0.67 -0.00    +0.030 A  
DOCKED: ATOM     13  C   UNL     1     139.929  68.948 226.145 -0.50 -0.00    +0.030 A  
DOCKED: ATOM     14  C   UNL     1     141.006  70.636 227.503 -0.63 -0.00    +0.023 A  
DOCKED: ATOM     15  C   UNL     1     140.472  69.368 227.351 -0.57 -0.01    +0.041 A  
DOCKED: ATOM     16  Cl  UNL     1     140.493  68.296 228.722 -0.58 +0.02    -0.084 Cl 
DOCKED: ENDBRANCH   3   6
DOCKED: ENDBRANCH   1   2
DOCKED: BRANCH   1  17
DOCKED: ATOM     17  C   UNL     1     140.826  75.851 221.129 -0.22 -0.08    +0.242 C  
DOCKED: ATOM     18  O   UNL     1     141.219  76.092 222.303 -0.33 +0.09    -0.273 OA 
DOCKED: BRANCH  17  19
DOCKED: ATOM     19  N   UNL     1     141.350  76.449 219.972 -0.08 +0.14    -0.334 N  
DOCKED: ATOM     20  C   UNL     1     140.515  77.295 219.106 -0.08 -0.04    +0.120 C  
DOCKED: ATOM     21  C   UNL     1     142.723  76.266 219.581 -0.30 -0.07    +0.115 C  
DOCKED: ATOM     22  C   UNL     1     141.345  78.443 218.572 -0.19 -0.01    +0.022 C  
DOCKED: ATOM     23  C   UNL     1     142.802  76.470 218.075 -0.26 -0.02    +0.030 C  
DOCKED: ATOM     24  C   UNL     1     142.568  77.951 217.830 -0.30 -0.00    +0.004 C  
DOCKED: BRANCH  21  25
DOCKED: ATOM     25  C   UNL     1     143.295  74.956 219.973 -0.36 +0.01    -0.025 A  
DOCKED: ATOM     26  C   UNL     1     142.610  73.763 219.870 -0.23 -0.00    +0.006 A  
DOCKED: ATOM     27  C   UNL     1     144.591  74.886 220.478 -0.37 -0.00    +0.006 A  
DOCKED: ATOM     28  C   UNL     1     143.160  72.546 220.242 -0.27 -0.00    +0.000 A  
DOCKED: ATOM     29  C   UNL     1     145.175  73.699 220.859 -0.61 -0.00    +0.000 A  
DOCKED: ATOM     30  C   UNL     1     144.466  72.518 220.745 -0.41 -0.00    +0.000 A  
DOCKED: ENDBRANCH  21  25
DOCKED: ENDBRANCH  17  19
DOCKED: ENDBRANCH   1  17
DOCKED: TORSDOF 5
DOCKED: TER
DOCKED: ENDMDL
________________________________________________________________________________


    CLUSTERING HISTOGRAM
    ____________________


________________________________________________________________________________
     |           |     |           |     |
Clus | Lowest    | Run | Mean      | Num | Histogram
-ter | Binding   |     | Binding   | in  |
Rank | Energy    |     | Energy    | Clus|    5    10   15   20   25   30   35
_____|___________|_____|___________|_____|____:____|____:____|____:____|____:___
   1 |     -8.75 |   7 |     -8.53 |   5 |#####
   2 |     -8.75 |  10 |     -8.42 |   2 |##
   3 |     -8.47 |  20 |     -8.39 |  12 |############
   4 |     -8.20 |  16 |     -8.20 |   1 |#
_____|___________|_____|___________|_____|______________________________________


    RMSD TABLE
    __________


_______________________________________________________________________
     |      |      |           |         |                 |
Rank | Sub- | Run  | Binding   | Cluster | Reference       | Grep
     | Rank |      | Energy    | RMSD    | RMSD            | Pattern
_____|______|______|___________|_________|_________________|___________
   1      1      7       -8.75      0.00    270.51           RANKING
   1      2     17       -8.73      0.33    270.63           RANKING
   1      3      3       -8.68      0.36    270.63           RANKING
   1      4     18       -8.63      0.37    270.60           RANKING
   1      5     13       -7.85      1.60    270.47           RANKING
   2      1     10       -8.75      0.00    270.16           RANKING
   2      2      6       -8.08      1.60    269.54           RANKING
   3      1     20       -8.47      0.00    270.04           RANKING
   3      2      2       -8.47      0.13    270.07           RANKING
   3      3     14       -8.42      0.18    270.08           RANKING
   3      4     15       -8.42      0.11    270.06           RANKING
   3      5      5       -8.42      0.11    270.05           RANKING
   3      6      8       -8.41      0.15    270.07           RANKING
   3      7      4       -8.40      0.16    270.05           RANKING
   3      8      9       -8.40      0.13    270.05           RANKING
   3      9     19       -8.39      0.12    270.02           RANKING
   3     10     12       -8.37      0.17    270.03           RANKING
   3     11     11       -8.35      0.14    270.02           RANKING
   3     12      1       -8.21      0.19    270.06           RANKING
   4      1     16       -8.20      0.00    269.86           RANKING

Run time 0.706 sec
Idle time 0.000 sec
