AutoDock-GPU version: v1.6

**********************************************************
**    AutoDock-GPU AUTODOCKTOOLS-COMPATIBLE DLG FILE    **
**********************************************************


    DOCKING PARAMETERS
    ________________________


Ligand file:                               /home/a/REINVENT4/ReinventStudies/pleaseWork/justmol2mol_4_Compounds_ontop/graph-dock-hn62wh/graph-DockGPU/node-autodockgpu/inputs/PINCVXRSENSLEC-IAEBWRAQNA-N.pdbqt
Grid fld file:                             /home/a/REINVENT4/ReinventStudies/mols/Rad51/maps/rad51_receptor.maps.fld

Random seed:                               42
Number of runs:                            20
Number of energy evaluations:              1132076
Number of generations:                     42000
Size of population:                        150
Rate of crossover:                         80.000000%
Tournament selection probability limit:    60.000000%
Rate of mutation:                          2.000000%
Maximal allowed delta movement:            +/- 6.000000A
Maximal allowed delta angle:               +/- 90.000000

Rate of local search:                      100.000000%
Maximal number of local search iterations: 300
Rho lower bound:                           0.010000
Spread of local search delta movement:     2.000000A
Spread of local search delta angle:        74.999999
Limit of consecutive successes/failures:   4

Handle symmetry during clustering:         YES
RMSD tolerance:                            2.000000A

Program call in command line was:          /home/a/REINVENT4/ReinventStudies/adgpu-v1.6_linux_x64_cuda12_128wi --filelist batch.txt --heuristics 1 --nrun 20 --psize 150 --lsit 300 --seed 42 --heurmax 12000000 


    GRID PARAMETERS
    ________________________


Receptor name:                             rad51_receptor
Number of grid points (x, y, z):           53, 53, 53
Grid center (x, y, z):                     139.950000, 75.640000, 221.970000A
Grid size (x, y, z):                       19.500000, 19.500000, 19.500000A
Grid spacing:                              0.375000A


    LIGAND PARAMETERS
    ________________________


Ligand name:                               /home/a/REINVENT4/ReinventStudies/pleaseWork/justmol2mol_4_Compounds_ontop/graph-dock-hn62wh/graph-DockGPU/node-autodockgpu/inputs/PINCVXRSENSLEC-IAEBWRAQNA-N
Number of atoms:                           30
Number of rotatable bonds:                 5
Number of atom types:                      7


    DUMMY DATA (only for ADT-compatibility)
    ________________________


DPF> outlev 1
DPF> ga_run 20
DPF> fld /home/a/REINVENT4/ReinventStudies/mols/Rad51/maps/rad51_receptor.maps.fld
DPF> move /home/a/REINVENT4/ReinventStudies/pleaseWork/justmol2mol_4_Compounds_ontop/graph-dock-hn62wh/graph-DockGPU/node-autodockgpu/inputs/PINCVXRSENSLEC-IAEBWRAQNA-N.pdbqt


    COUNTER STATES
    ________________________


Number of energy evaluations performed:    674286
Number of generations used:                40


    INPUT LIGAND PDBQT FILE:
    ________________________


INPUT-LIGAND-PDBQT: REMARK SMILES O=C(NCC(=O)N1CCC[C@H]1c1ccc(Cl)cc1)c1ccc2cc(Cl)ccc2n1
INPUT-LIGAND-PDBQT: REMARK SMILES IDX 4 1 3 2 2 3 1 4 19 6 20 7 29 8 21 9 28 10 22 11 27 12 23 13
INPUT-LIGAND-PDBQT: REMARK SMILES IDX 26 14 24 15 25 16 5 17 6 18 7 19 8 20 11 21 9 22 10 23 12 24
INPUT-LIGAND-PDBQT: REMARK SMILES IDX 13 25 18 26 14 27 17 28 15 29 16 30
INPUT-LIGAND-PDBQT: REMARK H PARENT 3 5
INPUT-LIGAND-PDBQT: ROOT
INPUT-LIGAND-PDBQT: ATOM      1  C   UNL     1       0.016   0.851   1.365  1.00  0.00     0.216 C 
INPUT-LIGAND-PDBQT: ENDROOT
INPUT-LIGAND-PDBQT: BRANCH   1   2
INPUT-LIGAND-PDBQT: ATOM      2  N   UNL     1       1.333   0.705   0.833  1.00  0.00    -0.342 N 
INPUT-LIGAND-PDBQT: ATOM      3  C   UNL     1       1.959  -0.565   0.906  1.00  0.00     0.270 C 
INPUT-LIGAND-PDBQT: ATOM      4  O   UNL     1       1.330  -1.519   1.437  1.00  0.00    -0.268 OA
INPUT-LIGAND-PDBQT: ATOM      5  H   UNL     1       1.891   1.473   0.384  1.00  0.00     0.164 HD
INPUT-LIGAND-PDBQT: BRANCH   3   6
INPUT-LIGAND-PDBQT: ATOM      6  C   UNL     1       3.308  -0.776   0.380  1.00  0.00     0.128 A 
INPUT-LIGAND-PDBQT: ATOM      7  C   UNL     1       3.893  -2.009   0.460  1.00  0.00     0.035 A 
INPUT-LIGAND-PDBQT: ATOM      8  N   UNL     1       4.015   0.232  -0.199  1.00  0.00    -0.243 NA
INPUT-LIGAND-PDBQT: ATOM      9  C   UNL     1       5.171  -2.242  -0.030  1.00  0.00     0.013 A 
INPUT-LIGAND-PDBQT: ATOM     10  C   UNL     1       5.263   0.016  -0.681  1.00  0.00     0.071 A 
INPUT-LIGAND-PDBQT: ATOM     11  C   UNL     1       5.875  -1.213  -0.614  1.00  0.00     0.002 A 
INPUT-LIGAND-PDBQT: ATOM     12  C   UNL     1       5.960   1.045  -1.261  1.00  0.00     0.030 A 
INPUT-LIGAND-PDBQT: ATOM     13  C   UNL     1       7.149  -1.422  -1.108  1.00  0.00     0.030 A 
INPUT-LIGAND-PDBQT: ATOM     14  C   UNL     1       7.226   0.855  -1.758  1.00  0.00     0.023 A 
INPUT-LIGAND-PDBQT: ATOM     15  C   UNL     1       7.860  -0.382  -1.697  1.00  0.00     0.041 A 
INPUT-LIGAND-PDBQT: ATOM     16  Cl  UNL     1       9.471  -0.620  -2.330  1.00  0.00    -0.084 Cl
INPUT-LIGAND-PDBQT: ENDBRANCH   3   6
INPUT-LIGAND-PDBQT: ENDBRANCH   1   2
INPUT-LIGAND-PDBQT: BRANCH   1  17
INPUT-LIGAND-PDBQT: ATOM     17  C   UNL     1      -0.986  -0.010   0.735  1.00  0.00     0.242 C 
INPUT-LIGAND-PDBQT: ATOM     18  O   UNL     1      -0.600  -0.783  -0.199  1.00  0.00    -0.273 OA
INPUT-LIGAND-PDBQT: BRANCH  17  19
INPUT-LIGAND-PDBQT: ATOM     19  N   UNL     1      -2.337   0.040   1.174  1.00  0.00    -0.334 N 
INPUT-LIGAND-PDBQT: ATOM     20  C   UNL     1      -2.873   0.883   2.225  1.00  0.00     0.120 C 
INPUT-LIGAND-PDBQT: ATOM     21  C   UNL     1      -3.458  -0.757   0.648  1.00  0.00     0.115 C 
INPUT-LIGAND-PDBQT: ATOM     22  C   UNL     1      -4.265   0.367   2.514  1.00  0.00     0.024 C 
INPUT-LIGAND-PDBQT: ATOM     23  C   UNL     1      -4.194  -1.030   1.939  1.00  0.00     0.032 C 
INPUT-LIGAND-PDBQT: BRANCH  21  24
INPUT-LIGAND-PDBQT: ATOM     24  C   UNL     1      -4.245   0.001  -0.340  1.00  0.00    -0.025 A 
INPUT-LIGAND-PDBQT: ATOM     25  C   UNL     1      -3.608   0.728  -1.321  1.00  0.00     0.007 A 
INPUT-LIGAND-PDBQT: ATOM     26  C   UNL     1      -5.638   0.019  -0.334  1.00  0.00     0.007 A 
INPUT-LIGAND-PDBQT: ATOM     27  C   UNL     1      -4.303   1.462  -2.280  1.00  0.00     0.021 A 
INPUT-LIGAND-PDBQT: ATOM     28  C   UNL     1      -6.365   0.735  -1.269  1.00  0.00     0.021 A 
INPUT-LIGAND-PDBQT: ATOM     29  C   UNL     1      -5.679   1.447  -2.230  1.00  0.00     0.041 A 
INPUT-LIGAND-PDBQT: ATOM     30  Cl  UNL     1      -6.546   2.380  -3.450  1.00  0.00    -0.084 Cl
INPUT-LIGAND-PDBQT: ENDBRANCH  21  24
INPUT-LIGAND-PDBQT: ENDBRANCH  17  19
INPUT-LIGAND-PDBQT: ENDBRANCH   1  17
INPUT-LIGAND-PDBQT: TORSDOF 5


    FINAL DOCKED STATE:
    ________________________


Run:   1 / 20
Time taken for this run:   0.029s

DOCKED: MODEL        1
DOCKED: USER    Run = 1
DOCKED: USER
DOCKED: USER    Estimated Free Energy of Binding    =  -8.49 kcal/mol  [=(1)+(2)+(3)-(4)]
DOCKED: USER
DOCKED: USER    (1) Final Intermolecular Energy     =  -9.98 kcal/mol
DOCKED: USER        vdW + Hbond + desolv Energy     =  -9.87 kcal/mol
DOCKED: USER        Electrostatic Energy            =  -0.11 kcal/mol
DOCKED: USER        Moving Ligand-Fixed Receptor    =  -9.98 kcal/mol
DOCKED: USER        Moving Ligand-Moving Receptor   =  +0.00 kcal/mol
DOCKED: USER    (2) Final Total Internal Energy     =  -1.67 kcal/mol
DOCKED: USER    (3) Torsional Free Energy           =  +1.49 kcal/mol
DOCKED: USER    (4) Unbound System's Energy         =  -1.67 kcal/mol
DOCKED: USER
DOCKED: USER
DOCKED: REMARK SMILES O=C(NCC(=O)N1CCC[C@H]1c1ccc(Cl)cc1)c1ccc2cc(Cl)ccc2n1
DOCKED: REMARK SMILES IDX 4 1 3 2 2 3 1 4 19 6 20 7 29 8 21 9 28 10 22 11 27 12 23 13
DOCKED: REMARK SMILES IDX 26 14 24 15 25 16 5 17 6 18 7 19 8 20 11 21 9 22 10 23 12 24
DOCKED: REMARK SMILES IDX 13 25 18 26 14 27 17 28 15 29 16 30
DOCKED: REMARK H PARENT 3 5
DOCKED: USER                              x       y       z     vdW  Elec       q    Type
DOCKED: USER                           _______ _______ _______ _____ _____    ______ ____
DOCKED: ROOT
DOCKED: ATOM      1  C   UNL     1     138.529  74.534 220.969 -0.10 -0.05    +0.216 C  
DOCKED: ENDROOT
DOCKED: BRANCH   1   2
DOCKED: ATOM      2  N   UNL     1     138.727  73.681 222.097 -0.06 +0.10    -0.342 N  
DOCKED: ATOM      3  C   UNL     1     139.335  72.416 221.895 -0.15 -0.05    +0.270 C  
DOCKED: ATOM      4  O   UNL     1     139.679  72.091 220.727 -0.06 +0.05    -0.268 OA 
DOCKED: ATOM      5  H   UNL     1     138.454  73.913 223.084 -0.55 -0.12    +0.164 HD 
DOCKED: BRANCH   3   6
DOCKED: ATOM      6  C   UNL     1     139.562  71.498 223.011 -0.27 -0.03    +0.128 A  
DOCKED: ATOM      7  C   UNL     1     139.241  70.175 222.890 -0.22 -0.01    +0.035 A  
DOCKED: ATOM      8  N   UNL     1     140.093  71.923 224.189 -0.23 +0.05    -0.243 NA 
DOCKED: ATOM      9  C   UNL     1     139.444  69.277 223.930 -0.26 -0.00    +0.013 A  
DOCKED: ATOM     10  C   UNL     1     140.296  71.056 225.211 -0.48 -0.01    +0.071 A  
DOCKED: ATOM     11  C   UNL     1     139.983  69.721 225.116 -0.42 -0.00    +0.002 A  
DOCKED: ATOM     12  C   UNL     1     140.833  71.503 226.391 -0.66 -0.00    +0.030 A  
DOCKED: ATOM     13  C   UNL     1     140.194  68.845 226.165 -0.52 -0.01    +0.030 A  
DOCKED: ATOM     14  C   UNL     1     141.050  70.647 227.443 -0.62 -0.00    +0.023 A  
DOCKED: ATOM     15  C   UNL     1     140.738  69.294 227.364 -0.57 -0.01    +0.041 A  
DOCKED: ATOM     16  Cl  UNL     1     141.015  68.208 228.704 -0.70 +0.02    -0.084 Cl 
DOCKED: ENDBRANCH   3   6
DOCKED: ENDBRANCH   1   2
DOCKED: BRANCH   1  17
DOCKED: ATOM     17  C   UNL     1     138.482  75.961 221.295 -0.13 -0.05    +0.242 C  
DOCKED: ATOM     18  O   UNL     1     137.338  76.497 221.444 -0.07 +0.06    -0.273 OA 
DOCKED: BRANCH  17  19
DOCKED: ATOM     19  N   UNL     1     139.691  76.695 221.432 -0.11 +0.09    -0.334 N  
DOCKED: ATOM     20  C   UNL     1     140.226  77.257 222.658 -0.25 -0.03    +0.120 C  
DOCKED: ATOM     21  C   UNL     1     140.638  77.030 220.356 -0.17 -0.04    +0.115 C  
DOCKED: ATOM     22  C   UNL     1     141.352  78.178 222.245 -0.41 -0.01    +0.024 C  
DOCKED: ATOM     23  C   UNL     1     141.022  78.425 220.790 -0.27 -0.01    +0.032 C  
DOCKED: BRANCH  21  24
DOCKED: ATOM     24  C   UNL     1     141.768  76.085 220.314 -0.27 +0.01    -0.025 A  
DOCKED: ATOM     25  C   UNL     1     141.642  74.832 220.871 -0.30 -0.00    +0.007 A  
DOCKED: ATOM     26  C   UNL     1     142.989  76.403 219.724 -0.39 -0.00    +0.007 A  
DOCKED: ATOM     27  C   UNL     1     142.678  73.900 220.859 -0.25 -0.00    +0.021 A  
DOCKED: ATOM     28  C   UNL     1     144.042  75.505 219.691 -0.32 -0.01    +0.021 A  
DOCKED: ATOM     29  C   UNL     1     143.865  74.263 220.263 -0.39 -0.01    +0.041 A  
DOCKED: ATOM     30  Cl  UNL     1     145.167  73.074 220.255 -0.66 +0.00    -0.084 Cl 
DOCKED: ENDBRANCH  21  24
DOCKED: ENDBRANCH  17  19
DOCKED: ENDBRANCH   1  17
DOCKED: TORSDOF 5
DOCKED: TER
DOCKED: ENDMDL
________________________________________________________________________________


    FINAL DOCKED STATE:
    ________________________


Run:   2 / 20
Time taken for this run:   0.029s

DOCKED: MODEL        2
DOCKED: USER    Run = 2
DOCKED: USER
DOCKED: USER    Estimated Free Energy of Binding    =  -8.64 kcal/mol  [=(1)+(2)+(3)-(4)]
DOCKED: USER
DOCKED: USER    (1) Final Intermolecular Energy     = -10.13 kcal/mol
DOCKED: USER        vdW + Hbond + desolv Energy     = -10.05 kcal/mol
DOCKED: USER        Electrostatic Energy            =  -0.08 kcal/mol
DOCKED: USER        Moving Ligand-Fixed Receptor    = -10.13 kcal/mol
DOCKED: USER        Moving Ligand-Moving Receptor   =  +0.00 kcal/mol
DOCKED: USER    (2) Final Total Internal Energy     =  -1.27 kcal/mol
DOCKED: USER    (3) Torsional Free Energy           =  +1.49 kcal/mol
DOCKED: USER    (4) Unbound System's Energy         =  -1.27 kcal/mol
DOCKED: USER
DOCKED: USER
DOCKED: REMARK SMILES O=C(NCC(=O)N1CCC[C@H]1c1ccc(Cl)cc1)c1ccc2cc(Cl)ccc2n1
DOCKED: REMARK SMILES IDX 4 1 3 2 2 3 1 4 19 6 20 7 29 8 21 9 28 10 22 11 27 12 23 13
DOCKED: REMARK SMILES IDX 26 14 24 15 25 16 5 17 6 18 7 19 8 20 11 21 9 22 10 23 12 24
DOCKED: REMARK SMILES IDX 13 25 18 26 14 27 17 28 15 29 16 30
DOCKED: REMARK H PARENT 3 5
DOCKED: USER                              x       y       z     vdW  Elec       q    Type
DOCKED: USER                           _______ _______ _______ _____ _____    ______ ____
DOCKED: ROOT
DOCKED: ATOM      1  C   UNL     1     139.080  74.470 221.009 -0.13 -0.05    +0.216 C  
DOCKED: ENDROOT
DOCKED: BRANCH   1   2
DOCKED: ATOM      2  N   UNL     1     139.131  73.620 222.155 -0.09 +0.09    -0.342 N  
DOCKED: ATOM      3  C   UNL     1     139.804  72.377 222.050 -0.19 -0.05    +0.270 C  
DOCKED: ATOM      4  O   UNL     1     140.334  72.068 220.950 -0.10 +0.04    -0.268 OA 
DOCKED: ATOM      5  H   UNL     1     138.702  73.840 223.088 -0.55 -0.11    +0.164 HD 
DOCKED: BRANCH   3   6
DOCKED: ATOM      6  C   UNL     1     139.887  71.462 223.189 -0.30 -0.02    +0.128 A  
DOCKED: ATOM      7  C   UNL     1     139.458  70.170 223.068 -0.23 -0.01    +0.035 A  
DOCKED: ATOM      8  N   UNL     1     140.389  71.860 224.390 -0.27 +0.04    -0.243 NA 
DOCKED: ATOM      9  C   UNL     1     139.524  69.278 224.129 -0.28 -0.00    +0.013 A  
DOCKED: ATOM     10  C   UNL     1     140.459  70.998 225.433 -0.51 -0.01    +0.071 A  
DOCKED: ATOM     11  C   UNL     1     140.035  69.694 225.339 -0.44 -0.00    +0.002 A  
DOCKED: ATOM     12  C   UNL     1     140.967  71.418 226.635 -0.68 -0.00    +0.030 A  
DOCKED: ATOM     13  C   UNL     1     140.109  68.823 226.409 -0.54 -0.01    +0.030 A  
DOCKED: ATOM     14  C   UNL     1     141.050  70.566 227.709 -0.62 -0.00    +0.023 A  
DOCKED: ATOM     15  C   UNL     1     140.624  69.244 227.631 -0.59 -0.01    +0.041 A  
DOCKED: ATOM     16  Cl  UNL     1     140.731  68.162 228.999 -0.42 +0.02    -0.084 Cl 
DOCKED: ENDBRANCH   3   6
DOCKED: ENDBRANCH   1   2
DOCKED: BRANCH   1  17
DOCKED: ATOM     17  C   UNL     1     140.239  75.352 220.862 -0.16 -0.06    +0.242 C  
DOCKED: ATOM     18  O   UNL     1     141.377  74.895 221.201 -0.28 +0.07    -0.273 OA 
DOCKED: BRANCH  17  19
DOCKED: ATOM     19  N   UNL     1     140.066  76.668 220.355 -0.03 +0.10    -0.334 N  
DOCKED: ATOM     20  C   UNL     1     138.806  77.351 220.138 -0.06 -0.03    +0.120 C  
DOCKED: ATOM     21  C   UNL     1     141.134  77.597 219.950 -0.19 -0.05    +0.115 C  
DOCKED: ATOM     22  C   UNL     1     139.127  78.586 219.326 -0.05 -0.01    +0.024 C  
DOCKED: ATOM     23  C   UNL     1     140.474  78.221 218.743 -0.10 -0.01    +0.032 C  
DOCKED: BRANCH  21  24
DOCKED: ATOM     24  C   UNL     1     141.452  78.558 221.020 -0.33 +0.01    -0.025 A  
DOCKED: ATOM     25  C   UNL     1     141.821  79.847 220.706 -0.35 -0.00    +0.007 A  
DOCKED: ATOM     26  C   UNL     1     141.395  78.221 222.371 -0.44 -0.00    +0.007 A  
DOCKED: ATOM     27  C   UNL     1     142.132  80.795 221.678 -0.43 -0.01    +0.021 A  
DOCKED: ATOM     28  C   UNL     1     141.696  79.134 223.367 -0.58 -0.01    +0.021 A  
DOCKED: ATOM     29  C   UNL     1     142.061  80.412 222.999 -0.57 -0.01    +0.041 A  
DOCKED: ATOM     30  Cl  UNL     1     142.456  81.622 224.219 -0.54 +0.01    -0.084 Cl 
DOCKED: ENDBRANCH  21  24
DOCKED: ENDBRANCH  17  19
DOCKED: ENDBRANCH   1  17
DOCKED: TORSDOF 5
DOCKED: TER
DOCKED: ENDMDL
________________________________________________________________________________


    FINAL DOCKED STATE:
    ________________________


Run:   3 / 20
Time taken for this run:   0.029s

DOCKED: MODEL        3
DOCKED: USER    Run = 3
DOCKED: USER
DOCKED: USER    Estimated Free Energy of Binding    =  -8.34 kcal/mol  [=(1)+(2)+(3)-(4)]
DOCKED: USER
DOCKED: USER    (1) Final Intermolecular Energy     =  -9.83 kcal/mol
DOCKED: USER        vdW + Hbond + desolv Energy     =  -9.82 kcal/mol
DOCKED: USER        Electrostatic Energy            =  -0.01 kcal/mol
DOCKED: USER        Moving Ligand-Fixed Receptor    =  -9.83 kcal/mol
DOCKED: USER        Moving Ligand-Moving Receptor   =  +0.00 kcal/mol
DOCKED: USER    (2) Final Total Internal Energy     =  -1.43 kcal/mol
DOCKED: USER    (3) Torsional Free Energy           =  +1.49 kcal/mol
DOCKED: USER    (4) Unbound System's Energy         =  -1.43 kcal/mol
DOCKED: USER
DOCKED: USER
DOCKED: REMARK SMILES O=C(NCC(=O)N1CCC[C@H]1c1ccc(Cl)cc1)c1ccc2cc(Cl)ccc2n1
DOCKED: REMARK SMILES IDX 4 1 3 2 2 3 1 4 19 6 20 7 29 8 21 9 28 10 22 11 27 12 23 13
DOCKED: REMARK SMILES IDX 26 14 24 15 25 16 5 17 6 18 7 19 8 20 11 21 9 22 10 23 12 24
DOCKED: REMARK SMILES IDX 13 25 18 26 14 27 17 28 15 29 16 30
DOCKED: REMARK H PARENT 3 5
DOCKED: USER                              x       y       z     vdW  Elec       q    Type
DOCKED: USER                           _______ _______ _______ _____ _____    ______ ____
DOCKED: ROOT
DOCKED: ATOM      1  C   UNL     1     139.181  74.748 221.102 -0.15 -0.05    +0.216 C  
DOCKED: ENDROOT
DOCKED: BRANCH   1   2
DOCKED: ATOM      2  N   UNL     1     139.383  73.880 222.217 -0.11 +0.07    -0.342 N  
DOCKED: ATOM      3  C   UNL     1     139.496  72.486 221.983 -0.17 -0.05    +0.270 C  
DOCKED: ATOM      4  O   UNL     1     139.415  72.064 220.799 -0.05 +0.05    -0.268 OA 
DOCKED: ATOM      5  H   UNL     1     139.455  74.190 223.218 -0.50 -0.03    +0.164 HD 
DOCKED: BRANCH   3   6
DOCKED: ATOM      6  C   UNL     1     139.702  71.547 223.086 -0.28 -0.02    +0.128 A  
DOCKED: ATOM      7  C   UNL     1     139.381  70.227 222.935 -0.22 -0.01    +0.035 A  
DOCKED: ATOM      8  N   UNL     1     140.213  71.949 224.281 -0.22 +0.04    -0.243 NA 
DOCKED: ATOM      9  C   UNL     1     139.565  69.310 223.962 -0.25 -0.00    +0.013 A  
DOCKED: ATOM     10  C   UNL     1     140.397  71.064 225.290 -0.50 -0.01    +0.071 A  
DOCKED: ATOM     11  C   UNL     1     140.083  69.731 225.166 -0.42 -0.00    +0.002 A  
DOCKED: ATOM     12  C   UNL     1     140.914  71.488 226.488 -0.67 -0.00    +0.030 A  
DOCKED: ATOM     13  C   UNL     1     140.274  68.836 226.202 -0.53 -0.01    +0.030 A  
DOCKED: ATOM     14  C   UNL     1     141.111  70.613 227.528 -0.59 -0.00    +0.023 A  
DOCKED: ATOM     15  C   UNL     1     140.798  69.262 227.419 -0.57 -0.01    +0.041 A  
DOCKED: ATOM     16  Cl  UNL     1     141.050  68.151 228.744 -0.68 +0.02    -0.084 Cl 
DOCKED: ENDBRANCH   3   6
DOCKED: ENDBRANCH   1   2
DOCKED: BRANCH   1  17
DOCKED: ATOM     17  C   UNL     1     140.394  75.421 220.636 -0.15 -0.06    +0.242 C  
DOCKED: ATOM     18  O   UNL     1     141.499  74.804 220.761 -0.20 +0.08    -0.273 OA 
DOCKED: BRANCH  17  19
DOCKED: ATOM     19  N   UNL     1     140.306  76.721 220.068 -0.03 +0.11    -0.334 N  
DOCKED: ATOM     20  C   UNL     1     139.094  77.413 219.676 -0.04 -0.03    +0.120 C  
DOCKED: ATOM     21  C   UNL     1     141.432  77.621 219.765 -0.21 -0.06    +0.115 C  
DOCKED: ATOM     22  C   UNL     1     139.533  78.614 218.869 -0.05 -0.01    +0.024 C  
DOCKED: ATOM     23  C   UNL     1     140.934  78.211 218.466 -0.13 -0.01    +0.032 C  
DOCKED: BRANCH  21  24
DOCKED: ATOM     24  C   UNL     1     141.634  78.615 220.834 -0.32 +0.01    -0.025 A  
DOCKED: ATOM     25  C   UNL     1     141.509  78.245 222.155 -0.40 -0.00    +0.007 A  
DOCKED: ATOM     26  C   UNL     1     141.957  79.944 220.570 -0.30 -0.00    +0.007 A  
DOCKED: ATOM     27  C   UNL     1     141.690  79.143 223.204 -0.57 -0.01    +0.021 A  
DOCKED: ATOM     28  C   UNL     1     142.145  80.867 221.584 -0.41 -0.01    +0.021 A  
DOCKED: ATOM     29  C   UNL     1     142.007  80.446 222.890 -0.56 -0.01    +0.041 A  
DOCKED: ATOM     30  Cl  UNL     1     142.234  81.572 224.228 -0.54 +0.01    -0.084 Cl 
DOCKED: ENDBRANCH  21  24
DOCKED: ENDBRANCH  17  19
DOCKED: ENDBRANCH   1  17
DOCKED: TORSDOF 5
DOCKED: TER
DOCKED: ENDMDL
________________________________________________________________________________


    FINAL DOCKED STATE:
    ________________________


Run:   4 / 20
Time taken for this run:   0.029s

DOCKED: MODEL        4
DOCKED: USER    Run = 4
DOCKED: USER
DOCKED: USER    Estimated Free Energy of Binding    =  -8.54 kcal/mol  [=(1)+(2)+(3)-(4)]
DOCKED: USER
DOCKED: USER    (1) Final Intermolecular Energy     = -10.03 kcal/mol
DOCKED: USER        vdW + Hbond + desolv Energy     =  -9.92 kcal/mol
DOCKED: USER        Electrostatic Energy            =  -0.11 kcal/mol
DOCKED: USER        Moving Ligand-Fixed Receptor    = -10.03 kcal/mol
DOCKED: USER        Moving Ligand-Moving Receptor   =  +0.00 kcal/mol
DOCKED: USER    (2) Final Total Internal Energy     =  -1.66 kcal/mol
DOCKED: USER    (3) Torsional Free Energy           =  +1.49 kcal/mol
DOCKED: USER    (4) Unbound System's Energy         =  -1.66 kcal/mol
DOCKED: USER
DOCKED: USER
DOCKED: REMARK SMILES O=C(NCC(=O)N1CCC[C@H]1c1ccc(Cl)cc1)c1ccc2cc(Cl)ccc2n1
DOCKED: REMARK SMILES IDX 4 1 3 2 2 3 1 4 19 6 20 7 29 8 21 9 28 10 22 11 27 12 23 13
DOCKED: REMARK SMILES IDX 26 14 24 15 25 16 5 17 6 18 7 19 8 20 11 21 9 22 10 23 12 24
DOCKED: REMARK SMILES IDX 13 25 18 26 14 27 17 28 15 29 16 30
DOCKED: REMARK H PARENT 3 5
DOCKED: USER                              x       y       z     vdW  Elec       q    Type
DOCKED: USER                           _______ _______ _______ _____ _____    ______ ____
DOCKED: ROOT
DOCKED: ATOM      1  C   UNL     1     138.570  74.563 221.010 -0.11 -0.05    +0.216 C  
DOCKED: ENDROOT
DOCKED: BRANCH   1   2
DOCKED: ATOM      2  N   UNL     1     138.739  73.689 222.127 -0.05 +0.10    -0.342 N  
DOCKED: ATOM      3  C   UNL     1     139.476  72.492 221.948 -0.17 -0.05    +0.270 C  
DOCKED: ATOM      4  O   UNL     1     139.956  72.242 220.810 -0.07 +0.05    -0.268 OA 
DOCKED: ATOM      5  H   UNL     1     138.356  73.860 223.090 -0.54 -0.12    +0.164 HD 
DOCKED: BRANCH   3   6
DOCKED: ATOM      6  C   UNL     1     139.682  71.556 223.054 -0.28 -0.02    +0.128 A  
DOCKED: ATOM      7  C   UNL     1     139.343  70.239 222.914 -0.22 -0.01    +0.035 A  
DOCKED: ATOM      8  N   UNL     1     140.211  71.959 224.241 -0.22 +0.04    -0.243 NA 
DOCKED: ATOM      9  C   UNL     1     139.526  69.326 223.944 -0.25 -0.00    +0.013 A  
DOCKED: ATOM     10  C   UNL     1     140.394  71.076 225.254 -0.49 -0.01    +0.071 A  
DOCKED: ATOM     11  C   UNL     1     140.063  69.747 225.140 -0.42 -0.00    +0.002 A  
DOCKED: ATOM     12  C   UNL     1     140.928  71.501 226.443 -0.67 -0.00    +0.030 A  
DOCKED: ATOM     13  C   UNL     1     140.253  68.856 226.179 -0.52 -0.01    +0.030 A  
DOCKED: ATOM     14  C   UNL     1     141.126  70.630 227.486 -0.59 -0.00    +0.023 A  
DOCKED: ATOM     15  C   UNL     1     140.795  69.282 227.388 -0.57 -0.01    +0.041 A  
DOCKED: ATOM     16  Cl  UNL     1     141.046  68.176 228.716 -0.70 +0.02    -0.084 Cl 
DOCKED: ENDBRANCH   3   6
DOCKED: ENDBRANCH   1   2
DOCKED: BRANCH   1  17
DOCKED: ATOM     17  C   UNL     1     138.529  75.984 221.358 -0.14 -0.05    +0.242 C  
DOCKED: ATOM     18  O   UNL     1     137.389  76.512 221.560 -0.08 +0.06    -0.273 OA 
DOCKED: BRANCH  17  19
DOCKED: ATOM     19  N   UNL     1     139.740  76.721 221.459 -0.11 +0.09    -0.334 N  
DOCKED: ATOM     20  C   UNL     1     140.293  77.314 222.661 -0.26 -0.03    +0.120 C  
DOCKED: ATOM     21  C   UNL     1     140.671  77.030 220.360 -0.17 -0.04    +0.115 C  
DOCKED: ATOM     22  C   UNL     1     141.412  78.225 222.209 -0.41 -0.01    +0.024 C  
DOCKED: ATOM     23  C   UNL     1     141.059  78.436 220.754 -0.27 -0.01    +0.032 C  
DOCKED: BRANCH  21  24
DOCKED: ATOM     24  C   UNL     1     141.800  76.085 220.325 -0.27 +0.01    -0.025 A  
DOCKED: ATOM     25  C   UNL     1     141.669  74.829 220.875 -0.30 -0.00    +0.007 A  
DOCKED: ATOM     26  C   UNL     1     143.027  76.404 219.747 -0.38 -0.00    +0.007 A  
DOCKED: ATOM     27  C   UNL     1     142.704  73.897 220.869 -0.24 -0.00    +0.021 A  
DOCKED: ATOM     28  C   UNL     1     144.080  75.506 219.720 -0.32 -0.01    +0.021 A  
DOCKED: ATOM     29  C   UNL     1     143.897  74.262 220.285 -0.39 -0.01    +0.041 A  
DOCKED: ATOM     30  Cl  UNL     1     145.198  73.072 220.285 -0.67 +0.00    -0.084 Cl 
DOCKED: ENDBRANCH  21  24
DOCKED: ENDBRANCH  17  19
DOCKED: ENDBRANCH   1  17
DOCKED: TORSDOF 5
DOCKED: TER
DOCKED: ENDMDL
________________________________________________________________________________


    FINAL DOCKED STATE:
    ________________________


Run:   5 / 20
Time taken for this run:   0.029s

DOCKED: MODEL        5
DOCKED: USER    Run = 5
DOCKED: USER
DOCKED: USER    Estimated Free Energy of Binding    =  -8.47 kcal/mol  [=(1)+(2)+(3)-(4)]
DOCKED: USER
DOCKED: USER    (1) Final Intermolecular Energy     =  -9.96 kcal/mol
DOCKED: USER        vdW + Hbond + desolv Energy     =  -9.87 kcal/mol
DOCKED: USER        Electrostatic Energy            =  -0.10 kcal/mol
DOCKED: USER        Moving Ligand-Fixed Receptor    =  -9.96 kcal/mol
DOCKED: USER        Moving Ligand-Moving Receptor   =  +0.00 kcal/mol
DOCKED: USER    (2) Final Total Internal Energy     =  -1.70 kcal/mol
DOCKED: USER    (3) Torsional Free Energy           =  +1.49 kcal/mol
DOCKED: USER    (4) Unbound System's Energy         =  -1.70 kcal/mol
DOCKED: USER
DOCKED: USER
DOCKED: REMARK SMILES O=C(NCC(=O)N1CCC[C@H]1c1ccc(Cl)cc1)c1ccc2cc(Cl)ccc2n1
DOCKED: REMARK SMILES IDX 4 1 3 2 2 3 1 4 19 6 20 7 29 8 21 9 28 10 22 11 27 12 23 13
DOCKED: REMARK SMILES IDX 26 14 24 15 25 16 5 17 6 18 7 19 8 20 11 21 9 22 10 23 12 24
DOCKED: REMARK SMILES IDX 13 25 18 26 14 27 17 28 15 29 16 30
DOCKED: REMARK H PARENT 3 5
DOCKED: USER                              x       y       z     vdW  Elec       q    Type
DOCKED: USER                           _______ _______ _______ _____ _____    ______ ____
DOCKED: ROOT
DOCKED: ATOM      1  C   UNL     1     138.481  74.486 220.940 -0.10 -0.05    +0.216 C  
DOCKED: ENDROOT
DOCKED: BRANCH   1   2
DOCKED: ATOM      2  N   UNL     1     138.736  73.662 222.078 -0.07 +0.10    -0.342 N  
DOCKED: ATOM      3  C   UNL     1     139.130  72.316 221.869 -0.14 -0.06    +0.270 C  
DOCKED: ATOM      4  O   UNL     1     139.241  71.896 220.686 -0.04 +0.05    -0.268 OA 
DOCKED: ATOM      5  H   UNL     1     138.654  73.972 223.078 -0.55 -0.11    +0.164 HD 
DOCKED: BRANCH   3   6
DOCKED: ATOM      6  C   UNL     1     139.403  71.423 222.995 -0.25 -0.03    +0.128 A  
DOCKED: ATOM      7  C   UNL     1     139.080  70.097 222.917 -0.21 -0.01    +0.035 A  
DOCKED: ATOM      8  N   UNL     1     139.981  71.875 224.141 -0.25 +0.05    -0.243 NA 
DOCKED: ATOM      9  C   UNL     1     139.327  69.224 223.968 -0.28 -0.00    +0.013 A  
DOCKED: ATOM     10  C   UNL     1     140.227  71.031 225.173 -0.47 -0.01    +0.071 A  
DOCKED: ATOM     11  C   UNL     1     139.913  69.694 225.121 -0.42 -0.00    +0.002 A  
DOCKED: ATOM     12  C   UNL     1     140.810  71.506 226.320 -0.65 -0.00    +0.030 A  
DOCKED: ATOM     13  C   UNL     1     140.167  68.843 226.180 -0.52 -0.01    +0.030 A  
DOCKED: ATOM     14  C   UNL     1     141.071  70.674 227.381 -0.63 -0.00    +0.023 A  
DOCKED: ATOM     15  C   UNL     1     140.758  69.319 227.346 -0.57 -0.01    +0.041 A  
DOCKED: ATOM     16  Cl  UNL     1     141.091  68.264 228.698 -0.70 +0.02    -0.084 Cl 
DOCKED: ENDBRANCH   3   6
DOCKED: ENDBRANCH   1   2
DOCKED: BRANCH   1  17
DOCKED: ATOM     17  C   UNL     1     138.470  75.921 221.226 -0.12 -0.05    +0.242 C  
DOCKED: ATOM     18  O   UNL     1     137.342  76.478 221.417 -0.07 +0.06    -0.273 OA 
DOCKED: BRANCH  17  19
DOCKED: ATOM     19  N   UNL     1     139.695  76.640 221.282 -0.09 +0.09    -0.334 N  
DOCKED: ATOM     20  C   UNL     1     140.245  77.319 222.438 -0.32 -0.03    +0.120 C  
DOCKED: ATOM     21  C   UNL     1     140.644  76.837 220.174 -0.15 -0.04    +0.115 C  
DOCKED: ATOM     22  C   UNL     1     141.389  78.167 221.927 -0.38 -0.01    +0.024 C  
DOCKED: ATOM     23  C   UNL     1     141.058  78.263 220.455 -0.25 -0.01    +0.032 C  
DOCKED: BRANCH  21  24
DOCKED: ATOM     24  C   UNL     1     141.754  75.870 220.233 -0.26 +0.01    -0.025 A  
DOCKED: ATOM     25  C   UNL     1     142.992  76.207 219.732 -0.38 -0.00    +0.007 A  
DOCKED: ATOM     26  C   UNL     1     141.612  74.599 220.786 -0.29 -0.00    +0.007 A  
DOCKED: ATOM     27  C   UNL     1     144.076  75.331 219.762 -0.36 -0.01    +0.021 A  
DOCKED: ATOM     28  C   UNL     1     142.664  73.701 220.835 -0.27 -0.00    +0.021 A  
DOCKED: ATOM     29  C   UNL     1     143.883  74.087 220.319 -0.39 -0.01    +0.041 A  
DOCKED: ATOM     30  Cl  UNL     1     145.263  72.989 220.351 -0.68 +0.00    -0.084 Cl 
DOCKED: ENDBRANCH  21  24
DOCKED: ENDBRANCH  17  19
DOCKED: ENDBRANCH   1  17
DOCKED: TORSDOF 5
DOCKED: TER
DOCKED: ENDMDL
________________________________________________________________________________


    FINAL DOCKED STATE:
    ________________________


Run:   6 / 20
Time taken for this run:   0.029s

DOCKED: MODEL        6
DOCKED: USER    Run = 6
DOCKED: USER
DOCKED: USER    Estimated Free Energy of Binding    =  -8.54 kcal/mol  [=(1)+(2)+(3)-(4)]
DOCKED: USER
DOCKED: USER    (1) Final Intermolecular Energy     = -10.03 kcal/mol
DOCKED: USER        vdW + Hbond + desolv Energy     =  -9.92 kcal/mol
DOCKED: USER        Electrostatic Energy            =  -0.11 kcal/mol
DOCKED: USER        Moving Ligand-Fixed Receptor    = -10.03 kcal/mol
DOCKED: USER        Moving Ligand-Moving Receptor   =  +0.00 kcal/mol
DOCKED: USER    (2) Final Total Internal Energy     =  -1.66 kcal/mol
DOCKED: USER    (3) Torsional Free Energy           =  +1.49 kcal/mol
DOCKED: USER    (4) Unbound System's Energy         =  -1.66 kcal/mol
DOCKED: USER
DOCKED: USER
DOCKED: REMARK SMILES O=C(NCC(=O)N1CCC[C@H]1c1ccc(Cl)cc1)c1ccc2cc(Cl)ccc2n1
DOCKED: REMARK SMILES IDX 4 1 3 2 2 3 1 4 19 6 20 7 29 8 21 9 28 10 22 11 27 12 23 13
DOCKED: REMARK SMILES IDX 26 14 24 15 25 16 5 17 6 18 7 19 8 20 11 21 9 22 10 23 12 24
DOCKED: REMARK SMILES IDX 13 25 18 26 14 27 17 28 15 29 16 30
DOCKED: REMARK H PARENT 3 5
DOCKED: USER                              x       y       z     vdW  Elec       q    Type
DOCKED: USER                           _______ _______ _______ _____ _____    ______ ____
DOCKED: ROOT
DOCKED: ATOM      1  C   UNL     1     138.573  74.600 221.020 -0.11 -0.05    +0.216 C  
DOCKED: ENDROOT
DOCKED: BRANCH   1   2
DOCKED: ATOM      2  N   UNL     1     138.741  73.722 222.133 -0.05 +0.10    -0.342 N  
DOCKED: ATOM      3  C   UNL     1     139.493  72.533 221.954 -0.17 -0.05    +0.270 C  
DOCKED: ATOM      4  O   UNL     1     139.986  72.296 220.819 -0.08 +0.05    -0.268 OA 
DOCKED: ATOM      5  H   UNL     1     138.347  73.882 223.094 -0.54 -0.13    +0.164 HD 
DOCKED: BRANCH   3   6
DOCKED: ATOM      6  C   UNL     1     139.698  71.593 223.057 -0.28 -0.02    +0.128 A  
DOCKED: ATOM      7  C   UNL     1     139.366  70.276 222.909 -0.22 -0.01    +0.035 A  
DOCKED: ATOM      8  N   UNL     1     140.220  71.993 224.248 -0.20 +0.04    -0.243 NA 
DOCKED: ATOM      9  C   UNL     1     139.549  69.359 223.935 -0.25 -0.00    +0.013 A  
DOCKED: ATOM     10  C   UNL     1     140.403  71.106 225.257 -0.50 -0.01    +0.071 A  
DOCKED: ATOM     11  C   UNL     1     140.079  69.776 225.135 -0.42 -0.00    +0.002 A  
DOCKED: ATOM     12  C   UNL     1     140.930  71.528 226.451 -0.67 -0.00    +0.030 A  
DOCKED: ATOM     13  C   UNL     1     140.269  68.881 226.171 -0.52 -0.01    +0.030 A  
DOCKED: ATOM     14  C   UNL     1     141.127  70.652 227.490 -0.59 -0.00    +0.023 A  
DOCKED: ATOM     15  C   UNL     1     140.803  69.303 227.384 -0.57 -0.01    +0.041 A  
DOCKED: ATOM     16  Cl  UNL     1     141.054  68.191 228.708 -0.70 +0.02    -0.084 Cl 
DOCKED: ENDBRANCH   3   6
DOCKED: ENDBRANCH   1   2
DOCKED: BRANCH   1  17
DOCKED: ATOM     17  C   UNL     1     138.546  76.020 221.374 -0.14 -0.05    +0.242 C  
DOCKED: ATOM     18  O   UNL     1     137.413  76.552 221.607 -0.08 +0.06    -0.273 OA 
DOCKED: BRANCH  17  19
DOCKED: ATOM     19  N   UNL     1     139.761  76.754 221.444 -0.11 +0.09    -0.334 N  
DOCKED: ATOM     20  C   UNL     1     140.327  77.376 222.626 -0.28 -0.03    +0.120 C  
DOCKED: ATOM     21  C   UNL     1     140.684  77.029 220.330 -0.17 -0.04    +0.115 C  
DOCKED: ATOM     22  C   UNL     1     141.447  78.269 222.140 -0.42 -0.01    +0.024 C  
DOCKED: ATOM     23  C   UNL     1     141.083  78.443 220.682 -0.27 -0.01    +0.032 C  
DOCKED: BRANCH  21  24
DOCKED: ATOM     24  C   UNL     1     141.808  76.077 220.310 -0.27 +0.01    -0.025 A  
DOCKED: ATOM     25  C   UNL     1     141.669  74.830 220.878 -0.30 -0.00    +0.007 A  
DOCKED: ATOM     26  C   UNL     1     143.038  76.382 219.730 -0.39 -0.00    +0.007 A  
DOCKED: ATOM     27  C   UNL     1     142.699  73.892 220.887 -0.22 -0.00    +0.021 A  
DOCKED: ATOM     28  C   UNL     1     144.086  75.478 219.719 -0.31 -0.01    +0.021 A  
DOCKED: ATOM     29  C   UNL     1     143.895  74.243 220.301 -0.39 -0.01    +0.041 A  
DOCKED: ATOM     30  Cl  UNL     1     145.190  73.046 220.319 -0.67 +0.00    -0.084 Cl 
DOCKED: ENDBRANCH  21  24
DOCKED: ENDBRANCH  17  19
DOCKED: ENDBRANCH   1  17
DOCKED: TORSDOF 5
DOCKED: TER
DOCKED: ENDMDL
________________________________________________________________________________


    FINAL DOCKED STATE:
    ________________________


Run:   7 / 20
Time taken for this run:   0.029s

DOCKED: MODEL        7
DOCKED: USER    Run = 7
DOCKED: USER
DOCKED: USER    Estimated Free Energy of Binding    =  -8.71 kcal/mol  [=(1)+(2)+(3)-(4)]
DOCKED: USER
DOCKED: USER    (1) Final Intermolecular Energy     = -10.20 kcal/mol
DOCKED: USER        vdW + Hbond + desolv Energy     = -10.14 kcal/mol
DOCKED: USER        Electrostatic Energy            =  -0.06 kcal/mol
DOCKED: USER        Moving Ligand-Fixed Receptor    = -10.20 kcal/mol
DOCKED: USER        Moving Ligand-Moving Receptor   =  +0.00 kcal/mol
DOCKED: USER    (2) Final Total Internal Energy     =  -1.24 kcal/mol
DOCKED: USER    (3) Torsional Free Energy           =  +1.49 kcal/mol
DOCKED: USER    (4) Unbound System's Energy         =  -1.24 kcal/mol
DOCKED: USER
DOCKED: USER
DOCKED: REMARK SMILES O=C(NCC(=O)N1CCC[C@H]1c1ccc(Cl)cc1)c1ccc2cc(Cl)ccc2n1
DOCKED: REMARK SMILES IDX 4 1 3 2 2 3 1 4 19 6 20 7 29 8 21 9 28 10 22 11 27 12 23 13
DOCKED: REMARK SMILES IDX 26 14 24 15 25 16 5 17 6 18 7 19 8 20 11 21 9 22 10 23 12 24
DOCKED: REMARK SMILES IDX 13 25 18 26 14 27 17 28 15 29 16 30
DOCKED: REMARK H PARENT 3 5
DOCKED: USER                              x       y       z     vdW  Elec       q    Type
DOCKED: USER                           _______ _______ _______ _____ _____    ______ ____
DOCKED: ROOT
DOCKED: ATOM      1  C   UNL     1     138.423  74.457 221.244 -0.12 -0.05    +0.216 C  
DOCKED: ENDROOT
DOCKED: BRANCH   1   2
DOCKED: ATOM      2  N   UNL     1     138.525  73.480 222.280 +0.00 +0.12    -0.342 N  
DOCKED: ATOM      3  C   UNL     1     139.785  72.879 222.528 -0.08 -0.04    +0.270 C  
DOCKED: ATOM      4  O   UNL     1     140.770  73.230 221.824 -0.48 +0.02    -0.268 OA 
DOCKED: ATOM      5  H   UNL     1     137.730  73.160 222.888 -0.42 -0.08    +0.164 HD 
DOCKED: BRANCH   3   6
DOCKED: ATOM      6  C   UNL     1     139.951  71.871 223.575 -0.30 -0.02    +0.128 A  
DOCKED: ATOM      7  C   UNL     1     139.651  70.561 223.324 -0.28 -0.01    +0.035 A  
DOCKED: ATOM      8  N   UNL     1     140.405  72.197 224.815 +0.08 +0.04    -0.243 NA 
DOCKED: ATOM      9  C   UNL     1     139.798  69.581 224.296 -0.28 -0.00    +0.013 A  
DOCKED: ATOM     10  C   UNL     1     140.553  71.249 225.772 -0.54 -0.01    +0.071 A  
DOCKED: ATOM     11  C   UNL     1     140.259  69.925 225.546 -0.47 -0.00    +0.002 A  
DOCKED: ATOM     12  C   UNL     1     141.012  71.597 227.016 -0.74 -0.01    +0.030 A  
DOCKED: ATOM     13  C   UNL     1     140.412  68.965 226.530 -0.55 -0.01    +0.030 A  
DOCKED: ATOM     14  C   UNL     1     141.171  70.657 228.004 -0.58 -0.00    +0.023 A  
DOCKED: ATOM     15  C   UNL     1     140.877  69.314 227.793 -0.58 -0.01    +0.041 A  
DOCKED: ATOM     16  Cl  UNL     1     141.081  68.120 229.053 -0.47 +0.02    -0.084 Cl 
DOCKED: ENDBRANCH   3   6
DOCKED: ENDBRANCH   1   2
DOCKED: BRANCH   1  17
DOCKED: ATOM     17  C   UNL     1     138.758  75.818 221.665 -0.18 -0.05    +0.242 C  
DOCKED: ATOM     18  O   UNL     1     138.255  76.241 222.755 -0.25 +0.06    -0.273 OA 
DOCKED: BRANCH  17  19
DOCKED: ATOM     19  N   UNL     1     139.616  76.616 220.861 -0.05 +0.09    -0.334 N  
DOCKED: ATOM     20  C   UNL     1     139.222  77.457 219.748 -0.05 -0.03    +0.120 C  
DOCKED: ATOM     21  C   UNL     1     141.077  76.742 220.999 -0.26 -0.05    +0.115 C  
DOCKED: ATOM     22  C   UNL     1     140.500  77.857 219.044 -0.11 -0.01    +0.024 C  
DOCKED: ATOM     23  C   UNL     1     141.460  76.797 219.539 -0.21 -0.01    +0.032 C  
DOCKED: BRANCH  21  24
DOCKED: ATOM     24  C   UNL     1     141.446  77.948 221.760 -0.35 +0.01    -0.025 A  
DOCKED: ATOM     25  C   UNL     1     141.085  78.069 223.084 -0.49 -0.00    +0.007 A  
DOCKED: ATOM     26  C   UNL     1     142.164  79.000 221.195 -0.21 -0.00    +0.007 A  
DOCKED: ATOM     27  C   UNL     1     141.409  79.187 223.850 -0.59 -0.00    +0.021 A  
DOCKED: ATOM     28  C   UNL     1     142.505  80.127 221.922 -0.45 -0.01    +0.021 A  
DOCKED: ATOM     29  C   UNL     1     142.119  80.199 223.244 -0.59 -0.01    +0.041 A  
DOCKED: ATOM     30  Cl  UNL     1     142.522  81.608 224.225 -0.53 +0.01    -0.084 Cl 
DOCKED: ENDBRANCH  21  24
DOCKED: ENDBRANCH  17  19
DOCKED: ENDBRANCH   1  17
DOCKED: TORSDOF 5
DOCKED: TER
DOCKED: ENDMDL
________________________________________________________________________________


    FINAL DOCKED STATE:
    ________________________


Run:   8 / 20
Time taken for this run:   0.029s

DOCKED: MODEL        8
DOCKED: USER    Run = 8
DOCKED: USER
DOCKED: USER    Estimated Free Energy of Binding    =  -6.43 kcal/mol  [=(1)+(2)+(3)-(4)]
DOCKED: USER
DOCKED: USER    (1) Final Intermolecular Energy     =  -7.92 kcal/mol
DOCKED: USER        vdW + Hbond + desolv Energy     =  -7.72 kcal/mol
DOCKED: USER        Electrostatic Energy            =  -0.20 kcal/mol
DOCKED: USER        Moving Ligand-Fixed Receptor    =  -7.92 kcal/mol
DOCKED: USER        Moving Ligand-Moving Receptor   =  +0.00 kcal/mol
DOCKED: USER    (2) Final Total Internal Energy     =  -2.70 kcal/mol
DOCKED: USER    (3) Torsional Free Energy           =  +1.49 kcal/mol
DOCKED: USER    (4) Unbound System's Energy         =  -2.70 kcal/mol
DOCKED: USER
DOCKED: USER
DOCKED: REMARK SMILES O=C(NCC(=O)N1CCC[C@H]1c1ccc(Cl)cc1)c1ccc2cc(Cl)ccc2n1
DOCKED: REMARK SMILES IDX 4 1 3 2 2 3 1 4 19 6 20 7 29 8 21 9 28 10 22 11 27 12 23 13
DOCKED: REMARK SMILES IDX 26 14 24 15 25 16 5 17 6 18 7 19 8 20 11 21 9 22 10 23 12 24
DOCKED: REMARK SMILES IDX 13 25 18 26 14 27 17 28 15 29 16 30
DOCKED: REMARK H PARENT 3 5
DOCKED: USER                              x       y       z     vdW  Elec       q    Type
DOCKED: USER                           _______ _______ _______ _____ _____    ______ ____
DOCKED: ROOT
DOCKED: ATOM      1  C   UNL     1     143.794  72.921 220.303 -0.24 -0.03    +0.216 C  
DOCKED: ENDROOT
DOCKED: BRANCH   1   2
DOCKED: ATOM      2  N   UNL     1     143.072  74.028 220.842 -0.12 +0.09    -0.342 N  
DOCKED: ATOM      3  C   UNL     1     141.655  73.986 220.832 -0.17 -0.05    +0.270 C  
DOCKED: ATOM      4  O   UNL     1     141.084  72.972 220.348 -0.09 +0.05    -0.268 OA 
DOCKED: ATOM      5  H   UNL     1     143.508  74.891 221.253 -0.24 -0.09    +0.164 HD 
DOCKED: BRANCH   3   6
DOCKED: ATOM      6  C   UNL     1     140.860  75.091 221.369 -0.28 -0.03    +0.128 A  
DOCKED: ATOM      7  C   UNL     1     139.495  75.048 221.314 -0.24 -0.01    +0.035 A  
DOCKED: ATOM      8  N   UNL     1     141.444  76.183 221.933 -0.13 +0.11    -0.243 NA 
DOCKED: ATOM      9  C   UNL     1     138.712  76.080 221.814 -0.26 -0.00    +0.013 A  
DOCKED: ATOM     10  C   UNL     1     140.690  77.196 222.425 -0.39 -0.02    +0.071 A  
DOCKED: ATOM     11  C   UNL     1     139.316  77.178 222.384 -0.33 -0.00    +0.002 A  
DOCKED: ATOM     12  C   UNL     1     141.297  78.288 222.990 -0.51 -0.01    +0.030 A  
DOCKED: ATOM     13  C   UNL     1     138.557  78.218 222.888 -0.26 -0.00    +0.030 A  
DOCKED: ATOM     14  C   UNL     1     140.559  79.329 223.497 -0.48 -0.00    +0.023 A  
DOCKED: ATOM     15  C   UNL     1     139.168  79.327 223.462 -0.37 -0.01    +0.041 A  
DOCKED: ATOM     16  Cl  UNL     1     138.231  80.654 224.107 -0.46 +0.01    -0.084 Cl 
DOCKED: ENDBRANCH   3   6
DOCKED: ENDBRANCH   1   2
DOCKED: BRANCH   1  17
DOCKED: ATOM     17  C   UNL     1     144.445  73.194 219.021 -0.17 -0.02    +0.242 C  
DOCKED: ATOM     18  O   UNL     1     145.677  72.899 218.907 -0.70 -0.14    -0.273 OA 
DOCKED: BRANCH  17  19
DOCKED: ATOM     19  N   UNL     1     143.698  73.772 217.958 -0.03 +0.07    -0.334 N  
DOCKED: ATOM     20  C   UNL     1     142.411  73.324 217.464 -0.02 -0.03    +0.120 C  
DOCKED: ATOM     21  C   UNL     1     144.088  74.939 217.148 -0.11 -0.05    +0.115 C  
DOCKED: ATOM     22  C   UNL     1     142.177  74.059 216.163 -0.02 -0.01    +0.024 C  
DOCKED: ATOM     23  C   UNL     1     143.582  74.483 215.799 -0.08 -0.01    +0.032 C  
DOCKED: BRANCH  21  24
DOCKED: ATOM     24  C   UNL     1     143.453  76.174 217.638 -0.24 +0.01    -0.025 A  
DOCKED: ATOM     25  C   UNL     1     143.163  76.319 218.976 -0.36 -0.00    +0.007 A  
DOCKED: ATOM     26  C   UNL     1     143.124  77.233 216.794 -0.25 -0.01    +0.007 A  
DOCKED: ATOM     27  C   UNL     1     142.564  77.466 219.493 -0.29 -0.02    +0.021 A  
DOCKED: ATOM     28  C   UNL     1     142.529  78.389 217.268 -0.27 -0.02    +0.021 A  
DOCKED: ATOM     29  C   UNL     1     142.258  78.484 218.617 -0.29 -0.03    +0.041 A  
DOCKED: ATOM     30  Cl  UNL     1     141.501  79.930 219.284 -0.32 +0.04    -0.084 Cl 
DOCKED: ENDBRANCH  21  24
DOCKED: ENDBRANCH  17  19
DOCKED: ENDBRANCH   1  17
DOCKED: TORSDOF 5
DOCKED: TER
DOCKED: ENDMDL
________________________________________________________________________________


    FINAL DOCKED STATE:
    ________________________


Run:   9 / 20
Time taken for this run:   0.029s

DOCKED: MODEL        9
DOCKED: USER    Run = 9
DOCKED: USER
DOCKED: USER    Estimated Free Energy of Binding    =  -8.41 kcal/mol  [=(1)+(2)+(3)-(4)]
DOCKED: USER
DOCKED: USER    (1) Final Intermolecular Energy     =  -9.90 kcal/mol
DOCKED: USER        vdW + Hbond + desolv Energy     =  -9.90 kcal/mol
DOCKED: USER        Electrostatic Energy            =  +0.00 kcal/mol
DOCKED: USER        Moving Ligand-Fixed Receptor    =  -9.90 kcal/mol
DOCKED: USER        Moving Ligand-Moving Receptor   =  +0.00 kcal/mol
DOCKED: USER    (2) Final Total Internal Energy     =  -1.43 kcal/mol
DOCKED: USER    (3) Torsional Free Energy           =  +1.49 kcal/mol
DOCKED: USER    (4) Unbound System's Energy         =  -1.43 kcal/mol
DOCKED: USER
DOCKED: USER
DOCKED: REMARK SMILES O=C(NCC(=O)N1CCC[C@H]1c1ccc(Cl)cc1)c1ccc2cc(Cl)ccc2n1
DOCKED: REMARK SMILES IDX 4 1 3 2 2 3 1 4 19 6 20 7 29 8 21 9 28 10 22 11 27 12 23 13
DOCKED: REMARK SMILES IDX 26 14 24 15 25 16 5 17 6 18 7 19 8 20 11 21 9 22 10 23 12 24
DOCKED: REMARK SMILES IDX 13 25 18 26 14 27 17 28 15 29 16 30
DOCKED: REMARK H PARENT 3 5
DOCKED: USER                              x       y       z     vdW  Elec       q    Type
DOCKED: USER                           _______ _______ _______ _____ _____    ______ ____
DOCKED: ROOT
DOCKED: ATOM      1  C   UNL     1     139.168  74.568 221.164 -0.15 -0.05    +0.216 C  
DOCKED: ENDROOT
DOCKED: BRANCH   1   2
DOCKED: ATOM      2  N   UNL     1     139.392  73.728 222.297 -0.10 +0.07    -0.342 N  
DOCKED: ATOM      3  C   UNL     1     139.407  72.323 222.109 -0.17 -0.05    +0.270 C  
DOCKED: ATOM      4  O   UNL     1     139.222  71.866 220.949 -0.05 +0.05    -0.268 OA 
DOCKED: ATOM      5  H   UNL     1     139.549  74.067 223.278 -0.49 -0.02    +0.164 HD 
DOCKED: BRANCH   3   6
DOCKED: ATOM      6  C   UNL     1     139.630  71.410 223.231 -0.29 -0.03    +0.128 A  
DOCKED: ATOM      7  C   UNL     1     139.324  70.083 223.111 -0.23 -0.01    +0.035 A  
DOCKED: ATOM      8  N   UNL     1     140.143  71.845 224.414 -0.25 +0.05    -0.243 NA 
DOCKED: ATOM      9  C   UNL     1     139.524  69.192 224.156 -0.27 -0.00    +0.013 A  
DOCKED: ATOM     10  C   UNL     1     140.343  70.984 225.441 -0.50 -0.01    +0.071 A  
DOCKED: ATOM     11  C   UNL     1     140.044  69.645 225.348 -0.44 -0.00    +0.002 A  
DOCKED: ATOM     12  C   UNL     1     140.861  71.441 226.626 -0.68 -0.00    +0.030 A  
DOCKED: ATOM     13  C   UNL     1     140.252  68.776 226.402 -0.55 -0.01    +0.030 A  
DOCKED: ATOM     14  C   UNL     1     141.074  70.591 227.683 -0.62 -0.00    +0.023 A  
DOCKED: ATOM     15  C   UNL     1     140.777  69.234 227.606 -0.59 -0.01    +0.041 A  
DOCKED: ATOM     16  Cl  UNL     1     141.049  68.156 228.953 -0.54 +0.02    -0.084 Cl 
DOCKED: ENDBRANCH   3   6
DOCKED: ENDBRANCH   1   2
DOCKED: BRANCH   1  17
DOCKED: ATOM     17  C   UNL     1     140.333  75.355 220.758 -0.16 -0.06    +0.242 C  
DOCKED: ATOM     18  O   UNL     1     141.479  74.811 220.859 -0.21 +0.07    -0.273 OA 
DOCKED: BRANCH  17  19
DOCKED: ATOM     19  N   UNL     1     140.158  76.679 220.274 -0.03 +0.10    -0.334 N  
DOCKED: ATOM     20  C   UNL     1     138.895  77.358 220.053 -0.05 -0.03    +0.120 C  
DOCKED: ATOM     21  C   UNL     1     141.224  77.622 219.897 -0.19 -0.05    +0.115 C  
DOCKED: ATOM     22  C   UNL     1     139.218  78.609 219.268 -0.06 -0.01    +0.024 C  
DOCKED: ATOM     23  C   UNL     1     140.574  78.263 218.694 -0.10 -0.01    +0.032 C  
DOCKED: BRANCH  21  24
DOCKED: ATOM     24  C   UNL     1     141.524  78.565 220.989 -0.33 +0.01    -0.025 A  
DOCKED: ATOM     25  C   UNL     1     141.894  79.860 220.702 -0.32 -0.00    +0.007 A  
DOCKED: ATOM     26  C   UNL     1     141.448  78.205 222.332 -0.44 -0.00    +0.007 A  
DOCKED: ATOM     27  C   UNL     1     142.187  80.793 221.694 -0.44 -0.01    +0.021 A  
DOCKED: ATOM     28  C   UNL     1     141.731  79.101 223.348 -0.58 -0.01    +0.021 A  
DOCKED: ATOM     29  C   UNL     1     142.097  80.386 223.007 -0.58 -0.01    +0.041 A  
DOCKED: ATOM     30  Cl  UNL     1     142.471  81.577 224.253 -0.51 +0.01    -0.084 Cl 
DOCKED: ENDBRANCH  21  24
DOCKED: ENDBRANCH  17  19
DOCKED: ENDBRANCH   1  17
DOCKED: TORSDOF 5
DOCKED: TER
DOCKED: ENDMDL
________________________________________________________________________________


    FINAL DOCKED STATE:
    ________________________


Run:   10 / 20
Time taken for this run:   0.029s

DOCKED: MODEL        10
DOCKED: USER    Run = 10
DOCKED: USER
DOCKED: USER    Estimated Free Energy of Binding    =  -8.52 kcal/mol  [=(1)+(2)+(3)-(4)]
DOCKED: USER
DOCKED: USER    (1) Final Intermolecular Energy     = -10.01 kcal/mol
DOCKED: USER        vdW + Hbond + desolv Energy     =  -9.99 kcal/mol
DOCKED: USER        Electrostatic Energy            =  -0.01 kcal/mol
DOCKED: USER        Moving Ligand-Fixed Receptor    = -10.01 kcal/mol
DOCKED: USER        Moving Ligand-Moving Receptor   =  +0.00 kcal/mol
DOCKED: USER    (2) Final Total Internal Energy     =  -1.39 kcal/mol
DOCKED: USER    (3) Torsional Free Energy           =  +1.49 kcal/mol
DOCKED: USER    (4) Unbound System's Energy         =  -1.39 kcal/mol
DOCKED: USER
DOCKED: USER
DOCKED: REMARK SMILES O=C(NCC(=O)N1CCC[C@H]1c1ccc(Cl)cc1)c1ccc2cc(Cl)ccc2n1
DOCKED: REMARK SMILES IDX 4 1 3 2 2 3 1 4 19 6 20 7 29 8 21 9 28 10 22 11 27 12 23 13
DOCKED: REMARK SMILES IDX 26 14 24 15 25 16 5 17 6 18 7 19 8 20 11 21 9 22 10 23 12 24
DOCKED: REMARK SMILES IDX 13 25 18 26 14 27 17 28 15 29 16 30
DOCKED: REMARK H PARENT 3 5
DOCKED: USER                              x       y       z     vdW  Elec       q    Type
DOCKED: USER                           _______ _______ _______ _____ _____    ______ ____
DOCKED: ROOT
DOCKED: ATOM      1  C   UNL     1     138.865  74.286 221.209 -0.14 -0.05    +0.216 C  
DOCKED: ENDROOT
DOCKED: BRANCH   1   2
DOCKED: ATOM      2  N   UNL     1     139.193  73.481 222.342 -0.08 +0.09    -0.342 N  
DOCKED: ATOM      3  C   UNL     1     139.022  72.076 222.250 -0.15 -0.06    +0.270 C  
DOCKED: ATOM      4  O   UNL     1     138.588  71.590 221.172 -0.05 +0.05    -0.268 OA 
DOCKED: ATOM      5  H   UNL     1     139.557  73.846 223.257 -0.49 -0.03    +0.164 HD 
DOCKED: BRANCH   3   6
DOCKED: ATOM      6  C   UNL     1     139.339  71.200 223.378 -0.27 -0.03    +0.128 A  
DOCKED: ATOM      7  C   UNL     1     139.068  69.862 223.306 -0.24 -0.01    +0.035 A  
DOCKED: ATOM      8  N   UNL     1     139.907  71.678 224.517 -0.23 +0.05    -0.243 NA 
DOCKED: ATOM      9  C   UNL     1     139.357  69.003 224.359 -0.31 -0.00    +0.013 A  
DOCKED: ATOM     10  C   UNL     1     140.194  70.849 225.550 -0.49 -0.01    +0.071 A  
DOCKED: ATOM     11  C   UNL     1     139.932  69.501 225.506 -0.45 -0.00    +0.002 A  
DOCKED: ATOM     12  C   UNL     1     140.766  71.351 226.692 -0.67 -0.00    +0.030 A  
DOCKED: ATOM     13  C   UNL     1     140.228  68.664 226.566 -0.57 -0.01    +0.030 A  
DOCKED: ATOM     14  C   UNL     1     141.068  70.534 227.754 -0.62 -0.00    +0.023 A  
DOCKED: ATOM     15  C   UNL     1     140.808  69.168 227.725 -0.59 -0.01    +0.041 A  
DOCKED: ATOM     16  Cl  UNL     1     141.193  68.132 229.079 -0.47 +0.02    -0.084 Cl 
DOCKED: ENDBRANCH   3   6
DOCKED: ENDBRANCH   1   2
DOCKED: BRANCH   1  17
DOCKED: ATOM     17  C   UNL     1     138.801  75.721 221.490 -0.16 -0.05    +0.242 C  
DOCKED: ATOM     18  O   UNL     1     138.003  76.111 222.401 -0.21 +0.06    -0.273 OA 
DOCKED: BRANCH  17  19
DOCKED: ATOM     19  N   UNL     1     139.614  76.623 220.751 -0.04 +0.09    -0.334 N  
DOCKED: ATOM     20  C   UNL     1     139.176  77.515 219.696 -0.05 -0.03    +0.120 C  
DOCKED: ATOM     21  C   UNL     1     141.064  76.827 220.912 -0.26 -0.05    +0.115 C  
DOCKED: ATOM     22  C   UNL     1     140.431  78.039 219.034 -0.11 -0.01    +0.024 C  
DOCKED: ATOM     23  C   UNL     1     141.450  77.007 219.462 -0.21 -0.01    +0.032 C  
DOCKED: BRANCH  21  24
DOCKED: ATOM     24  C   UNL     1     141.356  77.996 221.758 -0.36 +0.01    -0.025 A  
DOCKED: ATOM     25  C   UNL     1     142.172  79.002 221.290 -0.25 -0.00    +0.007 A  
DOCKED: ATOM     26  C   UNL     1     140.833  78.142 223.041 -0.45 -0.00    +0.007 A  
DOCKED: ATOM     27  C   UNL     1     142.481  80.130 222.048 -0.49 -0.01    +0.021 A  
DOCKED: ATOM     28  C   UNL     1     141.115  79.247 223.826 -0.55 -0.00    +0.021 A  
DOCKED: ATOM     29  C   UNL     1     141.939  80.226 223.310 -0.58 -0.01    +0.041 A  
DOCKED: ATOM     30  Cl  UNL     1     142.337  81.659 224.258 -0.46 +0.01    -0.084 Cl 
DOCKED: ENDBRANCH  21  24
DOCKED: ENDBRANCH  17  19
DOCKED: ENDBRANCH   1  17
DOCKED: TORSDOF 5
DOCKED: TER
DOCKED: ENDMDL
________________________________________________________________________________


    FINAL DOCKED STATE:
    ________________________


Run:   11 / 20
Time taken for this run:   0.029s

DOCKED: MODEL        11
DOCKED: USER    Run = 11
DOCKED: USER
DOCKED: USER    Estimated Free Energy of Binding    =  -8.73 kcal/mol  [=(1)+(2)+(3)-(4)]
DOCKED: USER
DOCKED: USER    (1) Final Intermolecular Energy     = -10.22 kcal/mol
DOCKED: USER        vdW + Hbond + desolv Energy     = -10.13 kcal/mol
DOCKED: USER        Electrostatic Energy            =  -0.09 kcal/mol
DOCKED: USER        Moving Ligand-Fixed Receptor    = -10.22 kcal/mol
DOCKED: USER        Moving Ligand-Moving Receptor   =  +0.00 kcal/mol
DOCKED: USER    (2) Final Total Internal Energy     =  -1.26 kcal/mol
DOCKED: USER    (3) Torsional Free Energy           =  +1.49 kcal/mol
DOCKED: USER    (4) Unbound System's Energy         =  -1.26 kcal/mol
DOCKED: USER
DOCKED: USER
DOCKED: REMARK SMILES O=C(NCC(=O)N1CCC[C@H]1c1ccc(Cl)cc1)c1ccc2cc(Cl)ccc2n1
DOCKED: REMARK SMILES IDX 4 1 3 2 2 3 1 4 19 6 20 7 29 8 21 9 28 10 22 11 27 12 23 13
DOCKED: REMARK SMILES IDX 26 14 24 15 25 16 5 17 6 18 7 19 8 20 11 21 9 22 10 23 12 24
DOCKED: REMARK SMILES IDX 13 25 18 26 14 27 17 28 15 29 16 30
DOCKED: REMARK H PARENT 3 5
DOCKED: USER                              x       y       z     vdW  Elec       q    Type
DOCKED: USER                           _______ _______ _______ _____ _____    ______ ____
DOCKED: ROOT
DOCKED: ATOM      1  C   UNL     1     138.852  74.546 220.973 -0.12 -0.05    +0.216 C  
DOCKED: ENDROOT
DOCKED: BRANCH   1   2
DOCKED: ATOM      2  N   UNL     1     138.982  73.689 222.107 -0.09 +0.09    -0.342 N  
DOCKED: ATOM      3  C   UNL     1     139.565  72.409 221.929 -0.17 -0.05    +0.270 C  
DOCKED: ATOM      4  O   UNL     1     139.948  72.075 220.776 -0.07 +0.05    -0.268 OA 
DOCKED: ATOM      5  H   UNL     1     138.675  73.929 223.083 -0.55 -0.11    +0.164 HD 
DOCKED: BRANCH   3   6
DOCKED: ATOM      6  C   UNL     1     139.723  71.486 223.053 -0.28 -0.02    +0.128 A  
DOCKED: ATOM      7  C   UNL     1     139.344  70.178 222.928 -0.22 -0.01    +0.035 A  
DOCKED: ATOM      8  N   UNL     1     140.245  71.891 224.243 -0.27 +0.04    -0.243 NA 
DOCKED: ATOM      9  C   UNL     1     139.482  69.277 223.976 -0.26 -0.00    +0.013 A  
DOCKED: ATOM     10  C   UNL     1     140.383  71.020 225.272 -0.49 -0.01    +0.071 A  
DOCKED: ATOM     11  C   UNL     1     140.012  69.700 225.174 -0.42 -0.00    +0.002 A  
DOCKED: ATOM     12  C   UNL     1     140.912  71.447 226.463 -0.67 -0.00    +0.030 A  
DOCKED: ATOM     13  C   UNL     1     140.157  68.820 226.230 -0.53 -0.01    +0.030 A  
DOCKED: ATOM     14  C   UNL     1     141.064  70.587 227.523 -0.62 -0.00    +0.023 A  
DOCKED: ATOM     15  C   UNL     1     140.692  69.249 227.440 -0.58 -0.01    +0.041 A  
DOCKED: ATOM     16  Cl  UNL     1     140.887  68.157 228.790 -0.62 +0.02    -0.084 Cl 
DOCKED: ENDBRANCH   3   6
DOCKED: ENDBRANCH   1   2
DOCKED: BRANCH   1  17
DOCKED: ATOM     17  C   UNL     1     138.768  75.970 221.301 -0.14 -0.05    +0.242 C  
DOCKED: ATOM     18  O   UNL     1     138.035  76.309 222.285 -0.19 +0.06    -0.273 OA 
DOCKED: BRANCH  17  19
DOCKED: ATOM     19  N   UNL     1     139.491  76.918 220.527 -0.03 +0.09    -0.334 N  
DOCKED: ATOM     20  C   UNL     1     138.934  77.872 219.588 -0.03 -0.03    +0.120 C  
DOCKED: ATOM     21  C   UNL     1     140.950  77.115 220.526 -0.21 -0.05    +0.115 C  
DOCKED: ATOM     22  C   UNL     1     140.103  78.438 218.814 -0.08 -0.01    +0.024 C  
DOCKED: ATOM     23  C   UNL     1     141.162  77.385 219.054 -0.16 -0.01    +0.032 C  
DOCKED: BRANCH  21  24
DOCKED: ATOM     24  C   UNL     1     141.347  78.232 221.401 -0.35 +0.01    -0.025 A  
DOCKED: ATOM     25  C   UNL     1     141.231  78.114 222.768 -0.48 -0.00    +0.007 A  
DOCKED: ATOM     26  C   UNL     1     141.848  79.433 220.903 -0.33 -0.00    +0.007 A  
DOCKED: ATOM     27  C   UNL     1     141.592  79.138 223.642 -0.59 -0.01    +0.021 A  
DOCKED: ATOM     28  C   UNL     1     142.217  80.474 221.737 -0.46 -0.01    +0.021 A  
DOCKED: ATOM     29  C   UNL     1     142.081  80.305 223.099 -0.58 -0.01    +0.041 A  
DOCKED: ATOM     30  Cl  UNL     1     142.534  81.592 224.216 -0.54 +0.01    -0.084 Cl 
DOCKED: ENDBRANCH  21  24
DOCKED: ENDBRANCH  17  19
DOCKED: ENDBRANCH   1  17
DOCKED: TORSDOF 5
DOCKED: TER
DOCKED: ENDMDL
________________________________________________________________________________


    FINAL DOCKED STATE:
    ________________________


Run:   12 / 20
Time taken for this run:   0.029s

DOCKED: MODEL        12
DOCKED: USER    Run = 12
DOCKED: USER
DOCKED: USER    Estimated Free Energy of Binding    =  -8.44 kcal/mol  [=(1)+(2)+(3)-(4)]
DOCKED: USER
DOCKED: USER    (1) Final Intermolecular Energy     =  -9.93 kcal/mol
DOCKED: USER        vdW + Hbond + desolv Energy     =  -9.84 kcal/mol
DOCKED: USER        Electrostatic Energy            =  -0.09 kcal/mol
DOCKED: USER        Moving Ligand-Fixed Receptor    =  -9.93 kcal/mol
DOCKED: USER        Moving Ligand-Moving Receptor   =  +0.00 kcal/mol
DOCKED: USER    (2) Final Total Internal Energy     =  -1.67 kcal/mol
DOCKED: USER    (3) Torsional Free Energy           =  +1.49 kcal/mol
DOCKED: USER    (4) Unbound System's Energy         =  -1.67 kcal/mol
DOCKED: USER
DOCKED: USER
DOCKED: REMARK SMILES O=C(NCC(=O)N1CCC[C@H]1c1ccc(Cl)cc1)c1ccc2cc(Cl)ccc2n1
DOCKED: REMARK SMILES IDX 4 1 3 2 2 3 1 4 19 6 20 7 29 8 21 9 28 10 22 11 27 12 23 13
DOCKED: REMARK SMILES IDX 26 14 24 15 25 16 5 17 6 18 7 19 8 20 11 21 9 22 10 23 12 24
DOCKED: REMARK SMILES IDX 13 25 18 26 14 27 17 28 15 29 16 30
DOCKED: REMARK H PARENT 3 5
DOCKED: USER                              x       y       z     vdW  Elec       q    Type
DOCKED: USER                           _______ _______ _______ _____ _____    ______ ____
DOCKED: ROOT
DOCKED: ATOM      1  C   UNL     1     138.539  74.472 220.884 -0.10 -0.05    +0.216 C  
DOCKED: ENDROOT
DOCKED: BRANCH   1   2
DOCKED: ATOM      2  N   UNL     1     138.776  73.650 222.027 -0.09 +0.10    -0.342 N  
DOCKED: ATOM      3  C   UNL     1     139.181  72.306 221.827 -0.14 -0.06    +0.270 C  
DOCKED: ATOM      4  O   UNL     1     139.318  71.886 220.647 -0.04 +0.05    -0.268 OA 
DOCKED: ATOM      5  H   UNL     1     138.674  73.960 223.025 -0.55 -0.10    +0.164 HD 
DOCKED: BRANCH   3   6
DOCKED: ATOM      6  C   UNL     1     139.437  71.415 222.959 -0.25 -0.03    +0.128 A  
DOCKED: ATOM      7  C   UNL     1     139.091  70.095 222.888 -0.21 -0.01    +0.035 A  
DOCKED: ATOM      8  N   UNL     1     140.021  71.864 224.103 -0.26 +0.05    -0.243 NA 
DOCKED: ATOM      9  C   UNL     1     139.321  69.223 223.944 -0.27 -0.00    +0.013 A  
DOCKED: ATOM     10  C   UNL     1     140.251  71.022 225.140 -0.47 -0.01    +0.071 A  
DOCKED: ATOM     11  C   UNL     1     139.913  69.690 225.096 -0.41 -0.00    +0.002 A  
DOCKED: ATOM     12  C   UNL     1     140.840  71.493 226.286 -0.65 -0.00    +0.030 A  
DOCKED: ATOM     13  C   UNL     1     140.151  68.841 226.160 -0.52 -0.01    +0.030 A  
DOCKED: ATOM     14  C   UNL     1     141.085  70.663 227.352 -0.62 -0.00    +0.023 A  
DOCKED: ATOM     15  C   UNL     1     140.748  69.313 227.324 -0.57 -0.01    +0.041 A  
DOCKED: ATOM     16  Cl  UNL     1     141.061  68.261 228.683 -0.71 +0.02    -0.084 Cl 
DOCKED: ENDBRANCH   3   6
DOCKED: ENDBRANCH   1   2
DOCKED: BRANCH   1  17
DOCKED: ATOM     17  C   UNL     1     138.465  75.904 221.177 -0.12 -0.05    +0.242 C  
DOCKED: ATOM     18  O   UNL     1     137.311  76.437 221.235 -0.06 +0.05    -0.273 OA 
DOCKED: BRANCH  17  19
DOCKED: ATOM     19  N   UNL     1     139.659  76.645 221.384 -0.10 +0.08    -0.334 N  
DOCKED: ATOM     20  C   UNL     1     140.144  77.168 222.647 -0.23 -0.03    +0.120 C  
DOCKED: ATOM     21  C   UNL     1     140.639  77.031 220.354 -0.17 -0.04    +0.115 C  
DOCKED: ATOM     22  C   UNL     1     141.272  78.117 222.308 -0.42 -0.01    +0.024 C  
DOCKED: ATOM     23  C   UNL     1     140.990  78.414 220.852 -0.27 -0.01    +0.032 C  
DOCKED: BRANCH  21  24
DOCKED: ATOM     24  C   UNL     1     141.781  76.101 220.319 -0.27 +0.01    -0.025 A  
DOCKED: ATOM     25  C   UNL     1     141.662  74.837 220.853 -0.31 -0.00    +0.007 A  
DOCKED: ATOM     26  C   UNL     1     143.009  76.443 219.756 -0.37 -0.00    +0.007 A  
DOCKED: ATOM     27  C   UNL     1     142.709  73.918 220.846 -0.27 -0.01    +0.021 A  
DOCKED: ATOM     28  C   UNL     1     144.074  75.559 219.728 -0.32 -0.01    +0.021 A  
DOCKED: ATOM     29  C   UNL     1     143.902  74.306 220.277 -0.40 -0.01    +0.041 A  
DOCKED: ATOM     30  Cl  UNL     1     145.219  73.133 220.274 -0.68 +0.00    -0.084 Cl 
DOCKED: ENDBRANCH  21  24
DOCKED: ENDBRANCH  17  19
DOCKED: ENDBRANCH   1  17
DOCKED: TORSDOF 5
DOCKED: TER
DOCKED: ENDMDL
________________________________________________________________________________


    FINAL DOCKED STATE:
    ________________________


Run:   13 / 20
Time taken for this run:   0.029s

DOCKED: MODEL        13
DOCKED: USER    Run = 13
DOCKED: USER
DOCKED: USER    Estimated Free Energy of Binding    =  -8.50 kcal/mol  [=(1)+(2)+(3)-(4)]
DOCKED: USER
DOCKED: USER    (1) Final Intermolecular Energy     =  -9.99 kcal/mol
DOCKED: USER        vdW + Hbond + desolv Energy     =  -9.88 kcal/mol
DOCKED: USER        Electrostatic Energy            =  -0.10 kcal/mol
DOCKED: USER        Moving Ligand-Fixed Receptor    =  -9.99 kcal/mol
DOCKED: USER        Moving Ligand-Moving Receptor   =  +0.00 kcal/mol
DOCKED: USER    (2) Final Total Internal Energy     =  -1.66 kcal/mol
DOCKED: USER    (3) Torsional Free Energy           =  +1.49 kcal/mol
DOCKED: USER    (4) Unbound System's Energy         =  -1.66 kcal/mol
DOCKED: USER
DOCKED: USER
DOCKED: REMARK SMILES O=C(NCC(=O)N1CCC[C@H]1c1ccc(Cl)cc1)c1ccc2cc(Cl)ccc2n1
DOCKED: REMARK SMILES IDX 4 1 3 2 2 3 1 4 19 6 20 7 29 8 21 9 28 10 22 11 27 12 23 13
DOCKED: REMARK SMILES IDX 26 14 24 15 25 16 5 17 6 18 7 19 8 20 11 21 9 22 10 23 12 24
DOCKED: REMARK SMILES IDX 13 25 18 26 14 27 17 28 15 29 16 30
DOCKED: REMARK H PARENT 3 5
DOCKED: USER                              x       y       z     vdW  Elec       q    Type
DOCKED: USER                           _______ _______ _______ _____ _____    ______ ____
DOCKED: ROOT
DOCKED: ATOM      1  C   UNL     1     138.536  74.525 220.953 -0.10 -0.05    +0.216 C  
DOCKED: ENDROOT
DOCKED: BRANCH   1   2
DOCKED: ATOM      2  N   UNL     1     138.739  73.682 222.087 -0.07 +0.10    -0.342 N  
DOCKED: ATOM      3  C   UNL     1     139.280  72.388 221.884 -0.15 -0.06    +0.270 C  
DOCKED: ATOM      4  O   UNL     1     139.564  72.029 220.710 -0.05 +0.05    -0.268 OA 
DOCKED: ATOM      5  H   UNL     1     138.515  73.942 223.080 -0.55 -0.12    +0.164 HD 
DOCKED: BRANCH   3   6
DOCKED: ATOM      6  C   UNL     1     139.509  71.477 223.007 -0.26 -0.03    +0.128 A  
DOCKED: ATOM      7  C   UNL     1     139.171  70.157 222.902 -0.22 -0.01    +0.035 A  
DOCKED: ATOM      8  N   UNL     1     140.058  71.907 224.175 -0.24 +0.05    -0.243 NA 
DOCKED: ATOM      9  C   UNL     1     139.376  69.267 223.948 -0.27 -0.00    +0.013 A  
DOCKED: ATOM     10  C   UNL     1     140.262  71.048 225.203 -0.48 -0.01    +0.071 A  
DOCKED: ATOM     11  C   UNL     1     139.932  69.716 225.125 -0.42 -0.00    +0.002 A  
DOCKED: ATOM     12  C   UNL     1     140.816  71.501 226.373 -0.66 -0.00    +0.030 A  
DOCKED: ATOM     13  C   UNL     1     140.144  68.848 226.180 -0.52 -0.01    +0.030 A  
DOCKED: ATOM     14  C   UNL     1     141.035  70.653 227.431 -0.63 -0.00    +0.023 A  
DOCKED: ATOM     15  C   UNL     1     140.706  69.302 227.368 -0.58 -0.01    +0.041 A  
DOCKED: ATOM     16  Cl  UNL     1     140.985  68.226 228.716 -0.69 +0.02    -0.084 Cl 
DOCKED: ENDBRANCH   3   6
DOCKED: ENDBRANCH   1   2
DOCKED: BRANCH   1  17
DOCKED: ATOM     17  C   UNL     1     138.483  75.954 221.267 -0.12 -0.05    +0.242 C  
DOCKED: ATOM     18  O   UNL     1     137.336  76.485 221.417 -0.07 +0.06    -0.273 OA 
DOCKED: BRANCH  17  19
DOCKED: ATOM     19  N   UNL     1     139.689  76.695 221.393 -0.10 +0.09    -0.334 N  
DOCKED: ATOM     20  C   UNL     1     140.213  77.291 222.607 -0.27 -0.03    +0.120 C  
DOCKED: ATOM     21  C   UNL     1     140.642  77.006 220.315 -0.17 -0.04    +0.115 C  
DOCKED: ATOM     22  C   UNL     1     141.339  78.205 222.178 -0.41 -0.01    +0.024 C  
DOCKED: ATOM     23  C   UNL     1     141.018  78.413 220.715 -0.27 -0.01    +0.032 C  
DOCKED: BRANCH  21  24
DOCKED: ATOM     24  C   UNL     1     141.775  76.064 220.306 -0.27 +0.01    -0.025 A  
DOCKED: ATOM     25  C   UNL     1     141.632  74.804 220.843 -0.30 -0.00    +0.007 A  
DOCKED: ATOM     26  C   UNL     1     143.017  76.391 219.766 -0.37 -0.00    +0.007 A  
DOCKED: ATOM     27  C   UNL     1     142.670  73.875 220.860 -0.25 -0.00    +0.021 A  
DOCKED: ATOM     28  C   UNL     1     144.073  75.497 219.764 -0.33 -0.01    +0.021 A  
DOCKED: ATOM     29  C   UNL     1     143.877  74.248 220.314 -0.39 -0.01    +0.041 A  
DOCKED: ATOM     30  Cl  UNL     1     145.182  73.062 220.342 -0.67 +0.01    -0.084 Cl 
DOCKED: ENDBRANCH  21  24
DOCKED: ENDBRANCH  17  19
DOCKED: ENDBRANCH   1  17
DOCKED: TORSDOF 5
DOCKED: TER
DOCKED: ENDMDL
________________________________________________________________________________


    FINAL DOCKED STATE:
    ________________________


Run:   14 / 20
Time taken for this run:   0.029s

DOCKED: MODEL        14
DOCKED: USER    Run = 14
DOCKED: USER
DOCKED: USER    Estimated Free Energy of Binding    =  -8.10 kcal/mol  [=(1)+(2)+(3)-(4)]
DOCKED: USER
DOCKED: USER    (1) Final Intermolecular Energy     =  -9.59 kcal/mol
DOCKED: USER        vdW + Hbond + desolv Energy     =  -9.53 kcal/mol
DOCKED: USER        Electrostatic Energy            =  -0.06 kcal/mol
DOCKED: USER        Moving Ligand-Fixed Receptor    =  -9.59 kcal/mol
DOCKED: USER        Moving Ligand-Moving Receptor   =  +0.00 kcal/mol
DOCKED: USER    (2) Final Total Internal Energy     =  -1.70 kcal/mol
DOCKED: USER    (3) Torsional Free Energy           =  +1.49 kcal/mol
DOCKED: USER    (4) Unbound System's Energy         =  -1.70 kcal/mol
DOCKED: USER
DOCKED: USER
DOCKED: REMARK SMILES O=C(NCC(=O)N1CCC[C@H]1c1ccc(Cl)cc1)c1ccc2cc(Cl)ccc2n1
DOCKED: REMARK SMILES IDX 4 1 3 2 2 3 1 4 19 6 20 7 29 8 21 9 28 10 22 11 27 12 23 13
DOCKED: REMARK SMILES IDX 26 14 24 15 25 16 5 17 6 18 7 19 8 20 11 21 9 22 10 23 12 24
DOCKED: REMARK SMILES IDX 13 25 18 26 14 27 17 28 15 29 16 30
DOCKED: REMARK H PARENT 3 5
DOCKED: USER                              x       y       z     vdW  Elec       q    Type
DOCKED: USER                           _______ _______ _______ _____ _____    ______ ____
DOCKED: ROOT
DOCKED: ATOM      1  C   UNL     1     138.223  73.493 220.698 -0.06 -0.05    +0.216 C  
DOCKED: ENDROOT
DOCKED: BRANCH   1   2
DOCKED: ATOM      2  N   UNL     1     138.720  73.068 221.967 -0.10 +0.09    -0.342 N  
DOCKED: ATOM      3  C   UNL     1     139.107  71.714 222.127 -0.14 -0.06    +0.270 C  
DOCKED: ATOM      4  O   UNL     1     138.999  70.934 221.142 -0.05 +0.05    -0.268 OA 
DOCKED: ATOM      5  H   UNL     1     138.826  73.684 222.811 -0.54 -0.08    +0.164 HD 
DOCKED: BRANCH   3   6
DOCKED: ATOM      6  C   UNL     1     139.622  71.218 223.404 -0.29 -0.03    +0.128 A  
DOCKED: ATOM      7  C   UNL     1     140.541  71.948 224.105 -0.27 -0.00    +0.035 A  
DOCKED: ATOM      8  N   UNL     1     139.210  70.033 223.929 -0.16 +0.04    -0.243 NA 
DOCKED: ATOM      9  C   UNL     1     141.049  71.507 225.319 -0.52 -0.00    +0.013 A  
DOCKED: ATOM     10  C   UNL     1     139.699  69.592 225.113 -0.36 -0.01    +0.071 A  
DOCKED: ATOM     11  C   UNL     1     140.623  70.305 225.840 -0.54 -0.00    +0.002 A  
DOCKED: ATOM     12  C   UNL     1     139.271  68.394 225.627 -0.48 -0.00    +0.030 A  
DOCKED: ATOM     13  C   UNL     1     141.115  69.846 227.047 -0.53 -0.01    +0.030 A  
DOCKED: ATOM     14  C   UNL     1     139.749  67.923 226.825 -0.63 -0.00    +0.023 A  
DOCKED: ATOM     15  C   UNL     1     140.685  68.632 227.571 -0.63 -0.01    +0.041 A  
DOCKED: ATOM     16  Cl  UNL     1     141.291  68.029 229.095 -0.39 +0.02    -0.084 Cl 
DOCKED: ENDBRANCH   3   6
DOCKED: ENDBRANCH   1   2
DOCKED: BRANCH   1  17
DOCKED: ATOM     17  C   UNL     1     138.284  74.940 220.482 -0.06 -0.05    +0.242 C  
DOCKED: ATOM     18  O   UNL     1     137.340  75.480 219.822 -0.01 +0.05    -0.273 OA 
DOCKED: BRANCH  17  19
DOCKED: ATOM     19  N   UNL     1     139.374  75.687 221.005 -0.07 +0.08    -0.334 N  
DOCKED: ATOM     20  C   UNL     1     139.578  76.064 222.390 -0.26 -0.02    +0.120 C  
DOCKED: ATOM     21  C   UNL     1     140.511  76.227 220.240 -0.15 -0.04    +0.115 C  
DOCKED: ATOM     22  C   UNL     1     140.696  77.082 222.393 -0.41 -0.01    +0.024 C  
DOCKED: ATOM     23  C   UNL     1     140.683  77.548 220.954 -0.26 -0.01    +0.032 C  
DOCKED: BRANCH  21  24
DOCKED: ATOM     24  C   UNL     1     141.688  75.345 220.324 -0.26 +0.01    -0.025 A  
DOCKED: ATOM     25  C   UNL     1     142.933  75.819 219.976 -0.34 -0.00    +0.007 A  
DOCKED: ATOM     26  C   UNL     1     141.603  74.021 220.749 -0.27 -0.00    +0.007 A  
DOCKED: ATOM     27  C   UNL     1     144.079  75.028 220.036 -0.43 -0.01    +0.021 A  
DOCKED: ATOM     28  C   UNL     1     142.717  73.203 220.823 -0.27 -0.00    +0.021 A  
DOCKED: ATOM     29  C   UNL     1     143.941  73.726 220.463 -0.39 -0.01    +0.041 A  
DOCKED: ATOM     30  Cl  UNL     1     145.400  72.737 220.535 -0.65 +0.00    -0.084 Cl 
DOCKED: ENDBRANCH  21  24
DOCKED: ENDBRANCH  17  19
DOCKED: ENDBRANCH   1  17
DOCKED: TORSDOF 5
DOCKED: TER
DOCKED: ENDMDL
________________________________________________________________________________


    FINAL DOCKED STATE:
    ________________________


Run:   15 / 20
Time taken for this run:   0.029s

DOCKED: MODEL        15
DOCKED: USER    Run = 15
DOCKED: USER
DOCKED: USER    Estimated Free Energy of Binding    =  -8.10 kcal/mol  [=(1)+(2)+(3)-(4)]
DOCKED: USER
DOCKED: USER    (1) Final Intermolecular Energy     =  -9.59 kcal/mol
DOCKED: USER        vdW + Hbond + desolv Energy     =  -9.52 kcal/mol
DOCKED: USER        Electrostatic Energy            =  -0.06 kcal/mol
DOCKED: USER        Moving Ligand-Fixed Receptor    =  -9.59 kcal/mol
DOCKED: USER        Moving Ligand-Moving Receptor   =  +0.00 kcal/mol
DOCKED: USER    (2) Final Total Internal Energy     =  -1.81 kcal/mol
DOCKED: USER    (3) Torsional Free Energy           =  +1.49 kcal/mol
DOCKED: USER    (4) Unbound System's Energy         =  -1.81 kcal/mol
DOCKED: USER
DOCKED: USER
DOCKED: REMARK SMILES O=C(NCC(=O)N1CCC[C@H]1c1ccc(Cl)cc1)c1ccc2cc(Cl)ccc2n1
DOCKED: REMARK SMILES IDX 4 1 3 2 2 3 1 4 19 6 20 7 29 8 21 9 28 10 22 11 27 12 23 13
DOCKED: REMARK SMILES IDX 26 14 24 15 25 16 5 17 6 18 7 19 8 20 11 21 9 22 10 23 12 24
DOCKED: REMARK SMILES IDX 13 25 18 26 14 27 17 28 15 29 16 30
DOCKED: REMARK H PARENT 3 5
DOCKED: USER                              x       y       z     vdW  Elec       q    Type
DOCKED: USER                           _______ _______ _______ _____ _____    ______ ____
DOCKED: ROOT
DOCKED: ATOM      1  C   UNL     1     138.320  74.228 220.656 -0.07 -0.05    +0.216 C  
DOCKED: ENDROOT
DOCKED: BRANCH   1   2
DOCKED: ATOM      2  N   UNL     1     138.638  73.485 221.834 -0.10 +0.09    -0.342 N  
DOCKED: ATOM      3  C   UNL     1     138.867  72.091 221.717 -0.11 -0.06    +0.270 C  
DOCKED: ATOM      4  O   UNL     1     138.783  71.558 220.579 -0.03 +0.05    -0.268 OA 
DOCKED: ATOM      5  H   UNL     1     138.717  73.890 222.799 -0.55 -0.08    +0.164 HD 
DOCKED: BRANCH   3   6
DOCKED: ATOM      6  C   UNL     1     139.195  71.277 222.888 -0.23 -0.03    +0.128 A  
DOCKED: ATOM      7  C   UNL     1     138.888  69.945 222.908 -0.21 -0.01    +0.035 A  
DOCKED: ATOM      8  N   UNL     1     139.808  71.809 223.980 -0.23 +0.06    -0.243 NA 
DOCKED: ATOM      9  C   UNL     1     139.185  69.145 224.004 -0.30 -0.00    +0.013 A  
DOCKED: ATOM     10  C   UNL     1     140.104  71.038 225.054 -0.46 -0.01    +0.071 A  
DOCKED: ATOM     11  C   UNL     1     139.807  69.697 225.101 -0.41 -0.00    +0.002 A  
DOCKED: ATOM     12  C   UNL     1     140.722  71.593 226.146 -0.61 -0.00    +0.030 A  
DOCKED: ATOM     13  C   UNL     1     140.112  68.920 226.203 -0.52 -0.01    +0.030 A  
DOCKED: ATOM     14  C   UNL     1     141.034  70.836 227.248 -0.65 -0.00    +0.023 A  
DOCKED: ATOM     15  C   UNL     1     140.739  69.478 227.312 -0.56 -0.01    +0.041 A  
DOCKED: ATOM     16  Cl  UNL     1     141.137  68.518 228.716 -0.68 +0.02    -0.084 Cl 
DOCKED: ENDBRANCH   3   6
DOCKED: ENDBRANCH   1   2
DOCKED: BRANCH   1  17
DOCKED: ATOM     17  C   UNL     1     138.341  75.680 220.837 -0.08 -0.05    +0.242 C  
DOCKED: ATOM     18  O   UNL     1     137.274  76.324 220.580 -0.03 +0.05    -0.273 OA 
DOCKED: BRANCH  17  19
DOCKED: ATOM     19  N   UNL     1     139.529  76.320 221.285 -0.09 +0.08    -0.334 N  
DOCKED: ATOM     20  C   UNL     1     139.864  76.657 222.654 -0.14 -0.02    +0.120 C  
DOCKED: ATOM     21  C   UNL     1     140.652  76.767 220.444 -0.18 -0.04    +0.115 C  
DOCKED: ATOM     22  C   UNL     1     141.067  77.571 222.584 -0.42 -0.01    +0.024 C  
DOCKED: ATOM     23  C   UNL     1     140.992  78.057 221.153 -0.30 -0.01    +0.032 C  
DOCKED: BRANCH  21  24
DOCKED: ATOM     24  C   UNL     1     141.747  75.783 220.434 -0.27 +0.01    -0.025 A  
DOCKED: ATOM     25  C   UNL     1     143.003  76.150 220.005 -0.30 -0.00    +0.007 A  
DOCKED: ATOM     26  C   UNL     1     141.574  74.464 220.850 -0.29 -0.00    +0.007 A  
DOCKED: ATOM     27  C   UNL     1     144.075  75.260 219.976 -0.40 -0.01    +0.021 A  
DOCKED: ATOM     28  C   UNL     1     142.612  73.550 220.836 -0.27 -0.00    +0.021 A  
DOCKED: ATOM     29  C   UNL     1     143.851  73.968 220.397 -0.39 -0.01    +0.041 A  
DOCKED: ATOM     30  Cl  UNL     1     145.216  72.852 220.355 -0.65 +0.00    -0.084 Cl 
DOCKED: ENDBRANCH  21  24
DOCKED: ENDBRANCH  17  19
DOCKED: ENDBRANCH   1  17
DOCKED: TORSDOF 5
DOCKED: TER
DOCKED: ENDMDL
________________________________________________________________________________


    FINAL DOCKED STATE:
    ________________________


Run:   16 / 20
Time taken for this run:   0.029s

DOCKED: MODEL        16
DOCKED: USER    Run = 16
DOCKED: USER
DOCKED: USER    Estimated Free Energy of Binding    =  -7.96 kcal/mol  [=(1)+(2)+(3)-(4)]
DOCKED: USER
DOCKED: USER    (1) Final Intermolecular Energy     =  -9.45 kcal/mol
DOCKED: USER        vdW + Hbond + desolv Energy     =  -9.34 kcal/mol
DOCKED: USER        Electrostatic Energy            =  -0.11 kcal/mol
DOCKED: USER        Moving Ligand-Fixed Receptor    =  -9.45 kcal/mol
DOCKED: USER        Moving Ligand-Moving Receptor   =  +0.00 kcal/mol
DOCKED: USER    (2) Final Total Internal Energy     =  -1.80 kcal/mol
DOCKED: USER    (3) Torsional Free Energy           =  +1.49 kcal/mol
DOCKED: USER    (4) Unbound System's Energy         =  -1.80 kcal/mol
DOCKED: USER
DOCKED: USER
DOCKED: REMARK SMILES O=C(NCC(=O)N1CCC[C@H]1c1ccc(Cl)cc1)c1ccc2cc(Cl)ccc2n1
DOCKED: REMARK SMILES IDX 4 1 3 2 2 3 1 4 19 6 20 7 29 8 21 9 28 10 22 11 27 12 23 13
DOCKED: REMARK SMILES IDX 26 14 24 15 25 16 5 17 6 18 7 19 8 20 11 21 9 22 10 23 12 24
DOCKED: REMARK SMILES IDX 13 25 18 26 14 27 17 28 15 29 16 30
DOCKED: REMARK H PARENT 3 5
DOCKED: USER                              x       y       z     vdW  Elec       q    Type
DOCKED: USER                           _______ _______ _______ _____ _____    ______ ____
DOCKED: ROOT
DOCKED: ATOM      1  C   UNL     1     139.081  74.866 221.121 -0.14 -0.05    +0.216 C  
DOCKED: ENDROOT
DOCKED: BRANCH   1   2
DOCKED: ATOM      2  N   UNL     1     139.258  73.991 222.235 -0.09 +0.08    -0.342 N  
DOCKED: ATOM      3  C   UNL     1     139.520  72.619 221.988 -0.17 -0.05    +0.270 C  
DOCKED: ATOM      4  O   UNL     1     139.587  72.223 220.794 -0.06 +0.05    -0.268 OA 
DOCKED: ATOM      5  H   UNL     1     139.209  74.280 223.243 -0.49 -0.07    +0.164 HD 
DOCKED: BRANCH   3   6
DOCKED: ATOM      6  C   UNL     1     139.709  71.674 223.088 -0.28 -0.03    +0.128 A  
DOCKED: ATOM      7  C   UNL     1     139.373  70.358 222.931 -0.23 -0.01    +0.035 A  
DOCKED: ATOM      8  N   UNL     1     140.218  72.065 224.288 -0.14 +0.05    -0.243 NA 
DOCKED: ATOM      9  C   UNL     1     139.541  69.436 223.955 -0.26 -0.00    +0.013 A  
DOCKED: ATOM     10  C   UNL     1     140.386  71.174 225.295 -0.50 -0.01    +0.071 A  
DOCKED: ATOM     11  C   UNL     1     140.058  69.846 225.163 -0.43 -0.00    +0.002 A  
DOCKED: ATOM     12  C   UNL     1     140.901  71.588 226.496 -0.67 -0.00    +0.030 A  
DOCKED: ATOM     13  C   UNL     1     140.233  68.945 226.197 -0.52 -0.01    +0.030 A  
DOCKED: ATOM     14  C   UNL     1     141.082  70.707 227.534 -0.63 -0.00    +0.023 A  
DOCKED: ATOM     15  C   UNL     1     140.754  69.360 227.418 -0.57 -0.01    +0.041 A  
DOCKED: ATOM     16  Cl  UNL     1     140.986  68.242 228.740 -0.67 +0.02    -0.084 Cl 
DOCKED: ENDBRANCH   3   6
DOCKED: ENDBRANCH   1   2
DOCKED: BRANCH   1  17
DOCKED: ATOM     17  C   UNL     1     139.645  76.203 221.310 -0.18 -0.06    +0.242 C  
DOCKED: ATOM     18  O   UNL     1     139.192  76.907 222.269 -0.22 +0.06    -0.273 OA 
DOCKED: BRANCH  17  19
DOCKED: ATOM     19  N   UNL     1     140.663  76.670 220.435 -0.07 +0.12    -0.334 N  
DOCKED: ATOM     20  C   UNL     1     141.477  77.857 220.614 -0.26 -0.06    +0.120 C  
DOCKED: ATOM     21  C   UNL     1     141.090  76.041 219.174 -0.11 -0.04    +0.115 C  
DOCKED: ATOM     22  C   UNL     1     142.190  78.083 219.299 -0.27 -0.02    +0.024 C  
DOCKED: ATOM     23  C   UNL     1     141.329  77.284 218.348 -0.14 -0.01    +0.032 C  
DOCKED: BRANCH  21  24
DOCKED: ATOM     24  C   UNL     1     142.290  75.208 219.362 -0.22 +0.01    -0.025 A  
DOCKED: ATOM     25  C   UNL     1     142.580  74.685 220.603 -0.30 -0.00    +0.007 A  
DOCKED: ATOM     26  C   UNL     1     143.168  74.913 218.322 -0.20 -0.00    +0.007 A  
DOCKED: ATOM     27  C   UNL     1     143.701  73.891 220.837 -0.32 -0.01    +0.021 A  
DOCKED: ATOM     28  C   UNL     1     144.292  74.128 218.513 -0.18 -0.01    +0.021 A  
DOCKED: ATOM     29  C   UNL     1     144.538  73.629 219.775 -0.38 -0.01    +0.041 A  
DOCKED: ATOM     30  Cl  UNL     1     145.952  72.622 220.085 -0.61 -0.03    -0.084 Cl 
DOCKED: ENDBRANCH  21  24
DOCKED: ENDBRANCH  17  19
DOCKED: ENDBRANCH   1  17
DOCKED: TORSDOF 5
DOCKED: TER
DOCKED: ENDMDL
________________________________________________________________________________


    FINAL DOCKED STATE:
    ________________________


Run:   17 / 20
Time taken for this run:   0.029s

DOCKED: MODEL        17
DOCKED: USER    Run = 17
DOCKED: USER
DOCKED: USER    Estimated Free Energy of Binding    =  -8.11 kcal/mol  [=(1)+(2)+(3)-(4)]
DOCKED: USER
DOCKED: USER    (1) Final Intermolecular Energy     =  -9.60 kcal/mol
DOCKED: USER        vdW + Hbond + desolv Energy     =  -9.52 kcal/mol
DOCKED: USER        Electrostatic Energy            =  -0.07 kcal/mol
DOCKED: USER        Moving Ligand-Fixed Receptor    =  -9.60 kcal/mol
DOCKED: USER        Moving Ligand-Moving Receptor   =  +0.00 kcal/mol
DOCKED: USER    (2) Final Total Internal Energy     =  -1.82 kcal/mol
DOCKED: USER    (3) Torsional Free Energy           =  +1.49 kcal/mol
DOCKED: USER    (4) Unbound System's Energy         =  -1.82 kcal/mol
DOCKED: USER
DOCKED: USER
DOCKED: REMARK SMILES O=C(NCC(=O)N1CCC[C@H]1c1ccc(Cl)cc1)c1ccc2cc(Cl)ccc2n1
DOCKED: REMARK SMILES IDX 4 1 3 2 2 3 1 4 19 6 20 7 29 8 21 9 28 10 22 11 27 12 23 13
DOCKED: REMARK SMILES IDX 26 14 24 15 25 16 5 17 6 18 7 19 8 20 11 21 9 22 10 23 12 24
DOCKED: REMARK SMILES IDX 13 25 18 26 14 27 17 28 15 29 16 30
DOCKED: REMARK H PARENT 3 5
DOCKED: USER                              x       y       z     vdW  Elec       q    Type
DOCKED: USER                           _______ _______ _______ _____ _____    ______ ____
DOCKED: ROOT
DOCKED: ATOM      1  C   UNL     1     138.314  74.265 220.595 -0.07 -0.05    +0.216 C  
DOCKED: ENDROOT
DOCKED: BRANCH   1   2
DOCKED: ATOM      2  N   UNL     1     138.574  73.510 221.779 -0.09 +0.09    -0.342 N  
DOCKED: ATOM      3  C   UNL     1     139.035  72.176 221.647 -0.11 -0.06    +0.270 C  
DOCKED: ATOM      4  O   UNL     1     139.200  71.705 220.490 -0.03 +0.05    -0.268 OA 
DOCKED: ATOM      5  H   UNL     1     138.449  73.864 222.760 -0.55 -0.09    +0.164 HD 
DOCKED: BRANCH   3   6
DOCKED: ATOM      6  C   UNL     1     139.317  71.353 222.824 -0.23 -0.03    +0.128 A  
DOCKED: ATOM      7  C   UNL     1     138.973  70.030 222.836 -0.20 -0.01    +0.035 A  
DOCKED: ATOM      8  N   UNL     1     139.923  71.867 223.928 -0.26 +0.05    -0.243 NA 
DOCKED: ATOM      9  C   UNL     1     139.227  69.221 223.936 -0.29 -0.00    +0.013 A  
DOCKED: ATOM     10  C   UNL     1     140.177  71.087 225.007 -0.46 -0.01    +0.071 A  
DOCKED: ATOM     11  C   UNL     1     139.842  69.755 225.046 -0.41 -0.00    +0.002 A  
DOCKED: ATOM     12  C   UNL     1     140.788  71.624 226.110 -0.61 -0.00    +0.030 A  
DOCKED: ATOM     13  C   UNL     1     140.104  68.969 226.153 -0.51 -0.01    +0.030 A  
DOCKED: ATOM     14  C   UNL     1     141.057  70.858 227.218 -0.65 -0.00    +0.023 A  
DOCKED: ATOM     15  C   UNL     1     140.724  69.508 227.274 -0.56 -0.01    +0.041 A  
DOCKED: ATOM     16  Cl  UNL     1     141.067  68.536 228.685 -0.71 +0.02    -0.084 Cl 
DOCKED: ENDBRANCH   3   6
DOCKED: ENDBRANCH   1   2
DOCKED: BRANCH   1  17
DOCKED: ATOM     17  C   UNL     1     138.366  75.716 220.783 -0.08 -0.05    +0.242 C  
DOCKED: ATOM     18  O   UNL     1     137.330  76.390 220.481 -0.02 +0.05    -0.273 OA 
DOCKED: BRANCH  17  19
DOCKED: ATOM     19  N   UNL     1     139.550  76.320 221.287 -0.10 +0.08    -0.334 N  
DOCKED: ATOM     20  C   UNL     1     139.860  76.585 222.679 -0.12 -0.02    +0.120 C  
DOCKED: ATOM     21  C   UNL     1     140.694  76.799 220.493 -0.18 -0.04    +0.115 C  
DOCKED: ATOM     22  C   UNL     1     141.072  77.490 222.679 -0.41 -0.01    +0.024 C  
DOCKED: ATOM     23  C   UNL     1     141.031  78.048 221.274 -0.32 -0.01    +0.032 C  
DOCKED: BRANCH  21  24
DOCKED: ATOM     24  C   UNL     1     141.781  75.806 220.456 -0.28 +0.01    -0.025 A  
DOCKED: ATOM     25  C   UNL     1     143.029  76.163 219.996 -0.30 -0.00    +0.007 A  
DOCKED: ATOM     26  C   UNL     1     141.608  74.489 220.876 -0.29 -0.00    +0.007 A  
DOCKED: ATOM     27  C   UNL     1     144.092  75.264 219.939 -0.38 -0.01    +0.021 A  
DOCKED: ATOM     28  C   UNL     1     142.638  73.566 220.836 -0.27 -0.00    +0.021 A  
DOCKED: ATOM     29  C   UNL     1     143.868  73.974 220.366 -0.39 -0.01    +0.041 A  
DOCKED: ATOM     30  Cl  UNL     1     145.223  72.847 220.290 -0.64 +0.00    -0.084 Cl 
DOCKED: ENDBRANCH  21  24
DOCKED: ENDBRANCH  17  19
DOCKED: ENDBRANCH   1  17
DOCKED: TORSDOF 5
DOCKED: TER
DOCKED: ENDMDL
________________________________________________________________________________


    FINAL DOCKED STATE:
    ________________________


Run:   18 / 20
Time taken for this run:   0.029s

DOCKED: MODEL        18
DOCKED: USER    Run = 18
DOCKED: USER
DOCKED: USER    Estimated Free Energy of Binding    =  -8.05 kcal/mol  [=(1)+(2)+(3)-(4)]
DOCKED: USER
DOCKED: USER    (1) Final Intermolecular Energy     =  -9.55 kcal/mol
DOCKED: USER        vdW + Hbond + desolv Energy     =  -9.48 kcal/mol
DOCKED: USER        Electrostatic Energy            =  -0.07 kcal/mol
DOCKED: USER        Moving Ligand-Fixed Receptor    =  -9.55 kcal/mol
DOCKED: USER        Moving Ligand-Moving Receptor   =  +0.00 kcal/mol
DOCKED: USER    (2) Final Total Internal Energy     =  -1.82 kcal/mol
DOCKED: USER    (3) Torsional Free Energy           =  +1.49 kcal/mol
DOCKED: USER    (4) Unbound System's Energy         =  -1.82 kcal/mol
DOCKED: USER
DOCKED: USER
DOCKED: REMARK SMILES O=C(NCC(=O)N1CCC[C@H]1c1ccc(Cl)cc1)c1ccc2cc(Cl)ccc2n1
DOCKED: REMARK SMILES IDX 4 1 3 2 2 3 1 4 19 6 20 7 29 8 21 9 28 10 22 11 27 12 23 13
DOCKED: REMARK SMILES IDX 26 14 24 15 25 16 5 17 6 18 7 19 8 20 11 21 9 22 10 23 12 24
DOCKED: REMARK SMILES IDX 13 25 18 26 14 27 17 28 15 29 16 30
DOCKED: REMARK H PARENT 3 5
DOCKED: USER                              x       y       z     vdW  Elec       q    Type
DOCKED: USER                           _______ _______ _______ _____ _____    ______ ____
DOCKED: ROOT
DOCKED: ATOM      1  C   UNL     1     138.289  74.174 220.598 -0.07 -0.05    +0.216 C  
DOCKED: ENDROOT
DOCKED: BRANCH   1   2
DOCKED: ATOM      2  N   UNL     1     138.588  73.438 221.784 -0.09 +0.09    -0.342 N  
DOCKED: ATOM      3  C   UNL     1     138.913  72.063 221.667 -0.10 -0.06    +0.270 C  
DOCKED: ATOM      4  O   UNL     1     138.928  71.541 220.521 -0.03 +0.05    -0.268 OA 
DOCKED: ATOM      5  H   UNL     1     138.586  73.834 222.757 -0.55 -0.08    +0.164 HD 
DOCKED: BRANCH   3   6
DOCKED: ATOM      6  C   UNL     1     139.226  71.255 222.847 -0.22 -0.03    +0.128 A  
DOCKED: ATOM      7  C   UNL     1     138.894  69.930 222.882 -0.20 -0.01    +0.035 A  
DOCKED: ATOM      8  N   UNL     1     139.851  71.788 223.932 -0.24 +0.05    -0.243 NA 
DOCKED: ATOM      9  C   UNL     1     139.177  69.137 223.986 -0.30 -0.00    +0.013 A  
DOCKED: ATOM     10  C   UNL     1     140.133  71.023 225.015 -0.46 -0.01    +0.071 A  
DOCKED: ATOM     11  C   UNL     1     139.810  69.688 225.077 -0.41 -0.00    +0.002 A  
DOCKED: ATOM     12  C   UNL     1     140.762  71.578 226.099 -0.61 -0.00    +0.030 A  
DOCKED: ATOM     13  C   UNL     1     140.102  68.918 226.187 -0.52 -0.01    +0.030 A  
DOCKED: ATOM     14  C   UNL     1     141.061  70.828 227.210 -0.64 -0.00    +0.023 A  
DOCKED: ATOM     15  C   UNL     1     140.740  69.476 227.289 -0.56 -0.01    +0.041 A  
DOCKED: ATOM     16  Cl  UNL     1     141.121  68.524 228.704 -0.69 +0.02    -0.084 Cl 
DOCKED: ENDBRANCH   3   6
DOCKED: ENDBRANCH   1   2
DOCKED: BRANCH   1  17
DOCKED: ATOM     17  C   UNL     1     138.346  75.627 220.762 -0.07 -0.05    +0.242 C  
DOCKED: ATOM     18  O   UNL     1     137.313  76.300 220.447 -0.02 +0.05    -0.273 OA 
DOCKED: BRANCH  17  19
DOCKED: ATOM     19  N   UNL     1     139.530  76.237 221.258 -0.09 +0.08    -0.334 N  
DOCKED: ATOM     20  C   UNL     1     139.840  76.520 222.646 -0.13 -0.02    +0.120 C  
DOCKED: ATOM     21  C   UNL     1     140.676  76.702 220.458 -0.18 -0.04    +0.115 C  
DOCKED: ATOM     22  C   UNL     1     141.053  77.423 222.634 -0.40 -0.01    +0.024 C  
DOCKED: ATOM     23  C   UNL     1     141.014  77.961 221.221 -0.31 -0.01    +0.032 C  
DOCKED: BRANCH  21  24
DOCKED: ATOM     24  C   UNL     1     141.761  75.706 220.435 -0.27 +0.01    -0.025 A  
DOCKED: ATOM     25  C   UNL     1     143.010  76.055 219.973 -0.32 -0.00    +0.007 A  
DOCKED: ATOM     26  C   UNL     1     141.584  74.395 220.872 -0.29 -0.00    +0.007 A  
DOCKED: ATOM     27  C   UNL     1     144.072  75.154 219.930 -0.40 -0.01    +0.021 A  
DOCKED: ATOM     28  C   UNL     1     142.613  73.470 220.846 -0.27 -0.00    +0.021 A  
DOCKED: ATOM     29  C   UNL     1     143.845  73.870 220.373 -0.38 -0.01    +0.041 A  
DOCKED: ATOM     30  Cl  UNL     1     145.197  72.740 220.313 -0.63 +0.00    -0.084 Cl 
DOCKED: ENDBRANCH  21  24
DOCKED: ENDBRANCH  17  19
DOCKED: ENDBRANCH   1  17
DOCKED: TORSDOF 5
DOCKED: TER
DOCKED: ENDMDL
________________________________________________________________________________


    FINAL DOCKED STATE:
    ________________________


Run:   19 / 20
Time taken for this run:   0.029s

DOCKED: MODEL        19
DOCKED: USER    Run = 19
DOCKED: USER
DOCKED: USER    Estimated Free Energy of Binding    =  -8.51 kcal/mol  [=(1)+(2)+(3)-(4)]
DOCKED: USER
DOCKED: USER    (1) Final Intermolecular Energy     = -10.00 kcal/mol
DOCKED: USER        vdW + Hbond + desolv Energy     =  -9.89 kcal/mol
DOCKED: USER        Electrostatic Energy            =  -0.11 kcal/mol
DOCKED: USER        Moving Ligand-Fixed Receptor    = -10.00 kcal/mol
DOCKED: USER        Moving Ligand-Moving Receptor   =  +0.00 kcal/mol
DOCKED: USER    (2) Final Total Internal Energy     =  -1.67 kcal/mol
DOCKED: USER    (3) Torsional Free Energy           =  +1.49 kcal/mol
DOCKED: USER    (4) Unbound System's Energy         =  -1.67 kcal/mol
DOCKED: USER
DOCKED: USER
DOCKED: REMARK SMILES O=C(NCC(=O)N1CCC[C@H]1c1ccc(Cl)cc1)c1ccc2cc(Cl)ccc2n1
DOCKED: REMARK SMILES IDX 4 1 3 2 2 3 1 4 19 6 20 7 29 8 21 9 28 10 22 11 27 12 23 13
DOCKED: REMARK SMILES IDX 26 14 24 15 25 16 5 17 6 18 7 19 8 20 11 21 9 22 10 23 12 24
DOCKED: REMARK SMILES IDX 13 25 18 26 14 27 17 28 15 29 16 30
DOCKED: REMARK H PARENT 3 5
DOCKED: USER                              x       y       z     vdW  Elec       q    Type
DOCKED: USER                           _______ _______ _______ _____ _____    ______ ____
DOCKED: ROOT
DOCKED: ATOM      1  C   UNL     1     138.561  74.557 220.952 -0.10 -0.05    +0.216 C  
DOCKED: ENDROOT
DOCKED: BRANCH   1   2
DOCKED: ATOM      2  N   UNL     1     138.735  73.691 222.074 -0.07 +0.10    -0.342 N  
DOCKED: ATOM      3  C   UNL     1     139.468  72.490 221.899 -0.16 -0.05    +0.270 C  
DOCKED: ATOM      4  O   UNL     1     139.939  72.231 220.759 -0.07 +0.05    -0.268 OA 
DOCKED: ATOM      5  H   UNL     1     138.358  73.870 223.038 -0.54 -0.12    +0.164 HD 
DOCKED: BRANCH   3   6
DOCKED: ATOM      6  C   UNL     1     139.678  71.562 223.010 -0.28 -0.02    +0.128 A  
DOCKED: ATOM      7  C   UNL     1     139.351  70.241 222.875 -0.22 -0.01    +0.035 A  
DOCKED: ATOM      8  N   UNL     1     140.198  71.975 224.197 -0.22 +0.04    -0.243 NA 
DOCKED: ATOM      9  C   UNL     1     139.539  69.335 223.910 -0.24 -0.00    +0.013 A  
DOCKED: ATOM     10  C   UNL     1     140.386  71.099 225.215 -0.49 -0.01    +0.071 A  
DOCKED: ATOM     11  C   UNL     1     140.067  69.767 225.106 -0.42 -0.00    +0.002 A  
DOCKED: ATOM     12  C   UNL     1     140.912  71.535 226.404 -0.67 -0.00    +0.030 A  
DOCKED: ATOM     13  C   UNL     1     140.262  68.882 226.151 -0.52 -0.01    +0.030 A  
DOCKED: ATOM     14  C   UNL     1     141.113  70.670 227.452 -0.60 -0.00    +0.023 A  
DOCKED: ATOM     15  C   UNL     1     140.795  69.319 227.359 -0.57 -0.01    +0.041 A  
DOCKED: ATOM     16  Cl  UNL     1     141.052  68.221 228.694 -0.70 +0.02    -0.084 Cl 
DOCKED: ENDBRANCH   3   6
DOCKED: ENDBRANCH   1   2
DOCKED: BRANCH   1  17
DOCKED: ATOM     17  C   UNL     1     138.520  75.980 221.292 -0.13 -0.05    +0.242 C  
DOCKED: ATOM     18  O   UNL     1     137.379  76.515 221.467 -0.07 +0.06    -0.273 OA 
DOCKED: BRANCH  17  19
DOCKED: ATOM     19  N   UNL     1     139.732  76.713 221.413 -0.11 +0.09    -0.334 N  
DOCKED: ATOM     20  C   UNL     1     140.271  77.294 222.627 -0.27 -0.03    +0.120 C  
DOCKED: ATOM     21  C   UNL     1     140.677  77.027 220.329 -0.17 -0.04    +0.115 C  
DOCKED: ATOM     22  C   UNL     1     141.399  78.205 222.196 -0.41 -0.01    +0.024 C  
DOCKED: ATOM     23  C   UNL     1     141.066  78.428 220.737 -0.27 -0.01    +0.032 C  
DOCKED: BRANCH  21  24
DOCKED: ATOM     24  C   UNL     1     141.804  76.078 220.301 -0.27 +0.01    -0.025 A  
DOCKED: ATOM     25  C   UNL     1     141.665  74.823 220.851 -0.30 -0.00    +0.007 A  
DOCKED: ATOM     26  C   UNL     1     143.035  76.393 219.729 -0.39 -0.00    +0.007 A  
DOCKED: ATOM     27  C   UNL     1     142.698  73.887 220.852 -0.26 -0.00    +0.021 A  
DOCKED: ATOM     28  C   UNL     1     144.084  75.491 219.709 -0.31 -0.01    +0.021 A  
DOCKED: ATOM     29  C   UNL     1     143.894  74.248 220.274 -0.39 -0.01    +0.041 A  
DOCKED: ATOM     30  Cl  UNL     1     145.192  73.054 220.282 -0.67 +0.00    -0.084 Cl 
DOCKED: ENDBRANCH  21  24
DOCKED: ENDBRANCH  17  19
DOCKED: ENDBRANCH   1  17
DOCKED: TORSDOF 5
DOCKED: TER
DOCKED: ENDMDL
________________________________________________________________________________


    FINAL DOCKED STATE:
    ________________________


Run:   20 / 20
Time taken for this run:   0.029s

DOCKED: MODEL        20
DOCKED: USER    Run = 20
DOCKED: USER
DOCKED: USER    Estimated Free Energy of Binding    =  -8.31 kcal/mol  [=(1)+(2)+(3)-(4)]
DOCKED: USER
DOCKED: USER    (1) Final Intermolecular Energy     =  -9.81 kcal/mol
DOCKED: USER        vdW + Hbond + desolv Energy     =  -9.74 kcal/mol
DOCKED: USER        Electrostatic Energy            =  -0.07 kcal/mol
DOCKED: USER        Moving Ligand-Fixed Receptor    =  -9.81 kcal/mol
DOCKED: USER        Moving Ligand-Moving Receptor   =  +0.00 kcal/mol
DOCKED: USER    (2) Final Total Internal Energy     =  -1.66 kcal/mol
DOCKED: USER    (3) Torsional Free Energy           =  +1.49 kcal/mol
DOCKED: USER    (4) Unbound System's Energy         =  -1.66 kcal/mol
DOCKED: USER
DOCKED: USER
DOCKED: REMARK SMILES O=C(NCC(=O)N1CCC[C@H]1c1ccc(Cl)cc1)c1ccc2cc(Cl)ccc2n1
DOCKED: REMARK SMILES IDX 4 1 3 2 2 3 1 4 19 6 20 7 29 8 21 9 28 10 22 11 27 12 23 13
DOCKED: REMARK SMILES IDX 26 14 24 15 25 16 5 17 6 18 7 19 8 20 11 21 9 22 10 23 12 24
DOCKED: REMARK SMILES IDX 13 25 18 26 14 27 17 28 15 29 16 30
DOCKED: REMARK H PARENT 3 5
DOCKED: USER                              x       y       z     vdW  Elec       q    Type
DOCKED: USER                           _______ _______ _______ _____ _____    ______ ____
DOCKED: ROOT
DOCKED: ATOM      1  C   UNL     1     138.705  74.569 221.146 -0.13 -0.05    +0.216 C  
DOCKED: ENDROOT
DOCKED: BRANCH   1   2
DOCKED: ATOM      2  N   UNL     1     139.013  73.730 222.260 -0.05 +0.10    -0.342 N  
DOCKED: ATOM      3  C   UNL     1     138.998  72.324 222.076 -0.14 -0.06    +0.270 C  
DOCKED: ATOM      4  O   UNL     1     138.715  71.866 220.937 -0.04 +0.05    -0.268 OA 
DOCKED: ATOM      5  H   UNL     1     139.253  74.070 223.224 -0.48 -0.07    +0.164 HD 
DOCKED: BRANCH   3   6
DOCKED: ATOM      6  C   UNL     1     139.303  71.413 223.180 -0.26 -0.03    +0.128 A  
DOCKED: ATOM      7  C   UNL     1     138.997  70.084 223.080 -0.22 -0.01    +0.035 A  
DOCKED: ATOM      8  N   UNL     1     139.894  71.850 224.325 -0.20 +0.06    -0.243 NA 
DOCKED: ATOM      9  C   UNL     1     139.274  69.194 224.108 -0.30 -0.00    +0.013 A  
DOCKED: ATOM     10  C   UNL     1     140.168  70.989 225.335 -0.48 -0.01    +0.071 A  
DOCKED: ATOM     11  C   UNL     1     139.872  69.649 225.262 -0.43 -0.00    +0.002 A  
DOCKED: ATOM     12  C   UNL     1     140.764  71.449 226.482 -0.66 -0.00    +0.030 A  
DOCKED: ATOM     13  C   UNL     1     140.156  68.781 226.299 -0.54 -0.01    +0.030 A  
DOCKED: ATOM     14  C   UNL     1     141.054  70.600 227.522 -0.62 -0.00    +0.023 A  
DOCKED: ATOM     15  C   UNL     1     140.759  69.242 227.464 -0.58 -0.01    +0.041 A  
DOCKED: ATOM     16  Cl  UNL     1     141.130  68.165 228.789 -0.64 +0.02    -0.084 Cl 
DOCKED: ENDBRANCH   3   6
DOCKED: ENDBRANCH   1   2
DOCKED: BRANCH   1  17
DOCKED: ATOM     17  C   UNL     1     138.746  76.002 221.444 -0.16 -0.05    +0.242 C  
DOCKED: ATOM     18  O   UNL     1     137.666  76.559 221.820 -0.12 +0.06    -0.273 OA 
DOCKED: BRANCH  17  19
DOCKED: ATOM     19  N   UNL     1     139.966  76.718 221.306 -0.10 +0.09    -0.334 N  
DOCKED: ATOM     20  C   UNL     1     140.600  77.545 222.314 -0.36 -0.04    +0.120 C  
DOCKED: ATOM     21  C   UNL     1     140.825  76.761 220.111 -0.16 -0.04    +0.115 C  
DOCKED: ATOM     22  C   UNL     1     141.694  78.313 221.605 -0.33 -0.01    +0.024 C  
DOCKED: ATOM     23  C   UNL     1     141.248  78.210 220.163 -0.25 -0.02    +0.032 C  
DOCKED: BRANCH  21  24
DOCKED: ATOM     24  C   UNL     1     141.943  75.807 220.212 -0.27 +0.01    -0.025 A  
DOCKED: ATOM     25  C   UNL     1     143.194  76.157 219.755 -0.38 -0.00    +0.007 A  
DOCKED: ATOM     26  C   UNL     1     141.796  74.536 220.763 -0.29 -0.00    +0.007 A  
DOCKED: ATOM     27  C   UNL     1     144.286  75.295 219.827 -0.15 -0.01    +0.021 A  
DOCKED: ATOM     28  C   UNL     1     142.856  73.651 220.853 -0.26 -0.00    +0.021 A  
DOCKED: ATOM     29  C   UNL     1     144.088  74.050 220.380 -0.42 -0.01    +0.041 A  
DOCKED: ATOM     30  Cl  UNL     1     145.479  72.968 220.465 -0.72 +0.00    -0.084 Cl 
DOCKED: ENDBRANCH  21  24
DOCKED: ENDBRANCH  17  19
DOCKED: ENDBRANCH   1  17
DOCKED: TORSDOF 5
DOCKED: TER
DOCKED: ENDMDL
________________________________________________________________________________


    CLUSTERING HISTOGRAM
    ____________________


________________________________________________________________________________
     |           |     |           |     |
Clus | Lowest    | Run | Mean      | Num | Histogram
-ter | Binding   |     | Binding   | in  |
Rank | Energy    |     | Energy    | Clus|    5    10   15   20   25   30   35
_____|___________|_____|___________|_____|____:____|____:____|____:____|____:___
   1 |     -8.73 |  11 |     -8.56 |   6 |######
   2 |     -8.54 |   4 |     -8.32 |  13 |#############
   3 |     -6.43 |   8 |     -6.43 |   1 |#
_____|___________|_____|___________|_____|______________________________________


    RMSD TABLE
    __________


_______________________________________________________________________
     |      |      |           |         |                 |
Rank | Sub- | Run  | Binding   | Cluster | Reference       | Grep
     | Rank |      | Energy    | RMSD    | RMSD            | Pattern
_____|______|______|___________|_________|_________________|___________
   1      1     11       -8.73      0.00    271.76           RANKING
   1      2      7       -8.71      0.65    272.10           RANKING
   1      3      2       -8.64      0.75    271.83           RANKING
   1      4     10       -8.52      0.54    271.91           RANKING
   1      5      9       -8.41      0.79    271.83           RANKING
   1      6      3       -8.34      0.81    271.75           RANKING
   2      1      4       -8.54      0.00    271.42           RANKING
   2      2      6       -8.54      0.04    271.43           RANKING
   2      3     19       -8.51      0.05    271.39           RANKING
   2      4     13       -8.50      0.14    271.35           RANKING
   2      5      1       -8.49      0.10    271.36           RANKING
   2      6      5       -8.47      0.26    271.28           RANKING
   2      7     12       -8.44      0.23    271.31           RANKING
   2      8     20       -8.31      0.45    271.41           RANKING
   2      9     17       -8.11      0.51    271.19           RANKING
   2     10     14       -8.10      1.02    271.18           RANKING
   2     11     15       -8.10      0.55    271.18           RANKING
   2     12     18       -8.05      0.58    271.15           RANKING
   2     13     16       -7.96      1.03    271.24           RANKING
   3      1      8       -6.43      0.00    270.59           RANKING

Run time 0.540 sec
Idle time 0.000 sec
