AutoDock-GPU version: v1.6

**********************************************************
**    AutoDock-GPU AUTODOCKTOOLS-COMPATIBLE DLG FILE    **
**********************************************************


    DOCKING PARAMETERS
    ________________________


Ligand file:                               /home/a/REINVENT4/ReinventStudies/pleaseWork/justmol2mol_4_Compounds_ontop/graph-dock-hn62wh/graph-DockGPU/node-autodockgpu/inputs/QSHVGDVTUIMASK-BAKOIFDKNA-N.pdbqt
Grid fld file:                             /home/a/REINVENT4/ReinventStudies/mols/Rad51/maps/rad51_receptor.maps.fld

Random seed:                               42
Number of runs:                            20
Number of energy evaluations:              1132076
Number of generations:                     42000
Size of population:                        150
Rate of crossover:                         80.000000%
Tournament selection probability limit:    60.000000%
Rate of mutation:                          2.000000%
Maximal allowed delta movement:            +/- 6.000000A
Maximal allowed delta angle:               +/- 90.000000

Rate of local search:                      100.000000%
Maximal number of local search iterations: 300
Rho lower bound:                           0.010000
Spread of local search delta movement:     2.000000A
Spread of local search delta angle:        74.999999
Limit of consecutive successes/failures:   4

Handle symmetry during clustering:         YES
RMSD tolerance:                            2.000000A

Program call in command line was:          /home/a/REINVENT4/ReinventStudies/adgpu-v1.6_linux_x64_cuda12_128wi --filelist batch.txt --heuristics 1 --nrun 20 --psize 150 --lsit 300 --seed 42 --heurmax 12000000 


    GRID PARAMETERS
    ________________________


Receptor name:                             rad51_receptor
Number of grid points (x, y, z):           53, 53, 53
Grid center (x, y, z):                     139.950000, 75.640000, 221.970000A
Grid size (x, y, z):                       19.500000, 19.500000, 19.500000A
Grid spacing:                              0.375000A


    LIGAND PARAMETERS
    ________________________


Ligand name:                               /home/a/REINVENT4/ReinventStudies/pleaseWork/justmol2mol_4_Compounds_ontop/graph-dock-hn62wh/graph-DockGPU/node-autodockgpu/inputs/QSHVGDVTUIMASK-BAKOIFDKNA-N
Number of atoms:                           30
Number of rotatable bonds:                 5
Number of atom types:                      7


    DUMMY DATA (only for ADT-compatibility)
    ________________________


DPF> outlev 1
DPF> ga_run 20
DPF> fld /home/a/REINVENT4/ReinventStudies/mols/Rad51/maps/rad51_receptor.maps.fld
DPF> move /home/a/REINVENT4/ReinventStudies/pleaseWork/justmol2mol_4_Compounds_ontop/graph-dock-hn62wh/graph-DockGPU/node-autodockgpu/inputs/QSHVGDVTUIMASK-BAKOIFDKNA-N.pdbqt


    COUNTER STATES
    ________________________


Number of energy evaluations performed:    859802
Number of generations used:                50


    INPUT LIGAND PDBQT FILE:
    ________________________


INPUT-LIGAND-PDBQT: REMARK SMILES O=C(NCC(=O)N1CCCC[C@@H]1c1ccc(Br)cc1)c1ccc2ccccc2n1
INPUT-LIGAND-PDBQT: REMARK SMILES IDX 5 1 6 2 4 3 3 4 2 5 1 6 20 8 21 9 29 10 22 11 28 12 23 13
INPUT-LIGAND-PDBQT: REMARK SMILES IDX 27 14 24 15 26 16 25 17 7 18 8 19 12 20 9 21 11 22 10 23
INPUT-LIGAND-PDBQT: REMARK SMILES IDX 13 24 14 25 19 26 15 27 18 28 16 29 17 30
INPUT-LIGAND-PDBQT: REMARK H PARENT 3 7
INPUT-LIGAND-PDBQT: ROOT
INPUT-LIGAND-PDBQT: ATOM      1  C   UNL     1      -0.764  -1.144  -0.353  1.00  0.00     0.242 C 
INPUT-LIGAND-PDBQT: ATOM      2  O   UNL     1       0.040  -1.402  -1.267  1.00  0.00    -0.273 OA
INPUT-LIGAND-PDBQT: ENDROOT
INPUT-LIGAND-PDBQT: BRANCH   1   3
INPUT-LIGAND-PDBQT: ATOM      3  C   UNL     1      -0.361  -0.547   0.960  1.00  0.00     0.216 C 
INPUT-LIGAND-PDBQT: BRANCH   3   4
INPUT-LIGAND-PDBQT: ATOM      4  N   UNL     1       1.064  -0.330   0.983  1.00  0.00    -0.342 N 
INPUT-LIGAND-PDBQT: ATOM      5  C   UNL     1       1.619   0.543  -0.009  1.00  0.00     0.270 C 
INPUT-LIGAND-PDBQT: ATOM      6  O   UNL     1       0.837   1.073  -0.844  1.00  0.00    -0.268 OA
INPUT-LIGAND-PDBQT: ATOM      7  H   UNL     1       1.720  -0.762   1.668  1.00  0.00     0.164 HD
INPUT-LIGAND-PDBQT: BRANCH   5   8
INPUT-LIGAND-PDBQT: ATOM      8  C   UNL     1       3.052   0.803  -0.039  1.00  0.00     0.128 A 
INPUT-LIGAND-PDBQT: ATOM      9  C   UNL     1       3.551   1.647  -1.004  1.00  0.00     0.035 A 
INPUT-LIGAND-PDBQT: ATOM     10  N   UNL     1       3.911   0.264   0.824  1.00  0.00    -0.243 NA
INPUT-LIGAND-PDBQT: ATOM     11  C   UNL     1       4.887   1.955  -1.117  1.00  0.00     0.013 A 
INPUT-LIGAND-PDBQT: ATOM     12  C   UNL     1       5.231   0.528   0.765  1.00  0.00     0.071 A 
INPUT-LIGAND-PDBQT: ATOM     13  C   UNL     1       5.745   1.380  -0.207  1.00  0.00     0.000 A 
INPUT-LIGAND-PDBQT: ATOM     14  C   UNL     1       6.124  -0.034   1.664  1.00  0.00     0.029 A 
INPUT-LIGAND-PDBQT: ATOM     15  C   UNL     1       7.082   1.659  -0.283  1.00  0.00     0.010 A 
INPUT-LIGAND-PDBQT: ATOM     16  C   UNL     1       7.482   0.255   1.581  1.00  0.00     0.002 A 
INPUT-LIGAND-PDBQT: ATOM     17  C   UNL     1       7.971   1.115   0.593  1.00  0.00     0.001 A 
INPUT-LIGAND-PDBQT: ENDBRANCH   5   8
INPUT-LIGAND-PDBQT: ENDBRANCH   3   4
INPUT-LIGAND-PDBQT: ENDBRANCH   1   3
INPUT-LIGAND-PDBQT: BRANCH   1  18
INPUT-LIGAND-PDBQT: ATOM     18  N   UNL     1      -2.138  -1.439  -0.586  1.00  0.00    -0.334 N 
INPUT-LIGAND-PDBQT: ATOM     19  C   UNL     1      -2.465  -2.018  -1.881  1.00  0.00     0.120 C 
INPUT-LIGAND-PDBQT: ATOM     20  C   UNL     1      -3.140  -1.168   0.428  1.00  0.00     0.115 C 
INPUT-LIGAND-PDBQT: ATOM     21  C   UNL     1      -3.761  -2.757  -1.908  1.00  0.00     0.022 C 
INPUT-LIGAND-PDBQT: ATOM     22  C   UNL     1      -4.369  -2.008   0.306  1.00  0.00     0.030 C 
INPUT-LIGAND-PDBQT: ATOM     23  C   UNL     1      -3.993  -3.268  -0.480  1.00  0.00     0.004 C 
INPUT-LIGAND-PDBQT: BRANCH  20  24
INPUT-LIGAND-PDBQT: ATOM     24  C   UNL     1      -3.525   0.268   0.438  1.00  0.00    -0.025 A 
INPUT-LIGAND-PDBQT: ATOM     25  C   UNL     1      -3.787   0.980  -0.712  1.00  0.00     0.007 A 
INPUT-LIGAND-PDBQT: ATOM     26  C   UNL     1      -3.643   0.977   1.635  1.00  0.00     0.007 A 
INPUT-LIGAND-PDBQT: ATOM     27  C   UNL     1      -4.144   2.310  -0.705  1.00  0.00     0.016 A 
INPUT-LIGAND-PDBQT: ATOM     28  C   UNL     1      -3.998   2.307   1.670  1.00  0.00     0.016 A 
INPUT-LIGAND-PDBQT: ATOM     29  C   UNL     1      -4.252   2.987   0.492  1.00  0.00     0.017 A 
INPUT-LIGAND-PDBQT: ATOM     30  Br  UNL     1      -4.744   4.835   0.569  1.00  0.00    -0.051 Br
INPUT-LIGAND-PDBQT: ENDBRANCH  20  24
INPUT-LIGAND-PDBQT: ENDBRANCH   1  18
INPUT-LIGAND-PDBQT: TORSDOF 5


    FINAL DOCKED STATE:
    ________________________


Run:   1 / 20
Time taken for this run:   0.035s

DOCKED: MODEL        1
DOCKED: USER    Run = 1
DOCKED: USER
DOCKED: USER    Estimated Free Energy of Binding    =  -9.40 kcal/mol  [=(1)+(2)+(3)-(4)]
DOCKED: USER
DOCKED: USER    (1) Final Intermolecular Energy     = -10.89 kcal/mol
DOCKED: USER        vdW + Hbond + desolv Energy     = -10.85 kcal/mol
DOCKED: USER        Electrostatic Energy            =  -0.04 kcal/mol
DOCKED: USER        Moving Ligand-Fixed Receptor    = -10.89 kcal/mol
DOCKED: USER        Moving Ligand-Moving Receptor   =  +0.00 kcal/mol
DOCKED: USER    (2) Final Total Internal Energy     =  -1.41 kcal/mol
DOCKED: USER    (3) Torsional Free Energy           =  +1.49 kcal/mol
DOCKED: USER    (4) Unbound System's Energy         =  -1.41 kcal/mol
DOCKED: USER
DOCKED: USER
DOCKED: REMARK SMILES O=C(NCC(=O)N1CCCC[C@@H]1c1ccc(Br)cc1)c1ccc2ccccc2n1
DOCKED: REMARK SMILES IDX 5 1 6 2 4 3 3 4 2 5 1 6 20 8 21 9 29 10 22 11 28 12 23 13
DOCKED: REMARK SMILES IDX 27 14 24 15 26 16 25 17 7 18 8 19 12 20 9 21 11 22 10 23
DOCKED: REMARK SMILES IDX 13 24 14 25 19 26 15 27 18 28 16 29 17 30
DOCKED: REMARK H PARENT 3 7
DOCKED: USER                              x       y       z     vdW  Elec       q    Type
DOCKED: USER                           _______ _______ _______ _____ _____    ______ ____
DOCKED: ROOT
DOCKED: ATOM      1  C   UNL     1     139.981  75.402 221.122 -0.18 -0.06    +0.242 C  
DOCKED: ATOM      2  O   UNL     1     139.323  76.268 221.726 -0.19 +0.06    -0.273 OA 
DOCKED: ENDROOT
DOCKED: BRANCH   1   3
DOCKED: ATOM      3  C   UNL     1     139.567  73.966 221.025 -0.14 -0.04    +0.216 C  
DOCKED: BRANCH   3   4
DOCKED: ATOM      4  N   UNL     1     139.630  73.348 222.326 -0.14 +0.06    -0.342 N  
DOCKED: ATOM      5  C   UNL     1     139.913  71.944 222.382 -0.20 -0.04    +0.270 C  
DOCKED: ATOM      6  O   UNL     1     140.091  71.327 221.297 -0.10 +0.04    -0.268 OA 
DOCKED: ATOM      7  H   UNL     1     139.485  73.848 223.229 -0.49 -0.04    +0.164 HD 
DOCKED: BRANCH   5   8
DOCKED: ATOM      8  C   UNL     1     139.990  71.262 223.666 -0.33 -0.02    +0.128 A  
DOCKED: ATOM      9  C   UNL     1     139.540  69.965 223.754 -0.28 -0.01    +0.035 A  
DOCKED: ATOM     10  N   UNL     1     140.477  71.829 224.768 -0.27 +0.04    -0.243 NA 
DOCKED: ATOM     11  C   UNL     1     139.569  69.235 224.920 -0.38 -0.00    +0.013 A  
DOCKED: ATOM     12  C   UNL     1     140.533  71.166 225.939 -0.55 -0.01    +0.071 A  
DOCKED: ATOM     13  C   UNL     1     140.080  69.854 226.038 -0.50 -0.00    +0.000 A  
DOCKED: ATOM     14  C   UNL     1     141.040  71.758 227.085 -0.76 -0.01    +0.029 A  
DOCKED: ATOM     15  C   UNL     1     140.127  69.165 227.219 -0.60 -0.00    +0.010 A  
DOCKED: ATOM     16  C   UNL     1     141.086  71.051 228.282 -0.67 -0.00    +0.002 A  
DOCKED: ATOM     17  C   UNL     1     140.623  69.734 228.352 -0.59 -0.00    +0.001 A  
DOCKED: ENDBRANCH   5   8
DOCKED: ENDBRANCH   3   4
DOCKED: ENDBRANCH   1   3
DOCKED: BRANCH   1  18
DOCKED: ATOM     18  N   UNL     1     141.192  75.816 220.496 -0.10 +0.12    -0.334 N  
DOCKED: ATOM     19  C   UNL     1     142.297  74.870 220.535 -0.25 -0.04    +0.120 C  
DOCKED: ATOM     20  C   UNL     1     141.293  77.116 219.860 -0.19 -0.05    +0.115 C  
DOCKED: ATOM     21  C   UNL     1     143.332  75.099 219.484 -0.35 -0.01    +0.022 C  
DOCKED: ATOM     22  C   UNL     1     142.342  77.192 218.799 -0.29 -0.02    +0.030 C  
DOCKED: ATOM     23  C   UNL     1     142.608  75.765 218.307 -0.22 -0.00    +0.004 C  
DOCKED: BRANCH  20  24
DOCKED: ATOM     24  C   UNL     1     141.528  78.191 220.860 -0.32 +0.01    -0.025 A  
DOCKED: ATOM     25  C   UNL     1     141.825  79.489 220.507 -0.32 -0.00    +0.007 A  
DOCKED: ATOM     26  C   UNL     1     141.457  77.932 222.230 -0.37 -0.00    +0.007 A  
DOCKED: ATOM     27  C   UNL     1     142.042  80.487 221.432 -0.41 -0.01    +0.016 A  
DOCKED: ATOM     28  C   UNL     1     141.670  78.911 223.175 -0.57 -0.01    +0.016 A  
DOCKED: ATOM     29  C   UNL     1     141.967  80.203 222.779 -0.57 -0.01    +0.017 A  
DOCKED: ATOM     30  Br  UNL     1     142.258  81.544 224.114 -0.52 +0.01    -0.051 Br 
DOCKED: ENDBRANCH  20  24
DOCKED: ENDBRANCH   1  18
DOCKED: TORSDOF 5
DOCKED: TER
DOCKED: ENDMDL
________________________________________________________________________________


    FINAL DOCKED STATE:
    ________________________


Run:   2 / 20
Time taken for this run:   0.035s

DOCKED: MODEL        2
DOCKED: USER    Run = 2
DOCKED: USER
DOCKED: USER    Estimated Free Energy of Binding    =  -8.73 kcal/mol  [=(1)+(2)+(3)-(4)]
DOCKED: USER
DOCKED: USER    (1) Final Intermolecular Energy     = -10.22 kcal/mol
DOCKED: USER        vdW + Hbond + desolv Energy     = -10.21 kcal/mol
DOCKED: USER        Electrostatic Energy            =  -0.01 kcal/mol
DOCKED: USER        Moving Ligand-Fixed Receptor    = -10.22 kcal/mol
DOCKED: USER        Moving Ligand-Moving Receptor   =  +0.00 kcal/mol
DOCKED: USER    (2) Final Total Internal Energy     =  -1.79 kcal/mol
DOCKED: USER    (3) Torsional Free Energy           =  +1.49 kcal/mol
DOCKED: USER    (4) Unbound System's Energy         =  -1.79 kcal/mol
DOCKED: USER
DOCKED: USER
DOCKED: REMARK SMILES O=C(NCC(=O)N1CCCC[C@@H]1c1ccc(Br)cc1)c1ccc2ccccc2n1
DOCKED: REMARK SMILES IDX 5 1 6 2 4 3 3 4 2 5 1 6 20 8 21 9 29 10 22 11 28 12 23 13
DOCKED: REMARK SMILES IDX 27 14 24 15 26 16 25 17 7 18 8 19 12 20 9 21 11 22 10 23
DOCKED: REMARK SMILES IDX 13 24 14 25 19 26 15 27 18 28 16 29 17 30
DOCKED: REMARK H PARENT 3 7
DOCKED: USER                              x       y       z     vdW  Elec       q    Type
DOCKED: USER                           _______ _______ _______ _____ _____    ______ ____
DOCKED: ROOT
DOCKED: ATOM      1  C   UNL     1     140.149  73.384 219.996 -0.05 -0.05    +0.242 C  
DOCKED: ATOM      2  O   UNL     1     139.903  72.746 218.957 -0.01 +0.05    -0.273 OA 
DOCKED: ENDROOT
DOCKED: BRANCH   1   3
DOCKED: ATOM      3  C   UNL     1     139.098  73.811 220.974 -0.12 -0.04    +0.216 C  
DOCKED: BRANCH   3   4
DOCKED: ATOM      4  N   UNL     1     139.386  73.262 222.275 -0.13 +0.07    -0.342 N  
DOCKED: ATOM      5  C   UNL     1     139.407  71.835 222.404 -0.18 -0.05    +0.270 C  
DOCKED: ATOM      6  O   UNL     1     139.175  71.138 221.380 -0.07 +0.05    -0.268 OA 
DOCKED: ATOM      7  H   UNL     1     139.581  73.828 223.129 -0.50 -0.03    +0.164 HD 
DOCKED: BRANCH   5   8
DOCKED: ATOM      8  C   UNL     1     139.693  71.219 223.693 -0.32 -0.03    +0.128 A  
DOCKED: ATOM      9  C   UNL     1     139.411  69.883 223.865 -0.28 -0.01    +0.035 A  
DOCKED: ATOM     10  N   UNL     1     140.217  71.883 224.721 -0.23 +0.05    -0.243 NA 
DOCKED: ATOM     11  C   UNL     1     139.642  69.210 225.042 -0.39 -0.00    +0.013 A  
DOCKED: ATOM     12  C   UNL     1     140.467  71.279 225.899 -0.54 -0.01    +0.071 A  
DOCKED: ATOM     13  C   UNL     1     140.185  69.929 226.082 -0.51 -0.00    +0.000 A  
DOCKED: ATOM     14  C   UNL     1     141.012  71.972 226.969 -0.74 -0.01    +0.029 A  
DOCKED: ATOM     15  C   UNL     1     140.432  69.299 227.271 -0.60 -0.00    +0.010 A  
DOCKED: ATOM     16  C   UNL     1     141.261  71.325 228.174 -0.68 -0.00    +0.002 A  
DOCKED: ATOM     17  C   UNL     1     140.967  69.967 228.330 -0.57 -0.00    +0.001 A  
DOCKED: ENDBRANCH   5   8
DOCKED: ENDBRANCH   3   4
DOCKED: ENDBRANCH   1   3
DOCKED: BRANCH   1  18
DOCKED: ATOM     18  N   UNL     1     141.509  73.718 220.255 -0.07 +0.07    -0.334 N  
DOCKED: ATOM     19  C   UNL     1     142.283  72.742 221.009 -0.17 -0.01    +0.120 C  
DOCKED: ATOM     20  C   UNL     1     142.072  74.968 219.781 -0.20 -0.04    +0.115 C  
DOCKED: ATOM     21  C   UNL     1     143.759  72.867 220.833 -0.31 -0.00    +0.022 C  
DOCKED: ATOM     22  C   UNL     1     143.556  74.940 219.610 -0.36 -0.01    +0.030 C  
DOCKED: ATOM     23  C   UNL     1     143.975  73.476 219.441 -0.30 -0.00    +0.004 C  
DOCKED: BRANCH  20  24
DOCKED: ATOM     24  C   UNL     1     141.702  76.100 220.671 -0.26 +0.01    -0.025 A  
DOCKED: ATOM     25  C   UNL     1     141.073  75.923 221.884 -0.36 -0.00    +0.007 A  
DOCKED: ATOM     26  C   UNL     1     141.979  77.421 220.315 -0.30 -0.00    +0.007 A  
DOCKED: ATOM     27  C   UNL     1     140.729  76.969 222.710 -0.38 -0.00    +0.016 A  
DOCKED: ATOM     28  C   UNL     1     141.646  78.486 221.122 -0.35 -0.01    +0.016 A  
DOCKED: ATOM     29  C   UNL     1     141.014  78.265 222.333 -0.43 -0.01    +0.017 A  
DOCKED: ATOM     30  Br  UNL     1     140.562  79.763 223.436 -0.80 +0.01    -0.051 Br 
DOCKED: ENDBRANCH  20  24
DOCKED: ENDBRANCH   1  18
DOCKED: TORSDOF 5
DOCKED: TER
DOCKED: ENDMDL
________________________________________________________________________________


    FINAL DOCKED STATE:
    ________________________


Run:   3 / 20
Time taken for this run:   0.035s

DOCKED: MODEL        3
DOCKED: USER    Run = 3
DOCKED: USER
DOCKED: USER    Estimated Free Energy of Binding    =  -8.69 kcal/mol  [=(1)+(2)+(3)-(4)]
DOCKED: USER
DOCKED: USER    (1) Final Intermolecular Energy     = -10.18 kcal/mol
DOCKED: USER        vdW + Hbond + desolv Energy     = -10.17 kcal/mol
DOCKED: USER        Electrostatic Energy            =  -0.01 kcal/mol
DOCKED: USER        Moving Ligand-Fixed Receptor    = -10.18 kcal/mol
DOCKED: USER        Moving Ligand-Moving Receptor   =  +0.00 kcal/mol
DOCKED: USER    (2) Final Total Internal Energy     =  -1.80 kcal/mol
DOCKED: USER    (3) Torsional Free Energy           =  +1.49 kcal/mol
DOCKED: USER    (4) Unbound System's Energy         =  -1.80 kcal/mol
DOCKED: USER
DOCKED: USER
DOCKED: REMARK SMILES O=C(NCC(=O)N1CCCC[C@@H]1c1ccc(Br)cc1)c1ccc2ccccc2n1
DOCKED: REMARK SMILES IDX 5 1 6 2 4 3 3 4 2 5 1 6 20 8 21 9 29 10 22 11 28 12 23 13
DOCKED: REMARK SMILES IDX 27 14 24 15 26 16 25 17 7 18 8 19 12 20 9 21 11 22 10 23
DOCKED: REMARK SMILES IDX 13 24 14 25 19 26 15 27 18 28 16 29 17 30
DOCKED: REMARK H PARENT 3 7
DOCKED: USER                              x       y       z     vdW  Elec       q    Type
DOCKED: USER                           _______ _______ _______ _____ _____    ______ ____
DOCKED: ROOT
DOCKED: ATOM      1  C   UNL     1     140.324  73.360 219.920 -0.05 -0.05    +0.242 C  
DOCKED: ATOM      2  O   UNL     1     140.149  72.682 218.891 -0.01 +0.05    -0.273 OA 
DOCKED: ENDROOT
DOCKED: BRANCH   1   3
DOCKED: ATOM      3  C   UNL     1     139.217  73.768 220.841 -0.11 -0.04    +0.216 C  
DOCKED: BRANCH   3   4
DOCKED: ATOM      4  N   UNL     1     139.461  73.247 222.163 -0.14 +0.07    -0.342 N  
DOCKED: ATOM      5  C   UNL     1     139.521  71.823 222.314 -0.18 -0.05    +0.270 C  
DOCKED: ATOM      6  O   UNL     1     139.359  71.105 221.290 -0.07 +0.05    -0.268 OA 
DOCKED: ATOM      7  H   UNL     1     139.596  73.829 223.016 -0.46 -0.02    +0.164 HD 
DOCKED: BRANCH   5   8
DOCKED: ATOM      8  C   UNL     1     139.765  71.233 223.624 -0.31 -0.02    +0.128 A  
DOCKED: ATOM      9  C   UNL     1     139.435  69.913 223.827 -0.28 -0.01    +0.035 A  
DOCKED: ATOM     10  N   UNL     1     140.293  71.909 224.643 -0.24 +0.04    -0.243 NA 
DOCKED: ATOM     11  C   UNL     1     139.625  69.266 225.026 -0.39 -0.00    +0.013 A  
DOCKED: ATOM     12  C   UNL     1     140.503  71.330 225.841 -0.54 -0.01    +0.071 A  
DOCKED: ATOM     13  C   UNL     1     140.174  69.995 226.056 -0.51 -0.00    +0.000 A  
DOCKED: ATOM     14  C   UNL     1     141.053  72.034 226.901 -0.73 -0.01    +0.029 A  
DOCKED: ATOM     15  C   UNL     1     140.380  69.391 227.265 -0.59 -0.00    +0.010 A  
DOCKED: ATOM     16  C   UNL     1     141.260  71.412 228.127 -0.71 -0.00    +0.002 A  
DOCKED: ATOM     17  C   UNL     1     140.919  70.069 228.315 -0.57 -0.00    +0.001 A  
DOCKED: ENDBRANCH   5   8
DOCKED: ENDBRANCH   3   4
DOCKED: ENDBRANCH   1   3
DOCKED: BRANCH   1  18
DOCKED: ATOM     18  N   UNL     1     141.658  73.759 220.222 -0.07 +0.07    -0.334 N  
DOCKED: ATOM     19  C   UNL     1     142.459  72.813 220.986 -0.15 -0.02    +0.120 C  
DOCKED: ATOM     20  C   UNL     1     142.169  75.044 219.782 -0.21 -0.04    +0.115 C  
DOCKED: ATOM     21  C   UNL     1     143.932  73.017 220.854 -0.32 -0.00    +0.022 C  
DOCKED: ATOM     22  C   UNL     1     143.656  75.094 219.654 -0.38 -0.01    +0.030 C  
DOCKED: ATOM     23  C   UNL     1     144.155  73.656 219.477 -0.33 -0.00    +0.004 C  
DOCKED: BRANCH  20  24
DOCKED: ATOM     24  C   UNL     1     141.715  76.141 220.676 -0.26 +0.01    -0.025 A  
DOCKED: ATOM     25  C   UNL     1     141.101  75.913 221.888 -0.35 -0.00    +0.007 A  
DOCKED: ATOM     26  C   UNL     1     141.893  77.481 220.325 -0.31 -0.00    +0.007 A  
DOCKED: ATOM     27  C   UNL     1     140.680  76.928 222.718 -0.37 -0.00    +0.016 A  
DOCKED: ATOM     28  C   UNL     1     141.482  78.515 221.136 -0.34 -0.01    +0.016 A  
DOCKED: ATOM     29  C   UNL     1     140.867  78.243 222.346 -0.42 -0.01    +0.017 A  
DOCKED: ATOM     30  Br  UNL     1     140.305  79.699 223.454 -0.76 +0.01    -0.051 Br 
DOCKED: ENDBRANCH  20  24
DOCKED: ENDBRANCH   1  18
DOCKED: TORSDOF 5
DOCKED: TER
DOCKED: ENDMDL
________________________________________________________________________________


    FINAL DOCKED STATE:
    ________________________


Run:   4 / 20
Time taken for this run:   0.035s

DOCKED: MODEL        4
DOCKED: USER    Run = 4
DOCKED: USER
DOCKED: USER    Estimated Free Energy of Binding    =  -8.84 kcal/mol  [=(1)+(2)+(3)-(4)]
DOCKED: USER
DOCKED: USER    (1) Final Intermolecular Energy     = -10.33 kcal/mol
DOCKED: USER        vdW + Hbond + desolv Energy     = -10.21 kcal/mol
DOCKED: USER        Electrostatic Energy            =  -0.12 kcal/mol
DOCKED: USER        Moving Ligand-Fixed Receptor    = -10.33 kcal/mol
DOCKED: USER        Moving Ligand-Moving Receptor   =  +0.00 kcal/mol
DOCKED: USER    (2) Final Total Internal Energy     =  -1.77 kcal/mol
DOCKED: USER    (3) Torsional Free Energy           =  +1.49 kcal/mol
DOCKED: USER    (4) Unbound System's Energy         =  -1.77 kcal/mol
DOCKED: USER
DOCKED: USER
DOCKED: REMARK SMILES O=C(NCC(=O)N1CCCC[C@@H]1c1ccc(Br)cc1)c1ccc2ccccc2n1
DOCKED: REMARK SMILES IDX 5 1 6 2 4 3 3 4 2 5 1 6 20 8 21 9 29 10 22 11 28 12 23 13
DOCKED: REMARK SMILES IDX 27 14 24 15 26 16 25 17 7 18 8 19 12 20 9 21 11 22 10 23
DOCKED: REMARK SMILES IDX 13 24 14 25 19 26 15 27 18 28 16 29 17 30
DOCKED: REMARK H PARENT 3 7
DOCKED: USER                              x       y       z     vdW  Elec       q    Type
DOCKED: USER                           _______ _______ _______ _____ _____    ______ ____
DOCKED: ROOT
DOCKED: ATOM      1  C   UNL     1     140.622  75.107 221.184 -0.21 -0.05    +0.242 C  
DOCKED: ATOM      2  O   UNL     1     140.910  75.557 222.307 -0.45 +0.04    -0.273 OA 
DOCKED: ENDROOT
DOCKED: BRANCH   1   3
DOCKED: ATOM      3  C   UNL     1     139.575  74.060 220.955 -0.14 -0.04    +0.216 C  
DOCKED: BRANCH   3   4
DOCKED: ATOM      4  N   UNL     1     139.375  73.295 222.160 -0.13 +0.07    -0.342 N  
DOCKED: ATOM      5  C   UNL     1     140.363  72.313 222.495 -0.21 -0.03    +0.270 C  
DOCKED: ATOM      6  O   UNL     1     141.350  72.171 221.724 -0.20 +0.02    -0.268 OA 
DOCKED: ATOM      7  H   UNL     1     138.564  73.404 222.805 -0.52 -0.08    +0.164 HD 
DOCKED: BRANCH   5   8
DOCKED: ATOM      8  C   UNL     1     140.219  71.508 223.700 -0.34 -0.02    +0.128 A  
DOCKED: ATOM      9  C   UNL     1     139.553  70.306 223.617 -0.29 -0.01    +0.035 A  
DOCKED: ATOM     10  N   UNL     1     140.699  71.874 224.887 -0.28 +0.03    -0.243 NA 
DOCKED: ATOM     11  C   UNL     1     139.363  69.475 224.696 -0.36 -0.00    +0.013 A  
DOCKED: ATOM     12  C   UNL     1     140.546  71.102 225.981 -0.55 -0.01    +0.071 A  
DOCKED: ATOM     13  C   UNL     1     139.875  69.886 225.906 -0.48 -0.00    +0.000 A  
DOCKED: ATOM     14  C   UNL     1     141.047  71.485 227.215 -0.74 -0.00    +0.029 A  
DOCKED: ATOM     15  C   UNL     1     139.708  69.089 227.006 -0.56 -0.00    +0.010 A  
DOCKED: ATOM     16  C   UNL     1     140.874  70.669 228.328 -0.60 -0.00    +0.002 A  
DOCKED: ATOM     17  C   UNL     1     140.195  69.452 228.225 -0.63 -0.00    +0.001 A  
DOCKED: ENDBRANCH   5   8
DOCKED: ENDBRANCH   3   4
DOCKED: ENDBRANCH   1   3
DOCKED: BRANCH   1  18
DOCKED: ATOM     18  N   UNL     1     141.336  75.627 220.066 -0.08 +0.12    -0.334 N  
DOCKED: ATOM     19  C   UNL     1     140.537  76.030 218.918 -0.06 -0.04    +0.120 C  
DOCKED: ATOM     20  C   UNL     1     142.782  75.739 220.094 -0.25 -0.06    +0.115 C  
DOCKED: ATOM     21  C   UNL     1     141.219  76.998 218.011 -0.11 -0.01    +0.022 C  
DOCKED: ATOM     22  C   UNL     1     143.328  76.775 219.166 -0.33 -0.02    +0.030 C  
DOCKED: ATOM     23  C   UNL     1     142.208  77.781 218.885 -0.30 -0.00    +0.004 C  
DOCKED: BRANCH  20  24
DOCKED: ATOM     24  C   UNL     1     143.432  74.432 219.808 -0.33 +0.01    -0.025 A  
DOCKED: ATOM     25  C   UNL     1     142.896  73.504 218.942 -0.15 -0.00    +0.007 A  
DOCKED: ATOM     26  C   UNL     1     144.638  74.077 220.414 -0.51 -0.00    +0.007 A  
DOCKED: ATOM     27  C   UNL     1     143.496  72.294 218.676 -0.12 -0.00    +0.016 A  
DOCKED: ATOM     28  C   UNL     1     145.259  72.873 220.166 -0.49 +0.00    +0.016 A  
DOCKED: ATOM     29  C   UNL     1     144.687  71.967 219.290 -0.27 +0.00    +0.017 A  
DOCKED: ATOM     30  Br  UNL     1     145.571  70.301 218.962 -0.52 -0.03    -0.051 Br 
DOCKED: ENDBRANCH  20  24
DOCKED: ENDBRANCH   1  18
DOCKED: TORSDOF 5
DOCKED: TER
DOCKED: ENDMDL
________________________________________________________________________________


    FINAL DOCKED STATE:
    ________________________


Run:   5 / 20
Time taken for this run:   0.035s

DOCKED: MODEL        5
DOCKED: USER    Run = 5
DOCKED: USER
DOCKED: USER    Estimated Free Energy of Binding    =  -8.55 kcal/mol  [=(1)+(2)+(3)-(4)]
DOCKED: USER
DOCKED: USER    (1) Final Intermolecular Energy     = -10.04 kcal/mol
DOCKED: USER        vdW + Hbond + desolv Energy     = -10.03 kcal/mol
DOCKED: USER        Electrostatic Energy            =  -0.01 kcal/mol
DOCKED: USER        Moving Ligand-Fixed Receptor    = -10.04 kcal/mol
DOCKED: USER        Moving Ligand-Moving Receptor   =  +0.00 kcal/mol
DOCKED: USER    (2) Final Total Internal Energy     =  -1.78 kcal/mol
DOCKED: USER    (3) Torsional Free Energy           =  +1.49 kcal/mol
DOCKED: USER    (4) Unbound System's Energy         =  -1.78 kcal/mol
DOCKED: USER
DOCKED: USER
DOCKED: REMARK SMILES O=C(NCC(=O)N1CCCC[C@@H]1c1ccc(Br)cc1)c1ccc2ccccc2n1
DOCKED: REMARK SMILES IDX 5 1 6 2 4 3 3 4 2 5 1 6 20 8 21 9 29 10 22 11 28 12 23 13
DOCKED: REMARK SMILES IDX 27 14 24 15 26 16 25 17 7 18 8 19 12 20 9 21 11 22 10 23
DOCKED: REMARK SMILES IDX 13 24 14 25 19 26 15 27 18 28 16 29 17 30
DOCKED: REMARK H PARENT 3 7
DOCKED: USER                              x       y       z     vdW  Elec       q    Type
DOCKED: USER                           _______ _______ _______ _____ _____    ______ ____
DOCKED: ROOT
DOCKED: ATOM      1  C   UNL     1     139.934  74.624 221.383 -0.20 -0.04    +0.242 C  
DOCKED: ATOM      2  O   UNL     1     141.017  74.752 221.982 -0.62 +0.02    -0.273 OA 
DOCKED: ENDROOT
DOCKED: BRANCH   1   3
DOCKED: ATOM      3  C   UNL     1     139.058  73.415 221.504 -0.15 -0.05    +0.216 C  
DOCKED: BRANCH   3   4
DOCKED: ATOM      4  N   UNL     1     139.407  72.675 222.691 -0.11 +0.08    -0.342 N  
DOCKED: ATOM      5  C   UNL     1     138.945  71.321 222.789 -0.16 -0.06    +0.270 C  
DOCKED: ATOM      6  O   UNL     1     138.264  70.852 221.837 -0.06 +0.05    -0.268 OA 
DOCKED: ATOM      7  H   UNL     1     139.970  73.052 223.483 -0.31 -0.02    +0.164 HD 
DOCKED: BRANCH   5   8
DOCKED: ATOM      8  C   UNL     1     139.264  70.520 223.963 -0.28 -0.02    +0.128 A  
DOCKED: ATOM      9  C   UNL     1     138.948  69.181 223.955 -0.29 -0.01    +0.035 A  
DOCKED: ATOM     10  N   UNL     1     139.849  71.018 225.050 -0.29 +0.04    -0.243 NA 
DOCKED: ATOM     11  C   UNL     1     139.207  68.341 225.013 -0.42 -0.00    +0.013 A  
DOCKED: ATOM     12  C   UNL     1     140.129  70.245 226.118 -0.47 -0.01    +0.071 A  
DOCKED: ATOM     13  C   UNL     1     139.814  68.890 226.120 -0.53 -0.00    +0.000 A  
DOCKED: ATOM     14  C   UNL     1     140.738  70.764 227.250 -0.64 -0.00    +0.029 A  
DOCKED: ATOM     15  C   UNL     1     140.089  68.090 227.195 -0.66 -0.00    +0.010 A  
DOCKED: ATOM     16  C   UNL     1     141.016  69.945 228.339 -0.57 -0.00    +0.002 A  
DOCKED: ATOM     17  C   UNL     1     140.687  68.586 228.313 -0.67 -0.00    +0.001 A  
DOCKED: ENDBRANCH   5   8
DOCKED: ENDBRANCH   3   4
DOCKED: ENDBRANCH   1   3
DOCKED: BRANCH   1  18
DOCKED: ATOM     18  N   UNL     1     139.521  75.696 220.540 -0.04 +0.08    -0.334 N  
DOCKED: ATOM     19  C   UNL     1     139.892  75.595 219.136 -0.04 -0.03    +0.120 C  
DOCKED: ATOM     20  C   UNL     1     138.771  76.817 221.075 -0.13 -0.03    +0.115 C  
DOCKED: ATOM     21  C   UNL     1     139.053  76.424 218.223 -0.02 -0.01    +0.022 C  
DOCKED: ATOM     22  C   UNL     1     137.942  77.532 220.059 -0.04 -0.01    +0.030 C  
DOCKED: ATOM     23  C   UNL     1     137.684  76.560 218.903 -0.02 -0.00    +0.004 C  
DOCKED: BRANCH  20  24
DOCKED: ATOM     24  C   UNL     1     139.666  77.792 221.753 -0.25 +0.01    -0.025 A  
DOCKED: ATOM     25  C   UNL     1     139.256  78.572 222.811 -0.33 -0.00    +0.007 A  
DOCKED: ATOM     26  C   UNL     1     140.989  77.965 221.343 -0.32 -0.00    +0.007 A  
DOCKED: ATOM     27  C   UNL     1     140.083  79.476 223.441 -0.44 -0.00    +0.016 A  
DOCKED: ATOM     28  C   UNL     1     141.837  78.861 221.955 -0.45 -0.01    +0.016 A  
DOCKED: ATOM     29  C   UNL     1     141.386  79.628 223.015 -0.52 -0.00    +0.017 A  
DOCKED: ATOM     30  Br  UNL     1     142.585  80.866 223.848 -0.99 +0.01    -0.051 Br 
DOCKED: ENDBRANCH  20  24
DOCKED: ENDBRANCH   1  18
DOCKED: TORSDOF 5
DOCKED: TER
DOCKED: ENDMDL
________________________________________________________________________________


    FINAL DOCKED STATE:
    ________________________


Run:   6 / 20
Time taken for this run:   0.035s

DOCKED: MODEL        6
DOCKED: USER    Run = 6
DOCKED: USER
DOCKED: USER    Estimated Free Energy of Binding    =  -9.21 kcal/mol  [=(1)+(2)+(3)-(4)]
DOCKED: USER
DOCKED: USER    (1) Final Intermolecular Energy     = -10.70 kcal/mol
DOCKED: USER        vdW + Hbond + desolv Energy     = -10.63 kcal/mol
DOCKED: USER        Electrostatic Energy            =  -0.08 kcal/mol
DOCKED: USER        Moving Ligand-Fixed Receptor    = -10.70 kcal/mol
DOCKED: USER        Moving Ligand-Moving Receptor   =  +0.00 kcal/mol
DOCKED: USER    (2) Final Total Internal Energy     =  -1.60 kcal/mol
DOCKED: USER    (3) Torsional Free Energy           =  +1.49 kcal/mol
DOCKED: USER    (4) Unbound System's Energy         =  -1.60 kcal/mol
DOCKED: USER
DOCKED: USER
DOCKED: REMARK SMILES O=C(NCC(=O)N1CCCC[C@@H]1c1ccc(Br)cc1)c1ccc2ccccc2n1
DOCKED: REMARK SMILES IDX 5 1 6 2 4 3 3 4 2 5 1 6 20 8 21 9 29 10 22 11 28 12 23 13
DOCKED: REMARK SMILES IDX 27 14 24 15 26 16 25 17 7 18 8 19 12 20 9 21 11 22 10 23
DOCKED: REMARK SMILES IDX 13 24 14 25 19 26 15 27 18 28 16 29 17 30
DOCKED: REMARK H PARENT 3 7
DOCKED: USER                              x       y       z     vdW  Elec       q    Type
DOCKED: USER                           _______ _______ _______ _____ _____    ______ ____
DOCKED: ROOT
DOCKED: ATOM      1  C   UNL     1     139.502  75.137 220.851 -0.13 -0.05    +0.242 C  
DOCKED: ATOM      2  O   UNL     1     138.837  76.176 221.016 -0.08 +0.06    -0.273 OA 
DOCKED: ENDROOT
DOCKED: BRANCH   1   3
DOCKED: ATOM      3  C   UNL     1     138.909  73.762 220.882 -0.10 -0.05    +0.216 C  
DOCKED: BRANCH   3   4
DOCKED: ATOM      4  N   UNL     1     139.056  73.194 222.199 -0.10 +0.09    -0.342 N  
DOCKED: ATOM      5  C   UNL     1     139.629  71.884 222.297 -0.19 -0.05    +0.270 C  
DOCKED: ATOM      6  O   UNL     1     139.973  71.300 221.234 -0.09 +0.04    -0.268 OA 
DOCKED: ATOM      7  H   UNL     1     138.776  73.667 223.084 -0.54 -0.10    +0.164 HD 
DOCKED: BRANCH   5   8
DOCKED: ATOM      8  C   UNL     1     139.804  71.255 223.599 -0.32 -0.02    +0.128 A  
DOCKED: ATOM      9  C   UNL     1     139.446  69.936 223.750 -0.28 -0.01    +0.035 A  
DOCKED: ATOM     10  N   UNL     1     140.296  71.894 224.659 -0.26 +0.04    -0.243 NA 
DOCKED: ATOM     11  C   UNL     1     139.571  69.253 224.938 -0.39 -0.00    +0.013 A  
DOCKED: ATOM     12  C   UNL     1     140.444  71.279 225.849 -0.53 -0.01    +0.071 A  
DOCKED: ATOM     13  C   UNL     1     140.084  69.945 226.011 -0.50 -0.00    +0.000 A  
DOCKED: ATOM     14  C   UNL     1     140.956  71.945 226.951 -0.73 -0.01    +0.029 A  
DOCKED: ATOM     15  C   UNL     1     140.226  69.304 227.212 -0.59 -0.00    +0.010 A  
DOCKED: ATOM     16  C   UNL     1     141.098  71.287 228.168 -0.73 -0.00    +0.002 A  
DOCKED: ATOM     17  C   UNL     1     140.728  69.945 228.303 -0.58 -0.00    +0.001 A  
DOCKED: ENDBRANCH   5   8
DOCKED: ENDBRANCH   3   4
DOCKED: ENDBRANCH   1   3
DOCKED: BRANCH   1  18
DOCKED: ATOM     18  N   UNL     1     140.900  75.283 220.621 -0.10 +0.10    -0.334 N  
DOCKED: ATOM     19  C   UNL     1     141.752  74.212 221.118 -0.19 -0.02    +0.120 C  
DOCKED: ATOM     20  C   UNL     1     141.423  76.444 219.927 -0.20 -0.05    +0.115 C  
DOCKED: ATOM     21  C   UNL     1     143.085  74.135 220.451 -0.33 -0.01    +0.022 C  
DOCKED: ATOM     22  C   UNL     1     142.744  76.214 219.270 -0.33 -0.02    +0.030 C  
DOCKED: ATOM     23  C   UNL     1     142.891  74.706 219.040 -0.24 -0.00    +0.004 C  
DOCKED: BRANCH  20  24
DOCKED: ATOM     24  C   UNL     1     141.524  77.617 220.835 -0.31 +0.01    -0.025 A  
DOCKED: ATOM     25  C   UNL     1     141.826  78.885 220.388 -0.30 -0.00    +0.007 A  
DOCKED: ATOM     26  C   UNL     1     141.312  77.489 222.209 -0.28 -0.00    +0.007 A  
DOCKED: ATOM     27  C   UNL     1     141.919  79.973 221.228 -0.38 -0.01    +0.016 A  
DOCKED: ATOM     28  C   UNL     1     141.399  78.560 223.070 -0.55 -0.01    +0.016 A  
DOCKED: ATOM     29  C   UNL     1     141.706  79.817 222.582 -0.52 -0.01    +0.017 A  
DOCKED: ATOM     30  Br  UNL     1     141.821  81.289 223.800 -0.80 +0.01    -0.051 Br 
DOCKED: ENDBRANCH  20  24
DOCKED: ENDBRANCH   1  18
DOCKED: TORSDOF 5
DOCKED: TER
DOCKED: ENDMDL
________________________________________________________________________________


    FINAL DOCKED STATE:
    ________________________


Run:   7 / 20
Time taken for this run:   0.035s

DOCKED: MODEL        7
DOCKED: USER    Run = 7
DOCKED: USER
DOCKED: USER    Estimated Free Energy of Binding    =  -8.81 kcal/mol  [=(1)+(2)+(3)-(4)]
DOCKED: USER
DOCKED: USER    (1) Final Intermolecular Energy     = -10.30 kcal/mol
DOCKED: USER        vdW + Hbond + desolv Energy     = -10.18 kcal/mol
DOCKED: USER        Electrostatic Energy            =  -0.12 kcal/mol
DOCKED: USER        Moving Ligand-Fixed Receptor    = -10.30 kcal/mol
DOCKED: USER        Moving Ligand-Moving Receptor   =  +0.00 kcal/mol
DOCKED: USER    (2) Final Total Internal Energy     =  -1.77 kcal/mol
DOCKED: USER    (3) Torsional Free Energy           =  +1.49 kcal/mol
DOCKED: USER    (4) Unbound System's Energy         =  -1.77 kcal/mol
DOCKED: USER
DOCKED: USER
DOCKED: REMARK SMILES O=C(NCC(=O)N1CCCC[C@@H]1c1ccc(Br)cc1)c1ccc2ccccc2n1
DOCKED: REMARK SMILES IDX 5 1 6 2 4 3 3 4 2 5 1 6 20 8 21 9 29 10 22 11 28 12 23 13
DOCKED: REMARK SMILES IDX 27 14 24 15 26 16 25 17 7 18 8 19 12 20 9 21 11 22 10 23
DOCKED: REMARK SMILES IDX 13 24 14 25 19 26 15 27 18 28 16 29 17 30
DOCKED: REMARK H PARENT 3 7
DOCKED: USER                              x       y       z     vdW  Elec       q    Type
DOCKED: USER                           _______ _______ _______ _____ _____    ______ ____
DOCKED: ROOT
DOCKED: ATOM      1  C   UNL     1     140.662  75.096 221.195 -0.21 -0.05    +0.242 C  
DOCKED: ATOM      2  O   UNL     1     141.018  75.508 222.314 -0.43 +0.04    -0.273 OA 
DOCKED: ENDROOT
DOCKED: BRANCH   1   3
DOCKED: ATOM      3  C   UNL     1     139.554  74.110 220.991 -0.14 -0.04    +0.216 C  
DOCKED: BRANCH   3   4
DOCKED: ATOM      4  N   UNL     1     139.365  73.329 222.188 -0.12 +0.07    -0.342 N  
DOCKED: ATOM      5  C   UNL     1     140.353  72.338 222.497 -0.21 -0.03    +0.270 C  
DOCKED: ATOM      6  O   UNL     1     141.330  72.202 221.712 -0.20 +0.02    -0.268 OA 
DOCKED: ATOM      7  H   UNL     1     138.562  73.432 222.844 -0.52 -0.09    +0.164 HD 
DOCKED: BRANCH   5   8
DOCKED: ATOM      8  C   UNL     1     140.220  71.516 223.692 -0.34 -0.02    +0.128 A  
DOCKED: ATOM      9  C   UNL     1     139.583  70.301 223.592 -0.29 -0.01    +0.035 A  
DOCKED: ATOM     10  N   UNL     1     140.685  71.881 224.886 -0.28 +0.03    -0.243 NA 
DOCKED: ATOM     11  C   UNL     1     139.405  69.454 224.661 -0.36 -0.00    +0.013 A  
DOCKED: ATOM     12  C   UNL     1     140.543  71.094 225.970 -0.55 -0.01    +0.071 A  
DOCKED: ATOM     13  C   UNL     1     139.900  69.863 225.879 -0.48 -0.00    +0.000 A  
DOCKED: ATOM     14  C   UNL     1     141.027  71.475 227.212 -0.74 -0.00    +0.029 A  
DOCKED: ATOM     15  C   UNL     1     139.746  69.051 226.968 -0.56 -0.00    +0.010 A  
DOCKED: ATOM     16  C   UNL     1     140.867  70.643 228.315 -0.60 -0.00    +0.002 A  
DOCKED: ATOM     17  C   UNL     1     140.216  69.412 228.194 -0.63 -0.00    +0.001 A  
DOCKED: ENDBRANCH   5   8
DOCKED: ENDBRANCH   3   4
DOCKED: ENDBRANCH   1   3
DOCKED: BRANCH   1  18
DOCKED: ATOM     18  N   UNL     1     141.358  75.600 220.059 -0.08 +0.12    -0.334 N  
DOCKED: ATOM     19  C   UNL     1     140.540  75.983 218.917 -0.06 -0.04    +0.120 C  
DOCKED: ATOM     20  C   UNL     1     142.804  75.716 220.063 -0.26 -0.06    +0.115 C  
DOCKED: ATOM     21  C   UNL     1     141.206  76.938 217.984 -0.11 -0.01    +0.022 C  
DOCKED: ATOM     22  C   UNL     1     143.333  76.738 219.111 -0.34 -0.02    +0.030 C  
DOCKED: ATOM     23  C   UNL     1     142.206  77.737 218.830 -0.30 -0.00    +0.004 C  
DOCKED: BRANCH  20  24
DOCKED: ATOM     24  C   UNL     1     143.453  74.407 219.789 -0.33 +0.01    -0.025 A  
DOCKED: ATOM     25  C   UNL     1     142.921  73.476 218.924 -0.14 -0.00    +0.007 A  
DOCKED: ATOM     26  C   UNL     1     144.655  74.052 220.405 -0.51 -0.00    +0.007 A  
DOCKED: ATOM     27  C   UNL     1     143.521  72.262 218.668 -0.12 -0.00    +0.016 A  
DOCKED: ATOM     28  C   UNL     1     145.274  72.845 220.167 -0.49 +0.00    +0.016 A  
DOCKED: ATOM     29  C   UNL     1     144.707  71.936 219.292 -0.27 +0.00    +0.017 A  
DOCKED: ATOM     30  Br  UNL     1     145.590  70.267 218.979 -0.51 -0.03    -0.051 Br 
DOCKED: ENDBRANCH  20  24
DOCKED: ENDBRANCH   1  18
DOCKED: TORSDOF 5
DOCKED: TER
DOCKED: ENDMDL
________________________________________________________________________________


    FINAL DOCKED STATE:
    ________________________


Run:   8 / 20
Time taken for this run:   0.035s

DOCKED: MODEL        8
DOCKED: USER    Run = 8
DOCKED: USER
DOCKED: USER    Estimated Free Energy of Binding    =  -8.90 kcal/mol  [=(1)+(2)+(3)-(4)]
DOCKED: USER
DOCKED: USER    (1) Final Intermolecular Energy     = -10.39 kcal/mol
DOCKED: USER        vdW + Hbond + desolv Energy     = -10.38 kcal/mol
DOCKED: USER        Electrostatic Energy            =  -0.01 kcal/mol
DOCKED: USER        Moving Ligand-Fixed Receptor    = -10.39 kcal/mol
DOCKED: USER        Moving Ligand-Moving Receptor   =  +0.00 kcal/mol
DOCKED: USER    (2) Final Total Internal Energy     =  -1.46 kcal/mol
DOCKED: USER    (3) Torsional Free Energy           =  +1.49 kcal/mol
DOCKED: USER    (4) Unbound System's Energy         =  -1.46 kcal/mol
DOCKED: USER
DOCKED: USER
DOCKED: REMARK SMILES O=C(NCC(=O)N1CCCC[C@@H]1c1ccc(Br)cc1)c1ccc2ccccc2n1
DOCKED: REMARK SMILES IDX 5 1 6 2 4 3 3 4 2 5 1 6 20 8 21 9 29 10 22 11 28 12 23 13
DOCKED: REMARK SMILES IDX 27 14 24 15 26 16 25 17 7 18 8 19 12 20 9 21 11 22 10 23
DOCKED: REMARK SMILES IDX 13 24 14 25 19 26 15 27 18 28 16 29 17 30
DOCKED: REMARK H PARENT 3 7
DOCKED: USER                              x       y       z     vdW  Elec       q    Type
DOCKED: USER                           _______ _______ _______ _____ _____    ______ ____
DOCKED: ROOT
DOCKED: ATOM      1  C   UNL     1     139.871  75.146 220.664 -0.12 -0.06    +0.242 C  
DOCKED: ATOM      2  O   UNL     1     140.953  75.705 220.407 -0.12 +0.09    -0.273 OA 
DOCKED: ENDROOT
DOCKED: BRANCH   1   3
DOCKED: ATOM      3  C   UNL     1     139.674  73.662 220.616 -0.10 -0.04    +0.216 C  
DOCKED: BRANCH   3   4
DOCKED: ATOM      4  N   UNL     1     139.577  73.137 221.955 -0.14 +0.06    -0.342 N  
DOCKED: ATOM      5  C   UNL     1     140.212  71.880 222.223 -0.20 -0.04    +0.270 C  
DOCKED: ATOM      6  O   UNL     1     140.818  71.303 221.279 -0.12 +0.03    -0.268 OA 
DOCKED: ATOM      7  H   UNL     1     139.079  73.604 222.742 -0.49 -0.06    +0.164 HD 
DOCKED: BRANCH   5   8
DOCKED: ATOM      8  C   UNL     1     140.150  71.295 223.556 -0.32 -0.02    +0.128 A  
DOCKED: ATOM      9  C   UNL     1     139.534  70.076 223.715 -0.28 -0.01    +0.035 A  
DOCKED: ATOM     10  N   UNL     1     140.663  71.882 224.635 -0.26 +0.03    -0.243 NA 
DOCKED: ATOM     11  C   UNL     1     139.423  69.442 224.931 -0.38 -0.00    +0.013 A  
DOCKED: ATOM     12  C   UNL     1     140.587  71.311 225.853 -0.55 -0.01    +0.071 A  
DOCKED: ATOM     13  C   UNL     1     139.965  70.078 226.025 -0.51 -0.00    +0.000 A  
DOCKED: ATOM     14  C   UNL     1     141.121  71.923 226.976 -0.76 -0.00    +0.029 A  
DOCKED: ATOM     15  C   UNL     1     139.877  69.483 227.254 -0.57 -0.00    +0.010 A  
DOCKED: ATOM     16  C   UNL     1     141.028  71.312 228.222 -0.74 -0.00    +0.002 A  
DOCKED: ATOM     17  C   UNL     1     140.397  70.072 228.366 -0.55 -0.00    +0.001 A  
DOCKED: ENDBRANCH   5   8
DOCKED: ENDBRANCH   3   4
DOCKED: ENDBRANCH   1   3
DOCKED: BRANCH   1  18
DOCKED: ATOM     18  N   UNL     1     138.772  75.978 221.023 -0.06 +0.08    -0.334 N  
DOCKED: ATOM     19  C   UNL     1     137.866  76.352 219.947 -0.03 -0.03    +0.120 C  
DOCKED: ATOM     20  C   UNL     1     138.587  76.417 222.393 -0.26 -0.02    +0.115 C  
DOCKED: ATOM     21  C   UNL     1     136.511  76.774 220.410 -0.04 -0.00    +0.022 C  
DOCKED: ATOM     22  C   UNL     1     137.175  76.768 222.732 -0.25 -0.01    +0.030 C  
DOCKED: ATOM     23  C   UNL     1     136.265  76.042 221.736 -0.13 -0.00    +0.004 C  
DOCKED: BRANCH  20  24
DOCKED: ATOM     24  C   UNL     1     139.471  77.568 222.717 -0.30 +0.00    -0.025 A  
DOCKED: ATOM     25  C   UNL     1     140.845  77.477 222.724 -0.44 -0.00    +0.007 A  
DOCKED: ATOM     26  C   UNL     1     138.941  78.821 223.034 -0.33 -0.00    +0.007 A  
DOCKED: ATOM     27  C   UNL     1     141.666  78.542 223.023 -0.52 -0.01    +0.016 A  
DOCKED: ATOM     28  C   UNL     1     139.739  79.901 223.337 -0.41 -0.00    +0.016 A  
DOCKED: ATOM     29  C   UNL     1     141.116  79.768 223.334 -0.52 -0.00    +0.017 A  
DOCKED: ATOM     30  Br  UNL     1     142.201  81.286 223.758 -0.89 +0.01    -0.051 Br 
DOCKED: ENDBRANCH  20  24
DOCKED: ENDBRANCH   1  18
DOCKED: TORSDOF 5
DOCKED: TER
DOCKED: ENDMDL
________________________________________________________________________________


    FINAL DOCKED STATE:
    ________________________


Run:   9 / 20
Time taken for this run:   0.035s

DOCKED: MODEL        9
DOCKED: USER    Run = 9
DOCKED: USER
DOCKED: USER    Estimated Free Energy of Binding    =  -8.83 kcal/mol  [=(1)+(2)+(3)-(4)]
DOCKED: USER
DOCKED: USER    (1) Final Intermolecular Energy     = -10.32 kcal/mol
DOCKED: USER        vdW + Hbond + desolv Energy     = -10.20 kcal/mol
DOCKED: USER        Electrostatic Energy            =  -0.12 kcal/mol
DOCKED: USER        Moving Ligand-Fixed Receptor    = -10.32 kcal/mol
DOCKED: USER        Moving Ligand-Moving Receptor   =  +0.00 kcal/mol
DOCKED: USER    (2) Final Total Internal Energy     =  -1.78 kcal/mol
DOCKED: USER    (3) Torsional Free Energy           =  +1.49 kcal/mol
DOCKED: USER    (4) Unbound System's Energy         =  -1.78 kcal/mol
DOCKED: USER
DOCKED: USER
DOCKED: REMARK SMILES O=C(NCC(=O)N1CCCC[C@@H]1c1ccc(Br)cc1)c1ccc2ccccc2n1
DOCKED: REMARK SMILES IDX 5 1 6 2 4 3 3 4 2 5 1 6 20 8 21 9 29 10 22 11 28 12 23 13
DOCKED: REMARK SMILES IDX 27 14 24 15 26 16 25 17 7 18 8 19 12 20 9 21 11 22 10 23
DOCKED: REMARK SMILES IDX 13 24 14 25 19 26 15 27 18 28 16 29 17 30
DOCKED: REMARK H PARENT 3 7
DOCKED: USER                              x       y       z     vdW  Elec       q    Type
DOCKED: USER                           _______ _______ _______ _____ _____    ______ ____
DOCKED: ROOT
DOCKED: ATOM      1  C   UNL     1     140.623  75.093 221.148 -0.21 -0.06    +0.242 C  
DOCKED: ATOM      2  O   UNL     1     140.810  75.630 222.254 -0.46 +0.05    -0.273 OA 
DOCKED: ENDROOT
DOCKED: BRANCH   1   3
DOCKED: ATOM      3  C   UNL     1     139.681  73.949 220.931 -0.14 -0.04    +0.216 C  
DOCKED: BRANCH   3   4
DOCKED: ATOM      4  N   UNL     1     139.493  73.229 222.166 -0.14 +0.07    -0.342 N  
DOCKED: ATOM      5  C   UNL     1     140.392  72.149 222.448 -0.21 -0.03    +0.270 C  
DOCKED: ATOM      6  O   UNL     1     141.295  71.887 221.609 -0.17 +0.03    -0.268 OA 
DOCKED: ATOM      7  H   UNL     1     138.750  73.436 222.867 -0.51 -0.08    +0.164 HD 
DOCKED: BRANCH   5   8
DOCKED: ATOM      8  C   UNL     1     140.254  71.382 223.679 -0.33 -0.02    +0.128 A  
DOCKED: ATOM      9  C   UNL     1     139.623  70.160 223.630 -0.28 -0.01    +0.035 A  
DOCKED: ATOM     10  N   UNL     1     140.709  71.803 224.858 -0.28 +0.03    -0.243 NA 
DOCKED: ATOM     11  C   UNL     1     139.442  69.362 224.736 -0.37 -0.00    +0.013 A  
DOCKED: ATOM     12  C   UNL     1     140.563  71.066 225.976 -0.55 -0.01    +0.071 A  
DOCKED: ATOM     13  C   UNL     1     139.927  69.829 225.937 -0.49 -0.00    +0.000 A  
DOCKED: ATOM     14  C   UNL     1     141.037  71.506 227.202 -0.74 -0.00    +0.029 A  
DOCKED: ATOM     15  C   UNL     1     139.768  69.067 227.062 -0.57 -0.00    +0.010 A  
DOCKED: ATOM     16  C   UNL     1     140.873  70.725 228.341 -0.60 -0.00    +0.002 A  
DOCKED: ATOM     17  C   UNL     1     140.229  69.486 228.272 -0.63 -0.00    +0.001 A  
DOCKED: ENDBRANCH   5   8
DOCKED: ENDBRANCH   3   4
DOCKED: ENDBRANCH   1   3
DOCKED: BRANCH   1  18
DOCKED: ATOM     18  N   UNL     1     141.354  75.606 220.038 -0.07 +0.12    -0.334 N  
DOCKED: ATOM     19  C   UNL     1     140.575  75.979 218.866 -0.06 -0.04    +0.120 C  
DOCKED: ATOM     20  C   UNL     1     142.798  75.742 220.096 -0.25 -0.06    +0.115 C  
DOCKED: ATOM     21  C   UNL     1     141.262  76.943 217.958 -0.11 -0.01    +0.022 C  
DOCKED: ATOM     22  C   UNL     1     143.348  76.771 219.164 -0.32 -0.02    +0.030 C  
DOCKED: ATOM     23  C   UNL     1     142.219  77.755 218.841 -0.30 -0.00    +0.004 C  
DOCKED: BRANCH  20  24
DOCKED: ATOM     24  C   UNL     1     143.474  74.441 219.846 -0.34 +0.01    -0.025 A  
DOCKED: ATOM     25  C   UNL     1     144.640  74.071 220.479 -0.52 -0.00    +0.007 A  
DOCKED: ATOM     26  C   UNL     1     142.949  73.515 218.943 -0.15 -0.00    +0.007 A  
DOCKED: ATOM     27  C   UNL     1     145.268  72.867 220.249 -0.50 -0.00    +0.016 A  
DOCKED: ATOM     28  C   UNL     1     143.557  72.305 218.694 -0.12 -0.00    +0.016 A  
DOCKED: ATOM     29  C   UNL     1     144.728  71.971 219.350 -0.28 +0.00    +0.017 A  
DOCKED: ATOM     30  Br  UNL     1     145.552  70.282 218.987 -0.50 -0.03    -0.051 Br 
DOCKED: ENDBRANCH  20  24
DOCKED: ENDBRANCH   1  18
DOCKED: TORSDOF 5
DOCKED: TER
DOCKED: ENDMDL
________________________________________________________________________________


    FINAL DOCKED STATE:
    ________________________


Run:   10 / 20
Time taken for this run:   0.035s

DOCKED: MODEL        10
DOCKED: USER    Run = 10
DOCKED: USER
DOCKED: USER    Estimated Free Energy of Binding    =  -8.76 kcal/mol  [=(1)+(2)+(3)-(4)]
DOCKED: USER
DOCKED: USER    (1) Final Intermolecular Energy     = -10.25 kcal/mol
DOCKED: USER        vdW + Hbond + desolv Energy     = -10.24 kcal/mol
DOCKED: USER        Electrostatic Energy            =  -0.01 kcal/mol
DOCKED: USER        Moving Ligand-Fixed Receptor    = -10.25 kcal/mol
DOCKED: USER        Moving Ligand-Moving Receptor   =  +0.00 kcal/mol
DOCKED: USER    (2) Final Total Internal Energy     =  -1.75 kcal/mol
DOCKED: USER    (3) Torsional Free Energy           =  +1.49 kcal/mol
DOCKED: USER    (4) Unbound System's Energy         =  -1.75 kcal/mol
DOCKED: USER
DOCKED: USER
DOCKED: REMARK SMILES O=C(NCC(=O)N1CCCC[C@@H]1c1ccc(Br)cc1)c1ccc2ccccc2n1
DOCKED: REMARK SMILES IDX 5 1 6 2 4 3 3 4 2 5 1 6 20 8 21 9 29 10 22 11 28 12 23 13
DOCKED: REMARK SMILES IDX 27 14 24 15 26 16 25 17 7 18 8 19 12 20 9 21 11 22 10 23
DOCKED: REMARK SMILES IDX 13 24 14 25 19 26 15 27 18 28 16 29 17 30
DOCKED: REMARK H PARENT 3 7
DOCKED: USER                              x       y       z     vdW  Elec       q    Type
DOCKED: USER                           _______ _______ _______ _____ _____    ______ ____
DOCKED: ROOT
DOCKED: ATOM      1  C   UNL     1     140.231  73.410 219.994 -0.06 -0.05    +0.242 C  
DOCKED: ATOM      2  O   UNL     1     140.006  72.737 218.972 -0.01 +0.05    -0.273 OA 
DOCKED: ENDROOT
DOCKED: BRANCH   1   3
DOCKED: ATOM      3  C   UNL     1     139.164  73.845 220.950 -0.12 -0.04    +0.216 C  
DOCKED: BRANCH   3   4
DOCKED: ATOM      4  N   UNL     1     139.419  73.289 222.256 -0.13 +0.07    -0.342 N  
DOCKED: ATOM      5  C   UNL     1     139.449  71.861 222.375 -0.18 -0.05    +0.270 C  
DOCKED: ATOM      6  O   UNL     1     139.252  71.170 221.339 -0.07 +0.05    -0.268 OA 
DOCKED: ATOM      7  H   UNL     1     139.583  73.850 223.119 -0.51 -0.02    +0.164 HD 
DOCKED: BRANCH   5   8
DOCKED: ATOM      8  C   UNL     1     139.702  71.238 223.667 -0.32 -0.03    +0.128 A  
DOCKED: ATOM      9  C   UNL     1     139.381  69.911 223.835 -0.28 -0.01    +0.035 A  
DOCKED: ATOM     10  N   UNL     1     140.231  71.888 224.702 -0.24 +0.05    -0.243 NA 
DOCKED: ATOM     11  C   UNL     1     139.580  69.232 225.015 -0.39 -0.00    +0.013 A  
DOCKED: ATOM     12  C   UNL     1     140.450  71.278 225.883 -0.53 -0.01    +0.071 A  
DOCKED: ATOM     13  C   UNL     1     140.130  69.937 226.062 -0.51 -0.00    +0.000 A  
DOCKED: ATOM     14  C   UNL     1     141.001  71.957 226.959 -0.74 -0.01    +0.029 A  
DOCKED: ATOM     15  C   UNL     1     140.344  69.300 227.254 -0.60 -0.00    +0.010 A  
DOCKED: ATOM     16  C   UNL     1     141.217  71.303 228.167 -0.69 -0.00    +0.002 A  
DOCKED: ATOM     17  C   UNL     1     140.885  69.953 228.320 -0.57 -0.00    +0.001 A  
DOCKED: ENDBRANCH   5   8
DOCKED: ENDBRANCH   3   4
DOCKED: ENDBRANCH   1   3
DOCKED: BRANCH   1  18
DOCKED: ATOM     18  N   UNL     1     141.583  73.777 220.253 -0.07 +0.07    -0.334 N  
DOCKED: ATOM     19  C   UNL     1     142.381  72.820 221.004 -0.15 -0.02    +0.120 C  
DOCKED: ATOM     20  C   UNL     1     142.113  75.043 219.782 -0.21 -0.04    +0.115 C  
DOCKED: ATOM     21  C   UNL     1     143.853  72.983 220.828 -0.32 -0.00    +0.022 C  
DOCKED: ATOM     22  C   UNL     1     143.597  75.052 219.610 -0.37 -0.01    +0.030 C  
DOCKED: ATOM     23  C   UNL     1     144.053  73.600 219.438 -0.31 -0.00    +0.004 C  
DOCKED: BRANCH  20  24
DOCKED: ATOM     24  C   UNL     1     141.715  76.163 220.675 -0.26 +0.01    -0.025 A  
DOCKED: ATOM     25  C   UNL     1     141.085  75.966 221.885 -0.36 -0.00    +0.007 A  
DOCKED: ATOM     26  C   UNL     1     141.965  77.491 220.326 -0.31 -0.00    +0.007 A  
DOCKED: ATOM     27  C   UNL     1     140.715  77.002 222.714 -0.38 -0.00    +0.016 A  
DOCKED: ATOM     28  C   UNL     1     141.605  78.545 221.136 -0.35 -0.01    +0.016 A  
DOCKED: ATOM     29  C   UNL     1     140.973  78.305 222.344 -0.43 -0.01    +0.017 A  
DOCKED: ATOM     30  Br  UNL     1     140.484  79.788 223.451 -0.79 +0.01    -0.051 Br 
DOCKED: ENDBRANCH  20  24
DOCKED: ENDBRANCH   1  18
DOCKED: TORSDOF 5
DOCKED: TER
DOCKED: ENDMDL
________________________________________________________________________________


    FINAL DOCKED STATE:
    ________________________


Run:   11 / 20
Time taken for this run:   0.035s

DOCKED: MODEL        11
DOCKED: USER    Run = 11
DOCKED: USER
DOCKED: USER    Estimated Free Energy of Binding    =  -9.09 kcal/mol  [=(1)+(2)+(3)-(4)]
DOCKED: USER
DOCKED: USER    (1) Final Intermolecular Energy     = -10.58 kcal/mol
DOCKED: USER        vdW + Hbond + desolv Energy     = -10.53 kcal/mol
DOCKED: USER        Electrostatic Energy            =  -0.05 kcal/mol
DOCKED: USER        Moving Ligand-Fixed Receptor    = -10.58 kcal/mol
DOCKED: USER        Moving Ligand-Moving Receptor   =  +0.00 kcal/mol
DOCKED: USER    (2) Final Total Internal Energy     =  -1.44 kcal/mol
DOCKED: USER    (3) Torsional Free Energy           =  +1.49 kcal/mol
DOCKED: USER    (4) Unbound System's Energy         =  -1.44 kcal/mol
DOCKED: USER
DOCKED: USER
DOCKED: REMARK SMILES O=C(NCC(=O)N1CCCC[C@@H]1c1ccc(Br)cc1)c1ccc2ccccc2n1
DOCKED: REMARK SMILES IDX 5 1 6 2 4 3 3 4 2 5 1 6 20 8 21 9 29 10 22 11 28 12 23 13
DOCKED: REMARK SMILES IDX 27 14 24 15 26 16 25 17 7 18 8 19 12 20 9 21 11 22 10 23
DOCKED: REMARK SMILES IDX 13 24 14 25 19 26 15 27 18 28 16 29 17 30
DOCKED: REMARK H PARENT 3 7
DOCKED: USER                              x       y       z     vdW  Elec       q    Type
DOCKED: USER                           _______ _______ _______ _____ _____    ______ ____
DOCKED: ROOT
DOCKED: ATOM      1  C   UNL     1     141.480  74.406 220.682 -0.18 -0.06    +0.242 C  
DOCKED: ATOM      2  O   UNL     1     142.414  73.791 221.228 -0.16 +0.05    -0.273 OA 
DOCKED: ENDROOT
DOCKED: BRANCH   1   3
DOCKED: ATOM      3  C   UNL     1     140.035  74.154 220.983 -0.16 -0.04    +0.216 C  
DOCKED: BRANCH   3   4
DOCKED: ATOM      4  N   UNL     1     139.907  73.511 222.267 -0.13 +0.04    -0.342 N  
DOCKED: ATOM      5  C   UNL     1     140.282  72.130 222.359 -0.21 -0.03    +0.270 C  
DOCKED: ATOM      6  O   UNL     1     140.702  71.555 221.319 -0.13 +0.04    -0.268 OA 
DOCKED: ATOM      7  H   UNL     1     139.561  73.976 223.133 -0.51 -0.02    +0.164 HD 
DOCKED: BRANCH   5   8
DOCKED: ATOM      8  C   UNL     1     140.176  71.424 223.629 -0.33 -0.02    +0.128 A  
DOCKED: ATOM      9  C   UNL     1     139.541  70.204 223.656 -0.29 -0.01    +0.035 A  
DOCKED: ATOM     10  N   UNL     1     140.665  71.899 224.773 -0.26 +0.03    -0.243 NA 
DOCKED: ATOM     11  C   UNL     1     139.388  69.460 224.802 -0.37 -0.00    +0.013 A  
DOCKED: ATOM     12  C   UNL     1     140.548  71.216 225.928 -0.55 -0.01    +0.071 A  
DOCKED: ATOM     13  C   UNL     1     139.907  69.982 225.966 -0.49 -0.00    +0.000 A  
DOCKED: ATOM     14  C   UNL     1     141.057  71.712 227.118 -0.76 -0.01    +0.029 A  
DOCKED: ATOM     15  C   UNL     1     139.778  69.275 227.130 -0.56 -0.00    +0.010 A  
DOCKED: ATOM     16  C   UNL     1     140.922  70.987 228.298 -0.66 -0.00    +0.002 A  
DOCKED: ATOM     17  C   UNL     1     140.273  69.748 228.306 -0.61 -0.00    +0.001 A  
DOCKED: ENDBRANCH   5   8
DOCKED: ENDBRANCH   3   4
DOCKED: ENDBRANCH   1   3
DOCKED: BRANCH   1  18
DOCKED: ATOM     18  N   UNL     1     141.822  75.400 219.720 -0.08 +0.13    -0.334 N  
DOCKED: ATOM     19  C   UNL     1     143.029  75.159 218.943 -0.23 -0.05    +0.120 C  
DOCKED: ATOM     20  C   UNL     1     140.997  76.580 219.544 -0.13 -0.04    +0.115 C  
DOCKED: ATOM     21  C   UNL     1     143.086  75.913 217.656 -0.22 -0.01    +0.022 C  
DOCKED: ATOM     22  C   UNL     1     141.121  77.210 218.195 -0.11 -0.01    +0.030 C  
DOCKED: ATOM     23  C   UNL     1     141.630  76.137 217.227 -0.09 -0.00    +0.004 C  
DOCKED: BRANCH  20  24
DOCKED: ATOM     24  C   UNL     1     141.279  77.599 220.590 -0.27 +0.01    -0.025 A  
DOCKED: ATOM     25  C   UNL     1     141.105  77.357 221.935 -0.38 -0.00    +0.007 A  
DOCKED: ATOM     26  C   UNL     1     141.742  78.872 220.253 -0.29 -0.00    +0.007 A  
DOCKED: ATOM     27  C   UNL     1     141.365  78.298 222.905 -0.51 -0.01    +0.016 A  
DOCKED: ATOM     28  C   UNL     1     142.010  79.832 221.204 -0.35 -0.01    +0.016 A  
DOCKED: ATOM     29  C   UNL     1     141.821  79.549 222.545 -0.52 -0.01    +0.017 A  
DOCKED: ATOM     30  Br  UNL     1     142.201  80.901 223.846 -0.97 +0.01    -0.051 Br 
DOCKED: ENDBRANCH  20  24
DOCKED: ENDBRANCH   1  18
DOCKED: TORSDOF 5
DOCKED: TER
DOCKED: ENDMDL
________________________________________________________________________________


    FINAL DOCKED STATE:
    ________________________


Run:   12 / 20
Time taken for this run:   0.035s

DOCKED: MODEL        12
DOCKED: USER    Run = 12
DOCKED: USER
DOCKED: USER    Estimated Free Energy of Binding    =  -9.61 kcal/mol  [=(1)+(2)+(3)-(4)]
DOCKED: USER
DOCKED: USER    (1) Final Intermolecular Energy     = -11.10 kcal/mol
DOCKED: USER        vdW + Hbond + desolv Energy     = -11.02 kcal/mol
DOCKED: USER        Electrostatic Energy            =  -0.08 kcal/mol
DOCKED: USER        Moving Ligand-Fixed Receptor    = -11.10 kcal/mol
DOCKED: USER        Moving Ligand-Moving Receptor   =  +0.00 kcal/mol
DOCKED: USER    (2) Final Total Internal Energy     =  -1.25 kcal/mol
DOCKED: USER    (3) Torsional Free Energy           =  +1.49 kcal/mol
DOCKED: USER    (4) Unbound System's Energy         =  -1.25 kcal/mol
DOCKED: USER
DOCKED: USER
DOCKED: REMARK SMILES O=C(NCC(=O)N1CCCC[C@@H]1c1ccc(Br)cc1)c1ccc2ccccc2n1
DOCKED: REMARK SMILES IDX 5 1 6 2 4 3 3 4 2 5 1 6 20 8 21 9 29 10 22 11 28 12 23 13
DOCKED: REMARK SMILES IDX 27 14 24 15 26 16 25 17 7 18 8 19 12 20 9 21 11 22 10 23
DOCKED: REMARK SMILES IDX 13 24 14 25 19 26 15 27 18 28 16 29 17 30
DOCKED: REMARK H PARENT 3 7
DOCKED: USER                              x       y       z     vdW  Elec       q    Type
DOCKED: USER                           _______ _______ _______ _____ _____    ______ ____
DOCKED: ROOT
DOCKED: ATOM      1  C   UNL     1     139.982  75.191 221.678 -0.22 -0.04    +0.242 C  
DOCKED: ATOM      2  O   UNL     1     139.631  75.867 222.662 -0.42 +0.04    -0.273 OA 
DOCKED: ENDROOT
DOCKED: BRANCH   1   3
DOCKED: ATOM      3  C   UNL     1     139.297  73.928 221.254 -0.15 -0.04    +0.216 C  
DOCKED: BRANCH   3   4
DOCKED: ATOM      4  N   UNL     1     139.145  73.049 222.387 -0.08 +0.09    -0.342 N  
DOCKED: ATOM      5  C   UNL     1     140.229  72.161 222.689 -0.22 -0.03    +0.270 C  
DOCKED: ATOM      6  O   UNL     1     141.253  72.196 221.954 -0.22 +0.02    -0.268 OA 
DOCKED: ATOM      7  H   UNL     1     138.304  73.012 223.001 -0.45 -0.09    +0.164 HD 
DOCKED: BRANCH   5   8
DOCKED: ATOM      8  C   UNL     1     140.136  71.249 223.821 -0.34 -0.02    +0.128 A  
DOCKED: ATOM      9  C   UNL     1     139.490  70.046 223.650 -0.28 -0.01    +0.035 A  
DOCKED: ATOM     10  N   UNL     1     140.647  71.518 225.021 -0.33 +0.03    -0.243 NA 
DOCKED: ATOM     11  C   UNL     1     139.348  69.118 224.655 -0.36 -0.00    +0.013 A  
DOCKED: ATOM     12  C   UNL     1     140.541  70.649 226.045 -0.53 -0.01    +0.071 A  
DOCKED: ATOM     13  C   UNL     1     139.890  69.430 225.881 -0.48 -0.00    +0.000 A  
DOCKED: ATOM     14  C   UNL     1     141.073  70.930 227.293 -0.66 -0.00    +0.029 A  
DOCKED: ATOM     15  C   UNL     1     139.772  68.536 226.909 -0.60 -0.00    +0.010 A  
DOCKED: ATOM     16  C   UNL     1     140.950  70.015 228.334 -0.57 -0.00    +0.002 A  
DOCKED: ATOM     17  C   UNL     1     140.290  68.798 228.141 -0.65 -0.00    +0.001 A  
DOCKED: ENDBRANCH   5   8
DOCKED: ENDBRANCH   3   4
DOCKED: ENDBRANCH   1   3
DOCKED: BRANCH   1  18
DOCKED: ATOM     18  N   UNL     1     141.097  75.659 220.925 -0.14 +0.11    -0.334 N  
DOCKED: ATOM     19  C   UNL     1     142.252  74.775 220.863 -0.21 -0.04    +0.120 C  
DOCKED: ATOM     20  C   UNL     1     141.061  76.951 220.266 -0.20 -0.05    +0.115 C  
DOCKED: ATOM     21  C   UNL     1     143.160  75.041 219.708 -0.35 -0.01    +0.022 C  
DOCKED: ATOM     22  C   UNL     1     141.990  77.064 219.102 -0.26 -0.02    +0.030 C  
DOCKED: ATOM     23  C   UNL     1     142.284  75.645 218.604 -0.20 -0.00    +0.004 C  
DOCKED: BRANCH  20  24
DOCKED: ATOM     24  C   UNL     1     141.335  78.055 221.223 -0.33 +0.01    -0.025 A  
DOCKED: ATOM     25  C   UNL     1     141.366  77.871 222.588 -0.41 -0.00    +0.007 A  
DOCKED: ATOM     26  C   UNL     1     141.581  79.355 220.777 -0.33 -0.00    +0.007 A  
DOCKED: ATOM     27  C   UNL     1     141.621  78.892 223.476 -0.59 -0.01    +0.016 A  
DOCKED: ATOM     28  C   UNL     1     141.838  80.394 221.644 -0.43 -0.01    +0.016 A  
DOCKED: ATOM     29  C   UNL     1     141.859  80.167 223.009 -0.57 -0.00    +0.017 A  
DOCKED: ATOM     30  Br  UNL     1     142.219  81.629 224.191 -0.46 +0.00    -0.051 Br 
DOCKED: ENDBRANCH  20  24
DOCKED: ENDBRANCH   1  18
DOCKED: TORSDOF 5
DOCKED: TER
DOCKED: ENDMDL
________________________________________________________________________________


    FINAL DOCKED STATE:
    ________________________


Run:   13 / 20
Time taken for this run:   0.035s

DOCKED: MODEL        13
DOCKED: USER    Run = 13
DOCKED: USER
DOCKED: USER    Estimated Free Energy of Binding    =  -7.04 kcal/mol  [=(1)+(2)+(3)-(4)]
DOCKED: USER
DOCKED: USER    (1) Final Intermolecular Energy     =  -8.53 kcal/mol
DOCKED: USER        vdW + Hbond + desolv Energy     =  -8.47 kcal/mol
DOCKED: USER        Electrostatic Energy            =  -0.06 kcal/mol
DOCKED: USER        Moving Ligand-Fixed Receptor    =  -8.53 kcal/mol
DOCKED: USER        Moving Ligand-Moving Receptor   =  +0.00 kcal/mol
DOCKED: USER    (2) Final Total Internal Energy     =  -3.13 kcal/mol
DOCKED: USER    (3) Torsional Free Energy           =  +1.49 kcal/mol
DOCKED: USER    (4) Unbound System's Energy         =  -3.13 kcal/mol
DOCKED: USER
DOCKED: USER
DOCKED: REMARK SMILES O=C(NCC(=O)N1CCCC[C@@H]1c1ccc(Br)cc1)c1ccc2ccccc2n1
DOCKED: REMARK SMILES IDX 5 1 6 2 4 3 3 4 2 5 1 6 20 8 21 9 29 10 22 11 28 12 23 13
DOCKED: REMARK SMILES IDX 27 14 24 15 26 16 25 17 7 18 8 19 12 20 9 21 11 22 10 23
DOCKED: REMARK SMILES IDX 13 24 14 25 19 26 15 27 18 28 16 29 17 30
DOCKED: REMARK H PARENT 3 7
DOCKED: USER                              x       y       z     vdW  Elec       q    Type
DOCKED: USER                           _______ _______ _______ _____ _____    ______ ____
DOCKED: ROOT
DOCKED: ATOM      1  C   UNL     1     140.658  80.156 220.088 -0.13 -0.09    +0.242 C  
DOCKED: ATOM      2  O   UNL     1     139.529  80.643 219.897 -0.04 +0.07    -0.273 OA 
DOCKED: ENDROOT
DOCKED: BRANCH   1   3
DOCKED: ATOM      3  C   UNL     1     141.624  79.847 218.985 -0.19 -0.12    +0.216 C  
DOCKED: BRANCH   3   4
DOCKED: ATOM      4  N   UNL     1     142.285  78.594 219.250 -0.09 +0.25    -0.342 N  
DOCKED: ATOM      5  C   UNL     1     141.606  77.391 218.868 -0.13 -0.14    +0.270 C  
DOCKED: ATOM      6  O   UNL     1     140.473  77.491 218.323 -0.03 +0.10    -0.268 OA 
DOCKED: ATOM      7  H   UNL     1     143.221  78.499 219.699 -0.29 -0.20    +0.164 HD 
DOCKED: BRANCH   5   8
DOCKED: ATOM      8  C   UNL     1     142.221  76.093 219.108 -0.20 -0.06    +0.128 A  
DOCKED: ATOM      9  C   UNL     1     141.568  74.961 218.677 -0.09 -0.01    +0.035 A  
DOCKED: ATOM     10  N   UNL     1     143.391  75.941 219.727 -0.27 +0.15    -0.243 NA 
DOCKED: ATOM     11  C   UNL     1     142.065  73.691 218.857 -0.10 -0.00    +0.013 A  
DOCKED: ATOM     12  C   UNL     1     143.929  74.723 219.932 -0.38 -0.03    +0.071 A  
DOCKED: ATOM     13  C   UNL     1     143.276  73.573 219.500 -0.24 -0.00    +0.000 A  
DOCKED: ATOM     14  C   UNL     1     145.146  74.567 220.577 -0.41 -0.01    +0.029 A  
DOCKED: ATOM     15  C   UNL     1     143.806  72.328 219.699 -0.25 -0.00    +0.010 A  
DOCKED: ATOM     16  C   UNL     1     145.679  73.298 220.775 -0.65 -0.00    +0.002 A  
DOCKED: ATOM     17  C   UNL     1     145.001  72.159 220.330 -0.35 -0.00    +0.001 A  
DOCKED: ENDBRANCH   5   8
DOCKED: ENDBRANCH   3   4
DOCKED: ENDBRANCH   1   3
DOCKED: BRANCH   1  18
DOCKED: ATOM     18  N   UNL     1     141.036  79.885 221.434 -0.11 +0.11    -0.334 N  
DOCKED: ATOM     19  C   UNL     1     142.411  80.198 221.796 -0.32 -0.05    +0.120 C  
DOCKED: ATOM     20  C   UNL     1     140.084  79.327 222.376 -0.28 -0.03    +0.115 C  
DOCKED: ATOM     21  C   UNL     1     142.629  80.381 223.261 -0.66 -0.01    +0.022 C  
DOCKED: ATOM     22  C   UNL     1     140.402  79.622 223.806 -0.45 -0.01    +0.030 C  
DOCKED: ATOM     23  C   UNL     1     141.292  80.868 223.835 -0.50 -0.00    +0.004 C  
DOCKED: BRANCH  20  24
DOCKED: ATOM     24  C   UNL     1     139.943  77.858 222.197 -0.33 +0.01    -0.025 A  
DOCKED: ATOM     25  C   UNL     1     138.721  77.233 222.078 -0.27 -0.00    +0.007 A  
DOCKED: ATOM     26  C   UNL     1     141.063  77.025 222.138 -0.39 -0.00    +0.007 A  
DOCKED: ATOM     27  C   UNL     1     138.588  75.873 221.911 -0.27 -0.00    +0.016 A  
DOCKED: ATOM     28  C   UNL     1     140.957  75.663 221.972 -0.34 -0.00    +0.016 A  
DOCKED: ATOM     29  C   UNL     1     139.711  75.073 221.858 -0.30 -0.00    +0.017 A  
DOCKED: ATOM     30  Br  UNL     1     139.593  73.177 221.628 -0.41 +0.01    -0.051 Br 
DOCKED: ENDBRANCH  20  24
DOCKED: ENDBRANCH   1  18
DOCKED: TORSDOF 5
DOCKED: TER
DOCKED: ENDMDL
________________________________________________________________________________


    FINAL DOCKED STATE:
    ________________________


Run:   14 / 20
Time taken for this run:   0.035s

DOCKED: MODEL        14
DOCKED: USER    Run = 14
DOCKED: USER
DOCKED: USER    Estimated Free Energy of Binding    =  -8.72 kcal/mol  [=(1)+(2)+(3)-(4)]
DOCKED: USER
DOCKED: USER    (1) Final Intermolecular Energy     = -10.21 kcal/mol
DOCKED: USER        vdW + Hbond + desolv Energy     = -10.20 kcal/mol
DOCKED: USER        Electrostatic Energy            =  -0.01 kcal/mol
DOCKED: USER        Moving Ligand-Fixed Receptor    = -10.21 kcal/mol
DOCKED: USER        Moving Ligand-Moving Receptor   =  +0.00 kcal/mol
DOCKED: USER    (2) Final Total Internal Energy     =  -1.81 kcal/mol
DOCKED: USER    (3) Torsional Free Energy           =  +1.49 kcal/mol
DOCKED: USER    (4) Unbound System's Energy         =  -1.81 kcal/mol
DOCKED: USER
DOCKED: USER
DOCKED: REMARK SMILES O=C(NCC(=O)N1CCCC[C@@H]1c1ccc(Br)cc1)c1ccc2ccccc2n1
DOCKED: REMARK SMILES IDX 5 1 6 2 4 3 3 4 2 5 1 6 20 8 21 9 29 10 22 11 28 12 23 13
DOCKED: REMARK SMILES IDX 27 14 24 15 26 16 25 17 7 18 8 19 12 20 9 21 11 22 10 23
DOCKED: REMARK SMILES IDX 13 24 14 25 19 26 15 27 18 28 16 29 17 30
DOCKED: REMARK H PARENT 3 7
DOCKED: USER                              x       y       z     vdW  Elec       q    Type
DOCKED: USER                           _______ _______ _______ _____ _____    ______ ____
DOCKED: ROOT
DOCKED: ATOM      1  C   UNL     1     140.165  73.411 219.980 -0.05 -0.05    +0.242 C  
DOCKED: ATOM      2  O   UNL     1     139.922  72.783 218.934 -0.01 +0.05    -0.273 OA 
DOCKED: ENDROOT
DOCKED: BRANCH   1   3
DOCKED: ATOM      3  C   UNL     1     139.111  73.832 220.957 -0.12 -0.04    +0.216 C  
DOCKED: BRANCH   3   4
DOCKED: ATOM      4  N   UNL     1     139.400  73.281 222.257 -0.13 +0.07    -0.342 N  
DOCKED: ATOM      5  C   UNL     1     139.422  71.854 222.384 -0.18 -0.05    +0.270 C  
DOCKED: ATOM      6  O   UNL     1     139.190  71.158 221.359 -0.07 +0.05    -0.268 OA 
DOCKED: ATOM      7  H   UNL     1     139.594  73.845 223.112 -0.50 -0.02    +0.164 HD 
DOCKED: BRANCH   5   8
DOCKED: ATOM      8  C   UNL     1     139.709  71.236 223.672 -0.32 -0.03    +0.128 A  
DOCKED: ATOM      9  C   UNL     1     139.419  69.902 223.845 -0.28 -0.01    +0.035 A  
DOCKED: ATOM     10  N   UNL     1     140.240  71.897 224.698 -0.23 +0.05    -0.243 NA 
DOCKED: ATOM     11  C   UNL     1     139.650  69.228 225.021 -0.39 -0.00    +0.013 A  
DOCKED: ATOM     12  C   UNL     1     140.491  71.291 225.875 -0.54 -0.01    +0.071 A  
DOCKED: ATOM     13  C   UNL     1     140.201  69.943 226.060 -0.51 -0.00    +0.000 A  
DOCKED: ATOM     14  C   UNL     1     141.044  71.981 226.943 -0.75 -0.01    +0.029 A  
DOCKED: ATOM     15  C   UNL     1     140.448  69.312 227.248 -0.60 -0.00    +0.010 A  
DOCKED: ATOM     16  C   UNL     1     141.293  71.332 228.148 -0.67 -0.00    +0.002 A  
DOCKED: ATOM     17  C   UNL     1     140.991  69.976 228.305 -0.57 -0.00    +0.001 A  
DOCKED: ENDBRANCH   5   8
DOCKED: ENDBRANCH   3   4
DOCKED: ENDBRANCH   1   3
DOCKED: BRANCH   1  18
DOCKED: ATOM     18  N   UNL     1     141.526  73.740 220.246 -0.07 +0.07    -0.334 N  
DOCKED: ATOM     19  C   UNL     1     142.293  72.759 221.000 -0.17 -0.02    +0.120 C  
DOCKED: ATOM     20  C   UNL     1     142.094  74.991 219.781 -0.20 -0.04    +0.115 C  
DOCKED: ATOM     21  C   UNL     1     143.770  72.881 220.832 -0.31 -0.00    +0.022 C  
DOCKED: ATOM     22  C   UNL     1     143.578  74.960 219.617 -0.37 -0.01    +0.030 C  
DOCKED: ATOM     23  C   UNL     1     143.994  73.495 219.444 -0.30 -0.00    +0.004 C  
DOCKED: BRANCH  20  24
DOCKED: ATOM     24  C   UNL     1     141.722  76.120 220.674 -0.26 +0.01    -0.025 A  
DOCKED: ATOM     25  C   UNL     1     141.091  75.938 221.885 -0.36 -0.00    +0.007 A  
DOCKED: ATOM     26  C   UNL     1     142.001  77.442 220.324 -0.30 -0.00    +0.007 A  
DOCKED: ATOM     27  C   UNL     1     140.745  76.982 222.714 -0.38 -0.00    +0.016 A  
DOCKED: ATOM     28  C   UNL     1     141.666  78.504 221.134 -0.35 -0.01    +0.016 A  
DOCKED: ATOM     29  C   UNL     1     141.031  78.279 222.343 -0.44 -0.01    +0.017 A  
DOCKED: ATOM     30  Br  UNL     1     140.578  79.773 223.450 -0.80 +0.01    -0.051 Br 
DOCKED: ENDBRANCH  20  24
DOCKED: ENDBRANCH   1  18
DOCKED: TORSDOF 5
DOCKED: TER
DOCKED: ENDMDL
________________________________________________________________________________


    FINAL DOCKED STATE:
    ________________________


Run:   15 / 20
Time taken for this run:   0.035s

DOCKED: MODEL        15
DOCKED: USER    Run = 15
DOCKED: USER
DOCKED: USER    Estimated Free Energy of Binding    =  -8.63 kcal/mol  [=(1)+(2)+(3)-(4)]
DOCKED: USER
DOCKED: USER    (1) Final Intermolecular Energy     = -10.13 kcal/mol
DOCKED: USER        vdW + Hbond + desolv Energy     = -10.12 kcal/mol
DOCKED: USER        Electrostatic Energy            =  -0.01 kcal/mol
DOCKED: USER        Moving Ligand-Fixed Receptor    = -10.13 kcal/mol
DOCKED: USER        Moving Ligand-Moving Receptor   =  +0.00 kcal/mol
DOCKED: USER    (2) Final Total Internal Energy     =  -1.84 kcal/mol
DOCKED: USER    (3) Torsional Free Energy           =  +1.49 kcal/mol
DOCKED: USER    (4) Unbound System's Energy         =  -1.84 kcal/mol
DOCKED: USER
DOCKED: USER
DOCKED: REMARK SMILES O=C(NCC(=O)N1CCCC[C@@H]1c1ccc(Br)cc1)c1ccc2ccccc2n1
DOCKED: REMARK SMILES IDX 5 1 6 2 4 3 3 4 2 5 1 6 20 8 21 9 29 10 22 11 28 12 23 13
DOCKED: REMARK SMILES IDX 27 14 24 15 26 16 25 17 7 18 8 19 12 20 9 21 11 22 10 23
DOCKED: REMARK SMILES IDX 13 24 14 25 19 26 15 27 18 28 16 29 17 30
DOCKED: REMARK H PARENT 3 7
DOCKED: USER                              x       y       z     vdW  Elec       q    Type
DOCKED: USER                           _______ _______ _______ _____ _____    ______ ____
DOCKED: ROOT
DOCKED: ATOM      1  C   UNL     1     140.086  73.378 219.962 -0.05 -0.05    +0.242 C  
DOCKED: ATOM      2  O   UNL     1     139.823  72.788 218.899 -0.01 +0.05    -0.273 OA 
DOCKED: ENDROOT
DOCKED: BRANCH   1   3
DOCKED: ATOM      3  C   UNL     1     139.047  73.794 220.957 -0.11 -0.05    +0.216 C  
DOCKED: BRANCH   3   4
DOCKED: ATOM      4  N   UNL     1     139.362  73.247 222.253 -0.12 +0.08    -0.342 N  
DOCKED: ATOM      5  C   UNL     1     139.368  71.820 222.388 -0.18 -0.05    +0.270 C  
DOCKED: ATOM      6  O   UNL     1     139.100  71.122 221.373 -0.06 +0.05    -0.268 OA 
DOCKED: ATOM      7  H   UNL     1     139.586  73.813 223.099 -0.51 -0.02    +0.164 HD 
DOCKED: BRANCH   5   8
DOCKED: ATOM      8  C   UNL     1     139.679  71.205 223.672 -0.31 -0.03    +0.128 A  
DOCKED: ATOM      9  C   UNL     1     139.394  69.871 223.853 -0.28 -0.01    +0.035 A  
DOCKED: ATOM     10  N   UNL     1     140.228  71.870 224.687 -0.24 +0.05    -0.243 NA 
DOCKED: ATOM     11  C   UNL     1     139.648  69.200 225.026 -0.39 -0.00    +0.013 A  
DOCKED: ATOM     12  C   UNL     1     140.501  71.267 225.860 -0.54 -0.01    +0.071 A  
DOCKED: ATOM     13  C   UNL     1     140.217  69.919 226.053 -0.51 -0.00    +0.000 A  
DOCKED: ATOM     14  C   UNL     1     141.073  71.960 226.916 -0.75 -0.01    +0.029 A  
DOCKED: ATOM     15  C   UNL     1     140.486  69.290 227.237 -0.60 -0.00    +0.010 A  
DOCKED: ATOM     16  C   UNL     1     141.345  71.314 228.117 -0.65 -0.00    +0.002 A  
DOCKED: ATOM     17  C   UNL     1     141.048  69.957 228.283 -0.57 -0.00    +0.001 A  
DOCKED: ENDBRANCH   5   8
DOCKED: ENDBRANCH   3   4
DOCKED: ENDBRANCH   1   3
DOCKED: BRANCH   1  18
DOCKED: ATOM     18  N   UNL     1     141.455  73.664 220.231 -0.06 +0.07    -0.334 N  
DOCKED: ATOM     19  C   UNL     1     142.184  72.669 221.005 -0.18 -0.01    +0.120 C  
DOCKED: ATOM     20  C   UNL     1     142.069  74.888 219.750 -0.19 -0.04    +0.115 C  
DOCKED: ATOM     21  C   UNL     1     143.666  72.738 220.843 -0.29 -0.00    +0.022 C  
DOCKED: ATOM     22  C   UNL     1     143.552  74.803 219.595 -0.35 -0.01    +0.030 C  
DOCKED: ATOM     23  C   UNL     1     143.918  73.323 219.447 -0.28 -0.00    +0.004 C  
DOCKED: BRANCH  20  24
DOCKED: ATOM     24  C   UNL     1     141.731  76.042 220.624 -0.26 +0.01    -0.025 A  
DOCKED: ATOM     25  C   UNL     1     141.980  77.349 220.266 -0.30 -0.00    +0.007 A  
DOCKED: ATOM     26  C   UNL     1     141.133  75.855 221.871 -0.33 -0.00    +0.007 A  
DOCKED: ATOM     27  C   UNL     1     141.668  78.420 221.073 -0.34 -0.01    +0.016 A  
DOCKED: ATOM     28  C   UNL     1     140.810  76.908 222.698 -0.37 -0.00    +0.016 A  
DOCKED: ATOM     29  C   UNL     1     141.078  78.206 222.302 -0.44 -0.01    +0.017 A  
DOCKED: ATOM     30  Br  UNL     1     140.620  79.651 223.470 -0.82 +0.01    -0.051 Br 
DOCKED: ENDBRANCH  20  24
DOCKED: ENDBRANCH   1  18
DOCKED: TORSDOF 5
DOCKED: TER
DOCKED: ENDMDL
________________________________________________________________________________


    FINAL DOCKED STATE:
    ________________________


Run:   16 / 20
Time taken for this run:   0.035s

DOCKED: MODEL        16
DOCKED: USER    Run = 16
DOCKED: USER
DOCKED: USER    Estimated Free Energy of Binding    =  -8.85 kcal/mol  [=(1)+(2)+(3)-(4)]
DOCKED: USER
DOCKED: USER    (1) Final Intermolecular Energy     = -10.34 kcal/mol
DOCKED: USER        vdW + Hbond + desolv Energy     = -10.22 kcal/mol
DOCKED: USER        Electrostatic Energy            =  -0.12 kcal/mol
DOCKED: USER        Moving Ligand-Fixed Receptor    = -10.34 kcal/mol
DOCKED: USER        Moving Ligand-Moving Receptor   =  +0.00 kcal/mol
DOCKED: USER    (2) Final Total Internal Energy     =  -1.78 kcal/mol
DOCKED: USER    (3) Torsional Free Energy           =  +1.49 kcal/mol
DOCKED: USER    (4) Unbound System's Energy         =  -1.78 kcal/mol
DOCKED: USER
DOCKED: USER
DOCKED: REMARK SMILES O=C(NCC(=O)N1CCCC[C@@H]1c1ccc(Br)cc1)c1ccc2ccccc2n1
DOCKED: REMARK SMILES IDX 5 1 6 2 4 3 3 4 2 5 1 6 20 8 21 9 29 10 22 11 28 12 23 13
DOCKED: REMARK SMILES IDX 27 14 24 15 26 16 25 17 7 18 8 19 12 20 9 21 11 22 10 23
DOCKED: REMARK SMILES IDX 13 24 14 25 19 26 15 27 18 28 16 29 17 30
DOCKED: REMARK H PARENT 3 7
DOCKED: USER                              x       y       z     vdW  Elec       q    Type
DOCKED: USER                           _______ _______ _______ _____ _____    ______ ____
DOCKED: ROOT
DOCKED: ATOM      1  C   UNL     1     140.639  75.171 221.168 -0.21 -0.06    +0.242 C  
DOCKED: ATOM      2  O   UNL     1     140.872  75.695 222.273 -0.44 +0.05    -0.273 OA 
DOCKED: ENDROOT
DOCKED: BRANCH   1   3
DOCKED: ATOM      3  C   UNL     1     139.658  74.057 220.971 -0.14 -0.04    +0.216 C  
DOCKED: BRANCH   3   4
DOCKED: ATOM      4  N   UNL     1     139.486  73.331 222.205 -0.14 +0.07    -0.342 N  
DOCKED: ATOM      5  C   UNL     1     140.373  72.234 222.459 -0.21 -0.03    +0.270 C  
DOCKED: ATOM      6  O   UNL     1     141.252  71.963 221.597 -0.18 +0.03    -0.268 OA 
DOCKED: ATOM      7  H   UNL     1     138.764  73.546 222.925 -0.52 -0.09    +0.164 HD 
DOCKED: BRANCH   5   8
DOCKED: ATOM      8  C   UNL     1     140.251  71.461 223.688 -0.34 -0.02    +0.128 A  
DOCKED: ATOM      9  C   UNL     1     139.646  70.226 223.635 -0.28 -0.01    +0.035 A  
DOCKED: ATOM     10  N   UNL     1     140.696  71.888 224.868 -0.28 +0.03    -0.243 NA 
DOCKED: ATOM     11  C   UNL     1     139.482  69.421 224.738 -0.37 -0.00    +0.013 A  
DOCKED: ATOM     12  C   UNL     1     140.565  71.144 225.984 -0.55 -0.01    +0.071 A  
DOCKED: ATOM     13  C   UNL     1     139.955  69.895 225.940 -0.49 -0.00    +0.000 A  
DOCKED: ATOM     14  C   UNL     1     141.029  71.590 227.211 -0.75 -0.01    +0.029 A  
DOCKED: ATOM     15  C   UNL     1     139.813  69.126 227.063 -0.57 -0.00    +0.010 A  
DOCKED: ATOM     16  C   UNL     1     140.881  70.803 228.348 -0.60 -0.00    +0.002 A  
DOCKED: ATOM     17  C   UNL     1     140.264  69.551 228.275 -0.62 -0.00    +0.001 A  
DOCKED: ENDBRANCH   5   8
DOCKED: ENDBRANCH   3   4
DOCKED: ENDBRANCH   1   3
DOCKED: BRANCH   1  18
DOCKED: ATOM     18  N   UNL     1     141.353  75.671 220.042 -0.08 +0.12    -0.334 N  
DOCKED: ATOM     19  C   UNL     1     140.555  76.034 218.879 -0.06 -0.04    +0.120 C  
DOCKED: ATOM     20  C   UNL     1     142.798  75.803 220.074 -0.25 -0.07    +0.115 C  
DOCKED: ATOM     21  C   UNL     1     141.231  76.987 217.951 -0.11 -0.01    +0.022 C  
DOCKED: ATOM     22  C   UNL     1     143.336  76.821 219.123 -0.30 -0.02    +0.030 C  
DOCKED: ATOM     23  C   UNL     1     142.204  77.805 218.810 -0.30 -0.00    +0.004 C  
DOCKED: BRANCH  20  24
DOCKED: ATOM     24  C   UNL     1     143.466  74.498 219.827 -0.34 +0.01    -0.025 A  
DOCKED: ATOM     25  C   UNL     1     144.625  74.118 220.466 -0.52 -0.00    +0.007 A  
DOCKED: ATOM     26  C   UNL     1     142.940  73.577 218.918 -0.15 -0.00    +0.007 A  
DOCKED: ATOM     27  C   UNL     1     145.245  72.909 220.239 -0.50 -0.00    +0.016 A  
DOCKED: ATOM     28  C   UNL     1     143.540  72.362 218.672 -0.12 -0.00    +0.016 A  
DOCKED: ATOM     29  C   UNL     1     144.705  72.018 219.335 -0.28 +0.00    +0.017 A  
DOCKED: ATOM     30  Br  UNL     1     145.518  70.324 218.974 -0.51 -0.02    -0.051 Br 
DOCKED: ENDBRANCH  20  24
DOCKED: ENDBRANCH   1  18
DOCKED: TORSDOF 5
DOCKED: TER
DOCKED: ENDMDL
________________________________________________________________________________


    FINAL DOCKED STATE:
    ________________________


Run:   17 / 20
Time taken for this run:   0.035s

DOCKED: MODEL        17
DOCKED: USER    Run = 17
DOCKED: USER
DOCKED: USER    Estimated Free Energy of Binding    =  -7.18 kcal/mol  [=(1)+(2)+(3)-(4)]
DOCKED: USER
DOCKED: USER    (1) Final Intermolecular Energy     =  -8.67 kcal/mol
DOCKED: USER        vdW + Hbond + desolv Energy     =  -8.68 kcal/mol
DOCKED: USER        Electrostatic Energy            =  +0.01 kcal/mol
DOCKED: USER        Moving Ligand-Fixed Receptor    =  -8.67 kcal/mol
DOCKED: USER        Moving Ligand-Moving Receptor   =  +0.00 kcal/mol
DOCKED: USER    (2) Final Total Internal Energy     =  -2.99 kcal/mol
DOCKED: USER    (3) Torsional Free Energy           =  +1.49 kcal/mol
DOCKED: USER    (4) Unbound System's Energy         =  -2.99 kcal/mol
DOCKED: USER
DOCKED: USER
DOCKED: REMARK SMILES O=C(NCC(=O)N1CCCC[C@@H]1c1ccc(Br)cc1)c1ccc2ccccc2n1
DOCKED: REMARK SMILES IDX 5 1 6 2 4 3 3 4 2 5 1 6 20 8 21 9 29 10 22 11 28 12 23 13
DOCKED: REMARK SMILES IDX 27 14 24 15 26 16 25 17 7 18 8 19 12 20 9 21 11 22 10 23
DOCKED: REMARK SMILES IDX 13 24 14 25 19 26 15 27 18 28 16 29 17 30
DOCKED: REMARK H PARENT 3 7
DOCKED: USER                              x       y       z     vdW  Elec       q    Type
DOCKED: USER                           _______ _______ _______ _____ _____    ______ ____
DOCKED: ROOT
DOCKED: ATOM      1  C   UNL     1     142.210  72.711 221.042 -0.12 -0.03    +0.242 C  
DOCKED: ATOM      2  O   UNL     1     142.404  71.603 221.575 -0.07 +0.02    -0.273 OA 
DOCKED: ENDROOT
DOCKED: BRANCH   1   3
DOCKED: ATOM      3  C   UNL     1     140.922  73.468 221.151 -0.19 -0.03    +0.216 C  
DOCKED: BRANCH   3   4
DOCKED: ATOM      4  N   UNL     1     141.180  74.810 221.612 -0.17 +0.06    -0.342 N  
DOCKED: ATOM      5  C   UNL     1     140.049  75.637 221.913 -0.22 -0.05    +0.270 C  
DOCKED: ATOM      6  O   UNL     1     138.896  75.151 221.761 -0.23 +0.06    -0.268 OA 
DOCKED: ATOM      7  H   UNL     1     142.128  75.222 221.741 -0.33 -0.07    +0.164 HD 
DOCKED: BRANCH   5   8
DOCKED: ATOM      8  C   UNL     1     140.243  77.002 222.382 -0.33 -0.03    +0.128 A  
DOCKED: ATOM      9  C   UNL     1     139.137  77.754 222.706 -0.29 -0.01    +0.035 A  
DOCKED: ATOM     10  N   UNL     1     141.442  77.566 222.515 -0.19 +0.12    -0.243 NA 
DOCKED: ATOM     11  C   UNL     1     139.214  79.051 223.156 -0.35 -0.00    +0.013 A  
DOCKED: ATOM     12  C   UNL     1     141.582  78.833 222.952 -0.50 -0.03    +0.071 A  
DOCKED: ATOM     13  C   UNL     1     140.470  79.601 223.283 -0.47 -0.00    +0.000 A  
DOCKED: ATOM     14  C   UNL     1     142.831  79.419 223.091 -0.54 -0.01    +0.029 A  
DOCKED: ATOM     15  C   UNL     1     140.592  80.888 223.727 -0.42 -0.00    +0.010 A  
DOCKED: ATOM     16  C   UNL     1     142.947  80.729 223.544 -0.65 -0.00    +0.002 A  
DOCKED: ATOM     17  C   UNL     1     141.812  81.477 223.868 -0.55 -0.00    +0.001 A  
DOCKED: ENDBRANCH   5   8
DOCKED: ENDBRANCH   3   4
DOCKED: ENDBRANCH   1   3
DOCKED: BRANCH   1  18
DOCKED: ATOM     18  N   UNL     1     143.282  73.274 220.292 -0.12 +0.07    -0.334 N  
DOCKED: ATOM     19  C   UNL     1     144.590  73.271 220.929 -0.35 -0.03    +0.120 C  
DOCKED: ATOM     20  C   UNL     1     143.057  73.816 218.964 -0.15 -0.03    +0.115 C  
DOCKED: ATOM     21  C   UNL     1     145.733  73.387 219.976 -0.53 +0.00    +0.022 C  
DOCKED: ATOM     22  C   UNL     1     144.276  73.835 218.102 -0.17 -0.01    +0.030 C  
DOCKED: ATOM     23  C   UNL     1     145.248  72.785 218.651 -0.28 +0.00    +0.004 C  
DOCKED: BRANCH  20  24
DOCKED: ATOM     24  C   UNL     1     142.480  75.185 219.030 -0.21 +0.01    -0.025 A  
DOCKED: ATOM     25  C   UNL     1     143.121  76.238 219.643 -0.39 -0.00    +0.007 A  
DOCKED: ATOM     26  C   UNL     1     141.237  75.474 218.461 -0.09 -0.00    +0.007 A  
DOCKED: ATOM     27  C   UNL     1     142.589  77.507 219.704 -0.25 -0.01    +0.016 A  
DOCKED: ATOM     28  C   UNL     1     140.682  76.733 218.509 -0.08 -0.01    +0.016 A  
DOCKED: ATOM     29  C   UNL     1     141.359  77.765 219.136 -0.20 -0.01    +0.017 A  
DOCKED: ATOM     30  Br  UNL     1     140.564  79.505 219.187 -0.25 +0.02    -0.051 Br 
DOCKED: ENDBRANCH  20  24
DOCKED: ENDBRANCH   1  18
DOCKED: TORSDOF 5
DOCKED: TER
DOCKED: ENDMDL
________________________________________________________________________________


    FINAL DOCKED STATE:
    ________________________


Run:   18 / 20
Time taken for this run:   0.035s

DOCKED: MODEL        18
DOCKED: USER    Run = 18
DOCKED: USER
DOCKED: USER    Estimated Free Energy of Binding    =  -9.61 kcal/mol  [=(1)+(2)+(3)-(4)]
DOCKED: USER
DOCKED: USER    (1) Final Intermolecular Energy     = -11.10 kcal/mol
DOCKED: USER        vdW + Hbond + desolv Energy     = -11.01 kcal/mol
DOCKED: USER        Electrostatic Energy            =  -0.09 kcal/mol
DOCKED: USER        Moving Ligand-Fixed Receptor    = -11.10 kcal/mol
DOCKED: USER        Moving Ligand-Moving Receptor   =  +0.00 kcal/mol
DOCKED: USER    (2) Final Total Internal Energy     =  -1.40 kcal/mol
DOCKED: USER    (3) Torsional Free Energy           =  +1.49 kcal/mol
DOCKED: USER    (4) Unbound System's Energy         =  -1.40 kcal/mol
DOCKED: USER
DOCKED: USER
DOCKED: REMARK SMILES O=C(NCC(=O)N1CCCC[C@@H]1c1ccc(Br)cc1)c1ccc2ccccc2n1
DOCKED: REMARK SMILES IDX 5 1 6 2 4 3 3 4 2 5 1 6 20 8 21 9 29 10 22 11 28 12 23 13
DOCKED: REMARK SMILES IDX 27 14 24 15 26 16 25 17 7 18 8 19 12 20 9 21 11 22 10 23
DOCKED: REMARK SMILES IDX 13 24 14 25 19 26 15 27 18 28 16 29 17 30
DOCKED: REMARK H PARENT 3 7
DOCKED: USER                              x       y       z     vdW  Elec       q    Type
DOCKED: USER                           _______ _______ _______ _____ _____    ______ ____
DOCKED: ROOT
DOCKED: ATOM      1  C   UNL     1     139.855  75.395 221.278 -0.19 -0.05    +0.242 C  
DOCKED: ATOM      2  O   UNL     1     139.257  76.250 221.955 -0.22 +0.06    -0.273 OA 
DOCKED: ENDROOT
DOCKED: BRANCH   1   3
DOCKED: ATOM      3  C   UNL     1     139.328  74.014 221.036 -0.14 -0.04    +0.216 C  
DOCKED: BRANCH   3   4
DOCKED: ATOM      4  N   UNL     1     139.260  73.291 222.281 -0.11 +0.08    -0.342 N  
DOCKED: ATOM      5  C   UNL     1     140.168  72.197 222.464 -0.21 -0.04    +0.270 C  
DOCKED: ATOM      6  O   UNL     1     140.974  71.927 221.534 -0.16 +0.03    -0.268 OA 
DOCKED: ATOM      7  H   UNL     1     138.598  73.505 223.058 -0.52 -0.11    +0.164 HD 
DOCKED: BRANCH   5   8
DOCKED: ATOM      8  C   UNL     1     140.149  71.426 223.701 -0.34 -0.02    +0.128 A  
DOCKED: ATOM      9  C   UNL     1     139.594  70.168 223.687 -0.29 -0.01    +0.035 A  
DOCKED: ATOM     10  N   UNL     1     140.644  71.878 224.851 -0.28 +0.03    -0.243 NA 
DOCKED: ATOM     11  C   UNL     1     139.527  69.362 224.800 -0.37 -0.00    +0.013 A  
DOCKED: ATOM     12  C   UNL     1     140.609  71.136 225.975 -0.56 -0.01    +0.071 A  
DOCKED: ATOM     13  C   UNL     1     140.049  69.862 225.971 -0.50 -0.00    +0.000 A  
DOCKED: ATOM     14  C   UNL     1     141.125  71.607 227.172 -0.74 -0.00    +0.029 A  
DOCKED: ATOM     15  C   UNL     1     140.004  69.095 227.103 -0.59 -0.00    +0.010 A  
DOCKED: ATOM     16  C   UNL     1     141.075  70.821 228.318 -0.62 -0.00    +0.002 A  
DOCKED: ATOM     17  C   UNL     1     140.506  69.544 228.285 -0.61 -0.00    +0.001 A  
DOCKED: ENDBRANCH   5   8
DOCKED: ENDBRANCH   3   4
DOCKED: ENDBRANCH   1   3
DOCKED: BRANCH   1  18
DOCKED: ATOM     18  N   UNL     1     141.107  75.767 220.709 -0.12 +0.12    -0.334 N  
DOCKED: ATOM     19  C   UNL     1     142.178  74.785 220.803 -0.23 -0.04    +0.120 C  
DOCKED: ATOM     20  C   UNL     1     141.282  77.060 220.075 -0.20 -0.05    +0.115 C  
DOCKED: ATOM     21  C   UNL     1     143.268  74.975 219.803 -0.36 -0.01    +0.022 C  
DOCKED: ATOM     22  C   UNL     1     142.381  77.097 219.065 -0.31 -0.02    +0.030 C  
DOCKED: ATOM     23  C   UNL     1     142.623  75.661 218.591 -0.24 -0.00    +0.004 C  
DOCKED: BRANCH  20  24
DOCKED: ATOM     24  C   UNL     1     141.503  78.131 221.082 -0.33 +0.01    -0.025 A  
DOCKED: ATOM     25  C   UNL     1     141.424  77.909 222.440 -0.39 -0.00    +0.007 A  
DOCKED: ATOM     26  C   UNL     1     141.809  79.437 220.695 -0.33 -0.00    +0.007 A  
DOCKED: ATOM     27  C   UNL     1     141.630  78.899 223.374 -0.58 -0.01    +0.016 A  
DOCKED: ATOM     28  C   UNL     1     142.019  80.446 221.608 -0.44 -0.01    +0.016 A  
DOCKED: ATOM     29  C   UNL     1     141.929  80.181 222.964 -0.58 -0.00    +0.017 A  
DOCKED: ATOM     30  Br  UNL     1     142.226  81.601 224.213 -0.47 +0.00    -0.051 Br 
DOCKED: ENDBRANCH  20  24
DOCKED: ENDBRANCH   1  18
DOCKED: TORSDOF 5
DOCKED: TER
DOCKED: ENDMDL
________________________________________________________________________________


    FINAL DOCKED STATE:
    ________________________


Run:   19 / 20
Time taken for this run:   0.035s

DOCKED: MODEL        19
DOCKED: USER    Run = 19
DOCKED: USER
DOCKED: USER    Estimated Free Energy of Binding    =  -9.53 kcal/mol  [=(1)+(2)+(3)-(4)]
DOCKED: USER
DOCKED: USER    (1) Final Intermolecular Energy     = -11.02 kcal/mol
DOCKED: USER        vdW + Hbond + desolv Energy     = -10.92 kcal/mol
DOCKED: USER        Electrostatic Energy            =  -0.10 kcal/mol
DOCKED: USER        Moving Ligand-Fixed Receptor    = -11.02 kcal/mol
DOCKED: USER        Moving Ligand-Moving Receptor   =  +0.00 kcal/mol
DOCKED: USER    (2) Final Total Internal Energy     =  -1.11 kcal/mol
DOCKED: USER    (3) Torsional Free Energy           =  +1.49 kcal/mol
DOCKED: USER    (4) Unbound System's Energy         =  -1.11 kcal/mol
DOCKED: USER
DOCKED: USER
DOCKED: REMARK SMILES O=C(NCC(=O)N1CCCC[C@@H]1c1ccc(Br)cc1)c1ccc2ccccc2n1
DOCKED: REMARK SMILES IDX 5 1 6 2 4 3 3 4 2 5 1 6 20 8 21 9 29 10 22 11 28 12 23 13
DOCKED: REMARK SMILES IDX 27 14 24 15 26 16 25 17 7 18 8 19 12 20 9 21 11 22 10 23
DOCKED: REMARK SMILES IDX 13 24 14 25 19 26 15 27 18 28 16 29 17 30
DOCKED: REMARK H PARENT 3 7
DOCKED: USER                              x       y       z     vdW  Elec       q    Type
DOCKED: USER                           _______ _______ _______ _____ _____    ______ ____
DOCKED: ROOT
DOCKED: ATOM      1  C   UNL     1     140.344  75.125 221.547 -0.23 -0.04    +0.242 C  
DOCKED: ATOM      2  O   UNL     1     139.825  75.869 222.399 -0.44 +0.04    -0.273 OA 
DOCKED: ENDROOT
DOCKED: BRANCH   1   3
DOCKED: ATOM      3  C   UNL     1     139.968  73.687 221.366 -0.19 -0.03    +0.216 C  
DOCKED: BRANCH   3   4
DOCKED: ATOM      4  N   UNL     1     139.831  73.050 222.652 -0.10 +0.05    -0.342 N  
DOCKED: ATOM      5  C   UNL     1     140.649  71.903 222.915 -0.19 -0.02    +0.270 C  
DOCKED: ATOM      6  O   UNL     1     141.440  71.513 222.015 -0.13 +0.02    -0.268 OA 
DOCKED: ATOM      7  H   UNL     1     139.181  73.363 223.404 -0.45 -0.10    +0.164 HD 
DOCKED: BRANCH   5   8
DOCKED: ATOM      8  C   UNL     1     140.557  71.214 224.196 -0.35 -0.02    +0.128 A  
DOCKED: ATOM      9  C   UNL     1     140.925  71.889 225.337 -0.36 -0.00    +0.035 A  
DOCKED: ATOM     10  N   UNL     1     140.134  69.958 224.322 -0.14 +0.04    -0.243 NA 
DOCKED: ATOM     11  C   UNL     1     140.876  71.328 226.592 -0.68 -0.00    +0.013 A  
DOCKED: ATOM     12  C   UNL     1     140.063  69.354 225.524 -0.40 -0.01    +0.071 A  
DOCKED: ATOM     13  C   UNL     1     140.432  70.028 226.684 -0.56 -0.00    +0.000 A  
DOCKED: ATOM     14  C   UNL     1     139.622  68.046 225.654 -0.52 -0.00    +0.029 A  
DOCKED: ATOM     15  C   UNL     1     140.368  69.431 227.913 -0.63 -0.00    +0.010 A  
DOCKED: ATOM     16  C   UNL     1     139.559  67.446 226.907 -0.56 -0.00    +0.002 A  
DOCKED: ATOM     17  C   UNL     1     139.936  68.148 228.056 -0.56 -0.00    +0.001 A  
DOCKED: ENDBRANCH   5   8
DOCKED: ENDBRANCH   3   4
DOCKED: ENDBRANCH   1   3
DOCKED: BRANCH   1  18
DOCKED: ATOM     18  N   UNL     1     141.347  75.689 220.708 -0.13 +0.12    -0.334 N  
DOCKED: ATOM     19  C   UNL     1     142.562  74.906 220.537 -0.24 -0.05    +0.120 C  
DOCKED: ATOM     20  C   UNL     1     141.146  76.976 220.069 -0.19 -0.05    +0.115 C  
DOCKED: ATOM     21  C   UNL     1     143.342  75.252 219.313 -0.34 -0.01    +0.022 C  
DOCKED: ATOM     22  C   UNL     1     141.959  77.172 218.831 -0.24 -0.02    +0.030 C  
DOCKED: ATOM     23  C   UNL     1     142.326  75.786 218.294 -0.19 -0.00    +0.004 C  
DOCKED: BRANCH  20  24
DOCKED: ATOM     24  C   UNL     1     141.408  78.095 221.012 -0.32 +0.01    -0.025 A  
DOCKED: ATOM     25  C   UNL     1     141.638  79.388 220.593 -0.31 -0.00    +0.007 A  
DOCKED: ATOM     26  C   UNL     1     141.434  77.887 222.392 -0.38 -0.00    +0.007 A  
DOCKED: ATOM     27  C   UNL     1     141.881  80.426 221.465 -0.42 -0.01    +0.016 A  
DOCKED: ATOM     28  C   UNL     1     141.674  78.908 223.285 -0.58 -0.01    +0.016 A  
DOCKED: ATOM     29  C   UNL     1     141.902  80.192 222.824 -0.56 -0.00    +0.017 A  
DOCKED: ATOM     30  Br  UNL     1     142.233  81.592 224.087 -0.52 +0.00    -0.051 Br 
DOCKED: ENDBRANCH  20  24
DOCKED: ENDBRANCH   1  18
DOCKED: TORSDOF 5
DOCKED: TER
DOCKED: ENDMDL
________________________________________________________________________________


    FINAL DOCKED STATE:
    ________________________


Run:   20 / 20
Time taken for this run:   0.035s

DOCKED: MODEL        20
DOCKED: USER    Run = 20
DOCKED: USER
DOCKED: USER    Estimated Free Energy of Binding    =  -9.43 kcal/mol  [=(1)+(2)+(3)-(4)]
DOCKED: USER
DOCKED: USER    (1) Final Intermolecular Energy     = -10.92 kcal/mol
DOCKED: USER        vdW + Hbond + desolv Energy     = -10.83 kcal/mol
DOCKED: USER        Electrostatic Energy            =  -0.09 kcal/mol
DOCKED: USER        Moving Ligand-Fixed Receptor    = -10.92 kcal/mol
DOCKED: USER        Moving Ligand-Moving Receptor   =  +0.00 kcal/mol
DOCKED: USER    (2) Final Total Internal Energy     =  -1.47 kcal/mol
DOCKED: USER    (3) Torsional Free Energy           =  +1.49 kcal/mol
DOCKED: USER    (4) Unbound System's Energy         =  -1.47 kcal/mol
DOCKED: USER
DOCKED: USER
DOCKED: REMARK SMILES O=C(NCC(=O)N1CCCC[C@@H]1c1ccc(Br)cc1)c1ccc2ccccc2n1
DOCKED: REMARK SMILES IDX 5 1 6 2 4 3 3 4 2 5 1 6 20 8 21 9 29 10 22 11 28 12 23 13
DOCKED: REMARK SMILES IDX 27 14 24 15 26 16 25 17 7 18 8 19 12 20 9 21 11 22 10 23
DOCKED: REMARK SMILES IDX 13 24 14 25 19 26 15 27 18 28 16 29 17 30
DOCKED: REMARK H PARENT 3 7
DOCKED: USER                              x       y       z     vdW  Elec       q    Type
DOCKED: USER                           _______ _______ _______ _____ _____    ______ ____
DOCKED: ROOT
DOCKED: ATOM      1  C   UNL     1     139.645  75.221 221.139 -0.17 -0.05    +0.242 C  
DOCKED: ATOM      2  O   UNL     1     139.045  76.183 221.653 -0.16 +0.06    -0.273 OA 
DOCKED: ENDROOT
DOCKED: BRANCH   1   3
DOCKED: ATOM      3  C   UNL     1     139.050  73.855 220.995 -0.12 -0.05    +0.216 C  
DOCKED: BRANCH   3   4
DOCKED: ATOM      4  N   UNL     1     139.052  73.183 222.270 -0.09 +0.09    -0.342 N  
DOCKED: ATOM      5  C   UNL     1     139.961  72.088 222.443 -0.21 -0.04    +0.270 C  
DOCKED: ATOM      6  O   UNL     1     140.708  71.773 221.477 -0.15 +0.03    -0.268 OA 
DOCKED: ATOM      7  H   UNL     1     138.440  73.434 223.076 -0.52 -0.11    +0.164 HD 
DOCKED: BRANCH   5   8
DOCKED: ATOM      8  C   UNL     1     140.012  71.368 223.708 -0.33 -0.02    +0.128 A  
DOCKED: ATOM      9  C   UNL     1     139.530  70.081 223.756 -0.29 -0.01    +0.035 A  
DOCKED: ATOM     10  N   UNL     1     140.503  71.893 224.829 -0.26 +0.04    -0.243 NA 
DOCKED: ATOM     11  C   UNL     1     139.532  69.318 224.901 -0.38 -0.00    +0.013 A  
DOCKED: ATOM     12  C   UNL     1     140.533  71.196 225.981 -0.55 -0.01    +0.071 A  
DOCKED: ATOM     13  C   UNL     1     140.049  69.894 226.040 -0.50 -0.00    +0.000 A  
DOCKED: ATOM     14  C   UNL     1     141.045  71.744 227.147 -0.76 -0.01    +0.029 A  
DOCKED: ATOM     15  C   UNL     1     140.070  69.171 227.201 -0.59 -0.00    +0.010 A  
DOCKED: ATOM     16  C   UNL     1     141.064  71.003 228.324 -0.65 -0.00    +0.002 A  
DOCKED: ATOM     17  C   UNL     1     140.570  69.695 228.354 -0.59 -0.00    +0.001 A  
DOCKED: ENDBRANCH   5   8
DOCKED: ENDBRANCH   3   4
DOCKED: ENDBRANCH   1   3
DOCKED: BRANCH   1  18
DOCKED: ATOM     18  N   UNL     1     140.969  75.452 220.666 -0.11 +0.10    -0.334 N  
DOCKED: ATOM     19  C   UNL     1     141.950  74.418 220.959 -0.20 -0.03    +0.120 C  
DOCKED: ATOM     20  C   UNL     1     141.298  76.662 219.934 -0.19 -0.05    +0.115 C  
DOCKED: ATOM     21  C   UNL     1     143.140  74.435 220.059 -0.33 -0.01    +0.022 C  
DOCKED: ATOM     22  C   UNL     1     142.487  76.525 219.041 -0.30 -0.02    +0.030 C  
DOCKED: ATOM     23  C   UNL     1     142.664  75.036 218.730 -0.21 -0.00    +0.004 C  
DOCKED: BRANCH  20  24
DOCKED: ATOM     24  C   UNL     1     141.503  77.811 220.854 -0.31 +0.01    -0.025 A  
DOCKED: ATOM     25  C   UNL     1     141.805  79.080 220.410 -0.30 -0.00    +0.007 A  
DOCKED: ATOM     26  C   UNL     1     141.397  77.659 222.238 -0.29 -0.00    +0.007 A  
DOCKED: ATOM     27  C   UNL     1     141.996  80.146 221.260 -0.39 -0.01    +0.016 A  
DOCKED: ATOM     28  C   UNL     1     141.583  78.708 223.110 -0.56 -0.01    +0.016 A  
DOCKED: ATOM     29  C   UNL     1     141.886  79.967 222.623 -0.54 -0.01    +0.017 A  
DOCKED: ATOM     30  Br  UNL     1     142.139  81.409 223.857 -0.77 +0.01    -0.051 Br 
DOCKED: ENDBRANCH  20  24
DOCKED: ENDBRANCH   1  18
DOCKED: TORSDOF 5
DOCKED: TER
DOCKED: ENDMDL
________________________________________________________________________________


    CLUSTERING HISTOGRAM
    ____________________


________________________________________________________________________________
     |           |     |           |     |
Clus | Lowest    | Run | Mean      | Num | Histogram
-ter | Binding   |     | Binding   | in  |
Rank | Energy    |     | Energy    | Clus|    5    10   15   20   25   30   35
_____|___________|_____|___________|_____|____:____|____:____|____:____|____:___
   1 |     -9.61 |  12 |     -9.06 |  14 |##############
   2 |     -8.85 |  16 |     -8.83 |   4 |####
   3 |     -7.18 |  17 |     -7.18 |   1 |#
   4 |     -7.04 |  13 |     -7.04 |   1 |#
_____|___________|_____|___________|_____|______________________________________


    RMSD TABLE
    __________


_______________________________________________________________________
     |      |      |           |         |                 |
Rank | Sub- | Run  | Binding   | Cluster | Reference       | Grep
     | Rank |      | Energy    | RMSD    | RMSD            | Pattern
_____|______|______|___________|_________|_________________|___________
   1      1     12       -9.61      0.00    271.01           RANKING
   1      2     18       -9.61      0.42    271.03           RANKING
   1      3     19       -9.53      0.72    271.05           RANKING
   1      4     20       -9.43      0.58    270.89           RANKING
   1      5      1       -9.40      0.64    270.96           RANKING
   1      6      6       -9.21      0.82    270.79           RANKING
   1      7     11       -9.09      0.95    270.70           RANKING
   1      8      8       -8.90      1.77    270.74           RANKING
   1      9     10       -8.76      1.46    270.57           RANKING
   1     10      2       -8.73      1.48    270.56           RANKING
   1     11     14       -8.72      1.48    270.56           RANKING
   1     12      3       -8.69      1.49    270.56           RANKING
   1     13     15       -8.63      1.52    270.53           RANKING
   1     14      5       -8.55      1.66    270.49           RANKING
   2      1     16       -8.85      0.00    270.30           RANKING
   2      2      4       -8.84      0.11    270.28           RANKING
   2      3      9       -8.83      0.08    270.28           RANKING
   2      4      7       -8.81      0.13    270.27           RANKING
   3      1     17       -7.18      0.00    270.52           RANKING
   4      1     13       -7.04      0.00    270.32           RANKING

Run time 0.669 sec
Idle time 0.000 sec
