AutoDock-GPU version: v1.6

**********************************************************
**    AutoDock-GPU AUTODOCKTOOLS-COMPATIBLE DLG FILE    **
**********************************************************


    DOCKING PARAMETERS
    ________________________


Ligand file:                               /home/a/REINVENT4/ReinventStudies/pleaseWork/justmol2mol_4_Compounds_ontop/graph-dock-hn62wh/graph-DockGPU/node-autodockgpu/inputs/QSHVGDVTUIMASK-NAUSHLRJNA-N.pdbqt
Grid fld file:                             /home/a/REINVENT4/ReinventStudies/mols/Rad51/maps/rad51_receptor.maps.fld

Random seed:                               42
Number of runs:                            20
Number of energy evaluations:              1132076
Number of generations:                     42000
Size of population:                        150
Rate of crossover:                         80.000000%
Tournament selection probability limit:    60.000000%
Rate of mutation:                          2.000000%
Maximal allowed delta movement:            +/- 6.000000A
Maximal allowed delta angle:               +/- 90.000000

Rate of local search:                      100.000000%
Maximal number of local search iterations: 300
Rho lower bound:                           0.010000
Spread of local search delta movement:     2.000000A
Spread of local search delta angle:        74.999999
Limit of consecutive successes/failures:   4

Handle symmetry during clustering:         YES
RMSD tolerance:                            2.000000A

Program call in command line was:          /home/a/REINVENT4/ReinventStudies/adgpu-v1.6_linux_x64_cuda12_128wi --filelist batch.txt --heuristics 1 --nrun 20 --psize 150 --lsit 300 --seed 42 --heurmax 12000000 


    GRID PARAMETERS
    ________________________


Receptor name:                             rad51_receptor
Number of grid points (x, y, z):           53, 53, 53
Grid center (x, y, z):                     139.950000, 75.640000, 221.970000A
Grid size (x, y, z):                       19.500000, 19.500000, 19.500000A
Grid spacing:                              0.375000A


    LIGAND PARAMETERS
    ________________________


Ligand name:                               /home/a/REINVENT4/ReinventStudies/pleaseWork/justmol2mol_4_Compounds_ontop/graph-dock-hn62wh/graph-DockGPU/node-autodockgpu/inputs/QSHVGDVTUIMASK-NAUSHLRJNA-N
Number of atoms:                           30
Number of rotatable bonds:                 5
Number of atom types:                      7


    DUMMY DATA (only for ADT-compatibility)
    ________________________


DPF> outlev 1
DPF> ga_run 20
DPF> fld /home/a/REINVENT4/ReinventStudies/mols/Rad51/maps/rad51_receptor.maps.fld
DPF> move /home/a/REINVENT4/ReinventStudies/pleaseWork/justmol2mol_4_Compounds_ontop/graph-dock-hn62wh/graph-DockGPU/node-autodockgpu/inputs/QSHVGDVTUIMASK-NAUSHLRJNA-N.pdbqt


    COUNTER STATES
    ________________________


Number of energy evaluations performed:    857565
Number of generations used:                50


    INPUT LIGAND PDBQT FILE:
    ________________________


INPUT-LIGAND-PDBQT: REMARK SMILES O=C(NCC(=O)N1CCCC[C@H]1c1ccc(Br)cc1)c1ccc2ccccc2n1
INPUT-LIGAND-PDBQT: REMARK SMILES IDX 5 1 6 2 4 3 3 4 2 5 1 6 20 8 21 9 29 10 22 11 28 12 23 13
INPUT-LIGAND-PDBQT: REMARK SMILES IDX 27 14 24 15 26 16 25 17 7 18 8 19 12 20 9 21 11 22 10 23
INPUT-LIGAND-PDBQT: REMARK SMILES IDX 13 24 14 25 19 26 15 27 18 28 16 29 17 30
INPUT-LIGAND-PDBQT: REMARK H PARENT 3 7
INPUT-LIGAND-PDBQT: ROOT
INPUT-LIGAND-PDBQT: ATOM      1  C   UNL     1      -0.742   0.572  -0.453  1.00  0.00     0.242 C 
INPUT-LIGAND-PDBQT: ATOM      2  O   UNL     1      -0.118   1.039  -1.459  1.00  0.00    -0.273 OA
INPUT-LIGAND-PDBQT: ENDROOT
INPUT-LIGAND-PDBQT: BRANCH   1   3
INPUT-LIGAND-PDBQT: ATOM      3  C   UNL     1      -0.075  -0.150   0.643  1.00  0.00     0.216 C 
INPUT-LIGAND-PDBQT: BRANCH   3   4
INPUT-LIGAND-PDBQT: ATOM      4  N   UNL     1       1.356  -0.263   0.440  1.00  0.00    -0.342 N 
INPUT-LIGAND-PDBQT: ATOM      5  C   UNL     1       2.143   0.927   0.327  1.00  0.00     0.270 C 
INPUT-LIGAND-PDBQT: ATOM      6  O   UNL     1       1.595   2.060   0.405  1.00  0.00    -0.268 OA
INPUT-LIGAND-PDBQT: ATOM      7  H   UNL     1       1.860  -1.179   0.369  1.00  0.00     0.164 HD
INPUT-LIGAND-PDBQT: BRANCH   5   8
INPUT-LIGAND-PDBQT: ATOM      8  C   UNL     1       3.599   0.787   0.121  1.00  0.00     0.128 A 
INPUT-LIGAND-PDBQT: ATOM      9  C   UNL     1       4.386   1.904   0.008  1.00  0.00     0.035 A 
INPUT-LIGAND-PDBQT: ATOM     10  N   UNL     1       4.164  -0.452   0.042  1.00  0.00    -0.243 NA
INPUT-LIGAND-PDBQT: ATOM     11  C   UNL     1       5.759   1.760  -0.186  1.00  0.00     0.013 A 
INPUT-LIGAND-PDBQT: ATOM     12  C   UNL     1       5.474  -0.621  -0.144  1.00  0.00     0.071 A 
INPUT-LIGAND-PDBQT: ATOM     13  C   UNL     1       6.292   0.482  -0.261  1.00  0.00     0.000 A 
INPUT-LIGAND-PDBQT: ATOM     14  C   UNL     1       5.989  -1.898  -0.217  1.00  0.00     0.029 A 
INPUT-LIGAND-PDBQT: ATOM     15  C   UNL     1       7.637   0.243  -0.452  1.00  0.00     0.010 A 
INPUT-LIGAND-PDBQT: ATOM     16  C   UNL     1       7.336  -2.126  -0.408  1.00  0.00     0.002 A 
INPUT-LIGAND-PDBQT: ATOM     17  C   UNL     1       8.178  -1.021  -0.528  1.00  0.00     0.001 A 
INPUT-LIGAND-PDBQT: ENDBRANCH   5   8
INPUT-LIGAND-PDBQT: ENDBRANCH   3   4
INPUT-LIGAND-PDBQT: ENDBRANCH   1   3
INPUT-LIGAND-PDBQT: BRANCH   1  18
INPUT-LIGAND-PDBQT: ATOM     18  N   UNL     1      -2.148   0.783  -0.430  1.00  0.00    -0.334 N 
INPUT-LIGAND-PDBQT: ATOM     19  C   UNL     1      -2.721   1.508  -1.547  1.00  0.00     0.120 C 
INPUT-LIGAND-PDBQT: ATOM     20  C   UNL     1      -2.973   0.297   0.661  1.00  0.00     0.115 C 
INPUT-LIGAND-PDBQT: ATOM     21  C   UNL     1      -3.706   2.565  -1.068  1.00  0.00     0.022 C 
INPUT-LIGAND-PDBQT: ATOM     22  C   UNL     1      -3.835   1.467   1.091  1.00  0.00     0.030 C 
INPUT-LIGAND-PDBQT: ATOM     23  C   UNL     1      -4.670   1.851  -0.107  1.00  0.00     0.004 C 
INPUT-LIGAND-PDBQT: BRANCH  20  24
INPUT-LIGAND-PDBQT: ATOM     24  C   UNL     1      -3.786  -0.889   0.291  1.00  0.00    -0.025 A 
INPUT-LIGAND-PDBQT: ATOM     25  C   UNL     1      -5.103  -1.055   0.657  1.00  0.00     0.007 A 
INPUT-LIGAND-PDBQT: ATOM     26  C   UNL     1      -3.217  -1.894  -0.463  1.00  0.00     0.007 A 
INPUT-LIGAND-PDBQT: ATOM     27  C   UNL     1      -5.850  -2.163   0.304  1.00  0.00     0.016 A 
INPUT-LIGAND-PDBQT: ATOM     28  C   UNL     1      -3.969  -3.018  -0.823  1.00  0.00     0.016 A 
INPUT-LIGAND-PDBQT: ATOM     29  C   UNL     1      -5.285  -3.162  -0.445  1.00  0.00     0.017 A 
INPUT-LIGAND-PDBQT: ATOM     30  Br  UNL     1      -6.323  -4.685  -0.926  1.00  0.00    -0.051 Br
INPUT-LIGAND-PDBQT: ENDBRANCH  20  24
INPUT-LIGAND-PDBQT: ENDBRANCH   1  18
INPUT-LIGAND-PDBQT: TORSDOF 5


    FINAL DOCKED STATE:
    ________________________


Run:   1 / 20
Time taken for this run:   0.035s

DOCKED: MODEL        1
DOCKED: USER    Run = 1
DOCKED: USER
DOCKED: USER    Estimated Free Energy of Binding    =  -9.11 kcal/mol  [=(1)+(2)+(3)-(4)]
DOCKED: USER
DOCKED: USER    (1) Final Intermolecular Energy     = -10.60 kcal/mol
DOCKED: USER        vdW + Hbond + desolv Energy     = -10.48 kcal/mol
DOCKED: USER        Electrostatic Energy            =  -0.12 kcal/mol
DOCKED: USER        Moving Ligand-Fixed Receptor    = -10.60 kcal/mol
DOCKED: USER        Moving Ligand-Moving Receptor   =  +0.00 kcal/mol
DOCKED: USER    (2) Final Total Internal Energy     =  -1.28 kcal/mol
DOCKED: USER    (3) Torsional Free Energy           =  +1.49 kcal/mol
DOCKED: USER    (4) Unbound System's Energy         =  -1.28 kcal/mol
DOCKED: USER
DOCKED: USER
DOCKED: REMARK SMILES O=C(NCC(=O)N1CCCC[C@H]1c1ccc(Br)cc1)c1ccc2ccccc2n1
DOCKED: REMARK SMILES IDX 5 1 6 2 4 3 3 4 2 5 1 6 20 8 21 9 29 10 22 11 28 12 23 13
DOCKED: REMARK SMILES IDX 27 14 24 15 26 16 25 17 7 18 8 19 12 20 9 21 11 22 10 23
DOCKED: REMARK SMILES IDX 13 24 14 25 19 26 15 27 18 28 16 29 17 30
DOCKED: REMARK H PARENT 3 7
DOCKED: USER                              x       y       z     vdW  Elec       q    Type
DOCKED: USER                           _______ _______ _______ _____ _____    ______ ____
DOCKED: ROOT
DOCKED: ATOM      1  C   UNL     1     139.707  74.434 221.575 -0.20 -0.04    +0.242 C  
DOCKED: ATOM      2  O   UNL     1     140.823  74.182 222.132 -0.69 -0.01    -0.273 OA 
DOCKED: ENDROOT
DOCKED: BRANCH   1   3
DOCKED: ATOM      3  C   UNL     1     138.586  73.479 221.553 -0.13 -0.05    +0.216 C  
DOCKED: BRANCH   3   4
DOCKED: ATOM      4  N   UNL     1     138.627  72.554 222.668 -0.01 +0.12    -0.342 N  
DOCKED: ATOM      5  C   UNL     1     139.647  71.551 222.708 -0.20 -0.05    +0.270 C  
DOCKED: ATOM      6  O   UNL     1     140.500  71.476 221.783 -0.15 +0.04    -0.268 OA 
DOCKED: ATOM      7  H   UNL     1     137.943  72.573 223.462 -0.43 -0.10    +0.164 HD 
DOCKED: BRANCH   5   8
DOCKED: ATOM      8  C   UNL     1     139.669  70.619 223.854 -0.29 -0.02    +0.128 A  
DOCKED: ATOM      9  C   UNL     1     139.062  69.394 223.753 -0.27 -0.01    +0.035 A  
DOCKED: ATOM     10  N   UNL     1     140.292  70.974 225.014 -0.30 +0.04    -0.243 NA 
DOCKED: ATOM     11  C   UNL     1     139.089  68.522 224.841 -0.40 -0.00    +0.013 A  
DOCKED: ATOM     12  C   UNL     1     140.333  70.162 226.072 -0.48 -0.01    +0.071 A  
DOCKED: ATOM     13  C   UNL     1     139.732  68.924 226.002 -0.51 -0.00    +0.000 A  
DOCKED: ATOM     14  C   UNL     1     140.976  70.575 227.219 -0.61 -0.00    +0.029 A  
DOCKED: ATOM     15  C   UNL     1     139.809  68.129 227.127 -0.63 -0.00    +0.010 A  
DOCKED: ATOM     16  C   UNL     1     141.047  69.773 228.339 -0.57 -0.00    +0.002 A  
DOCKED: ATOM     17  C   UNL     1     140.445  68.517 228.285 -0.67 -0.00    +0.001 A  
DOCKED: ENDBRANCH   5   8
DOCKED: ENDBRANCH   3   4
DOCKED: ENDBRANCH   1   3
DOCKED: BRANCH   1  18
DOCKED: ATOM     18  N   UNL     1     139.583  75.709 220.959 -0.08 +0.08    -0.334 N  
DOCKED: ATOM     19  C   UNL     1     138.249  76.272 220.878 -0.10 -0.03    +0.120 C  
DOCKED: ATOM     20  C   UNL     1     140.737  76.417 220.435 -0.18 -0.04    +0.115 C  
DOCKED: ATOM     21  C   UNL     1     137.979  76.847 219.495 -0.03 -0.00    +0.022 C  
DOCKED: ATOM     22  C   UNL     1     140.361  76.856 219.034 -0.09 -0.01    +0.030 C  
DOCKED: ATOM     23  C   UNL     1     139.166  77.769 219.173 -0.04 -0.00    +0.004 C  
DOCKED: BRANCH  20  24
DOCKED: ATOM     24  C   UNL     1     141.153  77.561 221.285 -0.32 +0.01    -0.025 A  
DOCKED: ATOM     25  C   UNL     1     140.985  77.596 222.651 -0.45 -0.00    +0.007 A  
DOCKED: ATOM     26  C   UNL     1     141.744  78.661 220.701 -0.32 -0.00    +0.007 A  
DOCKED: ATOM     27  C   UNL     1     141.379  78.666 223.432 -0.57 -0.00    +0.016 A  
DOCKED: ATOM     28  C   UNL     1     142.145  79.748 221.487 -0.39 -0.01    +0.016 A  
DOCKED: ATOM     29  C   UNL     1     141.967  79.760 222.852 -0.57 -0.01    +0.017 A  
DOCKED: ATOM     30  Br  UNL     1     142.506  81.230 223.937 -0.79 +0.01    -0.051 Br 
DOCKED: ENDBRANCH  20  24
DOCKED: ENDBRANCH   1  18
DOCKED: TORSDOF 5
DOCKED: TER
DOCKED: ENDMDL
________________________________________________________________________________


    FINAL DOCKED STATE:
    ________________________


Run:   2 / 20
Time taken for this run:   0.035s

DOCKED: MODEL        2
DOCKED: USER    Run = 2
DOCKED: USER
DOCKED: USER    Estimated Free Energy of Binding    =  -8.76 kcal/mol  [=(1)+(2)+(3)-(4)]
DOCKED: USER
DOCKED: USER    (1) Final Intermolecular Energy     = -10.25 kcal/mol
DOCKED: USER        vdW + Hbond + desolv Energy     = -10.20 kcal/mol
DOCKED: USER        Electrostatic Energy            =  -0.05 kcal/mol
DOCKED: USER        Moving Ligand-Fixed Receptor    = -10.25 kcal/mol
DOCKED: USER        Moving Ligand-Moving Receptor   =  +0.00 kcal/mol
DOCKED: USER    (2) Final Total Internal Energy     =  -1.77 kcal/mol
DOCKED: USER    (3) Torsional Free Energy           =  +1.49 kcal/mol
DOCKED: USER    (4) Unbound System's Energy         =  -1.77 kcal/mol
DOCKED: USER
DOCKED: USER
DOCKED: REMARK SMILES O=C(NCC(=O)N1CCCC[C@H]1c1ccc(Br)cc1)c1ccc2ccccc2n1
DOCKED: REMARK SMILES IDX 5 1 6 2 4 3 3 4 2 5 1 6 20 8 21 9 29 10 22 11 28 12 23 13
DOCKED: REMARK SMILES IDX 27 14 24 15 26 16 25 17 7 18 8 19 12 20 9 21 11 22 10 23
DOCKED: REMARK SMILES IDX 13 24 14 25 19 26 15 27 18 28 16 29 17 30
DOCKED: REMARK H PARENT 3 7
DOCKED: USER                              x       y       z     vdW  Elec       q    Type
DOCKED: USER                           _______ _______ _______ _____ _____    ______ ____
DOCKED: ROOT
DOCKED: ATOM      1  C   UNL     1     138.391  74.943 221.224 -0.12 -0.06    +0.242 C  
DOCKED: ATOM      2  O   UNL     1     137.235  75.473 221.282 -0.06 +0.06    -0.273 OA 
DOCKED: ENDROOT
DOCKED: BRANCH   1   3
DOCKED: ATOM      3  C   UNL     1     138.605  73.493 221.085 -0.10 -0.05    +0.216 C  
DOCKED: BRANCH   3   4
DOCKED: ATOM      4  N   UNL     1     138.966  72.865 222.341 -0.10 +0.09    -0.342 N  
DOCKED: ATOM      5  C   UNL     1     138.998  71.437 222.425 -0.14 -0.06    +0.270 C  
DOCKED: ATOM      6  O   UNL     1     138.716  70.735 221.416 -0.05 +0.05    -0.268 OA 
DOCKED: ATOM      7  H   UNL     1     139.210  73.402 223.207 -0.48 -0.08    +0.164 HD 
DOCKED: BRANCH   5   8
DOCKED: ATOM      8  C   UNL     1     139.369  70.819 223.715 -0.28 -0.03    +0.128 A  
DOCKED: ATOM      9  C   UNL     1     139.158  69.480 223.920 -0.29 -0.01    +0.035 A  
DOCKED: ATOM     10  N   UNL     1     139.922  71.579 224.704 -0.26 +0.05    -0.243 NA 
DOCKED: ATOM     11  C   UNL     1     139.512  68.908 225.141 -0.42 -0.00    +0.013 A  
DOCKED: ATOM     12  C   UNL     1     140.270  71.059 225.883 -0.52 -0.01    +0.071 A  
DOCKED: ATOM     13  C   UNL     1     140.071  69.716 226.120 -0.50 -0.00    +0.000 A  
DOCKED: ATOM     14  C   UNL     1     140.824  71.876 226.846 -0.71 -0.01    +0.029 A  
DOCKED: ATOM     15  C   UNL     1     140.451  69.239 227.356 -0.61 -0.00    +0.010 A  
DOCKED: ATOM     16  C   UNL     1     141.201  71.388 228.080 -0.73 -0.00    +0.002 A  
DOCKED: ATOM     17  C   UNL     1     141.006  70.031 228.336 -0.56 -0.00    +0.001 A  
DOCKED: ENDBRANCH   5   8
DOCKED: ENDBRANCH   3   4
DOCKED: ENDBRANCH   1   3
DOCKED: BRANCH   1  18
DOCKED: ATOM     18  N   UNL     1     139.497  75.834 221.300 -0.11 +0.08    -0.334 N  
DOCKED: ATOM     19  C   UNL     1     139.735  76.477 222.577 -0.18 -0.02    +0.120 C  
DOCKED: ATOM     20  C   UNL     1     140.348  76.089 220.152 -0.13 -0.03    +0.115 C  
DOCKED: ATOM     21  C   UNL     1     140.014  77.963 222.399 -0.36 -0.01    +0.022 C  
DOCKED: ATOM     22  C   UNL     1     140.470  77.596 220.045 -0.16 -0.01    +0.030 C  
DOCKED: ATOM     23  C   UNL     1     141.111  78.070 221.328 -0.34 -0.00    +0.004 C  
DOCKED: BRANCH  20  24
DOCKED: ATOM     24  C   UNL     1     141.674  75.428 220.254 -0.25 +0.01    -0.025 A  
DOCKED: ATOM     25  C   UNL     1     141.859  74.167 220.775 -0.28 -0.00    +0.007 A  
DOCKED: ATOM     26  C   UNL     1     142.798  76.089 219.806 -0.35 -0.00    +0.007 A  
DOCKED: ATOM     27  C   UNL     1     143.098  73.561 220.861 -0.25 -0.00    +0.016 A  
DOCKED: ATOM     28  C   UNL     1     144.056  75.480 219.891 -0.35 -0.01    +0.016 A  
DOCKED: ATOM     29  C   UNL     1     144.216  74.218 220.417 -0.45 -0.01    +0.017 A  
DOCKED: ATOM     30  Br  UNL     1     145.920  73.374 220.541 -1.05 -0.00    -0.051 Br 
DOCKED: ENDBRANCH  20  24
DOCKED: ENDBRANCH   1  18
DOCKED: TORSDOF 5
DOCKED: TER
DOCKED: ENDMDL
________________________________________________________________________________


    FINAL DOCKED STATE:
    ________________________


Run:   3 / 20
Time taken for this run:   0.035s

DOCKED: MODEL        3
DOCKED: USER    Run = 3
DOCKED: USER
DOCKED: USER    Estimated Free Energy of Binding    =  -8.72 kcal/mol  [=(1)+(2)+(3)-(4)]
DOCKED: USER
DOCKED: USER    (1) Final Intermolecular Energy     = -10.21 kcal/mol
DOCKED: USER        vdW + Hbond + desolv Energy     = -10.16 kcal/mol
DOCKED: USER        Electrostatic Energy            =  -0.06 kcal/mol
DOCKED: USER        Moving Ligand-Fixed Receptor    = -10.21 kcal/mol
DOCKED: USER        Moving Ligand-Moving Receptor   =  +0.00 kcal/mol
DOCKED: USER    (2) Final Total Internal Energy     =  -1.81 kcal/mol
DOCKED: USER    (3) Torsional Free Energy           =  +1.49 kcal/mol
DOCKED: USER    (4) Unbound System's Energy         =  -1.81 kcal/mol
DOCKED: USER
DOCKED: USER
DOCKED: REMARK SMILES O=C(NCC(=O)N1CCCC[C@H]1c1ccc(Br)cc1)c1ccc2ccccc2n1
DOCKED: REMARK SMILES IDX 5 1 6 2 4 3 3 4 2 5 1 6 20 8 21 9 29 10 22 11 28 12 23 13
DOCKED: REMARK SMILES IDX 27 14 24 15 26 16 25 17 7 18 8 19 12 20 9 21 11 22 10 23
DOCKED: REMARK SMILES IDX 13 24 14 25 19 26 15 27 18 28 16 29 17 30
DOCKED: REMARK H PARENT 3 7
DOCKED: USER                              x       y       z     vdW  Elec       q    Type
DOCKED: USER                           _______ _______ _______ _____ _____    ______ ____
DOCKED: ROOT
DOCKED: ATOM      1  C   UNL     1     138.405  74.913 221.120 -0.11 -0.06    +0.242 C  
DOCKED: ATOM      2  O   UNL     1     137.261  75.471 221.107 -0.05 +0.06    -0.273 OA 
DOCKED: ENDROOT
DOCKED: BRANCH   1   3
DOCKED: ATOM      3  C   UNL     1     138.591  73.456 221.022 -0.10 -0.05    +0.216 C  
DOCKED: BRANCH   3   4
DOCKED: ATOM      4  N   UNL     1     138.945  72.857 222.293 -0.10 +0.09    -0.342 N  
DOCKED: ATOM      5  C   UNL     1     139.071  71.435 222.386 -0.15 -0.06    +0.270 C  
DOCKED: ATOM      6  O   UNL     1     138.877  70.713 221.371 -0.06 +0.05    -0.268 OA 
DOCKED: ATOM      7  H   UNL     1     139.118  73.411 223.166 -0.47 -0.08    +0.164 HD 
DOCKED: BRANCH   5   8
DOCKED: ATOM      8  C   UNL     1     139.434  70.847 223.692 -0.29 -0.02    +0.128 A  
DOCKED: ATOM      9  C   UNL     1     139.229  69.511 223.923 -0.28 -0.01    +0.035 A  
DOCKED: ATOM     10  N   UNL     1     139.971  71.631 224.671 -0.25 +0.05    -0.243 NA 
DOCKED: ATOM     11  C   UNL     1     139.575  68.968 225.160 -0.42 -0.00    +0.013 A  
DOCKED: ATOM     12  C   UNL     1     140.311  71.139 225.863 -0.53 -0.01    +0.071 A  
DOCKED: ATOM     13  C   UNL     1     140.118  69.800 226.127 -0.51 -0.00    +0.000 A  
DOCKED: ATOM     14  C   UNL     1     140.849  71.980 226.815 -0.68 -0.01    +0.029 A  
DOCKED: ATOM     15  C   UNL     1     140.489  69.351 227.377 -0.60 -0.00    +0.010 A  
DOCKED: ATOM     16  C   UNL     1     141.217  71.520 228.062 -0.75 -0.00    +0.002 A  
DOCKED: ATOM     17  C   UNL     1     141.029  70.168 228.345 -0.56 -0.00    +0.001 A  
DOCKED: ENDBRANCH   5   8
DOCKED: ENDBRANCH   3   4
DOCKED: ENDBRANCH   1   3
DOCKED: BRANCH   1  18
DOCKED: ATOM     18  N   UNL     1     139.527  75.780 221.236 -0.10 +0.08    -0.334 N  
DOCKED: ATOM     19  C   UNL     1     139.750  76.394 222.530 -0.20 -0.02    +0.120 C  
DOCKED: ATOM     20  C   UNL     1     140.407  76.039 220.111 -0.13 -0.04    +0.115 C  
DOCKED: ATOM     21  C   UNL     1     140.063  77.877 222.386 -0.37 -0.01    +0.022 C  
DOCKED: ATOM     22  C   UNL     1     140.562  77.545 220.036 -0.17 -0.01    +0.030 C  
DOCKED: ATOM     23  C   UNL     1     141.185  77.981 221.340 -0.35 -0.00    +0.004 C  
DOCKED: BRANCH  20  24
DOCKED: ATOM     24  C   UNL     1     141.717  75.349 220.228 -0.25 +0.01    -0.025 A  
DOCKED: ATOM     25  C   UNL     1     141.872  74.094 220.772 -0.28 -0.00    +0.007 A  
DOCKED: ATOM     26  C   UNL     1     142.857  75.975 219.770 -0.36 -0.00    +0.007 A  
DOCKED: ATOM     27  C   UNL     1     143.096  73.461 220.873 -0.24 -0.00    +0.016 A  
DOCKED: ATOM     28  C   UNL     1     144.100  75.339 219.869 -0.35 -0.01    +0.016 A  
DOCKED: ATOM     29  C   UNL     1     144.230  74.083 220.418 -0.45 -0.01    +0.017 A  
DOCKED: ATOM     30  Br  UNL     1     145.913  73.202 220.561 -1.02 -0.00    -0.051 Br 
DOCKED: ENDBRANCH  20  24
DOCKED: ENDBRANCH   1  18
DOCKED: TORSDOF 5
DOCKED: TER
DOCKED: ENDMDL
________________________________________________________________________________


    FINAL DOCKED STATE:
    ________________________


Run:   4 / 20
Time taken for this run:   0.035s

DOCKED: MODEL        4
DOCKED: USER    Run = 4
DOCKED: USER
DOCKED: USER    Estimated Free Energy of Binding    =  -8.77 kcal/mol  [=(1)+(2)+(3)-(4)]
DOCKED: USER
DOCKED: USER    (1) Final Intermolecular Energy     = -10.27 kcal/mol
DOCKED: USER        vdW + Hbond + desolv Energy     = -10.19 kcal/mol
DOCKED: USER        Electrostatic Energy            =  -0.07 kcal/mol
DOCKED: USER        Moving Ligand-Fixed Receptor    = -10.27 kcal/mol
DOCKED: USER        Moving Ligand-Moving Receptor   =  +0.00 kcal/mol
DOCKED: USER    (2) Final Total Internal Energy     =  -1.75 kcal/mol
DOCKED: USER    (3) Torsional Free Energy           =  +1.49 kcal/mol
DOCKED: USER    (4) Unbound System's Energy         =  -1.75 kcal/mol
DOCKED: USER
DOCKED: USER
DOCKED: REMARK SMILES O=C(NCC(=O)N1CCCC[C@H]1c1ccc(Br)cc1)c1ccc2ccccc2n1
DOCKED: REMARK SMILES IDX 5 1 6 2 4 3 3 4 2 5 1 6 20 8 21 9 29 10 22 11 28 12 23 13
DOCKED: REMARK SMILES IDX 27 14 24 15 26 16 25 17 7 18 8 19 12 20 9 21 11 22 10 23
DOCKED: REMARK SMILES IDX 13 24 14 25 19 26 15 27 18 28 16 29 17 30
DOCKED: REMARK H PARENT 3 7
DOCKED: USER                              x       y       z     vdW  Elec       q    Type
DOCKED: USER                           _______ _______ _______ _____ _____    ______ ____
DOCKED: ROOT
DOCKED: ATOM      1  C   UNL     1     138.509  74.939 221.136 -0.11 -0.05    +0.242 C  
DOCKED: ATOM      2  O   UNL     1     137.368  75.503 221.158 -0.06 +0.06    -0.273 OA 
DOCKED: ENDROOT
DOCKED: BRANCH   1   3
DOCKED: ATOM      3  C   UNL     1     138.683  73.482 221.019 -0.10 -0.05    +0.216 C  
DOCKED: BRANCH   3   4
DOCKED: ATOM      4  N   UNL     1     138.969  72.855 222.294 -0.10 +0.09    -0.342 N  
DOCKED: ATOM      5  C   UNL     1     139.206  71.445 222.343 -0.15 -0.05    +0.270 C  
DOCKED: ATOM      6  O   UNL     1     139.167  70.757 221.287 -0.06 +0.05    -0.268 OA 
DOCKED: ATOM      7  H   UNL     1     139.014  73.380 223.200 -0.45 -0.10    +0.164 HD 
DOCKED: BRANCH   5   8
DOCKED: ATOM      8  C   UNL     1     139.496  70.828 223.654 -0.29 -0.02    +0.128 A  
DOCKED: ATOM      9  C   UNL     1     139.238  69.497 223.858 -0.28 -0.01    +0.035 A  
DOCKED: ATOM     10  N   UNL     1     140.019  71.580 224.665 -0.27 +0.05    -0.243 NA 
DOCKED: ATOM     11  C   UNL     1     139.516  68.926 225.099 -0.41 -0.00    +0.013 A  
DOCKED: ATOM     12  C   UNL     1     140.294  71.062 225.862 -0.52 -0.01    +0.071 A  
DOCKED: ATOM     13  C   UNL     1     140.047  69.727 226.098 -0.50 -0.00    +0.000 A  
DOCKED: ATOM     14  C   UNL     1     140.821  71.871 226.846 -0.71 -0.01    +0.029 A  
DOCKED: ATOM     15  C   UNL     1     140.352  69.249 227.356 -0.60 -0.00    +0.010 A  
DOCKED: ATOM     16  C   UNL     1     141.123  71.383 228.101 -0.75 -0.00    +0.002 A  
DOCKED: ATOM     17  C   UNL     1     140.879  70.034 228.357 -0.55 -0.00    +0.001 A  
DOCKED: ENDBRANCH   5   8
DOCKED: ENDBRANCH   3   4
DOCKED: ENDBRANCH   1   3
DOCKED: BRANCH   1  18
DOCKED: ATOM     18  N   UNL     1     139.639  75.798 221.231 -0.11 +0.08    -0.334 N  
DOCKED: ATOM     19  C   UNL     1     139.863  76.448 222.507 -0.21 -0.02    +0.120 C  
DOCKED: ATOM     20  C   UNL     1     140.526  76.015 220.103 -0.13 -0.04    +0.115 C  
DOCKED: ATOM     21  C   UNL     1     140.191  77.923 222.321 -0.38 -0.01    +0.022 C  
DOCKED: ATOM     22  C   UNL     1     140.696  77.516 219.983 -0.18 -0.01    +0.030 C  
DOCKED: ATOM     23  C   UNL     1     141.318  77.985 221.277 -0.35 -0.00    +0.004 C  
DOCKED: BRANCH  20  24
DOCKED: ATOM     24  C   UNL     1     141.829  75.316 220.246 -0.26 +0.01    -0.025 A  
DOCKED: ATOM     25  C   UNL     1     143.040  75.887 219.926 -0.34 -0.00    +0.007 A  
DOCKED: ATOM     26  C   UNL     1     141.856  74.023 220.725 -0.27 -0.00    +0.007 A  
DOCKED: ATOM     27  C   UNL     1     144.246  75.227 220.065 -0.35 -0.01    +0.016 A  
DOCKED: ATOM     28  C   UNL     1     143.075  73.350 220.868 -0.25 -0.00    +0.016 A  
DOCKED: ATOM     29  C   UNL     1     144.274  73.942 220.542 -0.45 -0.00    +0.017 A  
DOCKED: ATOM     30  Br  UNL     1     145.941  73.040 220.730 -0.99 -0.00    -0.051 Br 
DOCKED: ENDBRANCH  20  24
DOCKED: ENDBRANCH   1  18
DOCKED: TORSDOF 5
DOCKED: TER
DOCKED: ENDMDL
________________________________________________________________________________


    FINAL DOCKED STATE:
    ________________________


Run:   5 / 20
Time taken for this run:   0.035s

DOCKED: MODEL        5
DOCKED: USER    Run = 5
DOCKED: USER
DOCKED: USER    Estimated Free Energy of Binding    =  -8.72 kcal/mol  [=(1)+(2)+(3)-(4)]
DOCKED: USER
DOCKED: USER    (1) Final Intermolecular Energy     = -10.21 kcal/mol
DOCKED: USER        vdW + Hbond + desolv Energy     = -10.14 kcal/mol
DOCKED: USER        Electrostatic Energy            =  -0.07 kcal/mol
DOCKED: USER        Moving Ligand-Fixed Receptor    = -10.21 kcal/mol
DOCKED: USER        Moving Ligand-Moving Receptor   =  +0.00 kcal/mol
DOCKED: USER    (2) Final Total Internal Energy     =  -1.84 kcal/mol
DOCKED: USER    (3) Torsional Free Energy           =  +1.49 kcal/mol
DOCKED: USER    (4) Unbound System's Energy         =  -1.84 kcal/mol
DOCKED: USER
DOCKED: USER
DOCKED: REMARK SMILES O=C(NCC(=O)N1CCCC[C@H]1c1ccc(Br)cc1)c1ccc2ccccc2n1
DOCKED: REMARK SMILES IDX 5 1 6 2 4 3 3 4 2 5 1 6 20 8 21 9 29 10 22 11 28 12 23 13
DOCKED: REMARK SMILES IDX 27 14 24 15 26 16 25 17 7 18 8 19 12 20 9 21 11 22 10 23
DOCKED: REMARK SMILES IDX 13 24 14 25 19 26 15 27 18 28 16 29 17 30
DOCKED: REMARK H PARENT 3 7
DOCKED: USER                              x       y       z     vdW  Elec       q    Type
DOCKED: USER                           _______ _______ _______ _____ _____    ______ ____
DOCKED: ROOT
DOCKED: ATOM      1  C   UNL     1     138.436  74.790 220.738 -0.08 -0.05    +0.242 C  
DOCKED: ATOM      2  O   UNL     1     137.346  75.365 220.420 -0.03 +0.06    -0.273 OA 
DOCKED: ENDROOT
DOCKED: BRANCH   1   3
DOCKED: ATOM      3  C   UNL     1     138.597  73.327 220.763 -0.08 -0.05    +0.216 C  
DOCKED: BRANCH   3   4
DOCKED: ATOM      4  N   UNL     1     138.883  72.825 222.093 -0.10 +0.09    -0.342 N  
DOCKED: ATOM      5  C   UNL     1     139.317  71.470 222.252 -0.15 -0.05    +0.270 C  
DOCKED: ATOM      6  O   UNL     1     139.448  70.724 221.244 -0.07 +0.05    -0.268 OA 
DOCKED: ATOM      7  H   UNL     1     138.791  73.404 222.962 -0.51 -0.09    +0.164 HD 
DOCKED: BRANCH   5   8
DOCKED: ATOM      8  C   UNL     1     139.604  70.982 223.616 -0.30 -0.02    +0.128 A  
DOCKED: ATOM      9  C   UNL     1     139.259  69.704 223.973 -0.29 -0.01    +0.035 A  
DOCKED: ATOM     10  N   UNL     1     140.211  71.800 224.523 -0.26 +0.05    -0.243 NA 
DOCKED: ATOM     11  C   UNL     1     139.535  69.253 225.263 -0.41 -0.00    +0.013 A  
DOCKED: ATOM     12  C   UNL     1     140.486  71.397 225.765 -0.53 -0.01    +0.071 A  
DOCKED: ATOM     13  C   UNL     1     140.153  70.118 226.154 -0.52 -0.00    +0.000 A  
DOCKED: ATOM     14  C   UNL     1     141.100  72.268 226.639 -0.59 -0.00    +0.029 A  
DOCKED: ATOM     15  C   UNL     1     140.463  69.760 227.450 -0.60 -0.00    +0.010 A  
DOCKED: ATOM     16  C   UNL     1     141.406  71.900 227.933 -0.78 -0.00    +0.002 A  
DOCKED: ATOM     17  C   UNL     1     141.076  70.609 228.343 -0.58 -0.00    +0.001 A  
DOCKED: ENDBRANCH   5   8
DOCKED: ENDBRANCH   3   4
DOCKED: ENDBRANCH   1   3
DOCKED: BRANCH   1  18
DOCKED: ATOM     18  N   UNL     1     139.523  75.643 221.075 -0.09 +0.08    -0.334 N  
DOCKED: ATOM     19  C   UNL     1     139.614  76.075 222.456 -0.22 -0.02    +0.120 C  
DOCKED: ATOM     20  C   UNL     1     140.497  76.063 220.084 -0.13 -0.04    +0.115 C  
DOCKED: ATOM     21  C   UNL     1     139.906  77.566 222.547 -0.33 -0.01    +0.022 C  
DOCKED: ATOM     22  C   UNL     1     140.624  77.567 220.230 -0.19 -0.01    +0.030 C  
DOCKED: ATOM     23  C   UNL     1     141.115  77.824 221.634 -0.37 -0.00    +0.004 C  
DOCKED: BRANCH  20  24
DOCKED: ATOM     24  C   UNL     1     141.805  75.376 220.227 -0.26 +0.01    -0.025 A  
DOCKED: ATOM     25  C   UNL     1     143.012  75.963 219.918 -0.34 -0.00    +0.007 A  
DOCKED: ATOM     26  C   UNL     1     141.844  74.080 220.695 -0.27 -0.00    +0.007 A  
DOCKED: ATOM     27  C   UNL     1     144.224  75.313 220.057 -0.33 -0.01    +0.016 A  
DOCKED: ATOM     28  C   UNL     1     143.068  73.417 220.838 -0.27 -0.00    +0.016 A  
DOCKED: ATOM     29  C   UNL     1     144.263  74.025 220.522 -0.45 -0.01    +0.017 A  
DOCKED: ATOM     30  Br  UNL     1     145.938  73.138 220.711 -1.02 -0.00    -0.051 Br 
DOCKED: ENDBRANCH  20  24
DOCKED: ENDBRANCH   1  18
DOCKED: TORSDOF 5
DOCKED: TER
DOCKED: ENDMDL
________________________________________________________________________________


    FINAL DOCKED STATE:
    ________________________


Run:   6 / 20
Time taken for this run:   0.035s

DOCKED: MODEL        6
DOCKED: USER    Run = 6
DOCKED: USER
DOCKED: USER    Estimated Free Energy of Binding    =  -8.85 kcal/mol  [=(1)+(2)+(3)-(4)]
DOCKED: USER
DOCKED: USER    (1) Final Intermolecular Energy     = -10.35 kcal/mol
DOCKED: USER        vdW + Hbond + desolv Energy     = -10.26 kcal/mol
DOCKED: USER        Electrostatic Energy            =  -0.09 kcal/mol
DOCKED: USER        Moving Ligand-Fixed Receptor    = -10.35 kcal/mol
DOCKED: USER        Moving Ligand-Moving Receptor   =  +0.00 kcal/mol
DOCKED: USER    (2) Final Total Internal Energy     =  -1.69 kcal/mol
DOCKED: USER    (3) Torsional Free Energy           =  +1.49 kcal/mol
DOCKED: USER    (4) Unbound System's Energy         =  -1.69 kcal/mol
DOCKED: USER
DOCKED: USER
DOCKED: REMARK SMILES O=C(NCC(=O)N1CCCC[C@H]1c1ccc(Br)cc1)c1ccc2ccccc2n1
DOCKED: REMARK SMILES IDX 5 1 6 2 4 3 3 4 2 5 1 6 20 8 21 9 29 10 22 11 28 12 23 13
DOCKED: REMARK SMILES IDX 27 14 24 15 26 16 25 17 7 18 8 19 12 20 9 21 11 22 10 23
DOCKED: REMARK SMILES IDX 13 24 14 25 19 26 15 27 18 28 16 29 17 30
DOCKED: REMARK H PARENT 3 7
DOCKED: USER                              x       y       z     vdW  Elec       q    Type
DOCKED: USER                           _______ _______ _______ _____ _____    ______ ____
DOCKED: ROOT
DOCKED: ATOM      1  C   UNL     1     138.465  75.320 221.277 -0.13 -0.06    +0.242 C  
DOCKED: ATOM      2  O   UNL     1     137.362  75.918 221.493 -0.08 +0.06    -0.273 OA 
DOCKED: ENDROOT
DOCKED: BRANCH   1   3
DOCKED: ATOM      3  C   UNL     1     138.560  73.872 221.030 -0.10 -0.05    +0.216 C  
DOCKED: BRANCH   3   4
DOCKED: ATOM      4  N   UNL     1     138.698  73.110 222.255 -0.06 +0.10    -0.342 N  
DOCKED: ATOM      5  C   UNL     1     139.635  72.030 222.307 -0.19 -0.05    +0.270 C  
DOCKED: ATOM      6  O   UNL     1     140.334  71.748 221.296 -0.12 +0.04    -0.268 OA 
DOCKED: ATOM      7  H   UNL     1     138.142  73.304 223.123 -0.47 -0.12    +0.164 HD 
DOCKED: BRANCH   5   8
DOCKED: ATOM      8  C   UNL     1     139.758  71.268 223.566 -0.31 -0.02    +0.128 A  
DOCKED: ATOM      9  C   UNL     1     139.404  69.944 223.604 -0.26 -0.01    +0.035 A  
DOCKED: ATOM     10  N   UNL     1     140.224  71.879 224.694 -0.24 +0.05    -0.243 NA 
DOCKED: ATOM     11  C   UNL     1     139.524  69.235 224.799 -0.37 -0.00    +0.013 A  
DOCKED: ATOM     12  C   UNL     1     140.349  71.227 225.850 -0.52 -0.01    +0.071 A  
DOCKED: ATOM     13  C   UNL     1     140.001  69.895 225.921 -0.49 -0.00    +0.000 A  
DOCKED: ATOM     14  C   UNL     1     140.825  71.896 226.958 -0.73 -0.01    +0.029 A  
DOCKED: ATOM     15  C   UNL     1     140.153  69.275 227.144 -0.58 -0.00    +0.010 A  
DOCKED: ATOM     16  C   UNL     1     140.973  71.267 228.177 -0.73 -0.00    +0.002 A  
DOCKED: ATOM     17  C   UNL     1     140.626  69.919 228.266 -0.59 -0.00    +0.001 A  
DOCKED: ENDBRANCH   5   8
DOCKED: ENDBRANCH   3   4
DOCKED: ENDBRANCH   1   3
DOCKED: BRANCH   1  18
DOCKED: ATOM     18  N   UNL     1     139.633  76.131 221.283 -0.10 +0.08    -0.334 N  
DOCKED: ATOM     19  C   UNL     1     139.958  76.803 222.526 -0.23 -0.03    +0.120 C  
DOCKED: ATOM     20  C   UNL     1     140.461  76.282 220.101 -0.13 -0.04    +0.115 C  
DOCKED: ATOM     21  C   UNL     1     140.336  78.257 222.281 -0.38 -0.01    +0.022 C  
DOCKED: ATOM     22  C   UNL     1     140.685  77.771 219.930 -0.17 -0.01    +0.030 C  
DOCKED: ATOM     23  C   UNL     1     141.401  78.245 221.173 -0.35 -0.00    +0.004 C  
DOCKED: BRANCH  20  24
DOCKED: ATOM     24  C   UNL     1     141.739  75.531 220.187 -0.25 +0.01    -0.025 A  
DOCKED: ATOM     25  C   UNL     1     142.942  76.018 219.727 -0.37 -0.00    +0.007 A  
DOCKED: ATOM     26  C   UNL     1     141.752  74.275 220.757 -0.28 -0.00    +0.007 A  
DOCKED: ATOM     27  C   UNL     1     144.126  75.310 219.816 -0.32 -0.01    +0.016 A  
DOCKED: ATOM     28  C   UNL     1     142.948  73.554 220.850 -0.26 -0.00    +0.016 A  
DOCKED: ATOM     29  C   UNL     1     144.139  74.062 220.382 -0.44 -0.01    +0.017 A  
DOCKED: ATOM     30  Br  UNL     1     145.776  73.095 220.500 -0.99 -0.00    -0.051 Br 
DOCKED: ENDBRANCH  20  24
DOCKED: ENDBRANCH   1  18
DOCKED: TORSDOF 5
DOCKED: TER
DOCKED: ENDMDL
________________________________________________________________________________


    FINAL DOCKED STATE:
    ________________________


Run:   7 / 20
Time taken for this run:   0.035s

DOCKED: MODEL        7
DOCKED: USER    Run = 7
DOCKED: USER
DOCKED: USER    Estimated Free Energy of Binding    =  -8.90 kcal/mol  [=(1)+(2)+(3)-(4)]
DOCKED: USER
DOCKED: USER    (1) Final Intermolecular Energy     = -10.39 kcal/mol
DOCKED: USER        vdW + Hbond + desolv Energy     = -10.30 kcal/mol
DOCKED: USER        Electrostatic Energy            =  -0.09 kcal/mol
DOCKED: USER        Moving Ligand-Fixed Receptor    = -10.39 kcal/mol
DOCKED: USER        Moving Ligand-Moving Receptor   =  +0.00 kcal/mol
DOCKED: USER    (2) Final Total Internal Energy     =  -1.72 kcal/mol
DOCKED: USER    (3) Torsional Free Energy           =  +1.49 kcal/mol
DOCKED: USER    (4) Unbound System's Energy         =  -1.72 kcal/mol
DOCKED: USER
DOCKED: USER
DOCKED: REMARK SMILES O=C(NCC(=O)N1CCCC[C@H]1c1ccc(Br)cc1)c1ccc2ccccc2n1
DOCKED: REMARK SMILES IDX 5 1 6 2 4 3 3 4 2 5 1 6 20 8 21 9 29 10 22 11 28 12 23 13
DOCKED: REMARK SMILES IDX 27 14 24 15 26 16 25 17 7 18 8 19 12 20 9 21 11 22 10 23
DOCKED: REMARK SMILES IDX 13 24 14 25 19 26 15 27 18 28 16 29 17 30
DOCKED: REMARK H PARENT 3 7
DOCKED: USER                              x       y       z     vdW  Elec       q    Type
DOCKED: USER                           _______ _______ _______ _____ _____    ______ ____
DOCKED: ROOT
DOCKED: ATOM      1  C   UNL     1     138.444  75.192 221.179 -0.12 -0.05    +0.242 C  
DOCKED: ATOM      2  O   UNL     1     137.322  75.788 221.245 -0.06 +0.06    -0.273 OA 
DOCKED: ENDROOT
DOCKED: BRANCH   1   3
DOCKED: ATOM      3  C   UNL     1     138.573  73.739 220.982 -0.10 -0.05    +0.216 C  
DOCKED: BRANCH   3   4
DOCKED: ATOM      4  N   UNL     1     138.727  73.023 222.233 -0.08 +0.10    -0.342 N  
DOCKED: ATOM      5  C   UNL     1     139.682  71.960 222.318 -0.19 -0.05    +0.270 C  
DOCKED: ATOM      6  O   UNL     1     140.381  71.653 221.315 -0.12 +0.04    -0.268 OA 
DOCKED: ATOM      7  H   UNL     1     138.172  73.238 223.095 -0.50 -0.11    +0.164 HD 
DOCKED: BRANCH   5   8
DOCKED: ATOM      8  C   UNL     1     139.821  71.245 223.603 -0.32 -0.02    +0.128 A  
DOCKED: ATOM      9  C   UNL     1     139.429  69.936 223.706 -0.27 -0.01    +0.035 A  
DOCKED: ATOM     10  N   UNL     1     140.340  71.885 224.691 -0.27 +0.04    -0.243 NA 
DOCKED: ATOM     11  C   UNL     1     139.565  69.271 224.923 -0.38 -0.00    +0.013 A  
DOCKED: ATOM     12  C   UNL     1     140.481  71.276 225.869 -0.54 -0.01    +0.071 A  
DOCKED: ATOM     13  C   UNL     1     140.096  69.959 226.004 -0.50 -0.00    +0.000 A  
DOCKED: ATOM     14  C   UNL     1     141.011  71.973 226.934 -0.74 -0.01    +0.029 A  
DOCKED: ATOM     15  C   UNL     1     140.268  69.384 227.246 -0.59 -0.00    +0.010 A  
DOCKED: ATOM     16  C   UNL     1     141.178  71.388 228.172 -0.73 -0.00    +0.002 A  
DOCKED: ATOM     17  C   UNL     1     140.794  70.057 228.325 -0.57 -0.00    +0.001 A  
DOCKED: ENDBRANCH   5   8
DOCKED: ENDBRANCH   3   4
DOCKED: ENDBRANCH   1   3
DOCKED: BRANCH   1  18
DOCKED: ATOM     18  N   UNL     1     139.600  76.010 221.306 -0.11 +0.08    -0.334 N  
DOCKED: ATOM     19  C   UNL     1     139.861  76.578 222.614 -0.16 -0.02    +0.120 C  
DOCKED: ATOM     20  C   UNL     1     140.479  76.267 220.179 -0.14 -0.04    +0.115 C  
DOCKED: ATOM     21  C   UNL     1     140.231  78.051 222.509 -0.38 -0.01    +0.022 C  
DOCKED: ATOM     22  C   UNL     1     140.691  77.767 220.144 -0.19 -0.01    +0.030 C  
DOCKED: ATOM     23  C   UNL     1     141.345  78.141 221.453 -0.36 -0.00    +0.004 C  
DOCKED: BRANCH  20  24
DOCKED: ATOM     24  C   UNL     1     141.761  75.523 220.261 -0.26 +0.01    -0.025 A  
DOCKED: ATOM     25  C   UNL     1     141.877  74.261 220.798 -0.29 -0.00    +0.007 A  
DOCKED: ATOM     26  C   UNL     1     142.915  76.104 219.777 -0.36 -0.00    +0.007 A  
DOCKED: ATOM     27  C   UNL     1     143.077  73.578 220.866 -0.25 -0.00    +0.016 A  
DOCKED: ATOM     28  C   UNL     1     144.132  75.416 219.844 -0.28 -0.01    +0.016 A  
DOCKED: ATOM     29  C   UNL     1     144.224  74.154 220.386 -0.45 -0.01    +0.017 A  
DOCKED: ATOM     30  Br  UNL     1     145.872  73.204 220.484 -1.01 -0.00    -0.051 Br 
DOCKED: ENDBRANCH  20  24
DOCKED: ENDBRANCH   1  18
DOCKED: TORSDOF 5
DOCKED: TER
DOCKED: ENDMDL
________________________________________________________________________________


    FINAL DOCKED STATE:
    ________________________


Run:   8 / 20
Time taken for this run:   0.035s

DOCKED: MODEL        8
DOCKED: USER    Run = 8
DOCKED: USER
DOCKED: USER    Estimated Free Energy of Binding    =  -8.74 kcal/mol  [=(1)+(2)+(3)-(4)]
DOCKED: USER
DOCKED: USER    (1) Final Intermolecular Energy     = -10.23 kcal/mol
DOCKED: USER        vdW + Hbond + desolv Energy     = -10.16 kcal/mol
DOCKED: USER        Electrostatic Energy            =  -0.07 kcal/mol
DOCKED: USER        Moving Ligand-Fixed Receptor    = -10.23 kcal/mol
DOCKED: USER        Moving Ligand-Moving Receptor   =  +0.00 kcal/mol
DOCKED: USER    (2) Final Total Internal Energy     =  -1.85 kcal/mol
DOCKED: USER    (3) Torsional Free Energy           =  +1.49 kcal/mol
DOCKED: USER    (4) Unbound System's Energy         =  -1.85 kcal/mol
DOCKED: USER
DOCKED: USER
DOCKED: REMARK SMILES O=C(NCC(=O)N1CCCC[C@H]1c1ccc(Br)cc1)c1ccc2ccccc2n1
DOCKED: REMARK SMILES IDX 5 1 6 2 4 3 3 4 2 5 1 6 20 8 21 9 29 10 22 11 28 12 23 13
DOCKED: REMARK SMILES IDX 27 14 24 15 26 16 25 17 7 18 8 19 12 20 9 21 11 22 10 23
DOCKED: REMARK SMILES IDX 13 24 14 25 19 26 15 27 18 28 16 29 17 30
DOCKED: REMARK H PARENT 3 7
DOCKED: USER                              x       y       z     vdW  Elec       q    Type
DOCKED: USER                           _______ _______ _______ _____ _____    ______ ____
DOCKED: ROOT
DOCKED: ATOM      1  C   UNL     1     138.543  75.045 220.921 -0.10 -0.05    +0.242 C  
DOCKED: ATOM      2  O   UNL     1     137.429  75.645 220.780 -0.04 +0.06    -0.273 OA 
DOCKED: ENDROOT
DOCKED: BRANCH   1   3
DOCKED: ATOM      3  C   UNL     1     138.679  73.580 220.877 -0.09 -0.05    +0.216 C  
DOCKED: BRANCH   3   4
DOCKED: ATOM      4  N   UNL     1     138.986  73.014 222.176 -0.10 +0.09    -0.342 N  
DOCKED: ATOM      5  C   UNL     1     139.364  71.636 222.267 -0.16 -0.05    +0.270 C  
DOCKED: ATOM      6  O   UNL     1     139.430  70.926 221.228 -0.07 +0.05    -0.268 OA 
DOCKED: ATOM      7  H   UNL     1     138.947  73.560 223.069 -0.52 -0.09    +0.164 HD 
DOCKED: BRANCH   5   8
DOCKED: ATOM      8  C   UNL     1     139.673  71.082 223.601 -0.30 -0.02    +0.128 A  
DOCKED: ATOM      9  C   UNL     1     139.416  69.762 223.871 -0.28 -0.01    +0.035 A  
DOCKED: ATOM     10  N   UNL     1     140.213  71.880 224.567 -0.24 +0.05    -0.243 NA 
DOCKED: ATOM     11  C   UNL     1     139.712  69.250 225.134 -0.40 -0.00    +0.013 A  
DOCKED: ATOM     12  C   UNL     1     140.505  71.418 225.784 -0.53 -0.01    +0.071 A  
DOCKED: ATOM     13  C   UNL     1     140.259  70.096 226.086 -0.53 -0.00    +0.000 A  
DOCKED: ATOM     14  C   UNL     1     141.048  72.271 226.720 -0.61 -0.01    +0.029 A  
DOCKED: ATOM     15  C   UNL     1     140.582  69.677 227.360 -0.59 -0.00    +0.010 A  
DOCKED: ATOM     16  C   UNL     1     141.369  71.843 227.992 -0.77 -0.00    +0.002 A  
DOCKED: ATOM     17  C   UNL     1     141.127  70.508 228.314 -0.56 -0.00    +0.001 A  
DOCKED: ENDBRANCH   5   8
DOCKED: ENDBRANCH   3   4
DOCKED: ENDBRANCH   1   3
DOCKED: BRANCH   1  18
DOCKED: ATOM     18  N   UNL     1     139.682  75.871 221.128 -0.10 +0.08    -0.334 N  
DOCKED: ATOM     19  C   UNL     1     139.868  76.409 222.461 -0.24 -0.02    +0.120 C  
DOCKED: ATOM     20  C   UNL     1     140.615  76.164 220.055 -0.14 -0.04    +0.115 C  
DOCKED: ATOM     21  C   UNL     1     140.227  77.888 222.411 -0.39 -0.01    +0.022 C  
DOCKED: ATOM     22  C   UNL     1     140.813  77.666 220.067 -0.20 -0.01    +0.030 C  
DOCKED: ATOM     23  C   UNL     1     141.393  78.014 221.417 -0.36 -0.00    +0.004 C  
DOCKED: BRANCH  20  24
DOCKED: ATOM     24  C   UNL     1     141.899  75.430 220.186 -0.26 +0.01    -0.025 A  
DOCKED: ATOM     25  C   UNL     1     143.120  75.961 219.833 -0.36 -0.00    +0.007 A  
DOCKED: ATOM     26  C   UNL     1     141.900  74.146 220.689 -0.28 -0.00    +0.007 A  
DOCKED: ATOM     27  C   UNL     1     144.309  75.269 219.962 -0.24 -0.01    +0.016 A  
DOCKED: ATOM     28  C   UNL     1     143.101  73.441 220.821 -0.28 -0.00    +0.016 A  
DOCKED: ATOM     29  C   UNL     1     144.310  73.993 220.461 -0.47 -0.01    +0.017 A  
DOCKED: ATOM     30  Br  UNL     1     145.955  73.047 220.635 -0.98 -0.00    -0.051 Br 
DOCKED: ENDBRANCH  20  24
DOCKED: ENDBRANCH   1  18
DOCKED: TORSDOF 5
DOCKED: TER
DOCKED: ENDMDL
________________________________________________________________________________


    FINAL DOCKED STATE:
    ________________________


Run:   9 / 20
Time taken for this run:   0.035s

DOCKED: MODEL        9
DOCKED: USER    Run = 9
DOCKED: USER
DOCKED: USER    Estimated Free Energy of Binding    =  -8.69 kcal/mol  [=(1)+(2)+(3)-(4)]
DOCKED: USER
DOCKED: USER    (1) Final Intermolecular Energy     = -10.19 kcal/mol
DOCKED: USER        vdW + Hbond + desolv Energy     = -10.14 kcal/mol
DOCKED: USER        Electrostatic Energy            =  -0.05 kcal/mol
DOCKED: USER        Moving Ligand-Fixed Receptor    = -10.19 kcal/mol
DOCKED: USER        Moving Ligand-Moving Receptor   =  +0.00 kcal/mol
DOCKED: USER    (2) Final Total Internal Energy     =  -1.84 kcal/mol
DOCKED: USER    (3) Torsional Free Energy           =  +1.49 kcal/mol
DOCKED: USER    (4) Unbound System's Energy         =  -1.84 kcal/mol
DOCKED: USER
DOCKED: USER
DOCKED: REMARK SMILES O=C(NCC(=O)N1CCCC[C@H]1c1ccc(Br)cc1)c1ccc2ccccc2n1
DOCKED: REMARK SMILES IDX 5 1 6 2 4 3 3 4 2 5 1 6 20 8 21 9 29 10 22 11 28 12 23 13
DOCKED: REMARK SMILES IDX 27 14 24 15 26 16 25 17 7 18 8 19 12 20 9 21 11 22 10 23
DOCKED: REMARK SMILES IDX 13 24 14 25 19 26 15 27 18 28 16 29 17 30
DOCKED: REMARK H PARENT 3 7
DOCKED: USER                              x       y       z     vdW  Elec       q    Type
DOCKED: USER                           _______ _______ _______ _____ _____    ______ ____
DOCKED: ROOT
DOCKED: ATOM      1  C   UNL     1     138.372  74.756 221.062 -0.10 -0.05    +0.242 C  
DOCKED: ATOM      2  O   UNL     1     137.219  75.288 220.983 -0.05 +0.06    -0.273 OA 
DOCKED: ENDROOT
DOCKED: BRANCH   1   3
DOCKED: ATOM      3  C   UNL     1     138.595  73.303 220.985 -0.09 -0.05    +0.216 C  
DOCKED: BRANCH   3   4
DOCKED: ATOM      4  N   UNL     1     138.955  72.730 222.267 -0.11 +0.09    -0.342 N  
DOCKED: ATOM      5  C   UNL     1     139.060  71.308 222.394 -0.14 -0.05    +0.270 C  
DOCKED: ATOM      6  O   UNL     1     138.842  70.565 221.400 -0.06 +0.05    -0.268 OA 
DOCKED: ATOM      7  H   UNL     1     139.146  73.303 223.124 -0.48 -0.08    +0.164 HD 
DOCKED: BRANCH   5   8
DOCKED: ATOM      8  C   UNL     1     139.428  70.748 223.710 -0.28 -0.02    +0.128 A  
DOCKED: ATOM      9  C   UNL     1     139.212  69.420 223.975 -0.29 -0.01    +0.035 A  
DOCKED: ATOM     10  N   UNL     1     139.983  71.549 224.665 -0.28 +0.05    -0.243 NA 
DOCKED: ATOM     11  C   UNL     1     139.564  68.902 225.221 -0.43 -0.00    +0.013 A  
DOCKED: ATOM     12  C   UNL     1     140.329  71.082 225.866 -0.53 -0.01    +0.071 A  
DOCKED: ATOM     13  C   UNL     1     140.125  69.751 226.162 -0.51 -0.00    +0.000 A  
DOCKED: ATOM     14  C   UNL     1     140.885  71.939 226.792 -0.70 -0.01    +0.029 A  
DOCKED: ATOM     15  C   UNL     1     140.503  69.328 227.420 -0.61 -0.00    +0.010 A  
DOCKED: ATOM     16  C   UNL     1     141.260  71.505 228.047 -0.74 -0.00    +0.002 A  
DOCKED: ATOM     17  C   UNL     1     141.061  70.162 228.363 -0.54 -0.00    +0.001 A  
DOCKED: ENDBRANCH   5   8
DOCKED: ENDBRANCH   3   4
DOCKED: ENDBRANCH   1   3
DOCKED: BRANCH   1  18
DOCKED: ATOM     18  N   UNL     1     139.467  75.647 221.231 -0.10 +0.08    -0.334 N  
DOCKED: ATOM     19  C   UNL     1     139.654  76.214 222.552 -0.17 -0.02    +0.120 C  
DOCKED: ATOM     20  C   UNL     1     140.357  75.977 220.132 -0.13 -0.03    +0.115 C  
DOCKED: ATOM     21  C   UNL     1     139.927  77.710 222.473 -0.35 -0.01    +0.022 C  
DOCKED: ATOM     22  C   UNL     1     140.470  77.488 220.120 -0.17 -0.01    +0.030 C  
DOCKED: ATOM     23  C   UNL     1     141.060  77.887 221.451 -0.36 -0.00    +0.004 C  
DOCKED: BRANCH  20  24
DOCKED: ATOM     24  C   UNL     1     141.683  75.319 220.241 -0.25 +0.01    -0.025 A  
DOCKED: ATOM     25  C   UNL     1     142.864  75.916 219.860 -0.35 -0.00    +0.007 A  
DOCKED: ATOM     26  C   UNL     1     141.767  74.041 220.752 -0.27 -0.00    +0.007 A  
DOCKED: ATOM     27  C   UNL     1     144.094  75.294 219.969 -0.38 -0.01    +0.016 A  
DOCKED: ATOM     28  C   UNL     1     143.010  73.406 220.864 -0.25 -0.00    +0.016 A  
DOCKED: ATOM     29  C   UNL     1     144.178  74.023 220.476 -0.45 -0.01    +0.017 A  
DOCKED: ATOM     30  Br  UNL     1     145.876  73.174 220.622 -1.02 -0.00    -0.051 Br 
DOCKED: ENDBRANCH  20  24
DOCKED: ENDBRANCH   1  18
DOCKED: TORSDOF 5
DOCKED: TER
DOCKED: ENDMDL
________________________________________________________________________________


    FINAL DOCKED STATE:
    ________________________


Run:   10 / 20
Time taken for this run:   0.035s

DOCKED: MODEL        10
DOCKED: USER    Run = 10
DOCKED: USER
DOCKED: USER    Estimated Free Energy of Binding    =  -9.11 kcal/mol  [=(1)+(2)+(3)-(4)]
DOCKED: USER
DOCKED: USER    (1) Final Intermolecular Energy     = -10.60 kcal/mol
DOCKED: USER        vdW + Hbond + desolv Energy     = -10.52 kcal/mol
DOCKED: USER        Electrostatic Energy            =  -0.08 kcal/mol
DOCKED: USER        Moving Ligand-Fixed Receptor    = -10.60 kcal/mol
DOCKED: USER        Moving Ligand-Moving Receptor   =  +0.00 kcal/mol
DOCKED: USER    (2) Final Total Internal Energy     =  -1.32 kcal/mol
DOCKED: USER    (3) Torsional Free Energy           =  +1.49 kcal/mol
DOCKED: USER    (4) Unbound System's Energy         =  -1.32 kcal/mol
DOCKED: USER
DOCKED: USER
DOCKED: REMARK SMILES O=C(NCC(=O)N1CCCC[C@H]1c1ccc(Br)cc1)c1ccc2ccccc2n1
DOCKED: REMARK SMILES IDX 5 1 6 2 4 3 3 4 2 5 1 6 20 8 21 9 29 10 22 11 28 12 23 13
DOCKED: REMARK SMILES IDX 27 14 24 15 26 16 25 17 7 18 8 19 12 20 9 21 11 22 10 23
DOCKED: REMARK SMILES IDX 13 24 14 25 19 26 15 27 18 28 16 29 17 30
DOCKED: REMARK H PARENT 3 7
DOCKED: USER                              x       y       z     vdW  Elec       q    Type
DOCKED: USER                           _______ _______ _______ _____ _____    ______ ____
DOCKED: ROOT
DOCKED: ATOM      1  C   UNL     1     139.402  74.422 221.764 -0.18 -0.05    +0.242 C  
DOCKED: ATOM      2  O   UNL     1     140.662  74.295 221.897 -0.72 +0.01    -0.273 OA 
DOCKED: ENDROOT
DOCKED: BRANCH   1   3
DOCKED: ATOM      3  C   UNL     1     138.492  73.278 221.597 -0.13 -0.05    +0.216 C  
DOCKED: BRANCH   3   4
DOCKED: ATOM      4  N   UNL     1     138.561  72.349 222.708 -0.06 +0.11    -0.342 N  
DOCKED: ATOM      5  C   UNL     1     139.671  71.451 222.801 -0.20 -0.05    +0.270 C  
DOCKED: ATOM      6  O   UNL     1     140.578  71.469 221.925 -0.16 +0.03    -0.268 OA 
DOCKED: ATOM      7  H   UNL     1     137.835  72.294 223.462 -0.37 -0.08    +0.164 HD 
DOCKED: BRANCH   5   8
DOCKED: ATOM      8  C   UNL     1     139.721  70.514 223.943 -0.29 -0.02    +0.128 A  
DOCKED: ATOM      9  C   UNL     1     139.124  69.284 223.846 -0.28 -0.01    +0.035 A  
DOCKED: ATOM     10  N   UNL     1     140.358  70.871 225.094 -0.30 +0.04    -0.243 NA 
DOCKED: ATOM     11  C   UNL     1     139.177  68.408 224.930 -0.41 -0.00    +0.013 A  
DOCKED: ATOM     12  C   UNL     1     140.425  70.055 226.147 -0.48 -0.01    +0.071 A  
DOCKED: ATOM     13  C   UNL     1     139.835  68.811 226.082 -0.53 -0.00    +0.000 A  
DOCKED: ATOM     14  C   UNL     1     141.082  70.470 227.286 -0.58 -0.00    +0.029 A  
DOCKED: ATOM     15  C   UNL     1     139.938  68.013 227.202 -0.64 -0.00    +0.010 A  
DOCKED: ATOM     16  C   UNL     1     141.179  69.664 228.401 -0.50 -0.00    +0.002 A  
DOCKED: ATOM     17  C   UNL     1     140.589  68.402 228.352 -0.66 -0.00    +0.001 A  
DOCKED: ENDBRANCH   5   8
DOCKED: ENDBRANCH   3   4
DOCKED: ENDBRANCH   1   3
DOCKED: BRANCH   1  18
DOCKED: ATOM     18  N   UNL     1     138.898  75.751 221.785 -0.14 +0.07    -0.334 N  
DOCKED: ATOM     19  C   UNL     1     137.816  76.028 222.710 -0.23 -0.03    +0.120 C  
DOCKED: ATOM     20  C   UNL     1     139.438  76.785 220.920 -0.15 -0.03    +0.115 C  
DOCKED: ATOM     21  C   UNL     1     136.715  76.838 222.041 -0.17 -0.00    +0.022 C  
DOCKED: ATOM     22  C   UNL     1     138.245  77.447 220.260 -0.06 -0.01    +0.030 C  
DOCKED: ATOM     23  C   UNL     1     137.409  78.035 221.371 -0.11 -0.00    +0.004 C  
DOCKED: BRANCH  20  24
DOCKED: ATOM     24  C   UNL     1     140.289  77.762 221.644 -0.29 +0.01    -0.025 A  
DOCKED: ATOM     25  C   UNL     1     140.953  77.474 222.816 -0.40 -0.00    +0.007 A  
DOCKED: ATOM     26  C   UNL     1     140.445  79.035 221.136 -0.23 -0.00    +0.007 A  
DOCKED: ATOM     27  C   UNL     1     141.745  78.392 223.479 -0.55 -0.01    +0.016 A  
DOCKED: ATOM     28  C   UNL     1     141.245  79.968 221.804 -0.38 -0.01    +0.016 A  
DOCKED: ATOM     29  C   UNL     1     141.899  79.657 222.975 -0.57 -0.01    +0.017 A  
DOCKED: ATOM     30  Br  UNL     1     142.993  80.915 223.897 -0.74 +0.01    -0.051 Br 
DOCKED: ENDBRANCH  20  24
DOCKED: ENDBRANCH   1  18
DOCKED: TORSDOF 5
DOCKED: TER
DOCKED: ENDMDL
________________________________________________________________________________


    FINAL DOCKED STATE:
    ________________________


Run:   11 / 20
Time taken for this run:   0.035s

DOCKED: MODEL        11
DOCKED: USER    Run = 11
DOCKED: USER
DOCKED: USER    Estimated Free Energy of Binding    =  -8.72 kcal/mol  [=(1)+(2)+(3)-(4)]
DOCKED: USER
DOCKED: USER    (1) Final Intermolecular Energy     = -10.21 kcal/mol
DOCKED: USER        vdW + Hbond + desolv Energy     = -10.18 kcal/mol
DOCKED: USER        Electrostatic Energy            =  -0.03 kcal/mol
DOCKED: USER        Moving Ligand-Fixed Receptor    = -10.21 kcal/mol
DOCKED: USER        Moving Ligand-Moving Receptor   =  +0.00 kcal/mol
DOCKED: USER    (2) Final Total Internal Energy     =  -1.65 kcal/mol
DOCKED: USER    (3) Torsional Free Energy           =  +1.49 kcal/mol
DOCKED: USER    (4) Unbound System's Energy         =  -1.65 kcal/mol
DOCKED: USER
DOCKED: USER
DOCKED: REMARK SMILES O=C(NCC(=O)N1CCCC[C@H]1c1ccc(Br)cc1)c1ccc2ccccc2n1
DOCKED: REMARK SMILES IDX 5 1 6 2 4 3 3 4 2 5 1 6 20 8 21 9 29 10 22 11 28 12 23 13
DOCKED: REMARK SMILES IDX 27 14 24 15 26 16 25 17 7 18 8 19 12 20 9 21 11 22 10 23
DOCKED: REMARK SMILES IDX 13 24 14 25 19 26 15 27 18 28 16 29 17 30
DOCKED: REMARK H PARENT 3 7
DOCKED: USER                              x       y       z     vdW  Elec       q    Type
DOCKED: USER                           _______ _______ _______ _____ _____    ______ ____
DOCKED: ROOT
DOCKED: ATOM      1  C   UNL     1     139.873  74.550 221.559 -0.21 -0.04    +0.242 C  
DOCKED: ATOM      2  O   UNL     1     141.145  74.576 221.576 -0.47 +0.04    -0.273 OA 
DOCKED: ENDROOT
DOCKED: BRANCH   1   3
DOCKED: ATOM      3  C   UNL     1     139.094  73.301 221.535 -0.15 -0.05    +0.216 C  
DOCKED: BRANCH   3   4
DOCKED: ATOM      4  N   UNL     1     139.314  72.490 222.716 -0.12 +0.09    -0.342 N  
DOCKED: ATOM      5  C   UNL     1     139.121  71.074 222.639 -0.15 -0.05    +0.270 C  
DOCKED: ATOM      6  O   UNL     1     138.765  70.540 221.553 -0.06 +0.05    -0.268 OA 
DOCKED: ATOM      7  H   UNL     1     139.610  72.883 223.642 -0.32 -0.06    +0.164 HD 
DOCKED: BRANCH   5   8
DOCKED: ATOM      8  C   UNL     1     139.352  70.268 223.855 -0.26 -0.02    +0.128 A  
DOCKED: ATOM      9  C   UNL     1     138.980  68.948 223.884 -0.28 -0.01    +0.035 A  
DOCKED: ATOM     10  N   UNL     1     139.933  70.833 224.952 -0.28 +0.04    -0.243 NA 
DOCKED: ATOM     11  C   UNL     1     139.203  68.197 225.037 -0.43 -0.00    +0.013 A  
DOCKED: ATOM     12  C   UNL     1     140.158  70.140 226.069 -0.47 -0.01    +0.071 A  
DOCKED: ATOM     13  C   UNL     1     139.797  68.811 226.129 -0.53 -0.00    +0.000 A  
DOCKED: ATOM     14  C   UNL     1     140.749  70.765 227.147 -0.64 -0.00    +0.029 A  
DOCKED: ATOM     15  C   UNL     1     140.055  68.148 227.311 -0.66 -0.00    +0.010 A  
DOCKED: ATOM     16  C   UNL     1     141.003  70.092 228.324 -0.57 -0.00    +0.002 A  
DOCKED: ATOM     17  C   UNL     1     140.643  68.747 228.402 -0.65 -0.00    +0.001 A  
DOCKED: ENDBRANCH   5   8
DOCKED: ENDBRANCH   3   4
DOCKED: ENDBRANCH   1   3
DOCKED: BRANCH   1  18
DOCKED: ATOM     18  N   UNL     1     139.217  75.812 221.566 -0.13 +0.07    -0.334 N  
DOCKED: ATOM     19  C   UNL     1     138.053  75.942 222.420 -0.23 -0.03    +0.120 C  
DOCKED: ATOM     20  C   UNL     1     139.688  76.919 220.754 -0.14 -0.03    +0.115 C  
DOCKED: ATOM     21  C   UNL     1     136.911  76.635 221.691 -0.15 -0.00    +0.022 C  
DOCKED: ATOM     22  C   UNL     1     138.472  77.454 220.025 -0.05 -0.01    +0.030 C  
DOCKED: ATOM     23  C   UNL     1     137.503  77.918 221.086 -0.10 -0.00    +0.004 C  
DOCKED: BRANCH  20  24
DOCKED: ATOM     24  C   UNL     1     140.372  77.971 221.547 -0.28 +0.01    -0.025 A  
DOCKED: ATOM     25  C   UNL     1     140.507  79.275 221.127 -0.24 -0.00    +0.007 A  
DOCKED: ATOM     26  C   UNL     1     140.907  77.654 222.778 -0.44 -0.00    +0.007 A  
DOCKED: ATOM     27  C   UNL     1     141.144  80.247 221.876 -0.37 -0.00    +0.016 A  
DOCKED: ATOM     28  C   UNL     1     141.553  78.633 223.540 -0.58 -0.01    +0.016 A  
DOCKED: ATOM     29  C   UNL     1     141.677  79.932 223.099 -0.56 -0.00    +0.017 A  
DOCKED: ATOM     30  Br  UNL     1     142.553  81.278 224.124 -0.69 +0.01    -0.051 Br 
DOCKED: ENDBRANCH  20  24
DOCKED: ENDBRANCH   1  18
DOCKED: TORSDOF 5
DOCKED: TER
DOCKED: ENDMDL
________________________________________________________________________________


    FINAL DOCKED STATE:
    ________________________


Run:   12 / 20
Time taken for this run:   0.035s

DOCKED: MODEL        12
DOCKED: USER    Run = 12
DOCKED: USER
DOCKED: USER    Estimated Free Energy of Binding    =  -8.70 kcal/mol  [=(1)+(2)+(3)-(4)]
DOCKED: USER
DOCKED: USER    (1) Final Intermolecular Energy     = -10.20 kcal/mol
DOCKED: USER        vdW + Hbond + desolv Energy     = -10.11 kcal/mol
DOCKED: USER        Electrostatic Energy            =  -0.08 kcal/mol
DOCKED: USER        Moving Ligand-Fixed Receptor    = -10.20 kcal/mol
DOCKED: USER        Moving Ligand-Moving Receptor   =  +0.00 kcal/mol
DOCKED: USER    (2) Final Total Internal Energy     =  -1.64 kcal/mol
DOCKED: USER    (3) Torsional Free Energy           =  +1.49 kcal/mol
DOCKED: USER    (4) Unbound System's Energy         =  -1.64 kcal/mol
DOCKED: USER
DOCKED: USER
DOCKED: REMARK SMILES O=C(NCC(=O)N1CCCC[C@H]1c1ccc(Br)cc1)c1ccc2ccccc2n1
DOCKED: REMARK SMILES IDX 5 1 6 2 4 3 3 4 2 5 1 6 20 8 21 9 29 10 22 11 28 12 23 13
DOCKED: REMARK SMILES IDX 27 14 24 15 26 16 25 17 7 18 8 19 12 20 9 21 11 22 10 23
DOCKED: REMARK SMILES IDX 13 24 14 25 19 26 15 27 18 28 16 29 17 30
DOCKED: REMARK H PARENT 3 7
DOCKED: USER                              x       y       z     vdW  Elec       q    Type
DOCKED: USER                           _______ _______ _______ _____ _____    ______ ____
DOCKED: ROOT
DOCKED: ATOM      1  C   UNL     1     138.371  74.762 221.160 -0.11 -0.06    +0.242 C  
DOCKED: ATOM      2  O   UNL     1     137.216  75.294 221.180 -0.06 +0.06    -0.273 OA 
DOCKED: ENDROOT
DOCKED: BRANCH   1   3
DOCKED: ATOM      3  C   UNL     1     138.586  73.306 221.100 -0.10 -0.05    +0.216 C  
DOCKED: BRANCH   3   4
DOCKED: ATOM      4  N   UNL     1     138.834  72.730 222.406 -0.07 +0.10    -0.342 N  
DOCKED: ATOM      5  C   UNL     1     139.855  71.737 222.551 -0.20 -0.05    +0.270 C  
DOCKED: ATOM      6  O   UNL     1     140.531  71.372 221.551 -0.13 +0.04    -0.268 OA 
DOCKED: ATOM      7  H   UNL     1     138.302  72.998 223.268 -0.46 -0.11    +0.164 HD 
DOCKED: BRANCH   5   8
DOCKED: ATOM      8  C   UNL     1     140.090  71.164 223.892 -0.34 -0.02    +0.128 A  
DOCKED: ATOM      9  C   UNL     1     140.723  71.908 224.854 -0.30 -0.00    +0.035 A  
DOCKED: ATOM     10  N   UNL     1     139.680  69.895 224.176 -0.17 +0.04    -0.243 NA 
DOCKED: ATOM     11  C   UNL     1     140.939  71.357 226.116 -0.65 -0.00    +0.013 A  
DOCKED: ATOM     12  C   UNL     1     139.874  69.341 225.374 -0.39 -0.01    +0.071 A  
DOCKED: ATOM     13  C   UNL     1     140.507  70.063 226.363 -0.55 -0.00    +0.000 A  
DOCKED: ATOM     14  C   UNL     1     139.439  68.053 225.603 -0.51 -0.00    +0.029 A  
DOCKED: ATOM     15  C   UNL     1     140.678  69.436 227.579 -0.61 -0.00    +0.010 A  
DOCKED: ATOM     16  C   UNL     1     139.616  67.435 226.824 -0.61 -0.00    +0.002 A  
DOCKED: ATOM     17  C   UNL     1     140.253  68.152 227.836 -0.64 -0.00    +0.001 A  
DOCKED: ENDBRANCH   5   8
DOCKED: ENDBRANCH   3   4
DOCKED: ENDBRANCH   1   3
DOCKED: BRANCH   1  18
DOCKED: ATOM     18  N   UNL     1     139.477  75.655 221.199 -0.10 +0.08    -0.334 N  
DOCKED: ATOM     19  C   UNL     1     139.723  76.340 222.453 -0.24 -0.02    +0.120 C  
DOCKED: ATOM     20  C   UNL     1     140.322  75.872 220.039 -0.12 -0.03    +0.115 C  
DOCKED: ATOM     21  C   UNL     1     140.001  77.819 222.224 -0.35 -0.01    +0.022 C  
DOCKED: ATOM     22  C   UNL     1     140.442  77.375 219.881 -0.15 -0.01    +0.030 C  
DOCKED: ATOM     23  C   UNL     1     141.091  77.891 221.143 -0.33 -0.00    +0.004 C  
DOCKED: BRANCH  20  24
DOCKED: ATOM     24  C   UNL     1     141.648  75.215 220.154 -0.23 +0.01    -0.025 A  
DOCKED: ATOM     25  C   UNL     1     141.838  73.976 220.723 -0.27 -0.00    +0.007 A  
DOCKED: ATOM     26  C   UNL     1     142.768  75.857 219.669 -0.35 -0.00    +0.007 A  
DOCKED: ATOM     27  C   UNL     1     143.078  73.374 220.822 -0.28 -0.00    +0.016 A  
DOCKED: ATOM     28  C   UNL     1     144.026  75.252 219.767 -0.38 -0.01    +0.016 A  
DOCKED: ATOM     29  C   UNL     1     144.192  74.011 220.341 -0.44 -0.01    +0.017 A  
DOCKED: ATOM     30  Br  UNL     1     145.896  73.173 220.482 -1.00 -0.00    -0.051 Br 
DOCKED: ENDBRANCH  20  24
DOCKED: ENDBRANCH   1  18
DOCKED: TORSDOF 5
DOCKED: TER
DOCKED: ENDMDL
________________________________________________________________________________


    FINAL DOCKED STATE:
    ________________________


Run:   13 / 20
Time taken for this run:   0.035s

DOCKED: MODEL        13
DOCKED: USER    Run = 13
DOCKED: USER
DOCKED: USER    Estimated Free Energy of Binding    =  -8.71 kcal/mol  [=(1)+(2)+(3)-(4)]
DOCKED: USER
DOCKED: USER    (1) Final Intermolecular Energy     = -10.20 kcal/mol
DOCKED: USER        vdW + Hbond + desolv Energy     = -10.14 kcal/mol
DOCKED: USER        Electrostatic Energy            =  -0.06 kcal/mol
DOCKED: USER        Moving Ligand-Fixed Receptor    = -10.20 kcal/mol
DOCKED: USER        Moving Ligand-Moving Receptor   =  +0.00 kcal/mol
DOCKED: USER    (2) Final Total Internal Energy     =  -1.82 kcal/mol
DOCKED: USER    (3) Torsional Free Energy           =  +1.49 kcal/mol
DOCKED: USER    (4) Unbound System's Energy         =  -1.82 kcal/mol
DOCKED: USER
DOCKED: USER
DOCKED: REMARK SMILES O=C(NCC(=O)N1CCCC[C@H]1c1ccc(Br)cc1)c1ccc2ccccc2n1
DOCKED: REMARK SMILES IDX 5 1 6 2 4 3 3 4 2 5 1 6 20 8 21 9 29 10 22 11 28 12 23 13
DOCKED: REMARK SMILES IDX 27 14 24 15 26 16 25 17 7 18 8 19 12 20 9 21 11 22 10 23
DOCKED: REMARK SMILES IDX 13 24 14 25 19 26 15 27 18 28 16 29 17 30
DOCKED: REMARK H PARENT 3 7
DOCKED: USER                              x       y       z     vdW  Elec       q    Type
DOCKED: USER                           _______ _______ _______ _____ _____    ______ ____
DOCKED: ROOT
DOCKED: ATOM      1  C   UNL     1     138.378  74.827 221.061 -0.10 -0.05    +0.242 C  
DOCKED: ATOM      2  O   UNL     1     137.238  75.390 221.002 -0.05 +0.06    -0.273 OA 
DOCKED: ENDROOT
DOCKED: BRANCH   1   3
DOCKED: ATOM      3  C   UNL     1     138.560  73.368 220.975 -0.09 -0.05    +0.216 C  
DOCKED: BRANCH   3   4
DOCKED: ATOM      4  N   UNL     1     138.897  72.778 222.256 -0.10 +0.09    -0.342 N  
DOCKED: ATOM      5  C   UNL     1     139.093  71.363 222.344 -0.14 -0.05    +0.270 C  
DOCKED: ATOM      6  O   UNL     1     138.974  70.640 221.317 -0.06 +0.05    -0.268 OA 
DOCKED: ATOM      7  H   UNL     1     139.008  73.332 223.138 -0.48 -0.09    +0.164 HD 
DOCKED: BRANCH   5   8
DOCKED: ATOM      8  C   UNL     1     139.436  70.784 223.659 -0.28 -0.02    +0.128 A  
DOCKED: ATOM      9  C   UNL     1     139.220  69.451 223.898 -0.28 -0.01    +0.035 A  
DOCKED: ATOM     10  N   UNL     1     139.967  71.572 224.637 -0.27 +0.05    -0.243 NA 
DOCKED: ATOM     11  C   UNL     1     139.548  68.915 225.143 -0.42 -0.00    +0.013 A  
DOCKED: ATOM     12  C   UNL     1     140.290  71.088 225.837 -0.52 -0.01    +0.071 A  
DOCKED: ATOM     13  C   UNL     1     140.086  69.752 226.109 -0.50 -0.00    +0.000 A  
DOCKED: ATOM     14  C   UNL     1     140.823  71.932 226.788 -0.68 -0.01    +0.029 A  
DOCKED: ATOM     15  C   UNL     1     140.439  69.311 227.367 -0.60 -0.00    +0.010 A  
DOCKED: ATOM     16  C   UNL     1     141.173  71.481 228.043 -0.76 -0.00    +0.002 A  
DOCKED: ATOM     17  C   UNL     1     140.973  70.132 228.335 -0.56 -0.00    +0.001 A  
DOCKED: ENDBRANCH   5   8
DOCKED: ENDBRANCH   3   4
DOCKED: ENDBRANCH   1   3
DOCKED: BRANCH   1  18
DOCKED: ATOM     18  N   UNL     1     139.499  75.688 221.215 -0.10 +0.08    -0.334 N  
DOCKED: ATOM     19  C   UNL     1     139.702  76.272 222.526 -0.18 -0.02    +0.120 C  
DOCKED: ATOM     20  C   UNL     1     140.399  75.971 220.112 -0.13 -0.03    +0.115 C  
DOCKED: ATOM     21  C   UNL     1     140.020  77.757 222.422 -0.36 -0.01    +0.022 C  
DOCKED: ATOM     22  C   UNL     1     140.557  77.478 220.074 -0.17 -0.01    +0.030 C  
DOCKED: ATOM     23  C   UNL     1     141.159  77.882 221.398 -0.35 -0.00    +0.004 C  
DOCKED: BRANCH  20  24
DOCKED: ATOM     24  C   UNL     1     141.705  75.275 220.234 -0.25 +0.01    -0.025 A  
DOCKED: ATOM     25  C   UNL     1     141.851  74.016 220.772 -0.28 -0.00    +0.007 A  
DOCKED: ATOM     26  C   UNL     1     142.852  75.900 219.790 -0.35 -0.00    +0.007 A  
DOCKED: ATOM     27  C   UNL     1     143.073  73.378 220.878 -0.24 -0.00    +0.016 A  
DOCKED: ATOM     28  C   UNL     1     144.091  75.259 219.895 -0.38 -0.01    +0.016 A  
DOCKED: ATOM     29  C   UNL     1     144.212  73.999 220.437 -0.45 -0.01    +0.017 A  
DOCKED: ATOM     30  Br  UNL     1     145.891  73.111 220.588 -1.00 -0.00    -0.051 Br 
DOCKED: ENDBRANCH  20  24
DOCKED: ENDBRANCH   1  18
DOCKED: TORSDOF 5
DOCKED: TER
DOCKED: ENDMDL
________________________________________________________________________________


    FINAL DOCKED STATE:
    ________________________


Run:   14 / 20
Time taken for this run:   0.035s

DOCKED: MODEL        14
DOCKED: USER    Run = 14
DOCKED: USER
DOCKED: USER    Estimated Free Energy of Binding    =  -8.86 kcal/mol  [=(1)+(2)+(3)-(4)]
DOCKED: USER
DOCKED: USER    (1) Final Intermolecular Energy     = -10.36 kcal/mol
DOCKED: USER        vdW + Hbond + desolv Energy     = -10.27 kcal/mol
DOCKED: USER        Electrostatic Energy            =  -0.09 kcal/mol
DOCKED: USER        Moving Ligand-Fixed Receptor    = -10.36 kcal/mol
DOCKED: USER        Moving Ligand-Moving Receptor   =  +0.00 kcal/mol
DOCKED: USER    (2) Final Total Internal Energy     =  -1.79 kcal/mol
DOCKED: USER    (3) Torsional Free Energy           =  +1.49 kcal/mol
DOCKED: USER    (4) Unbound System's Energy         =  -1.79 kcal/mol
DOCKED: USER
DOCKED: USER
DOCKED: REMARK SMILES O=C(NCC(=O)N1CCCC[C@H]1c1ccc(Br)cc1)c1ccc2ccccc2n1
DOCKED: REMARK SMILES IDX 5 1 6 2 4 3 3 4 2 5 1 6 20 8 21 9 29 10 22 11 28 12 23 13
DOCKED: REMARK SMILES IDX 27 14 24 15 26 16 25 17 7 18 8 19 12 20 9 21 11 22 10 23
DOCKED: REMARK SMILES IDX 13 24 14 25 19 26 15 27 18 28 16 29 17 30
DOCKED: REMARK H PARENT 3 7
DOCKED: USER                              x       y       z     vdW  Elec       q    Type
DOCKED: USER                           _______ _______ _______ _____ _____    ______ ____
DOCKED: ROOT
DOCKED: ATOM      1  C   UNL     1     138.546  75.031 220.953 -0.10 -0.05    +0.242 C  
DOCKED: ATOM      2  O   UNL     1     137.434  75.634 220.817 -0.04 +0.06    -0.273 OA 
DOCKED: ENDROOT
DOCKED: BRANCH   1   3
DOCKED: ATOM      3  C   UNL     1     138.681  73.566 220.882 -0.09 -0.05    +0.216 C  
DOCKED: BRANCH   3   4
DOCKED: ATOM      4  N   UNL     1     138.918  72.970 222.181 -0.10 +0.09    -0.342 N  
DOCKED: ATOM      5  C   UNL     1     139.541  71.683 222.258 -0.17 -0.05    +0.270 C  
DOCKED: ATOM      6  O   UNL     1     139.880  71.079 221.204 -0.08 +0.04    -0.268 OA 
DOCKED: ATOM      7  H   UNL     1     138.657  73.429 223.086 -0.51 -0.11    +0.164 HD 
DOCKED: BRANCH   5   8
DOCKED: ATOM      8  C   UNL     1     139.774  71.096 223.593 -0.31 -0.02    +0.128 A  
DOCKED: ATOM      9  C   UNL     1     139.454  69.783 223.829 -0.27 -0.01    +0.035 A  
DOCKED: ATOM     10  N   UNL     1     140.305  71.855 224.593 -0.27 +0.04    -0.243 NA 
DOCKED: ATOM     11  C   UNL     1     139.678  69.239 225.093 -0.40 -0.00    +0.013 A  
DOCKED: ATOM     12  C   UNL     1     140.530  71.363 225.812 -0.54 -0.01    +0.071 A  
DOCKED: ATOM     13  C   UNL     1     140.219  70.047 226.081 -0.52 -0.00    +0.000 A  
DOCKED: ATOM     14  C   UNL     1     141.068  72.179 226.784 -0.68 -0.01    +0.029 A  
DOCKED: ATOM     15  C   UNL     1     140.474  69.596 227.360 -0.59 -0.00    +0.010 A  
DOCKED: ATOM     16  C   UNL     1     141.319  71.717 228.060 -0.75 -0.00    +0.002 A  
DOCKED: ATOM     17  C   UNL     1     141.012  70.388 228.349 -0.55 -0.00    +0.001 A  
DOCKED: ENDBRANCH   5   8
DOCKED: ENDBRANCH   3   4
DOCKED: ENDBRANCH   1   3
DOCKED: BRANCH   1  18
DOCKED: ATOM     18  N   UNL     1     139.685  75.852 221.180 -0.10 +0.08    -0.334 N  
DOCKED: ATOM     19  C   UNL     1     139.859  76.374 222.521 -0.20 -0.02    +0.120 C  
DOCKED: ATOM     20  C   UNL     1     140.629  76.154 220.121 -0.14 -0.04    +0.115 C  
DOCKED: ATOM     21  C   UNL     1     140.221  77.852 222.491 -0.38 -0.01    +0.022 C  
DOCKED: ATOM     22  C   UNL     1     140.830  77.656 220.152 -0.20 -0.01    +0.030 C  
DOCKED: ATOM     23  C   UNL     1     141.397  77.988 221.511 -0.36 -0.00    +0.004 C  
DOCKED: BRANCH  20  24
DOCKED: ATOM     24  C   UNL     1     141.911  75.417 220.256 -0.27 +0.01    -0.025 A  
DOCKED: ATOM     25  C   UNL     1     143.139  75.961 219.957 -0.33 -0.00    +0.007 A  
DOCKED: ATOM     26  C   UNL     1     141.900  74.114 220.708 -0.28 -0.00    +0.007 A  
DOCKED: ATOM     27  C   UNL     1     144.326  75.265 220.089 -0.33 -0.01    +0.016 A  
DOCKED: ATOM     28  C   UNL     1     143.098  73.404 220.844 -0.27 -0.00    +0.016 A  
DOCKED: ATOM     29  C   UNL     1     144.315  73.970 220.538 -0.46 -0.01    +0.017 A  
DOCKED: ATOM     30  Br  UNL     1     145.956  73.019 220.717 -0.98 -0.00    -0.051 Br 
DOCKED: ENDBRANCH  20  24
DOCKED: ENDBRANCH   1  18
DOCKED: TORSDOF 5
DOCKED: TER
DOCKED: ENDMDL
________________________________________________________________________________


    FINAL DOCKED STATE:
    ________________________


Run:   15 / 20
Time taken for this run:   0.035s

DOCKED: MODEL        15
DOCKED: USER    Run = 15
DOCKED: USER
DOCKED: USER    Estimated Free Energy of Binding    =  -8.98 kcal/mol  [=(1)+(2)+(3)-(4)]
DOCKED: USER
DOCKED: USER    (1) Final Intermolecular Energy     = -10.47 kcal/mol
DOCKED: USER        vdW + Hbond + desolv Energy     = -10.38 kcal/mol
DOCKED: USER        Electrostatic Energy            =  -0.09 kcal/mol
DOCKED: USER        Moving Ligand-Fixed Receptor    = -10.47 kcal/mol
DOCKED: USER        Moving Ligand-Moving Receptor   =  +0.00 kcal/mol
DOCKED: USER    (2) Final Total Internal Energy     =  -1.67 kcal/mol
DOCKED: USER    (3) Torsional Free Energy           =  +1.49 kcal/mol
DOCKED: USER    (4) Unbound System's Energy         =  -1.67 kcal/mol
DOCKED: USER
DOCKED: USER
DOCKED: REMARK SMILES O=C(NCC(=O)N1CCCC[C@H]1c1ccc(Br)cc1)c1ccc2ccccc2n1
DOCKED: REMARK SMILES IDX 5 1 6 2 4 3 3 4 2 5 1 6 20 8 21 9 29 10 22 11 28 12 23 13
DOCKED: REMARK SMILES IDX 27 14 24 15 26 16 25 17 7 18 8 19 12 20 9 21 11 22 10 23
DOCKED: REMARK SMILES IDX 13 24 14 25 19 26 15 27 18 28 16 29 17 30
DOCKED: REMARK H PARENT 3 7
DOCKED: USER                              x       y       z     vdW  Elec       q    Type
DOCKED: USER                           _______ _______ _______ _____ _____    ______ ____
DOCKED: ROOT
DOCKED: ATOM      1  C   UNL     1     138.633  75.303 221.182 -0.13 -0.05    +0.242 C  
DOCKED: ATOM      2  O   UNL     1     137.526  75.913 221.329 -0.07 +0.06    -0.273 OA 
DOCKED: ENDROOT
DOCKED: BRANCH   1   3
DOCKED: ATOM      3  C   UNL     1     138.728  73.851 220.957 -0.10 -0.05    +0.216 C  
DOCKED: BRANCH   3   4
DOCKED: ATOM      4  N   UNL     1     138.859  73.107 222.194 -0.08 +0.10    -0.342 N  
DOCKED: ATOM      5  C   UNL     1     139.725  71.968 222.237 -0.19 -0.05    +0.270 C  
DOCKED: ATOM      6  O   UNL     1     140.367  71.619 221.210 -0.11 +0.04    -0.268 OA 
DOCKED: ATOM      7  H   UNL     1     138.349  73.355 223.075 -0.51 -0.11    +0.164 HD 
DOCKED: BRANCH   5   8
DOCKED: ATOM      8  C   UNL     1     139.842  71.226 223.509 -0.31 -0.02    +0.128 A  
DOCKED: ATOM      9  C   UNL     1     139.472  69.907 223.570 -0.26 -0.01    +0.035 A  
DOCKED: ATOM     10  N   UNL     1     140.318  71.849 224.625 -0.27 +0.04    -0.243 NA 
DOCKED: ATOM     11  C   UNL     1     139.588  69.216 224.775 -0.36 -0.00    +0.013 A  
DOCKED: ATOM     12  C   UNL     1     140.439  71.215 225.792 -0.53 -0.01    +0.071 A  
DOCKED: ATOM     13  C   UNL     1     140.076  69.889 225.886 -0.49 -0.00    +0.000 A  
DOCKED: ATOM     14  C   UNL     1     140.925  71.897 226.887 -0.73 -0.01    +0.029 A  
DOCKED: ATOM     15  C   UNL     1     140.224  69.287 227.118 -0.58 -0.00    +0.010 A  
DOCKED: ATOM     16  C   UNL     1     141.070  71.286 228.116 -0.75 -0.00    +0.002 A  
DOCKED: ATOM     17  C   UNL     1     140.707  69.944 228.228 -0.59 -0.00    +0.001 A  
DOCKED: ENDBRANCH   5   8
DOCKED: ENDBRANCH   3   4
DOCKED: ENDBRANCH   1   3
DOCKED: BRANCH   1  18
DOCKED: ATOM     18  N   UNL     1     139.807  76.103 221.245 -0.11 +0.08    -0.334 N  
DOCKED: ATOM     19  C   UNL     1     140.083  76.764 222.506 -0.24 -0.03    +0.120 C  
DOCKED: ATOM     20  C   UNL     1     140.688  76.254 220.102 -0.15 -0.04    +0.115 C  
DOCKED: ATOM     21  C   UNL     1     140.484  78.216 222.287 -0.39 -0.01    +0.022 C  
DOCKED: ATOM     22  C   UNL     1     140.933  77.742 219.951 -0.20 -0.01    +0.030 C  
DOCKED: ATOM     23  C   UNL     1     141.597  78.201 221.227 -0.35 -0.00    +0.004 C  
DOCKED: BRANCH  20  24
DOCKED: ATOM     24  C   UNL     1     141.954  75.491 220.240 -0.27 +0.01    -0.025 A  
DOCKED: ATOM     25  C   UNL     1     143.192  76.005 219.925 -0.33 -0.00    +0.007 A  
DOCKED: ATOM     26  C   UNL     1     141.918  74.194 220.709 -0.28 -0.00    +0.007 A  
DOCKED: ATOM     27  C   UNL     1     144.364  75.285 220.060 -0.28 -0.01    +0.016 A  
DOCKED: ATOM     28  C   UNL     1     143.102  73.461 220.847 -0.27 -0.00    +0.016 A  
DOCKED: ATOM     29  C   UNL     1     144.329  73.997 220.526 -0.46 -0.01    +0.017 A  
DOCKED: ATOM     30  Br  UNL     1     145.950  73.014 220.709 -0.98 -0.00    -0.051 Br 
DOCKED: ENDBRANCH  20  24
DOCKED: ENDBRANCH   1  18
DOCKED: TORSDOF 5
DOCKED: TER
DOCKED: ENDMDL
________________________________________________________________________________


    FINAL DOCKED STATE:
    ________________________


Run:   16 / 20
Time taken for this run:   0.035s

DOCKED: MODEL        16
DOCKED: USER    Run = 16
DOCKED: USER
DOCKED: USER    Estimated Free Energy of Binding    =  -8.79 kcal/mol  [=(1)+(2)+(3)-(4)]
DOCKED: USER
DOCKED: USER    (1) Final Intermolecular Energy     = -10.28 kcal/mol
DOCKED: USER        vdW + Hbond + desolv Energy     = -10.20 kcal/mol
DOCKED: USER        Electrostatic Energy            =  -0.08 kcal/mol
DOCKED: USER        Moving Ligand-Fixed Receptor    = -10.28 kcal/mol
DOCKED: USER        Moving Ligand-Moving Receptor   =  +0.00 kcal/mol
DOCKED: USER    (2) Final Total Internal Energy     =  -1.80 kcal/mol
DOCKED: USER    (3) Torsional Free Energy           =  +1.49 kcal/mol
DOCKED: USER    (4) Unbound System's Energy         =  -1.80 kcal/mol
DOCKED: USER
DOCKED: USER
DOCKED: REMARK SMILES O=C(NCC(=O)N1CCCC[C@H]1c1ccc(Br)cc1)c1ccc2ccccc2n1
DOCKED: REMARK SMILES IDX 5 1 6 2 4 3 3 4 2 5 1 6 20 8 21 9 29 10 22 11 28 12 23 13
DOCKED: REMARK SMILES IDX 27 14 24 15 26 16 25 17 7 18 8 19 12 20 9 21 11 22 10 23
DOCKED: REMARK SMILES IDX 13 24 14 25 19 26 15 27 18 28 16 29 17 30
DOCKED: REMARK H PARENT 3 7
DOCKED: USER                              x       y       z     vdW  Elec       q    Type
DOCKED: USER                           _______ _______ _______ _____ _____    ______ ____
DOCKED: ROOT
DOCKED: ATOM      1  C   UNL     1     138.331  74.980 220.900 -0.09 -0.05    +0.242 C  
DOCKED: ATOM      2  O   UNL     1     137.218  75.577 220.746 -0.03 +0.06    -0.273 OA 
DOCKED: ENDROOT
DOCKED: BRANCH   1   3
DOCKED: ATOM      3  C   UNL     1     138.479  73.518 220.809 -0.08 -0.05    +0.216 C  
DOCKED: BRANCH   3   4
DOCKED: ATOM      4  N   UNL     1     138.659  72.899 222.108 -0.09 +0.10    -0.342 N  
DOCKED: ATOM      5  C   UNL     1     139.576  71.809 222.243 -0.18 -0.05    +0.270 C  
DOCKED: ATOM      6  O   UNL     1     140.221  71.395 221.241 -0.10 +0.04    -0.268 OA 
DOCKED: ATOM      7  H   UNL     1     138.149  73.205 222.971 -0.48 -0.10    +0.164 HD 
DOCKED: BRANCH   5   8
DOCKED: ATOM      8  C   UNL     1     139.744  71.194 223.576 -0.31 -0.02    +0.128 A  
DOCKED: ATOM      9  C   UNL     1     139.311  69.913 223.799 -0.28 -0.01    +0.035 A  
DOCKED: ATOM     10  N   UNL     1     140.327  71.900 224.587 -0.26 +0.04    -0.243 NA 
DOCKED: ATOM     11  C   UNL     1     139.474  69.343 225.060 -0.40 -0.00    +0.013 A  
DOCKED: ATOM     12  C   UNL     1     140.496  71.381 225.804 -0.53 -0.01    +0.071 A  
DOCKED: ATOM     13  C   UNL     1     140.072  70.095 226.060 -0.51 -0.00    +0.000 A  
DOCKED: ATOM     14  C   UNL     1     141.091  72.142 226.788 -0.69 -0.01    +0.029 A  
DOCKED: ATOM     15  C   UNL     1     140.274  69.615 227.338 -0.59 -0.00    +0.010 A  
DOCKED: ATOM     16  C   UNL     1     141.289  71.652 228.063 -0.75 -0.00    +0.002 A  
DOCKED: ATOM     17  C   UNL     1     140.866  70.352 228.339 -0.56 -0.00    +0.001 A  
DOCKED: ENDBRANCH   5   8
DOCKED: ENDBRANCH   3   4
DOCKED: ENDBRANCH   1   3
DOCKED: BRANCH   1  18
DOCKED: ATOM     18  N   UNL     1     139.458  75.805 221.170 -0.09 +0.08    -0.334 N  
DOCKED: ATOM     19  C   UNL     1     139.620  76.268 222.534 -0.19 -0.02    +0.120 C  
DOCKED: ATOM     20  C   UNL     1     140.401  76.170 220.129 -0.13 -0.04    +0.115 C  
DOCKED: ATOM     21  C   UNL     1     139.962  77.750 222.574 -0.34 -0.01    +0.022 C  
DOCKED: ATOM     22  C   UNL     1     140.581  77.671 220.230 -0.19 -0.01    +0.030 C  
DOCKED: ATOM     23  C   UNL     1     141.139  77.947 221.606 -0.37 -0.00    +0.004 C  
DOCKED: BRANCH  20  24
DOCKED: ATOM     24  C   UNL     1     141.692  75.444 220.235 -0.25 +0.01    -0.025 A  
DOCKED: ATOM     25  C   UNL     1     141.816  74.180 220.767 -0.28 -0.00    +0.007 A  
DOCKED: ATOM     26  C   UNL     1     142.848  76.045 219.781 -0.36 -0.00    +0.007 A  
DOCKED: ATOM     27  C   UNL     1     143.023  73.515 220.858 -0.25 -0.00    +0.016 A  
DOCKED: ATOM     28  C   UNL     1     144.073  75.375 219.871 -0.37 -0.01    +0.016 A  
DOCKED: ATOM     29  C   UNL     1     144.172  74.111 220.407 -0.45 -0.01    +0.017 A  
DOCKED: ATOM     30  Br  UNL     1     145.832  73.186 220.538 -1.01 -0.00    -0.051 Br 
DOCKED: ENDBRANCH  20  24
DOCKED: ENDBRANCH   1  18
DOCKED: TORSDOF 5
DOCKED: TER
DOCKED: ENDMDL
________________________________________________________________________________


    FINAL DOCKED STATE:
    ________________________


Run:   17 / 20
Time taken for this run:   0.035s

DOCKED: MODEL        17
DOCKED: USER    Run = 17
DOCKED: USER
DOCKED: USER    Estimated Free Energy of Binding    =  -8.69 kcal/mol  [=(1)+(2)+(3)-(4)]
DOCKED: USER
DOCKED: USER    (1) Final Intermolecular Energy     = -10.18 kcal/mol
DOCKED: USER        vdW + Hbond + desolv Energy     = -10.11 kcal/mol
DOCKED: USER        Electrostatic Energy            =  -0.07 kcal/mol
DOCKED: USER        Moving Ligand-Fixed Receptor    = -10.18 kcal/mol
DOCKED: USER        Moving Ligand-Moving Receptor   =  +0.00 kcal/mol
DOCKED: USER    (2) Final Total Internal Energy     =  -1.85 kcal/mol
DOCKED: USER    (3) Torsional Free Energy           =  +1.49 kcal/mol
DOCKED: USER    (4) Unbound System's Energy         =  -1.85 kcal/mol
DOCKED: USER
DOCKED: USER
DOCKED: REMARK SMILES O=C(NCC(=O)N1CCCC[C@H]1c1ccc(Br)cc1)c1ccc2ccccc2n1
DOCKED: REMARK SMILES IDX 5 1 6 2 4 3 3 4 2 5 1 6 20 8 21 9 29 10 22 11 28 12 23 13
DOCKED: REMARK SMILES IDX 27 14 24 15 26 16 25 17 7 18 8 19 12 20 9 21 11 22 10 23
DOCKED: REMARK SMILES IDX 13 24 14 25 19 26 15 27 18 28 16 29 17 30
DOCKED: REMARK H PARENT 3 7
DOCKED: USER                              x       y       z     vdW  Elec       q    Type
DOCKED: USER                           _______ _______ _______ _____ _____    ______ ____
DOCKED: ROOT
DOCKED: ATOM      1  C   UNL     1     138.356  74.906 220.908 -0.09 -0.05    +0.242 C  
DOCKED: ATOM      2  O   UNL     1     137.244  75.493 220.712 -0.03 +0.06    -0.273 OA 
DOCKED: ENDROOT
DOCKED: BRANCH   1   3
DOCKED: ATOM      3  C   UNL     1     138.506  73.441 220.889 -0.08 -0.05    +0.216 C  
DOCKED: BRANCH   3   4
DOCKED: ATOM      4  N   UNL     1     138.849  72.904 222.191 -0.09 +0.09    -0.342 N  
DOCKED: ATOM      5  C   UNL     1     139.229  71.529 222.303 -0.15 -0.05    +0.270 C  
DOCKED: ATOM      6  O   UNL     1     139.264  70.795 221.278 -0.07 +0.05    -0.268 OA 
DOCKED: ATOM      7  H   UNL     1     138.836  73.471 223.072 -0.52 -0.10    +0.164 HD 
DOCKED: BRANCH   5   8
DOCKED: ATOM      8  C   UNL     1     139.575  71.004 223.640 -0.30 -0.02    +0.128 A  
DOCKED: ATOM      9  C   UNL     1     139.316  69.694 223.950 -0.29 -0.01    +0.035 A  
DOCKED: ATOM     10  N   UNL     1     140.151  71.821 224.568 -0.24 +0.05    -0.243 NA 
DOCKED: ATOM     11  C   UNL     1     139.647  69.209 225.215 -0.41 -0.00    +0.013 A  
DOCKED: ATOM     12  C   UNL     1     140.477  71.386 225.786 -0.53 -0.01    +0.071 A  
DOCKED: ATOM     13  C   UNL     1     140.231  70.074 226.129 -0.52 -0.00    +0.000 A  
DOCKED: ATOM     14  C   UNL     1     141.056  72.257 226.684 -0.61 -0.01    +0.029 A  
DOCKED: ATOM     15  C   UNL     1     140.590  69.684 227.402 -0.59 -0.00    +0.010 A  
DOCKED: ATOM     16  C   UNL     1     141.413  71.857 227.956 -0.77 -0.00    +0.002 A  
DOCKED: ATOM     17  C   UNL     1     141.170  70.532 228.318 -0.54 -0.00    +0.001 A  
DOCKED: ENDBRANCH   5   8
DOCKED: ENDBRANCH   3   4
DOCKED: ENDBRANCH   1   3
DOCKED: BRANCH   1  18
DOCKED: ATOM     18  N   UNL     1     139.478  75.745 221.151 -0.09 +0.08    -0.334 N  
DOCKED: ATOM     19  C   UNL     1     139.652  76.231 222.505 -0.20 -0.02    +0.120 C  
DOCKED: ATOM     20  C   UNL     1     140.406  76.101 220.093 -0.12 -0.04    +0.115 C  
DOCKED: ATOM     21  C   UNL     1     139.981  77.717 222.517 -0.35 -0.01    +0.022 C  
DOCKED: ATOM     22  C   UNL     1     140.573  77.605 220.168 -0.18 -0.01    +0.030 C  
DOCKED: ATOM     23  C   UNL     1     141.145  77.908 221.532 -0.36 -0.00    +0.004 C  
DOCKED: BRANCH  20  24
DOCKED: ATOM     24  C   UNL     1     141.704  75.389 220.195 -0.25 +0.01    -0.025 A  
DOCKED: ATOM     25  C   UNL     1     141.844  74.132 220.740 -0.28 -0.00    +0.007 A  
DOCKED: ATOM     26  C   UNL     1     142.850  75.995 219.724 -0.36 -0.00    +0.007 A  
DOCKED: ATOM     27  C   UNL     1     143.059  73.478 220.827 -0.27 -0.00    +0.016 A  
DOCKED: ATOM     28  C   UNL     1     144.083  75.338 219.811 -0.36 -0.01    +0.016 A  
DOCKED: ATOM     29  C   UNL     1     144.198  74.080 220.360 -0.44 -0.01    +0.017 A  
DOCKED: ATOM     30  Br  UNL     1     145.867  73.171 220.485 -1.00 -0.00    -0.051 Br 
DOCKED: ENDBRANCH  20  24
DOCKED: ENDBRANCH   1  18
DOCKED: TORSDOF 5
DOCKED: TER
DOCKED: ENDMDL
________________________________________________________________________________


    FINAL DOCKED STATE:
    ________________________


Run:   18 / 20
Time taken for this run:   0.035s

DOCKED: MODEL        18
DOCKED: USER    Run = 18
DOCKED: USER
DOCKED: USER    Estimated Free Energy of Binding    =  -8.77 kcal/mol  [=(1)+(2)+(3)-(4)]
DOCKED: USER
DOCKED: USER    (1) Final Intermolecular Energy     = -10.26 kcal/mol
DOCKED: USER        vdW + Hbond + desolv Energy     = -10.21 kcal/mol
DOCKED: USER        Electrostatic Energy            =  -0.05 kcal/mol
DOCKED: USER        Moving Ligand-Fixed Receptor    = -10.26 kcal/mol
DOCKED: USER        Moving Ligand-Moving Receptor   =  +0.00 kcal/mol
DOCKED: USER    (2) Final Total Internal Energy     =  -1.77 kcal/mol
DOCKED: USER    (3) Torsional Free Energy           =  +1.49 kcal/mol
DOCKED: USER    (4) Unbound System's Energy         =  -1.77 kcal/mol
DOCKED: USER
DOCKED: USER
DOCKED: REMARK SMILES O=C(NCC(=O)N1CCCC[C@H]1c1ccc(Br)cc1)c1ccc2ccccc2n1
DOCKED: REMARK SMILES IDX 5 1 6 2 4 3 3 4 2 5 1 6 20 8 21 9 29 10 22 11 28 12 23 13
DOCKED: REMARK SMILES IDX 27 14 24 15 26 16 25 17 7 18 8 19 12 20 9 21 11 22 10 23
DOCKED: REMARK SMILES IDX 13 24 14 25 19 26 15 27 18 28 16 29 17 30
DOCKED: REMARK H PARENT 3 7
DOCKED: USER                              x       y       z     vdW  Elec       q    Type
DOCKED: USER                           _______ _______ _______ _____ _____    ______ ____
DOCKED: ROOT
DOCKED: ATOM      1  C   UNL     1     138.548  75.032 221.268 -0.13 -0.06    +0.242 C  
DOCKED: ATOM      2  O   UNL     1     137.416  75.606 221.361 -0.08 +0.06    -0.273 OA 
DOCKED: ENDROOT
DOCKED: BRANCH   1   3
DOCKED: ATOM      3  C   UNL     1     138.702  73.576 221.116 -0.11 -0.05    +0.216 C  
DOCKED: BRANCH   3   4
DOCKED: ATOM      4  N   UNL     1     139.034  72.921 222.366 -0.09 +0.09    -0.342 N  
DOCKED: ATOM      5  C   UNL     1     139.074  71.492 222.419 -0.15 -0.06    +0.270 C  
DOCKED: ATOM      6  O   UNL     1     138.823  70.811 221.387 -0.06 +0.05    -0.268 OA 
DOCKED: ATOM      7  H   UNL     1     139.252  73.439 223.251 -0.47 -0.08    +0.164 HD 
DOCKED: BRANCH   5   8
DOCKED: ATOM      8  C   UNL     1     139.416  70.847 223.704 -0.29 -0.03    +0.128 A  
DOCKED: ATOM      9  C   UNL     1     139.199  69.504 223.876 -0.28 -0.01    +0.035 A  
DOCKED: ATOM     10  N   UNL     1     139.947  71.585 224.720 -0.26 +0.05    -0.243 NA 
DOCKED: ATOM     11  C   UNL     1     139.526  68.907 225.093 -0.41 -0.00    +0.013 A  
DOCKED: ATOM     12  C   UNL     1     140.268  71.041 225.895 -0.52 -0.01    +0.071 A  
DOCKED: ATOM     13  C   UNL     1     140.063  69.694 226.100 -0.50 -0.00    +0.000 A  
DOCKED: ATOM     14  C   UNL     1     140.801  71.837 226.887 -0.72 -0.01    +0.029 A  
DOCKED: ATOM     15  C   UNL     1     140.415  69.190 227.335 -0.61 -0.00    +0.010 A  
DOCKED: ATOM     16  C   UNL     1     141.150  71.323 228.119 -0.73 -0.00    +0.002 A  
DOCKED: ATOM     17  C   UNL     1     140.949  69.962 228.343 -0.57 -0.00    +0.001 A  
DOCKED: ENDBRANCH   5   8
DOCKED: ENDBRANCH   3   4
DOCKED: ENDBRANCH   1   3
DOCKED: BRANCH   1  18
DOCKED: ATOM     18  N   UNL     1     139.689  75.878 221.318 -0.12 +0.08    -0.334 N  
DOCKED: ATOM     19  C   UNL     1     139.956  76.548 222.576 -0.17 -0.02    +0.120 C  
DOCKED: ATOM     20  C   UNL     1     140.549  76.066 220.163 -0.14 -0.04    +0.115 C  
DOCKED: ATOM     21  C   UNL     1     140.295  78.015 222.356 -0.39 -0.01    +0.022 C  
DOCKED: ATOM     22  C   UNL     1     140.732  77.563 220.013 -0.18 -0.01    +0.030 C  
DOCKED: ATOM     23  C   UNL     1     141.394  78.046 221.281 -0.35 -0.00    +0.004 C  
DOCKED: BRANCH  20  24
DOCKED: ATOM     24  C   UNL     1     141.846  75.354 220.283 -0.26 +0.01    -0.025 A  
DOCKED: ATOM     25  C   UNL     1     143.058  75.915 219.945 -0.34 -0.00    +0.007 A  
DOCKED: ATOM     26  C   UNL     1     141.870  74.060 220.758 -0.28 -0.00    +0.007 A  
DOCKED: ATOM     27  C   UNL     1     144.259  75.243 220.063 -0.34 -0.01    +0.016 A  
DOCKED: ATOM     28  C   UNL     1     143.084  73.374 220.879 -0.24 -0.00    +0.016 A  
DOCKED: ATOM     29  C   UNL     1     144.283  73.956 220.535 -0.45 -0.00    +0.017 A  
DOCKED: ATOM     30  Br  UNL     1     145.944  73.038 220.694 -0.99 -0.00    -0.051 Br 
DOCKED: ENDBRANCH  20  24
DOCKED: ENDBRANCH   1  18
DOCKED: TORSDOF 5
DOCKED: TER
DOCKED: ENDMDL
________________________________________________________________________________


    FINAL DOCKED STATE:
    ________________________


Run:   19 / 20
Time taken for this run:   0.035s

DOCKED: MODEL        19
DOCKED: USER    Run = 19
DOCKED: USER
DOCKED: USER    Estimated Free Energy of Binding    =  -8.73 kcal/mol  [=(1)+(2)+(3)-(4)]
DOCKED: USER
DOCKED: USER    (1) Final Intermolecular Energy     = -10.22 kcal/mol
DOCKED: USER        vdW + Hbond + desolv Energy     = -10.17 kcal/mol
DOCKED: USER        Electrostatic Energy            =  -0.05 kcal/mol
DOCKED: USER        Moving Ligand-Fixed Receptor    = -10.22 kcal/mol
DOCKED: USER        Moving Ligand-Moving Receptor   =  +0.00 kcal/mol
DOCKED: USER    (2) Final Total Internal Energy     =  -1.79 kcal/mol
DOCKED: USER    (3) Torsional Free Energy           =  +1.49 kcal/mol
DOCKED: USER    (4) Unbound System's Energy         =  -1.79 kcal/mol
DOCKED: USER
DOCKED: USER
DOCKED: REMARK SMILES O=C(NCC(=O)N1CCCC[C@H]1c1ccc(Br)cc1)c1ccc2ccccc2n1
DOCKED: REMARK SMILES IDX 5 1 6 2 4 3 3 4 2 5 1 6 20 8 21 9 29 10 22 11 28 12 23 13
DOCKED: REMARK SMILES IDX 27 14 24 15 26 16 25 17 7 18 8 19 12 20 9 21 11 22 10 23
DOCKED: REMARK SMILES IDX 13 24 14 25 19 26 15 27 18 28 16 29 17 30
DOCKED: REMARK H PARENT 3 7
DOCKED: USER                              x       y       z     vdW  Elec       q    Type
DOCKED: USER                           _______ _______ _______ _____ _____    ______ ____
DOCKED: ROOT
DOCKED: ATOM      1  C   UNL     1     138.519  75.052 221.279 -0.13 -0.06    +0.242 C  
DOCKED: ATOM      2  O   UNL     1     137.393  75.632 221.396 -0.08 +0.06    -0.273 OA 
DOCKED: ENDROOT
DOCKED: BRANCH   1   3
DOCKED: ATOM      3  C   UNL     1     138.661  73.596 221.116 -0.11 -0.05    +0.216 C  
DOCKED: BRANCH   3   4
DOCKED: ATOM      4  N   UNL     1     139.007  72.932 222.358 -0.09 +0.10    -0.342 N  
DOCKED: ATOM      5  C   UNL     1     139.029  71.502 222.404 -0.15 -0.06    +0.270 C  
DOCKED: ATOM      6  O   UNL     1     138.751  70.829 221.374 -0.05 +0.05    -0.268 OA 
DOCKED: ATOM      7  H   UNL     1     139.246  73.443 223.241 -0.48 -0.08    +0.164 HD 
DOCKED: BRANCH   5   8
DOCKED: ATOM      8  C   UNL     1     139.384  70.847 223.680 -0.28 -0.03    +0.128 A  
DOCKED: ATOM      9  C   UNL     1     139.194  69.499 223.835 -0.28 -0.01    +0.035 A  
DOCKED: ATOM     10  N   UNL     1     139.902  71.582 224.706 -0.25 +0.05    -0.243 NA 
DOCKED: ATOM     11  C   UNL     1     139.533  68.892 225.043 -0.40 -0.00    +0.013 A  
DOCKED: ATOM     12  C   UNL     1     140.235  71.030 225.874 -0.51 -0.01    +0.071 A  
DOCKED: ATOM     13  C   UNL     1     140.056  69.676 226.061 -0.49 -0.00    +0.000 A  
DOCKED: ATOM     14  C   UNL     1     140.753  71.823 226.876 -0.71 -0.01    +0.029 A  
DOCKED: ATOM     15  C   UNL     1     140.419  69.163 227.289 -0.61 -0.00    +0.010 A  
DOCKED: ATOM     16  C   UNL     1     141.113  71.300 228.100 -0.74 -0.00    +0.002 A  
DOCKED: ATOM     17  C   UNL     1     140.939  69.932 228.306 -0.57 -0.00    +0.001 A  
DOCKED: ENDBRANCH   5   8
DOCKED: ENDBRANCH   3   4
DOCKED: ENDBRANCH   1   3
DOCKED: BRANCH   1  18
DOCKED: ATOM     18  N   UNL     1     139.667  75.892 221.313 -0.11 +0.08    -0.334 N  
DOCKED: ATOM     19  C   UNL     1     139.956  76.557 222.568 -0.18 -0.02    +0.120 C  
DOCKED: ATOM     20  C   UNL     1     140.509  76.076 220.146 -0.14 -0.04    +0.115 C  
DOCKED: ATOM     21  C   UNL     1     140.302  78.022 222.345 -0.39 -0.01    +0.022 C  
DOCKED: ATOM     22  C   UNL     1     140.700  77.572 219.996 -0.18 -0.01    +0.030 C  
DOCKED: ATOM     23  C   UNL     1     141.384  78.049 221.254 -0.35 -0.00    +0.004 C  
DOCKED: BRANCH  20  24
DOCKED: ATOM     24  C   UNL     1     141.804  75.356 220.244 -0.26 +0.01    -0.025 A  
DOCKED: ATOM     25  C   UNL     1     143.008  75.893 219.845 -0.36 -0.00    +0.007 A  
DOCKED: ATOM     26  C   UNL     1     141.833  74.078 220.763 -0.28 -0.00    +0.007 A  
DOCKED: ATOM     27  C   UNL     1     144.207  75.213 219.945 -0.32 -0.01    +0.016 A  
DOCKED: ATOM     28  C   UNL     1     143.044  73.385 220.865 -0.25 -0.00    +0.016 A  
DOCKED: ATOM     29  C   UNL     1     144.236  73.943 220.460 -0.45 -0.00    +0.017 A  
DOCKED: ATOM     30  Br  UNL     1     145.894  73.015 220.592 -0.98 -0.00    -0.051 Br 
DOCKED: ENDBRANCH  20  24
DOCKED: ENDBRANCH   1  18
DOCKED: TORSDOF 5
DOCKED: TER
DOCKED: ENDMDL
________________________________________________________________________________


    FINAL DOCKED STATE:
    ________________________


Run:   20 / 20
Time taken for this run:   0.035s

DOCKED: MODEL        20
DOCKED: USER    Run = 20
DOCKED: USER
DOCKED: USER    Estimated Free Energy of Binding    =  -9.31 kcal/mol  [=(1)+(2)+(3)-(4)]
DOCKED: USER
DOCKED: USER    (1) Final Intermolecular Energy     = -10.80 kcal/mol
DOCKED: USER        vdW + Hbond + desolv Energy     = -10.79 kcal/mol
DOCKED: USER        Electrostatic Energy            =  -0.02 kcal/mol
DOCKED: USER        Moving Ligand-Fixed Receptor    = -10.80 kcal/mol
DOCKED: USER        Moving Ligand-Moving Receptor   =  +0.00 kcal/mol
DOCKED: USER    (2) Final Total Internal Energy     =  -1.21 kcal/mol
DOCKED: USER    (3) Torsional Free Energy           =  +1.49 kcal/mol
DOCKED: USER    (4) Unbound System's Energy         =  -1.21 kcal/mol
DOCKED: USER
DOCKED: USER
DOCKED: REMARK SMILES O=C(NCC(=O)N1CCCC[C@H]1c1ccc(Br)cc1)c1ccc2ccccc2n1
DOCKED: REMARK SMILES IDX 5 1 6 2 4 3 3 4 2 5 1 6 20 8 21 9 29 10 22 11 28 12 23 13
DOCKED: REMARK SMILES IDX 27 14 24 15 26 16 25 17 7 18 8 19 12 20 9 21 11 22 10 23
DOCKED: REMARK SMILES IDX 13 24 14 25 19 26 15 27 18 28 16 29 17 30
DOCKED: REMARK H PARENT 3 7
DOCKED: USER                              x       y       z     vdW  Elec       q    Type
DOCKED: USER                           _______ _______ _______ _____ _____    ______ ____
DOCKED: ROOT
DOCKED: ATOM      1  C   UNL     1     139.609  72.705 222.189 -0.19 -0.05    +0.242 C  
DOCKED: ATOM      2  O   UNL     1     140.820  73.060 222.358 -0.64 -0.00    -0.273 OA 
DOCKED: ENDROOT
DOCKED: BRANCH   1   3
DOCKED: ATOM      3  C   UNL     1     138.546  73.641 221.787 -0.12 -0.06    +0.216 C  
DOCKED: BRANCH   3   4
DOCKED: ATOM      4  N   UNL     1     138.755  74.975 222.314 -0.10 +0.09    -0.342 N  
DOCKED: ATOM      5  C   UNL     1     139.764  75.807 221.732 -0.22 -0.06    +0.270 C  
DOCKED: ATOM      6  O   UNL     1     140.460  75.382 220.770 -0.14 +0.07    -0.268 OA 
DOCKED: ATOM      7  H   UNL     1     138.204  75.376 223.110 -0.40 -0.07    +0.164 HD 
DOCKED: BRANCH   5   8
DOCKED: ATOM      8  C   UNL     1     139.959  77.163 222.285 -0.32 -0.03    +0.128 A  
DOCKED: ATOM      9  C   UNL     1     138.879  77.891 222.713 -0.29 -0.01    +0.035 A  
DOCKED: ATOM     10  N   UNL     1     141.213  77.694 222.372 -0.25 +0.11    -0.243 NA 
DOCKED: ATOM     11  C   UNL     1     139.075  79.169 223.233 -0.35 -0.00    +0.013 A  
DOCKED: ATOM     12  C   UNL     1     141.431  78.914 222.864 -0.48 -0.03    +0.071 A  
DOCKED: ATOM     13  C   UNL     1     140.366  79.671 223.303 -0.46 -0.00    +0.000 A  
DOCKED: ATOM     14  C   UNL     1     142.720  79.399 222.927 -0.56 -0.01    +0.029 A  
DOCKED: ATOM     15  C   UNL     1     140.655  80.924 223.801 -0.40 -0.00    +0.010 A  
DOCKED: ATOM     16  C   UNL     1     142.998  80.654 223.427 -0.65 -0.00    +0.002 A  
DOCKED: ATOM     17  C   UNL     1     141.932  81.433 223.875 -0.57 -0.00    +0.001 A  
DOCKED: ENDBRANCH   5   8
DOCKED: ENDBRANCH   3   4
DOCKED: ENDBRANCH   1   3
DOCKED: BRANCH   1  18
DOCKED: ATOM     18  N   UNL     1     139.319  71.331 222.408 -0.10 +0.06    -0.334 N  
DOCKED: ATOM     19  C   UNL     1     140.027  70.371 221.584 -0.08 -0.02    +0.120 C  
DOCKED: ATOM     20  C   UNL     1     138.357  70.906 223.408 -0.22 -0.03    +0.115 C  
DOCKED: ATOM     21  C   UNL     1     139.082  69.307 221.044 -0.12 -0.00    +0.022 C  
DOCKED: ATOM     22  C   UNL     1     137.435  69.922 222.716 -0.15 -0.00    +0.030 C  
DOCKED: ATOM     23  C   UNL     1     138.300  68.773 222.254 -0.19 -0.00    +0.004 C  
DOCKED: BRANCH  20  24
DOCKED: ATOM     24  C   UNL     1     138.994  70.320 224.615 -0.36 +0.00    -0.025 A  
DOCKED: ATOM     25  C   UNL     1     138.544  69.176 225.235 -0.39 -0.00    +0.007 A  
DOCKED: ATOM     26  C   UNL     1     140.100  70.934 225.164 -0.51 -0.00    +0.007 A  
DOCKED: ATOM     27  C   UNL     1     139.147  68.640 226.357 -0.48 -0.00    +0.016 A  
DOCKED: ATOM     28  C   UNL     1     140.715  70.394 226.300 -0.57 -0.00    +0.016 A  
DOCKED: ATOM     29  C   UNL     1     140.247  69.249 226.903 -0.56 -0.00    +0.017 A  
DOCKED: ATOM     30  Br  UNL     1     141.071  68.501 228.449 -0.93 +0.01    -0.051 Br 
DOCKED: ENDBRANCH  20  24
DOCKED: ENDBRANCH   1  18
DOCKED: TORSDOF 5
DOCKED: TER
DOCKED: ENDMDL
________________________________________________________________________________


    CLUSTERING HISTOGRAM
    ____________________


________________________________________________________________________________
     |           |     |           |     |
Clus | Lowest    | Run | Mean      | Num | Histogram
-ter | Binding   |     | Binding   | in  |
Rank | Energy    |     | Energy    | Clus|    5    10   15   20   25   30   35
_____|___________|_____|___________|_____|____:____|____:____|____:____|____:___
   1 |     -9.31 |  20 |     -9.31 |   1 |#
   2 |     -9.11 |   1 |     -8.98 |   3 |###
   3 |     -8.98 |  15 |     -8.77 |  16 |################
_____|___________|_____|___________|_____|______________________________________


    RMSD TABLE
    __________


_______________________________________________________________________
     |      |      |           |         |                 |
Rank | Sub- | Run  | Binding   | Cluster | Reference       | Grep
     | Rank |      | Energy    | RMSD    | RMSD            | Pattern
_____|______|______|___________|_________|_________________|___________
   1      1     20       -9.31      0.00    271.54           RANKING
   2      1      1       -9.11      0.00    271.40           RANKING
   2      2     10       -9.11      0.83    271.55           RANKING
   2      3     11       -8.72      0.93    271.52           RANKING
   3      1     15       -8.98      0.00    271.26           RANKING
   3      2      7       -8.90      0.22    271.26           RANKING
   3      3     14       -8.86      0.33    271.26           RANKING
   3      4      6       -8.85      0.19    271.20           RANKING
   3      5     16       -8.79      0.40    271.17           RANKING
   3      6      4       -8.77      0.45    271.19           RANKING
   3      7     18       -8.77      0.48    271.23           RANKING
   3      8      2       -8.76      0.57    271.18           RANKING
   3      9      8       -8.74      0.42    271.23           RANKING
   3     10     19       -8.73      0.49    271.20           RANKING
   3     11      3       -8.72      0.53    271.17           RANKING
   3     12      5       -8.72      0.56    271.17           RANKING
   3     13     13       -8.71      0.55    271.13           RANKING
   3     14     12       -8.70      0.82    271.04           RANKING
   3     15      9       -8.69      0.61    271.14           RANKING
   3     16     17       -8.69      0.54    271.16           RANKING

Run time 0.671 sec
Idle time 0.000 sec
