AutoDock-GPU version: v1.6

**********************************************************
**    AutoDock-GPU AUTODOCKTOOLS-COMPATIBLE DLG FILE    **
**********************************************************


    DOCKING PARAMETERS
    ________________________


Ligand file:                               /home/a/REINVENT4/ReinventStudies/pleaseWork/justmol2mol_4_Compounds_ontop/graph-dock-hn62wh/graph-DockGPU/node-autodockgpu/inputs/RVILGQWHSUAGQX-BAKOIFDKNA-N.pdbqt
Grid fld file:                             /home/a/REINVENT4/ReinventStudies/mols/Rad51/maps/rad51_receptor.maps.fld

Random seed:                               42
Number of runs:                            20
Number of energy evaluations:              1132076
Number of generations:                     42000
Size of population:                        150
Rate of crossover:                         80.000000%
Tournament selection probability limit:    60.000000%
Rate of mutation:                          2.000000%
Maximal allowed delta movement:            +/- 6.000000A
Maximal allowed delta angle:               +/- 90.000000

Rate of local search:                      100.000000%
Maximal number of local search iterations: 300
Rho lower bound:                           0.010000
Spread of local search delta movement:     2.000000A
Spread of local search delta angle:        74.999999
Limit of consecutive successes/failures:   4

Handle symmetry during clustering:         YES
RMSD tolerance:                            2.000000A

Program call in command line was:          /home/a/REINVENT4/ReinventStudies/adgpu-v1.6_linux_x64_cuda12_128wi --filelist batch.txt --heuristics 1 --nrun 20 --psize 150 --lsit 300 --seed 42 --heurmax 12000000 


    GRID PARAMETERS
    ________________________


Receptor name:                             rad51_receptor
Number of grid points (x, y, z):           53, 53, 53
Grid center (x, y, z):                     139.950000, 75.640000, 221.970000A
Grid size (x, y, z):                       19.500000, 19.500000, 19.500000A
Grid spacing:                              0.375000A


    LIGAND PARAMETERS
    ________________________


Ligand name:                               /home/a/REINVENT4/ReinventStudies/pleaseWork/justmol2mol_4_Compounds_ontop/graph-dock-hn62wh/graph-DockGPU/node-autodockgpu/inputs/RVILGQWHSUAGQX-BAKOIFDKNA-N
Number of atoms:                           30
Number of rotatable bonds:                 5
Number of atom types:                      7


    DUMMY DATA (only for ADT-compatibility)
    ________________________


DPF> outlev 1
DPF> ga_run 20
DPF> fld /home/a/REINVENT4/ReinventStudies/mols/Rad51/maps/rad51_receptor.maps.fld
DPF> move /home/a/REINVENT4/ReinventStudies/pleaseWork/justmol2mol_4_Compounds_ontop/graph-dock-hn62wh/graph-DockGPU/node-autodockgpu/inputs/RVILGQWHSUAGQX-BAKOIFDKNA-N.pdbqt


    COUNTER STATES
    ________________________


Number of energy evaluations performed:    1143247
Number of generations used:                56


    INPUT LIGAND PDBQT FILE:
    ________________________


INPUT-LIGAND-PDBQT: REMARK SMILES O=C(NCC(=O)N1CCCC[C@@H]1C1CCCCC1)c1ccc2cc(Cl)ccc2n1
INPUT-LIGAND-PDBQT: REMARK SMILES IDX 4 1 3 2 2 3 1 4 19 6 20 7 29 8 21 9 28 10 22 11 27 12 23 13
INPUT-LIGAND-PDBQT: REMARK SMILES IDX 26 14 24 15 25 16 5 17 6 18 7 19 8 20 12 21 9 22 11 23 10 24
INPUT-LIGAND-PDBQT: REMARK SMILES IDX 13 25 14 26 18 27 15 28 17 29 16 30
INPUT-LIGAND-PDBQT: REMARK H PARENT 3 5
INPUT-LIGAND-PDBQT: ROOT
INPUT-LIGAND-PDBQT: ATOM      1  C   UNL     1       0.406  -0.006  -1.625  1.00  0.00     0.216 C 
INPUT-LIGAND-PDBQT: ENDROOT
INPUT-LIGAND-PDBQT: BRANCH   1   2
INPUT-LIGAND-PDBQT: ATOM      2  N   UNL     1       1.739   0.199  -1.066  1.00  0.00    -0.342 N 
INPUT-LIGAND-PDBQT: ATOM      3  C   UNL     1       2.453  -0.868  -0.496  1.00  0.00     0.270 C 
INPUT-LIGAND-PDBQT: ATOM      4  O   UNL     1       2.003  -2.060  -0.427  1.00  0.00    -0.268 OA
INPUT-LIGAND-PDBQT: ATOM      5  H   UNL     1       2.207   1.145  -1.070  1.00  0.00     0.164 HD
INPUT-LIGAND-PDBQT: BRANCH   3   6
INPUT-LIGAND-PDBQT: ATOM      6  C   UNL     1       3.797  -0.627   0.061  1.00  0.00     0.128 A 
INPUT-LIGAND-PDBQT: ATOM      7  C   UNL     1       4.537  -1.636   0.629  1.00  0.00     0.035 A 
INPUT-LIGAND-PDBQT: ATOM      8  N   UNL     1       4.348   0.613   0.027  1.00  0.00    -0.243 NA
INPUT-LIGAND-PDBQT: ATOM      9  C   UNL     1       5.796  -1.445   1.158  1.00  0.00     0.013 A 
INPUT-LIGAND-PDBQT: ATOM     10  C   UNL     1       5.587   0.839   0.539  1.00  0.00     0.071 A 
INPUT-LIGAND-PDBQT: ATOM     11  C   UNL     1       6.326  -0.166   1.106  1.00  0.00     0.002 A 
INPUT-LIGAND-PDBQT: ATOM     12  C   UNL     1       6.149   2.109   0.503  1.00  0.00     0.030 A 
INPUT-LIGAND-PDBQT: ATOM     13  C   UNL     1       7.586   0.014   1.638  1.00  0.00     0.030 A 
INPUT-LIGAND-PDBQT: ATOM     14  C   UNL     1       7.411   2.321   1.029  1.00  0.00     0.023 A 
INPUT-LIGAND-PDBQT: ATOM     15  C   UNL     1       8.143   1.286   1.599  1.00  0.00     0.041 A 
INPUT-LIGAND-PDBQT: ATOM     16  Cl  UNL     1       9.743   1.536   2.270  1.00  0.00    -0.084 Cl
INPUT-LIGAND-PDBQT: ENDBRANCH   3   6
INPUT-LIGAND-PDBQT: ENDBRANCH   1   2
INPUT-LIGAND-PDBQT: BRANCH   1  17
INPUT-LIGAND-PDBQT: ATOM     17  C   UNL     1      -0.499  -0.504  -0.561  1.00  0.00     0.242 C 
INPUT-LIGAND-PDBQT: ATOM     18  O   UNL     1       0.023  -0.655   0.591  1.00  0.00    -0.273 OA
INPUT-LIGAND-PDBQT: BRANCH  17  19
INPUT-LIGAND-PDBQT: ATOM     19  N   UNL     1      -1.869  -0.794  -0.817  1.00  0.00    -0.338 N 
INPUT-LIGAND-PDBQT: ATOM     20  C   UNL     1      -2.405  -0.600  -2.158  1.00  0.00     0.120 C 
INPUT-LIGAND-PDBQT: ATOM     21  C   UNL     1      -2.712  -1.270   0.227  1.00  0.00     0.088 C 
INPUT-LIGAND-PDBQT: ATOM     22  C   UNL     1      -3.378  -1.641  -2.584  1.00  0.00     0.022 C 
INPUT-LIGAND-PDBQT: ATOM     23  C   UNL     1      -3.667  -2.354  -0.198  1.00  0.00     0.025 C 
INPUT-LIGAND-PDBQT: ATOM     24  C   UNL     1      -3.470  -2.786  -1.626  1.00  0.00     0.004 C 
INPUT-LIGAND-PDBQT: BRANCH  21  25
INPUT-LIGAND-PDBQT: ATOM     25  C   UNL     1      -3.491  -0.223   0.967  1.00  0.00     0.012 C 
INPUT-LIGAND-PDBQT: ATOM     26  C   UNL     1      -4.429   0.594   0.170  1.00  0.00     0.006 C 
INPUT-LIGAND-PDBQT: ATOM     27  C   UNL     1      -2.604   0.715   1.782  1.00  0.00     0.006 C 
INPUT-LIGAND-PDBQT: ATOM     28  C   UNL     1      -3.923   2.015  -0.024  1.00  0.00     0.000 C 
INPUT-LIGAND-PDBQT: ATOM     29  C   UNL     1      -3.571   1.745   2.379  1.00  0.00     0.000 C 
INPUT-LIGAND-PDBQT: ATOM     30  C   UNL     1      -4.022   2.710   1.314  1.00  0.00     0.000 C 
INPUT-LIGAND-PDBQT: ENDBRANCH  21  25
INPUT-LIGAND-PDBQT: ENDBRANCH  17  19
INPUT-LIGAND-PDBQT: ENDBRANCH   1  17
INPUT-LIGAND-PDBQT: TORSDOF 5


    FINAL DOCKED STATE:
    ________________________


Run:   1 / 20
Time taken for this run:   0.047s

DOCKED: MODEL        1
DOCKED: USER    Run = 1
DOCKED: USER
DOCKED: USER    Estimated Free Energy of Binding    =  -9.54 kcal/mol  [=(1)+(2)+(3)-(4)]
DOCKED: USER
DOCKED: USER    (1) Final Intermolecular Energy     = -11.03 kcal/mol
DOCKED: USER        vdW + Hbond + desolv Energy     = -10.98 kcal/mol
DOCKED: USER        Electrostatic Energy            =  -0.05 kcal/mol
DOCKED: USER        Moving Ligand-Fixed Receptor    = -11.03 kcal/mol
DOCKED: USER        Moving Ligand-Moving Receptor   =  +0.00 kcal/mol
DOCKED: USER    (2) Final Total Internal Energy     =  -1.67 kcal/mol
DOCKED: USER    (3) Torsional Free Energy           =  +1.49 kcal/mol
DOCKED: USER    (4) Unbound System's Energy         =  -1.67 kcal/mol
DOCKED: USER
DOCKED: USER
DOCKED: REMARK SMILES O=C(NCC(=O)N1CCCC[C@@H]1C1CCCCC1)c1ccc2cc(Cl)ccc2n1
DOCKED: REMARK SMILES IDX 4 1 3 2 2 3 1 4 19 6 20 7 29 8 21 9 28 10 22 11 27 12 23 13
DOCKED: REMARK SMILES IDX 26 14 24 15 25 16 5 17 6 18 7 19 8 20 12 21 9 22 11 23 10 24
DOCKED: REMARK SMILES IDX 13 25 14 26 18 27 15 28 17 29 16 30
DOCKED: REMARK H PARENT 3 5
DOCKED: USER                              x       y       z     vdW  Elec       q    Type
DOCKED: USER                           _______ _______ _______ _____ _____    ______ ____
DOCKED: ROOT
DOCKED: ATOM      1  C   UNL     1     139.437  74.864 221.035 -0.15 -0.05    +0.216 C  
DOCKED: ENDROOT
DOCKED: BRANCH   1   2
DOCKED: ATOM      2  N   UNL     1     139.510  73.906 222.134 -0.13 +0.06    -0.342 N  
DOCKED: ATOM      3  C   UNL     1     139.889  72.573 221.903 -0.19 -0.04    +0.270 C  
DOCKED: ATOM      4  O   UNL     1     140.187  72.115 220.751 -0.08 +0.04    -0.268 OA 
DOCKED: ATOM      5  H   UNL     1     139.284  74.178 223.128 -0.53 -0.06    +0.164 HD 
DOCKED: BRANCH   3   6
DOCKED: ATOM      6  C   UNL     1     139.952  71.630 223.035 -0.29 -0.02    +0.128 A  
DOCKED: ATOM      7  C   UNL     1     139.510  70.334 222.924 -0.23 -0.01    +0.035 A  
DOCKED: ATOM      8  N   UNL     1     140.456  72.021 224.234 -0.20 +0.03    -0.243 NA 
DOCKED: ATOM      9  C   UNL     1     139.556  69.427 223.961 -0.26 -0.00    +0.013 A  
DOCKED: ATOM     10  C   UNL     1     140.517  71.154 225.280 -0.50 -0.01    +0.071 A  
DOCKED: ATOM     11  C   UNL     1     140.076  69.861 225.170 -0.43 -0.00    +0.002 A  
DOCKED: ATOM     12  C   UNL     1     141.033  71.556 226.505 -0.69 -0.00    +0.030 A  
DOCKED: ATOM     13  C   UNL     1     140.117  68.946 226.201 -0.52 -0.01    +0.030 A  
DOCKED: ATOM     14  C   UNL     1     141.087  70.661 227.559 -0.62 -0.00    +0.023 A  
DOCKED: ATOM     15  C   UNL     1     140.635  69.353 227.424 -0.58 -0.01    +0.041 A  
DOCKED: ATOM     16  Cl  UNL     1     140.696  68.206 228.748 -0.62 +0.02    -0.084 Cl 
DOCKED: ENDBRANCH   3   6
DOCKED: ENDBRANCH   1   2
DOCKED: BRANCH   1  17
DOCKED: ATOM     17  C   UNL     1     139.768  76.218 221.543 -0.21 -0.06    +0.242 C  
DOCKED: ATOM     18  O   UNL     1     139.018  76.665 222.471 -0.25 +0.05    -0.273 OA 
DOCKED: BRANCH  17  19
DOCKED: ATOM     19  N   UNL     1     140.859  76.968 221.022 -0.11 +0.13    -0.338 N  
DOCKED: ATOM     20  C   UNL     1     141.948  76.275 220.346 -0.21 -0.06    +0.120 C  
DOCKED: ATOM     21  C   UNL     1     140.890  78.385 221.158 -0.26 -0.04    +0.088 C  
DOCKED: ATOM     22  C   UNL     1     142.486  76.993 219.159 -0.32 -0.01    +0.022 C  
DOCKED: ATOM     23  C   UNL     1     141.395  79.111 219.939 -0.26 -0.01    +0.025 C  
DOCKED: ATOM     24  C   UNL     1     141.676  78.192 218.781 -0.24 -0.00    +0.004 C  
DOCKED: BRANCH  21  25
DOCKED: ATOM     25  C   UNL     1     141.626  78.911 222.355 -0.49 -0.01    +0.012 C  
DOCKED: ATOM     26  C   UNL     1     140.805  79.312 223.516 -0.53 -0.00    +0.006 C  
DOCKED: ATOM     27  C   UNL     1     142.575  80.057 222.014 -0.45 -0.00    +0.006 C  
DOCKED: ATOM     28  C   UNL     1     140.750  80.823 223.680 -0.44 -0.00    +0.000 C  
DOCKED: ATOM     29  C   UNL     1     143.151  80.500 223.365 -0.65 -0.00    +0.000 C  
DOCKED: ATOM     30  C   UNL     1     142.117  81.271 224.142 -0.54 -0.00    +0.000 C  
DOCKED: ENDBRANCH  21  25
DOCKED: ENDBRANCH  17  19
DOCKED: ENDBRANCH   1  17
DOCKED: TORSDOF 5
DOCKED: TER
DOCKED: ENDMDL
________________________________________________________________________________


    FINAL DOCKED STATE:
    ________________________


Run:   2 / 20
Time taken for this run:   0.047s

DOCKED: MODEL        2
DOCKED: USER    Run = 2
DOCKED: USER
DOCKED: USER    Estimated Free Energy of Binding    =  -8.34 kcal/mol  [=(1)+(2)+(3)-(4)]
DOCKED: USER
DOCKED: USER    (1) Final Intermolecular Energy     =  -9.83 kcal/mol
DOCKED: USER        vdW + Hbond + desolv Energy     =  -9.83 kcal/mol
DOCKED: USER        Electrostatic Energy            =  -0.01 kcal/mol
DOCKED: USER        Moving Ligand-Fixed Receptor    =  -9.83 kcal/mol
DOCKED: USER        Moving Ligand-Moving Receptor   =  +0.00 kcal/mol
DOCKED: USER    (2) Final Total Internal Energy     =  -2.13 kcal/mol
DOCKED: USER    (3) Torsional Free Energy           =  +1.49 kcal/mol
DOCKED: USER    (4) Unbound System's Energy         =  -2.13 kcal/mol
DOCKED: USER
DOCKED: USER
DOCKED: REMARK SMILES O=C(NCC(=O)N1CCCC[C@@H]1C1CCCCC1)c1ccc2cc(Cl)ccc2n1
DOCKED: REMARK SMILES IDX 4 1 3 2 2 3 1 4 19 6 20 7 29 8 21 9 28 10 22 11 27 12 23 13
DOCKED: REMARK SMILES IDX 26 14 24 15 25 16 5 17 6 18 7 19 8 20 12 21 9 22 11 23 10 24
DOCKED: REMARK SMILES IDX 13 25 14 26 18 27 15 28 17 29 16 30
DOCKED: REMARK H PARENT 3 5
DOCKED: USER                              x       y       z     vdW  Elec       q    Type
DOCKED: USER                           _______ _______ _______ _____ _____    ______ ____
DOCKED: ROOT
DOCKED: ATOM      1  C   UNL     1     139.537  75.125 221.005 -0.15 -0.05    +0.216 C  
DOCKED: ENDROOT
DOCKED: BRANCH   1   2
DOCKED: ATOM      2  N   UNL     1     139.622  74.169 222.105 -0.13 +0.05    -0.342 N  
DOCKED: ATOM      3  C   UNL     1     139.838  72.803 221.858 -0.18 -0.04    +0.270 C  
DOCKED: ATOM      4  O   UNL     1     139.973  72.312 220.688 -0.07 +0.05    -0.268 OA 
DOCKED: ATOM      5  H   UNL     1     139.524  74.467 223.113 -0.53 -0.01    +0.164 HD 
DOCKED: BRANCH   3   6
DOCKED: ATOM      6  C   UNL     1     139.918  71.864 222.992 -0.29 -0.02    +0.128 A  
DOCKED: ATOM      7  C   UNL     1     139.501  70.559 222.882 -0.24 -0.01    +0.035 A  
DOCKED: ATOM      8  N   UNL     1     140.412  72.266 224.191 -0.11 +0.04    -0.243 NA 
DOCKED: ATOM      9  C   UNL     1     139.562  69.655 223.921 -0.28 -0.00    +0.013 A  
DOCKED: ATOM     10  C   UNL     1     140.487  71.403 225.238 -0.49 -0.01    +0.071 A  
DOCKED: ATOM     11  C   UNL     1     140.071  70.101 225.130 -0.44 -0.00    +0.002 A  
DOCKED: ATOM     12  C   UNL     1     140.993  71.816 226.464 -0.68 -0.00    +0.030 A  
DOCKED: ATOM     13  C   UNL     1     140.128  69.189 226.163 -0.50 -0.01    +0.030 A  
DOCKED: ATOM     14  C   UNL     1     141.062  70.924 227.519 -0.67 -0.00    +0.023 A  
DOCKED: ATOM     15  C   UNL     1     140.635  69.608 227.386 -0.56 -0.01    +0.041 A  
DOCKED: ATOM     16  Cl  UNL     1     140.715  68.465 228.712 -0.71 +0.02    -0.084 Cl 
DOCKED: ENDBRANCH   3   6
DOCKED: ENDBRANCH   1   2
DOCKED: BRANCH   1  17
DOCKED: ATOM     17  C   UNL     1     139.296  76.481 221.553 -0.18 -0.06    +0.242 C  
DOCKED: ATOM     18  O   UNL     1     138.980  76.538 222.786 -0.24 +0.05    -0.273 OA 
DOCKED: BRANCH  17  19
DOCKED: ATOM     19  N   UNL     1     139.413  77.648 220.746 -0.02 +0.09    -0.338 N  
DOCKED: ATOM     20  C   UNL     1     139.550  77.511 219.302 -0.04 -0.04    +0.120 C  
DOCKED: ATOM     21  C   UNL     1     139.398  78.941 221.342 -0.15 -0.02    +0.088 C  
DOCKED: ATOM     22  C   UNL     1     138.812  78.537 218.518 -0.02 -0.01    +0.022 C  
DOCKED: ATOM     23  C   UNL     1     138.615  79.968 220.567 -0.08 -0.01    +0.025 C  
DOCKED: ATOM     24  C   UNL     1     137.922  79.393 219.362 -0.03 -0.00    +0.004 C  
DOCKED: BRANCH  21  25
DOCKED: ATOM     25  C   UNL     1     140.740  79.525 221.670 -0.32 -0.00    +0.012 C  
DOCKED: ATOM     26  C   UNL     1     141.676  78.661 222.418 -0.47 -0.00    +0.006 C  
DOCKED: ATOM     27  C   UNL     1     140.646  80.870 222.387 -0.39 -0.00    +0.006 C  
DOCKED: ATOM     28  C   UNL     1     141.835  79.110 223.863 -0.63 -0.00    +0.000 C  
DOCKED: ATOM     29  C   UNL     1     142.099  81.245 222.705 -0.52 -0.00    +0.000 C  
DOCKED: ATOM     30  C   UNL     1     142.614  80.405 223.844 -0.68 -0.00    +0.000 C  
DOCKED: ENDBRANCH  21  25
DOCKED: ENDBRANCH  17  19
DOCKED: ENDBRANCH   1  17
DOCKED: TORSDOF 5
DOCKED: TER
DOCKED: ENDMDL
________________________________________________________________________________


    FINAL DOCKED STATE:
    ________________________


Run:   3 / 20
Time taken for this run:   0.047s

DOCKED: MODEL        3
DOCKED: USER    Run = 3
DOCKED: USER
DOCKED: USER    Estimated Free Energy of Binding    =  -9.51 kcal/mol  [=(1)+(2)+(3)-(4)]
DOCKED: USER
DOCKED: USER    (1) Final Intermolecular Energy     = -11.00 kcal/mol
DOCKED: USER        vdW + Hbond + desolv Energy     = -10.97 kcal/mol
DOCKED: USER        Electrostatic Energy            =  -0.04 kcal/mol
DOCKED: USER        Moving Ligand-Fixed Receptor    = -11.00 kcal/mol
DOCKED: USER        Moving Ligand-Moving Receptor   =  +0.00 kcal/mol
DOCKED: USER    (2) Final Total Internal Energy     =  -1.72 kcal/mol
DOCKED: USER    (3) Torsional Free Energy           =  +1.49 kcal/mol
DOCKED: USER    (4) Unbound System's Energy         =  -1.72 kcal/mol
DOCKED: USER
DOCKED: USER
DOCKED: REMARK SMILES O=C(NCC(=O)N1CCCC[C@@H]1C1CCCCC1)c1ccc2cc(Cl)ccc2n1
DOCKED: REMARK SMILES IDX 4 1 3 2 2 3 1 4 19 6 20 7 29 8 21 9 28 10 22 11 27 12 23 13
DOCKED: REMARK SMILES IDX 26 14 24 15 25 16 5 17 6 18 7 19 8 20 12 21 9 22 11 23 10 24
DOCKED: REMARK SMILES IDX 13 25 14 26 18 27 15 28 17 29 16 30
DOCKED: REMARK H PARENT 3 5
DOCKED: USER                              x       y       z     vdW  Elec       q    Type
DOCKED: USER                           _______ _______ _______ _____ _____    ______ ____
DOCKED: ROOT
DOCKED: ATOM      1  C   UNL     1     139.550  74.871 221.034 -0.16 -0.05    +0.216 C  
DOCKED: ENDROOT
DOCKED: BRANCH   1   2
DOCKED: ATOM      2  N   UNL     1     139.619  73.913 222.133 -0.13 +0.05    -0.342 N  
DOCKED: ATOM      3  C   UNL     1     139.910  72.560 221.893 -0.19 -0.04    +0.270 C  
DOCKED: ATOM      4  O   UNL     1     140.130  72.083 220.730 -0.07 +0.04    -0.268 OA 
DOCKED: ATOM      5  H   UNL     1     139.454  74.200 223.135 -0.52 -0.03    +0.164 HD 
DOCKED: BRANCH   3   6
DOCKED: ATOM      6  C   UNL     1     139.971  71.618 223.025 -0.29 -0.02    +0.128 A  
DOCKED: ATOM      7  C   UNL     1     139.528  70.322 222.914 -0.23 -0.01    +0.035 A  
DOCKED: ATOM      8  N   UNL     1     140.474  72.009 224.224 -0.21 +0.03    -0.243 NA 
DOCKED: ATOM      9  C   UNL     1     139.572  69.416 223.953 -0.26 -0.00    +0.013 A  
DOCKED: ATOM     10  C   UNL     1     140.533  71.143 225.271 -0.51 -0.01    +0.071 A  
DOCKED: ATOM     11  C   UNL     1     140.091  69.851 225.161 -0.43 -0.00    +0.002 A  
DOCKED: ATOM     12  C   UNL     1     141.048  71.546 226.497 -0.69 -0.00    +0.030 A  
DOCKED: ATOM     13  C   UNL     1     140.130  68.936 226.194 -0.52 -0.01    +0.030 A  
DOCKED: ATOM     14  C   UNL     1     141.099  70.651 227.551 -0.61 -0.00    +0.023 A  
DOCKED: ATOM     15  C   UNL     1     140.646  69.344 227.417 -0.58 -0.01    +0.041 A  
DOCKED: ATOM     16  Cl  UNL     1     140.704  68.198 228.742 -0.62 +0.02    -0.084 Cl 
DOCKED: ENDBRANCH   3   6
DOCKED: ENDBRANCH   1   2
DOCKED: BRANCH   1  17
DOCKED: ATOM     17  C   UNL     1     139.833  76.232 221.552 -0.22 -0.06    +0.242 C  
DOCKED: ATOM     18  O   UNL     1     139.093  76.629 222.509 -0.25 +0.05    -0.273 OA 
DOCKED: BRANCH  17  19
DOCKED: ATOM     19  N   UNL     1     140.870  77.040 221.009 -0.11 +0.14    -0.338 N  
DOCKED: ATOM     20  C   UNL     1     141.950  76.413 220.257 -0.22 -0.06    +0.120 C  
DOCKED: ATOM     21  C   UNL     1     140.857  78.452 221.196 -0.26 -0.04    +0.088 C  
DOCKED: ATOM     22  C   UNL     1     142.404  77.192 219.074 -0.31 -0.01    +0.022 C  
DOCKED: ATOM     23  C   UNL     1     141.277  79.239 219.983 -0.25 -0.01    +0.025 C  
DOCKED: ATOM     24  C   UNL     1     141.534  78.373 218.779 -0.22 -0.00    +0.004 C  
DOCKED: BRANCH  21  25
DOCKED: ATOM     25  C   UNL     1     141.631  78.962 222.376 -0.50 -0.01    +0.012 C  
DOCKED: ATOM     26  C   UNL     1     140.846  79.356 223.564 -0.54 -0.00    +0.006 C  
DOCKED: ATOM     27  C   UNL     1     142.577  80.105 222.019 -0.46 -0.00    +0.006 C  
DOCKED: ATOM     28  C   UNL     1     140.805  80.866 223.744 -0.43 -0.00    +0.000 C  
DOCKED: ATOM     29  C   UNL     1     143.195  80.532 223.357 -0.63 -0.00    +0.000 C  
DOCKED: ATOM     30  C   UNL     1     142.187  81.302 224.170 -0.56 -0.00    +0.000 C  
DOCKED: ENDBRANCH  21  25
DOCKED: ENDBRANCH  17  19
DOCKED: ENDBRANCH   1  17
DOCKED: TORSDOF 5
DOCKED: TER
DOCKED: ENDMDL
________________________________________________________________________________


    FINAL DOCKED STATE:
    ________________________


Run:   4 / 20
Time taken for this run:   0.047s

DOCKED: MODEL        4
DOCKED: USER    Run = 4
DOCKED: USER
DOCKED: USER    Estimated Free Energy of Binding    =  -9.48 kcal/mol  [=(1)+(2)+(3)-(4)]
DOCKED: USER
DOCKED: USER    (1) Final Intermolecular Energy     = -10.97 kcal/mol
DOCKED: USER        vdW + Hbond + desolv Energy     = -10.90 kcal/mol
DOCKED: USER        Electrostatic Energy            =  -0.07 kcal/mol
DOCKED: USER        Moving Ligand-Fixed Receptor    = -10.97 kcal/mol
DOCKED: USER        Moving Ligand-Moving Receptor   =  +0.00 kcal/mol
DOCKED: USER    (2) Final Total Internal Energy     =  -1.61 kcal/mol
DOCKED: USER    (3) Torsional Free Energy           =  +1.49 kcal/mol
DOCKED: USER    (4) Unbound System's Energy         =  -1.61 kcal/mol
DOCKED: USER
DOCKED: USER
DOCKED: REMARK SMILES O=C(NCC(=O)N1CCCC[C@@H]1C1CCCCC1)c1ccc2cc(Cl)ccc2n1
DOCKED: REMARK SMILES IDX 4 1 3 2 2 3 1 4 19 6 20 7 29 8 21 9 28 10 22 11 27 12 23 13
DOCKED: REMARK SMILES IDX 26 14 24 15 25 16 5 17 6 18 7 19 8 20 12 21 9 22 11 23 10 24
DOCKED: REMARK SMILES IDX 13 25 14 26 18 27 15 28 17 29 16 30
DOCKED: REMARK H PARENT 3 5
DOCKED: USER                              x       y       z     vdW  Elec       q    Type
DOCKED: USER                           _______ _______ _______ _____ _____    ______ ____
DOCKED: ROOT
DOCKED: ATOM      1  C   UNL     1     139.294  74.810 220.992 -0.14 -0.05    +0.216 C  
DOCKED: ENDROOT
DOCKED: BRANCH   1   2
DOCKED: ATOM      2  N   UNL     1     139.365  73.849 222.090 -0.13 +0.07    -0.342 N  
DOCKED: ATOM      3  C   UNL     1     139.925  72.575 221.897 -0.19 -0.04    +0.270 C  
DOCKED: ATOM      4  O   UNL     1     140.399  72.175 220.782 -0.09 +0.04    -0.268 OA 
DOCKED: ATOM      5  H   UNL     1     139.001  74.076 223.054 -0.55 -0.08    +0.164 HD 
DOCKED: BRANCH   3   6
DOCKED: ATOM      6  C   UNL     1     139.980  71.628 223.026 -0.29 -0.02    +0.128 A  
DOCKED: ATOM      7  C   UNL     1     139.535  70.334 222.908 -0.23 -0.01    +0.035 A  
DOCKED: ATOM      8  N   UNL     1     140.480  72.013 224.228 -0.20 +0.03    -0.243 NA 
DOCKED: ATOM      9  C   UNL     1     139.573  69.423 223.943 -0.26 -0.00    +0.013 A  
DOCKED: ATOM     10  C   UNL     1     140.533  71.143 225.271 -0.51 -0.01    +0.071 A  
DOCKED: ATOM     11  C   UNL     1     140.089  69.852 225.155 -0.43 -0.00    +0.002 A  
DOCKED: ATOM     12  C   UNL     1     141.045  71.539 226.500 -0.69 -0.00    +0.030 A  
DOCKED: ATOM     13  C   UNL     1     140.123  68.933 226.183 -0.51 -0.01    +0.030 A  
DOCKED: ATOM     14  C   UNL     1     141.091  70.640 227.551 -0.61 -0.00    +0.023 A  
DOCKED: ATOM     15  C   UNL     1     140.636  69.335 227.410 -0.58 -0.01    +0.041 A  
DOCKED: ATOM     16  Cl  UNL     1     140.687  68.182 228.730 -0.62 +0.02    -0.084 Cl 
DOCKED: ENDBRANCH   3   6
DOCKED: ENDBRANCH   1   2
DOCKED: BRANCH   1  17
DOCKED: ATOM     17  C   UNL     1     139.890  76.095 221.428 -0.21 -0.06    +0.242 C  
DOCKED: ATOM     18  O   UNL     1     139.273  76.711 222.357 -0.25 +0.06    -0.273 OA 
DOCKED: BRANCH  17  19
DOCKED: ATOM     19  N   UNL     1     141.082  76.606 220.841 -0.12 +0.14    -0.338 N  
DOCKED: ATOM     20  C   UNL     1     142.152  75.688 220.475 -0.21 -0.06    +0.120 C  
DOCKED: ATOM     21  C   UNL     1     141.230  78.004 220.612 -0.25 -0.04    +0.088 C  
DOCKED: ATOM     22  C   UNL     1     142.843  76.029 219.203 -0.33 -0.01    +0.022 C  
DOCKED: ATOM     23  C   UNL     1     141.891  78.346 219.303 -0.27 -0.02    +0.025 C  
DOCKED: ATOM     24  C   UNL     1     142.176  77.138 218.452 -0.26 -0.00    +0.004 C  
DOCKED: BRANCH  21  25
DOCKED: ATOM     25  C   UNL     1     141.917  78.775 221.700 -0.38 -0.01    +0.012 C  
DOCKED: ATOM     26  C   UNL     1     141.441  78.545 223.079 -0.56 -0.00    +0.006 C  
DOCKED: ATOM     27  C   UNL     1     141.940  80.280 221.440 -0.42 -0.00    +0.006 C  
DOCKED: ATOM     28  C   UNL     1     140.649  79.729 223.613 -0.51 -0.00    +0.000 C  
DOCKED: ATOM     29  C   UNL     1     142.596  80.881 222.689 -0.54 -0.00    +0.000 C  
DOCKED: ATOM     30  C   UNL     1     141.631  80.854 223.845 -0.57 -0.00    +0.000 C  
DOCKED: ENDBRANCH  21  25
DOCKED: ENDBRANCH  17  19
DOCKED: ENDBRANCH   1  17
DOCKED: TORSDOF 5
DOCKED: TER
DOCKED: ENDMDL
________________________________________________________________________________


    FINAL DOCKED STATE:
    ________________________


Run:   5 / 20
Time taken for this run:   0.047s

DOCKED: MODEL        5
DOCKED: USER    Run = 5
DOCKED: USER
DOCKED: USER    Estimated Free Energy of Binding    =  -9.48 kcal/mol  [=(1)+(2)+(3)-(4)]
DOCKED: USER
DOCKED: USER    (1) Final Intermolecular Energy     = -10.97 kcal/mol
DOCKED: USER        vdW + Hbond + desolv Energy     = -10.94 kcal/mol
DOCKED: USER        Electrostatic Energy            =  -0.03 kcal/mol
DOCKED: USER        Moving Ligand-Fixed Receptor    = -10.97 kcal/mol
DOCKED: USER        Moving Ligand-Moving Receptor   =  +0.00 kcal/mol
DOCKED: USER    (2) Final Total Internal Energy     =  -1.75 kcal/mol
DOCKED: USER    (3) Torsional Free Energy           =  +1.49 kcal/mol
DOCKED: USER    (4) Unbound System's Energy         =  -1.75 kcal/mol
DOCKED: USER
DOCKED: USER
DOCKED: REMARK SMILES O=C(NCC(=O)N1CCCC[C@@H]1C1CCCCC1)c1ccc2cc(Cl)ccc2n1
DOCKED: REMARK SMILES IDX 4 1 3 2 2 3 1 4 19 6 20 7 29 8 21 9 28 10 22 11 27 12 23 13
DOCKED: REMARK SMILES IDX 26 14 24 15 25 16 5 17 6 18 7 19 8 20 12 21 9 22 11 23 10 24
DOCKED: REMARK SMILES IDX 13 25 14 26 18 27 15 28 17 29 16 30
DOCKED: REMARK H PARENT 3 5
DOCKED: USER                              x       y       z     vdW  Elec       q    Type
DOCKED: USER                           _______ _______ _______ _____ _____    ______ ____
DOCKED: ROOT
DOCKED: ATOM      1  C   UNL     1     139.633  74.854 221.026 -0.16 -0.05    +0.216 C  
DOCKED: ENDROOT
DOCKED: BRANCH   1   2
DOCKED: ATOM      2  N   UNL     1     139.686  73.898 222.128 -0.13 +0.05    -0.342 N  
DOCKED: ATOM      3  C   UNL     1     139.946  72.538 221.890 -0.19 -0.04    +0.270 C  
DOCKED: ATOM      4  O   UNL     1     140.149  72.053 220.727 -0.07 +0.04    -0.268 OA 
DOCKED: ATOM      5  H   UNL     1     139.533  74.191 223.130 -0.52 -0.02    +0.164 HD 
DOCKED: BRANCH   3   6
DOCKED: ATOM      6  C   UNL     1     139.992  71.598 223.025 -0.29 -0.02    +0.128 A  
DOCKED: ATOM      7  C   UNL     1     139.534  70.307 222.915 -0.23 -0.01    +0.035 A  
DOCKED: ATOM      8  N   UNL     1     140.496  71.985 224.224 -0.22 +0.03    -0.243 NA 
DOCKED: ATOM      9  C   UNL     1     139.562  69.403 223.956 -0.26 -0.00    +0.013 A  
DOCKED: ATOM     10  C   UNL     1     140.540  71.121 225.273 -0.51 -0.01    +0.071 A  
DOCKED: ATOM     11  C   UNL     1     140.083  69.834 225.165 -0.43 -0.00    +0.002 A  
DOCKED: ATOM     12  C   UNL     1     141.056  71.520 226.500 -0.69 -0.00    +0.030 A  
DOCKED: ATOM     13  C   UNL     1     140.107  68.921 226.199 -0.52 -0.01    +0.030 A  
DOCKED: ATOM     14  C   UNL     1     141.093  70.627 227.556 -0.61 -0.00    +0.023 A  
DOCKED: ATOM     15  C   UNL     1     140.624  69.326 227.424 -0.58 -0.01    +0.041 A  
DOCKED: ATOM     16  Cl  UNL     1     140.664  68.181 228.751 -0.59 +0.02    -0.084 Cl 
DOCKED: ENDBRANCH   3   6
DOCKED: ENDBRANCH   1   2
DOCKED: BRANCH   1  17
DOCKED: ATOM     17  C   UNL     1     139.875  76.220 221.552 -0.22 -0.06    +0.242 C  
DOCKED: ATOM     18  O   UNL     1     139.140  76.582 222.527 -0.26 +0.05    -0.273 OA 
DOCKED: BRANCH  17  19
DOCKED: ATOM     19  N   UNL     1     140.872  77.071 220.997 -0.11 +0.14    -0.338 N  
DOCKED: ATOM     20  C   UNL     1     141.939  76.494 220.188 -0.23 -0.06    +0.120 C  
DOCKED: ATOM     21  C   UNL     1     140.831  78.475 221.229 -0.26 -0.03    +0.088 C  
DOCKED: ATOM     22  C   UNL     1     142.330  77.320 219.014 -0.30 -0.01    +0.022 C  
DOCKED: ATOM     23  C   UNL     1     141.187  79.309 220.026 -0.25 -0.01    +0.025 C  
DOCKED: ATOM     24  C   UNL     1     141.421  78.486 218.788 -0.21 -0.00    +0.004 C  
DOCKED: BRANCH  21  25
DOCKED: ATOM     25  C   UNL     1     141.635  78.969 222.395 -0.50 -0.01    +0.012 C  
DOCKED: ATOM     26  C   UNL     1     140.880  79.358 223.604 -0.54 -0.00    +0.006 C  
DOCKED: ATOM     27  C   UNL     1     142.581  80.109 222.027 -0.46 -0.00    +0.006 C  
DOCKED: ATOM     28  C   UNL     1     140.855  80.867 223.798 -0.42 -0.00    +0.000 C  
DOCKED: ATOM     29  C   UNL     1     143.232  80.519 223.354 -0.63 -0.00    +0.000 C  
DOCKED: ATOM     30  C   UNL     1     142.249  81.289 224.197 -0.56 -0.00    +0.000 C  
DOCKED: ENDBRANCH  21  25
DOCKED: ENDBRANCH  17  19
DOCKED: ENDBRANCH   1  17
DOCKED: TORSDOF 5
DOCKED: TER
DOCKED: ENDMDL
________________________________________________________________________________


    FINAL DOCKED STATE:
    ________________________


Run:   6 / 20
Time taken for this run:   0.047s

DOCKED: MODEL        6
DOCKED: USER    Run = 6
DOCKED: USER
DOCKED: USER    Estimated Free Energy of Binding    =  -8.53 kcal/mol  [=(1)+(2)+(3)-(4)]
DOCKED: USER
DOCKED: USER    (1) Final Intermolecular Energy     = -10.02 kcal/mol
DOCKED: USER        vdW + Hbond + desolv Energy     = -10.07 kcal/mol
DOCKED: USER        Electrostatic Energy            =  +0.04 kcal/mol
DOCKED: USER        Moving Ligand-Fixed Receptor    = -10.02 kcal/mol
DOCKED: USER        Moving Ligand-Moving Receptor   =  +0.00 kcal/mol
DOCKED: USER    (2) Final Total Internal Energy     =  -1.95 kcal/mol
DOCKED: USER    (3) Torsional Free Energy           =  +1.49 kcal/mol
DOCKED: USER    (4) Unbound System's Energy         =  -1.95 kcal/mol
DOCKED: USER
DOCKED: USER
DOCKED: REMARK SMILES O=C(NCC(=O)N1CCCC[C@@H]1C1CCCCC1)c1ccc2cc(Cl)ccc2n1
DOCKED: REMARK SMILES IDX 4 1 3 2 2 3 1 4 19 6 20 7 29 8 21 9 28 10 22 11 27 12 23 13
DOCKED: REMARK SMILES IDX 26 14 24 15 25 16 5 17 6 18 7 19 8 20 12 21 9 22 11 23 10 24
DOCKED: REMARK SMILES IDX 13 25 14 26 18 27 15 28 17 29 16 30
DOCKED: REMARK H PARENT 3 5
DOCKED: USER                              x       y       z     vdW  Elec       q    Type
DOCKED: USER                           _______ _______ _______ _____ _____    ______ ____
DOCKED: ROOT
DOCKED: ATOM      1  C   UNL     1     140.634  74.693 220.614 -0.16 -0.05    +0.216 C  
DOCKED: ENDROOT
DOCKED: BRANCH   1   2
DOCKED: ATOM      2  N   UNL     1     140.711  73.716 221.695 -0.16 +0.03    -0.342 N  
DOCKED: ATOM      3  C   UNL     1     139.626  72.871 221.981 -0.18 -0.05    +0.270 C  
DOCKED: ATOM      4  O   UNL     1     138.525  72.894 221.335 -0.08 +0.06    -0.268 OA 
DOCKED: ATOM      5  H   UNL     1     141.574  73.611 222.294 +0.07 +0.02    +0.164 HD 
DOCKED: BRANCH   3   6
DOCKED: ATOM      6  C   UNL     1     139.735  71.895 223.081 -0.28 -0.03    +0.128 A  
DOCKED: ATOM      7  C   UNL     1     139.272  70.607 222.956 -0.24 -0.01    +0.035 A  
DOCKED: ATOM      8  N   UNL     1     140.304  72.245 224.263 -0.09 +0.04    -0.243 NA 
DOCKED: ATOM      9  C   UNL     1     139.359  69.670 223.964 -0.30 -0.00    +0.013 A  
DOCKED: ATOM     10  C   UNL     1     140.407  71.348 225.279 -0.49 -0.01    +0.071 A  
DOCKED: ATOM     11  C   UNL     1     139.946  70.064 225.155 -0.44 -0.00    +0.002 A  
DOCKED: ATOM     12  C   UNL     1     140.990  71.708 226.487 -0.68 -0.00    +0.030 A  
DOCKED: ATOM     13  C   UNL     1     140.028  69.119 226.157 -0.50 -0.01    +0.030 A  
DOCKED: ATOM     14  C   UNL     1     141.087  70.783 227.511 -0.64 -0.00    +0.023 A  
DOCKED: ATOM     15  C   UNL     1     140.612  69.485 227.363 -0.57 -0.01    +0.041 A  
DOCKED: ATOM     16  Cl  UNL     1     140.726  68.299 228.649 -0.69 +0.02    -0.084 Cl 
DOCKED: ENDBRANCH   3   6
DOCKED: ENDBRANCH   1   2
DOCKED: BRANCH   1  17
DOCKED: ATOM     17  C   UNL     1     141.934  75.397 220.498 -0.19 -0.10    +0.242 C  
DOCKED: ATOM     18  O   UNL     1     142.964  74.729 220.839 -0.24 +0.11    -0.273 OA 
DOCKED: BRANCH  17  19
DOCKED: ATOM     19  N   UNL     1     142.021  76.740 220.033 -0.13 +0.19    -0.338 N  
DOCKED: ATOM     20  C   UNL     1     142.951  77.070 218.962 -0.29 -0.08    +0.120 C  
DOCKED: ATOM     21  C   UNL     1     141.206  77.756 220.609 -0.25 -0.04    +0.088 C  
DOCKED: ATOM     22  C   UNL     1     142.432  78.064 217.985 -0.29 -0.02    +0.022 C  
DOCKED: ATOM     23  C   UNL     1     140.647  78.736 219.613 -0.16 -0.01    +0.025 C  
DOCKED: ATOM     24  C   UNL     1     140.985  78.386 218.189 -0.13 -0.00    +0.004 C  
DOCKED: BRANCH  21  25
DOCKED: ATOM     25  C   UNL     1     141.826  78.532 221.733 -0.37 -0.01    +0.012 C  
DOCKED: ATOM     26  C   UNL     1     141.252  78.327 223.079 -0.53 -0.00    +0.006 C  
DOCKED: ATOM     27  C   UNL     1     141.889  80.033 221.458 -0.43 -0.00    +0.006 C  
DOCKED: ATOM     28  C   UNL     1     140.441  79.528 223.542 -0.50 -0.00    +0.000 C  
DOCKED: ATOM     29  C   UNL     1     142.464  80.641 222.743 -0.61 -0.00    +0.000 C  
DOCKED: ATOM     30  C   UNL     1     141.420  80.642 223.828 -0.53 -0.00    +0.000 C  
DOCKED: ENDBRANCH  21  25
DOCKED: ENDBRANCH  17  19
DOCKED: ENDBRANCH   1  17
DOCKED: TORSDOF 5
DOCKED: TER
DOCKED: ENDMDL
________________________________________________________________________________


    FINAL DOCKED STATE:
    ________________________


Run:   7 / 20
Time taken for this run:   0.047s

DOCKED: MODEL        7
DOCKED: USER    Run = 7
DOCKED: USER
DOCKED: USER    Estimated Free Energy of Binding    =  -9.56 kcal/mol  [=(1)+(2)+(3)-(4)]
DOCKED: USER
DOCKED: USER    (1) Final Intermolecular Energy     = -11.06 kcal/mol
DOCKED: USER        vdW + Hbond + desolv Energy     = -10.97 kcal/mol
DOCKED: USER        Electrostatic Energy            =  -0.09 kcal/mol
DOCKED: USER        Moving Ligand-Fixed Receptor    = -11.06 kcal/mol
DOCKED: USER        Moving Ligand-Moving Receptor   =  +0.00 kcal/mol
DOCKED: USER    (2) Final Total Internal Energy     =  -1.59 kcal/mol
DOCKED: USER    (3) Torsional Free Energy           =  +1.49 kcal/mol
DOCKED: USER    (4) Unbound System's Energy         =  -1.59 kcal/mol
DOCKED: USER
DOCKED: USER
DOCKED: REMARK SMILES O=C(NCC(=O)N1CCCC[C@@H]1C1CCCCC1)c1ccc2cc(Cl)ccc2n1
DOCKED: REMARK SMILES IDX 4 1 3 2 2 3 1 4 19 6 20 7 29 8 21 9 28 10 22 11 27 12 23 13
DOCKED: REMARK SMILES IDX 26 14 24 15 25 16 5 17 6 18 7 19 8 20 12 21 9 22 11 23 10 24
DOCKED: REMARK SMILES IDX 13 25 14 26 18 27 15 28 17 29 16 30
DOCKED: REMARK H PARENT 3 5
DOCKED: USER                              x       y       z     vdW  Elec       q    Type
DOCKED: USER                           _______ _______ _______ _____ _____    ______ ____
DOCKED: ROOT
DOCKED: ATOM      1  C   UNL     1     139.145  74.984 221.021 -0.14 -0.05    +0.216 C  
DOCKED: ENDROOT
DOCKED: BRANCH   1   2
DOCKED: ATOM      2  N   UNL     1     139.231  74.017 222.111 -0.11 +0.08    -0.342 N  
DOCKED: ATOM      3  C   UNL     1     139.891  72.789 221.935 -0.19 -0.04    +0.270 C  
DOCKED: ATOM      4  O   UNL     1     140.448  72.439 220.842 -0.10 +0.04    -0.268 OA 
DOCKED: ATOM      5  H   UNL     1     138.805  74.204 223.058 -0.56 -0.10    +0.164 HD 
DOCKED: BRANCH   3   6
DOCKED: ATOM      6  C   UNL     1     139.958  71.834 223.057 -0.30 -0.02    +0.128 A  
DOCKED: ATOM      7  C   UNL     1     139.543  70.531 222.924 -0.24 -0.01    +0.035 A  
DOCKED: ATOM      8  N   UNL     1     140.439  72.219 224.266 -0.10 +0.04    -0.243 NA 
DOCKED: ATOM      9  C   UNL     1     139.593  69.612 223.951 -0.28 -0.00    +0.013 A  
DOCKED: ATOM     10  C   UNL     1     140.503  71.341 225.302 -0.50 -0.01    +0.071 A  
DOCKED: ATOM     11  C   UNL     1     140.089  70.041 225.171 -0.44 -0.00    +0.002 A  
DOCKED: ATOM     12  C   UNL     1     140.996  71.738 226.539 -0.69 -0.00    +0.030 A  
DOCKED: ATOM     13  C   UNL     1     140.135  69.115 226.192 -0.50 -0.01    +0.030 A  
DOCKED: ATOM     14  C   UNL     1     141.054  70.831 227.582 -0.66 -0.00    +0.023 A  
DOCKED: ATOM     15  C   UNL     1     140.629  69.517 227.426 -0.57 -0.01    +0.041 A  
DOCKED: ATOM     16  Cl  UNL     1     140.695  68.355 228.737 -0.66 +0.02    -0.084 Cl 
DOCKED: ENDBRANCH   3   6
DOCKED: ENDBRANCH   1   2
DOCKED: BRANCH   1  17
DOCKED: ATOM     17  C   UNL     1     139.601  76.309 221.506 -0.20 -0.06    +0.242 C  
DOCKED: ATOM     18  O   UNL     1     138.845  76.884 222.354 -0.22 +0.05    -0.273 OA 
DOCKED: BRANCH  17  19
DOCKED: ATOM     19  N   UNL     1     140.813  76.899 221.048 -0.11 +0.13    -0.338 N  
DOCKED: ATOM     20  C   UNL     1     141.888  76.044 220.561 -0.18 -0.06    +0.120 C  
DOCKED: ATOM     21  C   UNL     1     140.977  78.313 221.064 -0.26 -0.04    +0.088 C  
DOCKED: ATOM     22  C   UNL     1     142.618  76.588 219.385 -0.34 -0.01    +0.022 C  
DOCKED: ATOM     23  C   UNL     1     141.679  78.866 219.851 -0.27 -0.01    +0.025 C  
DOCKED: ATOM     24  C   UNL     1     141.980  77.816 218.816 -0.27 -0.00    +0.004 C  
DOCKED: BRANCH  21  25
DOCKED: ATOM     25  C   UNL     1     141.636  78.881 222.286 -0.48 -0.01    +0.012 C  
DOCKED: ATOM     26  C   UNL     1     140.746  79.285 223.393 -0.52 -0.00    +0.006 C  
DOCKED: ATOM     27  C   UNL     1     142.575  80.043 221.971 -0.43 -0.00    +0.006 C  
DOCKED: ATOM     28  C   UNL     1     140.647  80.798 223.521 -0.47 -0.00    +0.000 C  
DOCKED: ATOM     29  C   UNL     1     143.069  80.527 223.340 -0.66 -0.00    +0.000 C  
DOCKED: ATOM     30  C   UNL     1     141.977  81.288 224.044 -0.53 -0.00    +0.000 C  
DOCKED: ENDBRANCH  21  25
DOCKED: ENDBRANCH  17  19
DOCKED: ENDBRANCH   1  17
DOCKED: TORSDOF 5
DOCKED: TER
DOCKED: ENDMDL
________________________________________________________________________________


    FINAL DOCKED STATE:
    ________________________


Run:   8 / 20
Time taken for this run:   0.047s

DOCKED: MODEL        8
DOCKED: USER    Run = 8
DOCKED: USER
DOCKED: USER    Estimated Free Energy of Binding    =  -9.19 kcal/mol  [=(1)+(2)+(3)-(4)]
DOCKED: USER
DOCKED: USER    (1) Final Intermolecular Energy     = -10.68 kcal/mol
DOCKED: USER        vdW + Hbond + desolv Energy     = -10.66 kcal/mol
DOCKED: USER        Electrostatic Energy            =  -0.02 kcal/mol
DOCKED: USER        Moving Ligand-Fixed Receptor    = -10.68 kcal/mol
DOCKED: USER        Moving Ligand-Moving Receptor   =  +0.00 kcal/mol
DOCKED: USER    (2) Final Total Internal Energy     =  -1.85 kcal/mol
DOCKED: USER    (3) Torsional Free Energy           =  +1.49 kcal/mol
DOCKED: USER    (4) Unbound System's Energy         =  -1.85 kcal/mol
DOCKED: USER
DOCKED: USER
DOCKED: REMARK SMILES O=C(NCC(=O)N1CCCC[C@@H]1C1CCCCC1)c1ccc2cc(Cl)ccc2n1
DOCKED: REMARK SMILES IDX 4 1 3 2 2 3 1 4 19 6 20 7 29 8 21 9 28 10 22 11 27 12 23 13
DOCKED: REMARK SMILES IDX 26 14 24 15 25 16 5 17 6 18 7 19 8 20 12 21 9 22 11 23 10 24
DOCKED: REMARK SMILES IDX 13 25 14 26 18 27 15 28 17 29 16 30
DOCKED: REMARK H PARENT 3 5
DOCKED: USER                              x       y       z     vdW  Elec       q    Type
DOCKED: USER                           _______ _______ _______ _____ _____    ______ ____
DOCKED: ROOT
DOCKED: ATOM      1  C   UNL     1     139.711  75.215 221.049 -0.17 -0.05    +0.216 C  
DOCKED: ENDROOT
DOCKED: BRANCH   1   2
DOCKED: ATOM      2  N   UNL     1     139.744  74.228 222.124 -0.11 +0.04    -0.342 N  
DOCKED: ATOM      3  C   UNL     1     140.002  72.874 221.853 -0.19 -0.04    +0.270 C  
DOCKED: ATOM      4  O   UNL     1     140.221  72.420 220.681 -0.08 +0.04    -0.268 OA 
DOCKED: ATOM      5  H   UNL     1     139.576  74.494 223.132 -0.52 -0.00    +0.164 HD 
DOCKED: BRANCH   3   6
DOCKED: ATOM      6  C   UNL     1     140.027  71.903 222.962 -0.29 -0.02    +0.128 A  
DOCKED: ATOM      7  C   UNL     1     139.558  70.620 222.812 -0.24 -0.01    +0.035 A  
DOCKED: ATOM      8  N   UNL     1     140.521  72.253 224.177 -0.09 +0.03    -0.243 NA 
DOCKED: ATOM      9  C   UNL     1     139.568  69.688 223.828 -0.27 -0.00    +0.013 A  
DOCKED: ATOM     10  C   UNL     1     140.547  71.360 225.202 -0.49 -0.01    +0.071 A  
DOCKED: ATOM     11  C   UNL     1     140.079  70.081 225.054 -0.43 -0.00    +0.002 A  
DOCKED: ATOM     12  C   UNL     1     141.053  71.720 226.445 -0.69 -0.00    +0.030 A  
DOCKED: ATOM     13  C   UNL     1     140.084  69.140 226.063 -0.49 -0.01    +0.030 A  
DOCKED: ATOM     14  C   UNL     1     141.071  70.799 227.477 -0.65 -0.00    +0.023 A  
DOCKED: ATOM     15  C   UNL     1     140.591  69.506 227.303 -0.56 -0.01    +0.041 A  
DOCKED: ATOM     16  Cl  UNL     1     140.606  68.325 228.599 -0.67 +0.02    -0.084 Cl 
DOCKED: ENDBRANCH   3   6
DOCKED: ENDBRANCH   1   2
DOCKED: BRANCH   1  17
DOCKED: ATOM     17  C   UNL     1     140.399  76.449 221.497 -0.23 -0.07    +0.242 C  
DOCKED: ATOM     18  O   UNL     1     140.141  76.834 222.683 -0.29 +0.06    -0.273 OA 
DOCKED: BRANCH  17  19
DOCKED: ATOM     19  N   UNL     1     141.294  77.159 220.647 -0.11 +0.16    -0.338 N  
DOCKED: ATOM     20  C   UNL     1     142.446  76.469 220.082 -0.24 -0.07    +0.120 C  
DOCKED: ATOM     21  C   UNL     1     141.068  78.533 220.350 -0.22 -0.04    +0.088 C  
DOCKED: ATOM     22  C   UNL     1     142.760  76.852 218.679 -0.32 -0.01    +0.022 C  
DOCKED: ATOM     23  C   UNL     1     141.347  78.908 218.919 -0.21 -0.01    +0.025 C  
DOCKED: ATOM     24  C   UNL     1     141.717  77.728 218.062 -0.20 -0.00    +0.004 C  
DOCKED: BRANCH  21  25
DOCKED: ATOM     25  C   UNL     1     141.771  79.518 221.238 -0.38 -0.01    +0.012 C  
DOCKED: ATOM     26  C   UNL     1     142.219  79.023 222.556 -0.51 -0.00    +0.006 C  
DOCKED: ATOM     27  C   UNL     1     140.976  80.804 221.449 -0.35 -0.00    +0.006 C  
DOCKED: ATOM     28  C   UNL     1     141.368  79.573 223.690 -0.59 -0.00    +0.000 C  
DOCKED: ATOM     29  C   UNL     1     141.815  81.623 222.438 -0.47 -0.00    +0.000 C  
DOCKED: ATOM     30  C   UNL     1     141.698  81.041 223.822 -0.58 -0.00    +0.000 C  
DOCKED: ENDBRANCH  21  25
DOCKED: ENDBRANCH  17  19
DOCKED: ENDBRANCH   1  17
DOCKED: TORSDOF 5
DOCKED: TER
DOCKED: ENDMDL
________________________________________________________________________________


    FINAL DOCKED STATE:
    ________________________


Run:   9 / 20
Time taken for this run:   0.047s

DOCKED: MODEL        9
DOCKED: USER    Run = 9
DOCKED: USER
DOCKED: USER    Estimated Free Energy of Binding    =  -9.50 kcal/mol  [=(1)+(2)+(3)-(4)]
DOCKED: USER
DOCKED: USER    (1) Final Intermolecular Energy     = -10.99 kcal/mol
DOCKED: USER        vdW + Hbond + desolv Energy     = -10.96 kcal/mol
DOCKED: USER        Electrostatic Energy            =  -0.03 kcal/mol
DOCKED: USER        Moving Ligand-Fixed Receptor    = -10.99 kcal/mol
DOCKED: USER        Moving Ligand-Moving Receptor   =  +0.00 kcal/mol
DOCKED: USER    (2) Final Total Internal Energy     =  -1.74 kcal/mol
DOCKED: USER    (3) Torsional Free Energy           =  +1.49 kcal/mol
DOCKED: USER    (4) Unbound System's Energy         =  -1.74 kcal/mol
DOCKED: USER
DOCKED: USER
DOCKED: REMARK SMILES O=C(NCC(=O)N1CCCC[C@@H]1C1CCCCC1)c1ccc2cc(Cl)ccc2n1
DOCKED: REMARK SMILES IDX 4 1 3 2 2 3 1 4 19 6 20 7 29 8 21 9 28 10 22 11 27 12 23 13
DOCKED: REMARK SMILES IDX 26 14 24 15 25 16 5 17 6 18 7 19 8 20 12 21 9 22 11 23 10 24
DOCKED: REMARK SMILES IDX 13 25 14 26 18 27 15 28 17 29 16 30
DOCKED: REMARK H PARENT 3 5
DOCKED: USER                              x       y       z     vdW  Elec       q    Type
DOCKED: USER                           _______ _______ _______ _____ _____    ______ ____
DOCKED: ROOT
DOCKED: ATOM      1  C   UNL     1     139.535  74.843 221.033 -0.16 -0.05    +0.216 C  
DOCKED: ENDROOT
DOCKED: BRANCH   1   2
DOCKED: ATOM      2  N   UNL     1     139.616  73.885 222.131 -0.13 +0.05    -0.342 N  
DOCKED: ATOM      3  C   UNL     1     139.834  72.520 221.882 -0.18 -0.04    +0.270 C  
DOCKED: ATOM      4  O   UNL     1     139.974  72.030 220.712 -0.07 +0.05    -0.268 OA 
DOCKED: ATOM      5  H   UNL     1     139.514  74.181 223.139 -0.52 -0.02    +0.164 HD 
DOCKED: BRANCH   3   6
DOCKED: ATOM      6  C   UNL     1     139.910  71.578 223.015 -0.29 -0.02    +0.128 A  
DOCKED: ATOM      7  C   UNL     1     139.482  70.277 222.904 -0.22 -0.01    +0.035 A  
DOCKED: ATOM      8  N   UNL     1     140.411  71.974 224.212 -0.23 +0.04    -0.243 NA 
DOCKED: ATOM      9  C   UNL     1     139.539  69.371 223.942 -0.25 -0.00    +0.013 A  
DOCKED: ATOM     10  C   UNL     1     140.483  71.109 225.258 -0.50 -0.01    +0.071 A  
DOCKED: ATOM     11  C   UNL     1     140.056  69.811 225.150 -0.43 -0.00    +0.002 A  
DOCKED: ATOM     12  C   UNL     1     140.996  71.517 226.483 -0.68 -0.00    +0.030 A  
DOCKED: ATOM     13  C   UNL     1     140.108  68.897 226.181 -0.52 -0.01    +0.030 A  
DOCKED: ATOM     14  C   UNL     1     141.062  70.623 227.537 -0.62 -0.00    +0.023 A  
DOCKED: ATOM     15  C   UNL     1     140.623  69.310 227.404 -0.58 -0.01    +0.041 A  
DOCKED: ATOM     16  Cl  UNL     1     140.698  68.164 228.728 -0.63 +0.02    -0.084 Cl 
DOCKED: ENDBRANCH   3   6
DOCKED: ENDBRANCH   1   2
DOCKED: BRANCH   1  17
DOCKED: ATOM     17  C   UNL     1     139.817  76.204 221.549 -0.22 -0.06    +0.242 C  
DOCKED: ATOM     18  O   UNL     1     139.081  76.600 222.510 -0.25 +0.05    -0.273 OA 
DOCKED: BRANCH  17  19
DOCKED: ATOM     19  N   UNL     1     140.850  77.015 221.000 -0.11 +0.13    -0.338 N  
DOCKED: ATOM     20  C   UNL     1     141.927  76.390 220.245 -0.23 -0.06    +0.120 C  
DOCKED: ATOM     21  C   UNL     1     140.833  78.427 221.186 -0.26 -0.03    +0.088 C  
DOCKED: ATOM     22  C   UNL     1     142.374  77.169 219.059 -0.31 -0.01    +0.022 C  
DOCKED: ATOM     23  C   UNL     1     141.244  79.213 219.970 -0.25 -0.01    +0.025 C  
DOCKED: ATOM     24  C   UNL     1     141.499  78.347 218.766 -0.22 -0.00    +0.004 C  
DOCKED: BRANCH  21  25
DOCKED: ATOM     25  C   UNL     1     141.610  78.941 222.362 -0.49 -0.01    +0.012 C  
DOCKED: ATOM     26  C   UNL     1     140.828  79.351 223.547 -0.54 -0.00    +0.006 C  
DOCKED: ATOM     27  C   UNL     1     142.565  80.074 221.996 -0.45 -0.00    +0.006 C  
DOCKED: ATOM     28  C   UNL     1     140.798  80.862 223.714 -0.43 -0.00    +0.000 C  
DOCKED: ATOM     29  C   UNL     1     143.185  80.507 223.330 -0.64 -0.00    +0.000 C  
DOCKED: ATOM     30  C   UNL     1     142.184  81.291 224.137 -0.57 -0.00    +0.000 C  
DOCKED: ENDBRANCH  21  25
DOCKED: ENDBRANCH  17  19
DOCKED: ENDBRANCH   1  17
DOCKED: TORSDOF 5
DOCKED: TER
DOCKED: ENDMDL
________________________________________________________________________________


    FINAL DOCKED STATE:
    ________________________


Run:   10 / 20
Time taken for this run:   0.047s

DOCKED: MODEL        10
DOCKED: USER    Run = 10
DOCKED: USER
DOCKED: USER    Estimated Free Energy of Binding    =  -7.95 kcal/mol  [=(1)+(2)+(3)-(4)]
DOCKED: USER
DOCKED: USER    (1) Final Intermolecular Energy     =  -9.44 kcal/mol
DOCKED: USER        vdW + Hbond + desolv Energy     =  -9.39 kcal/mol
DOCKED: USER        Electrostatic Energy            =  -0.05 kcal/mol
DOCKED: USER        Moving Ligand-Fixed Receptor    =  -9.44 kcal/mol
DOCKED: USER        Moving Ligand-Moving Receptor   =  +0.00 kcal/mol
DOCKED: USER    (2) Final Total Internal Energy     =  -2.19 kcal/mol
DOCKED: USER    (3) Torsional Free Energy           =  +1.49 kcal/mol
DOCKED: USER    (4) Unbound System's Energy         =  -2.19 kcal/mol
DOCKED: USER
DOCKED: USER
DOCKED: REMARK SMILES O=C(NCC(=O)N1CCCC[C@@H]1C1CCCCC1)c1ccc2cc(Cl)ccc2n1
DOCKED: REMARK SMILES IDX 4 1 3 2 2 3 1 4 19 6 20 7 29 8 21 9 28 10 22 11 27 12 23 13
DOCKED: REMARK SMILES IDX 26 14 24 15 25 16 5 17 6 18 7 19 8 20 12 21 9 22 11 23 10 24
DOCKED: REMARK SMILES IDX 13 25 14 26 18 27 15 28 17 29 16 30
DOCKED: REMARK H PARENT 3 5
DOCKED: USER                              x       y       z     vdW  Elec       q    Type
DOCKED: USER                           _______ _______ _______ _____ _____    ______ ____
DOCKED: ROOT
DOCKED: ATOM      1  C   UNL     1     136.183  72.215 222.481 -0.08 -0.05    +0.216 C  
DOCKED: ENDROOT
DOCKED: BRANCH   1   2
DOCKED: ATOM      2  N   UNL     1     137.057  73.372 222.651 +0.02 +0.13    -0.342 N  
DOCKED: ATOM      3  C   UNL     1     138.038  73.681 221.695 -0.10 -0.07    +0.270 C  
DOCKED: ATOM      4  O   UNL     1     138.232  72.994 220.637 -0.04 +0.05    -0.268 OA 
DOCKED: ATOM      5  H   UNL     1     136.984  74.009 223.490 -0.47 -0.11    +0.164 HD 
DOCKED: BRANCH   3   6
DOCKED: ATOM      6  C   UNL     1     138.905  74.856 221.897 -0.22 -0.03    +0.128 A  
DOCKED: ATOM      7  C   UNL     1     140.246  74.827 221.598 -0.31 -0.01    +0.035 A  
DOCKED: ATOM      8  N   UNL     1     138.397  76.014 222.390 -0.20 +0.06    -0.243 NA 
DOCKED: ATOM      9  C   UNL     1     141.085  75.907 221.775 -0.36 -0.00    +0.013 A  
DOCKED: ATOM     10  C   UNL     1     139.193  77.100 222.578 -0.26 -0.01    +0.071 A  
DOCKED: ATOM     11  C   UNL     1     140.531  77.072 222.281 -0.42 -0.00    +0.002 A  
DOCKED: ATOM     12  C   UNL     1     138.671  78.285 223.082 -0.26 -0.00    +0.030 A  
DOCKED: ATOM     13  C   UNL     1     141.378  78.147 222.454 -0.43 -0.01    +0.030 A  
DOCKED: ATOM     14  C   UNL     1     139.496  79.380 223.267 -0.38 -0.00    +0.023 A  
DOCKED: ATOM     15  C   UNL     1     140.850  79.329 222.958 -0.44 -0.01    +0.041 A  
DOCKED: ATOM     16  Cl  UNL     1     141.910  80.706 223.186 -0.74 +0.02    -0.084 Cl 
DOCKED: ENDBRANCH   3   6
DOCKED: ENDBRANCH   1   2
DOCKED: BRANCH   1  17
DOCKED: ATOM     17  C   UNL     1     136.710  71.083 223.281 -0.11 -0.05    +0.242 C  
DOCKED: ATOM     18  O   UNL     1     135.862  70.469 224.007 -0.10 +0.03    -0.273 OA 
DOCKED: BRANCH  17  19
DOCKED: ATOM     19  N   UNL     1     138.082  70.707 223.236 -0.09 +0.07    -0.338 N  
DOCKED: ATOM     20  C   UNL     1     138.578  69.934 222.104 -0.13 -0.02    +0.120 C  
DOCKED: ATOM     21  C   UNL     1     138.967  71.081 224.287 -0.30 -0.02    +0.088 C  
DOCKED: ATOM     22  C   UNL     1     139.940  70.322 221.649 -0.13 -0.00    +0.022 C  
DOCKED: ATOM     23  C   UNL     1     140.331  71.514 223.819 -0.41 -0.00    +0.025 C  
DOCKED: ATOM     24  C   UNL     1     140.454  71.555 222.320 -0.29 -0.00    +0.004 C  
DOCKED: BRANCH  21  25
DOCKED: ATOM     25  C   UNL     1     139.145  70.072 225.382 -0.39 -0.00    +0.012 C  
DOCKED: ATOM     26  C   UNL     1     140.260  70.303 226.323 -0.57 -0.00    +0.006 C  
DOCKED: ATOM     27  C   UNL     1     139.238  68.639 224.863 -0.40 -0.00    +0.006 C  
DOCKED: ATOM     28  C   UNL     1     141.403  69.324 226.103 -0.51 -0.00    +0.000 C  
DOCKED: ATOM     29  C   UNL     1     139.502  67.789 226.112 -0.62 -0.00    +0.000 C  
DOCKED: ATOM     30  C   UNL     1     140.926  67.969 226.570 -0.66 -0.00    +0.000 C  
DOCKED: ENDBRANCH  21  25
DOCKED: ENDBRANCH  17  19
DOCKED: ENDBRANCH   1  17
DOCKED: TORSDOF 5
DOCKED: TER
DOCKED: ENDMDL
________________________________________________________________________________


    FINAL DOCKED STATE:
    ________________________


Run:   11 / 20
Time taken for this run:   0.047s

DOCKED: MODEL        11
DOCKED: USER    Run = 11
DOCKED: USER
DOCKED: USER    Estimated Free Energy of Binding    =  -9.17 kcal/mol  [=(1)+(2)+(3)-(4)]
DOCKED: USER
DOCKED: USER    (1) Final Intermolecular Energy     = -10.66 kcal/mol
DOCKED: USER        vdW + Hbond + desolv Energy     = -10.63 kcal/mol
DOCKED: USER        Electrostatic Energy            =  -0.03 kcal/mol
DOCKED: USER        Moving Ligand-Fixed Receptor    = -10.66 kcal/mol
DOCKED: USER        Moving Ligand-Moving Receptor   =  +0.00 kcal/mol
DOCKED: USER    (2) Final Total Internal Energy     =  -1.85 kcal/mol
DOCKED: USER    (3) Torsional Free Energy           =  +1.49 kcal/mol
DOCKED: USER    (4) Unbound System's Energy         =  -1.85 kcal/mol
DOCKED: USER
DOCKED: USER
DOCKED: REMARK SMILES O=C(NCC(=O)N1CCCC[C@@H]1C1CCCCC1)c1ccc2cc(Cl)ccc2n1
DOCKED: REMARK SMILES IDX 4 1 3 2 2 3 1 4 19 6 20 7 29 8 21 9 28 10 22 11 27 12 23 13
DOCKED: REMARK SMILES IDX 26 14 24 15 25 16 5 17 6 18 7 19 8 20 12 21 9 22 11 23 10 24
DOCKED: REMARK SMILES IDX 13 25 14 26 18 27 15 28 17 29 16 30
DOCKED: REMARK H PARENT 3 5
DOCKED: USER                              x       y       z     vdW  Elec       q    Type
DOCKED: USER                           _______ _______ _______ _____ _____    ______ ____
DOCKED: ROOT
DOCKED: ATOM      1  C   UNL     1     139.775  75.171 220.931 -0.16 -0.05    +0.216 C  
DOCKED: ENDROOT
DOCKED: BRANCH   1   2
DOCKED: ATOM      2  N   UNL     1     139.751  74.223 222.041 -0.14 +0.04    -0.342 N  
DOCKED: ATOM      3  C   UNL     1     139.959  72.851 221.822 -0.19 -0.04    +0.270 C  
DOCKED: ATOM      4  O   UNL     1     140.178  72.347 220.670 -0.07 +0.04    -0.268 OA 
DOCKED: ATOM      5  H   UNL     1     139.579  74.532 223.036 -0.49 -0.01    +0.164 HD 
DOCKED: BRANCH   3   6
DOCKED: ATOM      6  C   UNL     1     139.928  71.920 222.965 -0.29 -0.02    +0.128 A  
DOCKED: ATOM      7  C   UNL     1     139.330  70.686 222.878 -0.24 -0.01    +0.035 A  
DOCKED: ATOM      8  N   UNL     1     140.497  72.260 224.150 -0.11 +0.03    -0.243 NA 
DOCKED: ATOM      9  C   UNL     1     139.284  69.792 223.926 -0.30 -0.00    +0.013 A  
DOCKED: ATOM     10  C   UNL     1     140.471  71.404 225.206 -0.49 -0.01    +0.071 A  
DOCKED: ATOM     11  C   UNL     1     139.875  70.173 225.120 -0.44 -0.00    +0.002 A  
DOCKED: ATOM     12  C   UNL     1     141.054  71.754 226.417 -0.68 -0.00    +0.030 A  
DOCKED: ATOM     13  C   UNL     1     139.823  69.271 226.163 -0.48 -0.00    +0.030 A  
DOCKED: ATOM     14  C   UNL     1     141.017  70.870 227.482 -0.66 -0.00    +0.023 A  
DOCKED: ATOM     15  C   UNL     1     140.407  69.626 227.372 -0.56 -0.01    +0.041 A  
DOCKED: ATOM     16  Cl  UNL     1     140.352  68.495 228.709 -0.66 +0.02    -0.084 Cl 
DOCKED: ENDBRANCH   3   6
DOCKED: ENDBRANCH   1   2
DOCKED: BRANCH   1  17
DOCKED: ATOM     17  C   UNL     1     140.367  76.450 221.392 -0.22 -0.07    +0.242 C  
DOCKED: ATOM     18  O   UNL     1     139.984  76.864 222.534 -0.28 +0.06    -0.273 OA 
DOCKED: BRANCH  17  19
DOCKED: ATOM     19  N   UNL     1     141.309  77.167 220.602 -0.11 +0.16    -0.338 N  
DOCKED: ATOM     20  C   UNL     1     142.485  76.479 220.086 -0.24 -0.08    +0.120 C  
DOCKED: ATOM     21  C   UNL     1     141.107  78.548 220.317 -0.22 -0.04    +0.088 C  
DOCKED: ATOM     22  C   UNL     1     142.874  76.883 218.708 -0.33 -0.01    +0.022 C  
DOCKED: ATOM     23  C   UNL     1     141.462  78.944 218.909 -0.22 -0.01    +0.025 C  
DOCKED: ATOM     24  C   UNL     1     141.869  77.776 218.052 -0.23 -0.00    +0.004 C  
DOCKED: BRANCH  21  25
DOCKED: ATOM     25  C   UNL     1     141.769  79.513 221.256 -0.38 -0.01    +0.012 C  
DOCKED: ATOM     26  C   UNL     1     142.140  78.994 222.589 -0.51 -0.00    +0.006 C  
DOCKED: ATOM     27  C   UNL     1     140.974  80.803 221.443 -0.35 -0.00    +0.006 C  
DOCKED: ATOM     28  C   UNL     1     141.233  79.536 223.683 -0.58 -0.00    +0.000 C  
DOCKED: ATOM     29  C   UNL     1     141.764  81.600 222.488 -0.48 -0.00    +0.000 C  
DOCKED: ATOM     30  C   UNL     1     141.567  80.999 223.855 -0.54 -0.00    +0.000 C  
DOCKED: ENDBRANCH  21  25
DOCKED: ENDBRANCH  17  19
DOCKED: ENDBRANCH   1  17
DOCKED: TORSDOF 5
DOCKED: TER
DOCKED: ENDMDL
________________________________________________________________________________


    FINAL DOCKED STATE:
    ________________________


Run:   12 / 20
Time taken for this run:   0.047s

DOCKED: MODEL        12
DOCKED: USER    Run = 12
DOCKED: USER
DOCKED: USER    Estimated Free Energy of Binding    =  -9.35 kcal/mol  [=(1)+(2)+(3)-(4)]
DOCKED: USER
DOCKED: USER    (1) Final Intermolecular Energy     = -10.84 kcal/mol
DOCKED: USER        vdW + Hbond + desolv Energy     = -10.81 kcal/mol
DOCKED: USER        Electrostatic Energy            =  -0.03 kcal/mol
DOCKED: USER        Moving Ligand-Fixed Receptor    = -10.84 kcal/mol
DOCKED: USER        Moving Ligand-Moving Receptor   =  +0.00 kcal/mol
DOCKED: USER    (2) Final Total Internal Energy     =  -1.79 kcal/mol
DOCKED: USER    (3) Torsional Free Energy           =  +1.49 kcal/mol
DOCKED: USER    (4) Unbound System's Energy         =  -1.79 kcal/mol
DOCKED: USER
DOCKED: USER
DOCKED: REMARK SMILES O=C(NCC(=O)N1CCCC[C@@H]1C1CCCCC1)c1ccc2cc(Cl)ccc2n1
DOCKED: REMARK SMILES IDX 4 1 3 2 2 3 1 4 19 6 20 7 29 8 21 9 28 10 22 11 27 12 23 13
DOCKED: REMARK SMILES IDX 26 14 24 15 25 16 5 17 6 18 7 19 8 20 12 21 9 22 11 23 10 24
DOCKED: REMARK SMILES IDX 13 25 14 26 18 27 15 28 17 29 16 30
DOCKED: REMARK H PARENT 3 5
DOCKED: USER                              x       y       z     vdW  Elec       q    Type
DOCKED: USER                           _______ _______ _______ _____ _____    ______ ____
DOCKED: ROOT
DOCKED: ATOM      1  C   UNL     1     139.883  74.762 221.025 -0.17 -0.04    +0.216 C  
DOCKED: ENDROOT
DOCKED: BRANCH   1   2
DOCKED: ATOM      2  N   UNL     1     139.855  73.820 222.140 -0.12 +0.04    -0.342 N  
DOCKED: ATOM      3  C   UNL     1     140.196  72.471 221.952 -0.19 -0.04    +0.270 C  
DOCKED: ATOM      4  O   UNL     1     140.544  71.982 220.826 -0.09 +0.04    -0.268 OA 
DOCKED: ATOM      5  H   UNL     1     139.582  74.117 223.115 -0.52 -0.01    +0.164 HD 
DOCKED: BRANCH   3   6
DOCKED: ATOM      6  C   UNL     1     140.156  71.545 223.099 -0.30 -0.02    +0.128 A  
DOCKED: ATOM      7  C   UNL     1     139.633  70.279 222.991 -0.22 -0.01    +0.035 A  
DOCKED: ATOM      8  N   UNL     1     140.643  71.921 224.309 -0.23 +0.03    -0.243 NA 
DOCKED: ATOM      9  C   UNL     1     139.581  69.389 224.043 -0.27 -0.00    +0.013 A  
DOCKED: ATOM     10  C   UNL     1     140.609  71.070 225.369 -0.51 -0.01    +0.071 A  
DOCKED: ATOM     11  C   UNL     1     140.087  69.808 225.262 -0.44 -0.00    +0.002 A  
DOCKED: ATOM     12  C   UNL     1     141.109  71.458 226.606 -0.69 -0.00    +0.030 A  
DOCKED: ATOM     13  C   UNL     1     140.031  68.910 226.308 -0.52 -0.01    +0.030 A  
DOCKED: ATOM     14  C   UNL     1     141.066  70.579 227.674 -0.62 -0.00    +0.023 A  
DOCKED: ATOM     15  C   UNL     1     140.532  69.303 227.543 -0.59 -0.01    +0.041 A  
DOCKED: ATOM     16  Cl  UNL     1     140.469  68.176 228.884 -0.36 +0.02    -0.084 Cl 
DOCKED: ENDBRANCH   3   6
DOCKED: ENDBRANCH   1   2
DOCKED: BRANCH   1  17
DOCKED: ATOM     17  C   UNL     1     139.990  76.143 221.554 -0.23 -0.06    +0.242 C  
DOCKED: ATOM     18  O   UNL     1     139.219  76.431 222.526 -0.27 +0.05    -0.273 OA 
DOCKED: BRANCH  17  19
DOCKED: ATOM     19  N   UNL     1     140.903  77.088 221.005 -0.11 +0.14    -0.338 N  
DOCKED: ATOM     20  C   UNL     1     141.972  76.627 220.128 -0.25 -0.07    +0.120 C  
DOCKED: ATOM     21  C   UNL     1     140.776  78.473 221.309 -0.26 -0.03    +0.088 C  
DOCKED: ATOM     22  C   UNL     1     142.257  77.533 218.984 -0.30 -0.01    +0.022 C  
DOCKED: ATOM     23  C   UNL     1     141.024  79.386 220.137 -0.23 -0.01    +0.025 C  
DOCKED: ATOM     24  C   UNL     1     141.262  78.642 218.851 -0.20 -0.00    +0.004 C  
DOCKED: BRANCH  21  25
DOCKED: ATOM     25  C   UNL     1     141.591  78.966 222.467 -0.50 -0.00    +0.012 C  
DOCKED: ATOM     26  C   UNL     1     140.846  79.410 223.663 -0.54 -0.00    +0.006 C  
DOCKED: ATOM     27  C   UNL     1     142.579  80.063 222.077 -0.47 -0.00    +0.006 C  
DOCKED: ATOM     28  C   UNL     1     140.872  80.923 223.821 -0.41 -0.00    +0.000 C  
DOCKED: ATOM     29  C   UNL     1     143.238  80.482 223.397 -0.63 -0.00    +0.000 C  
DOCKED: ATOM     30  C   UNL     1     142.279  81.305 224.217 -0.56 -0.00    +0.000 C  
DOCKED: ENDBRANCH  21  25
DOCKED: ENDBRANCH  17  19
DOCKED: ENDBRANCH   1  17
DOCKED: TORSDOF 5
DOCKED: TER
DOCKED: ENDMDL
________________________________________________________________________________


    FINAL DOCKED STATE:
    ________________________


Run:   13 / 20
Time taken for this run:   0.047s

DOCKED: MODEL        13
DOCKED: USER    Run = 13
DOCKED: USER
DOCKED: USER    Estimated Free Energy of Binding    =  -7.95 kcal/mol  [=(1)+(2)+(3)-(4)]
DOCKED: USER
DOCKED: USER    (1) Final Intermolecular Energy     =  -9.44 kcal/mol
DOCKED: USER        vdW + Hbond + desolv Energy     =  -9.39 kcal/mol
DOCKED: USER        Electrostatic Energy            =  -0.05 kcal/mol
DOCKED: USER        Moving Ligand-Fixed Receptor    =  -9.44 kcal/mol
DOCKED: USER        Moving Ligand-Moving Receptor   =  +0.00 kcal/mol
DOCKED: USER    (2) Final Total Internal Energy     =  -2.18 kcal/mol
DOCKED: USER    (3) Torsional Free Energy           =  +1.49 kcal/mol
DOCKED: USER    (4) Unbound System's Energy         =  -2.18 kcal/mol
DOCKED: USER
DOCKED: USER
DOCKED: REMARK SMILES O=C(NCC(=O)N1CCCC[C@@H]1C1CCCCC1)c1ccc2cc(Cl)ccc2n1
DOCKED: REMARK SMILES IDX 4 1 3 2 2 3 1 4 19 6 20 7 29 8 21 9 28 10 22 11 27 12 23 13
DOCKED: REMARK SMILES IDX 26 14 24 15 25 16 5 17 6 18 7 19 8 20 12 21 9 22 11 23 10 24
DOCKED: REMARK SMILES IDX 13 25 14 26 18 27 15 28 17 29 16 30
DOCKED: REMARK H PARENT 3 5
DOCKED: USER                              x       y       z     vdW  Elec       q    Type
DOCKED: USER                           _______ _______ _______ _____ _____    ______ ____
DOCKED: ROOT
DOCKED: ATOM      1  C   UNL     1     136.190  72.275 222.455 -0.08 -0.05    +0.216 C  
DOCKED: ENDROOT
DOCKED: BRANCH   1   2
DOCKED: ATOM      2  N   UNL     1     137.056  73.437 222.633 +0.02 +0.13    -0.342 N  
DOCKED: ATOM      3  C   UNL     1     138.053  73.743 221.692 -0.10 -0.07    +0.270 C  
DOCKED: ATOM      4  O   UNL     1     138.269  73.049 220.643 -0.04 +0.06    -0.268 OA 
DOCKED: ATOM      5  H   UNL     1     136.965  74.079 223.465 -0.47 -0.10    +0.164 HD 
DOCKED: BRANCH   3   6
DOCKED: ATOM      6  C   UNL     1     138.912  74.923 221.901 -0.22 -0.03    +0.128 A  
DOCKED: ATOM      7  C   UNL     1     140.254  74.903 221.607 -0.31 -0.01    +0.035 A  
DOCKED: ATOM      8  N   UNL     1     138.395  76.076 222.396 -0.20 +0.06    -0.243 NA 
DOCKED: ATOM      9  C   UNL     1     141.085  75.988 221.790 -0.36 -0.00    +0.013 A  
DOCKED: ATOM     10  C   UNL     1     139.183  77.166 222.591 -0.26 -0.01    +0.071 A  
DOCKED: ATOM     11  C   UNL     1     140.522  77.148 222.298 -0.42 -0.00    +0.002 A  
DOCKED: ATOM     12  C   UNL     1     138.652  78.345 223.097 -0.26 -0.00    +0.030 A  
DOCKED: ATOM     13  C   UNL     1     141.362  78.228 222.477 -0.44 -0.01    +0.030 A  
DOCKED: ATOM     14  C   UNL     1     139.469  79.445 223.289 -0.38 -0.00    +0.023 A  
DOCKED: ATOM     15  C   UNL     1     140.825  79.404 222.984 -0.44 -0.01    +0.041 A  
DOCKED: ATOM     16  Cl  UNL     1     141.875  80.788 223.220 -0.74 +0.02    -0.084 Cl 
DOCKED: ENDBRANCH   3   6
DOCKED: ENDBRANCH   1   2
DOCKED: BRANCH   1  17
DOCKED: ATOM     17  C   UNL     1     136.701  71.153 223.279 -0.11 -0.05    +0.242 C  
DOCKED: ATOM     18  O   UNL     1     135.847  70.574 224.026 -0.10 +0.03    -0.273 OA 
DOCKED: BRANCH  17  19
DOCKED: ATOM     19  N   UNL     1     138.066  70.752 223.234 -0.09 +0.07    -0.338 N  
DOCKED: ATOM     20  C   UNL     1     138.553  69.990 222.091 -0.13 -0.02    +0.120 C  
DOCKED: ATOM     21  C   UNL     1     138.952  71.090 224.297 -0.30 -0.02    +0.088 C  
DOCKED: ATOM     22  C   UNL     1     139.924  70.358 221.650 -0.14 -0.00    +0.022 C  
DOCKED: ATOM     23  C   UNL     1     140.327  71.503 223.844 -0.41 -0.00    +0.025 C  
DOCKED: ATOM     24  C   UNL     1     140.460  71.569 222.346 -0.29 -0.00    +0.004 C  
DOCKED: BRANCH  21  25
DOCKED: ATOM     25  C   UNL     1     139.104  70.058 225.375 -0.38 -0.00    +0.012 C  
DOCKED: ATOM     26  C   UNL     1     140.194  70.271 226.349 -0.56 -0.00    +0.006 C  
DOCKED: ATOM     27  C   UNL     1     139.215  68.636 224.828 -0.40 -0.00    +0.006 C  
DOCKED: ATOM     28  C   UNL     1     141.345  69.299 226.138 -0.51 -0.00    +0.000 C  
DOCKED: ATOM     29  C   UNL     1     139.448  67.760 226.065 -0.61 -0.00    +0.000 C  
DOCKED: ATOM     30  C   UNL     1     140.859  67.933 226.564 -0.67 -0.00    +0.000 C  
DOCKED: ENDBRANCH  21  25
DOCKED: ENDBRANCH  17  19
DOCKED: ENDBRANCH   1  17
DOCKED: TORSDOF 5
DOCKED: TER
DOCKED: ENDMDL
________________________________________________________________________________


    FINAL DOCKED STATE:
    ________________________


Run:   14 / 20
Time taken for this run:   0.047s

DOCKED: MODEL        14
DOCKED: USER    Run = 14
DOCKED: USER
DOCKED: USER    Estimated Free Energy of Binding    =  -9.57 kcal/mol  [=(1)+(2)+(3)-(4)]
DOCKED: USER
DOCKED: USER    (1) Final Intermolecular Energy     = -11.06 kcal/mol
DOCKED: USER        vdW + Hbond + desolv Energy     = -10.98 kcal/mol
DOCKED: USER        Electrostatic Energy            =  -0.08 kcal/mol
DOCKED: USER        Moving Ligand-Fixed Receptor    = -11.06 kcal/mol
DOCKED: USER        Moving Ligand-Moving Receptor   =  +0.00 kcal/mol
DOCKED: USER    (2) Final Total Internal Energy     =  -1.61 kcal/mol
DOCKED: USER    (3) Torsional Free Energy           =  +1.49 kcal/mol
DOCKED: USER    (4) Unbound System's Energy         =  -1.61 kcal/mol
DOCKED: USER
DOCKED: USER
DOCKED: REMARK SMILES O=C(NCC(=O)N1CCCC[C@@H]1C1CCCCC1)c1ccc2cc(Cl)ccc2n1
DOCKED: REMARK SMILES IDX 4 1 3 2 2 3 1 4 19 6 20 7 29 8 21 9 28 10 22 11 27 12 23 13
DOCKED: REMARK SMILES IDX 26 14 24 15 25 16 5 17 6 18 7 19 8 20 12 21 9 22 11 23 10 24
DOCKED: REMARK SMILES IDX 13 25 14 26 18 27 15 28 17 29 16 30
DOCKED: REMARK H PARENT 3 5
DOCKED: USER                              x       y       z     vdW  Elec       q    Type
DOCKED: USER                           _______ _______ _______ _____ _____    ______ ____
DOCKED: ROOT
DOCKED: ATOM      1  C   UNL     1     139.216  75.011 221.026 -0.14 -0.05    +0.216 C  
DOCKED: ENDROOT
DOCKED: BRANCH   1   2
DOCKED: ATOM      2  N   UNL     1     139.300  74.044 222.116 -0.12 +0.07    -0.342 N  
DOCKED: ATOM      3  C   UNL     1     139.876  72.779 221.915 -0.19 -0.04    +0.270 C  
DOCKED: ATOM      4  O   UNL     1     140.356  72.393 220.798 -0.09 +0.04    -0.268 OA 
DOCKED: ATOM      5  H   UNL     1     138.933  74.259 223.083 -0.56 -0.09    +0.164 HD 
DOCKED: BRANCH   3   6
DOCKED: ATOM      6  C   UNL     1     139.944  71.825 223.038 -0.29 -0.02    +0.128 A  
DOCKED: ATOM      7  C   UNL     1     139.521  70.524 222.908 -0.24 -0.01    +0.035 A  
DOCKED: ATOM      8  N   UNL     1     140.432  72.210 224.244 -0.11 +0.04    -0.243 NA 
DOCKED: ATOM      9  C   UNL     1     139.571  69.607 223.937 -0.28 -0.00    +0.013 A  
DOCKED: ATOM     10  C   UNL     1     140.497  71.333 225.281 -0.50 -0.01    +0.071 A  
DOCKED: ATOM     11  C   UNL     1     140.075  70.035 225.154 -0.44 -0.00    +0.002 A  
DOCKED: ATOM     12  C   UNL     1     140.997  71.728 226.515 -0.69 -0.00    +0.030 A  
DOCKED: ATOM     13  C   UNL     1     140.120  69.110 226.176 -0.50 -0.01    +0.030 A  
DOCKED: ATOM     14  C   UNL     1     141.055  70.823 227.560 -0.65 -0.00    +0.023 A  
DOCKED: ATOM     15  C   UNL     1     140.622  69.511 227.407 -0.57 -0.01    +0.041 A  
DOCKED: ATOM     16  Cl  UNL     1     140.688  68.350 228.719 -0.67 +0.02    -0.084 Cl 
DOCKED: ENDBRANCH   3   6
DOCKED: ENDBRANCH   1   2
DOCKED: BRANCH   1  17
DOCKED: ATOM     17  C   UNL     1     139.654  76.340 221.516 -0.20 -0.06    +0.242 C  
DOCKED: ATOM     18  O   UNL     1     138.903  76.890 222.386 -0.22 +0.05    -0.273 OA 
DOCKED: BRANCH  17  19
DOCKED: ATOM     19  N   UNL     1     140.844  76.960 221.041 -0.11 +0.13    -0.338 N  
DOCKED: ATOM     20  C   UNL     1     141.908  76.137 220.482 -0.21 -0.06    +0.120 C  
DOCKED: ATOM     21  C   UNL     1     140.997  78.374 221.110 -0.27 -0.04    +0.088 C  
DOCKED: ATOM     22  C   UNL     1     142.591  76.737 219.305 -0.34 -0.01    +0.022 C  
DOCKED: ATOM     23  C   UNL     1     141.650  78.983 219.898 -0.27 -0.01    +0.025 C  
DOCKED: ATOM     24  C   UNL     1     141.924  77.981 218.810 -0.27 -0.00    +0.004 C  
DOCKED: BRANCH  21  25
DOCKED: ATOM     25  C   UNL     1     141.694  78.898 222.331 -0.49 -0.01    +0.012 C  
DOCKED: ATOM     26  C   UNL     1     140.840  79.249 223.484 -0.53 -0.00    +0.006 C  
DOCKED: ATOM     27  C   UNL     1     142.614  80.079 222.032 -0.42 -0.00    +0.006 C  
DOCKED: ATOM     28  C   UNL     1     140.736  80.754 223.677 -0.44 -0.00    +0.000 C  
DOCKED: ATOM     29  C   UNL     1     143.152  80.511 223.402 -0.65 -0.00    +0.000 C  
DOCKED: ATOM     30  C   UNL     1     142.079  81.235 224.174 -0.51 -0.00    +0.000 C  
DOCKED: ENDBRANCH  21  25
DOCKED: ENDBRANCH  17  19
DOCKED: ENDBRANCH   1  17
DOCKED: TORSDOF 5
DOCKED: TER
DOCKED: ENDMDL
________________________________________________________________________________


    FINAL DOCKED STATE:
    ________________________


Run:   15 / 20
Time taken for this run:   0.047s

DOCKED: MODEL        15
DOCKED: USER    Run = 15
DOCKED: USER
DOCKED: USER    Estimated Free Energy of Binding    =  -9.48 kcal/mol  [=(1)+(2)+(3)-(4)]
DOCKED: USER
DOCKED: USER    (1) Final Intermolecular Energy     = -10.97 kcal/mol
DOCKED: USER        vdW + Hbond + desolv Energy     = -10.94 kcal/mol
DOCKED: USER        Electrostatic Energy            =  -0.03 kcal/mol
DOCKED: USER        Moving Ligand-Fixed Receptor    = -10.97 kcal/mol
DOCKED: USER        Moving Ligand-Moving Receptor   =  +0.00 kcal/mol
DOCKED: USER    (2) Final Total Internal Energy     =  -1.71 kcal/mol
DOCKED: USER    (3) Torsional Free Energy           =  +1.49 kcal/mol
DOCKED: USER    (4) Unbound System's Energy         =  -1.71 kcal/mol
DOCKED: USER
DOCKED: USER
DOCKED: REMARK SMILES O=C(NCC(=O)N1CCCC[C@@H]1C1CCCCC1)c1ccc2cc(Cl)ccc2n1
DOCKED: REMARK SMILES IDX 4 1 3 2 2 3 1 4 19 6 20 7 29 8 21 9 28 10 22 11 27 12 23 13
DOCKED: REMARK SMILES IDX 26 14 24 15 25 16 5 17 6 18 7 19 8 20 12 21 9 22 11 23 10 24
DOCKED: REMARK SMILES IDX 13 25 14 26 18 27 15 28 17 29 16 30
DOCKED: REMARK H PARENT 3 5
DOCKED: USER                              x       y       z     vdW  Elec       q    Type
DOCKED: USER                           _______ _______ _______ _____ _____    ______ ____
DOCKED: ROOT
DOCKED: ATOM      1  C   UNL     1     139.449  74.845 221.063 -0.16 -0.05    +0.216 C  
DOCKED: ENDROOT
DOCKED: BRANCH   1   2
DOCKED: ATOM      2  N   UNL     1     139.552  73.883 222.156 -0.13 +0.06    -0.342 N  
DOCKED: ATOM      3  C   UNL     1     139.768  72.519 221.897 -0.18 -0.05    +0.270 C  
DOCKED: ATOM      4  O   UNL     1     139.887  72.035 220.722 -0.06 +0.05    -0.268 OA 
DOCKED: ATOM      5  H   UNL     1     139.468  74.174 223.167 -0.51 -0.03    +0.164 HD 
DOCKED: BRANCH   3   6
DOCKED: ATOM      6  C   UNL     1     139.866  71.573 223.024 -0.29 -0.02    +0.128 A  
DOCKED: ATOM      7  C   UNL     1     139.461  70.265 222.908 -0.22 -0.01    +0.035 A  
DOCKED: ATOM      8  N   UNL     1     140.366  71.971 224.221 -0.24 +0.04    -0.243 NA 
DOCKED: ATOM      9  C   UNL     1     139.540  69.354 223.940 -0.25 -0.00    +0.013 A  
DOCKED: ATOM     10  C   UNL     1     140.459  71.102 225.262 -0.50 -0.01    +0.071 A  
DOCKED: ATOM     11  C   UNL     1     140.055  69.797 225.148 -0.42 -0.00    +0.002 A  
DOCKED: ATOM     12  C   UNL     1     140.971  71.512 226.486 -0.68 -0.00    +0.030 A  
DOCKED: ATOM     13  C   UNL     1     140.130  68.878 226.174 -0.52 -0.01    +0.030 A  
DOCKED: ATOM     14  C   UNL     1     141.058  70.613 227.535 -0.62 -0.00    +0.023 A  
DOCKED: ATOM     15  C   UNL     1     140.643  69.294 227.396 -0.58 -0.01    +0.041 A  
DOCKED: ATOM     16  Cl  UNL     1     140.745  68.142 228.713 -0.64 +0.02    -0.084 Cl 
DOCKED: ENDBRANCH   3   6
DOCKED: ENDBRANCH   1   2
DOCKED: BRANCH   1  17
DOCKED: ATOM     17  C   UNL     1     139.853  76.186 221.553 -0.22 -0.06    +0.242 C  
DOCKED: ATOM     18  O   UNL     1     139.126  76.688 222.470 -0.25 +0.05    -0.273 OA 
DOCKED: BRANCH  17  19
DOCKED: ATOM     19  N   UNL     1     140.988  76.865 221.026 -0.12 +0.14    -0.338 N  
DOCKED: ATOM     20  C   UNL     1     142.063  76.097 220.413 -0.19 -0.06    +0.120 C  
DOCKED: ATOM     21  C   UNL     1     141.074  78.284 221.096 -0.28 -0.04    +0.088 C  
DOCKED: ATOM     22  C   UNL     1     142.660  76.733 219.209 -0.34 -0.01    +0.022 C  
DOCKED: ATOM     23  C   UNL     1     141.639  78.929 219.858 -0.27 -0.01    +0.025 C  
DOCKED: ATOM     24  C   UNL     1     141.911  77.945 218.753 -0.26 -0.00    +0.004 C  
DOCKED: BRANCH  21  25
DOCKED: ATOM     25  C   UNL     1     141.801  78.837 222.286 -0.48 -0.01    +0.012 C  
DOCKED: ATOM     26  C   UNL     1     141.004  79.051 223.511 -0.55 -0.00    +0.006 C  
DOCKED: ATOM     27  C   UNL     1     142.563  80.123 221.974 -0.46 -0.00    +0.006 C  
DOCKED: ATOM     28  C   UNL     1     140.753  80.527 223.777 -0.43 -0.00    +0.000 C  
DOCKED: ATOM     29  C   UNL     1     143.153  80.563 223.320 -0.62 -0.00    +0.000 C  
DOCKED: ATOM     30  C   UNL     1     142.071  81.135 224.198 -0.48 -0.00    +0.000 C  
DOCKED: ENDBRANCH  21  25
DOCKED: ENDBRANCH  17  19
DOCKED: ENDBRANCH   1  17
DOCKED: TORSDOF 5
DOCKED: TER
DOCKED: ENDMDL
________________________________________________________________________________


    FINAL DOCKED STATE:
    ________________________


Run:   16 / 20
Time taken for this run:   0.047s

DOCKED: MODEL        16
DOCKED: USER    Run = 16
DOCKED: USER
DOCKED: USER    Estimated Free Energy of Binding    =  -7.79 kcal/mol  [=(1)+(2)+(3)-(4)]
DOCKED: USER
DOCKED: USER    (1) Final Intermolecular Energy     =  -9.28 kcal/mol
DOCKED: USER        vdW + Hbond + desolv Energy     =  -9.19 kcal/mol
DOCKED: USER        Electrostatic Energy            =  -0.08 kcal/mol
DOCKED: USER        Moving Ligand-Fixed Receptor    =  -9.28 kcal/mol
DOCKED: USER        Moving Ligand-Moving Receptor   =  +0.00 kcal/mol
DOCKED: USER    (2) Final Total Internal Energy     =  -2.25 kcal/mol
DOCKED: USER    (3) Torsional Free Energy           =  +1.49 kcal/mol
DOCKED: USER    (4) Unbound System's Energy         =  -2.25 kcal/mol
DOCKED: USER
DOCKED: USER
DOCKED: REMARK SMILES O=C(NCC(=O)N1CCCC[C@@H]1C1CCCCC1)c1ccc2cc(Cl)ccc2n1
DOCKED: REMARK SMILES IDX 4 1 3 2 2 3 1 4 19 6 20 7 29 8 21 9 28 10 22 11 27 12 23 13
DOCKED: REMARK SMILES IDX 26 14 24 15 25 16 5 17 6 18 7 19 8 20 12 21 9 22 11 23 10 24
DOCKED: REMARK SMILES IDX 13 25 14 26 18 27 15 28 17 29 16 30
DOCKED: REMARK H PARENT 3 5
DOCKED: USER                              x       y       z     vdW  Elec       q    Type
DOCKED: USER                           _______ _______ _______ _____ _____    ______ ____
DOCKED: ROOT
DOCKED: ATOM      1  C   UNL     1     136.380  71.295 222.904 -0.09 -0.04    +0.216 C  
DOCKED: ENDROOT
DOCKED: BRANCH   1   2
DOCKED: ATOM      2  N   UNL     1     136.861  72.661 223.089 -0.03 +0.12    -0.342 N  
DOCKED: ATOM      3  C   UNL     1     137.323  73.416 221.998 -0.08 -0.08    +0.270 C  
DOCKED: ATOM      4  O   UNL     1     137.355  72.977 220.800 -0.03 +0.06    -0.268 OA 
DOCKED: ATOM      5  H   UNL     1     136.880  73.123 224.038 -0.55 -0.10    +0.164 HD 
DOCKED: BRANCH   3   6
DOCKED: ATOM      6  C   UNL     1     137.804  74.792 222.219 -0.09 -0.04    +0.128 A  
DOCKED: ATOM      7  C   UNL     1     136.939  75.829 222.473 -0.23 -0.01    +0.035 A  
DOCKED: ATOM      8  N   UNL     1     139.131  75.077 222.179 -0.39 +0.05    -0.243 NA 
DOCKED: ATOM      9  C   UNL     1     137.356  77.127 222.685 -0.25 -0.00    +0.013 A  
DOCKED: ATOM     10  C   UNL     1     139.578  76.344 222.383 -0.31 -0.01    +0.071 A  
DOCKED: ATOM     11  C   UNL     1     138.717  77.379 222.636 -0.30 -0.00    +0.002 A  
DOCKED: ATOM     12  C   UNL     1     140.936  76.633 222.341 -0.38 -0.01    +0.030 A  
DOCKED: ATOM     13  C   UNL     1     139.123  78.681 222.849 -0.31 -0.01    +0.030 A  
DOCKED: ATOM     14  C   UNL     1     141.374  77.928 222.551 -0.41 -0.01    +0.023 A  
DOCKED: ATOM     15  C   UNL     1     140.482  78.963 222.807 -0.40 -0.01    +0.041 A  
DOCKED: ATOM     16  Cl  UNL     1     141.018  80.610 223.075 -0.60 +0.02    -0.084 Cl 
DOCKED: ENDBRANCH   3   6
DOCKED: ENDBRANCH   1   2
DOCKED: BRANCH   1  17
DOCKED: ATOM     17  C   UNL     1     137.421  70.343 223.360 -0.13 -0.04    +0.242 C  
DOCKED: ATOM     18  O   UNL     1     137.009  69.344 224.033 -0.15 +0.02    -0.273 OA 
DOCKED: BRANCH  17  19
DOCKED: ATOM     19  N   UNL     1     138.799  70.539 223.059 -0.09 +0.07    -0.338 N  
DOCKED: ATOM     20  C   UNL     1     139.386  69.860 221.911 -0.12 -0.02    +0.120 C  
DOCKED: ATOM     21  C   UNL     1     139.600  71.391 223.872 -0.33 -0.02    +0.088 C  
DOCKED: ATOM     22  C   UNL     1     140.371  70.679 221.155 -0.12 -0.00    +0.022 C  
DOCKED: ATOM     23  C   UNL     1     140.566  72.249 223.099 -0.25 -0.00    +0.025 C  
DOCKED: ATOM     24  C   UNL     1     140.422  72.104 221.609 -0.25 -0.00    +0.004 C  
DOCKED: BRANCH  21  25
DOCKED: ATOM     25  C   UNL     1     140.354  70.717 224.980 -0.50 -0.00    +0.012 C  
DOCKED: ATOM     26  C   UNL     1     139.987  69.318 225.278 -0.43 -0.00    +0.006 C  
DOCKED: ATOM     27  C   UNL     1     140.334  71.511 226.284 -0.57 -0.00    +0.006 C  
DOCKED: ATOM     28  C   UNL     1     139.218  69.197 226.585 -0.50 -0.00    +0.000 C  
DOCKED: ATOM     29  C   UNL     1     141.072  70.623 227.293 -0.65 -0.00    +0.000 C  
DOCKED: ATOM     30  C   UNL     1     140.197  69.469 227.704 -0.64 -0.00    +0.000 C  
DOCKED: ENDBRANCH  21  25
DOCKED: ENDBRANCH  17  19
DOCKED: ENDBRANCH   1  17
DOCKED: TORSDOF 5
DOCKED: TER
DOCKED: ENDMDL
________________________________________________________________________________


    FINAL DOCKED STATE:
    ________________________


Run:   17 / 20
Time taken for this run:   0.047s

DOCKED: MODEL        17
DOCKED: USER    Run = 17
DOCKED: USER
DOCKED: USER    Estimated Free Energy of Binding    =  -8.59 kcal/mol  [=(1)+(2)+(3)-(4)]
DOCKED: USER
DOCKED: USER    (1) Final Intermolecular Energy     = -10.08 kcal/mol
DOCKED: USER        vdW + Hbond + desolv Energy     = -10.05 kcal/mol
DOCKED: USER        Electrostatic Energy            =  -0.03 kcal/mol
DOCKED: USER        Moving Ligand-Fixed Receptor    = -10.08 kcal/mol
DOCKED: USER        Moving Ligand-Moving Receptor   =  +0.00 kcal/mol
DOCKED: USER    (2) Final Total Internal Energy     =  -1.82 kcal/mol
DOCKED: USER    (3) Torsional Free Energy           =  +1.49 kcal/mol
DOCKED: USER    (4) Unbound System's Energy         =  -1.82 kcal/mol
DOCKED: USER
DOCKED: USER
DOCKED: REMARK SMILES O=C(NCC(=O)N1CCCC[C@@H]1C1CCCCC1)c1ccc2cc(Cl)ccc2n1
DOCKED: REMARK SMILES IDX 4 1 3 2 2 3 1 4 19 6 20 7 29 8 21 9 28 10 22 11 27 12 23 13
DOCKED: REMARK SMILES IDX 26 14 24 15 25 16 5 17 6 18 7 19 8 20 12 21 9 22 11 23 10 24
DOCKED: REMARK SMILES IDX 13 25 14 26 18 27 15 28 17 29 16 30
DOCKED: REMARK H PARENT 3 5
DOCKED: USER                              x       y       z     vdW  Elec       q    Type
DOCKED: USER                           _______ _______ _______ _____ _____    ______ ____
DOCKED: ROOT
DOCKED: ATOM      1  C   UNL     1     138.768  74.604 221.008 -0.12 -0.05    +0.216 C  
DOCKED: ENDROOT
DOCKED: BRANCH   1   2
DOCKED: ATOM      2  N   UNL     1     139.048  73.691 222.112 -0.09 +0.09    -0.342 N  
DOCKED: ATOM      3  C   UNL     1     139.066  72.301 221.911 -0.14 -0.06    +0.270 C  
DOCKED: ATOM      4  O   UNL     1     138.846  71.750 220.782 -0.04 +0.05    -0.268 OA 
DOCKED: ATOM      5  H   UNL     1     139.243  74.040 223.089 -0.54 -0.06    +0.164 HD 
DOCKED: BRANCH   3   6
DOCKED: ATOM      6  C   UNL     1     139.351  71.407 223.048 -0.25 -0.03    +0.128 A  
DOCKED: ATOM      7  C   UNL     1     139.035  70.070 223.014 -0.22 -0.01    +0.035 A  
DOCKED: ATOM      8  N   UNL     1     139.940  71.884 224.174 -0.24 +0.05    -0.243 NA 
DOCKED: ATOM      9  C   UNL     1     139.289  69.206 224.059 -0.29 -0.00    +0.013 A  
DOCKED: ATOM     10  C   UNL     1     140.205  71.063 225.224 -0.48 -0.01    +0.071 A  
DOCKED: ATOM     11  C   UNL     1     139.891  69.729 225.192 -0.42 -0.00    +0.002 A  
DOCKED: ATOM     12  C   UNL     1     140.808  71.554 226.375 -0.65 -0.00    +0.030 A  
DOCKED: ATOM     13  C   UNL     1     140.140  68.857 226.231 -0.52 -0.01    +0.030 A  
DOCKED: ATOM     14  C   UNL     1     141.070  70.703 227.434 -0.63 -0.00    +0.023 A  
DOCKED: ATOM     15  C   UNL     1     140.744  69.353 227.379 -0.57 -0.01    +0.041 A  
DOCKED: ATOM     16  Cl  UNL     1     141.068  68.261 228.711 -0.71 +0.02    -0.084 Cl 
DOCKED: ENDBRANCH   3   6
DOCKED: ENDBRANCH   1   2
DOCKED: BRANCH   1  17
DOCKED: ATOM     17  C   UNL     1     139.915  74.601 220.068 -0.06 -0.05    +0.242 C  
DOCKED: ATOM     18  O   UNL     1     139.730  74.000 218.961 -0.01 +0.06    -0.273 OA 
DOCKED: BRANCH  17  19
DOCKED: ATOM     19  N   UNL     1     141.149  75.235 220.390 -0.09 +0.10    -0.338 N  
DOCKED: ATOM     20  C   UNL     1     142.336  74.421 220.615 -0.23 -0.04    +0.120 C  
DOCKED: ATOM     21  C   UNL     1     141.225  76.653 220.490 -0.24 -0.04    +0.088 C  
DOCKED: ATOM     22  C   UNL     1     143.591  75.007 220.072 -0.39 -0.01    +0.022 C  
DOCKED: ATOM     23  C   UNL     1     142.478  77.246 219.901 -0.26 -0.02    +0.025 C  
DOCKED: ATOM     24  C   UNL     1     143.357  76.223 219.234 -0.38 -0.00    +0.004 C  
DOCKED: BRANCH  21  25
DOCKED: ATOM     25  C   UNL     1     141.040  77.222 221.866 -0.37 -0.01    +0.012 C  
DOCKED: ATOM     26  C   UNL     1     139.650  77.370 222.342 -0.35 -0.00    +0.006 C  
DOCKED: ATOM     27  C   UNL     1     141.764  78.552 222.064 -0.40 -0.00    +0.006 C  
DOCKED: ATOM     28  C   UNL     1     139.210  78.826 222.372 -0.29 -0.00    +0.000 C  
DOCKED: ATOM     29  C   UNL     1     141.381  78.997 223.481 -0.60 -0.00    +0.000 C  
DOCKED: ATOM     30  C   UNL     1     139.959  79.494 223.501 -0.46 -0.00    +0.000 C  
DOCKED: ENDBRANCH  21  25
DOCKED: ENDBRANCH  17  19
DOCKED: ENDBRANCH   1  17
DOCKED: TORSDOF 5
DOCKED: TER
DOCKED: ENDMDL
________________________________________________________________________________


    FINAL DOCKED STATE:
    ________________________


Run:   18 / 20
Time taken for this run:   0.047s

DOCKED: MODEL        18
DOCKED: USER    Run = 18
DOCKED: USER
DOCKED: USER    Estimated Free Energy of Binding    =  -9.41 kcal/mol  [=(1)+(2)+(3)-(4)]
DOCKED: USER
DOCKED: USER    (1) Final Intermolecular Energy     = -10.90 kcal/mol
DOCKED: USER        vdW + Hbond + desolv Energy     = -10.89 kcal/mol
DOCKED: USER        Electrostatic Energy            =  -0.01 kcal/mol
DOCKED: USER        Moving Ligand-Fixed Receptor    = -10.90 kcal/mol
DOCKED: USER        Moving Ligand-Moving Receptor   =  +0.00 kcal/mol
DOCKED: USER    (2) Final Total Internal Energy     =  -1.70 kcal/mol
DOCKED: USER    (3) Torsional Free Energy           =  +1.49 kcal/mol
DOCKED: USER    (4) Unbound System's Energy         =  -1.70 kcal/mol
DOCKED: USER
DOCKED: USER
DOCKED: REMARK SMILES O=C(NCC(=O)N1CCCC[C@@H]1C1CCCCC1)c1ccc2cc(Cl)ccc2n1
DOCKED: REMARK SMILES IDX 4 1 3 2 2 3 1 4 19 6 20 7 29 8 21 9 28 10 22 11 27 12 23 13
DOCKED: REMARK SMILES IDX 26 14 24 15 25 16 5 17 6 18 7 19 8 20 12 21 9 22 11 23 10 24
DOCKED: REMARK SMILES IDX 13 25 14 26 18 27 15 28 17 29 16 30
DOCKED: REMARK H PARENT 3 5
DOCKED: USER                              x       y       z     vdW  Elec       q    Type
DOCKED: USER                           _______ _______ _______ _____ _____    ______ ____
DOCKED: ROOT
DOCKED: ATOM      1  C   UNL     1     139.173  74.692 221.214 -0.16 -0.05    +0.216 C  
DOCKED: ENDROOT
DOCKED: BRANCH   1   2
DOCKED: ATOM      2  N   UNL     1     139.394  73.750 222.307 -0.10 +0.07    -0.342 N  
DOCKED: ATOM      3  C   UNL     1     139.416  72.365 222.071 -0.17 -0.05    +0.270 C  
DOCKED: ATOM      4  O   UNL     1     139.250  71.844 220.918 -0.05 +0.05    -0.268 OA 
DOCKED: ATOM      5  H   UNL     1     139.542  74.072 223.301 -0.48 -0.02    +0.164 HD 
DOCKED: BRANCH   3   6
DOCKED: ATOM      6  C   UNL     1     139.640  71.440 223.197 -0.28 -0.03    +0.128 A  
DOCKED: ATOM      7  C   UNL     1     139.351  70.100 223.102 -0.23 -0.01    +0.035 A  
DOCKED: ATOM      8  N   UNL     1     140.144  71.892 224.374 -0.24 +0.05    -0.243 NA 
DOCKED: ATOM      9  C   UNL     1     139.549  69.208 224.135 -0.26 -0.00    +0.013 A  
DOCKED: ATOM     10  C   UNL     1     140.352  71.042 225.414 -0.50 -0.01    +0.071 A  
DOCKED: ATOM     11  C   UNL     1     140.065  69.705 225.321 -0.44 -0.00    +0.002 A  
DOCKED: ATOM     12  C   UNL     1     140.869  71.506 226.617 -0.69 -0.00    +0.030 A  
DOCKED: ATOM     13  C   UNL     1     140.259  68.805 226.348 -0.54 -0.01    +0.030 A  
DOCKED: ATOM     14  C   UNL     1     141.074  70.627 227.666 -0.63 -0.00    +0.023 A  
DOCKED: ATOM     15  C   UNL     1     140.776  69.275 227.548 -0.58 -0.01    +0.041 A  
DOCKED: ATOM     16  Cl  UNL     1     141.030  68.147 228.866 -0.60 +0.02    -0.084 Cl 
DOCKED: ENDBRANCH   3   6
DOCKED: ENDBRANCH   1   2
DOCKED: BRANCH   1  17
DOCKED: ATOM     17  C   UNL     1     139.472  76.066 221.685 -0.21 -0.05    +0.242 C  
DOCKED: ATOM     18  O   UNL     1     138.618  76.584 222.476 -0.23 +0.06    -0.273 OA 
DOCKED: BRANCH  17  19
DOCKED: ATOM     19  N   UNL     1     140.645  76.761 221.276 -0.13 +0.12    -0.338 N  
DOCKED: ATOM     20  C   UNL     1     141.809  76.004 220.832 -0.16 -0.06    +0.120 C  
DOCKED: ATOM     21  C   UNL     1     140.685  78.184 221.298 -0.26 -0.03    +0.088 C  
DOCKED: ATOM     22  C   UNL     1     142.535  76.614 219.686 -0.35 -0.01    +0.022 C  
DOCKED: ATOM     23  C   UNL     1     141.383  78.799 220.114 -0.27 -0.01    +0.025 C  
DOCKED: ATOM     24  C   UNL     1     141.816  77.784 219.092 -0.26 -0.00    +0.004 C  
DOCKED: BRANCH  21  25
DOCKED: ATOM     25  C   UNL     1     141.243  78.803 222.545 -0.48 -0.00    +0.012 C  
DOCKED: ATOM     26  C   UNL     1     140.344  79.698 223.302 -0.47 -0.00    +0.006 C  
DOCKED: ATOM     27  C   UNL     1     142.565  79.530 222.310 -0.50 -0.00    +0.006 C  
DOCKED: ATOM     28  C   UNL     1     140.744  81.159 223.160 -0.44 -0.00    +0.000 C  
DOCKED: ATOM     29  C   UNL     1     142.913  80.154 223.667 -0.60 -0.00    +0.000 C  
DOCKED: ATOM     30  C   UNL     1     142.030  81.346 223.930 -0.57 -0.00    +0.000 C  
DOCKED: ENDBRANCH  21  25
DOCKED: ENDBRANCH  17  19
DOCKED: ENDBRANCH   1  17
DOCKED: TORSDOF 5
DOCKED: TER
DOCKED: ENDMDL
________________________________________________________________________________


    FINAL DOCKED STATE:
    ________________________


Run:   19 / 20
Time taken for this run:   0.047s

DOCKED: MODEL        19
DOCKED: USER    Run = 19
DOCKED: USER
DOCKED: USER    Estimated Free Energy of Binding    =  -8.89 kcal/mol  [=(1)+(2)+(3)-(4)]
DOCKED: USER
DOCKED: USER    (1) Final Intermolecular Energy     = -10.38 kcal/mol
DOCKED: USER        vdW + Hbond + desolv Energy     = -10.34 kcal/mol
DOCKED: USER        Electrostatic Energy            =  -0.04 kcal/mol
DOCKED: USER        Moving Ligand-Fixed Receptor    = -10.38 kcal/mol
DOCKED: USER        Moving Ligand-Moving Receptor   =  +0.00 kcal/mol
DOCKED: USER    (2) Final Total Internal Energy     =  -2.05 kcal/mol
DOCKED: USER    (3) Torsional Free Energy           =  +1.49 kcal/mol
DOCKED: USER    (4) Unbound System's Energy         =  -2.05 kcal/mol
DOCKED: USER
DOCKED: USER
DOCKED: REMARK SMILES O=C(NCC(=O)N1CCCC[C@@H]1C1CCCCC1)c1ccc2cc(Cl)ccc2n1
DOCKED: REMARK SMILES IDX 4 1 3 2 2 3 1 4 19 6 20 7 29 8 21 9 28 10 22 11 27 12 23 13
DOCKED: REMARK SMILES IDX 26 14 24 15 25 16 5 17 6 18 7 19 8 20 12 21 9 22 11 23 10 24
DOCKED: REMARK SMILES IDX 13 25 14 26 18 27 15 28 17 29 16 30
DOCKED: REMARK H PARENT 3 5
DOCKED: USER                              x       y       z     vdW  Elec       q    Type
DOCKED: USER                           _______ _______ _______ _____ _____    ______ ____
DOCKED: ROOT
DOCKED: ATOM      1  C   UNL     1     139.846  75.187 220.990 -0.17 -0.05    +0.216 C  
DOCKED: ENDROOT
DOCKED: BRANCH   1   2
DOCKED: ATOM      2  N   UNL     1     139.818  74.223 222.086 -0.11 +0.04    -0.342 N  
DOCKED: ATOM      3  C   UNL     1     140.115  72.869 221.861 -0.19 -0.04    +0.270 C  
DOCKED: ATOM      4  O   UNL     1     140.422  72.395 220.717 -0.09 +0.04    -0.268 OA 
DOCKED: ATOM      5  H   UNL     1     139.577  74.507 223.073 -0.51 -0.01    +0.164 HD 
DOCKED: BRANCH   3   6
DOCKED: ATOM      6  C   UNL     1     140.077  71.920 222.990 -0.29 -0.02    +0.128 A  
DOCKED: ATOM      7  C   UNL     1     139.532  70.665 222.863 -0.25 -0.01    +0.035 A  
DOCKED: ATOM      8  N   UNL     1     140.587  72.264 224.200 -0.07 +0.03    -0.243 NA 
DOCKED: ATOM      9  C   UNL     1     139.481  69.755 223.897 -0.29 -0.00    +0.013 A  
DOCKED: ATOM     10  C   UNL     1     140.554  71.392 225.242 -0.50 -0.01    +0.071 A  
DOCKED: ATOM     11  C   UNL     1     140.011  70.141 225.118 -0.44 -0.00    +0.002 A  
DOCKED: ATOM     12  C   UNL     1     141.076  71.747 226.480 -0.70 -0.00    +0.030 A  
DOCKED: ATOM     13  C   UNL     1     139.955  69.222 226.146 -0.49 -0.00    +0.030 A  
DOCKED: ATOM     14  C   UNL     1     141.035  70.847 227.530 -0.66 -0.00    +0.023 A  
DOCKED: ATOM     15  C   UNL     1     140.479  69.582 227.381 -0.57 -0.01    +0.041 A  
DOCKED: ATOM     16  Cl  UNL     1     140.417  68.429 228.700 -0.64 +0.02    -0.084 Cl 
DOCKED: ENDBRANCH   3   6
DOCKED: ENDBRANCH   1   2
DOCKED: BRANCH   1  17
DOCKED: ATOM     17  C   UNL     1     140.279  76.507 221.510 -0.23 -0.07    +0.242 C  
DOCKED: ATOM     18  O   UNL     1     140.047  76.725 222.743 -0.27 +0.05    -0.273 OA 
DOCKED: BRANCH  17  19
DOCKED: ATOM     19  N   UNL     1     140.916  77.469 220.677 -0.09 +0.14    -0.338 N  
DOCKED: ATOM     20  C   UNL     1     142.200  77.151 220.065 -0.27 -0.08    +0.120 C  
DOCKED: ATOM     21  C   UNL     1     140.307  78.734 220.440 -0.15 -0.03    +0.088 C  
DOCKED: ATOM     22  C   UNL     1     142.357  77.655 218.675 -0.30 -0.01    +0.022 C  
DOCKED: ATOM     23  C   UNL     1     140.431  79.222 219.021 -0.12 -0.01    +0.025 C  
DOCKED: ATOM     24  C   UNL     1     141.094  78.224 218.111 -0.14 -0.00    +0.004 C  
DOCKED: BRANCH  21  25
DOCKED: ATOM     25  C   UNL     1     140.729  79.844 221.356 -0.29 -0.00    +0.012 C  
DOCKED: ATOM     26  C   UNL     1     142.175  80.144 221.414 -0.40 -0.00    +0.006 C  
DOCKED: ATOM     27  C   UNL     1     140.214  79.669 222.782 -0.40 -0.00    +0.006 C  
DOCKED: ATOM     28  C   UNL     1     142.800  79.684 222.721 -0.60 -0.00    +0.000 C  
DOCKED: ATOM     29  C   UNL     1     140.820  80.842 223.563 -0.48 -0.00    +0.000 C  
DOCKED: ATOM     30  C   UNL     1     142.286  80.599 223.808 -0.66 -0.00    +0.000 C  
DOCKED: ENDBRANCH  21  25
DOCKED: ENDBRANCH  17  19
DOCKED: ENDBRANCH   1  17
DOCKED: TORSDOF 5
DOCKED: TER
DOCKED: ENDMDL
________________________________________________________________________________


    FINAL DOCKED STATE:
    ________________________


Run:   20 / 20
Time taken for this run:   0.047s

DOCKED: MODEL        20
DOCKED: USER    Run = 20
DOCKED: USER
DOCKED: USER    Estimated Free Energy of Binding    =  -8.45 kcal/mol  [=(1)+(2)+(3)-(4)]
DOCKED: USER
DOCKED: USER    (1) Final Intermolecular Energy     =  -9.95 kcal/mol
DOCKED: USER        vdW + Hbond + desolv Energy     =  -9.86 kcal/mol
DOCKED: USER        Electrostatic Energy            =  -0.09 kcal/mol
DOCKED: USER        Moving Ligand-Fixed Receptor    =  -9.95 kcal/mol
DOCKED: USER        Moving Ligand-Moving Receptor   =  +0.00 kcal/mol
DOCKED: USER    (2) Final Total Internal Energy     =  -1.82 kcal/mol
DOCKED: USER    (3) Torsional Free Energy           =  +1.49 kcal/mol
DOCKED: USER    (4) Unbound System's Energy         =  -1.82 kcal/mol
DOCKED: USER
DOCKED: USER
DOCKED: REMARK SMILES O=C(NCC(=O)N1CCCC[C@@H]1C1CCCCC1)c1ccc2cc(Cl)ccc2n1
DOCKED: REMARK SMILES IDX 4 1 3 2 2 3 1 4 19 6 20 7 29 8 21 9 28 10 22 11 27 12 23 13
DOCKED: REMARK SMILES IDX 26 14 24 15 25 16 5 17 6 18 7 19 8 20 12 21 9 22 11 23 10 24
DOCKED: REMARK SMILES IDX 13 25 14 26 18 27 15 28 17 29 16 30
DOCKED: REMARK H PARENT 3 5
DOCKED: USER                              x       y       z     vdW  Elec       q    Type
DOCKED: USER                           _______ _______ _______ _____ _____    ______ ____
DOCKED: ROOT
DOCKED: ATOM      1  C   UNL     1     138.917  72.307 221.891 -0.14 -0.05    +0.216 C  
DOCKED: ENDROOT
DOCKED: BRANCH   1   2
DOCKED: ATOM      2  N   UNL     1     139.313  73.711 221.938 -0.14 +0.07    -0.342 N  
DOCKED: ATOM      3  C   UNL     1     140.337  74.200 221.111 -0.17 -0.05    +0.270 C  
DOCKED: ATOM      4  O   UNL     1     140.979  73.473 220.281 -0.09 +0.05    -0.268 OA 
DOCKED: ATOM      5  H   UNL     1     138.848  74.401 222.589 -0.44 -0.06    +0.164 HD 
DOCKED: BRANCH   3   6
DOCKED: ATOM      6  C   UNL     1     140.714  75.624 221.184 -0.26 -0.04    +0.128 A  
DOCKED: ATOM      7  C   UNL     1     141.662  76.166 220.350 -0.26 -0.02    +0.035 A  
DOCKED: ATOM      8  N   UNL     1     140.126  76.449 222.087 -0.26 +0.06    -0.243 NA 
DOCKED: ATOM      9  C   UNL     1     142.036  77.492 220.392 -0.30 -0.01    +0.013 A  
DOCKED: ATOM     10  C   UNL     1     140.470  77.762 222.158 -0.35 -0.02    +0.071 A  
DOCKED: ATOM     11  C   UNL     1     141.416  78.304 221.327 -0.36 -0.00    +0.002 A  
DOCKED: ATOM     12  C   UNL     1     139.867  78.605 223.083 -0.36 -0.01    +0.030 A  
DOCKED: ATOM     13  C   UNL     1     141.798  79.630 221.360 -0.39 -0.01    +0.030 A  
DOCKED: ATOM     14  C   UNL     1     140.229  79.939 223.141 -0.41 -0.00    +0.023 A  
DOCKED: ATOM     15  C   UNL     1     141.191  80.468 222.287 -0.41 -0.01    +0.041 A  
DOCKED: ATOM     16  Cl  UNL     1     141.663  82.155 222.346 -0.23 +0.01    -0.084 Cl 
DOCKED: ENDBRANCH   3   6
DOCKED: ENDBRANCH   1   2
DOCKED: BRANCH   1  17
DOCKED: ATOM     17  C   UNL     1     139.830  71.513 222.749 -0.22 -0.04    +0.242 C  
DOCKED: ATOM     18  O   UNL     1     141.058  71.519 222.413 -0.19 +0.02    -0.273 OA 
DOCKED: BRANCH  17  19
DOCKED: ATOM     19  N   UNL     1     139.356  70.789 223.879 -0.16 +0.07    -0.338 N  
DOCKED: ATOM     20  C   UNL     1     137.990  70.995 224.342 -0.09 -0.03    +0.120 C  
DOCKED: ATOM     21  C   UNL     1     140.208  69.870 224.555 -0.22 -0.02    +0.088 C  
DOCKED: ATOM     22  C   UNL     1     137.308  69.758 224.807 -0.23 -0.00    +0.022 C  
DOCKED: ATOM     23  C   UNL     1     139.524  68.599 224.987 -0.38 -0.00    +0.025 C  
DOCKED: ATOM     24  C   UNL     1     138.093  68.515 224.528 -0.18 -0.00    +0.004 C  
DOCKED: BRANCH  21  25
DOCKED: ATOM     25  C   UNL     1     140.961  70.419 225.730 -0.56 -0.00    +0.012 C  
DOCKED: ATOM     26  C   UNL     1     140.785  69.717 227.018 -0.59 -0.00    +0.006 C  
DOCKED: ATOM     27  C   UNL     1     140.713  71.909 225.953 -0.45 -0.00    +0.006 C  
DOCKED: ATOM     28  C   UNL     1     139.939  70.521 227.994 -0.64 -0.00    +0.000 C  
DOCKED: ATOM     29  C   UNL     1     141.491  72.247 227.231 -0.76 -0.00    +0.000 C  
DOCKED: ATOM     30  C   UNL     1     140.769  71.703 228.436 -0.63 -0.00    +0.000 C  
DOCKED: ENDBRANCH  21  25
DOCKED: ENDBRANCH  17  19
DOCKED: ENDBRANCH   1  17
DOCKED: TORSDOF 5
DOCKED: TER
DOCKED: ENDMDL
________________________________________________________________________________


    CLUSTERING HISTOGRAM
    ____________________


________________________________________________________________________________
     |           |     |           |     |
Clus | Lowest    | Run | Mean      | Num | Histogram
-ter | Binding   |     | Binding   | in  |
Rank | Energy    |     | Energy    | Clus|    5    10   15   20   25   30   35
_____|___________|_____|___________|_____|____:____|____:____|____:____|____:___
   1 |     -9.57 |  14 |     -9.22 |  16 |################
   2 |     -8.45 |  20 |     -8.12 |   3 |###
   3 |     -7.79 |  16 |     -7.79 |   1 |#
_____|___________|_____|___________|_____|______________________________________


    RMSD TABLE
    __________


_______________________________________________________________________
     |      |      |           |         |                 |
Rank | Sub- | Run  | Binding   | Cluster | Reference       | Grep
     | Rank |      | Energy    | RMSD    | RMSD            | Pattern
_____|______|______|___________|_________|_________________|___________
   1      1     14       -9.57      0.00    271.85           RANKING
   1      2      7       -9.56      0.09    271.82           RANKING
   1      3      1       -9.54      0.20    271.83           RANKING
   1      4      3       -9.51      0.28    271.85           RANKING
   1      5      9       -9.50      0.30    271.81           RANKING
   1      6     15       -9.48      0.26    271.82           RANKING
   1      7      5       -9.48      0.34    271.86           RANKING
   1      8      4       -9.48      0.50    271.67           RANKING
   1      9     18       -9.41      0.50    271.83           RANKING
   1     10     12       -9.35      0.44    271.92           RANKING
   1     11      8       -9.19      0.74    271.69           RANKING
   1     12     11       -9.17      0.74    271.66           RANKING
   1     13     19       -8.89      0.70    271.67           RANKING
   1     14     17       -8.59      1.11    271.20           RANKING
   1     15      6       -8.53      1.16    271.61           RANKING
   1     16      2       -8.34      1.32    271.54           RANKING
   2      1     20       -8.45      0.00    271.62           RANKING
   2      2     13       -7.95      1.84    270.82           RANKING
   2      3     10       -7.95      1.85    270.81           RANKING
   3      1     16       -7.79      0.00    270.83           RANKING

Run time 0.876 sec
Idle time 0.000 sec
