AutoDock-GPU version: v1.6

**********************************************************
**    AutoDock-GPU AUTODOCKTOOLS-COMPATIBLE DLG FILE    **
**********************************************************


    DOCKING PARAMETERS
    ________________________


Ligand file:                               /home/a/REINVENT4/ReinventStudies/pleaseWork/justmol2mol_4_Compounds_ontop/graph-dock-hn62wh/graph-DockGPU/node-autodockgpu/inputs/RYBYMNXWMJZUJI-LQFNOIFHNA-N.pdbqt
Grid fld file:                             /home/a/REINVENT4/ReinventStudies/mols/Rad51/maps/rad51_receptor.maps.fld

Random seed:                               42
Number of runs:                            20
Number of energy evaluations:              1613968
Number of generations:                     42000
Size of population:                        150
Rate of crossover:                         80.000000%
Tournament selection probability limit:    60.000000%
Rate of mutation:                          2.000000%
Maximal allowed delta movement:            +/- 6.000000A
Maximal allowed delta angle:               +/- 90.000000

Rate of local search:                      100.000000%
Maximal number of local search iterations: 300
Rho lower bound:                           0.010000
Spread of local search delta movement:     2.000000A
Spread of local search delta angle:        74.999999
Limit of consecutive successes/failures:   4

Handle symmetry during clustering:         YES
RMSD tolerance:                            2.000000A

Program call in command line was:          /home/a/REINVENT4/ReinventStudies/adgpu-v1.6_linux_x64_cuda12_128wi --filelist batch.txt --heuristics 1 --nrun 20 --psize 150 --lsit 300 --seed 42 --heurmax 12000000 


    GRID PARAMETERS
    ________________________


Receptor name:                             rad51_receptor
Number of grid points (x, y, z):           53, 53, 53
Grid center (x, y, z):                     139.950000, 75.640000, 221.970000A
Grid size (x, y, z):                       19.500000, 19.500000, 19.500000A
Grid spacing:                              0.375000A


    LIGAND PARAMETERS
    ________________________


Ligand name:                               /home/a/REINVENT4/ReinventStudies/pleaseWork/justmol2mol_4_Compounds_ontop/graph-dock-hn62wh/graph-DockGPU/node-autodockgpu/inputs/RYBYMNXWMJZUJI-LQFNOIFHNA-N
Number of atoms:                           29
Number of rotatable bonds:                 8
Number of atom types:                      7


    DUMMY DATA (only for ADT-compatibility)
    ________________________


DPF> outlev 1
DPF> ga_run 20
DPF> fld /home/a/REINVENT4/ReinventStudies/mols/Rad51/maps/rad51_receptor.maps.fld
DPF> move /home/a/REINVENT4/ReinventStudies/pleaseWork/justmol2mol_4_Compounds_ontop/graph-dock-hn62wh/graph-DockGPU/node-autodockgpu/inputs/RYBYMNXWMJZUJI-LQFNOIFHNA-N.pdbqt


    COUNTER STATES
    ________________________


Number of energy evaluations performed:    806519
Number of generations used:                55


    INPUT LIGAND PDBQT FILE:
    ________________________


INPUT-LIGAND-PDBQT: REMARK SMILES CN(CCCc1ccccn1)C(=O)CNC(=O)c1ccc2cc(Cl)ccc2n1
INPUT-LIGAND-PDBQT: REMARK SMILES IDX 1 1 2 2 3 3 4 4 5 5 6 6 7 7 11 8 8 9 10 10 9 11 12 12 13 13
INPUT-LIGAND-PDBQT: REMARK SMILES IDX 14 14 15 15 16 16 17 18 18 19 19 20 28 21 20 22 27 23 21 24
INPUT-LIGAND-PDBQT: REMARK SMILES IDX 26 25 22 26 25 27 23 28 24 29
INPUT-LIGAND-PDBQT: REMARK H PARENT 15 17
INPUT-LIGAND-PDBQT: ROOT
INPUT-LIGAND-PDBQT: ATOM      1  C   UNL     1      -2.366  -1.686  -1.216  1.00  0.00     0.146 C 
INPUT-LIGAND-PDBQT: ATOM      2  N   UNL     1      -1.923  -0.432  -0.720  1.00  0.00    -0.344 N 
INPUT-LIGAND-PDBQT: ENDROOT
INPUT-LIGAND-PDBQT: BRANCH   2   3
INPUT-LIGAND-PDBQT: ATOM      3  C   UNL     1      -2.673   0.784  -0.533  1.00  0.00     0.119 C 
INPUT-LIGAND-PDBQT: BRANCH   3   4
INPUT-LIGAND-PDBQT: ATOM      4  C   UNL     1      -3.179   0.864   0.873  1.00  0.00     0.028 C 
INPUT-LIGAND-PDBQT: BRANCH   4   5
INPUT-LIGAND-PDBQT: ATOM      5  C   UNL     1      -4.180  -0.214   1.154  1.00  0.00     0.058 C 
INPUT-LIGAND-PDBQT: BRANCH   5   6
INPUT-LIGAND-PDBQT: ATOM      6  C   UNL     1      -5.368   0.008   0.299  1.00  0.00     0.040 A 
INPUT-LIGAND-PDBQT: ATOM      7  C   UNL     1      -6.368   0.820   0.861  1.00  0.00     0.024 A 
INPUT-LIGAND-PDBQT: ATOM      8  N   UNL     1      -5.598  -0.459  -0.909  1.00  0.00    -0.261 NA
INPUT-LIGAND-PDBQT: ATOM      9  C   UNL     1      -7.526   1.106   0.171  1.00  0.00     0.003 A 
INPUT-LIGAND-PDBQT: ATOM     10  C   UNL     1      -6.703  -0.218  -1.634  1.00  0.00     0.111 A 
INPUT-LIGAND-PDBQT: ATOM     11  C   UNL     1      -7.689   0.579  -1.088  1.00  0.00     0.020 A 
INPUT-LIGAND-PDBQT: ENDBRANCH   5   6
INPUT-LIGAND-PDBQT: ENDBRANCH   4   5
INPUT-LIGAND-PDBQT: ENDBRANCH   3   4
INPUT-LIGAND-PDBQT: ENDBRANCH   2   3
INPUT-LIGAND-PDBQT: BRANCH   2  12
INPUT-LIGAND-PDBQT: ATOM     12  C   UNL     1      -0.512  -0.341  -0.382  1.00  0.00     0.241 C 
INPUT-LIGAND-PDBQT: ATOM     13  O   UNL     1      -0.007   0.715   0.065  1.00  0.00    -0.273 OA
INPUT-LIGAND-PDBQT: BRANCH  12  14
INPUT-LIGAND-PDBQT: ATOM     14  C   UNL     1       0.401  -1.501  -0.552  1.00  0.00     0.216 C 
INPUT-LIGAND-PDBQT: BRANCH  14  15
INPUT-LIGAND-PDBQT: ATOM     15  N   UNL     1       1.755  -1.161  -0.142  1.00  0.00    -0.342 N 
INPUT-LIGAND-PDBQT: ATOM     16  C   UNL     1       2.456  -0.110  -0.789  1.00  0.00     0.270 C 
INPUT-LIGAND-PDBQT: ATOM     17  H   UNL     1       2.259  -1.665   0.628  1.00  0.00     0.164 HD
INPUT-LIGAND-PDBQT: ATOM     18  O   UNL     1       1.921   0.557  -1.736  1.00  0.00    -0.268 OA
INPUT-LIGAND-PDBQT: BRANCH  16  19
INPUT-LIGAND-PDBQT: ATOM     19  C   UNL     1       3.815   0.218  -0.366  1.00  0.00     0.128 A 
INPUT-LIGAND-PDBQT: ATOM     20  C   UNL     1       4.512   1.237  -0.983  1.00  0.00     0.035 A 
INPUT-LIGAND-PDBQT: ATOM     21  N   UNL     1       4.407  -0.468   0.632  1.00  0.00    -0.243 NA
INPUT-LIGAND-PDBQT: ATOM     22  C   UNL     1       5.803   1.522  -0.555  1.00  0.00     0.013 A 
INPUT-LIGAND-PDBQT: ATOM     23  C   UNL     1       5.654  -0.225   1.077  1.00  0.00     0.071 A 
INPUT-LIGAND-PDBQT: ATOM     24  C   UNL     1       6.370   0.791   0.473  1.00  0.00     0.002 A 
INPUT-LIGAND-PDBQT: ATOM     25  C   UNL     1       6.166  -0.989   2.107  1.00  0.00     0.030 A 
INPUT-LIGAND-PDBQT: ATOM     26  C   UNL     1       7.645   1.020   0.947  1.00  0.00     0.030 A 
INPUT-LIGAND-PDBQT: ATOM     27  C   UNL     1       7.446  -0.725   2.549  1.00  0.00     0.023 A 
INPUT-LIGAND-PDBQT: ATOM     28  C   UNL     1       8.197   0.281   1.974  1.00  0.00     0.041 A 
INPUT-LIGAND-PDBQT: ATOM     29  Cl  UNL     1       9.804   0.553   2.589  1.00  0.00    -0.084 Cl
INPUT-LIGAND-PDBQT: ENDBRANCH  16  19
INPUT-LIGAND-PDBQT: ENDBRANCH  14  15
INPUT-LIGAND-PDBQT: ENDBRANCH  12  14
INPUT-LIGAND-PDBQT: ENDBRANCH   2  12
INPUT-LIGAND-PDBQT: TORSDOF 8


    FINAL DOCKED STATE:
    ________________________


Run:   1 / 20
Time taken for this run:   0.033s

DOCKED: MODEL        1
DOCKED: USER    Run = 1
DOCKED: USER
DOCKED: USER    Estimated Free Energy of Binding    =  -7.56 kcal/mol  [=(1)+(2)+(3)-(4)]
DOCKED: USER
DOCKED: USER    (1) Final Intermolecular Energy     =  -9.94 kcal/mol
DOCKED: USER        vdW + Hbond + desolv Energy     =  -9.95 kcal/mol
DOCKED: USER        Electrostatic Energy            =  +0.01 kcal/mol
DOCKED: USER        Moving Ligand-Fixed Receptor    =  -9.94 kcal/mol
DOCKED: USER        Moving Ligand-Moving Receptor   =  +0.00 kcal/mol
DOCKED: USER    (2) Final Total Internal Energy     =  -2.01 kcal/mol
DOCKED: USER    (3) Torsional Free Energy           =  +2.39 kcal/mol
DOCKED: USER    (4) Unbound System's Energy         =  -2.01 kcal/mol
DOCKED: USER
DOCKED: USER
DOCKED: REMARK SMILES CN(CCCc1ccccn1)C(=O)CNC(=O)c1ccc2cc(Cl)ccc2n1
DOCKED: REMARK SMILES IDX 1 1 2 2 3 3 4 4 5 5 6 6 7 7 11 8 8 9 10 10 9 11 12 12 13 13
DOCKED: REMARK SMILES IDX 14 14 15 15 16 16 17 18 18 19 19 20 28 21 20 22 27 23 21 24
DOCKED: REMARK SMILES IDX 26 25 22 26 25 27 23 28 24 29
DOCKED: REMARK H PARENT 15 17
DOCKED: USER                              x       y       z     vdW  Elec       q    Type
DOCKED: USER                           _______ _______ _______ _____ _____    ______ ____
DOCKED: ROOT
DOCKED: ATOM      1  C   UNL     1     138.528  78.107 221.007 -0.09 -0.03    +0.146 C  
DOCKED: ATOM      2  N   UNL     1     139.456  77.100 220.635 -0.03 +0.09    -0.344 N  
DOCKED: ENDROOT
DOCKED: BRANCH   2   3
DOCKED: ATOM      3  C   UNL     1     140.296  77.029 219.467 -0.08 -0.04    +0.119 C  
DOCKED: BRANCH   3   4
DOCKED: ATOM      4  C   UNL     1     141.650  77.588 219.772 -0.27 -0.02    +0.028 C  
DOCKED: BRANCH   4   5
DOCKED: ATOM      5  C   UNL     1     141.581  79.058 220.053 -0.26 -0.03    +0.058 C  
DOCKED: BRANCH   5   6
DOCKED: ATOM      6  C   UNL     1     141.768  79.272 221.506 -0.39 -0.02    +0.040 A  
DOCKED: ATOM      7  C   UNL     1     142.218  80.553 221.870 -0.47 -0.01    +0.024 A  
DOCKED: ATOM      8  N   UNL     1     141.567  78.417 222.485 -0.26 +0.12    -0.261 NA 
DOCKED: ATOM      9  C   UNL     1     142.433  80.885 223.190 -0.63 -0.00    +0.003 A  
DOCKED: ATOM     10  C   UNL     1     141.757  78.677 223.789 -0.52 -0.03    +0.111 A  
DOCKED: ATOM     11  C   UNL     1     142.198  79.933 224.154 -0.50 -0.00    +0.020 A  
DOCKED: ENDBRANCH   5   6
DOCKED: ENDBRANCH   4   5
DOCKED: ENDBRANCH   3   4
DOCKED: ENDBRANCH   2   3
DOCKED: BRANCH   2  12
DOCKED: ATOM     12  C   UNL     1     139.559  75.962 221.535 -0.20 -0.05    +0.241 C  
DOCKED: ATOM     13  O   UNL     1     139.942  76.090 222.721 -0.38 +0.04    -0.273 OA 
DOCKED: BRANCH  12  14
DOCKED: ATOM     14  C   UNL     1     139.212  74.588 221.087 -0.14 -0.05    +0.216 C  
DOCKED: BRANCH  14  15
DOCKED: ATOM     15  N   UNL     1     139.391  73.629 222.167 -0.12 +0.07    -0.342 N  
DOCKED: ATOM     16  C   UNL     1     139.328  72.236 221.904 -0.15 -0.05    +0.270 C  
DOCKED: ATOM     17  H   UNL     1     139.568  73.918 223.160 -0.51 -0.02    +0.164 HD 
DOCKED: ATOM     18  O   UNL     1     139.116  71.794 220.726 -0.04 +0.05    -0.268 OA 
DOCKED: BRANCH  16  19
DOCKED: ATOM     19  C   UNL     1     139.508  71.286 222.999 -0.26 -0.03    +0.128 A  
DOCKED: ATOM     20  C   UNL     1     139.092  69.977 222.865 -0.21 -0.01    +0.035 A  
DOCKED: ATOM     21  N   UNL     1     140.084  71.674 224.155 -0.27 +0.05    -0.243 NA 
DOCKED: ATOM     22  C   UNL     1     139.280  69.101 223.927 -0.27 -0.00    +0.013 A  
DOCKED: ATOM     23  C   UNL     1     140.284  70.859 225.207 -0.47 -0.01    +0.071 A  
DOCKED: ATOM     24  C   UNL     1     139.875  69.544 225.094 -0.41 -0.00    +0.002 A  
DOCKED: ATOM     25  C   UNL     1     140.883  71.359 226.346 -0.65 -0.00    +0.030 A  
DOCKED: ATOM     26  C   UNL     1     140.091  68.729 226.186 -0.53 -0.01    +0.030 A  
DOCKED: ATOM     27  C   UNL     1     141.080  70.508 227.414 -0.60 -0.00    +0.023 A  
DOCKED: ATOM     28  C   UNL     1     140.687  69.187 227.345 -0.58 -0.01    +0.041 A  
DOCKED: ATOM     29  Cl  UNL     1     140.971  68.176 228.735 -0.67 +0.02    -0.084 Cl 
DOCKED: ENDBRANCH  16  19
DOCKED: ENDBRANCH  14  15
DOCKED: ENDBRANCH  12  14
DOCKED: ENDBRANCH   2  12
DOCKED: TORSDOF 8
DOCKED: TER
DOCKED: ENDMDL
________________________________________________________________________________


    FINAL DOCKED STATE:
    ________________________


Run:   2 / 20
Time taken for this run:   0.033s

DOCKED: MODEL        2
DOCKED: USER    Run = 2
DOCKED: USER
DOCKED: USER    Estimated Free Energy of Binding    =  -7.54 kcal/mol  [=(1)+(2)+(3)-(4)]
DOCKED: USER
DOCKED: USER    (1) Final Intermolecular Energy     =  -9.93 kcal/mol
DOCKED: USER        vdW + Hbond + desolv Energy     =  -9.95 kcal/mol
DOCKED: USER        Electrostatic Energy            =  +0.02 kcal/mol
DOCKED: USER        Moving Ligand-Fixed Receptor    =  -9.93 kcal/mol
DOCKED: USER        Moving Ligand-Moving Receptor   =  +0.00 kcal/mol
DOCKED: USER    (2) Final Total Internal Energy     =  -1.94 kcal/mol
DOCKED: USER    (3) Torsional Free Energy           =  +2.39 kcal/mol
DOCKED: USER    (4) Unbound System's Energy         =  -1.94 kcal/mol
DOCKED: USER
DOCKED: USER
DOCKED: REMARK SMILES CN(CCCc1ccccn1)C(=O)CNC(=O)c1ccc2cc(Cl)ccc2n1
DOCKED: REMARK SMILES IDX 1 1 2 2 3 3 4 4 5 5 6 6 7 7 11 8 8 9 10 10 9 11 12 12 13 13
DOCKED: REMARK SMILES IDX 14 14 15 15 16 16 17 18 18 19 19 20 28 21 20 22 27 23 21 24
DOCKED: REMARK SMILES IDX 26 25 22 26 25 27 23 28 24 29
DOCKED: REMARK H PARENT 15 17
DOCKED: USER                              x       y       z     vdW  Elec       q    Type
DOCKED: USER                           _______ _______ _______ _____ _____    ______ ____
DOCKED: ROOT
DOCKED: ATOM      1  C   UNL     1     138.744  76.019 219.139 -0.02 -0.03    +0.146 C  
DOCKED: ATOM      2  N   UNL     1     139.342  76.392 220.371 -0.02 +0.09    -0.344 N  
DOCKED: ENDROOT
DOCKED: BRANCH   2   3
DOCKED: ATOM      3  C   UNL     1     139.842  77.680 220.781 -0.14 -0.04    +0.119 C  
DOCKED: BRANCH   3   4
DOCKED: ATOM      4  C   UNL     1     138.843  78.362 221.661 -0.19 -0.01    +0.028 C  
DOCKED: BRANCH   4   5
DOCKED: ATOM      5  C   UNL     1     139.296  78.381 223.088 -0.26 -0.01    +0.058 C  
DOCKED: BRANCH   5   6
DOCKED: ATOM      6  C   UNL     1     140.573  79.124 223.170 -0.45 -0.01    +0.040 A  
DOCKED: ATOM      7  C   UNL     1     140.453  80.492 223.468 -0.45 -0.00    +0.024 A  
DOCKED: ATOM      8  N   UNL     1     141.793  78.664 222.998 -0.32 +0.11    -0.261 NA 
DOCKED: ATOM      9  C   UNL     1     141.565  81.300 223.573 -0.55 -0.00    +0.003 A  
DOCKED: ATOM     10  C   UNL     1     142.916  79.396 223.087 -0.44 -0.05    +0.111 A  
DOCKED: ATOM     11  C   UNL     1     142.805  80.740 223.380 -0.62 -0.00    +0.020 A  
DOCKED: ENDBRANCH   5   6
DOCKED: ENDBRANCH   4   5
DOCKED: ENDBRANCH   3   4
DOCKED: ENDBRANCH   2   3
DOCKED: BRANCH   2  12
DOCKED: ATOM     12  C   UNL     1     139.509  75.329 221.348 -0.18 -0.05    +0.241 C  
DOCKED: ATOM     13  O   UNL     1     140.283  75.447 222.326 -0.56 +0.03    -0.273 OA 
DOCKED: BRANCH  12  14
DOCKED: ATOM     14  C   UNL     1     138.766  74.048 221.232 -0.13 -0.05    +0.216 C  
DOCKED: BRANCH  14  15
DOCKED: ATOM     15  N   UNL     1     139.108  73.148 222.323 -0.10 +0.09    -0.342 N  
DOCKED: ATOM     16  C   UNL     1     138.748  71.777 222.259 -0.13 -0.06    +0.270 C  
DOCKED: ATOM     17  H   UNL     1     139.620  73.466 223.182 -0.45 -0.03    +0.164 HD 
DOCKED: ATOM     18  O   UNL     1     138.123  71.303 221.253 -0.04 +0.05    -0.268 OA 
DOCKED: BRANCH  16  19
DOCKED: ATOM     19  C   UNL     1     139.097  70.887 223.364 -0.25 -0.03    +0.128 A  
DOCKED: ATOM     20  C   UNL     1     138.789  69.543 223.303 -0.23 -0.01    +0.035 A  
DOCKED: ATOM     21  N   UNL     1     139.726  71.365 224.456 -0.26 +0.05    -0.243 NA 
DOCKED: ATOM     22  C   UNL     1     139.136  68.726 224.372 -0.34 -0.00    +0.013 A  
DOCKED: ATOM     23  C   UNL     1     140.080  70.609 225.513 -0.46 -0.01    +0.071 A  
DOCKED: ATOM     24  C   UNL     1     139.780  69.261 225.473 -0.44 -0.00    +0.002 A  
DOCKED: ATOM     25  C   UNL     1     140.721  71.200 226.583 -0.65 -0.00    +0.030 A  
DOCKED: ATOM     26  C   UNL     1     140.153  68.508 226.567 -0.59 -0.01    +0.030 A  
DOCKED: ATOM     27  C   UNL     1     141.075  70.409 227.657 -0.60 -0.00    +0.023 A  
DOCKED: ATOM     28  C   UNL     1     140.795  69.057 227.659 -0.59 -0.01    +0.041 A  
DOCKED: ATOM     29  Cl  UNL     1     141.276  68.126 229.051 -0.48 +0.02    -0.084 Cl 
DOCKED: ENDBRANCH  16  19
DOCKED: ENDBRANCH  14  15
DOCKED: ENDBRANCH  12  14
DOCKED: ENDBRANCH   2  12
DOCKED: TORSDOF 8
DOCKED: TER
DOCKED: ENDMDL
________________________________________________________________________________


    FINAL DOCKED STATE:
    ________________________


Run:   3 / 20
Time taken for this run:   0.033s

DOCKED: MODEL        3
DOCKED: USER    Run = 3
DOCKED: USER
DOCKED: USER    Estimated Free Energy of Binding    =  -8.00 kcal/mol  [=(1)+(2)+(3)-(4)]
DOCKED: USER
DOCKED: USER    (1) Final Intermolecular Energy     = -10.39 kcal/mol
DOCKED: USER        vdW + Hbond + desolv Energy     = -10.34 kcal/mol
DOCKED: USER        Electrostatic Energy            =  -0.04 kcal/mol
DOCKED: USER        Moving Ligand-Fixed Receptor    = -10.39 kcal/mol
DOCKED: USER        Moving Ligand-Moving Receptor   =  +0.00 kcal/mol
DOCKED: USER    (2) Final Total Internal Energy     =  -2.21 kcal/mol
DOCKED: USER    (3) Torsional Free Energy           =  +2.39 kcal/mol
DOCKED: USER    (4) Unbound System's Energy         =  -2.21 kcal/mol
DOCKED: USER
DOCKED: USER
DOCKED: REMARK SMILES CN(CCCc1ccccn1)C(=O)CNC(=O)c1ccc2cc(Cl)ccc2n1
DOCKED: REMARK SMILES IDX 1 1 2 2 3 3 4 4 5 5 6 6 7 7 11 8 8 9 10 10 9 11 12 12 13 13
DOCKED: REMARK SMILES IDX 14 14 15 15 16 16 17 18 18 19 19 20 28 21 20 22 27 23 21 24
DOCKED: REMARK SMILES IDX 26 25 22 26 25 27 23 28 24 29
DOCKED: REMARK H PARENT 15 17
DOCKED: USER                              x       y       z     vdW  Elec       q    Type
DOCKED: USER                           _______ _______ _______ _____ _____    ______ ____
DOCKED: ROOT
DOCKED: ATOM      1  C   UNL     1     138.149  68.154 223.030 -0.19 -0.02    +0.146 C  
DOCKED: ATOM      2  N   UNL     1     138.413  69.080 224.073 -0.13 +0.04    -0.344 N  
DOCKED: ENDROOT
DOCKED: BRANCH   2   3
DOCKED: ATOM      3  C   UNL     1     138.412  68.864 225.498 -0.30 -0.01    +0.119 C  
DOCKED: BRANCH   3   4
DOCKED: ATOM      4  C   UNL     1     139.555  67.977 225.883 -0.57 -0.00    +0.028 C  
DOCKED: BRANCH   4   5
DOCKED: ATOM      5  C   UNL     1     140.021  68.265 227.277 -0.62 -0.01    +0.058 C  
DOCKED: BRANCH   5   6
DOCKED: ATOM      6  C   UNL     1     140.344  69.706 227.381 -0.57 -0.01    +0.040 A  
DOCKED: ATOM      7  C   UNL     1     141.087  70.232 226.311 -0.55 -0.00    +0.024 A  
DOCKED: ATOM      8  N   UNL     1     140.023  70.542 228.344 -0.36 +0.05    -0.261 NA 
DOCKED: ATOM      9  C   UNL     1     141.455  71.560 226.283 -0.66 -0.00    +0.003 A  
DOCKED: ATOM     10  C   UNL     1     140.350  71.845 228.377 -0.63 -0.03    +0.111 A  
DOCKED: ATOM     11  C   UNL     1     141.080  72.369 227.329 -0.76 -0.00    +0.020 A  
DOCKED: ENDBRANCH   5   6
DOCKED: ENDBRANCH   4   5
DOCKED: ENDBRANCH   3   4
DOCKED: ENDBRANCH   2   3
DOCKED: BRANCH   2  12
DOCKED: ATOM     12  C   UNL     1     138.691  70.445 223.660 -0.19 -0.05    +0.241 C  
DOCKED: ATOM     13  O   UNL     1     138.213  71.430 224.269 -0.17 +0.08    -0.273 OA 
DOCKED: BRANCH  12  14
DOCKED: ATOM     14  C   UNL     1     139.560  70.738 222.490 -0.16 -0.04    +0.216 C  
DOCKED: BRANCH  14  15
DOCKED: ATOM     15  N   UNL     1     139.820  72.165 222.379 -0.16 +0.06    -0.342 N  
DOCKED: ATOM     16  C   UNL     1     140.748  72.652 221.423 -0.17 -0.03    +0.270 C  
DOCKED: ATOM     17  H   UNL     1     139.346  72.878 222.987 -0.29 -0.05    +0.164 HD 
DOCKED: ATOM     18  O   UNL     1     141.371  71.858 220.642 -0.11 +0.04    -0.268 OA 
DOCKED: BRANCH  16  19
DOCKED: ATOM     19  C   UNL     1     140.999  74.088 221.326 -0.25 -0.02    +0.128 A  
DOCKED: ATOM     20  C   UNL     1     142.018  74.567 220.528 -0.27 -0.01    +0.035 A  
DOCKED: ATOM     21  N   UNL     1     140.239  74.964 222.012 -0.66 +0.02    -0.243 NA 
DOCKED: ATOM     22  C   UNL     1     142.227  75.939 220.459 -0.25 -0.01    +0.013 A  
DOCKED: ATOM     23  C   UNL     1     140.408  76.299 221.974 -0.35 -0.02    +0.071 A  
DOCKED: ATOM     24  C   UNL     1     141.422  76.801 221.182 -0.28 -0.00    +0.002 A  
DOCKED: ATOM     25  C   UNL     1     139.572  77.108 222.719 -0.25 -0.01    +0.030 A  
DOCKED: ATOM     26  C   UNL     1     141.575  78.171 221.160 -0.33 -0.02    +0.030 A  
DOCKED: ATOM     27  C   UNL     1     139.761  78.474 222.667 -0.35 -0.00    +0.023 A  
DOCKED: ATOM     28  C   UNL     1     140.763  79.018 221.888 -0.32 -0.01    +0.041 A  
DOCKED: ATOM     29  Cl  UNL     1     140.937  80.751 221.875 -0.46 +0.02    -0.084 Cl 
DOCKED: ENDBRANCH  16  19
DOCKED: ENDBRANCH  14  15
DOCKED: ENDBRANCH  12  14
DOCKED: ENDBRANCH   2  12
DOCKED: TORSDOF 8
DOCKED: TER
DOCKED: ENDMDL
________________________________________________________________________________


    FINAL DOCKED STATE:
    ________________________


Run:   4 / 20
Time taken for this run:   0.033s

DOCKED: MODEL        4
DOCKED: USER    Run = 4
DOCKED: USER
DOCKED: USER    Estimated Free Energy of Binding    =  -7.38 kcal/mol  [=(1)+(2)+(3)-(4)]
DOCKED: USER
DOCKED: USER    (1) Final Intermolecular Energy     =  -9.77 kcal/mol
DOCKED: USER        vdW + Hbond + desolv Energy     =  -9.76 kcal/mol
DOCKED: USER        Electrostatic Energy            =  -0.01 kcal/mol
DOCKED: USER        Moving Ligand-Fixed Receptor    =  -9.77 kcal/mol
DOCKED: USER        Moving Ligand-Moving Receptor   =  +0.00 kcal/mol
DOCKED: USER    (2) Final Total Internal Energy     =  -2.07 kcal/mol
DOCKED: USER    (3) Torsional Free Energy           =  +2.39 kcal/mol
DOCKED: USER    (4) Unbound System's Energy         =  -2.07 kcal/mol
DOCKED: USER
DOCKED: USER
DOCKED: REMARK SMILES CN(CCCc1ccccn1)C(=O)CNC(=O)c1ccc2cc(Cl)ccc2n1
DOCKED: REMARK SMILES IDX 1 1 2 2 3 3 4 4 5 5 6 6 7 7 11 8 8 9 10 10 9 11 12 12 13 13
DOCKED: REMARK SMILES IDX 14 14 15 15 16 16 17 18 18 19 19 20 28 21 20 22 27 23 21 24
DOCKED: REMARK SMILES IDX 26 25 22 26 25 27 23 28 24 29
DOCKED: REMARK H PARENT 15 17
DOCKED: USER                              x       y       z     vdW  Elec       q    Type
DOCKED: USER                           _______ _______ _______ _____ _____    ______ ____
DOCKED: ROOT
DOCKED: ATOM      1  C   UNL     1     141.772  77.118 220.134 -0.24 -0.08    +0.146 C  
DOCKED: ATOM      2  N   UNL     1     140.400  77.138 220.495 -0.05 +0.12    -0.344 N  
DOCKED: ENDROOT
DOCKED: BRANCH   2   3
DOCKED: ATOM      3  C   UNL     1     139.356  78.020 220.038 -0.07 -0.03    +0.119 C  
DOCKED: BRANCH   3   4
DOCKED: ATOM      4  C   UNL     1     138.597  78.567 221.206 -0.13 -0.01    +0.028 C  
DOCKED: BRANCH   4   5
DOCKED: ATOM      5  C   UNL     1     138.983  79.985 221.492 -0.15 -0.01    +0.058 C  
DOCKED: BRANCH   5   6
DOCKED: ATOM      6  C   UNL     1     140.315  79.993 222.138 -0.29 -0.01    +0.040 A  
DOCKED: ATOM      7  C   UNL     1     140.412  79.238 223.320 -0.45 -0.00    +0.024 A  
DOCKED: ATOM      8  N   UNL     1     141.405  80.614 221.745 -0.22 +0.08    -0.261 NA 
DOCKED: ATOM      9  C   UNL     1     141.596  79.161 224.022 -0.58 -0.00    +0.003 A  
DOCKED: ATOM     10  C   UNL     1     142.588  80.580 222.381 -0.48 -0.04    +0.111 A  
DOCKED: ATOM     11  C   UNL     1     142.690  79.840 223.543 -0.59 -0.01    +0.020 A  
DOCKED: ENDBRANCH   5   6
DOCKED: ENDBRANCH   4   5
DOCKED: ENDBRANCH   3   4
DOCKED: ENDBRANCH   2   3
DOCKED: BRANCH   2  12
DOCKED: ATOM     12  C   UNL     1     139.986  76.160 221.488 -0.22 -0.06    +0.241 C  
DOCKED: ATOM     13  O   UNL     1     140.107  76.374 222.716 -0.34 +0.05    -0.273 OA 
DOCKED: BRANCH  12  14
DOCKED: ATOM     14  C   UNL     1     139.397  74.855 221.090 -0.16 -0.05    +0.216 C  
DOCKED: BRANCH  14  15
DOCKED: ATOM     15  N   UNL     1     139.514  73.883 222.166 -0.13 +0.06    -0.342 N  
DOCKED: ATOM     16  C   UNL     1     139.550  72.494 221.874 -0.17 -0.05    +0.270 C  
DOCKED: ATOM     17  H   UNL     1     139.573  74.158 223.176 -0.51 -0.01    +0.164 HD 
DOCKED: ATOM     18  O   UNL     1     139.482  72.069 220.673 -0.05 +0.05    -0.268 OA 
DOCKED: BRANCH  16  19
DOCKED: ATOM     19  C   UNL     1     139.666  71.531 222.966 -0.27 -0.02    +0.128 A  
DOCKED: ATOM     20  C   UNL     1     139.240  70.229 222.797 -0.21 -0.01    +0.035 A  
DOCKED: ATOM     21  N   UNL     1     140.192  71.898 224.152 -0.26 +0.04    -0.243 NA 
DOCKED: ATOM     22  C   UNL     1     139.366  69.339 223.857 -0.26 -0.00    +0.013 A  
DOCKED: ATOM     23  C   UNL     1     140.332  71.070 225.203 -0.49 -0.01    +0.071 A  
DOCKED: ATOM     24  C   UNL     1     139.911  69.761 225.056 -0.41 -0.00    +0.002 A  
DOCKED: ATOM     25  C   UNL     1     140.883  71.550 226.374 -0.66 -0.00    +0.030 A  
DOCKED: ATOM     26  C   UNL     1     140.066  68.932 226.148 -0.51 -0.01    +0.030 A  
DOCKED: ATOM     27  C   UNL     1     141.018  70.685 227.441 -0.63 -0.00    +0.023 A  
DOCKED: ATOM     28  C   UNL     1     140.611  69.369 227.338 -0.57 -0.01    +0.041 A  
DOCKED: ATOM     29  Cl  UNL     1     140.816  68.340 228.729 -0.68 +0.02    -0.084 Cl 
DOCKED: ENDBRANCH  16  19
DOCKED: ENDBRANCH  14  15
DOCKED: ENDBRANCH  12  14
DOCKED: ENDBRANCH   2  12
DOCKED: TORSDOF 8
DOCKED: TER
DOCKED: ENDMDL
________________________________________________________________________________


    FINAL DOCKED STATE:
    ________________________


Run:   5 / 20
Time taken for this run:   0.033s

DOCKED: MODEL        5
DOCKED: USER    Run = 5
DOCKED: USER
DOCKED: USER    Estimated Free Energy of Binding    =  -7.53 kcal/mol  [=(1)+(2)+(3)-(4)]
DOCKED: USER
DOCKED: USER    (1) Final Intermolecular Energy     =  -9.91 kcal/mol
DOCKED: USER        vdW + Hbond + desolv Energy     =  -9.87 kcal/mol
DOCKED: USER        Electrostatic Energy            =  -0.05 kcal/mol
DOCKED: USER        Moving Ligand-Fixed Receptor    =  -9.91 kcal/mol
DOCKED: USER        Moving Ligand-Moving Receptor   =  +0.00 kcal/mol
DOCKED: USER    (2) Final Total Internal Energy     =  -1.72 kcal/mol
DOCKED: USER    (3) Torsional Free Energy           =  +2.39 kcal/mol
DOCKED: USER    (4) Unbound System's Energy         =  -1.72 kcal/mol
DOCKED: USER
DOCKED: USER
DOCKED: REMARK SMILES CN(CCCc1ccccn1)C(=O)CNC(=O)c1ccc2cc(Cl)ccc2n1
DOCKED: REMARK SMILES IDX 1 1 2 2 3 3 4 4 5 5 6 6 7 7 11 8 8 9 10 10 9 11 12 12 13 13
DOCKED: REMARK SMILES IDX 14 14 15 15 16 16 17 18 18 19 19 20 28 21 20 22 27 23 21 24
DOCKED: REMARK SMILES IDX 26 25 22 26 25 27 23 28 24 29
DOCKED: REMARK H PARENT 15 17
DOCKED: USER                              x       y       z     vdW  Elec       q    Type
DOCKED: USER                           _______ _______ _______ _____ _____    ______ ____
DOCKED: ROOT
DOCKED: ATOM      1  C   UNL     1     137.184  68.234 222.794 -0.09 -0.02    +0.146 C  
DOCKED: ATOM      2  N   UNL     1     137.700  69.391 223.432 -0.08 +0.05    -0.344 N  
DOCKED: ENDROOT
DOCKED: BRANCH   2   3
DOCKED: ATOM      3  C   UNL     1     139.063  69.700 223.783 -0.24 -0.02    +0.119 C  
DOCKED: BRANCH   3   4
DOCKED: ATOM      4  C   UNL     1     139.558  68.738 224.816 -0.33 -0.00    +0.028 C  
DOCKED: BRANCH   4   5
DOCKED: ATOM      5  C   UNL     1     138.994  69.051 226.168 -0.41 -0.01    +0.058 C  
DOCKED: BRANCH   5   6
DOCKED: ATOM      6  C   UNL     1     139.763  70.171 226.755 -0.45 -0.01    +0.040 A  
DOCKED: ATOM      7  C   UNL     1     140.724  70.748 225.907 -0.57 -0.00    +0.024 A  
DOCKED: ATOM      8  N   UNL     1     139.657  70.686 227.961 -0.27 +0.04    -0.261 NA 
DOCKED: ATOM      9  C   UNL     1     141.510  71.799 226.329 -0.63 -0.00    +0.003 A  
DOCKED: ATOM     10  C   UNL     1     140.390  71.708 228.433 -0.58 -0.03    +0.111 A  
DOCKED: ATOM     11  C   UNL     1     141.336  72.279 227.605 -0.80 -0.00    +0.020 A  
DOCKED: ENDBRANCH   5   6
DOCKED: ENDBRANCH   4   5
DOCKED: ENDBRANCH   3   4
DOCKED: ENDBRANCH   2   3
DOCKED: BRANCH   2  12
DOCKED: ATOM     12  C   UNL     1     136.724  70.396 223.821 -0.14 -0.04    +0.241 C  
DOCKED: ATOM     13  O   UNL     1     136.868  71.605 223.527 -0.14 +0.07    -0.273 OA 
DOCKED: BRANCH  12  14
DOCKED: ATOM     14  C   UNL     1     135.503  70.033 224.588 -0.15 -0.02    +0.216 C  
DOCKED: BRANCH  14  15
DOCKED: ATOM     15  N   UNL     1     134.848  71.221 225.113 -0.06 +0.03    -0.342 N  
DOCKED: ATOM     16  C   UNL     1     133.805  71.100 226.068 -0.21 -0.02    +0.270 C  
DOCKED: ATOM     17  H   UNL     1     135.109  72.193 224.815 +0.04 -0.02    +0.164 HD 
DOCKED: ATOM     18  O   UNL     1     133.421  69.957 226.487 -0.57 -0.00    -0.268 OA 
DOCKED: BRANCH  16  19
DOCKED: ATOM     19  C   UNL     1     133.156  72.302 226.584 -0.32 -0.01    +0.128 A  
DOCKED: ATOM     20  C   UNL     1     131.961  72.212 227.268 -0.39 -0.01    +0.035 A  
DOCKED: ATOM     21  N   UNL     1     133.715  73.515 226.401 -0.72 -0.02    -0.243 NA 
DOCKED: ATOM     22  C   UNL     1     131.372  73.377 227.746 -0.37 -0.00    +0.013 A  
DOCKED: ATOM     23  C   UNL     1     133.179  74.667 226.847 -0.30 +0.00    +0.071 A  
DOCKED: ATOM     24  C   UNL     1     131.982  74.600 227.534 -0.42 -0.00    +0.002 A  
DOCKED: ATOM     25  C   UNL     1     133.835  75.857 226.604 -0.40 -0.00    +0.030 A  
DOCKED: ATOM     26  C   UNL     1     131.453  75.793 227.980 -0.26 +0.00    +0.030 A  
DOCKED: ATOM     27  C   UNL     1     133.269  77.027 227.068 -0.35 -0.00    +0.023 A  
DOCKED: ATOM     28  C   UNL     1     132.074  77.006 227.760 -0.32 +0.00    +0.041 A  
DOCKED: ATOM     29  Cl  UNL     1     131.426  78.525 228.314 -0.34 -0.01    -0.084 Cl 
DOCKED: ENDBRANCH  16  19
DOCKED: ENDBRANCH  14  15
DOCKED: ENDBRANCH  12  14
DOCKED: ENDBRANCH   2  12
DOCKED: TORSDOF 8
DOCKED: TER
DOCKED: ENDMDL
________________________________________________________________________________


    FINAL DOCKED STATE:
    ________________________


Run:   6 / 20
Time taken for this run:   0.033s

DOCKED: MODEL        6
DOCKED: USER    Run = 6
DOCKED: USER
DOCKED: USER    Estimated Free Energy of Binding    =  -7.40 kcal/mol  [=(1)+(2)+(3)-(4)]
DOCKED: USER
DOCKED: USER    (1) Final Intermolecular Energy     =  -9.78 kcal/mol
DOCKED: USER        vdW + Hbond + desolv Energy     =  -9.78 kcal/mol
DOCKED: USER        Electrostatic Energy            =  -0.01 kcal/mol
DOCKED: USER        Moving Ligand-Fixed Receptor    =  -9.78 kcal/mol
DOCKED: USER        Moving Ligand-Moving Receptor   =  +0.00 kcal/mol
DOCKED: USER    (2) Final Total Internal Energy     =  -2.05 kcal/mol
DOCKED: USER    (3) Torsional Free Energy           =  +2.39 kcal/mol
DOCKED: USER    (4) Unbound System's Energy         =  -2.05 kcal/mol
DOCKED: USER
DOCKED: USER
DOCKED: REMARK SMILES CN(CCCc1ccccn1)C(=O)CNC(=O)c1ccc2cc(Cl)ccc2n1
DOCKED: REMARK SMILES IDX 1 1 2 2 3 3 4 4 5 5 6 6 7 7 11 8 8 9 10 10 9 11 12 12 13 13
DOCKED: REMARK SMILES IDX 14 14 15 15 16 16 17 18 18 19 19 20 28 21 20 22 27 23 21 24
DOCKED: REMARK SMILES IDX 26 25 22 26 25 27 23 28 24 29
DOCKED: REMARK H PARENT 15 17
DOCKED: USER                              x       y       z     vdW  Elec       q    Type
DOCKED: USER                           _______ _______ _______ _____ _____    ______ ____
DOCKED: ROOT
DOCKED: ATOM      1  C   UNL     1     137.843  77.673 221.156 -0.09 -0.03    +0.146 C  
DOCKED: ATOM      2  N   UNL     1     138.981  76.931 220.743 -0.03 +0.08    -0.344 N  
DOCKED: ENDROOT
DOCKED: BRANCH   2   3
DOCKED: ATOM      3  C   UNL     1     139.823  77.131 219.591 -0.06 -0.04    +0.119 C  
DOCKED: BRANCH   3   4
DOCKED: ATOM      4  C   UNL     1     140.453  78.487 219.644 -0.14 -0.01    +0.028 C  
DOCKED: BRANCH   4   5
DOCKED: ATOM      5  C   UNL     1     141.819  78.429 220.256 -0.27 -0.04    +0.058 C  
DOCKED: BRANCH   5   6
DOCKED: ATOM      6  C   UNL     1     141.837  79.294 221.458 -0.39 -0.02    +0.040 A  
DOCKED: ATOM      7  C   UNL     1     141.805  78.613 222.687 -0.47 -0.01    +0.024 A  
DOCKED: ATOM      8  N   UNL     1     141.878  80.607 221.513 -0.24 +0.09    -0.261 NA 
DOCKED: ATOM      9  C   UNL     1     141.817  79.299 223.882 -0.62 -0.00    +0.003 A  
DOCKED: ATOM     10  C   UNL     1     141.892  81.334 222.642 -0.44 -0.02    +0.111 A  
DOCKED: ATOM     11  C   UNL     1     141.861  80.672 223.853 -0.58 -0.00    +0.020 A  
DOCKED: ENDBRANCH   5   6
DOCKED: ENDBRANCH   4   5
DOCKED: ENDBRANCH   3   4
DOCKED: ENDBRANCH   2   3
DOCKED: BRANCH   2  12
DOCKED: ATOM     12  C   UNL     1     139.336  75.791 221.572 -0.20 -0.05    +0.241 C  
DOCKED: ATOM     13  O   UNL     1     139.916  75.930 222.674 -0.41 +0.04    -0.273 OA 
DOCKED: BRANCH  12  14
DOCKED: ATOM     14  C   UNL     1     139.027  74.400 221.148 -0.14 -0.05    +0.216 C  
DOCKED: BRANCH  14  15
DOCKED: ATOM     15  N   UNL     1     139.276  73.460 222.230 -0.11 +0.08    -0.342 N  
DOCKED: ATOM     16  C   UNL     1     139.057  72.071 222.036 -0.14 -0.06    +0.270 C  
DOCKED: ATOM     17  H   UNL     1     139.617  73.760 223.176 -0.48 -0.02    +0.164 HD 
DOCKED: ATOM     18  O   UNL     1     138.642  71.617 220.918 -0.04 +0.05    -0.268 OA 
DOCKED: BRANCH  16  19
DOCKED: ATOM     19  C   UNL     1     139.311  71.141 223.133 -0.25 -0.03    +0.128 A  
DOCKED: ATOM     20  C   UNL     1     138.943  69.815 223.024 -0.21 -0.01    +0.035 A  
DOCKED: ATOM     21  N   UNL     1     139.907  71.563 224.266 -0.27 +0.05    -0.243 NA 
DOCKED: ATOM     22  C   UNL     1     139.200  68.958 224.087 -0.31 -0.00    +0.013 A  
DOCKED: ATOM     23  C   UNL     1     140.174  70.767 225.318 -0.47 -0.01    +0.071 A  
DOCKED: ATOM     24  C   UNL     1     139.814  69.435 225.230 -0.42 -0.00    +0.002 A  
DOCKED: ATOM     25  C   UNL     1     140.790  71.301 226.432 -0.65 -0.00    +0.030 A  
DOCKED: ATOM     26  C   UNL     1     140.098  68.641 226.321 -0.55 -0.01    +0.030 A  
DOCKED: ATOM     27  C   UNL     1     141.055  70.470 227.501 -0.60 -0.00    +0.023 A  
DOCKED: ATOM     28  C   UNL     1     140.712  69.133 227.456 -0.59 -0.01    +0.041 A  
DOCKED: ATOM     29  Cl  UNL     1     141.081  68.149 228.845 -0.62 +0.02    -0.084 Cl 
DOCKED: ENDBRANCH  16  19
DOCKED: ENDBRANCH  14  15
DOCKED: ENDBRANCH  12  14
DOCKED: ENDBRANCH   2  12
DOCKED: TORSDOF 8
DOCKED: TER
DOCKED: ENDMDL
________________________________________________________________________________


    FINAL DOCKED STATE:
    ________________________


Run:   7 / 20
Time taken for this run:   0.033s

DOCKED: MODEL        7
DOCKED: USER    Run = 7
DOCKED: USER
DOCKED: USER    Estimated Free Energy of Binding    =  -7.24 kcal/mol  [=(1)+(2)+(3)-(4)]
DOCKED: USER
DOCKED: USER    (1) Final Intermolecular Energy     =  -9.63 kcal/mol
DOCKED: USER        vdW + Hbond + desolv Energy     =  -9.61 kcal/mol
DOCKED: USER        Electrostatic Energy            =  -0.02 kcal/mol
DOCKED: USER        Moving Ligand-Fixed Receptor    =  -9.63 kcal/mol
DOCKED: USER        Moving Ligand-Moving Receptor   =  +0.00 kcal/mol
DOCKED: USER    (2) Final Total Internal Energy     =  -2.25 kcal/mol
DOCKED: USER    (3) Torsional Free Energy           =  +2.39 kcal/mol
DOCKED: USER    (4) Unbound System's Energy         =  -2.25 kcal/mol
DOCKED: USER
DOCKED: USER
DOCKED: REMARK SMILES CN(CCCc1ccccn1)C(=O)CNC(=O)c1ccc2cc(Cl)ccc2n1
DOCKED: REMARK SMILES IDX 1 1 2 2 3 3 4 4 5 5 6 6 7 7 11 8 8 9 10 10 9 11 12 12 13 13
DOCKED: REMARK SMILES IDX 14 14 15 15 16 16 17 18 18 19 19 20 28 21 20 22 27 23 21 24
DOCKED: REMARK SMILES IDX 26 25 22 26 25 27 23 28 24 29
DOCKED: REMARK H PARENT 15 17
DOCKED: USER                              x       y       z     vdW  Elec       q    Type
DOCKED: USER                           _______ _______ _______ _____ _____    ______ ____
DOCKED: ROOT
DOCKED: ATOM      1  C   UNL     1     139.208  78.007 220.008 -0.05 -0.04    +0.146 C  
DOCKED: ATOM      2  N   UNL     1     140.321  77.313 220.551 -0.05 +0.12    -0.344 N  
DOCKED: ENDROOT
DOCKED: BRANCH   2   3
DOCKED: ATOM      3  C   UNL     1     141.724  77.496 220.275 -0.25 -0.07    +0.119 C  
DOCKED: BRANCH   3   4
DOCKED: ATOM      4  C   UNL     1     142.202  76.438 219.330 -0.28 -0.01    +0.028 C  
DOCKED: BRANCH   4   5
DOCKED: ATOM      5  C   UNL     1     143.689  76.271 219.407 -0.30 -0.04    +0.058 C  
DOCKED: BRANCH   5   6
DOCKED: ATOM      6  C   UNL     1     143.987  74.927 219.950 -0.41 -0.02    +0.040 A  
DOCKED: ATOM      7  C   UNL     1     142.908  74.027 219.950 -0.27 -0.01    +0.024 A  
DOCKED: ATOM      8  N   UNL     1     145.128  74.479 220.428 -0.31 +0.10    -0.261 NA 
DOCKED: ATOM      9  C   UNL     1     143.050  72.743 220.429 -0.29 -0.00    +0.003 A  
DOCKED: ATOM     10  C   UNL     1     145.332  73.241 220.908 -0.53 -0.02    +0.111 A  
DOCKED: ATOM     11  C   UNL     1     144.276  72.352 220.911 -0.33 -0.00    +0.020 A  
DOCKED: ENDBRANCH   5   6
DOCKED: ENDBRANCH   4   5
DOCKED: ENDBRANCH   3   4
DOCKED: ENDBRANCH   2   3
DOCKED: BRANCH   2  12
DOCKED: ATOM     12  C   UNL     1     140.014  76.248 221.491 -0.22 -0.06    +0.241 C  
DOCKED: ATOM     13  O   UNL     1     140.118  76.411 222.729 -0.33 +0.05    -0.273 OA 
DOCKED: BRANCH  12  14
DOCKED: ATOM     14  C   UNL     1     139.561  74.912 221.026 -0.16 -0.05    +0.216 C  
DOCKED: BRANCH  14  15
DOCKED: ATOM     15  N   UNL     1     139.624  73.937 222.105 -0.13 +0.05    -0.342 N  
DOCKED: ATOM     16  C   UNL     1     139.790  72.558 221.814 -0.17 -0.05    +0.270 C  
DOCKED: ATOM     17  H   UNL     1     139.551  74.204 223.117 -0.52 -0.02    +0.164 HD 
DOCKED: ATOM     18  O   UNL     1     139.888  72.142 220.612 -0.06 +0.05    -0.268 OA 
DOCKED: BRANCH  16  19
DOCKED: ATOM     19  C   UNL     1     139.850  71.592 222.909 -0.28 -0.02    +0.128 A  
DOCKED: ATOM     20  C   UNL     1     139.421  70.294 222.720 -0.21 -0.01    +0.035 A  
DOCKED: ATOM     21  N   UNL     1     140.326  71.954 224.117 -0.26 +0.04    -0.243 NA 
DOCKED: ATOM     22  C   UNL     1     139.493  69.402 223.783 -0.24 -0.00    +0.013 A  
DOCKED: ATOM     23  C   UNL     1     140.413  71.123 225.172 -0.49 -0.01    +0.071 A  
DOCKED: ATOM     24  C   UNL     1     139.988  69.819 225.005 -0.41 -0.00    +0.002 A  
DOCKED: ATOM     25  C   UNL     1     140.916  71.597 226.367 -0.66 -0.00    +0.030 A  
DOCKED: ATOM     26  C   UNL     1     140.087  68.987 226.101 -0.50 -0.01    +0.030 A  
DOCKED: ATOM     27  C   UNL     1     140.997  70.730 227.438 -0.64 -0.00    +0.023 A  
DOCKED: ATOM     28  C   UNL     1     140.584  69.418 227.315 -0.57 -0.01    +0.041 A  
DOCKED: ATOM     29  Cl  UNL     1     140.719  68.386 228.712 -0.69 +0.02    -0.084 Cl 
DOCKED: ENDBRANCH  16  19
DOCKED: ENDBRANCH  14  15
DOCKED: ENDBRANCH  12  14
DOCKED: ENDBRANCH   2  12
DOCKED: TORSDOF 8
DOCKED: TER
DOCKED: ENDMDL
________________________________________________________________________________


    FINAL DOCKED STATE:
    ________________________


Run:   8 / 20
Time taken for this run:   0.033s

DOCKED: MODEL        8
DOCKED: USER    Run = 8
DOCKED: USER
DOCKED: USER    Estimated Free Energy of Binding    =  -8.04 kcal/mol  [=(1)+(2)+(3)-(4)]
DOCKED: USER
DOCKED: USER    (1) Final Intermolecular Energy     = -10.42 kcal/mol
DOCKED: USER        vdW + Hbond + desolv Energy     = -10.37 kcal/mol
DOCKED: USER        Electrostatic Energy            =  -0.05 kcal/mol
DOCKED: USER        Moving Ligand-Fixed Receptor    = -10.42 kcal/mol
DOCKED: USER        Moving Ligand-Moving Receptor   =  +0.00 kcal/mol
DOCKED: USER    (2) Final Total Internal Energy     =  -2.16 kcal/mol
DOCKED: USER    (3) Torsional Free Energy           =  +2.39 kcal/mol
DOCKED: USER    (4) Unbound System's Energy         =  -2.16 kcal/mol
DOCKED: USER
DOCKED: USER
DOCKED: REMARK SMILES CN(CCCc1ccccn1)C(=O)CNC(=O)c1ccc2cc(Cl)ccc2n1
DOCKED: REMARK SMILES IDX 1 1 2 2 3 3 4 4 5 5 6 6 7 7 11 8 8 9 10 10 9 11 12 12 13 13
DOCKED: REMARK SMILES IDX 14 14 15 15 16 16 17 18 18 19 19 20 28 21 20 22 27 23 21 24
DOCKED: REMARK SMILES IDX 26 25 22 26 25 27 23 28 24 29
DOCKED: REMARK H PARENT 15 17
DOCKED: USER                              x       y       z     vdW  Elec       q    Type
DOCKED: USER                           _______ _______ _______ _____ _____    ______ ____
DOCKED: ROOT
DOCKED: ATOM      1  C   UNL     1     138.383  67.969 223.165 -0.17 -0.02    +0.146 C  
DOCKED: ATOM      2  N   UNL     1     138.681  68.860 224.229 -0.14 +0.04    -0.344 N  
DOCKED: ENDROOT
DOCKED: BRANCH   2   3
DOCKED: ATOM      3  C   UNL     1     138.778  68.585 225.640 -0.36 -0.01    +0.119 C  
DOCKED: BRANCH   3   4
DOCKED: ATOM      4  C   UNL     1     140.022  67.805 225.927 -0.57 -0.00    +0.028 C  
DOCKED: BRANCH   4   5
DOCKED: ATOM      5  C   UNL     1     140.649  68.235 227.217 -0.64 -0.01    +0.058 C  
DOCKED: BRANCH   5   6
DOCKED: ATOM      6  C   UNL     1     140.871  69.698 227.171 -0.54 -0.01    +0.040 A  
DOCKED: ATOM      7  C   UNL     1     140.445  70.405 228.308 -0.57 -0.00    +0.024 A  
DOCKED: ATOM      8  N   UNL     1     141.411  70.408 226.204 -0.30 +0.04    -0.261 NA 
DOCKED: ATOM      9  C   UNL     1     140.592  71.773 228.395 -0.72 -0.00    +0.003 A  
DOCKED: ATOM     10  C   UNL     1     141.583  71.740 226.226 -0.46 -0.01    +0.111 A  
DOCKED: ATOM     11  C   UNL     1     141.167  72.441 227.340 -0.73 -0.00    +0.020 A  
DOCKED: ENDBRANCH   5   6
DOCKED: ENDBRANCH   4   5
DOCKED: ENDBRANCH   3   4
DOCKED: ENDBRANCH   2   3
DOCKED: BRANCH   2  12
DOCKED: ATOM     12  C   UNL     1     138.886  70.250 223.859 -0.21 -0.04    +0.241 C  
DOCKED: ATOM     13  O   UNL     1     138.869  71.170 224.710 -0.23 +0.07    -0.273 OA 
DOCKED: BRANCH  12  14
DOCKED: ATOM     14  C   UNL     1     139.126  70.648 222.447 -0.14 -0.04    +0.216 C  
DOCKED: BRANCH  14  15
DOCKED: ATOM     15  N   UNL     1     139.507  72.050 222.360 -0.13 +0.07    -0.342 N  
DOCKED: ATOM     16  C   UNL     1     140.417  72.484 221.361 -0.16 -0.04    +0.270 C  
DOCKED: ATOM     17  H   UNL     1     139.137  72.781 223.015 -0.32 -0.06    +0.164 HD 
DOCKED: ATOM     18  O   UNL     1     140.918  71.664 220.522 -0.08 +0.04    -0.268 OA 
DOCKED: BRANCH  16  19
DOCKED: ATOM     19  C   UNL     1     140.790  73.894 221.288 -0.24 -0.02    +0.128 A  
DOCKED: ATOM     20  C   UNL     1     141.854  74.296 220.506 -0.25 -0.01    +0.035 A  
DOCKED: ATOM     21  N   UNL     1     140.101  74.822 221.981 -0.70 +0.03    -0.243 NA 
DOCKED: ATOM     22  C   UNL     1     142.181  75.646 220.460 -0.29 -0.01    +0.013 A  
DOCKED: ATOM     23  C   UNL     1     140.383  76.138 221.965 -0.35 -0.02    +0.071 A  
DOCKED: ATOM     24  C   UNL     1     141.445  76.563 221.189 -0.28 -0.00    +0.002 A  
DOCKED: ATOM     25  C   UNL     1     139.612  77.005 222.713 -0.25 -0.01    +0.030 A  
DOCKED: ATOM     26  C   UNL     1     141.714  77.916 221.189 -0.30 -0.02    +0.030 A  
DOCKED: ATOM     27  C   UNL     1     139.917  78.351 222.684 -0.36 -0.01    +0.023 A  
DOCKED: ATOM     28  C   UNL     1     140.970  78.818 221.922 -0.35 -0.02    +0.041 A  
DOCKED: ATOM     29  Cl  UNL     1     141.290  80.530 221.937 -0.52 +0.02    -0.084 Cl 
DOCKED: ENDBRANCH  16  19
DOCKED: ENDBRANCH  14  15
DOCKED: ENDBRANCH  12  14
DOCKED: ENDBRANCH   2  12
DOCKED: TORSDOF 8
DOCKED: TER
DOCKED: ENDMDL
________________________________________________________________________________


    FINAL DOCKED STATE:
    ________________________


Run:   9 / 20
Time taken for this run:   0.033s

DOCKED: MODEL        9
DOCKED: USER    Run = 9
DOCKED: USER
DOCKED: USER    Estimated Free Energy of Binding    =  -7.49 kcal/mol  [=(1)+(2)+(3)-(4)]
DOCKED: USER
DOCKED: USER    (1) Final Intermolecular Energy     =  -9.87 kcal/mol
DOCKED: USER        vdW + Hbond + desolv Energy     =  -9.87 kcal/mol
DOCKED: USER        Electrostatic Energy            =  -0.00 kcal/mol
DOCKED: USER        Moving Ligand-Fixed Receptor    =  -9.87 kcal/mol
DOCKED: USER        Moving Ligand-Moving Receptor   =  +0.00 kcal/mol
DOCKED: USER    (2) Final Total Internal Energy     =  -2.10 kcal/mol
DOCKED: USER    (3) Torsional Free Energy           =  +2.39 kcal/mol
DOCKED: USER    (4) Unbound System's Energy         =  -2.10 kcal/mol
DOCKED: USER
DOCKED: USER
DOCKED: REMARK SMILES CN(CCCc1ccccn1)C(=O)CNC(=O)c1ccc2cc(Cl)ccc2n1
DOCKED: REMARK SMILES IDX 1 1 2 2 3 3 4 4 5 5 6 6 7 7 11 8 8 9 10 10 9 11 12 12 13 13
DOCKED: REMARK SMILES IDX 14 14 15 15 16 16 17 18 18 19 19 20 28 21 20 22 27 23 21 24
DOCKED: REMARK SMILES IDX 26 25 22 26 25 27 23 28 24 29
DOCKED: REMARK H PARENT 15 17
DOCKED: USER                              x       y       z     vdW  Elec       q    Type
DOCKED: USER                           _______ _______ _______ _____ _____    ______ ____
DOCKED: ROOT
DOCKED: ATOM      1  C   UNL     1     140.961  77.568 219.912 -0.16 -0.06    +0.146 C  
DOCKED: ATOM      2  N   UNL     1     139.775  77.332 220.655 -0.03 +0.10    -0.344 N  
DOCKED: ENDROOT
DOCKED: BRANCH   2   3
DOCKED: ATOM      3  C   UNL     1     138.549  78.089 220.669 -0.07 -0.03    +0.119 C  
DOCKED: BRANCH   3   4
DOCKED: ATOM      4  C   UNL     1     138.251  78.556 222.059 -0.20 -0.01    +0.028 C  
DOCKED: BRANCH   4   5
DOCKED: ATOM      5  C   UNL     1     138.630  79.993 222.244 -0.21 -0.01    +0.058 C  
DOCKED: BRANCH   5   6
DOCKED: ATOM      6  C   UNL     1     140.068  80.063 222.588 -0.32 -0.01    +0.040 A  
DOCKED: ATOM      7  C   UNL     1     140.513  79.097 223.507 -0.46 -0.00    +0.024 A  
DOCKED: ATOM      8  N   UNL     1     140.969  80.912 222.144 -0.20 +0.06    -0.261 NA 
DOCKED: ATOM      9  C   UNL     1     141.829  79.051 223.912 -0.62 -0.00    +0.003 A  
DOCKED: ATOM     10  C   UNL     1     142.265  80.921 222.498 -0.46 -0.03    +0.111 A  
DOCKED: ATOM     11  C   UNL     1     142.709  79.974 223.399 -0.63 -0.01    +0.020 A  
DOCKED: ENDBRANCH   5   6
DOCKED: ENDBRANCH   4   5
DOCKED: ENDBRANCH   3   4
DOCKED: ENDBRANCH   2   3
DOCKED: BRANCH   2  12
DOCKED: ATOM     12  C   UNL     1     139.801  76.189 221.554 -0.22 -0.06    +0.241 C  
DOCKED: ATOM     13  O   UNL     1     140.256  76.275 222.718 -0.35 +0.05    -0.273 OA 
DOCKED: BRANCH  12  14
DOCKED: ATOM     14  C   UNL     1     139.287  74.861 221.131 -0.15 -0.05    +0.216 C  
DOCKED: BRANCH  14  15
DOCKED: ATOM     15  N   UNL     1     139.439  73.882 222.197 -0.11 +0.06    -0.342 N  
DOCKED: ATOM     16  C   UNL     1     139.401  72.494 221.905 -0.16 -0.05    +0.270 C  
DOCKED: ATOM     17  H   UNL     1     139.578  74.153 223.201 -0.50 -0.01    +0.164 HD 
DOCKED: ATOM     18  O   UNL     1     139.236  72.073 220.711 -0.05 +0.05    -0.268 OA 
DOCKED: BRANCH  16  19
DOCKED: ATOM     19  C   UNL     1     139.555  71.524 222.986 -0.27 -0.03    +0.128 A  
DOCKED: ATOM     20  C   UNL     1     139.104  70.229 222.833 -0.21 -0.01    +0.035 A  
DOCKED: ATOM     21  N   UNL     1     140.139  71.880 224.148 -0.26 +0.05    -0.243 NA 
DOCKED: ATOM     22  C   UNL     1     139.267  69.333 223.882 -0.28 -0.00    +0.013 A  
DOCKED: ATOM     23  C   UNL     1     140.316  71.045 225.189 -0.48 -0.01    +0.071 A  
DOCKED: ATOM     24  C   UNL     1     139.872  69.743 225.057 -0.41 -0.00    +0.002 A  
DOCKED: ATOM     25  C   UNL     1     140.926  71.512 226.336 -0.66 -0.00    +0.030 A  
DOCKED: ATOM     26  C   UNL     1     140.065  68.907 226.137 -0.51 -0.01    +0.030 A  
DOCKED: ATOM     27  C   UNL     1     141.098  70.641 227.392 -0.60 -0.00    +0.023 A  
DOCKED: ATOM     28  C   UNL     1     140.670  69.332 227.303 -0.57 -0.01    +0.041 A  
DOCKED: ATOM     29  Cl  UNL     1     140.925  68.294 228.679 -0.70 +0.02    -0.084 Cl 
DOCKED: ENDBRANCH  16  19
DOCKED: ENDBRANCH  14  15
DOCKED: ENDBRANCH  12  14
DOCKED: ENDBRANCH   2  12
DOCKED: TORSDOF 8
DOCKED: TER
DOCKED: ENDMDL
________________________________________________________________________________


    FINAL DOCKED STATE:
    ________________________


Run:   10 / 20
Time taken for this run:   0.033s

DOCKED: MODEL        10
DOCKED: USER    Run = 10
DOCKED: USER
DOCKED: USER    Estimated Free Energy of Binding    =  -7.44 kcal/mol  [=(1)+(2)+(3)-(4)]
DOCKED: USER
DOCKED: USER    (1) Final Intermolecular Energy     =  -9.83 kcal/mol
DOCKED: USER        vdW + Hbond + desolv Energy     =  -9.79 kcal/mol
DOCKED: USER        Electrostatic Energy            =  -0.04 kcal/mol
DOCKED: USER        Moving Ligand-Fixed Receptor    =  -9.83 kcal/mol
DOCKED: USER        Moving Ligand-Moving Receptor   =  +0.00 kcal/mol
DOCKED: USER    (2) Final Total Internal Energy     =  -2.21 kcal/mol
DOCKED: USER    (3) Torsional Free Energy           =  +2.39 kcal/mol
DOCKED: USER    (4) Unbound System's Energy         =  -2.21 kcal/mol
DOCKED: USER
DOCKED: USER
DOCKED: REMARK SMILES CN(CCCc1ccccn1)C(=O)CNC(=O)c1ccc2cc(Cl)ccc2n1
DOCKED: REMARK SMILES IDX 1 1 2 2 3 3 4 4 5 5 6 6 7 7 11 8 8 9 10 10 9 11 12 12 13 13
DOCKED: REMARK SMILES IDX 14 14 15 15 16 16 17 18 18 19 19 20 28 21 20 22 27 23 21 24
DOCKED: REMARK SMILES IDX 26 25 22 26 25 27 23 28 24 29
DOCKED: REMARK H PARENT 15 17
DOCKED: USER                              x       y       z     vdW  Elec       q    Type
DOCKED: USER                           _______ _______ _______ _____ _____    ______ ____
DOCKED: ROOT
DOCKED: ATOM      1  C   UNL     1     135.703  69.478 224.423 -0.17 -0.01    +0.146 C  
DOCKED: ATOM      2  N   UNL     1     137.081  69.552 224.092 -0.10 +0.03    -0.344 N  
DOCKED: ENDROOT
DOCKED: BRANCH   2   3
DOCKED: ATOM      3  C   UNL     1     138.104  68.549 224.243 -0.16 -0.01    +0.119 C  
DOCKED: BRANCH   3   4
DOCKED: ATOM      4  C   UNL     1     138.579  68.510 225.662 -0.35 -0.00    +0.028 C  
DOCKED: BRANCH   4   5
DOCKED: ATOM      5  C   UNL     1     140.068  68.650 225.742 -0.47 -0.01    +0.058 C  
DOCKED: BRANCH   5   6
DOCKED: ATOM      6  C   UNL     1     140.388  69.880 226.501 -0.51 -0.01    +0.040 A  
DOCKED: ATOM      7  C   UNL     1     141.201  70.807 225.826 -0.58 -0.00    +0.024 A  
DOCKED: ATOM      8  N   UNL     1     140.009  70.205 227.717 -0.33 +0.04    -0.261 NA 
DOCKED: ATOM      9  C   UNL     1     141.573  71.994 226.419 -0.57 -0.00    +0.003 A  
DOCKED: ATOM     10  C   UNL     1     140.336  71.344 228.351 -0.59 -0.02    +0.111 A  
DOCKED: ATOM     11  C   UNL     1     141.134  72.259 227.694 -0.80 -0.00    +0.020 A  
DOCKED: ENDBRANCH   5   6
DOCKED: ENDBRANCH   4   5
DOCKED: ENDBRANCH   3   4
DOCKED: ENDBRANCH   2   3
DOCKED: BRANCH   2  12
DOCKED: ATOM     12  C   UNL     1     137.542  70.823 223.558 -0.15 -0.05    +0.241 C  
DOCKED: ATOM     13  O   UNL     1     136.990  71.906 223.861 -0.15 +0.08    -0.273 OA 
DOCKED: BRANCH  12  14
DOCKED: ATOM     14  C   UNL     1     138.695  70.897 222.623 -0.15 -0.04    +0.216 C  
DOCKED: BRANCH  14  15
DOCKED: ATOM     15  N   UNL     1     139.124  72.275 222.435 -0.12 +0.08    -0.342 N  
DOCKED: ATOM     16  C   UNL     1     140.271  72.566 221.652 -0.18 -0.04    +0.270 C  
DOCKED: ATOM     17  H   UNL     1     138.619  73.090 222.861 -0.43 -0.08    +0.164 HD 
DOCKED: ATOM     18  O   UNL     1     140.947  71.637 221.097 -0.12 +0.04    -0.268 OA 
DOCKED: BRANCH  16  19
DOCKED: ATOM     19  C   UNL     1     140.690  73.954 221.474 -0.25 -0.02    +0.128 A  
DOCKED: ATOM     20  C   UNL     1     141.747  74.265 220.643 -0.26 -0.01    +0.035 A  
DOCKED: ATOM     21  N   UNL     1     140.050  74.951 222.118 -0.65 +0.02    -0.243 NA 
DOCKED: ATOM     22  C   UNL     1     142.118  75.596 220.498 -0.28 -0.01    +0.013 A  
DOCKED: ATOM     23  C   UNL     1     140.376  76.252 222.006 -0.35 -0.02    +0.071 A  
DOCKED: ATOM     24  C   UNL     1     141.432  76.585 221.179 -0.28 -0.00    +0.002 A  
DOCKED: ATOM     25  C   UNL     1     139.655  77.194 222.711 -0.27 -0.01    +0.030 A  
DOCKED: ATOM     26  C   UNL     1     141.747  77.925 221.081 -0.30 -0.02    +0.030 A  
DOCKED: ATOM     27  C   UNL     1     140.005  78.523 222.584 -0.36 -0.01    +0.023 A  
DOCKED: ATOM     28  C   UNL     1     141.053  78.900 221.768 -0.34 -0.02    +0.041 A  
DOCKED: ATOM     29  Cl  UNL     1     141.432  80.597 221.659 -0.51 +0.03    -0.084 Cl 
DOCKED: ENDBRANCH  16  19
DOCKED: ENDBRANCH  14  15
DOCKED: ENDBRANCH  12  14
DOCKED: ENDBRANCH   2  12
DOCKED: TORSDOF 8
DOCKED: TER
DOCKED: ENDMDL
________________________________________________________________________________


    FINAL DOCKED STATE:
    ________________________


Run:   11 / 20
Time taken for this run:   0.033s

DOCKED: MODEL        11
DOCKED: USER    Run = 11
DOCKED: USER
DOCKED: USER    Estimated Free Energy of Binding    =  -7.97 kcal/mol  [=(1)+(2)+(3)-(4)]
DOCKED: USER
DOCKED: USER    (1) Final Intermolecular Energy     = -10.36 kcal/mol
DOCKED: USER        vdW + Hbond + desolv Energy     = -10.33 kcal/mol
DOCKED: USER        Electrostatic Energy            =  -0.03 kcal/mol
DOCKED: USER        Moving Ligand-Fixed Receptor    = -10.36 kcal/mol
DOCKED: USER        Moving Ligand-Moving Receptor   =  +0.00 kcal/mol
DOCKED: USER    (2) Final Total Internal Energy     =  -1.75 kcal/mol
DOCKED: USER    (3) Torsional Free Energy           =  +2.39 kcal/mol
DOCKED: USER    (4) Unbound System's Energy         =  -1.75 kcal/mol
DOCKED: USER
DOCKED: USER
DOCKED: REMARK SMILES CN(CCCc1ccccn1)C(=O)CNC(=O)c1ccc2cc(Cl)ccc2n1
DOCKED: REMARK SMILES IDX 1 1 2 2 3 3 4 4 5 5 6 6 7 7 11 8 8 9 10 10 9 11 12 12 13 13
DOCKED: REMARK SMILES IDX 14 14 15 15 16 16 17 18 18 19 19 20 28 21 20 22 27 23 21 24
DOCKED: REMARK SMILES IDX 26 25 22 26 25 27 23 28 24 29
DOCKED: REMARK H PARENT 15 17
DOCKED: USER                              x       y       z     vdW  Elec       q    Type
DOCKED: USER                           _______ _______ _______ _____ _____    ______ ____
DOCKED: ROOT
DOCKED: ATOM      1  C   UNL     1     139.384  70.486 223.461 -0.24 -0.03    +0.146 C  
DOCKED: ATOM      2  N   UNL     1     138.251  69.832 224.012 -0.11 +0.05    -0.344 N  
DOCKED: ENDROOT
DOCKED: BRANCH   2   3
DOCKED: ATOM      3  C   UNL     1     138.173  68.548 224.660 -0.16 -0.00    +0.119 C  
DOCKED: BRANCH   3   4
DOCKED: ATOM      4  C   UNL     1     139.493  68.202 225.273 -0.44 -0.00    +0.028 C  
DOCKED: BRANCH   4   5
DOCKED: ATOM      5  C   UNL     1     139.530  68.562 226.726 -0.53 -0.01    +0.058 C  
DOCKED: BRANCH   5   6
DOCKED: ATOM      6  C   UNL     1     140.172  69.888 226.870 -0.53 -0.01    +0.040 A  
DOCKED: ATOM      7  C   UNL     1     139.945  70.535 228.096 -0.62 -0.00    +0.024 A  
DOCKED: ATOM      8  N   UNL     1     140.921  70.527 225.997 -0.31 +0.04    -0.261 NA 
DOCKED: ATOM      9  C   UNL     1     140.485  71.775 228.359 -0.75 -0.00    +0.003 A  
DOCKED: ATOM     10  C   UNL     1     141.476  71.734 226.191 -0.52 -0.01    +0.111 A  
DOCKED: ATOM     11  C   UNL     1     141.257  72.375 227.393 -0.77 -0.00    +0.020 A  
DOCKED: ENDBRANCH   5   6
DOCKED: ENDBRANCH   4   5
DOCKED: ENDBRANCH   3   4
DOCKED: ENDBRANCH   2   3
DOCKED: BRANCH   2  12
DOCKED: ATOM     12  C   UNL     1     136.983  70.531 223.880 -0.15 -0.04    +0.241 C  
DOCKED: ATOM     13  O   UNL     1     136.846  71.510 223.110 -0.11 +0.06    -0.273 OA 
DOCKED: BRANCH  12  14
DOCKED: ATOM     14  C   UNL     1     135.786  70.115 224.655 -0.14 -0.02    +0.216 C  
DOCKED: BRANCH  14  15
DOCKED: ATOM     15  N   UNL     1     135.051  71.274 225.139 -0.04 +0.03    -0.342 N  
DOCKED: ATOM     16  C   UNL     1     134.025  71.119 226.107 -0.21 -0.02    +0.270 C  
DOCKED: ATOM     17  H   UNL     1     135.241  72.249 224.801 +0.04 -0.02    +0.164 HD 
DOCKED: ATOM     18  O   UNL     1     133.725  69.970 226.574 -0.56 +0.00    -0.268 OA 
DOCKED: BRANCH  16  19
DOCKED: ATOM     19  C   UNL     1     133.296  72.292 226.581 -0.32 -0.01    +0.128 A  
DOCKED: ATOM     20  C   UNL     1     132.068  72.152 227.194 -0.39 -0.01    +0.035 A  
DOCKED: ATOM     21  N   UNL     1     133.812  73.528 226.427 -0.74 -0.02    -0.243 NA 
DOCKED: ATOM     22  C   UNL     1     131.402  73.290 227.633 -0.40 -0.00    +0.013 A  
DOCKED: ATOM     23  C   UNL     1     133.202  74.656 226.837 -0.30 +0.01    +0.071 A  
DOCKED: ATOM     24  C   UNL     1     131.971  74.538 227.453 -0.41 -0.00    +0.002 A  
DOCKED: ATOM     25  C   UNL     1     133.820  75.873 226.630 -0.40 -0.00    +0.030 A  
DOCKED: ATOM     26  C   UNL     1     131.366  75.708 227.864 -0.25 -0.00    +0.030 A  
DOCKED: ATOM     27  C   UNL     1     133.178  77.018 227.057 -0.36 -0.00    +0.023 A  
DOCKED: ATOM     28  C   UNL     1     131.947  76.946 227.677 -0.31 +0.00    +0.041 A  
DOCKED: ATOM     29  Cl  UNL     1     131.202  78.436 228.188 -0.31 -0.01    -0.084 Cl 
DOCKED: ENDBRANCH  16  19
DOCKED: ENDBRANCH  14  15
DOCKED: ENDBRANCH  12  14
DOCKED: ENDBRANCH   2  12
DOCKED: TORSDOF 8
DOCKED: TER
DOCKED: ENDMDL
________________________________________________________________________________


    FINAL DOCKED STATE:
    ________________________


Run:   12 / 20
Time taken for this run:   0.033s

DOCKED: MODEL        12
DOCKED: USER    Run = 12
DOCKED: USER
DOCKED: USER    Estimated Free Energy of Binding    =  -7.86 kcal/mol  [=(1)+(2)+(3)-(4)]
DOCKED: USER
DOCKED: USER    (1) Final Intermolecular Energy     = -10.24 kcal/mol
DOCKED: USER        vdW + Hbond + desolv Energy     = -10.19 kcal/mol
DOCKED: USER        Electrostatic Energy            =  -0.06 kcal/mol
DOCKED: USER        Moving Ligand-Fixed Receptor    = -10.24 kcal/mol
DOCKED: USER        Moving Ligand-Moving Receptor   =  +0.00 kcal/mol
DOCKED: USER    (2) Final Total Internal Energy     =  -2.22 kcal/mol
DOCKED: USER    (3) Torsional Free Energy           =  +2.39 kcal/mol
DOCKED: USER    (4) Unbound System's Energy         =  -2.22 kcal/mol
DOCKED: USER
DOCKED: USER
DOCKED: REMARK SMILES CN(CCCc1ccccn1)C(=O)CNC(=O)c1ccc2cc(Cl)ccc2n1
DOCKED: REMARK SMILES IDX 1 1 2 2 3 3 4 4 5 5 6 6 7 7 11 8 8 9 10 10 9 11 12 12 13 13
DOCKED: REMARK SMILES IDX 14 14 15 15 16 16 17 18 18 19 19 20 28 21 20 22 27 23 21 24
DOCKED: REMARK SMILES IDX 26 25 22 26 25 27 23 28 24 29
DOCKED: REMARK H PARENT 15 17
DOCKED: USER                              x       y       z     vdW  Elec       q    Type
DOCKED: USER                           _______ _______ _______ _____ _____    ______ ____
DOCKED: ROOT
DOCKED: ATOM      1  C   UNL     1     136.351  68.891 223.756 -0.10 -0.01    +0.146 C  
DOCKED: ATOM      2  N   UNL     1     137.421  69.594 224.370 -0.11 +0.04    -0.344 N  
DOCKED: ENDROOT
DOCKED: BRANCH   2   3
DOCKED: ATOM      3  C   UNL     1     138.137  69.276 225.580 -0.22 -0.01    +0.119 C  
DOCKED: BRANCH   3   4
DOCKED: ATOM      4  C   UNL     1     139.212  68.276 225.292 -0.46 -0.00    +0.028 C  
DOCKED: BRANCH   4   5
DOCKED: ATOM      5  C   UNL     1     140.233  68.243 226.388 -0.59 -0.01    +0.058 C  
DOCKED: BRANCH   5   6
DOCKED: ATOM      6  C   UNL     1     140.494  69.630 226.835 -0.53 -0.01    +0.040 A  
DOCKED: ATOM      7  C   UNL     1     141.144  70.450 225.897 -0.55 -0.00    +0.024 A  
DOCKED: ATOM      8  N   UNL     1     140.195  70.180 227.991 -0.35 +0.04    -0.261 NA 
DOCKED: ATOM      9  C   UNL     1     141.447  71.762 226.186 -0.63 -0.00    +0.003 A  
DOCKED: ATOM     10  C   UNL     1     140.461  71.451 228.335 -0.62 -0.03    +0.111 A  
DOCKED: ATOM     11  C   UNL     1     141.099  72.262 227.419 -0.81 -0.00    +0.020 A  
DOCKED: ENDBRANCH   5   6
DOCKED: ENDBRANCH   4   5
DOCKED: ENDBRANCH   3   4
DOCKED: ENDBRANCH   2   3
DOCKED: BRANCH   2  12
DOCKED: ATOM     12  C   UNL     1     137.837  70.823 223.715 -0.16 -0.05    +0.241 C  
DOCKED: ATOM     13  O   UNL     1     137.136  71.861 223.752 -0.15 +0.08    -0.273 OA 
DOCKED: BRANCH  12  14
DOCKED: ATOM     14  C   UNL     1     139.119  70.906 222.968 -0.19 -0.04    +0.216 C  
DOCKED: BRANCH  14  15
DOCKED: ATOM     15  N   UNL     1     139.466  72.290 222.683 -0.15 +0.08    -0.342 N  
DOCKED: ATOM     16  C   UNL     1     140.539  72.593 221.805 -0.19 -0.03    +0.270 C  
DOCKED: ATOM     17  H   UNL     1     138.952  73.103 223.104 -0.46 -0.08    +0.164 HD 
DOCKED: ATOM     18  O   UNL     1     141.219  71.668 221.248 -0.14 +0.03    -0.268 OA 
DOCKED: BRANCH  16  19
DOCKED: ATOM     19  C   UNL     1     140.875  73.988 221.531 -0.25 -0.01    +0.128 A  
DOCKED: ATOM     20  C   UNL     1     141.857  74.302 220.613 -0.26 -0.01    +0.035 A  
DOCKED: ATOM     21  N   UNL     1     140.231  74.986 222.167 -0.62 +0.01    -0.243 NA 
DOCKED: ATOM     22  C   UNL     1     142.151  75.640 220.377 -0.29 -0.01    +0.013 A  
DOCKED: ATOM     23  C   UNL     1     140.484  76.293 221.968 -0.36 -0.02    +0.071 A  
DOCKED: ATOM     24  C   UNL     1     141.464  76.631 221.054 -0.28 -0.00    +0.002 A  
DOCKED: ATOM     25  C   UNL     1     139.765  77.237 222.675 -0.28 -0.01    +0.030 A  
DOCKED: ATOM     26  C   UNL     1     141.704  77.976 220.868 -0.32 -0.02    +0.030 A  
DOCKED: ATOM     27  C   UNL     1     140.039  78.572 222.457 -0.34 -0.01    +0.023 A  
DOCKED: ATOM     28  C   UNL     1     141.010  78.954 221.553 -0.31 -0.02    +0.041 A  
DOCKED: ATOM     29  Cl  UNL     1     141.296  80.658 221.334 -0.45 +0.03    -0.084 Cl 
DOCKED: ENDBRANCH  16  19
DOCKED: ENDBRANCH  14  15
DOCKED: ENDBRANCH  12  14
DOCKED: ENDBRANCH   2  12
DOCKED: TORSDOF 8
DOCKED: TER
DOCKED: ENDMDL
________________________________________________________________________________


    FINAL DOCKED STATE:
    ________________________


Run:   13 / 20
Time taken for this run:   0.033s

DOCKED: MODEL        13
DOCKED: USER    Run = 13
DOCKED: USER
DOCKED: USER    Estimated Free Energy of Binding    =  -7.90 kcal/mol  [=(1)+(2)+(3)-(4)]
DOCKED: USER
DOCKED: USER    (1) Final Intermolecular Energy     = -10.28 kcal/mol
DOCKED: USER        vdW + Hbond + desolv Energy     = -10.24 kcal/mol
DOCKED: USER        Electrostatic Energy            =  -0.04 kcal/mol
DOCKED: USER        Moving Ligand-Fixed Receptor    = -10.28 kcal/mol
DOCKED: USER        Moving Ligand-Moving Receptor   =  +0.00 kcal/mol
DOCKED: USER    (2) Final Total Internal Energy     =  -1.49 kcal/mol
DOCKED: USER    (3) Torsional Free Energy           =  +2.39 kcal/mol
DOCKED: USER    (4) Unbound System's Energy         =  -1.49 kcal/mol
DOCKED: USER
DOCKED: USER
DOCKED: REMARK SMILES CN(CCCc1ccccn1)C(=O)CNC(=O)c1ccc2cc(Cl)ccc2n1
DOCKED: REMARK SMILES IDX 1 1 2 2 3 3 4 4 5 5 6 6 7 7 11 8 8 9 10 10 9 11 12 12 13 13
DOCKED: REMARK SMILES IDX 14 14 15 15 16 16 17 18 18 19 19 20 28 21 20 22 27 23 21 24
DOCKED: REMARK SMILES IDX 26 25 22 26 25 27 23 28 24 29
DOCKED: REMARK H PARENT 15 17
DOCKED: USER                              x       y       z     vdW  Elec       q    Type
DOCKED: USER                           _______ _______ _______ _____ _____    ______ ____
DOCKED: ROOT
DOCKED: ATOM      1  C   UNL     1     138.947  70.847 224.026 -0.27 -0.03    +0.146 C  
DOCKED: ATOM      2  N   UNL     1     138.351  69.559 224.051 -0.12 +0.05    -0.344 N  
DOCKED: ENDROOT
DOCKED: BRANCH   2   3
DOCKED: ATOM      3  C   UNL     1     138.977  68.275 224.237 -0.24 -0.01    +0.119 C  
DOCKED: BRANCH   3   4
DOCKED: ATOM      4  C   UNL     1     139.197  68.017 225.695 -0.50 -0.00    +0.028 C  
DOCKED: BRANCH   4   5
DOCKED: ATOM      5  C   UNL     1     140.600  68.349 226.101 -0.53 -0.01    +0.058 C  
DOCKED: BRANCH   5   6
DOCKED: ATOM      6  C   UNL     1     140.606  69.686 226.737 -0.53 -0.01    +0.040 A  
DOCKED: ATOM      7  C   UNL     1     141.391  70.655 226.088 -0.57 -0.00    +0.024 A  
DOCKED: ATOM      8  N   UNL     1     139.973  70.071 227.824 -0.33 +0.04    -0.261 NA 
DOCKED: ATOM      9  C   UNL     1     141.484  71.941 226.576 -0.69 -0.00    +0.003 A  
DOCKED: ATOM     10  C   UNL     1     140.022  71.306 228.350 -0.55 -0.02    +0.111 A  
DOCKED: ATOM     11  C   UNL     1     140.790  72.263 227.718 -0.75 -0.01    +0.020 A  
DOCKED: ENDBRANCH   5   6
DOCKED: ENDBRANCH   4   5
DOCKED: ENDBRANCH   3   4
DOCKED: ENDBRANCH   2   3
DOCKED: BRANCH   2  12
DOCKED: ATOM     12  C   UNL     1     136.915  69.516 223.827 -0.14 -0.03    +0.241 C  
DOCKED: ATOM     13  O   UNL     1     136.420  69.671 222.686 -0.05 +0.04    -0.273 OA 
DOCKED: BRANCH  12  14
DOCKED: ATOM     14  C   UNL     1     135.963  69.284 224.944 -0.15 -0.01    +0.216 C  
DOCKED: BRANCH  14  15
DOCKED: ATOM     15  N   UNL     1     135.312  70.524 225.338 -0.03 +0.02    -0.342 N  
DOCKED: ATOM     16  C   UNL     1     134.111  70.493 226.092 -0.20 -0.01    +0.270 C  
DOCKED: ATOM     17  H   UNL     1     135.692  71.470 225.087 +0.06 -0.01    +0.164 HD 
DOCKED: ATOM     18  O   UNL     1     133.577  69.388 226.442 -0.72 -0.01    -0.268 OA 
DOCKED: BRANCH  16  19
DOCKED: ATOM     19  C   UNL     1     133.469  71.747 226.478 -0.32 -0.01    +0.128 A  
DOCKED: ATOM     20  C   UNL     1     132.281  71.737 227.182 -0.35 -0.01    +0.035 A  
DOCKED: ATOM     21  N   UNL     1     134.027  72.931 226.155 -0.42 -0.01    -0.243 NA 
DOCKED: ATOM     22  C   UNL     1     131.699  72.949 227.533 -0.42 -0.00    +0.013 A  
DOCKED: ATOM     23  C   UNL     1     133.497  74.126 226.475 -0.27 +0.01    +0.071 A  
DOCKED: ATOM     24  C   UNL     1     132.308  74.139 227.179 -0.41 -0.00    +0.002 A  
DOCKED: ATOM     25  C   UNL     1     134.151  75.281 226.094 -0.40 +0.00    +0.030 A  
DOCKED: ATOM     26  C   UNL     1     131.785  75.376 227.495 -0.36 -0.00    +0.030 A  
DOCKED: ATOM     27  C   UNL     1     133.592  76.496 226.431 -0.35 -0.00    +0.023 A  
DOCKED: ATOM     28  C   UNL     1     132.405  76.555 227.134 -0.32 -0.00    +0.041 A  
DOCKED: ATOM     29  Cl  UNL     1     131.764  78.128 227.522 -0.30 -0.00    -0.084 Cl 
DOCKED: ENDBRANCH  16  19
DOCKED: ENDBRANCH  14  15
DOCKED: ENDBRANCH  12  14
DOCKED: ENDBRANCH   2  12
DOCKED: TORSDOF 8
DOCKED: TER
DOCKED: ENDMDL
________________________________________________________________________________


    FINAL DOCKED STATE:
    ________________________


Run:   14 / 20
Time taken for this run:   0.033s

DOCKED: MODEL        14
DOCKED: USER    Run = 14
DOCKED: USER
DOCKED: USER    Estimated Free Energy of Binding    =  -7.64 kcal/mol  [=(1)+(2)+(3)-(4)]
DOCKED: USER
DOCKED: USER    (1) Final Intermolecular Energy     = -10.03 kcal/mol
DOCKED: USER        vdW + Hbond + desolv Energy     = -10.04 kcal/mol
DOCKED: USER        Electrostatic Energy            =  +0.01 kcal/mol
DOCKED: USER        Moving Ligand-Fixed Receptor    = -10.03 kcal/mol
DOCKED: USER        Moving Ligand-Moving Receptor   =  +0.00 kcal/mol
DOCKED: USER    (2) Final Total Internal Energy     =  -1.91 kcal/mol
DOCKED: USER    (3) Torsional Free Energy           =  +2.39 kcal/mol
DOCKED: USER    (4) Unbound System's Energy         =  -1.91 kcal/mol
DOCKED: USER
DOCKED: USER
DOCKED: REMARK SMILES CN(CCCc1ccccn1)C(=O)CNC(=O)c1ccc2cc(Cl)ccc2n1
DOCKED: REMARK SMILES IDX 1 1 2 2 3 3 4 4 5 5 6 6 7 7 11 8 8 9 10 10 9 11 12 12 13 13
DOCKED: REMARK SMILES IDX 14 14 15 15 16 16 17 18 18 19 19 20 28 21 20 22 27 23 21 24
DOCKED: REMARK SMILES IDX 26 25 22 26 25 27 23 28 24 29
DOCKED: REMARK H PARENT 15 17
DOCKED: USER                              x       y       z     vdW  Elec       q    Type
DOCKED: USER                           _______ _______ _______ _____ _____    ______ ____
DOCKED: ROOT
DOCKED: ATOM      1  C   UNL     1     140.154  77.997 220.140 -0.11 -0.05    +0.146 C  
DOCKED: ATOM      2  N   UNL     1     139.266  77.440 221.097 -0.04 +0.09    -0.344 N  
DOCKED: ENDROOT
DOCKED: BRANCH   2   3
DOCKED: ATOM      3  C   UNL     1     137.991  77.939 221.547 -0.13 -0.02    +0.119 C  
DOCKED: BRANCH   3   4
DOCKED: ATOM      4  C   UNL     1     138.128  79.355 222.010 -0.18 -0.00    +0.028 C  
DOCKED: BRANCH   4   5
DOCKED: ATOM      5  C   UNL     1     138.646  79.421 223.414 -0.31 -0.01    +0.058 C  
DOCKED: BRANCH   5   6
DOCKED: ATOM      6  C   UNL     1     140.105  79.672 223.370 -0.42 -0.01    +0.040 A  
DOCKED: ATOM      7  C   UNL     1     140.477  81.011 223.160 -0.40 -0.00    +0.024 A  
DOCKED: ATOM      8  N   UNL     1     141.083  78.802 223.500 -0.32 +0.07    -0.261 NA 
DOCKED: ATOM      9  C   UNL     1     141.803  81.381 223.098 -0.56 -0.00    +0.003 A  
DOCKED: ATOM     10  C   UNL     1     142.392  79.097 223.450 -0.44 -0.04    +0.111 A  
DOCKED: ATOM     11  C   UNL     1     142.765  80.411 223.245 -0.65 -0.01    +0.020 A  
DOCKED: ENDBRANCH   5   6
DOCKED: ENDBRANCH   4   5
DOCKED: ENDBRANCH   3   4
DOCKED: ENDBRANCH   2   3
DOCKED: BRANCH   2  12
DOCKED: ATOM     12  C   UNL     1     139.708  76.215 221.742 -0.23 -0.06    +0.241 C  
DOCKED: ATOM     13  O   UNL     1     140.520  76.227 222.696 -0.34 +0.05    -0.273 OA 
DOCKED: BRANCH  12  14
DOCKED: ATOM     14  C   UNL     1     139.215  74.885 221.299 -0.17 -0.05    +0.216 C  
DOCKED: BRANCH  14  15
DOCKED: ATOM     15  N   UNL     1     139.394  73.889 222.344 -0.09 +0.07    -0.342 N  
DOCKED: ATOM     16  C   UNL     1     139.325  72.506 222.035 -0.16 -0.06    +0.270 C  
DOCKED: ATOM     17  H   UNL     1     139.576  74.144 223.346 -0.47 -0.02    +0.164 HD 
DOCKED: ATOM     18  O   UNL     1     139.108  72.105 220.843 -0.05 +0.05    -0.268 OA 
DOCKED: BRANCH  16  19
DOCKED: ATOM     19  C   UNL     1     139.507  71.519 223.096 -0.27 -0.03    +0.128 A  
DOCKED: ATOM     20  C   UNL     1     139.096  70.214 222.914 -0.22 -0.01    +0.035 A  
DOCKED: ATOM     21  N   UNL     1     140.078  71.868 224.266 -0.25 +0.05    -0.243 NA 
DOCKED: ATOM     22  C   UNL     1     139.284  69.302 223.946 -0.29 -0.00    +0.013 A  
DOCKED: ATOM     23  C   UNL     1     140.279  71.017 225.290 -0.49 -0.01    +0.071 A  
DOCKED: ATOM     24  C   UNL     1     139.874  69.705 225.129 -0.42 -0.00    +0.002 A  
DOCKED: ATOM     25  C   UNL     1     140.873  71.479 226.447 -0.67 -0.00    +0.030 A  
DOCKED: ATOM     26  C   UNL     1     140.091  68.853 226.192 -0.52 -0.01    +0.030 A  
DOCKED: ATOM     27  C   UNL     1     141.070  70.591 227.485 -0.62 -0.00    +0.023 A  
DOCKED: ATOM     28  C   UNL     1     140.682  69.272 227.368 -0.58 -0.01    +0.041 A  
DOCKED: ATOM     29  Cl  UNL     1     140.966  68.214 228.722 -0.69 +0.02    -0.084 Cl 
DOCKED: ENDBRANCH  16  19
DOCKED: ENDBRANCH  14  15
DOCKED: ENDBRANCH  12  14
DOCKED: ENDBRANCH   2  12
DOCKED: TORSDOF 8
DOCKED: TER
DOCKED: ENDMDL
________________________________________________________________________________


    FINAL DOCKED STATE:
    ________________________


Run:   15 / 20
Time taken for this run:   0.033s

DOCKED: MODEL        15
DOCKED: USER    Run = 15
DOCKED: USER
DOCKED: USER    Estimated Free Energy of Binding    =  -7.28 kcal/mol  [=(1)+(2)+(3)-(4)]
DOCKED: USER
DOCKED: USER    (1) Final Intermolecular Energy     =  -9.66 kcal/mol
DOCKED: USER        vdW + Hbond + desolv Energy     =  -9.60 kcal/mol
DOCKED: USER        Electrostatic Energy            =  -0.07 kcal/mol
DOCKED: USER        Moving Ligand-Fixed Receptor    =  -9.66 kcal/mol
DOCKED: USER        Moving Ligand-Moving Receptor   =  +0.00 kcal/mol
DOCKED: USER    (2) Final Total Internal Energy     =  -2.00 kcal/mol
DOCKED: USER    (3) Torsional Free Energy           =  +2.39 kcal/mol
DOCKED: USER    (4) Unbound System's Energy         =  -2.00 kcal/mol
DOCKED: USER
DOCKED: USER
DOCKED: REMARK SMILES CN(CCCc1ccccn1)C(=O)CNC(=O)c1ccc2cc(Cl)ccc2n1
DOCKED: REMARK SMILES IDX 1 1 2 2 3 3 4 4 5 5 6 6 7 7 11 8 8 9 10 10 9 11 12 12 13 13
DOCKED: REMARK SMILES IDX 14 14 15 15 16 16 17 18 18 19 19 20 28 21 20 22 27 23 21 24
DOCKED: REMARK SMILES IDX 26 25 22 26 25 27 23 28 24 29
DOCKED: REMARK H PARENT 15 17
DOCKED: USER                              x       y       z     vdW  Elec       q    Type
DOCKED: USER                           _______ _______ _______ _____ _____    ______ ____
DOCKED: ROOT
DOCKED: ATOM      1  C   UNL     1     138.798  78.560 220.373 -0.06 -0.04    +0.146 C  
DOCKED: ATOM      2  N   UNL     1     139.763  77.885 221.166 -0.05 +0.10    -0.344 N  
DOCKED: ENDROOT
DOCKED: BRANCH   2   3
DOCKED: ATOM      3  C   UNL     1     141.151  78.209 221.375 -0.29 -0.05    +0.119 C  
DOCKED: BRANCH   3   4
DOCKED: ATOM      4  C   UNL     1     141.448  78.274 222.840 -0.49 -0.01    +0.028 C  
DOCKED: BRANCH   4   5
DOCKED: ATOM      5  C   UNL     1     141.615  79.689 223.301 -0.55 -0.02    +0.058 C  
DOCKED: BRANCH   5   6
DOCKED: ATOM      6  C   UNL     1     140.317  80.387 223.167 -0.41 -0.01    +0.040 A  
DOCKED: ATOM      7  C   UNL     1     139.266  79.851 223.931 -0.41 -0.00    +0.024 A  
DOCKED: ATOM      8  N   UNL     1     140.031  81.436 222.427 -0.16 +0.04    -0.261 NA 
DOCKED: ATOM      9  C   UNL     1     138.005  80.406 223.898 -0.36 -0.00    +0.003 A  
DOCKED: ATOM     10  C   UNL     1     138.825  82.024 222.351 -0.16 -0.01    +0.111 A  
DOCKED: ATOM     11  C   UNL     1     137.789  81.503 223.099 -0.23 -0.00    +0.020 A  
DOCKED: ENDBRANCH   5   6
DOCKED: ENDBRANCH   4   5
DOCKED: ENDBRANCH   3   4
DOCKED: ENDBRANCH   2   3
DOCKED: BRANCH   2  12
DOCKED: ATOM     12  C   UNL     1     139.307  76.678 221.837 -0.21 -0.05    +0.241 C  
DOCKED: ATOM     13  O   UNL     1     138.713  76.720 222.939 -0.21 +0.05    -0.273 OA 
DOCKED: BRANCH  12  14
DOCKED: ATOM     14  C   UNL     1     139.524  75.333 221.243 -0.18 -0.05    +0.216 C  
DOCKED: BRANCH  14  15
DOCKED: ATOM     15  N   UNL     1     139.554  74.309 222.276 -0.10 +0.05    -0.342 N  
DOCKED: ATOM     16  C   UNL     1     139.967  72.987 221.961 -0.19 -0.04    +0.270 C  
DOCKED: ATOM     17  H   UNL     1     139.279  74.496 223.271 -0.52 -0.05    +0.164 HD 
DOCKED: ATOM     18  O   UNL     1     140.319  72.669 220.777 -0.09 +0.04    -0.268 OA 
DOCKED: BRANCH  16  19
DOCKED: ATOM     19  C   UNL     1     139.990  71.970 223.009 -0.29 -0.02    +0.128 A  
DOCKED: ATOM     20  C   UNL     1     139.532  70.694 222.754 -0.24 -0.01    +0.035 A  
DOCKED: ATOM     21  N   UNL     1     140.460  72.263 224.238 -0.08 +0.03    -0.243 NA 
DOCKED: ATOM     22  C   UNL     1     139.569  69.751 223.775 -0.27 -0.00    +0.013 A  
DOCKED: ATOM     23  C   UNL     1     140.514  71.381 225.254 -0.50 -0.01    +0.071 A  
DOCKED: ATOM     24  C   UNL     1     140.060  70.097 225.021 -0.43 -0.00    +0.002 A  
DOCKED: ATOM     25  C   UNL     1     141.014  71.786 226.476 -0.69 -0.00    +0.030 A  
DOCKED: ATOM     26  C   UNL     1     140.126  69.213 226.077 -0.49 -0.01    +0.030 A  
DOCKED: ATOM     27  C   UNL     1     141.061  70.867 227.505 -0.66 -0.00    +0.023 A  
DOCKED: ATOM     28  C   UNL     1     140.618  69.574 227.315 -0.56 -0.01    +0.041 A  
DOCKED: ATOM     29  Cl  UNL     1     140.711  68.474 228.663 -0.72 +0.02    -0.084 Cl 
DOCKED: ENDBRANCH  16  19
DOCKED: ENDBRANCH  14  15
DOCKED: ENDBRANCH  12  14
DOCKED: ENDBRANCH   2  12
DOCKED: TORSDOF 8
DOCKED: TER
DOCKED: ENDMDL
________________________________________________________________________________


    FINAL DOCKED STATE:
    ________________________


Run:   16 / 20
Time taken for this run:   0.033s

DOCKED: MODEL        16
DOCKED: USER    Run = 16
DOCKED: USER
DOCKED: USER    Estimated Free Energy of Binding    =  -7.83 kcal/mol  [=(1)+(2)+(3)-(4)]
DOCKED: USER
DOCKED: USER    (1) Final Intermolecular Energy     = -10.22 kcal/mol
DOCKED: USER        vdW + Hbond + desolv Energy     = -10.18 kcal/mol
DOCKED: USER        Electrostatic Energy            =  -0.04 kcal/mol
DOCKED: USER        Moving Ligand-Fixed Receptor    = -10.22 kcal/mol
DOCKED: USER        Moving Ligand-Moving Receptor   =  +0.00 kcal/mol
DOCKED: USER    (2) Final Total Internal Energy     =  -2.27 kcal/mol
DOCKED: USER    (3) Torsional Free Energy           =  +2.39 kcal/mol
DOCKED: USER    (4) Unbound System's Energy         =  -2.27 kcal/mol
DOCKED: USER
DOCKED: USER
DOCKED: REMARK SMILES CN(CCCc1ccccn1)C(=O)CNC(=O)c1ccc2cc(Cl)ccc2n1
DOCKED: REMARK SMILES IDX 1 1 2 2 3 3 4 4 5 5 6 6 7 7 11 8 8 9 10 10 9 11 12 12 13 13
DOCKED: REMARK SMILES IDX 14 14 15 15 16 16 17 18 18 19 19 20 28 21 20 22 27 23 21 24
DOCKED: REMARK SMILES IDX 26 25 22 26 25 27 23 28 24 29
DOCKED: REMARK H PARENT 15 17
DOCKED: USER                              x       y       z     vdW  Elec       q    Type
DOCKED: USER                           _______ _______ _______ _____ _____    ______ ____
DOCKED: ROOT
DOCKED: ATOM      1  C   UNL     1     136.508  68.919 223.206 -0.13 -0.01    +0.146 C  
DOCKED: ATOM      2  N   UNL     1     137.484  69.462 224.083 -0.11 +0.04    -0.344 N  
DOCKED: ENDROOT
DOCKED: BRANCH   2   3
DOCKED: ATOM      3  C   UNL     1     137.972  68.935 225.332 -0.24 -0.01    +0.119 C  
DOCKED: BRANCH   3   4
DOCKED: ATOM      4  C   UNL     1     139.276  68.233 225.118 -0.42 -0.00    +0.028 C  
DOCKED: BRANCH   4   5
DOCKED: ATOM      5  C   UNL     1     140.118  68.259 226.357 -0.59 -0.01    +0.058 C  
DOCKED: BRANCH   5   6
DOCKED: ATOM      6  C   UNL     1     140.493  69.662 226.645 -0.52 -0.01    +0.040 A  
DOCKED: ATOM      7  C   UNL     1     140.122  70.133 227.915 -0.62 -0.00    +0.024 A  
DOCKED: ATOM      8  N   UNL     1     141.125  70.510 225.862 -0.31 +0.04    -0.261 NA 
DOCKED: ATOM      9  C   UNL     1     140.411  71.421 228.311 -0.73 -0.00    +0.003 A  
DOCKED: ATOM     10  C   UNL     1     141.437  71.776 226.187 -0.54 -0.01    +0.111 A  
DOCKED: ATOM     11  C   UNL     1     141.075  72.245 227.433 -0.81 -0.00    +0.020 A  
DOCKED: ENDBRANCH   5   6
DOCKED: ENDBRANCH   4   5
DOCKED: ENDBRANCH   3   4
DOCKED: ENDBRANCH   2   3
DOCKED: BRANCH   2  12
DOCKED: ATOM     12  C   UNL     1     138.052  70.742 223.693 -0.17 -0.05    +0.241 C  
DOCKED: ATOM     13  O   UNL     1     137.419  71.815 223.832 -0.13 +0.09    -0.273 OA 
DOCKED: BRANCH  12  14
DOCKED: ATOM     14  C   UNL     1     139.414  70.838 223.108 -0.21 -0.04    +0.216 C  
DOCKED: BRANCH  14  15
DOCKED: ATOM     15  N   UNL     1     139.724  72.211 222.737 -0.17 +0.07    -0.342 N  
DOCKED: ATOM     16  C   UNL     1     140.771  72.484 221.818 -0.18 -0.03    +0.270 C  
DOCKED: ATOM     17  H   UNL     1     139.203  73.035 223.122 -0.44 -0.07    +0.164 HD 
DOCKED: ATOM     18  O   UNL     1     141.459  71.543 221.300 -0.14 +0.03    -0.268 OA 
DOCKED: BRANCH  16  19
DOCKED: ATOM     19  C   UNL     1     141.071  73.867 221.457 -0.24 -0.01    +0.128 A  
DOCKED: ATOM     20  C   UNL     1     142.016  74.148 220.491 -0.25 -0.01    +0.035 A  
DOCKED: ATOM     21  N   UNL     1     140.429  74.888 222.060 -0.64 +0.02    -0.243 NA 
DOCKED: ATOM     22  C   UNL     1     142.275  75.476 220.172 -0.30 -0.01    +0.013 A  
DOCKED: ATOM     23  C   UNL     1     140.649  76.186 221.781 -0.34 -0.02    +0.071 A  
DOCKED: ATOM     24  C   UNL     1     141.592  76.490 220.817 -0.27 -0.00    +0.002 A  
DOCKED: ATOM     25  C   UNL     1     139.935  77.155 222.459 -0.34 -0.01    +0.030 A  
DOCKED: ATOM     26  C   UNL     1     141.799  77.828 220.550 -0.31 -0.02    +0.030 A  
DOCKED: ATOM     27  C   UNL     1     140.176  78.480 222.160 -0.32 -0.01    +0.023 A  
DOCKED: ATOM     28  C   UNL     1     141.109  78.829 221.203 -0.30 -0.02    +0.041 A  
DOCKED: ATOM     29  Cl  UNL     1     141.354  80.523 220.882 -0.41 +0.03    -0.084 Cl 
DOCKED: ENDBRANCH  16  19
DOCKED: ENDBRANCH  14  15
DOCKED: ENDBRANCH  12  14
DOCKED: ENDBRANCH   2  12
DOCKED: TORSDOF 8
DOCKED: TER
DOCKED: ENDMDL
________________________________________________________________________________


    FINAL DOCKED STATE:
    ________________________


Run:   17 / 20
Time taken for this run:   0.033s

DOCKED: MODEL        17
DOCKED: USER    Run = 17
DOCKED: USER
DOCKED: USER    Estimated Free Energy of Binding    =  -8.11 kcal/mol  [=(1)+(2)+(3)-(4)]
DOCKED: USER
DOCKED: USER    (1) Final Intermolecular Energy     = -10.50 kcal/mol
DOCKED: USER        vdW + Hbond + desolv Energy     = -10.45 kcal/mol
DOCKED: USER        Electrostatic Energy            =  -0.05 kcal/mol
DOCKED: USER        Moving Ligand-Fixed Receptor    = -10.50 kcal/mol
DOCKED: USER        Moving Ligand-Moving Receptor   =  +0.00 kcal/mol
DOCKED: USER    (2) Final Total Internal Energy     =  -2.18 kcal/mol
DOCKED: USER    (3) Torsional Free Energy           =  +2.39 kcal/mol
DOCKED: USER    (4) Unbound System's Energy         =  -2.18 kcal/mol
DOCKED: USER
DOCKED: USER
DOCKED: REMARK SMILES CN(CCCc1ccccn1)C(=O)CNC(=O)c1ccc2cc(Cl)ccc2n1
DOCKED: REMARK SMILES IDX 1 1 2 2 3 3 4 4 5 5 6 6 7 7 11 8 8 9 10 10 9 11 12 12 13 13
DOCKED: REMARK SMILES IDX 14 14 15 15 16 16 17 18 18 19 19 20 28 21 20 22 27 23 21 24
DOCKED: REMARK SMILES IDX 26 25 22 26 25 27 23 28 24 29
DOCKED: REMARK H PARENT 15 17
DOCKED: USER                              x       y       z     vdW  Elec       q    Type
DOCKED: USER                           _______ _______ _______ _____ _____    ______ ____
DOCKED: ROOT
DOCKED: ATOM      1  C   UNL     1     138.406  68.164 223.164 -0.21 -0.02    +0.146 C  
DOCKED: ATOM      2  N   UNL     1     138.634  69.067 224.235 -0.14 +0.04    -0.344 N  
DOCKED: ENDROOT
DOCKED: BRANCH   2   3
DOCKED: ATOM      3  C   UNL     1     138.568  68.824 225.654 -0.32 -0.01    +0.119 C  
DOCKED: BRANCH   3   4
DOCKED: ATOM      4  C   UNL     1     139.617  67.835 226.055 -0.60 -0.00    +0.028 C  
DOCKED: BRANCH   4   5
DOCKED: ATOM      5  C   UNL     1     140.213  68.182 227.384 -0.62 -0.01    +0.058 C  
DOCKED: BRANCH   5   6
DOCKED: ATOM      6  C   UNL     1     140.476  69.639 227.419 -0.57 -0.01    +0.040 A  
DOCKED: ATOM      7  C   UNL     1     141.240  70.136 226.350 -0.53 -0.00    +0.024 A  
DOCKED: ATOM      8  N   UNL     1     140.085  70.513 228.321 -0.35 +0.05    -0.261 NA 
DOCKED: ATOM      9  C   UNL     1     141.557  71.474 226.262 -0.59 -0.00    +0.003 A  
DOCKED: ATOM     10  C   UNL     1     140.359  71.828 228.294 -0.65 -0.03    +0.111 A  
DOCKED: ATOM     11  C   UNL     1     141.109  72.323 227.246 -0.78 -0.00    +0.020 A  
DOCKED: ENDBRANCH   5   6
DOCKED: ENDBRANCH   4   5
DOCKED: ENDBRANCH   3   4
DOCKED: ENDBRANCH   2   3
DOCKED: BRANCH   2  12
DOCKED: ATOM     12  C   UNL     1     138.946  70.437 223.861 -0.21 -0.05    +0.241 C  
DOCKED: ATOM     13  O   UNL     1     138.772  71.393 224.652 -0.18 +0.08    -0.273 OA 
DOCKED: BRANCH  12  14
DOCKED: ATOM     14  C   UNL     1     139.488  70.768 222.518 -0.16 -0.04    +0.216 C  
DOCKED: BRANCH  14  15
DOCKED: ATOM     15  N   UNL     1     139.776  72.190 222.410 -0.16 +0.06    -0.342 N  
DOCKED: ATOM     16  C   UNL     1     140.658  72.667 221.405 -0.17 -0.03    +0.270 C  
DOCKED: ATOM     17  H   UNL     1     139.357  72.905 223.054 -0.33 -0.05    +0.164 HD 
DOCKED: ATOM     18  O   UNL     1     141.213  71.869 220.579 -0.10 +0.04    -0.268 OA 
DOCKED: BRANCH  16  19
DOCKED: ATOM     19  C   UNL     1     140.937  74.098 221.311 -0.25 -0.02    +0.128 A  
DOCKED: ATOM     20  C   UNL     1     141.956  74.559 220.503 -0.27 -0.01    +0.035 A  
DOCKED: ATOM     21  N   UNL     1     140.205  74.987 222.011 -0.65 +0.03    -0.243 NA 
DOCKED: ATOM     22  C   UNL     1     142.194  75.927 220.437 -0.26 -0.01    +0.013 A  
DOCKED: ATOM     23  C   UNL     1     140.401  76.318 221.977 -0.35 -0.02    +0.071 A  
DOCKED: ATOM     24  C   UNL     1     141.417  76.802 221.174 -0.28 -0.00    +0.002 A  
DOCKED: ATOM     25  C   UNL     1     139.593  77.142 222.735 -0.23 -0.01    +0.030 A  
DOCKED: ATOM     26  C   UNL     1     141.598  78.169 221.156 -0.33 -0.02    +0.030 A  
DOCKED: ATOM     27  C   UNL     1     139.810  78.503 222.687 -0.35 -0.00    +0.023 A  
DOCKED: ATOM     28  C   UNL     1     140.814  79.030 221.897 -0.32 -0.01    +0.041 A  
DOCKED: ATOM     29  Cl  UNL     1     141.024  80.759 221.890 -0.47 +0.02    -0.084 Cl 
DOCKED: ENDBRANCH  16  19
DOCKED: ENDBRANCH  14  15
DOCKED: ENDBRANCH  12  14
DOCKED: ENDBRANCH   2  12
DOCKED: TORSDOF 8
DOCKED: TER
DOCKED: ENDMDL
________________________________________________________________________________


    FINAL DOCKED STATE:
    ________________________


Run:   18 / 20
Time taken for this run:   0.033s

DOCKED: MODEL        18
DOCKED: USER    Run = 18
DOCKED: USER
DOCKED: USER    Estimated Free Energy of Binding    =  -6.36 kcal/mol  [=(1)+(2)+(3)-(4)]
DOCKED: USER
DOCKED: USER    (1) Final Intermolecular Energy     =  -8.74 kcal/mol
DOCKED: USER        vdW + Hbond + desolv Energy     =  -8.68 kcal/mol
DOCKED: USER        Electrostatic Energy            =  -0.06 kcal/mol
DOCKED: USER        Moving Ligand-Fixed Receptor    =  -8.74 kcal/mol
DOCKED: USER        Moving Ligand-Moving Receptor   =  +0.00 kcal/mol
DOCKED: USER    (2) Final Total Internal Energy     =  -2.80 kcal/mol
DOCKED: USER    (3) Torsional Free Energy           =  +2.39 kcal/mol
DOCKED: USER    (4) Unbound System's Energy         =  -2.80 kcal/mol
DOCKED: USER
DOCKED: USER
DOCKED: REMARK SMILES CN(CCCc1ccccn1)C(=O)CNC(=O)c1ccc2cc(Cl)ccc2n1
DOCKED: REMARK SMILES IDX 1 1 2 2 3 3 4 4 5 5 6 6 7 7 11 8 8 9 10 10 9 11 12 12 13 13
DOCKED: REMARK SMILES IDX 14 14 15 15 16 16 17 18 18 19 19 20 28 21 20 22 27 23 21 24
DOCKED: REMARK SMILES IDX 26 25 22 26 25 27 23 28 24 29
DOCKED: REMARK H PARENT 15 17
DOCKED: USER                              x       y       z     vdW  Elec       q    Type
DOCKED: USER                           _______ _______ _______ _____ _____    ______ ____
DOCKED: ROOT
DOCKED: ATOM      1  C   UNL     1     135.825  74.988 223.540 -0.21 -0.04    +0.146 C  
DOCKED: ATOM      2  N   UNL     1     136.864  75.504 222.722 -0.12 +0.10    -0.344 N  
DOCKED: ENDROOT
DOCKED: BRANCH   2   3
DOCKED: ATOM      3  C   UNL     1     137.939  76.394 223.078 -0.16 -0.03    +0.119 C  
DOCKED: BRANCH   3   4
DOCKED: ATOM      4  C   UNL     1     138.761  76.716 221.870 -0.26 -0.01    +0.028 C  
DOCKED: BRANCH   4   5
DOCKED: ATOM      5  C   UNL     1     140.226  76.656 222.175 -0.36 -0.01    +0.058 C  
DOCKED: BRANCH   5   6
DOCKED: ATOM      6  C   UNL     1     140.725  75.303 221.839 -0.31 -0.01    +0.040 A  
DOCKED: ATOM      7  C   UNL     1     141.744  75.263 220.872 -0.30 -0.01    +0.024 A  
DOCKED: ATOM      8  N   UNL     1     140.332  74.148 222.330 -0.72 -0.02    -0.261 NA 
DOCKED: ATOM      9  C   UNL     1     142.297  74.067 220.468 -0.28 -0.00    +0.003 A  
DOCKED: ATOM     10  C   UNL     1     140.829  72.950 221.980 -0.26 -0.01    +0.111 A  
DOCKED: ATOM     11  C   UNL     1     141.831  72.903 221.031 -0.25 -0.00    +0.020 A  
DOCKED: ENDBRANCH   5   6
DOCKED: ENDBRANCH   4   5
DOCKED: ENDBRANCH   3   4
DOCKED: ENDBRANCH   2   3
DOCKED: BRANCH   2  12
DOCKED: ATOM     12  C   UNL     1     136.828  75.114 221.322 -0.07 -0.05    +0.241 C  
DOCKED: ATOM     13  O   UNL     1     136.335  75.857 220.442 -0.02 +0.05    -0.273 OA 
DOCKED: BRANCH  12  14
DOCKED: ATOM     14  C   UNL     1     137.376  73.809 220.868 -0.06 -0.05    +0.216 C  
DOCKED: BRANCH  14  15
DOCKED: ATOM     15  N   UNL     1     137.843  73.020 221.998 -0.07 +0.10    -0.342 N  
DOCKED: ATOM     16  C   UNL     1     137.613  71.620 222.036 -0.07 -0.06    +0.270 C  
DOCKED: ATOM     17  H   UNL     1     138.354  73.440 222.812 -0.52 -0.09    +0.164 HD 
DOCKED: ATOM     18  O   UNL     1     136.999  71.024 221.090 -0.02 +0.05    -0.268 OA 
DOCKED: BRANCH  16  19
DOCKED: ATOM     19  C   UNL     1     138.087  70.842 223.178 -0.18 -0.03    +0.128 A  
DOCKED: ATOM     20  C   UNL     1     137.619  69.562 223.394 -0.21 -0.00    +0.035 A  
DOCKED: ATOM     21  N   UNL     1     138.987  71.363 224.036 -0.18 +0.07    -0.243 NA 
DOCKED: ATOM     22  C   UNL     1     138.092  68.851 224.490 -0.31 -0.00    +0.013 A  
DOCKED: ATOM     23  C   UNL     1     139.470  70.709 225.109 -0.38 -0.01    +0.071 A  
DOCKED: ATOM     24  C   UNL     1     139.015  69.426 225.344 -0.41 -0.00    +0.002 A  
DOCKED: ATOM     25  C   UNL     1     140.391  71.336 225.926 -0.56 -0.00    +0.030 A  
DOCKED: ATOM     26  C   UNL     1     139.526  68.778 226.450 -0.52 -0.00    +0.030 A  
DOCKED: ATOM     27  C   UNL     1     140.874  70.650 227.021 -0.62 -0.00    +0.023 A  
DOCKED: ATOM     28  C   UNL     1     140.447  69.366 227.293 -0.57 -0.01    +0.041 A  
DOCKED: ATOM     29  Cl  UNL     1     141.106  68.567 228.694 -0.68 +0.02    -0.084 Cl 
DOCKED: ENDBRANCH  16  19
DOCKED: ENDBRANCH  14  15
DOCKED: ENDBRANCH  12  14
DOCKED: ENDBRANCH   2  12
DOCKED: TORSDOF 8
DOCKED: TER
DOCKED: ENDMDL
________________________________________________________________________________


    FINAL DOCKED STATE:
    ________________________


Run:   19 / 20
Time taken for this run:   0.033s

DOCKED: MODEL        19
DOCKED: USER    Run = 19
DOCKED: USER
DOCKED: USER    Estimated Free Energy of Binding    =  -7.52 kcal/mol  [=(1)+(2)+(3)-(4)]
DOCKED: USER
DOCKED: USER    (1) Final Intermolecular Energy     =  -9.90 kcal/mol
DOCKED: USER        vdW + Hbond + desolv Energy     =  -9.86 kcal/mol
DOCKED: USER        Electrostatic Energy            =  -0.04 kcal/mol
DOCKED: USER        Moving Ligand-Fixed Receptor    =  -9.90 kcal/mol
DOCKED: USER        Moving Ligand-Moving Receptor   =  +0.00 kcal/mol
DOCKED: USER    (2) Final Total Internal Energy     =  -2.25 kcal/mol
DOCKED: USER    (3) Torsional Free Energy           =  +2.39 kcal/mol
DOCKED: USER    (4) Unbound System's Energy         =  -2.25 kcal/mol
DOCKED: USER
DOCKED: USER
DOCKED: REMARK SMILES CN(CCCc1ccccn1)C(=O)CNC(=O)c1ccc2cc(Cl)ccc2n1
DOCKED: REMARK SMILES IDX 1 1 2 2 3 3 4 4 5 5 6 6 7 7 11 8 8 9 10 10 9 11 12 12 13 13
DOCKED: REMARK SMILES IDX 14 14 15 15 16 16 17 18 18 19 19 20 28 21 20 22 27 23 21 24
DOCKED: REMARK SMILES IDX 26 25 22 26 25 27 23 28 24 29
DOCKED: REMARK H PARENT 15 17
DOCKED: USER                              x       y       z     vdW  Elec       q    Type
DOCKED: USER                           _______ _______ _______ _____ _____    ______ ____
DOCKED: ROOT
DOCKED: ATOM      1  C   UNL     1     136.196  69.583 224.938 -0.18 -0.01    +0.146 C  
DOCKED: ATOM      2  N   UNL     1     137.431  69.573 224.238 -0.11 +0.04    -0.344 N  
DOCKED: ENDROOT
DOCKED: BRANCH   2   3
DOCKED: ATOM      3  C   UNL     1     138.339  68.476 224.020 -0.20 -0.01    +0.119 C  
DOCKED: BRANCH   3   4
DOCKED: ATOM      4  C   UNL     1     139.584  68.671 224.827 -0.32 -0.00    +0.028 C  
DOCKED: BRANCH   4   5
DOCKED: ATOM      5  C   UNL     1     139.267  68.866 226.278 -0.47 -0.01    +0.058 C  
DOCKED: BRANCH   5   6
DOCKED: ATOM      6  C   UNL     1     139.980  70.071 226.760 -0.51 -0.01    +0.040 A  
DOCKED: ATOM      7  C   UNL     1     140.759  70.733 225.796 -0.57 -0.00    +0.024 A  
DOCKED: ATOM      8  N   UNL     1     139.972  70.590 227.969 -0.36 +0.04    -0.261 NA 
DOCKED: ATOM      9  C   UNL     1     141.473  71.868 226.113 -0.58 -0.00    +0.003 A  
DOCKED: ATOM     10  C   UNL     1     140.644  71.691 228.342 -0.65 -0.03    +0.111 A  
DOCKED: ATOM     11  C   UNL     1     141.411  72.347 227.400 -0.78 -0.00    +0.020 A  
DOCKED: ENDBRANCH   5   6
DOCKED: ENDBRANCH   4   5
DOCKED: ENDBRANCH   3   4
DOCKED: ENDBRANCH   2   3
DOCKED: BRANCH   2  12
DOCKED: ATOM     12  C   UNL     1     137.866  70.848 223.691 -0.16 -0.05    +0.241 C  
DOCKED: ATOM     13  O   UNL     1     137.253  71.913 223.934 -0.10 +0.09    -0.273 OA 
DOCKED: BRANCH  12  14
DOCKED: ATOM     14  C   UNL     1     139.062  70.946 222.815 -0.18 -0.04    +0.216 C  
DOCKED: BRANCH  14  15
DOCKED: ATOM     15  N   UNL     1     139.409  72.337 222.564 -0.14 +0.08    -0.342 N  
DOCKED: ATOM     16  C   UNL     1     140.539  72.660 221.769 -0.19 -0.03    +0.270 C  
DOCKED: ATOM     17  H   UNL     1     138.855  73.140 222.951 -0.44 -0.08    +0.164 HD 
DOCKED: ATOM     18  O   UNL     1     141.271  71.749 221.258 -0.14 +0.03    -0.268 OA 
DOCKED: BRANCH  16  19
DOCKED: ATOM     19  C   UNL     1     140.875  74.061 221.528 -0.25 -0.01    +0.128 A  
DOCKED: ATOM     20  C   UNL     1     141.874  74.397 220.637 -0.27 -0.01    +0.035 A  
DOCKED: ATOM     21  N   UNL     1     140.214  75.045 222.171 -0.60 +0.02    -0.243 NA 
DOCKED: ATOM     22  C   UNL     1     142.167  75.740 220.433 -0.28 -0.01    +0.013 A  
DOCKED: ATOM     23  C   UNL     1     140.465  76.357 222.002 -0.36 -0.02    +0.071 A  
DOCKED: ATOM     24  C   UNL     1     141.462  76.716 221.115 -0.27 -0.00    +0.002 A  
DOCKED: ATOM     25  C   UNL     1     139.728  77.284 222.712 -0.28 -0.01    +0.030 A  
DOCKED: ATOM     26  C   UNL     1     141.700  78.065 220.960 -0.32 -0.02    +0.030 A  
DOCKED: ATOM     27  C   UNL     1     140.001  78.623 222.526 -0.35 -0.01    +0.023 A  
DOCKED: ATOM     28  C   UNL     1     140.989  79.027 221.649 -0.32 -0.02    +0.041 A  
DOCKED: ATOM     29  Cl  UNL     1     141.272  80.736 221.469 -0.47 +0.02    -0.084 Cl 
DOCKED: ENDBRANCH  16  19
DOCKED: ENDBRANCH  14  15
DOCKED: ENDBRANCH  12  14
DOCKED: ENDBRANCH   2  12
DOCKED: TORSDOF 8
DOCKED: TER
DOCKED: ENDMDL
________________________________________________________________________________


    FINAL DOCKED STATE:
    ________________________


Run:   20 / 20
Time taken for this run:   0.033s

DOCKED: MODEL        20
DOCKED: USER    Run = 20
DOCKED: USER
DOCKED: USER    Estimated Free Energy of Binding    =  -8.33 kcal/mol  [=(1)+(2)+(3)-(4)]
DOCKED: USER
DOCKED: USER    (1) Final Intermolecular Energy     = -10.72 kcal/mol
DOCKED: USER        vdW + Hbond + desolv Energy     = -10.66 kcal/mol
DOCKED: USER        Electrostatic Energy            =  -0.06 kcal/mol
DOCKED: USER        Moving Ligand-Fixed Receptor    = -10.72 kcal/mol
DOCKED: USER        Moving Ligand-Moving Receptor   =  +0.00 kcal/mol
DOCKED: USER    (2) Final Total Internal Energy     =  -2.04 kcal/mol
DOCKED: USER    (3) Torsional Free Energy           =  +2.39 kcal/mol
DOCKED: USER    (4) Unbound System's Energy         =  -2.04 kcal/mol
DOCKED: USER
DOCKED: USER
DOCKED: REMARK SMILES CN(CCCc1ccccn1)C(=O)CNC(=O)c1ccc2cc(Cl)ccc2n1
DOCKED: REMARK SMILES IDX 1 1 2 2 3 3 4 4 5 5 6 6 7 7 11 8 8 9 10 10 9 11 12 12 13 13
DOCKED: REMARK SMILES IDX 14 14 15 15 16 16 17 18 18 19 19 20 28 21 20 22 27 23 21 24
DOCKED: REMARK SMILES IDX 26 25 22 26 25 27 23 28 24 29
DOCKED: REMARK H PARENT 15 17
DOCKED: USER                              x       y       z     vdW  Elec       q    Type
DOCKED: USER                           _______ _______ _______ _____ _____    ______ ____
DOCKED: ROOT
DOCKED: ATOM      1  C   UNL     1     138.813  68.017 223.326 -0.20 -0.02    +0.146 C  
DOCKED: ATOM      2  N   UNL     1     138.841  68.946 224.398 -0.14 +0.04    -0.344 N  
DOCKED: ENDROOT
DOCKED: BRANCH   2   3
DOCKED: ATOM      3  C   UNL     1     138.818  68.693 225.817 -0.36 -0.01    +0.119 C  
DOCKED: BRANCH   3   4
DOCKED: ATOM      4  C   UNL     1     139.775  67.594 226.157 -0.61 -0.00    +0.028 C  
DOCKED: BRANCH   4   5
DOCKED: ATOM      5  C   UNL     1     140.740  68.023 227.219 -0.63 -0.01    +0.058 C  
DOCKED: BRANCH   5   6
DOCKED: ATOM      6  C   UNL     1     140.905  69.492 227.145 -0.55 -0.01    +0.040 A  
DOCKED: ATOM      7  C   UNL     1     140.442  70.205 228.264 -0.57 -0.00    +0.024 A  
DOCKED: ATOM      8  N   UNL     1     141.427  70.202 226.169 -0.29 +0.04    -0.261 NA 
DOCKED: ATOM      9  C   UNL     1     140.535  71.578 228.324 -0.75 -0.00    +0.003 A  
DOCKED: ATOM     10  C   UNL     1     141.548  71.540 226.165 -0.50 -0.01    +0.111 A  
DOCKED: ATOM     11  C   UNL     1     141.094  72.246 227.261 -0.80 -0.00    +0.020 A  
DOCKED: ENDBRANCH   5   6
DOCKED: ENDBRANCH   4   5
DOCKED: ENDBRANCH   3   4
DOCKED: ENDBRANCH   2   3
DOCKED: BRANCH   2  12
DOCKED: ATOM     12  C   UNL     1     138.861  70.351 224.026 -0.22 -0.04    +0.241 C  
DOCKED: ATOM     13  O   UNL     1     138.900  71.262 224.886 -0.19 +0.07    -0.273 OA 
DOCKED: BRANCH  12  14
DOCKED: ATOM     14  C   UNL     1     138.837  70.775 222.602 -0.15 -0.04    +0.216 C  
DOCKED: BRANCH  14  15
DOCKED: ATOM     15  N   UNL     1     139.274  72.156 222.463 -0.13 +0.08    -0.342 N  
DOCKED: ATOM     16  C   UNL     1     140.243  72.505 221.486 -0.16 -0.04    +0.270 C  
DOCKED: ATOM     17  H   UNL     1     138.904  72.932 223.064 -0.42 -0.08    +0.164 HD 
DOCKED: ATOM     18  O   UNL     1     140.748  71.625 220.711 -0.09 +0.04    -0.268 OA 
DOCKED: BRANCH  16  19
DOCKED: ATOM     19  C   UNL     1     140.672  73.895 221.360 -0.24 -0.02    +0.128 A  
DOCKED: ATOM     20  C   UNL     1     141.733  74.228 220.543 -0.25 -0.01    +0.035 A  
DOCKED: ATOM     21  N   UNL     1     140.038  74.872 222.038 -0.69 +0.02    -0.243 NA 
DOCKED: ATOM     22  C   UNL     1     142.115  75.560 220.447 -0.29 -0.01    +0.013 A  
DOCKED: ATOM     23  C   UNL     1     140.374  76.174 221.974 -0.35 -0.02    +0.071 A  
DOCKED: ATOM     24  C   UNL     1     141.435  76.529 221.162 -0.28 -0.00    +0.002 A  
DOCKED: ATOM     25  C   UNL     1     139.658  77.096 222.712 -0.26 -0.01    +0.030 A  
DOCKED: ATOM     26  C   UNL     1     141.760  77.869 221.114 -0.29 -0.02    +0.030 A  
DOCKED: ATOM     27  C   UNL     1     140.018  78.425 222.633 -0.36 -0.01    +0.023 A  
DOCKED: ATOM     28  C   UNL     1     141.071  78.824 221.834 -0.35 -0.02    +0.041 A  
DOCKED: ATOM     29  Cl  UNL     1     141.463  80.521 221.788 -0.52 +0.03    -0.084 Cl 
DOCKED: ENDBRANCH  16  19
DOCKED: ENDBRANCH  14  15
DOCKED: ENDBRANCH  12  14
DOCKED: ENDBRANCH   2  12
DOCKED: TORSDOF 8
DOCKED: TER
DOCKED: ENDMDL
________________________________________________________________________________


    CLUSTERING HISTOGRAM
    ____________________


________________________________________________________________________________
     |           |     |           |     |
Clus | Lowest    | Run | Mean      | Num | Histogram
-ter | Binding   |     | Binding   | in  |
Rank | Energy    |     | Energy    | Clus|    5    10   15   20   25   30   35
_____|___________|_____|___________|_____|____:____|____:____|____:____|____:___
   1 |     -8.33 |  20 |     -7.89 |   8 |########
   2 |     -7.97 |  11 |     -7.80 |   3 |###
   3 |     -7.64 |  14 |     -7.47 |   7 |#######
   4 |     -7.24 |   7 |     -7.24 |   1 |#
   5 |     -6.36 |  18 |     -6.36 |   1 |#
_____|___________|_____|___________|_____|______________________________________


    RMSD TABLE
    __________


_______________________________________________________________________
     |      |      |           |         |                 |
Rank | Sub- | Run  | Binding   | Cluster | Reference       | Grep
     | Rank |      | Energy    | RMSD    | RMSD            | Pattern
_____|______|______|___________|_________|_________________|___________
   1      1     20       -8.33      0.00    270.49           RANKING
   1      2     17       -8.11      0.63    270.51           RANKING
   1      3      8       -8.04      0.22    270.48           RANKING
   1      4      3       -8.00      0.71    270.44           RANKING
   1      5     12       -7.86      0.95    270.32           RANKING
   1      6     16       -7.83      0.86    270.25           RANKING
   1      7     19       -7.52      1.01    270.30           RANKING
   1      8     10       -7.44      1.05    270.20           RANKING
   2      1     11       -7.97      0.00    270.32           RANKING
   2      2     13       -7.90      0.90    270.20           RANKING
   2      3      5       -7.53      0.74    270.18           RANKING
   3      1     14       -7.64      0.00    270.74           RANKING
   3      2      1       -7.56      0.82    270.50           RANKING
   3      3      2       -7.54      0.89    270.57           RANKING
   3      4      9       -7.49      0.68    270.60           RANKING
   3      5      6       -7.40      0.91    270.44           RANKING
   3      6      4       -7.38      0.82    270.57           RANKING
   3      7     15       -7.28      1.44    270.78           RANKING
   4      1      7       -7.24      0.00    270.07           RANKING
   5      1     18       -6.36      0.00    269.42           RANKING

Run time 0.689 sec
Idle time 0.362 sec
