AutoDock-GPU version: v1.6

**********************************************************
**    AutoDock-GPU AUTODOCKTOOLS-COMPATIBLE DLG FILE    **
**********************************************************


    DOCKING PARAMETERS
    ________________________


Ligand file:                               /home/a/REINVENT4/ReinventStudies/pleaseWork/justmol2mol_4_Compounds_ontop/graph-dock-hn62wh/graph-DockGPU/node-autodockgpu/inputs/UFMZHERXXXOQJP-KLPRWLHTNA-N.pdbqt
Grid fld file:                             /home/a/REINVENT4/ReinventStudies/mols/Rad51/maps/rad51_receptor.maps.fld

Random seed:                               42
Number of runs:                            20
Number of energy evaluations:              1132076
Number of generations:                     42000
Size of population:                        150
Rate of crossover:                         80.000000%
Tournament selection probability limit:    60.000000%
Rate of mutation:                          2.000000%
Maximal allowed delta movement:            +/- 6.000000A
Maximal allowed delta angle:               +/- 90.000000

Rate of local search:                      100.000000%
Maximal number of local search iterations: 300
Rho lower bound:                           0.010000
Spread of local search delta movement:     2.000000A
Spread of local search delta angle:        74.999999
Limit of consecutive successes/failures:   4

Handle symmetry during clustering:         YES
RMSD tolerance:                            2.000000A

Program call in command line was:          /home/a/REINVENT4/ReinventStudies/adgpu-v1.6_linux_x64_cuda12_128wi --filelist batch.txt --heuristics 1 --nrun 20 --psize 150 --lsit 300 --seed 42 --heurmax 12000000 


    GRID PARAMETERS
    ________________________


Receptor name:                             rad51_receptor
Number of grid points (x, y, z):           53, 53, 53
Grid center (x, y, z):                     139.950000, 75.640000, 221.970000A
Grid size (x, y, z):                       19.500000, 19.500000, 19.500000A
Grid spacing:                              0.375000A


    LIGAND PARAMETERS
    ________________________


Ligand name:                               /home/a/REINVENT4/ReinventStudies/pleaseWork/justmol2mol_4_Compounds_ontop/graph-dock-hn62wh/graph-DockGPU/node-autodockgpu/inputs/UFMZHERXXXOQJP-KLPRWLHTNA-N
Number of atoms:                           31
Number of rotatable bonds:                 6
Number of atom types:                      7


    DUMMY DATA (only for ADT-compatibility)
    ________________________


DPF> outlev 1
DPF> ga_run 20
DPF> fld /home/a/REINVENT4/ReinventStudies/mols/Rad51/maps/rad51_receptor.maps.fld
DPF> move /home/a/REINVENT4/ReinventStudies/pleaseWork/justmol2mol_4_Compounds_ontop/graph-dock-hn62wh/graph-DockGPU/node-autodockgpu/inputs/UFMZHERXXXOQJP-KLPRWLHTNA-N.pdbqt


    COUNTER STATES
    ________________________


Number of energy evaluations performed:    1003078
Number of generations used:                50


    INPUT LIGAND PDBQT FILE:
    ________________________


INPUT-LIGAND-PDBQT: REMARK SMILES O=C(NCC(=O)N1C[C@@H](O)C[C@H]1c1ccccc1)c1ccc2cc(Cl)ccc2n1
INPUT-LIGAND-PDBQT: REMARK SMILES IDX 4 1 3 2 2 3 1 4 19 6 20 7 29 8 21 9 28 10 22 11 27 12 23 13
INPUT-LIGAND-PDBQT: REMARK SMILES IDX 26 14 24 15 25 16 5 17 6 18 7 19 8 20 12 21 9 22 11 23 13 24
INPUT-LIGAND-PDBQT: REMARK SMILES IDX 14 25 18 26 15 27 17 28 16 29 10 30
INPUT-LIGAND-PDBQT: REMARK H PARENT 3 5 10 31
INPUT-LIGAND-PDBQT: ROOT
INPUT-LIGAND-PDBQT: ATOM      1  C   UNL     1       0.029   1.871   0.691  1.00  0.00     0.216 C 
INPUT-LIGAND-PDBQT: ENDROOT
INPUT-LIGAND-PDBQT: BRANCH   1   2
INPUT-LIGAND-PDBQT: ATOM      2  N   UNL     1       1.245   1.130   0.589  1.00  0.00    -0.342 N 
INPUT-LIGAND-PDBQT: ATOM      3  C   UNL     1       1.613   0.500  -0.627  1.00  0.00     0.270 C 
INPUT-LIGAND-PDBQT: ATOM      4  O   UNL     1       0.872   0.580  -1.656  1.00  0.00    -0.268 OA
INPUT-LIGAND-PDBQT: ATOM      5  H   UNL     1       1.913   1.021   1.409  1.00  0.00     0.164 HD
INPUT-LIGAND-PDBQT: BRANCH   3   6
INPUT-LIGAND-PDBQT: ATOM      6  C   UNL     1       2.862  -0.250  -0.698  1.00  0.00     0.128 A 
INPUT-LIGAND-PDBQT: ATOM      7  C   UNL     1       3.251  -0.874  -1.864  1.00  0.00     0.035 A 
INPUT-LIGAND-PDBQT: ATOM      8  N   UNL     1       3.669  -0.346   0.397  1.00  0.00    -0.243 NA
INPUT-LIGAND-PDBQT: ATOM      9  C   UNL     1       4.439  -1.586  -1.923  1.00  0.00     0.013 A 
INPUT-LIGAND-PDBQT: ATOM     10  C   UNL     1       4.824  -1.027   0.371  1.00  0.00     0.071 A 
INPUT-LIGAND-PDBQT: ATOM     11  C   UNL     1       5.240  -1.661  -0.780  1.00  0.00     0.002 A 
INPUT-LIGAND-PDBQT: ATOM     12  C   UNL     1       5.593  -1.080   1.527  1.00  0.00     0.030 A 
INPUT-LIGAND-PDBQT: ATOM     13  C   UNL     1       6.427  -2.347  -0.766  1.00  0.00     0.030 A 
INPUT-LIGAND-PDBQT: ATOM     14  C   UNL     1       6.790  -1.765   1.561  1.00  0.00     0.023 A 
INPUT-LIGAND-PDBQT: ATOM     15  C   UNL     1       7.188  -2.394   0.396  1.00  0.00     0.041 A 
INPUT-LIGAND-PDBQT: ATOM     16  Cl  UNL     1       8.716  -3.262   0.455  1.00  0.00    -0.084 Cl
INPUT-LIGAND-PDBQT: ENDBRANCH   3   6
INPUT-LIGAND-PDBQT: ENDBRANCH   1   2
INPUT-LIGAND-PDBQT: BRANCH   1  17
INPUT-LIGAND-PDBQT: ATOM     17  C   UNL     1      -1.179   1.036   0.410  1.00  0.00     0.242 C 
INPUT-LIGAND-PDBQT: ATOM     18  O   UNL     1      -0.967  -0.167   0.131  1.00  0.00    -0.273 OA
INPUT-LIGAND-PDBQT: BRANCH  17  19
INPUT-LIGAND-PDBQT: ATOM     19  N   UNL     1      -2.446   1.653   0.479  1.00  0.00    -0.331 N 
INPUT-LIGAND-PDBQT: ATOM     20  C   UNL     1      -2.712   3.082   0.790  1.00  0.00     0.152 C 
INPUT-LIGAND-PDBQT: ATOM     21  C   UNL     1      -3.786   1.132   0.268  1.00  0.00     0.118 C 
INPUT-LIGAND-PDBQT: ATOM     22  C   UNL     1      -3.616   3.378  -0.398  1.00  0.00     0.136 C 
INPUT-LIGAND-PDBQT: ATOM     23  C   UNL     1      -4.208   2.039  -0.851  1.00  0.00     0.063 C 
INPUT-LIGAND-PDBQT: BRANCH  21  24
INPUT-LIGAND-PDBQT: ATOM     24  C   UNL     1      -3.903  -0.291   0.045  1.00  0.00    -0.025 A 
INPUT-LIGAND-PDBQT: ATOM     25  C   UNL     1      -3.384  -1.192   0.943  1.00  0.00     0.006 A 
INPUT-LIGAND-PDBQT: ATOM     26  C   UNL     1      -4.534  -0.770  -1.090  1.00  0.00     0.006 A 
INPUT-LIGAND-PDBQT: ATOM     27  C   UNL     1      -3.504  -2.562   0.689  1.00  0.00     0.000 A 
INPUT-LIGAND-PDBQT: ATOM     28  C   UNL     1      -4.662  -2.121  -1.355  1.00  0.00     0.000 A 
INPUT-LIGAND-PDBQT: ATOM     29  C   UNL     1      -4.141  -3.021  -0.455  1.00  0.00     0.000 A 
INPUT-LIGAND-PDBQT: ENDBRANCH  21  24
INPUT-LIGAND-PDBQT: BRANCH  22  30
INPUT-LIGAND-PDBQT: ATOM     30  O   UNL     1      -2.741   3.851  -1.403  1.00  0.00    -0.391 OA
INPUT-LIGAND-PDBQT: ATOM     31  H   UNL     1      -2.317   3.099  -1.885  1.00  0.00     0.211 HD
INPUT-LIGAND-PDBQT: ENDBRANCH  22  30
INPUT-LIGAND-PDBQT: ENDBRANCH  17  19
INPUT-LIGAND-PDBQT: ENDBRANCH   1  17
INPUT-LIGAND-PDBQT: TORSDOF 6


    FINAL DOCKED STATE:
    ________________________


Run:   1 / 20
Time taken for this run:   0.042s

DOCKED: MODEL        1
DOCKED: USER    Run = 1
DOCKED: USER
DOCKED: USER    Estimated Free Energy of Binding    =  -8.33 kcal/mol  [=(1)+(2)+(3)-(4)]
DOCKED: USER
DOCKED: USER    (1) Final Intermolecular Energy     = -10.12 kcal/mol
DOCKED: USER        vdW + Hbond + desolv Energy     = -10.08 kcal/mol
DOCKED: USER        Electrostatic Energy            =  -0.05 kcal/mol
DOCKED: USER        Moving Ligand-Fixed Receptor    = -10.12 kcal/mol
DOCKED: USER        Moving Ligand-Moving Receptor   =  +0.00 kcal/mol
DOCKED: USER    (2) Final Total Internal Energy     =  -2.09 kcal/mol
DOCKED: USER    (3) Torsional Free Energy           =  +1.79 kcal/mol
DOCKED: USER    (4) Unbound System's Energy         =  -2.09 kcal/mol
DOCKED: USER
DOCKED: USER
DOCKED: REMARK SMILES O=C(NCC(=O)N1C[C@@H](O)C[C@H]1c1ccccc1)c1ccc2cc(Cl)ccc2n1
DOCKED: REMARK SMILES IDX 4 1 3 2 2 3 1 4 19 6 20 7 29 8 21 9 28 10 22 11 27 12 23 13
DOCKED: REMARK SMILES IDX 26 14 24 15 25 16 5 17 6 18 7 19 8 20 12 21 9 22 11 23 13 24
DOCKED: REMARK SMILES IDX 14 25 18 26 15 27 17 28 16 29 10 30
DOCKED: REMARK H PARENT 3 5 10 31
DOCKED: USER                              x       y       z     vdW  Elec       q    Type
DOCKED: USER                           _______ _______ _______ _____ _____    ______ ____
DOCKED: ROOT
DOCKED: ATOM      1  C   UNL     1     139.574  74.838 221.127 -0.17 -0.04    +0.216 C  
DOCKED: ENDROOT
DOCKED: BRANCH   1   2
DOCKED: ATOM      2  N   UNL     1     139.639  73.864 222.169 -0.13 +0.05    -0.342 N  
DOCKED: ATOM      3  C   UNL     1     139.793  72.487 221.869 -0.18 -0.05    +0.270 C  
DOCKED: ATOM      4  O   UNL     1     139.879  72.084 220.667 -0.06 +0.05    -0.268 OA 
DOCKED: ATOM      5  H   UNL     1     139.573  74.128 223.197 -0.51 -0.02    +0.164 HD 
DOCKED: BRANCH   3   6
DOCKED: ATOM      6  C   UNL     1     139.856  71.517 222.957 -0.28 -0.02    +0.128 A  
DOCKED: ATOM      7  C   UNL     1     139.401  70.227 222.786 -0.21 -0.01    +0.035 A  
DOCKED: ATOM      8  N   UNL     1     140.368  71.876 224.168 -0.28 +0.04    -0.243 NA 
DOCKED: ATOM      9  C   UNL     1     139.463  69.312 223.825 -0.24 -0.00    +0.013 A  
DOCKED: ATOM     10  C   UNL     1     140.442  71.013 225.192 -0.49 -0.01    +0.071 A  
DOCKED: ATOM     11  C   UNL     1     139.996  69.717 225.052 -0.41 -0.00    +0.002 A  
DOCKED: ATOM     12  C   UNL     1     140.977  71.453 226.397 -0.67 -0.00    +0.030 A  
DOCKED: ATOM     13  C   UNL     1     140.089  68.866 226.123 -0.51 -0.01    +0.030 A  
DOCKED: ATOM     14  C   UNL     1     141.078  70.612 227.486 -0.62 -0.00    +0.023 A  
DOCKED: ATOM     15  C   UNL     1     140.625  69.316 227.324 -0.57 -0.01    +0.041 A  
DOCKED: ATOM     16  Cl  UNL     1     140.762  68.255 228.720 -0.66 +0.02    -0.084 Cl 
DOCKED: ENDBRANCH   3   6
DOCKED: ENDBRANCH   1   2
DOCKED: BRANCH   1  17
DOCKED: ATOM     17  C   UNL     1     140.725  75.792 221.158 -0.22 -0.07    +0.242 C  
DOCKED: ATOM     18  O   UNL     1     141.096  76.174 222.292 -0.36 +0.09    -0.273 OA 
DOCKED: BRANCH  17  19
DOCKED: ATOM     19  N   UNL     1     141.298  76.184 219.930 -0.07 +0.13    -0.331 N  
DOCKED: ATOM     20  C   UNL     1     140.813  77.271 219.041 -0.09 -0.06    +0.152 C  
DOCKED: ATOM     21  C   UNL     1     142.464  75.699 219.210 -0.23 -0.05    +0.118 C  
DOCKED: ATOM     22  C   UNL     1     142.138  78.001 218.878 -0.24 -0.09    +0.136 C  
DOCKED: ATOM     23  C   UNL     1     143.246  76.979 219.156 -0.23 -0.05    +0.063 C  
DOCKED: BRANCH  21  24
DOCKED: ATOM     24  C   UNL     1     143.130  74.539 219.758 -0.31 +0.01    -0.025 A  
DOCKED: ATOM     25  C   UNL     1     142.487  73.329 219.844 -0.20 -0.00    +0.006 A  
DOCKED: ATOM     26  C   UNL     1     144.432  74.636 220.219 -0.45 -0.00    +0.006 A  
DOCKED: ATOM     27  C   UNL     1     143.158  72.231 220.392 -0.28 -0.00    +0.000 A  
DOCKED: ATOM     28  C   UNL     1     145.110  73.560 220.762 -0.59 -0.00    +0.000 A  
DOCKED: ATOM     29  C   UNL     1     144.463  72.349 220.847 -0.39 -0.00    +0.000 A  
DOCKED: ENDBRANCH  21  24
DOCKED: BRANCH  22  30
DOCKED: ATOM     30  O   UNL     1     142.143  78.967 219.911 -0.12 +0.27    -0.391 OA 
DOCKED: ATOM     31  H   UNL     1     142.683  78.660 220.680 -0.32 -0.21    +0.211 HD 
DOCKED: ENDBRANCH  22  30
DOCKED: ENDBRANCH  17  19
DOCKED: ENDBRANCH   1  17
DOCKED: TORSDOF 6
DOCKED: TER
DOCKED: ENDMDL
________________________________________________________________________________


    FINAL DOCKED STATE:
    ________________________


Run:   2 / 20
Time taken for this run:   0.042s

DOCKED: MODEL        2
DOCKED: USER    Run = 2
DOCKED: USER
DOCKED: USER    Estimated Free Energy of Binding    =  -7.71 kcal/mol  [=(1)+(2)+(3)-(4)]
DOCKED: USER
DOCKED: USER    (1) Final Intermolecular Energy     =  -9.50 kcal/mol
DOCKED: USER        vdW + Hbond + desolv Energy     =  -9.48 kcal/mol
DOCKED: USER        Electrostatic Energy            =  -0.02 kcal/mol
DOCKED: USER        Moving Ligand-Fixed Receptor    =  -9.50 kcal/mol
DOCKED: USER        Moving Ligand-Moving Receptor   =  +0.00 kcal/mol
DOCKED: USER    (2) Final Total Internal Energy     =  -2.97 kcal/mol
DOCKED: USER    (3) Torsional Free Energy           =  +1.79 kcal/mol
DOCKED: USER    (4) Unbound System's Energy         =  -2.97 kcal/mol
DOCKED: USER
DOCKED: USER
DOCKED: REMARK SMILES O=C(NCC(=O)N1C[C@@H](O)C[C@H]1c1ccccc1)c1ccc2cc(Cl)ccc2n1
DOCKED: REMARK SMILES IDX 4 1 3 2 2 3 1 4 19 6 20 7 29 8 21 9 28 10 22 11 27 12 23 13
DOCKED: REMARK SMILES IDX 26 14 24 15 25 16 5 17 6 18 7 19 8 20 12 21 9 22 11 23 13 24
DOCKED: REMARK SMILES IDX 14 25 18 26 15 27 17 28 16 29 10 30
DOCKED: REMARK H PARENT 3 5 10 31
DOCKED: USER                              x       y       z     vdW  Elec       q    Type
DOCKED: USER                           _______ _______ _______ _____ _____    ______ ____
DOCKED: ROOT
DOCKED: ATOM      1  C   UNL     1     136.496  72.333 222.780 -0.11 -0.06    +0.216 C  
DOCKED: ENDROOT
DOCKED: BRANCH   1   2
DOCKED: ATOM      2  N   UNL     1     137.183  73.583 222.720 +0.15 +0.14    -0.342 N  
DOCKED: ATOM      3  C   UNL     1     136.474  74.808 222.818 -0.07 -0.08    +0.270 C  
DOCKED: ATOM      4  O   UNL     1     135.212  74.824 222.963 -0.09 +0.05    -0.268 OA 
DOCKED: ATOM      5  H   UNL     1     138.237  73.646 222.599 -0.44 -0.08    +0.164 HD 
DOCKED: BRANCH   3   6
DOCKED: ATOM      6  C   UNL     1     137.206  76.068 222.752 -0.23 -0.03    +0.128 A  
DOCKED: ATOM      7  C   UNL     1     136.540  77.274 222.700 -0.20 -0.01    +0.035 A  
DOCKED: ATOM      8  N   UNL     1     138.569  76.071 222.740 -0.22 +0.06    -0.243 NA 
DOCKED: ATOM      9  C   UNL     1     137.242  78.468 222.637 -0.20 -0.00    +0.013 A  
DOCKED: ATOM     10  C   UNL     1     139.277  77.209 222.679 -0.25 -0.01    +0.071 A  
DOCKED: ATOM     11  C   UNL     1     138.640  78.430 222.627 -0.28 -0.00    +0.002 A  
DOCKED: ATOM     12  C   UNL     1     140.664  77.132 222.671 -0.39 -0.01    +0.030 A  
DOCKED: ATOM     13  C   UNL     1     139.398  79.571 222.566 -0.29 -0.01    +0.030 A  
DOCKED: ATOM     14  C   UNL     1     141.444  78.268 222.610 -0.47 -0.01    +0.023 A  
DOCKED: ATOM     15  C   UNL     1     140.785  79.482 222.557 -0.39 -0.01    +0.041 A  
DOCKED: ATOM     16  Cl  UNL     1     141.794  80.920 222.481 -0.65 +0.02    -0.084 Cl 
DOCKED: ENDBRANCH   3   6
DOCKED: ENDBRANCH   1   2
DOCKED: BRANCH   1  17
DOCKED: ATOM     17  C   UNL     1     137.366  71.222 223.276 -0.13 -0.06    +0.242 C  
DOCKED: ATOM     18  O   UNL     1     136.826  70.404 224.057 -0.13 +0.04    -0.273 OA 
DOCKED: BRANCH  17  19
DOCKED: ATOM     19  N   UNL     1     138.706  71.178 222.836 -0.10 +0.07    -0.331 N  
DOCKED: ATOM     20  C   UNL     1     139.213  71.637 221.517 -0.13 -0.03    +0.152 C  
DOCKED: ATOM     21  C   UNL     1     139.921  70.721 223.489 -0.27 -0.02    +0.118 C  
DOCKED: ATOM     22  C   UNL     1     140.342  72.517 222.034 -0.25 -0.02    +0.136 C  
DOCKED: ATOM     23  C   UNL     1     140.704  72.001 223.431 -0.19 -0.00    +0.063 C  
DOCKED: BRANCH  21  24
DOCKED: ATOM     24  C   UNL     1     139.769  70.097 224.783 -0.39 +0.00    -0.025 A  
DOCKED: ATOM     25  C   UNL     1     139.310  68.807 224.896 -0.39 -0.00    +0.006 A  
DOCKED: ATOM     26  C   UNL     1     140.076  70.798 225.936 -0.53 -0.00    +0.006 A  
DOCKED: ATOM     27  C   UNL     1     139.163  68.239 226.166 -0.53 -0.00    +0.000 A  
DOCKED: ATOM     28  C   UNL     1     139.937  70.251 227.198 -0.57 -0.00    +0.000 A  
DOCKED: ATOM     29  C   UNL     1     139.477  68.959 227.309 -0.54 -0.00    +0.000 A  
DOCKED: ENDBRANCH  21  24
DOCKED: BRANCH  22  30
DOCKED: ATOM     30  O   UNL     1     139.765  73.801 222.160 -0.70 +0.05    -0.391 OA 
DOCKED: ATOM     31  H   UNL     1     139.538  73.996 223.102 -0.50 -0.03    +0.211 HD 
DOCKED: ENDBRANCH  22  30
DOCKED: ENDBRANCH  17  19
DOCKED: ENDBRANCH   1  17
DOCKED: TORSDOF 6
DOCKED: TER
DOCKED: ENDMDL
________________________________________________________________________________


    FINAL DOCKED STATE:
    ________________________


Run:   3 / 20
Time taken for this run:   0.042s

DOCKED: MODEL        3
DOCKED: USER    Run = 3
DOCKED: USER
DOCKED: USER    Estimated Free Energy of Binding    =  -7.66 kcal/mol  [=(1)+(2)+(3)-(4)]
DOCKED: USER
DOCKED: USER    (1) Final Intermolecular Energy     =  -9.45 kcal/mol
DOCKED: USER        vdW + Hbond + desolv Energy     =  -9.40 kcal/mol
DOCKED: USER        Electrostatic Energy            =  -0.05 kcal/mol
DOCKED: USER        Moving Ligand-Fixed Receptor    =  -9.45 kcal/mol
DOCKED: USER        Moving Ligand-Moving Receptor   =  +0.00 kcal/mol
DOCKED: USER    (2) Final Total Internal Energy     =  -3.43 kcal/mol
DOCKED: USER    (3) Torsional Free Energy           =  +1.79 kcal/mol
DOCKED: USER    (4) Unbound System's Energy         =  -3.43 kcal/mol
DOCKED: USER
DOCKED: USER
DOCKED: REMARK SMILES O=C(NCC(=O)N1C[C@@H](O)C[C@H]1c1ccccc1)c1ccc2cc(Cl)ccc2n1
DOCKED: REMARK SMILES IDX 4 1 3 2 2 3 1 4 19 6 20 7 29 8 21 9 28 10 22 11 27 12 23 13
DOCKED: REMARK SMILES IDX 26 14 24 15 25 16 5 17 6 18 7 19 8 20 12 21 9 22 11 23 13 24
DOCKED: REMARK SMILES IDX 14 25 18 26 15 27 17 28 16 29 10 30
DOCKED: REMARK H PARENT 3 5 10 31
DOCKED: USER                              x       y       z     vdW  Elec       q    Type
DOCKED: USER                           _______ _______ _______ _____ _____    ______ ____
DOCKED: ROOT
DOCKED: ATOM      1  C   UNL     1     137.322  68.448 223.394 +0.02 -0.02    +0.216 C  
DOCKED: ENDROOT
DOCKED: BRANCH   1   2
DOCKED: ATOM      2  N   UNL     1     136.728  69.659 223.861 -0.08 +0.04    -0.342 N  
DOCKED: ATOM      3  C   UNL     1     135.588  69.632 224.704 -0.14 -0.02    +0.270 C  
DOCKED: ATOM      4  O   UNL     1     135.067  68.531 225.066 -0.59 -0.01    -0.268 OA 
DOCKED: ATOM      5  H   UNL     1     137.110  70.616 223.599 +0.05 -0.03    +0.164 HD 
DOCKED: BRANCH   3   6
DOCKED: ATOM      6  C   UNL     1     135.005  70.888 225.164 -0.13 -0.01    +0.128 A  
DOCKED: ATOM      7  C   UNL     1     133.998  70.901 226.105 -0.32 -0.00    +0.035 A  
DOCKED: ATOM      8  N   UNL     1     135.452  72.076 224.665 -0.09 +0.03    -0.243 NA 
DOCKED: ATOM      9  C   UNL     1     133.448  72.099 226.536 -0.39 -0.00    +0.013 A  
DOCKED: ATOM     10  C   UNL     1     134.940  73.250 225.063 -0.19 -0.01    +0.071 A  
DOCKED: ATOM     11  C   UNL     1     133.933  73.296 226.002 -0.34 +0.00    +0.002 A  
DOCKED: ATOM     12  C   UNL     1     135.447  74.420 224.509 -0.30 -0.01    +0.030 A  
DOCKED: ATOM     13  C   UNL     1     133.437  74.516 226.382 -0.33 +0.00    +0.030 A  
DOCKED: ATOM     14  C   UNL     1     134.961  75.657 224.878 -0.34 -0.00    +0.023 A  
DOCKED: ATOM     15  C   UNL     1     133.950  75.680 225.821 -0.34 -0.00    +0.041 A  
DOCKED: ATOM     16  Cl  UNL     1     133.342  77.264 226.282 -0.30 +0.01    -0.084 Cl 
DOCKED: ENDBRANCH   3   6
DOCKED: ENDBRANCH   1   2
DOCKED: BRANCH   1  17
DOCKED: ATOM     17  C   UNL     1     138.773  68.347 223.741 -0.18 -0.03    +0.242 C  
DOCKED: ATOM     18  O   UNL     1     139.198  67.200 224.011 -0.60 +0.01    -0.273 OA 
DOCKED: BRANCH  17  19
DOCKED: ATOM     19  N   UNL     1     139.542  69.530 223.739 -0.09 +0.06    -0.331 N  
DOCKED: ATOM     20  C   UNL     1     139.751  70.440 222.582 -0.13 -0.03    +0.152 C  
DOCKED: ATOM     21  C   UNL     1     140.301  70.190 224.788 -0.34 -0.02    +0.118 C  
DOCKED: ATOM     22  C   UNL     1     139.377  71.739 223.283 -0.21 -0.03    +0.136 C  
DOCKED: ATOM     23  C   UNL     1     139.590  71.512 224.783 -0.23 -0.02    +0.063 C  
DOCKED: BRANCH  21  24
DOCKED: ATOM     24  C   UNL     1     140.400  69.498 226.052 -0.49 +0.00    -0.025 A  
DOCKED: ATOM     25  C   UNL     1     141.123  68.335 226.166 -0.54 -0.00    +0.006 A  
DOCKED: ATOM     26  C   UNL     1     139.755  69.993 227.172 -0.53 -0.00    +0.006 A  
DOCKED: ATOM     27  C   UNL     1     141.187  67.684 227.403 -0.51 -0.00    +0.000 A  
DOCKED: ATOM     28  C   UNL     1     139.810  69.363 228.401 -0.61 -0.00    +0.000 A  
DOCKED: ATOM     29  C   UNL     1     140.533  68.199 228.513 -0.61 -0.00    +0.000 A  
DOCKED: ENDBRANCH  21  24
DOCKED: BRANCH  22  30
DOCKED: ATOM     30  O   UNL     1     137.992  71.889 223.038 -0.11 +0.12    -0.391 OA 
DOCKED: ATOM     31  H   UNL     1     137.532  72.261 223.830 -0.42 -0.10    +0.211 HD 
DOCKED: ENDBRANCH  22  30
DOCKED: ENDBRANCH  17  19
DOCKED: ENDBRANCH   1  17
DOCKED: TORSDOF 6
DOCKED: TER
DOCKED: ENDMDL
________________________________________________________________________________


    FINAL DOCKED STATE:
    ________________________


Run:   4 / 20
Time taken for this run:   0.042s

DOCKED: MODEL        4
DOCKED: USER    Run = 4
DOCKED: USER
DOCKED: USER    Estimated Free Energy of Binding    =  -6.01 kcal/mol  [=(1)+(2)+(3)-(4)]
DOCKED: USER
DOCKED: USER    (1) Final Intermolecular Energy     =  -7.80 kcal/mol
DOCKED: USER        vdW + Hbond + desolv Energy     =  -7.66 kcal/mol
DOCKED: USER        Electrostatic Energy            =  -0.14 kcal/mol
DOCKED: USER        Moving Ligand-Fixed Receptor    =  -7.80 kcal/mol
DOCKED: USER        Moving Ligand-Moving Receptor   =  +0.00 kcal/mol
DOCKED: USER    (2) Final Total Internal Energy     =  -3.83 kcal/mol
DOCKED: USER    (3) Torsional Free Energy           =  +1.79 kcal/mol
DOCKED: USER    (4) Unbound System's Energy         =  -3.83 kcal/mol
DOCKED: USER
DOCKED: USER
DOCKED: REMARK SMILES O=C(NCC(=O)N1C[C@@H](O)C[C@H]1c1ccccc1)c1ccc2cc(Cl)ccc2n1
DOCKED: REMARK SMILES IDX 4 1 3 2 2 3 1 4 19 6 20 7 29 8 21 9 28 10 22 11 27 12 23 13
DOCKED: REMARK SMILES IDX 26 14 24 15 25 16 5 17 6 18 7 19 8 20 12 21 9 22 11 23 13 24
DOCKED: REMARK SMILES IDX 14 25 18 26 15 27 17 28 16 29 10 30
DOCKED: REMARK H PARENT 3 5 10 31
DOCKED: USER                              x       y       z     vdW  Elec       q    Type
DOCKED: USER                           _______ _______ _______ _____ _____    ______ ____
DOCKED: ROOT
DOCKED: ATOM      1  C   UNL     1     138.403  78.892 221.754 -0.11 -0.04    +0.216 C  
DOCKED: ENDROOT
DOCKED: BRANCH   1   2
DOCKED: ATOM      2  N   UNL     1     139.458  77.980 221.451 -0.06 +0.09    -0.342 N  
DOCKED: ATOM      3  C   UNL     1     140.233  78.130 220.273 -0.08 -0.09    +0.270 C  
DOCKED: ATOM      4  O   UNL     1     140.010  79.080 219.459 -0.04 +0.09    -0.268 OA 
DOCKED: ATOM      5  H   UNL     1     139.701  77.163 222.086 +0.06 -0.04    +0.164 HD 
DOCKED: BRANCH   3   6
DOCKED: ATOM      6  C   UNL     1     141.304  77.181 219.992 -0.19 -0.06    +0.128 A  
DOCKED: ATOM      7  C   UNL     1     142.316  77.491 219.108 -0.30 -0.02    +0.035 A  
DOCKED: ATOM      8  N   UNL     1     141.320  75.962 220.604 -0.15 +0.10    -0.243 NA 
DOCKED: ATOM      9  C   UNL     1     143.329  76.582 218.846 -0.36 -0.01    +0.013 A  
DOCKED: ATOM     10  C   UNL     1     142.287  75.062 220.371 -0.27 -0.03    +0.071 A  
DOCKED: ATOM     11  C   UNL     1     143.312  75.344 219.493 -0.37 -0.00    +0.002 A  
DOCKED: ATOM     12  C   UNL     1     142.236  73.842 221.033 -0.19 -0.01    +0.030 A  
DOCKED: ATOM     13  C   UNL     1     144.281  74.398 219.282 -0.25 -0.01    +0.030 A  
DOCKED: ATOM     14  C   UNL     1     143.202  72.877 220.834 -0.29 -0.00    +0.023 A  
DOCKED: ATOM     15  C   UNL     1     144.220  73.180 219.949 -0.34 -0.01    +0.041 A  
DOCKED: ATOM     16  Cl  UNL     1     145.444  71.941 219.707 -0.44 -0.03    -0.084 Cl 
DOCKED: ENDBRANCH   3   6
DOCKED: ENDBRANCH   1   2
DOCKED: BRANCH   1  17
DOCKED: ATOM     17  C   UNL     1     138.885  80.111 222.475 -0.17 -0.04    +0.242 C  
DOCKED: ATOM     18  O   UNL     1     138.070  81.058 222.565 -0.11 +0.04    -0.273 OA 
DOCKED: BRANCH  17  19
DOCKED: ATOM     19  N   UNL     1     140.198  80.103 222.991 -0.16 +0.06    -0.331 N  
DOCKED: ATOM     20  C   UNL     1     140.660  79.383 224.207 -0.16 -0.02    +0.152 C  
DOCKED: ATOM     21  C   UNL     1     141.421  80.734 222.526 -0.42 -0.03    +0.118 C  
DOCKED: ATOM     22  C   UNL     1     141.853  78.678 223.577 -0.48 -0.05    +0.136 C  
DOCKED: ATOM     23  C   UNL     1     142.259  79.501 222.350 -0.51 -0.03    +0.063 C  
DOCKED: BRANCH  21  24
DOCKED: ATOM     24  C   UNL     1     141.305  81.622 221.392 -0.36 +0.01    -0.025 A  
DOCKED: ATOM     25  C   UNL     1     140.700  82.849 221.514 -0.31 -0.00    +0.006 A  
DOCKED: ATOM     26  C   UNL     1     141.796  81.242 220.155 -0.27 -0.00    +0.006 A  
DOCKED: ATOM     27  C   UNL     1     140.593  83.677 220.393 -0.24 -0.00    +0.000 A  
DOCKED: ATOM     28  C   UNL     1     141.699  82.049 219.037 -0.24 -0.00    +0.000 A  
DOCKED: ATOM     29  C   UNL     1     141.092  83.277 219.162 -0.19 -0.00    +0.000 A  
DOCKED: ENDBRANCH  21  24
DOCKED: BRANCH  22  30
DOCKED: ATOM     30  O   UNL     1     141.342  77.434 223.142 -0.24 +0.16    -0.391 OA 
DOCKED: ATOM     31  H   UNL     1     141.880  77.074 222.394 -0.42 -0.16    +0.211 HD 
DOCKED: ENDBRANCH  22  30
DOCKED: ENDBRANCH  17  19
DOCKED: ENDBRANCH   1  17
DOCKED: TORSDOF 6
DOCKED: TER
DOCKED: ENDMDL
________________________________________________________________________________


    FINAL DOCKED STATE:
    ________________________


Run:   5 / 20
Time taken for this run:   0.042s

DOCKED: MODEL        5
DOCKED: USER    Run = 5
DOCKED: USER
DOCKED: USER    Estimated Free Energy of Binding    =  -7.71 kcal/mol  [=(1)+(2)+(3)-(4)]
DOCKED: USER
DOCKED: USER    (1) Final Intermolecular Energy     =  -9.50 kcal/mol
DOCKED: USER        vdW + Hbond + desolv Energy     =  -9.45 kcal/mol
DOCKED: USER        Electrostatic Energy            =  -0.05 kcal/mol
DOCKED: USER        Moving Ligand-Fixed Receptor    =  -9.50 kcal/mol
DOCKED: USER        Moving Ligand-Moving Receptor   =  +0.00 kcal/mol
DOCKED: USER    (2) Final Total Internal Energy     =  -3.43 kcal/mol
DOCKED: USER    (3) Torsional Free Energy           =  +1.79 kcal/mol
DOCKED: USER    (4) Unbound System's Energy         =  -3.43 kcal/mol
DOCKED: USER
DOCKED: USER
DOCKED: REMARK SMILES O=C(NCC(=O)N1C[C@@H](O)C[C@H]1c1ccccc1)c1ccc2cc(Cl)ccc2n1
DOCKED: REMARK SMILES IDX 4 1 3 2 2 3 1 4 19 6 20 7 29 8 21 9 28 10 22 11 27 12 23 13
DOCKED: REMARK SMILES IDX 26 14 24 15 25 16 5 17 6 18 7 19 8 20 12 21 9 22 11 23 13 24
DOCKED: REMARK SMILES IDX 14 25 18 26 15 27 17 28 16 29 10 30
DOCKED: REMARK H PARENT 3 5 10 31
DOCKED: USER                              x       y       z     vdW  Elec       q    Type
DOCKED: USER                           _______ _______ _______ _____ _____    ______ ____
DOCKED: ROOT
DOCKED: ATOM      1  C   UNL     1     137.357  68.476 223.265 -0.06 -0.02    +0.216 C  
DOCKED: ENDROOT
DOCKED: BRANCH   1   2
DOCKED: ATOM      2  N   UNL     1     136.736  69.677 223.724 -0.08 +0.04    -0.342 N  
DOCKED: ATOM      3  C   UNL     1     135.619  69.630 224.597 -0.13 -0.02    +0.270 C  
DOCKED: ATOM      4  O   UNL     1     135.144  68.521 224.993 -0.58 -0.01    -0.268 OA 
DOCKED: ATOM      5  H   UNL     1     137.080  70.640 223.434 +0.05 -0.03    +0.164 HD 
DOCKED: BRANCH   3   6
DOCKED: ATOM      6  C   UNL     1     135.008  70.875 225.048 -0.14 -0.01    +0.128 A  
DOCKED: ATOM      7  C   UNL     1     133.955  70.869 225.938 -0.29 -0.00    +0.035 A  
DOCKED: ATOM      8  N   UNL     1     135.472  72.074 224.591 -0.11 +0.03    -0.243 NA 
DOCKED: ATOM      9  C   UNL     1     133.379  72.057 226.361 -0.36 -0.00    +0.013 A  
DOCKED: ATOM     10  C   UNL     1     134.935  73.239 224.981 -0.22 -0.01    +0.071 A  
DOCKED: ATOM     11  C   UNL     1     133.883  73.265 225.871 -0.32 +0.00    +0.002 A  
DOCKED: ATOM     12  C   UNL     1     135.462  74.419 224.472 -0.30 -0.01    +0.030 A  
DOCKED: ATOM     13  C   UNL     1     133.362  74.477 226.246 -0.33 +0.00    +0.030 A  
DOCKED: ATOM     14  C   UNL     1     134.952  75.648 224.837 -0.34 -0.00    +0.023 A  
DOCKED: ATOM     15  C   UNL     1     133.896  75.651 225.730 -0.32 -0.00    +0.041 A  
DOCKED: ATOM     16  Cl  UNL     1     133.258  77.225 226.186 -0.32 +0.01    -0.084 Cl 
DOCKED: ENDBRANCH   3   6
DOCKED: ENDBRANCH   1   2
DOCKED: BRANCH   1  17
DOCKED: ATOM     17  C   UNL     1     138.790  68.374 223.680 -0.19 -0.03    +0.242 C  
DOCKED: ATOM     18  O   UNL     1     139.195  67.229 223.990 -0.60 +0.01    -0.273 OA 
DOCKED: BRANCH  17  19
DOCKED: ATOM     19  N   UNL     1     139.566  69.552 223.691 -0.09 +0.06    -0.331 N  
DOCKED: ATOM     20  C   UNL     1     139.783  70.472 222.545 -0.13 -0.03    +0.152 C  
DOCKED: ATOM     21  C   UNL     1     140.325  70.197 224.749 -0.33 -0.02    +0.118 C  
DOCKED: ATOM     22  C   UNL     1     139.414  71.766 223.257 -0.22 -0.03    +0.136 C  
DOCKED: ATOM     23  C   UNL     1     139.622  71.523 224.755 -0.23 -0.02    +0.063 C  
DOCKED: BRANCH  21  24
DOCKED: ATOM     24  C   UNL     1     140.417  69.492 226.007 -0.49 +0.00    -0.025 A  
DOCKED: ATOM     25  C   UNL     1     141.119  68.315 226.107 -0.53 -0.00    +0.006 A  
DOCKED: ATOM     26  C   UNL     1     139.787  69.990 227.134 -0.54 -0.00    +0.006 A  
DOCKED: ATOM     27  C   UNL     1     141.177  67.652 227.337 -0.51 -0.00    +0.000 A  
DOCKED: ATOM     28  C   UNL     1     139.835  69.347 228.357 -0.62 -0.00    +0.000 A  
DOCKED: ATOM     29  C   UNL     1     140.537  68.169 228.455 -0.62 -0.00    +0.000 A  
DOCKED: ENDBRANCH  21  24
DOCKED: BRANCH  22  30
DOCKED: ATOM     30  O   UNL     1     138.031  71.927 223.010 -0.10 +0.13    -0.391 OA 
DOCKED: ATOM     31  H   UNL     1     137.567  72.272 223.812 -0.42 -0.10    +0.211 HD 
DOCKED: ENDBRANCH  22  30
DOCKED: ENDBRANCH  17  19
DOCKED: ENDBRANCH   1  17
DOCKED: TORSDOF 6
DOCKED: TER
DOCKED: ENDMDL
________________________________________________________________________________


    FINAL DOCKED STATE:
    ________________________


Run:   6 / 20
Time taken for this run:   0.042s

DOCKED: MODEL        6
DOCKED: USER    Run = 6
DOCKED: USER
DOCKED: USER    Estimated Free Energy of Binding    =  -7.67 kcal/mol  [=(1)+(2)+(3)-(4)]
DOCKED: USER
DOCKED: USER    (1) Final Intermolecular Energy     =  -9.46 kcal/mol
DOCKED: USER        vdW + Hbond + desolv Energy     =  -9.40 kcal/mol
DOCKED: USER        Electrostatic Energy            =  -0.06 kcal/mol
DOCKED: USER        Moving Ligand-Fixed Receptor    =  -9.46 kcal/mol
DOCKED: USER        Moving Ligand-Moving Receptor   =  +0.00 kcal/mol
DOCKED: USER    (2) Final Total Internal Energy     =  -3.43 kcal/mol
DOCKED: USER    (3) Torsional Free Energy           =  +1.79 kcal/mol
DOCKED: USER    (4) Unbound System's Energy         =  -3.43 kcal/mol
DOCKED: USER
DOCKED: USER
DOCKED: REMARK SMILES O=C(NCC(=O)N1C[C@@H](O)C[C@H]1c1ccccc1)c1ccc2cc(Cl)ccc2n1
DOCKED: REMARK SMILES IDX 4 1 3 2 2 3 1 4 19 6 20 7 29 8 21 9 28 10 22 11 27 12 23 13
DOCKED: REMARK SMILES IDX 26 14 24 15 25 16 5 17 6 18 7 19 8 20 12 21 9 22 11 23 13 24
DOCKED: REMARK SMILES IDX 14 25 18 26 15 27 17 28 16 29 10 30
DOCKED: REMARK H PARENT 3 5 10 31
DOCKED: USER                              x       y       z     vdW  Elec       q    Type
DOCKED: USER                           _______ _______ _______ _____ _____    ______ ____
DOCKED: ROOT
DOCKED: ATOM      1  C   UNL     1     137.353  68.499 223.250 -0.08 -0.02    +0.216 C  
DOCKED: ENDROOT
DOCKED: BRANCH   1   2
DOCKED: ATOM      2  N   UNL     1     136.717  69.694 223.703 -0.08 +0.04    -0.342 N  
DOCKED: ATOM      3  C   UNL     1     135.639  69.640 224.623 -0.14 -0.02    +0.270 C  
DOCKED: ATOM      4  O   UNL     1     135.213  68.529 225.069 -0.54 -0.01    -0.268 OA 
DOCKED: ATOM      5  H   UNL     1     137.020  70.658 223.373 +0.04 -0.03    +0.164 HD 
DOCKED: BRANCH   3   6
DOCKED: ATOM      6  C   UNL     1     135.010  70.880 225.066 -0.14 -0.01    +0.128 A  
DOCKED: ATOM      7  C   UNL     1     133.939  70.863 225.933 -0.29 -0.00    +0.035 A  
DOCKED: ATOM      8  N   UNL     1     135.477  72.083 224.625 -0.10 +0.03    -0.243 NA 
DOCKED: ATOM      9  C   UNL     1     133.346  72.045 226.348 -0.36 -0.00    +0.013 A  
DOCKED: ATOM     10  C   UNL     1     134.925  73.243 225.009 -0.21 -0.01    +0.071 A  
DOCKED: ATOM     11  C   UNL     1     133.853  73.259 225.875 -0.32 +0.00    +0.002 A  
DOCKED: ATOM     12  C   UNL     1     135.456  74.429 224.516 -0.30 -0.01    +0.030 A  
DOCKED: ATOM     13  C   UNL     1     133.317  74.466 226.243 -0.33 +0.00    +0.030 A  
DOCKED: ATOM     14  C   UNL     1     134.931  75.653 224.875 -0.34 -0.00    +0.023 A  
DOCKED: ATOM     15  C   UNL     1     133.856  75.646 225.744 -0.32 -0.00    +0.041 A  
DOCKED: ATOM     16  Cl  UNL     1     133.198  77.214 226.193 -0.33 +0.01    -0.084 Cl 
DOCKED: ENDBRANCH   3   6
DOCKED: ENDBRANCH   1   2
DOCKED: BRANCH   1  17
DOCKED: ATOM     17  C   UNL     1     138.768  68.387 223.719 -0.19 -0.03    +0.242 C  
DOCKED: ATOM     18  O   UNL     1     139.149  67.244 224.062 -0.60 +0.01    -0.273 OA 
DOCKED: BRANCH  17  19
DOCKED: ATOM     19  N   UNL     1     139.557  69.557 223.739 -0.09 +0.06    -0.331 N  
DOCKED: ATOM     20  C   UNL     1     139.790  70.480 222.597 -0.13 -0.03    +0.152 C  
DOCKED: ATOM     21  C   UNL     1     140.319  70.190 224.802 -0.34 -0.02    +0.118 C  
DOCKED: ATOM     22  C   UNL     1     139.433  71.774 223.312 -0.21 -0.03    +0.136 C  
DOCKED: ATOM     23  C   UNL     1     139.631  71.523 224.811 -0.22 -0.01    +0.063 C  
DOCKED: BRANCH  21  24
DOCKED: ATOM     24  C   UNL     1     140.397  69.478 226.058 -0.49 +0.00    -0.025 A  
DOCKED: ATOM     25  C   UNL     1     141.096  68.300 226.160 -0.54 -0.00    +0.006 A  
DOCKED: ATOM     26  C   UNL     1     139.756  69.972 227.181 -0.54 -0.00    +0.006 A  
DOCKED: ATOM     27  C   UNL     1     141.140  67.631 227.387 -0.50 -0.00    +0.000 A  
DOCKED: ATOM     28  C   UNL     1     139.791  69.323 228.402 -0.61 -0.00    +0.000 A  
DOCKED: ATOM     29  C   UNL     1     140.490  68.143 228.501 -0.60 -0.00    +0.000 A  
DOCKED: ENDBRANCH  21  24
DOCKED: BRANCH  22  30
DOCKED: ATOM     30  O   UNL     1     138.053  71.952 223.060 -0.10 +0.13    -0.391 OA 
DOCKED: ATOM     31  H   UNL     1     137.584  72.272 223.869 -0.43 -0.11    +0.211 HD 
DOCKED: ENDBRANCH  22  30
DOCKED: ENDBRANCH  17  19
DOCKED: ENDBRANCH   1  17
DOCKED: TORSDOF 6
DOCKED: TER
DOCKED: ENDMDL
________________________________________________________________________________


    FINAL DOCKED STATE:
    ________________________


Run:   7 / 20
Time taken for this run:   0.042s

DOCKED: MODEL        7
DOCKED: USER    Run = 7
DOCKED: USER
DOCKED: USER    Estimated Free Energy of Binding    =  -7.89 kcal/mol  [=(1)+(2)+(3)-(4)]
DOCKED: USER
DOCKED: USER    (1) Final Intermolecular Energy     =  -9.68 kcal/mol
DOCKED: USER        vdW + Hbond + desolv Energy     =  -9.81 kcal/mol
DOCKED: USER        Electrostatic Energy            =  +0.13 kcal/mol
DOCKED: USER        Moving Ligand-Fixed Receptor    =  -9.68 kcal/mol
DOCKED: USER        Moving Ligand-Moving Receptor   =  +0.00 kcal/mol
DOCKED: USER    (2) Final Total Internal Energy     =  -2.36 kcal/mol
DOCKED: USER    (3) Torsional Free Energy           =  +1.79 kcal/mol
DOCKED: USER    (4) Unbound System's Energy         =  -2.36 kcal/mol
DOCKED: USER
DOCKED: USER
DOCKED: REMARK SMILES O=C(NCC(=O)N1C[C@@H](O)C[C@H]1c1ccccc1)c1ccc2cc(Cl)ccc2n1
DOCKED: REMARK SMILES IDX 4 1 3 2 2 3 1 4 19 6 20 7 29 8 21 9 28 10 22 11 27 12 23 13
DOCKED: REMARK SMILES IDX 26 14 24 15 25 16 5 17 6 18 7 19 8 20 12 21 9 22 11 23 13 24
DOCKED: REMARK SMILES IDX 14 25 18 26 15 27 17 28 16 29 10 30
DOCKED: REMARK H PARENT 3 5 10 31
DOCKED: USER                              x       y       z     vdW  Elec       q    Type
DOCKED: USER                           _______ _______ _______ _____ _____    ______ ____
DOCKED: ROOT
DOCKED: ATOM      1  C   UNL     1     141.951  74.557 220.125 -0.17 -0.06    +0.216 C  
DOCKED: ENDROOT
DOCKED: BRANCH   1   2
DOCKED: ATOM      2  N   UNL     1     141.568  73.766 221.250 -0.13 +0.05    -0.342 N  
DOCKED: ATOM      3  C   UNL     1     140.930  72.512 221.075 -0.14 -0.04    +0.270 C  
DOCKED: ATOM      4  O   UNL     1     140.685  72.059 219.914 -0.05 +0.05    -0.268 OA 
DOCKED: ATOM      5  H   UNL     1     141.741  74.083 222.250 +0.09 +0.01    +0.164 HD 
DOCKED: BRANCH   3   6
DOCKED: ATOM      6  C   UNL     1     140.551  71.729 222.246 -0.24 -0.01    +0.128 A  
DOCKED: ATOM      7  C   UNL     1     139.800  70.580 222.120 -0.17 -0.01    +0.035 A  
DOCKED: ATOM      8  N   UNL     1     140.937  72.126 223.492 -0.04 +0.01    -0.243 NA 
DOCKED: ATOM      9  C   UNL     1     139.443  69.842 223.238 -0.23 -0.00    +0.013 A  
DOCKED: ATOM     10  C   UNL     1     140.608  71.434 224.592 -0.44 -0.01    +0.071 A  
DOCKED: ATOM     11  C   UNL     1     139.858  70.281 224.499 -0.40 -0.00    +0.002 A  
DOCKED: ATOM     12  C   UNL     1     141.038  71.901 225.828 -0.51 -0.00    +0.030 A  
DOCKED: ATOM     13  C   UNL     1     139.542  69.601 225.647 -0.43 -0.00    +0.030 A  
DOCKED: ATOM     14  C   UNL     1     140.730  71.231 226.994 -0.69 -0.00    +0.023 A  
DOCKED: ATOM     15  C   UNL     1     139.977  70.078 226.878 -0.52 -0.01    +0.041 A  
DOCKED: ATOM     16  Cl  UNL     1     139.594  69.236 228.373 -0.66 +0.01    -0.084 Cl 
DOCKED: ENDBRANCH   3   6
DOCKED: ENDBRANCH   1   2
DOCKED: BRANCH   1  17
DOCKED: ATOM     17  C   UNL     1     141.620  76.004 220.299 -0.18 -0.11    +0.242 C  
DOCKED: ATOM     18  O   UNL     1     142.531  76.817 220.015 -0.25 +0.19    -0.273 OA 
DOCKED: BRANCH  17  19
DOCKED: ATOM     19  N   UNL     1     140.331  76.342 220.761 -0.08 +0.10    -0.331 N  
DOCKED: ATOM     20  C   UNL     1     139.071  75.612 220.464 -0.09 -0.04    +0.152 C  
DOCKED: ATOM     21  C   UNL     1     139.865  77.417 221.621 -0.24 -0.03    +0.118 C  
DOCKED: ATOM     22  C   UNL     1     138.582  75.470 221.898 -0.22 -0.03    +0.136 C  
DOCKED: ATOM     23  C   UNL     1     139.249  76.586 222.709 -0.19 -0.01    +0.063 C  
DOCKED: BRANCH  21  24
DOCKED: ATOM     24  C   UNL     1     140.844  78.403 222.018 -0.36 +0.01    -0.025 A  
DOCKED: ATOM     25  C   UNL     1     141.358  78.417 223.293 -0.54 -0.00    +0.006 A  
DOCKED: ATOM     26  C   UNL     1     141.274  79.362 221.117 -0.33 -0.00    +0.006 A  
DOCKED: ATOM     27  C   UNL     1     142.294  79.393 223.646 -0.58 -0.00    +0.000 A  
DOCKED: ATOM     28  C   UNL     1     142.199  80.334 221.451 -0.43 -0.00    +0.000 A  
DOCKED: ATOM     29  C   UNL     1     142.711  80.345 222.727 -0.62 -0.00    +0.000 A  
DOCKED: ENDBRANCH  21  24
DOCKED: BRANCH  22  30
DOCKED: ATOM     30  O   UNL     1     139.097  74.226 222.329 -0.51 +0.10    -0.391 OA 
DOCKED: ATOM     31  H   UNL     1     139.572  74.319 223.191 -0.48 -0.01    +0.211 HD 
DOCKED: ENDBRANCH  22  30
DOCKED: ENDBRANCH  17  19
DOCKED: ENDBRANCH   1  17
DOCKED: TORSDOF 6
DOCKED: TER
DOCKED: ENDMDL
________________________________________________________________________________


    FINAL DOCKED STATE:
    ________________________


Run:   8 / 20
Time taken for this run:   0.042s

DOCKED: MODEL        8
DOCKED: USER    Run = 8
DOCKED: USER
DOCKED: USER    Estimated Free Energy of Binding    =  -7.72 kcal/mol  [=(1)+(2)+(3)-(4)]
DOCKED: USER
DOCKED: USER    (1) Final Intermolecular Energy     =  -9.51 kcal/mol
DOCKED: USER        vdW + Hbond + desolv Energy     =  -9.46 kcal/mol
DOCKED: USER        Electrostatic Energy            =  -0.05 kcal/mol
DOCKED: USER        Moving Ligand-Fixed Receptor    =  -9.51 kcal/mol
DOCKED: USER        Moving Ligand-Moving Receptor   =  +0.00 kcal/mol
DOCKED: USER    (2) Final Total Internal Energy     =  -3.40 kcal/mol
DOCKED: USER    (3) Torsional Free Energy           =  +1.79 kcal/mol
DOCKED: USER    (4) Unbound System's Energy         =  -3.40 kcal/mol
DOCKED: USER
DOCKED: USER
DOCKED: REMARK SMILES O=C(NCC(=O)N1C[C@@H](O)C[C@H]1c1ccccc1)c1ccc2cc(Cl)ccc2n1
DOCKED: REMARK SMILES IDX 4 1 3 2 2 3 1 4 19 6 20 7 29 8 21 9 28 10 22 11 27 12 23 13
DOCKED: REMARK SMILES IDX 26 14 24 15 25 16 5 17 6 18 7 19 8 20 12 21 9 22 11 23 13 24
DOCKED: REMARK SMILES IDX 14 25 18 26 15 27 17 28 16 29 10 30
DOCKED: REMARK H PARENT 3 5 10 31
DOCKED: USER                              x       y       z     vdW  Elec       q    Type
DOCKED: USER                           _______ _______ _______ _____ _____    ______ ____
DOCKED: ROOT
DOCKED: ATOM      1  C   UNL     1     137.352  68.469 223.309 -0.04 -0.02    +0.216 C  
DOCKED: ENDROOT
DOCKED: BRANCH   1   2
DOCKED: ATOM      2  N   UNL     1     136.744  69.672 223.780 -0.08 +0.04    -0.342 N  
DOCKED: ATOM      3  C   UNL     1     135.599  69.629 224.615 -0.13 -0.02    +0.270 C  
DOCKED: ATOM      4  O   UNL     1     135.086  68.521 224.966 -0.60 -0.01    -0.268 OA 
DOCKED: ATOM      5  H   UNL     1     137.120  70.634 223.527 +0.05 -0.03    +0.164 HD 
DOCKED: BRANCH   3   6
DOCKED: ATOM      6  C   UNL     1     135.002  70.876 225.080 -0.14 -0.01    +0.128 A  
DOCKED: ATOM      7  C   UNL     1     133.969  70.872 225.993 -0.30 -0.00    +0.035 A  
DOCKED: ATOM      8  N   UNL     1     135.461  72.073 224.614 -0.10 +0.03    -0.243 NA 
DOCKED: ATOM      9  C   UNL     1     133.406  72.062 226.428 -0.37 -0.00    +0.013 A  
DOCKED: ATOM     10  C   UNL     1     134.937  73.240 225.017 -0.21 -0.01    +0.071 A  
DOCKED: ATOM     11  C   UNL     1     133.903  73.269 225.929 -0.33 +0.00    +0.002 A  
DOCKED: ATOM     12  C   UNL     1     135.457  74.419 224.498 -0.30 -0.01    +0.030 A  
DOCKED: ATOM     13  C   UNL     1     133.395  74.482 226.315 -0.33 +0.00    +0.030 A  
DOCKED: ATOM     14  C   UNL     1     134.960  75.649 224.874 -0.34 -0.00    +0.023 A  
DOCKED: ATOM     15  C   UNL     1     133.923  75.655 225.789 -0.33 -0.00    +0.041 A  
DOCKED: ATOM     16  Cl  UNL     1     133.300  77.231 226.259 -0.32 +0.01    -0.084 Cl 
DOCKED: ENDBRANCH   3   6
DOCKED: ENDBRANCH   1   2
DOCKED: BRANCH   1  17
DOCKED: ATOM     17  C   UNL     1     138.794  68.364 223.691 -0.19 -0.03    +0.242 C  
DOCKED: ATOM     18  O   UNL     1     139.209  67.216 223.973 -0.58 +0.01    -0.273 OA 
DOCKED: BRANCH  17  19
DOCKED: ATOM     19  N   UNL     1     139.567  69.545 223.705 -0.09 +0.06    -0.331 N  
DOCKED: ATOM     20  C   UNL     1     139.784  70.467 222.560 -0.13 -0.03    +0.152 C  
DOCKED: ATOM     21  C   UNL     1     140.322  70.191 224.765 -0.33 -0.02    +0.118 C  
DOCKED: ATOM     22  C   UNL     1     139.410  71.759 223.272 -0.22 -0.03    +0.136 C  
DOCKED: ATOM     23  C   UNL     1     139.615  71.515 224.772 -0.24 -0.02    +0.063 C  
DOCKED: BRANCH  21  24
DOCKED: ATOM     24  C   UNL     1     140.413  69.485 226.023 -0.49 +0.00    -0.025 A  
DOCKED: ATOM     25  C   UNL     1     141.116  68.309 226.124 -0.53 -0.00    +0.006 A  
DOCKED: ATOM     26  C   UNL     1     139.779  69.981 227.149 -0.54 -0.00    +0.006 A  
DOCKED: ATOM     27  C   UNL     1     141.172  67.645 227.353 -0.50 -0.00    +0.000 A  
DOCKED: ATOM     28  C   UNL     1     139.826  69.338 228.372 -0.62 -0.00    +0.000 A  
DOCKED: ATOM     29  C   UNL     1     140.530  68.160 228.470 -0.61 -0.00    +0.000 A  
DOCKED: ENDBRANCH  21  24
DOCKED: BRANCH  22  30
DOCKED: ATOM     30  O   UNL     1     138.027  71.916 223.023 -0.10 +0.12    -0.391 OA 
DOCKED: ATOM     31  H   UNL     1     137.562  72.270 223.820 -0.42 -0.10    +0.211 HD 
DOCKED: ENDBRANCH  22  30
DOCKED: ENDBRANCH  17  19
DOCKED: ENDBRANCH   1  17
DOCKED: TORSDOF 6
DOCKED: TER
DOCKED: ENDMDL
________________________________________________________________________________


    FINAL DOCKED STATE:
    ________________________


Run:   9 / 20
Time taken for this run:   0.042s

DOCKED: MODEL        9
DOCKED: USER    Run = 9
DOCKED: USER
DOCKED: USER    Estimated Free Energy of Binding    =  -7.62 kcal/mol  [=(1)+(2)+(3)-(4)]
DOCKED: USER
DOCKED: USER    (1) Final Intermolecular Energy     =  -9.41 kcal/mol
DOCKED: USER        vdW + Hbond + desolv Energy     =  -9.35 kcal/mol
DOCKED: USER        Electrostatic Energy            =  -0.06 kcal/mol
DOCKED: USER        Moving Ligand-Fixed Receptor    =  -9.41 kcal/mol
DOCKED: USER        Moving Ligand-Moving Receptor   =  +0.00 kcal/mol
DOCKED: USER    (2) Final Total Internal Energy     =  -3.46 kcal/mol
DOCKED: USER    (3) Torsional Free Energy           =  +1.79 kcal/mol
DOCKED: USER    (4) Unbound System's Energy         =  -3.46 kcal/mol
DOCKED: USER
DOCKED: USER
DOCKED: REMARK SMILES O=C(NCC(=O)N1C[C@@H](O)C[C@H]1c1ccccc1)c1ccc2cc(Cl)ccc2n1
DOCKED: REMARK SMILES IDX 4 1 3 2 2 3 1 4 19 6 20 7 29 8 21 9 28 10 22 11 27 12 23 13
DOCKED: REMARK SMILES IDX 26 14 24 15 25 16 5 17 6 18 7 19 8 20 12 21 9 22 11 23 13 24
DOCKED: REMARK SMILES IDX 14 25 18 26 15 27 17 28 16 29 10 30
DOCKED: REMARK H PARENT 3 5 10 31
DOCKED: USER                              x       y       z     vdW  Elec       q    Type
DOCKED: USER                           _______ _______ _______ _____ _____    ______ ____
DOCKED: ROOT
DOCKED: ATOM      1  C   UNL     1     137.354  68.476 223.295 -0.05 -0.02    +0.216 C  
DOCKED: ENDROOT
DOCKED: BRANCH   1   2
DOCKED: ATOM      2  N   UNL     1     136.720  69.679 223.730 -0.08 +0.04    -0.342 N  
DOCKED: ATOM      3  C   UNL     1     135.630  69.641 224.636 -0.14 -0.02    +0.270 C  
DOCKED: ATOM      4  O   UNL     1     135.191  68.537 225.085 -0.55 -0.01    -0.268 OA 
DOCKED: ATOM      5  H   UNL     1     137.035  70.638 223.395 +0.05 -0.03    +0.164 HD 
DOCKED: BRANCH   3   6
DOCKED: ATOM      6  C   UNL     1     135.005  70.889 225.060 -0.14 -0.01    +0.128 A  
DOCKED: ATOM      7  C   UNL     1     133.934  70.888 225.928 -0.29 -0.00    +0.035 A  
DOCKED: ATOM      8  N   UNL     1     135.474  72.084 224.600 -0.11 +0.03    -0.243 NA 
DOCKED: ATOM      9  C   UNL     1     133.345  72.078 226.326 -0.35 -0.00    +0.013 A  
DOCKED: ATOM     10  C   UNL     1     134.925  73.251 224.966 -0.23 -0.01    +0.071 A  
DOCKED: ATOM     11  C   UNL     1     133.854  73.283 225.833 -0.32 -0.00    +0.002 A  
DOCKED: ATOM     12  C   UNL     1     135.459  74.428 224.455 -0.30 -0.01    +0.030 A  
DOCKED: ATOM     13  C   UNL     1     133.321  74.497 226.183 -0.32 +0.00    +0.030 A  
DOCKED: ATOM     14  C   UNL     1     134.936  75.659 224.795 -0.33 -0.00    +0.023 A  
DOCKED: ATOM     15  C   UNL     1     133.862  75.667 225.666 -0.31 -0.00    +0.041 A  
DOCKED: ATOM     16  Cl  UNL     1     133.209  77.244 226.091 -0.31 +0.01    -0.084 Cl 
DOCKED: ENDBRANCH   3   6
DOCKED: ENDBRANCH   1   2
DOCKED: BRANCH   1  17
DOCKED: ATOM     17  C   UNL     1     138.775  68.378 223.748 -0.19 -0.03    +0.242 C  
DOCKED: ATOM     18  O   UNL     1     139.164  67.242 224.108 -0.62 +0.00    -0.273 OA 
DOCKED: BRANCH  17  19
DOCKED: ATOM     19  N   UNL     1     139.560  69.550 223.737 -0.09 +0.06    -0.331 N  
DOCKED: ATOM     20  C   UNL     1     139.783  70.448 222.574 -0.13 -0.03    +0.152 C  
DOCKED: ATOM     21  C   UNL     1     140.326  70.209 224.782 -0.34 -0.02    +0.118 C  
DOCKED: ATOM     22  C   UNL     1     139.425  71.757 223.262 -0.22 -0.03    +0.136 C  
DOCKED: ATOM     23  C   UNL     1     139.634  71.540 224.765 -0.19 -0.02    +0.063 C  
DOCKED: BRANCH  21  24
DOCKED: ATOM     24  C   UNL     1     140.415  69.526 226.052 -0.49 +0.00    -0.025 A  
DOCKED: ATOM     25  C   UNL     1     139.694  69.958 227.139 -0.52 -0.00    +0.006 A  
DOCKED: ATOM     26  C   UNL     1     141.243  68.426 226.197 -0.53 -0.00    +0.006 A  
DOCKED: ATOM     27  C   UNL     1     139.814  69.281 228.356 -0.62 -0.00    +0.000 A  
DOCKED: ATOM     28  C   UNL     1     141.371  67.745 227.393 -0.48 -0.00    +0.000 A  
DOCKED: ATOM     29  C   UNL     1     140.649  68.180 228.480 -0.64 -0.00    +0.000 A  
DOCKED: ENDBRANCH  21  24
DOCKED: BRANCH  22  30
DOCKED: ATOM     30  O   UNL     1     138.043  71.924 223.015 -0.10 +0.13    -0.391 OA 
DOCKED: ATOM     31  H   UNL     1     137.580  72.268 223.818 -0.42 -0.10    +0.211 HD 
DOCKED: ENDBRANCH  22  30
DOCKED: ENDBRANCH  17  19
DOCKED: ENDBRANCH   1  17
DOCKED: TORSDOF 6
DOCKED: TER
DOCKED: ENDMDL
________________________________________________________________________________


    FINAL DOCKED STATE:
    ________________________


Run:   10 / 20
Time taken for this run:   0.042s

DOCKED: MODEL        10
DOCKED: USER    Run = 10
DOCKED: USER
DOCKED: USER    Estimated Free Energy of Binding    =  -7.73 kcal/mol  [=(1)+(2)+(3)-(4)]
DOCKED: USER
DOCKED: USER    (1) Final Intermolecular Energy     =  -9.52 kcal/mol
DOCKED: USER        vdW + Hbond + desolv Energy     =  -9.47 kcal/mol
DOCKED: USER        Electrostatic Energy            =  -0.05 kcal/mol
DOCKED: USER        Moving Ligand-Fixed Receptor    =  -9.52 kcal/mol
DOCKED: USER        Moving Ligand-Moving Receptor   =  +0.00 kcal/mol
DOCKED: USER    (2) Final Total Internal Energy     =  -3.36 kcal/mol
DOCKED: USER    (3) Torsional Free Energy           =  +1.79 kcal/mol
DOCKED: USER    (4) Unbound System's Energy         =  -3.36 kcal/mol
DOCKED: USER
DOCKED: USER
DOCKED: REMARK SMILES O=C(NCC(=O)N1C[C@@H](O)C[C@H]1c1ccccc1)c1ccc2cc(Cl)ccc2n1
DOCKED: REMARK SMILES IDX 4 1 3 2 2 3 1 4 19 6 20 7 29 8 21 9 28 10 22 11 27 12 23 13
DOCKED: REMARK SMILES IDX 26 14 24 15 25 16 5 17 6 18 7 19 8 20 12 21 9 22 11 23 13 24
DOCKED: REMARK SMILES IDX 14 25 18 26 15 27 17 28 16 29 10 30
DOCKED: REMARK H PARENT 3 5 10 31
DOCKED: USER                              x       y       z     vdW  Elec       q    Type
DOCKED: USER                           _______ _______ _______ _____ _____    ______ ____
DOCKED: ROOT
DOCKED: ATOM      1  C   UNL     1     137.350  68.490 223.365 -0.04 -0.02    +0.216 C  
DOCKED: ENDROOT
DOCKED: BRANCH   1   2
DOCKED: ATOM      2  N   UNL     1     136.729  69.687 223.833 -0.08 +0.04    -0.342 N  
DOCKED: ATOM      3  C   UNL     1     135.579  69.635 224.660 -0.14 -0.02    +0.270 C  
DOCKED: ATOM      4  O   UNL     1     135.073  68.522 225.008 -0.60 -0.01    -0.268 OA 
DOCKED: ATOM      5  H   UNL     1     137.098  70.652 223.581 +0.05 -0.03    +0.164 HD 
DOCKED: BRANCH   3   6
DOCKED: ATOM      6  C   UNL     1     134.968  70.877 225.120 -0.14 -0.01    +0.128 A  
DOCKED: ATOM      7  C   UNL     1     133.917  70.864 226.011 -0.30 -0.00    +0.035 A  
DOCKED: ATOM      8  N   UNL     1     135.432  72.078 224.671 -0.09 +0.03    -0.243 NA 
DOCKED: ATOM      9  C   UNL     1     133.341  72.049 226.443 -0.37 -0.00    +0.013 A  
DOCKED: ATOM     10  C   UNL     1     134.896  73.241 225.071 -0.19 -0.01    +0.071 A  
DOCKED: ATOM     11  C   UNL     1     133.844  73.261 225.961 -0.33 +0.00    +0.002 A  
DOCKED: ATOM     12  C   UNL     1     135.423  74.425 224.570 -0.31 -0.01    +0.030 A  
DOCKED: ATOM     13  C   UNL     1     133.324  74.470 226.345 -0.33 +0.00    +0.030 A  
DOCKED: ATOM     14  C   UNL     1     134.914  75.651 224.943 -0.34 -0.00    +0.023 A  
DOCKED: ATOM     15  C   UNL     1     133.859  75.648 225.837 -0.33 -0.00    +0.041 A  
DOCKED: ATOM     16  Cl  UNL     1     133.221  77.218 226.304 -0.34 +0.01    -0.084 Cl 
DOCKED: ENDBRANCH   3   6
DOCKED: ENDBRANCH   1   2
DOCKED: BRANCH   1  17
DOCKED: ATOM     17  C   UNL     1     138.784  68.387 223.777 -0.19 -0.03    +0.242 C  
DOCKED: ATOM     18  O   UNL     1     139.184  67.246 224.106 -0.63 +0.01    -0.273 OA 
DOCKED: BRANCH  17  19
DOCKED: ATOM     19  N   UNL     1     139.567  69.560 223.763 -0.09 +0.06    -0.331 N  
DOCKED: ATOM     20  C   UNL     1     139.782  70.460 222.600 -0.13 -0.03    +0.152 C  
DOCKED: ATOM     21  C   UNL     1     140.337  70.219 224.805 -0.34 -0.02    +0.118 C  
DOCKED: ATOM     22  C   UNL     1     139.425  71.768 223.293 -0.22 -0.03    +0.136 C  
DOCKED: ATOM     23  C   UNL     1     139.642  71.549 224.794 -0.17 -0.02    +0.063 C  
DOCKED: BRANCH  21  24
DOCKED: ATOM     24  C   UNL     1     140.434  69.534 226.074 -0.49 +0.00    -0.025 A  
DOCKED: ATOM     25  C   UNL     1     139.702  69.951 227.159 -0.53 -0.00    +0.006 A  
DOCKED: ATOM     26  C   UNL     1     141.279  68.447 226.218 -0.52 -0.00    +0.006 A  
DOCKED: ATOM     27  C   UNL     1     139.830  69.273 228.376 -0.62 -0.00    +0.000 A  
DOCKED: ATOM     28  C   UNL     1     141.416  67.766 227.413 -0.48 -0.00    +0.000 A  
DOCKED: ATOM     29  C   UNL     1     140.683  68.186 228.499 -0.64 -0.00    +0.000 A  
DOCKED: ENDBRANCH  21  24
DOCKED: BRANCH  22  30
DOCKED: ATOM     30  O   UNL     1     138.042  71.933 223.052 -0.10 +0.13    -0.391 OA 
DOCKED: ATOM     31  H   UNL     1     137.581  72.269 223.860 -0.43 -0.10    +0.211 HD 
DOCKED: ENDBRANCH  22  30
DOCKED: ENDBRANCH  17  19
DOCKED: ENDBRANCH   1  17
DOCKED: TORSDOF 6
DOCKED: TER
DOCKED: ENDMDL
________________________________________________________________________________


    FINAL DOCKED STATE:
    ________________________


Run:   11 / 20
Time taken for this run:   0.042s

DOCKED: MODEL        11
DOCKED: USER    Run = 11
DOCKED: USER
DOCKED: USER    Estimated Free Energy of Binding    =  -7.72 kcal/mol  [=(1)+(2)+(3)-(4)]
DOCKED: USER
DOCKED: USER    (1) Final Intermolecular Energy     =  -9.51 kcal/mol
DOCKED: USER        vdW + Hbond + desolv Energy     =  -9.59 kcal/mol
DOCKED: USER        Electrostatic Energy            =  +0.08 kcal/mol
DOCKED: USER        Moving Ligand-Fixed Receptor    =  -9.51 kcal/mol
DOCKED: USER        Moving Ligand-Moving Receptor   =  +0.00 kcal/mol
DOCKED: USER    (2) Final Total Internal Energy     =  -2.64 kcal/mol
DOCKED: USER    (3) Torsional Free Energy           =  +1.79 kcal/mol
DOCKED: USER    (4) Unbound System's Energy         =  -2.64 kcal/mol
DOCKED: USER
DOCKED: USER
DOCKED: REMARK SMILES O=C(NCC(=O)N1C[C@@H](O)C[C@H]1c1ccccc1)c1ccc2cc(Cl)ccc2n1
DOCKED: REMARK SMILES IDX 4 1 3 2 2 3 1 4 19 6 20 7 29 8 21 9 28 10 22 11 27 12 23 13
DOCKED: REMARK SMILES IDX 26 14 24 15 25 16 5 17 6 18 7 19 8 20 12 21 9 22 11 23 13 24
DOCKED: REMARK SMILES IDX 14 25 18 26 15 27 17 28 16 29 10 30
DOCKED: REMARK H PARENT 3 5 10 31
DOCKED: USER                              x       y       z     vdW  Elec       q    Type
DOCKED: USER                           _______ _______ _______ _____ _____    ______ ____
DOCKED: ROOT
DOCKED: ATOM      1  C   UNL     1     141.967  74.500 219.989 -0.16 -0.06    +0.216 C  
DOCKED: ENDROOT
DOCKED: BRANCH   1   2
DOCKED: ATOM      2  N   UNL     1     141.558  73.725 221.116 -0.13 +0.05    -0.342 N  
DOCKED: ATOM      3  C   UNL     1     141.104  72.392 220.956 -0.13 -0.04    +0.270 C  
DOCKED: ATOM      4  O   UNL     1     141.051  71.852 219.807 -0.05 +0.04    -0.268 OA 
DOCKED: ATOM      5  H   UNL     1     141.576  74.112 222.106 +0.06 +0.00    +0.164 HD 
DOCKED: BRANCH   3   6
DOCKED: ATOM      6  C   UNL     1     140.693  71.627 222.128 -0.22 -0.01    +0.128 A  
DOCKED: ATOM      7  C   UNL     1     139.944  70.477 222.000 -0.15 -0.01    +0.035 A  
DOCKED: ATOM      8  N   UNL     1     141.046  72.043 223.378 -0.01 +0.00    -0.243 NA 
DOCKED: ATOM      9  C   UNL     1     139.556  69.757 223.119 -0.20 -0.00    +0.013 A  
DOCKED: ATOM     10  C   UNL     1     140.686  71.368 224.479 -0.42 -0.01    +0.071 A  
DOCKED: ATOM     11  C   UNL     1     139.938  70.214 224.383 -0.38 -0.00    +0.002 A  
DOCKED: ATOM     12  C   UNL     1     141.084  71.854 225.719 -0.50 -0.00    +0.030 A  
DOCKED: ATOM     13  C   UNL     1     139.591  69.553 225.533 -0.42 -0.00    +0.030 A  
DOCKED: ATOM     14  C   UNL     1     140.744  71.203 226.887 -0.68 -0.00    +0.023 A  
DOCKED: ATOM     15  C   UNL     1     139.993  70.048 226.768 -0.51 -0.01    +0.041 A  
DOCKED: ATOM     16  Cl  UNL     1     139.569  69.230 228.265 -0.67 +0.01    -0.084 Cl 
DOCKED: ENDBRANCH   3   6
DOCKED: ENDBRANCH   1   2
DOCKED: BRANCH   1  17
DOCKED: ATOM     17  C   UNL     1     141.539  75.929 220.087 -0.16 -0.10    +0.242 C  
DOCKED: ATOM     18  O   UNL     1     142.339  76.779 219.629 -0.21 +0.16    -0.273 OA 
DOCKED: BRANCH  17  19
DOCKED: ATOM     19  N   UNL     1     140.288  76.211 220.675 -0.07 +0.10    -0.331 N  
DOCKED: ATOM     20  C   UNL     1     139.038  75.426 220.501 -0.09 -0.03    +0.152 C  
DOCKED: ATOM     21  C   UNL     1     139.863  77.265 221.581 -0.24 -0.03    +0.118 C  
DOCKED: ATOM     22  C   UNL     1     138.700  75.263 221.976 -0.22 -0.03    +0.136 C  
DOCKED: ATOM     23  C   UNL     1     139.394  76.409 222.721 -0.16 -0.01    +0.063 C  
DOCKED: BRANCH  21  24
DOCKED: ATOM     24  C   UNL     1     140.833  78.294 221.882 -0.35 +0.01    -0.025 A  
DOCKED: ATOM     25  C   UNL     1     141.178  79.236 220.944 -0.30 -0.00    +0.006 A  
DOCKED: ATOM     26  C   UNL     1     141.440  78.337 223.125 -0.55 -0.00    +0.006 A  
DOCKED: ATOM     27  C   UNL     1     142.130  80.209 221.266 -0.40 -0.00    +0.000 A  
DOCKED: ATOM     28  C   UNL     1     142.381  79.294 223.459 -0.58 -0.00    +0.000 A  
DOCKED: ATOM     29  C   UNL     1     142.726  80.236 222.518 -0.59 -0.00    +0.000 A  
DOCKED: ENDBRANCH  21  24
DOCKED: BRANCH  22  30
DOCKED: ATOM     30  O   UNL     1     139.309  74.043 222.350 -0.63 +0.08    -0.391 OA 
DOCKED: ATOM     31  H   UNL     1     139.554  74.050 223.307 -0.46 -0.03    +0.211 HD 
DOCKED: ENDBRANCH  22  30
DOCKED: ENDBRANCH  17  19
DOCKED: ENDBRANCH   1  17
DOCKED: TORSDOF 6
DOCKED: TER
DOCKED: ENDMDL
________________________________________________________________________________


    FINAL DOCKED STATE:
    ________________________


Run:   12 / 20
Time taken for this run:   0.042s

DOCKED: MODEL        12
DOCKED: USER    Run = 12
DOCKED: USER
DOCKED: USER    Estimated Free Energy of Binding    =  -7.78 kcal/mol  [=(1)+(2)+(3)-(4)]
DOCKED: USER
DOCKED: USER    (1) Final Intermolecular Energy     =  -9.57 kcal/mol
DOCKED: USER        vdW + Hbond + desolv Energy     =  -9.55 kcal/mol
DOCKED: USER        Electrostatic Energy            =  -0.02 kcal/mol
DOCKED: USER        Moving Ligand-Fixed Receptor    =  -9.57 kcal/mol
DOCKED: USER        Moving Ligand-Moving Receptor   =  +0.00 kcal/mol
DOCKED: USER    (2) Final Total Internal Energy     =  -3.00 kcal/mol
DOCKED: USER    (3) Torsional Free Energy           =  +1.79 kcal/mol
DOCKED: USER    (4) Unbound System's Energy         =  -3.00 kcal/mol
DOCKED: USER
DOCKED: USER
DOCKED: REMARK SMILES O=C(NCC(=O)N1C[C@@H](O)C[C@H]1c1ccccc1)c1ccc2cc(Cl)ccc2n1
DOCKED: REMARK SMILES IDX 4 1 3 2 2 3 1 4 19 6 20 7 29 8 21 9 28 10 22 11 27 12 23 13
DOCKED: REMARK SMILES IDX 26 14 24 15 25 16 5 17 6 18 7 19 8 20 12 21 9 22 11 23 13 24
DOCKED: REMARK SMILES IDX 14 25 18 26 15 27 17 28 16 29 10 30
DOCKED: REMARK H PARENT 3 5 10 31
DOCKED: USER                              x       y       z     vdW  Elec       q    Type
DOCKED: USER                           _______ _______ _______ _____ _____    ______ ____
DOCKED: ROOT
DOCKED: ATOM      1  C   UNL     1     136.523  72.309 222.733 -0.11 -0.05    +0.216 C  
DOCKED: ENDROOT
DOCKED: BRANCH   1   2
DOCKED: ATOM      2  N   UNL     1     137.203  73.564 222.717 +0.15 +0.14    -0.342 N  
DOCKED: ATOM      3  C   UNL     1     136.480  74.784 222.726 -0.10 -0.08    +0.270 C  
DOCKED: ATOM      4  O   UNL     1     135.209  74.791 222.750 -0.08 +0.05    -0.268 OA 
DOCKED: ATOM      5  H   UNL     1     138.264  73.634 222.696 -0.52 -0.08    +0.164 HD 
DOCKED: BRANCH   3   6
DOCKED: ATOM      6  C   UNL     1     137.205  76.049 222.708 -0.23 -0.03    +0.128 A  
DOCKED: ATOM      7  C   UNL     1     136.533  77.253 222.705 -0.20 -0.01    +0.035 A  
DOCKED: ATOM      8  N   UNL     1     138.568  76.059 222.694 -0.22 +0.06    -0.243 NA 
DOCKED: ATOM      9  C   UNL     1     137.230  78.451 222.687 -0.20 -0.00    +0.013 A  
DOCKED: ATOM     10  C   UNL     1     139.270  77.202 222.677 -0.25 -0.01    +0.071 A  
DOCKED: ATOM     11  C   UNL     1     138.627  78.421 222.674 -0.29 -0.00    +0.002 A  
DOCKED: ATOM     12  C   UNL     1     140.658  77.132 222.663 -0.39 -0.01    +0.030 A  
DOCKED: ATOM     13  C   UNL     1     139.380  79.567 222.656 -0.30 -0.01    +0.030 A  
DOCKED: ATOM     14  C   UNL     1     141.433  78.273 222.645 -0.48 -0.01    +0.023 A  
DOCKED: ATOM     15  C   UNL     1     140.768  79.485 222.642 -0.40 -0.01    +0.041 A  
DOCKED: ATOM     16  Cl  UNL     1     141.769  80.930 222.620 -0.66 +0.02    -0.084 Cl 
DOCKED: ENDBRANCH   3   6
DOCKED: ENDBRANCH   1   2
DOCKED: BRANCH   1  17
DOCKED: ATOM     17  C   UNL     1     137.392  71.189 223.209 -0.13 -0.05    +0.242 C  
DOCKED: ATOM     18  O   UNL     1     136.847  70.345 223.956 -0.13 +0.04    -0.273 OA 
DOCKED: BRANCH  17  19
DOCKED: ATOM     19  N   UNL     1     138.739  71.167 222.788 -0.10 +0.07    -0.331 N  
DOCKED: ATOM     20  C   UNL     1     139.257  71.631 221.475 -0.13 -0.03    +0.152 C  
DOCKED: ATOM     21  C   UNL     1     139.952  70.732 223.459 -0.26 -0.02    +0.118 C  
DOCKED: ATOM     22  C   UNL     1     140.364  72.531 222.006 -0.25 -0.02    +0.136 C  
DOCKED: ATOM     23  C   UNL     1     140.714  72.025 223.409 -0.16 -0.00    +0.063 C  
DOCKED: BRANCH  21  24
DOCKED: ATOM     24  C   UNL     1     139.793  70.108 224.753 -0.39 +0.00    -0.025 A  
DOCKED: ATOM     25  C   UNL     1     139.329  68.820 224.864 -0.39 -0.00    +0.006 A  
DOCKED: ATOM     26  C   UNL     1     140.096  70.809 225.908 -0.53 -0.00    +0.006 A  
DOCKED: ATOM     27  C   UNL     1     139.175  68.252 226.133 -0.54 -0.00    +0.000 A  
DOCKED: ATOM     28  C   UNL     1     139.950  70.262 227.169 -0.57 -0.00    +0.000 A  
DOCKED: ATOM     29  C   UNL     1     139.485  68.972 227.278 -0.55 -0.00    +0.000 A  
DOCKED: ENDBRANCH  21  24
DOCKED: BRANCH  22  30
DOCKED: ATOM     30  O   UNL     1     139.763  73.806 222.120 -0.69 +0.05    -0.391 OA 
DOCKED: ATOM     31  H   UNL     1     139.558  74.017 223.064 -0.48 -0.03    +0.211 HD 
DOCKED: ENDBRANCH  22  30
DOCKED: ENDBRANCH  17  19
DOCKED: ENDBRANCH   1  17
DOCKED: TORSDOF 6
DOCKED: TER
DOCKED: ENDMDL
________________________________________________________________________________


    FINAL DOCKED STATE:
    ________________________


Run:   13 / 20
Time taken for this run:   0.042s

DOCKED: MODEL        13
DOCKED: USER    Run = 13
DOCKED: USER
DOCKED: USER    Estimated Free Energy of Binding    =  -7.80 kcal/mol  [=(1)+(2)+(3)-(4)]
DOCKED: USER
DOCKED: USER    (1) Final Intermolecular Energy     =  -9.59 kcal/mol
DOCKED: USER        vdW + Hbond + desolv Energy     =  -9.57 kcal/mol
DOCKED: USER        Electrostatic Energy            =  -0.02 kcal/mol
DOCKED: USER        Moving Ligand-Fixed Receptor    =  -9.59 kcal/mol
DOCKED: USER        Moving Ligand-Moving Receptor   =  +0.00 kcal/mol
DOCKED: USER    (2) Final Total Internal Energy     =  -3.00 kcal/mol
DOCKED: USER    (3) Torsional Free Energy           =  +1.79 kcal/mol
DOCKED: USER    (4) Unbound System's Energy         =  -3.00 kcal/mol
DOCKED: USER
DOCKED: USER
DOCKED: REMARK SMILES O=C(NCC(=O)N1C[C@@H](O)C[C@H]1c1ccccc1)c1ccc2cc(Cl)ccc2n1
DOCKED: REMARK SMILES IDX 4 1 3 2 2 3 1 4 19 6 20 7 29 8 21 9 28 10 22 11 27 12 23 13
DOCKED: REMARK SMILES IDX 26 14 24 15 25 16 5 17 6 18 7 19 8 20 12 21 9 22 11 23 13 24
DOCKED: REMARK SMILES IDX 14 25 18 26 15 27 17 28 16 29 10 30
DOCKED: REMARK H PARENT 3 5 10 31
DOCKED: USER                              x       y       z     vdW  Elec       q    Type
DOCKED: USER                           _______ _______ _______ _____ _____    ______ ____
DOCKED: ROOT
DOCKED: ATOM      1  C   UNL     1     136.533  72.257 222.706 -0.11 -0.05    +0.216 C  
DOCKED: ENDROOT
DOCKED: BRANCH   1   2
DOCKED: ATOM      2  N   UNL     1     137.210  73.514 222.723 +0.16 +0.14    -0.342 N  
DOCKED: ATOM      3  C   UNL     1     136.484  74.732 222.676 -0.10 -0.08    +0.270 C  
DOCKED: ATOM      4  O   UNL     1     135.215  74.735 222.619 -0.07 +0.05    -0.268 OA 
DOCKED: ATOM      5  H   UNL     1     138.270  73.587 222.770 -0.53 -0.09    +0.164 HD 
DOCKED: BRANCH   3   6
DOCKED: ATOM      6  C   UNL     1     137.206  75.999 222.695 -0.23 -0.03    +0.128 A  
DOCKED: ATOM      7  C   UNL     1     136.531  77.201 222.715 -0.20 -0.01    +0.035 A  
DOCKED: ATOM      8  N   UNL     1     138.569  76.014 222.691 -0.22 +0.06    -0.243 NA 
DOCKED: ATOM      9  C   UNL     1     137.224  78.402 222.732 -0.21 -0.00    +0.013 A  
DOCKED: ATOM     10  C   UNL     1     139.268  77.159 222.708 -0.25 -0.01    +0.071 A  
DOCKED: ATOM     11  C   UNL     1     138.621  78.376 222.729 -0.29 -0.00    +0.002 A  
DOCKED: ATOM     12  C   UNL     1     140.656  77.093 222.703 -0.38 -0.01    +0.030 A  
DOCKED: ATOM     13  C   UNL     1     139.371  79.523 222.745 -0.31 -0.01    +0.030 A  
DOCKED: ATOM     14  C   UNL     1     141.427  78.236 222.719 -0.48 -0.01    +0.023 A  
DOCKED: ATOM     15  C   UNL     1     140.759  79.446 222.739 -0.41 -0.01    +0.041 A  
DOCKED: ATOM     16  Cl  UNL     1     141.756  80.894 222.760 -0.68 +0.02    -0.084 Cl 
DOCKED: ENDBRANCH   3   6
DOCKED: ENDBRANCH   1   2
DOCKED: BRANCH   1  17
DOCKED: ATOM     17  C   UNL     1     137.402  71.130 223.164 -0.13 -0.05    +0.242 C  
DOCKED: ATOM     18  O   UNL     1     136.846  70.254 223.867 -0.12 +0.04    -0.273 OA 
DOCKED: BRANCH  17  19
DOCKED: ATOM     19  N   UNL     1     138.759  71.135 222.779 -0.10 +0.07    -0.331 N  
DOCKED: ATOM     20  C   UNL     1     139.302  71.611 221.479 -0.13 -0.03    +0.152 C  
DOCKED: ATOM     21  C   UNL     1     139.963  70.725 223.481 -0.26 -0.02    +0.118 C  
DOCKED: ATOM     22  C   UNL     1     140.375  72.533 222.039 -0.25 -0.02    +0.136 C  
DOCKED: ATOM     23  C   UNL     1     140.699  72.033 223.451 -0.17 -0.00    +0.063 C  
DOCKED: BRANCH  21  24
DOCKED: ATOM     24  C   UNL     1     139.783  70.098 224.770 -0.39 +0.00    -0.025 A  
DOCKED: ATOM     25  C   UNL     1     140.081  70.770 225.931 -0.53 -0.00    +0.006 A  
DOCKED: ATOM     26  C   UNL     1     139.316  68.798 224.854 -0.39 -0.00    +0.006 A  
DOCKED: ATOM     27  C   UNL     1     139.907  70.128 227.161 -0.56 -0.00    +0.000 A  
DOCKED: ATOM     28  C   UNL     1     139.137  68.149 226.062 -0.54 -0.00    +0.000 A  
DOCKED: ATOM     29  C   UNL     1     139.436  68.824 227.223 -0.53 -0.00    +0.000 A  
DOCKED: ENDBRANCH  21  24
DOCKED: BRANCH  22  30
DOCKED: ATOM     30  O   UNL     1     139.746  73.795 222.137 -0.68 +0.05    -0.391 OA 
DOCKED: ATOM     31  H   UNL     1     139.550  74.020 223.080 -0.49 -0.03    +0.211 HD 
DOCKED: ENDBRANCH  22  30
DOCKED: ENDBRANCH  17  19
DOCKED: ENDBRANCH   1  17
DOCKED: TORSDOF 6
DOCKED: TER
DOCKED: ENDMDL
________________________________________________________________________________


    FINAL DOCKED STATE:
    ________________________


Run:   14 / 20
Time taken for this run:   0.042s

DOCKED: MODEL        14
DOCKED: USER    Run = 14
DOCKED: USER
DOCKED: USER    Estimated Free Energy of Binding    =  -8.33 kcal/mol  [=(1)+(2)+(3)-(4)]
DOCKED: USER
DOCKED: USER    (1) Final Intermolecular Energy     = -10.12 kcal/mol
DOCKED: USER        vdW + Hbond + desolv Energy     = -10.07 kcal/mol
DOCKED: USER        Electrostatic Energy            =  -0.05 kcal/mol
DOCKED: USER        Moving Ligand-Fixed Receptor    = -10.12 kcal/mol
DOCKED: USER        Moving Ligand-Moving Receptor   =  +0.00 kcal/mol
DOCKED: USER    (2) Final Total Internal Energy     =  -2.10 kcal/mol
DOCKED: USER    (3) Torsional Free Energy           =  +1.79 kcal/mol
DOCKED: USER    (4) Unbound System's Energy         =  -2.10 kcal/mol
DOCKED: USER
DOCKED: USER
DOCKED: REMARK SMILES O=C(NCC(=O)N1C[C@@H](O)C[C@H]1c1ccccc1)c1ccc2cc(Cl)ccc2n1
DOCKED: REMARK SMILES IDX 4 1 3 2 2 3 1 4 19 6 20 7 29 8 21 9 28 10 22 11 27 12 23 13
DOCKED: REMARK SMILES IDX 26 14 24 15 25 16 5 17 6 18 7 19 8 20 12 21 9 22 11 23 13 24
DOCKED: REMARK SMILES IDX 14 25 18 26 15 27 17 28 16 29 10 30
DOCKED: REMARK H PARENT 3 5 10 31
DOCKED: USER                              x       y       z     vdW  Elec       q    Type
DOCKED: USER                           _______ _______ _______ _____ _____    ______ ____
DOCKED: ROOT
DOCKED: ATOM      1  C   UNL     1     139.579  74.829 221.095 -0.16 -0.04    +0.216 C  
DOCKED: ENDROOT
DOCKED: BRANCH   1   2
DOCKED: ATOM      2  N   UNL     1     139.637  73.862 222.143 -0.13 +0.05    -0.342 N  
DOCKED: ATOM      3  C   UNL     1     139.781  72.481 221.852 -0.17 -0.05    +0.270 C  
DOCKED: ATOM      4  O   UNL     1     139.863  72.071 220.652 -0.06 +0.05    -0.268 OA 
DOCKED: ATOM      5  H   UNL     1     139.575  74.133 223.170 -0.51 -0.01    +0.164 HD 
DOCKED: BRANCH   3   6
DOCKED: ATOM      6  C   UNL     1     139.837  71.518 222.946 -0.28 -0.02    +0.128 A  
DOCKED: ATOM      7  C   UNL     1     139.384  70.227 222.780 -0.21 -0.01    +0.035 A  
DOCKED: ATOM      8  N   UNL     1     140.343  71.885 224.158 -0.28 +0.04    -0.243 NA 
DOCKED: ATOM      9  C   UNL     1     139.439  69.318 223.825 -0.25 -0.00    +0.013 A  
DOCKED: ATOM     10  C   UNL     1     140.410  71.028 225.188 -0.49 -0.01    +0.071 A  
DOCKED: ATOM     11  C   UNL     1     139.965  69.731 225.053 -0.41 -0.00    +0.002 A  
DOCKED: ATOM     12  C   UNL     1     140.938  71.475 226.393 -0.67 -0.00    +0.030 A  
DOCKED: ATOM     13  C   UNL     1     140.051  68.886 226.129 -0.51 -0.01    +0.030 A  
DOCKED: ATOM     14  C   UNL     1     141.033  70.640 227.488 -0.63 -0.00    +0.023 A  
DOCKED: ATOM     15  C   UNL     1     140.581  69.343 227.330 -0.57 -0.01    +0.041 A  
DOCKED: ATOM     16  Cl  UNL     1     140.709  68.291 228.734 -0.65 +0.02    -0.084 Cl 
DOCKED: ENDBRANCH   3   6
DOCKED: ENDBRANCH   1   2
DOCKED: BRANCH   1  17
DOCKED: ATOM     17  C   UNL     1     140.730  75.783 221.128 -0.21 -0.07    +0.242 C  
DOCKED: ATOM     18  O   UNL     1     141.092  76.174 222.261 -0.36 +0.09    -0.273 OA 
DOCKED: BRANCH  17  19
DOCKED: ATOM     19  N   UNL     1     141.313  76.165 219.901 -0.07 +0.13    -0.331 N  
DOCKED: ATOM     20  C   UNL     1     140.836  77.247 219.000 -0.09 -0.06    +0.152 C  
DOCKED: ATOM     21  C   UNL     1     142.482  75.672 219.193 -0.23 -0.05    +0.118 C  
DOCKED: ATOM     22  C   UNL     1     142.165  77.972 218.842 -0.24 -0.09    +0.136 C  
DOCKED: ATOM     23  C   UNL     1     143.268  76.950 219.135 -0.24 -0.05    +0.063 C  
DOCKED: BRANCH  21  24
DOCKED: ATOM     24  C   UNL     1     143.143  74.515 219.754 -0.31 +0.01    -0.025 A  
DOCKED: ATOM     25  C   UNL     1     142.497  73.306 219.840 -0.20 -0.00    +0.006 A  
DOCKED: ATOM     26  C   UNL     1     144.440  74.614 220.227 -0.46 -0.00    +0.006 A  
DOCKED: ATOM     27  C   UNL     1     143.162  72.210 220.401 -0.28 -0.00    +0.000 A  
DOCKED: ATOM     28  C   UNL     1     145.111  73.540 220.783 -0.59 -0.00    +0.000 A  
DOCKED: ATOM     29  C   UNL     1     144.463  72.330 220.868 -0.38 -0.00    +0.000 A  
DOCKED: ENDBRANCH  21  24
DOCKED: BRANCH  22  30
DOCKED: ATOM     30  O   UNL     1     142.164  78.946 219.867 -0.12 +0.27    -0.391 OA 
DOCKED: ATOM     31  H   UNL     1     142.700  78.645 220.641 -0.32 -0.21    +0.211 HD 
DOCKED: ENDBRANCH  22  30
DOCKED: ENDBRANCH  17  19
DOCKED: ENDBRANCH   1  17
DOCKED: TORSDOF 6
DOCKED: TER
DOCKED: ENDMDL
________________________________________________________________________________


    FINAL DOCKED STATE:
    ________________________


Run:   15 / 20
Time taken for this run:   0.042s

DOCKED: MODEL        15
DOCKED: USER    Run = 15
DOCKED: USER
DOCKED: USER    Estimated Free Energy of Binding    =  -7.78 kcal/mol  [=(1)+(2)+(3)-(4)]
DOCKED: USER
DOCKED: USER    (1) Final Intermolecular Energy     =  -9.57 kcal/mol
DOCKED: USER        vdW + Hbond + desolv Energy     =  -9.67 kcal/mol
DOCKED: USER        Electrostatic Energy            =  +0.10 kcal/mol
DOCKED: USER        Moving Ligand-Fixed Receptor    =  -9.57 kcal/mol
DOCKED: USER        Moving Ligand-Moving Receptor   =  +0.00 kcal/mol
DOCKED: USER    (2) Final Total Internal Energy     =  -2.59 kcal/mol
DOCKED: USER    (3) Torsional Free Energy           =  +1.79 kcal/mol
DOCKED: USER    (4) Unbound System's Energy         =  -2.59 kcal/mol
DOCKED: USER
DOCKED: USER
DOCKED: REMARK SMILES O=C(NCC(=O)N1C[C@@H](O)C[C@H]1c1ccccc1)c1ccc2cc(Cl)ccc2n1
DOCKED: REMARK SMILES IDX 4 1 3 2 2 3 1 4 19 6 20 7 29 8 21 9 28 10 22 11 27 12 23 13
DOCKED: REMARK SMILES IDX 26 14 24 15 25 16 5 17 6 18 7 19 8 20 12 21 9 22 11 23 13 24
DOCKED: REMARK SMILES IDX 14 25 18 26 15 27 17 28 16 29 10 30
DOCKED: REMARK H PARENT 3 5 10 31
DOCKED: USER                              x       y       z     vdW  Elec       q    Type
DOCKED: USER                           _______ _______ _______ _____ _____    ______ ____
DOCKED: ROOT
DOCKED: ATOM      1  C   UNL     1     141.927  74.590 220.025 -0.16 -0.07    +0.216 C  
DOCKED: ENDROOT
DOCKED: BRANCH   1   2
DOCKED: ATOM      2  N   UNL     1     141.516  73.814 221.150 -0.14 +0.05    -0.342 N  
DOCKED: ATOM      3  C   UNL     1     141.105  72.466 220.992 -0.14 -0.04    +0.270 C  
DOCKED: ATOM      4  O   UNL     1     141.094  71.915 219.847 -0.05 +0.04    -0.268 OA 
DOCKED: ATOM      5  H   UNL     1     141.500  74.209 222.137 +0.05 +0.01    +0.164 HD 
DOCKED: BRANCH   3   6
DOCKED: ATOM      6  C   UNL     1     140.690  71.700 222.162 -0.23 -0.01    +0.128 A  
DOCKED: ATOM      7  C   UNL     1     139.924  70.561 222.031 -0.16 -0.01    +0.035 A  
DOCKED: ATOM      8  N   UNL     1     141.056  72.102 223.412 +0.03 +0.00    -0.243 NA 
DOCKED: ATOM      9  C   UNL     1     139.533  69.839 223.148 -0.22 -0.00    +0.013 A  
DOCKED: ATOM     10  C   UNL     1     140.694  71.425 224.512 -0.42 -0.01    +0.071 A  
DOCKED: ATOM     11  C   UNL     1     139.929  70.283 224.413 -0.39 -0.00    +0.002 A  
DOCKED: ATOM     12  C   UNL     1     141.105  71.898 225.752 -0.47 -0.00    +0.030 A  
DOCKED: ATOM     13  C   UNL     1     139.579  69.619 225.560 -0.42 -0.00    +0.030 A  
DOCKED: ATOM     14  C   UNL     1     140.763  71.244 226.917 -0.69 -0.00    +0.023 A  
DOCKED: ATOM     15  C   UNL     1     139.995  70.101 226.795 -0.51 -0.01    +0.041 A  
DOCKED: ATOM     16  Cl  UNL     1     139.569  69.278 228.290 -0.68 +0.01    -0.084 Cl 
DOCKED: ENDBRANCH   3   6
DOCKED: ENDBRANCH   1   2
DOCKED: BRANCH   1  17
DOCKED: ATOM     17  C   UNL     1     141.547  76.031 220.150 -0.17 -0.10    +0.242 C  
DOCKED: ATOM     18  O   UNL     1     142.393  76.863 219.748 -0.23 +0.17    -0.273 OA 
DOCKED: BRANCH  17  19
DOCKED: ATOM     19  N   UNL     1     140.285  76.341 220.701 -0.07 +0.10    -0.331 N  
DOCKED: ATOM     20  C   UNL     1     139.024  75.583 220.492 -0.09 -0.03    +0.152 C  
DOCKED: ATOM     21  C   UNL     1     139.857  77.407 221.591 -0.23 -0.03    +0.118 C  
DOCKED: ATOM     22  C   UNL     1     138.639  75.432 221.957 -0.23 -0.03    +0.136 C  
DOCKED: ATOM     23  C   UNL     1     139.336  76.565 222.719 -0.17 -0.01    +0.063 C  
DOCKED: BRANCH  21  24
DOCKED: ATOM     24  C   UNL     1     140.839  78.416 221.918 -0.35 +0.01    -0.025 A  
DOCKED: ATOM     25  C   UNL     1     141.232  79.347 220.988 -0.31 -0.00    +0.006 A  
DOCKED: ATOM     26  C   UNL     1     141.409  78.451 223.179 -0.55 -0.00    +0.006 A  
DOCKED: ATOM     27  C   UNL     1     142.195  80.301 221.335 -0.41 -0.00    +0.000 A  
DOCKED: ATOM     28  C   UNL     1     142.361  79.388 223.538 -0.59 -0.00    +0.000 A  
DOCKED: ATOM     29  C   UNL     1     142.754  80.319 222.605 -0.60 -0.00    +0.000 A  
DOCKED: ENDBRANCH  21  24
DOCKED: BRANCH  22  30
DOCKED: ATOM     30  O   UNL     1     139.211  74.201 222.351 -0.60 +0.09    -0.391 OA 
DOCKED: ATOM     31  H   UNL     1     139.569  74.256 223.271 -0.46 -0.02    +0.211 HD 
DOCKED: ENDBRANCH  22  30
DOCKED: ENDBRANCH  17  19
DOCKED: ENDBRANCH   1  17
DOCKED: TORSDOF 6
DOCKED: TER
DOCKED: ENDMDL
________________________________________________________________________________


    FINAL DOCKED STATE:
    ________________________


Run:   16 / 20
Time taken for this run:   0.042s

DOCKED: MODEL        16
DOCKED: USER    Run = 16
DOCKED: USER
DOCKED: USER    Estimated Free Energy of Binding    =  -8.30 kcal/mol  [=(1)+(2)+(3)-(4)]
DOCKED: USER
DOCKED: USER    (1) Final Intermolecular Energy     = -10.09 kcal/mol
DOCKED: USER        vdW + Hbond + desolv Energy     = -10.05 kcal/mol
DOCKED: USER        Electrostatic Energy            =  -0.04 kcal/mol
DOCKED: USER        Moving Ligand-Fixed Receptor    = -10.09 kcal/mol
DOCKED: USER        Moving Ligand-Moving Receptor   =  +0.00 kcal/mol
DOCKED: USER    (2) Final Total Internal Energy     =  -2.10 kcal/mol
DOCKED: USER    (3) Torsional Free Energy           =  +1.79 kcal/mol
DOCKED: USER    (4) Unbound System's Energy         =  -2.10 kcal/mol
DOCKED: USER
DOCKED: USER
DOCKED: REMARK SMILES O=C(NCC(=O)N1C[C@@H](O)C[C@H]1c1ccccc1)c1ccc2cc(Cl)ccc2n1
DOCKED: REMARK SMILES IDX 4 1 3 2 2 3 1 4 19 6 20 7 29 8 21 9 28 10 22 11 27 12 23 13
DOCKED: REMARK SMILES IDX 26 14 24 15 25 16 5 17 6 18 7 19 8 20 12 21 9 22 11 23 13 24
DOCKED: REMARK SMILES IDX 14 25 18 26 15 27 17 28 16 29 10 30
DOCKED: REMARK H PARENT 3 5 10 31
DOCKED: USER                              x       y       z     vdW  Elec       q    Type
DOCKED: USER                           _______ _______ _______ _____ _____    ______ ____
DOCKED: ROOT
DOCKED: ATOM      1  C   UNL     1     139.566  74.831 221.159 -0.17 -0.04    +0.216 C  
DOCKED: ENDROOT
DOCKED: BRANCH   1   2
DOCKED: ATOM      2  N   UNL     1     139.635  73.854 222.198 -0.12 +0.05    -0.342 N  
DOCKED: ATOM      3  C   UNL     1     139.804  72.480 221.893 -0.18 -0.04    +0.270 C  
DOCKED: ATOM      4  O   UNL     1     139.900  72.083 220.690 -0.06 +0.05    -0.268 OA 
DOCKED: ATOM      5  H   UNL     1     139.562  74.114 223.226 -0.50 -0.02    +0.164 HD 
DOCKED: BRANCH   3   6
DOCKED: ATOM      6  C   UNL     1     139.870  71.507 222.978 -0.28 -0.02    +0.128 A  
DOCKED: ATOM      7  C   UNL     1     139.428  70.213 222.801 -0.21 -0.01    +0.035 A  
DOCKED: ATOM      8  N   UNL     1     140.373  71.866 224.193 -0.28 +0.04    -0.243 NA 
DOCKED: ATOM      9  C   UNL     1     139.494  69.295 223.837 -0.24 -0.00    +0.013 A  
DOCKED: ATOM     10  C   UNL     1     140.450  71.001 225.215 -0.49 -0.01    +0.071 A  
DOCKED: ATOM     11  C   UNL     1     140.017  69.700 225.068 -0.41 -0.00    +0.002 A  
DOCKED: ATOM     12  C   UNL     1     140.975  71.441 226.424 -0.67 -0.00    +0.030 A  
DOCKED: ATOM     13  C   UNL     1     140.112  68.846 226.136 -0.52 -0.01    +0.030 A  
DOCKED: ATOM     14  C   UNL     1     141.079  70.596 227.510 -0.62 -0.00    +0.023 A  
DOCKED: ATOM     15  C   UNL     1     140.638  69.297 227.341 -0.57 -0.01    +0.041 A  
DOCKED: ATOM     16  Cl  UNL     1     140.778  68.233 228.734 -0.65 +0.02    -0.084 Cl 
DOCKED: ENDBRANCH   3   6
DOCKED: ENDBRANCH   1   2
DOCKED: BRANCH   1  17
DOCKED: ATOM     17  C   UNL     1     140.731  75.768 221.171 -0.22 -0.07    +0.242 C  
DOCKED: ATOM     18  O   UNL     1     141.121  76.151 222.299 -0.35 +0.09    -0.273 OA 
DOCKED: BRANCH  17  19
DOCKED: ATOM     19  N   UNL     1     141.296  76.144 219.934 -0.07 +0.13    -0.331 N  
DOCKED: ATOM     20  C   UNL     1     140.792  77.205 219.024 -0.09 -0.06    +0.152 C  
DOCKED: ATOM     21  C   UNL     1     142.468  75.663 219.223 -0.23 -0.05    +0.118 C  
DOCKED: ATOM     22  C   UNL     1     142.106  77.952 218.844 -0.24 -0.09    +0.136 C  
DOCKED: ATOM     23  C   UNL     1     143.230  76.954 219.141 -0.25 -0.05    +0.063 C  
DOCKED: BRANCH  21  24
DOCKED: ATOM     24  C   UNL     1     143.154  74.526 219.793 -0.31 +0.01    -0.025 A  
DOCKED: ATOM     25  C   UNL     1     144.438  74.641 220.268 -0.45 -0.00    +0.006 A  
DOCKED: ATOM     26  C   UNL     1     142.528  73.294 219.858 -0.20 -0.00    +0.006 A  
DOCKED: ATOM     27  C   UNL     1     145.077  73.517 220.802 -0.59 -0.00    +0.000 A  
DOCKED: ATOM     28  C   UNL     1     143.145  72.173 220.384 -0.27 -0.00    +0.000 A  
DOCKED: ATOM     29  C   UNL     1     144.430  72.291 220.859 -0.38 -0.00    +0.000 A  
DOCKED: ENDBRANCH  21  24
DOCKED: BRANCH  22  30
DOCKED: ATOM     30  O   UNL     1     142.096  78.940 219.857 -0.13 +0.27    -0.391 OA 
DOCKED: ATOM     31  H   UNL     1     142.611  78.641 220.646 -0.32 -0.20    +0.211 HD 
DOCKED: ENDBRANCH  22  30
DOCKED: ENDBRANCH  17  19
DOCKED: ENDBRANCH   1  17
DOCKED: TORSDOF 6
DOCKED: TER
DOCKED: ENDMDL
________________________________________________________________________________


    FINAL DOCKED STATE:
    ________________________


Run:   17 / 20
Time taken for this run:   0.042s

DOCKED: MODEL        17
DOCKED: USER    Run = 17
DOCKED: USER
DOCKED: USER    Estimated Free Energy of Binding    =  -7.66 kcal/mol  [=(1)+(2)+(3)-(4)]
DOCKED: USER
DOCKED: USER    (1) Final Intermolecular Energy     =  -9.45 kcal/mol
DOCKED: USER        vdW + Hbond + desolv Energy     =  -9.40 kcal/mol
DOCKED: USER        Electrostatic Energy            =  -0.06 kcal/mol
DOCKED: USER        Moving Ligand-Fixed Receptor    =  -9.45 kcal/mol
DOCKED: USER        Moving Ligand-Moving Receptor   =  +0.00 kcal/mol
DOCKED: USER    (2) Final Total Internal Energy     =  -3.45 kcal/mol
DOCKED: USER    (3) Torsional Free Energy           =  +1.79 kcal/mol
DOCKED: USER    (4) Unbound System's Energy         =  -3.45 kcal/mol
DOCKED: USER
DOCKED: USER
DOCKED: REMARK SMILES O=C(NCC(=O)N1C[C@@H](O)C[C@H]1c1ccccc1)c1ccc2cc(Cl)ccc2n1
DOCKED: REMARK SMILES IDX 4 1 3 2 2 3 1 4 19 6 20 7 29 8 21 9 28 10 22 11 27 12 23 13
DOCKED: REMARK SMILES IDX 26 14 24 15 25 16 5 17 6 18 7 19 8 20 12 21 9 22 11 23 13 24
DOCKED: REMARK SMILES IDX 14 25 18 26 15 27 17 28 16 29 10 30
DOCKED: REMARK H PARENT 3 5 10 31
DOCKED: USER                              x       y       z     vdW  Elec       q    Type
DOCKED: USER                           _______ _______ _______ _____ _____    ______ ____
DOCKED: ROOT
DOCKED: ATOM      1  C   UNL     1     137.344  68.487 223.257 -0.06 -0.02    +0.216 C  
DOCKED: ENDROOT
DOCKED: BRANCH   1   2
DOCKED: ATOM      2  N   UNL     1     136.710  69.684 223.708 -0.08 +0.04    -0.342 N  
DOCKED: ATOM      3  C   UNL     1     135.638  69.634 224.635 -0.14 -0.02    +0.270 C  
DOCKED: ATOM      4  O   UNL     1     135.216  68.525 225.089 -0.54 -0.01    -0.268 OA 
DOCKED: ATOM      5  H   UNL     1     137.011  70.646 223.371 +0.04 -0.03    +0.164 HD 
DOCKED: BRANCH   3   6
DOCKED: ATOM      6  C   UNL     1     135.011  70.875 225.076 -0.14 -0.01    +0.128 A  
DOCKED: ATOM      7  C   UNL     1     133.945  70.862 225.950 -0.30 -0.00    +0.035 A  
DOCKED: ATOM      8  N   UNL     1     135.474  72.076 224.625 -0.10 +0.03    -0.243 NA 
DOCKED: ATOM      9  C   UNL     1     133.354  72.046 226.362 -0.36 -0.00    +0.013 A  
DOCKED: ATOM     10  C   UNL     1     134.924  73.238 225.006 -0.21 -0.01    +0.071 A  
DOCKED: ATOM     11  C   UNL     1     133.857  73.257 225.879 -0.32 +0.00    +0.002 A  
DOCKED: ATOM     12  C   UNL     1     135.450  74.422 224.504 -0.30 -0.01    +0.030 A  
DOCKED: ATOM     13  C   UNL     1     133.323  74.466 226.245 -0.33 +0.00    +0.030 A  
DOCKED: ATOM     14  C   UNL     1     134.926  75.647 224.860 -0.34 -0.00    +0.023 A  
DOCKED: ATOM     15  C   UNL     1     133.857  75.644 225.736 -0.32 -0.00    +0.041 A  
DOCKED: ATOM     16  Cl  UNL     1     133.201  77.213 226.181 -0.33 +0.01    -0.084 Cl 
DOCKED: ENDBRANCH   3   6
DOCKED: ENDBRANCH   1   2
DOCKED: BRANCH   1  17
DOCKED: ATOM     17  C   UNL     1     138.762  68.377 223.720 -0.19 -0.03    +0.242 C  
DOCKED: ATOM     18  O   UNL     1     139.146  67.234 224.060 -0.59 +0.01    -0.273 OA 
DOCKED: BRANCH  17  19
DOCKED: ATOM     19  N   UNL     1     139.549  69.548 223.738 -0.09 +0.06    -0.331 N  
DOCKED: ATOM     20  C   UNL     1     139.782  70.469 222.595 -0.13 -0.03    +0.152 C  
DOCKED: ATOM     21  C   UNL     1     140.308  70.185 224.802 -0.34 -0.02    +0.118 C  
DOCKED: ATOM     22  C   UNL     1     139.421  71.764 223.307 -0.21 -0.03    +0.136 C  
DOCKED: ATOM     23  C   UNL     1     139.617  71.517 224.807 -0.23 -0.01    +0.063 C  
DOCKED: BRANCH  21  24
DOCKED: ATOM     24  C   UNL     1     140.386  69.476 226.059 -0.49 +0.00    -0.025 A  
DOCKED: ATOM     25  C   UNL     1     141.093  68.304 226.167 -0.55 -0.00    +0.006 A  
DOCKED: ATOM     26  C   UNL     1     139.735  69.966 227.178 -0.53 -0.00    +0.006 A  
DOCKED: ATOM     27  C   UNL     1     141.137  67.638 227.395 -0.50 -0.00    +0.000 A  
DOCKED: ATOM     28  C   UNL     1     139.769  69.321 228.400 -0.61 -0.00    +0.000 A  
DOCKED: ATOM     29  C   UNL     1     140.477  68.147 228.505 -0.60 -0.00    +0.000 A  
DOCKED: ENDBRANCH  21  24
DOCKED: BRANCH  22  30
DOCKED: ATOM     30  O   UNL     1     138.041  71.939 223.052 -0.10 +0.13    -0.391 OA 
DOCKED: ATOM     31  H   UNL     1     137.571  72.263 223.860 -0.43 -0.10    +0.211 HD 
DOCKED: ENDBRANCH  22  30
DOCKED: ENDBRANCH  17  19
DOCKED: ENDBRANCH   1  17
DOCKED: TORSDOF 6
DOCKED: TER
DOCKED: ENDMDL
________________________________________________________________________________


    FINAL DOCKED STATE:
    ________________________


Run:   18 / 20
Time taken for this run:   0.042s

DOCKED: MODEL        18
DOCKED: USER    Run = 18
DOCKED: USER
DOCKED: USER    Estimated Free Energy of Binding    =  -8.32 kcal/mol  [=(1)+(2)+(3)-(4)]
DOCKED: USER
DOCKED: USER    (1) Final Intermolecular Energy     = -10.11 kcal/mol
DOCKED: USER        vdW + Hbond + desolv Energy     = -10.07 kcal/mol
DOCKED: USER        Electrostatic Energy            =  -0.05 kcal/mol
DOCKED: USER        Moving Ligand-Fixed Receptor    = -10.11 kcal/mol
DOCKED: USER        Moving Ligand-Moving Receptor   =  +0.00 kcal/mol
DOCKED: USER    (2) Final Total Internal Energy     =  -2.10 kcal/mol
DOCKED: USER    (3) Torsional Free Energy           =  +1.79 kcal/mol
DOCKED: USER    (4) Unbound System's Energy         =  -2.10 kcal/mol
DOCKED: USER
DOCKED: USER
DOCKED: REMARK SMILES O=C(NCC(=O)N1C[C@@H](O)C[C@H]1c1ccccc1)c1ccc2cc(Cl)ccc2n1
DOCKED: REMARK SMILES IDX 4 1 3 2 2 3 1 4 19 6 20 7 29 8 21 9 28 10 22 11 27 12 23 13
DOCKED: REMARK SMILES IDX 26 14 24 15 25 16 5 17 6 18 7 19 8 20 12 21 9 22 11 23 13 24
DOCKED: REMARK SMILES IDX 14 25 18 26 15 27 17 28 16 29 10 30
DOCKED: REMARK H PARENT 3 5 10 31
DOCKED: USER                              x       y       z     vdW  Elec       q    Type
DOCKED: USER                           _______ _______ _______ _____ _____    ______ ____
DOCKED: ROOT
DOCKED: ATOM      1  C   UNL     1     139.573  74.842 221.126 -0.17 -0.04    +0.216 C  
DOCKED: ENDROOT
DOCKED: BRANCH   1   2
DOCKED: ATOM      2  N   UNL     1     139.637  73.867 222.168 -0.13 +0.05    -0.342 N  
DOCKED: ATOM      3  C   UNL     1     139.794  72.490 221.866 -0.18 -0.05    +0.270 C  
DOCKED: ATOM      4  O   UNL     1     139.883  72.089 220.664 -0.06 +0.05    -0.268 OA 
DOCKED: ATOM      5  H   UNL     1     139.569  74.130 223.195 -0.51 -0.02    +0.164 HD 
DOCKED: BRANCH   3   6
DOCKED: ATOM      6  C   UNL     1     139.855  71.520 222.954 -0.28 -0.02    +0.128 A  
DOCKED: ATOM      7  C   UNL     1     139.400  70.230 222.781 -0.21 -0.01    +0.035 A  
DOCKED: ATOM      8  N   UNL     1     140.366  71.877 224.166 -0.28 +0.04    -0.243 NA 
DOCKED: ATOM      9  C   UNL     1     139.460  69.314 223.820 -0.24 -0.00    +0.013 A  
DOCKED: ATOM     10  C   UNL     1     140.438  71.014 225.190 -0.49 -0.01    +0.071 A  
DOCKED: ATOM     11  C   UNL     1     139.992  69.718 225.048 -0.41 -0.00    +0.002 A  
DOCKED: ATOM     12  C   UNL     1     140.972  71.452 226.395 -0.67 -0.00    +0.030 A  
DOCKED: ATOM     13  C   UNL     1     140.083  68.865 226.118 -0.51 -0.01    +0.030 A  
DOCKED: ATOM     14  C   UNL     1     141.072  70.610 227.483 -0.62 -0.00    +0.023 A  
DOCKED: ATOM     15  C   UNL     1     140.618  69.314 227.319 -0.57 -0.01    +0.041 A  
DOCKED: ATOM     16  Cl  UNL     1     140.753  68.253 228.715 -0.66 +0.02    -0.084 Cl 
DOCKED: ENDBRANCH   3   6
DOCKED: ENDBRANCH   1   2
DOCKED: BRANCH   1  17
DOCKED: ATOM     17  C   UNL     1     140.727  75.793 221.157 -0.22 -0.07    +0.242 C  
DOCKED: ATOM     18  O   UNL     1     141.099  76.173 222.292 -0.36 +0.09    -0.273 OA 
DOCKED: BRANCH  17  19
DOCKED: ATOM     19  N   UNL     1     141.300  76.185 219.929 -0.07 +0.13    -0.331 N  
DOCKED: ATOM     20  C   UNL     1     140.816  77.273 219.040 -0.09 -0.06    +0.152 C  
DOCKED: ATOM     21  C   UNL     1     142.465  75.698 219.209 -0.23 -0.05    +0.118 C  
DOCKED: ATOM     22  C   UNL     1     142.142  78.001 218.877 -0.24 -0.09    +0.136 C  
DOCKED: ATOM     23  C   UNL     1     143.248  76.977 219.155 -0.23 -0.05    +0.063 C  
DOCKED: BRANCH  21  24
DOCKED: ATOM     24  C   UNL     1     143.131  74.538 219.757 -0.31 +0.01    -0.025 A  
DOCKED: ATOM     25  C   UNL     1     142.498  73.320 219.809 -0.20 -0.00    +0.006 A  
DOCKED: ATOM     26  C   UNL     1     144.419  74.642 220.251 -0.45 -0.00    +0.006 A  
DOCKED: ATOM     27  C   UNL     1     143.168  72.221 220.358 -0.27 -0.00    +0.000 A  
DOCKED: ATOM     28  C   UNL     1     145.095  73.565 220.795 -0.59 -0.00    +0.000 A  
DOCKED: ATOM     29  C   UNL     1     144.460  72.346 220.847 -0.39 -0.00    +0.000 A  
DOCKED: ENDBRANCH  21  24
DOCKED: BRANCH  22  30
DOCKED: ATOM     30  O   UNL     1     142.148  78.967 219.910 -0.12 +0.27    -0.391 OA 
DOCKED: ATOM     31  H   UNL     1     142.693  78.662 220.676 -0.32 -0.21    +0.211 HD 
DOCKED: ENDBRANCH  22  30
DOCKED: ENDBRANCH  17  19
DOCKED: ENDBRANCH   1  17
DOCKED: TORSDOF 6
DOCKED: TER
DOCKED: ENDMDL
________________________________________________________________________________


    FINAL DOCKED STATE:
    ________________________


Run:   19 / 20
Time taken for this run:   0.042s

DOCKED: MODEL        19
DOCKED: USER    Run = 19
DOCKED: USER
DOCKED: USER    Estimated Free Energy of Binding    =  -8.33 kcal/mol  [=(1)+(2)+(3)-(4)]
DOCKED: USER
DOCKED: USER    (1) Final Intermolecular Energy     = -10.12 kcal/mol
DOCKED: USER        vdW + Hbond + desolv Energy     = -10.07 kcal/mol
DOCKED: USER        Electrostatic Energy            =  -0.05 kcal/mol
DOCKED: USER        Moving Ligand-Fixed Receptor    = -10.12 kcal/mol
DOCKED: USER        Moving Ligand-Moving Receptor   =  +0.00 kcal/mol
DOCKED: USER    (2) Final Total Internal Energy     =  -2.10 kcal/mol
DOCKED: USER    (3) Torsional Free Energy           =  +1.79 kcal/mol
DOCKED: USER    (4) Unbound System's Energy         =  -2.10 kcal/mol
DOCKED: USER
DOCKED: USER
DOCKED: REMARK SMILES O=C(NCC(=O)N1C[C@@H](O)C[C@H]1c1ccccc1)c1ccc2cc(Cl)ccc2n1
DOCKED: REMARK SMILES IDX 4 1 3 2 2 3 1 4 19 6 20 7 29 8 21 9 28 10 22 11 27 12 23 13
DOCKED: REMARK SMILES IDX 26 14 24 15 25 16 5 17 6 18 7 19 8 20 12 21 9 22 11 23 13 24
DOCKED: REMARK SMILES IDX 14 25 18 26 15 27 17 28 16 29 10 30
DOCKED: REMARK H PARENT 3 5 10 31
DOCKED: USER                              x       y       z     vdW  Elec       q    Type
DOCKED: USER                           _______ _______ _______ _____ _____    ______ ____
DOCKED: ROOT
DOCKED: ATOM      1  C   UNL     1     139.574  74.832 221.129 -0.17 -0.04    +0.216 C  
DOCKED: ENDROOT
DOCKED: BRANCH   1   2
DOCKED: ATOM      2  N   UNL     1     139.636  73.859 222.172 -0.13 +0.05    -0.342 N  
DOCKED: ATOM      3  C   UNL     1     139.776  72.480 221.873 -0.18 -0.05    +0.270 C  
DOCKED: ATOM      4  O   UNL     1     139.853  72.075 220.671 -0.06 +0.05    -0.268 OA 
DOCKED: ATOM      5  H   UNL     1     139.578  74.125 223.200 -0.50 -0.01    +0.164 HD 
DOCKED: BRANCH   3   6
DOCKED: ATOM      6  C   UNL     1     139.836  71.511 222.962 -0.28 -0.02    +0.128 A  
DOCKED: ATOM      7  C   UNL     1     139.370  70.225 222.795 -0.21 -0.01    +0.035 A  
DOCKED: ATOM      8  N   UNL     1     140.357  71.867 224.171 -0.28 +0.04    -0.243 NA 
DOCKED: ATOM      9  C   UNL     1     139.429  69.311 223.836 -0.25 -0.00    +0.013 A  
DOCKED: ATOM     10  C   UNL     1     140.428  71.006 225.196 -0.49 -0.01    +0.071 A  
DOCKED: ATOM     11  C   UNL     1     139.971  69.713 225.060 -0.41 -0.00    +0.002 A  
DOCKED: ATOM     12  C   UNL     1     140.973  71.442 226.397 -0.67 -0.00    +0.030 A  
DOCKED: ATOM     13  C   UNL     1     140.061  68.862 226.131 -0.51 -0.01    +0.030 A  
DOCKED: ATOM     14  C   UNL     1     141.072  70.601 227.487 -0.62 -0.00    +0.023 A  
DOCKED: ATOM     15  C   UNL     1     140.607  69.309 227.328 -0.57 -0.01    +0.041 A  
DOCKED: ATOM     16  Cl  UNL     1     140.741  68.250 228.725 -0.65 +0.02    -0.084 Cl 
DOCKED: ENDBRANCH   3   6
DOCKED: ENDBRANCH   1   2
DOCKED: BRANCH   1  17
DOCKED: ATOM     17  C   UNL     1     140.726  75.784 221.162 -0.22 -0.07    +0.242 C  
DOCKED: ATOM     18  O   UNL     1     141.094  76.168 222.297 -0.36 +0.09    -0.273 OA 
DOCKED: BRANCH  17  19
DOCKED: ATOM     19  N   UNL     1     141.304  76.174 219.935 -0.07 +0.13    -0.331 N  
DOCKED: ATOM     20  C   UNL     1     140.824  77.262 219.044 -0.09 -0.06    +0.152 C  
DOCKED: ATOM     21  C   UNL     1     142.469  75.683 219.218 -0.23 -0.05    +0.118 C  
DOCKED: ATOM     22  C   UNL     1     142.153  77.986 218.884 -0.24 -0.09    +0.136 C  
DOCKED: ATOM     23  C   UNL     1     143.256  76.960 219.165 -0.23 -0.05    +0.063 C  
DOCKED: BRANCH  21  24
DOCKED: ATOM     24  C   UNL     1     143.130  74.522 219.769 -0.31 +0.01    -0.025 A  
DOCKED: ATOM     25  C   UNL     1     142.486  73.311 219.842 -0.20 -0.00    +0.006 A  
DOCKED: ATOM     26  C   UNL     1     144.427  74.617 220.244 -0.45 -0.00    +0.006 A  
DOCKED: ATOM     27  C   UNL     1     143.152  72.211 220.393 -0.27 -0.00    +0.000 A  
DOCKED: ATOM     28  C   UNL     1     145.099  73.539 220.790 -0.59 -0.00    +0.000 A  
DOCKED: ATOM     29  C   UNL     1     144.452  72.327 220.863 -0.38 -0.00    +0.000 A  
DOCKED: ENDBRANCH  21  24
DOCKED: BRANCH  22  30
DOCKED: ATOM     30  O   UNL     1     142.159  78.954 219.915 -0.12 +0.27    -0.391 OA 
DOCKED: ATOM     31  H   UNL     1     142.730  78.663 220.669 -0.32 -0.21    +0.211 HD 
DOCKED: ENDBRANCH  22  30
DOCKED: ENDBRANCH  17  19
DOCKED: ENDBRANCH   1  17
DOCKED: TORSDOF 6
DOCKED: TER
DOCKED: ENDMDL
________________________________________________________________________________


    FINAL DOCKED STATE:
    ________________________


Run:   20 / 20
Time taken for this run:   0.042s

DOCKED: MODEL        20
DOCKED: USER    Run = 20
DOCKED: USER
DOCKED: USER    Estimated Free Energy of Binding    =  -7.76 kcal/mol  [=(1)+(2)+(3)-(4)]
DOCKED: USER
DOCKED: USER    (1) Final Intermolecular Energy     =  -9.55 kcal/mol
DOCKED: USER        vdW + Hbond + desolv Energy     =  -9.49 kcal/mol
DOCKED: USER        Electrostatic Energy            =  -0.06 kcal/mol
DOCKED: USER        Moving Ligand-Fixed Receptor    =  -9.55 kcal/mol
DOCKED: USER        Moving Ligand-Moving Receptor   =  +0.00 kcal/mol
DOCKED: USER    (2) Final Total Internal Energy     =  -3.38 kcal/mol
DOCKED: USER    (3) Torsional Free Energy           =  +1.79 kcal/mol
DOCKED: USER    (4) Unbound System's Energy         =  -3.38 kcal/mol
DOCKED: USER
DOCKED: USER
DOCKED: REMARK SMILES O=C(NCC(=O)N1C[C@@H](O)C[C@H]1c1ccccc1)c1ccc2cc(Cl)ccc2n1
DOCKED: REMARK SMILES IDX 4 1 3 2 2 3 1 4 19 6 20 7 29 8 21 9 28 10 22 11 27 12 23 13
DOCKED: REMARK SMILES IDX 26 14 24 15 25 16 5 17 6 18 7 19 8 20 12 21 9 22 11 23 13 24
DOCKED: REMARK SMILES IDX 14 25 18 26 15 27 17 28 16 29 10 30
DOCKED: REMARK H PARENT 3 5 10 31
DOCKED: USER                              x       y       z     vdW  Elec       q    Type
DOCKED: USER                           _______ _______ _______ _____ _____    ______ ____
DOCKED: ROOT
DOCKED: ATOM      1  C   UNL     1     137.369  68.472 223.371 -0.03 -0.02    +0.216 C  
DOCKED: ENDROOT
DOCKED: BRANCH   1   2
DOCKED: ATOM      2  N   UNL     1     136.739  69.672 223.818 -0.08 +0.04    -0.342 N  
DOCKED: ATOM      3  C   UNL     1     135.586  69.624 224.643 -0.14 -0.02    +0.270 C  
DOCKED: ATOM      4  O   UNL     1     135.087  68.514 225.007 -0.60 -0.01    -0.268 OA 
DOCKED: ATOM      5  H   UNL     1     137.101  70.636 223.553 +0.05 -0.03    +0.164 HD 
DOCKED: BRANCH   3   6
DOCKED: ATOM      6  C   UNL     1     134.966  70.869 225.083 -0.14 -0.01    +0.128 A  
DOCKED: ATOM      7  C   UNL     1     133.905  70.862 225.964 -0.30 -0.00    +0.035 A  
DOCKED: ATOM      8  N   UNL     1     135.428  72.067 224.624 -0.10 +0.03    -0.243 NA 
DOCKED: ATOM      9  C   UNL     1     133.320  72.050 226.375 -0.36 -0.00    +0.013 A  
DOCKED: ATOM     10  C   UNL     1     134.883  73.232 225.004 -0.22 -0.01    +0.071 A  
DOCKED: ATOM     11  C   UNL     1     133.823  73.258 225.884 -0.32 -0.00    +0.002 A  
DOCKED: ATOM     12  C   UNL     1     135.410  74.412 224.494 -0.30 -0.01    +0.030 A  
DOCKED: ATOM     13  C   UNL     1     133.294  74.469 226.248 -0.33 +0.00    +0.030 A  
DOCKED: ATOM     14  C   UNL     1     134.891  75.641 224.848 -0.33 -0.00    +0.023 A  
DOCKED: ATOM     15  C   UNL     1     133.828  75.643 225.731 -0.32 -0.00    +0.041 A  
DOCKED: ATOM     16  Cl  UNL     1     133.178  77.216 226.173 -0.32 +0.01    -0.084 Cl 
DOCKED: ENDBRANCH   3   6
DOCKED: ENDBRANCH   1   2
DOCKED: BRANCH   1  17
DOCKED: ATOM     17  C   UNL     1     138.792  68.369 223.818 -0.19 -0.03    +0.242 C  
DOCKED: ATOM     18  O   UNL     1     139.185  67.228 224.156 -0.64 +0.00    -0.273 OA 
DOCKED: BRANCH  17  19
DOCKED: ATOM     19  N   UNL     1     139.575  69.543 223.825 -0.09 +0.06    -0.331 N  
DOCKED: ATOM     20  C   UNL     1     139.826  70.439 222.666 -0.12 -0.03    +0.152 C  
DOCKED: ATOM     21  C   UNL     1     140.311  70.205 224.889 -0.36 -0.02    +0.118 C  
DOCKED: ATOM     22  C   UNL     1     139.448  71.748 223.343 -0.22 -0.03    +0.136 C  
DOCKED: ATOM     23  C   UNL     1     139.616  71.535 224.851 -0.17 -0.02    +0.063 C  
DOCKED: BRANCH  21  24
DOCKED: ATOM     24  C   UNL     1     140.368  69.525 226.162 -0.50 +0.00    -0.025 A  
DOCKED: ATOM     25  C   UNL     1     141.157  68.413 226.336 -0.57 -0.00    +0.006 A  
DOCKED: ATOM     26  C   UNL     1     139.614  69.980 227.230 -0.51 -0.00    +0.006 A  
DOCKED: ATOM     27  C   UNL     1     141.177  67.772 227.578 -0.57 -0.00    +0.000 A  
DOCKED: ATOM     28  C   UNL     1     139.624  69.358 228.465 -0.59 -0.00    +0.000 A  
DOCKED: ATOM     29  C   UNL     1     140.414  68.245 228.636 -0.58 -0.00    +0.000 A  
DOCKED: ENDBRANCH  21  24
DOCKED: BRANCH  22  30
DOCKED: ATOM     30  O   UNL     1     138.072  71.912 223.058 -0.10 +0.13    -0.391 OA 
DOCKED: ATOM     31  H   UNL     1     137.588  72.264 223.845 -0.43 -0.10    +0.211 HD 
DOCKED: ENDBRANCH  22  30
DOCKED: ENDBRANCH  17  19
DOCKED: ENDBRANCH   1  17
DOCKED: TORSDOF 6
DOCKED: TER
DOCKED: ENDMDL
________________________________________________________________________________


    CLUSTERING HISTOGRAM
    ____________________


________________________________________________________________________________
     |           |     |           |     |
Clus | Lowest    | Run | Mean      | Num | Histogram
-ter | Binding   |     | Binding   | in  |
Rank | Energy    |     | Energy    | Clus|    5    10   15   20   25   30   35
_____|___________|_____|___________|_____|____:____|____:____|____:____|____:___
   1 |     -8.33 |   1 |     -8.32 |   5 |#####
   2 |     -7.89 |   7 |     -7.80 |   3 |###
   3 |     -7.80 |  13 |     -7.77 |   3 |###
   4 |     -7.76 |  20 |     -7.69 |   8 |########
   5 |     -6.01 |   4 |     -6.01 |   1 |#
_____|___________|_____|___________|_____|______________________________________


    RMSD TABLE
    __________


_______________________________________________________________________
     |      |      |           |         |                 |
Rank | Sub- | Run  | Binding   | Cluster | Reference       | Grep
     | Rank |      | Energy    | RMSD    | RMSD            | Pattern
_____|______|______|___________|_________|_________________|___________
   1      1      1       -8.33      0.00    270.77           RANKING
   1      2     19       -8.33      0.02    270.76           RANKING
   1      3     14       -8.33      0.04    270.75           RANKING
   1      4     18       -8.32      0.01    270.76           RANKING
   1      5     16       -8.30      0.05    270.77           RANKING
   2      1      7       -7.89      0.00    271.08           RANKING
   2      2     15       -7.78      0.16    271.04           RANKING
   2      3     11       -7.72      0.22    270.99           RANKING
   3      1     13       -7.80      0.00    270.60           RANKING
   3      2     12       -7.78      0.08    270.60           RANKING
   3      3      2       -7.71      0.14    270.61           RANKING
   4      1     20       -7.76      0.00    270.47           RANKING
   4      2     10       -7.73      0.11    270.49           RANKING
   4      3      8       -7.72      0.13    270.44           RANKING
   4      4      5       -7.71      0.13    270.42           RANKING
   4      5      6       -7.67      0.11    270.44           RANKING
   4      6     17       -7.66      0.11    270.43           RANKING
   4      7      3       -7.66      0.13    270.48           RANKING
   4      8      9       -7.62      0.12    270.43           RANKING
   5      1      4       -6.01      0.00    271.16           RANKING

Run time 0.801 sec
Idle time 0.000 sec
