AutoDock-GPU version: v1.6

**********************************************************
**    AutoDock-GPU AUTODOCKTOOLS-COMPATIBLE DLG FILE    **
**********************************************************


    DOCKING PARAMETERS
    ________________________


Ligand file:                               /home/a/REINVENT4/ReinventStudies/pleaseWork/justmol2mol_4_Compounds_ontop/graph-dock-hn62wh/graph-DockGPU/node-autodockgpu/inputs/USCGAPNBPGIJTB-NBVVHLFCNA-N.pdbqt
Grid fld file:                             /home/a/REINVENT4/ReinventStudies/mols/Rad51/maps/rad51_receptor.maps.fld

Random seed:                               42
Number of runs:                            20
Number of energy evaluations:              1132076
Number of generations:                     42000
Size of population:                        150
Rate of crossover:                         80.000000%
Tournament selection probability limit:    60.000000%
Rate of mutation:                          2.000000%
Maximal allowed delta movement:            +/- 6.000000A
Maximal allowed delta angle:               +/- 90.000000

Rate of local search:                      100.000000%
Maximal number of local search iterations: 300
Rho lower bound:                           0.010000
Spread of local search delta movement:     2.000000A
Spread of local search delta angle:        74.999999
Limit of consecutive successes/failures:   4

Handle symmetry during clustering:         YES
RMSD tolerance:                            2.000000A

Program call in command line was:          /home/a/REINVENT4/ReinventStudies/adgpu-v1.6_linux_x64_cuda12_128wi --filelist batch.txt --heuristics 1 --nrun 20 --psize 150 --lsit 300 --seed 42 --heurmax 12000000 


    GRID PARAMETERS
    ________________________


Receptor name:                             rad51_receptor
Number of grid points (x, y, z):           53, 53, 53
Grid center (x, y, z):                     139.950000, 75.640000, 221.970000A
Grid size (x, y, z):                       19.500000, 19.500000, 19.500000A
Grid spacing:                              0.375000A


    LIGAND PARAMETERS
    ________________________


Ligand name:                               /home/a/REINVENT4/ReinventStudies/pleaseWork/justmol2mol_4_Compounds_ontop/graph-dock-hn62wh/graph-DockGPU/node-autodockgpu/inputs/USCGAPNBPGIJTB-NBVVHLFCNA-N
Number of atoms:                           30
Number of rotatable bonds:                 5
Number of atom types:                      8


    DUMMY DATA (only for ADT-compatibility)
    ________________________


DPF> outlev 1
DPF> ga_run 20
DPF> fld /home/a/REINVENT4/ReinventStudies/mols/Rad51/maps/rad51_receptor.maps.fld
DPF> move /home/a/REINVENT4/ReinventStudies/pleaseWork/justmol2mol_4_Compounds_ontop/graph-dock-hn62wh/graph-DockGPU/node-autodockgpu/inputs/USCGAPNBPGIJTB-NBVVHLFCNA-N.pdbqt


    COUNTER STATES
    ________________________


Number of energy evaluations performed:    694027
Number of generations used:                45


    INPUT LIGAND PDBQT FILE:
    ________________________


INPUT-LIGAND-PDBQT: REMARK SMILES O=C(NCC(=O)N1CC[C@H](c2ccc(Cl)cc2)C1)c1ccc2cc(F)ccc2n1
INPUT-LIGAND-PDBQT: REMARK SMILES IDX 4 1 3 2 2 3 1 4 19 6 20 7 29 8 21 9 28 10 22 11 27 12 23 13
INPUT-LIGAND-PDBQT: REMARK SMILES IDX 26 14 24 15 25 16 5 17 6 18 7 19 8 20 18 21 9 22 10 23 11 24
INPUT-LIGAND-PDBQT: REMARK SMILES IDX 12 25 17 26 13 27 16 28 14 29 15 30
INPUT-LIGAND-PDBQT: REMARK H PARENT 3 5
INPUT-LIGAND-PDBQT: ROOT
INPUT-LIGAND-PDBQT: ATOM      1  C   UNL     1      -0.127  -0.600   0.884  1.00  0.00     0.216 C 
INPUT-LIGAND-PDBQT: ENDROOT
INPUT-LIGAND-PDBQT: BRANCH   1   2
INPUT-LIGAND-PDBQT: ATOM      2  N   UNL     1      -1.566  -0.507   0.718  1.00  0.00    -0.342 N 
INPUT-LIGAND-PDBQT: ATOM      3  C   UNL     1      -2.082   0.491  -0.155  1.00  0.00     0.270 C 
INPUT-LIGAND-PDBQT: ATOM      4  O   UNL     1      -1.335   1.296  -0.790  1.00  0.00    -0.268 OA
INPUT-LIGAND-PDBQT: ATOM      5  H   UNL     1      -2.176  -1.175   1.245  1.00  0.00     0.164 HD
INPUT-LIGAND-PDBQT: BRANCH   3   6
INPUT-LIGAND-PDBQT: ATOM      6  C   UNL     1      -3.545   0.565  -0.307  1.00  0.00     0.128 A 
INPUT-LIGAND-PDBQT: ATOM      7  C   UNL     1      -4.082   1.523  -1.148  1.00  0.00     0.035 A 
INPUT-LIGAND-PDBQT: ATOM      8  N   UNL     1      -4.374  -0.272   0.350  1.00  0.00    -0.243 NA
INPUT-LIGAND-PDBQT: ATOM      9  C   UNL     1      -5.435   1.672  -1.355  1.00  0.00     0.013 A 
INPUT-LIGAND-PDBQT: ATOM     10  C   UNL     1      -5.720  -0.163   0.176  1.00  0.00     0.071 A 
INPUT-LIGAND-PDBQT: ATOM     11  C   UNL     1      -6.268   0.793  -0.664  1.00  0.00     0.003 A 
INPUT-LIGAND-PDBQT: ATOM     12  C   UNL     1      -6.582  -1.011   0.839  1.00  0.00     0.032 A 
INPUT-LIGAND-PDBQT: ATOM     13  C   UNL     1      -7.626   0.928  -0.861  1.00  0.00     0.049 A 
INPUT-LIGAND-PDBQT: ATOM     14  C   UNL     1      -7.960  -0.896   0.658  1.00  0.00     0.041 A 
INPUT-LIGAND-PDBQT: ATOM     15  C   UNL     1      -8.482   0.071  -0.190  1.00  0.00     0.123 A 
INPUT-LIGAND-PDBQT: ATOM     16  F   UNL     1      -9.828   0.173  -0.357  1.00  0.00    -0.207 F 
INPUT-LIGAND-PDBQT: ENDBRANCH   3   6
INPUT-LIGAND-PDBQT: ENDBRANCH   1   2
INPUT-LIGAND-PDBQT: BRANCH   1  17
INPUT-LIGAND-PDBQT: ATOM     17  C   UNL     1       0.447  -0.880  -0.459  1.00  0.00     0.241 C 
INPUT-LIGAND-PDBQT: ATOM     18  O   UNL     1      -0.249  -1.000  -1.498  1.00  0.00    -0.273 OA
INPUT-LIGAND-PDBQT: BRANCH  17  19
INPUT-LIGAND-PDBQT: ATOM     19  N   UNL     1       1.857  -1.022  -0.590  1.00  0.00    -0.341 N 
INPUT-LIGAND-PDBQT: ATOM     20  C   UNL     1       2.601  -1.294  -1.805  1.00  0.00     0.120 C 
INPUT-LIGAND-PDBQT: ATOM     21  C   UNL     1       2.869  -0.927   0.456  1.00  0.00     0.128 C 
INPUT-LIGAND-PDBQT: ATOM     22  C   UNL     1       3.994  -0.696  -1.571  1.00  0.00     0.032 C 
INPUT-LIGAND-PDBQT: ATOM     23  C   UNL     1       3.829   0.020  -0.257  1.00  0.00     0.040 C 
INPUT-LIGAND-PDBQT: BRANCH  23  24
INPUT-LIGAND-PDBQT: ATOM     24  C   UNL     1       5.055   0.294   0.471  1.00  0.00    -0.043 A 
INPUT-LIGAND-PDBQT: ATOM     25  C   UNL     1       5.350   1.616   0.793  1.00  0.00     0.005 A 
INPUT-LIGAND-PDBQT: ATOM     26  C   UNL     1       5.889  -0.720   0.827  1.00  0.00     0.005 A 
INPUT-LIGAND-PDBQT: ATOM     27  C   UNL     1       6.497   1.933   1.482  1.00  0.00     0.021 A 
INPUT-LIGAND-PDBQT: ATOM     28  C   UNL     1       7.050  -0.415   1.522  1.00  0.00     0.021 A 
INPUT-LIGAND-PDBQT: ATOM     29  C   UNL     1       7.347   0.896   1.844  1.00  0.00     0.041 A 
INPUT-LIGAND-PDBQT: ATOM     30  Cl  UNL     1       8.816   1.291   2.725  1.00  0.00    -0.084 Cl
INPUT-LIGAND-PDBQT: ENDBRANCH  23  24
INPUT-LIGAND-PDBQT: ENDBRANCH  17  19
INPUT-LIGAND-PDBQT: ENDBRANCH   1  17
INPUT-LIGAND-PDBQT: TORSDOF 5


    FINAL DOCKED STATE:
    ________________________


Run:   1 / 20
Time taken for this run:   0.030s

DOCKED: MODEL        1
DOCKED: USER    Run = 1
DOCKED: USER
DOCKED: USER    Estimated Free Energy of Binding    =  -8.36 kcal/mol  [=(1)+(2)+(3)-(4)]
DOCKED: USER
DOCKED: USER    (1) Final Intermolecular Energy     =  -9.85 kcal/mol
DOCKED: USER        vdW + Hbond + desolv Energy     =  -9.79 kcal/mol
DOCKED: USER        Electrostatic Energy            =  -0.07 kcal/mol
DOCKED: USER        Moving Ligand-Fixed Receptor    =  -9.85 kcal/mol
DOCKED: USER        Moving Ligand-Moving Receptor   =  +0.00 kcal/mol
DOCKED: USER    (2) Final Total Internal Energy     =  -1.42 kcal/mol
DOCKED: USER    (3) Torsional Free Energy           =  +1.49 kcal/mol
DOCKED: USER    (4) Unbound System's Energy         =  -1.42 kcal/mol
DOCKED: USER
DOCKED: USER
DOCKED: REMARK SMILES O=C(NCC(=O)N1CC[C@H](c2ccc(Cl)cc2)C1)c1ccc2cc(F)ccc2n1
DOCKED: REMARK SMILES IDX 4 1 3 2 2 3 1 4 19 6 20 7 29 8 21 9 28 10 22 11 27 12 23 13
DOCKED: REMARK SMILES IDX 26 14 24 15 25 16 5 17 6 18 7 19 8 20 18 21 9 22 10 23 11 24
DOCKED: REMARK SMILES IDX 12 25 17 26 13 27 16 28 14 29 15 30
DOCKED: REMARK H PARENT 3 5
DOCKED: USER                              x       y       z     vdW  Elec       q    Type
DOCKED: USER                           _______ _______ _______ _____ _____    ______ ____
DOCKED: ROOT
DOCKED: ATOM      1  C   UNL     1     138.950  73.111 220.205 -0.05 -0.04    +0.216 C  
DOCKED: ENDROOT
DOCKED: BRANCH   1   2
DOCKED: ATOM      2  N   UNL     1     138.982  72.235 221.362 -0.05 +0.07    -0.342 N  
DOCKED: ATOM      3  C   UNL     1     139.913  72.520 222.399 -0.20 -0.04    +0.270 C  
DOCKED: ATOM      4  O   UNL     1     140.710  73.506 222.350 -0.73 -0.01    -0.268 OA 
DOCKED: ATOM      5  H   UNL     1     138.321  71.424 221.395 +0.04 -0.03    +0.164 HD 
DOCKED: BRANCH   3   6
DOCKED: ATOM      6  C   UNL     1     139.926  71.617 223.562 -0.32 -0.02    +0.128 A  
DOCKED: ATOM      7  C   UNL     1     139.321  70.378 223.454 -0.28 -0.01    +0.035 A  
DOCKED: ATOM      8  N   UNL     1     140.510  71.964 224.728 -0.19 +0.04    -0.243 NA 
DOCKED: ATOM      9  C   UNL     1     139.280  69.466 224.484 -0.34 -0.00    +0.013 A  
DOCKED: ATOM     10  C   UNL     1     140.495  71.093 225.775 -0.54 -0.01    +0.071 A  
DOCKED: ATOM     11  C   UNL     1     139.891  69.850 225.677 -0.46 -0.00    +0.003 A  
DOCKED: ATOM     12  C   UNL     1     141.087  71.431 226.974 -0.71 -0.01    +0.032 A  
DOCKED: ATOM     13  C   UNL     1     139.859  68.947 226.718 -0.53 -0.01    +0.049 A  
DOCKED: ATOM     14  C   UNL     1     141.069  70.537 228.044 -0.60 -0.01    +0.041 A  
DOCKED: ATOM     15  C   UNL     1     140.457  69.297 227.918 -0.53 -0.02    +0.123 A  
DOCKED: ATOM     16  F   UNL     1     140.446  68.435 228.969 -0.17 +0.04    -0.207 F  
DOCKED: ENDBRANCH   3   6
DOCKED: ENDBRANCH   1   2
DOCKED: BRANCH   1  17
DOCKED: ATOM     17  C   UNL     1     137.689  73.895 220.289 -0.03 -0.05    +0.241 C  
DOCKED: ATOM     18  O   UNL     1     136.629  73.567 219.699 -0.01 +0.05    -0.273 OA 
DOCKED: BRANCH  17  19
DOCKED: ATOM     19  N   UNL     1     137.666  75.081 221.076 -0.04 +0.08    -0.341 N  
DOCKED: ATOM     20  C   UNL     1     136.779  75.379 222.185 -0.16 -0.03    +0.120 C  
DOCKED: ATOM     21  C   UNL     1     138.520  76.256 220.952 -0.12 -0.03    +0.128 C  
DOCKED: ATOM     22  C   UNL     1     137.552  76.367 223.068 -0.23 -0.01    +0.032 C  
DOCKED: ATOM     23  C   UNL     1     138.910  76.397 222.420 -0.29 -0.01    +0.040 C  
DOCKED: BRANCH  23  24
DOCKED: ATOM     24  C   UNL     1     139.726  77.561 222.716 -0.30 +0.01    -0.043 A  
DOCKED: ATOM     25  C   UNL     1     139.087  78.726 223.130 -0.33 -0.00    +0.005 A  
DOCKED: ATOM     26  C   UNL     1     141.080  77.506 222.592 -0.45 -0.00    +0.005 A  
DOCKED: ATOM     27  C   UNL     1     139.811  79.858 223.425 -0.42 -0.00    +0.021 A  
DOCKED: ATOM     28  C   UNL     1     141.822  78.640 222.886 -0.51 -0.01    +0.021 A  
DOCKED: ATOM     29  C   UNL     1     141.192  79.800 223.297 -0.50 -0.01    +0.041 A  
DOCKED: ATOM     30  Cl  UNL     1     142.126  81.241 223.671 -0.73 +0.01    -0.084 Cl 
DOCKED: ENDBRANCH  23  24
DOCKED: ENDBRANCH  17  19
DOCKED: ENDBRANCH   1  17
DOCKED: TORSDOF 5
DOCKED: TER
DOCKED: ENDMDL
________________________________________________________________________________


    FINAL DOCKED STATE:
    ________________________


Run:   2 / 20
Time taken for this run:   0.030s

DOCKED: MODEL        2
DOCKED: USER    Run = 2
DOCKED: USER
DOCKED: USER    Estimated Free Energy of Binding    =  -8.37 kcal/mol  [=(1)+(2)+(3)-(4)]
DOCKED: USER
DOCKED: USER    (1) Final Intermolecular Energy     =  -9.86 kcal/mol
DOCKED: USER        vdW + Hbond + desolv Energy     =  -9.80 kcal/mol
DOCKED: USER        Electrostatic Energy            =  -0.06 kcal/mol
DOCKED: USER        Moving Ligand-Fixed Receptor    =  -9.86 kcal/mol
DOCKED: USER        Moving Ligand-Moving Receptor   =  +0.00 kcal/mol
DOCKED: USER    (2) Final Total Internal Energy     =  -1.42 kcal/mol
DOCKED: USER    (3) Torsional Free Energy           =  +1.49 kcal/mol
DOCKED: USER    (4) Unbound System's Energy         =  -1.42 kcal/mol
DOCKED: USER
DOCKED: USER
DOCKED: REMARK SMILES O=C(NCC(=O)N1CC[C@H](c2ccc(Cl)cc2)C1)c1ccc2cc(F)ccc2n1
DOCKED: REMARK SMILES IDX 4 1 3 2 2 3 1 4 19 6 20 7 29 8 21 9 28 10 22 11 27 12 23 13
DOCKED: REMARK SMILES IDX 26 14 24 15 25 16 5 17 6 18 7 19 8 20 18 21 9 22 10 23 11 24
DOCKED: REMARK SMILES IDX 12 25 17 26 13 27 16 28 14 29 15 30
DOCKED: REMARK H PARENT 3 5
DOCKED: USER                              x       y       z     vdW  Elec       q    Type
DOCKED: USER                           _______ _______ _______ _____ _____    ______ ____
DOCKED: ROOT
DOCKED: ATOM      1  C   UNL     1     139.002  73.068 220.126 -0.04 -0.04    +0.216 C  
DOCKED: ENDROOT
DOCKED: BRANCH   1   2
DOCKED: ATOM      2  N   UNL     1     139.018  72.182 221.275 -0.05 +0.07    -0.342 N  
DOCKED: ATOM      3  C   UNL     1     139.911  72.478 222.343 -0.20 -0.04    +0.270 C  
DOCKED: ATOM      4  O   UNL     1     140.686  73.482 222.327 -0.74 -0.01    -0.268 OA 
DOCKED: ATOM      5  H   UNL     1     138.375  71.356 221.281 +0.03 -0.03    +0.164 HD 
DOCKED: BRANCH   3   6
DOCKED: ATOM      6  C   UNL     1     139.909  71.564 223.498 -0.32 -0.02    +0.128 A  
DOCKED: ATOM      7  C   UNL     1     139.282  70.337 223.379 -0.27 -0.01    +0.035 A  
DOCKED: ATOM      8  N   UNL     1     140.499  71.890 224.667 -0.27 +0.04    -0.243 NA 
DOCKED: ATOM      9  C   UNL     1     139.226  69.416 224.400 -0.34 -0.00    +0.013 A  
DOCKED: ATOM     10  C   UNL     1     140.470  71.010 225.706 -0.53 -0.01    +0.071 A  
DOCKED: ATOM     11  C   UNL     1     139.844  69.779 225.596 -0.45 -0.00    +0.003 A  
DOCKED: ATOM     12  C   UNL     1     141.068  71.326 226.907 -0.69 -0.01    +0.032 A  
DOCKED: ATOM     13  C   UNL     1     139.798  68.867 226.630 -0.53 -0.01    +0.049 A  
DOCKED: ATOM     14  C   UNL     1     141.036  70.423 227.969 -0.60 -0.01    +0.041 A  
DOCKED: ATOM     15  C   UNL     1     140.403  69.195 227.831 -0.53 -0.02    +0.123 A  
DOCKED: ATOM     16  F   UNL     1     140.378  68.323 228.875 -0.18 +0.05    -0.207 F  
DOCKED: ENDBRANCH   3   6
DOCKED: ENDBRANCH   1   2
DOCKED: BRANCH   1  17
DOCKED: ATOM     17  C   UNL     1     137.733  73.841 220.193 -0.03 -0.05    +0.241 C  
DOCKED: ATOM     18  O   UNL     1     136.680  73.497 219.600 -0.01 +0.05    -0.273 OA 
DOCKED: BRANCH  17  19
DOCKED: ATOM     19  N   UNL     1     137.694  75.036 220.966 -0.04 +0.08    -0.341 N  
DOCKED: ATOM     20  C   UNL     1     136.756  75.366 222.023 -0.15 -0.03    +0.120 C  
DOCKED: ATOM     21  C   UNL     1     138.579  76.192 220.876 -0.11 -0.03    +0.128 C  
DOCKED: ATOM     22  C   UNL     1     137.502  76.346 222.936 -0.25 -0.01    +0.032 C  
DOCKED: ATOM     23  C   UNL     1     138.894  76.340 222.362 -0.30 -0.01    +0.040 C  
DOCKED: BRANCH  23  24
DOCKED: ATOM     24  C   UNL     1     139.718  77.489 222.690 -0.29 +0.01    -0.043 A  
DOCKED: ATOM     25  C   UNL     1     139.086  78.656 223.109 -0.33 -0.00    +0.005 A  
DOCKED: ATOM     26  C   UNL     1     141.073  77.419 222.590 -0.44 -0.00    +0.005 A  
DOCKED: ATOM     27  C   UNL     1     139.817  79.775 223.434 -0.42 -0.00    +0.021 A  
DOCKED: ATOM     28  C   UNL     1     141.823  78.540 222.914 -0.48 -0.01    +0.021 A  
DOCKED: ATOM     29  C   UNL     1     141.200  79.701 223.330 -0.51 -0.01    +0.041 A  
DOCKED: ATOM     30  Cl  UNL     1     142.144  81.125 223.743 -0.75 +0.01    -0.084 Cl 
DOCKED: ENDBRANCH  23  24
DOCKED: ENDBRANCH  17  19
DOCKED: ENDBRANCH   1  17
DOCKED: TORSDOF 5
DOCKED: TER
DOCKED: ENDMDL
________________________________________________________________________________


    FINAL DOCKED STATE:
    ________________________


Run:   3 / 20
Time taken for this run:   0.030s

DOCKED: MODEL        3
DOCKED: USER    Run = 3
DOCKED: USER
DOCKED: USER    Estimated Free Energy of Binding    =  -8.33 kcal/mol  [=(1)+(2)+(3)-(4)]
DOCKED: USER
DOCKED: USER    (1) Final Intermolecular Energy     =  -9.83 kcal/mol
DOCKED: USER        vdW + Hbond + desolv Energy     =  -9.88 kcal/mol
DOCKED: USER        Electrostatic Energy            =  +0.05 kcal/mol
DOCKED: USER        Moving Ligand-Fixed Receptor    =  -9.83 kcal/mol
DOCKED: USER        Moving Ligand-Moving Receptor   =  +0.00 kcal/mol
DOCKED: USER    (2) Final Total Internal Energy     =  -1.62 kcal/mol
DOCKED: USER    (3) Torsional Free Energy           =  +1.49 kcal/mol
DOCKED: USER    (4) Unbound System's Energy         =  -1.62 kcal/mol
DOCKED: USER
DOCKED: USER
DOCKED: REMARK SMILES O=C(NCC(=O)N1CC[C@H](c2ccc(Cl)cc2)C1)c1ccc2cc(F)ccc2n1
DOCKED: REMARK SMILES IDX 4 1 3 2 2 3 1 4 19 6 20 7 29 8 21 9 28 10 22 11 27 12 23 13
DOCKED: REMARK SMILES IDX 26 14 24 15 25 16 5 17 6 18 7 19 8 20 18 21 9 22 10 23 11 24
DOCKED: REMARK SMILES IDX 12 25 17 26 13 27 16 28 14 29 15 30
DOCKED: REMARK H PARENT 3 5
DOCKED: USER                              x       y       z     vdW  Elec       q    Type
DOCKED: USER                           _______ _______ _______ _____ _____    ______ ____
DOCKED: ROOT
DOCKED: ATOM      1  C   UNL     1     139.689  74.252 221.127 -0.17 -0.04    +0.216 C  
DOCKED: ENDROOT
DOCKED: BRANCH   1   2
DOCKED: ATOM      2  N   UNL     1     139.721  73.436 222.327 -0.14 +0.05    -0.342 N  
DOCKED: ATOM      3  C   UNL     1     139.966  72.042 222.189 -0.19 -0.04    +0.270 C  
DOCKED: ATOM      4  O   UNL     1     140.158  71.490 221.063 -0.09 +0.04    -0.268 OA 
DOCKED: ATOM      5  H   UNL     1     139.562  73.899 223.253 -0.49 -0.03    +0.164 HD 
DOCKED: BRANCH   3   6
DOCKED: ATOM      6  C   UNL     1     139.994  71.235 223.421 -0.31 -0.02    +0.128 A  
DOCKED: ATOM      7  C   UNL     1     139.536  69.931 223.376 -0.24 -0.01    +0.035 A  
DOCKED: ATOM      8  N   UNL     1     140.451  71.731 224.589 -0.28 +0.04    -0.243 NA 
DOCKED: ATOM      9  C   UNL     1     139.520  69.099 224.473 -0.31 -0.00    +0.013 A  
DOCKED: ATOM     10  C   UNL     1     140.456  70.945 225.700 -0.52 -0.01    +0.071 A  
DOCKED: ATOM     11  C   UNL     1     139.999  69.638 225.666 -0.46 -0.00    +0.003 A  
DOCKED: ATOM     12  C   UNL     1     140.920  71.436 226.902 -0.70 -0.01    +0.032 A  
DOCKED: ATOM     13  C   UNL     1     139.991  68.817 226.774 -0.55 -0.01    +0.049 A  
DOCKED: ATOM     14  C   UNL     1     140.923  70.628 228.039 -0.62 -0.01    +0.041 A  
DOCKED: ATOM     15  C   UNL     1     140.460  69.321 227.976 -0.53 -0.02    +0.123 A  
DOCKED: ATOM     16  F   UNL     1     140.468  68.543 229.092 -0.16 +0.04    -0.207 F  
DOCKED: ENDBRANCH   3   6
DOCKED: ENDBRANCH   1   2
DOCKED: BRANCH   1  17
DOCKED: ATOM     17  C   UNL     1     140.945  75.050 221.112 -0.21 -0.06    +0.241 C  
DOCKED: ATOM     18  O   UNL     1     141.065  76.162 221.682 -0.29 +0.10    -0.273 OA 
DOCKED: BRANCH  17  19
DOCKED: ATOM     19  N   UNL     1     142.078  74.538 220.419 -0.12 +0.10    -0.341 N  
DOCKED: ATOM     20  C   UNL     1     143.300  75.248 220.094 -0.30 -0.06    +0.120 C  
DOCKED: ATOM     21  C   UNL     1     142.270  73.195 219.883 -0.15 -0.02    +0.128 C  
DOCKED: ATOM     22  C   UNL     1     144.384  74.168 219.997 -0.42 -0.01    +0.032 C  
DOCKED: ATOM     23  C   UNL     1     143.659  72.931 220.455 -0.33 -0.01    +0.040 C  
DOCKED: BRANCH  23  24
DOCKED: ATOM     24  C   UNL     1     144.246  71.667 220.047 -0.28 +0.00    -0.043 A  
DOCKED: ATOM     25  C   UNL     1     143.453  70.524 220.095 -0.20 -0.00    +0.005 A  
DOCKED: ATOM     26  C   UNL     1     145.540  71.608 219.630 -0.32 +0.00    +0.005 A  
DOCKED: ATOM     27  C   UNL     1     143.957  69.301 219.720 -0.27 +0.00    +0.021 A  
DOCKED: ATOM     28  C   UNL     1     146.062  70.381 219.249 -0.27 +0.02    +0.021 A  
DOCKED: ATOM     29  C   UNL     1     145.278  69.244 219.294 -0.31 +0.01    +0.041 A  
DOCKED: ATOM     30  Cl  UNL     1     145.932  67.685 218.813 -0.63 +0.00    -0.084 Cl 
DOCKED: ENDBRANCH  23  24
DOCKED: ENDBRANCH  17  19
DOCKED: ENDBRANCH   1  17
DOCKED: TORSDOF 5
DOCKED: TER
DOCKED: ENDMDL
________________________________________________________________________________


    FINAL DOCKED STATE:
    ________________________


Run:   4 / 20
Time taken for this run:   0.030s

DOCKED: MODEL        4
DOCKED: USER    Run = 4
DOCKED: USER
DOCKED: USER    Estimated Free Energy of Binding    =  -8.51 kcal/mol  [=(1)+(2)+(3)-(4)]
DOCKED: USER
DOCKED: USER    (1) Final Intermolecular Energy     = -10.00 kcal/mol
DOCKED: USER        vdW + Hbond + desolv Energy     =  -9.96 kcal/mol
DOCKED: USER        Electrostatic Energy            =  -0.04 kcal/mol
DOCKED: USER        Moving Ligand-Fixed Receptor    = -10.00 kcal/mol
DOCKED: USER        Moving Ligand-Moving Receptor   =  +0.00 kcal/mol
DOCKED: USER    (2) Final Total Internal Energy     =  -1.17 kcal/mol
DOCKED: USER    (3) Torsional Free Energy           =  +1.49 kcal/mol
DOCKED: USER    (4) Unbound System's Energy         =  -1.17 kcal/mol
DOCKED: USER
DOCKED: USER
DOCKED: REMARK SMILES O=C(NCC(=O)N1CC[C@H](c2ccc(Cl)cc2)C1)c1ccc2cc(F)ccc2n1
DOCKED: REMARK SMILES IDX 4 1 3 2 2 3 1 4 19 6 20 7 29 8 21 9 28 10 22 11 27 12 23 13
DOCKED: REMARK SMILES IDX 26 14 24 15 25 16 5 17 6 18 7 19 8 20 18 21 9 22 10 23 11 24
DOCKED: REMARK SMILES IDX 12 25 17 26 13 27 16 28 14 29 15 30
DOCKED: REMARK H PARENT 3 5
DOCKED: USER                              x       y       z     vdW  Elec       q    Type
DOCKED: USER                           _______ _______ _______ _____ _____    ______ ____
DOCKED: ROOT
DOCKED: ATOM      1  C   UNL     1     138.433  73.013 221.387 -0.10 -0.05    +0.216 C  
DOCKED: ENDROOT
DOCKED: BRANCH   1   2
DOCKED: ATOM      2  N   UNL     1     138.718  72.422 222.681 -0.05 +0.11    -0.342 N  
DOCKED: ATOM      3  C   UNL     1     139.919  71.675 222.833 -0.22 -0.05    +0.270 C  
DOCKED: ATOM      4  O   UNL     1     140.745  71.509 221.885 -0.16 +0.03    -0.268 OA 
DOCKED: ATOM      5  H   UNL     1     138.032  72.563 223.459 -0.42 -0.10    +0.164 HD 
DOCKED: BRANCH   3   6
DOCKED: ATOM      6  C   UNL     1     140.186  71.085 224.156 -0.36 -0.02    +0.128 A  
DOCKED: ATOM      7  C   UNL     1     140.701  71.891 225.156 -0.39 -0.01    +0.035 A  
DOCKED: ATOM      8  N   UNL     1     139.943  69.785 224.420 -0.17 +0.04    -0.243 NA 
DOCKED: ATOM      9  C   UNL     1     140.984  71.433 226.423 -0.68 -0.00    +0.013 A  
DOCKED: ATOM     10  C   UNL     1     140.207  69.287 225.660 -0.42 -0.01    +0.071 A  
DOCKED: ATOM     11  C   UNL     1     140.723  70.085 226.667 -0.57 -0.00    +0.003 A  
DOCKED: ATOM     12  C   UNL     1     139.964  67.960 225.947 -0.57 -0.01    +0.032 A  
DOCKED: ATOM     13  C   UNL     1     141.000  69.611 227.932 -0.56 -0.01    +0.049 A  
DOCKED: ATOM     14  C   UNL     1     140.235  67.454 227.218 -0.35 -0.01    +0.041 A  
DOCKED: ATOM     15  C   UNL     1     140.752  68.277 228.209 -0.55 -0.03    +0.123 A  
DOCKED: ATOM     16  F   UNL     1     141.013  67.771 229.444 -0.16 +0.06    -0.207 F  
DOCKED: ENDBRANCH   3   6
DOCKED: ENDBRANCH   1   2
DOCKED: BRANCH   1  17
DOCKED: ATOM     17  C   UNL     1     137.419  74.077 221.610 -0.10 -0.06    +0.241 C  
DOCKED: ATOM     18  O   UNL     1     136.238  73.843 221.969 -0.07 +0.06    -0.273 OA 
DOCKED: BRANCH  17  19
DOCKED: ATOM     19  N   UNL     1     137.790  75.437 221.411 -0.06 +0.08    -0.341 N  
DOCKED: ATOM     20  C   UNL     1     136.972  76.495 220.850 -0.06 -0.02    +0.120 C  
DOCKED: ATOM     21  C   UNL     1     139.065  76.073 221.721 -0.24 -0.03    +0.128 C  
DOCKED: ATOM     22  C   UNL     1     137.518  77.794 221.455 -0.12 -0.01    +0.032 C  
DOCKED: ATOM     23  C   UNL     1     138.524  77.294 222.458 -0.28 -0.01    +0.040 C  
DOCKED: BRANCH  23  24
DOCKED: ATOM     24  C   UNL     1     139.538  78.250 222.865 -0.30 +0.01    -0.043 A  
DOCKED: ATOM     25  C   UNL     1     139.123  79.473 223.384 -0.38 -0.00    +0.005 A  
DOCKED: ATOM     26  C   UNL     1     140.859  77.951 222.740 -0.47 -0.00    +0.005 A  
DOCKED: ATOM     27  C   UNL     1     140.040  80.414 223.787 -0.41 -0.00    +0.021 A  
DOCKED: ATOM     28  C   UNL     1     141.796  78.891 223.141 -0.57 -0.01    +0.021 A  
DOCKED: ATOM     29  C   UNL     1     141.389  80.107 223.658 -0.53 -0.01    +0.041 A  
DOCKED: ATOM     30  Cl  UNL     1     142.570  81.304 224.169 -0.64 +0.01    -0.084 Cl 
DOCKED: ENDBRANCH  23  24
DOCKED: ENDBRANCH  17  19
DOCKED: ENDBRANCH   1  17
DOCKED: TORSDOF 5
DOCKED: TER
DOCKED: ENDMDL
________________________________________________________________________________


    FINAL DOCKED STATE:
    ________________________


Run:   5 / 20
Time taken for this run:   0.030s

DOCKED: MODEL        5
DOCKED: USER    Run = 5
DOCKED: USER
DOCKED: USER    Estimated Free Energy of Binding    =  -8.34 kcal/mol  [=(1)+(2)+(3)-(4)]
DOCKED: USER
DOCKED: USER    (1) Final Intermolecular Energy     =  -9.84 kcal/mol
DOCKED: USER        vdW + Hbond + desolv Energy     =  -9.89 kcal/mol
DOCKED: USER        Electrostatic Energy            =  +0.06 kcal/mol
DOCKED: USER        Moving Ligand-Fixed Receptor    =  -9.84 kcal/mol
DOCKED: USER        Moving Ligand-Moving Receptor   =  +0.00 kcal/mol
DOCKED: USER    (2) Final Total Internal Energy     =  -1.61 kcal/mol
DOCKED: USER    (3) Torsional Free Energy           =  +1.49 kcal/mol
DOCKED: USER    (4) Unbound System's Energy         =  -1.61 kcal/mol
DOCKED: USER
DOCKED: USER
DOCKED: REMARK SMILES O=C(NCC(=O)N1CC[C@H](c2ccc(Cl)cc2)C1)c1ccc2cc(F)ccc2n1
DOCKED: REMARK SMILES IDX 4 1 3 2 2 3 1 4 19 6 20 7 29 8 21 9 28 10 22 11 27 12 23 13
DOCKED: REMARK SMILES IDX 26 14 24 15 25 16 5 17 6 18 7 19 8 20 18 21 9 22 10 23 11 24
DOCKED: REMARK SMILES IDX 12 25 17 26 13 27 16 28 14 29 15 30
DOCKED: REMARK H PARENT 3 5
DOCKED: USER                              x       y       z     vdW  Elec       q    Type
DOCKED: USER                           _______ _______ _______ _____ _____    ______ ____
DOCKED: ROOT
DOCKED: ATOM      1  C   UNL     1     139.745  74.319 221.065 -0.16 -0.04    +0.216 C  
DOCKED: ENDROOT
DOCKED: BRANCH   1   2
DOCKED: ATOM      2  N   UNL     1     139.760  73.517 222.274 -0.13 +0.05    -0.342 N  
DOCKED: ATOM      3  C   UNL     1     140.029  72.125 222.158 -0.19 -0.04    +0.270 C  
DOCKED: ATOM      4  O   UNL     1     140.257  71.564 221.043 -0.09 +0.04    -0.268 OA 
DOCKED: ATOM      5  H   UNL     1     139.571  73.987 223.190 -0.50 -0.02    +0.164 HD 
DOCKED: BRANCH   3   6
DOCKED: ATOM      6  C   UNL     1     140.039  71.333 223.399 -0.31 -0.02    +0.128 A  
DOCKED: ATOM      7  C   UNL     1     139.538  70.043 223.374 -0.25 -0.01    +0.035 A  
DOCKED: ATOM      8  N   UNL     1     140.521  71.828 224.558 -0.27 +0.04    -0.243 NA 
DOCKED: ATOM      9  C   UNL     1     139.503  69.226 224.481 -0.33 -0.00    +0.013 A  
DOCKED: ATOM     10  C   UNL     1     140.507  71.055 225.679 -0.53 -0.01    +0.071 A  
DOCKED: ATOM     11  C   UNL     1     140.008  69.763 225.664 -0.47 -0.00    +0.003 A  
DOCKED: ATOM     12  C   UNL     1     140.996  71.545 226.872 -0.72 -0.01    +0.032 A  
DOCKED: ATOM     13  C   UNL     1     139.981  68.956 226.782 -0.54 -0.01    +0.049 A  
DOCKED: ATOM     14  C   UNL     1     140.981  70.750 228.018 -0.64 -0.01    +0.041 A  
DOCKED: ATOM     15  C   UNL     1     140.475  69.458 227.974 -0.52 -0.02    +0.123 A  
DOCKED: ATOM     16  F   UNL     1     140.465  68.694 229.100 -0.13 +0.04    -0.207 F  
DOCKED: ENDBRANCH   3   6
DOCKED: ENDBRANCH   1   2
DOCKED: BRANCH   1  17
DOCKED: ATOM     17  C   UNL     1     141.004  75.111 221.054 -0.21 -0.06    +0.241 C  
DOCKED: ATOM     18  O   UNL     1     141.122  76.231 221.611 -0.27 +0.10    -0.273 OA 
DOCKED: BRANCH  17  19
DOCKED: ATOM     19  N   UNL     1     142.143  74.586 220.383 -0.12 +0.11    -0.341 N  
DOCKED: ATOM     20  C   UNL     1     143.384  75.277 220.090 -0.30 -0.06    +0.120 C  
DOCKED: ATOM     21  C   UNL     1     142.325  73.244 219.840 -0.15 -0.03    +0.128 C  
DOCKED: ATOM     22  C   UNL     1     144.452  74.179 220.008 -0.43 -0.01    +0.032 C  
DOCKED: ATOM     23  C   UNL     1     143.696  72.951 220.441 -0.34 -0.01    +0.040 C  
DOCKED: BRANCH  23  24
DOCKED: ATOM     24  C   UNL     1     144.271  71.681 220.037 -0.28 +0.00    -0.043 A  
DOCKED: ATOM     25  C   UNL     1     143.466  70.546 220.087 -0.21 -0.00    +0.005 A  
DOCKED: ATOM     26  C   UNL     1     145.564  71.609 219.620 -0.32 +0.00    +0.005 A  
DOCKED: ATOM     27  C   UNL     1     143.958  69.317 219.715 -0.27 +0.00    +0.021 A  
DOCKED: ATOM     28  C   UNL     1     146.074  70.375 219.242 -0.27 +0.02    +0.021 A  
DOCKED: ATOM     29  C   UNL     1     145.279  69.246 219.290 -0.31 +0.01    +0.041 A  
DOCKED: ATOM     30  Cl  UNL     1     145.917  67.680 218.812 -0.63 +0.01    -0.084 Cl 
DOCKED: ENDBRANCH  23  24
DOCKED: ENDBRANCH  17  19
DOCKED: ENDBRANCH   1  17
DOCKED: TORSDOF 5
DOCKED: TER
DOCKED: ENDMDL
________________________________________________________________________________


    FINAL DOCKED STATE:
    ________________________


Run:   6 / 20
Time taken for this run:   0.030s

DOCKED: MODEL        6
DOCKED: USER    Run = 6
DOCKED: USER
DOCKED: USER    Estimated Free Energy of Binding    =  -8.38 kcal/mol  [=(1)+(2)+(3)-(4)]
DOCKED: USER
DOCKED: USER    (1) Final Intermolecular Energy     =  -9.87 kcal/mol
DOCKED: USER        vdW + Hbond + desolv Energy     =  -9.92 kcal/mol
DOCKED: USER        Electrostatic Energy            =  +0.05 kcal/mol
DOCKED: USER        Moving Ligand-Fixed Receptor    =  -9.87 kcal/mol
DOCKED: USER        Moving Ligand-Moving Receptor   =  +0.00 kcal/mol
DOCKED: USER    (2) Final Total Internal Energy     =  -1.57 kcal/mol
DOCKED: USER    (3) Torsional Free Energy           =  +1.49 kcal/mol
DOCKED: USER    (4) Unbound System's Energy         =  -1.57 kcal/mol
DOCKED: USER
DOCKED: USER
DOCKED: REMARK SMILES O=C(NCC(=O)N1CC[C@H](c2ccc(Cl)cc2)C1)c1ccc2cc(F)ccc2n1
DOCKED: REMARK SMILES IDX 4 1 3 2 2 3 1 4 19 6 20 7 29 8 21 9 28 10 22 11 27 12 23 13
DOCKED: REMARK SMILES IDX 26 14 24 15 25 16 5 17 6 18 7 19 8 20 18 21 9 22 10 23 11 24
DOCKED: REMARK SMILES IDX 12 25 17 26 13 27 16 28 14 29 15 30
DOCKED: REMARK H PARENT 3 5
DOCKED: USER                              x       y       z     vdW  Elec       q    Type
DOCKED: USER                           _______ _______ _______ _____ _____    ______ ____
DOCKED: ROOT
DOCKED: ATOM      1  C   UNL     1     139.766  74.287 221.080 -0.16 -0.04    +0.216 C  
DOCKED: ENDROOT
DOCKED: BRANCH   1   2
DOCKED: ATOM      2  N   UNL     1     139.753  73.481 222.287 -0.14 +0.05    -0.342 N  
DOCKED: ATOM      3  C   UNL     1     140.043  72.093 222.175 -0.20 -0.04    +0.270 C  
DOCKED: ATOM      4  O   UNL     1     140.311  71.538 221.066 -0.09 +0.04    -0.268 OA 
DOCKED: ATOM      5  H   UNL     1     139.531  73.946 223.199 -0.50 -0.03    +0.164 HD 
DOCKED: BRANCH   3   6
DOCKED: ATOM      6  C   UNL     1     140.025  71.296 223.414 -0.31 -0.02    +0.128 A  
DOCKED: ATOM      7  C   UNL     1     139.459  70.034 223.388 -0.25 -0.01    +0.035 A  
DOCKED: ATOM      8  N   UNL     1     140.541  71.762 224.569 -0.28 +0.03    -0.243 NA 
DOCKED: ATOM      9  C   UNL     1     139.393  69.215 224.493 -0.34 -0.00    +0.013 A  
DOCKED: ATOM     10  C   UNL     1     140.499  70.987 225.688 -0.53 -0.01    +0.071 A  
DOCKED: ATOM     11  C   UNL     1     139.935  69.721 225.673 -0.46 -0.00    +0.003 A  
DOCKED: ATOM     12  C   UNL     1     141.024  71.447 226.878 -0.71 -0.01    +0.032 A  
DOCKED: ATOM     13  C   UNL     1     139.878  68.913 226.789 -0.54 -0.01    +0.049 A  
DOCKED: ATOM     14  C   UNL     1     140.979  70.650 228.021 -0.62 -0.01    +0.041 A  
DOCKED: ATOM     15  C   UNL     1     140.408  69.385 227.978 -0.53 -0.02    +0.123 A  
DOCKED: ATOM     16  F   UNL     1     140.370  68.618 229.101 -0.15 +0.04    -0.207 F  
DOCKED: ENDBRANCH   3   6
DOCKED: ENDBRANCH   1   2
DOCKED: BRANCH   1  17
DOCKED: ATOM     17  C   UNL     1     141.036  75.061 221.089 -0.21 -0.06    +0.241 C  
DOCKED: ATOM     18  O   UNL     1     141.172  76.161 221.679 -0.28 +0.10    -0.273 OA 
DOCKED: BRANCH  17  19
DOCKED: ATOM     19  N   UNL     1     142.165  74.540 220.396 -0.12 +0.10    -0.341 N  
DOCKED: ATOM     20  C   UNL     1     143.396  75.237 220.079 -0.31 -0.06    +0.120 C  
DOCKED: ATOM     21  C   UNL     1     142.342  73.199 219.852 -0.15 -0.02    +0.128 C  
DOCKED: ATOM     22  C   UNL     1     144.468  74.144 219.979 -0.43 -0.01    +0.032 C  
DOCKED: ATOM     23  C   UNL     1     143.726  72.913 220.427 -0.34 -0.01    +0.040 C  
DOCKED: BRANCH  23  24
DOCKED: ATOM     24  C   UNL     1     144.299  71.645 220.013 -0.27 +0.00    -0.043 A  
DOCKED: ATOM     25  C   UNL     1     143.505  70.504 220.093 -0.21 -0.00    +0.005 A  
DOCKED: ATOM     26  C   UNL     1     145.580  71.580 219.558 -0.32 +0.00    +0.005 A  
DOCKED: ATOM     27  C   UNL     1     143.996  69.277 219.713 -0.27 +0.00    +0.021 A  
DOCKED: ATOM     28  C   UNL     1     146.089  70.349 219.173 -0.28 +0.02    +0.021 A  
DOCKED: ATOM     29  C   UNL     1     145.304  69.214 219.250 -0.32 +0.01    +0.041 A  
DOCKED: ATOM     30  Cl  UNL     1     145.941  67.650 218.763 -0.63 +0.01    -0.084 Cl 
DOCKED: ENDBRANCH  23  24
DOCKED: ENDBRANCH  17  19
DOCKED: ENDBRANCH   1  17
DOCKED: TORSDOF 5
DOCKED: TER
DOCKED: ENDMDL
________________________________________________________________________________


    FINAL DOCKED STATE:
    ________________________


Run:   7 / 20
Time taken for this run:   0.030s

DOCKED: MODEL        7
DOCKED: USER    Run = 7
DOCKED: USER
DOCKED: USER    Estimated Free Energy of Binding    =  -8.35 kcal/mol  [=(1)+(2)+(3)-(4)]
DOCKED: USER
DOCKED: USER    (1) Final Intermolecular Energy     =  -9.84 kcal/mol
DOCKED: USER        vdW + Hbond + desolv Energy     =  -9.80 kcal/mol
DOCKED: USER        Electrostatic Energy            =  -0.04 kcal/mol
DOCKED: USER        Moving Ligand-Fixed Receptor    =  -9.84 kcal/mol
DOCKED: USER        Moving Ligand-Moving Receptor   =  +0.00 kcal/mol
DOCKED: USER    (2) Final Total Internal Energy     =  -1.36 kcal/mol
DOCKED: USER    (3) Torsional Free Energy           =  +1.49 kcal/mol
DOCKED: USER    (4) Unbound System's Energy         =  -1.36 kcal/mol
DOCKED: USER
DOCKED: USER
DOCKED: REMARK SMILES O=C(NCC(=O)N1CC[C@H](c2ccc(Cl)cc2)C1)c1ccc2cc(F)ccc2n1
DOCKED: REMARK SMILES IDX 4 1 3 2 2 3 1 4 19 6 20 7 29 8 21 9 28 10 22 11 27 12 23 13
DOCKED: REMARK SMILES IDX 26 14 24 15 25 16 5 17 6 18 7 19 8 20 18 21 9 22 10 23 11 24
DOCKED: REMARK SMILES IDX 12 25 17 26 13 27 16 28 14 29 15 30
DOCKED: REMARK H PARENT 3 5
DOCKED: USER                              x       y       z     vdW  Elec       q    Type
DOCKED: USER                           _______ _______ _______ _____ _____    ______ ____
DOCKED: ROOT
DOCKED: ATOM      1  C   UNL     1     137.302  72.875 221.436 -0.07 -0.05    +0.216 C  
DOCKED: ENDROOT
DOCKED: BRANCH   1   2
DOCKED: ATOM      2  N   UNL     1     137.954  72.279 222.588 -0.07 +0.11    -0.342 N  
DOCKED: ATOM      3  C   UNL     1     138.003  70.860 222.677 -0.11 -0.06    +0.270 C  
DOCKED: ATOM      4  O   UNL     1     137.501  70.102 221.792 -0.04 +0.05    -0.268 OA 
DOCKED: ATOM      5  H   UNL     1     138.366  72.911 223.314 -0.44 -0.11    +0.164 HD 
DOCKED: BRANCH   3   6
DOCKED: ATOM      6  C   UNL     1     138.670  70.279 223.855 -0.24 -0.02    +0.128 A  
DOCKED: ATOM      7  C   UNL     1     138.693  68.904 224.000 -0.30 -0.00    +0.035 A  
DOCKED: ATOM      8  N   UNL     1     139.257  71.049 224.794 -0.23 +0.05    -0.243 NA 
DOCKED: ATOM      9  C   UNL     1     139.291  68.267 225.064 -0.43 -0.00    +0.013 A  
DOCKED: ATOM     10  C   UNL     1     139.862  70.464 225.865 -0.44 -0.01    +0.071 A  
DOCKED: ATOM     11  C   UNL     1     139.890  69.088 226.019 -0.50 -0.00    +0.003 A  
DOCKED: ATOM     12  C   UNL     1     140.467  71.236 226.834 -0.63 -0.01    +0.032 A  
DOCKED: ATOM     13  C   UNL     1     140.494  68.466 227.092 -0.61 -0.01    +0.049 A  
DOCKED: ATOM     14  C   UNL     1     141.085  70.633 227.929 -0.62 -0.01    +0.041 A  
DOCKED: ATOM     15  C   UNL     1     141.099  69.251 228.059 -0.48 -0.03    +0.123 A  
DOCKED: ATOM     16  F   UNL     1     141.704  68.676 229.133 -0.12 +0.05    -0.207 F  
DOCKED: ENDBRANCH   3   6
DOCKED: ENDBRANCH   1   2
DOCKED: BRANCH   1  17
DOCKED: ATOM     17  C   UNL     1     137.445  74.349 221.571 -0.10 -0.06    +0.241 C  
DOCKED: ATOM     18  O   UNL     1     136.485  75.151 221.461 -0.05 +0.06    -0.273 OA 
DOCKED: BRANCH  17  19
DOCKED: ATOM     19  N   UNL     1     138.732  74.894 221.839 -0.13 +0.08    -0.341 N  
DOCKED: ATOM     20  C   UNL     1     140.001  74.460 221.286 -0.23 -0.02    +0.120 C  
DOCKED: ATOM     21  C   UNL     1     139.069  76.005 222.722 -0.15 -0.03    +0.128 C  
DOCKED: ATOM     22  C   UNL     1     140.905  75.698 221.321 -0.33 -0.01    +0.032 C  
DOCKED: ATOM     23  C   UNL     1     139.959  76.784 221.760 -0.32 -0.01    +0.040 C  
DOCKED: BRANCH  23  24
DOCKED: ATOM     24  C   UNL     1     140.578  77.965 222.335 -0.39 +0.01    -0.043 A  
DOCKED: ATOM     25  C   UNL     1     139.858  78.695 223.277 -0.34 -0.00    +0.005 A  
DOCKED: ATOM     26  C   UNL     1     141.830  78.343 221.959 -0.33 -0.00    +0.005 A  
DOCKED: ATOM     27  C   UNL     1     140.395  79.822 223.854 -0.45 -0.00    +0.021 A  
DOCKED: ATOM     28  C   UNL     1     142.384  79.477 222.534 -0.55 -0.01    +0.021 A  
DOCKED: ATOM     29  C   UNL     1     141.673  80.205 223.469 -0.56 -0.01    +0.041 A  
DOCKED: ATOM     30  Cl  UNL     1     142.368  81.644 224.202 -0.53 +0.01    -0.084 Cl 
DOCKED: ENDBRANCH  23  24
DOCKED: ENDBRANCH  17  19
DOCKED: ENDBRANCH   1  17
DOCKED: TORSDOF 5
DOCKED: TER
DOCKED: ENDMDL
________________________________________________________________________________


    FINAL DOCKED STATE:
    ________________________


Run:   8 / 20
Time taken for this run:   0.030s

DOCKED: MODEL        8
DOCKED: USER    Run = 8
DOCKED: USER
DOCKED: USER    Estimated Free Energy of Binding    =  -8.37 kcal/mol  [=(1)+(2)+(3)-(4)]
DOCKED: USER
DOCKED: USER    (1) Final Intermolecular Energy     =  -9.86 kcal/mol
DOCKED: USER        vdW + Hbond + desolv Energy     =  -9.80 kcal/mol
DOCKED: USER        Electrostatic Energy            =  -0.07 kcal/mol
DOCKED: USER        Moving Ligand-Fixed Receptor    =  -9.86 kcal/mol
DOCKED: USER        Moving Ligand-Moving Receptor   =  +0.00 kcal/mol
DOCKED: USER    (2) Final Total Internal Energy     =  -1.40 kcal/mol
DOCKED: USER    (3) Torsional Free Energy           =  +1.49 kcal/mol
DOCKED: USER    (4) Unbound System's Energy         =  -1.40 kcal/mol
DOCKED: USER
DOCKED: USER
DOCKED: REMARK SMILES O=C(NCC(=O)N1CC[C@H](c2ccc(Cl)cc2)C1)c1ccc2cc(F)ccc2n1
DOCKED: REMARK SMILES IDX 4 1 3 2 2 3 1 4 19 6 20 7 29 8 21 9 28 10 22 11 27 12 23 13
DOCKED: REMARK SMILES IDX 26 14 24 15 25 16 5 17 6 18 7 19 8 20 18 21 9 22 10 23 11 24
DOCKED: REMARK SMILES IDX 12 25 17 26 13 27 16 28 14 29 15 30
DOCKED: REMARK H PARENT 3 5
DOCKED: USER                              x       y       z     vdW  Elec       q    Type
DOCKED: USER                           _______ _______ _______ _____ _____    ______ ____
DOCKED: ROOT
DOCKED: ATOM      1  C   UNL     1     138.915  73.065 220.229 -0.05 -0.04    +0.216 C  
DOCKED: ENDROOT
DOCKED: BRANCH   1   2
DOCKED: ATOM      2  N   UNL     1     138.955  72.191 221.387 -0.05 +0.07    -0.342 N  
DOCKED: ATOM      3  C   UNL     1     139.908  72.466 222.408 -0.20 -0.04    +0.270 C  
DOCKED: ATOM      4  O   UNL     1     140.717  73.441 222.343 -0.73 -0.01    -0.268 OA 
DOCKED: ATOM      5  H   UNL     1     138.284  71.389 221.434 +0.04 -0.03    +0.164 HD 
DOCKED: BRANCH   3   6
DOCKED: ATOM      6  C   UNL     1     139.929  71.565 223.573 -0.32 -0.02    +0.128 A  
DOCKED: ATOM      7  C   UNL     1     139.345  70.316 223.462 -0.28 -0.01    +0.035 A  
DOCKED: ATOM      8  N   UNL     1     140.498  71.924 224.742 -0.23 +0.04    -0.243 NA 
DOCKED: ATOM      9  C   UNL     1     139.313  69.405 224.494 -0.34 -0.00    +0.013 A  
DOCKED: ATOM     10  C   UNL     1     140.491  71.055 225.790 -0.53 -0.01    +0.071 A  
DOCKED: ATOM     11  C   UNL     1     139.909  69.802 225.690 -0.46 -0.00    +0.003 A  
DOCKED: ATOM     12  C   UNL     1     141.069  71.405 226.992 -0.71 -0.01    +0.032 A  
DOCKED: ATOM     13  C   UNL     1     139.887  68.900 226.733 -0.54 -0.01    +0.049 A  
DOCKED: ATOM     14  C   UNL     1     141.060  70.512 228.064 -0.59 -0.01    +0.041 A  
DOCKED: ATOM     15  C   UNL     1     140.470  69.262 227.935 -0.53 -0.02    +0.123 A  
DOCKED: ATOM     16  F   UNL     1     140.467  68.401 228.988 -0.17 +0.05    -0.207 F  
DOCKED: ENDBRANCH   3   6
DOCKED: ENDBRANCH   1   2
DOCKED: BRANCH   1  17
DOCKED: ATOM     17  C   UNL     1     137.650  73.842 220.316 -0.03 -0.05    +0.241 C  
DOCKED: ATOM     18  O   UNL     1     136.584  73.495 219.748 -0.01 +0.05    -0.273 OA 
DOCKED: BRANCH  17  19
DOCKED: ATOM     19  N   UNL     1     137.630  75.044 221.078 -0.04 +0.08    -0.341 N  
DOCKED: ATOM     20  C   UNL     1     136.737  75.372 222.173 -0.16 -0.03    +0.120 C  
DOCKED: ATOM     21  C   UNL     1     138.495  76.210 220.937 -0.11 -0.03    +0.128 C  
DOCKED: ATOM     22  C   UNL     1     137.510  76.372 223.042 -0.24 -0.01    +0.032 C  
DOCKED: ATOM     23  C   UNL     1     138.874  76.377 222.405 -0.30 -0.01    +0.040 C  
DOCKED: BRANCH  23  24
DOCKED: ATOM     24  C   UNL     1     139.697  77.540 222.685 -0.30 +0.01    -0.043 A  
DOCKED: ATOM     25  C   UNL     1     139.069  78.705 223.115 -0.33 -0.00    +0.005 A  
DOCKED: ATOM     26  C   UNL     1     141.047  77.485 222.529 -0.44 -0.00    +0.005 A  
DOCKED: ATOM     27  C   UNL     1     139.799  79.836 223.395 -0.42 -0.00    +0.021 A  
DOCKED: ATOM     28  C   UNL     1     141.797  78.619 222.807 -0.49 -0.01    +0.021 A  
DOCKED: ATOM     29  C   UNL     1     141.177  79.778 223.235 -0.50 -0.01    +0.041 A  
DOCKED: ATOM     30  Cl  UNL     1     142.120  81.218 223.590 -0.73 +0.01    -0.084 Cl 
DOCKED: ENDBRANCH  23  24
DOCKED: ENDBRANCH  17  19
DOCKED: ENDBRANCH   1  17
DOCKED: TORSDOF 5
DOCKED: TER
DOCKED: ENDMDL
________________________________________________________________________________


    FINAL DOCKED STATE:
    ________________________


Run:   9 / 20
Time taken for this run:   0.030s

DOCKED: MODEL        9
DOCKED: USER    Run = 9
DOCKED: USER
DOCKED: USER    Estimated Free Energy of Binding    =  -8.23 kcal/mol  [=(1)+(2)+(3)-(4)]
DOCKED: USER
DOCKED: USER    (1) Final Intermolecular Energy     =  -9.72 kcal/mol
DOCKED: USER        vdW + Hbond + desolv Energy     =  -9.69 kcal/mol
DOCKED: USER        Electrostatic Energy            =  -0.03 kcal/mol
DOCKED: USER        Moving Ligand-Fixed Receptor    =  -9.72 kcal/mol
DOCKED: USER        Moving Ligand-Moving Receptor   =  +0.00 kcal/mol
DOCKED: USER    (2) Final Total Internal Energy     =  -1.44 kcal/mol
DOCKED: USER    (3) Torsional Free Energy           =  +1.49 kcal/mol
DOCKED: USER    (4) Unbound System's Energy         =  -1.44 kcal/mol
DOCKED: USER
DOCKED: USER
DOCKED: REMARK SMILES O=C(NCC(=O)N1CC[C@H](c2ccc(Cl)cc2)C1)c1ccc2cc(F)ccc2n1
DOCKED: REMARK SMILES IDX 4 1 3 2 2 3 1 4 19 6 20 7 29 8 21 9 28 10 22 11 27 12 23 13
DOCKED: REMARK SMILES IDX 26 14 24 15 25 16 5 17 6 18 7 19 8 20 18 21 9 22 10 23 11 24
DOCKED: REMARK SMILES IDX 12 25 17 26 13 27 16 28 14 29 15 30
DOCKED: REMARK H PARENT 3 5
DOCKED: USER                              x       y       z     vdW  Elec       q    Type
DOCKED: USER                           _______ _______ _______ _____ _____    ______ ____
DOCKED: ROOT
DOCKED: ATOM      1  C   UNL     1     138.256  72.530 221.360 -0.09 -0.05    +0.216 C  
DOCKED: ENDROOT
DOCKED: BRANCH   1   2
DOCKED: ATOM      2  N   UNL     1     138.578  71.839 222.595 -0.09 +0.09    -0.342 N  
DOCKED: ATOM      3  C   UNL     1     139.838  72.097 223.205 -0.14 -0.05    +0.270 C  
DOCKED: ATOM      4  O   UNL     1     140.683  72.904 222.712 -0.61 -0.01    -0.268 OA 
DOCKED: ATOM      5  H   UNL     1     137.876  71.174 222.996 +0.04 -0.04    +0.164 HD 
DOCKED: BRANCH   3   6
DOCKED: ATOM      6  C   UNL     1     140.141  71.384 224.457 -0.38 -0.02    +0.128 A  
DOCKED: ATOM      7  C   UNL     1     141.061  71.933 225.333 -0.22 -0.00    +0.035 A  
DOCKED: ATOM      8  N   UNL     1     139.550  70.214 224.774 -0.22 +0.04    -0.243 NA 
DOCKED: ATOM      9  C   UNL     1     141.412  71.343 226.526 -0.65 -0.00    +0.013 A  
DOCKED: ATOM     10  C   UNL     1     139.864  69.594 225.944 -0.43 -0.01    +0.071 A  
DOCKED: ATOM     11  C   UNL     1     140.784  70.135 226.828 -0.58 -0.00    +0.003 A  
DOCKED: ATOM     12  C   UNL     1     139.269  68.397 226.284 -0.52 -0.00    +0.032 A  
DOCKED: ATOM     13  C   UNL     1     141.124  69.531 228.020 -0.53 -0.01    +0.049 A  
DOCKED: ATOM     14  C   UNL     1     139.594  67.765 227.484 -0.43 -0.01    +0.041 A  
DOCKED: ATOM     15  C   UNL     1     140.519  68.330 228.351 -0.53 -0.03    +0.123 A  
DOCKED: ATOM     16  F   UNL     1     140.828  67.702 229.518 -0.09 +0.06    -0.207 F  
DOCKED: ENDBRANCH   3   6
DOCKED: ENDBRANCH   1   2
DOCKED: BRANCH   1  17
DOCKED: ATOM     17  C   UNL     1     137.407  73.695 221.724 -0.09 -0.07    +0.241 C  
DOCKED: ATOM     18  O   UNL     1     136.302  73.589 222.313 -0.09 +0.07    -0.273 OA 
DOCKED: BRANCH  17  19
DOCKED: ATOM     19  N   UNL     1     137.855  75.004 221.394 -0.06 +0.08    -0.341 N  
DOCKED: ATOM     20  C   UNL     1     137.162  75.990 220.587 -0.05 -0.02    +0.120 C  
DOCKED: ATOM     21  C   UNL     1     139.101  75.652 221.788 -0.24 -0.03    +0.128 C  
DOCKED: ATOM     22  C   UNL     1     137.674  77.350 221.078 -0.10 -0.01    +0.032 C  
DOCKED: ATOM     23  C   UNL     1     138.515  76.975 222.269 -0.28 -0.01    +0.040 C  
DOCKED: BRANCH  23  24
DOCKED: ATOM     24  C   UNL     1     139.503  77.957 222.678 -0.31 +0.01    -0.043 A  
DOCKED: ATOM     25  C   UNL     1     140.847  77.598 222.636 -0.44 -0.00    +0.005 A  
DOCKED: ATOM     26  C   UNL     1     139.118  79.196 223.089 -0.35 -0.00    +0.005 A  
DOCKED: ATOM     27  C   UNL     1     141.826  78.488 223.012 -0.48 -0.01    +0.021 A  
DOCKED: ATOM     28  C   UNL     1     140.094  80.104 223.471 -0.44 -0.00    +0.021 A  
DOCKED: ATOM     29  C   UNL     1     141.430  79.752 223.432 -0.54 -0.01    +0.041 A  
DOCKED: ATOM     30  Cl  UNL     1     142.673  80.897 223.914 -0.76 +0.01    -0.084 Cl 
DOCKED: ENDBRANCH  23  24
DOCKED: ENDBRANCH  17  19
DOCKED: ENDBRANCH   1  17
DOCKED: TORSDOF 5
DOCKED: TER
DOCKED: ENDMDL
________________________________________________________________________________


    FINAL DOCKED STATE:
    ________________________


Run:   10 / 20
Time taken for this run:   0.030s

DOCKED: MODEL        10
DOCKED: USER    Run = 10
DOCKED: USER
DOCKED: USER    Estimated Free Energy of Binding    =  -8.62 kcal/mol  [=(1)+(2)+(3)-(4)]
DOCKED: USER
DOCKED: USER    (1) Final Intermolecular Energy     = -10.12 kcal/mol
DOCKED: USER        vdW + Hbond + desolv Energy     = -10.08 kcal/mol
DOCKED: USER        Electrostatic Energy            =  -0.04 kcal/mol
DOCKED: USER        Moving Ligand-Fixed Receptor    = -10.12 kcal/mol
DOCKED: USER        Moving Ligand-Moving Receptor   =  +0.00 kcal/mol
DOCKED: USER    (2) Final Total Internal Energy     =  -1.29 kcal/mol
DOCKED: USER    (3) Torsional Free Energy           =  +1.49 kcal/mol
DOCKED: USER    (4) Unbound System's Energy         =  -1.29 kcal/mol
DOCKED: USER
DOCKED: USER
DOCKED: REMARK SMILES O=C(NCC(=O)N1CC[C@H](c2ccc(Cl)cc2)C1)c1ccc2cc(F)ccc2n1
DOCKED: REMARK SMILES IDX 4 1 3 2 2 3 1 4 19 6 20 7 29 8 21 9 28 10 22 11 27 12 23 13
DOCKED: REMARK SMILES IDX 26 14 24 15 25 16 5 17 6 18 7 19 8 20 18 21 9 22 10 23 11 24
DOCKED: REMARK SMILES IDX 12 25 17 26 13 27 16 28 14 29 15 30
DOCKED: REMARK H PARENT 3 5
DOCKED: USER                              x       y       z     vdW  Elec       q    Type
DOCKED: USER                           _______ _______ _______ _____ _____    ______ ____
DOCKED: ROOT
DOCKED: ATOM      1  C   UNL     1     137.245  72.912 221.335 -0.06 -0.05    +0.216 C  
DOCKED: ENDROOT
DOCKED: BRANCH   1   2
DOCKED: ATOM      2  N   UNL     1     137.811  72.432 222.583 -0.05 +0.11    -0.342 N  
DOCKED: ATOM      3  C   UNL     1     138.897  71.515 222.524 -0.15 -0.06    +0.270 C  
DOCKED: ATOM      4  O   UNL     1     139.387  71.105 221.427 -0.08 +0.05    -0.268 OA 
DOCKED: ATOM      5  H   UNL     1     137.402  72.775 223.484 -0.51 -0.09    +0.164 HD 
DOCKED: BRANCH   3   6
DOCKED: ATOM      6  C   UNL     1     139.454  71.043 223.803 -0.31 -0.03    +0.128 A  
DOCKED: ATOM      7  C   UNL     1     140.316  71.869 224.502 -0.36 -0.01    +0.035 A  
DOCKED: ATOM      8  N   UNL     1     139.150  69.831 224.310 -0.18 +0.04    -0.243 NA 
DOCKED: ATOM      9  C   UNL     1     140.888  71.518 225.704 -0.60 -0.00    +0.013 A  
DOCKED: ATOM     10  C   UNL     1     139.691  69.441 225.497 -0.39 -0.01    +0.071 A  
DOCKED: ATOM     11  C   UNL     1     140.555  70.260 226.205 -0.56 -0.00    +0.003 A  
DOCKED: ATOM     12  C   UNL     1     139.390  68.205 226.030 -0.54 -0.00    +0.032 A  
DOCKED: ATOM     13  C   UNL     1     141.119  69.894 227.409 -0.51 -0.01    +0.049 A  
DOCKED: ATOM     14  C   UNL     1     139.946  67.809 227.246 -0.59 -0.01    +0.041 A  
DOCKED: ATOM     15  C   UNL     1     140.809  68.651 227.935 -0.54 -0.03    +0.123 A  
DOCKED: ATOM     16  F   UNL     1     141.346  68.252 229.119 -0.17 +0.05    -0.207 F  
DOCKED: ENDBRANCH   3   6
DOCKED: ENDBRANCH   1   2
DOCKED: BRANCH   1  17
DOCKED: ATOM     17  C   UNL     1     137.435  74.386 221.312 -0.08 -0.06    +0.241 C  
DOCKED: ATOM     18  O   UNL     1     136.539  75.194 220.962 -0.03 +0.05    -0.273 OA 
DOCKED: BRANCH  17  19
DOCKED: ATOM     19  N   UNL     1     138.693  74.926 221.704 -0.12 +0.08    -0.341 N  
DOCKED: ATOM     20  C   UNL     1     140.007  74.475 221.288 -0.23 -0.02    +0.120 C  
DOCKED: ATOM     21  C   UNL     1     138.947  76.045 222.604 -0.21 -0.03    +0.128 C  
DOCKED: ATOM     22  C   UNL     1     140.914  75.707 221.401 -0.33 -0.01    +0.032 C  
DOCKED: ATOM     23  C   UNL     1     139.938  76.806 221.728 -0.31 -0.01    +0.040 C  
DOCKED: BRANCH  23  24
DOCKED: ATOM     24  C   UNL     1     140.504  77.989 222.349 -0.38 +0.01    -0.043 A  
DOCKED: ATOM     25  C   UNL     1     141.799  78.363 221.999 -0.35 -0.00    +0.005 A  
DOCKED: ATOM     26  C   UNL     1     139.783  78.711 223.249 -0.34 -0.00    +0.005 A  
DOCKED: ATOM     27  C   UNL     1     142.385  79.475 222.556 -0.56 -0.01    +0.021 A  
DOCKED: ATOM     28  C   UNL     1     140.361  79.835 223.819 -0.45 -0.00    +0.021 A  
DOCKED: ATOM     29  C   UNL     1     141.647  80.210 223.475 -0.56 -0.01    +0.041 A  
DOCKED: ATOM     30  Cl  UNL     1     142.387  81.633 224.193 -0.53 +0.01    -0.084 Cl 
DOCKED: ENDBRANCH  23  24
DOCKED: ENDBRANCH  17  19
DOCKED: ENDBRANCH   1  17
DOCKED: TORSDOF 5
DOCKED: TER
DOCKED: ENDMDL
________________________________________________________________________________


    FINAL DOCKED STATE:
    ________________________


Run:   11 / 20
Time taken for this run:   0.030s

DOCKED: MODEL        11
DOCKED: USER    Run = 11
DOCKED: USER
DOCKED: USER    Estimated Free Energy of Binding    =  -8.62 kcal/mol  [=(1)+(2)+(3)-(4)]
DOCKED: USER
DOCKED: USER    (1) Final Intermolecular Energy     = -10.11 kcal/mol
DOCKED: USER        vdW + Hbond + desolv Energy     = -10.08 kcal/mol
DOCKED: USER        Electrostatic Energy            =  -0.03 kcal/mol
DOCKED: USER        Moving Ligand-Fixed Receptor    = -10.11 kcal/mol
DOCKED: USER        Moving Ligand-Moving Receptor   =  +0.00 kcal/mol
DOCKED: USER    (2) Final Total Internal Energy     =  -1.29 kcal/mol
DOCKED: USER    (3) Torsional Free Energy           =  +1.49 kcal/mol
DOCKED: USER    (4) Unbound System's Energy         =  -1.29 kcal/mol
DOCKED: USER
DOCKED: USER
DOCKED: REMARK SMILES O=C(NCC(=O)N1CC[C@H](c2ccc(Cl)cc2)C1)c1ccc2cc(F)ccc2n1
DOCKED: REMARK SMILES IDX 4 1 3 2 2 3 1 4 19 6 20 7 29 8 21 9 28 10 22 11 27 12 23 13
DOCKED: REMARK SMILES IDX 26 14 24 15 25 16 5 17 6 18 7 19 8 20 18 21 9 22 10 23 11 24
DOCKED: REMARK SMILES IDX 12 25 17 26 13 27 16 28 14 29 15 30
DOCKED: REMARK H PARENT 3 5
DOCKED: USER                              x       y       z     vdW  Elec       q    Type
DOCKED: USER                           _______ _______ _______ _____ _____    ______ ____
DOCKED: ROOT
DOCKED: ATOM      1  C   UNL     1     137.192  72.950 221.412 -0.07 -0.05    +0.216 C  
DOCKED: ENDROOT
DOCKED: BRANCH   1   2
DOCKED: ATOM      2  N   UNL     1     137.762  72.442 222.646 -0.04 +0.12    -0.342 N  
DOCKED: ATOM      3  C   UNL     1     138.885  71.571 222.563 -0.15 -0.06    +0.270 C  
DOCKED: ATOM      4  O   UNL     1     139.403  71.227 221.457 -0.08 +0.05    -0.268 OA 
DOCKED: ATOM      5  H   UNL     1     137.330  72.731 223.555 -0.52 -0.09    +0.164 HD 
DOCKED: BRANCH   3   6
DOCKED: ATOM      6  C   UNL     1     139.446  71.070 223.829 -0.31 -0.03    +0.128 A  
DOCKED: ATOM      7  C   UNL     1     140.372  71.845 224.503 -0.36 -0.01    +0.035 A  
DOCKED: ATOM      8  N   UNL     1     139.084  69.878 224.347 -0.18 +0.04    -0.243 NA 
DOCKED: ATOM      9  C   UNL     1     140.954  71.463 225.691 -0.60 -0.00    +0.013 A  
DOCKED: ATOM     10  C   UNL     1     139.632  69.458 225.521 -0.39 -0.01    +0.071 A  
DOCKED: ATOM     11  C   UNL     1     140.561  70.227 226.204 -0.55 -0.00    +0.003 A  
DOCKED: ATOM     12  C   UNL     1     139.273  68.243 226.066 -0.53 -0.00    +0.032 A  
DOCKED: ATOM     13  C   UNL     1     141.133  69.830 227.394 -0.50 -0.01    +0.049 A  
DOCKED: ATOM     14  C   UNL     1     139.837  67.817 227.268 -0.57 -0.01    +0.041 A  
DOCKED: ATOM     15  C   UNL     1     140.765  68.608 227.932 -0.55 -0.03    +0.123 A  
DOCKED: ATOM     16  F   UNL     1     141.307  68.180 229.103 -0.18 +0.05    -0.207 F  
DOCKED: ENDBRANCH   3   6
DOCKED: ENDBRANCH   1   2
DOCKED: BRANCH   1  17
DOCKED: ATOM     17  C   UNL     1     137.394  74.423 221.415 -0.09 -0.06    +0.241 C  
DOCKED: ATOM     18  O   UNL     1     136.503  75.245 221.085 -0.04 +0.05    -0.273 OA 
DOCKED: BRANCH  17  19
DOCKED: ATOM     19  N   UNL     1     138.658  74.945 221.811 -0.12 +0.08    -0.341 N  
DOCKED: ATOM     20  C   UNL     1     139.967  74.457 221.422 -0.24 -0.02    +0.120 C  
DOCKED: ATOM     21  C   UNL     1     138.925  76.078 222.689 -0.19 -0.03    +0.128 C  
DOCKED: ATOM     22  C   UNL     1     140.898  75.672 221.519 -0.34 -0.01    +0.032 C  
DOCKED: ATOM     23  C   UNL     1     139.942  76.798 221.809 -0.32 -0.01    +0.040 C  
DOCKED: BRANCH  23  24
DOCKED: ATOM     24  C   UNL     1     140.526  77.983 222.412 -0.39 +0.01    -0.043 A  
DOCKED: ATOM     25  C   UNL     1     141.828  78.329 222.060 -0.32 -0.00    +0.005 A  
DOCKED: ATOM     26  C   UNL     1     139.814  78.732 223.296 -0.34 -0.00    +0.005 A  
DOCKED: ATOM     27  C   UNL     1     142.431  79.441 222.599 -0.56 -0.01    +0.021 A  
DOCKED: ATOM     28  C   UNL     1     140.409  79.857 223.848 -0.45 -0.00    +0.021 A  
DOCKED: ATOM     29  C   UNL     1     141.701  80.204 223.502 -0.56 -0.01    +0.041 A  
DOCKED: ATOM     30  Cl  UNL     1     142.463  81.628 224.197 -0.53 +0.01    -0.084 Cl 
DOCKED: ENDBRANCH  23  24
DOCKED: ENDBRANCH  17  19
DOCKED: ENDBRANCH   1  17
DOCKED: TORSDOF 5
DOCKED: TER
DOCKED: ENDMDL
________________________________________________________________________________


    FINAL DOCKED STATE:
    ________________________


Run:   12 / 20
Time taken for this run:   0.030s

DOCKED: MODEL        12
DOCKED: USER    Run = 12
DOCKED: USER
DOCKED: USER    Estimated Free Energy of Binding    =  -7.90 kcal/mol  [=(1)+(2)+(3)-(4)]
DOCKED: USER
DOCKED: USER    (1) Final Intermolecular Energy     =  -9.39 kcal/mol
DOCKED: USER        vdW + Hbond + desolv Energy     =  -9.35 kcal/mol
DOCKED: USER        Electrostatic Energy            =  -0.04 kcal/mol
DOCKED: USER        Moving Ligand-Fixed Receptor    =  -9.39 kcal/mol
DOCKED: USER        Moving Ligand-Moving Receptor   =  +0.00 kcal/mol
DOCKED: USER    (2) Final Total Internal Energy     =  -1.61 kcal/mol
DOCKED: USER    (3) Torsional Free Energy           =  +1.49 kcal/mol
DOCKED: USER    (4) Unbound System's Energy         =  -1.61 kcal/mol
DOCKED: USER
DOCKED: USER
DOCKED: REMARK SMILES O=C(NCC(=O)N1CC[C@H](c2ccc(Cl)cc2)C1)c1ccc2cc(F)ccc2n1
DOCKED: REMARK SMILES IDX 4 1 3 2 2 3 1 4 19 6 20 7 29 8 21 9 28 10 22 11 27 12 23 13
DOCKED: REMARK SMILES IDX 26 14 24 15 25 16 5 17 6 18 7 19 8 20 18 21 9 22 10 23 11 24
DOCKED: REMARK SMILES IDX 12 25 17 26 13 27 16 28 14 29 15 30
DOCKED: REMARK H PARENT 3 5
DOCKED: USER                              x       y       z     vdW  Elec       q    Type
DOCKED: USER                           _______ _______ _______ _____ _____    ______ ____
DOCKED: ROOT
DOCKED: ATOM      1  C   UNL     1     138.531  72.324 221.042 -0.07 -0.04    +0.216 C  
DOCKED: ENDROOT
DOCKED: BRANCH   1   2
DOCKED: ATOM      2  N   UNL     1     138.807  71.651 222.298 -0.08 +0.08    -0.342 N  
DOCKED: ATOM      3  C   UNL     1     139.916  72.094 223.072 -0.20 -0.05    +0.270 C  
DOCKED: ATOM      4  O   UNL     1     140.666  73.050 222.706 -0.62 -0.01    -0.268 OA 
DOCKED: ATOM      5  H   UNL     1     138.183  70.864 222.593 +0.05 -0.03    +0.164 HD 
DOCKED: BRANCH   3   6
DOCKED: ATOM      6  C   UNL     1     140.175  71.397 224.343 -0.38 -0.02    +0.128 A  
DOCKED: ATOM      7  C   UNL     1     141.030  71.977 225.262 -0.08 -0.00    +0.035 A  
DOCKED: ATOM      8  N   UNL     1     139.605  70.209 224.634 -0.21 +0.04    -0.243 NA 
DOCKED: ATOM      9  C   UNL     1     141.336  71.403 226.475 -0.67 -0.00    +0.013 A  
DOCKED: ATOM     10  C   UNL     1     139.876  69.604 225.823 -0.42 -0.01    +0.071 A  
DOCKED: ATOM     11  C   UNL     1     140.731  70.177 226.750 -0.58 -0.00    +0.003 A  
DOCKED: ATOM     12  C   UNL     1     139.301  68.391 226.138 -0.52 -0.00    +0.032 A  
DOCKED: ATOM     13  C   UNL     1     141.026  69.589 227.962 -0.56 -0.01    +0.049 A  
DOCKED: ATOM     14  C   UNL     1     139.583  67.774 227.356 -0.49 -0.01    +0.041 A  
DOCKED: ATOM     15  C   UNL     1     140.443  68.371 228.268 -0.53 -0.03    +0.123 A  
DOCKED: ATOM     16  F   UNL     1     140.709  67.758 229.452 -0.13 +0.06    -0.207 F  
DOCKED: ENDBRANCH   3   6
DOCKED: ENDBRANCH   1   2
DOCKED: BRANCH   1  17
DOCKED: ATOM     17  C   UNL     1     137.231  73.028 221.203 -0.06 -0.05    +0.241 C  
DOCKED: ATOM     18  O   UNL     1     136.117  72.466 221.059 -0.02 +0.05    -0.273 OA 
DOCKED: BRANCH  17  19
DOCKED: ATOM     19  N   UNL     1     137.233  74.411 221.539 -0.05 +0.08    -0.341 N  
DOCKED: ATOM     20  C   UNL     1     136.214  75.136 222.273 -0.14 -0.03    +0.120 C  
DOCKED: ATOM     21  C   UNL     1     138.250  75.408 221.226 -0.14 -0.03    +0.128 C  
DOCKED: ATOM     22  C   UNL     1     136.946  76.312 222.932 -0.25 -0.01    +0.032 C  
DOCKED: ATOM     23  C   UNL     1     138.389  76.020 222.617 -0.25 -0.01    +0.040 C  
DOCKED: BRANCH  23  24
DOCKED: ATOM     24  C   UNL     1     139.293  77.154 222.688 -0.26 +0.01    -0.043 A  
DOCKED: ATOM     25  C   UNL     1     138.779  78.383 223.092 -0.29 -0.00    +0.005 A  
DOCKED: ATOM     26  C   UNL     1     140.607  77.011 222.367 -0.43 -0.00    +0.005 A  
DOCKED: ATOM     27  C   UNL     1     139.589  79.490 223.178 -0.38 -0.00    +0.021 A  
DOCKED: ATOM     28  C   UNL     1     141.437  78.120 222.449 -0.42 -0.01    +0.021 A  
DOCKED: ATOM     29  C   UNL     1     140.931  79.342 222.850 -0.44 -0.01    +0.041 A  
DOCKED: ATOM     30  Cl  UNL     1     141.975  80.752 222.956 -0.72 +0.02    -0.084 Cl 
DOCKED: ENDBRANCH  23  24
DOCKED: ENDBRANCH  17  19
DOCKED: ENDBRANCH   1  17
DOCKED: TORSDOF 5
DOCKED: TER
DOCKED: ENDMDL
________________________________________________________________________________


    FINAL DOCKED STATE:
    ________________________


Run:   13 / 20
Time taken for this run:   0.030s

DOCKED: MODEL        13
DOCKED: USER    Run = 13
DOCKED: USER
DOCKED: USER    Estimated Free Energy of Binding    =  -8.64 kcal/mol  [=(1)+(2)+(3)-(4)]
DOCKED: USER
DOCKED: USER    (1) Final Intermolecular Energy     = -10.14 kcal/mol
DOCKED: USER        vdW + Hbond + desolv Energy     = -10.08 kcal/mol
DOCKED: USER        Electrostatic Energy            =  -0.05 kcal/mol
DOCKED: USER        Moving Ligand-Fixed Receptor    = -10.14 kcal/mol
DOCKED: USER        Moving Ligand-Moving Receptor   =  +0.00 kcal/mol
DOCKED: USER    (2) Final Total Internal Energy     =  -1.31 kcal/mol
DOCKED: USER    (3) Torsional Free Energy           =  +1.49 kcal/mol
DOCKED: USER    (4) Unbound System's Energy         =  -1.31 kcal/mol
DOCKED: USER
DOCKED: USER
DOCKED: REMARK SMILES O=C(NCC(=O)N1CC[C@H](c2ccc(Cl)cc2)C1)c1ccc2cc(F)ccc2n1
DOCKED: REMARK SMILES IDX 4 1 3 2 2 3 1 4 19 6 20 7 29 8 21 9 28 10 22 11 27 12 23 13
DOCKED: REMARK SMILES IDX 26 14 24 15 25 16 5 17 6 18 7 19 8 20 18 21 9 22 10 23 11 24
DOCKED: REMARK SMILES IDX 12 25 17 26 13 27 16 28 14 29 15 30
DOCKED: REMARK H PARENT 3 5
DOCKED: USER                              x       y       z     vdW  Elec       q    Type
DOCKED: USER                           _______ _______ _______ _____ _____    ______ ____
DOCKED: ROOT
DOCKED: ATOM      1  C   UNL     1     138.712  73.671 221.131 -0.11 -0.05    +0.216 C  
DOCKED: ENDROOT
DOCKED: BRANCH   1   2
DOCKED: ATOM      2  N   UNL     1     139.033  72.937 222.342 -0.10 +0.09    -0.342 N  
DOCKED: ATOM      3  C   UNL     1     138.996  71.515 222.300 -0.14 -0.06    +0.270 C  
DOCKED: ATOM      4  O   UNL     1     138.695  70.870 221.250 -0.05 +0.05    -0.268 OA 
DOCKED: ATOM      5  H   UNL     1     139.281  73.476 223.204 -0.48 -0.07    +0.164 HD 
DOCKED: BRANCH   3   6
DOCKED: ATOM      6  C   UNL     1     139.326  70.794 223.541 -0.27 -0.02    +0.128 A  
DOCKED: ATOM      7  C   UNL     1     139.048  69.442 223.622 -0.26 -0.01    +0.035 A  
DOCKED: ATOM      8  N   UNL     1     139.890  71.414 224.598 -0.28 +0.05    -0.243 NA 
DOCKED: ATOM      9  C   UNL     1     139.319  68.681 224.737 -0.36 -0.00    +0.013 A  
DOCKED: ATOM     10  C   UNL     1     140.177  70.703 225.723 -0.49 -0.01    +0.071 A  
DOCKED: ATOM     11  C   UNL     1     139.902  69.348 225.814 -0.47 -0.00    +0.003 A  
DOCKED: ATOM     12  C   UNL     1     140.754  71.320 226.813 -0.68 -0.01    +0.032 A  
DOCKED: ATOM     13  C   UNL     1     140.180  68.600 226.939 -0.59 -0.01    +0.049 A  
DOCKED: ATOM     14  C   UNL     1     141.046  70.588 227.963 -0.62 -0.01    +0.041 A  
DOCKED: ATOM     15  C   UNL     1     140.760  69.231 228.028 -0.52 -0.03    +0.123 A  
DOCKED: ATOM     16  F   UNL     1     141.049  68.529 229.156 -0.11 +0.05    -0.207 F  
DOCKED: ENDBRANCH   3   6
DOCKED: ENDBRANCH   1   2
DOCKED: BRANCH   1  17
DOCKED: ATOM     17  C   UNL     1     139.925  73.641 220.271 -0.07 -0.05    +0.241 C  
DOCKED: ATOM     18  O   UNL     1     140.142  72.751 219.411 -0.02 +0.05    -0.273 OA 
DOCKED: BRANCH  17  19
DOCKED: ATOM     19  N   UNL     1     140.899  74.667 220.418 -0.07 +0.08    -0.341 N  
DOCKED: ATOM     20  C   UNL     1     141.932  75.038 219.469 -0.16 -0.04    +0.120 C  
DOCKED: ATOM     21  C   UNL     1     141.083  75.575 221.545 -0.30 -0.04    +0.128 C  
DOCKED: ATOM     22  C   UNL     1     142.229  76.516 219.748 -0.31 -0.02    +0.032 C  
DOCKED: ATOM     23  C   UNL     1     141.174  76.879 220.759 -0.28 -0.02    +0.040 C  
DOCKED: BRANCH  23  24
DOCKED: ATOM     24  C   UNL     1     141.454  78.051 221.570 -0.34 +0.02    -0.043 A  
DOCKED: ATOM     25  C   UNL     1     141.342  77.939 222.953 -0.46 -0.00    +0.005 A  
DOCKED: ATOM     26  C   UNL     1     141.816  79.225 220.986 -0.35 -0.00    +0.005 A  
DOCKED: ATOM     27  C   UNL     1     141.596  79.016 223.769 -0.60 -0.01    +0.021 A  
DOCKED: ATOM     28  C   UNL     1     142.075  80.320 221.797 -0.46 -0.01    +0.021 A  
DOCKED: ATOM     29  C   UNL     1     141.965  80.214 223.171 -0.57 -0.01    +0.041 A  
DOCKED: ATOM     30  Cl  UNL     1     142.291  81.597 224.205 -0.55 +0.01    -0.084 Cl 
DOCKED: ENDBRANCH  23  24
DOCKED: ENDBRANCH  17  19
DOCKED: ENDBRANCH   1  17
DOCKED: TORSDOF 5
DOCKED: TER
DOCKED: ENDMDL
________________________________________________________________________________


    FINAL DOCKED STATE:
    ________________________


Run:   14 / 20
Time taken for this run:   0.030s

DOCKED: MODEL        14
DOCKED: USER    Run = 14
DOCKED: USER
DOCKED: USER    Estimated Free Energy of Binding    =  -8.17 kcal/mol  [=(1)+(2)+(3)-(4)]
DOCKED: USER
DOCKED: USER    (1) Final Intermolecular Energy     =  -9.66 kcal/mol
DOCKED: USER        vdW + Hbond + desolv Energy     =  -9.63 kcal/mol
DOCKED: USER        Electrostatic Energy            =  -0.03 kcal/mol
DOCKED: USER        Moving Ligand-Fixed Receptor    =  -9.66 kcal/mol
DOCKED: USER        Moving Ligand-Moving Receptor   =  +0.00 kcal/mol
DOCKED: USER    (2) Final Total Internal Energy     =  -1.28 kcal/mol
DOCKED: USER    (3) Torsional Free Energy           =  +1.49 kcal/mol
DOCKED: USER    (4) Unbound System's Energy         =  -1.28 kcal/mol
DOCKED: USER
DOCKED: USER
DOCKED: REMARK SMILES O=C(NCC(=O)N1CC[C@H](c2ccc(Cl)cc2)C1)c1ccc2cc(F)ccc2n1
DOCKED: REMARK SMILES IDX 4 1 3 2 2 3 1 4 19 6 20 7 29 8 21 9 28 10 22 11 27 12 23 13
DOCKED: REMARK SMILES IDX 26 14 24 15 25 16 5 17 6 18 7 19 8 20 18 21 9 22 10 23 11 24
DOCKED: REMARK SMILES IDX 12 25 17 26 13 27 16 28 14 29 15 30
DOCKED: REMARK H PARENT 3 5
DOCKED: USER                              x       y       z     vdW  Elec       q    Type
DOCKED: USER                           _______ _______ _______ _____ _____    ______ ____
DOCKED: ROOT
DOCKED: ATOM      1  C   UNL     1     137.394  73.822 220.798 -0.05 -0.05    +0.216 C  
DOCKED: ENDROOT
DOCKED: BRANCH   1   2
DOCKED: ATOM      2  N   UNL     1     138.062  75.095 221.000 -0.04 +0.08    -0.342 N  
DOCKED: ATOM      3  C   UNL     1     139.347  75.094 221.610 -0.19 -0.06    +0.270 C  
DOCKED: ATOM      4  O   UNL     1     139.927  74.028 221.980 -0.80 +0.03    -0.268 OA 
DOCKED: ATOM      5  H   UNL     1     137.578  75.971 220.692 +0.03 -0.03    +0.164 HD 
DOCKED: BRANCH   3   6
DOCKED: ATOM      6  C   UNL     1     140.005  76.397 221.804 -0.29 -0.03    +0.128 A  
DOCKED: ATOM      7  C   UNL     1     141.149  76.683 221.081 -0.30 -0.02    +0.035 A  
DOCKED: ATOM      8  N   UNL     1     139.525  77.317 222.666 -0.19 +0.05    -0.243 NA 
DOCKED: ATOM      9  C   UNL     1     141.835  77.871 221.193 -0.27 -0.01    +0.013 A  
DOCKED: ATOM     10  C   UNL     1     140.169  78.508 222.810 -0.36 -0.02    +0.071 A  
DOCKED: ATOM     11  C   UNL     1     141.316  78.804 222.090 -0.43 -0.00    +0.003 A  
DOCKED: ATOM     12  C   UNL     1     139.692  79.461 223.685 -0.42 -0.00    +0.032 A  
DOCKED: ATOM     13  C   UNL     1     141.990  80.000 222.214 -0.49 -0.02    +0.049 A  
DOCKED: ATOM     14  C   UNL     1     140.355  80.679 223.830 -0.37 -0.01    +0.041 A  
DOCKED: ATOM     15  C   UNL     1     141.502  80.949 223.096 -0.45 -0.02    +0.123 A  
DOCKED: ATOM     16  F   UNL     1     142.140  82.141 223.247 -0.08 +0.02    -0.207 F  
DOCKED: ENDBRANCH   3   6
DOCKED: ENDBRANCH   1   2
DOCKED: BRANCH   1  17
DOCKED: ATOM     17  C   UNL     1     137.173  73.230 222.144 -0.07 -0.07    +0.241 C  
DOCKED: ATOM     18  O   UNL     1     136.411  73.735 223.006 -0.11 +0.09    -0.273 OA 
DOCKED: BRANCH  17  19
DOCKED: ATOM     19  N   UNL     1     137.853  72.028 222.489 -0.07 +0.09    -0.341 N  
DOCKED: ATOM     20  C   UNL     1     138.693  71.219 221.626 -0.11 -0.02    +0.120 C  
DOCKED: ATOM     21  C   UNL     1     137.864  71.341 223.775 -0.15 -0.03    +0.128 C  
DOCKED: ATOM     22  C   UNL     1     139.671  70.504 222.567 -0.20 -0.01    +0.032 C  
DOCKED: ATOM     23  C   UNL     1     139.370  71.137 223.899 -0.36 -0.01    +0.040 C  
DOCKED: BRANCH  23  24
DOCKED: ATOM     24  C   UNL     1     139.780  70.377 225.066 -0.42 +0.01    -0.043 A  
DOCKED: ATOM     25  C   UNL     1     140.487  71.036 226.068 -0.60 -0.00    +0.005 A  
DOCKED: ATOM     26  C   UNL     1     139.477  69.055 225.172 -0.42 -0.00    +0.005 A  
DOCKED: ATOM     27  C   UNL     1     140.900  70.365 227.195 -0.59 -0.00    +0.021 A  
DOCKED: ATOM     28  C   UNL     1     139.887  68.365 226.303 -0.58 -0.00    +0.021 A  
DOCKED: ATOM     29  C   UNL     1     140.589  69.016 227.301 -0.59 -0.01    +0.041 A  
DOCKED: ATOM     30  Cl  UNL     1     141.112  68.149 228.738 -0.68 +0.02    -0.084 Cl 
DOCKED: ENDBRANCH  23  24
DOCKED: ENDBRANCH  17  19
DOCKED: ENDBRANCH   1  17
DOCKED: TORSDOF 5
DOCKED: TER
DOCKED: ENDMDL
________________________________________________________________________________


    FINAL DOCKED STATE:
    ________________________


Run:   15 / 20
Time taken for this run:   0.030s

DOCKED: MODEL        15
DOCKED: USER    Run = 15
DOCKED: USER
DOCKED: USER    Estimated Free Energy of Binding    =  -8.61 kcal/mol  [=(1)+(2)+(3)-(4)]
DOCKED: USER
DOCKED: USER    (1) Final Intermolecular Energy     = -10.10 kcal/mol
DOCKED: USER        vdW + Hbond + desolv Energy     = -10.06 kcal/mol
DOCKED: USER        Electrostatic Energy            =  -0.04 kcal/mol
DOCKED: USER        Moving Ligand-Fixed Receptor    = -10.10 kcal/mol
DOCKED: USER        Moving Ligand-Moving Receptor   =  +0.00 kcal/mol
DOCKED: USER    (2) Final Total Internal Energy     =  -1.29 kcal/mol
DOCKED: USER    (3) Torsional Free Energy           =  +1.49 kcal/mol
DOCKED: USER    (4) Unbound System's Energy         =  -1.29 kcal/mol
DOCKED: USER
DOCKED: USER
DOCKED: REMARK SMILES O=C(NCC(=O)N1CC[C@H](c2ccc(Cl)cc2)C1)c1ccc2cc(F)ccc2n1
DOCKED: REMARK SMILES IDX 4 1 3 2 2 3 1 4 19 6 20 7 29 8 21 9 28 10 22 11 27 12 23 13
DOCKED: REMARK SMILES IDX 26 14 24 15 25 16 5 17 6 18 7 19 8 20 18 21 9 22 10 23 11 24
DOCKED: REMARK SMILES IDX 12 25 17 26 13 27 16 28 14 29 15 30
DOCKED: REMARK H PARENT 3 5
DOCKED: USER                              x       y       z     vdW  Elec       q    Type
DOCKED: USER                           _______ _______ _______ _____ _____    ______ ____
DOCKED: ROOT
DOCKED: ATOM      1  C   UNL     1     138.770  73.553 221.240 -0.12 -0.05    +0.216 C  
DOCKED: ENDROOT
DOCKED: BRANCH   1   2
DOCKED: ATOM      2  N   UNL     1     139.083  72.787 222.433 -0.08 +0.09    -0.342 N  
DOCKED: ATOM      3  C   UNL     1     138.965  71.370 222.376 -0.14 -0.06    +0.270 C  
DOCKED: ATOM      4  O   UNL     1     138.600  70.756 221.328 -0.05 +0.05    -0.268 OA 
DOCKED: ATOM      5  H   UNL     1     139.383  73.300 223.295 -0.45 -0.07    +0.164 HD 
DOCKED: BRANCH   3   6
DOCKED: ATOM      6  C   UNL     1     139.288  70.615 223.599 -0.26 -0.02    +0.128 A  
DOCKED: ATOM      7  C   UNL     1     138.980  69.268 223.654 -0.26 -0.01    +0.035 A  
DOCKED: ATOM      8  N   UNL     1     139.873  71.200 224.665 -0.28 +0.05    -0.243 NA 
DOCKED: ATOM      9  C   UNL     1     139.241  68.478 224.751 -0.38 -0.00    +0.013 A  
DOCKED: ATOM     10  C   UNL     1     140.152  70.459 225.772 -0.47 -0.01    +0.071 A  
DOCKED: ATOM     11  C   UNL     1     139.847  69.108 225.837 -0.48 -0.00    +0.003 A  
DOCKED: ATOM     12  C   UNL     1     140.751  71.040 226.870 -0.65 -0.01    +0.032 A  
DOCKED: ATOM     13  C   UNL     1     140.117  68.332 226.944 -0.61 -0.01    +0.049 A  
DOCKED: ATOM     14  C   UNL     1     141.034  70.277 228.003 -0.58 -0.01    +0.041 A  
DOCKED: ATOM     15  C   UNL     1     140.718  68.926 228.041 -0.54 -0.03    +0.123 A  
DOCKED: ATOM     16  F   UNL     1     140.999  68.194 229.152 -0.16 +0.05    -0.207 F  
DOCKED: ENDBRANCH   3   6
DOCKED: ENDBRANCH   1   2
DOCKED: BRANCH   1  17
DOCKED: ATOM     17  C   UNL     1     139.985  73.535 220.383 -0.08 -0.05    +0.241 C  
DOCKED: ATOM     18  O   UNL     1     140.255  72.605 219.584 -0.02 +0.05    -0.273 OA 
DOCKED: BRANCH  17  19
DOCKED: ATOM     19  N   UNL     1     140.899  74.623 220.462 -0.08 +0.08    -0.341 N  
DOCKED: ATOM     20  C   UNL     1     141.760  75.122 219.406 -0.14 -0.04    +0.120 C  
DOCKED: ATOM     21  C   UNL     1     141.178  75.479 221.609 -0.26 -0.04    +0.128 C  
DOCKED: ATOM     22  C   UNL     1     141.993  76.602 219.737 -0.28 -0.02    +0.032 C  
DOCKED: ATOM     23  C   UNL     1     141.069  76.828 220.905 -0.29 -0.02    +0.040 C  
DOCKED: BRANCH  23  24
DOCKED: ATOM     24  C   UNL     1     141.381  77.972 221.743 -0.35 +0.02    -0.043 A  
DOCKED: ATOM     25  C   UNL     1     141.838  79.135 221.130 -0.36 -0.00    +0.005 A  
DOCKED: ATOM     26  C   UNL     1     141.226  77.901 223.093 -0.46 -0.00    +0.005 A  
DOCKED: ATOM     27  C   UNL     1     142.147  80.248 221.876 -0.48 -0.01    +0.021 A  
DOCKED: ATOM     28  C   UNL     1     141.535  79.017 223.858 -0.60 -0.01    +0.021 A  
DOCKED: ATOM     29  C   UNL     1     141.989  80.174 223.253 -0.58 -0.01    +0.041 A  
DOCKED: ATOM     30  Cl  UNL     1     142.381  81.592 224.215 -0.54 +0.01    -0.084 Cl 
DOCKED: ENDBRANCH  23  24
DOCKED: ENDBRANCH  17  19
DOCKED: ENDBRANCH   1  17
DOCKED: TORSDOF 5
DOCKED: TER
DOCKED: ENDMDL
________________________________________________________________________________


    FINAL DOCKED STATE:
    ________________________


Run:   16 / 20
Time taken for this run:   0.030s

DOCKED: MODEL        16
DOCKED: USER    Run = 16
DOCKED: USER
DOCKED: USER    Estimated Free Energy of Binding    =  -8.57 kcal/mol  [=(1)+(2)+(3)-(4)]
DOCKED: USER
DOCKED: USER    (1) Final Intermolecular Energy     = -10.07 kcal/mol
DOCKED: USER        vdW + Hbond + desolv Energy     = -10.04 kcal/mol
DOCKED: USER        Electrostatic Energy            =  -0.03 kcal/mol
DOCKED: USER        Moving Ligand-Fixed Receptor    = -10.07 kcal/mol
DOCKED: USER        Moving Ligand-Moving Receptor   =  +0.00 kcal/mol
DOCKED: USER    (2) Final Total Internal Energy     =  -1.34 kcal/mol
DOCKED: USER    (3) Torsional Free Energy           =  +1.49 kcal/mol
DOCKED: USER    (4) Unbound System's Energy         =  -1.34 kcal/mol
DOCKED: USER
DOCKED: USER
DOCKED: REMARK SMILES O=C(NCC(=O)N1CC[C@H](c2ccc(Cl)cc2)C1)c1ccc2cc(F)ccc2n1
DOCKED: REMARK SMILES IDX 4 1 3 2 2 3 1 4 19 6 20 7 29 8 21 9 28 10 22 11 27 12 23 13
DOCKED: REMARK SMILES IDX 26 14 24 15 25 16 5 17 6 18 7 19 8 20 18 21 9 22 10 23 11 24
DOCKED: REMARK SMILES IDX 12 25 17 26 13 27 16 28 14 29 15 30
DOCKED: REMARK H PARENT 3 5
DOCKED: USER                              x       y       z     vdW  Elec       q    Type
DOCKED: USER                           _______ _______ _______ _____ _____    ______ ____
DOCKED: ROOT
DOCKED: ATOM      1  C   UNL     1     138.482  73.587 221.163 -0.10 -0.05    +0.216 C  
DOCKED: ENDROOT
DOCKED: BRANCH   1   2
DOCKED: ATOM      2  N   UNL     1     138.915  72.876 222.352 -0.09 +0.10    -0.342 N  
DOCKED: ATOM      3  C   UNL     1     138.724  71.467 222.402 -0.13 -0.06    +0.270 C  
DOCKED: ATOM      4  O   UNL     1     138.195  70.814 221.451 -0.04 +0.05    -0.268 OA 
DOCKED: ATOM      5  H   UNL     1     139.351  73.421 223.132 -0.48 -0.06    +0.164 HD 
DOCKED: BRANCH   3   6
DOCKED: ATOM      6  C   UNL     1     139.171  70.767 223.619 -0.26 -0.03    +0.128 A  
DOCKED: ATOM      7  C   UNL     1     139.013  69.395 223.697 -0.27 -0.01    +0.035 A  
DOCKED: ATOM      8  N   UNL     1     139.728  71.425 224.656 -0.26 +0.05    -0.243 NA 
DOCKED: ATOM      9  C   UNL     1     139.398  68.653 224.791 -0.36 -0.00    +0.013 A  
DOCKED: ATOM     10  C   UNL     1     140.125  70.733 225.760 -0.49 -0.01    +0.071 A  
DOCKED: ATOM     11  C   UNL     1     139.971  69.359 225.848 -0.48 -0.00    +0.003 A  
DOCKED: ATOM     12  C   UNL     1     140.696  71.390 226.829 -0.68 -0.01    +0.032 A  
DOCKED: ATOM     13  C   UNL     1     140.363  68.631 226.951 -0.59 -0.01    +0.049 A  
DOCKED: ATOM     14  C   UNL     1     141.102  70.677 227.957 -0.61 -0.01    +0.041 A  
DOCKED: ATOM     15  C   UNL     1     140.936  69.300 228.019 -0.51 -0.03    +0.123 A  
DOCKED: ATOM     16  F   UNL     1     141.335  68.617 229.126 -0.13 +0.05    -0.207 F  
DOCKED: ENDBRANCH   3   6
DOCKED: ENDBRANCH   1   2
DOCKED: BRANCH   1  17
DOCKED: ATOM     17  C   UNL     1     139.658  73.670 220.256 -0.06 -0.05    +0.241 C  
DOCKED: ATOM     18  O   UNL     1     139.789  72.963 219.226 -0.01 +0.05    -0.273 OA 
DOCKED: BRANCH  17  19
DOCKED: ATOM     19  N   UNL     1     140.697  74.594 220.558 -0.08 +0.08    -0.341 N  
DOCKED: ATOM     20  C   UNL     1     141.912  74.826 219.799 -0.18 -0.04    +0.120 C  
DOCKED: ATOM     21  C   UNL     1     140.781  75.513 221.688 -0.29 -0.03    +0.128 C  
DOCKED: ATOM     22  C   UNL     1     142.314  76.274 220.107 -0.28 -0.02    +0.032 C  
DOCKED: ATOM     23  C   UNL     1     141.146  76.776 220.913 -0.29 -0.02    +0.040 C  
DOCKED: BRANCH  23  24
DOCKED: ATOM     24  C   UNL     1     141.406  77.937 221.745 -0.34 +0.02    -0.043 A  
DOCKED: ATOM     25  C   UNL     1     141.852  79.103 221.129 -0.35 -0.00    +0.005 A  
DOCKED: ATOM     26  C   UNL     1     141.215  77.880 223.091 -0.46 -0.00    +0.005 A  
DOCKED: ATOM     27  C   UNL     1     142.113  80.233 221.868 -0.47 -0.01    +0.021 A  
DOCKED: ATOM     28  C   UNL     1     141.475  79.012 223.849 -0.60 -0.01    +0.021 A  
DOCKED: ATOM     29  C   UNL     1     141.918  80.172 223.242 -0.57 -0.01    +0.041 A  
DOCKED: ATOM     30  Cl  UNL     1     142.249  81.612 224.195 -0.55 +0.01    -0.084 Cl 
DOCKED: ENDBRANCH  23  24
DOCKED: ENDBRANCH  17  19
DOCKED: ENDBRANCH   1  17
DOCKED: TORSDOF 5
DOCKED: TER
DOCKED: ENDMDL
________________________________________________________________________________


    FINAL DOCKED STATE:
    ________________________


Run:   17 / 20
Time taken for this run:   0.030s

DOCKED: MODEL        17
DOCKED: USER    Run = 17
DOCKED: USER
DOCKED: USER    Estimated Free Energy of Binding    =  -8.43 kcal/mol  [=(1)+(2)+(3)-(4)]
DOCKED: USER
DOCKED: USER    (1) Final Intermolecular Energy     =  -9.92 kcal/mol
DOCKED: USER        vdW + Hbond + desolv Energy     =  -9.86 kcal/mol
DOCKED: USER        Electrostatic Energy            =  -0.05 kcal/mol
DOCKED: USER        Moving Ligand-Fixed Receptor    =  -9.92 kcal/mol
DOCKED: USER        Moving Ligand-Moving Receptor   =  +0.00 kcal/mol
DOCKED: USER    (2) Final Total Internal Energy     =  -1.37 kcal/mol
DOCKED: USER    (3) Torsional Free Energy           =  +1.49 kcal/mol
DOCKED: USER    (4) Unbound System's Energy         =  -1.37 kcal/mol
DOCKED: USER
DOCKED: USER
DOCKED: REMARK SMILES O=C(NCC(=O)N1CC[C@H](c2ccc(Cl)cc2)C1)c1ccc2cc(F)ccc2n1
DOCKED: REMARK SMILES IDX 4 1 3 2 2 3 1 4 19 6 20 7 29 8 21 9 28 10 22 11 27 12 23 13
DOCKED: REMARK SMILES IDX 26 14 24 15 25 16 5 17 6 18 7 19 8 20 18 21 9 22 10 23 11 24
DOCKED: REMARK SMILES IDX 12 25 17 26 13 27 16 28 14 29 15 30
DOCKED: REMARK H PARENT 3 5
DOCKED: USER                              x       y       z     vdW  Elec       q    Type
DOCKED: USER                           _______ _______ _______ _____ _____    ______ ____
DOCKED: ROOT
DOCKED: ATOM      1  C   UNL     1     137.413  72.888 221.173 -0.06 -0.05    +0.216 C  
DOCKED: ENDROOT
DOCKED: BRANCH   1   2
DOCKED: ATOM      2  N   UNL     1     137.985  72.439 222.429 -0.06 +0.11    -0.342 N  
DOCKED: ATOM      3  C   UNL     1     138.871  71.326 222.409 -0.13 -0.06    +0.270 C  
DOCKED: ATOM      4  O   UNL     1     139.179  70.717 221.340 -0.07 +0.05    -0.268 OA 
DOCKED: ATOM      5  H   UNL     1     137.727  72.947 223.308 -0.48 -0.11    +0.164 HD 
DOCKED: BRANCH   3   6
DOCKED: ATOM      6  C   UNL     1     139.438  70.890 223.696 -0.29 -0.03    +0.128 A  
DOCKED: ATOM      7  C   UNL     1     140.315  71.730 224.359 -0.40 -0.01    +0.035 A  
DOCKED: ATOM      8  N   UNL     1     139.129  69.698 224.245 -0.17 +0.04    -0.243 NA 
DOCKED: ATOM      9  C   UNL     1     140.898  71.413 225.566 -0.58 -0.00    +0.013 A  
DOCKED: ATOM     10  C   UNL     1     139.680  69.340 225.438 -0.39 -0.01    +0.071 A  
DOCKED: ATOM     11  C   UNL     1     140.559  70.174 226.110 -0.54 -0.00    +0.003 A  
DOCKED: ATOM     12  C   UNL     1     139.374  68.125 226.014 -0.54 -0.00    +0.032 A  
DOCKED: ATOM     13  C   UNL     1     141.133  69.841 227.319 -0.50 -0.01    +0.049 A  
DOCKED: ATOM     14  C   UNL     1     139.941  67.763 227.236 -0.58 -0.01    +0.041 A  
DOCKED: ATOM     15  C   UNL     1     140.818  68.618 227.888 -0.55 -0.03    +0.123 A  
DOCKED: ATOM     16  F   UNL     1     141.365  68.253 229.078 -0.18 +0.05    -0.207 F  
DOCKED: ENDBRANCH   3   6
DOCKED: ENDBRANCH   1   2
DOCKED: BRANCH   1  17
DOCKED: ATOM     17  C   UNL     1     138.536  73.408 220.347 -0.05 -0.05    +0.241 C  
DOCKED: ATOM     18  O   UNL     1     138.579  73.308 219.096 -0.01 +0.05    -0.273 OA 
DOCKED: BRANCH  17  19
DOCKED: ATOM     19  N   UNL     1     139.625  74.056 220.995 -0.08 +0.07    -0.341 N  
DOCKED: ATOM     20  C   UNL     1     141.014  73.639 221.001 -0.22 -0.02    +0.120 C  
DOCKED: ATOM     21  C   UNL     1     139.596  75.276 221.793 -0.26 -0.02    +0.128 C  
DOCKED: ATOM     22  C   UNL     1     141.824  74.925 221.207 -0.23 -0.01    +0.032 C  
DOCKED: ATOM     23  C   UNL     1     140.767  75.995 221.131 -0.30 -0.01    +0.040 C  
DOCKED: BRANCH  23  24
DOCKED: ATOM     24  C   UNL     1     141.113  77.268 221.739 -0.34 +0.02    -0.043 A  
DOCKED: ATOM     25  C   UNL     1     141.448  78.329 220.903 -0.33 -0.00    +0.005 A  
DOCKED: ATOM     26  C   UNL     1     141.106  77.412 223.092 -0.31 -0.00    +0.005 A  
DOCKED: ATOM     27  C   UNL     1     141.783  79.557 221.424 -0.40 -0.01    +0.021 A  
DOCKED: ATOM     28  C   UNL     1     141.442  78.645 223.632 -0.57 -0.01    +0.021 A  
DOCKED: ATOM     29  C   UNL     1     141.776  79.702 222.806 -0.53 -0.01    +0.041 A  
DOCKED: ATOM     30  Cl  UNL     1     142.203  81.267 223.482 -0.72 +0.01    -0.084 Cl 
DOCKED: ENDBRANCH  23  24
DOCKED: ENDBRANCH  17  19
DOCKED: ENDBRANCH   1  17
DOCKED: TORSDOF 5
DOCKED: TER
DOCKED: ENDMDL
________________________________________________________________________________


    FINAL DOCKED STATE:
    ________________________


Run:   18 / 20
Time taken for this run:   0.030s

DOCKED: MODEL        18
DOCKED: USER    Run = 18
DOCKED: USER
DOCKED: USER    Estimated Free Energy of Binding    =  -8.48 kcal/mol  [=(1)+(2)+(3)-(4)]
DOCKED: USER
DOCKED: USER    (1) Final Intermolecular Energy     =  -9.97 kcal/mol
DOCKED: USER        vdW + Hbond + desolv Energy     =  -9.94 kcal/mol
DOCKED: USER        Electrostatic Energy            =  -0.03 kcal/mol
DOCKED: USER        Moving Ligand-Fixed Receptor    =  -9.97 kcal/mol
DOCKED: USER        Moving Ligand-Moving Receptor   =  +0.00 kcal/mol
DOCKED: USER    (2) Final Total Internal Energy     =  -1.29 kcal/mol
DOCKED: USER    (3) Torsional Free Energy           =  +1.49 kcal/mol
DOCKED: USER    (4) Unbound System's Energy         =  -1.29 kcal/mol
DOCKED: USER
DOCKED: USER
DOCKED: REMARK SMILES O=C(NCC(=O)N1CC[C@H](c2ccc(Cl)cc2)C1)c1ccc2cc(F)ccc2n1
DOCKED: REMARK SMILES IDX 4 1 3 2 2 3 1 4 19 6 20 7 29 8 21 9 28 10 22 11 27 12 23 13
DOCKED: REMARK SMILES IDX 26 14 24 15 25 16 5 17 6 18 7 19 8 20 18 21 9 22 10 23 11 24
DOCKED: REMARK SMILES IDX 12 25 17 26 13 27 16 28 14 29 15 30
DOCKED: REMARK H PARENT 3 5
DOCKED: USER                              x       y       z     vdW  Elec       q    Type
DOCKED: USER                           _______ _______ _______ _____ _____    ______ ____
DOCKED: ROOT
DOCKED: ATOM      1  C   UNL     1     138.863  73.555 221.153 -0.12 -0.05    +0.216 C  
DOCKED: ENDROOT
DOCKED: BRANCH   1   2
DOCKED: ATOM      2  N   UNL     1     139.171  72.814 222.363 -0.11 +0.09    -0.342 N  
DOCKED: ATOM      3  C   UNL     1     138.967  71.405 222.362 -0.14 -0.06    +0.270 C  
DOCKED: ATOM      4  O   UNL     1     138.531  70.779 221.349 -0.05 +0.05    -0.268 OA 
DOCKED: ATOM      5  H   UNL     1     139.531  73.338 223.195 -0.45 -0.05    +0.164 HD 
DOCKED: BRANCH   3   6
DOCKED: ATOM      6  C   UNL     1     139.287  70.676 223.600 -0.26 -0.02    +0.128 A  
DOCKED: ATOM      7  C   UNL     1     138.978  69.330 223.682 -0.27 -0.01    +0.035 A  
DOCKED: ATOM      8  N   UNL     1     139.870  71.281 224.655 -0.28 +0.05    -0.243 NA 
DOCKED: ATOM      9  C   UNL     1     139.236  68.563 224.795 -0.39 -0.00    +0.013 A  
DOCKED: ATOM     10  C   UNL     1     140.145  70.562 225.778 -0.48 -0.01    +0.071 A  
DOCKED: ATOM     11  C   UNL     1     139.840  69.214 225.870 -0.48 -0.00    +0.003 A  
DOCKED: ATOM     12  C   UNL     1     140.742  71.165 226.866 -0.67 -0.01    +0.032 A  
DOCKED: ATOM     13  C   UNL     1     140.106  68.460 226.993 -0.60 -0.01    +0.049 A  
DOCKED: ATOM     14  C   UNL     1     141.022  70.426 228.014 -0.59 -0.01    +0.041 A  
DOCKED: ATOM     15  C   UNL     1     140.706  69.076 228.079 -0.53 -0.03    +0.123 A  
DOCKED: ATOM     16  F   UNL     1     140.984  68.366 229.206 -0.11 +0.05    -0.207 F  
DOCKED: ENDBRANCH   3   6
DOCKED: ENDBRANCH   1   2
DOCKED: BRANCH   1  17
DOCKED: ATOM     17  C   UNL     1     140.101  73.573 220.329 -0.08 -0.05    +0.241 C  
DOCKED: ATOM     18  O   UNL     1     140.497  72.590 219.654 -0.03 +0.05    -0.273 OA 
DOCKED: BRANCH  17  19
DOCKED: ATOM     19  N   UNL     1     140.888  74.758 220.294 -0.06 +0.09    -0.341 N  
DOCKED: ATOM     20  C   UNL     1     141.410  75.428 219.118 -0.11 -0.04    +0.120 C  
DOCKED: ATOM     21  C   UNL     1     141.347  75.565 221.419 -0.24 -0.04    +0.128 C  
DOCKED: ATOM     22  C   UNL     1     141.561  76.900 219.522 -0.23 -0.02    +0.032 C  
DOCKED: ATOM     23  C   UNL     1     140.930  76.933 220.889 -0.27 -0.02    +0.040 C  
DOCKED: BRANCH  23  24
DOCKED: ATOM     24  C   UNL     1     141.314  78.048 221.735 -0.35 +0.02    -0.043 A  
DOCKED: ATOM     25  C   UNL     1     141.827  79.191 221.128 -0.37 -0.00    +0.005 A  
DOCKED: ATOM     26  C   UNL     1     141.173  77.972 223.086 -0.48 -0.00    +0.005 A  
DOCKED: ATOM     27  C   UNL     1     142.207  80.278 221.880 -0.48 -0.01    +0.021 A  
DOCKED: ATOM     28  C   UNL     1     141.553  79.060 223.858 -0.60 -0.01    +0.021 A  
DOCKED: ATOM     29  C   UNL     1     142.062  80.197 223.259 -0.59 -0.01    +0.041 A  
DOCKED: ATOM     30  Cl  UNL     1     142.545  81.581 224.231 -0.54 +0.01    -0.084 Cl 
DOCKED: ENDBRANCH  23  24
DOCKED: ENDBRANCH  17  19
DOCKED: ENDBRANCH   1  17
DOCKED: TORSDOF 5
DOCKED: TER
DOCKED: ENDMDL
________________________________________________________________________________


    FINAL DOCKED STATE:
    ________________________


Run:   19 / 20
Time taken for this run:   0.030s

DOCKED: MODEL        19
DOCKED: USER    Run = 19
DOCKED: USER
DOCKED: USER    Estimated Free Energy of Binding    =  -8.68 kcal/mol  [=(1)+(2)+(3)-(4)]
DOCKED: USER
DOCKED: USER    (1) Final Intermolecular Energy     = -10.18 kcal/mol
DOCKED: USER        vdW + Hbond + desolv Energy     = -10.12 kcal/mol
DOCKED: USER        Electrostatic Energy            =  -0.06 kcal/mol
DOCKED: USER        Moving Ligand-Fixed Receptor    = -10.18 kcal/mol
DOCKED: USER        Moving Ligand-Moving Receptor   =  +0.00 kcal/mol
DOCKED: USER    (2) Final Total Internal Energy     =  -1.30 kcal/mol
DOCKED: USER    (3) Torsional Free Energy           =  +1.49 kcal/mol
DOCKED: USER    (4) Unbound System's Energy         =  -1.30 kcal/mol
DOCKED: USER
DOCKED: USER
DOCKED: REMARK SMILES O=C(NCC(=O)N1CC[C@H](c2ccc(Cl)cc2)C1)c1ccc2cc(F)ccc2n1
DOCKED: REMARK SMILES IDX 4 1 3 2 2 3 1 4 19 6 20 7 29 8 21 9 28 10 22 11 27 12 23 13
DOCKED: REMARK SMILES IDX 26 14 24 15 25 16 5 17 6 18 7 19 8 20 18 21 9 22 10 23 11 24
DOCKED: REMARK SMILES IDX 12 25 17 26 13 27 16 28 14 29 15 30
DOCKED: REMARK H PARENT 3 5
DOCKED: USER                              x       y       z     vdW  Elec       q    Type
DOCKED: USER                           _______ _______ _______ _____ _____    ______ ____
DOCKED: ROOT
DOCKED: ATOM      1  C   UNL     1     138.717  73.629 221.143 -0.11 -0.05    +0.216 C  
DOCKED: ENDROOT
DOCKED: BRANCH   1   2
DOCKED: ATOM      2  N   UNL     1     139.022  72.889 222.353 -0.10 +0.09    -0.342 N  
DOCKED: ATOM      3  C   UNL     1     139.008  71.467 222.298 -0.14 -0.06    +0.270 C  
DOCKED: ATOM      4  O   UNL     1     138.741  70.827 221.235 -0.05 +0.05    -0.268 OA 
DOCKED: ATOM      5  H   UNL     1     139.242  73.423 223.226 -0.48 -0.08    +0.164 HD 
DOCKED: BRANCH   3   6
DOCKED: ATOM      6  C   UNL     1     139.322  70.739 223.539 -0.26 -0.02    +0.128 A  
DOCKED: ATOM      7  C   UNL     1     139.014  69.393 223.620 -0.26 -0.01    +0.035 A  
DOCKED: ATOM      8  N   UNL     1     139.899  71.346 224.596 -0.28 +0.05    -0.243 NA 
DOCKED: ATOM      9  C   UNL     1     139.266  68.627 224.737 -0.37 -0.00    +0.013 A  
DOCKED: ATOM     10  C   UNL     1     140.169  70.629 225.722 -0.48 -0.01    +0.071 A  
DOCKED: ATOM     11  C   UNL     1     139.864  69.281 225.814 -0.47 -0.00    +0.003 A  
DOCKED: ATOM     12  C   UNL     1     140.760  71.234 226.811 -0.67 -0.01    +0.032 A  
DOCKED: ATOM     13  C   UNL     1     140.125  68.528 226.939 -0.59 -0.01    +0.049 A  
DOCKED: ATOM     14  C   UNL     1     141.034  70.496 227.962 -0.61 -0.01    +0.041 A  
DOCKED: ATOM     15  C   UNL     1     140.718  69.146 228.027 -0.53 -0.03    +0.123 A  
DOCKED: ATOM     16  F   UNL     1     140.991  68.438 229.156 -0.13 +0.05    -0.207 F  
DOCKED: ENDBRANCH   3   6
DOCKED: ENDBRANCH   1   2
DOCKED: BRANCH   1  17
DOCKED: ATOM     17  C   UNL     1     139.944  73.612 220.303 -0.07 -0.05    +0.241 C  
DOCKED: ATOM     18  O   UNL     1     140.180  72.730 219.440 -0.02 +0.05    -0.273 OA 
DOCKED: BRANCH  17  19
DOCKED: ATOM     19  N   UNL     1     140.911  74.642 220.475 -0.08 +0.08    -0.341 N  
DOCKED: ATOM     20  C   UNL     1     141.932  75.051 219.530 -0.17 -0.04    +0.120 C  
DOCKED: ATOM     21  C   UNL     1     141.095  75.516 221.628 -0.28 -0.04    +0.128 C  
DOCKED: ATOM     22  C   UNL     1     142.218  76.523 219.853 -0.30 -0.02    +0.032 C  
DOCKED: ATOM     23  C   UNL     1     141.168  76.845 220.883 -0.28 -0.02    +0.040 C  
DOCKED: BRANCH  23  24
DOCKED: ATOM     24  C   UNL     1     141.443  77.994 221.727 -0.35 +0.02    -0.043 A  
DOCKED: ATOM     25  C   UNL     1     141.821  79.187 221.117 -0.37 -0.00    +0.005 A  
DOCKED: ATOM     26  C   UNL     1     141.332  77.900 223.080 -0.46 -0.00    +0.005 A  
DOCKED: ATOM     27  C   UNL     1     142.093  80.306 221.867 -0.47 -0.01    +0.021 A  
DOCKED: ATOM     28  C   UNL     1     141.604  79.021 223.850 -0.60 -0.01    +0.021 A  
DOCKED: ATOM     29  C   UNL     1     141.979  80.207 223.248 -0.58 -0.01    +0.041 A  
DOCKED: ATOM     30  Cl  UNL     1     142.324  81.633 224.217 -0.54 +0.01    -0.084 Cl 
DOCKED: ENDBRANCH  23  24
DOCKED: ENDBRANCH  17  19
DOCKED: ENDBRANCH   1  17
DOCKED: TORSDOF 5
DOCKED: TER
DOCKED: ENDMDL
________________________________________________________________________________


    FINAL DOCKED STATE:
    ________________________


Run:   20 / 20
Time taken for this run:   0.030s

DOCKED: MODEL        20
DOCKED: USER    Run = 20
DOCKED: USER
DOCKED: USER    Estimated Free Energy of Binding    =  -8.38 kcal/mol  [=(1)+(2)+(3)-(4)]
DOCKED: USER
DOCKED: USER    (1) Final Intermolecular Energy     =  -9.87 kcal/mol
DOCKED: USER        vdW + Hbond + desolv Energy     =  -9.81 kcal/mol
DOCKED: USER        Electrostatic Energy            =  -0.07 kcal/mol
DOCKED: USER        Moving Ligand-Fixed Receptor    =  -9.87 kcal/mol
DOCKED: USER        Moving Ligand-Moving Receptor   =  +0.00 kcal/mol
DOCKED: USER    (2) Final Total Internal Energy     =  -1.40 kcal/mol
DOCKED: USER    (3) Torsional Free Energy           =  +1.49 kcal/mol
DOCKED: USER    (4) Unbound System's Energy         =  -1.40 kcal/mol
DOCKED: USER
DOCKED: USER
DOCKED: REMARK SMILES O=C(NCC(=O)N1CC[C@H](c2ccc(Cl)cc2)C1)c1ccc2cc(F)ccc2n1
DOCKED: REMARK SMILES IDX 4 1 3 2 2 3 1 4 19 6 20 7 29 8 21 9 28 10 22 11 27 12 23 13
DOCKED: REMARK SMILES IDX 26 14 24 15 25 16 5 17 6 18 7 19 8 20 18 21 9 22 10 23 11 24
DOCKED: REMARK SMILES IDX 12 25 17 26 13 27 16 28 14 29 15 30
DOCKED: REMARK H PARENT 3 5
DOCKED: USER                              x       y       z     vdW  Elec       q    Type
DOCKED: USER                           _______ _______ _______ _____ _____    ______ ____
DOCKED: ROOT
DOCKED: ATOM      1  C   UNL     1     138.977  73.114 220.177 -0.04 -0.04    +0.216 C  
DOCKED: ENDROOT
DOCKED: BRANCH   1   2
DOCKED: ATOM      2  N   UNL     1     139.002  72.225 221.324 -0.05 +0.07    -0.342 N  
DOCKED: ATOM      3  C   UNL     1     139.922  72.502 222.374 -0.20 -0.04    +0.270 C  
DOCKED: ATOM      4  O   UNL     1     140.714  73.492 222.344 -0.73 -0.01    -0.268 OA 
DOCKED: ATOM      5  H   UNL     1     138.345  71.410 221.342 +0.03 -0.03    +0.164 HD 
DOCKED: BRANCH   3   6
DOCKED: ATOM      6  C   UNL     1     139.929  71.585 223.526 -0.32 -0.02    +0.128 A  
DOCKED: ATOM      7  C   UNL     1     139.321  70.349 223.400 -0.27 -0.01    +0.035 A  
DOCKED: ATOM      8  N   UNL     1     140.507  71.917 224.699 -0.24 +0.04    -0.243 NA 
DOCKED: ATOM      9  C   UNL     1     139.274  69.424 224.420 -0.34 -0.00    +0.013 A  
DOCKED: ATOM     10  C   UNL     1     140.486  71.034 225.735 -0.53 -0.01    +0.071 A  
DOCKED: ATOM     11  C   UNL     1     139.881  69.794 225.619 -0.46 -0.00    +0.003 A  
DOCKED: ATOM     12  C   UNL     1     141.074  71.357 226.940 -0.70 -0.01    +0.032 A  
DOCKED: ATOM     13  C   UNL     1     139.844  68.879 226.650 -0.53 -0.01    +0.049 A  
DOCKED: ATOM     14  C   UNL     1     141.050  70.450 228.000 -0.60 -0.01    +0.041 A  
DOCKED: ATOM     15  C   UNL     1     140.437  69.213 227.856 -0.53 -0.02    +0.123 A  
DOCKED: ATOM     16  F   UNL     1     140.420  68.338 228.897 -0.18 +0.05    -0.207 F  
DOCKED: ENDBRANCH   3   6
DOCKED: ENDBRANCH   1   2
DOCKED: BRANCH   1  17
DOCKED: ATOM     17  C   UNL     1     137.704  73.881 220.252 -0.03 -0.05    +0.241 C  
DOCKED: ATOM     18  O   UNL     1     136.644  73.520 219.682 -0.01 +0.05    -0.273 OA 
DOCKED: BRANCH  17  19
DOCKED: ATOM     19  N   UNL     1     137.670  75.088 221.004 -0.04 +0.08    -0.341 N  
DOCKED: ATOM     20  C   UNL     1     136.732  75.441 222.052 -0.15 -0.03    +0.120 C  
DOCKED: ATOM     21  C   UNL     1     138.561  76.238 220.896 -0.11 -0.03    +0.128 C  
DOCKED: ATOM     22  C   UNL     1     137.481  76.433 222.951 -0.24 -0.01    +0.032 C  
DOCKED: ATOM     23  C   UNL     1     138.873  76.410 222.379 -0.30 -0.01    +0.040 C  
DOCKED: BRANCH  23  24
DOCKED: ATOM     24  C   UNL     1     139.703  77.560 222.690 -0.30 +0.01    -0.043 A  
DOCKED: ATOM     25  C   UNL     1     139.076  78.736 223.094 -0.34 -0.00    +0.005 A  
DOCKED: ATOM     26  C   UNL     1     141.057  77.484 222.586 -0.44 -0.00    +0.005 A  
DOCKED: ATOM     27  C   UNL     1     139.813  79.855 223.402 -0.42 -0.00    +0.021 A  
DOCKED: ATOM     28  C   UNL     1     141.813  78.606 222.893 -0.50 -0.01    +0.021 A  
DOCKED: ATOM     29  C   UNL     1     141.195  79.775 223.295 -0.50 -0.01    +0.041 A  
DOCKED: ATOM     30  Cl  UNL     1     142.146  81.201 223.686 -0.74 +0.01    -0.084 Cl 
DOCKED: ENDBRANCH  23  24
DOCKED: ENDBRANCH  17  19
DOCKED: ENDBRANCH   1  17
DOCKED: TORSDOF 5
DOCKED: TER
DOCKED: ENDMDL
________________________________________________________________________________


    CLUSTERING HISTOGRAM
    ____________________


________________________________________________________________________________
     |           |     |           |     |
Clus | Lowest    | Run | Mean      | Num | Histogram
-ter | Binding   |     | Binding   | in  |
Rank | Energy    |     | Energy    | Clus|    5    10   15   20   25   30   35
_____|___________|_____|___________|_____|____:____|____:____|____:____|____:___
   1 |     -8.68 |  19 |     -8.45 |  16 |################
   2 |     -8.38 |   6 |     -8.35 |   3 |###
   3 |     -8.17 |  14 |     -8.17 |   1 |#
_____|___________|_____|___________|_____|______________________________________


    RMSD TABLE
    __________


_______________________________________________________________________
     |      |      |           |         |                 |
Rank | Sub- | Run  | Binding   | Cluster | Reference       | Grep
     | Rank |      | Energy    | RMSD    | RMSD            | Pattern
_____|______|______|___________|_________|_________________|___________
   1      1     19       -8.68      0.00    270.92           RANKING
   1      2     13       -8.64      0.09    270.90           RANKING
   1      3     10       -8.62      1.49    270.93           RANKING
   1      4     11       -8.62      1.52    270.96           RANKING
   1      5     15       -8.61      0.16    270.91           RANKING
   1      6     16       -8.57      0.25    270.92           RANKING
   1      7      4       -8.51      1.86    271.07           RANKING
   1      8     18       -8.48      0.27    270.91           RANKING
   1      9     17       -8.43      1.05    270.67           RANKING
   1     10     20       -8.38      1.82    270.64           RANKING
   1     11      8       -8.37      1.82    270.66           RANKING
   1     12      2       -8.37      1.80    270.61           RANKING
   1     13      1       -8.36      1.82    270.68           RANKING
   1     14      7       -8.35      1.41    270.91           RANKING
   1     15      9       -8.23      1.89    271.03           RANKING
   1     16     12       -7.90      1.93    270.76           RANKING
   2      1      6       -8.38      0.00    270.40           RANKING
   2      2      5       -8.34      0.07    270.41           RANKING
   2      3      3       -8.33      0.10    270.39           RANKING
   3      1     14       -8.17      0.00    270.72           RANKING

Run time 0.562 sec
Idle time 0.000 sec
