AutoDock-GPU version: v1.6

**********************************************************
**    AutoDock-GPU AUTODOCKTOOLS-COMPATIBLE DLG FILE    **
**********************************************************


    DOCKING PARAMETERS
    ________________________


Ligand file:                               /home/a/REINVENT4/ReinventStudies/pleaseWork/justmol2mol_4_Compounds_ontop/graph-dock-hn62wh/graph-DockGPU/node-autodockgpu/inputs/VKLWGIQPNARUPX-AYZLTACONA-N.pdbqt
Grid fld file:                             /home/a/REINVENT4/ReinventStudies/mols/Rad51/maps/rad51_receptor.maps.fld

Random seed:                               42
Number of runs:                            20
Number of energy evaluations:              1132076
Number of generations:                     42000
Size of population:                        150
Rate of crossover:                         80.000000%
Tournament selection probability limit:    60.000000%
Rate of mutation:                          2.000000%
Maximal allowed delta movement:            +/- 6.000000A
Maximal allowed delta angle:               +/- 90.000000

Rate of local search:                      100.000000%
Maximal number of local search iterations: 300
Rho lower bound:                           0.010000
Spread of local search delta movement:     2.000000A
Spread of local search delta angle:        74.999999
Limit of consecutive successes/failures:   4

Handle symmetry during clustering:         YES
RMSD tolerance:                            2.000000A

Program call in command line was:          /home/a/REINVENT4/ReinventStudies/adgpu-v1.6_linux_x64_cuda12_128wi --filelist batch.txt --heuristics 1 --nrun 20 --psize 150 --lsit 300 --seed 42 --heurmax 12000000 


    GRID PARAMETERS
    ________________________


Receptor name:                             rad51_receptor
Number of grid points (x, y, z):           53, 53, 53
Grid center (x, y, z):                     139.950000, 75.640000, 221.970000A
Grid size (x, y, z):                       19.500000, 19.500000, 19.500000A
Grid spacing:                              0.375000A


    LIGAND PARAMETERS
    ________________________


Ligand name:                               /home/a/REINVENT4/ReinventStudies/pleaseWork/justmol2mol_4_Compounds_ontop/graph-dock-hn62wh/graph-DockGPU/node-autodockgpu/inputs/VKLWGIQPNARUPX-AYZLTACONA-N
Number of atoms:                           27
Number of rotatable bonds:                 6
Number of atom types:                      7


    DUMMY DATA (only for ADT-compatibility)
    ________________________


DPF> outlev 1
DPF> ga_run 20
DPF> fld /home/a/REINVENT4/ReinventStudies/mols/Rad51/maps/rad51_receptor.maps.fld
DPF> move /home/a/REINVENT4/ReinventStudies/pleaseWork/justmol2mol_4_Compounds_ontop/graph-dock-hn62wh/graph-DockGPU/node-autodockgpu/inputs/VKLWGIQPNARUPX-AYZLTACONA-N.pdbqt


    COUNTER STATES
    ________________________


Number of energy evaluations performed:    655188
Number of generations used:                35


    INPUT LIGAND PDBQT FILE:
    ________________________


INPUT-LIGAND-PDBQT: REMARK SMILES CN(CCNC(=O)c1ccc2cc(Cl)ccc2n1)C(=O)[C@H]1CCCN1
INPUT-LIGAND-PDBQT: REMARK SMILES IDX 3 1 2 2 1 3 19 4 20 5 21 6 22 7 25 8 23 9 24 10 4 12 5 13
INPUT-LIGAND-PDBQT: REMARK SMILES IDX 6 14 7 16 8 17 9 18 18 19 10 20 17 21 11 22 16 23 12 24
INPUT-LIGAND-PDBQT: REMARK SMILES IDX 15 25 13 26 14 27
INPUT-LIGAND-PDBQT: REMARK H PARENT 25 11 5 15
INPUT-LIGAND-PDBQT: ROOT
INPUT-LIGAND-PDBQT: ATOM      1  C   UNL     1      -1.662  -1.001   1.330  1.00  0.00     0.140 C 
INPUT-LIGAND-PDBQT: ENDROOT
INPUT-LIGAND-PDBQT: BRANCH   1   2
INPUT-LIGAND-PDBQT: ATOM      2  N   UNL     1      -1.818   0.411   1.251  1.00  0.00    -0.343 N 
INPUT-LIGAND-PDBQT: ATOM      3  C   UNL     1      -0.917   1.263   2.072  1.00  0.00     0.146 C 
INPUT-LIGAND-PDBQT: BRANCH   2   4
INPUT-LIGAND-PDBQT: ATOM      4  C   UNL     1      -2.790   1.121   0.514  1.00  0.00     0.239 C 
INPUT-LIGAND-PDBQT: ATOM      5  O   UNL     1      -2.788   2.378   0.632  1.00  0.00    -0.273 OA
INPUT-LIGAND-PDBQT: BRANCH   4   6
INPUT-LIGAND-PDBQT: ATOM      6  C   UNL     1      -3.804   0.535  -0.382  1.00  0.00     0.144 C 
INPUT-LIGAND-PDBQT: ATOM      7  C   UNL     1      -4.719  -0.457   0.274  1.00  0.00     0.030 C 
INPUT-LIGAND-PDBQT: ATOM      8  N   UNL     1      -4.607   1.565  -1.014  1.00  0.00    -0.306 NA
INPUT-LIGAND-PDBQT: ATOM      9  C   UNL     1      -6.078  -0.118  -0.290  1.00  0.00     0.017 C 
INPUT-LIGAND-PDBQT: ATOM     10  C   UNL     1      -5.959   1.374  -0.523  1.00  0.00     0.082 C 
INPUT-LIGAND-PDBQT: ATOM     11  H   UNL     1      -4.638   1.486  -2.049  1.00  0.00     0.123 HD
INPUT-LIGAND-PDBQT: ENDBRANCH   4   6
INPUT-LIGAND-PDBQT: ENDBRANCH   2   4
INPUT-LIGAND-PDBQT: ENDBRANCH   1   2
INPUT-LIGAND-PDBQT: BRANCH   1  12
INPUT-LIGAND-PDBQT: ATOM     12  C   UNL     1      -0.860  -1.662   0.271  1.00  0.00     0.137 C 
INPUT-LIGAND-PDBQT: BRANCH  12  13
INPUT-LIGAND-PDBQT: ATOM     13  N   UNL     1       0.478  -1.266   0.053  1.00  0.00    -0.349 N 
INPUT-LIGAND-PDBQT: ATOM     14  C   UNL     1       0.938  -0.019  -0.434  1.00  0.00     0.269 C 
INPUT-LIGAND-PDBQT: ATOM     15  H   UNL     1       1.260  -1.966   0.273  1.00  0.00     0.163 HD
INPUT-LIGAND-PDBQT: ATOM     16  O   UNL     1       0.184   0.923  -0.764  1.00  0.00    -0.268 OA
INPUT-LIGAND-PDBQT: BRANCH  14  17
INPUT-LIGAND-PDBQT: ATOM     17  C   UNL     1       2.387   0.239  -0.580  1.00  0.00     0.128 A 
INPUT-LIGAND-PDBQT: ATOM     18  C   UNL     1       2.893   1.412  -1.041  1.00  0.00     0.035 A 
INPUT-LIGAND-PDBQT: ATOM     19  N   UNL     1       3.289  -0.730  -0.245  1.00  0.00    -0.243 NA
INPUT-LIGAND-PDBQT: ATOM     20  C   UNL     1       4.245   1.651  -1.178  1.00  0.00     0.013 A 
INPUT-LIGAND-PDBQT: ATOM     21  C   UNL     1       4.616  -0.549  -0.359  1.00  0.00     0.071 A 
INPUT-LIGAND-PDBQT: ATOM     22  C   UNL     1       5.136   0.644  -0.827  1.00  0.00     0.002 A 
INPUT-LIGAND-PDBQT: ATOM     23  C   UNL     1       5.492  -1.578   0.000  1.00  0.00     0.030 A 
INPUT-LIGAND-PDBQT: ATOM     24  C   UNL     1       6.495   0.851  -0.952  1.00  0.00     0.030 A 
INPUT-LIGAND-PDBQT: ATOM     25  C   UNL     1       6.851  -1.388  -0.118  1.00  0.00     0.023 A 
INPUT-LIGAND-PDBQT: ATOM     26  C   UNL     1       7.351  -0.180  -0.591  1.00  0.00     0.041 A 
INPUT-LIGAND-PDBQT: ATOM     27  Cl  UNL     1       9.080  -0.009  -0.715  1.00  0.00    -0.084 Cl
INPUT-LIGAND-PDBQT: ENDBRANCH  14  17
INPUT-LIGAND-PDBQT: ENDBRANCH  12  13
INPUT-LIGAND-PDBQT: ENDBRANCH   1  12
INPUT-LIGAND-PDBQT: TORSDOF 6


    FINAL DOCKED STATE:
    ________________________


Run:   1 / 20
Time taken for this run:   0.025s

DOCKED: MODEL        1
DOCKED: USER    Run = 1
DOCKED: USER
DOCKED: USER    Estimated Free Energy of Binding    =  -5.31 kcal/mol  [=(1)+(2)+(3)-(4)]
DOCKED: USER
DOCKED: USER    (1) Final Intermolecular Energy     =  -7.10 kcal/mol
DOCKED: USER        vdW + Hbond + desolv Energy     =  -7.06 kcal/mol
DOCKED: USER        Electrostatic Energy            =  -0.04 kcal/mol
DOCKED: USER        Moving Ligand-Fixed Receptor    =  -7.10 kcal/mol
DOCKED: USER        Moving Ligand-Moving Receptor   =  +0.00 kcal/mol
DOCKED: USER    (2) Final Total Internal Energy     =  -3.60 kcal/mol
DOCKED: USER    (3) Torsional Free Energy           =  +1.79 kcal/mol
DOCKED: USER    (4) Unbound System's Energy         =  -3.60 kcal/mol
DOCKED: USER
DOCKED: USER
DOCKED: REMARK SMILES CN(CCNC(=O)c1ccc2cc(Cl)ccc2n1)C(=O)[C@H]1CCCN1
DOCKED: REMARK SMILES IDX 3 1 2 2 1 3 19 4 20 5 21 6 22 7 25 8 23 9 24 10 4 12 5 13
DOCKED: REMARK SMILES IDX 6 14 7 16 8 17 9 18 18 19 10 20 17 21 11 22 16 23 12 24
DOCKED: REMARK SMILES IDX 15 25 13 26 14 27
DOCKED: REMARK H PARENT 25 11 5 15
DOCKED: USER                              x       y       z     vdW  Elec       q    Type
DOCKED: USER                           _______ _______ _______ _____ _____    ______ ____
DOCKED: ROOT
DOCKED: ATOM      1  C   UNL     1     138.204  80.622 222.114 -0.14 -0.02    +0.140 C  
DOCKED: ENDROOT
DOCKED: BRANCH   1   2
DOCKED: ATOM      2  N   UNL     1     139.417  81.136 221.577 -0.06 +0.06    -0.343 N  
DOCKED: ATOM      3  C   UNL     1     139.608  82.611 221.562 -0.18 -0.02    +0.146 C  
DOCKED: BRANCH   2   4
DOCKED: ATOM      4  C   UNL     1     140.467  80.401 220.986 -0.15 -0.07    +0.239 C  
DOCKED: ATOM      5  O   UNL     1     140.360  80.147 219.754 -0.07 +0.09    -0.273 OA 
DOCKED: BRANCH   4   6
DOCKED: ATOM      6  C   UNL     1     141.676  79.905 221.668 -0.35 -0.06    +0.144 C  
DOCKED: ATOM      7  C   UNL     1     142.206  80.813 222.739 -0.57 -0.01    +0.030 C  
DOCKED: ATOM      8  N   UNL     1     141.457  78.588 222.238 -0.22 +0.14    -0.306 NA 
DOCKED: ATOM      9  C   UNL     1     142.581  79.869 223.856 -0.54 -0.00    +0.017 C  
DOCKED: ATOM     10  C   UNL     1     141.575  78.751 223.675 -0.53 -0.02    +0.082 C  
DOCKED: ATOM     11  H   UNL     1     142.166  77.889 221.945 -0.43 -0.10    +0.123 HD 
DOCKED: ENDBRANCH   4   6
DOCKED: ENDBRANCH   2   4
DOCKED: ENDBRANCH   1   2
DOCKED: BRANCH   1  12
DOCKED: ATOM     12  C   UNL     1     137.774  79.275 221.666 -0.10 -0.02    +0.137 C  
DOCKED: BRANCH  12  13
DOCKED: ATOM     13  N   UNL     1     138.732  78.252 221.494 -0.04 +0.08    -0.349 N  
DOCKED: ATOM     14  C   UNL     1     138.632  76.901 221.906 -0.17 -0.06    +0.269 C  
DOCKED: ATOM     15  H   UNL     1     139.652  78.491 220.998 +0.06 -0.05    +0.163 HD 
DOCKED: ATOM     16  O   UNL     1     137.647  76.427 222.515 -0.20 +0.06    -0.268 OA 
DOCKED: BRANCH  14  17
DOCKED: ATOM     17  C   UNL     1     139.728  75.949 221.622 -0.26 -0.03    +0.128 A  
DOCKED: ATOM     18  C   UNL     1     139.681  74.635 221.963 -0.28 -0.01    +0.035 A  
DOCKED: ATOM     19  N   UNL     1     140.858  76.380 220.989 -0.16 +0.09    -0.243 NA 
DOCKED: ATOM     20  C   UNL     1     140.705  73.748 221.700 -0.29 -0.00    +0.013 A  
DOCKED: ATOM     21  C   UNL     1     141.884  75.558 220.708 -0.25 -0.03    +0.071 A  
DOCKED: ATOM     22  C   UNL     1     141.841  74.219 221.053 -0.26 -0.00    +0.002 A  
DOCKED: ATOM     23  C   UNL     1     143.016  76.056 220.057 -0.29 -0.02    +0.030 A  
DOCKED: ATOM     24  C   UNL     1     142.883  73.358 220.774 -0.27 -0.01    +0.030 A  
DOCKED: ATOM     25  C   UNL     1     144.065  75.211 219.771 -0.38 -0.01    +0.023 A  
DOCKED: ATOM     26  C   UNL     1     144.000  73.868 220.127 -0.38 -0.01    +0.041 A  
DOCKED: ATOM     27  Cl  UNL     1     145.362  72.856 219.735 -0.56 -0.01    -0.084 Cl 
DOCKED: ENDBRANCH  14  17
DOCKED: ENDBRANCH  12  13
DOCKED: ENDBRANCH   1  12
DOCKED: TORSDOF 6
DOCKED: TER
DOCKED: ENDMDL
________________________________________________________________________________


    FINAL DOCKED STATE:
    ________________________


Run:   2 / 20
Time taken for this run:   0.025s

DOCKED: MODEL        2
DOCKED: USER    Run = 2
DOCKED: USER
DOCKED: USER    Estimated Free Energy of Binding    =  -7.50 kcal/mol  [=(1)+(2)+(3)-(4)]
DOCKED: USER
DOCKED: USER    (1) Final Intermolecular Energy     =  -9.29 kcal/mol
DOCKED: USER        vdW + Hbond + desolv Energy     =  -9.19 kcal/mol
DOCKED: USER        Electrostatic Energy            =  -0.10 kcal/mol
DOCKED: USER        Moving Ligand-Fixed Receptor    =  -9.29 kcal/mol
DOCKED: USER        Moving Ligand-Moving Receptor   =  +0.00 kcal/mol
DOCKED: USER    (2) Final Total Internal Energy     =  -1.49 kcal/mol
DOCKED: USER    (3) Torsional Free Energy           =  +1.79 kcal/mol
DOCKED: USER    (4) Unbound System's Energy         =  -1.49 kcal/mol
DOCKED: USER
DOCKED: USER
DOCKED: REMARK SMILES CN(CCNC(=O)c1ccc2cc(Cl)ccc2n1)C(=O)[C@H]1CCCN1
DOCKED: REMARK SMILES IDX 3 1 2 2 1 3 19 4 20 5 21 6 22 7 25 8 23 9 24 10 4 12 5 13
DOCKED: REMARK SMILES IDX 6 14 7 16 8 17 9 18 18 19 10 20 17 21 11 22 16 23 12 24
DOCKED: REMARK SMILES IDX 15 25 13 26 14 27
DOCKED: REMARK H PARENT 25 11 5 15
DOCKED: USER                              x       y       z     vdW  Elec       q    Type
DOCKED: USER                           _______ _______ _______ _____ _____    ______ ____
DOCKED: ROOT
DOCKED: ATOM      1  C   UNL     1     137.922  70.221 224.352 -0.22 -0.02    +0.140 C  
DOCKED: ENDROOT
DOCKED: BRANCH   1   2
DOCKED: ATOM      2  N   UNL     1     138.734  69.053 224.362 -0.14 +0.04    -0.343 N  
DOCKED: ATOM      3  C   UNL     1     138.745  68.196 223.146 -0.21 -0.02    +0.146 C  
DOCKED: BRANCH   2   4
DOCKED: ATOM      4  C   UNL     1     139.506  68.561 225.436 -0.32 -0.03    +0.239 C  
DOCKED: ATOM      5  O   UNL     1     139.221  67.407 225.860 -0.92 -0.00    -0.273 OA 
DOCKED: BRANCH   4   6
DOCKED: ATOM      6  C   UNL     1     140.615  69.265 226.107 -0.43 -0.03    +0.144 C  
DOCKED: ATOM      7  C   UNL     1     140.787  70.697 225.692 -0.57 -0.00    +0.030 C  
DOCKED: ATOM      8  N   UNL     1     140.478  69.210 227.550 -0.29 +0.06    -0.306 NA 
DOCKED: ATOM      9  C   UNL     1     141.065  71.415 226.991 -0.73 -0.00    +0.017 C  
DOCKED: ATOM     10  C   UNL     1     140.284  70.580 227.985 -0.61 -0.01    +0.082 C  
DOCKED: ATOM     11  H   UNL     1     141.324  68.847 228.030 +0.03 -0.03    +0.123 HD 
DOCKED: ENDBRANCH   4   6
DOCKED: ENDBRANCH   2   4
DOCKED: ENDBRANCH   1   2
DOCKED: BRANCH   1  12
DOCKED: ATOM     12  C   UNL     1     137.706  70.894 223.047 -0.16 -0.03    +0.137 C  
DOCKED: BRANCH  12  13
DOCKED: ATOM     13  N   UNL     1     138.365  72.111 222.766 -0.07 +0.11    -0.349 N  
DOCKED: ATOM     14  C   UNL     1     139.585  72.289 222.070 -0.18 -0.05    +0.269 C  
DOCKED: ATOM     15  H   UNL     1     137.916  73.025 223.104 -0.48 -0.10    +0.163 HD 
DOCKED: ATOM     16  O   UNL     1     140.271  71.348 221.613 -0.12 +0.04    -0.268 OA 
DOCKED: BRANCH  14  17
DOCKED: ATOM     17  C   UNL     1     140.125  73.647 221.842 -0.24 -0.01    +0.128 A  
DOCKED: ATOM     18  C   UNL     1     141.264  73.888 221.142 -0.27 -0.01    +0.035 A  
DOCKED: ATOM     19  N   UNL     1     139.473  74.734 222.348 -0.64 +0.04    -0.243 NA 
DOCKED: ATOM     20  C   UNL     1     141.768  75.155 220.930 -0.30 -0.00    +0.013 A  
DOCKED: ATOM     21  C   UNL     1     139.920  75.989 222.171 -0.33 -0.01    +0.071 A  
DOCKED: ATOM     22  C   UNL     1     141.078  76.240 221.458 -0.35 -0.00    +0.002 A  
DOCKED: ATOM     23  C   UNL     1     139.209  77.064 222.713 -0.26 -0.01    +0.030 A  
DOCKED: ATOM     24  C   UNL     1     141.555  77.521 221.265 -0.24 -0.02    +0.030 A  
DOCKED: ATOM     25  C   UNL     1     139.671  78.349 222.529 -0.33 -0.00    +0.023 A  
DOCKED: ATOM     26  C   UNL     1     140.838  78.577 221.808 -0.33 -0.02    +0.041 A  
DOCKED: ATOM     27  Cl  UNL     1     141.364  80.226 221.615 -0.49 +0.03    -0.084 Cl 
DOCKED: ENDBRANCH  14  17
DOCKED: ENDBRANCH  12  13
DOCKED: ENDBRANCH   1  12
DOCKED: TORSDOF 6
DOCKED: TER
DOCKED: ENDMDL
________________________________________________________________________________


    FINAL DOCKED STATE:
    ________________________


Run:   3 / 20
Time taken for this run:   0.025s

DOCKED: MODEL        3
DOCKED: USER    Run = 3
DOCKED: USER
DOCKED: USER    Estimated Free Energy of Binding    =  -5.51 kcal/mol  [=(1)+(2)+(3)-(4)]
DOCKED: USER
DOCKED: USER    (1) Final Intermolecular Energy     =  -7.30 kcal/mol
DOCKED: USER        vdW + Hbond + desolv Energy     =  -7.25 kcal/mol
DOCKED: USER        Electrostatic Energy            =  -0.05 kcal/mol
DOCKED: USER        Moving Ligand-Fixed Receptor    =  -7.30 kcal/mol
DOCKED: USER        Moving Ligand-Moving Receptor   =  +0.00 kcal/mol
DOCKED: USER    (2) Final Total Internal Energy     =  -3.48 kcal/mol
DOCKED: USER    (3) Torsional Free Energy           =  +1.79 kcal/mol
DOCKED: USER    (4) Unbound System's Energy         =  -3.48 kcal/mol
DOCKED: USER
DOCKED: USER
DOCKED: REMARK SMILES CN(CCNC(=O)c1ccc2cc(Cl)ccc2n1)C(=O)[C@H]1CCCN1
DOCKED: REMARK SMILES IDX 3 1 2 2 1 3 19 4 20 5 21 6 22 7 25 8 23 9 24 10 4 12 5 13
DOCKED: REMARK SMILES IDX 6 14 7 16 8 17 9 18 18 19 10 20 17 21 11 22 16 23 12 24
DOCKED: REMARK SMILES IDX 15 25 13 26 14 27
DOCKED: REMARK H PARENT 25 11 5 15
DOCKED: USER                              x       y       z     vdW  Elec       q    Type
DOCKED: USER                           _______ _______ _______ _____ _____    ______ ____
DOCKED: ROOT
DOCKED: ATOM      1  C   UNL     1     142.753  72.524 220.835 -0.20 -0.02    +0.140 C  
DOCKED: ENDROOT
DOCKED: BRANCH   1   2
DOCKED: ATOM      2  N   UNL     1     141.370  72.830 220.702 -0.08 +0.05    -0.343 N  
DOCKED: ATOM      3  C   UNL     1     140.593  72.121 219.651 -0.06 -0.03    +0.146 C  
DOCKED: BRANCH   2   4
DOCKED: ATOM      4  C   UNL     1     140.637  73.795 221.425 -0.20 -0.03    +0.239 C  
DOCKED: ATOM      5  O   UNL     1     140.002  73.387 222.437 -0.79 +0.02    -0.273 OA 
DOCKED: BRANCH   4   6
DOCKED: ATOM      6  C   UNL     1     140.547  75.234 221.115 -0.24 -0.03    +0.144 C  
DOCKED: ATOM      7  C   UNL     1     139.161  75.721 220.808 -0.16 -0.01    +0.030 C  
DOCKED: ATOM      8  N   UNL     1     141.099  76.040 222.187 -0.25 +0.10    -0.306 NA 
DOCKED: ATOM      9  C   UNL     1     139.078  77.043 221.532 -0.23 -0.00    +0.017 C  
DOCKED: ATOM     10  C   UNL     1     139.990  76.810 222.719 -0.15 -0.02    +0.082 C  
DOCKED: ATOM     11  H   UNL     1     141.820  76.715 221.865 -0.53 -0.09    +0.123 HD 
DOCKED: ENDBRANCH   4   6
DOCKED: ENDBRANCH   2   4
DOCKED: ENDBRANCH   1   2
DOCKED: BRANCH   1  12
DOCKED: ATOM     12  C   UNL     1     143.727  73.578 220.459 -0.31 -0.03    +0.137 C  
DOCKED: BRANCH  12  13
DOCKED: ATOM     13  N   UNL     1     143.307  74.924 220.372 -0.17 +0.16    -0.349 N  
DOCKED: ATOM     14  C   UNL     1     143.269  75.741 219.217 -0.23 -0.15    +0.269 C  
DOCKED: ATOM     15  H   UNL     1     142.972  75.413 221.266 -0.38 -0.12    +0.163 HD 
DOCKED: ATOM     16  O   UNL     1     143.635  75.363 218.082 -0.16 +0.13    -0.268 OA 
DOCKED: BRANCH  14  17
DOCKED: ATOM     17  C   UNL     1     142.774  77.132 219.300 -0.28 -0.09    +0.128 A  
DOCKED: ATOM     18  C   UNL     1     142.635  77.940 218.217 -0.31 -0.03    +0.035 A  
DOCKED: ATOM     19  N   UNL     1     142.433  77.663 220.511 -0.04 +0.20    -0.243 NA 
DOCKED: ATOM     20  C   UNL     1     142.174  79.238 218.296 -0.30 -0.01    +0.013 A  
DOCKED: ATOM     21  C   UNL     1     141.980  78.921 220.644 -0.15 -0.05    +0.071 A  
DOCKED: ATOM     22  C   UNL     1     141.835  79.747 219.544 -0.30 -0.00    +0.002 A  
DOCKED: ATOM     23  C   UNL     1     141.645  79.411 221.910 -0.43 -0.01    +0.030 A  
DOCKED: ATOM     24  C   UNL     1     141.371  81.042 219.658 -0.26 -0.01    +0.030 A  
DOCKED: ATOM     25  C   UNL     1     141.180  80.700 222.041 -0.40 -0.01    +0.023 A  
DOCKED: ATOM     26  C   UNL     1     141.043  81.513 220.921 -0.30 -0.01    +0.041 A  
DOCKED: ATOM     27  Cl  UNL     1     140.450  83.133 221.161 -0.34 +0.01    -0.084 Cl 
DOCKED: ENDBRANCH  14  17
DOCKED: ENDBRANCH  12  13
DOCKED: ENDBRANCH   1  12
DOCKED: TORSDOF 6
DOCKED: TER
DOCKED: ENDMDL
________________________________________________________________________________


    FINAL DOCKED STATE:
    ________________________


Run:   4 / 20
Time taken for this run:   0.025s

DOCKED: MODEL        4
DOCKED: USER    Run = 4
DOCKED: USER
DOCKED: USER    Estimated Free Energy of Binding    =  -5.55 kcal/mol  [=(1)+(2)+(3)-(4)]
DOCKED: USER
DOCKED: USER    (1) Final Intermolecular Energy     =  -7.34 kcal/mol
DOCKED: USER        vdW + Hbond + desolv Energy     =  -7.29 kcal/mol
DOCKED: USER        Electrostatic Energy            =  -0.05 kcal/mol
DOCKED: USER        Moving Ligand-Fixed Receptor    =  -7.34 kcal/mol
DOCKED: USER        Moving Ligand-Moving Receptor   =  +0.00 kcal/mol
DOCKED: USER    (2) Final Total Internal Energy     =  -3.45 kcal/mol
DOCKED: USER    (3) Torsional Free Energy           =  +1.79 kcal/mol
DOCKED: USER    (4) Unbound System's Energy         =  -3.45 kcal/mol
DOCKED: USER
DOCKED: USER
DOCKED: REMARK SMILES CN(CCNC(=O)c1ccc2cc(Cl)ccc2n1)C(=O)[C@H]1CCCN1
DOCKED: REMARK SMILES IDX 3 1 2 2 1 3 19 4 20 5 21 6 22 7 25 8 23 9 24 10 4 12 5 13
DOCKED: REMARK SMILES IDX 6 14 7 16 8 17 9 18 18 19 10 20 17 21 11 22 16 23 12 24
DOCKED: REMARK SMILES IDX 15 25 13 26 14 27
DOCKED: REMARK H PARENT 25 11 5 15
DOCKED: USER                              x       y       z     vdW  Elec       q    Type
DOCKED: USER                           _______ _______ _______ _____ _____    ______ ____
DOCKED: ROOT
DOCKED: ATOM      1  C   UNL     1     142.862  72.782 220.829 -0.20 -0.02    +0.140 C  
DOCKED: ENDROOT
DOCKED: BRANCH   1   2
DOCKED: ATOM      2  N   UNL     1     141.445  72.879 220.753 -0.08 +0.05    -0.343 N  
DOCKED: ATOM      3  C   UNL     1     140.726  71.941 219.851 -0.07 -0.02    +0.146 C  
DOCKED: BRANCH   2   4
DOCKED: ATOM      4  C   UNL     1     140.619  73.823 221.401 -0.20 -0.03    +0.239 C  
DOCKED: ATOM      5  O   UNL     1     139.916  73.400 222.361 -0.79 +0.03    -0.273 OA 
DOCKED: BRANCH   4   6
DOCKED: ATOM      6  C   UNL     1     140.501  75.254 221.065 -0.23 -0.03    +0.144 C  
DOCKED: ATOM      7  C   UNL     1     139.094  75.732 220.854 -0.16 -0.01    +0.030 C  
DOCKED: ATOM      8  N   UNL     1     141.132  76.085 222.073 -0.23 +0.10    -0.306 NA 
DOCKED: ATOM      9  C   UNL     1     139.063  77.071 221.552 -0.23 -0.00    +0.017 C  
DOCKED: ATOM     10  C   UNL     1     140.065  76.866 222.670 -0.19 -0.02    +0.082 C  
DOCKED: ATOM     11  H   UNL     1     141.824  76.752 221.681 -0.52 -0.08    +0.123 HD 
DOCKED: ENDBRANCH   4   6
DOCKED: ENDBRANCH   2   4
DOCKED: ENDBRANCH   1   2
DOCKED: BRANCH   1  12
DOCKED: ATOM     12  C   UNL     1     143.659  73.794 220.091 -0.29 -0.04    +0.137 C  
DOCKED: BRANCH  12  13
DOCKED: ATOM     13  N   UNL     1     143.233  75.140 220.064 -0.18 +0.17    -0.349 N  
DOCKED: ATOM     14  C   UNL     1     143.098  75.977 218.930 -0.21 -0.15    +0.269 C  
DOCKED: ATOM     15  H   UNL     1     142.972  75.612 220.991 -0.36 -0.12    +0.163 HD 
DOCKED: ATOM     16  O   UNL     1     143.368  75.619 217.762 -0.15 +0.13    -0.268 OA 
DOCKED: BRANCH  14  17
DOCKED: ATOM     17  C   UNL     1     142.611  77.365 219.079 -0.27 -0.09    +0.128 A  
DOCKED: ATOM     18  C   UNL     1     142.474  78.223 218.035 -0.30 -0.03    +0.035 A  
DOCKED: ATOM     19  N   UNL     1     142.276  77.842 220.314 -0.13 +0.18    -0.243 NA 
DOCKED: ATOM     20  C   UNL     1     142.021  79.519 218.175 -0.28 -0.01    +0.013 A  
DOCKED: ATOM     21  C   UNL     1     141.830  79.095 220.506 -0.27 -0.04    +0.071 A  
DOCKED: ATOM     22  C   UNL     1     141.687  79.972 219.446 -0.29 -0.00    +0.002 A  
DOCKED: ATOM     23  C   UNL     1     141.501  79.527 221.795 -0.40 -0.01    +0.030 A  
DOCKED: ATOM     24  C   UNL     1     141.231  81.263 219.621 -0.25 -0.01    +0.030 A  
DOCKED: ATOM     25  C   UNL     1     141.044  80.812 221.986 -0.38 -0.01    +0.023 A  
DOCKED: ATOM     26  C   UNL     1     140.909  81.676 220.906 -0.29 -0.01    +0.041 A  
DOCKED: ATOM     27  Cl  UNL     1     140.325  83.287 221.221 -0.32 +0.01    -0.084 Cl 
DOCKED: ENDBRANCH  14  17
DOCKED: ENDBRANCH  12  13
DOCKED: ENDBRANCH   1  12
DOCKED: TORSDOF 6
DOCKED: TER
DOCKED: ENDMDL
________________________________________________________________________________


    FINAL DOCKED STATE:
    ________________________


Run:   5 / 20
Time taken for this run:   0.025s

DOCKED: MODEL        5
DOCKED: USER    Run = 5
DOCKED: USER
DOCKED: USER    Estimated Free Energy of Binding    =  -5.35 kcal/mol  [=(1)+(2)+(3)-(4)]
DOCKED: USER
DOCKED: USER    (1) Final Intermolecular Energy     =  -7.14 kcal/mol
DOCKED: USER        vdW + Hbond + desolv Energy     =  -7.09 kcal/mol
DOCKED: USER        Electrostatic Energy            =  -0.04 kcal/mol
DOCKED: USER        Moving Ligand-Fixed Receptor    =  -7.14 kcal/mol
DOCKED: USER        Moving Ligand-Moving Receptor   =  +0.00 kcal/mol
DOCKED: USER    (2) Final Total Internal Energy     =  -3.57 kcal/mol
DOCKED: USER    (3) Torsional Free Energy           =  +1.79 kcal/mol
DOCKED: USER    (4) Unbound System's Energy         =  -3.57 kcal/mol
DOCKED: USER
DOCKED: USER
DOCKED: REMARK SMILES CN(CCNC(=O)c1ccc2cc(Cl)ccc2n1)C(=O)[C@H]1CCCN1
DOCKED: REMARK SMILES IDX 3 1 2 2 1 3 19 4 20 5 21 6 22 7 25 8 23 9 24 10 4 12 5 13
DOCKED: REMARK SMILES IDX 6 14 7 16 8 17 9 18 18 19 10 20 17 21 11 22 16 23 12 24
DOCKED: REMARK SMILES IDX 15 25 13 26 14 27
DOCKED: REMARK H PARENT 25 11 5 15
DOCKED: USER                              x       y       z     vdW  Elec       q    Type
DOCKED: USER                           _______ _______ _______ _____ _____    ______ ____
DOCKED: ROOT
DOCKED: ATOM      1  C   UNL     1     138.297  80.497 222.403 -0.17 -0.02    +0.140 C  
DOCKED: ENDROOT
DOCKED: BRANCH   1   2
DOCKED: ATOM      2  N   UNL     1     139.387  81.042 221.669 -0.06 +0.06    -0.343 N  
DOCKED: ATOM      3  C   UNL     1     139.479  82.522 221.546 -0.17 -0.02    +0.146 C  
DOCKED: BRANCH   2   4
DOCKED: ATOM      4  C   UNL     1     140.387  80.330 220.973 -0.14 -0.07    +0.239 C  
DOCKED: ATOM      5  O   UNL     1     140.151  80.052 219.764 -0.05 +0.09    -0.273 OA 
DOCKED: BRANCH   4   6
DOCKED: ATOM      6  C   UNL     1     141.681  79.884 221.521 -0.34 -0.06    +0.144 C  
DOCKED: ATOM      7  C   UNL     1     142.367  80.888 222.400 -0.50 -0.01    +0.030 C  
DOCKED: ATOM      8  N   UNL     1     141.541  78.639 222.254 -0.22 +0.14    -0.306 NA 
DOCKED: ATOM      9  C   UNL     1     142.898  80.059 223.545 -0.58 -0.00    +0.017 C  
DOCKED: ATOM     10  C   UNL     1     141.870  78.949 223.633 -0.55 -0.03    +0.082 C  
DOCKED: ATOM     11  H   UNL     1     142.197  77.899 221.937 -0.44 -0.10    +0.123 HD 
DOCKED: ENDBRANCH   4   6
DOCKED: ENDBRANCH   2   4
DOCKED: ENDBRANCH   1   2
DOCKED: BRANCH   1  12
DOCKED: ATOM     12  C   UNL     1     137.832  79.138 222.030 -0.14 -0.02    +0.137 C  
DOCKED: BRANCH  12  13
DOCKED: ATOM     13  N   UNL     1     138.774  78.125 221.747 -0.06 +0.07    -0.349 N  
DOCKED: ATOM     14  C   UNL     1     138.739  76.775 222.169 -0.20 -0.06    +0.269 C  
DOCKED: ATOM     15  H   UNL     1     139.626  78.374 221.144 +0.06 -0.04    +0.163 HD 
DOCKED: ATOM     16  O   UNL     1     137.840  76.292 222.892 -0.24 +0.06    -0.268 OA 
DOCKED: BRANCH  14  17
DOCKED: ATOM     17  C   UNL     1     139.805  75.835 221.758 -0.28 -0.03    +0.128 A  
DOCKED: ATOM     18  C   UNL     1     139.743  74.495 221.976 -0.26 -0.00    +0.035 A  
DOCKED: ATOM     19  N   UNL     1     140.922  76.303 221.127 -0.18 +0.09    -0.243 NA 
DOCKED: ATOM     20  C   UNL     1     140.738  73.620 221.593 -0.30 -0.00    +0.013 A  
DOCKED: ATOM     21  C   UNL     1     141.920  75.494 220.734 -0.24 -0.03    +0.071 A  
DOCKED: ATOM     22  C   UNL     1     141.860  74.129 220.953 -0.27 -0.00    +0.002 A  
DOCKED: ATOM     23  C   UNL     1     143.040  76.031 220.092 -0.28 -0.02    +0.030 A  
DOCKED: ATOM     24  C   UNL     1     142.874  73.280 220.557 -0.28 -0.01    +0.030 A  
DOCKED: ATOM     25  C   UNL     1     144.060  75.198 219.690 -0.36 -0.01    +0.023 A  
DOCKED: ATOM     26  C   UNL     1     143.978  73.829 219.921 -0.35 -0.01    +0.041 A  
DOCKED: ATOM     27  Cl  UNL     1     145.305  72.835 219.386 -0.49 -0.02    -0.084 Cl 
DOCKED: ENDBRANCH  14  17
DOCKED: ENDBRANCH  12  13
DOCKED: ENDBRANCH   1  12
DOCKED: TORSDOF 6
DOCKED: TER
DOCKED: ENDMDL
________________________________________________________________________________


    FINAL DOCKED STATE:
    ________________________


Run:   6 / 20
Time taken for this run:   0.025s

DOCKED: MODEL        6
DOCKED: USER    Run = 6
DOCKED: USER
DOCKED: USER    Estimated Free Energy of Binding    =  -5.45 kcal/mol  [=(1)+(2)+(3)-(4)]
DOCKED: USER
DOCKED: USER    (1) Final Intermolecular Energy     =  -7.24 kcal/mol
DOCKED: USER        vdW + Hbond + desolv Energy     =  -7.23 kcal/mol
DOCKED: USER        Electrostatic Energy            =  -0.01 kcal/mol
DOCKED: USER        Moving Ligand-Fixed Receptor    =  -7.24 kcal/mol
DOCKED: USER        Moving Ligand-Moving Receptor   =  +0.00 kcal/mol
DOCKED: USER    (2) Final Total Internal Energy     =  -3.11 kcal/mol
DOCKED: USER    (3) Torsional Free Energy           =  +1.79 kcal/mol
DOCKED: USER    (4) Unbound System's Energy         =  -3.11 kcal/mol
DOCKED: USER
DOCKED: USER
DOCKED: REMARK SMILES CN(CCNC(=O)c1ccc2cc(Cl)ccc2n1)C(=O)[C@H]1CCCN1
DOCKED: REMARK SMILES IDX 3 1 2 2 1 3 19 4 20 5 21 6 22 7 25 8 23 9 24 10 4 12 5 13
DOCKED: REMARK SMILES IDX 6 14 7 16 8 17 9 18 18 19 10 20 17 21 11 22 16 23 12 24
DOCKED: REMARK SMILES IDX 15 25 13 26 14 27
DOCKED: REMARK H PARENT 25 11 5 15
DOCKED: USER                              x       y       z     vdW  Elec       q    Type
DOCKED: USER                           _______ _______ _______ _____ _____    ______ ____
DOCKED: ROOT
DOCKED: ATOM      1  C   UNL     1     138.650  81.353 221.651 -0.13 -0.02    +0.140 C  
DOCKED: ENDROOT
DOCKED: BRANCH   1   2
DOCKED: ATOM      2  N   UNL     1     139.965  81.696 221.231 -0.08 +0.07    -0.343 N  
DOCKED: ATOM      3  C   UNL     1     140.258  83.125 220.940 -0.21 -0.03    +0.146 C  
DOCKED: BRANCH   2   4
DOCKED: ATOM      4  C   UNL     1     141.040  80.814 220.991 -0.22 -0.07    +0.239 C  
DOCKED: ATOM      5  O   UNL     1     141.025  80.181 219.899 -0.13 +0.11    -0.273 OA 
DOCKED: BRANCH   4   6
DOCKED: ATOM      6  C   UNL     1     142.180  80.564 221.893 -0.40 -0.05    +0.144 C  
DOCKED: ATOM      7  C   UNL     1     142.125  81.313 223.192 -0.54 -0.01    +0.030 C  
DOCKED: ATOM      8  N   UNL     1     142.327  79.148 222.176 -0.25 +0.17    -0.306 NA 
DOCKED: ATOM      9  C   UNL     1     142.572  80.295 224.213 -0.48 -0.00    +0.017 C  
DOCKED: ATOM     10  C   UNL     1     142.083  78.999 223.599 -0.51 -0.03    +0.082 C  
DOCKED: ATOM     11  H   UNL     1     143.281  78.786 221.985 -0.52 -0.12    +0.123 HD 
DOCKED: ENDBRANCH   4   6
DOCKED: ENDBRANCH   2   4
DOCKED: ENDBRANCH   1   2
DOCKED: BRANCH   1  12
DOCKED: ATOM     12  C   UNL     1     138.485  80.107 222.439 -0.19 -0.02    +0.137 C  
DOCKED: BRANCH  12  13
DOCKED: ATOM     13  N   UNL     1     139.242  78.961 222.108 -0.07 +0.07    -0.349 N  
DOCKED: ATOM     14  C   UNL     1     138.868  77.606 222.275 -0.19 -0.05    +0.269 C  
DOCKED: ATOM     15  H   UNL     1     140.214  79.098 221.677 +0.08 -0.05    +0.163 HD 
DOCKED: ATOM     16  O   UNL     1     137.783  77.237 222.776 -0.20 +0.05    -0.268 OA 
DOCKED: BRANCH  14  17
DOCKED: ATOM     17  C   UNL     1     139.779  76.521 221.849 -0.28 -0.03    +0.128 A  
DOCKED: ATOM     18  C   UNL     1     139.536  75.207 222.089 -0.28 -0.01    +0.035 A  
DOCKED: ATOM     19  N   UNL     1     140.930  76.821 221.179 -0.17 +0.10    -0.243 NA 
DOCKED: ATOM     20  C   UNL     1     140.387  74.195 221.691 -0.28 -0.00    +0.013 A  
DOCKED: ATOM     21  C   UNL     1     141.793  75.875 220.770 -0.24 -0.03    +0.071 A  
DOCKED: ATOM     22  C   UNL     1     141.550  74.535 221.011 -0.30 -0.00    +0.002 A  
DOCKED: ATOM     23  C   UNL     1     142.957  76.243 220.088 -0.27 -0.02    +0.030 A  
DOCKED: ATOM     24  C   UNL     1     142.422  73.548 220.600 -0.26 -0.01    +0.030 A  
DOCKED: ATOM     25  C   UNL     1     143.837  75.270 219.670 -0.38 -0.01    +0.023 A  
DOCKED: ATOM     26  C   UNL     1     143.572  73.929 219.923 -0.32 -0.01    +0.041 A  
DOCKED: ATOM     27  Cl  UNL     1     144.730  72.752 219.367 -0.42 -0.00    -0.084 Cl 
DOCKED: ENDBRANCH  14  17
DOCKED: ENDBRANCH  12  13
DOCKED: ENDBRANCH   1  12
DOCKED: TORSDOF 6
DOCKED: TER
DOCKED: ENDMDL
________________________________________________________________________________


    FINAL DOCKED STATE:
    ________________________


Run:   7 / 20
Time taken for this run:   0.025s

DOCKED: MODEL        7
DOCKED: USER    Run = 7
DOCKED: USER
DOCKED: USER    Estimated Free Energy of Binding    =  -5.53 kcal/mol  [=(1)+(2)+(3)-(4)]
DOCKED: USER
DOCKED: USER    (1) Final Intermolecular Energy     =  -7.32 kcal/mol
DOCKED: USER        vdW + Hbond + desolv Energy     =  -7.27 kcal/mol
DOCKED: USER        Electrostatic Energy            =  -0.05 kcal/mol
DOCKED: USER        Moving Ligand-Fixed Receptor    =  -7.32 kcal/mol
DOCKED: USER        Moving Ligand-Moving Receptor   =  +0.00 kcal/mol
DOCKED: USER    (2) Final Total Internal Energy     =  -3.45 kcal/mol
DOCKED: USER    (3) Torsional Free Energy           =  +1.79 kcal/mol
DOCKED: USER    (4) Unbound System's Energy         =  -3.45 kcal/mol
DOCKED: USER
DOCKED: USER
DOCKED: REMARK SMILES CN(CCNC(=O)c1ccc2cc(Cl)ccc2n1)C(=O)[C@H]1CCCN1
DOCKED: REMARK SMILES IDX 3 1 2 2 1 3 19 4 20 5 21 6 22 7 25 8 23 9 24 10 4 12 5 13
DOCKED: REMARK SMILES IDX 6 14 7 16 8 17 9 18 18 19 10 20 17 21 11 22 16 23 12 24
DOCKED: REMARK SMILES IDX 15 25 13 26 14 27
DOCKED: REMARK H PARENT 25 11 5 15
DOCKED: USER                              x       y       z     vdW  Elec       q    Type
DOCKED: USER                           _______ _______ _______ _____ _____    ______ ____
DOCKED: ROOT
DOCKED: ATOM      1  C   UNL     1     142.826  72.653 220.840 -0.20 -0.02    +0.140 C  
DOCKED: ENDROOT
DOCKED: BRANCH   1   2
DOCKED: ATOM      2  N   UNL     1     141.421  72.850 220.728 -0.08 +0.05    -0.343 N  
DOCKED: ATOM      3  C   UNL     1     140.671  72.015 219.752 -0.07 -0.03    +0.146 C  
DOCKED: BRANCH   2   4
DOCKED: ATOM      4  C   UNL     1     140.639  73.810 221.406 -0.20 -0.03    +0.239 C  
DOCKED: ATOM      5  O   UNL     1     139.950  73.397 222.380 -0.80 +0.03    -0.273 OA 
DOCKED: BRANCH   4   6
DOCKED: ATOM      6  C   UNL     1     140.552  75.247 221.086 -0.24 -0.03    +0.144 C  
DOCKED: ATOM      7  C   UNL     1     139.169  75.732 220.763 -0.15 -0.01    +0.030 C  
DOCKED: ATOM      8  N   UNL     1     141.094  76.059 222.159 -0.25 +0.10    -0.306 NA 
DOCKED: ATOM      9  C   UNL     1     139.080  77.059 221.480 -0.22 -0.00    +0.017 C  
DOCKED: ATOM     10  C   UNL     1     139.981  76.832 222.676 -0.17 -0.02    +0.082 C  
DOCKED: ATOM     11  H   UNL     1     141.819  76.731 221.841 -0.52 -0.09    +0.123 HD 
DOCKED: ENDBRANCH   4   6
DOCKED: ENDBRANCH   2   4
DOCKED: ENDBRANCH   1   2
DOCKED: BRANCH   1  12
DOCKED: ATOM     12  C   UNL     1     143.712  73.703 220.279 -0.30 -0.03    +0.137 C  
DOCKED: BRANCH  12  13
DOCKED: ATOM     13  N   UNL     1     143.268  75.043 220.229 -0.17 +0.17    -0.349 N  
DOCKED: ATOM     14  C   UNL     1     143.194  75.883 219.091 -0.22 -0.15    +0.269 C  
DOCKED: ATOM     15  H   UNL     1     142.943  75.507 221.139 -0.37 -0.12    +0.163 HD 
DOCKED: ATOM     16  O   UNL     1     143.543  75.534 217.942 -0.16 +0.14    -0.268 OA 
DOCKED: BRANCH  14  17
DOCKED: ATOM     17  C   UNL     1     142.678  77.264 219.214 -0.27 -0.09    +0.128 A  
DOCKED: ATOM     18  C   UNL     1     142.514  78.095 218.152 -0.30 -0.03    +0.035 A  
DOCKED: ATOM     19  N   UNL     1     142.343  77.760 220.441 -0.09 +0.19    -0.243 NA 
DOCKED: ATOM     20  C   UNL     1     142.034  79.383 218.268 -0.29 -0.01    +0.013 A  
DOCKED: ATOM     21  C   UNL     1     141.871  79.007 220.609 -0.24 -0.04    +0.071 A  
DOCKED: ATOM     22  C   UNL     1     141.701  79.857 219.531 -0.29 -0.00    +0.002 A  
DOCKED: ATOM     23  C   UNL     1     141.543  79.461 221.890 -0.41 -0.01    +0.030 A  
DOCKED: ATOM     24  C   UNL     1     141.218  81.142 219.681 -0.25 -0.01    +0.030 A  
DOCKED: ATOM     25  C   UNL     1     141.060  80.739 222.057 -0.38 -0.01    +0.023 A  
DOCKED: ATOM     26  C   UNL     1     140.897  81.576 220.959 -0.29 -0.01    +0.041 A  
DOCKED: ATOM     27  Cl  UNL     1     140.281  83.180 221.244 -0.32 +0.01    -0.084 Cl 
DOCKED: ENDBRANCH  14  17
DOCKED: ENDBRANCH  12  13
DOCKED: ENDBRANCH   1  12
DOCKED: TORSDOF 6
DOCKED: TER
DOCKED: ENDMDL
________________________________________________________________________________


    FINAL DOCKED STATE:
    ________________________


Run:   8 / 20
Time taken for this run:   0.025s

DOCKED: MODEL        8
DOCKED: USER    Run = 8
DOCKED: USER
DOCKED: USER    Estimated Free Energy of Binding    =  -5.49 kcal/mol  [=(1)+(2)+(3)-(4)]
DOCKED: USER
DOCKED: USER    (1) Final Intermolecular Energy     =  -7.28 kcal/mol
DOCKED: USER        vdW + Hbond + desolv Energy     =  -7.25 kcal/mol
DOCKED: USER        Electrostatic Energy            =  -0.03 kcal/mol
DOCKED: USER        Moving Ligand-Fixed Receptor    =  -7.28 kcal/mol
DOCKED: USER        Moving Ligand-Moving Receptor   =  +0.00 kcal/mol
DOCKED: USER    (2) Final Total Internal Energy     =  -3.30 kcal/mol
DOCKED: USER    (3) Torsional Free Energy           =  +1.79 kcal/mol
DOCKED: USER    (4) Unbound System's Energy         =  -3.30 kcal/mol
DOCKED: USER
DOCKED: USER
DOCKED: REMARK SMILES CN(CCNC(=O)c1ccc2cc(Cl)ccc2n1)C(=O)[C@H]1CCCN1
DOCKED: REMARK SMILES IDX 3 1 2 2 1 3 19 4 20 5 21 6 22 7 25 8 23 9 24 10 4 12 5 13
DOCKED: REMARK SMILES IDX 6 14 7 16 8 17 9 18 18 19 10 20 17 21 11 22 16 23 12 24
DOCKED: REMARK SMILES IDX 15 25 13 26 14 27
DOCKED: REMARK H PARENT 25 11 5 15
DOCKED: USER                              x       y       z     vdW  Elec       q    Type
DOCKED: USER                           _______ _______ _______ _____ _____    ______ ____
DOCKED: ROOT
DOCKED: ATOM      1  C   UNL     1     141.426  81.002 221.591 -0.34 -0.04    +0.140 C  
DOCKED: ENDROOT
DOCKED: BRANCH   1   2
DOCKED: ATOM      2  N   UNL     1     141.413  79.927 222.524 -0.20 +0.10    -0.343 N  
DOCKED: ATOM      3  C   UNL     1     142.555  79.804 223.469 -0.52 -0.04    +0.146 C  
DOCKED: BRANCH   2   4
DOCKED: ATOM      4  C   UNL     1     140.451  78.899 222.626 -0.28 -0.06    +0.239 C  
DOCKED: ATOM      5  O   UNL     1     139.258  79.255 222.836 -0.19 +0.05    -0.273 OA 
DOCKED: BRANCH   4   6
DOCKED: ATOM      6  C   UNL     1     140.706  77.452 222.507 -0.34 -0.05    +0.144 C  
DOCKED: ATOM      7  C   UNL     1     139.495  76.586 222.697 -0.18 -0.01    +0.030 C  
DOCKED: ATOM      8  N   UNL     1     141.317  77.128 221.232 -0.15 +0.15    -0.306 NA 
DOCKED: ATOM      9  C   UNL     1     139.635  75.535 221.622 -0.30 -0.00    +0.017 C  
DOCKED: ATOM     10  C   UNL     1     140.358  76.295 220.530 -0.18 -0.03    +0.082 C  
DOCKED: ATOM     11  H   UNL     1     142.195  76.581 221.323 -0.52 -0.10    +0.123 HD 
DOCKED: ENDBRANCH   4   6
DOCKED: ENDBRANCH   2   4
DOCKED: ENDBRANCH   1   2
DOCKED: BRANCH   1  12
DOCKED: ATOM     12  C   UNL     1     141.748  80.679 220.179 -0.25 -0.06    +0.137 C  
DOCKED: BRANCH  12  13
DOCKED: ATOM     13  N   UNL     1     142.190  79.382 219.838 -0.06 +0.23    -0.349 N  
DOCKED: ATOM     14  C   UNL     1     142.207  78.788 218.553 -0.20 -0.19    +0.269 C  
DOCKED: ATOM     15  H   UNL     1     142.564  78.748 220.619 -0.33 -0.15    +0.163 HD 
DOCKED: ATOM     16  O   UNL     1     141.797  79.356 217.517 -0.14 +0.20    -0.268 OA 
DOCKED: BRANCH  14  17
DOCKED: ATOM     17  C   UNL     1     142.730  77.417 218.369 -0.27 -0.09    +0.128 A  
DOCKED: ATOM     18  C   UNL     1     142.732  76.774 217.173 -0.22 -0.02    +0.035 A  
DOCKED: ATOM     19  N   UNL     1     143.243  76.734 219.434 -0.26 +0.18    -0.243 NA 
DOCKED: ATOM     20  C   UNL     1     143.219  75.495 217.002 -0.17 -0.01    +0.013 A  
DOCKED: ATOM     21  C   UNL     1     143.730  75.487 219.323 -0.31 -0.04    +0.071 A  
DOCKED: ATOM     22  C   UNL     1     143.735  74.828 218.107 -0.20 -0.00    +0.002 A  
DOCKED: ATOM     23  C   UNL     1     144.243  74.837 220.450 -0.38 -0.01    +0.030 A  
DOCKED: ATOM     24  C   UNL     1     144.230  73.547 217.970 -0.16 -0.00    +0.030 A  
DOCKED: ATOM     25  C   UNL     1     144.742  73.559 220.331 -0.49 -0.00    +0.023 A  
DOCKED: ATOM     26  C   UNL     1     144.736  72.916 219.098 -0.27 +0.00    +0.041 A  
DOCKED: ATOM     27  Cl  UNL     1     145.382  71.300 219.021 -0.35 -0.04    -0.084 Cl 
DOCKED: ENDBRANCH  14  17
DOCKED: ENDBRANCH  12  13
DOCKED: ENDBRANCH   1  12
DOCKED: TORSDOF 6
DOCKED: TER
DOCKED: ENDMDL
________________________________________________________________________________


    FINAL DOCKED STATE:
    ________________________


Run:   9 / 20
Time taken for this run:   0.025s

DOCKED: MODEL        9
DOCKED: USER    Run = 9
DOCKED: USER
DOCKED: USER    Estimated Free Energy of Binding    =  -5.36 kcal/mol  [=(1)+(2)+(3)-(4)]
DOCKED: USER
DOCKED: USER    (1) Final Intermolecular Energy     =  -7.15 kcal/mol
DOCKED: USER        vdW + Hbond + desolv Energy     =  -7.11 kcal/mol
DOCKED: USER        Electrostatic Energy            =  -0.04 kcal/mol
DOCKED: USER        Moving Ligand-Fixed Receptor    =  -7.15 kcal/mol
DOCKED: USER        Moving Ligand-Moving Receptor   =  +0.00 kcal/mol
DOCKED: USER    (2) Final Total Internal Energy     =  -3.57 kcal/mol
DOCKED: USER    (3) Torsional Free Energy           =  +1.79 kcal/mol
DOCKED: USER    (4) Unbound System's Energy         =  -3.57 kcal/mol
DOCKED: USER
DOCKED: USER
DOCKED: REMARK SMILES CN(CCNC(=O)c1ccc2cc(Cl)ccc2n1)C(=O)[C@H]1CCCN1
DOCKED: REMARK SMILES IDX 3 1 2 2 1 3 19 4 20 5 21 6 22 7 25 8 23 9 24 10 4 12 5 13
DOCKED: REMARK SMILES IDX 6 14 7 16 8 17 9 18 18 19 10 20 17 21 11 22 16 23 12 24
DOCKED: REMARK SMILES IDX 15 25 13 26 14 27
DOCKED: REMARK H PARENT 25 11 5 15
DOCKED: USER                              x       y       z     vdW  Elec       q    Type
DOCKED: USER                           _______ _______ _______ _____ _____    ______ ____
DOCKED: ROOT
DOCKED: ATOM      1  C   UNL     1     138.267  80.485 222.511 -0.18 -0.02    +0.140 C  
DOCKED: ENDROOT
DOCKED: BRANCH   1   2
DOCKED: ATOM      2  N   UNL     1     139.324  81.028 221.728 -0.06 +0.06    -0.343 N  
DOCKED: ATOM      3  C   UNL     1     139.377  82.504 221.551 -0.17 -0.02    +0.146 C  
DOCKED: BRANCH   2   4
DOCKED: ATOM      4  C   UNL     1     140.321  80.314 221.030 -0.13 -0.07    +0.239 C  
DOCKED: ATOM      5  O   UNL     1     140.070  80.011 219.830 -0.05 +0.09    -0.273 OA 
DOCKED: BRANCH   4   6
DOCKED: ATOM      6  C   UNL     1     141.628  79.893 221.567 -0.34 -0.06    +0.144 C  
DOCKED: ATOM      7  C   UNL     1     142.304  80.911 222.437 -0.51 -0.01    +0.030 C  
DOCKED: ATOM      8  N   UNL     1     141.519  78.647 222.302 -0.23 +0.14    -0.306 NA 
DOCKED: ATOM      9  C   UNL     1     142.861  80.093 223.578 -0.59 -0.00    +0.017 C  
DOCKED: ATOM     10  C   UNL     1     141.854  78.965 223.678 -0.55 -0.03    +0.082 C  
DOCKED: ATOM     11  H   UNL     1     142.185  77.919 221.980 -0.43 -0.10    +0.123 HD 
DOCKED: ENDBRANCH   4   6
DOCKED: ENDBRANCH   2   4
DOCKED: ENDBRANCH   1   2
DOCKED: BRANCH   1  12
DOCKED: ATOM     12  C   UNL     1     137.804  79.114 222.180 -0.15 -0.02    +0.137 C  
DOCKED: BRANCH  12  13
DOCKED: ATOM     13  N   UNL     1     138.747  78.113 221.858 -0.07 +0.07    -0.349 N  
DOCKED: ATOM     14  C   UNL     1     138.707  76.745 222.221 -0.20 -0.05    +0.269 C  
DOCKED: ATOM     15  H   UNL     1     139.603  78.386 221.273 +0.06 -0.04    +0.163 HD 
DOCKED: ATOM     16  O   UNL     1     137.802  76.233 222.916 -0.24 +0.06    -0.268 OA 
DOCKED: BRANCH  14  17
DOCKED: ATOM     17  C   UNL     1     139.773  75.822 221.776 -0.28 -0.03    +0.128 A  
DOCKED: ATOM     18  C   UNL     1     139.718  74.477 221.956 -0.27 -0.00    +0.035 A  
DOCKED: ATOM     19  N   UNL     1     140.884  76.313 221.151 -0.18 +0.09    -0.243 NA 
DOCKED: ATOM     20  C   UNL     1     140.714  73.616 221.542 -0.30 -0.00    +0.013 A  
DOCKED: ATOM     21  C   UNL     1     141.882  75.519 220.728 -0.25 -0.03    +0.071 A  
DOCKED: ATOM     22  C   UNL     1     141.830  74.149 220.908 -0.28 -0.00    +0.002 A  
DOCKED: ATOM     23  C   UNL     1     142.995  76.079 220.093 -0.28 -0.02    +0.030 A  
DOCKED: ATOM     24  C   UNL     1     142.844  73.315 220.482 -0.28 -0.01    +0.030 A  
DOCKED: ATOM     25  C   UNL     1     144.016  75.262 219.661 -0.35 -0.01    +0.023 A  
DOCKED: ATOM     26  C   UNL     1     143.942  73.887 219.853 -0.35 -0.01    +0.041 A  
DOCKED: ATOM     27  Cl  UNL     1     145.269  72.914 219.282 -0.47 -0.02    -0.084 Cl 
DOCKED: ENDBRANCH  14  17
DOCKED: ENDBRANCH  12  13
DOCKED: ENDBRANCH   1  12
DOCKED: TORSDOF 6
DOCKED: TER
DOCKED: ENDMDL
________________________________________________________________________________


    FINAL DOCKED STATE:
    ________________________


Run:   10 / 20
Time taken for this run:   0.025s

DOCKED: MODEL        10
DOCKED: USER    Run = 10
DOCKED: USER
DOCKED: USER    Estimated Free Energy of Binding    =  -5.53 kcal/mol  [=(1)+(2)+(3)-(4)]
DOCKED: USER
DOCKED: USER    (1) Final Intermolecular Energy     =  -7.32 kcal/mol
DOCKED: USER        vdW + Hbond + desolv Energy     =  -7.26 kcal/mol
DOCKED: USER        Electrostatic Energy            =  -0.06 kcal/mol
DOCKED: USER        Moving Ligand-Fixed Receptor    =  -7.32 kcal/mol
DOCKED: USER        Moving Ligand-Moving Receptor   =  +0.00 kcal/mol
DOCKED: USER    (2) Final Total Internal Energy     =  -3.33 kcal/mol
DOCKED: USER    (3) Torsional Free Energy           =  +1.79 kcal/mol
DOCKED: USER    (4) Unbound System's Energy         =  -3.33 kcal/mol
DOCKED: USER
DOCKED: USER
DOCKED: REMARK SMILES CN(CCNC(=O)c1ccc2cc(Cl)ccc2n1)C(=O)[C@H]1CCCN1
DOCKED: REMARK SMILES IDX 3 1 2 2 1 3 19 4 20 5 21 6 22 7 25 8 23 9 24 10 4 12 5 13
DOCKED: REMARK SMILES IDX 6 14 7 16 8 17 9 18 18 19 10 20 17 21 11 22 16 23 12 24
DOCKED: REMARK SMILES IDX 15 25 13 26 14 27
DOCKED: REMARK H PARENT 25 11 5 15
DOCKED: USER                              x       y       z     vdW  Elec       q    Type
DOCKED: USER                           _______ _______ _______ _____ _____    ______ ____
DOCKED: ROOT
DOCKED: ATOM      1  C   UNL     1     143.096  73.127 220.837 -0.19 -0.02    +0.140 C  
DOCKED: ENDROOT
DOCKED: BRANCH   1   2
DOCKED: ATOM      2  N   UNL     1     141.702  72.906 221.016 -0.11 +0.04    -0.343 N  
DOCKED: ATOM      3  C   UNL     1     141.142  71.590 220.607 -0.13 -0.02    +0.146 C  
DOCKED: BRANCH   2   4
DOCKED: ATOM      4  C   UNL     1     140.747  73.830 221.493 -0.20 -0.03    +0.239 C  
DOCKED: ATOM      5  O   UNL     1     139.933  73.410 222.363 -0.80 +0.03    -0.273 OA 
DOCKED: BRANCH   4   6
DOCKED: ATOM      6  C   UNL     1     140.611  75.237 221.075 -0.24 -0.04    +0.144 C  
DOCKED: ATOM      7  C   UNL     1     139.198  75.689 220.849 -0.17 -0.01    +0.030 C  
DOCKED: ATOM      8  N   UNL     1     141.242  76.132 222.026 -0.18 +0.12    -0.306 NA 
DOCKED: ATOM      9  C   UNL     1     139.159  77.066 221.468 -0.22 -0.00    +0.017 C  
DOCKED: ATOM     10  C   UNL     1     140.173  76.937 222.586 -0.25 -0.02    +0.082 C  
DOCKED: ATOM     11  H   UNL     1     141.924  76.783 221.590 -0.51 -0.09    +0.123 HD 
DOCKED: ENDBRANCH   4   6
DOCKED: ENDBRANCH   2   4
DOCKED: ENDBRANCH   1   2
DOCKED: BRANCH   1  12
DOCKED: ATOM     12  C   UNL     1     143.511  74.016 219.724 -0.26 -0.04    +0.137 C  
DOCKED: BRANCH  12  13
DOCKED: ATOM     13  N   UNL     1     143.148  75.381 219.742 -0.17 +0.17    -0.349 N  
DOCKED: ATOM     14  C   UNL     1     143.014  76.251 218.634 -0.20 -0.15    +0.269 C  
DOCKED: ATOM     15  H   UNL     1     142.942  75.842 220.689 -0.29 -0.12    +0.163 HD 
DOCKED: ATOM     16  O   UNL     1     143.227  75.911 217.449 -0.15 +0.14    -0.268 OA 
DOCKED: BRANCH  14  17
DOCKED: ATOM     17  C   UNL     1     142.598  77.657 218.832 -0.27 -0.09    +0.128 A  
DOCKED: ATOM     18  C   UNL     1     142.597  78.581 217.837 -0.30 -0.03    +0.035 A  
DOCKED: ATOM     19  N   UNL     1     142.192  78.080 220.065 -0.16 +0.17    -0.243 NA 
DOCKED: ATOM     20  C   UNL     1     142.211  79.892 218.023 -0.31 -0.01    +0.013 A  
DOCKED: ATOM     21  C   UNL     1     141.805  79.346 220.300 -0.27 -0.04    +0.071 A  
DOCKED: ATOM     22  C   UNL     1     141.801  80.290 219.290 -0.30 -0.00    +0.002 A  
DOCKED: ATOM     23  C   UNL     1     141.398  79.722 221.584 -0.37 -0.01    +0.030 A  
DOCKED: ATOM     24  C   UNL     1     141.408  81.595 219.509 -0.26 -0.01    +0.030 A  
DOCKED: ATOM     25  C   UNL     1     141.002  81.020 221.820 -0.36 -0.01    +0.023 A  
DOCKED: ATOM     26  C   UNL     1     141.007  81.952 220.789 -0.30 -0.01    +0.041 A  
DOCKED: ATOM     27  Cl  UNL     1     140.494  83.575 221.159 -0.30 +0.01    -0.084 Cl 
DOCKED: ENDBRANCH  14  17
DOCKED: ENDBRANCH  12  13
DOCKED: ENDBRANCH   1  12
DOCKED: TORSDOF 6
DOCKED: TER
DOCKED: ENDMDL
________________________________________________________________________________


    FINAL DOCKED STATE:
    ________________________


Run:   11 / 20
Time taken for this run:   0.025s

DOCKED: MODEL        11
DOCKED: USER    Run = 11
DOCKED: USER
DOCKED: USER    Estimated Free Energy of Binding    =  -5.55 kcal/mol  [=(1)+(2)+(3)-(4)]
DOCKED: USER
DOCKED: USER    (1) Final Intermolecular Energy     =  -7.34 kcal/mol
DOCKED: USER        vdW + Hbond + desolv Energy     =  -7.29 kcal/mol
DOCKED: USER        Electrostatic Energy            =  -0.05 kcal/mol
DOCKED: USER        Moving Ligand-Fixed Receptor    =  -7.34 kcal/mol
DOCKED: USER        Moving Ligand-Moving Receptor   =  +0.00 kcal/mol
DOCKED: USER    (2) Final Total Internal Energy     =  -3.42 kcal/mol
DOCKED: USER    (3) Torsional Free Energy           =  +1.79 kcal/mol
DOCKED: USER    (4) Unbound System's Energy         =  -3.42 kcal/mol
DOCKED: USER
DOCKED: USER
DOCKED: REMARK SMILES CN(CCNC(=O)c1ccc2cc(Cl)ccc2n1)C(=O)[C@H]1CCCN1
DOCKED: REMARK SMILES IDX 3 1 2 2 1 3 19 4 20 5 21 6 22 7 25 8 23 9 24 10 4 12 5 13
DOCKED: REMARK SMILES IDX 6 14 7 16 8 17 9 18 18 19 10 20 17 21 11 22 16 23 12 24
DOCKED: REMARK SMILES IDX 15 25 13 26 14 27
DOCKED: REMARK H PARENT 25 11 5 15
DOCKED: USER                              x       y       z     vdW  Elec       q    Type
DOCKED: USER                           _______ _______ _______ _____ _____    ______ ____
DOCKED: ROOT
DOCKED: ATOM      1  C   UNL     1     142.910  72.858 220.818 -0.20 -0.02    +0.140 C  
DOCKED: ENDROOT
DOCKED: BRANCH   1   2
DOCKED: ATOM      2  N   UNL     1     141.487  72.859 220.815 -0.09 +0.05    -0.343 N  
DOCKED: ATOM      3  C   UNL     1     140.787  71.799 220.042 -0.08 -0.02    +0.146 C  
DOCKED: BRANCH   2   4
DOCKED: ATOM      4  C   UNL     1     140.634  73.805 221.424 -0.20 -0.03    +0.239 C  
DOCKED: ATOM      5  O   UNL     1     139.909  73.390 222.371 -0.79 +0.03    -0.273 OA 
DOCKED: BRANCH   4   6
DOCKED: ATOM      6  C   UNL     1     140.513  75.229 221.062 -0.23 -0.03    +0.144 C  
DOCKED: ATOM      7  C   UNL     1     139.104  75.703 220.856 -0.16 -0.01    +0.030 C  
DOCKED: ATOM      8  N   UNL     1     141.153  76.080 222.047 -0.23 +0.11    -0.306 NA 
DOCKED: ATOM      9  C   UNL     1     139.079  77.055 221.529 -0.23 -0.00    +0.017 C  
DOCKED: ATOM     10  C   UNL     1     140.092  76.872 222.640 -0.21 -0.02    +0.082 C  
DOCKED: ATOM     11  H   UNL     1     141.841  76.740 221.637 -0.52 -0.09    +0.123 HD 
DOCKED: ENDBRANCH   4   6
DOCKED: ENDBRANCH   2   4
DOCKED: ENDBRANCH   1   2
DOCKED: BRANCH   1  12
DOCKED: ATOM     12  C   UNL     1     143.598  73.833 219.936 -0.27 -0.04    +0.137 C  
DOCKED: BRANCH  12  13
DOCKED: ATOM     13  N   UNL     1     143.192  75.186 219.933 -0.17 +0.17    -0.349 N  
DOCKED: ATOM     14  C   UNL     1     143.074  76.047 218.816 -0.21 -0.15    +0.269 C  
DOCKED: ATOM     15  H   UNL     1     142.934  75.644 220.868 -0.36 -0.12    +0.163 HD 
DOCKED: ATOM     16  O   UNL     1     143.344  75.709 217.642 -0.15 +0.14    -0.268 OA 
DOCKED: BRANCH  14  17
DOCKED: ATOM     17  C   UNL     1     142.608  77.440 218.990 -0.28 -0.09    +0.128 A  
DOCKED: ATOM     18  C   UNL     1     142.507  78.326 217.966 -0.30 -0.03    +0.035 A  
DOCKED: ATOM     19  N   UNL     1     142.254  77.890 220.230 -0.14 +0.18    -0.243 NA 
DOCKED: ATOM     20  C   UNL     1     142.073  79.626 218.130 -0.29 -0.01    +0.013 A  
DOCKED: ATOM     21  C   UNL     1     141.825  79.146 220.445 -0.27 -0.04    +0.071 A  
DOCKED: ATOM     22  C   UNL     1     141.720  80.052 219.405 -0.29 -0.00    +0.002 A  
DOCKED: ATOM     23  C   UNL     1     141.475  79.550 221.737 -0.39 -0.01    +0.030 A  
DOCKED: ATOM     24  C   UNL     1     141.281  81.345 219.603 -0.25 -0.01    +0.030 A  
DOCKED: ATOM     25  C   UNL     1     141.036  80.837 221.952 -0.37 -0.01    +0.023 A  
DOCKED: ATOM     26  C   UNL     1     140.938  81.731 220.891 -0.30 -0.01    +0.041 A  
DOCKED: ATOM     27  Cl  UNL     1     140.375  83.343 221.236 -0.31 +0.01    -0.084 Cl 
DOCKED: ENDBRANCH  14  17
DOCKED: ENDBRANCH  12  13
DOCKED: ENDBRANCH   1  12
DOCKED: TORSDOF 6
DOCKED: TER
DOCKED: ENDMDL
________________________________________________________________________________


    FINAL DOCKED STATE:
    ________________________


Run:   12 / 20
Time taken for this run:   0.025s

DOCKED: MODEL        12
DOCKED: USER    Run = 12
DOCKED: USER
DOCKED: USER    Estimated Free Energy of Binding    =  -5.36 kcal/mol  [=(1)+(2)+(3)-(4)]
DOCKED: USER
DOCKED: USER    (1) Final Intermolecular Energy     =  -7.15 kcal/mol
DOCKED: USER        vdW + Hbond + desolv Energy     =  -7.11 kcal/mol
DOCKED: USER        Electrostatic Energy            =  -0.04 kcal/mol
DOCKED: USER        Moving Ligand-Fixed Receptor    =  -7.15 kcal/mol
DOCKED: USER        Moving Ligand-Moving Receptor   =  +0.00 kcal/mol
DOCKED: USER    (2) Final Total Internal Energy     =  -3.55 kcal/mol
DOCKED: USER    (3) Torsional Free Energy           =  +1.79 kcal/mol
DOCKED: USER    (4) Unbound System's Energy         =  -3.55 kcal/mol
DOCKED: USER
DOCKED: USER
DOCKED: REMARK SMILES CN(CCNC(=O)c1ccc2cc(Cl)ccc2n1)C(=O)[C@H]1CCCN1
DOCKED: REMARK SMILES IDX 3 1 2 2 1 3 19 4 20 5 21 6 22 7 25 8 23 9 24 10 4 12 5 13
DOCKED: REMARK SMILES IDX 6 14 7 16 8 17 9 18 18 19 10 20 17 21 11 22 16 23 12 24
DOCKED: REMARK SMILES IDX 15 25 13 26 14 27
DOCKED: REMARK H PARENT 25 11 5 15
DOCKED: USER                              x       y       z     vdW  Elec       q    Type
DOCKED: USER                           _______ _______ _______ _____ _____    ______ ____
DOCKED: ROOT
DOCKED: ATOM      1  C   UNL     1     138.376  80.595 222.438 -0.18 -0.02    +0.140 C  
DOCKED: ENDROOT
DOCKED: BRANCH   1   2
DOCKED: ATOM      2  N   UNL     1     139.414  81.084 221.596 -0.06 +0.06    -0.343 N  
DOCKED: ATOM      3  C   UNL     1     139.426  82.534 221.266 -0.16 -0.02    +0.146 C  
DOCKED: BRANCH   2   4
DOCKED: ATOM      4  C   UNL     1     140.428  80.329 220.969 -0.14 -0.07    +0.239 C  
DOCKED: ATOM      5  O   UNL     1     140.228  79.991 219.769 -0.06 +0.09    -0.273 OA 
DOCKED: BRANCH   4   6
DOCKED: ATOM      6  C   UNL     1     141.700  79.900 221.580 -0.35 -0.06    +0.144 C  
DOCKED: ATOM      7  C   UNL     1     142.340  80.923 222.472 -0.50 -0.01    +0.030 C  
DOCKED: ATOM      8  N   UNL     1     141.537  78.666 222.326 -0.23 +0.14    -0.306 NA 
DOCKED: ATOM      9  C   UNL     1     142.826  80.116 223.652 -0.59 -0.00    +0.017 C  
DOCKED: ATOM     10  C   UNL     1     141.803  79.000 223.713 -0.56 -0.02    +0.082 C  
DOCKED: ATOM     11  H   UNL     1     142.211  77.926 222.049 -0.43 -0.10    +0.123 HD 
DOCKED: ENDBRANCH   4   6
DOCKED: ENDBRANCH   2   4
DOCKED: ENDBRANCH   1   2
DOCKED: BRANCH   1  12
DOCKED: ATOM     12  C   UNL     1     137.891  79.214 222.197 -0.15 -0.02    +0.137 C  
DOCKED: BRANCH  12  13
DOCKED: ATOM     13  N   UNL     1     138.810  78.194 221.866 -0.07 +0.07    -0.349 N  
DOCKED: ATOM     14  C   UNL     1     138.762  76.834 222.254 -0.20 -0.05    +0.269 C  
DOCKED: ATOM     15  H   UNL     1     139.651  78.445 221.251 +0.07 -0.04    +0.163 HD 
DOCKED: ATOM     16  O   UNL     1     137.871  76.347 222.985 -0.25 +0.06    -0.268 OA 
DOCKED: BRANCH  14  17
DOCKED: ATOM     17  C   UNL     1     139.802  75.888 221.795 -0.28 -0.03    +0.128 A  
DOCKED: ATOM     18  C   UNL     1     139.716  74.543 221.967 -0.27 -0.00    +0.035 A  
DOCKED: ATOM     19  N   UNL     1     140.919  76.356 221.164 -0.18 +0.09    -0.243 NA 
DOCKED: ATOM     20  C   UNL     1     140.687  73.662 221.539 -0.30 -0.00    +0.013 A  
DOCKED: ATOM     21  C   UNL     1     141.895  75.541 220.727 -0.25 -0.03    +0.071 A  
DOCKED: ATOM     22  C   UNL     1     141.811  74.171 220.900 -0.28 -0.00    +0.002 A  
DOCKED: ATOM     23  C   UNL     1     143.016  76.078 220.087 -0.28 -0.02    +0.030 A  
DOCKED: ATOM     24  C   UNL     1     142.801  73.316 220.459 -0.28 -0.01    +0.030 A  
DOCKED: ATOM     25  C   UNL     1     144.013  75.239 219.641 -0.34 -0.01    +0.023 A  
DOCKED: ATOM     26  C   UNL     1     143.907  73.865 219.826 -0.34 -0.01    +0.041 A  
DOCKED: ATOM     27  Cl  UNL     1     145.205  72.864 219.237 -0.46 -0.02    -0.084 Cl 
DOCKED: ENDBRANCH  14  17
DOCKED: ENDBRANCH  12  13
DOCKED: ENDBRANCH   1  12
DOCKED: TORSDOF 6
DOCKED: TER
DOCKED: ENDMDL
________________________________________________________________________________


    FINAL DOCKED STATE:
    ________________________


Run:   13 / 20
Time taken for this run:   0.025s

DOCKED: MODEL        13
DOCKED: USER    Run = 13
DOCKED: USER
DOCKED: USER    Estimated Free Energy of Binding    =  -5.52 kcal/mol  [=(1)+(2)+(3)-(4)]
DOCKED: USER
DOCKED: USER    (1) Final Intermolecular Energy     =  -7.31 kcal/mol
DOCKED: USER        vdW + Hbond + desolv Energy     =  -7.25 kcal/mol
DOCKED: USER        Electrostatic Energy            =  -0.06 kcal/mol
DOCKED: USER        Moving Ligand-Fixed Receptor    =  -7.31 kcal/mol
DOCKED: USER        Moving Ligand-Moving Receptor   =  +0.00 kcal/mol
DOCKED: USER    (2) Final Total Internal Energy     =  -3.35 kcal/mol
DOCKED: USER    (3) Torsional Free Energy           =  +1.79 kcal/mol
DOCKED: USER    (4) Unbound System's Energy         =  -3.35 kcal/mol
DOCKED: USER
DOCKED: USER
DOCKED: REMARK SMILES CN(CCNC(=O)c1ccc2cc(Cl)ccc2n1)C(=O)[C@H]1CCCN1
DOCKED: REMARK SMILES IDX 3 1 2 2 1 3 19 4 20 5 21 6 22 7 25 8 23 9 24 10 4 12 5 13
DOCKED: REMARK SMILES IDX 6 14 7 16 8 17 9 18 18 19 10 20 17 21 11 22 16 23 12 24
DOCKED: REMARK SMILES IDX 15 25 13 26 14 27
DOCKED: REMARK H PARENT 25 11 5 15
DOCKED: USER                              x       y       z     vdW  Elec       q    Type
DOCKED: USER                           _______ _______ _______ _____ _____    ______ ____
DOCKED: ROOT
DOCKED: ATOM      1  C   UNL     1     143.102  73.310 220.862 -0.16 -0.03    +0.140 C  
DOCKED: ENDROOT
DOCKED: BRANCH   1   2
DOCKED: ATOM      2  N   UNL     1     141.703  73.104 221.012 -0.11 +0.05    -0.343 N  
DOCKED: ATOM      3  C   UNL     1     141.128  71.819 220.532 -0.13 -0.02    +0.146 C  
DOCKED: BRANCH   2   4
DOCKED: ATOM      4  C   UNL     1     140.756  74.020 221.520 -0.21 -0.03    +0.239 C  
DOCKED: ATOM      5  O   UNL     1     139.951  73.583 222.389 -0.81 +0.02    -0.273 OA 
DOCKED: BRANCH   4   6
DOCKED: ATOM      6  C   UNL     1     140.620  75.436 221.135 -0.25 -0.04    +0.144 C  
DOCKED: ATOM      7  C   UNL     1     139.205  75.908 220.976 -0.18 -0.01    +0.030 C  
DOCKED: ATOM      8  N   UNL     1     141.300  76.306 222.077 -0.11 +0.13    -0.306 NA 
DOCKED: ATOM      9  C   UNL     1     139.207  77.273 221.622 -0.24 -0.00    +0.017 C  
DOCKED: ATOM     10  C   UNL     1     140.263  77.111 222.696 -0.24 -0.02    +0.082 C  
DOCKED: ATOM     11  H   UNL     1     141.971  76.957 221.626 -0.50 -0.10    +0.123 HD 
DOCKED: ENDBRANCH   4   6
DOCKED: ENDBRANCH   2   4
DOCKED: ENDBRANCH   1   2
DOCKED: BRANCH   1  12
DOCKED: ATOM     12  C   UNL     1     143.550  74.211 219.771 -0.28 -0.04    +0.137 C  
DOCKED: BRANCH  12  13
DOCKED: ATOM     13  N   UNL     1     143.179  75.574 219.789 -0.18 +0.19    -0.349 N  
DOCKED: ATOM     14  C   UNL     1     143.010  76.434 218.678 -0.21 -0.16    +0.269 C  
DOCKED: ATOM     15  H   UNL     1     142.995  76.040 220.737 -0.32 -0.13    +0.163 HD 
DOCKED: ATOM     16  O   UNL     1     143.193  76.086 217.490 -0.16 +0.15    -0.268 OA 
DOCKED: BRANCH  14  17
DOCKED: ATOM     17  C   UNL     1     142.591  77.839 218.876 -0.25 -0.09    +0.128 A  
DOCKED: ATOM     18  C   UNL     1     142.569  78.758 217.876 -0.31 -0.03    +0.035 A  
DOCKED: ATOM     19  N   UNL     1     142.202  78.266 220.113 -0.13 +0.18    -0.243 NA 
DOCKED: ATOM     20  C   UNL     1     142.179  80.069 218.063 -0.31 -0.01    +0.013 A  
DOCKED: ATOM     21  C   UNL     1     141.813  79.531 220.349 -0.28 -0.04    +0.071 A  
DOCKED: ATOM     22  C   UNL     1     141.788  80.471 219.334 -0.30 -0.00    +0.002 A  
DOCKED: ATOM     23  C   UNL     1     141.425  79.911 221.637 -0.38 -0.01    +0.030 A  
DOCKED: ATOM     24  C   UNL     1     141.393  81.775 219.554 -0.26 -0.01    +0.030 A  
DOCKED: ATOM     25  C   UNL     1     141.027  81.208 221.874 -0.37 -0.01    +0.023 A  
DOCKED: ATOM     26  C   UNL     1     141.010  82.136 220.839 -0.30 -0.01    +0.041 A  
DOCKED: ATOM     27  Cl  UNL     1     140.496  83.758 221.210 -0.27 +0.01    -0.084 Cl 
DOCKED: ENDBRANCH  14  17
DOCKED: ENDBRANCH  12  13
DOCKED: ENDBRANCH   1  12
DOCKED: TORSDOF 6
DOCKED: TER
DOCKED: ENDMDL
________________________________________________________________________________


    FINAL DOCKED STATE:
    ________________________


Run:   14 / 20
Time taken for this run:   0.025s

DOCKED: MODEL        14
DOCKED: USER    Run = 14
DOCKED: USER
DOCKED: USER    Estimated Free Energy of Binding    =  -6.72 kcal/mol  [=(1)+(2)+(3)-(4)]
DOCKED: USER
DOCKED: USER    (1) Final Intermolecular Energy     =  -8.51 kcal/mol
DOCKED: USER        vdW + Hbond + desolv Energy     =  -8.41 kcal/mol
DOCKED: USER        Electrostatic Energy            =  -0.10 kcal/mol
DOCKED: USER        Moving Ligand-Fixed Receptor    =  -8.51 kcal/mol
DOCKED: USER        Moving Ligand-Moving Receptor   =  +0.00 kcal/mol
DOCKED: USER    (2) Final Total Internal Energy     =  -2.18 kcal/mol
DOCKED: USER    (3) Torsional Free Energy           =  +1.79 kcal/mol
DOCKED: USER    (4) Unbound System's Energy         =  -2.18 kcal/mol
DOCKED: USER
DOCKED: USER
DOCKED: REMARK SMILES CN(CCNC(=O)c1ccc2cc(Cl)ccc2n1)C(=O)[C@H]1CCCN1
DOCKED: REMARK SMILES IDX 3 1 2 2 1 3 19 4 20 5 21 6 22 7 25 8 23 9 24 10 4 12 5 13
DOCKED: REMARK SMILES IDX 6 14 7 16 8 17 9 18 18 19 10 20 17 21 11 22 16 23 12 24
DOCKED: REMARK SMILES IDX 15 25 13 26 14 27
DOCKED: REMARK H PARENT 25 11 5 15
DOCKED: USER                              x       y       z     vdW  Elec       q    Type
DOCKED: USER                           _______ _______ _______ _____ _____    ______ ____
DOCKED: ROOT
DOCKED: ATOM      1  C   UNL     1     138.431  75.433 220.912 -0.11 -0.03    +0.140 C  
DOCKED: ENDROOT
DOCKED: BRANCH   1   2
DOCKED: ATOM      2  N   UNL     1     139.659  75.624 221.606 -0.15 +0.07    -0.343 N  
DOCKED: ATOM      3  C   UNL     1     139.831  76.872 222.395 -0.28 -0.03    +0.146 C  
DOCKED: BRANCH   2   4
DOCKED: ATOM      4  C   UNL     1     140.788  74.777 221.588 -0.22 -0.04    +0.239 C  
DOCKED: ATOM      5  O   UNL     1     140.718  73.720 222.275 -0.74 -0.02    -0.273 OA 
DOCKED: BRANCH   4   6
DOCKED: ATOM      6  C   UNL     1     142.039  75.008 220.842 -0.22 -0.05    +0.144 C  
DOCKED: ATOM      7  C   UNL     1     142.207  74.150 219.623 -0.19 -0.01    +0.030 C  
DOCKED: ATOM      8  N   UNL     1     142.172  76.400 220.456 -0.12 +0.18    -0.306 NA 
DOCKED: ATOM      9  C   UNL     1     142.761  75.100 218.589 -0.21 -0.01    +0.017 C  
DOCKED: ATOM     10  C   UNL     1     142.138  76.417 219.005 -0.23 -0.04    +0.082 C  
DOCKED: ATOM     11  H   UNL     1     143.073  76.825 220.750 -0.39 -0.13    +0.123 HD 
DOCKED: ENDBRANCH   4   6
DOCKED: ENDBRANCH   2   4
DOCKED: ENDBRANCH   1   2
DOCKED: BRANCH   1  12
DOCKED: ATOM     12  C   UNL     1     137.865  74.062 220.885 -0.09 -0.03    +0.137 C  
DOCKED: BRANCH  12  13
DOCKED: ATOM     13  N   UNL     1     138.189  73.148 221.912 -0.07 +0.10    -0.349 N  
DOCKED: ATOM     14  C   UNL     1     137.958  71.752 221.926 -0.08 -0.06    +0.269 C  
DOCKED: ATOM     15  H   UNL     1     138.666  73.522 222.797 -0.53 -0.08    +0.163 HD 
DOCKED: ATOM     16  O   UNL     1     137.398  71.127 220.998 -0.02 +0.05    -0.268 OA 
DOCKED: BRANCH  14  17
DOCKED: ATOM     17  C   UNL     1     138.386  70.934 223.082 -0.19 -0.03    +0.128 A  
DOCKED: ATOM     18  C   UNL     1     138.006  69.643 223.263 -0.21 -0.01    +0.035 A  
DOCKED: ATOM     19  N   UNL     1     139.203  71.474 224.034 -0.20 +0.06    -0.243 NA 
DOCKED: ATOM     20  C   UNL     1     138.405  68.881 224.343 -0.33 -0.00    +0.013 A  
DOCKED: ATOM     21  C   UNL     1     139.620  70.776 225.104 -0.41 -0.01    +0.071 A  
DOCKED: ATOM     22  C   UNL     1     139.237  69.461 225.293 -0.41 -0.00    +0.002 A  
DOCKED: ATOM     23  C   UNL     1     140.456  71.382 226.047 -0.57 -0.00    +0.030 A  
DOCKED: ATOM     24  C   UNL     1     139.654  68.726 226.385 -0.53 -0.00    +0.030 A  
DOCKED: ATOM     25  C   UNL     1     140.882  70.664 227.142 -0.62 -0.00    +0.023 A  
DOCKED: ATOM     26  C   UNL     1     140.484  69.342 227.311 -0.57 -0.01    +0.041 A  
DOCKED: ATOM     27  Cl  UNL     1     141.060  68.494 228.719 -0.71 +0.02    -0.084 Cl 
DOCKED: ENDBRANCH  14  17
DOCKED: ENDBRANCH  12  13
DOCKED: ENDBRANCH   1  12
DOCKED: TORSDOF 6
DOCKED: TER
DOCKED: ENDMDL
________________________________________________________________________________


    FINAL DOCKED STATE:
    ________________________


Run:   15 / 20
Time taken for this run:   0.025s

DOCKED: MODEL        15
DOCKED: USER    Run = 15
DOCKED: USER
DOCKED: USER    Estimated Free Energy of Binding    =  -6.80 kcal/mol  [=(1)+(2)+(3)-(4)]
DOCKED: USER
DOCKED: USER    (1) Final Intermolecular Energy     =  -8.59 kcal/mol
DOCKED: USER        vdW + Hbond + desolv Energy     =  -8.48 kcal/mol
DOCKED: USER        Electrostatic Energy            =  -0.11 kcal/mol
DOCKED: USER        Moving Ligand-Fixed Receptor    =  -8.59 kcal/mol
DOCKED: USER        Moving Ligand-Moving Receptor   =  +0.00 kcal/mol
DOCKED: USER    (2) Final Total Internal Energy     =  -2.12 kcal/mol
DOCKED: USER    (3) Torsional Free Energy           =  +1.79 kcal/mol
DOCKED: USER    (4) Unbound System's Energy         =  -2.12 kcal/mol
DOCKED: USER
DOCKED: USER
DOCKED: REMARK SMILES CN(CCNC(=O)c1ccc2cc(Cl)ccc2n1)C(=O)[C@H]1CCCN1
DOCKED: REMARK SMILES IDX 3 1 2 2 1 3 19 4 20 5 21 6 22 7 25 8 23 9 24 10 4 12 5 13
DOCKED: REMARK SMILES IDX 6 14 7 16 8 17 9 18 18 19 10 20 17 21 11 22 16 23 12 24
DOCKED: REMARK SMILES IDX 15 25 13 26 14 27
DOCKED: REMARK H PARENT 25 11 5 15
DOCKED: USER                              x       y       z     vdW  Elec       q    Type
DOCKED: USER                           _______ _______ _______ _____ _____    ______ ____
DOCKED: ROOT
DOCKED: ATOM      1  C   UNL     1     138.428  75.535 220.982 -0.12 -0.03    +0.140 C  
DOCKED: ENDROOT
DOCKED: BRANCH   1   2
DOCKED: ATOM      2  N   UNL     1     139.677  75.742 221.630 -0.15 +0.07    -0.343 N  
DOCKED: ATOM      3  C   UNL     1     139.871  77.005 222.392 -0.28 -0.03    +0.146 C  
DOCKED: BRANCH   2   4
DOCKED: ATOM      4  C   UNL     1     140.808  74.899 221.589 -0.23 -0.04    +0.239 C  
DOCKED: ATOM      5  O   UNL     1     140.730  73.810 222.223 -0.74 -0.02    -0.273 OA 
DOCKED: BRANCH   4   6
DOCKED: ATOM      6  C   UNL     1     142.070  75.169 220.875 -0.17 -0.06    +0.144 C  
DOCKED: ATOM      7  C   UNL     1     142.312  74.291 219.682 -0.21 -0.01    +0.030 C  
DOCKED: ATOM      8  N   UNL     1     142.154  76.556 220.459 -0.12 +0.19    -0.306 NA 
DOCKED: ATOM      9  C   UNL     1     142.856  75.242 218.642 -0.23 -0.01    +0.017 C  
DOCKED: ATOM     10  C   UNL     1     142.163  76.538 219.008 -0.24 -0.04    +0.082 C  
DOCKED: ATOM     11  H   UNL     1     143.026  77.027 220.770 -0.41 -0.13    +0.123 HD 
DOCKED: ENDBRANCH   4   6
DOCKED: ENDBRANCH   2   4
DOCKED: ENDBRANCH   1   2
DOCKED: BRANCH   1  12
DOCKED: ATOM     12  C   UNL     1     137.915  74.145 220.911 -0.09 -0.03    +0.137 C  
DOCKED: BRANCH  12  13
DOCKED: ATOM     13  N   UNL     1     138.234  73.225 221.933 -0.08 +0.10    -0.349 N  
DOCKED: ATOM     14  C   UNL     1     138.040  71.823 221.922 -0.08 -0.06    +0.269 C  
DOCKED: ATOM     15  H   UNL     1     138.678  73.598 222.835 -0.53 -0.08    +0.163 HD 
DOCKED: ATOM     16  O   UNL     1     137.521  71.198 220.970 -0.02 +0.05    -0.268 OA 
DOCKED: BRANCH  14  17
DOCKED: ATOM     17  C   UNL     1     138.457  70.999 223.077 -0.19 -0.03    +0.128 A  
DOCKED: ATOM     18  C   UNL     1     138.069  69.710 223.253 -0.21 -0.01    +0.035 A  
DOCKED: ATOM     19  N   UNL     1     139.273  71.532 224.035 -0.20 +0.07    -0.243 NA 
DOCKED: ATOM     20  C   UNL     1     138.459  68.943 224.333 -0.33 -0.00    +0.013 A  
DOCKED: ATOM     21  C   UNL     1     139.681  70.829 225.105 -0.41 -0.01    +0.071 A  
DOCKED: ATOM     22  C   UNL     1     139.290  69.516 225.288 -0.41 -0.00    +0.002 A  
DOCKED: ATOM     23  C   UNL     1     140.517  71.428 226.053 -0.58 -0.00    +0.030 A  
DOCKED: ATOM     24  C   UNL     1     139.697  68.776 226.380 -0.53 -0.00    +0.030 A  
DOCKED: ATOM     25  C   UNL     1     140.933  70.704 227.148 -0.63 -0.00    +0.023 A  
DOCKED: ATOM     26  C   UNL     1     140.527  69.385 227.311 -0.57 -0.01    +0.041 A  
DOCKED: ATOM     27  Cl  UNL     1     141.091  68.529 228.720 -0.70 +0.02    -0.084 Cl 
DOCKED: ENDBRANCH  14  17
DOCKED: ENDBRANCH  12  13
DOCKED: ENDBRANCH   1  12
DOCKED: TORSDOF 6
DOCKED: TER
DOCKED: ENDMDL
________________________________________________________________________________


    FINAL DOCKED STATE:
    ________________________


Run:   16 / 20
Time taken for this run:   0.025s

DOCKED: MODEL        16
DOCKED: USER    Run = 16
DOCKED: USER
DOCKED: USER    Estimated Free Energy of Binding    =  -6.87 kcal/mol  [=(1)+(2)+(3)-(4)]
DOCKED: USER
DOCKED: USER    (1) Final Intermolecular Energy     =  -8.66 kcal/mol
DOCKED: USER        vdW + Hbond + desolv Energy     =  -8.53 kcal/mol
DOCKED: USER        Electrostatic Energy            =  -0.13 kcal/mol
DOCKED: USER        Moving Ligand-Fixed Receptor    =  -8.66 kcal/mol
DOCKED: USER        Moving Ligand-Moving Receptor   =  +0.00 kcal/mol
DOCKED: USER    (2) Final Total Internal Energy     =  -1.99 kcal/mol
DOCKED: USER    (3) Torsional Free Energy           =  +1.79 kcal/mol
DOCKED: USER    (4) Unbound System's Energy         =  -1.99 kcal/mol
DOCKED: USER
DOCKED: USER
DOCKED: REMARK SMILES CN(CCNC(=O)c1ccc2cc(Cl)ccc2n1)C(=O)[C@H]1CCCN1
DOCKED: REMARK SMILES IDX 3 1 2 2 1 3 19 4 20 5 21 6 22 7 25 8 23 9 24 10 4 12 5 13
DOCKED: REMARK SMILES IDX 6 14 7 16 8 17 9 18 18 19 10 20 17 21 11 22 16 23 12 24
DOCKED: REMARK SMILES IDX 15 25 13 26 14 27
DOCKED: REMARK H PARENT 25 11 5 15
DOCKED: USER                              x       y       z     vdW  Elec       q    Type
DOCKED: USER                           _______ _______ _______ _____ _____    ______ ____
DOCKED: ROOT
DOCKED: ATOM      1  C   UNL     1     137.706  75.425 221.372 -0.13 -0.03    +0.140 C  
DOCKED: ENDROOT
DOCKED: BRANCH   1   2
DOCKED: ATOM      2  N   UNL     1     138.871  76.021 221.930 -0.15 +0.08    -0.343 N  
DOCKED: ATOM      3  C   UNL     1     138.720  77.308 222.660 -0.22 -0.03    +0.146 C  
DOCKED: BRANCH   2   4
DOCKED: ATOM      4  C   UNL     1     140.200  75.557 221.823 -0.23 -0.05    +0.239 C  
DOCKED: ATOM      5  O   UNL     1     140.450  74.425 222.322 -0.74 -0.02    -0.273 OA 
DOCKED: BRANCH   4   6
DOCKED: ATOM      6  C   UNL     1     141.321  76.267 221.180 -0.22 -0.06    +0.144 C  
DOCKED: ATOM      7  C   UNL     1     141.272  76.286 219.680 -0.19 -0.01    +0.030 C  
DOCKED: ATOM      8  N   UNL     1     141.425  77.632 221.661 -0.16 +0.16    -0.306 NA 
DOCKED: ATOM      9  C   UNL     1     141.678  77.696 219.326 -0.25 -0.01    +0.017 C  
DOCKED: ATOM     10  C   UNL     1     141.160  78.481 220.514 -0.24 -0.04    +0.082 C  
DOCKED: ATOM     11  H   UNL     1     142.371  77.873 222.015 -0.46 -0.11    +0.123 HD 
DOCKED: ENDBRANCH   4   6
DOCKED: ENDBRANCH   2   4
DOCKED: ENDBRANCH   1   2
DOCKED: BRANCH   1  12
DOCKED: ATOM     12  C   UNL     1     137.765  73.979 221.044 -0.09 -0.03    +0.137 C  
DOCKED: BRANCH  12  13
DOCKED: ATOM     13  N   UNL     1     138.127  73.047 222.042 -0.07 +0.10    -0.349 N  
DOCKED: ATOM     14  C   UNL     1     137.878  71.654 222.049 -0.08 -0.06    +0.269 C  
DOCKED: ATOM     15  H   UNL     1     138.652  73.403 222.906 -0.51 -0.09    +0.163 HD 
DOCKED: ATOM     16  O   UNL     1     137.264  71.049 221.142 -0.02 +0.05    -0.268 OA 
DOCKED: BRANCH  14  17
DOCKED: ATOM     17  C   UNL     1     138.352  70.815 223.171 -0.19 -0.03    +0.128 A  
DOCKED: ATOM     18  C   UNL     1     138.067  69.491 223.284 -0.22 -0.01    +0.035 A  
DOCKED: ATOM     19  N   UNL     1     139.114  71.366 224.160 -0.20 +0.06    -0.243 NA 
DOCKED: ATOM     20  C   UNL     1     138.508  68.710 224.332 -0.33 -0.00    +0.013 A  
DOCKED: ATOM     21  C   UNL     1     139.569  70.650 225.203 -0.40 -0.01    +0.071 A  
DOCKED: ATOM     22  C   UNL     1     139.283  69.302 225.322 -0.42 -0.00    +0.002 A  
DOCKED: ATOM     23  C   UNL     1     140.347  71.270 226.186 -0.57 -0.01    +0.030 A  
DOCKED: ATOM     24  C   UNL     1     139.740  68.548 226.384 -0.56 -0.00    +0.030 A  
DOCKED: ATOM     25  C   UNL     1     140.812  70.532 227.252 -0.61 -0.00    +0.023 A  
DOCKED: ATOM     26  C   UNL     1     140.511  69.178 227.351 -0.58 -0.01    +0.041 A  
DOCKED: ATOM     27  Cl  UNL     1     141.131  68.307 228.726 -0.68 +0.02    -0.084 Cl 
DOCKED: ENDBRANCH  14  17
DOCKED: ENDBRANCH  12  13
DOCKED: ENDBRANCH   1  12
DOCKED: TORSDOF 6
DOCKED: TER
DOCKED: ENDMDL
________________________________________________________________________________


    FINAL DOCKED STATE:
    ________________________


Run:   17 / 20
Time taken for this run:   0.025s

DOCKED: MODEL        17
DOCKED: USER    Run = 17
DOCKED: USER
DOCKED: USER    Estimated Free Energy of Binding    =  -7.73 kcal/mol  [=(1)+(2)+(3)-(4)]
DOCKED: USER
DOCKED: USER    (1) Final Intermolecular Energy     =  -9.52 kcal/mol
DOCKED: USER        vdW + Hbond + desolv Energy     =  -9.49 kcal/mol
DOCKED: USER        Electrostatic Energy            =  -0.03 kcal/mol
DOCKED: USER        Moving Ligand-Fixed Receptor    =  -9.52 kcal/mol
DOCKED: USER        Moving Ligand-Moving Receptor   =  +0.00 kcal/mol
DOCKED: USER    (2) Final Total Internal Energy     =  -1.02 kcal/mol
DOCKED: USER    (3) Torsional Free Energy           =  +1.79 kcal/mol
DOCKED: USER    (4) Unbound System's Energy         =  -1.02 kcal/mol
DOCKED: USER
DOCKED: USER
DOCKED: REMARK SMILES CN(CCNC(=O)c1ccc2cc(Cl)ccc2n1)C(=O)[C@H]1CCCN1
DOCKED: REMARK SMILES IDX 3 1 2 2 1 3 19 4 20 5 21 6 22 7 25 8 23 9 24 10 4 12 5 13
DOCKED: REMARK SMILES IDX 6 14 7 16 8 17 9 18 18 19 10 20 17 21 11 22 16 23 12 24
DOCKED: REMARK SMILES IDX 15 25 13 26 14 27
DOCKED: REMARK H PARENT 25 11 5 15
DOCKED: USER                              x       y       z     vdW  Elec       q    Type
DOCKED: USER                           _______ _______ _______ _____ _____    ______ ____
DOCKED: ROOT
DOCKED: ATOM      1  C   UNL     1     140.269  76.406 221.667 -0.29 -0.04    +0.140 C  
DOCKED: ENDROOT
DOCKED: BRANCH   1   2
DOCKED: ATOM      2  N   UNL     1     139.395  77.499 221.928 -0.11 +0.08    -0.343 N  
DOCKED: ATOM      3  C   UNL     1     137.987  77.397 221.461 -0.12 -0.03    +0.146 C  
DOCKED: BRANCH   2   4
DOCKED: ATOM      4  C   UNL     1     139.726  78.727 222.540 -0.23 -0.05    +0.239 C  
DOCKED: ATOM      5  O   UNL     1     139.005  79.091 223.511 -0.25 +0.04    -0.273 OA 
DOCKED: BRANCH   4   6
DOCKED: ATOM      6  C   UNL     1     140.833  79.621 222.157 -0.31 -0.04    +0.144 C  
DOCKED: ATOM      7  C   UNL     1     140.796  80.974 222.804 -0.43 -0.01    +0.030 C  
DOCKED: ATOM      8  N   UNL     1     142.121  79.010 222.424 -0.27 +0.16    -0.306 NA 
DOCKED: ATOM      9  C   UNL     1     142.237  81.233 223.175 -0.55 -0.00    +0.017 C  
DOCKED: ATOM     10  C   UNL     1     142.750  79.833 223.440 -0.52 -0.03    +0.082 C  
DOCKED: ATOM     11  H   UNL     1     142.751  78.999 221.599 -0.39 -0.10    +0.123 HD 
DOCKED: ENDBRANCH   4   6
DOCKED: ENDBRANCH   2   4
DOCKED: ENDBRANCH   1   2
DOCKED: BRANCH   1  12
DOCKED: ATOM     12  C   UNL     1     139.652  75.108 221.300 -0.22 -0.03    +0.137 C  
DOCKED: BRANCH  12  13
DOCKED: ATOM     13  N   UNL     1     139.694  74.028 222.209 -0.10 +0.04    -0.349 N  
DOCKED: ATOM     14  C   UNL     1     139.904  72.660 221.910 -0.19 -0.04    +0.269 C  
DOCKED: ATOM     15  H   UNL     1     139.557  74.233 223.252 -0.49 -0.02    +0.163 HD 
DOCKED: ATOM     16  O   UNL     1     140.066  72.214 220.753 -0.07 +0.04    -0.268 OA 
DOCKED: BRANCH  14  17
DOCKED: ATOM     17  C   UNL     1     139.943  71.655 222.995 -0.29 -0.02    +0.128 A  
DOCKED: ATOM     18  C   UNL     1     139.508  70.378 222.844 -0.22 -0.01    +0.035 A  
DOCKED: ATOM     19  N   UNL     1     140.434  71.996 224.223 -0.22 +0.03    -0.243 NA 
DOCKED: ATOM     20  C   UNL     1     139.544  69.441 223.857 -0.25 -0.00    +0.013 A  
DOCKED: ATOM     21  C   UNL     1     140.492  71.123 225.243 -0.50 -0.01    +0.071 A  
DOCKED: ATOM     22  C   UNL     1     140.051  69.821 225.094 -0.42 -0.00    +0.002 A  
DOCKED: ATOM     23  C   UNL     1     141.006  71.530 226.478 -0.68 -0.00    +0.030 A  
DOCKED: ATOM     24  C   UNL     1     140.101  68.908 226.129 -0.51 -0.01    +0.030 A  
DOCKED: ATOM     25  C   UNL     1     141.064  70.632 227.521 -0.62 -0.00    +0.023 A  
DOCKED: ATOM     26  C   UNL     1     140.614  69.327 227.348 -0.57 -0.01    +0.041 A  
DOCKED: ATOM     27  Cl  UNL     1     140.716  68.246 228.709 -0.66 +0.02    -0.084 Cl 
DOCKED: ENDBRANCH  14  17
DOCKED: ENDBRANCH  12  13
DOCKED: ENDBRANCH   1  12
DOCKED: TORSDOF 6
DOCKED: TER
DOCKED: ENDMDL
________________________________________________________________________________


    FINAL DOCKED STATE:
    ________________________


Run:   18 / 20
Time taken for this run:   0.025s

DOCKED: MODEL        18
DOCKED: USER    Run = 18
DOCKED: USER
DOCKED: USER    Estimated Free Energy of Binding    =  -5.69 kcal/mol  [=(1)+(2)+(3)-(4)]
DOCKED: USER
DOCKED: USER    (1) Final Intermolecular Energy     =  -7.48 kcal/mol
DOCKED: USER        vdW + Hbond + desolv Energy     =  -7.42 kcal/mol
DOCKED: USER        Electrostatic Energy            =  -0.06 kcal/mol
DOCKED: USER        Moving Ligand-Fixed Receptor    =  -7.48 kcal/mol
DOCKED: USER        Moving Ligand-Moving Receptor   =  +0.00 kcal/mol
DOCKED: USER    (2) Final Total Internal Energy     =  -3.22 kcal/mol
DOCKED: USER    (3) Torsional Free Energy           =  +1.79 kcal/mol
DOCKED: USER    (4) Unbound System's Energy         =  -3.22 kcal/mol
DOCKED: USER
DOCKED: USER
DOCKED: REMARK SMILES CN(CCNC(=O)c1ccc2cc(Cl)ccc2n1)C(=O)[C@H]1CCCN1
DOCKED: REMARK SMILES IDX 3 1 2 2 1 3 19 4 20 5 21 6 22 7 25 8 23 9 24 10 4 12 5 13
DOCKED: REMARK SMILES IDX 6 14 7 16 8 17 9 18 18 19 10 20 17 21 11 22 16 23 12 24
DOCKED: REMARK SMILES IDX 15 25 13 26 14 27
DOCKED: REMARK H PARENT 25 11 5 15
DOCKED: USER                              x       y       z     vdW  Elec       q    Type
DOCKED: USER                           _______ _______ _______ _____ _____    ______ ____
DOCKED: ROOT
DOCKED: ATOM      1  C   UNL     1     141.322  81.081 221.543 -0.33 -0.04    +0.140 C  
DOCKED: ENDROOT
DOCKED: BRANCH   1   2
DOCKED: ATOM      2  N   UNL     1     141.607  80.095 222.529 -0.22 +0.10    -0.343 N  
DOCKED: ATOM      3  C   UNL     1     142.982  80.047 223.095 -0.53 -0.05    +0.146 C  
DOCKED: BRANCH   2   4
DOCKED: ATOM      4  C   UNL     1     140.738  79.091 223.006 -0.34 -0.06    +0.239 C  
DOCKED: ATOM      5  O   UNL     1     139.820  79.458 223.790 -0.31 +0.04    -0.273 OA 
DOCKED: BRANCH   4   6
DOCKED: ATOM      6  C   UNL     1     140.800  77.656 222.674 -0.35 -0.05    +0.144 C  
DOCKED: ATOM      7  C   UNL     1     139.477  76.947 222.716 -0.19 -0.01    +0.030 C  
DOCKED: ATOM      8  N   UNL     1     141.403  77.442 221.372 -0.15 +0.16    -0.306 NA 
DOCKED: ATOM      9  C   UNL     1     139.508  76.058 221.497 -0.28 -0.00    +0.017 C  
DOCKED: ATOM     10  C   UNL     1     140.363  76.863 220.541 -0.17 -0.03    +0.082 C  
DOCKED: ATOM     11  H   UNL     1     142.195  76.771 221.390 -0.52 -0.11    +0.123 HD 
DOCKED: ENDBRANCH   4   6
DOCKED: ENDBRANCH   2   4
DOCKED: ENDBRANCH   1   2
DOCKED: BRANCH   1  12
DOCKED: ATOM     12  C   UNL     1     141.716  80.783 220.144 -0.24 -0.06    +0.137 C  
DOCKED: BRANCH  12  13
DOCKED: ATOM     13  N   UNL     1     142.191  79.497 219.806 -0.07 +0.23    -0.349 N  
DOCKED: ATOM     14  C   UNL     1     142.211  78.896 218.525 -0.20 -0.20    +0.269 C  
DOCKED: ATOM     15  H   UNL     1     142.592  78.880 220.586 -0.32 -0.15    +0.163 HD 
DOCKED: ATOM     16  O   UNL     1     141.775  79.445 217.489 -0.14 +0.20    -0.268 OA 
DOCKED: BRANCH  14  17
DOCKED: ATOM     17  C   UNL     1     142.772  77.539 218.343 -0.27 -0.09    +0.128 A  
DOCKED: ATOM     18  C   UNL     1     142.913  76.947 217.129 -0.25 -0.02    +0.035 A  
DOCKED: ATOM     19  N   UNL     1     143.177  76.818 219.430 -0.25 +0.18    -0.243 NA 
DOCKED: ATOM     20  C   UNL     1     143.435  75.681 216.961 -0.20 -0.01    +0.013 A  
DOCKED: ATOM     21  C   UNL     1     143.692  75.581 219.322 -0.33 -0.04    +0.071 A  
DOCKED: ATOM     22  C   UNL     1     143.838  74.974 218.088 -0.16 -0.00    +0.002 A  
DOCKED: ATOM     23  C   UNL     1     144.089  74.890 220.471 -0.35 -0.01    +0.030 A  
DOCKED: ATOM     24  C   UNL     1     144.365  73.705 217.954 -0.17 -0.01    +0.030 A  
DOCKED: ATOM     25  C   UNL     1     144.617  73.624 220.355 -0.48 -0.00    +0.023 A  
DOCKED: ATOM     26  C   UNL     1     144.755  73.033 219.104 -0.28 +0.00    +0.041 A  
DOCKED: ATOM     27  Cl  UNL     1     145.430  71.429 219.032 -0.34 -0.05    -0.084 Cl 
DOCKED: ENDBRANCH  14  17
DOCKED: ENDBRANCH  12  13
DOCKED: ENDBRANCH   1  12
DOCKED: TORSDOF 6
DOCKED: TER
DOCKED: ENDMDL
________________________________________________________________________________


    FINAL DOCKED STATE:
    ________________________


Run:   19 / 20
Time taken for this run:   0.025s

DOCKED: MODEL        19
DOCKED: USER    Run = 19
DOCKED: USER
DOCKED: USER    Estimated Free Energy of Binding    =  -5.54 kcal/mol  [=(1)+(2)+(3)-(4)]
DOCKED: USER
DOCKED: USER    (1) Final Intermolecular Energy     =  -7.33 kcal/mol
DOCKED: USER        vdW + Hbond + desolv Energy     =  -7.26 kcal/mol
DOCKED: USER        Electrostatic Energy            =  -0.06 kcal/mol
DOCKED: USER        Moving Ligand-Fixed Receptor    =  -7.33 kcal/mol
DOCKED: USER        Moving Ligand-Moving Receptor   =  +0.00 kcal/mol
DOCKED: USER    (2) Final Total Internal Energy     =  -3.33 kcal/mol
DOCKED: USER    (3) Torsional Free Energy           =  +1.79 kcal/mol
DOCKED: USER    (4) Unbound System's Energy         =  -3.33 kcal/mol
DOCKED: USER
DOCKED: USER
DOCKED: REMARK SMILES CN(CCNC(=O)c1ccc2cc(Cl)ccc2n1)C(=O)[C@H]1CCCN1
DOCKED: REMARK SMILES IDX 3 1 2 2 1 3 19 4 20 5 21 6 22 7 25 8 23 9 24 10 4 12 5 13
DOCKED: REMARK SMILES IDX 6 14 7 16 8 17 9 18 18 19 10 20 17 21 11 22 16 23 12 24
DOCKED: REMARK SMILES IDX 15 25 13 26 14 27
DOCKED: REMARK H PARENT 25 11 5 15
DOCKED: USER                              x       y       z     vdW  Elec       q    Type
DOCKED: USER                           _______ _______ _______ _____ _____    ______ ____
DOCKED: ROOT
DOCKED: ATOM      1  C   UNL     1     143.153  73.278 220.841 -0.18 -0.03    +0.140 C  
DOCKED: ENDROOT
DOCKED: BRANCH   1   2
DOCKED: ATOM      2  N   UNL     1     141.768  73.017 221.032 -0.11 +0.04    -0.343 N  
DOCKED: ATOM      3  C   UNL     1     141.244  71.683 220.634 -0.13 -0.02    +0.146 C  
DOCKED: BRANCH   2   4
DOCKED: ATOM      4  C   UNL     1     140.790  73.915 221.510 -0.20 -0.03    +0.239 C  
DOCKED: ATOM      5  O   UNL     1     139.972  73.467 222.361 -0.81 +0.02    -0.273 OA 
DOCKED: BRANCH   4   6
DOCKED: ATOM      6  C   UNL     1     140.635  75.327 221.113 -0.25 -0.04    +0.144 C  
DOCKED: ATOM      7  C   UNL     1     139.212  75.781 220.962 -0.18 -0.01    +0.030 C  
DOCKED: ATOM      8  N   UNL     1     141.311  76.213 222.042 -0.13 +0.13    -0.306 NA 
DOCKED: ATOM      9  C   UNL     1     139.204  77.151 221.595 -0.24 -0.00    +0.017 C  
DOCKED: ATOM     10  C   UNL     1     140.270  77.011 222.662 -0.24 -0.02    +0.082 C  
DOCKED: ATOM     11  H   UNL     1     141.972  76.867 221.580 -0.50 -0.10    +0.123 HD 
DOCKED: ENDBRANCH   4   6
DOCKED: ENDBRANCH   2   4
DOCKED: ENDBRANCH   1   2
DOCKED: BRANCH   1  12
DOCKED: ATOM     12  C   UNL     1     143.535  74.162 219.713 -0.27 -0.04    +0.137 C  
DOCKED: BRANCH  12  13
DOCKED: ATOM     13  N   UNL     1     143.173  75.527 219.737 -0.18 +0.18    -0.349 N  
DOCKED: ATOM     14  C   UNL     1     143.000  76.391 218.629 -0.21 -0.16    +0.269 C  
DOCKED: ATOM     15  H   UNL     1     143.001  75.993 220.687 -0.30 -0.13    +0.163 HD 
DOCKED: ATOM     16  O   UNL     1     143.171  76.045 217.440 -0.16 +0.14    -0.268 OA 
DOCKED: BRANCH  14  17
DOCKED: ATOM     17  C   UNL     1     142.592  77.798 218.834 -0.26 -0.09    +0.128 A  
DOCKED: ATOM     18  C   UNL     1     142.581  78.724 217.841 -0.31 -0.03    +0.035 A  
DOCKED: ATOM     19  N   UNL     1     142.202  78.221 220.073 -0.13 +0.18    -0.243 NA 
DOCKED: ATOM     20  C   UNL     1     142.202  80.036 218.033 -0.31 -0.01    +0.013 A  
DOCKED: ATOM     21  C   UNL     1     141.823  79.488 220.314 -0.28 -0.04    +0.071 A  
DOCKED: ATOM     22  C   UNL     1     141.809  80.434 219.306 -0.30 -0.00    +0.002 A  
DOCKED: ATOM     23  C   UNL     1     141.433  79.863 221.604 -0.38 -0.01    +0.030 A  
DOCKED: ATOM     24  C   UNL     1     141.423  81.740 219.532 -0.26 -0.01    +0.030 A  
DOCKED: ATOM     25  C   UNL     1     141.045  81.162 221.847 -0.37 -0.01    +0.023 A  
DOCKED: ATOM     26  C   UNL     1     141.039  82.096 220.817 -0.30 -0.01    +0.041 A  
DOCKED: ATOM     27  Cl  UNL     1     140.537  83.721 221.196 -0.28 +0.01    -0.084 Cl 
DOCKED: ENDBRANCH  14  17
DOCKED: ENDBRANCH  12  13
DOCKED: ENDBRANCH   1  12
DOCKED: TORSDOF 6
DOCKED: TER
DOCKED: ENDMDL
________________________________________________________________________________


    FINAL DOCKED STATE:
    ________________________


Run:   20 / 20
Time taken for this run:   0.025s

DOCKED: MODEL        20
DOCKED: USER    Run = 20
DOCKED: USER
DOCKED: USER    Estimated Free Energy of Binding    =  -6.68 kcal/mol  [=(1)+(2)+(3)-(4)]
DOCKED: USER
DOCKED: USER    (1) Final Intermolecular Energy     =  -8.47 kcal/mol
DOCKED: USER        vdW + Hbond + desolv Energy     =  -8.37 kcal/mol
DOCKED: USER        Electrostatic Energy            =  -0.10 kcal/mol
DOCKED: USER        Moving Ligand-Fixed Receptor    =  -8.47 kcal/mol
DOCKED: USER        Moving Ligand-Moving Receptor   =  +0.00 kcal/mol
DOCKED: USER    (2) Final Total Internal Energy     =  -2.17 kcal/mol
DOCKED: USER    (3) Torsional Free Energy           =  +1.79 kcal/mol
DOCKED: USER    (4) Unbound System's Energy         =  -2.17 kcal/mol
DOCKED: USER
DOCKED: USER
DOCKED: REMARK SMILES CN(CCNC(=O)c1ccc2cc(Cl)ccc2n1)C(=O)[C@H]1CCCN1
DOCKED: REMARK SMILES IDX 3 1 2 2 1 3 19 4 20 5 21 6 22 7 25 8 23 9 24 10 4 12 5 13
DOCKED: REMARK SMILES IDX 6 14 7 16 8 17 9 18 18 19 10 20 17 21 11 22 16 23 12 24
DOCKED: REMARK SMILES IDX 15 25 13 26 14 27
DOCKED: REMARK H PARENT 25 11 5 15
DOCKED: USER                              x       y       z     vdW  Elec       q    Type
DOCKED: USER                           _______ _______ _______ _____ _____    ______ ____
DOCKED: ROOT
DOCKED: ATOM      1  C   UNL     1     138.787  75.397 221.005 -0.14 -0.03    +0.140 C  
DOCKED: ENDROOT
DOCKED: BRANCH   1   2
DOCKED: ATOM      2  N   UNL     1     140.116  75.336 221.511 -0.16 +0.07    -0.343 N  
DOCKED: ATOM      3  C   UNL     1     140.681  76.557 222.145 -0.32 -0.04    +0.146 C  
DOCKED: BRANCH   2   4
DOCKED: ATOM      4  C   UNL     1     141.010  74.247 221.429 -0.19 -0.03    +0.239 C  
DOCKED: ATOM      5  O   UNL     1     140.940  73.383 222.347 -0.62 -0.02    -0.273 OA 
DOCKED: BRANCH   4   6
DOCKED: ATOM      6  C   UNL     1     142.015  74.022 220.374 -0.20 -0.03    +0.144 C  
DOCKED: ATOM      7  C   UNL     1     142.960  75.167 220.156 -0.32 -0.01    +0.030 C  
DOCKED: ATOM      8  N   UNL     1     142.786  72.820 220.629 -0.12 +0.05    -0.306 NA 
DOCKED: ATOM      9  C   UNL     1     144.301  74.495 219.979 -0.42 -0.01    +0.017 C  
DOCKED: ATOM     10  C   UNL     1     144.152  73.262 220.846 -0.34 -0.02    +0.082 C  
DOCKED: ATOM     11  H   UNL     1     142.797  72.159 219.828 +0.05 -0.02    +0.123 HD 
DOCKED: ENDBRANCH   4   6
DOCKED: ENDBRANCH   2   4
DOCKED: ENDBRANCH   1   2
DOCKED: BRANCH   1  12
DOCKED: ATOM     12  C   UNL     1     137.939  74.190 221.162 -0.11 -0.03    +0.137 C  
DOCKED: BRANCH  12  13
DOCKED: ATOM     13  N   UNL     1     138.258  73.231 222.149 -0.05 +0.11    -0.349 N  
DOCKED: ATOM     14  C   UNL     1     137.857  71.874 222.192 -0.09 -0.07    +0.269 C  
DOCKED: ATOM     15  H   UNL     1     138.874  73.532 222.973 -0.52 -0.09    +0.163 HD 
DOCKED: ATOM     16  O   UNL     1     137.123  71.335 221.334 -0.03 +0.05    -0.268 OA 
DOCKED: BRANCH  14  17
DOCKED: ATOM     17  C   UNL     1     138.305  70.995 223.294 -0.20 -0.03    +0.128 A  
DOCKED: ATOM     18  C   UNL     1     137.895  69.708 223.436 -0.22 -0.01    +0.035 A  
DOCKED: ATOM     19  N   UNL     1     139.172  71.471 224.235 -0.19 +0.07    -0.243 NA 
DOCKED: ATOM     20  C   UNL     1     138.312  68.890 224.466 -0.33 -0.00    +0.013 A  
DOCKED: ATOM     21  C   UNL     1     139.610  70.717 225.258 -0.41 -0.01    +0.071 A  
DOCKED: ATOM     22  C   UNL     1     139.196  69.405 225.406 -0.42 -0.00    +0.002 A  
DOCKED: ATOM     23  C   UNL     1     140.500  71.258 226.191 -0.59 -0.00    +0.030 A  
DOCKED: ATOM     24  C   UNL     1     139.634  68.613 226.448 -0.55 -0.00    +0.030 A  
DOCKED: ATOM     25  C   UNL     1     140.946  70.482 227.237 -0.60 -0.00    +0.023 A  
DOCKED: ATOM     26  C   UNL     1     140.516  69.166 227.366 -0.58 -0.01    +0.041 A  
DOCKED: ATOM     27  Cl  UNL     1     141.121  68.241 228.713 -0.69 +0.02    -0.084 Cl 
DOCKED: ENDBRANCH  14  17
DOCKED: ENDBRANCH  12  13
DOCKED: ENDBRANCH   1  12
DOCKED: TORSDOF 6
DOCKED: TER
DOCKED: ENDMDL
________________________________________________________________________________


    CLUSTERING HISTOGRAM
    ____________________


________________________________________________________________________________
     |           |     |           |     |
Clus | Lowest    | Run | Mean      | Num | Histogram
-ter | Binding   |     | Binding   | in  |
Rank | Energy    |     | Energy    | Clus|    5    10   15   20   25   30   35
_____|___________|_____|___________|_____|____:____|____:____|____:____|____:___
   1 |     -7.73 |  17 |     -7.03 |   4 |####
   2 |     -7.50 |   2 |     -7.50 |   1 |#
   3 |     -6.68 |  20 |     -6.68 |   1 |#
   4 |     -5.69 |  18 |     -5.59 |   2 |##
   5 |     -5.55 |  11 |     -5.53 |   7 |#######
   6 |     -5.45 |   6 |     -5.37 |   5 |#####
_____|___________|_____|___________|_____|______________________________________


    RMSD TABLE
    __________


_______________________________________________________________________
     |      |      |           |         |                 |
Rank | Sub- | Run  | Binding   | Cluster | Reference       | Grep
     | Rank |      | Energy    | RMSD    | RMSD            | Pattern
_____|______|______|___________|_________|_________________|___________
   1      1     17       -7.73      0.00    272.51           RANKING
   1      2     16       -6.87      1.68    271.42           RANKING
   1      3     15       -6.80      1.93    271.31           RANKING
   1      4     14       -6.72      1.97    271.25           RANKING
   2      1      2       -7.50      0.00    271.87           RANKING
   3      1     20       -6.68      0.00    271.38           RANKING
   4      1     18       -5.69      0.00    271.52           RANKING
   4      2      8       -5.49      0.36    271.41           RANKING
   5      1     11       -5.55      0.00    271.26           RANKING
   5      2      4       -5.55      0.10    271.28           RANKING
   5      3     19       -5.54      0.37    271.35           RANKING
   5      4     10       -5.53      0.27    271.28           RANKING
   5      5      7       -5.53      0.24    271.33           RANKING
   5      6     13       -5.52      0.39    271.38           RANKING
   5      7      3       -5.51      0.36    271.36           RANKING
   6      1      6       -5.45      0.00    272.17           RANKING
   6      2     12       -5.36      0.74    271.90           RANKING
   6      3      9       -5.36      0.81    271.89           RANKING
   6      4      5       -5.35      0.80    271.89           RANKING
   6      5      1       -5.31      0.78    271.87           RANKING

Run time 0.477 sec
Idle time 0.000 sec
