AutoDock-GPU version: v1.6

**********************************************************
**    AutoDock-GPU AUTODOCKTOOLS-COMPATIBLE DLG FILE    **
**********************************************************


    DOCKING PARAMETERS
    ________________________


Ligand file:                               /home/a/REINVENT4/ReinventStudies/pleaseWork/justmol2mol_4_Compounds_ontop/graph-dock-hn62wh/graph-DockGPU/node-autodockgpu/inputs/WWBROSUNKZSBDY-SHMLJKLDNA-N.pdbqt
Grid fld file:                             /home/a/REINVENT4/ReinventStudies/mols/Rad51/maps/rad51_receptor.maps.fld

Random seed:                               42
Number of runs:                            20
Number of energy evaluations:              1613968
Number of generations:                     42000
Size of population:                        150
Rate of crossover:                         80.000000%
Tournament selection probability limit:    60.000000%
Rate of mutation:                          2.000000%
Maximal allowed delta movement:            +/- 6.000000A
Maximal allowed delta angle:               +/- 90.000000

Rate of local search:                      100.000000%
Maximal number of local search iterations: 300
Rho lower bound:                           0.010000
Spread of local search delta movement:     2.000000A
Spread of local search delta angle:        74.999999
Limit of consecutive successes/failures:   4

Handle symmetry during clustering:         YES
RMSD tolerance:                            2.000000A

Program call in command line was:          /home/a/REINVENT4/ReinventStudies/adgpu-v1.6_linux_x64_cuda12_128wi --filelist batch.txt --heuristics 1 --nrun 20 --psize 150 --lsit 300 --seed 42 --heurmax 12000000 


    GRID PARAMETERS
    ________________________


Receptor name:                             rad51_receptor
Number of grid points (x, y, z):           53, 53, 53
Grid center (x, y, z):                     139.950000, 75.640000, 221.970000A
Grid size (x, y, z):                       19.500000, 19.500000, 19.500000A
Grid spacing:                              0.375000A


    LIGAND PARAMETERS
    ________________________


Ligand name:                               /home/a/REINVENT4/ReinventStudies/pleaseWork/justmol2mol_4_Compounds_ontop/graph-dock-hn62wh/graph-DockGPU/node-autodockgpu/inputs/WWBROSUNKZSBDY-SHMLJKLDNA-N
Number of atoms:                           33
Number of rotatable bonds:                 8
Number of atom types:                      7


    DUMMY DATA (only for ADT-compatibility)
    ________________________


DPF> outlev 1
DPF> ga_run 20
DPF> fld /home/a/REINVENT4/ReinventStudies/mols/Rad51/maps/rad51_receptor.maps.fld
DPF> move /home/a/REINVENT4/ReinventStudies/pleaseWork/justmol2mol_4_Compounds_ontop/graph-dock-hn62wh/graph-DockGPU/node-autodockgpu/inputs/WWBROSUNKZSBDY-SHMLJKLDNA-N.pdbqt


    COUNTER STATES
    ________________________


Number of energy evaluations performed:    881930
Number of generations used:                55


    INPUT LIGAND PDBQT FILE:
    ________________________


INPUT-LIGAND-PDBQT: REMARK SMILES O=C(NCC(=O)N1C[C@H](O)C[C@H]1COc1ccc(Cl)cc1)c1ccc2ccccc2n1
INPUT-LIGAND-PDBQT: REMARK SMILES IDX 7 1 8 2 9 3 11 4 12 5 5 6 6 7 4 8 3 9 2 10 1 11 22 13 23 14
INPUT-LIGAND-PDBQT: REMARK SMILES IDX 31 15 24 16 30 17 25 18 29 19 26 20 28 21 27 22 13 23 14 24
INPUT-LIGAND-PDBQT: REMARK SMILES IDX 15 25 16 26 21 27 17 28 20 29 18 30 19 31 10 32
INPUT-LIGAND-PDBQT: REMARK H PARENT 3 12 10 33
INPUT-LIGAND-PDBQT: ROOT
INPUT-LIGAND-PDBQT: ATOM      1  N   UNL     1      -1.747  -2.741   0.119  1.00  0.00    -0.332 N 
INPUT-LIGAND-PDBQT: ATOM      2  C   UNL     1      -1.737  -4.108   0.677  1.00  0.00     0.151 C 
INPUT-LIGAND-PDBQT: ATOM      3  C   UNL     1      -2.813  -3.951   1.733  1.00  0.00     0.136 C 
INPUT-LIGAND-PDBQT: ATOM      4  C   UNL     1      -3.719  -2.828   1.271  1.00  0.00     0.062 C 
INPUT-LIGAND-PDBQT: ATOM      5  C   UNL     1      -3.155  -2.452  -0.074  1.00  0.00     0.125 C 
INPUT-LIGAND-PDBQT: ENDROOT
INPUT-LIGAND-PDBQT: BRANCH   1   6
INPUT-LIGAND-PDBQT: ATOM      6  C   UNL     1      -0.614  -1.922  -0.154  1.00  0.00     0.242 C 
INPUT-LIGAND-PDBQT: ATOM      7  O   UNL     1      -0.697  -0.761  -0.632  1.00  0.00    -0.273 OA
INPUT-LIGAND-PDBQT: BRANCH   6   8
INPUT-LIGAND-PDBQT: ATOM      8  C   UNL     1       0.736  -2.468   0.141  1.00  0.00     0.216 C 
INPUT-LIGAND-PDBQT: BRANCH   8   9
INPUT-LIGAND-PDBQT: ATOM      9  N   UNL     1       1.789  -1.555  -0.175  1.00  0.00    -0.342 N 
INPUT-LIGAND-PDBQT: ATOM     10  C   UNL     1       1.793  -0.290   0.501  1.00  0.00     0.270 C 
INPUT-LIGAND-PDBQT: ATOM     11  O   UNL     1       0.895  -0.002   1.342  1.00  0.00    -0.268 OA
INPUT-LIGAND-PDBQT: ATOM     12  H   UNL     1       2.554  -1.740  -0.860  1.00  0.00     0.164 HD
INPUT-LIGAND-PDBQT: BRANCH  10  13
INPUT-LIGAND-PDBQT: ATOM     13  C   UNL     1       2.844   0.676   0.214  1.00  0.00     0.128 A 
INPUT-LIGAND-PDBQT: ATOM     14  C   UNL     1       2.870   1.888   0.845  1.00  0.00     0.035 A 
INPUT-LIGAND-PDBQT: ATOM     15  N   UNL     1       3.826   0.415  -0.677  1.00  0.00    -0.243 NA
INPUT-LIGAND-PDBQT: ATOM     16  C   UNL     1       3.851   2.838   0.604  1.00  0.00     0.013 A 
INPUT-LIGAND-PDBQT: ATOM     17  C   UNL     1       4.801   1.293  -0.953  1.00  0.00     0.071 A 
INPUT-LIGAND-PDBQT: ATOM     18  C   UNL     1       4.843   2.522  -0.326  1.00  0.00     0.000 A 
INPUT-LIGAND-PDBQT: ATOM     19  C   UNL     1       5.769   0.955  -1.875  1.00  0.00     0.029 A 
INPUT-LIGAND-PDBQT: ATOM     20  C   UNL     1       5.860   3.402  -0.632  1.00  0.00     0.010 A 
INPUT-LIGAND-PDBQT: ATOM     21  C   UNL     1       6.806   1.824  -2.202  1.00  0.00     0.002 A 
INPUT-LIGAND-PDBQT: ATOM     22  C   UNL     1       6.828   3.063  -1.554  1.00  0.00     0.001 A 
INPUT-LIGAND-PDBQT: ENDBRANCH  10  13
INPUT-LIGAND-PDBQT: ENDBRANCH   8   9
INPUT-LIGAND-PDBQT: ENDBRANCH   6   8
INPUT-LIGAND-PDBQT: ENDBRANCH   1   6
INPUT-LIGAND-PDBQT: BRANCH   5  23
INPUT-LIGAND-PDBQT: ATOM     23  C   UNL     1      -3.424  -1.040  -0.465  1.00  0.00     0.254 C 
INPUT-LIGAND-PDBQT: BRANCH  23  24
INPUT-LIGAND-PDBQT: ATOM     24  O   UNL     1      -3.000  -0.088   0.456  1.00  0.00    -0.491 OA
INPUT-LIGAND-PDBQT: BRANCH  24  25
INPUT-LIGAND-PDBQT: ATOM     25  C   UNL     1      -3.224   1.256   0.145  1.00  0.00     0.119 A 
INPUT-LIGAND-PDBQT: ATOM     26  C   UNL     1      -2.818   2.252   1.033  1.00  0.00     0.048 A 
INPUT-LIGAND-PDBQT: ATOM     27  C   UNL     1      -3.841   1.658  -1.022  1.00  0.00     0.048 A 
INPUT-LIGAND-PDBQT: ATOM     28  C   UNL     1      -3.031   3.601   0.746  1.00  0.00     0.024 A 
INPUT-LIGAND-PDBQT: ATOM     29  C   UNL     1      -4.068   2.980  -1.342  1.00  0.00     0.024 A 
INPUT-LIGAND-PDBQT: ATOM     30  C   UNL     1      -3.655   3.942  -0.443  1.00  0.00     0.041 A 
INPUT-LIGAND-PDBQT: ATOM     31  Cl  UNL     1      -3.958   5.620  -0.875  1.00  0.00    -0.084 Cl
INPUT-LIGAND-PDBQT: ENDBRANCH  24  25
INPUT-LIGAND-PDBQT: ENDBRANCH  23  24
INPUT-LIGAND-PDBQT: ENDBRANCH   5  23
INPUT-LIGAND-PDBQT: BRANCH   3  32
INPUT-LIGAND-PDBQT: ATOM     32  O   UNL     1      -3.559  -5.138   1.878  1.00  0.00    -0.391 OA
INPUT-LIGAND-PDBQT: ATOM     33  H   UNL     1      -3.058  -5.832   1.383  1.00  0.00     0.211 HD
INPUT-LIGAND-PDBQT: ENDBRANCH   3  32
INPUT-LIGAND-PDBQT: TORSDOF 8


    FINAL DOCKED STATE:
    ________________________


Run:   1 / 20
Time taken for this run:   0.043s

DOCKED: MODEL        1
DOCKED: USER    Run = 1
DOCKED: USER
DOCKED: USER    Estimated Free Energy of Binding    =  -7.78 kcal/mol  [=(1)+(2)+(3)-(4)]
DOCKED: USER
DOCKED: USER    (1) Final Intermolecular Energy     = -10.17 kcal/mol
DOCKED: USER        vdW + Hbond + desolv Energy     =  -9.83 kcal/mol
DOCKED: USER        Electrostatic Energy            =  -0.34 kcal/mol
DOCKED: USER        Moving Ligand-Fixed Receptor    = -10.17 kcal/mol
DOCKED: USER        Moving Ligand-Moving Receptor   =  +0.00 kcal/mol
DOCKED: USER    (2) Final Total Internal Energy     =  -2.92 kcal/mol
DOCKED: USER    (3) Torsional Free Energy           =  +2.39 kcal/mol
DOCKED: USER    (4) Unbound System's Energy         =  -2.92 kcal/mol
DOCKED: USER
DOCKED: USER
DOCKED: REMARK SMILES O=C(NCC(=O)N1C[C@H](O)C[C@H]1COc1ccc(Cl)cc1)c1ccc2ccccc2n1
DOCKED: REMARK SMILES IDX 7 1 8 2 9 3 11 4 12 5 5 6 6 7 4 8 3 9 2 10 1 11 22 13 23 14
DOCKED: REMARK SMILES IDX 31 15 24 16 30 17 25 18 29 19 26 20 28 21 27 22 13 23 14 24
DOCKED: REMARK SMILES IDX 15 25 16 26 21 27 17 28 20 29 18 30 19 31 10 32
DOCKED: REMARK H PARENT 3 12 10 33
DOCKED: USER                              x       y       z     vdW  Elec       q    Type
DOCKED: USER                           _______ _______ _______ _____ _____    ______ ____
DOCKED: ROOT
DOCKED: ATOM      1  N   UNL     1     143.379  72.955 220.076 -0.10 +0.06    -0.332 N  
DOCKED: ATOM      2  C   UNL     1     144.020  71.625 220.076 -0.22 -0.01    +0.151 C  
DOCKED: ATOM      3  C   UNL     1     145.163  71.903 219.119 -0.24 +0.05    +0.136 C  
DOCKED: ATOM      4  C   UNL     1     145.438  73.391 219.187 -0.30 +0.01    +0.062 C  
DOCKED: ATOM      5  C   UNL     1     144.485  73.877 220.247 -0.40 -0.03    +0.125 C  
DOCKED: ENDROOT
DOCKED: BRANCH   1   6
DOCKED: ATOM      6  C   UNL     1     141.988  73.232 219.938 -0.10 -0.05    +0.242 C  
DOCKED: ATOM      7  O   UNL     1     141.374  73.168 218.841 -0.02 +0.06    -0.273 OA 
DOCKED: BRANCH   6   8
DOCKED: ATOM      8  C   UNL     1     141.224  73.617 221.153 -0.19 -0.03    +0.216 C  
DOCKED: BRANCH   8   9
DOCKED: ATOM      9  N   UNL     1     141.332  75.008 221.463 -0.17 +0.08    -0.342 N  
DOCKED: ATOM     10  C   UNL     1     140.203  75.636 222.086 -0.15 -0.05    +0.270 C  
DOCKED: ATOM     11  O   UNL     1     139.156  74.977 222.346 -0.54 +0.06    -0.268 OA 
DOCKED: ATOM     12  H   UNL     1     142.169  75.599 221.271 -0.34 -0.09    +0.164 HD 
DOCKED: BRANCH  10  13
DOCKED: ATOM     13  C   UNL     1     140.262  77.052 222.422 -0.32 -0.03    +0.128 A  
DOCKED: ATOM     14  C   UNL     1     139.121  77.800 222.495 -0.29 -0.01    +0.035 A  
DOCKED: ATOM     15  N   UNL     1     141.434  77.675 222.674 -0.23 +0.12    -0.243 NA 
DOCKED: ATOM     16  C   UNL     1     139.129  79.150 222.812 -0.31 -0.00    +0.013 A  
DOCKED: ATOM     17  C   UNL     1     141.506  78.977 222.984 -0.50 -0.02    +0.071 A  
DOCKED: ATOM     18  C   UNL     1     140.365  79.749 223.063 -0.43 -0.00    +0.000 A  
DOCKED: ATOM     19  C   UNL     1     142.740  79.543 223.228 -0.55 -0.01    +0.029 A  
DOCKED: ATOM     20  C   UNL     1     140.474  81.085 223.385 -0.40 -0.00    +0.010 A  
DOCKED: ATOM     21  C   UNL     1     142.878  80.888 223.556 -0.63 -0.00    +0.002 A  
DOCKED: ATOM     22  C   UNL     1     141.708  81.650 223.629 -0.47 -0.00    +0.001 A  
DOCKED: ENDBRANCH  10  13
DOCKED: ENDBRANCH   8   9
DOCKED: ENDBRANCH   6   8
DOCKED: ENDBRANCH   1   6
DOCKED: BRANCH   5  23
DOCKED: ATOM     23  C   UNL     1     144.096  75.307 220.095 -0.18 -0.15    +0.254 C  
DOCKED: BRANCH  23  24
DOCKED: ATOM     24  O   UNL     1     143.028  75.533 219.232 -0.11 +0.24    -0.491 OA 
DOCKED: BRANCH  24  25
DOCKED: ATOM     25  C   UNL     1     142.706  76.861 218.938 -0.29 -0.07    +0.119 A  
DOCKED: ATOM     26  C   UNL     1     142.933  77.364 217.657 -0.28 -0.04    +0.048 A  
DOCKED: ATOM     27  C   UNL     1     142.162  77.720 219.871 -0.28 -0.03    +0.048 A  
DOCKED: ATOM     28  C   UNL     1     142.620  78.687 217.339 -0.26 -0.02    +0.024 A  
DOCKED: ATOM     29  C   UNL     1     141.839  79.032 219.595 -0.28 -0.01    +0.024 A  
DOCKED: ATOM     30  C   UNL     1     142.076  79.500 218.319 -0.28 -0.03    +0.041 A  
DOCKED: ATOM     31  Cl  UNL     1     141.655  81.177 217.994 -0.30 +0.05    -0.084 Cl 
DOCKED: ENDBRANCH  24  25
DOCKED: ENDBRANCH  23  24
DOCKED: ENDBRANCH   5  23
DOCKED: BRANCH   3  32
DOCKED: ATOM     32  O   UNL     1     146.319  71.185 219.486 -0.29 -0.39    -0.391 OA 
DOCKED: ATOM     33  H   UNL     1     146.390  71.277 220.468 -0.38 +0.04    +0.211 HD 
DOCKED: ENDBRANCH   3  32
DOCKED: TORSDOF 8
DOCKED: TER
DOCKED: ENDMDL
________________________________________________________________________________


    FINAL DOCKED STATE:
    ________________________


Run:   2 / 20
Time taken for this run:   0.043s

DOCKED: MODEL        2
DOCKED: USER    Run = 2
DOCKED: USER
DOCKED: USER    Estimated Free Energy of Binding    =  -8.65 kcal/mol  [=(1)+(2)+(3)-(4)]
DOCKED: USER
DOCKED: USER    (1) Final Intermolecular Energy     = -11.03 kcal/mol
DOCKED: USER        vdW + Hbond + desolv Energy     = -10.90 kcal/mol
DOCKED: USER        Electrostatic Energy            =  -0.13 kcal/mol
DOCKED: USER        Moving Ligand-Fixed Receptor    = -11.03 kcal/mol
DOCKED: USER        Moving Ligand-Moving Receptor   =  +0.00 kcal/mol
DOCKED: USER    (2) Final Total Internal Energy     =  -1.83 kcal/mol
DOCKED: USER    (3) Torsional Free Energy           =  +2.39 kcal/mol
DOCKED: USER    (4) Unbound System's Energy         =  -1.83 kcal/mol
DOCKED: USER
DOCKED: USER
DOCKED: REMARK SMILES O=C(NCC(=O)N1C[C@H](O)C[C@H]1COc1ccc(Cl)cc1)c1ccc2ccccc2n1
DOCKED: REMARK SMILES IDX 7 1 8 2 9 3 11 4 12 5 5 6 6 7 4 8 3 9 2 10 1 11 22 13 23 14
DOCKED: REMARK SMILES IDX 31 15 24 16 30 17 25 18 29 19 26 20 28 21 27 22 13 23 14 24
DOCKED: REMARK SMILES IDX 15 25 16 26 21 27 17 28 20 29 18 30 19 31 10 32
DOCKED: REMARK H PARENT 3 12 10 33
DOCKED: USER                              x       y       z     vdW  Elec       q    Type
DOCKED: USER                           _______ _______ _______ _____ _____    ______ ____
DOCKED: ROOT
DOCKED: ATOM      1  N   UNL     1     141.624  73.645 220.540 -0.09 +0.06    -0.332 N  
DOCKED: ATOM      2  C   UNL     1     142.469  72.500 220.932 -0.17 -0.02    +0.151 C  
DOCKED: ATOM      3  C   UNL     1     143.797  72.971 220.372 -0.29 -0.02    +0.136 C  
DOCKED: ATOM      4  C   UNL     1     143.738  74.484 220.321 -0.37 -0.02    +0.062 C  
DOCKED: ATOM      5  C   UNL     1     142.400  74.805 220.933 -0.09 -0.05    +0.125 C  
DOCKED: ENDROOT
DOCKED: BRANCH   1   6
DOCKED: ATOM      6  C   UNL     1     140.343  73.587 219.918 -0.06 -0.05    +0.242 C  
DOCKED: ATOM      7  O   UNL     1     140.180  73.517 218.672 -0.01 +0.06    -0.273 OA 
DOCKED: BRANCH   6   8
DOCKED: ATOM      8  C   UNL     1     139.138  73.611 220.786 -0.10 -0.04    +0.216 C  
DOCKED: BRANCH   8   9
DOCKED: ATOM      9  N   UNL     1     139.388  73.115 222.103 -0.13 +0.07    -0.342 N  
DOCKED: ATOM     10  C   UNL     1     139.554  71.698 222.255 -0.17 -0.05    +0.270 C  
DOCKED: ATOM     11  O   UNL     1     139.479  70.926 221.258 -0.07 +0.05    -0.268 OA 
DOCKED: ATOM     12  H   UNL     1     139.459  73.705 222.960 -0.46 -0.04    +0.164 HD 
DOCKED: BRANCH  10  13
DOCKED: ATOM     13  C   UNL     1     139.810  71.142 223.576 -0.31 -0.02    +0.128 A  
DOCKED: ATOM     14  C   UNL     1     139.512  69.838 223.855 -0.28 -0.01    +0.035 A  
DOCKED: ATOM     15  N   UNL     1     140.349  71.885 224.569 -0.27 +0.04    -0.243 NA 
DOCKED: ATOM     16  C   UNL     1     139.739  69.265 225.097 -0.39 -0.00    +0.013 A  
DOCKED: ATOM     17  C   UNL     1     140.591  71.388 225.791 -0.54 -0.01    +0.071 A  
DOCKED: ATOM     18  C   UNL     1     140.296  70.074 226.090 -0.53 -0.00    +0.000 A  
DOCKED: ATOM     19  C   UNL     1     141.142  72.208 226.752 -0.67 -0.00    +0.029 A  
DOCKED: ATOM     20  C   UNL     1     140.558  69.594 227.356 -0.59 -0.00    +0.010 A  
DOCKED: ATOM     21  C   UNL     1     141.417  71.750 228.038 -0.74 -0.00    +0.002 A  
DOCKED: ATOM     22  C   UNL     1     141.110  70.415 228.318 -0.55 -0.00    +0.001 A  
DOCKED: ENDBRANCH  10  13
DOCKED: ENDBRANCH   8   9
DOCKED: ENDBRANCH   6   8
DOCKED: ENDBRANCH   1   6
DOCKED: BRANCH   5  23
DOCKED: ATOM     23  C   UNL     1     141.820  76.095 220.467 -0.17 -0.12    +0.254 C  
DOCKED: BRANCH  23  24
DOCKED: ATOM     24  O   UNL     1     140.895  76.667 221.334 -0.11 +0.19    -0.491 OA 
DOCKED: BRANCH  24  25
DOCKED: ATOM     25  C   UNL     1     141.277  77.828 222.011 -0.31 -0.06    +0.119 A  
DOCKED: ATOM     26  C   UNL     1     141.513  79.003 221.297 -0.34 -0.02    +0.048 A  
DOCKED: ATOM     27  C   UNL     1     141.437  77.875 223.381 -0.37 -0.02    +0.048 A  
DOCKED: ATOM     28  C   UNL     1     141.897  80.176 221.949 -0.47 -0.01    +0.024 A  
DOCKED: ATOM     29  C   UNL     1     141.813  79.013 224.061 -0.58 -0.01    +0.024 A  
DOCKED: ATOM     30  C   UNL     1     142.039  80.159 223.327 -0.59 -0.01    +0.041 A  
DOCKED: ATOM     31  Cl  UNL     1     142.519  81.597 224.219 -0.54 +0.01    -0.084 Cl 
DOCKED: ENDBRANCH  24  25
DOCKED: ENDBRANCH  23  24
DOCKED: ENDBRANCH   5  23
DOCKED: BRANCH   3  32
DOCKED: ATOM     32  O   UNL     1     144.867  72.561 221.192 -0.22 +0.10    -0.391 OA 
DOCKED: ATOM     33  H   UNL     1     144.673  71.624 221.440 -0.34 -0.11    +0.211 HD 
DOCKED: ENDBRANCH   3  32
DOCKED: TORSDOF 8
DOCKED: TER
DOCKED: ENDMDL
________________________________________________________________________________


    FINAL DOCKED STATE:
    ________________________


Run:   3 / 20
Time taken for this run:   0.043s

DOCKED: MODEL        3
DOCKED: USER    Run = 3
DOCKED: USER
DOCKED: USER    Estimated Free Energy of Binding    =  -9.12 kcal/mol  [=(1)+(2)+(3)-(4)]
DOCKED: USER
DOCKED: USER    (1) Final Intermolecular Energy     = -11.50 kcal/mol
DOCKED: USER        vdW + Hbond + desolv Energy     = -11.36 kcal/mol
DOCKED: USER        Electrostatic Energy            =  -0.14 kcal/mol
DOCKED: USER        Moving Ligand-Fixed Receptor    = -11.50 kcal/mol
DOCKED: USER        Moving Ligand-Moving Receptor   =  +0.00 kcal/mol
DOCKED: USER    (2) Final Total Internal Energy     =  -1.67 kcal/mol
DOCKED: USER    (3) Torsional Free Energy           =  +2.39 kcal/mol
DOCKED: USER    (4) Unbound System's Energy         =  -1.67 kcal/mol
DOCKED: USER
DOCKED: USER
DOCKED: REMARK SMILES O=C(NCC(=O)N1C[C@H](O)C[C@H]1COc1ccc(Cl)cc1)c1ccc2ccccc2n1
DOCKED: REMARK SMILES IDX 7 1 8 2 9 3 11 4 12 5 5 6 6 7 4 8 3 9 2 10 1 11 22 13 23 14
DOCKED: REMARK SMILES IDX 31 15 24 16 30 17 25 18 29 19 26 20 28 21 27 22 13 23 14 24
DOCKED: REMARK SMILES IDX 15 25 16 26 21 27 17 28 20 29 18 30 19 31 10 32
DOCKED: REMARK H PARENT 3 12 10 33
DOCKED: USER                              x       y       z     vdW  Elec       q    Type
DOCKED: USER                           _______ _______ _______ _____ _____    ______ ____
DOCKED: ROOT
DOCKED: ATOM      1  N   UNL     1     142.000  73.864 220.343 -0.10 +0.08    -0.332 N  
DOCKED: ATOM      2  C   UNL     1     143.199  73.069 220.675 -0.21 -0.03    +0.151 C  
DOCKED: ATOM      3  C   UNL     1     144.210  73.764 219.785 -0.31 -0.03    +0.136 C  
DOCKED: ATOM      4  C   UNL     1     143.704  75.174 219.565 -0.36 -0.03    +0.062 C  
DOCKED: ATOM      5  C   UNL     1     142.460  75.238 220.413 -0.23 -0.06    +0.125 C  
DOCKED: ENDROOT
DOCKED: BRANCH   1   6
DOCKED: ATOM      6  C   UNL     1     140.704  73.364 220.029 -0.07 -0.05    +0.242 C  
DOCKED: ATOM      7  O   UNL     1     140.463  72.642 219.027 -0.02 +0.05    -0.273 OA 
DOCKED: BRANCH   6   8
DOCKED: ATOM      8  C   UNL     1     139.577  73.714 220.932 -0.13 -0.04    +0.216 C  
DOCKED: BRANCH   8   9
DOCKED: ATOM      9  N   UNL     1     139.689  73.113 222.223 -0.15 +0.06    -0.342 N  
DOCKED: ATOM     10  C   UNL     1     139.763  71.682 222.283 -0.18 -0.05    +0.270 C  
DOCKED: ATOM     11  O   UNL     1     139.729  70.987 221.228 -0.08 +0.04    -0.268 OA 
DOCKED: ATOM     12  H   UNL     1     139.720  73.637 223.125 -0.43 -0.01    +0.164 HD 
DOCKED: BRANCH  10  13
DOCKED: ATOM     13  C   UNL     1     139.877  71.020 223.575 -0.30 -0.02    +0.128 A  
DOCKED: ATOM     14  C   UNL     1     139.497  69.716 223.727 -0.26 -0.01    +0.035 A  
DOCKED: ATOM     15  N   UNL     1     140.359  71.661 224.662 -0.29 +0.04    -0.243 NA 
DOCKED: ATOM     16  C   UNL     1     139.588  69.045 224.938 -0.39 -0.00    +0.013 A  
DOCKED: ATOM     17  C   UNL     1     140.471  71.067 225.859 -0.54 -0.01    +0.071 A  
DOCKED: ATOM     18  C   UNL     1     140.091  69.751 226.032 -0.50 -0.00    +0.000 A  
DOCKED: ATOM     19  C   UNL     1     140.972  71.787 226.923 -0.74 -0.01    +0.029 A  
DOCKED: ATOM     20  C   UNL     1     140.220  69.169 227.276 -0.60 -0.00    +0.010 A  
DOCKED: ATOM     21  C   UNL     1     141.112  71.224 228.188 -0.71 -0.00    +0.002 A  
DOCKED: ATOM     22  C   UNL     1     140.721  69.890 228.339 -0.58 -0.00    +0.001 A  
DOCKED: ENDBRANCH  10  13
DOCKED: ENDBRANCH   8   9
DOCKED: ENDBRANCH   6   8
DOCKED: ENDBRANCH   1   6
DOCKED: BRANCH   5  23
DOCKED: ATOM     23  C   UNL     1     141.455  76.227 219.933 -0.14 -0.11    +0.254 C  
DOCKED: BRANCH  23  24
DOCKED: ATOM     24  O   UNL     1     140.610  76.726 220.918 -0.06 +0.17    -0.491 OA 
DOCKED: BRANCH  24  25
DOCKED: ATOM     25  C   UNL     1     141.073  77.799 221.683 -0.31 -0.05    +0.119 A  
DOCKED: ATOM     26  C   UNL     1     141.557  78.945 221.053 -0.32 -0.02    +0.048 A  
DOCKED: ATOM     27  C   UNL     1     141.076  77.784 223.063 -0.41 -0.02    +0.048 A  
DOCKED: ATOM     28  C   UNL     1     142.025  80.030 221.795 -0.45 -0.01    +0.024 A  
DOCKED: ATOM     29  C   UNL     1     141.529  78.836 223.831 -0.58 -0.01    +0.024 A  
DOCKED: ATOM     30  C   UNL     1     142.002  79.955 223.178 -0.58 -0.01    +0.041 A  
DOCKED: ATOM     31  Cl  UNL     1     142.576  81.281 224.181 -0.65 +0.01    -0.084 Cl 
DOCKED: ENDBRANCH  24  25
DOCKED: ENDBRANCH  23  24
DOCKED: ENDBRANCH   5  23
DOCKED: BRANCH   3  32
DOCKED: ATOM     32  O   UNL     1     145.481  73.801 220.393 -0.35 +0.06    -0.391 OA 
DOCKED: ATOM     33  H   UNL     1     145.969  74.537 219.950 -0.35 -0.08    +0.211 HD 
DOCKED: ENDBRANCH   3  32
DOCKED: TORSDOF 8
DOCKED: TER
DOCKED: ENDMDL
________________________________________________________________________________


    FINAL DOCKED STATE:
    ________________________


Run:   4 / 20
Time taken for this run:   0.043s

DOCKED: MODEL        4
DOCKED: USER    Run = 4
DOCKED: USER
DOCKED: USER    Estimated Free Energy of Binding    =  -8.94 kcal/mol  [=(1)+(2)+(3)-(4)]
DOCKED: USER
DOCKED: USER    (1) Final Intermolecular Energy     = -11.32 kcal/mol
DOCKED: USER        vdW + Hbond + desolv Energy     = -11.18 kcal/mol
DOCKED: USER        Electrostatic Energy            =  -0.14 kcal/mol
DOCKED: USER        Moving Ligand-Fixed Receptor    = -11.32 kcal/mol
DOCKED: USER        Moving Ligand-Moving Receptor   =  +0.00 kcal/mol
DOCKED: USER    (2) Final Total Internal Energy     =  -1.49 kcal/mol
DOCKED: USER    (3) Torsional Free Energy           =  +2.39 kcal/mol
DOCKED: USER    (4) Unbound System's Energy         =  -1.49 kcal/mol
DOCKED: USER
DOCKED: USER
DOCKED: REMARK SMILES O=C(NCC(=O)N1C[C@H](O)C[C@H]1COc1ccc(Cl)cc1)c1ccc2ccccc2n1
DOCKED: REMARK SMILES IDX 7 1 8 2 9 3 11 4 12 5 5 6 6 7 4 8 3 9 2 10 1 11 22 13 23 14
DOCKED: REMARK SMILES IDX 31 15 24 16 30 17 25 18 29 19 26 20 28 21 27 22 13 23 14 24
DOCKED: REMARK SMILES IDX 15 25 16 26 21 27 17 28 20 29 18 30 19 31 10 32
DOCKED: REMARK H PARENT 3 12 10 33
DOCKED: USER                              x       y       z     vdW  Elec       q    Type
DOCKED: USER                           _______ _______ _______ _____ _____    ______ ____
DOCKED: ROOT
DOCKED: ATOM      1  N   UNL     1     142.065  75.449 220.226 -0.12 +0.14    -0.332 N  
DOCKED: ATOM      2  C   UNL     1     143.256  74.605 219.999 -0.28 -0.06    +0.151 C  
DOCKED: ATOM      3  C   UNL     1     143.145  74.420 218.499 -0.14 -0.04    +0.136 C  
DOCKED: ATOM      4  C   UNL     1     142.374  75.611 217.967 -0.14 -0.03    +0.062 C  
DOCKED: ATOM      5  C   UNL     1     142.151  76.461 219.191 -0.23 -0.06    +0.125 C  
DOCKED: ENDROOT
DOCKED: BRANCH   1   6
DOCKED: ATOM      6  C   UNL     1     141.078  75.278 221.238 -0.23 -0.07    +0.242 C  
DOCKED: ATOM      7  O   UNL     1     141.062  75.939 222.309 -0.40 +0.07    -0.273 OA 
DOCKED: BRANCH   6   8
DOCKED: ATOM      8  C   UNL     1     140.012  74.267 221.018 -0.17 -0.04    +0.216 C  
DOCKED: BRANCH   8   9
DOCKED: ATOM      9  N   UNL     1     139.719  73.500 222.188 -0.14 +0.05    -0.342 N  
DOCKED: ATOM     10  C   UNL     1     140.521  72.336 222.433 -0.20 -0.02    +0.270 C  
DOCKED: ATOM     11  O   UNL     1     141.449  72.010 221.640 -0.18 +0.02    -0.268 OA 
DOCKED: ATOM     12  H   UNL     1     138.967  73.723 222.875 -0.53 -0.08    +0.164 HD 
DOCKED: BRANCH  10  13
DOCKED: ATOM     13  C   UNL     1     140.263  71.520 223.611 -0.33 -0.02    +0.128 A  
DOCKED: ATOM     14  C   UNL     1     139.557  70.354 223.512 -0.29 -0.01    +0.035 A  
DOCKED: ATOM     15  N   UNL     1     140.708  71.878 224.836 -0.27 +0.03    -0.243 NA 
DOCKED: ATOM     16  C   UNL     1     139.288  69.545 224.605 -0.35 -0.00    +0.013 A  
DOCKED: ATOM     17  C   UNL     1     140.479  71.139 225.931 -0.54 -0.01    +0.071 A  
DOCKED: ATOM     18  C   UNL     1     139.768  69.958 225.850 -0.47 -0.00    +0.000 A  
DOCKED: ATOM     19  C   UNL     1     140.965  71.570 227.147 -0.74 -0.01    +0.029 A  
DOCKED: ATOM     20  C   UNL     1     139.551  69.221 226.995 -0.54 -0.00    +0.010 A  
DOCKED: ATOM     21  C   UNL     1     140.760  70.845 228.317 -0.63 -0.00    +0.002 A  
DOCKED: ATOM     22  C   UNL     1     140.037  69.652 228.211 -0.62 -0.00    +0.001 A  
DOCKED: ENDBRANCH  10  13
DOCKED: ENDBRANCH   8   9
DOCKED: ENDBRANCH   6   8
DOCKED: ENDBRANCH   1   6
DOCKED: BRANCH   5  23
DOCKED: ATOM     23  C   UNL     1     140.945  77.330 219.107 -0.08 -0.11    +0.254 C  
DOCKED: BRANCH  23  24
DOCKED: ATOM     24  O   UNL     1     141.209  78.695 219.066 -0.03 +0.24    -0.491 OA 
DOCKED: BRANCH  24  25
DOCKED: ATOM     25  C   UNL     1     141.526  79.327 220.272 -0.24 -0.06    +0.119 A  
DOCKED: ATOM     26  C   UNL     1     141.532  80.720 220.346 -0.30 -0.02    +0.048 A  
DOCKED: ATOM     27  C   UNL     1     141.841  78.628 221.420 -0.36 -0.03    +0.048 A  
DOCKED: ATOM     28  C   UNL     1     141.846  81.375 221.537 -0.39 -0.01    +0.024 A  
DOCKED: ATOM     29  C   UNL     1     142.154  79.239 222.616 -0.54 -0.01    +0.024 A  
DOCKED: ATOM     30  C   UNL     1     142.152  80.618 222.657 -0.55 -0.01    +0.041 A  
DOCKED: ATOM     31  Cl  UNL     1     142.557  81.371 224.194 -0.61 +0.01    -0.084 Cl 
DOCKED: ENDBRANCH  24  25
DOCKED: ENDBRANCH  23  24
DOCKED: ENDBRANCH   5  23
DOCKED: BRANCH   3  32
DOCKED: ATOM     32  O   UNL     1     144.419  74.369 217.899 -0.06 +0.14    -0.391 OA 
DOCKED: ATOM     33  H   UNL     1     144.822  75.260 218.046 -0.45 -0.17    +0.211 HD 
DOCKED: ENDBRANCH   3  32
DOCKED: TORSDOF 8
DOCKED: TER
DOCKED: ENDMDL
________________________________________________________________________________


    FINAL DOCKED STATE:
    ________________________


Run:   5 / 20
Time taken for this run:   0.043s

DOCKED: MODEL        5
DOCKED: USER    Run = 5
DOCKED: USER
DOCKED: USER    Estimated Free Energy of Binding    =  -7.87 kcal/mol  [=(1)+(2)+(3)-(4)]
DOCKED: USER
DOCKED: USER    (1) Final Intermolecular Energy     = -10.25 kcal/mol
DOCKED: USER        vdW + Hbond + desolv Energy     = -10.09 kcal/mol
DOCKED: USER        Electrostatic Energy            =  -0.17 kcal/mol
DOCKED: USER        Moving Ligand-Fixed Receptor    = -10.25 kcal/mol
DOCKED: USER        Moving Ligand-Moving Receptor   =  +0.00 kcal/mol
DOCKED: USER    (2) Final Total Internal Energy     =  -2.61 kcal/mol
DOCKED: USER    (3) Torsional Free Energy           =  +2.39 kcal/mol
DOCKED: USER    (4) Unbound System's Energy         =  -2.61 kcal/mol
DOCKED: USER
DOCKED: USER
DOCKED: REMARK SMILES O=C(NCC(=O)N1C[C@H](O)C[C@H]1COc1ccc(Cl)cc1)c1ccc2ccccc2n1
DOCKED: REMARK SMILES IDX 7 1 8 2 9 3 11 4 12 5 5 6 6 7 4 8 3 9 2 10 1 11 22 13 23 14
DOCKED: REMARK SMILES IDX 31 15 24 16 30 17 25 18 29 19 26 20 28 21 27 22 13 23 14 24
DOCKED: REMARK SMILES IDX 15 25 16 26 21 27 17 28 20 29 18 30 19 31 10 32
DOCKED: REMARK H PARENT 3 12 10 33
DOCKED: USER                              x       y       z     vdW  Elec       q    Type
DOCKED: USER                           _______ _______ _______ _____ _____    ______ ____
DOCKED: ROOT
DOCKED: ATOM      1  N   UNL     1     141.032  72.503 220.299 -0.05 +0.05    -0.332 N  
DOCKED: ATOM      2  C   UNL     1     141.715  71.199 220.177 -0.11 -0.02    +0.151 C  
DOCKED: ATOM      3  C   UNL     1     143.118  71.684 219.871 -0.16 -0.01    +0.136 C  
DOCKED: ATOM      4  C   UNL     1     143.239  73.075 220.460 -0.29 -0.01    +0.062 C  
DOCKED: ATOM      5  C   UNL     1     141.914  73.282 221.146 -0.17 -0.02    +0.125 C  
DOCKED: ENDROOT
DOCKED: BRANCH   1   6
DOCKED: ATOM      6  C   UNL     1     139.791  72.875 219.707 -0.03 -0.05    +0.242 C  
DOCKED: ATOM      7  O   UNL     1     139.641  73.062 218.472 -0.01 +0.05    -0.273 OA 
DOCKED: BRANCH   6   8
DOCKED: ATOM      8  C   UNL     1     138.613  73.053 220.595 -0.06 -0.04    +0.216 C  
DOCKED: BRANCH   8   9
DOCKED: ATOM      9  N   UNL     1     138.885  72.718 221.957 -0.10 +0.08    -0.342 N  
DOCKED: ATOM     10  C   UNL     1     139.051  71.330 222.277 -0.13 -0.05    +0.270 C  
DOCKED: ATOM     11  O   UNL     1     138.958  70.443 221.381 -0.06 +0.05    -0.268 OA 
DOCKED: ATOM     12  H   UNL     1     138.971  73.407 222.736 -0.47 -0.06    +0.164 HD 
DOCKED: BRANCH  10  13
DOCKED: ATOM     13  C   UNL     1     139.329  70.936 223.650 -0.28 -0.03    +0.128 A  
DOCKED: ATOM     14  C   UNL     1     138.826  69.770 224.158 -0.30 -0.01    +0.035 A  
DOCKED: ATOM     15  N   UNL     1     140.087  71.697 224.469 -0.26 +0.05    -0.243 NA 
DOCKED: ATOM     16  C   UNL     1     139.065  69.355 225.459 -0.41 -0.00    +0.013 A  
DOCKED: ATOM     17  C   UNL     1     140.353  71.349 225.737 -0.51 -0.01    +0.071 A  
DOCKED: ATOM     18  C   UNL     1     139.854  70.176 226.267 -0.50 -0.00    +0.000 A  
DOCKED: ATOM     19  C   UNL     1     141.135  72.179 226.512 -0.58 -0.00    +0.029 A  
DOCKED: ATOM     20  C   UNL     1     140.146  69.847 227.574 -0.60 -0.00    +0.010 A  
DOCKED: ATOM     21  C   UNL     1     141.446  71.870 227.834 -0.77 -0.00    +0.002 A  
DOCKED: ATOM     22  C   UNL     1     140.929  70.677 228.348 -0.59 -0.00    +0.001 A  
DOCKED: ENDBRANCH  10  13
DOCKED: ENDBRANCH   8   9
DOCKED: ENDBRANCH   6   8
DOCKED: ENDBRANCH   1   6
DOCKED: BRANCH   5  23
DOCKED: ATOM     23  C   UNL     1     141.516  74.713 221.263 -0.16 -0.06    +0.254 C  
DOCKED: BRANCH  23  24
DOCKED: ATOM     24  O   UNL     1     140.378  74.942 222.030 -0.60 +0.04    -0.491 OA 
DOCKED: BRANCH  24  25
DOCKED: ATOM     25  C   UNL     1     140.080  76.266 222.363 -0.31 -0.02    +0.119 A  
DOCKED: ATOM     26  C   UNL     1     138.751  76.684 222.427 -0.29 -0.01    +0.048 A  
DOCKED: ATOM     27  C   UNL     1     141.054  77.203 222.639 -0.39 -0.02    +0.048 A  
DOCKED: ATOM     28  C   UNL     1     138.426  78.000 222.757 -0.27 -0.00    +0.024 A  
DOCKED: ATOM     29  C   UNL     1     140.775  78.512 222.970 -0.46 -0.01    +0.024 A  
DOCKED: ATOM     30  C   UNL     1     139.450  78.895 223.024 -0.34 -0.01    +0.041 A  
DOCKED: ATOM     31  Cl  UNL     1     139.121  80.570 223.447 -0.47 +0.01    -0.084 Cl 
DOCKED: ENDBRANCH  24  25
DOCKED: ENDBRANCH  23  24
DOCKED: ENDBRANCH   5  23
DOCKED: BRANCH   3  32
DOCKED: ATOM     32  O   UNL     1     144.085  70.836 220.447 -0.09 +0.03    -0.391 OA 
DOCKED: ATOM     33  H   UNL     1     144.347  71.266 221.298 -0.27 -0.09    +0.211 HD 
DOCKED: ENDBRANCH   3  32
DOCKED: TORSDOF 8
DOCKED: TER
DOCKED: ENDMDL
________________________________________________________________________________


    FINAL DOCKED STATE:
    ________________________


Run:   6 / 20
Time taken for this run:   0.043s

DOCKED: MODEL        6
DOCKED: USER    Run = 6
DOCKED: USER
DOCKED: USER    Estimated Free Energy of Binding    =  -7.39 kcal/mol  [=(1)+(2)+(3)-(4)]
DOCKED: USER
DOCKED: USER    (1) Final Intermolecular Energy     =  -9.77 kcal/mol
DOCKED: USER        vdW + Hbond + desolv Energy     =  -9.37 kcal/mol
DOCKED: USER        Electrostatic Energy            =  -0.41 kcal/mol
DOCKED: USER        Moving Ligand-Fixed Receptor    =  -9.77 kcal/mol
DOCKED: USER        Moving Ligand-Moving Receptor   =  +0.00 kcal/mol
DOCKED: USER    (2) Final Total Internal Energy     =  -3.41 kcal/mol
DOCKED: USER    (3) Torsional Free Energy           =  +2.39 kcal/mol
DOCKED: USER    (4) Unbound System's Energy         =  -3.41 kcal/mol
DOCKED: USER
DOCKED: USER
DOCKED: REMARK SMILES O=C(NCC(=O)N1C[C@H](O)C[C@H]1COc1ccc(Cl)cc1)c1ccc2ccccc2n1
DOCKED: REMARK SMILES IDX 7 1 8 2 9 3 11 4 12 5 5 6 6 7 4 8 3 9 2 10 1 11 22 13 23 14
DOCKED: REMARK SMILES IDX 31 15 24 16 30 17 25 18 29 19 26 20 28 21 27 22 13 23 14 24
DOCKED: REMARK SMILES IDX 15 25 16 26 21 27 17 28 20 29 18 30 19 31 10 32
DOCKED: REMARK H PARENT 3 12 10 33
DOCKED: USER                              x       y       z     vdW  Elec       q    Type
DOCKED: USER                           _______ _______ _______ _____ _____    ______ ____
DOCKED: ROOT
DOCKED: ATOM      1  N   UNL     1     143.005  73.523 219.747 -0.08 +0.07    -0.332 N  
DOCKED: ATOM      2  C   UNL     1     144.267  72.781 219.944 -0.28 -0.02    +0.151 C  
DOCKED: ATOM      3  C   UNL     1     144.888  72.985 218.577 -0.20 +0.02    +0.136 C  
DOCKED: ATOM      4  C   UNL     1     144.298  74.262 218.013 -0.07 -0.02    +0.062 C  
DOCKED: ATOM      5  C   UNL     1     143.423  74.767 219.130 -0.24 -0.05    +0.125 C  
DOCKED: ENDROOT
DOCKED: BRANCH   1   6
DOCKED: ATOM      6  C   UNL     1     141.695  73.086 220.095 -0.10 -0.04    +0.242 C  
DOCKED: ATOM      7  O   UNL     1     140.986  72.360 219.350 -0.03 +0.05    -0.273 OA 
DOCKED: BRANCH   6   8
DOCKED: ATOM      8  C   UNL     1     141.136  73.511 221.404 -0.19 -0.02    +0.216 C  
DOCKED: BRANCH   8   9
DOCKED: ATOM      9  N   UNL     1     141.284  74.911 221.647 -0.15 +0.07    -0.342 N  
DOCKED: ATOM     10  C   UNL     1     140.134  75.625 222.122 -0.13 -0.04    +0.270 C  
DOCKED: ATOM     11  O   UNL     1     139.036  75.031 222.314 -0.45 +0.06    -0.268 OA 
DOCKED: ATOM     12  H   UNL     1     142.165  75.452 221.505 -0.37 -0.08    +0.164 HD 
DOCKED: BRANCH  10  13
DOCKED: ATOM     13  C   UNL     1     140.233  77.054 222.384 -0.33 -0.03    +0.128 A  
DOCKED: ATOM     14  C   UNL     1     139.111  77.832 222.445 -0.29 -0.01    +0.035 A  
DOCKED: ATOM     15  N   UNL     1     141.424  77.662 222.576 -0.22 +0.12    -0.243 NA 
DOCKED: ATOM     16  C   UNL     1     139.156  79.196 222.693 -0.30 -0.00    +0.013 A  
DOCKED: ATOM     17  C   UNL     1     141.533  78.976 222.818 -0.48 -0.03    +0.071 A  
DOCKED: ATOM     18  C   UNL     1     140.411  79.777 222.884 -0.41 -0.00    +0.000 A  
DOCKED: ATOM     19  C   UNL     1     142.784  79.525 223.004 -0.57 -0.01    +0.029 A  
DOCKED: ATOM     20  C   UNL     1     140.557  81.125 223.135 -0.41 -0.00    +0.010 A  
DOCKED: ATOM     21  C   UNL     1     142.960  80.882 223.259 -0.56 -0.00    +0.002 A  
DOCKED: ATOM     22  C   UNL     1     141.809  81.673 223.321 -0.50 -0.00    +0.001 A  
DOCKED: ENDBRANCH  10  13
DOCKED: ENDBRANCH   8   9
DOCKED: ENDBRANCH   6   8
DOCKED: ENDBRANCH   1   6
DOCKED: BRANCH   5  23
DOCKED: ATOM     23  C   UNL     1     142.287  75.613 218.668 -0.12 -0.11    +0.254 C  
DOCKED: BRANCH  23  24
DOCKED: ATOM     24  O   UNL     1     141.832  76.539 219.600 -0.06 +0.24    -0.491 OA 
DOCKED: BRANCH  24  25
DOCKED: ATOM     25  C   UNL     1     141.862  77.888 219.237 -0.23 -0.07    +0.119 A  
DOCKED: ATOM     26  C   UNL     1     142.869  78.360 218.395 -0.23 -0.04    +0.048 A  
DOCKED: ATOM     27  C   UNL     1     140.925  78.800 219.680 -0.18 -0.02    +0.048 A  
DOCKED: ATOM     28  C   UNL     1     142.921  79.702 218.019 -0.26 -0.03    +0.024 A  
DOCKED: ATOM     29  C   UNL     1     140.942  80.134 219.330 -0.19 -0.01    +0.024 A  
DOCKED: ATOM     30  C   UNL     1     141.951  80.569 218.495 -0.28 -0.03    +0.041 A  
DOCKED: ATOM     31  Cl  UNL     1     141.950  82.275 218.066 -0.30 +0.04    -0.084 Cl 
DOCKED: ENDBRANCH  24  25
DOCKED: ENDBRANCH  23  24
DOCKED: ENDBRANCH   5  23
DOCKED: BRANCH   3  32
DOCKED: ATOM     32  O   UNL     1     146.290  73.106 218.669 -0.68 -0.41    -0.391 OA 
DOCKED: ATOM     33  H   UNL     1     146.466  74.066 218.829 -0.47 +0.00    +0.211 HD 
DOCKED: ENDBRANCH   3  32
DOCKED: TORSDOF 8
DOCKED: TER
DOCKED: ENDMDL
________________________________________________________________________________


    FINAL DOCKED STATE:
    ________________________


Run:   7 / 20
Time taken for this run:   0.043s

DOCKED: MODEL        7
DOCKED: USER    Run = 7
DOCKED: USER
DOCKED: USER    Estimated Free Energy of Binding    =  -7.52 kcal/mol  [=(1)+(2)+(3)-(4)]
DOCKED: USER
DOCKED: USER    (1) Final Intermolecular Energy     =  -9.90 kcal/mol
DOCKED: USER        vdW + Hbond + desolv Energy     =  -9.64 kcal/mol
DOCKED: USER        Electrostatic Energy            =  -0.26 kcal/mol
DOCKED: USER        Moving Ligand-Fixed Receptor    =  -9.90 kcal/mol
DOCKED: USER        Moving Ligand-Moving Receptor   =  +0.00 kcal/mol
DOCKED: USER    (2) Final Total Internal Energy     =  -3.18 kcal/mol
DOCKED: USER    (3) Torsional Free Energy           =  +2.39 kcal/mol
DOCKED: USER    (4) Unbound System's Energy         =  -3.18 kcal/mol
DOCKED: USER
DOCKED: USER
DOCKED: REMARK SMILES O=C(NCC(=O)N1C[C@H](O)C[C@H]1COc1ccc(Cl)cc1)c1ccc2ccccc2n1
DOCKED: REMARK SMILES IDX 7 1 8 2 9 3 11 4 12 5 5 6 6 7 4 8 3 9 2 10 1 11 22 13 23 14
DOCKED: REMARK SMILES IDX 31 15 24 16 30 17 25 18 29 19 26 20 28 21 27 22 13 23 14 24
DOCKED: REMARK SMILES IDX 15 25 16 26 21 27 17 28 20 29 18 30 19 31 10 32
DOCKED: REMARK H PARENT 3 12 10 33
DOCKED: USER                              x       y       z     vdW  Elec       q    Type
DOCKED: USER                           _______ _______ _______ _____ _____    ______ ____
DOCKED: ROOT
DOCKED: ATOM      1  N   UNL     1     143.005  73.205 220.366 -0.11 +0.06    -0.332 N  
DOCKED: ATOM      2  C   UNL     1     144.118  72.360 220.844 -0.26 -0.03    +0.151 C  
DOCKED: ATOM      3  C   UNL     1     144.980  72.361 219.597 -0.29 +0.02    +0.136 C  
DOCKED: ATOM      4  C   UNL     1     144.650  73.629 218.837 -0.22 -0.01    +0.062 C  
DOCKED: ATOM      5  C   UNL     1     143.665  74.331 219.735 -0.30 -0.04    +0.125 C  
DOCKED: ENDROOT
DOCKED: BRANCH   1   6
DOCKED: ATOM      6  C   UNL     1     141.612  72.942 220.508 -0.13 -0.04    +0.242 C  
DOCKED: ATOM      7  O   UNL     1     140.942  72.282 219.672 -0.04 +0.05    -0.273 OA 
DOCKED: BRANCH   6   8
DOCKED: ATOM      8  C   UNL     1     140.914  73.476 221.706 -0.17 -0.02    +0.216 C  
DOCKED: BRANCH   8   9
DOCKED: ATOM      9  N   UNL     1     141.109  74.881 221.886 -0.12 +0.04    -0.342 N  
DOCKED: ATOM     10  C   UNL     1     139.961  75.668 222.234 -0.13 -0.04    +0.270 C  
DOCKED: ATOM     11  O   UNL     1     138.826  75.132 222.374 -0.33 +0.07    -0.268 OA 
DOCKED: ATOM     12  H   UNL     1     142.022  75.375 221.782 -0.34 -0.07    +0.164 HD 
DOCKED: BRANCH  10  13
DOCKED: ATOM     13  C   UNL     1     140.106  77.104 222.428 -0.31 -0.03    +0.128 A  
DOCKED: ATOM     14  C   UNL     1     139.068  77.953 222.162 -0.26 -0.01    +0.035 A  
DOCKED: ATOM     15  N   UNL     1     141.259  77.649 222.874 -0.27 +0.10    -0.243 NA 
DOCKED: ATOM     16  C   UNL     1     139.160  79.326 222.332 -0.26 -0.00    +0.013 A  
DOCKED: ATOM     17  C   UNL     1     141.409  78.969 223.057 -0.50 -0.02    +0.071 A  
DOCKED: ATOM     18  C   UNL     1     140.372  79.841 222.794 -0.40 -0.00    +0.000 A  
DOCKED: ATOM     19  C   UNL     1     142.618  79.451 223.515 -0.50 -0.01    +0.029 A  
DOCKED: ATOM     20  C   UNL     1     140.559  81.193 222.994 -0.40 -0.00    +0.010 A  
DOCKED: ATOM     21  C   UNL     1     142.833  80.810 223.726 -0.67 -0.00    +0.002 A  
DOCKED: ATOM     22  C   UNL     1     141.768  81.674 223.453 -0.49 -0.00    +0.001 A  
DOCKED: ENDBRANCH  10  13
DOCKED: ENDBRANCH   8   9
DOCKED: ENDBRANCH   6   8
DOCKED: ENDBRANCH   1   6
DOCKED: BRANCH   5  23
DOCKED: ATOM     23  C   UNL     1     142.732  75.239 219.011 -0.16 -0.11    +0.254 C  
DOCKED: BRANCH  23  24
DOCKED: ATOM     24  O   UNL     1     142.180  76.251 219.790 -0.09 +0.25    -0.491 OA 
DOCKED: BRANCH  24  25
DOCKED: ATOM     25  C   UNL     1     142.226  77.553 219.283 -0.26 -0.08    +0.119 A  
DOCKED: ATOM     26  C   UNL     1     142.666  77.776 217.978 -0.29 -0.04    +0.048 A  
DOCKED: ATOM     27  C   UNL     1     141.849  78.654 220.024 -0.26 -0.03    +0.048 A  
DOCKED: ATOM     28  C   UNL     1     142.722  79.066 217.450 -0.21 -0.03    +0.024 A  
DOCKED: ATOM     29  C   UNL     1     141.888  79.944 219.536 -0.29 -0.01    +0.024 A  
DOCKED: ATOM     30  C   UNL     1     142.329  80.132 218.243 -0.32 -0.03    +0.041 A  
DOCKED: ATOM     31  Cl  UNL     1     142.370  81.787 217.647 -0.37 +0.06    -0.084 Cl 
DOCKED: ENDBRANCH  24  25
DOCKED: ENDBRANCH  23  24
DOCKED: ENDBRANCH   5  23
DOCKED: BRANCH   3  32
DOCKED: ATOM     32  O   UNL     1     146.350  72.345 219.928 -0.49 -0.27    -0.391 OA 
DOCKED: ATOM     33  H   UNL     1     146.411  71.883 220.800 -0.41 +0.00    +0.211 HD 
DOCKED: ENDBRANCH   3  32
DOCKED: TORSDOF 8
DOCKED: TER
DOCKED: ENDMDL
________________________________________________________________________________


    FINAL DOCKED STATE:
    ________________________


Run:   8 / 20
Time taken for this run:   0.043s

DOCKED: MODEL        8
DOCKED: USER    Run = 8
DOCKED: USER
DOCKED: USER    Estimated Free Energy of Binding    =  -7.42 kcal/mol  [=(1)+(2)+(3)-(4)]
DOCKED: USER
DOCKED: USER    (1) Final Intermolecular Energy     =  -9.80 kcal/mol
DOCKED: USER        vdW + Hbond + desolv Energy     =  -9.62 kcal/mol
DOCKED: USER        Electrostatic Energy            =  -0.19 kcal/mol
DOCKED: USER        Moving Ligand-Fixed Receptor    =  -9.80 kcal/mol
DOCKED: USER        Moving Ligand-Moving Receptor   =  +0.00 kcal/mol
DOCKED: USER    (2) Final Total Internal Energy     =  -3.21 kcal/mol
DOCKED: USER    (3) Torsional Free Energy           =  +2.39 kcal/mol
DOCKED: USER    (4) Unbound System's Energy         =  -3.21 kcal/mol
DOCKED: USER
DOCKED: USER
DOCKED: REMARK SMILES O=C(NCC(=O)N1C[C@H](O)C[C@H]1COc1ccc(Cl)cc1)c1ccc2ccccc2n1
DOCKED: REMARK SMILES IDX 7 1 8 2 9 3 11 4 12 5 5 6 6 7 4 8 3 9 2 10 1 11 22 13 23 14
DOCKED: REMARK SMILES IDX 31 15 24 16 30 17 25 18 29 19 26 20 28 21 27 22 13 23 14 24
DOCKED: REMARK SMILES IDX 15 25 16 26 21 27 17 28 20 29 18 30 19 31 10 32
DOCKED: REMARK H PARENT 3 12 10 33
DOCKED: USER                              x       y       z     vdW  Elec       q    Type
DOCKED: USER                           _______ _______ _______ _____ _____    ______ ____
DOCKED: ROOT
DOCKED: ATOM      1  N   UNL     1     142.889  73.326 220.424 -0.12 +0.07    -0.332 N  
DOCKED: ATOM      2  C   UNL     1     143.994  72.449 220.862 -0.24 -0.03    +0.151 C  
DOCKED: ATOM      3  C   UNL     1     144.911  72.591 219.663 -0.31 +0.01    +0.136 C  
DOCKED: ATOM      4  C   UNL     1     144.594  73.928 219.025 -0.16 -0.02    +0.062 C  
DOCKED: ATOM      5  C   UNL     1     143.559  74.520 219.946 -0.32 -0.05    +0.125 C  
DOCKED: ENDROOT
DOCKED: BRANCH   1   6
DOCKED: ATOM      6  C   UNL     1     141.496  73.033 220.473 -0.13 -0.04    +0.242 C  
DOCKED: ATOM      7  O   UNL     1     140.896  72.367 219.591 -0.03 +0.05    -0.273 OA 
DOCKED: BRANCH   6   8
DOCKED: ATOM      8  C   UNL     1     140.711  73.543 221.627 -0.21 -0.02    +0.216 C  
DOCKED: BRANCH   8   9
DOCKED: ATOM      9  N   UNL     1     140.970  74.918 221.916 -0.14 +0.04    -0.342 N  
DOCKED: ATOM     10  C   UNL     1     139.854  75.737 222.292 -0.15 -0.04    +0.270 C  
DOCKED: ATOM     11  O   UNL     1     138.690  75.252 222.363 -0.30 +0.07    -0.268 OA 
DOCKED: ATOM     12  H   UNL     1     141.909  75.371 221.872 -0.29 -0.06    +0.164 HD 
DOCKED: BRANCH  10  13
DOCKED: ATOM     13  C   UNL     1     140.065  77.145 222.595 -0.27 -0.03    +0.128 A  
DOCKED: ATOM     14  C   UNL     1     139.012  78.016 222.635 -0.29 -0.01    +0.035 A  
DOCKED: ATOM     15  N   UNL     1     141.296  77.642 222.848 -0.26 +0.10    -0.243 NA 
DOCKED: ATOM     16  C   UNL     1     139.165  79.364 222.920 -0.33 -0.00    +0.013 A  
DOCKED: ATOM     17  C   UNL     1     141.507  78.936 223.129 -0.51 -0.02    +0.071 A  
DOCKED: ATOM     18  C   UNL     1     140.456  79.830 223.173 -0.45 -0.00    +0.000 A  
DOCKED: ATOM     19  C   UNL     1     142.793  79.369 223.376 -0.40 -0.01    +0.029 A  
DOCKED: ATOM     20  C   UNL     1     140.708  81.154 223.466 -0.42 -0.00    +0.010 A  
DOCKED: ATOM     21  C   UNL     1     143.074  80.699 223.673 -0.64 -0.00    +0.002 A  
DOCKED: ATOM     22  C   UNL     1     141.994  81.586 223.713 -0.55 -0.00    +0.001 A  
DOCKED: ENDBRANCH  10  13
DOCKED: ENDBRANCH   8   9
DOCKED: ENDBRANCH   6   8
DOCKED: ENDBRANCH   1   6
DOCKED: BRANCH   5  23
DOCKED: ATOM     23  C   UNL     1     142.644  75.488 219.278 -0.18 -0.11    +0.254 C  
DOCKED: BRANCH  23  24
DOCKED: ATOM     24  O   UNL     1     142.225  76.544 220.080 -0.11 +0.29    -0.491 OA 
DOCKED: BRANCH  24  25
DOCKED: ATOM     25  C   UNL     1     142.223  77.823 219.516 -0.24 -0.08    +0.119 A  
DOCKED: ATOM     26  C   UNL     1     141.472  78.841 220.103 -0.26 -0.02    +0.048 A  
DOCKED: ATOM     27  C   UNL     1     142.943  78.137 218.381 -0.25 -0.04    +0.048 A  
DOCKED: ATOM     28  C   UNL     1     141.453  80.125 219.558 -0.26 -0.01    +0.024 A  
DOCKED: ATOM     29  C   UNL     1     142.951  79.394 217.814 -0.24 -0.03    +0.024 A  
DOCKED: ATOM     30  C   UNL     1     142.198  80.380 218.417 -0.31 -0.03    +0.041 A  
DOCKED: ATOM     31  Cl  UNL     1     142.224  81.973 217.672 -0.35 +0.05    -0.084 Cl 
DOCKED: ENDBRANCH  24  25
DOCKED: ENDBRANCH  23  24
DOCKED: ENDBRANCH   5  23
DOCKED: BRANCH   3  32
DOCKED: ATOM     32  O   UNL     1     146.265  72.557 220.054 -0.49 -0.20    -0.391 OA 
DOCKED: ATOM     33  H   UNL     1     146.313  71.912 220.802 -0.41 -0.01    +0.211 HD 
DOCKED: ENDBRANCH   3  32
DOCKED: TORSDOF 8
DOCKED: TER
DOCKED: ENDMDL
________________________________________________________________________________


    FINAL DOCKED STATE:
    ________________________


Run:   9 / 20
Time taken for this run:   0.043s

DOCKED: MODEL        9
DOCKED: USER    Run = 9
DOCKED: USER
DOCKED: USER    Estimated Free Energy of Binding    =  -7.97 kcal/mol  [=(1)+(2)+(3)-(4)]
DOCKED: USER
DOCKED: USER    (1) Final Intermolecular Energy     = -10.36 kcal/mol
DOCKED: USER        vdW + Hbond + desolv Energy     = -10.30 kcal/mol
DOCKED: USER        Electrostatic Energy            =  -0.06 kcal/mol
DOCKED: USER        Moving Ligand-Fixed Receptor    = -10.36 kcal/mol
DOCKED: USER        Moving Ligand-Moving Receptor   =  +0.00 kcal/mol
DOCKED: USER    (2) Final Total Internal Energy     =  -1.75 kcal/mol
DOCKED: USER    (3) Torsional Free Energy           =  +2.39 kcal/mol
DOCKED: USER    (4) Unbound System's Energy         =  -1.75 kcal/mol
DOCKED: USER
DOCKED: USER
DOCKED: REMARK SMILES O=C(NCC(=O)N1C[C@H](O)C[C@H]1COc1ccc(Cl)cc1)c1ccc2ccccc2n1
DOCKED: REMARK SMILES IDX 7 1 8 2 9 3 11 4 12 5 5 6 6 7 4 8 3 9 2 10 1 11 22 13 23 14
DOCKED: REMARK SMILES IDX 31 15 24 16 30 17 25 18 29 19 26 20 28 21 27 22 13 23 14 24
DOCKED: REMARK SMILES IDX 15 25 16 26 21 27 17 28 20 29 18 30 19 31 10 32
DOCKED: REMARK H PARENT 3 12 10 33
DOCKED: USER                              x       y       z     vdW  Elec       q    Type
DOCKED: USER                           _______ _______ _______ _____ _____    ______ ____
DOCKED: ROOT
DOCKED: ATOM      1  N   UNL     1     140.681  73.374 220.620 -0.07 +0.06    -0.332 N  
DOCKED: ATOM      2  C   UNL     1     141.834  72.453 220.639 -0.17 -0.02    +0.151 C  
DOCKED: ATOM      3  C   UNL     1     142.937  73.432 220.291 -0.23 -0.03    +0.136 C  
DOCKED: ATOM      4  C   UNL     1     142.462  74.802 220.731 -0.23 -0.02    +0.062 C  
DOCKED: ATOM      5  C   UNL     1     141.135  74.519 221.385 -0.24 -0.02    +0.125 C  
DOCKED: ENDROOT
DOCKED: BRANCH   1   6
DOCKED: ATOM      6  C   UNL     1     139.424  73.156 219.986 -0.04 -0.05    +0.242 C  
DOCKED: ATOM      7  O   UNL     1     139.262  73.190 218.738 -0.01 +0.05    -0.273 OA 
DOCKED: BRANCH   6   8
DOCKED: ATOM      8  C   UNL     1     138.243  72.873 220.842 -0.06 -0.04    +0.216 C  
DOCKED: BRANCH   8   9
DOCKED: ATOM      9  N   UNL     1     138.598  72.455 222.162 -0.09 +0.09    -0.342 N  
DOCKED: ATOM     10  C   UNL     1     139.027  71.097 222.333 -0.13 -0.05    +0.270 C  
DOCKED: ATOM     11  O   UNL     1     139.085  70.307 221.349 -0.07 +0.05    -0.268 OA 
DOCKED: ATOM     12  H   UNL     1     138.568  73.064 223.009 -0.46 -0.09    +0.164 HD 
DOCKED: BRANCH  10  13
DOCKED: ATOM     13  C   UNL     1     139.398  70.622 223.658 -0.27 -0.02    +0.128 A  
DOCKED: ATOM     14  C   UNL     1     139.159  69.328 224.029 -0.30 -0.01    +0.035 A  
DOCKED: ATOM     15  N   UNL     1     139.989  71.431 224.565 -0.29 +0.05    -0.243 NA 
DOCKED: ATOM     16  C   UNL     1     139.496  68.831 225.279 -0.43 -0.00    +0.013 A  
DOCKED: ATOM     17  C   UNL     1     140.338  71.010 225.789 -0.52 -0.01    +0.071 A  
DOCKED: ATOM     18  C   UNL     1     140.104  69.707 226.180 -0.51 -0.00    +0.000 A  
DOCKED: ATOM     19  C   UNL     1     140.938  71.895 226.660 -0.70 -0.00    +0.029 A  
DOCKED: ATOM     20  C   UNL     1     140.475  69.305 227.446 -0.61 -0.00    +0.010 A  
DOCKED: ATOM     21  C   UNL     1     141.322  71.515 227.942 -0.72 -0.00    +0.002 A  
DOCKED: ATOM     22  C   UNL     1     141.075  70.191 228.317 -0.57 -0.00    +0.001 A  
DOCKED: ENDBRANCH  10  13
DOCKED: ENDBRANCH   8   9
DOCKED: ENDBRANCH   6   8
DOCKED: ENDBRANCH   1   6
DOCKED: BRANCH   5  23
DOCKED: ATOM     23  C   UNL     1     140.190  75.670 221.350 -0.21 -0.06    +0.254 C  
DOCKED: BRANCH  23  24
DOCKED: ATOM     24  O   UNL     1     140.680  76.809 220.718 -0.04 +0.18    -0.491 OA 
DOCKED: BRANCH  24  25
DOCKED: ATOM     25  C   UNL     1     141.119  77.859 221.529 -0.29 -0.05    +0.119 A  
DOCKED: ATOM     26  C   UNL     1     141.635  79.017 220.948 -0.32 -0.03    +0.048 A  
DOCKED: ATOM     27  C   UNL     1     141.068  77.807 222.907 -0.43 -0.02    +0.048 A  
DOCKED: ATOM     28  C   UNL     1     142.081  80.079 221.736 -0.45 -0.01    +0.024 A  
DOCKED: ATOM     29  C   UNL     1     141.497  78.835 223.720 -0.58 -0.01    +0.024 A  
DOCKED: ATOM     30  C   UNL     1     142.003  79.968 223.115 -0.57 -0.01    +0.041 A  
DOCKED: ATOM     31  Cl  UNL     1     142.544  81.264 224.174 -0.65 +0.01    -0.084 Cl 
DOCKED: ENDBRANCH  24  25
DOCKED: ENDBRANCH  23  24
DOCKED: ENDBRANCH   5  23
DOCKED: BRANCH   3  32
DOCKED: ATOM     32  O   UNL     1     144.136  73.105 220.957 -0.18 +0.08    -0.391 OA 
DOCKED: ATOM     33  H   UNL     1     144.529  73.967 221.241 +0.13 -0.07    +0.211 HD 
DOCKED: ENDBRANCH   3  32
DOCKED: TORSDOF 8
DOCKED: TER
DOCKED: ENDMDL
________________________________________________________________________________


    FINAL DOCKED STATE:
    ________________________


Run:   10 / 20
Time taken for this run:   0.043s

DOCKED: MODEL        10
DOCKED: USER    Run = 10
DOCKED: USER
DOCKED: USER    Estimated Free Energy of Binding    =  -5.60 kcal/mol  [=(1)+(2)+(3)-(4)]
DOCKED: USER
DOCKED: USER    (1) Final Intermolecular Energy     =  -7.98 kcal/mol
DOCKED: USER        vdW + Hbond + desolv Energy     =  -8.05 kcal/mol
DOCKED: USER        Electrostatic Energy            =  +0.07 kcal/mol
DOCKED: USER        Moving Ligand-Fixed Receptor    =  -7.98 kcal/mol
DOCKED: USER        Moving Ligand-Moving Receptor   =  +0.00 kcal/mol
DOCKED: USER    (2) Final Total Internal Energy     =  -4.03 kcal/mol
DOCKED: USER    (3) Torsional Free Energy           =  +2.39 kcal/mol
DOCKED: USER    (4) Unbound System's Energy         =  -4.03 kcal/mol
DOCKED: USER
DOCKED: USER
DOCKED: REMARK SMILES O=C(NCC(=O)N1C[C@H](O)C[C@H]1COc1ccc(Cl)cc1)c1ccc2ccccc2n1
DOCKED: REMARK SMILES IDX 7 1 8 2 9 3 11 4 12 5 5 6 6 7 4 8 3 9 2 10 1 11 22 13 23 14
DOCKED: REMARK SMILES IDX 31 15 24 16 30 17 25 18 29 19 26 20 28 21 27 22 13 23 14 24
DOCKED: REMARK SMILES IDX 15 25 16 26 21 27 17 28 20 29 18 30 19 31 10 32
DOCKED: REMARK H PARENT 3 12 10 33
DOCKED: USER                              x       y       z     vdW  Elec       q    Type
DOCKED: USER                           _______ _______ _______ _____ _____    ______ ____
DOCKED: ROOT
DOCKED: ATOM      1  N   UNL     1     140.404  79.488 222.176 -0.11 +0.09    -0.332 N  
DOCKED: ATOM      2  C   UNL     1     140.373  80.337 223.384 -0.37 -0.02    +0.151 C  
DOCKED: ATOM      3  C   UNL     1     141.859  80.407 223.674 -0.51 -0.03    +0.136 C  
DOCKED: ATOM      4  C   UNL     1     142.573  80.186 222.356 -0.53 -0.02    +0.062 C  
DOCKED: ATOM      5  C   UNL     1     141.448  80.079 221.360 -0.32 -0.05    +0.125 C  
DOCKED: ENDROOT
DOCKED: BRANCH   1   6
DOCKED: ATOM      6  C   UNL     1     139.583  78.356 221.906 -0.17 -0.06    +0.242 C  
DOCKED: ATOM      7  O   UNL     1     138.657  78.359 221.054 -0.05 +0.06    -0.273 OA 
DOCKED: BRANCH   6   8
DOCKED: ATOM      8  C   UNL     1     139.833  77.108 222.671 -0.13 -0.04    +0.216 C  
DOCKED: BRANCH   8   9
DOCKED: ATOM      9  N   UNL     1     140.889  76.317 222.121 -0.21 +0.11    -0.342 N  
DOCKED: ATOM     10  C   UNL     1     140.589  74.956 221.782 -0.13 -0.04    +0.270 C  
DOCKED: ATOM     11  O   UNL     1     139.432  74.482 221.969 -0.58 +0.05    -0.268 OA 
DOCKED: ATOM     12  H   UNL     1     141.860  76.656 221.947 -0.51 -0.12    +0.164 HD 
DOCKED: BRANCH  10  13
DOCKED: ATOM     13  C   UNL     1     141.630  74.108 221.219 -0.21 -0.02    +0.128 A  
DOCKED: ATOM     14  C   UNL     1     141.328  72.879 220.705 -0.20 -0.01    +0.035 A  
DOCKED: ATOM     15  N   UNL     1     142.923  74.500 221.181 +0.08 +0.08    -0.243 NA 
DOCKED: ATOM     16  C   UNL     1     142.285  72.038 220.157 -0.19 -0.00    +0.013 A  
DOCKED: ATOM     17  C   UNL     1     143.894  73.732 220.666 -0.35 -0.02    +0.071 A  
DOCKED: ATOM     18  C   UNL     1     143.607  72.487 220.143 -0.30 -0.00    +0.000 A  
DOCKED: ATOM     19  C   UNL     1     145.191  74.200 220.663 -0.53 -0.01    +0.029 A  
DOCKED: ATOM     20  C   UNL     1     144.629  71.723 219.620 -0.30 +0.00    +0.010 A  
DOCKED: ATOM     21  C   UNL     1     146.241  73.449 220.141 -0.57 +0.00    +0.002 A  
DOCKED: ATOM     22  C   UNL     1     145.926  72.192 219.616 -0.35 +0.00    +0.001 A  
DOCKED: ENDBRANCH  10  13
DOCKED: ENDBRANCH   8   9
DOCKED: ENDBRANCH   6   8
DOCKED: ENDBRANCH   1   6
DOCKED: BRANCH   5  23
DOCKED: ATOM     23  C   UNL     1     141.788  79.273 220.154 -0.17 -0.14    +0.254 C  
DOCKED: BRANCH  23  24
DOCKED: ATOM     24  O   UNL     1     142.201  77.972 220.418 -0.11 +0.36    -0.491 OA 
DOCKED: BRANCH  24  25
DOCKED: ATOM     25  C   UNL     1     142.192  77.063 219.356 -0.25 -0.07    +0.119 A  
DOCKED: ATOM     26  C   UNL     1     143.397  76.604 218.824 -0.31 -0.03    +0.048 A  
DOCKED: ATOM     27  C   UNL     1     141.026  76.586 218.793 -0.10 -0.02    +0.048 A  
DOCKED: ATOM     28  C   UNL     1     143.415  75.698 217.763 -0.22 -0.01    +0.024 A  
DOCKED: ATOM     29  C   UNL     1     141.003  75.690 217.746 -0.05 -0.01    +0.024 A  
DOCKED: ATOM     30  C   UNL     1     142.211  75.255 217.241 -0.08 -0.02    +0.041 A  
DOCKED: ATOM     31  Cl  UNL     1     142.152  74.113 215.904 -0.03 +0.02    -0.084 Cl 
DOCKED: ENDBRANCH  24  25
DOCKED: ENDBRANCH  23  24
DOCKED: ENDBRANCH   5  23
DOCKED: BRANCH   3  32
DOCKED: ATOM     32  O   UNL     1     142.214  81.664 224.204 -0.34 +0.03    -0.391 OA 
DOCKED: ATOM     33  H   UNL     1     141.842  82.334 223.579 +0.14 -0.01    +0.211 HD 
DOCKED: ENDBRANCH   3  32
DOCKED: TORSDOF 8
DOCKED: TER
DOCKED: ENDMDL
________________________________________________________________________________


    FINAL DOCKED STATE:
    ________________________


Run:   11 / 20
Time taken for this run:   0.043s

DOCKED: MODEL        11
DOCKED: USER    Run = 11
DOCKED: USER
DOCKED: USER    Estimated Free Energy of Binding    =  -6.82 kcal/mol  [=(1)+(2)+(3)-(4)]
DOCKED: USER
DOCKED: USER    (1) Final Intermolecular Energy     =  -9.21 kcal/mol
DOCKED: USER        vdW + Hbond + desolv Energy     =  -8.88 kcal/mol
DOCKED: USER        Electrostatic Energy            =  -0.33 kcal/mol
DOCKED: USER        Moving Ligand-Fixed Receptor    =  -9.21 kcal/mol
DOCKED: USER        Moving Ligand-Moving Receptor   =  +0.00 kcal/mol
DOCKED: USER    (2) Final Total Internal Energy     =  -3.45 kcal/mol
DOCKED: USER    (3) Torsional Free Energy           =  +2.39 kcal/mol
DOCKED: USER    (4) Unbound System's Energy         =  -3.45 kcal/mol
DOCKED: USER
DOCKED: USER
DOCKED: REMARK SMILES O=C(NCC(=O)N1C[C@H](O)C[C@H]1COc1ccc(Cl)cc1)c1ccc2ccccc2n1
DOCKED: REMARK SMILES IDX 7 1 8 2 9 3 11 4 12 5 5 6 6 7 4 8 3 9 2 10 1 11 22 13 23 14
DOCKED: REMARK SMILES IDX 31 15 24 16 30 17 25 18 29 19 26 20 28 21 27 22 13 23 14 24
DOCKED: REMARK SMILES IDX 15 25 16 26 21 27 17 28 20 29 18 30 19 31 10 32
DOCKED: REMARK H PARENT 3 12 10 33
DOCKED: USER                              x       y       z     vdW  Elec       q    Type
DOCKED: USER                           _______ _______ _______ _____ _____    ______ ____
DOCKED: ROOT
DOCKED: ATOM      1  N   UNL     1     143.294  72.942 220.258 -0.11 +0.06    -0.332 N  
DOCKED: ATOM      2  C   UNL     1     143.997  71.645 220.331 -0.21 -0.02    +0.151 C  
DOCKED: ATOM      3  C   UNL     1     145.100  71.907 219.325 -0.25 +0.04    +0.136 C  
DOCKED: ATOM      4  C   UNL     1     145.308  73.407 219.283 -0.33 +0.00    +0.062 C  
DOCKED: ATOM      5  C   UNL     1     144.360  73.923 220.333 -0.39 -0.03    +0.125 C  
DOCKED: ENDROOT
DOCKED: BRANCH   1   6
DOCKED: ATOM      6  C   UNL     1     141.889  73.146 220.141 -0.11 -0.04    +0.242 C  
DOCKED: ATOM      7  O   UNL     1     141.262  73.046 219.054 -0.02 +0.05    -0.273 OA 
DOCKED: BRANCH   6   8
DOCKED: ATOM      8  C   UNL     1     141.124  73.494 221.366 -0.19 -0.02    +0.216 C  
DOCKED: BRANCH   8   9
DOCKED: ATOM      9  N   UNL     1     141.285  74.860 221.756 -0.11 +0.06    -0.342 N  
DOCKED: ATOM     10  C   UNL     1     140.096  75.619 222.011 -0.20 -0.05    +0.270 C  
DOCKED: ATOM     11  O   UNL     1     138.953  75.093 221.893 -0.27 +0.06    -0.268 OA 
DOCKED: ATOM     12  H   UNL     1     142.202  75.344 221.868 -0.47 -0.08    +0.164 HD 
DOCKED: BRANCH  10  13
DOCKED: ATOM     13  C   UNL     1     140.205  77.015 222.410 -0.32 -0.03    +0.128 A  
DOCKED: ATOM     14  C   UNL     1     139.087  77.763 222.651 -0.29 -0.01    +0.035 A  
DOCKED: ATOM     15  N   UNL     1     141.404  77.621 222.557 -0.22 +0.12    -0.243 NA 
DOCKED: ATOM     16  C   UNL     1     139.143  79.094 223.033 -0.34 -0.00    +0.013 A  
DOCKED: ATOM     17  C   UNL     1     141.523  78.905 222.924 -0.49 -0.03    +0.071 A  
DOCKED: ATOM     18  C   UNL     1     140.405  79.675 223.171 -0.45 -0.00    +0.000 A  
DOCKED: ATOM     19  C   UNL     1     142.781  79.454 223.054 -0.56 -0.01    +0.029 A  
DOCKED: ATOM     20  C   UNL     1     140.561  80.993 223.547 -0.41 -0.00    +0.010 A  
DOCKED: ATOM     21  C   UNL     1     142.968  80.780 223.432 -0.62 -0.00    +0.002 A  
DOCKED: ATOM     22  C   UNL     1     141.820  81.541 223.677 -0.54 -0.00    +0.001 A  
DOCKED: ENDBRANCH  10  13
DOCKED: ENDBRANCH   8   9
DOCKED: ENDBRANCH   6   8
DOCKED: ENDBRANCH   1   6
DOCKED: BRANCH   5  23
DOCKED: ATOM     23  C   UNL     1     143.900  75.319 220.095 -0.20 -0.15    +0.254 C  
DOCKED: BRANCH  23  24
DOCKED: ATOM     24  O   UNL     1     143.040  75.475 219.012 -0.09 +0.23    -0.491 OA 
DOCKED: BRANCH  24  25
DOCKED: ATOM     25  C   UNL     1     142.122  76.527 219.063 -0.21 -0.06    +0.119 A  
DOCKED: ATOM     26  C   UNL     1     142.562  77.821 219.341 -0.21 -0.04    +0.048 A  
DOCKED: ATOM     27  C   UNL     1     140.771  76.348 218.847 -0.09 -0.02    +0.048 A  
DOCKED: ATOM     28  C   UNL     1     141.665  78.888 219.398 -0.26 -0.01    +0.024 A  
DOCKED: ATOM     29  C   UNL     1     139.854  77.376 218.893 -0.06 -0.01    +0.024 A  
DOCKED: ATOM     30  C   UNL     1     140.320  78.645 219.171 -0.10 -0.02    +0.041 A  
DOCKED: ATOM     31  Cl  UNL     1     139.129  79.938 219.225 -0.06 +0.02    -0.084 Cl 
DOCKED: ENDBRANCH  24  25
DOCKED: ENDBRANCH  23  24
DOCKED: ENDBRANCH   5  23
DOCKED: BRANCH   3  32
DOCKED: ATOM     32  O   UNL     1     146.298  71.269 219.707 -0.31 -0.33    -0.391 OA 
DOCKED: ATOM     33  H   UNL     1     146.370  71.399 220.685 -0.39 -0.01    +0.211 HD 
DOCKED: ENDBRANCH   3  32
DOCKED: TORSDOF 8
DOCKED: TER
DOCKED: ENDMDL
________________________________________________________________________________


    FINAL DOCKED STATE:
    ________________________


Run:   12 / 20
Time taken for this run:   0.043s

DOCKED: MODEL        12
DOCKED: USER    Run = 12
DOCKED: USER
DOCKED: USER    Estimated Free Energy of Binding    =  -7.76 kcal/mol  [=(1)+(2)+(3)-(4)]
DOCKED: USER
DOCKED: USER    (1) Final Intermolecular Energy     = -10.14 kcal/mol
DOCKED: USER        vdW + Hbond + desolv Energy     =  -9.78 kcal/mol
DOCKED: USER        Electrostatic Energy            =  -0.37 kcal/mol
DOCKED: USER        Moving Ligand-Fixed Receptor    = -10.14 kcal/mol
DOCKED: USER        Moving Ligand-Moving Receptor   =  +0.00 kcal/mol
DOCKED: USER    (2) Final Total Internal Energy     =  -3.15 kcal/mol
DOCKED: USER    (3) Torsional Free Energy           =  +2.39 kcal/mol
DOCKED: USER    (4) Unbound System's Energy         =  -3.15 kcal/mol
DOCKED: USER
DOCKED: USER
DOCKED: REMARK SMILES O=C(NCC(=O)N1C[C@H](O)C[C@H]1COc1ccc(Cl)cc1)c1ccc2ccccc2n1
DOCKED: REMARK SMILES IDX 7 1 8 2 9 3 11 4 12 5 5 6 6 7 4 8 3 9 2 10 1 11 22 13 23 14
DOCKED: REMARK SMILES IDX 31 15 24 16 30 17 25 18 29 19 26 20 28 21 27 22 13 23 14 24
DOCKED: REMARK SMILES IDX 15 25 16 26 21 27 17 28 20 29 18 30 19 31 10 32
DOCKED: REMARK H PARENT 3 12 10 33
DOCKED: USER                              x       y       z     vdW  Elec       q    Type
DOCKED: USER                           _______ _______ _______ _____ _____    ______ ____
DOCKED: ROOT
DOCKED: ATOM      1  N   UNL     1     143.018  73.541 219.934 -0.10 +0.07    -0.332 N  
DOCKED: ATOM      2  C   UNL     1     144.242  72.743 220.145 -0.29 -0.02    +0.151 C  
DOCKED: ATOM      3  C   UNL     1     144.915  72.966 218.805 -0.22 +0.01    +0.136 C  
DOCKED: ATOM      4  C   UNL     1     144.394  74.283 218.267 +0.01 -0.02    +0.062 C  
DOCKED: ATOM      5  C   UNL     1     143.504  74.787 219.373 -0.28 -0.05    +0.125 C  
DOCKED: ENDROOT
DOCKED: BRANCH   1   6
DOCKED: ATOM      6  C   UNL     1     141.681  73.146 220.227 -0.11 -0.04    +0.242 C  
DOCKED: ATOM      7  O   UNL     1     140.980  72.446 219.451 -0.03 +0.05    -0.273 OA 
DOCKED: BRANCH   6   8
DOCKED: ATOM      8  C   UNL     1     141.083  73.585 221.514 -0.19 -0.02    +0.216 C  
DOCKED: BRANCH   8   9
DOCKED: ATOM      9  N   UNL     1     141.252  74.983 221.760 -0.13 +0.06    -0.342 N  
DOCKED: ATOM     10  C   UNL     1     140.106  75.718 222.212 -0.12 -0.04    +0.270 C  
DOCKED: ATOM     11  O   UNL     1     138.993  75.144 222.383 -0.41 +0.06    -0.268 OA 
DOCKED: ATOM     12  H   UNL     1     142.145  75.507 221.636 -0.43 -0.09    +0.164 HD 
DOCKED: BRANCH  10  13
DOCKED: ATOM     13  C   UNL     1     140.225  77.145 222.477 -0.31 -0.03    +0.128 A  
DOCKED: ATOM     14  C   UNL     1     139.141  77.969 222.364 -0.28 -0.01    +0.035 A  
DOCKED: ATOM     15  N   UNL     1     141.400  77.705 222.842 -0.26 +0.11    -0.243 NA 
DOCKED: ATOM     16  C   UNL     1     139.207  79.333 222.607 -0.29 -0.00    +0.013 A  
DOCKED: ATOM     17  C   UNL     1     141.527  79.017 223.090 -0.51 -0.02    +0.071 A  
DOCKED: ATOM     18  C   UNL     1     140.443  79.864 222.980 -0.43 -0.00    +0.000 A  
DOCKED: ATOM     19  C   UNL     1     142.759  79.515 223.458 -0.46 -0.01    +0.029 A  
DOCKED: ATOM     20  C   UNL     1     140.607  81.208 223.242 -0.40 -0.00    +0.010 A  
DOCKED: ATOM     21  C   UNL     1     142.952  80.867 223.728 -0.66 -0.00    +0.002 A  
DOCKED: ATOM     22  C   UNL     1     141.840  81.706 223.611 -0.46 -0.00    +0.001 A  
DOCKED: ENDBRANCH  10  13
DOCKED: ENDBRANCH   8   9
DOCKED: ENDBRANCH   6   8
DOCKED: ENDBRANCH   1   6
DOCKED: BRANCH   5  23
DOCKED: ATOM     23  C   UNL     1     142.417  75.692 218.904 -0.15 -0.11    +0.254 C  
DOCKED: BRANCH  23  24
DOCKED: ATOM     24  O   UNL     1     142.092  76.718 219.785 -0.09 +0.27    -0.491 OA 
DOCKED: BRANCH  24  25
DOCKED: ATOM     25  C   UNL     1     142.133  78.026 219.295 -0.24 -0.08    +0.119 A  
DOCKED: ATOM     26  C   UNL     1     142.530  78.264 217.980 -0.30 -0.04    +0.048 A  
DOCKED: ATOM     27  C   UNL     1     141.794  79.121 220.064 -0.27 -0.03    +0.048 A  
DOCKED: ATOM     28  C   UNL     1     142.581  79.561 217.467 -0.25 -0.03    +0.024 A  
DOCKED: ATOM     29  C   UNL     1     141.830  80.417 219.594 -0.30 -0.01    +0.024 A  
DOCKED: ATOM     30  C   UNL     1     142.228  80.619 218.289 -0.31 -0.03    +0.041 A  
DOCKED: ATOM     31  Cl  UNL     1     142.266  82.282 217.715 -0.34 +0.05    -0.084 Cl 
DOCKED: ENDBRANCH  24  25
DOCKED: ENDBRANCH  23  24
DOCKED: ENDBRANCH   5  23
DOCKED: BRANCH   3  32
DOCKED: ATOM     32  O   UNL     1     146.316  73.027 218.945 -0.70 -0.41    -0.391 OA 
DOCKED: ATOM     33  H   UNL     1     146.550  73.986 218.886 -0.46 +0.03    +0.211 HD 
DOCKED: ENDBRANCH   3  32
DOCKED: TORSDOF 8
DOCKED: TER
DOCKED: ENDMDL
________________________________________________________________________________


    FINAL DOCKED STATE:
    ________________________


Run:   13 / 20
Time taken for this run:   0.043s

DOCKED: MODEL        13
DOCKED: USER    Run = 13
DOCKED: USER
DOCKED: USER    Estimated Free Energy of Binding    =  -5.92 kcal/mol  [=(1)+(2)+(3)-(4)]
DOCKED: USER
DOCKED: USER    (1) Final Intermolecular Energy     =  -8.30 kcal/mol
DOCKED: USER        vdW + Hbond + desolv Energy     =  -8.15 kcal/mol
DOCKED: USER        Electrostatic Energy            =  -0.15 kcal/mol
DOCKED: USER        Moving Ligand-Fixed Receptor    =  -8.30 kcal/mol
DOCKED: USER        Moving Ligand-Moving Receptor   =  +0.00 kcal/mol
DOCKED: USER    (2) Final Total Internal Energy     =  -3.88 kcal/mol
DOCKED: USER    (3) Torsional Free Energy           =  +2.39 kcal/mol
DOCKED: USER    (4) Unbound System's Energy         =  -3.88 kcal/mol
DOCKED: USER
DOCKED: USER
DOCKED: REMARK SMILES O=C(NCC(=O)N1C[C@H](O)C[C@H]1COc1ccc(Cl)cc1)c1ccc2ccccc2n1
DOCKED: REMARK SMILES IDX 7 1 8 2 9 3 11 4 12 5 5 6 6 7 4 8 3 9 2 10 1 11 22 13 23 14
DOCKED: REMARK SMILES IDX 31 15 24 16 30 17 25 18 29 19 26 20 28 21 27 22 13 23 14 24
DOCKED: REMARK SMILES IDX 15 25 16 26 21 27 17 28 20 29 18 30 19 31 10 32
DOCKED: REMARK H PARENT 3 12 10 33
DOCKED: USER                              x       y       z     vdW  Elec       q    Type
DOCKED: USER                           _______ _______ _______ _____ _____    ______ ____
DOCKED: ROOT
DOCKED: ATOM      1  N   UNL     1     143.250  73.514 218.788 -0.03 +0.07    -0.332 N  
DOCKED: ATOM      2  C   UNL     1     144.560  72.942 218.417 -0.15 +0.00    +0.151 C  
DOCKED: ATOM      3  C   UNL     1     145.362  73.355 219.635 -0.37 +0.00    +0.136 C  
DOCKED: ATOM      4  C   UNL     1     144.378  73.511 220.776 -0.41 -0.01    +0.062 C  
DOCKED: ATOM      5  C   UNL     1     143.064  73.100 220.165 -0.22 -0.02    +0.125 C  
DOCKED: ENDROOT
DOCKED: BRANCH   1   6
DOCKED: ATOM      6  C   UNL     1     142.392  74.291 217.958 -0.04 -0.07    +0.242 C  
DOCKED: ATOM      7  O   UNL     1     141.292  73.872 217.513 -0.00 +0.07    -0.273 OA 
DOCKED: BRANCH   6   8
DOCKED: ATOM      8  C   UNL     1     142.819  75.668 217.598 -0.12 -0.10    +0.216 C  
DOCKED: BRANCH   8   9
DOCKED: ATOM      9  N   UNL     1     142.670  76.598 218.672 -0.14 +0.20    -0.342 N  
DOCKED: ATOM     10  C   UNL     1     142.148  77.896 218.356 -0.18 -0.17    +0.270 C  
DOCKED: ATOM     11  O   UNL     1     141.837  78.198 217.169 -0.11 +0.18    -0.268 OA 
DOCKED: ATOM     12  H   UNL     1     142.911  76.403 219.669 +0.04 -0.10    +0.164 HD 
DOCKED: BRANCH  10  13
DOCKED: ATOM     13  C   UNL     1     141.977  78.881 219.415 -0.21 -0.08    +0.128 A  
DOCKED: ATOM     14  C   UNL     1     141.597  80.161 219.124 -0.26 -0.02    +0.035 A  
DOCKED: ATOM     15  N   UNL     1     142.183  78.571 220.714 -0.10 +0.18    -0.243 NA 
DOCKED: ATOM     16  C   UNL     1     141.421  81.131 220.099 -0.30 -0.00    +0.013 A  
DOCKED: ATOM     17  C   UNL     1     142.030  79.465 221.702 -0.39 -0.04    +0.071 A  
DOCKED: ATOM     18  C   UNL     1     141.647  80.762 221.427 -0.41 -0.00    +0.000 A  
DOCKED: ATOM     19  C   UNL     1     142.259  79.074 223.004 -0.55 -0.01    +0.029 A  
DOCKED: ATOM     20  C   UNL     1     141.498  81.657 222.465 -0.46 -0.00    +0.010 A  
DOCKED: ATOM     21  C   UNL     1     142.115  79.957 224.071 -0.54 -0.00    +0.002 A  
DOCKED: ATOM     22  C   UNL     1     141.727  81.265 223.768 -0.58 -0.00    +0.001 A  
DOCKED: ENDBRANCH  10  13
DOCKED: ENDBRANCH   8   9
DOCKED: ENDBRANCH   6   8
DOCKED: ENDBRANCH   1   6
DOCKED: BRANCH   5  23
DOCKED: ATOM     23  C   UNL     1     141.877  73.720 220.817 -0.17 -0.05    +0.254 C  
DOCKED: BRANCH  23  24
DOCKED: ATOM     24  O   UNL     1     142.015  75.071 221.118 -0.13 +0.18    -0.491 OA 
DOCKED: BRANCH  24  25
DOCKED: ATOM     25  C   UNL     1     140.848  75.833 221.218 -0.27 -0.04    +0.119 A  
DOCKED: ATOM     26  C   UNL     1     139.996  75.946 220.120 -0.12 -0.01    +0.048 A  
DOCKED: ATOM     27  C   UNL     1     140.487  76.495 222.374 -0.37 -0.01    +0.048 A  
DOCKED: ATOM     28  C   UNL     1     138.825  76.702 220.193 -0.07 -0.01    +0.024 A  
DOCKED: ATOM     29  C   UNL     1     139.338  77.250 222.486 -0.31 -0.00    +0.024 A  
DOCKED: ATOM     30  C   UNL     1     138.516  77.343 221.382 -0.16 -0.01    +0.041 A  
DOCKED: ATOM     31  Cl  UNL     1     137.059  78.313 221.552 -0.13 +0.01    -0.084 Cl 
DOCKED: ENDBRANCH  24  25
DOCKED: ENDBRANCH  23  24
DOCKED: ENDBRANCH   5  23
DOCKED: BRANCH   3  32
DOCKED: ATOM     32  O   UNL     1     146.324  72.379 219.964 -0.51 -0.25    -0.391 OA 
DOCKED: ATOM     33  H   UNL     1     145.972  71.914 220.763 -0.38 -0.03    +0.211 HD 
DOCKED: ENDBRANCH   3  32
DOCKED: TORSDOF 8
DOCKED: TER
DOCKED: ENDMDL
________________________________________________________________________________


    FINAL DOCKED STATE:
    ________________________


Run:   14 / 20
Time taken for this run:   0.043s

DOCKED: MODEL        14
DOCKED: USER    Run = 14
DOCKED: USER
DOCKED: USER    Estimated Free Energy of Binding    =  -7.24 kcal/mol  [=(1)+(2)+(3)-(4)]
DOCKED: USER
DOCKED: USER    (1) Final Intermolecular Energy     =  -9.63 kcal/mol
DOCKED: USER        vdW + Hbond + desolv Energy     =  -9.51 kcal/mol
DOCKED: USER        Electrostatic Energy            =  -0.12 kcal/mol
DOCKED: USER        Moving Ligand-Fixed Receptor    =  -9.63 kcal/mol
DOCKED: USER        Moving Ligand-Moving Receptor   =  +0.00 kcal/mol
DOCKED: USER    (2) Final Total Internal Energy     =  -2.78 kcal/mol
DOCKED: USER    (3) Torsional Free Energy           =  +2.39 kcal/mol
DOCKED: USER    (4) Unbound System's Energy         =  -2.78 kcal/mol
DOCKED: USER
DOCKED: USER
DOCKED: REMARK SMILES O=C(NCC(=O)N1C[C@H](O)C[C@H]1COc1ccc(Cl)cc1)c1ccc2ccccc2n1
DOCKED: REMARK SMILES IDX 7 1 8 2 9 3 11 4 12 5 5 6 6 7 4 8 3 9 2 10 1 11 22 13 23 14
DOCKED: REMARK SMILES IDX 31 15 24 16 30 17 25 18 29 19 26 20 28 21 27 22 13 23 14 24
DOCKED: REMARK SMILES IDX 15 25 16 26 21 27 17 28 20 29 18 30 19 31 10 32
DOCKED: REMARK H PARENT 3 12 10 33
DOCKED: USER                              x       y       z     vdW  Elec       q    Type
DOCKED: USER                           _______ _______ _______ _____ _____    ______ ____
DOCKED: ROOT
DOCKED: ATOM      1  N   UNL     1     140.570  72.380 220.252 -0.03 +0.06    -0.332 N  
DOCKED: ATOM      2  C   UNL     1     141.068  71.037 219.895 -0.08 -0.02    +0.151 C  
DOCKED: ATOM      3  C   UNL     1     142.469  71.404 219.447 -0.10 -0.02    +0.136 C  
DOCKED: ATOM      4  C   UNL     1     142.833  72.691 220.159 -0.22 -0.01    +0.062 C  
DOCKED: ATOM      5  C   UNL     1     141.642  72.951 221.045 -0.21 -0.02    +0.125 C  
DOCKED: ENDROOT
DOCKED: BRANCH   1   6
DOCKED: ATOM      6  C   UNL     1     139.319  72.952 219.886 -0.03 -0.05    +0.242 C  
DOCKED: ATOM      7  O   UNL     1     139.093  73.460 218.757 -0.01 +0.05    -0.273 OA 
DOCKED: BRANCH   6   8
DOCKED: ATOM      8  C   UNL     1     138.223  72.949 220.889 -0.07 -0.05    +0.216 C  
DOCKED: BRANCH   8   9
DOCKED: ATOM      9  N   UNL     1     138.658  72.546 222.190 -0.09 +0.09    -0.342 N  
DOCKED: ATOM     10  C   UNL     1     138.730  71.139 222.457 -0.13 -0.06    +0.270 C  
DOCKED: ATOM     11  O   UNL     1     138.418  70.295 221.570 -0.05 +0.05    -0.268 OA 
DOCKED: ATOM     12  H   UNL     1     138.926  73.199 222.958 -0.45 -0.08    +0.164 HD 
DOCKED: BRANCH  10  13
DOCKED: ATOM     13  C   UNL     1     139.166  70.677 223.767 -0.27 -0.03    +0.128 A  
DOCKED: ATOM     14  C   UNL     1     138.936  69.390 224.165 -0.31 -0.01    +0.035 A  
DOCKED: ATOM     15  N   UNL     1     139.811  71.492 224.630 -0.27 +0.05    -0.243 NA 
DOCKED: ATOM     16  C   UNL     1     139.334  68.906 225.402 -0.44 -0.00    +0.013 A  
DOCKED: ATOM     17  C   UNL     1     140.219  71.082 225.840 -0.50 -0.01    +0.071 A  
DOCKED: ATOM     18  C   UNL     1     139.995  69.787 226.260 -0.51 -0.00    +0.000 A  
DOCKED: ATOM     19  C   UNL     1     140.871  71.973 226.667 -0.65 -0.01    +0.029 A  
DOCKED: ATOM     20  C   UNL     1     140.429  69.397 227.510 -0.61 -0.00    +0.010 A  
DOCKED: ATOM     21  C   UNL     1     141.319  71.606 227.932 -0.74 -0.00    +0.002 A  
DOCKED: ATOM     22  C   UNL     1     141.081  70.288 228.336 -0.56 -0.00    +0.001 A  
DOCKED: ENDBRANCH  10  13
DOCKED: ENDBRANCH   8   9
DOCKED: ENDBRANCH   6   8
DOCKED: ENDBRANCH   1   6
DOCKED: BRANCH   5  23
DOCKED: ATOM     23  C   UNL     1     141.439  74.390 221.371 -0.12 -0.04    +0.254 C  
DOCKED: BRANCH  23  24
DOCKED: ATOM     24  O   UNL     1     140.297  74.665 222.116 -0.65 +0.02    -0.491 OA 
DOCKED: BRANCH  24  25
DOCKED: ATOM     25  C   UNL     1     140.003  76.006 222.376 -0.27 -0.02    +0.119 A  
DOCKED: ATOM     26  C   UNL     1     141.038  76.925 222.545 -0.35 -0.02    +0.048 A  
DOCKED: ATOM     27  C   UNL     1     138.711  76.479 222.476 -0.29 -0.01    +0.048 A  
DOCKED: ATOM     28  C   UNL     1     140.770  78.269 222.806 -0.45 -0.01    +0.024 A  
DOCKED: ATOM     29  C   UNL     1     138.405  77.800 222.731 -0.28 -0.00    +0.024 A  
DOCKED: ATOM     30  C   UNL     1     139.452  78.684 222.894 -0.33 -0.01    +0.041 A  
DOCKED: ATOM     31  Cl  UNL     1     139.034  80.362 223.220 -0.44 +0.01    -0.084 Cl 
DOCKED: ENDBRANCH  24  25
DOCKED: ENDBRANCH  23  24
DOCKED: ENDBRANCH   5  23
DOCKED: BRANCH   3  32
DOCKED: ATOM     32  O   UNL     1     143.391  70.393 219.785 -0.08 +0.02    -0.391 OA 
DOCKED: ATOM     33  H   UNL     1     142.851  69.585 219.962 +0.07 -0.02    +0.211 HD 
DOCKED: ENDBRANCH   3  32
DOCKED: TORSDOF 8
DOCKED: TER
DOCKED: ENDMDL
________________________________________________________________________________


    FINAL DOCKED STATE:
    ________________________


Run:   15 / 20
Time taken for this run:   0.043s

DOCKED: MODEL        15
DOCKED: USER    Run = 15
DOCKED: USER
DOCKED: USER    Estimated Free Energy of Binding    =  -8.99 kcal/mol  [=(1)+(2)+(3)-(4)]
DOCKED: USER
DOCKED: USER    (1) Final Intermolecular Energy     = -11.38 kcal/mol
DOCKED: USER        vdW + Hbond + desolv Energy     = -11.27 kcal/mol
DOCKED: USER        Electrostatic Energy            =  -0.11 kcal/mol
DOCKED: USER        Moving Ligand-Fixed Receptor    = -11.38 kcal/mol
DOCKED: USER        Moving Ligand-Moving Receptor   =  +0.00 kcal/mol
DOCKED: USER    (2) Final Total Internal Energy     =  -1.75 kcal/mol
DOCKED: USER    (3) Torsional Free Energy           =  +2.39 kcal/mol
DOCKED: USER    (4) Unbound System's Energy         =  -1.75 kcal/mol
DOCKED: USER
DOCKED: USER
DOCKED: REMARK SMILES O=C(NCC(=O)N1C[C@H](O)C[C@H]1COc1ccc(Cl)cc1)c1ccc2ccccc2n1
DOCKED: REMARK SMILES IDX 7 1 8 2 9 3 11 4 12 5 5 6 6 7 4 8 3 9 2 10 1 11 22 13 23 14
DOCKED: REMARK SMILES IDX 31 15 24 16 30 17 25 18 29 19 26 20 28 21 27 22 13 23 14 24
DOCKED: REMARK SMILES IDX 15 25 16 26 21 27 17 28 20 29 18 30 19 31 10 32
DOCKED: REMARK H PARENT 3 12 10 33
DOCKED: USER                              x       y       z     vdW  Elec       q    Type
DOCKED: USER                           _______ _______ _______ _____ _____    ______ ____
DOCKED: ROOT
DOCKED: ATOM      1  N   UNL     1     141.952  74.102 220.336 -0.10 +0.08    -0.332 N  
DOCKED: ATOM      2  C   UNL     1     143.137  73.381 220.842 -0.17 -0.03    +0.151 C  
DOCKED: ATOM      3  C   UNL     1     144.187  73.944 219.904 -0.33 -0.04    +0.136 C  
DOCKED: ATOM      4  C   UNL     1     143.685  75.298 219.447 -0.34 -0.03    +0.062 C  
DOCKED: ATOM      5  C   UNL     1     142.402  75.475 220.217 -0.23 -0.06    +0.125 C  
DOCKED: ENDROOT
DOCKED: BRANCH   1   6
DOCKED: ATOM      6  C   UNL     1     140.675  73.544 220.042 -0.07 -0.05    +0.242 C  
DOCKED: ATOM      7  O   UNL     1     140.458  72.788 219.060 -0.02 +0.05    -0.273 OA 
DOCKED: BRANCH   6   8
DOCKED: ATOM      8  C   UNL     1     139.540  73.873 220.943 -0.13 -0.04    +0.216 C  
DOCKED: BRANCH   8   9
DOCKED: ATOM      9  N   UNL     1     139.660  73.275 222.235 -0.15 +0.06    -0.342 N  
DOCKED: ATOM     10  C   UNL     1     139.731  71.844 222.297 -0.19 -0.05    +0.270 C  
DOCKED: ATOM     11  O   UNL     1     139.687  71.146 221.244 -0.08 +0.05    -0.268 OA 
DOCKED: ATOM     12  H   UNL     1     139.701  73.801 223.135 -0.45 -0.01    +0.164 HD 
DOCKED: BRANCH  10  13
DOCKED: ATOM     13  C   UNL     1     139.854  71.185 223.590 -0.31 -0.02    +0.128 A  
DOCKED: ATOM     14  C   UNL     1     139.483  69.879 223.746 -0.27 -0.01    +0.035 A  
DOCKED: ATOM     15  N   UNL     1     140.337  71.831 224.674 -0.27 +0.04    -0.243 NA 
DOCKED: ATOM     16  C   UNL     1     139.582  69.211 224.957 -0.39 -0.00    +0.013 A  
DOCKED: ATOM     17  C   UNL     1     140.457  71.239 225.872 -0.54 -0.01    +0.071 A  
DOCKED: ATOM     18  C   UNL     1     140.086  69.921 226.049 -0.51 -0.00    +0.000 A  
DOCKED: ATOM     19  C   UNL     1     140.958  71.964 226.932 -0.73 -0.01    +0.029 A  
DOCKED: ATOM     20  C   UNL     1     140.222  69.342 227.293 -0.59 -0.00    +0.010 A  
DOCKED: ATOM     21  C   UNL     1     141.106  71.404 228.198 -0.75 -0.00    +0.002 A  
DOCKED: ATOM     22  C   UNL     1     140.724  70.068 228.353 -0.56 -0.00    +0.001 A  
DOCKED: ENDBRANCH  10  13
DOCKED: ENDBRANCH   8   9
DOCKED: ENDBRANCH   6   8
DOCKED: ENDBRANCH   1   6
DOCKED: BRANCH   5  23
DOCKED: ATOM     23  C   UNL     1     141.417  76.368 219.544 -0.12 -0.11    +0.254 C  
DOCKED: BRANCH  23  24
DOCKED: ATOM     24  O   UNL     1     140.533  77.013 220.403 -0.02 +0.18    -0.491 OA 
DOCKED: BRANCH  24  25
DOCKED: ATOM     25  C   UNL     1     141.065  77.949 221.294 -0.27 -0.05    +0.119 A  
DOCKED: ATOM     26  C   UNL     1     141.632  79.128 220.808 -0.31 -0.03    +0.048 A  
DOCKED: ATOM     27  C   UNL     1     141.061  77.762 222.661 -0.44 -0.02    +0.048 A  
DOCKED: ATOM     28  C   UNL     1     142.171  80.077 221.677 -0.45 -0.01    +0.024 A  
DOCKED: ATOM     29  C   UNL     1     141.582  78.677 223.552 -0.58 -0.01    +0.024 A  
DOCKED: ATOM     30  C   UNL     1     142.135  79.833 223.041 -0.58 -0.01    +0.041 A  
DOCKED: ATOM     31  Cl  UNL     1     142.794  80.982 224.199 -0.61 +0.01    -0.084 Cl 
DOCKED: ENDBRANCH  24  25
DOCKED: ENDBRANCH  23  24
DOCKED: ENDBRANCH   5  23
DOCKED: BRANCH   3  32
DOCKED: ATOM     32  O   UNL     1     145.427  74.089 220.558 -0.36 +0.10    -0.391 OA 
DOCKED: ATOM     33  H   UNL     1     146.030  74.512 219.899 -0.36 -0.08    +0.211 HD 
DOCKED: ENDBRANCH   3  32
DOCKED: TORSDOF 8
DOCKED: TER
DOCKED: ENDMDL
________________________________________________________________________________


    FINAL DOCKED STATE:
    ________________________


Run:   16 / 20
Time taken for this run:   0.043s

DOCKED: MODEL        16
DOCKED: USER    Run = 16
DOCKED: USER
DOCKED: USER    Estimated Free Energy of Binding    =  -7.13 kcal/mol  [=(1)+(2)+(3)-(4)]
DOCKED: USER
DOCKED: USER    (1) Final Intermolecular Energy     =  -9.52 kcal/mol
DOCKED: USER        vdW + Hbond + desolv Energy     =  -9.40 kcal/mol
DOCKED: USER        Electrostatic Energy            =  -0.12 kcal/mol
DOCKED: USER        Moving Ligand-Fixed Receptor    =  -9.52 kcal/mol
DOCKED: USER        Moving Ligand-Moving Receptor   =  +0.00 kcal/mol
DOCKED: USER    (2) Final Total Internal Energy     =  -2.71 kcal/mol
DOCKED: USER    (3) Torsional Free Energy           =  +2.39 kcal/mol
DOCKED: USER    (4) Unbound System's Energy         =  -2.71 kcal/mol
DOCKED: USER
DOCKED: USER
DOCKED: REMARK SMILES O=C(NCC(=O)N1C[C@H](O)C[C@H]1COc1ccc(Cl)cc1)c1ccc2ccccc2n1
DOCKED: REMARK SMILES IDX 7 1 8 2 9 3 11 4 12 5 5 6 6 7 4 8 3 9 2 10 1 11 22 13 23 14
DOCKED: REMARK SMILES IDX 31 15 24 16 30 17 25 18 29 19 26 20 28 21 27 22 13 23 14 24
DOCKED: REMARK SMILES IDX 15 25 16 26 21 27 17 28 20 29 18 30 19 31 10 32
DOCKED: REMARK H PARENT 3 12 10 33
DOCKED: USER                              x       y       z     vdW  Elec       q    Type
DOCKED: USER                           _______ _______ _______ _____ _____    ______ ____
DOCKED: ROOT
DOCKED: ATOM      1  N   UNL     1     140.918  74.964 220.867 -0.13 +0.08    -0.332 N  
DOCKED: ATOM      2  C   UNL     1     142.055  75.528 220.112 -0.23 -0.06    +0.151 C  
DOCKED: ATOM      3  C   UNL     1     143.122  74.517 220.482 -0.27 -0.05    +0.136 C  
DOCKED: ATOM      4  C   UNL     1     142.404  73.228 220.825 -0.24 -0.01    +0.062 C  
DOCKED: ATOM      5  C   UNL     1     140.957  73.548 220.554 -0.17 -0.02    +0.125 C  
DOCKED: ENDROOT
DOCKED: BRANCH   1   6
DOCKED: ATOM      6  C   UNL     1     140.011  75.677 221.703 -0.24 -0.05    +0.242 C  
DOCKED: ATOM      7  O   UNL     1     140.374  76.357 222.697 -0.35 +0.05    -0.273 OA 
DOCKED: BRANCH   6   8
DOCKED: ATOM      8  C   UNL     1     138.561  75.613 221.383 -0.15 -0.05    +0.216 C  
DOCKED: BRANCH   8   9
DOCKED: ATOM      9  N   UNL     1     137.803  74.909 222.369 -0.06 +0.12    -0.342 N  
DOCKED: ATOM     10  C   UNL     1     136.613  75.540 222.862 -0.15 -0.07    +0.270 C  
DOCKED: ATOM     11  O   UNL     1     136.257  76.675 222.436 -0.11 +0.05    -0.268 OA 
DOCKED: ATOM     12  H   UNL     1     138.050  73.972 222.756 -0.53 -0.09    +0.164 HD 
DOCKED: BRANCH  10  13
DOCKED: ATOM     13  C   UNL     1     135.805  74.865 223.868 -0.22 -0.03    +0.128 A  
DOCKED: ATOM     14  C   UNL     1     135.055  75.582 224.758 -0.33 -0.00    +0.035 A  
DOCKED: ATOM     15  N   UNL     1     135.763  73.518 223.960 -0.14 +0.06    -0.243 NA 
DOCKED: ATOM     16  C   UNL     1     134.270  74.983 225.731 -0.38 -0.00    +0.013 A  
DOCKED: ATOM     17  C   UNL     1     135.024  72.880 224.879 -0.20 -0.01    +0.071 A  
DOCKED: ATOM     18  C   UNL     1     134.261  73.588 225.787 -0.31 +0.00    +0.000 A  
DOCKED: ATOM     19  C   UNL     1     135.033  71.502 224.911 -0.16 -0.00    +0.029 A  
DOCKED: ATOM     20  C   UNL     1     133.512  72.902 226.720 -0.35 +0.00    +0.010 A  
DOCKED: ATOM     21  C   UNL     1     134.286  70.785 225.842 -0.29 -0.00    +0.002 A  
DOCKED: ATOM     22  C   UNL     1     133.521  71.523 226.751 -0.42 -0.00    +0.001 A  
DOCKED: ENDBRANCH  10  13
DOCKED: ENDBRANCH   8   9
DOCKED: ENDBRANCH   6   8
DOCKED: ENDBRANCH   1   6
DOCKED: BRANCH   5  23
DOCKED: ATOM     23  C   UNL     1     140.001  72.736 221.357 -0.16 -0.04    +0.254 C  
DOCKED: BRANCH  23  24
DOCKED: ATOM     24  O   UNL     1     139.999  73.013 222.719 -0.60 +0.05    -0.491 OA 
DOCKED: BRANCH  24  25
DOCKED: ATOM     25  C   UNL     1     139.893  71.932 223.598 -0.26 -0.02    +0.119 A  
DOCKED: ATOM     26  C   UNL     1     140.696  71.881 224.738 -0.34 -0.01    +0.048 A  
DOCKED: ATOM     27  C   UNL     1     139.016  70.886 223.392 -0.28 -0.01    +0.048 A  
DOCKED: ATOM     28  C   UNL     1     140.610  70.812 225.631 -0.56 -0.00    +0.024 A  
DOCKED: ATOM     29  C   UNL     1     138.901  69.814 224.251 -0.32 -0.00    +0.024 A  
DOCKED: ATOM     30  C   UNL     1     139.709  69.793 225.370 -0.41 -0.01    +0.041 A  
DOCKED: ATOM     31  Cl  UNL     1     139.543  68.413 226.447 -0.72 +0.01    -0.084 Cl 
DOCKED: ENDBRANCH  24  25
DOCKED: ENDBRANCH  23  24
DOCKED: ENDBRANCH   5  23
DOCKED: BRANCH   3  32
DOCKED: ATOM     32  O   UNL     1     144.009  74.299 219.408 -0.15 +0.13    -0.391 OA 
DOCKED: ATOM     33  H   UNL     1     144.451  75.168 219.245 -0.17 -0.13    +0.211 HD 
DOCKED: ENDBRANCH   3  32
DOCKED: TORSDOF 8
DOCKED: TER
DOCKED: ENDMDL
________________________________________________________________________________


    FINAL DOCKED STATE:
    ________________________


Run:   17 / 20
Time taken for this run:   0.043s

DOCKED: MODEL        17
DOCKED: USER    Run = 17
DOCKED: USER
DOCKED: USER    Estimated Free Energy of Binding    =  -7.56 kcal/mol  [=(1)+(2)+(3)-(4)]
DOCKED: USER
DOCKED: USER    (1) Final Intermolecular Energy     =  -9.95 kcal/mol
DOCKED: USER        vdW + Hbond + desolv Energy     =  -9.58 kcal/mol
DOCKED: USER        Electrostatic Energy            =  -0.37 kcal/mol
DOCKED: USER        Moving Ligand-Fixed Receptor    =  -9.95 kcal/mol
DOCKED: USER        Moving Ligand-Moving Receptor   =  +0.00 kcal/mol
DOCKED: USER    (2) Final Total Internal Energy     =  -3.29 kcal/mol
DOCKED: USER    (3) Torsional Free Energy           =  +2.39 kcal/mol
DOCKED: USER    (4) Unbound System's Energy         =  -3.29 kcal/mol
DOCKED: USER
DOCKED: USER
DOCKED: REMARK SMILES O=C(NCC(=O)N1C[C@H](O)C[C@H]1COc1ccc(Cl)cc1)c1ccc2ccccc2n1
DOCKED: REMARK SMILES IDX 7 1 8 2 9 3 11 4 12 5 5 6 6 7 4 8 3 9 2 10 1 11 22 13 23 14
DOCKED: REMARK SMILES IDX 31 15 24 16 30 17 25 18 29 19 26 20 28 21 27 22 13 23 14 24
DOCKED: REMARK SMILES IDX 15 25 16 26 21 27 17 28 20 29 18 30 19 31 10 32
DOCKED: REMARK H PARENT 3 12 10 33
DOCKED: USER                              x       y       z     vdW  Elec       q    Type
DOCKED: USER                           _______ _______ _______ _____ _____    ______ ____
DOCKED: ROOT
DOCKED: ATOM      1  N   UNL     1     142.989  73.533 219.816 -0.08 +0.07    -0.332 N  
DOCKED: ATOM      2  C   UNL     1     144.199  72.729 220.080 -0.28 -0.02    +0.151 C  
DOCKED: ATOM      3  C   UNL     1     144.912  72.916 218.755 -0.22 +0.02    +0.136 C  
DOCKED: ATOM      4  C   UNL     1     144.419  74.225 218.173 -0.03 -0.02    +0.062 C  
DOCKED: ATOM      5  C   UNL     1     143.503  74.761 219.241 -0.26 -0.05    +0.125 C  
DOCKED: ENDROOT
DOCKED: BRANCH   1   6
DOCKED: ATOM      6  C   UNL     1     141.640  73.157 220.078 -0.10 -0.05    +0.242 C  
DOCKED: ATOM      7  O   UNL     1     140.935  72.499 219.270 -0.02 +0.05    -0.273 OA 
DOCKED: BRANCH   6   8
DOCKED: ATOM      8  C   UNL     1     141.036  73.563 221.373 -0.20 -0.03    +0.216 C  
DOCKED: BRANCH   8   9
DOCKED: ATOM      9  N   UNL     1     141.220  74.949 221.665 -0.15 +0.06    -0.342 N  
DOCKED: ATOM     10  C   UNL     1     140.094  75.673 222.181 -0.12 -0.04    +0.270 C  
DOCKED: ATOM     11  O   UNL     1     138.984  75.098 222.365 -0.42 +0.06    -0.268 OA 
DOCKED: ATOM     12  H   UNL     1     142.112  75.474 221.532 -0.36 -0.08    +0.164 HD 
DOCKED: BRANCH  10  13
DOCKED: ATOM     13  C   UNL     1     140.230  77.088 222.494 -0.30 -0.03    +0.128 A  
DOCKED: ATOM     14  C   UNL     1     139.127  77.885 222.620 -0.29 -0.01    +0.035 A  
DOCKED: ATOM     15  N   UNL     1     141.439  77.664 222.672 -0.23 +0.12    -0.243 NA 
DOCKED: ATOM     16  C   UNL     1     139.208  79.237 222.917 -0.33 -0.00    +0.013 A  
DOCKED: ATOM     17  C   UNL     1     141.582  78.966 222.960 -0.50 -0.03    +0.071 A  
DOCKED: ATOM     18  C   UNL     1     140.480  79.786 223.091 -0.44 -0.00    +0.000 A  
DOCKED: ATOM     19  C   UNL     1     142.850  79.482 223.127 -0.53 -0.01    +0.029 A  
DOCKED: ATOM     20  C   UNL     1     140.661  81.120 223.389 -0.42 -0.00    +0.010 A  
DOCKED: ATOM     21  C   UNL     1     143.062  80.825 223.429 -0.58 -0.00    +0.002 A  
DOCKED: ATOM     22  C   UNL     1     141.930  81.636 223.556 -0.53 -0.00    +0.001 A  
DOCKED: ENDBRANCH  10  13
DOCKED: ENDBRANCH   8   9
DOCKED: ENDBRANCH   6   8
DOCKED: ENDBRANCH   1   6
DOCKED: BRANCH   5  23
DOCKED: ATOM     23  C   UNL     1     142.439  75.665 218.722 -0.14 -0.11    +0.254 C  
DOCKED: BRANCH  23  24
DOCKED: ATOM     24  O   UNL     1     141.990  76.620 219.628 -0.08 +0.26    -0.491 OA 
DOCKED: BRANCH  24  25
DOCKED: ATOM     25  C   UNL     1     142.028  77.959 219.227 -0.24 -0.07    +0.119 A  
DOCKED: ATOM     26  C   UNL     1     141.187  78.890 219.836 -0.22 -0.02    +0.048 A  
DOCKED: ATOM     27  C   UNL     1     142.874  78.416 218.238 -0.27 -0.04    +0.048 A  
DOCKED: ATOM     28  C   UNL     1     141.206  80.232 219.453 -0.23 -0.01    +0.024 A  
DOCKED: ATOM     29  C   UNL     1     142.923  79.734 217.834 -0.25 -0.03    +0.024 A  
DOCKED: ATOM     30  C   UNL     1     142.079  80.632 218.454 -0.30 -0.03    +0.041 A  
DOCKED: ATOM     31  Cl  UNL     1     142.160  82.305 217.918 -0.32 +0.05    -0.084 Cl 
DOCKED: ENDBRANCH  24  25
DOCKED: ENDBRANCH  23  24
DOCKED: ENDBRANCH   5  23
DOCKED: BRANCH   3  32
DOCKED: ATOM     32  O   UNL     1     146.309  72.968 218.933 -0.67 -0.43    -0.391 OA 
DOCKED: ATOM     33  H   UNL     1     146.551  73.925 218.880 -0.45 +0.05    +0.211 HD 
DOCKED: ENDBRANCH   3  32
DOCKED: TORSDOF 8
DOCKED: TER
DOCKED: ENDMDL
________________________________________________________________________________


    FINAL DOCKED STATE:
    ________________________


Run:   18 / 20
Time taken for this run:   0.043s

DOCKED: MODEL        18
DOCKED: USER    Run = 18
DOCKED: USER
DOCKED: USER    Estimated Free Energy of Binding    =  -7.52 kcal/mol  [=(1)+(2)+(3)-(4)]
DOCKED: USER
DOCKED: USER    (1) Final Intermolecular Energy     =  -9.91 kcal/mol
DOCKED: USER        vdW + Hbond + desolv Energy     =  -9.48 kcal/mol
DOCKED: USER        Electrostatic Energy            =  -0.42 kcal/mol
DOCKED: USER        Moving Ligand-Fixed Receptor    =  -9.91 kcal/mol
DOCKED: USER        Moving Ligand-Moving Receptor   =  +0.00 kcal/mol
DOCKED: USER    (2) Final Total Internal Energy     =  -3.33 kcal/mol
DOCKED: USER    (3) Torsional Free Energy           =  +2.39 kcal/mol
DOCKED: USER    (4) Unbound System's Energy         =  -3.33 kcal/mol
DOCKED: USER
DOCKED: USER
DOCKED: REMARK SMILES O=C(NCC(=O)N1C[C@H](O)C[C@H]1COc1ccc(Cl)cc1)c1ccc2ccccc2n1
DOCKED: REMARK SMILES IDX 7 1 8 2 9 3 11 4 12 5 5 6 6 7 4 8 3 9 2 10 1 11 22 13 23 14
DOCKED: REMARK SMILES IDX 31 15 24 16 30 17 25 18 29 19 26 20 28 21 27 22 13 23 14 24
DOCKED: REMARK SMILES IDX 15 25 16 26 21 27 17 28 20 29 18 30 19 31 10 32
DOCKED: REMARK H PARENT 3 12 10 33
DOCKED: USER                              x       y       z     vdW  Elec       q    Type
DOCKED: USER                           _______ _______ _______ _____ _____    ______ ____
DOCKED: ROOT
DOCKED: ATOM      1  N   UNL     1     143.064  73.640 219.511 -0.07 +0.08    -0.332 N  
DOCKED: ATOM      2  C   UNL     1     144.286  72.821 219.636 -0.25 -0.01    +0.151 C  
DOCKED: ATOM      3  C   UNL     1     144.881  73.055 218.261 -0.17 +0.01    +0.136 C  
DOCKED: ATOM      4  C   UNL     1     144.349  74.388 217.776 -0.02 -0.02    +0.062 C  
DOCKED: ATOM      5  C   UNL     1     143.535  74.887 218.940 -0.23 -0.05    +0.125 C  
DOCKED: ENDROOT
DOCKED: BRANCH   1   6
DOCKED: ATOM      6  C   UNL     1     141.740  73.260 219.876 -0.09 -0.05    +0.242 C  
DOCKED: ATOM      7  O   UNL     1     140.949  72.668 219.097 -0.02 +0.05    -0.273 OA 
DOCKED: BRANCH   6   8
DOCKED: ATOM      8  C   UNL     1     141.271  73.579 221.249 -0.19 -0.03    +0.216 C  
DOCKED: BRANCH   8   9
DOCKED: ATOM      9  N   UNL     1     141.375  74.969 221.566 -0.16 +0.08    -0.342 N  
DOCKED: ATOM     10  C   UNL     1     140.217  75.611 222.118 -0.11 -0.04    +0.270 C  
DOCKED: ATOM     11  O   UNL     1     139.149  74.964 222.312 -0.53 +0.06    -0.268 OA 
DOCKED: ATOM     12  H   UNL     1     142.230  75.551 221.425 -0.41 -0.09    +0.164 HD 
DOCKED: BRANCH  10  13
DOCKED: ATOM     13  C   UNL     1     140.271  77.026 222.457 -0.31 -0.03    +0.128 A  
DOCKED: ATOM     14  C   UNL     1     139.125  77.759 222.578 -0.29 -0.01    +0.035 A  
DOCKED: ATOM     15  N   UNL     1     141.445  77.663 222.664 -0.22 +0.12    -0.243 NA 
DOCKED: ATOM     16  C   UNL     1     139.128  79.108 222.900 -0.32 -0.00    +0.013 A  
DOCKED: ATOM     17  C   UNL     1     141.513  78.965 222.977 -0.50 -0.02    +0.071 A  
DOCKED: ATOM     18  C   UNL     1     140.366  79.722 223.103 -0.44 -0.00    +0.000 A  
DOCKED: ATOM     19  C   UNL     1     142.748  79.546 223.173 -0.56 -0.01    +0.029 A  
DOCKED: ATOM     20  C   UNL     1     140.470  81.058 223.426 -0.40 -0.00    +0.010 A  
DOCKED: ATOM     21  C   UNL     1     142.882  80.892 223.500 -0.62 -0.00    +0.002 A  
DOCKED: ATOM     22  C   UNL     1     141.706  81.638 223.623 -0.49 -0.00    +0.001 A  
DOCKED: ENDBRANCH  10  13
DOCKED: ENDBRANCH   8   9
DOCKED: ENDBRANCH   6   8
DOCKED: ENDBRANCH   1   6
DOCKED: BRANCH   5  23
DOCKED: ATOM     23  C   UNL     1     142.436  75.815 218.552 -0.14 -0.11    +0.254 C  
DOCKED: BRANCH  23  24
DOCKED: ATOM     24  O   UNL     1     142.042  76.702 219.547 -0.08 +0.26    -0.491 OA 
DOCKED: BRANCH  24  25
DOCKED: ATOM     25  C   UNL     1     142.005  78.061 219.224 -0.23 -0.07    +0.119 A  
DOCKED: ATOM     26  C   UNL     1     142.854  78.565 218.238 -0.27 -0.04    +0.048 A  
DOCKED: ATOM     27  C   UNL     1     141.152  78.952 219.843 -0.21 -0.02    +0.048 A  
DOCKED: ATOM     28  C   UNL     1     142.837  79.918 217.898 -0.28 -0.03    +0.024 A  
DOCKED: ATOM     29  C   UNL     1     141.105  80.295 219.534 -0.22 -0.01    +0.024 A  
DOCKED: ATOM     30  C   UNL     1     141.958  80.763 218.555 -0.28 -0.02    +0.041 A  
DOCKED: ATOM     31  Cl  UNL     1     141.878  82.480 218.181 -0.29 +0.04    -0.084 Cl 
DOCKED: ENDBRANCH  24  25
DOCKED: ENDBRANCH  23  24
DOCKED: ENDBRANCH   5  23
DOCKED: BRANCH   3  32
DOCKED: ATOM     32  O   UNL     1     146.289  73.094 218.318 -0.60 -0.45    -0.391 OA 
DOCKED: ATOM     33  H   UNL     1     146.522  74.023 218.561 -0.47 +0.03    +0.211 HD 
DOCKED: ENDBRANCH   3  32
DOCKED: TORSDOF 8
DOCKED: TER
DOCKED: ENDMDL
________________________________________________________________________________


    FINAL DOCKED STATE:
    ________________________


Run:   19 / 20
Time taken for this run:   0.043s

DOCKED: MODEL        19
DOCKED: USER    Run = 19
DOCKED: USER
DOCKED: USER    Estimated Free Energy of Binding    =  -6.63 kcal/mol  [=(1)+(2)+(3)-(4)]
DOCKED: USER
DOCKED: USER    (1) Final Intermolecular Energy     =  -9.02 kcal/mol
DOCKED: USER        vdW + Hbond + desolv Energy     =  -8.79 kcal/mol
DOCKED: USER        Electrostatic Energy            =  -0.23 kcal/mol
DOCKED: USER        Moving Ligand-Fixed Receptor    =  -9.02 kcal/mol
DOCKED: USER        Moving Ligand-Moving Receptor   =  +0.00 kcal/mol
DOCKED: USER    (2) Final Total Internal Energy     =  -3.89 kcal/mol
DOCKED: USER    (3) Torsional Free Energy           =  +2.39 kcal/mol
DOCKED: USER    (4) Unbound System's Energy         =  -3.89 kcal/mol
DOCKED: USER
DOCKED: USER
DOCKED: REMARK SMILES O=C(NCC(=O)N1C[C@H](O)C[C@H]1COc1ccc(Cl)cc1)c1ccc2ccccc2n1
DOCKED: REMARK SMILES IDX 7 1 8 2 9 3 11 4 12 5 5 6 6 7 4 8 3 9 2 10 1 11 22 13 23 14
DOCKED: REMARK SMILES IDX 31 15 24 16 30 17 25 18 29 19 26 20 28 21 27 22 13 23 14 24
DOCKED: REMARK SMILES IDX 15 25 16 26 21 27 17 28 20 29 18 30 19 31 10 32
DOCKED: REMARK H PARENT 3 12 10 33
DOCKED: USER                              x       y       z     vdW  Elec       q    Type
DOCKED: USER                           _______ _______ _______ _____ _____    ______ ____
DOCKED: ROOT
DOCKED: ATOM      1  N   UNL     1     143.139  73.248 220.118 -0.10 +0.07    -0.332 N  
DOCKED: ATOM      2  C   UNL     1     144.053  72.159 220.514 -0.26 -0.02    +0.151 C  
DOCKED: ATOM      3  C   UNL     1     145.017  72.208 219.345 -0.26 +0.03    +0.136 C  
DOCKED: ATOM      4  C   UNL     1     144.965  73.618 218.794 -0.16 -0.01    +0.062 C  
DOCKED: ATOM      5  C   UNL     1     144.026  74.329 219.734 -0.32 -0.04    +0.125 C  
DOCKED: ENDROOT
DOCKED: BRANCH   1   6
DOCKED: ATOM      6  C   UNL     1     141.715  73.211 220.122 -0.11 -0.05    +0.242 C  
DOCKED: ATOM      7  O   UNL     1     141.027  72.861 219.129 -0.02 +0.05    -0.273 OA 
DOCKED: BRANCH   6   8
DOCKED: ATOM      8  C   UNL     1     141.005  73.608 221.366 -0.20 -0.03    +0.216 C  
DOCKED: BRANCH   8   9
DOCKED: ATOM      9  N   UNL     1     141.190  74.985 221.699 -0.15 +0.06    -0.342 N  
DOCKED: ATOM     10  C   UNL     1     140.031  75.731 222.098 -0.18 -0.05    +0.270 C  
DOCKED: ATOM     11  O   UNL     1     138.894  75.182 222.149 -0.32 +0.06    -0.268 OA 
DOCKED: ATOM     12  H   UNL     1     142.103  75.488 221.674 -0.40 -0.08    +0.164 HD 
DOCKED: BRANCH  10  13
DOCKED: ATOM     13  C   UNL     1     140.165  77.138 222.447 -0.31 -0.03    +0.128 A  
DOCKED: ATOM     14  C   UNL     1     139.061  77.928 222.601 -0.29 -0.01    +0.035 A  
DOCKED: ATOM     15  N   UNL     1     141.374  77.713 222.631 -0.24 +0.11    -0.243 NA 
DOCKED: ATOM     16  C   UNL     1     139.140  79.272 222.934 -0.33 -0.00    +0.013 A  
DOCKED: ATOM     17  C   UNL     1     141.516  79.007 222.953 -0.50 -0.02    +0.071 A  
DOCKED: ATOM     18  C   UNL     1     140.412  79.820 223.112 -0.44 -0.00    +0.000 A  
DOCKED: ATOM     19  C   UNL     1     142.783  79.522 223.125 -0.56 -0.01    +0.029 A  
DOCKED: ATOM     20  C   UNL     1     140.592  81.146 223.444 -0.40 -0.00    +0.010 A  
DOCKED: ATOM     21  C   UNL     1     142.993  80.857 223.459 -0.60 -0.00    +0.002 A  
DOCKED: ATOM     22  C   UNL     1     141.860  81.661 223.616 -0.51 -0.00    +0.001 A  
DOCKED: ENDBRANCH  10  13
DOCKED: ENDBRANCH   8   9
DOCKED: ENDBRANCH   6   8
DOCKED: ENDBRANCH   1   6
DOCKED: BRANCH   5  23
DOCKED: ATOM     23  C   UNL     1     143.321  75.487 219.117 -0.22 -0.13    +0.254 C  
DOCKED: BRANCH  23  24
DOCKED: ATOM     24  O   UNL     1     142.999  76.512 220.001 -0.16 +0.36    -0.491 OA 
DOCKED: BRANCH  24  25
DOCKED: ATOM     25  C   UNL     1     142.004  77.413 219.610 -0.25 -0.07    +0.119 A  
DOCKED: ATOM     26  C   UNL     1     140.787  76.936 219.123 -0.11 -0.02    +0.048 A  
DOCKED: ATOM     27  C   UNL     1     142.168  78.781 219.681 -0.15 -0.03    +0.048 A  
DOCKED: ATOM     28  C   UNL     1     139.779  77.815 218.725 -0.05 -0.01    +0.024 A  
DOCKED: ATOM     29  C   UNL     1     141.196  79.681 219.299 -0.21 -0.01    +0.024 A  
DOCKED: ATOM     30  C   UNL     1     140.003  79.178 218.821 -0.07 -0.01    +0.041 A  
DOCKED: ATOM     31  Cl  UNL     1     138.780  80.348 218.340 -0.03 +0.02    -0.084 Cl 
DOCKED: ENDBRANCH  24  25
DOCKED: ENDBRANCH  23  24
DOCKED: ENDBRANCH   5  23
DOCKED: BRANCH   3  32
DOCKED: ATOM     32  O   UNL     1     146.330  71.904 219.756 -0.45 -0.34    -0.391 OA 
DOCKED: ATOM     33  H   UNL     1     146.253  71.588 220.690 -0.40 -0.01    +0.211 HD 
DOCKED: ENDBRANCH   3  32
DOCKED: TORSDOF 8
DOCKED: TER
DOCKED: ENDMDL
________________________________________________________________________________


    FINAL DOCKED STATE:
    ________________________


Run:   20 / 20
Time taken for this run:   0.043s

DOCKED: MODEL        20
DOCKED: USER    Run = 20
DOCKED: USER
DOCKED: USER    Estimated Free Energy of Binding    =  -7.79 kcal/mol  [=(1)+(2)+(3)-(4)]
DOCKED: USER
DOCKED: USER    (1) Final Intermolecular Energy     = -10.18 kcal/mol
DOCKED: USER        vdW + Hbond + desolv Energy     =  -9.84 kcal/mol
DOCKED: USER        Electrostatic Energy            =  -0.34 kcal/mol
DOCKED: USER        Moving Ligand-Fixed Receptor    = -10.18 kcal/mol
DOCKED: USER        Moving Ligand-Moving Receptor   =  +0.00 kcal/mol
DOCKED: USER    (2) Final Total Internal Energy     =  -2.68 kcal/mol
DOCKED: USER    (3) Torsional Free Energy           =  +2.39 kcal/mol
DOCKED: USER    (4) Unbound System's Energy         =  -2.68 kcal/mol
DOCKED: USER
DOCKED: USER
DOCKED: REMARK SMILES O=C(NCC(=O)N1C[C@H](O)C[C@H]1COc1ccc(Cl)cc1)c1ccc2ccccc2n1
DOCKED: REMARK SMILES IDX 7 1 8 2 9 3 11 4 12 5 5 6 6 7 4 8 3 9 2 10 1 11 22 13 23 14
DOCKED: REMARK SMILES IDX 31 15 24 16 30 17 25 18 29 19 26 20 28 21 27 22 13 23 14 24
DOCKED: REMARK SMILES IDX 15 25 16 26 21 27 17 28 20 29 18 30 19 31 10 32
DOCKED: REMARK H PARENT 3 12 10 33
DOCKED: USER                              x       y       z     vdW  Elec       q    Type
DOCKED: USER                           _______ _______ _______ _____ _____    ______ ____
DOCKED: ROOT
DOCKED: ATOM      1  N   UNL     1     143.364  72.917 220.134 -0.10 +0.06    -0.332 N  
DOCKED: ATOM      2  C   UNL     1     144.035  71.602 220.177 -0.21 -0.01    +0.151 C  
DOCKED: ATOM      3  C   UNL     1     145.186  71.882 219.231 -0.25 +0.05    +0.136 C  
DOCKED: ATOM      4  C   UNL     1     145.427  73.377 219.266 -0.33 +0.01    +0.062 C  
DOCKED: ATOM      5  C   UNL     1     144.446  73.868 220.298 -0.40 -0.03    +0.125 C  
DOCKED: ENDROOT
DOCKED: BRANCH   1   6
DOCKED: ATOM      6  C   UNL     1     141.970  73.159 219.967 -0.10 -0.05    +0.242 C  
DOCKED: ATOM      7  O   UNL     1     141.383  73.093 218.856 -0.02 +0.06    -0.273 OA 
DOCKED: BRANCH   6   8
DOCKED: ATOM      8  C   UNL     1     141.168  73.507 221.168 -0.19 -0.03    +0.216 C  
DOCKED: BRANCH   8   9
DOCKED: ATOM      9  N   UNL     1     141.312  74.874 221.559 -0.16 +0.07    -0.342 N  
DOCKED: ATOM     10  C   UNL     1     140.133  75.564 221.996 -0.19 -0.05    +0.270 C  
DOCKED: ATOM     11  O   UNL     1     139.014  74.979 222.030 -0.34 +0.06    -0.268 OA 
DOCKED: ATOM     12  H   UNL     1     142.209  75.406 221.550 -0.40 -0.08    +0.164 HD 
DOCKED: BRANCH  10  13
DOCKED: ATOM     13  C   UNL     1     140.226  76.959 222.404 -0.32 -0.03    +0.128 A  
DOCKED: ATOM     14  C   UNL     1     139.099  77.697 222.632 -0.29 -0.01    +0.035 A  
DOCKED: ATOM     15  N   UNL     1     141.418  77.572 222.574 -0.20 +0.12    -0.243 NA 
DOCKED: ATOM     16  C   UNL     1     139.139  79.027 223.023 -0.34 -0.00    +0.013 A  
DOCKED: ATOM     17  C   UNL     1     141.522  78.855 222.950 -0.50 -0.03    +0.071 A  
DOCKED: ATOM     18  C   UNL     1     140.394  79.616 223.184 -0.45 -0.00    +0.000 A  
DOCKED: ATOM     19  C   UNL     1     142.774  79.412 223.103 -0.55 -0.01    +0.029 A  
DOCKED: ATOM     20  C   UNL     1     140.536  80.933 223.569 -0.42 -0.00    +0.010 A  
DOCKED: ATOM     21  C   UNL     1     142.945  80.738 223.491 -0.65 -0.00    +0.002 A  
DOCKED: ATOM     22  C   UNL     1     141.789  81.489 223.722 -0.54 -0.00    +0.001 A  
DOCKED: ENDBRANCH  10  13
DOCKED: ENDBRANCH   8   9
DOCKED: ENDBRANCH   6   8
DOCKED: ENDBRANCH   1   6
DOCKED: BRANCH   5  23
DOCKED: ATOM     23  C   UNL     1     144.028  75.284 220.104 -0.19 -0.15    +0.254 C  
DOCKED: BRANCH  23  24
DOCKED: ATOM     24  O   UNL     1     143.264  75.516 218.965 -0.11 +0.24    -0.491 OA 
DOCKED: BRANCH  24  25
DOCKED: ATOM     25  C   UNL     1     142.827  76.824 218.736 -0.29 -0.07    +0.119 A  
DOCKED: ATOM     26  C   UNL     1     142.238  77.551 219.770 -0.29 -0.03    +0.048 A  
DOCKED: ATOM     27  C   UNL     1     142.951  77.448 217.511 -0.28 -0.04    +0.048 A  
DOCKED: ATOM     28  C   UNL     1     141.792  78.858 219.567 -0.28 -0.01    +0.024 A  
DOCKED: ATOM     29  C   UNL     1     142.524  78.737 217.272 -0.26 -0.02    +0.024 A  
DOCKED: ATOM     30  C   UNL     1     141.945  79.430 218.315 -0.27 -0.03    +0.041 A  
DOCKED: ATOM     31  Cl  UNL     1     141.409  81.072 217.982 -0.26 +0.05    -0.084 Cl 
DOCKED: ENDBRANCH  24  25
DOCKED: ENDBRANCH  23  24
DOCKED: ENDBRANCH   5  23
DOCKED: BRANCH   3  32
DOCKED: ATOM     32  O   UNL     1     146.352  71.200 219.635 -0.28 -0.36    -0.391 OA 
DOCKED: ATOM     33  H   UNL     1     146.430  71.355 220.608 -0.39 +0.01    +0.211 HD 
DOCKED: ENDBRANCH   3  32
DOCKED: TORSDOF 8
DOCKED: TER
DOCKED: ENDMDL
________________________________________________________________________________


    CLUSTERING HISTOGRAM
    ____________________


________________________________________________________________________________
     |           |     |           |     |
Clus | Lowest    | Run | Mean      | Num | Histogram
-ter | Binding   |     | Binding   | in  |
Rank | Energy    |     | Energy    | Clus|    5    10   15   20   25   30   35
_____|___________|_____|___________|_____|____:____|____:____|____:____|____:___
   1 |     -9.12 |   3 |     -8.40 |   7 |#######
   2 |     -7.79 |  20 |     -7.42 |  10 |##########
   3 |     -7.13 |  16 |     -7.13 |   1 |#
   4 |     -5.92 |  13 |     -5.92 |   1 |#
   5 |     -5.60 |  10 |     -5.60 |   1 |#
_____|___________|_____|___________|_____|______________________________________


    RMSD TABLE
    __________


_______________________________________________________________________
     |      |      |           |         |                 |
Rank | Sub- | Run  | Binding   | Cluster | Reference       | Grep
     | Rank |      | Energy    | RMSD    | RMSD            | Pattern
_____|______|______|___________|_________|_________________|___________
   1      1      3       -9.12      0.00    271.92           RANKING
   1      2     15       -8.99      0.26    271.90           RANKING
   1      3      4       -8.94      1.31    271.78           RANKING
   1      4      2       -8.65      0.84    272.01           RANKING
   1      5      9       -7.97      0.97    271.70           RANKING
   1      6      5       -7.87      1.67    271.36           RANKING
   1      7     14       -7.24      1.97    271.13           RANKING
   2      1     20       -7.79      0.00    271.45           RANKING
   2      2      1       -7.78      0.19    271.47           RANKING
   2      3     12       -7.76      1.09    271.48           RANKING
   2      4     17       -7.56      1.08    271.43           RANKING
   2      5     18       -7.52      1.18    271.35           RANKING
   2      6      7       -7.52      0.78    271.52           RANKING
   2      7      8       -7.42      0.85    271.64           RANKING
   2      8      6       -7.39      1.15    271.33           RANKING
   2      9     11       -6.82      0.83    271.41           RANKING
   2     10     19       -6.63      0.93    271.40           RANKING
   3      1     16       -7.13      0.00    270.85           RANKING
   4      1     13       -5.92      0.00    271.10           RANKING
   5      1     10       -5.60      0.00    271.35           RANKING

Run time 0.823 sec
Idle time 0.000 sec
