AutoDock-GPU version: v1.6

**********************************************************
**    AutoDock-GPU AUTODOCKTOOLS-COMPATIBLE DLG FILE    **
**********************************************************


    DOCKING PARAMETERS
    ________________________


Ligand file:                               /home/a/REINVENT4/ReinventStudies/pleaseWork/justmol2mol_4_Compounds_ontop/graph-dock-hn62wh/graph-DockGPU/node-autodockgpu/inputs/WWMVZUZFWROBEU-GNAZDEGENA-N.pdbqt
Grid fld file:                             /home/a/REINVENT4/ReinventStudies/mols/Rad51/maps/rad51_receptor.maps.fld

Random seed:                               42
Number of runs:                            20
Number of energy evaluations:              1132076
Number of generations:                     42000
Size of population:                        150
Rate of crossover:                         80.000000%
Tournament selection probability limit:    60.000000%
Rate of mutation:                          2.000000%
Maximal allowed delta movement:            +/- 6.000000A
Maximal allowed delta angle:               +/- 90.000000

Rate of local search:                      100.000000%
Maximal number of local search iterations: 300
Rho lower bound:                           0.010000
Spread of local search delta movement:     2.000000A
Spread of local search delta angle:        74.999999
Limit of consecutive successes/failures:   4

Handle symmetry during clustering:         YES
RMSD tolerance:                            2.000000A

Program call in command line was:          /home/a/REINVENT4/ReinventStudies/adgpu-v1.6_linux_x64_cuda12_128wi --filelist batch.txt --heuristics 1 --nrun 20 --psize 150 --lsit 300 --seed 42 --heurmax 12000000 


    GRID PARAMETERS
    ________________________


Receptor name:                             rad51_receptor
Number of grid points (x, y, z):           53, 53, 53
Grid center (x, y, z):                     139.950000, 75.640000, 221.970000A
Grid size (x, y, z):                       19.500000, 19.500000, 19.500000A
Grid spacing:                              0.375000A


    LIGAND PARAMETERS
    ________________________


Ligand name:                               /home/a/REINVENT4/ReinventStudies/pleaseWork/justmol2mol_4_Compounds_ontop/graph-dock-hn62wh/graph-DockGPU/node-autodockgpu/inputs/WWMVZUZFWROBEU-GNAZDEGENA-N
Number of atoms:                           29
Number of rotatable bonds:                 5
Number of atom types:                      6


    DUMMY DATA (only for ADT-compatibility)
    ________________________


DPF> outlev 1
DPF> ga_run 20
DPF> fld /home/a/REINVENT4/ReinventStudies/mols/Rad51/maps/rad51_receptor.maps.fld
DPF> move /home/a/REINVENT4/ReinventStudies/pleaseWork/justmol2mol_4_Compounds_ontop/graph-dock-hn62wh/graph-DockGPU/node-autodockgpu/inputs/WWMVZUZFWROBEU-GNAZDEGENA-N.pdbqt


    COUNTER STATES
    ________________________


Number of energy evaluations performed:    641198
Number of generations used:                30


    INPUT LIGAND PDBQT FILE:
    ________________________


INPUT-LIGAND-PDBQT: REMARK SMILES O=C(NCC(=O)N1CCCC[C@@H]1c1ccccc1)c1ccc2ccccc2n1
INPUT-LIGAND-PDBQT: REMARK SMILES IDX 4 1 3 2 2 3 1 4 19 6 20 7 28 8 21 9 27 10 22 11 26 12 23 13
INPUT-LIGAND-PDBQT: REMARK SMILES IDX 25 14 24 15 5 16 6 17 7 18 8 19 12 20 9 21 11 22 10 23 13 24
INPUT-LIGAND-PDBQT: REMARK SMILES IDX 14 25 18 26 15 27 17 28 16 29
INPUT-LIGAND-PDBQT: REMARK H PARENT 3 5
INPUT-LIGAND-PDBQT: ROOT
INPUT-LIGAND-PDBQT: ATOM      1  C   UNL     1      -0.242   2.033  -1.463  1.00  0.00     0.216 C 
INPUT-LIGAND-PDBQT: ENDROOT
INPUT-LIGAND-PDBQT: BRANCH   1   2
INPUT-LIGAND-PDBQT: ATOM      2  N   UNL     1       1.004   1.397  -1.258  1.00  0.00    -0.342 N 
INPUT-LIGAND-PDBQT: ATOM      3  C   UNL     1       1.718   1.558  -0.011  1.00  0.00     0.270 C 
INPUT-LIGAND-PDBQT: ATOM      4  O   UNL     1       1.266   2.264   0.926  1.00  0.00    -0.268 OA
INPUT-LIGAND-PDBQT: ATOM      5  H   UNL     1       1.447   0.789  -2.004  1.00  0.00     0.164 HD
INPUT-LIGAND-PDBQT: BRANCH   3   6
INPUT-LIGAND-PDBQT: ATOM      6  C   UNL     1       3.009   0.858   0.128  1.00  0.00     0.128 A 
INPUT-LIGAND-PDBQT: ATOM      7  C   UNL     1       3.709   0.996   1.307  1.00  0.00     0.035 A 
INPUT-LIGAND-PDBQT: ATOM      8  N   UNL     1       3.533   0.100  -0.829  1.00  0.00    -0.243 NA
INPUT-LIGAND-PDBQT: ATOM      9  C   UNL     1       4.922   0.390   1.548  1.00  0.00     0.013 A 
INPUT-LIGAND-PDBQT: ATOM     10  C   UNL     1       4.727  -0.516  -0.633  1.00  0.00     0.071 A 
INPUT-LIGAND-PDBQT: ATOM     11  C   UNL     1       5.443  -0.390   0.539  1.00  0.00     0.000 A 
INPUT-LIGAND-PDBQT: ATOM     12  C   UNL     1       5.289  -1.311  -1.620  1.00  0.00     0.029 A 
INPUT-LIGAND-PDBQT: ATOM     13  C   UNL     1       6.655  -1.005   0.760  1.00  0.00     0.010 A 
INPUT-LIGAND-PDBQT: ATOM     14  C   UNL     1       6.497  -1.930  -1.415  1.00  0.00     0.002 A 
INPUT-LIGAND-PDBQT: ATOM     15  C   UNL     1       7.201  -1.793  -0.232  1.00  0.00     0.001 A 
INPUT-LIGAND-PDBQT: ENDBRANCH   3   6
INPUT-LIGAND-PDBQT: ENDBRANCH   1   2
INPUT-LIGAND-PDBQT: BRANCH   1  16
INPUT-LIGAND-PDBQT: ATOM     16  C   UNL     1      -1.399   1.672  -0.660  1.00  0.00     0.242 C 
INPUT-LIGAND-PDBQT: ATOM     17  O   UNL     1      -2.451   2.413  -0.888  1.00  0.00    -0.273 OA
INPUT-LIGAND-PDBQT: BRANCH  16  18
INPUT-LIGAND-PDBQT: ATOM     18  N   UNL     1      -1.573   0.674   0.302  1.00  0.00    -0.334 N 
INPUT-LIGAND-PDBQT: ATOM     19  C   UNL     1      -0.638  -0.340   0.686  1.00  0.00     0.120 C 
INPUT-LIGAND-PDBQT: ATOM     20  C   UNL     1      -2.858   0.681   1.030  1.00  0.00     0.115 C 
INPUT-LIGAND-PDBQT: ATOM     21  C   UNL     1      -1.271  -1.676   1.055  1.00  0.00     0.022 C 
INPUT-LIGAND-PDBQT: ATOM     22  C   UNL     1      -2.839  -0.158   2.252  1.00  0.00     0.030 C 
INPUT-LIGAND-PDBQT: ATOM     23  C   UNL     1      -2.506  -1.563   1.879  1.00  0.00     0.004 C 
INPUT-LIGAND-PDBQT: BRANCH  20  24
INPUT-LIGAND-PDBQT: ATOM     24  C   UNL     1      -4.014   0.430   0.178  1.00  0.00    -0.025 A 
INPUT-LIGAND-PDBQT: ATOM     25  C   UNL     1      -5.175   1.198   0.345  1.00  0.00     0.006 A 
INPUT-LIGAND-PDBQT: ATOM     26  C   UNL     1      -4.082  -0.522  -0.818  1.00  0.00     0.006 A 
INPUT-LIGAND-PDBQT: ATOM     27  C   UNL     1      -6.295   1.007  -0.433  1.00  0.00     0.000 A 
INPUT-LIGAND-PDBQT: ATOM     28  C   UNL     1      -5.202  -0.720  -1.603  1.00  0.00     0.000 A 
INPUT-LIGAND-PDBQT: ATOM     29  C   UNL     1      -6.332   0.047  -1.421  1.00  0.00     0.000 A 
INPUT-LIGAND-PDBQT: ENDBRANCH  20  24
INPUT-LIGAND-PDBQT: ENDBRANCH  16  18
INPUT-LIGAND-PDBQT: ENDBRANCH   1  16
INPUT-LIGAND-PDBQT: TORSDOF 5


    FINAL DOCKED STATE:
    ________________________


Run:   1 / 20
Time taken for this run:   0.026s

DOCKED: MODEL        1
DOCKED: USER    Run = 1
DOCKED: USER
DOCKED: USER    Estimated Free Energy of Binding    =  -8.60 kcal/mol  [=(1)+(2)+(3)-(4)]
DOCKED: USER
DOCKED: USER    (1) Final Intermolecular Energy     = -10.09 kcal/mol
DOCKED: USER        vdW + Hbond + desolv Energy     = -10.02 kcal/mol
DOCKED: USER        Electrostatic Energy            =  -0.07 kcal/mol
DOCKED: USER        Moving Ligand-Fixed Receptor    = -10.09 kcal/mol
DOCKED: USER        Moving Ligand-Moving Receptor   =  +0.00 kcal/mol
DOCKED: USER    (2) Final Total Internal Energy     =  -1.75 kcal/mol
DOCKED: USER    (3) Torsional Free Energy           =  +1.49 kcal/mol
DOCKED: USER    (4) Unbound System's Energy         =  -1.75 kcal/mol
DOCKED: USER
DOCKED: USER
DOCKED: REMARK SMILES O=C(NCC(=O)N1CCCC[C@@H]1c1ccccc1)c1ccc2ccccc2n1
DOCKED: REMARK SMILES IDX 4 1 3 2 2 3 1 4 19 6 20 7 28 8 21 9 27 10 22 11 26 12 23 13
DOCKED: REMARK SMILES IDX 25 14 24 15 5 16 6 17 7 18 8 19 12 20 9 21 11 22 10 23 13 24
DOCKED: REMARK SMILES IDX 14 25 18 26 15 27 17 28 16 29
DOCKED: REMARK H PARENT 3 5
DOCKED: USER                              x       y       z     vdW  Elec       q    Type
DOCKED: USER                           _______ _______ _______ _____ _____    ______ ____
DOCKED: ROOT
DOCKED: ATOM      1  C   UNL     1     139.702  74.168 221.113 -0.16 -0.04    +0.216 C  
DOCKED: ENDROOT
DOCKED: BRANCH   1   2
DOCKED: ATOM      2  N   UNL     1     139.687  73.415 222.310 -0.14 +0.05    -0.342 N  
DOCKED: ATOM      3  C   UNL     1     140.270  72.092 222.356 -0.21 -0.03    +0.270 C  
DOCKED: ATOM      4  O   UNL     1     140.802  71.566 221.345 -0.13 +0.03    -0.268 OA 
DOCKED: ATOM      5  H   UNL     1     139.254  73.793 223.200 -0.49 -0.07    +0.164 HD 
DOCKED: BRANCH   3   6
DOCKED: ATOM      6  C   UNL     1     140.221  71.372 223.642 -0.33 -0.02    +0.128 A  
DOCKED: ATOM      7  C   UNL     1     139.669  70.109 223.669 -0.27 -0.01    +0.035 A  
DOCKED: ATOM      8  N   UNL     1     140.681  71.881 224.780 -0.27 +0.03    -0.243 NA 
DOCKED: ATOM      9  C   UNL     1     139.570  69.346 224.811 -0.37 -0.00    +0.013 A  
DOCKED: ATOM     10  C   UNL     1     140.603  71.162 225.929 -0.55 -0.01    +0.071 A  
DOCKED: ATOM     11  C   UNL     1     140.054  69.897 225.976 -0.50 -0.00    +0.000 A  
DOCKED: ATOM     12  C   UNL     1     141.078  71.676 227.125 -0.76 -0.01    +0.029 A  
DOCKED: ATOM     13  C   UNL     1     139.965  69.150 227.129 -0.58 -0.00    +0.010 A  
DOCKED: ATOM     14  C   UNL     1     140.995  70.944 228.283 -0.65 -0.00    +0.002 A  
DOCKED: ATOM     15  C   UNL     1     140.442  69.676 228.312 -0.61 -0.00    +0.001 A  
DOCKED: ENDBRANCH   3   6
DOCKED: ENDBRANCH   1   2
DOCKED: BRANCH   1  16
DOCKED: ATOM     16  C   UNL     1     140.692  75.213 220.908 -0.19 -0.06    +0.242 C  
DOCKED: ATOM     17  O   UNL     1     141.065  75.810 222.009 -0.40 +0.08    -0.273 OA 
DOCKED: BRANCH  16  18
DOCKED: ATOM     18  N   UNL     1     141.306  75.678 219.742 -0.05 +0.12    -0.334 N  
DOCKED: ATOM     19  C   UNL     1     140.686  75.967 218.485 -0.05 -0.04    +0.120 C  
DOCKED: ATOM     20  C   UNL     1     142.760  75.929 219.823 -0.28 -0.06    +0.115 C  
DOCKED: ATOM     21  C   UNL     1     141.547  75.648 217.268 -0.07 -0.01    +0.022 C  
DOCKED: ATOM     22  C   UNL     1     143.273  76.739 218.692 -0.32 -0.02    +0.030 C  
DOCKED: ATOM     23  C   UNL     1     142.977  76.037 217.410 -0.22 -0.00    +0.004 C  
DOCKED: BRANCH  20  24
DOCKED: ATOM     24  C   UNL     1     143.548  74.729 220.076 -0.39 +0.01    -0.025 A  
DOCKED: ATOM     25  C   UNL     1     144.887  74.853 220.471 -0.36 -0.00    +0.006 A  
DOCKED: ATOM     26  C   UNL     1     143.089  73.433 219.965 -0.26 -0.00    +0.006 A  
DOCKED: ATOM     27  C   UNL     1     145.678  73.755 220.726 -0.67 -0.00    +0.000 A  
DOCKED: ATOM     28  C   UNL     1     143.876  72.326 220.219 -0.32 -0.00    +0.000 A  
DOCKED: ATOM     29  C   UNL     1     145.190  72.472 220.606 -0.42 -0.00    +0.000 A  
DOCKED: ENDBRANCH  20  24
DOCKED: ENDBRANCH  16  18
DOCKED: ENDBRANCH   1  16
DOCKED: TORSDOF 5
DOCKED: TER
DOCKED: ENDMDL
________________________________________________________________________________


    FINAL DOCKED STATE:
    ________________________


Run:   2 / 20
Time taken for this run:   0.026s

DOCKED: MODEL        2
DOCKED: USER    Run = 2
DOCKED: USER
DOCKED: USER    Estimated Free Energy of Binding    =  -8.60 kcal/mol  [=(1)+(2)+(3)-(4)]
DOCKED: USER
DOCKED: USER    (1) Final Intermolecular Energy     = -10.09 kcal/mol
DOCKED: USER        vdW + Hbond + desolv Energy     = -10.03 kcal/mol
DOCKED: USER        Electrostatic Energy            =  -0.06 kcal/mol
DOCKED: USER        Moving Ligand-Fixed Receptor    = -10.09 kcal/mol
DOCKED: USER        Moving Ligand-Moving Receptor   =  +0.00 kcal/mol
DOCKED: USER    (2) Final Total Internal Energy     =  -1.75 kcal/mol
DOCKED: USER    (3) Torsional Free Energy           =  +1.49 kcal/mol
DOCKED: USER    (4) Unbound System's Energy         =  -1.75 kcal/mol
DOCKED: USER
DOCKED: USER
DOCKED: REMARK SMILES O=C(NCC(=O)N1CCCC[C@@H]1c1ccccc1)c1ccc2ccccc2n1
DOCKED: REMARK SMILES IDX 4 1 3 2 2 3 1 4 19 6 20 7 28 8 21 9 27 10 22 11 26 12 23 13
DOCKED: REMARK SMILES IDX 25 14 24 15 5 16 6 17 7 18 8 19 12 20 9 21 11 22 10 23 13 24
DOCKED: REMARK SMILES IDX 14 25 18 26 15 27 17 28 16 29
DOCKED: REMARK H PARENT 3 5
DOCKED: USER                              x       y       z     vdW  Elec       q    Type
DOCKED: USER                           _______ _______ _______ _____ _____    ______ ____
DOCKED: ROOT
DOCKED: ATOM      1  C   UNL     1     139.771  74.112 221.061 -0.16 -0.04    +0.216 C  
DOCKED: ENDROOT
DOCKED: BRANCH   1   2
DOCKED: ATOM      2  N   UNL     1     139.745  73.380 222.271 -0.15 +0.05    -0.342 N  
DOCKED: ATOM      3  C   UNL     1     140.266  72.033 222.329 -0.21 -0.03    +0.270 C  
DOCKED: ATOM      4  O   UNL     1     140.752  71.465 221.318 -0.12 +0.04    -0.268 OA 
DOCKED: ATOM      5  H   UNL     1     139.349  73.794 223.162 -0.50 -0.06    +0.164 HD 
DOCKED: BRANCH   3   6
DOCKED: ATOM      6  C   UNL     1     140.208  71.338 223.629 -0.33 -0.02    +0.128 A  
DOCKED: ATOM      7  C   UNL     1     139.643  70.082 223.679 -0.27 -0.01    +0.035 A  
DOCKED: ATOM      8  N   UNL     1     140.674  71.863 224.757 -0.27 +0.03    -0.243 NA 
DOCKED: ATOM      9  C   UNL     1     139.535  69.341 224.835 -0.37 -0.00    +0.013 A  
DOCKED: ATOM     10  C   UNL     1     140.589  71.166 225.919 -0.55 -0.01    +0.071 A  
DOCKED: ATOM     11  C   UNL     1     140.026  69.909 225.990 -0.50 -0.00    +0.000 A  
DOCKED: ATOM     12  C   UNL     1     141.070  71.698 227.105 -0.76 -0.01    +0.029 A  
DOCKED: ATOM     13  C   UNL     1     139.928  69.184 227.157 -0.58 -0.00    +0.010 A  
DOCKED: ATOM     14  C   UNL     1     140.979  70.988 228.277 -0.66 -0.00    +0.002 A  
DOCKED: ATOM     15  C   UNL     1     140.412  69.727 228.329 -0.60 -0.00    +0.001 A  
DOCKED: ENDBRANCH   3   6
DOCKED: ENDBRANCH   1   2
DOCKED: BRANCH   1  16
DOCKED: ATOM     16  C   UNL     1     140.736  75.181 220.862 -0.18 -0.06    +0.242 C  
DOCKED: ATOM     17  O   UNL     1     141.100  75.775 221.968 -0.40 +0.08    -0.273 OA 
DOCKED: BRANCH  16  18
DOCKED: ATOM     18  N   UNL     1     141.335  75.672 219.700 -0.05 +0.12    -0.334 N  
DOCKED: ATOM     19  C   UNL     1     140.699  75.984 218.455 -0.05 -0.04    +0.120 C  
DOCKED: ATOM     20  C   UNL     1     142.788  75.928 219.768 -0.29 -0.06    +0.115 C  
DOCKED: ATOM     21  C   UNL     1     141.546  75.694 217.223 -0.07 -0.01    +0.022 C  
DOCKED: ATOM     22  C   UNL     1     143.285  76.762 218.648 -0.31 -0.02    +0.030 C  
DOCKED: ATOM     23  C   UNL     1     142.977  76.085 217.355 -0.22 -0.00    +0.004 C  
DOCKED: BRANCH  20  24
DOCKED: ATOM     24  C   UNL     1     143.584  74.726 219.987 -0.38 +0.01    -0.025 A  
DOCKED: ATOM     25  C   UNL     1     144.894  74.844 220.471 -0.36 -0.00    +0.006 A  
DOCKED: ATOM     26  C   UNL     1     143.159  73.433 219.760 -0.25 -0.00    +0.006 A  
DOCKED: ATOM     27  C   UNL     1     145.690  73.743 220.700 -0.66 -0.00    +0.000 A  
DOCKED: ATOM     28  C   UNL     1     143.951  72.324 219.987 -0.30 -0.00    +0.000 A  
DOCKED: ATOM     29  C   UNL     1     145.236  72.464 220.464 -0.45 -0.00    +0.000 A  
DOCKED: ENDBRANCH  20  24
DOCKED: ENDBRANCH  16  18
DOCKED: ENDBRANCH   1  16
DOCKED: TORSDOF 5
DOCKED: TER
DOCKED: ENDMDL
________________________________________________________________________________


    FINAL DOCKED STATE:
    ________________________


Run:   3 / 20
Time taken for this run:   0.026s

DOCKED: MODEL        3
DOCKED: USER    Run = 3
DOCKED: USER
DOCKED: USER    Estimated Free Energy of Binding    =  -8.57 kcal/mol  [=(1)+(2)+(3)-(4)]
DOCKED: USER
DOCKED: USER    (1) Final Intermolecular Energy     = -10.06 kcal/mol
DOCKED: USER        vdW + Hbond + desolv Energy     =  -9.99 kcal/mol
DOCKED: USER        Electrostatic Energy            =  -0.07 kcal/mol
DOCKED: USER        Moving Ligand-Fixed Receptor    = -10.06 kcal/mol
DOCKED: USER        Moving Ligand-Moving Receptor   =  +0.00 kcal/mol
DOCKED: USER    (2) Final Total Internal Energy     =  -1.77 kcal/mol
DOCKED: USER    (3) Torsional Free Energy           =  +1.49 kcal/mol
DOCKED: USER    (4) Unbound System's Energy         =  -1.77 kcal/mol
DOCKED: USER
DOCKED: USER
DOCKED: REMARK SMILES O=C(NCC(=O)N1CCCC[C@@H]1c1ccccc1)c1ccc2ccccc2n1
DOCKED: REMARK SMILES IDX 4 1 3 2 2 3 1 4 19 6 20 7 28 8 21 9 27 10 22 11 26 12 23 13
DOCKED: REMARK SMILES IDX 25 14 24 15 5 16 6 17 7 18 8 19 12 20 9 21 11 22 10 23 13 24
DOCKED: REMARK SMILES IDX 14 25 18 26 15 27 17 28 16 29
DOCKED: REMARK H PARENT 3 5
DOCKED: USER                              x       y       z     vdW  Elec       q    Type
DOCKED: USER                           _______ _______ _______ _____ _____    ______ ____
DOCKED: ROOT
DOCKED: ATOM      1  C   UNL     1     139.712  74.171 221.120 -0.16 -0.04    +0.216 C  
DOCKED: ENDROOT
DOCKED: BRANCH   1   2
DOCKED: ATOM      2  N   UNL     1     139.693  73.415 222.315 -0.14 +0.05    -0.342 N  
DOCKED: ATOM      3  C   UNL     1     140.294  72.101 222.366 -0.21 -0.03    +0.270 C  
DOCKED: ATOM      4  O   UNL     1     140.846  71.584 221.361 -0.13 +0.03    -0.268 OA 
DOCKED: ATOM      5  H   UNL     1     139.244  73.786 223.200 -0.49 -0.08    +0.164 HD 
DOCKED: BRANCH   3   6
DOCKED: ATOM      6  C   UNL     1     140.239  71.378 223.651 -0.33 -0.02    +0.128 A  
DOCKED: ATOM      7  C   UNL     1     139.686  70.116 223.673 -0.27 -0.01    +0.035 A  
DOCKED: ATOM      8  N   UNL     1     140.696  71.884 224.791 -0.27 +0.03    -0.243 NA 
DOCKED: ATOM      9  C   UNL     1     139.581  69.350 224.812 -0.37 -0.00    +0.013 A  
DOCKED: ATOM     10  C   UNL     1     140.613  71.162 225.938 -0.56 -0.01    +0.071 A  
DOCKED: ATOM     11  C   UNL     1     140.062  69.898 225.981 -0.50 -0.00    +0.000 A  
DOCKED: ATOM     12  C   UNL     1     141.085  71.673 227.137 -0.75 -0.01    +0.029 A  
DOCKED: ATOM     13  C   UNL     1     139.968  69.148 227.132 -0.58 -0.00    +0.010 A  
DOCKED: ATOM     14  C   UNL     1     140.997  70.938 228.293 -0.65 -0.00    +0.002 A  
DOCKED: ATOM     15  C   UNL     1     140.442  69.671 228.317 -0.61 -0.00    +0.001 A  
DOCKED: ENDBRANCH   3   6
DOCKED: ENDBRANCH   1   2
DOCKED: BRANCH   1  16
DOCKED: ATOM     16  C   UNL     1     140.718  75.198 220.909 -0.19 -0.06    +0.242 C  
DOCKED: ATOM     17  O   UNL     1     141.118  75.779 222.009 -0.40 +0.08    -0.273 OA 
DOCKED: BRANCH  16  18
DOCKED: ATOM     18  N   UNL     1     141.324  75.662 219.739 -0.05 +0.12    -0.334 N  
DOCKED: ATOM     19  C   UNL     1     140.690  75.985 218.496 -0.05 -0.04    +0.120 C  
DOCKED: ATOM     20  C   UNL     1     142.785  75.873 219.796 -0.29 -0.06    +0.115 C  
DOCKED: ATOM     21  C   UNL     1     141.519  75.660 217.260 -0.07 -0.01    +0.022 C  
DOCKED: ATOM     22  C   UNL     1     143.300  76.684 218.666 -0.32 -0.02    +0.030 C  
DOCKED: ATOM     23  C   UNL     1     142.962  76.007 217.381 -0.21 -0.00    +0.004 C  
DOCKED: BRANCH  20  24
DOCKED: ATOM     24  C   UNL     1     143.544  74.649 220.018 -0.38 +0.01    -0.025 A  
DOCKED: ATOM     25  C   UNL     1     144.864  74.730 220.483 -0.41 -0.00    +0.006 A  
DOCKED: ATOM     26  C   UNL     1     143.075  73.368 219.813 -0.25 -0.00    +0.006 A  
DOCKED: ATOM     27  C   UNL     1     145.627  73.607 220.714 -0.66 -0.00    +0.000 A  
DOCKED: ATOM     28  C   UNL     1     143.834  72.236 220.042 -0.30 -0.00    +0.000 A  
DOCKED: ATOM     29  C   UNL     1     145.129  72.340 220.500 -0.40 -0.00    +0.000 A  
DOCKED: ENDBRANCH  20  24
DOCKED: ENDBRANCH  16  18
DOCKED: ENDBRANCH   1  16
DOCKED: TORSDOF 5
DOCKED: TER
DOCKED: ENDMDL
________________________________________________________________________________


    FINAL DOCKED STATE:
    ________________________


Run:   4 / 20
Time taken for this run:   0.026s

DOCKED: MODEL        4
DOCKED: USER    Run = 4
DOCKED: USER
DOCKED: USER    Estimated Free Energy of Binding    =  -8.67 kcal/mol  [=(1)+(2)+(3)-(4)]
DOCKED: USER
DOCKED: USER    (1) Final Intermolecular Energy     = -10.16 kcal/mol
DOCKED: USER        vdW + Hbond + desolv Energy     = -10.08 kcal/mol
DOCKED: USER        Electrostatic Energy            =  -0.08 kcal/mol
DOCKED: USER        Moving Ligand-Fixed Receptor    = -10.16 kcal/mol
DOCKED: USER        Moving Ligand-Moving Receptor   =  +0.00 kcal/mol
DOCKED: USER    (2) Final Total Internal Energy     =  -1.70 kcal/mol
DOCKED: USER    (3) Torsional Free Energy           =  +1.49 kcal/mol
DOCKED: USER    (4) Unbound System's Energy         =  -1.70 kcal/mol
DOCKED: USER
DOCKED: USER
DOCKED: REMARK SMILES O=C(NCC(=O)N1CCCC[C@@H]1c1ccccc1)c1ccc2ccccc2n1
DOCKED: REMARK SMILES IDX 4 1 3 2 2 3 1 4 19 6 20 7 28 8 21 9 27 10 22 11 26 12 23 13
DOCKED: REMARK SMILES IDX 25 14 24 15 5 16 6 17 7 18 8 19 12 20 9 21 11 22 10 23 13 24
DOCKED: REMARK SMILES IDX 14 25 18 26 15 27 17 28 16 29
DOCKED: REMARK H PARENT 3 5
DOCKED: USER                              x       y       z     vdW  Elec       q    Type
DOCKED: USER                           _______ _______ _______ _____ _____    ______ ____
DOCKED: ROOT
DOCKED: ATOM      1  C   UNL     1     139.650  74.107 221.038 -0.15 -0.04    +0.216 C  
DOCKED: ENDROOT
DOCKED: BRANCH   1   2
DOCKED: ATOM      2  N   UNL     1     139.605  73.363 222.240 -0.14 +0.06    -0.342 N  
DOCKED: ATOM      3  C   UNL     1     140.316  72.110 222.358 -0.21 -0.03    +0.270 C  
DOCKED: ATOM      4  O   UNL     1     140.990  71.637 221.408 -0.14 +0.03    -0.268 OA 
DOCKED: ATOM      5  H   UNL     1     139.055  73.699 223.081 -0.53 -0.08    +0.164 HD 
DOCKED: BRANCH   3   6
DOCKED: ATOM      6  C   UNL     1     140.224  71.396 223.646 -0.33 -0.02    +0.128 A  
DOCKED: ATOM      7  C   UNL     1     139.631  70.153 223.668 -0.28 -0.01    +0.035 A  
DOCKED: ATOM      8  N   UNL     1     140.685  71.893 224.789 -0.27 +0.03    -0.243 NA 
DOCKED: ATOM      9  C   UNL     1     139.490  69.396 224.810 -0.37 -0.00    +0.013 A  
DOCKED: ATOM     10  C   UNL     1     140.567  71.180 225.938 -0.55 -0.01    +0.071 A  
DOCKED: ATOM     11  C   UNL     1     139.976  69.935 225.981 -0.50 -0.00    +0.000 A  
DOCKED: ATOM     12  C   UNL     1     141.043  71.682 227.140 -0.76 -0.01    +0.029 A  
DOCKED: ATOM     13  C   UNL     1     139.846  69.194 227.135 -0.57 -0.00    +0.010 A  
DOCKED: ATOM     14  C   UNL     1     140.919  70.956 228.298 -0.65 -0.00    +0.002 A  
DOCKED: ATOM     15  C   UNL     1     140.324  69.708 228.322 -0.61 -0.00    +0.001 A  
DOCKED: ENDBRANCH   3   6
DOCKED: ENDBRANCH   1   2
DOCKED: BRANCH   1  16
DOCKED: ATOM     16  C   UNL     1     140.631  75.164 220.858 -0.18 -0.06    +0.242 C  
DOCKED: ATOM     17  O   UNL     1     140.964  75.770 221.967 -0.42 +0.07    -0.273 OA 
DOCKED: BRANCH  16  18
DOCKED: ATOM     18  N   UNL     1     141.274  75.633 219.709 -0.05 +0.12    -0.334 N  
DOCKED: ATOM     19  C   UNL     1     140.690  75.898 218.429 -0.05 -0.04    +0.120 C  
DOCKED: ATOM     20  C   UNL     1     142.718  75.918 219.835 -0.28 -0.06    +0.115 C  
DOCKED: ATOM     21  C   UNL     1     141.597  75.589 217.245 -0.07 -0.01    +0.022 C  
DOCKED: ATOM     22  C   UNL     1     143.250  76.730 218.715 -0.32 -0.02    +0.030 C  
DOCKED: ATOM     23  C   UNL     1     143.013  76.010 217.430 -0.22 -0.00    +0.004 C  
DOCKED: BRANCH  20  24
DOCKED: ATOM     24  C   UNL     1     143.524  74.738 220.125 -0.38 +0.01    -0.025 A  
DOCKED: ATOM     25  C   UNL     1     144.872  74.892 220.476 -0.34 -0.00    +0.006 A  
DOCKED: ATOM     26  C   UNL     1     143.074  73.435 220.091 -0.28 -0.00    +0.006 A  
DOCKED: ATOM     27  C   UNL     1     145.679  73.814 220.763 -0.66 -0.00    +0.000 A  
DOCKED: ATOM     28  C   UNL     1     143.878  72.347 220.377 -0.34 -0.00    +0.000 A  
DOCKED: ATOM     29  C   UNL     1     145.201  72.523 220.720 -0.43 -0.00    +0.000 A  
DOCKED: ENDBRANCH  20  24
DOCKED: ENDBRANCH  16  18
DOCKED: ENDBRANCH   1  16
DOCKED: TORSDOF 5
DOCKED: TER
DOCKED: ENDMDL
________________________________________________________________________________


    FINAL DOCKED STATE:
    ________________________


Run:   5 / 20
Time taken for this run:   0.026s

DOCKED: MODEL        5
DOCKED: USER    Run = 5
DOCKED: USER
DOCKED: USER    Estimated Free Energy of Binding    =  -8.62 kcal/mol  [=(1)+(2)+(3)-(4)]
DOCKED: USER
DOCKED: USER    (1) Final Intermolecular Energy     = -10.11 kcal/mol
DOCKED: USER        vdW + Hbond + desolv Energy     = -10.02 kcal/mol
DOCKED: USER        Electrostatic Energy            =  -0.09 kcal/mol
DOCKED: USER        Moving Ligand-Fixed Receptor    = -10.11 kcal/mol
DOCKED: USER        Moving Ligand-Moving Receptor   =  +0.00 kcal/mol
DOCKED: USER    (2) Final Total Internal Energy     =  -1.68 kcal/mol
DOCKED: USER    (3) Torsional Free Energy           =  +1.49 kcal/mol
DOCKED: USER    (4) Unbound System's Energy         =  -1.68 kcal/mol
DOCKED: USER
DOCKED: USER
DOCKED: REMARK SMILES O=C(NCC(=O)N1CCCC[C@@H]1c1ccccc1)c1ccc2ccccc2n1
DOCKED: REMARK SMILES IDX 4 1 3 2 2 3 1 4 19 6 20 7 28 8 21 9 27 10 22 11 26 12 23 13
DOCKED: REMARK SMILES IDX 25 14 24 15 5 16 6 17 7 18 8 19 12 20 9 21 11 22 10 23 13 24
DOCKED: REMARK SMILES IDX 14 25 18 26 15 27 17 28 16 29
DOCKED: REMARK H PARENT 3 5
DOCKED: USER                              x       y       z     vdW  Elec       q    Type
DOCKED: USER                           _______ _______ _______ _____ _____    ______ ____
DOCKED: ROOT
DOCKED: ATOM      1  C   UNL     1     139.684  74.094 221.053 -0.15 -0.04    +0.216 C  
DOCKED: ENDROOT
DOCKED: BRANCH   1   2
DOCKED: ATOM      2  N   UNL     1     139.591  73.341 222.246 -0.14 +0.06    -0.342 N  
DOCKED: ATOM      3  C   UNL     1     140.385  72.146 222.427 -0.21 -0.03    +0.270 C  
DOCKED: ATOM      4  O   UNL     1     141.175  71.734 221.541 -0.16 +0.03    -0.268 OA 
DOCKED: ATOM      5  H   UNL     1     138.945  73.627 223.035 -0.52 -0.09    +0.164 HD 
DOCKED: BRANCH   3   6
DOCKED: ATOM      6  C   UNL     1     140.236  71.418 223.702 -0.34 -0.02    +0.128 A  
DOCKED: ATOM      7  C   UNL     1     139.563  70.216 223.698 -0.29 -0.01    +0.035 A  
DOCKED: ATOM      8  N   UNL     1     140.718  71.865 224.856 -0.27 +0.03    -0.243 NA 
DOCKED: ATOM      9  C   UNL     1     139.364  69.451 224.826 -0.37 -0.00    +0.013 A  
DOCKED: ATOM     10  C   UNL     1     140.545  71.143 225.992 -0.55 -0.01    +0.071 A  
DOCKED: ATOM     11  C   UNL     1     139.874  69.938 226.010 -0.49 -0.00    +0.000 A  
DOCKED: ATOM     12  C   UNL     1     141.041  71.593 227.206 -0.75 -0.01    +0.029 A  
DOCKED: ATOM     13  C   UNL     1     139.686  69.188 227.149 -0.56 -0.00    +0.010 A  
DOCKED: ATOM     14  C   UNL     1     140.861  70.858 228.351 -0.61 -0.00    +0.002 A  
DOCKED: ATOM     15  C   UNL     1     140.186  69.650 228.349 -0.61 -0.00    +0.001 A  
DOCKED: ENDBRANCH   3   6
DOCKED: ENDBRANCH   1   2
DOCKED: BRANCH   1  16
DOCKED: ATOM     16  C   UNL     1     140.706  75.117 220.900 -0.19 -0.06    +0.242 C  
DOCKED: ATOM     17  O   UNL     1     141.119  75.623 222.032 -0.43 +0.07    -0.273 OA 
DOCKED: BRANCH  16  18
DOCKED: ATOM     18  N   UNL     1     141.315  75.642 219.758 -0.06 +0.12    -0.334 N  
DOCKED: ATOM     19  C   UNL     1     140.690  75.990 218.518 -0.05 -0.04    +0.120 C  
DOCKED: ATOM     20  C   UNL     1     142.767  75.897 219.847 -0.28 -0.06    +0.115 C  
DOCKED: ATOM     21  C   UNL     1     141.549  75.736 217.285 -0.07 -0.01    +0.022 C  
DOCKED: ATOM     22  C   UNL     1     143.274  76.764 218.756 -0.32 -0.02    +0.030 C  
DOCKED: ATOM     23  C   UNL     1     142.978  76.124 217.442 -0.23 -0.00    +0.004 C  
DOCKED: BRANCH  20  24
DOCKED: ATOM     24  C   UNL     1     143.562  74.690 220.039 -0.38 +0.01    -0.025 A  
DOCKED: ATOM     25  C   UNL     1     143.007  73.441 219.726 -0.23 -0.00    +0.006 A  
DOCKED: ATOM     26  C   UNL     1     144.857  74.652 220.511 -0.42 -0.00    +0.006 A  
DOCKED: ATOM     27  C   UNL     1     143.712  72.269 219.884 -0.27 -0.00    +0.000 A  
DOCKED: ATOM     28  C   UNL     1     145.572  73.480 220.672 -0.64 -0.00    +0.000 A  
DOCKED: ATOM     29  C   UNL     1     145.006  72.263 220.358 -0.40 -0.00    +0.000 A  
DOCKED: ENDBRANCH  20  24
DOCKED: ENDBRANCH  16  18
DOCKED: ENDBRANCH   1  16
DOCKED: TORSDOF 5
DOCKED: TER
DOCKED: ENDMDL
________________________________________________________________________________


    FINAL DOCKED STATE:
    ________________________


Run:   6 / 20
Time taken for this run:   0.026s

DOCKED: MODEL        6
DOCKED: USER    Run = 6
DOCKED: USER
DOCKED: USER    Estimated Free Energy of Binding    =  -8.61 kcal/mol  [=(1)+(2)+(3)-(4)]
DOCKED: USER
DOCKED: USER    (1) Final Intermolecular Energy     = -10.10 kcal/mol
DOCKED: USER        vdW + Hbond + desolv Energy     = -10.02 kcal/mol
DOCKED: USER        Electrostatic Energy            =  -0.08 kcal/mol
DOCKED: USER        Moving Ligand-Fixed Receptor    = -10.10 kcal/mol
DOCKED: USER        Moving Ligand-Moving Receptor   =  +0.00 kcal/mol
DOCKED: USER    (2) Final Total Internal Energy     =  -1.70 kcal/mol
DOCKED: USER    (3) Torsional Free Energy           =  +1.49 kcal/mol
DOCKED: USER    (4) Unbound System's Energy         =  -1.70 kcal/mol
DOCKED: USER
DOCKED: USER
DOCKED: REMARK SMILES O=C(NCC(=O)N1CCCC[C@@H]1c1ccccc1)c1ccc2ccccc2n1
DOCKED: REMARK SMILES IDX 4 1 3 2 2 3 1 4 19 6 20 7 28 8 21 9 27 10 22 11 26 12 23 13
DOCKED: REMARK SMILES IDX 25 14 24 15 5 16 6 17 7 18 8 19 12 20 9 21 11 22 10 23 13 24
DOCKED: REMARK SMILES IDX 14 25 18 26 15 27 17 28 16 29
DOCKED: REMARK H PARENT 3 5
DOCKED: USER                              x       y       z     vdW  Elec       q    Type
DOCKED: USER                           _______ _______ _______ _____ _____    ______ ____
DOCKED: ROOT
DOCKED: ATOM      1  C   UNL     1     139.677  74.052 220.952 -0.14 -0.04    +0.216 C  
DOCKED: ENDROOT
DOCKED: BRANCH   1   2
DOCKED: ATOM      2  N   UNL     1     139.548  73.294 222.138 -0.14 +0.06    -0.342 N  
DOCKED: ATOM      3  C   UNL     1     140.462  72.210 222.424 -0.21 -0.03    +0.270 C  
DOCKED: ATOM      4  O   UNL     1     141.393  71.902 221.636 -0.18 +0.02    -0.268 OA 
DOCKED: ATOM      5  H   UNL     1     138.787  73.495 222.847 -0.52 -0.08    +0.164 HD 
DOCKED: BRANCH   3   6
DOCKED: ATOM      6  C   UNL     1     140.266  71.470 223.684 -0.34 -0.02    +0.128 A  
DOCKED: ATOM      7  C   UNL     1     139.594  70.268 223.644 -0.29 -0.01    +0.035 A  
DOCKED: ATOM      8  N   UNL     1     140.705  71.906 224.860 -0.26 +0.03    -0.243 NA 
DOCKED: ATOM      9  C   UNL     1     139.353  69.493 224.756 -0.37 -0.00    +0.013 A  
DOCKED: ATOM     10  C   UNL     1     140.489  71.172 225.982 -0.55 -0.01    +0.071 A  
DOCKED: ATOM     11  C   UNL     1     139.818  69.967 225.963 -0.48 -0.00    +0.000 A  
DOCKED: ATOM     12  C   UNL     1     140.941  71.610 227.218 -0.75 -0.01    +0.029 A  
DOCKED: ATOM     13  C   UNL     1     139.588  69.207 227.087 -0.55 -0.00    +0.010 A  
DOCKED: ATOM     14  C   UNL     1     140.718  70.863 228.348 -0.62 -0.00    +0.002 A  
DOCKED: ATOM     15  C   UNL     1     140.043  69.656 228.309 -0.62 -0.00    +0.001 A  
DOCKED: ENDBRANCH   3   6
DOCKED: ENDBRANCH   1   2
DOCKED: BRANCH   1  16
DOCKED: ATOM     16  C   UNL     1     140.691  75.088 220.841 -0.18 -0.06    +0.242 C  
DOCKED: ATOM     17  O   UNL     1     141.088  75.563 221.992 -0.46 +0.06    -0.273 OA 
DOCKED: BRANCH  16  18
DOCKED: ATOM     18  N   UNL     1     141.308  75.652 219.721 -0.05 +0.12    -0.334 N  
DOCKED: ATOM     19  C   UNL     1     140.685  76.076 218.503 -0.05 -0.04    +0.120 C  
DOCKED: ATOM     20  C   UNL     1     142.766  75.865 219.813 -0.29 -0.06    +0.115 C  
DOCKED: ATOM     21  C   UNL     1     141.531  75.861 217.254 -0.07 -0.01    +0.022 C  
DOCKED: ATOM     22  C   UNL     1     143.289  76.771 218.763 -0.32 -0.02    +0.030 C  
DOCKED: ATOM     23  C   UNL     1     142.970  76.204 217.421 -0.23 -0.00    +0.004 C  
DOCKED: BRANCH  20  24
DOCKED: ATOM     24  C   UNL     1     143.531  74.631 219.941 -0.37 +0.01    -0.025 A  
DOCKED: ATOM     25  C   UNL     1     144.828  74.673 220.471 -0.45 -0.00    +0.006 A  
DOCKED: ATOM     26  C   UNL     1     143.087  73.375 219.582 -0.22 -0.00    +0.006 A  
DOCKED: ATOM     27  C   UNL     1     145.594  73.538 220.617 -0.64 -0.00    +0.000 A  
DOCKED: ATOM     28  C   UNL     1     143.850  72.231 219.725 -0.26 -0.00    +0.000 A  
DOCKED: ATOM     29  C   UNL     1     145.123  72.297 220.249 -0.41 -0.00    +0.000 A  
DOCKED: ENDBRANCH  20  24
DOCKED: ENDBRANCH  16  18
DOCKED: ENDBRANCH   1  16
DOCKED: TORSDOF 5
DOCKED: TER
DOCKED: ENDMDL
________________________________________________________________________________


    FINAL DOCKED STATE:
    ________________________


Run:   7 / 20
Time taken for this run:   0.026s

DOCKED: MODEL        7
DOCKED: USER    Run = 7
DOCKED: USER
DOCKED: USER    Estimated Free Energy of Binding    =  -8.62 kcal/mol  [=(1)+(2)+(3)-(4)]
DOCKED: USER
DOCKED: USER    (1) Final Intermolecular Energy     = -10.11 kcal/mol
DOCKED: USER        vdW + Hbond + desolv Energy     = -10.03 kcal/mol
DOCKED: USER        Electrostatic Energy            =  -0.08 kcal/mol
DOCKED: USER        Moving Ligand-Fixed Receptor    = -10.11 kcal/mol
DOCKED: USER        Moving Ligand-Moving Receptor   =  +0.00 kcal/mol
DOCKED: USER    (2) Final Total Internal Energy     =  -1.73 kcal/mol
DOCKED: USER    (3) Torsional Free Energy           =  +1.49 kcal/mol
DOCKED: USER    (4) Unbound System's Energy         =  -1.73 kcal/mol
DOCKED: USER
DOCKED: USER
DOCKED: REMARK SMILES O=C(NCC(=O)N1CCCC[C@@H]1c1ccccc1)c1ccc2ccccc2n1
DOCKED: REMARK SMILES IDX 4 1 3 2 2 3 1 4 19 6 20 7 28 8 21 9 27 10 22 11 26 12 23 13
DOCKED: REMARK SMILES IDX 25 14 24 15 5 16 6 17 7 18 8 19 12 20 9 21 11 22 10 23 13 24
DOCKED: REMARK SMILES IDX 14 25 18 26 15 27 17 28 16 29
DOCKED: REMARK H PARENT 3 5
DOCKED: USER                              x       y       z     vdW  Elec       q    Type
DOCKED: USER                           _______ _______ _______ _____ _____    ______ ____
DOCKED: ROOT
DOCKED: ATOM      1  C   UNL     1     139.753  74.002 221.025 -0.15 -0.04    +0.216 C  
DOCKED: ENDROOT
DOCKED: BRANCH   1   2
DOCKED: ATOM      2  N   UNL     1     139.683  73.272 222.234 -0.15 +0.06    -0.342 N  
DOCKED: ATOM      3  C   UNL     1     140.336  71.988 222.360 -0.21 -0.03    +0.270 C  
DOCKED: ATOM      4  O   UNL     1     140.979  71.475 221.409 -0.14 +0.03    -0.268 OA 
DOCKED: ATOM      5  H   UNL     1     139.157  73.642 223.076 -0.52 -0.07    +0.164 HD 
DOCKED: BRANCH   3   6
DOCKED: ATOM      6  C   UNL     1     140.222  71.292 223.655 -0.33 -0.02    +0.128 A  
DOCKED: ATOM      7  C   UNL     1     139.595  70.065 223.690 -0.28 -0.01    +0.035 A  
DOCKED: ATOM      8  N   UNL     1     140.693  71.790 224.793 -0.28 +0.03    -0.243 NA 
DOCKED: ATOM      9  C   UNL     1     139.432  69.326 224.840 -0.38 -0.00    +0.013 A  
DOCKED: ATOM     10  C   UNL     1     140.553  71.094 225.951 -0.55 -0.01    +0.071 A  
DOCKED: ATOM     11  C   UNL     1     139.929  69.865 226.007 -0.49 -0.00    +0.000 A  
DOCKED: ATOM     12  C   UNL     1     141.039  71.597 227.148 -0.75 -0.01    +0.029 A  
DOCKED: ATOM     13  C   UNL     1     139.776  69.142 227.168 -0.57 -0.00    +0.010 A  
DOCKED: ATOM     14  C   UNL     1     140.893  70.888 228.314 -0.63 -0.00    +0.002 A  
DOCKED: ATOM     15  C   UNL     1     140.265  69.656 228.351 -0.61 -0.00    +0.001 A  
DOCKED: ENDBRANCH   3   6
DOCKED: ENDBRANCH   1   2
DOCKED: BRANCH   1  16
DOCKED: ATOM     16  C   UNL     1     140.620  75.162 220.908 -0.18 -0.06    +0.242 C  
DOCKED: ATOM     17  O   UNL     1     140.823  75.785 222.039 -0.43 +0.06    -0.273 OA 
DOCKED: BRANCH  16  18
DOCKED: ATOM     18  N   UNL     1     141.270  75.715 219.802 -0.06 +0.12    -0.334 N  
DOCKED: ATOM     19  C   UNL     1     140.679  76.156 218.574 -0.05 -0.04    +0.120 C  
DOCKED: ATOM     20  C   UNL     1     142.731  75.894 219.920 -0.27 -0.06    +0.115 C  
DOCKED: ATOM     21  C   UNL     1     141.542  75.925 217.339 -0.08 -0.01    +0.022 C  
DOCKED: ATOM     22  C   UNL     1     143.293  76.791 218.882 -0.32 -0.02    +0.030 C  
DOCKED: ATOM     23  C   UNL     1     142.985  76.235 217.533 -0.24 -0.00    +0.004 C  
DOCKED: BRANCH  20  24
DOCKED: ATOM     24  C   UNL     1     143.464  74.642 220.057 -0.37 +0.01    -0.025 A  
DOCKED: ATOM     25  C   UNL     1     144.805  74.668 220.465 -0.45 -0.00    +0.006 A  
DOCKED: ATOM     26  C   UNL     1     142.950  73.384 219.820 -0.24 -0.00    +0.006 A  
DOCKED: ATOM     27  C   UNL     1     145.546  73.516 220.615 -0.63 -0.00    +0.000 A  
DOCKED: ATOM     28  C   UNL     1     143.686  72.224 219.968 -0.27 -0.00    +0.000 A  
DOCKED: ATOM     29  C   UNL     1     145.003  72.273 220.370 -0.40 -0.00    +0.000 A  
DOCKED: ENDBRANCH  20  24
DOCKED: ENDBRANCH  16  18
DOCKED: ENDBRANCH   1  16
DOCKED: TORSDOF 5
DOCKED: TER
DOCKED: ENDMDL
________________________________________________________________________________


    FINAL DOCKED STATE:
    ________________________


Run:   8 / 20
Time taken for this run:   0.026s

DOCKED: MODEL        8
DOCKED: USER    Run = 8
DOCKED: USER
DOCKED: USER    Estimated Free Energy of Binding    =  -8.79 kcal/mol  [=(1)+(2)+(3)-(4)]
DOCKED: USER
DOCKED: USER    (1) Final Intermolecular Energy     = -10.29 kcal/mol
DOCKED: USER        vdW + Hbond + desolv Energy     = -10.24 kcal/mol
DOCKED: USER        Electrostatic Energy            =  -0.05 kcal/mol
DOCKED: USER        Moving Ligand-Fixed Receptor    = -10.29 kcal/mol
DOCKED: USER        Moving Ligand-Moving Receptor   =  +0.00 kcal/mol
DOCKED: USER    (2) Final Total Internal Energy     =  -1.37 kcal/mol
DOCKED: USER    (3) Torsional Free Energy           =  +1.49 kcal/mol
DOCKED: USER    (4) Unbound System's Energy         =  -1.37 kcal/mol
DOCKED: USER
DOCKED: USER
DOCKED: REMARK SMILES O=C(NCC(=O)N1CCCC[C@@H]1c1ccccc1)c1ccc2ccccc2n1
DOCKED: REMARK SMILES IDX 4 1 3 2 2 3 1 4 19 6 20 7 28 8 21 9 27 10 22 11 26 12 23 13
DOCKED: REMARK SMILES IDX 25 14 24 15 5 16 6 17 7 18 8 19 12 20 9 21 11 22 10 23 13 24
DOCKED: REMARK SMILES IDX 14 25 18 26 15 27 17 28 16 29
DOCKED: REMARK H PARENT 3 5
DOCKED: USER                              x       y       z     vdW  Elec       q    Type
DOCKED: USER                           _______ _______ _______ _____ _____    ______ ____
DOCKED: ROOT
DOCKED: ATOM      1  C   UNL     1     140.286  74.271 221.137 -0.19 -0.04    +0.216 C  
DOCKED: ENDROOT
DOCKED: BRANCH   1   2
DOCKED: ATOM      2  N   UNL     1     140.088  73.512 222.313 -0.10 +0.02    -0.342 N  
DOCKED: ATOM      3  C   UNL     1     140.550  72.145 222.395 -0.20 -0.03    +0.270 C  
DOCKED: ATOM      4  O   UNL     1     141.135  71.583 221.434 -0.15 +0.03    -0.268 OA 
DOCKED: ATOM      5  H   UNL     1     139.600  73.919 223.161 -0.49 -0.02    +0.164 HD 
DOCKED: BRANCH   3   6
DOCKED: ATOM      6  C   UNL     1     140.310  71.421 223.657 -0.33 -0.02    +0.128 A  
DOCKED: ATOM      7  C   UNL     1     139.645  70.215 223.609 -0.28 -0.01    +0.035 A  
DOCKED: ATOM      8  N   UNL     1     140.703  71.875 224.843 -0.28 +0.03    -0.243 NA 
DOCKED: ATOM      9  C   UNL     1     139.367  69.453 224.722 -0.36 -0.00    +0.013 A  
DOCKED: ATOM     10  C   UNL     1     140.449  71.155 225.966 -0.54 -0.01    +0.071 A  
DOCKED: ATOM     11  C   UNL     1     139.785  69.947 225.938 -0.48 -0.00    +0.000 A  
DOCKED: ATOM     12  C   UNL     1     140.852  71.613 227.211 -0.75 -0.01    +0.029 A  
DOCKED: ATOM     13  C   UNL     1     139.516  69.201 227.064 -0.54 -0.00    +0.010 A  
DOCKED: ATOM     14  C   UNL     1     140.591  70.881 228.342 -0.63 -0.00    +0.002 A  
DOCKED: ATOM     15  C   UNL     1     139.924  69.670 228.296 -0.62 -0.00    +0.001 A  
DOCKED: ENDBRANCH   3   6
DOCKED: ENDBRANCH   1   2
DOCKED: BRANCH   1  16
DOCKED: ATOM     16  C   UNL     1     140.360  75.722 221.195 -0.21 -0.06    +0.242 C  
DOCKED: ATOM     17  O   UNL     1     139.975  76.224 222.339 -0.36 +0.05    -0.273 OA 
DOCKED: BRANCH  16  18
DOCKED: ATOM     18  N   UNL     1     140.771  76.659 220.244 -0.06 +0.12    -0.334 N  
DOCKED: ATOM     19  C   UNL     1     141.555  76.423 219.069 -0.15 -0.05    +0.120 C  
DOCKED: ATOM     20  C   UNL     1     140.323  78.050 220.457 -0.15 -0.04    +0.115 C  
DOCKED: ATOM     21  C   UNL     1     142.507  77.556 218.706 -0.32 -0.01    +0.022 C  
DOCKED: ATOM     22  C   UNL     1     140.488  78.904 219.256 -0.13 -0.01    +0.030 C  
DOCKED: ATOM     23  C   UNL     1     141.924  78.918 218.855 -0.28 -0.00    +0.004 C  
DOCKED: BRANCH  20  24
DOCKED: ATOM     24  C   UNL     1     140.855  78.657 221.671 -0.32 +0.01    -0.025 A  
DOCKED: ATOM     25  C   UNL     1     139.973  79.089 222.671 -0.36 -0.00    +0.006 A  
DOCKED: ATOM     26  C   UNL     1     142.192  78.852 221.948 -0.39 -0.00    +0.006 A  
DOCKED: ATOM     27  C   UNL     1     140.419  79.665 223.839 -0.48 -0.00    +0.000 A  
DOCKED: ATOM     28  C   UNL     1     142.648  79.430 223.118 -0.60 -0.00    +0.000 A  
DOCKED: ATOM     29  C   UNL     1     141.762  79.847 224.087 -0.49 -0.00    +0.000 A  
DOCKED: ENDBRANCH  20  24
DOCKED: ENDBRANCH  16  18
DOCKED: ENDBRANCH   1  16
DOCKED: TORSDOF 5
DOCKED: TER
DOCKED: ENDMDL
________________________________________________________________________________


    FINAL DOCKED STATE:
    ________________________


Run:   9 / 20
Time taken for this run:   0.026s

DOCKED: MODEL        9
DOCKED: USER    Run = 9
DOCKED: USER
DOCKED: USER    Estimated Free Energy of Binding    =  -8.54 kcal/mol  [=(1)+(2)+(3)-(4)]
DOCKED: USER
DOCKED: USER    (1) Final Intermolecular Energy     = -10.03 kcal/mol
DOCKED: USER        vdW + Hbond + desolv Energy     =  -9.98 kcal/mol
DOCKED: USER        Electrostatic Energy            =  -0.05 kcal/mol
DOCKED: USER        Moving Ligand-Fixed Receptor    = -10.03 kcal/mol
DOCKED: USER        Moving Ligand-Moving Receptor   =  +0.00 kcal/mol
DOCKED: USER    (2) Final Total Internal Energy     =  -1.75 kcal/mol
DOCKED: USER    (3) Torsional Free Energy           =  +1.49 kcal/mol
DOCKED: USER    (4) Unbound System's Energy         =  -1.75 kcal/mol
DOCKED: USER
DOCKED: USER
DOCKED: REMARK SMILES O=C(NCC(=O)N1CCCC[C@@H]1c1ccccc1)c1ccc2ccccc2n1
DOCKED: REMARK SMILES IDX 4 1 3 2 2 3 1 4 19 6 20 7 28 8 21 9 27 10 22 11 26 12 23 13
DOCKED: REMARK SMILES IDX 25 14 24 15 5 16 6 17 7 18 8 19 12 20 9 21 11 22 10 23 13 24
DOCKED: REMARK SMILES IDX 14 25 18 26 15 27 17 28 16 29
DOCKED: REMARK H PARENT 3 5
DOCKED: USER                              x       y       z     vdW  Elec       q    Type
DOCKED: USER                           _______ _______ _______ _____ _____    ______ ____
DOCKED: ROOT
DOCKED: ATOM      1  C   UNL     1     139.792  74.120 221.087 -0.16 -0.04    +0.216 C  
DOCKED: ENDROOT
DOCKED: BRANCH   1   2
DOCKED: ATOM      2  N   UNL     1     139.776  73.393 222.300 -0.15 +0.05    -0.342 N  
DOCKED: ATOM      3  C   UNL     1     140.258  72.031 222.350 -0.21 -0.04    +0.270 C  
DOCKED: ATOM      4  O   UNL     1     140.701  71.446 221.329 -0.12 +0.04    -0.268 OA 
DOCKED: ATOM      5  H   UNL     1     139.415  73.821 223.199 -0.49 -0.05    +0.164 HD 
DOCKED: BRANCH   3   6
DOCKED: ATOM      6  C   UNL     1     140.214  71.342 223.654 -0.33 -0.02    +0.128 A  
DOCKED: ATOM      7  C   UNL     1     139.670  70.077 223.712 -0.27 -0.01    +0.035 A  
DOCKED: ATOM      8  N   UNL     1     140.671  71.882 224.778 -0.27 +0.03    -0.243 NA 
DOCKED: ATOM      9  C   UNL     1     139.577  69.341 224.872 -0.38 -0.00    +0.013 A  
DOCKED: ATOM     10  C   UNL     1     140.599  71.190 225.944 -0.56 -0.01    +0.071 A  
DOCKED: ATOM     11  C   UNL     1     140.058  69.924 226.023 -0.50 -0.00    +0.000 A  
DOCKED: ATOM     12  C   UNL     1     141.072  71.737 227.127 -0.76 -0.01    +0.029 A  
DOCKED: ATOM     13  C   UNL     1     139.974  69.204 227.194 -0.58 -0.00    +0.010 A  
DOCKED: ATOM     14  C   UNL     1     140.994  71.032 228.303 -0.66 -0.00    +0.002 A  
DOCKED: ATOM     15  C   UNL     1     140.449  69.762 228.363 -0.58 -0.00    +0.001 A  
DOCKED: ENDBRANCH   3   6
DOCKED: ENDBRANCH   1   2
DOCKED: BRANCH   1  16
DOCKED: ATOM     16  C   UNL     1     140.704  75.238 220.905 -0.19 -0.06    +0.242 C  
DOCKED: ATOM     17  O   UNL     1     140.977  75.880 222.009 -0.39 +0.08    -0.273 OA 
DOCKED: BRANCH  16  18
DOCKED: ATOM     18  N   UNL     1     141.331  75.733 219.759 -0.06 +0.12    -0.334 N  
DOCKED: ATOM     19  C   UNL     1     140.721  76.081 218.512 -0.05 -0.04    +0.120 C  
DOCKED: ATOM     20  C   UNL     1     142.789  75.950 219.852 -0.28 -0.07    +0.115 C  
DOCKED: ATOM     21  C   UNL     1     141.578  75.790 217.286 -0.07 -0.01    +0.022 C  
DOCKED: ATOM     22  C   UNL     1     143.323  76.790 218.753 -0.31 -0.02    +0.030 C  
DOCKED: ATOM     23  C   UNL     1     143.016  76.143 217.445 -0.23 -0.00    +0.004 C  
DOCKED: BRANCH  20  24
DOCKED: ATOM     24  C   UNL     1     143.551  74.725 220.061 -0.39 +0.01    -0.025 A  
DOCKED: ATOM     25  C   UNL     1     142.949  73.485 219.806 -0.24 -0.00    +0.006 A  
DOCKED: ATOM     26  C   UNL     1     144.858  74.660 220.499 -0.43 -0.00    +0.006 A  
DOCKED: ATOM     27  C   UNL     1     143.621  72.296 219.983 -0.27 -0.00    +0.000 A  
DOCKED: ATOM     28  C   UNL     1     145.539  73.472 220.680 -0.64 -0.00    +0.000 A  
DOCKED: ATOM     29  C   UNL     1     144.927  72.265 220.422 -0.40 -0.00    +0.000 A  
DOCKED: ENDBRANCH  20  24
DOCKED: ENDBRANCH  16  18
DOCKED: ENDBRANCH   1  16
DOCKED: TORSDOF 5
DOCKED: TER
DOCKED: ENDMDL
________________________________________________________________________________


    FINAL DOCKED STATE:
    ________________________


Run:   10 / 20
Time taken for this run:   0.026s

DOCKED: MODEL        10
DOCKED: USER    Run = 10
DOCKED: USER
DOCKED: USER    Estimated Free Energy of Binding    =  -8.60 kcal/mol  [=(1)+(2)+(3)-(4)]
DOCKED: USER
DOCKED: USER    (1) Final Intermolecular Energy     = -10.09 kcal/mol
DOCKED: USER        vdW + Hbond + desolv Energy     =  -9.99 kcal/mol
DOCKED: USER        Electrostatic Energy            =  -0.10 kcal/mol
DOCKED: USER        Moving Ligand-Fixed Receptor    = -10.09 kcal/mol
DOCKED: USER        Moving Ligand-Moving Receptor   =  +0.00 kcal/mol
DOCKED: USER    (2) Final Total Internal Energy     =  -1.65 kcal/mol
DOCKED: USER    (3) Torsional Free Energy           =  +1.49 kcal/mol
DOCKED: USER    (4) Unbound System's Energy         =  -1.65 kcal/mol
DOCKED: USER
DOCKED: USER
DOCKED: REMARK SMILES O=C(NCC(=O)N1CCCC[C@@H]1c1ccccc1)c1ccc2ccccc2n1
DOCKED: REMARK SMILES IDX 4 1 3 2 2 3 1 4 19 6 20 7 28 8 21 9 27 10 22 11 26 12 23 13
DOCKED: REMARK SMILES IDX 25 14 24 15 5 16 6 17 7 18 8 19 12 20 9 21 11 22 10 23 13 24
DOCKED: REMARK SMILES IDX 14 25 18 26 15 27 17 28 16 29
DOCKED: REMARK H PARENT 3 5
DOCKED: USER                              x       y       z     vdW  Elec       q    Type
DOCKED: USER                           _______ _______ _______ _____ _____    ______ ____
DOCKED: ROOT
DOCKED: ATOM      1  C   UNL     1     139.481  74.256 221.195 -0.16 -0.04    +0.216 C  
DOCKED: ENDROOT
DOCKED: BRANCH   1   2
DOCKED: ATOM      2  N   UNL     1     139.406  73.420 222.333 -0.12 +0.07    -0.342 N  
DOCKED: ATOM      3  C   UNL     1     140.367  72.358 222.532 -0.20 -0.03    +0.270 C  
DOCKED: ATOM      4  O   UNL     1     141.292  72.137 221.710 -0.19 +0.02    -0.268 OA 
DOCKED: ATOM      5  H   UNL     1     138.652  73.546 223.066 -0.53 -0.11    +0.164 HD 
DOCKED: BRANCH   3   6
DOCKED: ATOM      6  C   UNL     1     140.225  71.533 223.746 -0.34 -0.02    +0.128 A  
DOCKED: ATOM      7  C   UNL     1     139.562  70.328 223.649 -0.30 -0.01    +0.035 A  
DOCKED: ATOM      8  N   UNL     1     140.703  71.893 224.932 -0.28 +0.03    -0.243 NA 
DOCKED: ATOM      9  C   UNL     1     139.370  69.477 224.715 -0.36 -0.00    +0.013 A  
DOCKED: ATOM     10  C   UNL     1     140.536  71.083 226.009 -0.55 -0.01    +0.071 A  
DOCKED: ATOM     11  C   UNL     1     139.876  69.875 225.933 -0.48 -0.00    +0.000 A  
DOCKED: ATOM     12  C   UNL     1     141.029  71.442 227.254 -0.74 -0.01    +0.029 A  
DOCKED: ATOM     13  C   UNL     1     139.695  69.038 227.011 -0.56 -0.00    +0.010 A  
DOCKED: ATOM     14  C   UNL     1     140.856  70.619 228.338 -0.59 -0.00    +0.002 A  
DOCKED: ATOM     15  C   UNL     1     140.191  69.409 228.243 -0.63 -0.00    +0.001 A  
DOCKED: ENDBRANCH   3   6
DOCKED: ENDBRANCH   1   2
DOCKED: BRANCH   1  16
DOCKED: ATOM     16  C   UNL     1     140.687  75.018 220.914 -0.19 -0.06    +0.242 C  
DOCKED: ATOM     17  O   UNL     1     141.399  75.290 221.976 -0.43 +0.06    -0.273 OA 
DOCKED: BRANCH  16  18
DOCKED: ATOM     18  N   UNL     1     141.208  75.501 219.711 -0.04 +0.11    -0.334 N  
DOCKED: ATOM     19  C   UNL     1     140.512  75.699 218.476 -0.04 -0.04    +0.120 C  
DOCKED: ATOM     20  C   UNL     1     142.636  75.880 219.719 -0.29 -0.06    +0.115 C  
DOCKED: ATOM     21  C   UNL     1     141.344  75.422 217.230 -0.05 -0.01    +0.022 C  
DOCKED: ATOM     22  C   UNL     1     143.027  76.698 218.546 -0.32 -0.02    +0.030 C  
DOCKED: ATOM     23  C   UNL     1     142.739  75.936 217.297 -0.18 -0.00    +0.004 C  
DOCKED: BRANCH  20  24
DOCKED: ATOM     24  C   UNL     1     143.536  74.760 219.965 -0.38 +0.01    -0.025 A  
DOCKED: ATOM     25  C   UNL     1     143.110  73.455 219.679 -0.24 -0.00    +0.006 A  
DOCKED: ATOM     26  C   UNL     1     144.817  74.859 220.468 -0.38 -0.00    +0.006 A  
DOCKED: ATOM     27  C   UNL     1     143.919  72.361 219.889 -0.29 -0.00    +0.000 A  
DOCKED: ATOM     28  C   UNL     1     145.635  73.766 220.681 -0.66 -0.00    +0.000 A  
DOCKED: ATOM     29  C   UNL     1     145.195  72.492 220.393 -0.46 -0.00    +0.000 A  
DOCKED: ENDBRANCH  20  24
DOCKED: ENDBRANCH  16  18
DOCKED: ENDBRANCH   1  16
DOCKED: TORSDOF 5
DOCKED: TER
DOCKED: ENDMDL
________________________________________________________________________________


    FINAL DOCKED STATE:
    ________________________


Run:   11 / 20
Time taken for this run:   0.026s

DOCKED: MODEL        11
DOCKED: USER    Run = 11
DOCKED: USER
DOCKED: USER    Estimated Free Energy of Binding    =  -8.97 kcal/mol  [=(1)+(2)+(3)-(4)]
DOCKED: USER
DOCKED: USER    (1) Final Intermolecular Energy     = -10.46 kcal/mol
DOCKED: USER        vdW + Hbond + desolv Energy     = -10.38 kcal/mol
DOCKED: USER        Electrostatic Energy            =  -0.09 kcal/mol
DOCKED: USER        Moving Ligand-Fixed Receptor    = -10.46 kcal/mol
DOCKED: USER        Moving Ligand-Moving Receptor   =  +0.00 kcal/mol
DOCKED: USER    (2) Final Total Internal Energy     =  -1.31 kcal/mol
DOCKED: USER    (3) Torsional Free Energy           =  +1.49 kcal/mol
DOCKED: USER    (4) Unbound System's Energy         =  -1.31 kcal/mol
DOCKED: USER
DOCKED: USER
DOCKED: REMARK SMILES O=C(NCC(=O)N1CCCC[C@@H]1c1ccccc1)c1ccc2ccccc2n1
DOCKED: REMARK SMILES IDX 4 1 3 2 2 3 1 4 19 6 20 7 28 8 21 9 27 10 22 11 26 12 23 13
DOCKED: REMARK SMILES IDX 25 14 24 15 5 16 6 17 7 18 8 19 12 20 9 21 11 22 10 23 13 24
DOCKED: REMARK SMILES IDX 14 25 18 26 15 27 17 28 16 29
DOCKED: REMARK H PARENT 3 5
DOCKED: USER                              x       y       z     vdW  Elec       q    Type
DOCKED: USER                           _______ _______ _______ _____ _____    ______ ____
DOCKED: ROOT
DOCKED: ATOM      1  C   UNL     1     139.710  74.438 221.198 -0.18 -0.04    +0.216 C  
DOCKED: ENDROOT
DOCKED: BRANCH   1   2
DOCKED: ATOM      2  N   UNL     1     139.567  73.568 222.304 -0.13 +0.06    -0.342 N  
DOCKED: ATOM      3  C   UNL     1     140.448  72.433 222.468 -0.19 -0.02    +0.270 C  
DOCKED: ATOM      4  O   UNL     1     141.359  72.176 221.641 -0.19 +0.02    -0.268 OA 
DOCKED: ATOM      5  H   UNL     1     138.820  73.722 223.039 -0.54 -0.10    +0.164 HD 
DOCKED: BRANCH   3   6
DOCKED: ATOM      6  C   UNL     1     140.239  71.576 223.651 -0.33 -0.02    +0.128 A  
DOCKED: ATOM      7  C   UNL     1     139.548  70.394 223.493 -0.29 -0.01    +0.035 A  
DOCKED: ATOM      8  N   UNL     1     140.683  71.888 224.863 -0.28 +0.03    -0.243 NA 
DOCKED: ATOM      9  C   UNL     1     139.294  69.517 224.525 -0.35 -0.00    +0.013 A  
DOCKED: ATOM     10  C   UNL     1     140.455  71.052 225.908 -0.54 -0.01    +0.071 A  
DOCKED: ATOM     11  C   UNL     1     139.766  69.865 225.772 -0.47 -0.00    +0.000 A  
DOCKED: ATOM     12  C   UNL     1     140.911  71.361 227.181 -0.72 -0.01    +0.029 A  
DOCKED: ATOM     13  C   UNL     1     139.522  69.002 226.817 -0.54 -0.00    +0.010 A  
DOCKED: ATOM     14  C   UNL     1     140.676  70.511 228.233 -0.61 -0.00    +0.002 A  
DOCKED: ATOM     15  C   UNL     1     139.983  69.324 228.077 -0.64 -0.00    +0.001 A  
DOCKED: ENDBRANCH   3   6
DOCKED: ENDBRANCH   1   2
DOCKED: BRANCH   1  16
DOCKED: ATOM     16  C   UNL     1     140.716  75.487 221.206 -0.22 -0.06    +0.242 C  
DOCKED: ATOM     17  O   UNL     1     141.352  75.600 222.342 -0.29 +0.07    -0.273 OA 
DOCKED: BRANCH  16  18
DOCKED: ATOM     18  N   UNL     1     141.113  76.384 220.211 -0.08 +0.13    -0.334 N  
DOCKED: ATOM     19  C   UNL     1     141.994  76.133 219.111 -0.19 -0.05    +0.120 C  
DOCKED: ATOM     20  C   UNL     1     140.537  77.742 220.283 -0.16 -0.04    +0.115 C  
DOCKED: ATOM     21  C   UNL     1     142.871  77.316 218.720 -0.32 -0.02    +0.022 C  
DOCKED: ATOM     22  C   UNL     1     140.713  78.517 219.032 -0.13 -0.01    +0.030 C  
DOCKED: ATOM     23  C   UNL     1     142.168  78.628 218.723 -0.30 -0.00    +0.004 C  
DOCKED: BRANCH  20  24
DOCKED: ATOM     24  C   UNL     1     140.929  78.481 221.477 -0.31 +0.01    -0.025 A  
DOCKED: ATOM     25  C   UNL     1     139.974  78.753 222.467 -0.34 -0.00    +0.006 A  
DOCKED: ATOM     26  C   UNL     1     142.197  78.956 221.743 -0.38 -0.00    +0.006 A  
DOCKED: ATOM     27  C   UNL     1     140.289  79.444 223.615 -0.47 -0.00    +0.000 A  
DOCKED: ATOM     28  C   UNL     1     142.521  79.650 222.894 -0.62 -0.00    +0.000 A  
DOCKED: ATOM     29  C   UNL     1     141.566  79.905 223.853 -0.58 -0.00    +0.000 A  
DOCKED: ENDBRANCH  20  24
DOCKED: ENDBRANCH  16  18
DOCKED: ENDBRANCH   1  16
DOCKED: TORSDOF 5
DOCKED: TER
DOCKED: ENDMDL
________________________________________________________________________________


    FINAL DOCKED STATE:
    ________________________


Run:   12 / 20
Time taken for this run:   0.026s

DOCKED: MODEL        12
DOCKED: USER    Run = 12
DOCKED: USER
DOCKED: USER    Estimated Free Energy of Binding    =  -8.91 kcal/mol  [=(1)+(2)+(3)-(4)]
DOCKED: USER
DOCKED: USER    (1) Final Intermolecular Energy     = -10.40 kcal/mol
DOCKED: USER        vdW + Hbond + desolv Energy     = -10.37 kcal/mol
DOCKED: USER        Electrostatic Energy            =  -0.03 kcal/mol
DOCKED: USER        Moving Ligand-Fixed Receptor    = -10.40 kcal/mol
DOCKED: USER        Moving Ligand-Moving Receptor   =  +0.00 kcal/mol
DOCKED: USER    (2) Final Total Internal Energy     =  -1.41 kcal/mol
DOCKED: USER    (3) Torsional Free Energy           =  +1.49 kcal/mol
DOCKED: USER    (4) Unbound System's Energy         =  -1.41 kcal/mol
DOCKED: USER
DOCKED: USER
DOCKED: REMARK SMILES O=C(NCC(=O)N1CCCC[C@@H]1c1ccccc1)c1ccc2ccccc2n1
DOCKED: REMARK SMILES IDX 4 1 3 2 2 3 1 4 19 6 20 7 28 8 21 9 27 10 22 11 26 12 23 13
DOCKED: REMARK SMILES IDX 25 14 24 15 5 16 6 17 7 18 8 19 12 20 9 21 11 22 10 23 13 24
DOCKED: REMARK SMILES IDX 14 25 18 26 15 27 17 28 16 29
DOCKED: REMARK H PARENT 3 5
DOCKED: USER                              x       y       z     vdW  Elec       q    Type
DOCKED: USER                           _______ _______ _______ _____ _____    ______ ____
DOCKED: ROOT
DOCKED: ATOM      1  C   UNL     1     140.129  74.373 221.183 -0.19 -0.04    +0.216 C  
DOCKED: ENDROOT
DOCKED: BRANCH   1   2
DOCKED: ATOM      2  N   UNL     1     139.983  73.580 222.344 -0.10 +0.03    -0.342 N  
DOCKED: ATOM      3  C   UNL     1     140.426  72.204 222.359 -0.21 -0.03    +0.270 C  
DOCKED: ATOM      4  O   UNL     1     140.947  71.664 221.350 -0.14 +0.03    -0.268 OA 
DOCKED: ATOM      5  H   UNL     1     139.550  73.967 223.231 -0.50 -0.03    +0.164 HD 
DOCKED: BRANCH   3   6
DOCKED: ATOM      6  C   UNL     1     140.244  71.445 223.610 -0.33 -0.02    +0.128 A  
DOCKED: ATOM      7  C   UNL     1     139.616  70.219 223.552 -0.27 -0.01    +0.035 A  
DOCKED: ATOM      8  N   UNL     1     140.655  71.884 224.795 -0.27 +0.03    -0.243 NA 
DOCKED: ATOM      9  C   UNL     1     139.393  69.424 224.654 -0.36 -0.00    +0.013 A  
DOCKED: ATOM     10  C   UNL     1     140.455  71.132 225.907 -0.54 -0.01    +0.071 A  
DOCKED: ATOM     11  C   UNL     1     139.829  69.904 225.870 -0.48 -0.00    +0.000 A  
DOCKED: ATOM     12  C   UNL     1     140.877  71.574 227.151 -0.74 -0.01    +0.029 A  
DOCKED: ATOM     13  C   UNL     1     139.615  69.124 226.984 -0.55 -0.00    +0.010 A  
DOCKED: ATOM     14  C   UNL     1     140.671  70.809 228.272 -0.63 -0.00    +0.002 A  
DOCKED: ATOM     15  C   UNL     1     140.041  69.578 228.215 -0.63 -0.00    +0.001 A  
DOCKED: ENDBRANCH   3   6
DOCKED: ENDBRANCH   1   2
DOCKED: BRANCH   1  16
DOCKED: ATOM     16  C   UNL     1     140.767  75.677 221.251 -0.23 -0.07    +0.242 C  
DOCKED: ATOM     17  O   UNL     1     141.033  76.071 222.468 -0.34 +0.07    -0.273 OA 
DOCKED: BRANCH  16  18
DOCKED: ATOM     18  N   UNL     1     141.143  76.569 220.243 -0.08 +0.14    -0.334 N  
DOCKED: ATOM     19  C   UNL     1     142.022  76.320 219.141 -0.20 -0.06    +0.120 C  
DOCKED: ATOM     20  C   UNL     1     140.542  77.917 220.302 -0.16 -0.04    +0.115 C  
DOCKED: ATOM     21  C   UNL     1     142.875  77.514 218.731 -0.29 -0.02    +0.022 C  
DOCKED: ATOM     22  C   UNL     1     140.697  78.678 219.040 -0.13 -0.01    +0.030 C  
DOCKED: ATOM     23  C   UNL     1     142.148  78.813 218.721 -0.29 -0.00    +0.004 C  
DOCKED: BRANCH  20  24
DOCKED: ATOM     24  C   UNL     1     140.927  78.678 221.484 -0.31 +0.01    -0.025 A  
DOCKED: ATOM     25  C   UNL     1     139.939  79.114 222.377 -0.32 -0.00    +0.006 A  
DOCKED: ATOM     26  C   UNL     1     142.218  79.022 221.828 -0.40 -0.00    +0.006 A  
DOCKED: ATOM     27  C   UNL     1     140.245  79.833 223.511 -0.47 -0.00    +0.000 A  
DOCKED: ATOM     28  C   UNL     1     142.534  79.743 222.964 -0.63 -0.00    +0.000 A  
DOCKED: ATOM     29  C   UNL     1     141.545  80.162 223.827 -0.57 -0.00    +0.000 A  
DOCKED: ENDBRANCH  20  24
DOCKED: ENDBRANCH  16  18
DOCKED: ENDBRANCH   1  16
DOCKED: TORSDOF 5
DOCKED: TER
DOCKED: ENDMDL
________________________________________________________________________________


    FINAL DOCKED STATE:
    ________________________


Run:   13 / 20
Time taken for this run:   0.026s

DOCKED: MODEL        13
DOCKED: USER    Run = 13
DOCKED: USER
DOCKED: USER    Estimated Free Energy of Binding    =  -8.03 kcal/mol  [=(1)+(2)+(3)-(4)]
DOCKED: USER
DOCKED: USER    (1) Final Intermolecular Energy     =  -9.52 kcal/mol
DOCKED: USER        vdW + Hbond + desolv Energy     =  -9.49 kcal/mol
DOCKED: USER        Electrostatic Energy            =  -0.03 kcal/mol
DOCKED: USER        Moving Ligand-Fixed Receptor    =  -9.52 kcal/mol
DOCKED: USER        Moving Ligand-Moving Receptor   =  +0.00 kcal/mol
DOCKED: USER    (2) Final Total Internal Energy     =  -1.85 kcal/mol
DOCKED: USER    (3) Torsional Free Energy           =  +1.49 kcal/mol
DOCKED: USER    (4) Unbound System's Energy         =  -1.85 kcal/mol
DOCKED: USER
DOCKED: USER
DOCKED: REMARK SMILES O=C(NCC(=O)N1CCCC[C@@H]1c1ccccc1)c1ccc2ccccc2n1
DOCKED: REMARK SMILES IDX 4 1 3 2 2 3 1 4 19 6 20 7 28 8 21 9 27 10 22 11 26 12 23 13
DOCKED: REMARK SMILES IDX 25 14 24 15 5 16 6 17 7 18 8 19 12 20 9 21 11 22 10 23 13 24
DOCKED: REMARK SMILES IDX 14 25 18 26 15 27 17 28 16 29
DOCKED: REMARK H PARENT 3 5
DOCKED: USER                              x       y       z     vdW  Elec       q    Type
DOCKED: USER                           _______ _______ _______ _____ _____    ______ ____
DOCKED: ROOT
DOCKED: ATOM      1  C   UNL     1     139.072  73.778 220.945 -0.11 -0.04    +0.216 C  
DOCKED: ENDROOT
DOCKED: BRANCH   1   2
DOCKED: ATOM      2  N   UNL     1     139.321  73.164 222.194 -0.12 +0.08    -0.342 N  
DOCKED: ATOM      3  C   UNL     1     139.592  71.746 222.278 -0.18 -0.05    +0.270 C  
DOCKED: ATOM      4  O   UNL     1     139.612  71.012 221.256 -0.08 +0.05    -0.268 OA 
DOCKED: ATOM      5  H   UNL     1     139.318  73.718 223.096 -0.52 -0.06    +0.164 HD 
DOCKED: BRANCH   3   6
DOCKED: ATOM      6  C   UNL     1     139.847  71.181 223.616 -0.32 -0.02    +0.128 A  
DOCKED: ATOM      7  C   UNL     1     139.554  69.852 223.837 -0.28 -0.01    +0.035 A  
DOCKED: ATOM      8  N   UNL     1     140.345  71.890 224.623 -0.27 +0.04    -0.243 NA 
DOCKED: ATOM      9  C   UNL     1     139.751  69.219 225.044 -0.39 -0.00    +0.013 A  
DOCKED: ATOM     10  C   UNL     1     140.555  71.305 225.830 -0.54 -0.01    +0.071 A  
DOCKED: ATOM     11  C   UNL     1     140.268  69.977 226.071 -0.52 -0.00    +0.000 A  
DOCKED: ATOM     12  C   UNL     1     141.074  72.029 226.892 -0.74 -0.01    +0.029 A  
DOCKED: ATOM     13  C   UNL     1     140.473  69.363 227.286 -0.60 -0.00    +0.010 A  
DOCKED: ATOM     14  C   UNL     1     141.283  71.431 228.110 -0.70 -0.00    +0.002 A  
DOCKED: ATOM     15  C   UNL     1     140.991  70.097 228.333 -0.57 -0.00    +0.001 A  
DOCKED: ENDBRANCH   3   6
DOCKED: ENDBRANCH   1   2
DOCKED: BRANCH   1  16
DOCKED: ATOM     16  C   UNL     1     140.038  73.674 219.863 -0.05 -0.05    +0.242 C  
DOCKED: ATOM     17  O   UNL     1     139.496  73.462 218.692 -0.01 +0.06    -0.273 OA 
DOCKED: BRANCH  16  18
DOCKED: ATOM     18  N   UNL     1     141.432  73.764 219.864 -0.04 +0.07    -0.334 N  
DOCKED: ATOM     19  C   UNL     1     142.374  72.716 220.117 -0.17 -0.02    +0.120 C  
DOCKED: ATOM     20  C   UNL     1     142.004  75.086 219.539 -0.18 -0.04    +0.115 C  
DOCKED: ATOM     21  C   UNL     1     143.634  73.162 220.848 -0.28 -0.00    +0.022 C  
DOCKED: ATOM     22  C   UNL     1     143.449  75.031 219.215 -0.31 -0.01    +0.030 C  
DOCKED: ATOM     23  C   UNL     1     144.192  74.458 220.375 -0.44 -0.00    +0.004 C  
DOCKED: BRANCH  20  24
DOCKED: ATOM     24  C   UNL     1     141.671  76.122 220.510 -0.27 +0.01    -0.025 A  
DOCKED: ATOM     25  C   UNL     1     141.883  77.469 220.183 -0.31 -0.00    +0.006 A  
DOCKED: ATOM     26  C   UNL     1     141.145  75.902 221.766 -0.33 -0.00    +0.006 A  
DOCKED: ATOM     27  C   UNL     1     141.584  78.488 221.060 -0.35 -0.00    +0.000 A  
DOCKED: ATOM     28  C   UNL     1     140.843  76.919 222.651 -0.38 -0.00    +0.000 A  
DOCKED: ATOM     29  C   UNL     1     141.059  78.236 222.308 -0.45 -0.00    +0.000 A  
DOCKED: ENDBRANCH  20  24
DOCKED: ENDBRANCH  16  18
DOCKED: ENDBRANCH   1  16
DOCKED: TORSDOF 5
DOCKED: TER
DOCKED: ENDMDL
________________________________________________________________________________


    FINAL DOCKED STATE:
    ________________________


Run:   14 / 20
Time taken for this run:   0.026s

DOCKED: MODEL        14
DOCKED: USER    Run = 14
DOCKED: USER
DOCKED: USER    Estimated Free Energy of Binding    =  -8.98 kcal/mol  [=(1)+(2)+(3)-(4)]
DOCKED: USER
DOCKED: USER    (1) Final Intermolecular Energy     = -10.47 kcal/mol
DOCKED: USER        vdW + Hbond + desolv Energy     = -10.40 kcal/mol
DOCKED: USER        Electrostatic Energy            =  -0.07 kcal/mol
DOCKED: USER        Moving Ligand-Fixed Receptor    = -10.47 kcal/mol
DOCKED: USER        Moving Ligand-Moving Receptor   =  +0.00 kcal/mol
DOCKED: USER    (2) Final Total Internal Energy     =  -1.32 kcal/mol
DOCKED: USER    (3) Torsional Free Energy           =  +1.49 kcal/mol
DOCKED: USER    (4) Unbound System's Energy         =  -1.32 kcal/mol
DOCKED: USER
DOCKED: USER
DOCKED: REMARK SMILES O=C(NCC(=O)N1CCCC[C@@H]1c1ccccc1)c1ccc2ccccc2n1
DOCKED: REMARK SMILES IDX 4 1 3 2 2 3 1 4 19 6 20 7 28 8 21 9 27 10 22 11 26 12 23 13
DOCKED: REMARK SMILES IDX 25 14 24 15 5 16 6 17 7 18 8 19 12 20 9 21 11 22 10 23 13 24
DOCKED: REMARK SMILES IDX 14 25 18 26 15 27 17 28 16 29
DOCKED: REMARK H PARENT 3 5
DOCKED: USER                              x       y       z     vdW  Elec       q    Type
DOCKED: USER                           _______ _______ _______ _____ _____    ______ ____
DOCKED: ROOT
DOCKED: ATOM      1  C   UNL     1     139.923  74.420 221.156 -0.18 -0.04    +0.216 C  
DOCKED: ENDROOT
DOCKED: BRANCH   1   2
DOCKED: ATOM      2  N   UNL     1     139.772  73.593 222.293 -0.12 +0.04    -0.342 N  
DOCKED: ATOM      3  C   UNL     1     140.485  72.339 222.392 -0.20 -0.03    +0.270 C  
DOCKED: ATOM      4  O   UNL     1     141.254  71.938 221.482 -0.17 +0.03    -0.268 OA 
DOCKED: ATOM      5  H   UNL     1     139.140  73.865 223.098 -0.53 -0.08    +0.164 HD 
DOCKED: BRANCH   3   6
DOCKED: ATOM      6  C   UNL     1     140.279  71.535 223.612 -0.33 -0.02    +0.128 A  
DOCKED: ATOM      7  C   UNL     1     139.617  70.331 223.504 -0.28 -0.01    +0.035 A  
DOCKED: ATOM      8  N   UNL     1     140.700  71.915 224.814 -0.25 +0.03    -0.243 NA 
DOCKED: ATOM      9  C   UNL     1     139.369  69.499 224.573 -0.35 -0.00    +0.013 A  
DOCKED: ATOM     10  C   UNL     1     140.476  71.125 225.895 -0.54 -0.01    +0.071 A  
DOCKED: ATOM     11  C   UNL     1     139.815  69.917 225.807 -0.47 -0.00    +0.000 A  
DOCKED: ATOM     12  C   UNL     1     140.907  71.504 227.157 -0.74 -0.01    +0.029 A  
DOCKED: ATOM     13  C   UNL     1     139.577  69.100 226.889 -0.55 -0.00    +0.010 A  
DOCKED: ATOM     14  C   UNL     1     140.676  70.701 228.245 -0.62 -0.00    +0.002 A  
DOCKED: ATOM     15  C   UNL     1     140.013  69.492 228.138 -0.63 -0.00    +0.001 A  
DOCKED: ENDBRANCH   3   6
DOCKED: ENDBRANCH   1   2
DOCKED: BRANCH   1  16
DOCKED: ATOM     16  C   UNL     1     140.695  75.649 221.231 -0.22 -0.07    +0.242 C  
DOCKED: ATOM     17  O   UNL     1     141.069  75.964 222.444 -0.34 +0.07    -0.273 OA 
DOCKED: BRANCH  16  18
DOCKED: ATOM     18  N   UNL     1     141.103  76.539 220.235 -0.08 +0.13    -0.334 N  
DOCKED: ATOM     19  C   UNL     1     141.994  76.280 219.145 -0.20 -0.06    +0.120 C  
DOCKED: ATOM     20  C   UNL     1     140.527  77.898 220.293 -0.16 -0.04    +0.115 C  
DOCKED: ATOM     21  C   UNL     1     142.875  77.460 218.754 -0.30 -0.02    +0.022 C  
DOCKED: ATOM     22  C   UNL     1     140.716  78.664 219.038 -0.14 -0.01    +0.030 C  
DOCKED: ATOM     23  C   UNL     1     142.173  78.773 218.742 -0.30 -0.00    +0.004 C  
DOCKED: BRANCH  20  24
DOCKED: ATOM     24  C   UNL     1     140.909  78.645 221.485 -0.31 +0.01    -0.025 A  
DOCKED: ATOM     25  C   UNL     1     139.919  79.061 222.387 -0.32 -0.00    +0.006 A  
DOCKED: ATOM     26  C   UNL     1     142.198  78.993 221.832 -0.41 -0.00    +0.006 A  
DOCKED: ATOM     27  C   UNL     1     140.222  79.765 223.530 -0.47 -0.00    +0.000 A  
DOCKED: ATOM     28  C   UNL     1     142.511  79.701 222.977 -0.63 -0.00    +0.000 A  
DOCKED: ATOM     29  C   UNL     1     141.521  80.099 223.849 -0.57 -0.00    +0.000 A  
DOCKED: ENDBRANCH  20  24
DOCKED: ENDBRANCH  16  18
DOCKED: ENDBRANCH   1  16
DOCKED: TORSDOF 5
DOCKED: TER
DOCKED: ENDMDL
________________________________________________________________________________


    FINAL DOCKED STATE:
    ________________________


Run:   15 / 20
Time taken for this run:   0.026s

DOCKED: MODEL        15
DOCKED: USER    Run = 15
DOCKED: USER
DOCKED: USER    Estimated Free Energy of Binding    =  -8.55 kcal/mol  [=(1)+(2)+(3)-(4)]
DOCKED: USER
DOCKED: USER    (1) Final Intermolecular Energy     = -10.04 kcal/mol
DOCKED: USER        vdW + Hbond + desolv Energy     =  -9.99 kcal/mol
DOCKED: USER        Electrostatic Energy            =  -0.05 kcal/mol
DOCKED: USER        Moving Ligand-Fixed Receptor    = -10.04 kcal/mol
DOCKED: USER        Moving Ligand-Moving Receptor   =  +0.00 kcal/mol
DOCKED: USER    (2) Final Total Internal Energy     =  -1.79 kcal/mol
DOCKED: USER    (3) Torsional Free Energy           =  +1.49 kcal/mol
DOCKED: USER    (4) Unbound System's Energy         =  -1.79 kcal/mol
DOCKED: USER
DOCKED: USER
DOCKED: REMARK SMILES O=C(NCC(=O)N1CCCC[C@@H]1c1ccccc1)c1ccc2ccccc2n1
DOCKED: REMARK SMILES IDX 4 1 3 2 2 3 1 4 19 6 20 7 28 8 21 9 27 10 22 11 26 12 23 13
DOCKED: REMARK SMILES IDX 25 14 24 15 5 16 6 17 7 18 8 19 12 20 9 21 11 22 10 23 13 24
DOCKED: REMARK SMILES IDX 14 25 18 26 15 27 17 28 16 29
DOCKED: REMARK H PARENT 3 5
DOCKED: USER                              x       y       z     vdW  Elec       q    Type
DOCKED: USER                           _______ _______ _______ _____ _____    ______ ____
DOCKED: ROOT
DOCKED: ATOM      1  C   UNL     1     139.867  73.929 221.100 -0.16 -0.04    +0.216 C  
DOCKED: ENDROOT
DOCKED: BRANCH   1   2
DOCKED: ATOM      2  N   UNL     1     139.842  73.213 222.319 -0.15 +0.05    -0.342 N  
DOCKED: ATOM      3  C   UNL     1     140.203  71.814 222.360 -0.20 -0.04    +0.270 C  
DOCKED: ATOM      4  O   UNL     1     140.546  71.186 221.326 -0.11 +0.04    -0.268 OA 
DOCKED: ATOM      5  H   UNL     1     139.562  73.676 223.230 -0.48 -0.04    +0.164 HD 
DOCKED: BRANCH   3   6
DOCKED: ATOM      6  C   UNL     1     140.157  71.138 223.671 -0.32 -0.02    +0.128 A  
DOCKED: ATOM      7  C   UNL     1     139.585  69.887 223.746 -0.27 -0.01    +0.035 A  
DOCKED: ATOM      8  N   UNL     1     140.639  71.677 224.785 -0.30 +0.03    -0.243 NA 
DOCKED: ATOM      9  C   UNL     1     139.487  69.163 224.914 -0.38 -0.00    +0.013 A  
DOCKED: ATOM     10  C   UNL     1     140.563  70.998 225.959 -0.55 -0.01    +0.071 A  
DOCKED: ATOM     11  C   UNL     1     139.995  69.746 226.055 -0.49 -0.00    +0.000 A  
DOCKED: ATOM     12  C   UNL     1     141.061  71.545 227.131 -0.74 -0.00    +0.029 A  
DOCKED: ATOM     13  C   UNL     1     139.907  69.039 227.233 -0.59 -0.00    +0.010 A  
DOCKED: ATOM     14  C   UNL     1     140.980  70.853 228.314 -0.63 -0.00    +0.002 A  
DOCKED: ATOM     15  C   UNL     1     140.407  69.596 228.392 -0.57 -0.00    +0.001 A  
DOCKED: ENDBRANCH   3   6
DOCKED: ENDBRANCH   1   2
DOCKED: BRANCH   1  16
DOCKED: ATOM     16  C   UNL     1     140.675  75.130 220.963 -0.19 -0.06    +0.242 C  
DOCKED: ATOM     17  O   UNL     1     140.838  75.787 222.081 -0.43 +0.06    -0.273 OA 
DOCKED: BRANCH  16  18
DOCKED: ATOM     18  N   UNL     1     141.303  75.692 219.849 -0.06 +0.12    -0.334 N  
DOCKED: ATOM     19  C   UNL     1     140.691  76.124 218.629 -0.06 -0.04    +0.120 C  
DOCKED: ATOM     20  C   UNL     1     142.763  75.891 219.948 -0.26 -0.07    +0.115 C  
DOCKED: ATOM     21  C   UNL     1     141.540  75.905 217.383 -0.08 -0.01    +0.022 C  
DOCKED: ATOM     22  C   UNL     1     143.299  76.794 218.903 -0.32 -0.02    +0.030 C  
DOCKED: ATOM     23  C   UNL     1     142.982  76.234 217.558 -0.24 -0.00    +0.004 C  
DOCKED: BRANCH  20  24
DOCKED: ATOM     24  C   UNL     1     143.515  74.648 220.076 -0.38 +0.01    -0.025 A  
DOCKED: ATOM     25  C   UNL     1     144.858  74.692 220.474 -0.43 -0.00    +0.006 A  
DOCKED: ATOM     26  C   UNL     1     143.017  73.384 219.838 -0.24 -0.00    +0.006 A  
DOCKED: ATOM     27  C   UNL     1     145.616  73.550 220.615 -0.64 -0.00    +0.000 A  
DOCKED: ATOM     28  C   UNL     1     143.770  72.234 219.976 -0.28 -0.00    +0.000 A  
DOCKED: ATOM     29  C   UNL     1     145.089  72.301 220.370 -0.41 -0.00    +0.000 A  
DOCKED: ENDBRANCH  20  24
DOCKED: ENDBRANCH  16  18
DOCKED: ENDBRANCH   1  16
DOCKED: TORSDOF 5
DOCKED: TER
DOCKED: ENDMDL
________________________________________________________________________________


    FINAL DOCKED STATE:
    ________________________


Run:   16 / 20
Time taken for this run:   0.026s

DOCKED: MODEL        16
DOCKED: USER    Run = 16
DOCKED: USER
DOCKED: USER    Estimated Free Energy of Binding    =  -8.63 kcal/mol  [=(1)+(2)+(3)-(4)]
DOCKED: USER
DOCKED: USER    (1) Final Intermolecular Energy     = -10.12 kcal/mol
DOCKED: USER        vdW + Hbond + desolv Energy     = -10.04 kcal/mol
DOCKED: USER        Electrostatic Energy            =  -0.08 kcal/mol
DOCKED: USER        Moving Ligand-Fixed Receptor    = -10.12 kcal/mol
DOCKED: USER        Moving Ligand-Moving Receptor   =  +0.00 kcal/mol
DOCKED: USER    (2) Final Total Internal Energy     =  -1.69 kcal/mol
DOCKED: USER    (3) Torsional Free Energy           =  +1.49 kcal/mol
DOCKED: USER    (4) Unbound System's Energy         =  -1.69 kcal/mol
DOCKED: USER
DOCKED: USER
DOCKED: REMARK SMILES O=C(NCC(=O)N1CCCC[C@@H]1c1ccccc1)c1ccc2ccccc2n1
DOCKED: REMARK SMILES IDX 4 1 3 2 2 3 1 4 19 6 20 7 28 8 21 9 27 10 22 11 26 12 23 13
DOCKED: REMARK SMILES IDX 25 14 24 15 5 16 6 17 7 18 8 19 12 20 9 21 11 22 10 23 13 24
DOCKED: REMARK SMILES IDX 14 25 18 26 15 27 17 28 16 29
DOCKED: REMARK H PARENT 3 5
DOCKED: USER                              x       y       z     vdW  Elec       q    Type
DOCKED: USER                           _______ _______ _______ _____ _____    ______ ____
DOCKED: ROOT
DOCKED: ATOM      1  C   UNL     1     139.708  74.095 221.036 -0.15 -0.04    +0.216 C  
DOCKED: ENDROOT
DOCKED: BRANCH   1   2
DOCKED: ATOM      2  N   UNL     1     139.639  73.354 222.239 -0.15 +0.06    -0.342 N  
DOCKED: ATOM      3  C   UNL     1     140.353  72.105 222.378 -0.21 -0.03    +0.270 C  
DOCKED: ATOM      4  O   UNL     1     141.052  71.632 221.445 -0.15 +0.03    -0.268 OA 
DOCKED: ATOM      5  H   UNL     1     139.068  73.690 223.066 -0.53 -0.08    +0.164 HD 
DOCKED: BRANCH   3   6
DOCKED: ATOM      6  C   UNL     1     140.235  71.395 223.666 -0.33 -0.02    +0.128 A  
DOCKED: ATOM      7  C   UNL     1     139.610  70.167 223.685 -0.28 -0.01    +0.035 A  
DOCKED: ATOM      8  N   UNL     1     140.701  71.881 224.811 -0.28 +0.03    -0.243 NA 
DOCKED: ATOM      9  C   UNL     1     139.443  69.415 224.827 -0.37 -0.00    +0.013 A  
DOCKED: ATOM     10  C   UNL     1     140.558  71.173 225.960 -0.55 -0.01    +0.071 A  
DOCKED: ATOM     11  C   UNL     1     139.935  69.943 226.000 -0.50 -0.00    +0.000 A  
DOCKED: ATOM     12  C   UNL     1     141.038  71.664 227.164 -0.76 -0.01    +0.029 A  
DOCKED: ATOM     13  C   UNL     1     139.779  69.207 227.154 -0.57 -0.00    +0.010 A  
DOCKED: ATOM     14  C   UNL     1     140.888  70.942 228.323 -0.64 -0.00    +0.002 A  
DOCKED: ATOM     15  C   UNL     1     140.262  69.709 228.344 -0.61 -0.00    +0.001 A  
DOCKED: ENDBRANCH   3   6
DOCKED: ENDBRANCH   1   2
DOCKED: BRANCH   1  16
DOCKED: ATOM     16  C   UNL     1     140.685  75.160 220.877 -0.18 -0.06    +0.242 C  
DOCKED: ATOM     17  O   UNL     1     141.048  75.715 222.003 -0.43 +0.07    -0.273 OA 
DOCKED: BRANCH  16  18
DOCKED: ATOM     18  N   UNL     1     141.295  75.682 219.734 -0.05 +0.12    -0.334 N  
DOCKED: ATOM     19  C   UNL     1     140.671  76.030 218.493 -0.05 -0.04    +0.120 C  
DOCKED: ATOM     20  C   UNL     1     142.748  75.932 219.822 -0.28 -0.06    +0.115 C  
DOCKED: ATOM     21  C   UNL     1     141.528  75.773 217.261 -0.07 -0.01    +0.022 C  
DOCKED: ATOM     22  C   UNL     1     143.257  76.796 218.730 -0.32 -0.02    +0.030 C  
DOCKED: ATOM     23  C   UNL     1     142.959  76.157 217.417 -0.23 -0.00    +0.004 C  
DOCKED: BRANCH  20  24
DOCKED: ATOM     24  C   UNL     1     143.539  74.723 220.014 -0.38 +0.01    -0.025 A  
DOCKED: ATOM     25  C   UNL     1     142.975  73.474 219.717 -0.23 -0.00    +0.006 A  
DOCKED: ATOM     26  C   UNL     1     144.839  74.682 220.473 -0.44 -0.00    +0.006 A  
DOCKED: ATOM     27  C   UNL     1     143.676  72.300 219.876 -0.27 -0.00    +0.000 A  
DOCKED: ATOM     28  C   UNL     1     145.550  73.508 220.636 -0.64 -0.00    +0.000 A  
DOCKED: ATOM     29  C   UNL     1     144.975  72.292 220.337 -0.41 -0.00    +0.000 A  
DOCKED: ENDBRANCH  20  24
DOCKED: ENDBRANCH  16  18
DOCKED: ENDBRANCH   1  16
DOCKED: TORSDOF 5
DOCKED: TER
DOCKED: ENDMDL
________________________________________________________________________________


    FINAL DOCKED STATE:
    ________________________


Run:   17 / 20
Time taken for this run:   0.026s

DOCKED: MODEL        17
DOCKED: USER    Run = 17
DOCKED: USER
DOCKED: USER    Estimated Free Energy of Binding    =  -8.66 kcal/mol  [=(1)+(2)+(3)-(4)]
DOCKED: USER
DOCKED: USER    (1) Final Intermolecular Energy     = -10.15 kcal/mol
DOCKED: USER        vdW + Hbond + desolv Energy     = -10.06 kcal/mol
DOCKED: USER        Electrostatic Energy            =  -0.09 kcal/mol
DOCKED: USER        Moving Ligand-Fixed Receptor    = -10.15 kcal/mol
DOCKED: USER        Moving Ligand-Moving Receptor   =  +0.00 kcal/mol
DOCKED: USER    (2) Final Total Internal Energy     =  -1.69 kcal/mol
DOCKED: USER    (3) Torsional Free Energy           =  +1.49 kcal/mol
DOCKED: USER    (4) Unbound System's Energy         =  -1.69 kcal/mol
DOCKED: USER
DOCKED: USER
DOCKED: REMARK SMILES O=C(NCC(=O)N1CCCC[C@@H]1c1ccccc1)c1ccc2ccccc2n1
DOCKED: REMARK SMILES IDX 4 1 3 2 2 3 1 4 19 6 20 7 28 8 21 9 27 10 22 11 26 12 23 13
DOCKED: REMARK SMILES IDX 25 14 24 15 5 16 6 17 7 18 8 19 12 20 9 21 11 22 10 23 13 24
DOCKED: REMARK SMILES IDX 14 25 18 26 15 27 17 28 16 29
DOCKED: REMARK H PARENT 3 5
DOCKED: USER                              x       y       z     vdW  Elec       q    Type
DOCKED: USER                           _______ _______ _______ _____ _____    ______ ____
DOCKED: ROOT
DOCKED: ATOM      1  C   UNL     1     139.583  74.182 221.111 -0.16 -0.04    +0.216 C  
DOCKED: ENDROOT
DOCKED: BRANCH   1   2
DOCKED: ATOM      2  N   UNL     1     139.507  73.383 222.275 -0.13 +0.07    -0.342 N  
DOCKED: ATOM      3  C   UNL     1     140.400  72.260 222.459 -0.21 -0.03    +0.270 C  
DOCKED: ATOM      4  O   UNL     1     141.266  71.953 221.600 -0.18 +0.03    -0.268 OA 
DOCKED: ATOM      5  H   UNL     1     138.802  73.581 223.040 -0.53 -0.10    +0.164 HD 
DOCKED: BRANCH   3   6
DOCKED: ATOM      6  C   UNL     1     140.262  71.479 223.702 -0.34 -0.02    +0.128 A  
DOCKED: ATOM      7  C   UNL     1     139.618  70.262 223.646 -0.29 -0.01    +0.035 A  
DOCKED: ATOM      8  N   UNL     1     140.728  71.890 224.877 -0.27 +0.03    -0.243 NA 
DOCKED: ATOM      9  C   UNL     1     139.432  69.448 224.742 -0.37 -0.00    +0.013 A  
DOCKED: ATOM     10  C   UNL     1     140.566  71.119 225.982 -0.55 -0.01    +0.071 A  
DOCKED: ATOM     11  C   UNL     1     139.924  69.899 225.947 -0.49 -0.00    +0.000 A  
DOCKED: ATOM     12  C   UNL     1     141.045  71.532 227.216 -0.75 -0.01    +0.029 A  
DOCKED: ATOM     13  C   UNL     1     139.747  69.100 227.055 -0.57 -0.00    +0.010 A  
DOCKED: ATOM     14  C   UNL     1     140.876  70.747 228.329 -0.61 -0.00    +0.002 A  
DOCKED: ATOM     15  C   UNL     1     140.230  69.524 228.275 -0.62 -0.00    +0.001 A  
DOCKED: ENDBRANCH   3   6
DOCKED: ENDBRANCH   1   2
DOCKED: BRANCH   1  16
DOCKED: ATOM     16  C   UNL     1     140.692  75.102 220.916 -0.19 -0.06    +0.242 C  
DOCKED: ATOM     17  O   UNL     1     141.235  75.518 222.029 -0.42 +0.07    -0.273 OA 
DOCKED: BRANCH  16  18
DOCKED: ATOM     18  N   UNL     1     141.269  75.609 219.748 -0.05 +0.12    -0.334 N  
DOCKED: ATOM     19  C   UNL     1     140.616  75.901 218.508 -0.05 -0.04    +0.120 C  
DOCKED: ATOM     20  C   UNL     1     142.714  75.906 219.806 -0.29 -0.06    +0.115 C  
DOCKED: ATOM     21  C   UNL     1     141.462  75.634 217.270 -0.06 -0.01    +0.022 C  
DOCKED: ATOM     22  C   UNL     1     143.180  76.753 218.682 -0.32 -0.02    +0.030 C  
DOCKED: ATOM     23  C   UNL     1     142.882  76.066 217.393 -0.21 -0.00    +0.004 C  
DOCKED: BRANCH  20  24
DOCKED: ATOM     24  C   UNL     1     143.545  74.727 220.021 -0.38 +0.01    -0.025 A  
DOCKED: ATOM     25  C   UNL     1     144.863  74.884 220.472 -0.36 -0.00    +0.006 A  
DOCKED: ATOM     26  C   UNL     1     143.148  73.421 219.821 -0.25 -0.00    +0.006 A  
DOCKED: ATOM     27  C   UNL     1     145.692  73.807 220.695 -0.66 -0.00    +0.000 A  
DOCKED: ATOM     28  C   UNL     1     143.973  72.335 220.042 -0.31 -0.00    +0.000 A  
DOCKED: ATOM     29  C   UNL     1     145.266  72.513 220.486 -0.46 -0.00    +0.000 A  
DOCKED: ENDBRANCH  20  24
DOCKED: ENDBRANCH  16  18
DOCKED: ENDBRANCH   1  16
DOCKED: TORSDOF 5
DOCKED: TER
DOCKED: ENDMDL
________________________________________________________________________________


    FINAL DOCKED STATE:
    ________________________


Run:   18 / 20
Time taken for this run:   0.026s

DOCKED: MODEL        18
DOCKED: USER    Run = 18
DOCKED: USER
DOCKED: USER    Estimated Free Energy of Binding    =  -8.65 kcal/mol  [=(1)+(2)+(3)-(4)]
DOCKED: USER
DOCKED: USER    (1) Final Intermolecular Energy     = -10.14 kcal/mol
DOCKED: USER        vdW + Hbond + desolv Energy     = -10.06 kcal/mol
DOCKED: USER        Electrostatic Energy            =  -0.08 kcal/mol
DOCKED: USER        Moving Ligand-Fixed Receptor    = -10.14 kcal/mol
DOCKED: USER        Moving Ligand-Moving Receptor   =  +0.00 kcal/mol
DOCKED: USER    (2) Final Total Internal Energy     =  -1.67 kcal/mol
DOCKED: USER    (3) Torsional Free Energy           =  +1.49 kcal/mol
DOCKED: USER    (4) Unbound System's Energy         =  -1.67 kcal/mol
DOCKED: USER
DOCKED: USER
DOCKED: REMARK SMILES O=C(NCC(=O)N1CCCC[C@@H]1c1ccccc1)c1ccc2ccccc2n1
DOCKED: REMARK SMILES IDX 4 1 3 2 2 3 1 4 19 6 20 7 28 8 21 9 27 10 22 11 26 12 23 13
DOCKED: REMARK SMILES IDX 25 14 24 15 5 16 6 17 7 18 8 19 12 20 9 21 11 22 10 23 13 24
DOCKED: REMARK SMILES IDX 14 25 18 26 15 27 17 28 16 29
DOCKED: REMARK H PARENT 3 5
DOCKED: USER                              x       y       z     vdW  Elec       q    Type
DOCKED: USER                           _______ _______ _______ _____ _____    ______ ____
DOCKED: ROOT
DOCKED: ATOM      1  C   UNL     1     139.646  74.105 221.069 -0.15 -0.04    +0.216 C  
DOCKED: ENDROOT
DOCKED: BRANCH   1   2
DOCKED: ATOM      2  N   UNL     1     139.577  73.352 222.264 -0.14 +0.06    -0.342 N  
DOCKED: ATOM      3  C   UNL     1     140.343  72.135 222.415 -0.21 -0.03    +0.270 C  
DOCKED: ATOM      4  O   UNL     1     141.088  71.703 221.499 -0.15 +0.03    -0.268 OA 
DOCKED: ATOM      5  H   UNL     1     138.968  73.655 223.076 -0.53 -0.09    +0.164 HD 
DOCKED: BRANCH   3   6
DOCKED: ATOM      6  C   UNL     1     140.220  71.410 223.693 -0.33 -0.02    +0.128 A  
DOCKED: ATOM      7  C   UNL     1     139.587  70.186 223.697 -0.29 -0.01    +0.035 A  
DOCKED: ATOM      8  N   UNL     1     140.690  71.878 224.844 -0.28 +0.03    -0.243 NA 
DOCKED: ATOM      9  C   UNL     1     139.415  69.421 224.830 -0.37 -0.00    +0.013 A  
DOCKED: ATOM     10  C   UNL     1     140.543  71.156 225.984 -0.55 -0.01    +0.071 A  
DOCKED: ATOM     11  C   UNL     1     139.912  69.930 226.010 -0.49 -0.00    +0.000 A  
DOCKED: ATOM     12  C   UNL     1     141.027  71.628 227.195 -0.75 -0.01    +0.029 A  
DOCKED: ATOM     13  C   UNL     1     139.751  69.180 227.153 -0.57 -0.00    +0.010 A  
DOCKED: ATOM     14  C   UNL     1     140.873  70.893 228.344 -0.63 -0.00    +0.002 A  
DOCKED: ATOM     15  C   UNL     1     140.238  69.664 228.350 -0.61 -0.00    +0.001 A  
DOCKED: ENDBRANCH   3   6
DOCKED: ENDBRANCH   1   2
DOCKED: BRANCH   1  16
DOCKED: ATOM     16  C   UNL     1     140.696  75.092 220.875 -0.18 -0.06    +0.242 C  
DOCKED: ATOM     17  O   UNL     1     141.177  75.576 221.990 -0.43 +0.07    -0.273 OA 
DOCKED: BRANCH  16  18
DOCKED: ATOM     18  N   UNL     1     141.272  75.602 219.709 -0.05 +0.12    -0.334 N  
DOCKED: ATOM     19  C   UNL     1     140.624  75.872 218.462 -0.05 -0.04    +0.120 C  
DOCKED: ATOM     20  C   UNL     1     142.711  75.929 219.777 -0.29 -0.06    +0.115 C  
DOCKED: ATOM     21  C   UNL     1     141.486  75.613 217.233 -0.06 -0.01    +0.022 C  
DOCKED: ATOM     22  C   UNL     1     143.169  76.777 218.651 -0.32 -0.02    +0.030 C  
DOCKED: ATOM     23  C   UNL     1     142.896  76.075 217.364 -0.21 -0.00    +0.004 C  
DOCKED: BRANCH  20  24
DOCKED: ATOM     24  C   UNL     1     143.564  74.769 220.007 -0.38 +0.01    -0.025 A  
DOCKED: ATOM     25  C   UNL     1     143.064  73.483 219.757 -0.25 -0.00    +0.006 A  
DOCKED: ATOM     26  C   UNL     1     144.866  74.811 220.461 -0.38 -0.00    +0.006 A  
DOCKED: ATOM     27  C   UNL     1     143.825  72.353 219.953 -0.29 -0.00    +0.000 A  
DOCKED: ATOM     28  C   UNL     1     145.636  73.681 220.661 -0.65 -0.00    +0.000 A  
DOCKED: ATOM     29  C   UNL     1     145.124  72.428 220.408 -0.44 -0.00    +0.000 A  
DOCKED: ENDBRANCH  20  24
DOCKED: ENDBRANCH  16  18
DOCKED: ENDBRANCH   1  16
DOCKED: TORSDOF 5
DOCKED: TER
DOCKED: ENDMDL
________________________________________________________________________________


    FINAL DOCKED STATE:
    ________________________


Run:   19 / 20
Time taken for this run:   0.026s

DOCKED: MODEL        19
DOCKED: USER    Run = 19
DOCKED: USER
DOCKED: USER    Estimated Free Energy of Binding    =  -8.60 kcal/mol  [=(1)+(2)+(3)-(4)]
DOCKED: USER
DOCKED: USER    (1) Final Intermolecular Energy     = -10.09 kcal/mol
DOCKED: USER        vdW + Hbond + desolv Energy     = -10.01 kcal/mol
DOCKED: USER        Electrostatic Energy            =  -0.08 kcal/mol
DOCKED: USER        Moving Ligand-Fixed Receptor    = -10.09 kcal/mol
DOCKED: USER        Moving Ligand-Moving Receptor   =  +0.00 kcal/mol
DOCKED: USER    (2) Final Total Internal Energy     =  -1.75 kcal/mol
DOCKED: USER    (3) Torsional Free Energy           =  +1.49 kcal/mol
DOCKED: USER    (4) Unbound System's Energy         =  -1.75 kcal/mol
DOCKED: USER
DOCKED: USER
DOCKED: REMARK SMILES O=C(NCC(=O)N1CCCC[C@@H]1c1ccccc1)c1ccc2ccccc2n1
DOCKED: REMARK SMILES IDX 4 1 3 2 2 3 1 4 19 6 20 7 28 8 21 9 27 10 22 11 26 12 23 13
DOCKED: REMARK SMILES IDX 25 14 24 15 5 16 6 17 7 18 8 19 12 20 9 21 11 22 10 23 13 24
DOCKED: REMARK SMILES IDX 14 25 18 26 15 27 17 28 16 29
DOCKED: REMARK H PARENT 3 5
DOCKED: USER                              x       y       z     vdW  Elec       q    Type
DOCKED: USER                           _______ _______ _______ _____ _____    ______ ____
DOCKED: ROOT
DOCKED: ATOM      1  C   UNL     1     139.762  74.030 221.088 -0.16 -0.04    +0.216 C  
DOCKED: ENDROOT
DOCKED: BRANCH   1   2
DOCKED: ATOM      2  N   UNL     1     139.722  73.293 222.294 -0.15 +0.05    -0.342 N  
DOCKED: ATOM      3  C   UNL     1     140.296  71.968 222.368 -0.21 -0.03    +0.270 C  
DOCKED: ATOM      4  O   UNL     1     140.842  71.425 221.374 -0.13 +0.03    -0.268 OA 
DOCKED: ATOM      5  H   UNL     1     139.276  73.686 223.171 -0.50 -0.07    +0.164 HD 
DOCKED: BRANCH   3   6
DOCKED: ATOM      6  C   UNL     1     140.219  71.266 223.663 -0.32 -0.02    +0.128 A  
DOCKED: ATOM      7  C   UNL     1     139.634  70.019 223.702 -0.27 -0.01    +0.035 A  
DOCKED: ATOM      8  N   UNL     1     140.687  71.777 224.797 -0.29 +0.03    -0.243 NA 
DOCKED: ATOM      9  C   UNL     1     139.508  69.273 224.852 -0.38 -0.00    +0.013 A  
DOCKED: ATOM     10  C   UNL     1     140.583  71.074 225.954 -0.55 -0.01    +0.071 A  
DOCKED: ATOM     11  C   UNL     1     140.000  69.826 226.014 -0.49 -0.00    +0.000 A  
DOCKED: ATOM     12  C   UNL     1     141.065  71.591 227.147 -0.75 -0.00    +0.029 A  
DOCKED: ATOM     13  C   UNL     1     139.884  69.095 227.176 -0.58 -0.00    +0.010 A  
DOCKED: ATOM     14  C   UNL     1     140.956  70.875 228.313 -0.63 -0.00    +0.002 A  
DOCKED: ATOM     15  C   UNL     1     140.369  69.623 228.354 -0.60 -0.00    +0.001 A  
DOCKED: ENDBRANCH   3   6
DOCKED: ENDBRANCH   1   2
DOCKED: BRANCH   1  16
DOCKED: ATOM     16  C   UNL     1     140.642  75.179 220.950 -0.19 -0.06    +0.242 C  
DOCKED: ATOM     17  O   UNL     1     140.854  75.818 222.070 -0.42 +0.07    -0.273 OA 
DOCKED: BRANCH  16  18
DOCKED: ATOM     18  N   UNL     1     141.295  75.706 219.833 -0.06 +0.12    -0.334 N  
DOCKED: ATOM     19  C   UNL     1     140.708  76.120 218.595 -0.06 -0.04    +0.120 C  
DOCKED: ATOM     20  C   UNL     1     142.756  75.886 219.951 -0.26 -0.06    +0.115 C  
DOCKED: ATOM     21  C   UNL     1     141.573  75.860 217.368 -0.08 -0.01    +0.022 C  
DOCKED: ATOM     22  C   UNL     1     143.322  76.759 218.894 -0.33 -0.02    +0.030 C  
DOCKED: ATOM     23  C   UNL     1     143.016  76.173 217.557 -0.24 -0.00    +0.004 C  
DOCKED: BRANCH  20  24
DOCKED: ATOM     24  C   UNL     1     143.488  74.637 220.118 -0.38 +0.01    -0.025 A  
DOCKED: ATOM     25  C   UNL     1     144.834  74.671 220.508 -0.42 -0.00    +0.006 A  
DOCKED: ATOM     26  C   UNL     1     142.967  73.373 219.928 -0.25 -0.00    +0.006 A  
DOCKED: ATOM     27  C   UNL     1     145.573  73.523 220.684 -0.65 -0.00    +0.000 A  
DOCKED: ATOM     28  C   UNL     1     143.702  72.216 220.102 -0.29 -0.00    +0.000 A  
DOCKED: ATOM     29  C   UNL     1     145.024  72.274 220.486 -0.39 -0.00    +0.000 A  
DOCKED: ENDBRANCH  20  24
DOCKED: ENDBRANCH  16  18
DOCKED: ENDBRANCH   1  16
DOCKED: TORSDOF 5
DOCKED: TER
DOCKED: ENDMDL
________________________________________________________________________________


    FINAL DOCKED STATE:
    ________________________


Run:   20 / 20
Time taken for this run:   0.026s

DOCKED: MODEL        20
DOCKED: USER    Run = 20
DOCKED: USER
DOCKED: USER    Estimated Free Energy of Binding    =  -8.59 kcal/mol  [=(1)+(2)+(3)-(4)]
DOCKED: USER
DOCKED: USER    (1) Final Intermolecular Energy     = -10.08 kcal/mol
DOCKED: USER        vdW + Hbond + desolv Energy     = -10.02 kcal/mol
DOCKED: USER        Electrostatic Energy            =  -0.06 kcal/mol
DOCKED: USER        Moving Ligand-Fixed Receptor    = -10.08 kcal/mol
DOCKED: USER        Moving Ligand-Moving Receptor   =  +0.00 kcal/mol
DOCKED: USER    (2) Final Total Internal Energy     =  -1.77 kcal/mol
DOCKED: USER    (3) Torsional Free Energy           =  +1.49 kcal/mol
DOCKED: USER    (4) Unbound System's Energy         =  -1.77 kcal/mol
DOCKED: USER
DOCKED: USER
DOCKED: REMARK SMILES O=C(NCC(=O)N1CCCC[C@@H]1c1ccccc1)c1ccc2ccccc2n1
DOCKED: REMARK SMILES IDX 4 1 3 2 2 3 1 4 19 6 20 7 28 8 21 9 27 10 22 11 26 12 23 13
DOCKED: REMARK SMILES IDX 25 14 24 15 5 16 6 17 7 18 8 19 12 20 9 21 11 22 10 23 13 24
DOCKED: REMARK SMILES IDX 14 25 18 26 15 27 17 28 16 29
DOCKED: REMARK H PARENT 3 5
DOCKED: USER                              x       y       z     vdW  Elec       q    Type
DOCKED: USER                           _______ _______ _______ _____ _____    ______ ____
DOCKED: ROOT
DOCKED: ATOM      1  C   UNL     1     139.793  74.076 221.077 -0.16 -0.04    +0.216 C  
DOCKED: ENDROOT
DOCKED: BRANCH   1   2
DOCKED: ATOM      2  N   UNL     1     139.761  73.346 222.287 -0.15 +0.05    -0.342 N  
DOCKED: ATOM      3  C   UNL     1     140.295  72.004 222.355 -0.21 -0.03    +0.270 C  
DOCKED: ATOM      4  O   UNL     1     140.799  71.440 221.351 -0.13 +0.03    -0.268 OA 
DOCKED: ATOM      5  H   UNL     1     139.349  73.757 223.173 -0.50 -0.06    +0.164 HD 
DOCKED: BRANCH   3   6
DOCKED: ATOM      6  C   UNL     1     140.228  71.311 223.655 -0.33 -0.02    +0.128 A  
DOCKED: ATOM      7  C   UNL     1     139.665  70.054 223.703 -0.27 -0.01    +0.035 A  
DOCKED: ATOM      8  N   UNL     1     140.685  71.839 224.786 -0.28 +0.03    -0.243 NA 
DOCKED: ATOM      9  C   UNL     1     139.550  69.315 224.859 -0.38 -0.00    +0.013 A  
DOCKED: ATOM     10  C   UNL     1     140.591  71.144 225.948 -0.55 -0.01    +0.071 A  
DOCKED: ATOM     11  C   UNL     1     140.031  69.886 226.017 -0.50 -0.00    +0.000 A  
DOCKED: ATOM     12  C   UNL     1     141.062  71.678 227.138 -0.76 -0.01    +0.029 A  
DOCKED: ATOM     13  C   UNL     1     139.925  69.163 227.184 -0.58 -0.00    +0.010 A  
DOCKED: ATOM     14  C   UNL     1     140.964  70.970 228.309 -0.65 -0.00    +0.002 A  
DOCKED: ATOM     15  C   UNL     1     140.399  69.708 228.360 -0.59 -0.00    +0.001 A  
DOCKED: ENDBRANCH   3   6
DOCKED: ENDBRANCH   1   2
DOCKED: BRANCH   1  16
DOCKED: ATOM     16  C   UNL     1     140.724  75.179 220.901 -0.19 -0.06    +0.242 C  
DOCKED: ATOM     17  O   UNL     1     141.035  75.788 222.015 -0.41 +0.07    -0.273 OA 
DOCKED: BRANCH  16  18
DOCKED: ATOM     18  N   UNL     1     141.337  75.689 219.754 -0.06 +0.12    -0.334 N  
DOCKED: ATOM     19  C   UNL     1     140.709  76.067 218.525 -0.05 -0.04    +0.120 C  
DOCKED: ATOM     20  C   UNL     1     142.798  75.890 219.826 -0.28 -0.06    +0.115 C  
DOCKED: ATOM     21  C   UNL     1     141.542  75.791 217.279 -0.07 -0.01    +0.022 C  
DOCKED: ATOM     22  C   UNL     1     143.322  76.745 218.734 -0.32 -0.02    +0.030 C  
DOCKED: ATOM     23  C   UNL     1     142.986  76.125 217.419 -0.23 -0.00    +0.004 C  
DOCKED: BRANCH  20  24
DOCKED: ATOM     24  C   UNL     1     143.551  74.653 219.999 -0.38 +0.01    -0.025 A  
DOCKED: ATOM     25  C   UNL     1     144.870  74.708 220.470 -0.43 -0.00    +0.006 A  
DOCKED: ATOM     26  C   UNL     1     143.076  73.385 219.740 -0.24 -0.00    +0.006 A  
DOCKED: ATOM     27  C   UNL     1     145.627  73.572 220.656 -0.65 -0.00    +0.000 A  
DOCKED: ATOM     28  C   UNL     1     143.828  72.240 219.923 -0.28 -0.00    +0.000 A  
DOCKED: ATOM     29  C   UNL     1     145.123  72.318 220.387 -0.41 -0.00    +0.000 A  
DOCKED: ENDBRANCH  20  24
DOCKED: ENDBRANCH  16  18
DOCKED: ENDBRANCH   1  16
DOCKED: TORSDOF 5
DOCKED: TER
DOCKED: ENDMDL
________________________________________________________________________________


    CLUSTERING HISTOGRAM
    ____________________


________________________________________________________________________________
     |           |     |           |     |
Clus | Lowest    | Run | Mean      | Num | Histogram
-ter | Binding   |     | Binding   | in  |
Rank | Energy    |     | Energy    | Clus|    5    10   15   20   25   30   35
_____|___________|_____|___________|_____|____:____|____:____|____:____|____:___
   1 |     -8.98 |  14 |     -8.74 |   5 |#####
   2 |     -8.67 |   4 |     -8.61 |  15 |###############
_____|___________|_____|___________|_____|______________________________________


    RMSD TABLE
    __________


_______________________________________________________________________
     |      |      |           |         |                 |
Rank | Sub- | Run  | Binding   | Cluster | Reference       | Grep
     | Rank |      | Energy    | RMSD    | RMSD            | Pattern
_____|______|______|___________|_________|_________________|___________
   1      1     14       -8.98      0.00    271.52           RANKING
   1      2     11       -8.97      0.20    271.48           RANKING
   1      3     12       -8.91      0.15    271.54           RANKING
   1      4      8       -8.79      0.36    271.56           RANKING
   1      5     13       -8.03      1.82    270.99           RANKING
   2      1      4       -8.67      0.00    270.95           RANKING
   2      2     17       -8.66      0.19    270.94           RANKING
   2      3     18       -8.65      0.16    270.91           RANKING
   2      4     16       -8.63      0.19    270.91           RANKING
   2      5      7       -8.62      0.21    270.92           RANKING
   2      6      5       -8.62      0.20    270.92           RANKING
   2      7      6       -8.61      0.28    270.88           RANKING
   2      8      1       -8.60      0.10    270.96           RANKING
   2      9     19       -8.60      0.20    270.95           RANKING
   2     10     10       -8.60      0.31    270.88           RANKING
   2     11      2       -8.60      0.16    270.93           RANKING
   2     12     20       -8.59      0.19    270.94           RANKING
   2     13      3       -8.57      0.15    270.94           RANKING
   2     14     15       -8.55      0.29    270.94           RANKING
   2     15      9       -8.54      0.22    270.95           RANKING

Run time 0.486 sec
Idle time 0.000 sec
