AutoDock-GPU version: v1.6

**********************************************************
**    AutoDock-GPU AUTODOCKTOOLS-COMPATIBLE DLG FILE    **
**********************************************************


    DOCKING PARAMETERS
    ________________________


Ligand file:                               /home/a/REINVENT4/ReinventStudies/pleaseWork/justmol2mol_4_Compounds_ontop/graph-dock-hn62wh/graph-DockGPU/node-autodockgpu/inputs/WWMVZUZFWROBEU-AATXMJDANA-N.pdbqt
Grid fld file:                             /home/a/REINVENT4/ReinventStudies/mols/Rad51/maps/rad51_receptor.maps.fld

Random seed:                               42
Number of runs:                            20
Number of energy evaluations:              1132076
Number of generations:                     42000
Size of population:                        150
Rate of crossover:                         80.000000%
Tournament selection probability limit:    60.000000%
Rate of mutation:                          2.000000%
Maximal allowed delta movement:            +/- 6.000000A
Maximal allowed delta angle:               +/- 90.000000

Rate of local search:                      100.000000%
Maximal number of local search iterations: 300
Rho lower bound:                           0.010000
Spread of local search delta movement:     2.000000A
Spread of local search delta angle:        74.999999
Limit of consecutive successes/failures:   4

Handle symmetry during clustering:         YES
RMSD tolerance:                            2.000000A

Program call in command line was:          /home/a/REINVENT4/ReinventStudies/adgpu-v1.6_linux_x64_cuda12_128wi --filelist batch.txt --heuristics 1 --nrun 20 --psize 150 --lsit 300 --seed 42 --heurmax 12000000 


    GRID PARAMETERS
    ________________________


Receptor name:                             rad51_receptor
Number of grid points (x, y, z):           53, 53, 53
Grid center (x, y, z):                     139.950000, 75.640000, 221.970000A
Grid size (x, y, z):                       19.500000, 19.500000, 19.500000A
Grid spacing:                              0.375000A


    LIGAND PARAMETERS
    ________________________


Ligand name:                               /home/a/REINVENT4/ReinventStudies/pleaseWork/justmol2mol_4_Compounds_ontop/graph-dock-hn62wh/graph-DockGPU/node-autodockgpu/inputs/WWMVZUZFWROBEU-AATXMJDANA-N
Number of atoms:                           29
Number of rotatable bonds:                 5
Number of atom types:                      6


    DUMMY DATA (only for ADT-compatibility)
    ________________________


DPF> outlev 1
DPF> ga_run 20
DPF> fld /home/a/REINVENT4/ReinventStudies/mols/Rad51/maps/rad51_receptor.maps.fld
DPF> move /home/a/REINVENT4/ReinventStudies/pleaseWork/justmol2mol_4_Compounds_ontop/graph-dock-hn62wh/graph-DockGPU/node-autodockgpu/inputs/WWMVZUZFWROBEU-AATXMJDANA-N.pdbqt


    COUNTER STATES
    ________________________


Number of energy evaluations performed:    636520
Number of generations used:                30


    INPUT LIGAND PDBQT FILE:
    ________________________


INPUT-LIGAND-PDBQT: REMARK SMILES O=C(NCC(=O)N1CCCC[C@H]1c1ccccc1)c1ccc2ccccc2n1
INPUT-LIGAND-PDBQT: REMARK SMILES IDX 4 1 3 2 2 3 1 4 19 6 20 7 28 8 21 9 27 10 22 11 26 12 23 13
INPUT-LIGAND-PDBQT: REMARK SMILES IDX 25 14 24 15 5 16 6 17 7 18 8 19 12 20 9 21 11 22 10 23 13 24
INPUT-LIGAND-PDBQT: REMARK SMILES IDX 14 25 18 26 15 27 17 28 16 29
INPUT-LIGAND-PDBQT: REMARK H PARENT 3 5
INPUT-LIGAND-PDBQT: ROOT
INPUT-LIGAND-PDBQT: ATOM      1  C   UNL     1      -0.021   0.307   2.527  1.00  0.00     0.216 C 
INPUT-LIGAND-PDBQT: ENDROOT
INPUT-LIGAND-PDBQT: BRANCH   1   2
INPUT-LIGAND-PDBQT: ATOM      2  N   UNL     1       1.180   0.136   1.779  1.00  0.00    -0.342 N 
INPUT-LIGAND-PDBQT: ATOM      3  C   UNL     1       1.814   1.177   1.022  1.00  0.00     0.270 C 
INPUT-LIGAND-PDBQT: ATOM      4  O   UNL     1       1.292   2.344   1.004  1.00  0.00    -0.268 OA
INPUT-LIGAND-PDBQT: ATOM      5  H   UNL     1       1.672  -0.807   1.751  1.00  0.00     0.164 HD
INPUT-LIGAND-PDBQT: BRANCH   3   6
INPUT-LIGAND-PDBQT: ATOM      6  C   UNL     1       3.045   0.894   0.280  1.00  0.00     0.128 A 
INPUT-LIGAND-PDBQT: ATOM      7  C   UNL     1       3.628   1.917  -0.438  1.00  0.00     0.035 A 
INPUT-LIGAND-PDBQT: ATOM      8  N   UNL     1       3.627  -0.308   0.267  1.00  0.00    -0.243 NA
INPUT-LIGAND-PDBQT: ATOM      9  C   UNL     1       4.794   1.626  -1.133  1.00  0.00     0.013 A 
INPUT-LIGAND-PDBQT: ATOM     10  C   UNL     1       4.749  -0.616  -0.392  1.00  0.00     0.071 A 
INPUT-LIGAND-PDBQT: ATOM     11  C   UNL     1       5.368   0.376  -1.125  1.00  0.00     0.000 A 
INPUT-LIGAND-PDBQT: ATOM     12  C   UNL     1       5.259  -1.904  -0.329  1.00  0.00     0.029 A 
INPUT-LIGAND-PDBQT: ATOM     13  C   UNL     1       6.527   0.083  -1.814  1.00  0.00     0.010 A 
INPUT-LIGAND-PDBQT: ATOM     14  C   UNL     1       6.424  -2.178  -1.029  1.00  0.00     0.002 A 
INPUT-LIGAND-PDBQT: ATOM     15  C   UNL     1       7.065  -1.193  -1.774  1.00  0.00     0.001 A 
INPUT-LIGAND-PDBQT: ENDBRANCH   3   6
INPUT-LIGAND-PDBQT: ENDBRANCH   1   2
INPUT-LIGAND-PDBQT: BRANCH   1  16
INPUT-LIGAND-PDBQT: ATOM     16  C   UNL     1      -1.268   0.606   1.867  1.00  0.00     0.242 C 
INPUT-LIGAND-PDBQT: ATOM     17  O   UNL     1      -2.263   0.844   2.682  1.00  0.00    -0.273 OA
INPUT-LIGAND-PDBQT: BRANCH  16  18
INPUT-LIGAND-PDBQT: ATOM     18  N   UNL     1      -1.608   0.683   0.503  1.00  0.00    -0.334 N 
INPUT-LIGAND-PDBQT: ATOM     19  C   UNL     1      -0.749   0.377  -0.612  1.00  0.00     0.120 C 
INPUT-LIGAND-PDBQT: ATOM     20  C   UNL     1      -2.959   1.138   0.183  1.00  0.00     0.115 C 
INPUT-LIGAND-PDBQT: ATOM     21  C   UNL     1      -1.498  -0.133  -1.836  1.00  0.00     0.022 C 
INPUT-LIGAND-PDBQT: ATOM     22  C   UNL     1      -3.167   1.617  -1.194  1.00  0.00     0.030 C 
INPUT-LIGAND-PDBQT: ATOM     23  C   UNL     1      -2.444   0.917  -2.287  1.00  0.00     0.004 C 
INPUT-LIGAND-PDBQT: BRANCH  20  24
INPUT-LIGAND-PDBQT: ATOM     24  C   UNL     1      -4.011   0.235   0.717  1.00  0.00    -0.025 A 
INPUT-LIGAND-PDBQT: ATOM     25  C   UNL     1      -5.170   0.754   1.310  1.00  0.00     0.006 A 
INPUT-LIGAND-PDBQT: ATOM     26  C   UNL     1      -3.931  -1.139   0.677  1.00  0.00     0.006 A 
INPUT-LIGAND-PDBQT: ATOM     27  C   UNL     1      -6.158  -0.060   1.818  1.00  0.00     0.000 A 
INPUT-LIGAND-PDBQT: ATOM     28  C   UNL     1      -4.923  -1.968   1.186  1.00  0.00     0.000 A 
INPUT-LIGAND-PDBQT: ATOM     29  C   UNL     1      -6.052  -1.432   1.764  1.00  0.00     0.000 A 
INPUT-LIGAND-PDBQT: ENDBRANCH  20  24
INPUT-LIGAND-PDBQT: ENDBRANCH  16  18
INPUT-LIGAND-PDBQT: ENDBRANCH   1  16
INPUT-LIGAND-PDBQT: TORSDOF 5


    FINAL DOCKED STATE:
    ________________________


Run:   1 / 20
Time taken for this run:   0.026s

DOCKED: MODEL        1
DOCKED: USER    Run = 1
DOCKED: USER
DOCKED: USER    Estimated Free Energy of Binding    =  -8.50 kcal/mol  [=(1)+(2)+(3)-(4)]
DOCKED: USER
DOCKED: USER    (1) Final Intermolecular Energy     =  -9.99 kcal/mol
DOCKED: USER        vdW + Hbond + desolv Energy     =  -9.95 kcal/mol
DOCKED: USER        Electrostatic Energy            =  -0.03 kcal/mol
DOCKED: USER        Moving Ligand-Fixed Receptor    =  -9.99 kcal/mol
DOCKED: USER        Moving Ligand-Moving Receptor   =  +0.00 kcal/mol
DOCKED: USER    (2) Final Total Internal Energy     =  -1.41 kcal/mol
DOCKED: USER    (3) Torsional Free Energy           =  +1.49 kcal/mol
DOCKED: USER    (4) Unbound System's Energy         =  -1.41 kcal/mol
DOCKED: USER
DOCKED: USER
DOCKED: REMARK SMILES O=C(NCC(=O)N1CCCC[C@H]1c1ccccc1)c1ccc2ccccc2n1
DOCKED: REMARK SMILES IDX 4 1 3 2 2 3 1 4 19 6 20 7 28 8 21 9 27 10 22 11 26 12 23 13
DOCKED: REMARK SMILES IDX 25 14 24 15 5 16 6 17 7 18 8 19 12 20 9 21 11 22 10 23 13 24
DOCKED: REMARK SMILES IDX 14 25 18 26 15 27 17 28 16 29
DOCKED: REMARK H PARENT 3 5
DOCKED: USER                              x       y       z     vdW  Elec       q    Type
DOCKED: USER                           _______ _______ _______ _____ _____    ______ ____
DOCKED: ROOT
DOCKED: ATOM      1  C   UNL     1     141.053  72.763 221.060 -0.17 -0.03    +0.216 C  
DOCKED: ENDROOT
DOCKED: BRANCH   1   2
DOCKED: ATOM      2  N   UNL     1     140.946  71.937 222.217 -0.14 +0.03    -0.342 N  
DOCKED: ATOM      3  C   UNL     1     139.743  71.269 222.622 -0.18 -0.05    +0.270 C  
DOCKED: ATOM      4  O   UNL     1     138.685  71.402 221.916 -0.08 +0.05    -0.268 OA 
DOCKED: ATOM      5  H   UNL     1     141.786  71.778 222.849 +0.10 +0.00    +0.164 HD 
DOCKED: BRANCH   3   6
DOCKED: ATOM      6  C   UNL     1     139.737  70.447 223.835 -0.27 -0.02    +0.128 A  
DOCKED: ATOM      7  C   UNL     1     139.051  69.251 223.813 -0.28 -0.01    +0.035 A  
DOCKED: ATOM      8  N   UNL     1     140.364  70.804 224.959 -0.29 +0.04    -0.243 NA 
DOCKED: ATOM      9  C   UNL     1     139.060  68.488 224.973 -0.41 -0.00    +0.013 A  
DOCKED: ATOM     10  C   UNL     1     140.389  70.090 226.089 -0.48 -0.01    +0.071 A  
DOCKED: ATOM     11  C   UNL     1     139.717  68.885 226.115 -0.52 -0.00    +0.000 A  
DOCKED: ATOM     12  C   UNL     1     141.077  70.566 227.195 -0.60 -0.00    +0.029 A  
DOCKED: ATOM     13  C   UNL     1     139.728  68.130 227.269 -0.62 -0.00    +0.010 A  
DOCKED: ATOM     14  C   UNL     1     141.076  69.792 228.345 -0.57 -0.00    +0.002 A  
DOCKED: ATOM     15  C   UNL     1     140.405  68.575 228.393 -0.66 -0.00    +0.001 A  
DOCKED: ENDBRANCH   3   6
DOCKED: ENDBRANCH   1   2
DOCKED: BRANCH   1  16
DOCKED: ATOM     16  C   UNL     1     140.873  74.191 221.151 -0.20 -0.04    +0.242 C  
DOCKED: ATOM     17  O   UNL     1     140.098  74.573 222.134 -0.78 +0.01    -0.273 OA 
DOCKED: BRANCH  16  18
DOCKED: ATOM     18  N   UNL     1     141.377  75.248 220.370 -0.10 +0.11    -0.334 N  
DOCKED: ATOM     19  C   UNL     1     141.081  76.649 220.530 -0.22 -0.05    +0.120 C  
DOCKED: ATOM     20  C   UNL     1     142.274  74.890 219.273 -0.17 -0.04    +0.115 C  
DOCKED: ATOM     21  C   UNL     1     142.214  77.565 220.090 -0.28 -0.02    +0.022 C  
DOCKED: ATOM     22  C   UNL     1     142.450  75.912 218.227 -0.20 -0.01    +0.030 C  
DOCKED: ATOM     23  C   UNL     1     142.479  77.336 218.648 -0.32 -0.00    +0.004 C  
DOCKED: BRANCH  20  24
DOCKED: ATOM     24  C   UNL     1     143.518  74.227 219.742 -0.32 +0.01    -0.025 A  
DOCKED: ATOM     25  C   UNL     1     143.740  72.864 219.500 -0.24 -0.00    +0.006 A  
DOCKED: ATOM     26  C   UNL     1     144.516  74.876 220.433 -0.39 -0.00    +0.006 A  
DOCKED: ATOM     27  C   UNL     1     144.882  72.223 219.927 -0.38 +0.00    +0.000 A  
DOCKED: ATOM     28  C   UNL     1     145.671  74.238 220.867 -0.58 -0.00    +0.000 A  
DOCKED: ATOM     29  C   UNL     1     145.865  72.898 220.616 -0.60 +0.00    +0.000 A  
DOCKED: ENDBRANCH  20  24
DOCKED: ENDBRANCH  16  18
DOCKED: ENDBRANCH   1  16
DOCKED: TORSDOF 5
DOCKED: TER
DOCKED: ENDMDL
________________________________________________________________________________


    FINAL DOCKED STATE:
    ________________________


Run:   2 / 20
Time taken for this run:   0.026s

DOCKED: MODEL        2
DOCKED: USER    Run = 2
DOCKED: USER
DOCKED: USER    Estimated Free Energy of Binding    =  -8.75 kcal/mol  [=(1)+(2)+(3)-(4)]
DOCKED: USER
DOCKED: USER    (1) Final Intermolecular Energy     = -10.24 kcal/mol
DOCKED: USER        vdW + Hbond + desolv Energy     = -10.22 kcal/mol
DOCKED: USER        Electrostatic Energy            =  -0.02 kcal/mol
DOCKED: USER        Moving Ligand-Fixed Receptor    = -10.24 kcal/mol
DOCKED: USER        Moving Ligand-Moving Receptor   =  +0.00 kcal/mol
DOCKED: USER    (2) Final Total Internal Energy     =  -1.88 kcal/mol
DOCKED: USER    (3) Torsional Free Energy           =  +1.49 kcal/mol
DOCKED: USER    (4) Unbound System's Energy         =  -1.88 kcal/mol
DOCKED: USER
DOCKED: USER
DOCKED: REMARK SMILES O=C(NCC(=O)N1CCCC[C@H]1c1ccccc1)c1ccc2ccccc2n1
DOCKED: REMARK SMILES IDX 4 1 3 2 2 3 1 4 19 6 20 7 28 8 21 9 27 10 22 11 26 12 23 13
DOCKED: REMARK SMILES IDX 25 14 24 15 5 16 6 17 7 18 8 19 12 20 9 21 11 22 10 23 13 24
DOCKED: REMARK SMILES IDX 14 25 18 26 15 27 17 28 16 29
DOCKED: REMARK H PARENT 3 5
DOCKED: USER                              x       y       z     vdW  Elec       q    Type
DOCKED: USER                           _______ _______ _______ _____ _____    ______ ____
DOCKED: ROOT
DOCKED: ATOM      1  C   UNL     1     139.870  74.221 221.127 -0.17 -0.04    +0.216 C  
DOCKED: ENDROOT
DOCKED: BRANCH   1   2
DOCKED: ATOM      2  N   UNL     1     139.852  73.418 222.305 -0.14 +0.04    -0.342 N  
DOCKED: ATOM      3  C   UNL     1     140.210  72.029 222.341 -0.21 -0.04    +0.270 C  
DOCKED: ATOM      4  O   UNL     1     140.577  71.450 221.262 -0.11 +0.04    -0.268 OA 
DOCKED: ATOM      5  H   UNL     1     139.560  73.834 223.240 -0.49 -0.03    +0.164 HD 
DOCKED: BRANCH   3   6
DOCKED: ATOM      6  C   UNL     1     140.149  71.292 223.605 -0.32 -0.02    +0.128 A  
DOCKED: ATOM      7  C   UNL     1     139.598  70.028 223.601 -0.27 -0.01    +0.035 A  
DOCKED: ATOM      8  N   UNL     1     140.602  71.788 224.759 -0.28 +0.03    -0.243 NA 
DOCKED: ATOM      9  C   UNL     1     139.551  69.348 224.811 -0.37 -0.00    +0.013 A  
DOCKED: ATOM     10  C   UNL     1     140.571  71.156 225.937 -0.55 -0.01    +0.071 A  
DOCKED: ATOM     11  C   UNL     1     140.027  69.888 225.983 -0.50 -0.00    +0.000 A  
DOCKED: ATOM     12  C   UNL     1     141.074  71.776 227.071 -0.76 -0.01    +0.029 A  
DOCKED: ATOM     13  C   UNL     1     139.983  69.215 227.186 -0.58 -0.00    +0.010 A  
DOCKED: ATOM     14  C   UNL     1     141.019  71.083 228.271 -0.68 -0.00    +0.002 A  
DOCKED: ATOM     15  C   UNL     1     140.476  69.804 228.339 -0.59 -0.00    +0.001 A  
DOCKED: ENDBRANCH   3   6
DOCKED: ENDBRANCH   1   2
DOCKED: BRANCH   1  16
DOCKED: ATOM     16  C   UNL     1     140.797  75.317 220.993 -0.20 -0.06    +0.242 C  
DOCKED: ATOM     17  O   UNL     1     141.047  75.949 222.111 -0.38 +0.08    -0.273 OA 
DOCKED: BRANCH  16  18
DOCKED: ATOM     18  N   UNL     1     141.478  75.833 219.874 -0.07 +0.13    -0.334 N  
DOCKED: ATOM     19  C   UNL     1     141.507  77.209 219.449 -0.19 -0.06    +0.120 C  
DOCKED: ATOM     20  C   UNL     1     142.213  74.878 219.049 -0.14 -0.04    +0.115 C  
DOCKED: ATOM     21  C   UNL     1     142.788  77.596 218.722 -0.28 -0.02    +0.022 C  
DOCKED: ATOM     22  C   UNL     1     142.552  75.329 217.689 -0.14 -0.01    +0.030 C  
DOCKED: ATOM     23  C   UNL     1     142.917  76.758 217.505 -0.27 -0.00    +0.004 C  
DOCKED: BRANCH  20  24
DOCKED: ATOM     24  C   UNL     1     143.305  74.196 219.792 -0.31 +0.01    -0.025 A  
DOCKED: ATOM     25  C   UNL     1     144.462  74.892 220.168 -0.41 -0.00    +0.006 A  
DOCKED: ATOM     26  C   UNL     1     143.268  72.869 220.156 -0.28 -0.00    +0.006 A  
DOCKED: ATOM     27  C   UNL     1     145.490  74.284 220.852 -0.56 -0.00    +0.000 A  
DOCKED: ATOM     28  C   UNL     1     144.301  72.247 220.847 -0.37 -0.00    +0.000 A  
DOCKED: ATOM     29  C   UNL     1     145.427  72.954 221.204 -0.58 -0.00    +0.000 A  
DOCKED: ENDBRANCH  20  24
DOCKED: ENDBRANCH  16  18
DOCKED: ENDBRANCH   1  16
DOCKED: TORSDOF 5
DOCKED: TER
DOCKED: ENDMDL
________________________________________________________________________________


    FINAL DOCKED STATE:
    ________________________


Run:   3 / 20
Time taken for this run:   0.026s

DOCKED: MODEL        3
DOCKED: USER    Run = 3
DOCKED: USER
DOCKED: USER    Estimated Free Energy of Binding    =  -7.90 kcal/mol  [=(1)+(2)+(3)-(4)]
DOCKED: USER
DOCKED: USER    (1) Final Intermolecular Energy     =  -9.39 kcal/mol
DOCKED: USER        vdW + Hbond + desolv Energy     =  -9.41 kcal/mol
DOCKED: USER        Electrostatic Energy            =  +0.02 kcal/mol
DOCKED: USER        Moving Ligand-Fixed Receptor    =  -9.39 kcal/mol
DOCKED: USER        Moving Ligand-Moving Receptor   =  +0.00 kcal/mol
DOCKED: USER    (2) Final Total Internal Energy     =  -2.26 kcal/mol
DOCKED: USER    (3) Torsional Free Energy           =  +1.49 kcal/mol
DOCKED: USER    (4) Unbound System's Energy         =  -2.26 kcal/mol
DOCKED: USER
DOCKED: USER
DOCKED: REMARK SMILES O=C(NCC(=O)N1CCCC[C@H]1c1ccccc1)c1ccc2ccccc2n1
DOCKED: REMARK SMILES IDX 4 1 3 2 2 3 1 4 19 6 20 7 28 8 21 9 27 10 22 11 26 12 23 13
DOCKED: REMARK SMILES IDX 25 14 24 15 5 16 6 17 7 18 8 19 12 20 9 21 11 22 10 23 13 24
DOCKED: REMARK SMILES IDX 14 25 18 26 15 27 17 28 16 29
DOCKED: REMARK H PARENT 3 5
DOCKED: USER                              x       y       z     vdW  Elec       q    Type
DOCKED: USER                           _______ _______ _______ _____ _____    ______ ____
DOCKED: ROOT
DOCKED: ATOM      1  C   UNL     1     141.075  73.523 221.452 -0.20 -0.02    +0.216 C  
DOCKED: ENDROOT
DOCKED: BRANCH   1   2
DOCKED: ATOM      2  N   UNL     1     141.154  74.892 221.840 -0.12 +0.05    -0.342 N  
DOCKED: ATOM      3  C   UNL     1     140.018  75.755 221.991 -0.22 -0.05    +0.270 C  
DOCKED: ATOM      4  O   UNL     1     138.847  75.290 221.774 -0.21 +0.06    -0.268 OA 
DOCKED: ATOM      5  H   UNL     1     142.096  75.346 222.040 -0.43 -0.07    +0.164 HD 
DOCKED: BRANCH   3   6
DOCKED: ATOM      6  C   UNL     1     140.209  77.152 222.388 -0.33 -0.03    +0.128 A  
DOCKED: ATOM      7  C   UNL     1     139.092  77.937 222.585 -0.29 -0.01    +0.035 A  
DOCKED: ATOM      8  N   UNL     1     141.414  77.699 222.566 -0.23 +0.12    -0.243 NA 
DOCKED: ATOM      9  C   UNL     1     139.298  79.257 222.961 -0.34 -0.00    +0.013 A  
DOCKED: ATOM     10  C   UNL     1     141.641  78.966 222.929 -0.50 -0.03    +0.071 A  
DOCKED: ATOM     11  C   UNL     1     140.554  79.790 223.137 -0.45 -0.00    +0.000 A  
DOCKED: ATOM     12  C   UNL     1     142.942  79.421 223.083 -0.51 -0.01    +0.029 A  
DOCKED: ATOM     13  C   UNL     1     140.762  81.101 223.511 -0.43 -0.00    +0.010 A  
DOCKED: ATOM     14  C   UNL     1     143.130  80.742 223.459 -0.60 -0.00    +0.002 A  
DOCKED: ATOM     15  C   UNL     1     142.048  81.590 223.675 -0.55 -0.00    +0.001 A  
DOCKED: ENDBRANCH   3   6
DOCKED: ENDBRANCH   1   2
DOCKED: BRANCH   1  16
DOCKED: ATOM     16  C   UNL     1     141.944  72.992 220.431 -0.14 -0.04    +0.242 C  
DOCKED: ATOM     17  O   UNL     1     141.317  72.422 219.434 -0.04 +0.05    -0.273 OA 
DOCKED: BRANCH  16  18
DOCKED: ATOM     18  N   UNL     1     143.348  72.971 220.316 -0.11 +0.06    -0.334 N  
DOCKED: ATOM     19  C   UNL     1     144.169  71.816 220.062 -0.25 -0.01    +0.120 C  
DOCKED: ATOM     20  C   UNL     1     144.044  74.244 220.493 -0.35 -0.04    +0.115 C  
DOCKED: ATOM     21  C   UNL     1     145.456  72.137 219.313 -0.33 +0.01    +0.022 C  
DOCKED: ATOM     22  C   UNL     1     145.482  74.153 220.794 -0.55 -0.01    +0.030 C  
DOCKED: ATOM     23  C   UNL     1     146.262  73.075 220.132 -0.49 +0.00    +0.004 C  
DOCKED: BRANCH  20  24
DOCKED: ATOM     24  C   UNL     1     143.661  75.254 219.474 -0.37 +0.01    -0.025 A  
DOCKED: ATOM     25  C   UNL     1     143.784  74.977 218.105 -0.18 -0.00    +0.006 A  
DOCKED: ATOM     26  C   UNL     1     143.176  76.505 219.783 -0.35 -0.00    +0.006 A  
DOCKED: ATOM     27  C   UNL     1     143.442  75.898 217.140 -0.22 -0.00    +0.000 A  
DOCKED: ATOM     28  C   UNL     1     142.828  77.440 218.815 -0.33 -0.00    +0.000 A  
DOCKED: ATOM     29  C   UNL     1     142.959  77.142 217.478 -0.29 -0.00    +0.000 A  
DOCKED: ENDBRANCH  20  24
DOCKED: ENDBRANCH  16  18
DOCKED: ENDBRANCH   1  16
DOCKED: TORSDOF 5
DOCKED: TER
DOCKED: ENDMDL
________________________________________________________________________________


    FINAL DOCKED STATE:
    ________________________


Run:   4 / 20
Time taken for this run:   0.026s

DOCKED: MODEL        4
DOCKED: USER    Run = 4
DOCKED: USER
DOCKED: USER    Estimated Free Energy of Binding    =  -8.29 kcal/mol  [=(1)+(2)+(3)-(4)]
DOCKED: USER
DOCKED: USER    (1) Final Intermolecular Energy     =  -9.78 kcal/mol
DOCKED: USER        vdW + Hbond + desolv Energy     =  -9.75 kcal/mol
DOCKED: USER        Electrostatic Energy            =  -0.04 kcal/mol
DOCKED: USER        Moving Ligand-Fixed Receptor    =  -9.78 kcal/mol
DOCKED: USER        Moving Ligand-Moving Receptor   =  +0.00 kcal/mol
DOCKED: USER    (2) Final Total Internal Energy     =  -1.51 kcal/mol
DOCKED: USER    (3) Torsional Free Energy           =  +1.49 kcal/mol
DOCKED: USER    (4) Unbound System's Energy         =  -1.51 kcal/mol
DOCKED: USER
DOCKED: USER
DOCKED: REMARK SMILES O=C(NCC(=O)N1CCCC[C@H]1c1ccccc1)c1ccc2ccccc2n1
DOCKED: REMARK SMILES IDX 4 1 3 2 2 3 1 4 19 6 20 7 28 8 21 9 27 10 22 11 26 12 23 13
DOCKED: REMARK SMILES IDX 25 14 24 15 5 16 6 17 7 18 8 19 12 20 9 21 11 22 10 23 13 24
DOCKED: REMARK SMILES IDX 14 25 18 26 15 27 17 28 16 29
DOCKED: REMARK H PARENT 3 5
DOCKED: USER                              x       y       z     vdW  Elec       q    Type
DOCKED: USER                           _______ _______ _______ _____ _____    ______ ____
DOCKED: ROOT
DOCKED: ATOM      1  C   UNL     1     139.601  73.816 221.388 -0.18 -0.04    +0.216 C  
DOCKED: ENDROOT
DOCKED: BRANCH   1   2
DOCKED: ATOM      2  N   UNL     1     139.705  72.977 222.535 -0.13 +0.06    -0.342 N  
DOCKED: ATOM      3  C   UNL     1     139.584  71.547 222.502 -0.18 -0.05    +0.270 C  
DOCKED: ATOM      4  O   UNL     1     139.374  70.963 221.384 -0.08 +0.05    -0.268 OA 
DOCKED: ATOM      5  H   UNL     1     139.883  73.393 223.498 -0.40 -0.01    +0.164 HD 
DOCKED: BRANCH   3   6
DOCKED: ATOM      6  C   UNL     1     139.700  70.776 223.742 -0.30 -0.02    +0.128 A  
DOCKED: ATOM      7  C   UNL     1     139.243  69.475 223.750 -0.27 -0.01    +0.035 A  
DOCKED: ATOM      8  N   UNL     1     140.227  71.275 224.863 -0.31 +0.04    -0.243 NA 
DOCKED: ATOM      9  C   UNL     1     139.363  68.762 224.935 -0.39 -0.00    +0.013 A  
DOCKED: ATOM     10  C   UNL     1     140.355  70.612 226.017 -0.51 -0.01    +0.071 A  
DOCKED: ATOM     11  C   UNL     1     139.911  69.307 226.073 -0.50 -0.00    +0.000 A  
DOCKED: ATOM     12  C   UNL     1     140.921  71.239 227.117 -0.70 -0.00    +0.029 A  
DOCKED: ATOM     13  C   UNL     1     140.033  68.602 227.253 -0.63 -0.00    +0.010 A  
DOCKED: ATOM     14  C   UNL     1     141.033  70.514 228.294 -0.58 -0.00    +0.002 A  
DOCKED: ATOM     15  C   UNL     1     140.592  69.196 228.372 -0.63 -0.00    +0.001 A  
DOCKED: ENDBRANCH   3   6
DOCKED: ENDBRANCH   1   2
DOCKED: BRANCH   1  16
DOCKED: ATOM     16  C   UNL     1     140.020  75.196 221.441 -0.22 -0.05    +0.242 C  
DOCKED: ATOM     17  O   UNL     1     139.980  75.724 222.636 -0.43 +0.03    -0.273 OA 
DOCKED: BRANCH  16  18
DOCKED: ATOM     18  N   UNL     1     140.459  76.077 220.435 -0.06 +0.10    -0.334 N  
DOCKED: ATOM     19  C   UNL     1     140.056  76.067 219.052 -0.05 -0.04    +0.120 C  
DOCKED: ATOM     20  C   UNL     1     141.437  77.091 220.824 -0.25 -0.06    +0.115 C  
DOCKED: ATOM     21  C   UNL     1     140.090  77.442 218.398 -0.05 -0.01    +0.022 C  
DOCKED: ATOM     22  C   UNL     1     142.195  77.710 219.724 -0.28 -0.02    +0.030 C  
DOCKED: ATOM     23  C   UNL     1     141.480  77.958 218.445 -0.20 -0.00    +0.004 C  
DOCKED: BRANCH  20  24
DOCKED: ATOM     24  C   UNL     1     140.916  78.026 221.854 -0.36 +0.01    -0.025 A  
DOCKED: ATOM     25  C   UNL     1     141.736  78.476 222.897 -0.48 -0.00    +0.006 A  
DOCKED: ATOM     26  C   UNL     1     139.625  78.506 221.867 -0.25 -0.00    +0.006 A  
DOCKED: ATOM     27  C   UNL     1     141.277  79.339 223.868 -0.58 -0.00    +0.000 A  
DOCKED: ATOM     28  C   UNL     1     139.153  79.377 222.842 -0.32 -0.00    +0.000 A  
DOCKED: ATOM     29  C   UNL     1     139.981  79.803 223.856 -0.45 -0.00    +0.000 A  
DOCKED: ENDBRANCH  20  24
DOCKED: ENDBRANCH  16  18
DOCKED: ENDBRANCH   1  16
DOCKED: TORSDOF 5
DOCKED: TER
DOCKED: ENDMDL
________________________________________________________________________________


    FINAL DOCKED STATE:
    ________________________


Run:   5 / 20
Time taken for this run:   0.026s

DOCKED: MODEL        5
DOCKED: USER    Run = 5
DOCKED: USER
DOCKED: USER    Estimated Free Energy of Binding    =  -8.82 kcal/mol  [=(1)+(2)+(3)-(4)]
DOCKED: USER
DOCKED: USER    (1) Final Intermolecular Energy     = -10.31 kcal/mol
DOCKED: USER        vdW + Hbond + desolv Energy     = -10.24 kcal/mol
DOCKED: USER        Electrostatic Energy            =  -0.07 kcal/mol
DOCKED: USER        Moving Ligand-Fixed Receptor    = -10.31 kcal/mol
DOCKED: USER        Moving Ligand-Moving Receptor   =  +0.00 kcal/mol
DOCKED: USER    (2) Final Total Internal Energy     =  -1.76 kcal/mol
DOCKED: USER    (3) Torsional Free Energy           =  +1.49 kcal/mol
DOCKED: USER    (4) Unbound System's Energy         =  -1.76 kcal/mol
DOCKED: USER
DOCKED: USER
DOCKED: REMARK SMILES O=C(NCC(=O)N1CCCC[C@H]1c1ccccc1)c1ccc2ccccc2n1
DOCKED: REMARK SMILES IDX 4 1 3 2 2 3 1 4 19 6 20 7 28 8 21 9 27 10 22 11 26 12 23 13
DOCKED: REMARK SMILES IDX 25 14 24 15 5 16 6 17 7 18 8 19 12 20 9 21 11 22 10 23 13 24
DOCKED: REMARK SMILES IDX 14 25 18 26 15 27 17 28 16 29
DOCKED: REMARK H PARENT 3 5
DOCKED: USER                              x       y       z     vdW  Elec       q    Type
DOCKED: USER                           _______ _______ _______ _____ _____    ______ ____
DOCKED: ROOT
DOCKED: ATOM      1  C   UNL     1     139.834  74.031 221.121 -0.17 -0.04    +0.216 C  
DOCKED: ENDROOT
DOCKED: BRANCH   1   2
DOCKED: ATOM      2  N   UNL     1     139.755  73.220 222.290 -0.15 +0.05    -0.342 N  
DOCKED: ATOM      3  C   UNL     1     140.348  71.919 222.412 -0.21 -0.03    +0.270 C  
DOCKED: ATOM      4  O   UNL     1     141.000  71.434 221.425 -0.13 +0.03    -0.268 OA 
DOCKED: ATOM      5  H   UNL     1     139.231  73.561 223.152 -0.50 -0.07    +0.164 HD 
DOCKED: BRANCH   3   6
DOCKED: ATOM      6  C   UNL     1     140.201  71.164 223.658 -0.32 -0.02    +0.128 A  
DOCKED: ATOM      7  C   UNL     1     139.558  69.944 223.614 -0.26 -0.01    +0.035 A  
DOCKED: ATOM      8  N   UNL     1     140.659  71.601 224.834 -0.31 +0.03    -0.243 NA 
DOCKED: ATOM      9  C   UNL     1     139.430  69.245 224.807 -0.37 -0.00    +0.013 A  
DOCKED: ATOM     10  C   UNL     1     140.551  70.950 225.996 -0.54 -0.01    +0.071 A  
DOCKED: ATOM     11  C   UNL     1     139.915  69.725 226.001 -0.49 -0.00    +0.000 A  
DOCKED: ATOM     12  C   UNL     1     141.070  71.508 227.155 -0.74 -0.00    +0.029 A  
DOCKED: ATOM     13  C   UNL     1     139.791  69.033 227.188 -0.58 -0.00    +0.010 A  
DOCKED: ATOM     14  C   UNL     1     140.933  70.797 228.338 -0.61 -0.00    +0.002 A  
DOCKED: ATOM     15  C   UNL     1     140.296  69.561 228.366 -0.60 -0.00    +0.001 A  
DOCKED: ENDBRANCH   3   6
DOCKED: ENDBRANCH   1   2
DOCKED: BRANCH   1  16
DOCKED: ATOM     16  C   UNL     1     140.723  75.165 221.065 -0.20 -0.06    +0.242 C  
DOCKED: ATOM     17  O   UNL     1     140.951  75.726 222.225 -0.43 +0.06    -0.273 OA 
DOCKED: BRANCH  16  18
DOCKED: ATOM     18  N   UNL     1     141.385  75.781 219.986 -0.07 +0.13    -0.334 N  
DOCKED: ATOM     19  C   UNL     1     141.344  77.179 219.642 -0.18 -0.06    +0.120 C  
DOCKED: ATOM     20  C   UNL     1     142.178  74.915 219.116 -0.15 -0.04    +0.115 C  
DOCKED: ATOM     21  C   UNL     1     142.609  77.674 218.955 -0.29 -0.02    +0.022 C  
DOCKED: ATOM     22  C   UNL     1     142.505  75.463 217.789 -0.15 -0.01    +0.030 C  
DOCKED: ATOM     23  C   UNL     1     142.794  76.917 217.692 -0.28 -0.00    +0.004 C  
DOCKED: BRANCH  20  24
DOCKED: ATOM     24  C   UNL     1     143.297  74.250 219.832 -0.31 +0.01    -0.025 A  
DOCKED: ATOM     25  C   UNL     1     144.451  74.965 220.183 -0.38 -0.00    +0.006 A  
DOCKED: ATOM     26  C   UNL     1     143.292  72.921 220.193 -0.28 -0.00    +0.006 A  
DOCKED: ATOM     27  C   UNL     1     145.505  74.372 220.842 -0.53 -0.00    +0.000 A  
DOCKED: ATOM     28  C   UNL     1     144.350  72.315 220.858 -0.37 -0.00    +0.000 A  
DOCKED: ATOM     29  C   UNL     1     145.472  73.040 221.190 -0.62 -0.00    +0.000 A  
DOCKED: ENDBRANCH  20  24
DOCKED: ENDBRANCH  16  18
DOCKED: ENDBRANCH   1  16
DOCKED: TORSDOF 5
DOCKED: TER
DOCKED: ENDMDL
________________________________________________________________________________


    FINAL DOCKED STATE:
    ________________________


Run:   6 / 20
Time taken for this run:   0.026s

DOCKED: MODEL        6
DOCKED: USER    Run = 6
DOCKED: USER
DOCKED: USER    Estimated Free Energy of Binding    =  -8.77 kcal/mol  [=(1)+(2)+(3)-(4)]
DOCKED: USER
DOCKED: USER    (1) Final Intermolecular Energy     = -10.26 kcal/mol
DOCKED: USER        vdW + Hbond + desolv Energy     = -10.19 kcal/mol
DOCKED: USER        Electrostatic Energy            =  -0.07 kcal/mol
DOCKED: USER        Moving Ligand-Fixed Receptor    = -10.26 kcal/mol
DOCKED: USER        Moving Ligand-Moving Receptor   =  +0.00 kcal/mol
DOCKED: USER    (2) Final Total Internal Energy     =  -1.69 kcal/mol
DOCKED: USER    (3) Torsional Free Energy           =  +1.49 kcal/mol
DOCKED: USER    (4) Unbound System's Energy         =  -1.69 kcal/mol
DOCKED: USER
DOCKED: USER
DOCKED: REMARK SMILES O=C(NCC(=O)N1CCCC[C@H]1c1ccccc1)c1ccc2ccccc2n1
DOCKED: REMARK SMILES IDX 4 1 3 2 2 3 1 4 19 6 20 7 28 8 21 9 27 10 22 11 26 12 23 13
DOCKED: REMARK SMILES IDX 25 14 24 15 5 16 6 17 7 18 8 19 12 20 9 21 11 22 10 23 13 24
DOCKED: REMARK SMILES IDX 14 25 18 26 15 27 17 28 16 29
DOCKED: REMARK H PARENT 3 5
DOCKED: USER                              x       y       z     vdW  Elec       q    Type
DOCKED: USER                           _______ _______ _______ _____ _____    ______ ____
DOCKED: ROOT
DOCKED: ATOM      1  C   UNL     1     139.734  74.391 221.147 -0.17 -0.04    +0.216 C  
DOCKED: ENDROOT
DOCKED: BRANCH   1   2
DOCKED: ATOM      2  N   UNL     1     139.610  73.530 222.275 -0.13 +0.06    -0.342 N  
DOCKED: ATOM      3  C   UNL     1     140.409  72.357 222.487 -0.20 -0.03    +0.270 C  
DOCKED: ATOM      4  O   UNL     1     141.301  72.044 221.626 -0.18 +0.02    -0.268 OA 
DOCKED: ATOM      5  H   UNL     1     138.891  73.730 223.034 -0.54 -0.09    +0.164 HD 
DOCKED: BRANCH   3   6
DOCKED: ATOM      6  C   UNL     1     140.196  71.534 223.680 -0.34 -0.02    +0.128 A  
DOCKED: ATOM      7  C   UNL     1     139.478  70.363 223.549 -0.29 -0.01    +0.035 A  
DOCKED: ATOM      8  N   UNL     1     140.664  71.864 224.886 -0.28 +0.03    -0.243 NA 
DOCKED: ATOM      9  C   UNL     1     139.289  69.599 224.692 -0.36 -0.00    +0.013 A  
DOCKED: ATOM     10  C   UNL     1     140.498  71.148 226.002 -0.55 -0.01    +0.071 A  
DOCKED: ATOM     11  C   UNL     1     139.786  69.969 225.920 -0.48 -0.00    +0.000 A  
DOCKED: ATOM     12  C   UNL     1     141.034  71.596 227.200 -0.75 -0.01    +0.029 A  
DOCKED: ATOM     13  C   UNL     1     139.601  69.211 227.059 -0.55 -0.00    +0.010 A  
DOCKED: ATOM     14  C   UNL     1     140.836  70.821 228.333 -0.62 -0.00    +0.002 A  
DOCKED: ATOM     15  C   UNL     1     140.121  69.628 228.273 -0.62 -0.00    +0.001 A  
DOCKED: ENDBRANCH   3   6
DOCKED: ENDBRANCH   1   2
DOCKED: BRANCH   1  16
DOCKED: ATOM     16  C   UNL     1     140.888  75.241 220.987 -0.20 -0.06    +0.242 C  
DOCKED: ATOM     17  O   UNL     1     141.446  75.604 222.113 -0.32 +0.08    -0.273 OA 
DOCKED: BRANCH  16  18
DOCKED: ATOM     18  N   UNL     1     141.518  75.755 219.838 -0.07 +0.13    -0.334 N  
DOCKED: ATOM     19  C   UNL     1     141.497  77.124 219.390 -0.19 -0.06    +0.120 C  
DOCKED: ATOM     20  C   UNL     1     142.250  74.804 219.005 -0.14 -0.04    +0.115 C  
DOCKED: ATOM     21  C   UNL     1     142.743  77.530 218.615 -0.32 -0.02    +0.022 C  
DOCKED: ATOM     22  C   UNL     1     142.532  75.242 217.627 -0.13 -0.01    +0.030 C  
DOCKED: ATOM     23  C   UNL     1     142.853  76.675 217.408 -0.25 -0.00    +0.004 C  
DOCKED: BRANCH  20  24
DOCKED: ATOM     24  C   UNL     1     143.382  74.164 219.722 -0.31 +0.01    -0.025 A  
DOCKED: ATOM     25  C   UNL     1     144.462  74.927 220.186 -0.39 -0.00    +0.006 A  
DOCKED: ATOM     26  C   UNL     1     143.459  72.813 219.976 -0.27 -0.00    +0.006 A  
DOCKED: ATOM     27  C   UNL     1     145.527  74.358 220.849 -0.54 -0.00    +0.000 A  
DOCKED: ATOM     28  C   UNL     1     144.529  72.230 220.644 -0.37 -0.00    +0.000 A  
DOCKED: ATOM     29  C   UNL     1     145.578  73.003 221.090 -0.62 -0.00    +0.000 A  
DOCKED: ENDBRANCH  20  24
DOCKED: ENDBRANCH  16  18
DOCKED: ENDBRANCH   1  16
DOCKED: TORSDOF 5
DOCKED: TER
DOCKED: ENDMDL
________________________________________________________________________________


    FINAL DOCKED STATE:
    ________________________


Run:   7 / 20
Time taken for this run:   0.026s

DOCKED: MODEL        7
DOCKED: USER    Run = 7
DOCKED: USER
DOCKED: USER    Estimated Free Energy of Binding    =  -8.75 kcal/mol  [=(1)+(2)+(3)-(4)]
DOCKED: USER
DOCKED: USER    (1) Final Intermolecular Energy     = -10.24 kcal/mol
DOCKED: USER        vdW + Hbond + desolv Energy     = -10.21 kcal/mol
DOCKED: USER        Electrostatic Energy            =  -0.03 kcal/mol
DOCKED: USER        Moving Ligand-Fixed Receptor    = -10.24 kcal/mol
DOCKED: USER        Moving Ligand-Moving Receptor   =  +0.00 kcal/mol
DOCKED: USER    (2) Final Total Internal Energy     =  -1.86 kcal/mol
DOCKED: USER    (3) Torsional Free Energy           =  +1.49 kcal/mol
DOCKED: USER    (4) Unbound System's Energy         =  -1.86 kcal/mol
DOCKED: USER
DOCKED: USER
DOCKED: REMARK SMILES O=C(NCC(=O)N1CCCC[C@H]1c1ccccc1)c1ccc2ccccc2n1
DOCKED: REMARK SMILES IDX 4 1 3 2 2 3 1 4 19 6 20 7 28 8 21 9 27 10 22 11 26 12 23 13
DOCKED: REMARK SMILES IDX 25 14 24 15 5 16 6 17 7 18 8 19 12 20 9 21 11 22 10 23 13 24
DOCKED: REMARK SMILES IDX 14 25 18 26 15 27 17 28 16 29
DOCKED: REMARK H PARENT 3 5
DOCKED: USER                              x       y       z     vdW  Elec       q    Type
DOCKED: USER                           _______ _______ _______ _____ _____    ______ ____
DOCKED: ROOT
DOCKED: ATOM      1  C   UNL     1     139.888  74.204 221.096 -0.17 -0.04    +0.216 C  
DOCKED: ENDROOT
DOCKED: BRANCH   1   2
DOCKED: ATOM      2  N   UNL     1     139.855  73.408 222.278 -0.15 +0.04    -0.342 N  
DOCKED: ATOM      3  C   UNL     1     140.249  72.030 222.333 -0.21 -0.04    +0.270 C  
DOCKED: ATOM      4  O   UNL     1     140.665  71.455 221.270 -0.12 +0.04    -0.268 OA 
DOCKED: ATOM      5  H   UNL     1     139.524  73.821 223.201 -0.50 -0.04    +0.164 HD 
DOCKED: BRANCH   3   6
DOCKED: ATOM      6  C   UNL     1     140.169  71.298 223.600 -0.32 -0.02    +0.128 A  
DOCKED: ATOM      7  C   UNL     1     139.611  70.037 223.595 -0.26 -0.01    +0.035 A  
DOCKED: ATOM      8  N   UNL     1     140.612  71.796 224.757 -0.28 +0.03    -0.243 NA 
DOCKED: ATOM      9  C   UNL     1     139.546  69.362 224.806 -0.37 -0.00    +0.013 A  
DOCKED: ATOM     10  C   UNL     1     140.563  71.169 225.937 -0.55 -0.01    +0.071 A  
DOCKED: ATOM     11  C   UNL     1     140.012  69.905 225.981 -0.50 -0.00    +0.000 A  
DOCKED: ATOM     12  C   UNL     1     141.056  71.791 227.074 -0.76 -0.01    +0.029 A  
DOCKED: ATOM     13  C   UNL     1     139.950  69.237 227.187 -0.58 -0.00    +0.010 A  
DOCKED: ATOM     14  C   UNL     1     140.984  71.104 228.276 -0.68 -0.00    +0.002 A  
DOCKED: ATOM     15  C   UNL     1     140.433  69.828 228.344 -0.59 -0.00    +0.001 A  
DOCKED: ENDBRANCH   3   6
DOCKED: ENDBRANCH   1   2
DOCKED: BRANCH   1  16
DOCKED: ATOM     16  C   UNL     1     140.793  75.322 220.981 -0.20 -0.06    +0.242 C  
DOCKED: ATOM     17  O   UNL     1     141.017  75.949 222.107 -0.38 +0.08    -0.273 OA 
DOCKED: BRANCH  16  18
DOCKED: ATOM     18  N   UNL     1     141.475  75.862 219.874 -0.07 +0.13    -0.334 N  
DOCKED: ATOM     19  C   UNL     1     141.490  77.244 219.469 -0.19 -0.06    +0.120 C  
DOCKED: ATOM     20  C   UNL     1     142.225  74.926 219.039 -0.15 -0.04    +0.115 C  
DOCKED: ATOM     21  C   UNL     1     142.771  77.655 218.756 -0.27 -0.02    +0.022 C  
DOCKED: ATOM     22  C   UNL     1     142.567  75.402 217.688 -0.14 -0.01    +0.030 C  
DOCKED: ATOM     23  C   UNL     1     142.916  76.837 217.527 -0.27 -0.00    +0.004 C  
DOCKED: BRANCH  20  24
DOCKED: ATOM     24  C   UNL     1     143.319  74.246 219.778 -0.31 +0.01    -0.025 A  
DOCKED: ATOM     25  C   UNL     1     144.469  74.948 220.166 -0.38 -0.00    +0.006 A  
DOCKED: ATOM     26  C   UNL     1     143.294  72.914 220.126 -0.28 -0.00    +0.006 A  
DOCKED: ATOM     27  C   UNL     1     145.500  74.342 220.848 -0.54 -0.00    +0.000 A  
DOCKED: ATOM     28  C   UNL     1     144.329  72.294 220.814 -0.38 -0.00    +0.000 A  
DOCKED: ATOM     29  C   UNL     1     145.448  73.007 221.183 -0.61 -0.00    +0.000 A  
DOCKED: ENDBRANCH  20  24
DOCKED: ENDBRANCH  16  18
DOCKED: ENDBRANCH   1  16
DOCKED: TORSDOF 5
DOCKED: TER
DOCKED: ENDMDL
________________________________________________________________________________


    FINAL DOCKED STATE:
    ________________________


Run:   8 / 20
Time taken for this run:   0.026s

DOCKED: MODEL        8
DOCKED: USER    Run = 8
DOCKED: USER
DOCKED: USER    Estimated Free Energy of Binding    =  -8.75 kcal/mol  [=(1)+(2)+(3)-(4)]
DOCKED: USER
DOCKED: USER    (1) Final Intermolecular Energy     = -10.24 kcal/mol
DOCKED: USER        vdW + Hbond + desolv Energy     = -10.18 kcal/mol
DOCKED: USER        Electrostatic Energy            =  -0.06 kcal/mol
DOCKED: USER        Moving Ligand-Fixed Receptor    = -10.24 kcal/mol
DOCKED: USER        Moving Ligand-Moving Receptor   =  +0.00 kcal/mol
DOCKED: USER    (2) Final Total Internal Energy     =  -1.77 kcal/mol
DOCKED: USER    (3) Torsional Free Energy           =  +1.49 kcal/mol
DOCKED: USER    (4) Unbound System's Energy         =  -1.77 kcal/mol
DOCKED: USER
DOCKED: USER
DOCKED: REMARK SMILES O=C(NCC(=O)N1CCCC[C@H]1c1ccccc1)c1ccc2ccccc2n1
DOCKED: REMARK SMILES IDX 4 1 3 2 2 3 1 4 19 6 20 7 28 8 21 9 27 10 22 11 26 12 23 13
DOCKED: REMARK SMILES IDX 25 14 24 15 5 16 6 17 7 18 8 19 12 20 9 21 11 22 10 23 13 24
DOCKED: REMARK SMILES IDX 14 25 18 26 15 27 17 28 16 29
DOCKED: REMARK H PARENT 3 5
DOCKED: USER                              x       y       z     vdW  Elec       q    Type
DOCKED: USER                           _______ _______ _______ _____ _____    ______ ____
DOCKED: ROOT
DOCKED: ATOM      1  C   UNL     1     139.782  74.335 221.167 -0.17 -0.04    +0.216 C  
DOCKED: ENDROOT
DOCKED: BRANCH   1   2
DOCKED: ATOM      2  N   UNL     1     139.720  73.507 222.325 -0.13 +0.05    -0.342 N  
DOCKED: ATOM      3  C   UNL     1     140.329  72.211 222.423 -0.21 -0.03    +0.270 C  
DOCKED: ATOM      4  O   UNL     1     140.978  71.748 221.424 -0.15 +0.03    -0.268 OA 
DOCKED: ATOM      5  H   UNL     1     139.200  73.829 223.195 -0.49 -0.08    +0.164 HD 
DOCKED: BRANCH   3   6
DOCKED: ATOM      6  C   UNL     1     140.199  71.436 223.659 -0.33 -0.02    +0.128 A  
DOCKED: ATOM      7  C   UNL     1     139.600  70.195 223.596 -0.28 -0.01    +0.035 A  
DOCKED: ATOM      8  N   UNL     1     140.634  71.875 224.843 -0.28 +0.03    -0.243 NA 
DOCKED: ATOM      9  C   UNL     1     139.489  69.478 224.779 -0.37 -0.00    +0.013 A  
DOCKED: ATOM     10  C   UNL     1     140.541  71.207 225.997 -0.55 -0.01    +0.071 A  
DOCKED: ATOM     11  C   UNL     1     139.948  69.960 225.983 -0.50 -0.00    +0.000 A  
DOCKED: ATOM     12  C   UNL     1     141.031  71.769 227.166 -0.77 -0.01    +0.029 A  
DOCKED: ATOM     13  C   UNL     1     139.840  69.251 227.161 -0.57 -0.00    +0.010 A  
DOCKED: ATOM     14  C   UNL     1     140.912  71.040 228.340 -0.66 -0.00    +0.002 A  
DOCKED: ATOM     15  C   UNL     1     140.318  69.781 228.348 -0.60 -0.00    +0.001 A  
DOCKED: ENDBRANCH   3   6
DOCKED: ENDBRANCH   1   2
DOCKED: BRANCH   1  16
DOCKED: ATOM     16  C   UNL     1     140.854  75.284 220.991 -0.20 -0.06    +0.242 C  
DOCKED: ATOM     17  O   UNL     1     141.314  75.786 222.108 -0.34 +0.09    -0.273 OA 
DOCKED: BRANCH  16  18
DOCKED: ATOM     18  N   UNL     1     141.491  75.770 219.834 -0.07 +0.13    -0.334 N  
DOCKED: ATOM     19  C   UNL     1     141.469  77.127 219.350 -0.18 -0.06    +0.120 C  
DOCKED: ATOM     20  C   UNL     1     142.231  74.801 219.029 -0.14 -0.04    +0.115 C  
DOCKED: ATOM     21  C   UNL     1     142.720  77.517 218.574 -0.32 -0.02    +0.022 C  
DOCKED: ATOM     22  C   UNL     1     142.521  75.203 217.643 -0.13 -0.01    +0.030 C  
DOCKED: ATOM     23  C   UNL     1     142.840  76.632 217.390 -0.25 -0.00    +0.004 C  
DOCKED: BRANCH  20  24
DOCKED: ATOM     24  C   UNL     1     143.360  74.181 219.770 -0.31 +0.01    -0.025 A  
DOCKED: ATOM     25  C   UNL     1     144.459  74.949 220.177 -0.39 -0.00    +0.006 A  
DOCKED: ATOM     26  C   UNL     1     143.415  72.846 220.102 -0.28 -0.00    +0.006 A  
DOCKED: ATOM     27  C   UNL     1     145.521  74.400 220.860 -0.51 -0.00    +0.000 A  
DOCKED: ATOM     28  C   UNL     1     144.482  72.283 220.792 -0.38 -0.00    +0.000 A  
DOCKED: ATOM     29  C   UNL     1     145.551  73.061 221.179 -0.63 -0.00    +0.000 A  
DOCKED: ENDBRANCH  20  24
DOCKED: ENDBRANCH  16  18
DOCKED: ENDBRANCH   1  16
DOCKED: TORSDOF 5
DOCKED: TER
DOCKED: ENDMDL
________________________________________________________________________________


    FINAL DOCKED STATE:
    ________________________


Run:   9 / 20
Time taken for this run:   0.026s

DOCKED: MODEL        9
DOCKED: USER    Run = 9
DOCKED: USER
DOCKED: USER    Estimated Free Energy of Binding    =  -8.04 kcal/mol  [=(1)+(2)+(3)-(4)]
DOCKED: USER
DOCKED: USER    (1) Final Intermolecular Energy     =  -9.53 kcal/mol
DOCKED: USER        vdW + Hbond + desolv Energy     =  -9.47 kcal/mol
DOCKED: USER        Electrostatic Energy            =  -0.06 kcal/mol
DOCKED: USER        Moving Ligand-Fixed Receptor    =  -9.53 kcal/mol
DOCKED: USER        Moving Ligand-Moving Receptor   =  +0.00 kcal/mol
DOCKED: USER    (2) Final Total Internal Energy     =  -1.55 kcal/mol
DOCKED: USER    (3) Torsional Free Energy           =  +1.49 kcal/mol
DOCKED: USER    (4) Unbound System's Energy         =  -1.55 kcal/mol
DOCKED: USER
DOCKED: USER
DOCKED: REMARK SMILES O=C(NCC(=O)N1CCCC[C@H]1c1ccccc1)c1ccc2ccccc2n1
DOCKED: REMARK SMILES IDX 4 1 3 2 2 3 1 4 19 6 20 7 28 8 21 9 27 10 22 11 26 12 23 13
DOCKED: REMARK SMILES IDX 25 14 24 15 5 16 6 17 7 18 8 19 12 20 9 21 11 22 10 23 13 24
DOCKED: REMARK SMILES IDX 14 25 18 26 15 27 17 28 16 29
DOCKED: REMARK H PARENT 3 5
DOCKED: USER                              x       y       z     vdW  Elec       q    Type
DOCKED: USER                           _______ _______ _______ _____ _____    ______ ____
DOCKED: ROOT
DOCKED: ATOM      1  C   UNL     1     141.387  72.111 219.974 -0.08 -0.03    +0.216 C  
DOCKED: ENDROOT
DOCKED: BRANCH   1   2
DOCKED: ATOM      2  N   UNL     1     141.080  71.493 221.221 -0.08 +0.04    -0.342 N  
DOCKED: ATOM      3  C   UNL     1     140.658  72.206 222.392 -0.20 -0.02    +0.270 C  
DOCKED: ATOM      4  O   UNL     1     140.537  73.478 222.341 -0.77 -0.01    -0.268 OA 
DOCKED: ATOM      5  H   UNL     1     141.155  70.438 221.336 +0.06 -0.02    +0.164 HD 
DOCKED: BRANCH   3   6
DOCKED: ATOM      6  C   UNL     1     140.375  71.475 223.629 -0.33 -0.02    +0.128 A  
DOCKED: ATOM      7  C   UNL     1     139.636  70.313 223.550 -0.28 -0.01    +0.035 A  
DOCKED: ATOM      8  N   UNL     1     140.798  71.882 224.829 -0.24 +0.03    -0.243 NA 
DOCKED: ATOM      9  C   UNL     1     139.379  69.636 224.735 -0.37 -0.00    +0.013 A  
DOCKED: ATOM     10  C   UNL     1     140.567  71.250 225.985 -0.55 -0.01    +0.071 A  
DOCKED: ATOM     11  C   UNL     1     139.831  70.083 225.955 -0.49 -0.00    +0.000 A  
DOCKED: ATOM     12  C   UNL     1     141.061  71.772 227.171 -0.77 -0.01    +0.029 A  
DOCKED: ATOM     13  C   UNL     1     139.579  69.413 227.134 -0.55 -0.00    +0.010 A  
DOCKED: ATOM     14  C   UNL     1     140.796  71.084 228.345 -0.66 -0.00    +0.002 A  
DOCKED: ATOM     15  C   UNL     1     140.056  69.905 228.338 -0.61 -0.00    +0.001 A  
DOCKED: ENDBRANCH   3   6
DOCKED: ENDBRANCH   1   2
DOCKED: BRANCH   1  16
DOCKED: ATOM     16  C   UNL     1     140.761  73.353 219.589 -0.04 -0.05    +0.242 C  
DOCKED: ATOM     17  O   UNL     1     139.627  73.208 218.954 -0.01 +0.05    -0.273 OA 
DOCKED: BRANCH  16  18
DOCKED: ATOM     18  N   UNL     1     141.155  74.692 219.771 -0.04 +0.09    -0.334 N  
DOCKED: ATOM     19  C   UNL     1     140.486  75.679 220.578 -0.18 -0.03    +0.120 C  
DOCKED: ATOM     20  C   UNL     1     142.349  75.134 219.053 -0.17 -0.04    +0.115 C  
DOCKED: ATOM     21  C   UNL     1     141.423  76.733 221.153 -0.25 -0.01    +0.022 C  
DOCKED: ATOM     22  C   UNL     1     142.507  76.590 218.903 -0.29 -0.02    +0.030 C  
DOCKED: ATOM     23  C   UNL     1     142.074  77.453 220.032 -0.31 -0.00    +0.004 C  
DOCKED: BRANCH  20  24
DOCKED: ATOM     24  C   UNL     1     143.570  74.391 219.458 -0.31 +0.01    -0.025 A  
DOCKED: ATOM     25  C   UNL     1     143.987  74.369 220.796 -0.30 -0.00    +0.006 A  
DOCKED: ATOM     26  C   UNL     1     144.366  73.692 218.579 -0.22 -0.00    +0.006 A  
DOCKED: ATOM     27  C   UNL     1     145.118  73.694 221.199 -0.52 -0.00    +0.000 A  
DOCKED: ATOM     28  C   UNL     1     145.508  73.007 218.976 -0.34 +0.00    +0.000 A  
DOCKED: ATOM     29  C   UNL     1     145.896  73.002 220.297 -0.59 +0.00    +0.000 A  
DOCKED: ENDBRANCH  20  24
DOCKED: ENDBRANCH  16  18
DOCKED: ENDBRANCH   1  16
DOCKED: TORSDOF 5
DOCKED: TER
DOCKED: ENDMDL
________________________________________________________________________________


    FINAL DOCKED STATE:
    ________________________


Run:   10 / 20
Time taken for this run:   0.026s

DOCKED: MODEL        10
DOCKED: USER    Run = 10
DOCKED: USER
DOCKED: USER    Estimated Free Energy of Binding    =  -7.96 kcal/mol  [=(1)+(2)+(3)-(4)]
DOCKED: USER
DOCKED: USER    (1) Final Intermolecular Energy     =  -9.45 kcal/mol
DOCKED: USER        vdW + Hbond + desolv Energy     =  -9.47 kcal/mol
DOCKED: USER        Electrostatic Energy            =  +0.02 kcal/mol
DOCKED: USER        Moving Ligand-Fixed Receptor    =  -9.45 kcal/mol
DOCKED: USER        Moving Ligand-Moving Receptor   =  +0.00 kcal/mol
DOCKED: USER    (2) Final Total Internal Energy     =  -2.24 kcal/mol
DOCKED: USER    (3) Torsional Free Energy           =  +1.49 kcal/mol
DOCKED: USER    (4) Unbound System's Energy         =  -2.24 kcal/mol
DOCKED: USER
DOCKED: USER
DOCKED: REMARK SMILES O=C(NCC(=O)N1CCCC[C@H]1c1ccccc1)c1ccc2ccccc2n1
DOCKED: REMARK SMILES IDX 4 1 3 2 2 3 1 4 19 6 20 7 28 8 21 9 27 10 22 11 26 12 23 13
DOCKED: REMARK SMILES IDX 25 14 24 15 5 16 6 17 7 18 8 19 12 20 9 21 11 22 10 23 13 24
DOCKED: REMARK SMILES IDX 14 25 18 26 15 27 17 28 16 29
DOCKED: REMARK H PARENT 3 5
DOCKED: USER                              x       y       z     vdW  Elec       q    Type
DOCKED: USER                           _______ _______ _______ _____ _____    ______ ____
DOCKED: ROOT
DOCKED: ATOM      1  C   UNL     1     141.060  73.512 221.395 -0.20 -0.02    +0.216 C  
DOCKED: ENDROOT
DOCKED: BRANCH   1   2
DOCKED: ATOM      2  N   UNL     1     141.143  74.877 221.799 -0.13 +0.05    -0.342 N  
DOCKED: ATOM      3  C   UNL     1     140.007  75.734 221.983 -0.23 -0.05    +0.270 C  
DOCKED: ATOM      4  O   UNL     1     138.833  75.268 221.784 -0.21 +0.06    -0.268 OA 
DOCKED: ATOM      5  H   UNL     1     142.087  75.331 221.986 -0.42 -0.07    +0.164 HD 
DOCKED: BRANCH   3   6
DOCKED: ATOM      6  C   UNL     1     140.203  77.126 222.394 -0.33 -0.03    +0.128 A  
DOCKED: ATOM      7  C   UNL     1     139.088  77.907 222.618 -0.29 -0.01    +0.035 A  
DOCKED: ATOM      8  N   UNL     1     141.409  77.674 222.561 -0.23 +0.12    -0.243 NA 
DOCKED: ATOM      9  C   UNL     1     139.297  79.223 223.007 -0.35 -0.00    +0.013 A  
DOCKED: ATOM     10  C   UNL     1     141.640  78.937 222.935 -0.50 -0.03    +0.071 A  
DOCKED: ATOM     11  C   UNL     1     140.554  79.756 223.170 -0.46 -0.00    +0.000 A  
DOCKED: ATOM     12  C   UNL     1     142.942  79.392 223.075 -0.50 -0.01    +0.029 A  
DOCKED: ATOM     13  C   UNL     1     140.766  81.063 223.556 -0.43 -0.00    +0.010 A  
DOCKED: ATOM     14  C   UNL     1     143.134  80.709 223.464 -0.61 -0.00    +0.002 A  
DOCKED: ATOM     15  C   UNL     1     142.054  81.552 223.706 -0.56 -0.00    +0.001 A  
DOCKED: ENDBRANCH   3   6
DOCKED: ENDBRANCH   1   2
DOCKED: BRANCH   1  16
DOCKED: ATOM     16  C   UNL     1     141.956  72.980 220.397 -0.13 -0.04    +0.242 C  
DOCKED: ATOM     17  O   UNL     1     141.354  72.397 219.393 -0.03 +0.05    -0.273 OA 
DOCKED: BRANCH  16  18
DOCKED: ATOM     18  N   UNL     1     143.361  72.971 220.313 -0.12 +0.06    -0.334 N  
DOCKED: ATOM     19  C   UNL     1     144.199  71.817 220.113 -0.25 -0.01    +0.120 C  
DOCKED: ATOM     20  C   UNL     1     144.041  74.255 220.464 -0.36 -0.04    +0.115 C  
DOCKED: ATOM     21  C   UNL     1     145.499  72.127 219.382 -0.34 +0.01    +0.022 C  
DOCKED: ATOM     22  C   UNL     1     145.474  74.189 220.798 -0.53 -0.01    +0.030 C  
DOCKED: ATOM     23  C   UNL     1     146.277  73.099 220.187 -0.50 +0.00    +0.004 C  
DOCKED: BRANCH  20  24
DOCKED: ATOM     24  C   UNL     1     143.670  75.229 219.404 -0.36 +0.01    -0.025 A  
DOCKED: ATOM     25  C   UNL     1     143.233  76.519 219.735 -0.37 -0.00    +0.006 A  
DOCKED: ATOM     26  C   UNL     1     143.721  74.949 218.057 -0.20 -0.00    +0.006 A  
DOCKED: ATOM     27  C   UNL     1     142.879  77.439 218.774 -0.33 -0.00    +0.000 A  
DOCKED: ATOM     28  C   UNL     1     143.366  75.871 217.080 -0.22 -0.00    +0.000 A  
DOCKED: ATOM     29  C   UNL     1     142.939  77.132 217.433 -0.29 -0.00    +0.000 A  
DOCKED: ENDBRANCH  20  24
DOCKED: ENDBRANCH  16  18
DOCKED: ENDBRANCH   1  16
DOCKED: TORSDOF 5
DOCKED: TER
DOCKED: ENDMDL
________________________________________________________________________________


    FINAL DOCKED STATE:
    ________________________


Run:   11 / 20
Time taken for this run:   0.026s

DOCKED: MODEL        11
DOCKED: USER    Run = 11
DOCKED: USER
DOCKED: USER    Estimated Free Energy of Binding    =  -8.74 kcal/mol  [=(1)+(2)+(3)-(4)]
DOCKED: USER
DOCKED: USER    (1) Final Intermolecular Energy     = -10.23 kcal/mol
DOCKED: USER        vdW + Hbond + desolv Energy     = -10.20 kcal/mol
DOCKED: USER        Electrostatic Energy            =  -0.03 kcal/mol
DOCKED: USER        Moving Ligand-Fixed Receptor    = -10.23 kcal/mol
DOCKED: USER        Moving Ligand-Moving Receptor   =  +0.00 kcal/mol
DOCKED: USER    (2) Final Total Internal Energy     =  -1.88 kcal/mol
DOCKED: USER    (3) Torsional Free Energy           =  +1.49 kcal/mol
DOCKED: USER    (4) Unbound System's Energy         =  -1.88 kcal/mol
DOCKED: USER
DOCKED: USER
DOCKED: REMARK SMILES O=C(NCC(=O)N1CCCC[C@H]1c1ccccc1)c1ccc2ccccc2n1
DOCKED: REMARK SMILES IDX 4 1 3 2 2 3 1 4 19 6 20 7 28 8 21 9 27 10 22 11 26 12 23 13
DOCKED: REMARK SMILES IDX 25 14 24 15 5 16 6 17 7 18 8 19 12 20 9 21 11 22 10 23 13 24
DOCKED: REMARK SMILES IDX 14 25 18 26 15 27 17 28 16 29
DOCKED: REMARK H PARENT 3 5
DOCKED: USER                              x       y       z     vdW  Elec       q    Type
DOCKED: USER                           _______ _______ _______ _____ _____    ______ ____
DOCKED: ROOT
DOCKED: ATOM      1  C   UNL     1     139.884  74.104 221.155 -0.17 -0.04    +0.216 C  
DOCKED: ENDROOT
DOCKED: BRANCH   1   2
DOCKED: ATOM      2  N   UNL     1     139.862  73.298 222.331 -0.15 +0.04    -0.342 N  
DOCKED: ATOM      3  C   UNL     1     140.216  71.908 222.362 -0.21 -0.04    +0.270 C  
DOCKED: ATOM      4  O   UNL     1     140.583  71.331 221.281 -0.11 +0.04    -0.268 OA 
DOCKED: ATOM      5  H   UNL     1     139.571  73.712 223.267 -0.48 -0.04    +0.164 HD 
DOCKED: BRANCH   3   6
DOCKED: ATOM      6  C   UNL     1     140.152  71.167 223.624 -0.32 -0.02    +0.128 A  
DOCKED: ATOM      7  C   UNL     1     139.596  69.904 223.616 -0.25 -0.01    +0.035 A  
DOCKED: ATOM      8  N   UNL     1     140.606  71.657 224.780 -0.30 +0.03    -0.243 NA 
DOCKED: ATOM      9  C   UNL     1     139.547  69.220 224.823 -0.37 -0.00    +0.013 A  
DOCKED: ATOM     10  C   UNL     1     140.572  71.021 225.956 -0.55 -0.01    +0.071 A  
DOCKED: ATOM     11  C   UNL     1     140.024  69.755 225.997 -0.49 -0.00    +0.000 A  
DOCKED: ATOM     12  C   UNL     1     141.077  71.636 227.092 -0.75 -0.00    +0.029 A  
DOCKED: ATOM     13  C   UNL     1     139.977  69.078 227.198 -0.59 -0.00    +0.010 A  
DOCKED: ATOM     14  C   UNL     1     141.019  70.939 228.289 -0.65 -0.00    +0.002 A  
DOCKED: ATOM     15  C   UNL     1     140.472  69.662 228.353 -0.60 -0.00    +0.001 A  
DOCKED: ENDBRANCH   3   6
DOCKED: ENDBRANCH   1   2
DOCKED: BRANCH   1  16
DOCKED: ATOM     16  C   UNL     1     140.726  75.272 221.075 -0.21 -0.06    +0.242 C  
DOCKED: ATOM     17  O   UNL     1     140.902  75.887 222.216 -0.41 +0.07    -0.273 OA 
DOCKED: BRANCH  16  18
DOCKED: ATOM     18  N   UNL     1     141.388  75.873 219.987 -0.08 +0.13    -0.334 N  
DOCKED: ATOM     19  C   UNL     1     141.370  77.271 219.640 -0.19 -0.06    +0.120 C  
DOCKED: ATOM     20  C   UNL     1     142.153  74.991 219.109 -0.15 -0.04    +0.115 C  
DOCKED: ATOM     21  C   UNL     1     142.637  77.741 218.938 -0.26 -0.02    +0.022 C  
DOCKED: ATOM     22  C   UNL     1     142.475  75.530 217.777 -0.15 -0.01    +0.030 C  
DOCKED: ATOM     23  C   UNL     1     142.792  76.978 217.675 -0.28 -0.00    +0.004 C  
DOCKED: BRANCH  20  24
DOCKED: ATOM     24  C   UNL     1     143.267  74.305 219.814 -0.31 +0.01    -0.025 A  
DOCKED: ATOM     25  C   UNL     1     143.165  72.956 220.178 -0.27 -0.00    +0.006 A  
DOCKED: ATOM     26  C   UNL     1     144.449  74.923 220.158 -0.41 -0.00    +0.006 A  
DOCKED: ATOM     27  C   UNL     1     144.180  72.297 220.836 -0.37 -0.00    +0.000 A  
DOCKED: ATOM     28  C   UNL     1     145.479  74.267 220.821 -0.57 -0.00    +0.000 A  
DOCKED: ATOM     29  C   UNL     1     145.352  72.940 221.167 -0.56 -0.00    +0.000 A  
DOCKED: ENDBRANCH  20  24
DOCKED: ENDBRANCH  16  18
DOCKED: ENDBRANCH   1  16
DOCKED: TORSDOF 5
DOCKED: TER
DOCKED: ENDMDL
________________________________________________________________________________


    FINAL DOCKED STATE:
    ________________________


Run:   12 / 20
Time taken for this run:   0.026s

DOCKED: MODEL        12
DOCKED: USER    Run = 12
DOCKED: USER
DOCKED: USER    Estimated Free Energy of Binding    =  -7.91 kcal/mol  [=(1)+(2)+(3)-(4)]
DOCKED: USER
DOCKED: USER    (1) Final Intermolecular Energy     =  -9.40 kcal/mol
DOCKED: USER        vdW + Hbond + desolv Energy     =  -9.42 kcal/mol
DOCKED: USER        Electrostatic Energy            =  +0.02 kcal/mol
DOCKED: USER        Moving Ligand-Fixed Receptor    =  -9.40 kcal/mol
DOCKED: USER        Moving Ligand-Moving Receptor   =  +0.00 kcal/mol
DOCKED: USER    (2) Final Total Internal Energy     =  -2.30 kcal/mol
DOCKED: USER    (3) Torsional Free Energy           =  +1.49 kcal/mol
DOCKED: USER    (4) Unbound System's Energy         =  -2.30 kcal/mol
DOCKED: USER
DOCKED: USER
DOCKED: REMARK SMILES O=C(NCC(=O)N1CCCC[C@H]1c1ccccc1)c1ccc2ccccc2n1
DOCKED: REMARK SMILES IDX 4 1 3 2 2 3 1 4 19 6 20 7 28 8 21 9 27 10 22 11 26 12 23 13
DOCKED: REMARK SMILES IDX 25 14 24 15 5 16 6 17 7 18 8 19 12 20 9 21 11 22 10 23 13 24
DOCKED: REMARK SMILES IDX 14 25 18 26 15 27 17 28 16 29
DOCKED: REMARK H PARENT 3 5
DOCKED: USER                              x       y       z     vdW  Elec       q    Type
DOCKED: USER                           _______ _______ _______ _____ _____    ______ ____
DOCKED: ROOT
DOCKED: ATOM      1  C   UNL     1     141.071  73.526 221.370 -0.20 -0.02    +0.216 C  
DOCKED: ENDROOT
DOCKED: BRANCH   1   2
DOCKED: ATOM      2  N   UNL     1     141.153  74.888 221.783 -0.13 +0.05    -0.342 N  
DOCKED: ATOM      3  C   UNL     1     140.016  75.741 221.979 -0.23 -0.05    +0.270 C  
DOCKED: ATOM      4  O   UNL     1     138.842  75.275 221.784 -0.22 +0.06    -0.268 OA 
DOCKED: ATOM      5  H   UNL     1     142.097  75.343 221.967 -0.43 -0.07    +0.164 HD 
DOCKED: BRANCH   3   6
DOCKED: ATOM      6  C   UNL     1     140.211  77.132 222.398 -0.33 -0.03    +0.128 A  
DOCKED: ATOM      7  C   UNL     1     139.096  77.910 222.626 -0.29 -0.01    +0.035 A  
DOCKED: ATOM      8  N   UNL     1     141.418  77.679 222.567 -0.23 +0.12    -0.243 NA 
DOCKED: ATOM      9  C   UNL     1     139.305  79.224 223.023 -0.35 -0.00    +0.013 A  
DOCKED: ATOM     10  C   UNL     1     141.648  78.939 222.948 -0.50 -0.03    +0.071 A  
DOCKED: ATOM     11  C   UNL     1     140.562  79.757 223.188 -0.46 -0.00    +0.000 A  
DOCKED: ATOM     12  C   UNL     1     142.950  79.394 223.090 -0.50 -0.01    +0.029 A  
DOCKED: ATOM     13  C   UNL     1     140.773  81.062 223.582 -0.42 -0.00    +0.010 A  
DOCKED: ATOM     14  C   UNL     1     143.141  80.709 223.486 -0.61 -0.00    +0.002 A  
DOCKED: ATOM     15  C   UNL     1     142.061  81.551 223.734 -0.57 -0.00    +0.001 A  
DOCKED: ENDBRANCH   3   6
DOCKED: ENDBRANCH   1   2
DOCKED: BRANCH   1  16
DOCKED: ATOM     16  C   UNL     1     141.993  72.989 220.401 -0.13 -0.04    +0.242 C  
DOCKED: ATOM     17  O   UNL     1     141.425  72.310 219.438 -0.04 +0.05    -0.273 OA 
DOCKED: BRANCH  16  18
DOCKED: ATOM     18  N   UNL     1     143.396  73.060 220.307 -0.12 +0.06    -0.334 N  
DOCKED: ATOM     19  C   UNL     1     144.294  71.962 220.056 -0.26 -0.01    +0.120 C  
DOCKED: ATOM     20  C   UNL     1     144.007  74.372 220.505 -0.33 -0.04    +0.115 C  
DOCKED: ATOM     21  C   UNL     1     145.569  72.371 219.330 -0.34 +0.01    +0.022 C  
DOCKED: ATOM     22  C   UNL     1     145.444  74.371 220.828 -0.42 -0.01    +0.030 C  
DOCKED: ATOM     23  C   UNL     1     146.300  73.352 220.168 -0.54 +0.00    +0.004 C  
DOCKED: BRANCH  20  24
DOCKED: ATOM     24  C   UNL     1     143.575  75.366 219.489 -0.37 +0.01    -0.025 A  
DOCKED: ATOM     25  C   UNL     1     143.706  75.096 218.120 -0.21 -0.00    +0.006 A  
DOCKED: ATOM     26  C   UNL     1     143.034  76.593 219.801 -0.34 -0.00    +0.006 A  
DOCKED: ATOM     27  C   UNL     1     143.319  76.002 217.157 -0.23 -0.00    +0.000 A  
DOCKED: ATOM     28  C   UNL     1     142.640  77.512 218.836 -0.33 -0.00    +0.000 A  
DOCKED: ATOM     29  C   UNL     1     142.780  77.222 217.498 -0.28 -0.00    +0.000 A  
DOCKED: ENDBRANCH  20  24
DOCKED: ENDBRANCH  16  18
DOCKED: ENDBRANCH   1  16
DOCKED: TORSDOF 5
DOCKED: TER
DOCKED: ENDMDL
________________________________________________________________________________


    FINAL DOCKED STATE:
    ________________________


Run:   13 / 20
Time taken for this run:   0.026s

DOCKED: MODEL        13
DOCKED: USER    Run = 13
DOCKED: USER
DOCKED: USER    Estimated Free Energy of Binding    =  -7.92 kcal/mol  [=(1)+(2)+(3)-(4)]
DOCKED: USER
DOCKED: USER    (1) Final Intermolecular Energy     =  -9.41 kcal/mol
DOCKED: USER        vdW + Hbond + desolv Energy     =  -9.43 kcal/mol
DOCKED: USER        Electrostatic Energy            =  +0.02 kcal/mol
DOCKED: USER        Moving Ligand-Fixed Receptor    =  -9.41 kcal/mol
DOCKED: USER        Moving Ligand-Moving Receptor   =  +0.00 kcal/mol
DOCKED: USER    (2) Final Total Internal Energy     =  -2.29 kcal/mol
DOCKED: USER    (3) Torsional Free Energy           =  +1.49 kcal/mol
DOCKED: USER    (4) Unbound System's Energy         =  -2.29 kcal/mol
DOCKED: USER
DOCKED: USER
DOCKED: REMARK SMILES O=C(NCC(=O)N1CCCC[C@H]1c1ccccc1)c1ccc2ccccc2n1
DOCKED: REMARK SMILES IDX 4 1 3 2 2 3 1 4 19 6 20 7 28 8 21 9 27 10 22 11 26 12 23 13
DOCKED: REMARK SMILES IDX 25 14 24 15 5 16 6 17 7 18 8 19 12 20 9 21 11 22 10 23 13 24
DOCKED: REMARK SMILES IDX 14 25 18 26 15 27 17 28 16 29
DOCKED: REMARK H PARENT 3 5
DOCKED: USER                              x       y       z     vdW  Elec       q    Type
DOCKED: USER                           _______ _______ _______ _____ _____    ______ ____
DOCKED: ROOT
DOCKED: ATOM      1  C   UNL     1     141.041  73.546 221.339 -0.20 -0.03    +0.216 C  
DOCKED: ENDROOT
DOCKED: BRANCH   1   2
DOCKED: ATOM      2  N   UNL     1     141.128  74.910 221.743 -0.15 +0.05    -0.342 N  
DOCKED: ATOM      3  C   UNL     1     139.993  75.752 221.989 -0.23 -0.05    +0.270 C  
DOCKED: ATOM      4  O   UNL     1     138.816  75.272 221.850 -0.22 +0.06    -0.268 OA 
DOCKED: ATOM      5  H   UNL     1     142.075  75.376 221.882 -0.40 -0.07    +0.164 HD 
DOCKED: BRANCH   3   6
DOCKED: ATOM      6  C   UNL     1     140.192  77.146 222.393 -0.33 -0.03    +0.128 A  
DOCKED: ATOM      7  C   UNL     1     139.079  77.935 222.599 -0.29 -0.01    +0.035 A  
DOCKED: ATOM      8  N   UNL     1     141.400  77.687 222.571 -0.23 +0.12    -0.243 NA 
DOCKED: ATOM      9  C   UNL     1     139.291  79.252 222.983 -0.34 -0.00    +0.013 A  
DOCKED: ATOM     10  C   UNL     1     141.634  78.951 222.940 -0.50 -0.03    +0.071 A  
DOCKED: ATOM     11  C   UNL     1     140.550  79.778 223.157 -0.46 -0.00    +0.000 A  
DOCKED: ATOM     12  C   UNL     1     142.937  79.399 223.092 -0.51 -0.01    +0.029 A  
DOCKED: ATOM     13  C   UNL     1     140.766  81.087 223.538 -0.43 -0.00    +0.010 A  
DOCKED: ATOM     14  C   UNL     1     143.132  80.717 223.475 -0.61 -0.00    +0.002 A  
DOCKED: ATOM     15  C   UNL     1     142.054  81.569 223.700 -0.56 -0.00    +0.001 A  
DOCKED: ENDBRANCH   3   6
DOCKED: ENDBRANCH   1   2
DOCKED: BRANCH   1  16
DOCKED: ATOM     16  C   UNL     1     141.969  72.997 220.381 -0.13 -0.04    +0.242 C  
DOCKED: ATOM     17  O   UNL     1     141.405  72.316 219.417 -0.04 +0.05    -0.273 OA 
DOCKED: BRANCH  16  18
DOCKED: ATOM     18  N   UNL     1     143.373  73.058 220.299 -0.12 +0.06    -0.334 N  
DOCKED: ATOM     19  C   UNL     1     144.266  71.952 220.067 -0.26 -0.01    +0.120 C  
DOCKED: ATOM     20  C   UNL     1     143.990  74.369 220.489 -0.34 -0.04    +0.115 C  
DOCKED: ATOM     21  C   UNL     1     145.549  72.346 219.348 -0.35 +0.01    +0.022 C  
DOCKED: ATOM     22  C   UNL     1     145.424  74.363 220.824 -0.43 -0.01    +0.030 C  
DOCKED: ATOM     23  C   UNL     1     146.280  73.331 220.183 -0.55 +0.00    +0.004 C  
DOCKED: BRANCH  20  24
DOCKED: ATOM     24  C   UNL     1     143.573  75.355 219.458 -0.37 +0.01    -0.025 A  
DOCKED: ATOM     25  C   UNL     1     143.693  75.061 218.093 -0.21 -0.00    +0.006 A  
DOCKED: ATOM     26  C   UNL     1     143.057  76.597 219.753 -0.36 -0.00    +0.006 A  
DOCKED: ATOM     27  C   UNL     1     143.320  75.958 217.117 -0.22 -0.00    +0.000 A  
DOCKED: ATOM     28  C   UNL     1     142.678  77.508 218.775 -0.33 -0.00    +0.000 A  
DOCKED: ATOM     29  C   UNL     1     142.806  77.194 217.441 -0.28 -0.00    +0.000 A  
DOCKED: ENDBRANCH  20  24
DOCKED: ENDBRANCH  16  18
DOCKED: ENDBRANCH   1  16
DOCKED: TORSDOF 5
DOCKED: TER
DOCKED: ENDMDL
________________________________________________________________________________


    FINAL DOCKED STATE:
    ________________________


Run:   14 / 20
Time taken for this run:   0.026s

DOCKED: MODEL        14
DOCKED: USER    Run = 14
DOCKED: USER
DOCKED: USER    Estimated Free Energy of Binding    =  -8.74 kcal/mol  [=(1)+(2)+(3)-(4)]
DOCKED: USER
DOCKED: USER    (1) Final Intermolecular Energy     = -10.23 kcal/mol
DOCKED: USER        vdW + Hbond + desolv Energy     = -10.19 kcal/mol
DOCKED: USER        Electrostatic Energy            =  -0.04 kcal/mol
DOCKED: USER        Moving Ligand-Fixed Receptor    = -10.23 kcal/mol
DOCKED: USER        Moving Ligand-Moving Receptor   =  +0.00 kcal/mol
DOCKED: USER    (2) Final Total Internal Energy     =  -1.86 kcal/mol
DOCKED: USER    (3) Torsional Free Energy           =  +1.49 kcal/mol
DOCKED: USER    (4) Unbound System's Energy         =  -1.86 kcal/mol
DOCKED: USER
DOCKED: USER
DOCKED: REMARK SMILES O=C(NCC(=O)N1CCCC[C@H]1c1ccccc1)c1ccc2ccccc2n1
DOCKED: REMARK SMILES IDX 4 1 3 2 2 3 1 4 19 6 20 7 28 8 21 9 27 10 22 11 26 12 23 13
DOCKED: REMARK SMILES IDX 25 14 24 15 5 16 6 17 7 18 8 19 12 20 9 21 11 22 10 23 13 24
DOCKED: REMARK SMILES IDX 14 25 18 26 15 27 17 28 16 29
DOCKED: REMARK H PARENT 3 5
DOCKED: USER                              x       y       z     vdW  Elec       q    Type
DOCKED: USER                           _______ _______ _______ _____ _____    ______ ____
DOCKED: ROOT
DOCKED: ATOM      1  C   UNL     1     139.913  74.036 221.115 -0.17 -0.04    +0.216 C  
DOCKED: ENDROOT
DOCKED: BRANCH   1   2
DOCKED: ATOM      2  N   UNL     1     139.877  73.249 222.303 -0.15 +0.04    -0.342 N  
DOCKED: ATOM      3  C   UNL     1     140.252  71.865 222.365 -0.20 -0.04    +0.270 C  
DOCKED: ATOM      4  O   UNL     1     140.652  71.277 221.302 -0.12 +0.04    -0.268 OA 
DOCKED: ATOM      5  H   UNL     1     139.558  73.673 223.225 -0.48 -0.04    +0.164 HD 
DOCKED: BRANCH   3   6
DOCKED: ATOM      6  C   UNL     1     140.171  71.143 223.637 -0.32 -0.02    +0.128 A  
DOCKED: ATOM      7  C   UNL     1     139.597  69.889 223.644 -0.25 -0.01    +0.035 A  
DOCKED: ATOM      8  N   UNL     1     140.627  71.644 224.788 -0.30 +0.03    -0.243 NA 
DOCKED: ATOM      9  C   UNL     1     139.531  69.224 224.861 -0.38 -0.00    +0.013 A  
DOCKED: ATOM     10  C   UNL     1     140.577  71.026 225.973 -0.55 -0.01    +0.071 A  
DOCKED: ATOM     11  C   UNL     1     140.011  69.768 226.029 -0.49 -0.00    +0.000 A  
DOCKED: ATOM     12  C   UNL     1     141.086  71.649 227.102 -0.75 -0.00    +0.029 A  
DOCKED: ATOM     13  C   UNL     1     139.948  69.110 227.240 -0.59 -0.00    +0.010 A  
DOCKED: ATOM     14  C   UNL     1     141.012  70.971 228.309 -0.65 -0.00    +0.002 A  
DOCKED: ATOM     15  C   UNL     1     140.446  69.703 228.389 -0.56 -0.00    +0.001 A  
DOCKED: ENDBRANCH   3   6
DOCKED: ENDBRANCH   1   2
DOCKED: BRANCH   1  16
DOCKED: ATOM     16  C   UNL     1     140.692  75.248 221.054 -0.20 -0.06    +0.242 C  
DOCKED: ATOM     17  O   UNL     1     140.794  75.879 222.195 -0.42 +0.06    -0.273 OA 
DOCKED: BRANCH  16  18
DOCKED: ATOM     18  N   UNL     1     141.359  75.877 219.985 -0.07 +0.13    -0.334 N  
DOCKED: ATOM     19  C   UNL     1     141.320  77.280 219.659 -0.18 -0.06    +0.120 C  
DOCKED: ATOM     20  C   UNL     1     142.152  75.022 219.106 -0.15 -0.04    +0.115 C  
DOCKED: ATOM     21  C   UNL     1     142.589  77.782 218.982 -0.28 -0.02    +0.022 C  
DOCKED: ATOM     22  C   UNL     1     142.484  75.587 217.787 -0.15 -0.01    +0.030 C  
DOCKED: ATOM     23  C   UNL     1     142.776  77.041 217.710 -0.28 -0.00    +0.004 C  
DOCKED: BRANCH  20  24
DOCKED: ATOM     24  C   UNL     1     143.269  74.346 219.816 -0.31 +0.01    -0.025 A  
DOCKED: ATOM     25  C   UNL     1     143.173  72.997 220.185 -0.28 -0.00    +0.006 A  
DOCKED: ATOM     26  C   UNL     1     144.445  74.972 220.162 -0.39 -0.00    +0.006 A  
DOCKED: ATOM     27  C   UNL     1     144.190  72.347 220.849 -0.37 -0.00    +0.000 A  
DOCKED: ATOM     28  C   UNL     1     145.476  74.325 220.831 -0.54 -0.00    +0.000 A  
DOCKED: ATOM     29  C   UNL     1     145.357  72.999 221.182 -0.59 -0.00    +0.000 A  
DOCKED: ENDBRANCH  20  24
DOCKED: ENDBRANCH  16  18
DOCKED: ENDBRANCH   1  16
DOCKED: TORSDOF 5
DOCKED: TER
DOCKED: ENDMDL
________________________________________________________________________________


    FINAL DOCKED STATE:
    ________________________


Run:   15 / 20
Time taken for this run:   0.026s

DOCKED: MODEL        15
DOCKED: USER    Run = 15
DOCKED: USER
DOCKED: USER    Estimated Free Energy of Binding    =  -8.60 kcal/mol  [=(1)+(2)+(3)-(4)]
DOCKED: USER
DOCKED: USER    (1) Final Intermolecular Energy     = -10.09 kcal/mol
DOCKED: USER        vdW + Hbond + desolv Energy     = -10.13 kcal/mol
DOCKED: USER        Electrostatic Energy            =  +0.04 kcal/mol
DOCKED: USER        Moving Ligand-Fixed Receptor    = -10.09 kcal/mol
DOCKED: USER        Moving Ligand-Moving Receptor   =  +0.00 kcal/mol
DOCKED: USER    (2) Final Total Internal Energy     =  -1.16 kcal/mol
DOCKED: USER    (3) Torsional Free Energy           =  +1.49 kcal/mol
DOCKED: USER    (4) Unbound System's Energy         =  -1.16 kcal/mol
DOCKED: USER
DOCKED: USER
DOCKED: REMARK SMILES O=C(NCC(=O)N1CCCC[C@H]1c1ccccc1)c1ccc2ccccc2n1
DOCKED: REMARK SMILES IDX 4 1 3 2 2 3 1 4 19 6 20 7 28 8 21 9 27 10 22 11 26 12 23 13
DOCKED: REMARK SMILES IDX 25 14 24 15 5 16 6 17 7 18 8 19 12 20 9 21 11 22 10 23 13 24
DOCKED: REMARK SMILES IDX 14 25 18 26 15 27 17 28 16 29
DOCKED: REMARK H PARENT 3 5
DOCKED: USER                              x       y       z     vdW  Elec       q    Type
DOCKED: USER                           _______ _______ _______ _____ _____    ______ ____
DOCKED: ROOT
DOCKED: ATOM      1  C   UNL     1     140.254  74.294 221.070 -0.18 -0.04    +0.216 C  
DOCKED: ENDROOT
DOCKED: BRANCH   1   2
DOCKED: ATOM      2  N   UNL     1     140.077  73.504 222.243 -0.12 +0.03    -0.342 N  
DOCKED: ATOM      3  C   UNL     1     140.492  72.136 222.364 -0.20 -0.03    +0.270 C  
DOCKED: ATOM      4  O   UNL     1     141.064  71.566 221.373 -0.14 +0.03    -0.268 OA 
DOCKED: ATOM      5  H   UNL     1     139.611  73.913 223.108 -0.49 -0.02    +0.164 HD 
DOCKED: BRANCH   3   6
DOCKED: ATOM      6  C   UNL     1     140.255  71.409 223.614 -0.33 -0.02    +0.128 A  
DOCKED: ATOM      7  C   UNL     1     139.575  70.210 223.556 -0.28 -0.01    +0.035 A  
DOCKED: ATOM      8  N   UNL     1     140.666  71.854 224.804 -0.28 +0.03    -0.243 NA 
DOCKED: ATOM      9  C   UNL     1     139.363  69.538 224.753 -0.37 -0.00    +0.013 A  
DOCKED: ATOM     10  C   UNL     1     140.476  71.228 225.970 -0.54 -0.01    +0.071 A  
DOCKED: ATOM     11  C   UNL     1     139.800  70.025 225.963 -0.48 -0.00    +0.000 A  
DOCKED: ATOM     12  C   UNL     1     140.951  71.792 227.145 -0.76 -0.01    +0.029 A  
DOCKED: ATOM     13  C   UNL     1     139.592  69.360 227.154 -0.55 -0.00    +0.010 A  
DOCKED: ATOM     14  C   UNL     1     140.731  71.108 228.331 -0.67 -0.00    +0.002 A  
DOCKED: ATOM     15  C   UNL     1     140.052  69.894 228.346 -0.61 -0.00    +0.001 A  
DOCKED: ENDBRANCH   3   6
DOCKED: ENDBRANCH   1   2
DOCKED: BRANCH   1  16
DOCKED: ATOM     16  C   UNL     1     140.244  75.735 221.140 -0.20 -0.06    +0.242 C  
DOCKED: ATOM     17  O   UNL     1     141.413  76.290 220.947 -0.20 +0.12    -0.273 OA 
DOCKED: BRANCH  16  18
DOCKED: ATOM     18  N   UNL     1     139.203  76.651 221.383 -0.09 +0.08    -0.334 N  
DOCKED: ATOM     19  C   UNL     1     137.904  76.347 221.926 -0.20 -0.03    +0.120 C  
DOCKED: ATOM     20  C   UNL     1     139.455  78.046 221.031 -0.13 -0.03    +0.115 C  
DOCKED: ATOM     21  C   UNL     1     137.289  77.496 222.714 -0.22 -0.00    +0.022 C  
DOCKED: ATOM     22  C   UNL     1     138.263  78.898 220.885 -0.09 -0.01    +0.030 C  
DOCKED: ATOM     23  C   UNL     1     137.123  78.659 221.808 -0.13 -0.00    +0.004 C  
DOCKED: BRANCH  20  24
DOCKED: ATOM     24  C   UNL     1     140.580  78.639 221.801 -0.31 +0.01    -0.025 A  
DOCKED: ATOM     25  C   UNL     1     140.799  78.286 223.139 -0.44 -0.00    +0.006 A  
DOCKED: ATOM     26  C   UNL     1     141.464  79.556 221.278 -0.36 -0.00    +0.006 A  
DOCKED: ATOM     27  C   UNL     1     141.830  78.824 223.877 -0.62 -0.00    +0.000 A  
DOCKED: ATOM     28  C   UNL     1     142.507  80.104 222.014 -0.50 -0.00    +0.000 A  
DOCKED: ATOM     29  C   UNL     1     142.700  79.740 223.328 -0.62 -0.00    +0.000 A  
DOCKED: ENDBRANCH  20  24
DOCKED: ENDBRANCH  16  18
DOCKED: ENDBRANCH   1  16
DOCKED: TORSDOF 5
DOCKED: TER
DOCKED: ENDMDL
________________________________________________________________________________


    FINAL DOCKED STATE:
    ________________________


Run:   16 / 20
Time taken for this run:   0.026s

DOCKED: MODEL        16
DOCKED: USER    Run = 16
DOCKED: USER
DOCKED: USER    Estimated Free Energy of Binding    =  -8.69 kcal/mol  [=(1)+(2)+(3)-(4)]
DOCKED: USER
DOCKED: USER    (1) Final Intermolecular Energy     = -10.18 kcal/mol
DOCKED: USER        vdW + Hbond + desolv Energy     = -10.15 kcal/mol
DOCKED: USER        Electrostatic Energy            =  -0.03 kcal/mol
DOCKED: USER        Moving Ligand-Fixed Receptor    = -10.18 kcal/mol
DOCKED: USER        Moving Ligand-Moving Receptor   =  +0.00 kcal/mol
DOCKED: USER    (2) Final Total Internal Energy     =  -1.91 kcal/mol
DOCKED: USER    (3) Torsional Free Energy           =  +1.49 kcal/mol
DOCKED: USER    (4) Unbound System's Energy         =  -1.91 kcal/mol
DOCKED: USER
DOCKED: USER
DOCKED: REMARK SMILES O=C(NCC(=O)N1CCCC[C@H]1c1ccccc1)c1ccc2ccccc2n1
DOCKED: REMARK SMILES IDX 4 1 3 2 2 3 1 4 19 6 20 7 28 8 21 9 27 10 22 11 26 12 23 13
DOCKED: REMARK SMILES IDX 25 14 24 15 5 16 6 17 7 18 8 19 12 20 9 21 11 22 10 23 13 24
DOCKED: REMARK SMILES IDX 14 25 18 26 15 27 17 28 16 29
DOCKED: REMARK H PARENT 3 5
DOCKED: USER                              x       y       z     vdW  Elec       q    Type
DOCKED: USER                           _______ _______ _______ _____ _____    ______ ____
DOCKED: ROOT
DOCKED: ATOM      1  C   UNL     1     139.838  74.100 221.135 -0.17 -0.04    +0.216 C  
DOCKED: ENDROOT
DOCKED: BRANCH   1   2
DOCKED: ATOM      2  N   UNL     1     139.832  73.304 222.317 -0.15 +0.04    -0.342 N  
DOCKED: ATOM      3  C   UNL     1     140.153  71.906 222.349 -0.20 -0.04    +0.270 C  
DOCKED: ATOM      4  O   UNL     1     140.474  71.312 221.263 -0.11 +0.04    -0.268 OA 
DOCKED: ATOM      5  H   UNL     1     139.578  73.731 223.258 -0.49 -0.03    +0.164 HD 
DOCKED: BRANCH   3   6
DOCKED: ATOM      6  C   UNL     1     140.108  71.175 223.619 -0.32 -0.02    +0.128 A  
DOCKED: ATOM      7  C   UNL     1     139.581  69.901 223.624 -0.26 -0.01    +0.035 A  
DOCKED: ATOM      8  N   UNL     1     140.554  71.687 224.769 -0.29 +0.04    -0.243 NA 
DOCKED: ATOM      9  C   UNL     1     139.549  69.228 224.838 -0.37 -0.00    +0.013 A  
DOCKED: ATOM     10  C   UNL     1     140.536  71.062 225.951 -0.55 -0.01    +0.071 A  
DOCKED: ATOM     11  C   UNL     1     140.017  69.785 226.005 -0.49 -0.00    +0.000 A  
DOCKED: ATOM     12  C   UNL     1     141.029  71.699 227.080 -0.75 -0.01    +0.029 A  
DOCKED: ATOM     13  C   UNL     1     139.988  69.119 227.213 -0.59 -0.00    +0.010 A  
DOCKED: ATOM     14  C   UNL     1     140.990  71.013 228.284 -0.66 -0.00    +0.002 A  
DOCKED: ATOM     15  C   UNL     1     140.472  69.724 228.362 -0.58 -0.00    +0.001 A  
DOCKED: ENDBRANCH   3   6
DOCKED: ENDBRANCH   1   2
DOCKED: BRANCH   1  16
DOCKED: ATOM     16  C   UNL     1     140.629  75.304 221.058 -0.20 -0.06    +0.242 C  
DOCKED: ATOM     17  O   UNL     1     140.729  75.953 222.190 -0.41 +0.06    -0.273 OA 
DOCKED: BRANCH  16  18
DOCKED: ATOM     18  N   UNL     1     141.307  75.909 219.983 -0.07 +0.13    -0.334 N  
DOCKED: ATOM     19  C   UNL     1     141.309  77.311 219.653 -0.18 -0.06    +0.120 C  
DOCKED: ATOM     20  C   UNL     1     142.068  75.028 219.102 -0.14 -0.04    +0.115 C  
DOCKED: ATOM     21  C   UNL     1     142.588  77.773 218.966 -0.28 -0.02    +0.022 C  
DOCKED: ATOM     22  C   UNL     1     142.408  75.578 217.779 -0.14 -0.01    +0.030 C  
DOCKED: ATOM     23  C   UNL     1     142.743  77.023 217.696 -0.28 -0.00    +0.004 C  
DOCKED: BRANCH  20  24
DOCKED: ATOM     24  C   UNL     1     143.168  74.320 219.806 -0.30 +0.01    -0.025 A  
DOCKED: ATOM     25  C   UNL     1     143.033  72.976 220.181 -0.26 -0.00    +0.006 A  
DOCKED: ATOM     26  C   UNL     1     144.366  74.910 220.141 -0.42 -0.00    +0.006 A  
DOCKED: ATOM     27  C   UNL     1     144.034  72.298 220.841 -0.36 -0.00    +0.000 A  
DOCKED: ATOM     28  C   UNL     1     145.382  74.234 220.805 -0.56 -0.00    +0.000 A  
DOCKED: ATOM     29  C   UNL     1     145.223  72.914 221.162 -0.54 -0.00    +0.000 A  
DOCKED: ENDBRANCH  20  24
DOCKED: ENDBRANCH  16  18
DOCKED: ENDBRANCH   1  16
DOCKED: TORSDOF 5
DOCKED: TER
DOCKED: ENDMDL
________________________________________________________________________________


    FINAL DOCKED STATE:
    ________________________


Run:   17 / 20
Time taken for this run:   0.026s

DOCKED: MODEL        17
DOCKED: USER    Run = 17
DOCKED: USER
DOCKED: USER    Estimated Free Energy of Binding    =  -8.75 kcal/mol  [=(1)+(2)+(3)-(4)]
DOCKED: USER
DOCKED: USER    (1) Final Intermolecular Energy     = -10.24 kcal/mol
DOCKED: USER        vdW + Hbond + desolv Energy     = -10.20 kcal/mol
DOCKED: USER        Electrostatic Energy            =  -0.04 kcal/mol
DOCKED: USER        Moving Ligand-Fixed Receptor    = -10.24 kcal/mol
DOCKED: USER        Moving Ligand-Moving Receptor   =  +0.00 kcal/mol
DOCKED: USER    (2) Final Total Internal Energy     =  -1.87 kcal/mol
DOCKED: USER    (3) Torsional Free Energy           =  +1.49 kcal/mol
DOCKED: USER    (4) Unbound System's Energy         =  -1.87 kcal/mol
DOCKED: USER
DOCKED: USER
DOCKED: REMARK SMILES O=C(NCC(=O)N1CCCC[C@H]1c1ccccc1)c1ccc2ccccc2n1
DOCKED: REMARK SMILES IDX 4 1 3 2 2 3 1 4 19 6 20 7 28 8 21 9 27 10 22 11 26 12 23 13
DOCKED: REMARK SMILES IDX 25 14 24 15 5 16 6 17 7 18 8 19 12 20 9 21 11 22 10 23 13 24
DOCKED: REMARK SMILES IDX 14 25 18 26 15 27 17 28 16 29
DOCKED: REMARK H PARENT 3 5
DOCKED: USER                              x       y       z     vdW  Elec       q    Type
DOCKED: USER                           _______ _______ _______ _____ _____    ______ ____
DOCKED: ROOT
DOCKED: ATOM      1  C   UNL     1     139.906  74.033 221.104 -0.17 -0.04    +0.216 C  
DOCKED: ENDROOT
DOCKED: BRANCH   1   2
DOCKED: ATOM      2  N   UNL     1     139.869  73.241 222.288 -0.15 +0.04    -0.342 N  
DOCKED: ATOM      3  C   UNL     1     140.229  71.853 222.341 -0.20 -0.04    +0.270 C  
DOCKED: ATOM      4  O   UNL     1     140.615  71.265 221.273 -0.11 +0.04    -0.268 OA 
DOCKED: ATOM      5  H   UNL     1     139.561  73.664 223.214 -0.49 -0.04    +0.164 HD 
DOCKED: BRANCH   3   6
DOCKED: ATOM      6  C   UNL     1     140.148  71.126 223.611 -0.31 -0.02    +0.128 A  
DOCKED: ATOM      7  C   UNL     1     139.572  69.873 223.614 -0.26 -0.01    +0.035 A  
DOCKED: ATOM      8  N   UNL     1     140.606  71.621 224.763 -0.30 +0.03    -0.243 NA 
DOCKED: ATOM      9  C   UNL     1     139.506  69.203 224.828 -0.37 -0.00    +0.013 A  
DOCKED: ATOM     10  C   UNL     1     140.557  70.999 225.945 -0.54 -0.01    +0.071 A  
DOCKED: ATOM     11  C   UNL     1     139.988  69.742 225.998 -0.49 -0.00    +0.000 A  
DOCKED: ATOM     12  C   UNL     1     141.068  71.617 227.077 -0.75 -0.00    +0.029 A  
DOCKED: ATOM     13  C   UNL     1     139.926  69.079 227.206 -0.59 -0.00    +0.010 A  
DOCKED: ATOM     14  C   UNL     1     140.994  70.934 228.281 -0.65 -0.00    +0.002 A  
DOCKED: ATOM     15  C   UNL     1     140.426  69.667 228.357 -0.59 -0.00    +0.001 A  
DOCKED: ENDBRANCH   3   6
DOCKED: ENDBRANCH   1   2
DOCKED: BRANCH   1  16
DOCKED: ATOM     16  C   UNL     1     140.696  75.238 221.044 -0.20 -0.06    +0.242 C  
DOCKED: ATOM     17  O   UNL     1     140.809  75.864 222.187 -0.42 +0.06    -0.273 OA 
DOCKED: BRANCH  16  18
DOCKED: ATOM     18  N   UNL     1     141.363  75.866 219.974 -0.07 +0.13    -0.334 N  
DOCKED: ATOM     19  C   UNL     1     141.328  77.268 219.648 -0.18 -0.06    +0.120 C  
DOCKED: ATOM     20  C   UNL     1     142.155  75.009 219.095 -0.15 -0.04    +0.115 C  
DOCKED: ATOM     21  C   UNL     1     142.597  77.768 218.970 -0.28 -0.02    +0.022 C  
DOCKED: ATOM     22  C   UNL     1     142.486  75.573 217.775 -0.15 -0.01    +0.030 C  
DOCKED: ATOM     23  C   UNL     1     142.781  77.027 217.699 -0.28 -0.00    +0.004 C  
DOCKED: BRANCH  20  24
DOCKED: ATOM     24  C   UNL     1     143.270  74.330 219.804 -0.31 +0.01    -0.025 A  
DOCKED: ATOM     25  C   UNL     1     143.171  72.982 220.175 -0.27 -0.00    +0.006 A  
DOCKED: ATOM     26  C   UNL     1     144.449  74.954 220.147 -0.39 -0.00    +0.006 A  
DOCKED: ATOM     27  C   UNL     1     144.187  72.330 220.838 -0.37 -0.00    +0.000 A  
DOCKED: ATOM     28  C   UNL     1     145.479  74.304 220.816 -0.55 -0.00    +0.000 A  
DOCKED: ATOM     29  C   UNL     1     145.356  72.979 221.168 -0.58 -0.00    +0.000 A  
DOCKED: ENDBRANCH  20  24
DOCKED: ENDBRANCH  16  18
DOCKED: ENDBRANCH   1  16
DOCKED: TORSDOF 5
DOCKED: TER
DOCKED: ENDMDL
________________________________________________________________________________


    FINAL DOCKED STATE:
    ________________________


Run:   18 / 20
Time taken for this run:   0.026s

DOCKED: MODEL        18
DOCKED: USER    Run = 18
DOCKED: USER
DOCKED: USER    Estimated Free Energy of Binding    =  -7.89 kcal/mol  [=(1)+(2)+(3)-(4)]
DOCKED: USER
DOCKED: USER    (1) Final Intermolecular Energy     =  -9.38 kcal/mol
DOCKED: USER        vdW + Hbond + desolv Energy     =  -9.40 kcal/mol
DOCKED: USER        Electrostatic Energy            =  +0.02 kcal/mol
DOCKED: USER        Moving Ligand-Fixed Receptor    =  -9.38 kcal/mol
DOCKED: USER        Moving Ligand-Moving Receptor   =  +0.00 kcal/mol
DOCKED: USER    (2) Final Total Internal Energy     =  -2.22 kcal/mol
DOCKED: USER    (3) Torsional Free Energy           =  +1.49 kcal/mol
DOCKED: USER    (4) Unbound System's Energy         =  -2.22 kcal/mol
DOCKED: USER
DOCKED: USER
DOCKED: REMARK SMILES O=C(NCC(=O)N1CCCC[C@H]1c1ccccc1)c1ccc2ccccc2n1
DOCKED: REMARK SMILES IDX 4 1 3 2 2 3 1 4 19 6 20 7 28 8 21 9 27 10 22 11 26 12 23 13
DOCKED: REMARK SMILES IDX 25 14 24 15 5 16 6 17 7 18 8 19 12 20 9 21 11 22 10 23 13 24
DOCKED: REMARK SMILES IDX 14 25 18 26 15 27 17 28 16 29
DOCKED: REMARK H PARENT 3 5
DOCKED: USER                              x       y       z     vdW  Elec       q    Type
DOCKED: USER                           _______ _______ _______ _____ _____    ______ ____
DOCKED: ROOT
DOCKED: ATOM      1  C   UNL     1     141.058  73.536 221.500 -0.20 -0.02    +0.216 C  
DOCKED: ENDROOT
DOCKED: BRANCH   1   2
DOCKED: ATOM      2  N   UNL     1     141.114  74.909 221.880 -0.13 +0.04    -0.342 N  
DOCKED: ATOM      3  C   UNL     1     139.966  75.761 221.996 -0.23 -0.05    +0.270 C  
DOCKED: ATOM      4  O   UNL     1     138.805  75.283 221.753 -0.20 +0.06    -0.268 OA 
DOCKED: ATOM      5  H   UNL     1     142.046  75.373 222.101 -0.40 -0.07    +0.164 HD 
DOCKED: BRANCH   3   6
DOCKED: ATOM      6  C   UNL     1     140.133  77.163 222.387 -0.32 -0.03    +0.128 A  
DOCKED: ATOM      7  C   UNL     1     139.003  77.931 222.577 -0.29 -0.01    +0.035 A  
DOCKED: ATOM      8  N   UNL     1     141.329  77.730 222.567 -0.25 +0.11    -0.243 NA 
DOCKED: ATOM      9  C   UNL     1     139.186  79.256 222.948 -0.33 -0.00    +0.013 A  
DOCKED: ATOM     10  C   UNL     1     141.534  79.003 222.924 -0.49 -0.03    +0.071 A  
DOCKED: ATOM     11  C   UNL     1     140.433  79.809 223.126 -0.44 -0.00    +0.000 A  
DOCKED: ATOM     12  C   UNL     1     142.827  79.479 223.081 -0.55 -0.01    +0.029 A  
DOCKED: ATOM     13  C   UNL     1     140.619  81.126 223.495 -0.40 -0.00    +0.010 A  
DOCKED: ATOM     14  C   UNL     1     142.992  80.804 223.452 -0.62 -0.00    +0.002 A  
DOCKED: ATOM     15  C   UNL     1     141.896  81.636 223.660 -0.53 -0.00    +0.001 A  
DOCKED: ENDBRANCH   3   6
DOCKED: ENDBRANCH   1   2
DOCKED: BRANCH   1  16
DOCKED: ATOM     16  C   UNL     1     141.909  73.022 220.456 -0.14 -0.04    +0.242 C  
DOCKED: ATOM     17  O   UNL     1     141.263  72.522 219.435 -0.03 +0.05    -0.273 OA 
DOCKED: BRANCH  16  18
DOCKED: ATOM     18  N   UNL     1     143.311  72.958 220.340 -0.11 +0.06    -0.334 N  
DOCKED: ATOM     19  C   UNL     1     144.099  71.771 220.125 -0.24 -0.01    +0.120 C  
DOCKED: ATOM     20  C   UNL     1     144.044  74.215 220.470 -0.37 -0.04    +0.115 C  
DOCKED: ATOM     21  C   UNL     1     145.392  72.028 219.364 -0.33 +0.01    +0.022 C  
DOCKED: ATOM     22  C   UNL     1     145.480  74.094 220.772 -0.56 -0.01    +0.030 C  
DOCKED: ATOM     23  C   UNL     1     146.226  72.972 220.147 -0.48 +0.00    +0.004 C  
DOCKED: BRANCH  20  24
DOCKED: ATOM     24  C   UNL     1     143.687  75.200 219.416 -0.36 +0.01    -0.025 A  
DOCKED: ATOM     25  C   UNL     1     143.222  76.478 219.755 -0.37 -0.00    +0.006 A  
DOCKED: ATOM     26  C   UNL     1     143.779  74.942 218.067 -0.18 -0.00    +0.006 A  
DOCKED: ATOM     27  C   UNL     1     142.879  77.408 218.798 -0.33 -0.00    +0.000 A  
DOCKED: ATOM     28  C   UNL     1     143.437  75.874 217.095 -0.22 -0.00    +0.000 A  
DOCKED: ATOM     29  C   UNL     1     142.982  77.123 217.455 -0.29 -0.00    +0.000 A  
DOCKED: ENDBRANCH  20  24
DOCKED: ENDBRANCH  16  18
DOCKED: ENDBRANCH   1  16
DOCKED: TORSDOF 5
DOCKED: TER
DOCKED: ENDMDL
________________________________________________________________________________


    FINAL DOCKED STATE:
    ________________________


Run:   19 / 20
Time taken for this run:   0.026s

DOCKED: MODEL        19
DOCKED: USER    Run = 19
DOCKED: USER
DOCKED: USER    Estimated Free Energy of Binding    =  -8.69 kcal/mol  [=(1)+(2)+(3)-(4)]
DOCKED: USER
DOCKED: USER    (1) Final Intermolecular Energy     = -10.18 kcal/mol
DOCKED: USER        vdW + Hbond + desolv Energy     = -10.15 kcal/mol
DOCKED: USER        Electrostatic Energy            =  -0.03 kcal/mol
DOCKED: USER        Moving Ligand-Fixed Receptor    = -10.18 kcal/mol
DOCKED: USER        Moving Ligand-Moving Receptor   =  +0.00 kcal/mol
DOCKED: USER    (2) Final Total Internal Energy     =  -1.88 kcal/mol
DOCKED: USER    (3) Torsional Free Energy           =  +1.49 kcal/mol
DOCKED: USER    (4) Unbound System's Energy         =  -1.88 kcal/mol
DOCKED: USER
DOCKED: USER
DOCKED: REMARK SMILES O=C(NCC(=O)N1CCCC[C@H]1c1ccccc1)c1ccc2ccccc2n1
DOCKED: REMARK SMILES IDX 4 1 3 2 2 3 1 4 19 6 20 7 28 8 21 9 27 10 22 11 26 12 23 13
DOCKED: REMARK SMILES IDX 25 14 24 15 5 16 6 17 7 18 8 19 12 20 9 21 11 22 10 23 13 24
DOCKED: REMARK SMILES IDX 14 25 18 26 15 27 17 28 16 29
DOCKED: REMARK H PARENT 3 5
DOCKED: USER                              x       y       z     vdW  Elec       q    Type
DOCKED: USER                           _______ _______ _______ _____ _____    ______ ____
DOCKED: ROOT
DOCKED: ATOM      1  C   UNL     1     139.927  73.970 221.092 -0.17 -0.04    +0.216 C  
DOCKED: ENDROOT
DOCKED: BRANCH   1   2
DOCKED: ATOM      2  N   UNL     1     139.893  73.184 222.280 -0.16 +0.04    -0.342 N  
DOCKED: ATOM      3  C   UNL     1     140.207  71.784 222.331 -0.20 -0.04    +0.270 C  
DOCKED: ATOM      4  O   UNL     1     140.546  71.180 221.257 -0.11 +0.04    -0.268 OA 
DOCKED: ATOM      5  H   UNL     1     139.623  73.620 223.212 -0.46 -0.03    +0.164 HD 
DOCKED: BRANCH   3   6
DOCKED: ATOM      6  C   UNL     1     140.134  71.066 223.605 -0.30 -0.02    +0.128 A  
DOCKED: ATOM      7  C   UNL     1     139.570  69.807 223.617 -0.25 -0.01    +0.035 A  
DOCKED: ATOM      8  N   UNL     1     140.587  71.573 224.754 -0.30 +0.03    -0.243 NA 
DOCKED: ATOM      9  C   UNL     1     139.512  69.144 224.836 -0.37 -0.00    +0.013 A  
DOCKED: ATOM     10  C   UNL     1     140.545  70.958 225.941 -0.54 -0.01    +0.071 A  
DOCKED: ATOM     11  C   UNL     1     139.989  69.696 226.002 -0.49 -0.00    +0.000 A  
DOCKED: ATOM     12  C   UNL     1     141.049  71.589 227.068 -0.74 -0.00    +0.029 A  
DOCKED: ATOM     13  C   UNL     1     139.934  69.041 227.215 -0.59 -0.00    +0.010 A  
DOCKED: ATOM     14  C   UNL     1     140.984  70.914 228.277 -0.65 -0.00    +0.002 A  
DOCKED: ATOM     15  C   UNL     1     140.428  69.641 228.361 -0.59 -0.00    +0.001 A  
DOCKED: ENDBRANCH   3   6
DOCKED: ENDBRANCH   1   2
DOCKED: BRANCH   1  16
DOCKED: ATOM     16  C   UNL     1     140.674  75.202 221.041 -0.20 -0.06    +0.242 C  
DOCKED: ATOM     17  O   UNL     1     140.737  75.840 222.181 -0.43 +0.06    -0.273 OA 
DOCKED: BRANCH  16  18
DOCKED: ATOM     18  N   UNL     1     141.344  75.845 219.982 -0.07 +0.13    -0.334 N  
DOCKED: ATOM     19  C   UNL     1     141.312  77.252 219.678 -0.18 -0.06    +0.120 C  
DOCKED: ATOM     20  C   UNL     1     142.135  75.000 219.091 -0.15 -0.04    +0.115 C  
DOCKED: ATOM     21  C   UNL     1     142.582  77.761 219.010 -0.27 -0.02    +0.022 C  
DOCKED: ATOM     22  C   UNL     1     142.470  75.584 217.781 -0.15 -0.01    +0.030 C  
DOCKED: ATOM     23  C   UNL     1     142.768  77.039 217.727 -0.28 -0.00    +0.004 C  
DOCKED: BRANCH  20  24
DOCKED: ATOM     24  C   UNL     1     143.248  74.309 219.792 -0.31 +0.01    -0.025 A  
DOCKED: ATOM     25  C   UNL     1     143.135  72.964 220.168 -0.27 -0.00    +0.006 A  
DOCKED: ATOM     26  C   UNL     1     144.439  74.917 220.120 -0.41 -0.00    +0.006 A  
DOCKED: ATOM     27  C   UNL     1     144.148  72.300 220.823 -0.37 -0.00    +0.000 A  
DOCKED: ATOM     28  C   UNL     1     145.467  74.256 220.781 -0.56 -0.00    +0.000 A  
DOCKED: ATOM     29  C   UNL     1     145.330  72.934 221.139 -0.56 -0.00    +0.000 A  
DOCKED: ENDBRANCH  20  24
DOCKED: ENDBRANCH  16  18
DOCKED: ENDBRANCH   1  16
DOCKED: TORSDOF 5
DOCKED: TER
DOCKED: ENDMDL
________________________________________________________________________________


    FINAL DOCKED STATE:
    ________________________


Run:   20 / 20
Time taken for this run:   0.026s

DOCKED: MODEL        20
DOCKED: USER    Run = 20
DOCKED: USER
DOCKED: USER    Estimated Free Energy of Binding    =  -7.93 kcal/mol  [=(1)+(2)+(3)-(4)]
DOCKED: USER
DOCKED: USER    (1) Final Intermolecular Energy     =  -9.42 kcal/mol
DOCKED: USER        vdW + Hbond + desolv Energy     =  -9.44 kcal/mol
DOCKED: USER        Electrostatic Energy            =  +0.02 kcal/mol
DOCKED: USER        Moving Ligand-Fixed Receptor    =  -9.42 kcal/mol
DOCKED: USER        Moving Ligand-Moving Receptor   =  +0.00 kcal/mol
DOCKED: USER    (2) Final Total Internal Energy     =  -2.25 kcal/mol
DOCKED: USER    (3) Torsional Free Energy           =  +1.49 kcal/mol
DOCKED: USER    (4) Unbound System's Energy         =  -2.25 kcal/mol
DOCKED: USER
DOCKED: USER
DOCKED: REMARK SMILES O=C(NCC(=O)N1CCCC[C@H]1c1ccccc1)c1ccc2ccccc2n1
DOCKED: REMARK SMILES IDX 4 1 3 2 2 3 1 4 19 6 20 7 28 8 21 9 27 10 22 11 26 12 23 13
DOCKED: REMARK SMILES IDX 25 14 24 15 5 16 6 17 7 18 8 19 12 20 9 21 11 22 10 23 13 24
DOCKED: REMARK SMILES IDX 14 25 18 26 15 27 17 28 16 29
DOCKED: REMARK H PARENT 3 5
DOCKED: USER                              x       y       z     vdW  Elec       q    Type
DOCKED: USER                           _______ _______ _______ _____ _____    ______ ____
DOCKED: ROOT
DOCKED: ATOM      1  C   UNL     1     141.082  73.515 221.404 -0.20 -0.02    +0.216 C  
DOCKED: ENDROOT
DOCKED: BRANCH   1   2
DOCKED: ATOM      2  N   UNL     1     141.160  74.882 221.800 -0.13 +0.05    -0.342 N  
DOCKED: ATOM      3  C   UNL     1     140.021  75.731 221.999 -0.22 -0.05    +0.270 C  
DOCKED: ATOM      4  O   UNL     1     138.847  75.255 221.822 -0.23 +0.06    -0.268 OA 
DOCKED: ATOM      5  H   UNL     1     142.104  75.345 221.969 -0.43 -0.07    +0.164 HD 
DOCKED: BRANCH   3   6
DOCKED: ATOM      6  C   UNL     1     140.212  77.127 222.400 -0.33 -0.03    +0.128 A  
DOCKED: ATOM      7  C   UNL     1     139.094  77.903 222.625 -0.29 -0.01    +0.035 A  
DOCKED: ATOM      8  N   UNL     1     141.417  77.681 222.556 -0.22 +0.12    -0.243 NA 
DOCKED: ATOM      9  C   UNL     1     139.299  79.223 223.004 -0.34 -0.00    +0.013 A  
DOCKED: ATOM     10  C   UNL     1     141.643  78.948 222.920 -0.50 -0.03    +0.071 A  
DOCKED: ATOM     11  C   UNL     1     140.555  79.763 223.156 -0.46 -0.00    +0.000 A  
DOCKED: ATOM     12  C   UNL     1     142.944  79.410 223.050 -0.51 -0.01    +0.029 A  
DOCKED: ATOM     13  C   UNL     1     140.763  81.074 223.533 -0.43 -0.00    +0.010 A  
DOCKED: ATOM     14  C   UNL     1     143.131  80.731 223.428 -0.59 -0.00    +0.002 A  
DOCKED: ATOM     15  C   UNL     1     142.049  81.570 223.672 -0.56 -0.00    +0.001 A  
DOCKED: ENDBRANCH   3   6
DOCKED: ENDBRANCH   1   2
DOCKED: BRANCH   1  16
DOCKED: ATOM     16  C   UNL     1     141.974  72.981 220.404 -0.13 -0.04    +0.242 C  
DOCKED: ATOM     17  O   UNL     1     141.369  72.400 219.401 -0.03 +0.05    -0.273 OA 
DOCKED: BRANCH  16  18
DOCKED: ATOM     18  N   UNL     1     143.379  72.969 220.317 -0.12 +0.06    -0.334 N  
DOCKED: ATOM     19  C   UNL     1     144.214  71.815 220.104 -0.25 -0.01    +0.120 C  
DOCKED: ATOM     20  C   UNL     1     144.063  74.250 220.480 -0.36 -0.04    +0.115 C  
DOCKED: ATOM     21  C   UNL     1     145.513  72.129 219.373 -0.34 +0.01    +0.022 C  
DOCKED: ATOM     22  C   UNL     1     145.496  74.177 220.811 -0.54 -0.01    +0.030 C  
DOCKED: ATOM     23  C   UNL     1     146.296  73.091 220.187 -0.49 +0.00    +0.004 C  
DOCKED: BRANCH  20  24
DOCKED: ATOM     24  C   UNL     1     143.693  75.236 219.432 -0.37 +0.01    -0.025 A  
DOCKED: ATOM     25  C   UNL     1     143.250  76.520 219.777 -0.35 -0.00    +0.006 A  
DOCKED: ATOM     26  C   UNL     1     143.749  74.973 218.081 -0.19 -0.00    +0.006 A  
DOCKED: ATOM     27  C   UNL     1     142.895  77.451 218.826 -0.33 -0.00    +0.000 A  
DOCKED: ATOM     28  C   UNL     1     143.395  75.906 217.115 -0.22 -0.00    +0.000 A  
DOCKED: ATOM     29  C   UNL     1     142.963  77.161 217.482 -0.29 -0.00    +0.000 A  
DOCKED: ENDBRANCH  20  24
DOCKED: ENDBRANCH  16  18
DOCKED: ENDBRANCH   1  16
DOCKED: TORSDOF 5
DOCKED: TER
DOCKED: ENDMDL
________________________________________________________________________________


    CLUSTERING HISTOGRAM
    ____________________


________________________________________________________________________________
     |           |     |           |     |
Clus | Lowest    | Run | Mean      | Num | Histogram
-ter | Binding   |     | Binding   | in  |
Rank | Energy    |     | Energy    | Clus|    5    10   15   20   25   30   35
_____|___________|_____|___________|_____|____:____|____:____|____:____|____:___
   1 |     -8.82 |   5 |     -8.67 |  12 |############
   2 |     -8.60 |  15 |     -8.45 |   2 |##
   3 |     -7.96 |  10 |     -7.92 |   6 |######
_____|___________|_____|___________|_____|______________________________________


    RMSD TABLE
    __________


_______________________________________________________________________
     |      |      |           |         |                 |
Rank | Sub- | Run  | Binding   | Cluster | Reference       | Grep
     | Rank |      | Energy    | RMSD    | RMSD            | Pattern
_____|______|______|___________|_________|_________________|___________
   1      1      5       -8.82      0.00    271.52           RANKING
   1      2      6       -8.77      0.32    271.49           RANKING
   1      3      8       -8.75      0.26    271.52           RANKING
   1      4     17       -8.75      0.15    271.50           RANKING
   1      5      7       -8.75      0.21    271.51           RANKING
   1      6      2       -8.75      0.23    271.51           RANKING
   1      7     14       -8.74      0.16    271.52           RANKING
   1      8     11       -8.74      0.16    271.52           RANKING
   1      9     19       -8.69      0.18    271.48           RANKING
   1     10     16       -8.69      0.22    271.49           RANKING
   1     11      1       -8.50      1.15    271.46           RANKING
   1     12      9       -8.04      1.53    271.33           RANKING
   2      1     15       -8.60      0.00    272.01           RANKING
   2      2      4       -8.29      1.51    271.74           RANKING
   3      1     10       -7.96      0.00    271.67           RANKING
   3      2     20       -7.93      0.03    271.68           RANKING
   3      3     13       -7.92      0.12    271.67           RANKING
   3      4     12       -7.91      0.13    271.69           RANKING
   3      5      3       -7.90      0.05    271.68           RANKING
   3      6     18       -7.89      0.11    271.65           RANKING

Run time 0.481 sec
Idle time 0.000 sec
