AutoDock-GPU version: v1.6

**********************************************************
**    AutoDock-GPU AUTODOCKTOOLS-COMPATIBLE DLG FILE    **
**********************************************************


    DOCKING PARAMETERS
    ________________________


Ligand file:                               /home/a/REINVENT4/ReinventStudies/pleaseWork/justmol2mol_4_Compounds_ontop/graph-dock-hn62wh/graph-DockGPU/node-autodockgpu/inputs/YLRQYMCSDCCODA-HAXAUBSPNA-N.pdbqt
Grid fld file:                             /home/a/REINVENT4/ReinventStudies/mols/Rad51/maps/rad51_receptor.maps.fld

Random seed:                               42
Number of runs:                            20
Number of energy evaluations:              2040163
Number of generations:                     42000
Size of population:                        150
Rate of crossover:                         80.000000%
Tournament selection probability limit:    60.000000%
Rate of mutation:                          2.000000%
Maximal allowed delta movement:            +/- 6.000000A
Maximal allowed delta angle:               +/- 90.000000

Rate of local search:                      100.000000%
Maximal number of local search iterations: 300
Rho lower bound:                           0.010000
Spread of local search delta movement:     2.000000A
Spread of local search delta angle:        74.999999
Limit of consecutive successes/failures:   4

Handle symmetry during clustering:         YES
RMSD tolerance:                            2.000000A

Program call in command line was:          /home/a/REINVENT4/ReinventStudies/adgpu-v1.6_linux_x64_cuda12_128wi --filelist batch.txt --heuristics 1 --nrun 20 --psize 150 --lsit 300 --seed 42 --heurmax 12000000 


    GRID PARAMETERS
    ________________________


Receptor name:                             rad51_receptor
Number of grid points (x, y, z):           53, 53, 53
Grid center (x, y, z):                     139.950000, 75.640000, 221.970000A
Grid size (x, y, z):                       19.500000, 19.500000, 19.500000A
Grid spacing:                              0.375000A


    LIGAND PARAMETERS
    ________________________


Ligand name:                               /home/a/REINVENT4/ReinventStudies/pleaseWork/justmol2mol_4_Compounds_ontop/graph-dock-hn62wh/graph-DockGPU/node-autodockgpu/inputs/YLRQYMCSDCCODA-HAXAUBSPNA-N
Number of atoms:                           33
Number of rotatable bonds:                 9
Number of atom types:                      6


    DUMMY DATA (only for ADT-compatibility)
    ________________________


DPF> outlev 1
DPF> ga_run 20
DPF> fld /home/a/REINVENT4/ReinventStudies/mols/Rad51/maps/rad51_receptor.maps.fld
DPF> move /home/a/REINVENT4/ReinventStudies/pleaseWork/justmol2mol_4_Compounds_ontop/graph-dock-hn62wh/graph-DockGPU/node-autodockgpu/inputs/YLRQYMCSDCCODA-HAXAUBSPNA-N.pdbqt


    COUNTER STATES
    ________________________


Number of energy evaluations performed:    785009
Number of generations used:                45


    INPUT LIGAND PDBQT FILE:
    ________________________


INPUT-LIGAND-PDBQT: REMARK SMILES O=C(NCC(=O)N1C[C@@H](O)C[C@H]1CCOc1ccccc1)c1ccc2ccccc2n1
INPUT-LIGAND-PDBQT: REMARK SMILES IDX 7 1 8 2 9 3 11 4 12 5 5 6 6 7 4 8 3 9 2 10 1 11 22 13 23 14
INPUT-LIGAND-PDBQT: REMARK SMILES IDX 31 15 24 16 30 17 25 18 29 19 26 20 28 21 27 22 13 23 14 24
INPUT-LIGAND-PDBQT: REMARK SMILES IDX 15 25 16 26 17 27 21 28 18 29 20 30 19 31 10 32
INPUT-LIGAND-PDBQT: REMARK H PARENT 3 12 10 33
INPUT-LIGAND-PDBQT: ROOT
INPUT-LIGAND-PDBQT: ATOM      1  N   UNL     1      -0.951   0.442  -1.339  1.00  0.00    -0.335 N 
INPUT-LIGAND-PDBQT: ATOM      2  C   UNL     1      -1.248   1.101  -2.626  1.00  0.00     0.151 C 
INPUT-LIGAND-PDBQT: ATOM      3  C   UNL     1      -2.642   0.667  -3.011  1.00  0.00     0.136 C 
INPUT-LIGAND-PDBQT: ATOM      4  C   UNL     1      -2.803  -0.588  -2.179  1.00  0.00     0.059 C 
INPUT-LIGAND-PDBQT: ATOM      5  C   UNL     1      -2.208  -0.069  -0.860  1.00  0.00     0.091 C 
INPUT-LIGAND-PDBQT: ENDROOT
INPUT-LIGAND-PDBQT: BRANCH   1   6
INPUT-LIGAND-PDBQT: ATOM      6  C   UNL     1       0.359   0.408  -0.824  1.00  0.00     0.242 C 
INPUT-LIGAND-PDBQT: ATOM      7  O   UNL     1       1.259   0.966  -1.531  1.00  0.00    -0.273 OA
INPUT-LIGAND-PDBQT: BRANCH   6   8
INPUT-LIGAND-PDBQT: ATOM      8  C   UNL     1       0.787  -0.203   0.437  1.00  0.00     0.216 C 
INPUT-LIGAND-PDBQT: BRANCH   8   9
INPUT-LIGAND-PDBQT: ATOM      9  N   UNL     1       2.234  -0.014   0.569  1.00  0.00    -0.342 N 
INPUT-LIGAND-PDBQT: ATOM     10  C   UNL     1       3.136  -0.552  -0.403  1.00  0.00     0.270 C 
INPUT-LIGAND-PDBQT: ATOM     11  O   UNL     1       2.725  -1.208  -1.410  1.00  0.00    -0.268 OA
INPUT-LIGAND-PDBQT: ATOM     12  H   UNL     1       2.669   0.505   1.355  1.00  0.00     0.164 HD
INPUT-LIGAND-PDBQT: BRANCH  10  13
INPUT-LIGAND-PDBQT: ATOM     13  C   UNL     1       4.590  -0.337  -0.230  1.00  0.00     0.128 A 
INPUT-LIGAND-PDBQT: ATOM     14  C   UNL     1       5.465  -0.851  -1.163  1.00  0.00     0.035 A 
INPUT-LIGAND-PDBQT: ATOM     15  N   UNL     1       5.086   0.349   0.814  1.00  0.00    -0.243 NA
INPUT-LIGAND-PDBQT: ATOM     16  C   UNL     1       6.819  -0.647  -0.996  1.00  0.00     0.013 A 
INPUT-LIGAND-PDBQT: ATOM     17  C   UNL     1       6.387   0.568   1.011  1.00  0.00     0.071 A 
INPUT-LIGAND-PDBQT: ATOM     18  C   UNL     1       7.304   0.064   0.091  1.00  0.00     0.000 A 
INPUT-LIGAND-PDBQT: ATOM     19  C   UNL     1       6.843   1.281   2.104  1.00  0.00     0.029 A 
INPUT-LIGAND-PDBQT: ATOM     20  C   UNL     1       8.651   0.275   0.269  1.00  0.00     0.010 A 
INPUT-LIGAND-PDBQT: ATOM     21  C   UNL     1       8.185   1.469   2.246  1.00  0.00     0.002 A 
INPUT-LIGAND-PDBQT: ATOM     22  C   UNL     1       9.109   0.977   1.344  1.00  0.00     0.001 A 
INPUT-LIGAND-PDBQT: ENDBRANCH  10  13
INPUT-LIGAND-PDBQT: ENDBRANCH   8   9
INPUT-LIGAND-PDBQT: ENDBRANCH   6   8
INPUT-LIGAND-PDBQT: ENDBRANCH   1   6
INPUT-LIGAND-PDBQT: BRANCH   5  23
INPUT-LIGAND-PDBQT: ATOM     23  C   UNL     1      -2.128  -1.144   0.165  1.00  0.00     0.067 C 
INPUT-LIGAND-PDBQT: BRANCH  23  24
INPUT-LIGAND-PDBQT: ATOM     24  C   UNL     1      -3.583  -1.519   0.503  1.00  0.00     0.231 C 
INPUT-LIGAND-PDBQT: BRANCH  24  25
INPUT-LIGAND-PDBQT: ATOM     25  O   UNL     1      -4.269  -0.390   1.007  1.00  0.00    -0.494 OA
INPUT-LIGAND-PDBQT: BRANCH  25  26
INPUT-LIGAND-PDBQT: ATOM     26  C   UNL     1      -5.602  -0.442   1.394  1.00  0.00     0.119 A 
INPUT-LIGAND-PDBQT: ATOM     27  C   UNL     1      -6.179   0.717   1.874  1.00  0.00     0.046 A 
INPUT-LIGAND-PDBQT: ATOM     28  C   UNL     1      -6.310  -1.630   1.292  1.00  0.00     0.046 A 
INPUT-LIGAND-PDBQT: ATOM     29  C   UNL     1      -7.513   0.708   2.272  1.00  0.00     0.004 A 
INPUT-LIGAND-PDBQT: ATOM     30  C   UNL     1      -7.634  -1.618   1.693  1.00  0.00     0.004 A 
INPUT-LIGAND-PDBQT: ATOM     31  C   UNL     1      -8.243  -0.477   2.178  1.00  0.00     0.000 A 
INPUT-LIGAND-PDBQT: ENDBRANCH  25  26
INPUT-LIGAND-PDBQT: ENDBRANCH  24  25
INPUT-LIGAND-PDBQT: ENDBRANCH  23  24
INPUT-LIGAND-PDBQT: ENDBRANCH   5  23
INPUT-LIGAND-PDBQT: BRANCH   3  32
INPUT-LIGAND-PDBQT: ATOM     32  O   UNL     1      -2.762   0.417  -4.370  1.00  0.00    -0.391 OA
INPUT-LIGAND-PDBQT: ATOM     33  H   UNL     1      -3.306  -0.427  -4.442  1.00  0.00     0.211 HD
INPUT-LIGAND-PDBQT: ENDBRANCH   3  32
INPUT-LIGAND-PDBQT: TORSDOF 9


    FINAL DOCKED STATE:
    ________________________


Run:   1 / 20
Time taken for this run:   0.040s

DOCKED: MODEL        1
DOCKED: USER    Run = 1
DOCKED: USER
DOCKED: USER    Estimated Free Energy of Binding    =  -8.65 kcal/mol  [=(1)+(2)+(3)-(4)]
DOCKED: USER
DOCKED: USER    (1) Final Intermolecular Energy     = -11.34 kcal/mol
DOCKED: USER        vdW + Hbond + desolv Energy     = -11.22 kcal/mol
DOCKED: USER        Electrostatic Energy            =  -0.12 kcal/mol
DOCKED: USER        Moving Ligand-Fixed Receptor    = -11.34 kcal/mol
DOCKED: USER        Moving Ligand-Moving Receptor   =  +0.00 kcal/mol
DOCKED: USER    (2) Final Total Internal Energy     =  -1.58 kcal/mol
DOCKED: USER    (3) Torsional Free Energy           =  +2.68 kcal/mol
DOCKED: USER    (4) Unbound System's Energy         =  -1.58 kcal/mol
DOCKED: USER
DOCKED: USER
DOCKED: REMARK SMILES O=C(NCC(=O)N1C[C@@H](O)C[C@H]1CCOc1ccccc1)c1ccc2ccccc2n1
DOCKED: REMARK SMILES IDX 7 1 8 2 9 3 11 4 12 5 5 6 6 7 4 8 3 9 2 10 1 11 22 13 23 14
DOCKED: REMARK SMILES IDX 31 15 24 16 30 17 25 18 29 19 26 20 28 21 27 22 13 23 14 24
DOCKED: REMARK SMILES IDX 15 25 16 26 17 27 21 28 18 29 20 30 19 31 10 32
DOCKED: REMARK H PARENT 3 12 10 33
DOCKED: USER                              x       y       z     vdW  Elec       q    Type
DOCKED: USER                           _______ _______ _______ _____ _____    ______ ____
DOCKED: ROOT
DOCKED: ATOM      1  N   UNL     1     141.056  75.496 220.820 -0.13 +0.10    -0.335 N  
DOCKED: ATOM      2  C   UNL     1     142.160  76.007 219.985 -0.24 -0.08    +0.151 C  
DOCKED: ATOM      3  C   UNL     1     142.201  77.500 220.206 -0.22 -0.09    +0.136 C  
DOCKED: ATOM      4  C   UNL     1     140.807  77.761 220.736 -0.24 -0.02    +0.059 C  
DOCKED: ATOM      5  C   UNL     1     140.703  76.573 221.707 -0.33 -0.03    +0.091 C  
DOCKED: ENDROOT
DOCKED: BRANCH   1   6
DOCKED: ATOM      6  C   UNL     1     140.561  74.189 220.653 -0.14 -0.05    +0.242 C  
DOCKED: ATOM      7  O   UNL     1     141.335  73.362 220.071 -0.08 +0.05    -0.273 OA 
DOCKED: BRANCH   6   8
DOCKED: ATOM      8  C   UNL     1     139.251  73.689 221.078 -0.13 -0.04    +0.216 C  
DOCKED: BRANCH   8   9
DOCKED: ATOM      9  N   UNL     1     139.426  72.965 222.341 -0.14 +0.07    -0.342 N  
DOCKED: ATOM     10  C   UNL     1     139.533  71.538 222.360 -0.17 -0.05    +0.270 C  
DOCKED: ATOM     11  O   UNL     1     139.482  70.847 221.296 -0.08 +0.05    -0.268 OA 
DOCKED: ATOM     12  H   UNL     1     139.478  73.438 223.263 -0.46 -0.05    +0.164 HD 
DOCKED: BRANCH  10  13
DOCKED: ATOM     13  C   UNL     1     139.708  70.849 223.658 -0.29 -0.02    +0.128 A  
DOCKED: ATOM     14  C   UNL     1     139.355  69.521 223.771 -0.26 -0.01    +0.035 A  
DOCKED: ATOM     15  N   UNL     1     140.205  71.481 224.735 -0.30 +0.04    -0.243 NA 
DOCKED: ATOM     16  C   UNL     1     139.521  68.885 224.984 -0.40 -0.00    +0.013 A  
DOCKED: ATOM     17  C   UNL     1     140.381  70.901 225.923 -0.53 -0.01    +0.071 A  
DOCKED: ATOM     18  C   UNL     1     140.036  69.561 226.079 -0.49 -0.00    +0.000 A  
DOCKED: ATOM     19  C   UNL     1     140.897  71.600 226.999 -0.73 -0.01    +0.029 A  
DOCKED: ATOM     20  C   UNL     1     140.207  68.938 227.293 -0.62 -0.00    +0.010 A  
DOCKED: ATOM     21  C   UNL     1     141.052  70.948 228.186 -0.67 -0.00    +0.002 A  
DOCKED: ATOM     22  C   UNL     1     140.715  69.619 228.359 -0.59 -0.00    +0.001 A  
DOCKED: ENDBRANCH  10  13
DOCKED: ENDBRANCH   8   9
DOCKED: ENDBRANCH   6   8
DOCKED: ENDBRANCH   1   6
DOCKED: BRANCH   5  23
DOCKED: ATOM     23  C   UNL     1     139.355  76.492 222.330 -0.31 -0.01    +0.067 C  
DOCKED: BRANCH  23  24
DOCKED: ATOM     24  C   UNL     1     138.784  77.922 222.298 -0.19 -0.04    +0.231 C  
DOCKED: BRANCH  24  25
DOCKED: ATOM     25  O   UNL     1     139.219  78.643 223.433 -0.11 +0.07    -0.494 OA 
DOCKED: BRANCH  25  26
DOCKED: ATOM     26  C   UNL     1     140.295  79.521 223.389 -0.39 -0.02    +0.119 A  
DOCKED: ATOM     27  C   UNL     1     141.514  79.071 223.856 -0.58 -0.01    +0.046 A  
DOCKED: ATOM     28  C   UNL     1     140.126  80.803 222.887 -0.35 -0.01    +0.046 A  
DOCKED: ATOM     29  C   UNL     1     142.617  79.919 223.829 -0.58 -0.00    +0.004 A  
DOCKED: ATOM     30  C   UNL     1     141.234  81.630 222.869 -0.45 -0.00    +0.004 A  
DOCKED: ATOM     31  C   UNL     1     142.468  81.213 223.329 -0.55 -0.00    +0.000 A  
DOCKED: ENDBRANCH  25  26
DOCKED: ENDBRANCH  24  25
DOCKED: ENDBRANCH  23  24
DOCKED: ENDBRANCH   5  23
DOCKED: BRANCH   3  32
DOCKED: ATOM     32  O   UNL     1     142.460  78.201 219.037 -0.16 +0.29    -0.391 OA 
DOCKED: ATOM     33  H   UNL     1     143.459  78.323 219.011 -0.32 -0.23    +0.211 HD 
DOCKED: ENDBRANCH   3  32
DOCKED: TORSDOF 9
DOCKED: TER
DOCKED: ENDMDL
________________________________________________________________________________


    FINAL DOCKED STATE:
    ________________________


Run:   2 / 20
Time taken for this run:   0.040s

DOCKED: MODEL        2
DOCKED: USER    Run = 2
DOCKED: USER
DOCKED: USER    Estimated Free Energy of Binding    =  -7.81 kcal/mol  [=(1)+(2)+(3)-(4)]
DOCKED: USER
DOCKED: USER    (1) Final Intermolecular Energy     = -10.49 kcal/mol
DOCKED: USER        vdW + Hbond + desolv Energy     = -10.05 kcal/mol
DOCKED: USER        Electrostatic Energy            =  -0.44 kcal/mol
DOCKED: USER        Moving Ligand-Fixed Receptor    = -10.49 kcal/mol
DOCKED: USER        Moving Ligand-Moving Receptor   =  +0.00 kcal/mol
DOCKED: USER    (2) Final Total Internal Energy     =  -2.78 kcal/mol
DOCKED: USER    (3) Torsional Free Energy           =  +2.68 kcal/mol
DOCKED: USER    (4) Unbound System's Energy         =  -2.78 kcal/mol
DOCKED: USER
DOCKED: USER
DOCKED: REMARK SMILES O=C(NCC(=O)N1C[C@@H](O)C[C@H]1CCOc1ccccc1)c1ccc2ccccc2n1
DOCKED: REMARK SMILES IDX 7 1 8 2 9 3 11 4 12 5 5 6 6 7 4 8 3 9 2 10 1 11 22 13 23 14
DOCKED: REMARK SMILES IDX 31 15 24 16 30 17 25 18 29 19 26 20 28 21 27 22 13 23 14 24
DOCKED: REMARK SMILES IDX 15 25 16 26 17 27 21 28 18 29 20 30 19 31 10 32
DOCKED: REMARK H PARENT 3 12 10 33
DOCKED: USER                              x       y       z     vdW  Elec       q    Type
DOCKED: USER                           _______ _______ _______ _____ _____    ______ ____
DOCKED: ROOT
DOCKED: ATOM      1  N   UNL     1     143.056  72.683 220.026 -0.08 +0.05    -0.335 N  
DOCKED: ATOM      2  C   UNL     1     144.442  72.176 220.038 -0.27 -0.01    +0.151 C  
DOCKED: ATOM      3  C   UNL     1     145.331  73.380 220.238 -0.47 -0.01    +0.136 C  
DOCKED: ATOM      4  C   UNL     1     144.412  74.503 219.807 -0.34 -0.02    +0.059 C  
DOCKED: ATOM      5  C   UNL     1     143.129  74.035 220.513 -0.28 -0.03    +0.091 C  
DOCKED: ENDROOT
DOCKED: BRANCH   1   6
DOCKED: ATOM      6  C   UNL     1     141.989  71.875 219.592 -0.07 -0.04    +0.242 C  
DOCKED: ATOM      7  O   UNL     1     142.279  70.953 218.762 -0.03 +0.04    -0.273 OA 
DOCKED: BRANCH   6   8
DOCKED: ATOM      8  C   UNL     1     140.585  71.988 219.996 -0.06 -0.04    +0.216 C  
DOCKED: BRANCH   8   9
DOCKED: ATOM      9  N   UNL     1     140.505  71.756 221.441 -0.09 +0.05    -0.342 N  
DOCKED: ATOM     10  C   UNL     1     139.859  70.590 221.962 -0.08 -0.04    +0.270 C  
DOCKED: ATOM     11  O   UNL     1     139.334  69.717 221.203 -0.08 +0.05    -0.268 OA 
DOCKED: ATOM     12  H   UNL     1     140.902  72.408 222.143 +0.05 -0.01    +0.164 HD 
DOCKED: BRANCH  10  13
DOCKED: ATOM     13  C   UNL     1     139.802  70.396 223.428 -0.22 -0.02    +0.128 A  
DOCKED: ATOM     14  C   UNL     1     139.058  69.356 223.943 -0.29 -0.01    +0.035 A  
DOCKED: ATOM     15  N   UNL     1     140.457  71.206 224.277 -0.28 +0.03    -0.243 NA 
DOCKED: ATOM     16  C   UNL     1     139.009  69.180 225.311 -0.41 -0.00    +0.013 A  
DOCKED: ATOM     17  C   UNL     1     140.435  71.070 225.603 -0.52 -0.01    +0.071 A  
DOCKED: ATOM     18  C   UNL     1     139.694  70.031 226.164 -0.48 -0.00    +0.000 A  
DOCKED: ATOM     19  C   UNL     1     141.128  71.934 226.431 -0.66 -0.00    +0.029 A  
DOCKED: ATOM     20  C   UNL     1     139.654  69.867 227.528 -0.56 -0.00    +0.010 A  
DOCKED: ATOM     21  C   UNL     1     141.063  71.738 227.778 -0.83 -0.00    +0.002 A  
DOCKED: ATOM     22  C   UNL     1     140.334  70.714 228.351 -0.60 -0.00    +0.001 A  
DOCKED: ENDBRANCH  10  13
DOCKED: ENDBRANCH   8   9
DOCKED: ENDBRANCH   6   8
DOCKED: ENDBRANCH   1   6
DOCKED: BRANCH   5  23
DOCKED: ATOM     23  C   UNL     1     141.972  74.911 220.184 -0.24 -0.02    +0.067 C  
DOCKED: BRANCH  23  24
DOCKED: ATOM     24  C   UNL     1     141.424  75.416 221.532 -0.16 -0.07    +0.231 C  
DOCKED: BRANCH  24  25
DOCKED: ATOM     25  O   UNL     1     140.501  74.483 222.058 -0.65 +0.01    -0.494 OA 
DOCKED: BRANCH  25  26
DOCKED: ATOM     26  C   UNL     1     139.151  74.775 222.206 -0.16 -0.03    +0.119 A  
DOCKED: ATOM     27  C   UNL     1     138.807  76.054 222.596 -0.28 -0.01    +0.046 A  
DOCKED: ATOM     28  C   UNL     1     138.197  73.798 221.962 -0.16 -0.01    +0.046 A  
DOCKED: ATOM     29  C   UNL     1     137.465  76.389 222.754 -0.29 -0.00    +0.004 A  
DOCKED: ATOM     30  C   UNL     1     136.870  74.150 222.126 -0.15 -0.00    +0.004 A  
DOCKED: ATOM     31  C   UNL     1     136.490  75.420 222.515 -0.21 -0.00    +0.000 A  
DOCKED: ENDBRANCH  25  26
DOCKED: ENDBRANCH  24  25
DOCKED: ENDBRANCH  23  24
DOCKED: ENDBRANCH   5  23
DOCKED: BRANCH   3  32
DOCKED: ATOM     32  O   UNL     1     146.485  73.319 219.470 -0.62 -0.26    -0.391 OA 
DOCKED: ATOM     33  H   UNL     1     146.758  74.276 219.318 -0.48 -0.02    +0.211 HD 
DOCKED: ENDBRANCH   3  32
DOCKED: TORSDOF 9
DOCKED: TER
DOCKED: ENDMDL
________________________________________________________________________________


    FINAL DOCKED STATE:
    ________________________


Run:   3 / 20
Time taken for this run:   0.040s

DOCKED: MODEL        3
DOCKED: USER    Run = 3
DOCKED: USER
DOCKED: USER    Estimated Free Energy of Binding    =  -7.36 kcal/mol  [=(1)+(2)+(3)-(4)]
DOCKED: USER
DOCKED: USER    (1) Final Intermolecular Energy     = -10.04 kcal/mol
DOCKED: USER        vdW + Hbond + desolv Energy     =  -9.68 kcal/mol
DOCKED: USER        Electrostatic Energy            =  -0.36 kcal/mol
DOCKED: USER        Moving Ligand-Fixed Receptor    = -10.04 kcal/mol
DOCKED: USER        Moving Ligand-Moving Receptor   =  +0.00 kcal/mol
DOCKED: USER    (2) Final Total Internal Energy     =  -3.11 kcal/mol
DOCKED: USER    (3) Torsional Free Energy           =  +2.68 kcal/mol
DOCKED: USER    (4) Unbound System's Energy         =  -3.11 kcal/mol
DOCKED: USER
DOCKED: USER
DOCKED: REMARK SMILES O=C(NCC(=O)N1C[C@@H](O)C[C@H]1CCOc1ccccc1)c1ccc2ccccc2n1
DOCKED: REMARK SMILES IDX 7 1 8 2 9 3 11 4 12 5 5 6 6 7 4 8 3 9 2 10 1 11 22 13 23 14
DOCKED: REMARK SMILES IDX 31 15 24 16 30 17 25 18 29 19 26 20 28 21 27 22 13 23 14 24
DOCKED: REMARK SMILES IDX 15 25 16 26 17 27 21 28 18 29 20 30 19 31 10 32
DOCKED: REMARK H PARENT 3 12 10 33
DOCKED: USER                              x       y       z     vdW  Elec       q    Type
DOCKED: USER                           _______ _______ _______ _____ _____    ______ ____
DOCKED: ROOT
DOCKED: ATOM      1  N   UNL     1     143.398  73.385 220.334 -0.13 +0.07    -0.335 N  
DOCKED: ATOM      2  C   UNL     1     144.488  72.530 220.844 -0.30 -0.03    +0.151 C  
DOCKED: ATOM      3  C   UNL     1     145.685  72.803 219.966 -0.41 +0.03    +0.136 C  
DOCKED: ATOM      4  C   UNL     1     145.025  73.392 218.737 -0.24 +0.00    +0.059 C  
DOCKED: ATOM      5  C   UNL     1     144.021  74.322 219.438 -0.30 -0.03    +0.091 C  
DOCKED: ENDROOT
DOCKED: BRANCH   1   6
DOCKED: ATOM      6  C   UNL     1     142.065  73.187 220.744 -0.16 -0.04    +0.242 C  
DOCKED: ATOM      7  O   UNL     1     141.867  72.262 221.596 -0.18 +0.02    -0.273 OA 
DOCKED: BRANCH   6   8
DOCKED: ATOM      8  C   UNL     1     140.891  73.936 220.290 -0.12 -0.05    +0.216 C  
DOCKED: BRANCH   8   9
DOCKED: ATOM      9  N   UNL     1     140.986  75.300 220.817 -0.12 +0.10    -0.342 N  
DOCKED: ATOM     10  C   UNL     1     140.114  75.746 221.861 -0.23 -0.05    +0.270 C  
DOCKED: ATOM     11  O   UNL     1     139.232  74.986 222.369 -0.57 +0.06    -0.268 OA 
DOCKED: ATOM     12  H   UNL     1     141.671  75.997 220.469 +0.03 -0.07    +0.164 HD 
DOCKED: BRANCH  10  13
DOCKED: ATOM     13  C   UNL     1     140.245  77.132 222.363 -0.34 -0.03    +0.128 A  
DOCKED: ATOM     14  C   UNL     1     139.111  77.833 222.715 -0.30 -0.01    +0.035 A  
DOCKED: ATOM     15  N   UNL     1     141.442  77.730 222.489 -0.23 +0.12    -0.243 NA 
DOCKED: ATOM     16  C   UNL     1     139.240  79.124 223.182 -0.36 -0.00    +0.013 A  
DOCKED: ATOM     17  C   UNL     1     141.609  78.975 222.937 -0.50 -0.03    +0.071 A  
DOCKED: ATOM     18  C   UNL     1     140.488  79.718 223.302 -0.47 -0.00    +0.000 A  
DOCKED: ATOM     19  C   UNL     1     142.864  79.543 223.046 -0.56 -0.01    +0.029 A  
DOCKED: ATOM     20  C   UNL     1     140.630  81.004 223.767 -0.37 -0.00    +0.010 A  
DOCKED: ATOM     21  C   UNL     1     142.965  80.819 223.511 -0.63 -0.00    +0.002 A  
DOCKED: ATOM     22  C   UNL     1     141.865  81.571 223.878 -0.53 -0.00    +0.001 A  
DOCKED: ENDBRANCH  10  13
DOCKED: ENDBRANCH   8   9
DOCKED: ENDBRANCH   6   8
DOCKED: ENDBRANCH   1   6
DOCKED: BRANCH   5  23
DOCKED: ATOM     23  C   UNL     1     143.119  74.990 218.461 -0.20 -0.03    +0.067 C  
DOCKED: BRANCH  23  24
DOCKED: ATOM     24  C   UNL     1     143.318  76.503 218.663 -0.23 -0.15    +0.231 C  
DOCKED: BRANCH  24  25
DOCKED: ATOM     25  O   UNL     1     142.065  77.138 218.827 -0.07 +0.27    -0.494 OA 
DOCKED: BRANCH  25  26
DOCKED: ATOM     26  C   UNL     1     141.938  78.518 218.919 -0.23 -0.08    +0.119 A  
DOCKED: ATOM     27  C   UNL     1     142.785  79.296 218.155 -0.28 -0.05    +0.046 A  
DOCKED: ATOM     28  C   UNL     1     140.983  79.074 219.757 -0.19 -0.02    +0.046 A  
DOCKED: ATOM     29  C   UNL     1     142.690  80.683 218.217 -0.34 -0.00    +0.004 A  
DOCKED: ATOM     30  C   UNL     1     140.905  80.455 219.805 -0.22 -0.00    +0.004 A  
DOCKED: ATOM     31  C   UNL     1     141.737  81.263 219.055 -0.28 -0.00    +0.000 A  
DOCKED: ENDBRANCH  25  26
DOCKED: ENDBRANCH  24  25
DOCKED: ENDBRANCH  23  24
DOCKED: ENDBRANCH   5  23
DOCKED: BRANCH   3  32
DOCKED: ATOM     32  O   UNL     1     146.404  71.653 219.678 -0.32 -0.39    -0.391 OA 
DOCKED: ATOM     33  H   UNL     1     146.162  70.995 220.401 -0.32 +0.04    +0.211 HD 
DOCKED: ENDBRANCH   3  32
DOCKED: TORSDOF 9
DOCKED: TER
DOCKED: ENDMDL
________________________________________________________________________________


    FINAL DOCKED STATE:
    ________________________


Run:   4 / 20
Time taken for this run:   0.040s

DOCKED: MODEL        4
DOCKED: USER    Run = 4
DOCKED: USER
DOCKED: USER    Estimated Free Energy of Binding    =  -7.47 kcal/mol  [=(1)+(2)+(3)-(4)]
DOCKED: USER
DOCKED: USER    (1) Final Intermolecular Energy     = -10.16 kcal/mol
DOCKED: USER        vdW + Hbond + desolv Energy     =  -9.81 kcal/mol
DOCKED: USER        Electrostatic Energy            =  -0.35 kcal/mol
DOCKED: USER        Moving Ligand-Fixed Receptor    = -10.16 kcal/mol
DOCKED: USER        Moving Ligand-Moving Receptor   =  +0.00 kcal/mol
DOCKED: USER    (2) Final Total Internal Energy     =  -3.10 kcal/mol
DOCKED: USER    (3) Torsional Free Energy           =  +2.68 kcal/mol
DOCKED: USER    (4) Unbound System's Energy         =  -3.10 kcal/mol
DOCKED: USER
DOCKED: USER
DOCKED: REMARK SMILES O=C(NCC(=O)N1C[C@@H](O)C[C@H]1CCOc1ccccc1)c1ccc2ccccc2n1
DOCKED: REMARK SMILES IDX 7 1 8 2 9 3 11 4 12 5 5 6 6 7 4 8 3 9 2 10 1 11 22 13 23 14
DOCKED: REMARK SMILES IDX 31 15 24 16 30 17 25 18 29 19 26 20 28 21 27 22 13 23 14 24
DOCKED: REMARK SMILES IDX 15 25 16 26 17 27 21 28 18 29 20 30 19 31 10 32
DOCKED: REMARK H PARENT 3 12 10 33
DOCKED: USER                              x       y       z     vdW  Elec       q    Type
DOCKED: USER                           _______ _______ _______ _____ _____    ______ ____
DOCKED: ROOT
DOCKED: ATOM      1  N   UNL     1     143.202  73.458 220.299 -0.12 +0.07    -0.335 N  
DOCKED: ATOM      2  C   UNL     1     144.278  72.576 220.792 -0.29 -0.03    +0.151 C  
DOCKED: ATOM      3  C   UNL     1     145.529  72.982 220.050 -0.43 +0.01    +0.136 C  
DOCKED: ATOM      4  C   UNL     1     144.945  73.696 218.850 -0.15 -0.01    +0.059 C  
DOCKED: ATOM      5  C   UNL     1     143.859  74.511 219.571 -0.32 -0.03    +0.091 C  
DOCKED: ENDROOT
DOCKED: BRANCH   1   6
DOCKED: ATOM      6  C   UNL     1     141.850  73.180 220.575 -0.15 -0.04    +0.242 C  
DOCKED: ATOM      7  O   UNL     1     141.621  72.180 221.330 -0.17 +0.03    -0.273 OA 
DOCKED: BRANCH   6   8
DOCKED: ATOM      8  C   UNL     1     140.686  73.922 220.083 -0.09 -0.05    +0.216 C  
DOCKED: BRANCH   8   9
DOCKED: ATOM      9  N   UNL     1     140.762  75.289 220.604 -0.09 +0.09    -0.342 N  
DOCKED: ATOM     10  C   UNL     1     140.159  75.631 221.856 -0.22 -0.05    +0.270 C  
DOCKED: ATOM     11  O   UNL     1     139.542  74.774 222.561 -0.63 +0.03    -0.268 OA 
DOCKED: ATOM     12  H   UNL     1     141.242  76.061 220.104 +0.05 -0.06    +0.164 HD 
DOCKED: BRANCH  10  13
DOCKED: ATOM     13  C   UNL     1     140.260  77.025 222.344 -0.34 -0.03    +0.128 A  
DOCKED: ATOM     14  C   UNL     1     139.109  77.715 222.661 -0.29 -0.01    +0.035 A  
DOCKED: ATOM     15  N   UNL     1     141.445  77.641 222.491 -0.21 +0.12    -0.243 NA 
DOCKED: ATOM     16  C   UNL     1     139.210  79.013 223.115 -0.35 -0.00    +0.013 A  
DOCKED: ATOM     17  C   UNL     1     141.585  78.894 222.927 -0.50 -0.03    +0.071 A  
DOCKED: ATOM     18  C   UNL     1     140.446  79.625 223.256 -0.46 -0.00    +0.000 A  
DOCKED: ATOM     19  C   UNL     1     142.830  79.480 223.058 -0.55 -0.01    +0.029 A  
DOCKED: ATOM     20  C   UNL     1     140.560  80.919 223.709 -0.40 -0.00    +0.010 A  
DOCKED: ATOM     21  C   UNL     1     142.902  80.763 223.510 -0.65 -0.00    +0.002 A  
DOCKED: ATOM     22  C   UNL     1     141.784  81.504 223.842 -0.54 -0.00    +0.001 A  
DOCKED: ENDBRANCH  10  13
DOCKED: ENDBRANCH   8   9
DOCKED: ENDBRANCH   6   8
DOCKED: ENDBRANCH   1   6
DOCKED: BRANCH   5  23
DOCKED: ATOM     23  C   UNL     1     143.013  75.266 218.609 -0.22 -0.03    +0.067 C  
DOCKED: BRANCH  23  24
DOCKED: ATOM     24  C   UNL     1     143.294  76.757 218.875 -0.23 -0.16    +0.231 C  
DOCKED: BRANCH  24  25
DOCKED: ATOM     25  O   UNL     1     142.093  77.424 219.209 -0.09 +0.29    -0.494 OA 
DOCKED: BRANCH  25  26
DOCKED: ATOM     26  C   UNL     1     141.949  78.800 219.088 -0.23 -0.08    +0.119 A  
DOCKED: ATOM     27  C   UNL     1     140.979  79.416 219.855 -0.20 -0.02    +0.046 A  
DOCKED: ATOM     28  C   UNL     1     142.763  79.512 218.220 -0.28 -0.04    +0.046 A  
DOCKED: ATOM     29  C   UNL     1     140.803  80.794 219.764 -0.21 -0.00    +0.004 A  
DOCKED: ATOM     30  C   UNL     1     142.572  80.880 218.144 -0.35 -0.00    +0.004 A  
DOCKED: ATOM     31  C   UNL     1     141.612  81.528 218.896 -0.26 -0.00    +0.000 A  
DOCKED: ENDBRANCH  25  26
DOCKED: ENDBRANCH  24  25
DOCKED: ENDBRANCH  23  24
DOCKED: ENDBRANCH   5  23
DOCKED: BRANCH   3  32
DOCKED: ATOM     32  O   UNL     1     146.307  71.892 219.688 -0.45 -0.36    -0.391 OA 
DOCKED: ATOM     33  H   UNL     1     146.490  71.395 220.544 -0.39 +0.04    +0.211 HD 
DOCKED: ENDBRANCH   3  32
DOCKED: TORSDOF 9
DOCKED: TER
DOCKED: ENDMDL
________________________________________________________________________________


    FINAL DOCKED STATE:
    ________________________


Run:   5 / 20
Time taken for this run:   0.040s

DOCKED: MODEL        5
DOCKED: USER    Run = 5
DOCKED: USER
DOCKED: USER    Estimated Free Energy of Binding    =  -6.81 kcal/mol  [=(1)+(2)+(3)-(4)]
DOCKED: USER
DOCKED: USER    (1) Final Intermolecular Energy     =  -9.49 kcal/mol
DOCKED: USER        vdW + Hbond + desolv Energy     =  -9.18 kcal/mol
DOCKED: USER        Electrostatic Energy            =  -0.32 kcal/mol
DOCKED: USER        Moving Ligand-Fixed Receptor    =  -9.49 kcal/mol
DOCKED: USER        Moving Ligand-Moving Receptor   =  +0.00 kcal/mol
DOCKED: USER    (2) Final Total Internal Energy     =  -3.48 kcal/mol
DOCKED: USER    (3) Torsional Free Energy           =  +2.68 kcal/mol
DOCKED: USER    (4) Unbound System's Energy         =  -3.48 kcal/mol
DOCKED: USER
DOCKED: USER
DOCKED: REMARK SMILES O=C(NCC(=O)N1C[C@@H](O)C[C@H]1CCOc1ccccc1)c1ccc2ccccc2n1
DOCKED: REMARK SMILES IDX 7 1 8 2 9 3 11 4 12 5 5 6 6 7 4 8 3 9 2 10 1 11 22 13 23 14
DOCKED: REMARK SMILES IDX 31 15 24 16 30 17 25 18 29 19 26 20 28 21 27 22 13 23 14 24
DOCKED: REMARK SMILES IDX 15 25 16 26 17 27 21 28 18 29 20 30 19 31 10 32
DOCKED: REMARK H PARENT 3 12 10 33
DOCKED: USER                              x       y       z     vdW  Elec       q    Type
DOCKED: USER                           _______ _______ _______ _____ _____    ______ ____
DOCKED: ROOT
DOCKED: ATOM      1  N   UNL     1     143.070  73.381 219.804 -0.08 +0.07    -0.335 N  
DOCKED: ATOM      2  C   UNL     1     143.919  72.185 219.974 -0.23 -0.01    +0.151 C  
DOCKED: ATOM      3  C   UNL     1     145.255  72.683 220.470 -0.42 -0.01    +0.136 C  
DOCKED: ATOM      4  C   UNL     1     145.207  74.136 220.046 -0.32 -0.02    +0.059 C  
DOCKED: ATOM      5  C   UNL     1     143.763  74.452 220.468 -0.34 -0.04    +0.091 C  
DOCKED: ENDROOT
DOCKED: BRANCH   1   6
DOCKED: ATOM      6  C   UNL     1     141.852  73.314 219.101 -0.04 -0.05    +0.242 C  
DOCKED: ATOM      7  O   UNL     1     141.923  72.968 217.878 -0.01 +0.05    -0.273 OA 
DOCKED: BRANCH   6   8
DOCKED: ATOM      8  C   UNL     1     140.518  73.604 219.634 -0.05 -0.05    +0.216 C  
DOCKED: BRANCH   8   9
DOCKED: ATOM      9  N   UNL     1     140.527  74.967 220.172 -0.04 +0.09    -0.342 N  
DOCKED: ATOM     10  C   UNL     1     140.189  75.219 221.539 -0.22 -0.05    +0.270 C  
DOCKED: ATOM     11  O   UNL     1     139.872  74.281 222.336 -0.82 +0.01    -0.268 OA 
DOCKED: ATOM     12  H   UNL     1     140.770  75.800 219.603 +0.05 -0.05    +0.164 HD 
DOCKED: BRANCH  10  13
DOCKED: ATOM     13  C   UNL     1     140.211  76.611 222.040 -0.32 -0.03    +0.128 A  
DOCKED: ATOM     14  C   UNL     1     139.029  77.213 222.415 -0.30 -0.01    +0.035 A  
DOCKED: ATOM     15  N   UNL     1     141.355  77.310 222.143 -0.15 +0.12    -0.243 NA 
DOCKED: ATOM     16  C   UNL     1     139.056  78.511 222.881 -0.31 -0.00    +0.013 A  
DOCKED: ATOM     17  C   UNL     1     141.423  78.565 222.589 -0.45 -0.03    +0.071 A  
DOCKED: ATOM     18  C   UNL     1     140.250  79.209 222.976 -0.42 -0.00    +0.000 A  
DOCKED: ATOM     19  C   UNL     1     142.628  79.238 222.674 -0.50 -0.02    +0.029 A  
DOCKED: ATOM     20  C   UNL     1     140.291  80.503 223.440 -0.45 -0.00    +0.010 A  
DOCKED: ATOM     21  C   UNL     1     142.628  80.519 223.138 -0.66 -0.00    +0.002 A  
DOCKED: ATOM     22  C   UNL     1     141.475  81.174 223.527 -0.55 -0.00    +0.001 A  
DOCKED: ENDBRANCH  10  13
DOCKED: ENDBRANCH   8   9
DOCKED: ENDBRANCH   6   8
DOCKED: ENDBRANCH   1   6
DOCKED: BRANCH   5  23
DOCKED: ATOM     23  C   UNL     1     143.367  75.831 220.073 -0.20 -0.04    +0.067 C  
DOCKED: BRANCH  23  24
DOCKED: ATOM     24  C   UNL     1     143.316  75.834 218.534 -0.20 -0.12    +0.231 C  
DOCKED: BRANCH  24  25
DOCKED: ATOM     25  O   UNL     1     142.165  76.525 218.089 -0.04 +0.25    -0.494 OA 
DOCKED: BRANCH  25  26
DOCKED: ATOM     26  C   UNL     1     141.911  77.846 218.436 -0.20 -0.07    +0.119 A  
DOCKED: ATOM     27  C   UNL     1     140.701  78.133 219.036 -0.12 -0.02    +0.046 A  
DOCKED: ATOM     28  C   UNL     1     142.857  78.827 218.178 -0.27 -0.04    +0.046 A  
DOCKED: ATOM     29  C   UNL     1     140.408  79.444 219.400 -0.13 -0.00    +0.004 A  
DOCKED: ATOM     30  C   UNL     1     142.546  80.123 218.547 -0.33 -0.00    +0.004 A  
DOCKED: ATOM     31  C   UNL     1     141.345  80.446 219.149 -0.24 -0.00    +0.000 A  
DOCKED: ENDBRANCH  25  26
DOCKED: ENDBRANCH  24  25
DOCKED: ENDBRANCH  23  24
DOCKED: ENDBRANCH   5  23
DOCKED: BRANCH   3  32
DOCKED: ATOM     32  O   UNL     1     146.319  72.002 219.897 -0.44 -0.29    -0.391 OA 
DOCKED: ATOM     33  H   UNL     1     146.487  71.210 220.496 -0.38 +0.04    +0.211 HD 
DOCKED: ENDBRANCH   3  32
DOCKED: TORSDOF 9
DOCKED: TER
DOCKED: ENDMDL
________________________________________________________________________________


    FINAL DOCKED STATE:
    ________________________


Run:   6 / 20
Time taken for this run:   0.040s

DOCKED: MODEL        6
DOCKED: USER    Run = 6
DOCKED: USER
DOCKED: USER    Estimated Free Energy of Binding    =  -8.44 kcal/mol  [=(1)+(2)+(3)-(4)]
DOCKED: USER
DOCKED: USER    (1) Final Intermolecular Energy     = -11.13 kcal/mol
DOCKED: USER        vdW + Hbond + desolv Energy     = -11.03 kcal/mol
DOCKED: USER        Electrostatic Energy            =  -0.09 kcal/mol
DOCKED: USER        Moving Ligand-Fixed Receptor    = -11.13 kcal/mol
DOCKED: USER        Moving Ligand-Moving Receptor   =  +0.00 kcal/mol
DOCKED: USER    (2) Final Total Internal Energy     =  -1.40 kcal/mol
DOCKED: USER    (3) Torsional Free Energy           =  +2.68 kcal/mol
DOCKED: USER    (4) Unbound System's Energy         =  -1.40 kcal/mol
DOCKED: USER
DOCKED: USER
DOCKED: REMARK SMILES O=C(NCC(=O)N1C[C@@H](O)C[C@H]1CCOc1ccccc1)c1ccc2ccccc2n1
DOCKED: REMARK SMILES IDX 7 1 8 2 9 3 11 4 12 5 5 6 6 7 4 8 3 9 2 10 1 11 22 13 23 14
DOCKED: REMARK SMILES IDX 31 15 24 16 30 17 25 18 29 19 26 20 28 21 27 22 13 23 14 24
DOCKED: REMARK SMILES IDX 15 25 16 26 17 27 21 28 18 29 20 30 19 31 10 32
DOCKED: REMARK H PARENT 3 12 10 33
DOCKED: USER                              x       y       z     vdW  Elec       q    Type
DOCKED: USER                           _______ _______ _______ _____ _____    ______ ____
DOCKED: ROOT
DOCKED: ATOM      1  N   UNL     1     141.505  74.608 220.173 -0.08 +0.09    -0.335 N  
DOCKED: ATOM      2  C   UNL     1     142.589  74.508 219.176 -0.15 -0.05    +0.151 C  
DOCKED: ATOM      3  C   UNL     1     143.335  75.819 219.230 -0.30 -0.08    +0.136 C  
DOCKED: ATOM      4  C   UNL     1     142.303  76.722 219.873 -0.30 -0.04    +0.059 C  
DOCKED: ATOM      5  C   UNL     1     141.811  75.766 220.971 -0.13 -0.04    +0.091 C  
DOCKED: ENDROOT
DOCKED: BRANCH   1   6
DOCKED: ATOM      6  C   UNL     1     140.452  73.674 220.200 -0.08 -0.05    +0.242 C  
DOCKED: ATOM      7  O   UNL     1     140.594  72.641 219.469 -0.03 +0.05    -0.273 OA 
DOCKED: BRANCH   6   8
DOCKED: ATOM      8  C   UNL     1     139.215  73.773 220.979 -0.12 -0.04    +0.216 C  
DOCKED: BRANCH   8   9
DOCKED: ATOM      9  N   UNL     1     139.425  73.087 222.257 -0.13 +0.07    -0.342 N  
DOCKED: ATOM     10  C   UNL     1     139.472  71.658 222.325 -0.17 -0.05    +0.270 C  
DOCKED: ATOM     11  O   UNL     1     139.336  70.933 221.291 -0.07 +0.05    -0.268 OA 
DOCKED: ATOM     12  H   UNL     1     139.545  73.589 223.157 -0.49 -0.04    +0.164 HD 
DOCKED: BRANCH  10  13
DOCKED: ATOM     13  C   UNL     1     139.685  71.008 223.637 -0.30 -0.02    +0.128 A  
DOCKED: ATOM     14  C   UNL     1     139.378  69.672 223.787 -0.27 -0.01    +0.035 A  
DOCKED: ATOM     15  N   UNL     1     140.173  71.683 224.692 -0.26 +0.05    -0.243 NA 
DOCKED: ATOM     16  C   UNL     1     139.580  69.072 225.013 -0.40 -0.00    +0.013 A  
DOCKED: ATOM     17  C   UNL     1     140.382  71.139 225.892 -0.53 -0.01    +0.071 A  
DOCKED: ATOM     18  C   UNL     1     140.084  69.792 226.085 -0.50 -0.00    +0.000 A  
DOCKED: ATOM     19  C   UNL     1     140.887  71.881 226.944 -0.74 -0.01    +0.029 A  
DOCKED: ATOM     20  C   UNL     1     140.290  69.206 227.311 -0.60 -0.00    +0.010 A  
DOCKED: ATOM     21  C   UNL     1     141.077  71.265 228.144 -0.74 -0.00    +0.002 A  
DOCKED: ATOM     22  C   UNL     1     140.787  69.930 228.354 -0.56 -0.00    +0.001 A  
DOCKED: ENDBRANCH  10  13
DOCKED: ENDBRANCH   8   9
DOCKED: ENDBRANCH   6   8
DOCKED: ENDBRANCH   1   6
DOCKED: BRANCH   5  23
DOCKED: ATOM     23  C   UNL     1     140.678  76.349 221.737 -0.35 -0.02    +0.067 C  
DOCKED: BRANCH  23  24
DOCKED: ATOM     24  C   UNL     1     140.231  77.597 220.952 -0.14 -0.08    +0.231 C  
DOCKED: BRANCH  24  25
DOCKED: ATOM     25  O   UNL     1     139.911  78.643 221.848 -0.03 +0.13    -0.494 OA 
DOCKED: BRANCH  25  26
DOCKED: ATOM     26  C   UNL     1     140.885  79.417 222.465 -0.34 -0.03    +0.119 A  
DOCKED: ATOM     27  C   UNL     1     142.207  79.104 222.219 -0.47 -0.02    +0.046 A  
DOCKED: ATOM     28  C   UNL     1     140.518  80.465 223.296 -0.43 -0.01    +0.046 A  
DOCKED: ATOM     29  C   UNL     1     143.215  79.856 222.817 -0.55 -0.00    +0.004 A  
DOCKED: ATOM     30  C   UNL     1     141.534  81.200 223.880 -0.52 -0.00    +0.004 A  
DOCKED: ATOM     31  C   UNL     1     142.867  80.914 223.657 -0.64 -0.00    +0.000 A  
DOCKED: ENDBRANCH  25  26
DOCKED: ENDBRANCH  24  25
DOCKED: ENDBRANCH  23  24
DOCKED: ENDBRANCH   5  23
DOCKED: BRANCH   3  32
DOCKED: ATOM     32  O   UNL     1     143.714  76.264 217.972 -0.16 +0.25    -0.391 OA 
DOCKED: ATOM     33  H   UNL     1     144.651  75.922 217.836 -0.44 -0.18    +0.211 HD 
DOCKED: ENDBRANCH   3  32
DOCKED: TORSDOF 9
DOCKED: TER
DOCKED: ENDMDL
________________________________________________________________________________


    FINAL DOCKED STATE:
    ________________________


Run:   7 / 20
Time taken for this run:   0.040s

DOCKED: MODEL        7
DOCKED: USER    Run = 7
DOCKED: USER
DOCKED: USER    Estimated Free Energy of Binding    =  -8.66 kcal/mol  [=(1)+(2)+(3)-(4)]
DOCKED: USER
DOCKED: USER    (1) Final Intermolecular Energy     = -11.34 kcal/mol
DOCKED: USER        vdW + Hbond + desolv Energy     = -11.15 kcal/mol
DOCKED: USER        Electrostatic Energy            =  -0.20 kcal/mol
DOCKED: USER        Moving Ligand-Fixed Receptor    = -11.34 kcal/mol
DOCKED: USER        Moving Ligand-Moving Receptor   =  +0.00 kcal/mol
DOCKED: USER    (2) Final Total Internal Energy     =  -1.99 kcal/mol
DOCKED: USER    (3) Torsional Free Energy           =  +2.68 kcal/mol
DOCKED: USER    (4) Unbound System's Energy         =  -1.99 kcal/mol
DOCKED: USER
DOCKED: USER
DOCKED: REMARK SMILES O=C(NCC(=O)N1C[C@@H](O)C[C@H]1CCOc1ccccc1)c1ccc2ccccc2n1
DOCKED: REMARK SMILES IDX 7 1 8 2 9 3 11 4 12 5 5 6 6 7 4 8 3 9 2 10 1 11 22 13 23 14
DOCKED: REMARK SMILES IDX 31 15 24 16 30 17 25 18 29 19 26 20 28 21 27 22 13 23 14 24
DOCKED: REMARK SMILES IDX 15 25 16 26 17 27 21 28 18 29 20 30 19 31 10 32
DOCKED: REMARK H PARENT 3 12 10 33
DOCKED: USER                              x       y       z     vdW  Elec       q    Type
DOCKED: USER                           _______ _______ _______ _____ _____    ______ ____
DOCKED: ROOT
DOCKED: ATOM      1  N   UNL     1     140.317  76.865 221.312 -0.12 +0.10    -0.335 N  
DOCKED: ATOM      2  C   UNL     1     140.727  77.860 222.322 -0.35 -0.05    +0.151 C  
DOCKED: ATOM      3  C   UNL     1     141.709  78.779 221.636 -0.33 -0.07    +0.136 C  
DOCKED: ATOM      4  C   UNL     1     142.153  77.921 220.470 -0.18 -0.04    +0.059 C  
DOCKED: ATOM      5  C   UNL     1     140.780  77.374 220.049 -0.17 -0.04    +0.091 C  
DOCKED: ENDROOT
DOCKED: BRANCH   1   6
DOCKED: ATOM      6  C   UNL     1     139.618  75.699 221.681 -0.22 -0.05    +0.242 C  
DOCKED: ATOM      7  O   UNL     1     138.650  75.853 222.493 -0.27 +0.06    -0.273 OA 
DOCKED: BRANCH   6   8
DOCKED: ATOM      8  C   UNL     1     139.894  74.334 221.226 -0.19 -0.04    +0.216 C  
DOCKED: BRANCH   8   9
DOCKED: ATOM      9  N   UNL     1     139.682  73.424 222.354 -0.13 +0.05    -0.342 N  
DOCKED: ATOM     10  C   UNL     1     140.521  72.280 222.541 -0.20 -0.02    +0.270 C  
DOCKED: ATOM     11  O   UNL     1     141.474  72.008 221.746 -0.19 +0.02    -0.268 OA 
DOCKED: ATOM     12  H   UNL     1     138.931  73.558 223.058 -0.52 -0.09    +0.164 HD 
DOCKED: BRANCH  10  13
DOCKED: ATOM     13  C   UNL     1     140.271  71.387 223.695 -0.33 -0.02    +0.128 A  
DOCKED: ATOM     14  C   UNL     1     139.594  70.202 223.499 -0.27 -0.01    +0.035 A  
DOCKED: ATOM     15  N   UNL     1     140.687  71.698 224.935 -0.30 +0.03    -0.243 NA 
DOCKED: ATOM     16  C   UNL     1     139.365  69.375 224.578 -0.35 -0.00    +0.013 A  
DOCKED: ATOM     17  C   UNL     1     140.485  70.925 226.004 -0.54 -0.01    +0.071 A  
DOCKED: ATOM     18  C   UNL     1     139.804  69.720 225.847 -0.47 -0.00    +0.000 A  
DOCKED: ATOM     19  C   UNL     1     140.935  71.294 227.258 -0.71 -0.01    +0.029 A  
DOCKED: ATOM     20  C   UNL     1     139.582  68.904 226.932 -0.56 -0.00    +0.010 A  
DOCKED: ATOM     21  C   UNL     1     140.695  70.459 228.308 -0.58 -0.00    +0.002 A  
DOCKED: ATOM     22  C   UNL     1     140.022  69.260 228.172 -0.64 -0.00    +0.001 A  
DOCKED: ENDBRANCH  10  13
DOCKED: ENDBRANCH   8   9
DOCKED: ENDBRANCH   6   8
DOCKED: ENDBRANCH   1   6
DOCKED: BRANCH   5  23
DOCKED: ATOM     23  C   UNL     1     140.900  76.381 218.948 -0.10 -0.02    +0.067 C  
DOCKED: BRANCH  23  24
DOCKED: ATOM     24  C   UNL     1     142.352  75.870 218.992 -0.17 -0.11    +0.231 C  
DOCKED: BRANCH  24  25
DOCKED: ATOM     25  O   UNL     1     142.439  74.727 219.819 -0.06 +0.17    -0.494 OA 
DOCKED: BRANCH  25  26
DOCKED: ATOM     26  C   UNL     1     143.638  74.065 220.049 -0.30 -0.04    +0.119 A  
DOCKED: ATOM     27  C   UNL     1     143.669  72.700 219.849 -0.25 -0.01    +0.046 A  
DOCKED: ATOM     28  C   UNL     1     144.754  74.775 220.466 -0.38 -0.02    +0.046 A  
DOCKED: ATOM     29  C   UNL     1     144.852  71.999 220.068 -0.36 +0.00    +0.004 A  
DOCKED: ATOM     30  C   UNL     1     145.920  74.059 220.679 -0.62 -0.00    +0.004 A  
DOCKED: ATOM     31  C   UNL     1     145.987  72.693 220.488 -0.55 +0.00    +0.000 A  
DOCKED: ENDBRANCH  25  26
DOCKED: ENDBRANCH  24  25
DOCKED: ENDBRANCH  23  24
DOCKED: ENDBRANCH   5  23
DOCKED: BRANCH   3  32
DOCKED: ATOM     32  O   UNL     1     142.766  79.134 222.461 -0.27 +0.24    -0.391 OA 
DOCKED: ATOM     33  H   UNL     1     143.598  78.833 221.979 -0.47 -0.24    +0.211 HD 
DOCKED: ENDBRANCH   3  32
DOCKED: TORSDOF 9
DOCKED: TER
DOCKED: ENDMDL
________________________________________________________________________________


    FINAL DOCKED STATE:
    ________________________


Run:   8 / 20
Time taken for this run:   0.040s

DOCKED: MODEL        8
DOCKED: USER    Run = 8
DOCKED: USER
DOCKED: USER    Estimated Free Energy of Binding    =  -7.40 kcal/mol  [=(1)+(2)+(3)-(4)]
DOCKED: USER
DOCKED: USER    (1) Final Intermolecular Energy     = -10.08 kcal/mol
DOCKED: USER        vdW + Hbond + desolv Energy     =  -9.75 kcal/mol
DOCKED: USER        Electrostatic Energy            =  -0.33 kcal/mol
DOCKED: USER        Moving Ligand-Fixed Receptor    = -10.08 kcal/mol
DOCKED: USER        Moving Ligand-Moving Receptor   =  +0.00 kcal/mol
DOCKED: USER    (2) Final Total Internal Energy     =  -2.81 kcal/mol
DOCKED: USER    (3) Torsional Free Energy           =  +2.68 kcal/mol
DOCKED: USER    (4) Unbound System's Energy         =  -2.81 kcal/mol
DOCKED: USER
DOCKED: USER
DOCKED: REMARK SMILES O=C(NCC(=O)N1C[C@@H](O)C[C@H]1CCOc1ccccc1)c1ccc2ccccc2n1
DOCKED: REMARK SMILES IDX 7 1 8 2 9 3 11 4 12 5 5 6 6 7 4 8 3 9 2 10 1 11 22 13 23 14
DOCKED: REMARK SMILES IDX 31 15 24 16 30 17 25 18 29 19 26 20 28 21 27 22 13 23 14 24
DOCKED: REMARK SMILES IDX 15 25 16 26 17 27 21 28 18 29 20 30 19 31 10 32
DOCKED: REMARK H PARENT 3 12 10 33
DOCKED: USER                              x       y       z     vdW  Elec       q    Type
DOCKED: USER                           _______ _______ _______ _____ _____    ______ ____
DOCKED: ROOT
DOCKED: ATOM      1  N   UNL     1     143.257  73.447 220.302 -0.13 +0.07    -0.335 N  
DOCKED: ATOM      2  C   UNL     1     144.206  72.412 220.755 -0.27 -0.03    +0.151 C  
DOCKED: ATOM      3  C   UNL     1     145.561  72.823 220.231 -0.44 +0.01    +0.136 C  
DOCKED: ATOM      4  C   UNL     1     145.173  73.763 219.109 -0.11 -0.01    +0.059 C  
DOCKED: ATOM      5  C   UNL     1     144.064  74.542 219.833 -0.36 -0.04    +0.091 C  
DOCKED: ENDROOT
DOCKED: BRANCH   1   6
DOCKED: ATOM      6  C   UNL     1     141.866  73.244 220.380 -0.14 -0.04    +0.242 C  
DOCKED: ATOM      7  O   UNL     1     141.301  72.792 219.332 -0.03 +0.05    -0.273 OA 
DOCKED: BRANCH   6   8
DOCKED: ATOM      8  C   UNL     1     141.009  73.499 221.540 -0.20 -0.02    +0.216 C  
DOCKED: BRANCH   8   9
DOCKED: ATOM      9  N   UNL     1     141.147  74.911 221.909 -0.11 +0.04    -0.342 N  
DOCKED: ATOM     10  C   UNL     1     139.993  75.735 222.101 -0.19 -0.05    +0.270 C  
DOCKED: ATOM     11  O   UNL     1     138.814  75.283 221.962 -0.25 +0.06    -0.268 OA 
DOCKED: ATOM     12  H   UNL     1     142.065  75.374 222.045 -0.42 -0.07    +0.164 HD 
DOCKED: BRANCH  10  13
DOCKED: ATOM     13  C   UNL     1     140.179  77.155 222.473 -0.31 -0.03    +0.128 A  
DOCKED: ATOM     14  C   UNL     1     139.072  77.949 222.685 -0.30 -0.01    +0.035 A  
DOCKED: ATOM     15  N   UNL     1     141.401  77.697 222.613 -0.24 +0.11    -0.243 NA 
DOCKED: ATOM     16  C   UNL     1     139.252  79.272 223.032 -0.34 -0.00    +0.013 A  
DOCKED: ATOM     17  C   UNL     1     141.617  78.971 222.946 -0.50 -0.03    +0.071 A  
DOCKED: ATOM     18  C   UNL     1     140.524  79.806 223.168 -0.45 -0.00    +0.000 A  
DOCKED: ATOM     19  C   UNL     1     142.897  79.477 223.076 -0.54 -0.01    +0.029 A  
DOCKED: ATOM     20  C   UNL     1     140.718  81.123 223.514 -0.42 -0.00    +0.010 A  
DOCKED: ATOM     21  C   UNL     1     143.048  80.787 223.419 -0.60 -0.00    +0.002 A  
DOCKED: ATOM     22  C   UNL     1     141.977  81.630 223.644 -0.54 -0.00    +0.001 A  
DOCKED: ENDBRANCH  10  13
DOCKED: ENDBRANCH   8   9
DOCKED: ENDBRANCH   6   8
DOCKED: ENDBRANCH   1   6
DOCKED: BRANCH   5  23
DOCKED: ATOM     23  C   UNL     1     143.390  75.508 218.923 -0.29 -0.03    +0.067 C  
DOCKED: BRANCH  23  24
DOCKED: ATOM     24  C   UNL     1     142.757  76.578 219.832 -0.20 -0.15    +0.231 C  
DOCKED: BRANCH  24  25
DOCKED: ATOM     25  O   UNL     1     141.785  77.310 219.112 -0.06 +0.26    -0.494 OA 
DOCKED: BRANCH  25  26
DOCKED: ATOM     26  C   UNL     1     141.810  78.696 219.027 -0.22 -0.07    +0.119 A  
DOCKED: ATOM     27  C   UNL     1     140.935  79.406 219.825 -0.19 -0.02    +0.046 A  
DOCKED: ATOM     28  C   UNL     1     142.695  79.324 218.163 -0.29 -0.04    +0.046 A  
DOCKED: ATOM     29  C   UNL     1     140.929  80.797 219.771 -0.22 -0.00    +0.004 A  
DOCKED: ATOM     30  C   UNL     1     142.673  80.706 218.124 -0.34 -0.00    +0.004 A  
DOCKED: ATOM     31  C   UNL     1     141.810  81.448 218.908 -0.28 -0.00    +0.000 A  
DOCKED: ENDBRANCH  25  26
DOCKED: ENDBRANCH  24  25
DOCKED: ENDBRANCH  23  24
DOCKED: ENDBRANCH   5  23
DOCKED: BRANCH   3  32
DOCKED: ATOM     32  O   UNL     1     146.304  71.742 219.781 -0.40 -0.32    -0.391 OA 
DOCKED: ATOM     33  H   UNL     1     146.636  71.278 220.610 -0.39 +0.03    +0.211 HD 
DOCKED: ENDBRANCH   3  32
DOCKED: TORSDOF 9
DOCKED: TER
DOCKED: ENDMDL
________________________________________________________________________________


    FINAL DOCKED STATE:
    ________________________


Run:   9 / 20
Time taken for this run:   0.040s

DOCKED: MODEL        9
DOCKED: USER    Run = 9
DOCKED: USER
DOCKED: USER    Estimated Free Energy of Binding    =  -8.42 kcal/mol  [=(1)+(2)+(3)-(4)]
DOCKED: USER
DOCKED: USER    (1) Final Intermolecular Energy     = -11.11 kcal/mol
DOCKED: USER        vdW + Hbond + desolv Energy     = -10.90 kcal/mol
DOCKED: USER        Electrostatic Energy            =  -0.21 kcal/mol
DOCKED: USER        Moving Ligand-Fixed Receptor    = -11.11 kcal/mol
DOCKED: USER        Moving Ligand-Moving Receptor   =  +0.00 kcal/mol
DOCKED: USER    (2) Final Total Internal Energy     =  -2.20 kcal/mol
DOCKED: USER    (3) Torsional Free Energy           =  +2.68 kcal/mol
DOCKED: USER    (4) Unbound System's Energy         =  -2.20 kcal/mol
DOCKED: USER
DOCKED: USER
DOCKED: REMARK SMILES O=C(NCC(=O)N1C[C@@H](O)C[C@H]1CCOc1ccccc1)c1ccc2ccccc2n1
DOCKED: REMARK SMILES IDX 7 1 8 2 9 3 11 4 12 5 5 6 6 7 4 8 3 9 2 10 1 11 22 13 23 14
DOCKED: REMARK SMILES IDX 31 15 24 16 30 17 25 18 29 19 26 20 28 21 27 22 13 23 14 24
DOCKED: REMARK SMILES IDX 15 25 16 26 17 27 21 28 18 29 20 30 19 31 10 32
DOCKED: REMARK H PARENT 3 12 10 33
DOCKED: USER                              x       y       z     vdW  Elec       q    Type
DOCKED: USER                           _______ _______ _______ _____ _____    ______ ____
DOCKED: ROOT
DOCKED: ATOM      1  N   UNL     1     140.366  76.839 221.470 -0.14 +0.10    -0.335 N  
DOCKED: ATOM      2  C   UNL     1     140.817  77.827 222.470 -0.36 -0.05    +0.151 C  
DOCKED: ATOM      3  C   UNL     1     141.666  78.828 221.723 -0.34 -0.07    +0.136 C  
DOCKED: ATOM      4  C   UNL     1     142.038  78.037 220.486 -0.19 -0.04    +0.059 C  
DOCKED: ATOM      5  C   UNL     1     140.664  77.416 220.186 -0.17 -0.04    +0.091 C  
DOCKED: ENDROOT
DOCKED: BRANCH   1   6
DOCKED: ATOM      6  C   UNL     1     139.782  75.620 221.864 -0.23 -0.05    +0.242 C  
DOCKED: ATOM      7  O   UNL     1     138.806  75.698 222.678 -0.31 +0.07    -0.273 OA 
DOCKED: BRANCH   6   8
DOCKED: ATOM      8  C   UNL     1     140.183  74.279 221.432 -0.21 -0.03    +0.216 C  
DOCKED: BRANCH   8   9
DOCKED: ATOM      9  N   UNL     1     139.949  73.352 222.543 -0.03 +0.03    -0.342 N  
DOCKED: ATOM     10  C   UNL     1     140.610  72.084 222.592 -0.19 -0.02    +0.270 C  
DOCKED: ATOM     11  O   UNL     1     141.418  71.712 221.686 -0.16 +0.02    -0.268 OA 
DOCKED: ATOM     12  H   UNL     1     139.306  73.561 223.330 -0.46 -0.08    +0.164 HD 
DOCKED: BRANCH  10  13
DOCKED: ATOM     13  C   UNL     1     140.343  71.179 223.733 -0.32 -0.02    +0.128 A  
DOCKED: ATOM     14  C   UNL     1     139.653  70.005 223.517 -0.24 -0.01    +0.035 A  
DOCKED: ATOM     15  N   UNL     1     140.757  71.467 224.978 -0.32 +0.03    -0.243 NA 
DOCKED: ATOM     16  C   UNL     1     139.408  69.166 224.584 -0.35 -0.00    +0.013 A  
DOCKED: ATOM     17  C   UNL     1     140.540  70.683 226.036 -0.53 -0.01    +0.071 A  
DOCKED: ATOM     18  C   UNL     1     139.845  69.489 225.860 -0.47 -0.00    +0.000 A  
DOCKED: ATOM     19  C   UNL     1     140.989  71.030 227.297 -0.67 -0.00    +0.029 A  
DOCKED: ATOM     20  C   UNL     1     139.608  68.661 226.932 -0.58 -0.00    +0.010 A  
DOCKED: ATOM     21  C   UNL     1     140.734  70.184 228.334 -0.57 -0.00    +0.002 A  
DOCKED: ATOM     22  C   UNL     1     140.047  68.995 228.179 -0.64 -0.00    +0.001 A  
DOCKED: ENDBRANCH  10  13
DOCKED: ENDBRANCH   8   9
DOCKED: ENDBRANCH   6   8
DOCKED: ENDBRANCH   1   6
DOCKED: BRANCH   5  23
DOCKED: ATOM     23  C   UNL     1     140.730  76.467 219.043 -0.10 -0.02    +0.067 C  
DOCKED: BRANCH  23  24
DOCKED: ATOM     24  C   UNL     1     142.197  76.007 218.955 -0.16 -0.11    +0.231 C  
DOCKED: BRANCH  24  25
DOCKED: ATOM     25  O   UNL     1     142.293  74.631 219.267 -0.01 +0.16    -0.494 OA 
DOCKED: BRANCH  25  26
DOCKED: ATOM     26  C   UNL     1     143.436  74.073 219.825 -0.27 -0.04    +0.119 A  
DOCKED: ATOM     27  C   UNL     1     144.415  74.932 220.281 -0.36 -0.02    +0.046 A  
DOCKED: ATOM     28  C   UNL     1     143.566  72.695 219.911 -0.25 -0.01    +0.046 A  
DOCKED: ATOM     29  C   UNL     1     145.576  74.414 220.848 -0.52 -0.00    +0.004 A  
DOCKED: ATOM     30  C   UNL     1     144.727  72.200 220.477 -0.37 -0.00    +0.004 A  
DOCKED: ATOM     31  C   UNL     1     145.727  73.030 220.944 -0.64 -0.00    +0.000 A  
DOCKED: ENDBRANCH  25  26
DOCKED: ENDBRANCH  24  25
DOCKED: ENDBRANCH  23  24
DOCKED: ENDBRANCH   5  23
DOCKED: BRANCH   3  32
DOCKED: ATOM     32  O   UNL     1     142.778  79.225 222.449 -0.28 +0.23    -0.391 OA 
DOCKED: ATOM     33  H   UNL     1     143.550  78.702 222.068 -0.46 -0.23    +0.211 HD 
DOCKED: ENDBRANCH   3  32
DOCKED: TORSDOF 9
DOCKED: TER
DOCKED: ENDMDL
________________________________________________________________________________


    FINAL DOCKED STATE:
    ________________________


Run:   10 / 20
Time taken for this run:   0.040s

DOCKED: MODEL        10
DOCKED: USER    Run = 10
DOCKED: USER
DOCKED: USER    Estimated Free Energy of Binding    =  -8.81 kcal/mol  [=(1)+(2)+(3)-(4)]
DOCKED: USER
DOCKED: USER    (1) Final Intermolecular Energy     = -11.50 kcal/mol
DOCKED: USER        vdW + Hbond + desolv Energy     = -11.34 kcal/mol
DOCKED: USER        Electrostatic Energy            =  -0.15 kcal/mol
DOCKED: USER        Moving Ligand-Fixed Receptor    = -11.50 kcal/mol
DOCKED: USER        Moving Ligand-Moving Receptor   =  +0.00 kcal/mol
DOCKED: USER    (2) Final Total Internal Energy     =  -1.56 kcal/mol
DOCKED: USER    (3) Torsional Free Energy           =  +2.68 kcal/mol
DOCKED: USER    (4) Unbound System's Energy         =  -1.56 kcal/mol
DOCKED: USER
DOCKED: USER
DOCKED: REMARK SMILES O=C(NCC(=O)N1C[C@@H](O)C[C@H]1CCOc1ccccc1)c1ccc2ccccc2n1
DOCKED: REMARK SMILES IDX 7 1 8 2 9 3 11 4 12 5 5 6 6 7 4 8 3 9 2 10 1 11 22 13 23 14
DOCKED: REMARK SMILES IDX 31 15 24 16 30 17 25 18 29 19 26 20 28 21 27 22 13 23 14 24
DOCKED: REMARK SMILES IDX 15 25 16 26 17 27 21 28 18 29 20 30 19 31 10 32
DOCKED: REMARK H PARENT 3 12 10 33
DOCKED: USER                              x       y       z     vdW  Elec       q    Type
DOCKED: USER                           _______ _______ _______ _____ _____    ______ ____
DOCKED: ROOT
DOCKED: ATOM      1  N   UNL     1     141.857  74.382 220.273 -0.10 +0.09    -0.335 N  
DOCKED: ATOM      2  C   UNL     1     143.035  73.629 220.747 -0.18 -0.03    +0.151 C  
DOCKED: ATOM      3  C   UNL     1     144.236  74.498 220.457 -0.35 -0.05    +0.136 C  
DOCKED: ATOM      4  C   UNL     1     143.685  75.420 219.390 -0.33 -0.03    +0.059 C  
DOCKED: ATOM      5  C   UNL     1     142.320  75.723 220.029 -0.27 -0.04    +0.091 C  
DOCKED: ENDROOT
DOCKED: BRANCH   1   6
DOCKED: ATOM      6  C   UNL     1     140.602  73.759 220.139 -0.08 -0.05    +0.242 C  
DOCKED: ATOM      7  O   UNL     1     140.493  72.899 219.207 -0.02 +0.05    -0.273 OA 
DOCKED: BRANCH   6   8
DOCKED: ATOM      8  C   UNL     1     139.414  74.002 220.961 -0.13 -0.04    +0.216 C  
DOCKED: BRANCH   8   9
DOCKED: ATOM      9  N   UNL     1     139.592  73.308 222.240 -0.14 +0.06    -0.342 N  
DOCKED: ATOM     10  C   UNL     1     139.691  71.882 222.292 -0.19 -0.05    +0.270 C  
DOCKED: ATOM     11  O   UNL     1     139.629  71.165 221.245 -0.08 +0.05    -0.268 OA 
DOCKED: ATOM     12  H   UNL     1     139.652  73.803 223.150 -0.47 -0.02    +0.164 HD 
DOCKED: BRANCH  10  13
DOCKED: ATOM     13  C   UNL     1     139.870  71.223 223.605 -0.32 -0.02    +0.128 A  
DOCKED: ATOM     14  C   UNL     1     139.536  69.892 223.745 -0.27 -0.01    +0.035 A  
DOCKED: ATOM     15  N   UNL     1     140.353  71.884 224.671 -0.27 +0.04    -0.243 NA 
DOCKED: ATOM     16  C   UNL     1     139.706  69.284 224.971 -0.38 -0.00    +0.013 A  
DOCKED: ATOM     17  C   UNL     1     140.532  71.332 225.872 -0.54 -0.01    +0.071 A  
DOCKED: ATOM     18  C   UNL     1     140.205  69.990 226.054 -0.51 -0.00    +0.000 A  
DOCKED: ATOM     19  C   UNL     1     141.032  72.061 226.935 -0.73 -0.01    +0.029 A  
DOCKED: ATOM     20  C   UNL     1     140.380  69.396 227.282 -0.59 -0.00    +0.010 A  
DOCKED: ATOM     21  C   UNL     1     141.191  71.436 228.136 -0.74 -0.00    +0.002 A  
DOCKED: ATOM     22  C   UNL     1     140.873  70.107 228.335 -0.57 -0.00    +0.001 A  
DOCKED: ENDBRANCH  10  13
DOCKED: ENDBRANCH   8   9
DOCKED: ENDBRANCH   6   8
DOCKED: ENDBRANCH   1   6
DOCKED: BRANCH   5  23
DOCKED: ATOM     23  C   UNL     1     141.469  76.554 219.136 -0.16 -0.03    +0.067 C  
DOCKED: BRANCH  23  24
DOCKED: ATOM     24  C   UNL     1     141.727  78.017 219.544 -0.18 -0.13    +0.231 C  
DOCKED: BRANCH  24  25
DOCKED: ATOM     25  O   UNL     1     140.949  78.348 220.677 -0.04 +0.21    -0.494 OA 
DOCKED: BRANCH  25  26
DOCKED: ATOM     26  C   UNL     1     141.486  78.989 221.786 -0.34 -0.05    +0.119 A  
DOCKED: ATOM     27  C   UNL     1     141.287  78.410 223.023 -0.50 -0.02    +0.046 A  
DOCKED: ATOM     28  C   UNL     1     142.195  80.170 221.631 -0.43 -0.02    +0.046 A  
DOCKED: ATOM     29  C   UNL     1     141.809  79.020 224.161 -0.58 -0.00    +0.004 A  
DOCKED: ATOM     30  C   UNL     1     142.706  80.761 222.773 -0.56 -0.00    +0.004 A  
DOCKED: ATOM     31  C   UNL     1     142.525  80.209 224.027 -0.59 -0.00    +0.000 A  
DOCKED: ENDBRANCH  25  26
DOCKED: ENDBRANCH  24  25
DOCKED: ENDBRANCH  23  24
DOCKED: ENDBRANCH   5  23
DOCKED: BRANCH   3  32
DOCKED: ATOM     32  O   UNL     1     145.324  73.763 220.007 -0.29 +0.06    -0.391 OA 
DOCKED: ATOM     33  H   UNL     1     145.774  74.343 219.317 -0.39 -0.09    +0.211 HD 
DOCKED: ENDBRANCH   3  32
DOCKED: TORSDOF 9
DOCKED: TER
DOCKED: ENDMDL
________________________________________________________________________________


    FINAL DOCKED STATE:
    ________________________


Run:   11 / 20
Time taken for this run:   0.040s

DOCKED: MODEL        11
DOCKED: USER    Run = 11
DOCKED: USER
DOCKED: USER    Estimated Free Energy of Binding    =  -9.10 kcal/mol  [=(1)+(2)+(3)-(4)]
DOCKED: USER
DOCKED: USER    (1) Final Intermolecular Energy     = -11.78 kcal/mol
DOCKED: USER        vdW + Hbond + desolv Energy     = -11.67 kcal/mol
DOCKED: USER        Electrostatic Energy            =  -0.11 kcal/mol
DOCKED: USER        Moving Ligand-Fixed Receptor    = -11.78 kcal/mol
DOCKED: USER        Moving Ligand-Moving Receptor   =  +0.00 kcal/mol
DOCKED: USER    (2) Final Total Internal Energy     =  -1.51 kcal/mol
DOCKED: USER    (3) Torsional Free Energy           =  +2.68 kcal/mol
DOCKED: USER    (4) Unbound System's Energy         =  -1.51 kcal/mol
DOCKED: USER
DOCKED: USER
DOCKED: REMARK SMILES O=C(NCC(=O)N1C[C@@H](O)C[C@H]1CCOc1ccccc1)c1ccc2ccccc2n1
DOCKED: REMARK SMILES IDX 7 1 8 2 9 3 11 4 12 5 5 6 6 7 4 8 3 9 2 10 1 11 22 13 23 14
DOCKED: REMARK SMILES IDX 31 15 24 16 30 17 25 18 29 19 26 20 28 21 27 22 13 23 14 24
DOCKED: REMARK SMILES IDX 15 25 16 26 17 27 21 28 18 29 20 30 19 31 10 32
DOCKED: REMARK H PARENT 3 12 10 33
DOCKED: USER                              x       y       z     vdW  Elec       q    Type
DOCKED: USER                           _______ _______ _______ _____ _____    ______ ____
DOCKED: ROOT
DOCKED: ATOM      1  N   UNL     1     141.941  75.322 220.704 -0.14 +0.14    -0.335 N  
DOCKED: ATOM      2  C   UNL     1     143.083  74.390 220.779 -0.15 -0.05    +0.151 C  
DOCKED: ATOM      3  C   UNL     1     144.082  74.862 219.750 -0.31 -0.06    +0.136 C  
DOCKED: ATOM      4  C   UNL     1     143.202  75.695 218.842 -0.29 -0.03    +0.059 C  
DOCKED: ATOM      5  C   UNL     1     142.396  76.439 219.920 -0.28 -0.05    +0.091 C  
DOCKED: ENDROOT
DOCKED: BRANCH   1   6
DOCKED: ATOM      6  C   UNL     1     140.716  75.023 221.331 -0.22 -0.05    +0.242 C  
DOCKED: ATOM      7  O   UNL     1     140.302  75.865 222.192 -0.45 +0.05    -0.273 OA 
DOCKED: BRANCH   6   8
DOCKED: ATOM      8  C   UNL     1     139.875  73.847 221.092 -0.16 -0.04    +0.216 C  
DOCKED: BRANCH   8   9
DOCKED: ATOM      9  N   UNL     1     139.796  73.081 222.338 -0.16 +0.05    -0.342 N  
DOCKED: ATOM     10  C   UNL     1     140.087  71.680 222.359 -0.20 -0.04    +0.270 C  
DOCKED: ATOM     11  O   UNL     1     140.424  71.049 221.309 -0.10 +0.04    -0.268 OA 
DOCKED: ATOM     12  H   UNL     1     139.529  73.503 223.248 -0.47 -0.05    +0.164 HD 
DOCKED: BRANCH  10  13
DOCKED: ATOM     13  C   UNL     1     139.994  70.946 223.640 -0.30 -0.02    +0.128 A  
DOCKED: ATOM     14  C   UNL     1     139.463  69.674 223.653 -0.25 -0.01    +0.035 A  
DOCKED: ATOM     15  N   UNL     1     140.415  71.484 224.798 -0.31 +0.04    -0.243 NA 
DOCKED: ATOM     16  C   UNL     1     139.379  68.995 224.851 -0.38 -0.00    +0.013 A  
DOCKED: ATOM     17  C   UNL     1     140.352  70.860 225.975 -0.53 -0.01    +0.071 A  
DOCKED: ATOM     18  C   UNL     1     139.821  69.573 226.031 -0.48 -0.00    +0.000 A  
DOCKED: ATOM     19  C   UNL     1     140.800  71.461 227.137 -0.73 -0.01    +0.029 A  
DOCKED: ATOM     20  C   UNL     1     139.743  68.907 227.231 -0.58 -0.00    +0.010 A  
DOCKED: ATOM     21  C   UNL     1     140.707  70.769 228.307 -0.62 -0.00    +0.002 A  
DOCKED: ATOM     22  C   UNL     1     140.183  69.493 228.381 -0.61 -0.00    +0.001 A  
DOCKED: ENDBRANCH  10  13
DOCKED: ENDBRANCH   8   9
DOCKED: ENDBRANCH   6   8
DOCKED: ENDBRANCH   1   6
DOCKED: BRANCH   5  23
DOCKED: ATOM     23  C   UNL     1     141.335  77.291 219.319 -0.19 -0.03    +0.067 C  
DOCKED: BRANCH  23  24
DOCKED: ATOM     24  C   UNL     1     141.421  78.649 220.040 -0.18 -0.12    +0.231 C  
DOCKED: BRANCH  24  25
DOCKED: ATOM     25  O   UNL     1     141.276  78.466 221.434 -0.08 +0.23    -0.494 OA 
DOCKED: BRANCH  25  26
DOCKED: ATOM     26  C   UNL     1     141.669  79.430 222.355 -0.42 -0.05    +0.119 A  
DOCKED: ATOM     27  C   UNL     1     140.693  80.252 222.882 -0.40 -0.01    +0.046 A  
DOCKED: ATOM     28  C   UNL     1     143.002  79.543 222.717 -0.51 -0.02    +0.046 A  
DOCKED: ATOM     29  C   UNL     1     141.044  81.231 223.808 -0.42 -0.00    +0.004 A  
DOCKED: ATOM     30  C   UNL     1     143.331  80.522 223.638 -0.64 -0.00    +0.004 A  
DOCKED: ATOM     31  C   UNL     1     142.380  81.362 224.186 -0.60 -0.00    +0.000 A  
DOCKED: ENDBRANCH  25  26
DOCKED: ENDBRANCH  24  25
DOCKED: ENDBRANCH  23  24
DOCKED: ENDBRANCH   5  23
DOCKED: BRANCH   3  32
DOCKED: ATOM     32  O   UNL     1     144.687  73.811 219.078 -0.13 +0.08    -0.391 OA 
DOCKED: ATOM     33  H   UNL     1     145.391  74.233 218.495 -0.41 -0.08    +0.211 HD 
DOCKED: ENDBRANCH   3  32
DOCKED: TORSDOF 9
DOCKED: TER
DOCKED: ENDMDL
________________________________________________________________________________


    FINAL DOCKED STATE:
    ________________________


Run:   12 / 20
Time taken for this run:   0.040s

DOCKED: MODEL        12
DOCKED: USER    Run = 12
DOCKED: USER
DOCKED: USER    Estimated Free Energy of Binding    =  -8.38 kcal/mol  [=(1)+(2)+(3)-(4)]
DOCKED: USER
DOCKED: USER    (1) Final Intermolecular Energy     = -11.07 kcal/mol
DOCKED: USER        vdW + Hbond + desolv Energy     = -10.95 kcal/mol
DOCKED: USER        Electrostatic Energy            =  -0.12 kcal/mol
DOCKED: USER        Moving Ligand-Fixed Receptor    = -11.07 kcal/mol
DOCKED: USER        Moving Ligand-Moving Receptor   =  +0.00 kcal/mol
DOCKED: USER    (2) Final Total Internal Energy     =  -1.58 kcal/mol
DOCKED: USER    (3) Torsional Free Energy           =  +2.68 kcal/mol
DOCKED: USER    (4) Unbound System's Energy         =  -1.58 kcal/mol
DOCKED: USER
DOCKED: USER
DOCKED: REMARK SMILES O=C(NCC(=O)N1C[C@@H](O)C[C@H]1CCOc1ccccc1)c1ccc2ccccc2n1
DOCKED: REMARK SMILES IDX 7 1 8 2 9 3 11 4 12 5 5 6 6 7 4 8 3 9 2 10 1 11 22 13 23 14
DOCKED: REMARK SMILES IDX 31 15 24 16 30 17 25 18 29 19 26 20 28 21 27 22 13 23 14 24
DOCKED: REMARK SMILES IDX 15 25 16 26 17 27 21 28 18 29 20 30 19 31 10 32
DOCKED: REMARK H PARENT 3 12 10 33
DOCKED: USER                              x       y       z     vdW  Elec       q    Type
DOCKED: USER                           _______ _______ _______ _____ _____    ______ ____
DOCKED: ROOT
DOCKED: ATOM      1  N   UNL     1     138.837  74.652 221.542 -0.11 +0.08    -0.335 N  
DOCKED: ATOM      2  C   UNL     1     140.175  74.177 221.140 -0.21 -0.03    +0.151 C  
DOCKED: ATOM      3  C   UNL     1     141.152  75.238 221.588 -0.27 -0.03    +0.136 C  
DOCKED: ATOM      4  C   UNL     1     140.240  76.438 221.737 -0.33 -0.02    +0.059 C  
DOCKED: ATOM      5  C   UNL     1     139.064  75.748 222.446 -0.23 -0.02    +0.091 C  
DOCKED: ENDROOT
DOCKED: BRANCH   1   6
DOCKED: ATOM      6  C   UNL     1     137.669  74.043 221.044 -0.07 -0.06    +0.242 C  
DOCKED: ATOM      7  O   UNL     1     136.992  74.720 220.204 -0.02 +0.05    -0.273 OA 
DOCKED: BRANCH   6   8
DOCKED: ATOM      8  C   UNL     1     137.157  72.716 221.395 -0.06 -0.05    +0.216 C  
DOCKED: BRANCH   8   9
DOCKED: ATOM      9  N   UNL     1     137.764  72.313 222.666 -0.06 +0.11    -0.342 N  
DOCKED: ATOM     10  C   UNL     1     138.875  71.412 222.696 -0.16 -0.06    +0.270 C  
DOCKED: ATOM     11  O   UNL     1     139.376  70.928 221.633 -0.09 +0.05    -0.268 OA 
DOCKED: ATOM     12  H   UNL     1     137.428  72.651 223.588 -0.50 -0.09    +0.164 HD 
DOCKED: BRANCH  10  13
DOCKED: ATOM     13  C   UNL     1     139.457  71.032 224.002 -0.32 -0.03    +0.128 A  
DOCKED: ATOM     14  C   UNL     1     140.343  71.888 224.622 -0.35 -0.01    +0.035 A  
DOCKED: ATOM     15  N   UNL     1     139.147  69.872 224.607 -0.19 +0.04    -0.243 NA 
DOCKED: ATOM     16  C   UNL     1     140.882  71.528 225.840 -0.62 -0.00    +0.013 A  
DOCKED: ATOM     17  C   UNL     1     139.645  69.488 225.783 -0.41 -0.01    +0.071 A  
DOCKED: ATOM     18  C   UNL     1     140.544  70.325 226.441 -0.57 -0.00    +0.000 A  
DOCKED: ATOM     19  C   UNL     1     139.291  68.283 226.360 -0.53 -0.00    +0.029 A  
DOCKED: ATOM     20  C   UNL     1     141.074  69.955 227.655 -0.58 -0.00    +0.010 A  
DOCKED: ATOM     21  C   UNL     1     139.837  67.951 227.564 -0.54 -0.00    +0.002 A  
DOCKED: ATOM     22  C   UNL     1     140.730  68.768 228.231 -0.66 -0.00    +0.001 A  
DOCKED: ENDBRANCH  10  13
DOCKED: ENDBRANCH   8   9
DOCKED: ENDBRANCH   6   8
DOCKED: ENDBRANCH   1   6
DOCKED: BRANCH   5  23
DOCKED: ATOM     23  C   UNL     1     137.921  76.679 222.644 -0.27 -0.01    +0.067 C  
DOCKED: BRANCH  23  24
DOCKED: ATOM     24  C   UNL     1     138.448  78.082 222.288 -0.17 -0.04    +0.231 C  
DOCKED: BRANCH  24  25
DOCKED: ATOM     25  O   UNL     1     139.023  78.686 223.429 -0.11 +0.07    -0.494 OA 
DOCKED: BRANCH  25  26
DOCKED: ATOM     26  C   UNL     1     140.180  79.452 223.361 -0.38 -0.02    +0.119 A  
DOCKED: ATOM     27  C   UNL     1     141.391  78.803 223.499 -0.55 -0.01    +0.046 A  
DOCKED: ATOM     28  C   UNL     1     140.097  80.821 223.160 -0.38 -0.01    +0.046 A  
DOCKED: ATOM     29  C   UNL     1     142.575  79.533 223.437 -0.60 -0.00    +0.004 A  
DOCKED: ATOM     30  C   UNL     1     141.285  81.529 223.102 -0.46 -0.00    +0.004 A  
DOCKED: ATOM     31  C   UNL     1     142.513  80.912 223.236 -0.63 -0.00    +0.000 A  
DOCKED: ENDBRANCH  25  26
DOCKED: ENDBRANCH  24  25
DOCKED: ENDBRANCH  23  24
DOCKED: ENDBRANCH   5  23
DOCKED: BRANCH   3  32
DOCKED: ATOM     32  O   UNL     1     142.161  75.454 220.661 -0.15 +0.18    -0.391 OA 
DOCKED: ATOM     33  H   UNL     1     142.756  76.156 221.070 -0.39 -0.19    +0.211 HD 
DOCKED: ENDBRANCH   3  32
DOCKED: TORSDOF 9
DOCKED: TER
DOCKED: ENDMDL
________________________________________________________________________________


    FINAL DOCKED STATE:
    ________________________


Run:   13 / 20
Time taken for this run:   0.040s

DOCKED: MODEL        13
DOCKED: USER    Run = 13
DOCKED: USER
DOCKED: USER    Estimated Free Energy of Binding    =  -5.78 kcal/mol  [=(1)+(2)+(3)-(4)]
DOCKED: USER
DOCKED: USER    (1) Final Intermolecular Energy     =  -8.46 kcal/mol
DOCKED: USER        vdW + Hbond + desolv Energy     =  -8.18 kcal/mol
DOCKED: USER        Electrostatic Energy            =  -0.28 kcal/mol
DOCKED: USER        Moving Ligand-Fixed Receptor    =  -8.46 kcal/mol
DOCKED: USER        Moving Ligand-Moving Receptor   =  +0.00 kcal/mol
DOCKED: USER    (2) Final Total Internal Energy     =  -3.89 kcal/mol
DOCKED: USER    (3) Torsional Free Energy           =  +2.68 kcal/mol
DOCKED: USER    (4) Unbound System's Energy         =  -3.89 kcal/mol
DOCKED: USER
DOCKED: USER
DOCKED: REMARK SMILES O=C(NCC(=O)N1C[C@@H](O)C[C@H]1CCOc1ccccc1)c1ccc2ccccc2n1
DOCKED: REMARK SMILES IDX 7 1 8 2 9 3 11 4 12 5 5 6 6 7 4 8 3 9 2 10 1 11 22 13 23 14
DOCKED: REMARK SMILES IDX 31 15 24 16 30 17 25 18 29 19 26 20 28 21 27 22 13 23 14 24
DOCKED: REMARK SMILES IDX 15 25 16 26 17 27 21 28 18 29 20 30 19 31 10 32
DOCKED: REMARK H PARENT 3 12 10 33
DOCKED: USER                              x       y       z     vdW  Elec       q    Type
DOCKED: USER                           _______ _______ _______ _____ _____    ______ ____
DOCKED: ROOT
DOCKED: ATOM      1  N   UNL     1     142.814  73.503 218.912 -0.02 +0.07    -0.335 N  
DOCKED: ATOM      2  C   UNL     1     144.014  72.770 218.465 -0.12 -0.01    +0.151 C  
DOCKED: ATOM      3  C   UNL     1     145.047  72.947 219.552 -0.32 +0.01    +0.136 C  
DOCKED: ATOM      4  C   UNL     1     144.522  74.176 220.264 -0.44 -0.02    +0.059 C  
DOCKED: ATOM      5  C   UNL     1     143.031  73.801 220.303 -0.27 -0.02    +0.091 C  
DOCKED: ENDROOT
DOCKED: BRANCH   1   6
DOCKED: ATOM      6  C   UNL     1     141.755  73.776 218.026 -0.01 -0.06    +0.242 C  
DOCKED: ATOM      7  O   UNL     1     140.917  72.836 217.839 -0.00 +0.06    -0.273 OA 
DOCKED: BRANCH   6   8
DOCKED: ATOM      8  C   UNL     1     141.523  75.028 217.299 -0.02 -0.07    +0.216 C  
DOCKED: BRANCH   8   9
DOCKED: ATOM      9  N   UNL     1     141.387  76.107 218.280 -0.01 +0.13    -0.342 N  
DOCKED: ATOM     10  C   UNL     1     142.342  77.172 218.337 -0.18 -0.16    +0.270 C  
DOCKED: ATOM     11  O   UNL     1     143.336  77.225 217.548 -0.24 +0.21    -0.268 OA 
DOCKED: ATOM     12  H   UNL     1     140.612  76.154 218.969 +0.04 -0.05    +0.164 HD 
DOCKED: BRANCH  10  13
DOCKED: ATOM     13  C   UNL     1     142.166  78.242 219.344 -0.22 -0.09    +0.128 A  
DOCKED: ATOM     14  C   UNL     1     142.097  79.555 218.930 -0.29 -0.02    +0.035 A  
DOCKED: ATOM     15  N   UNL     1     142.069  77.971 220.657 -0.17 +0.17    -0.243 NA 
DOCKED: ATOM     16  C   UNL     1     141.932  80.547 219.874 -0.30 -0.01    +0.013 A  
DOCKED: ATOM     17  C   UNL     1     141.909  78.901 221.600 -0.36 -0.04    +0.071 A  
DOCKED: ATOM     18  C   UNL     1     141.836  80.240 221.222 -0.40 -0.00    +0.000 A  
DOCKED: ATOM     19  C   UNL     1     141.815  78.566 222.938 -0.49 -0.01    +0.029 A  
DOCKED: ATOM     20  C   UNL     1     141.671  81.220 222.173 -0.47 -0.00    +0.010 A  
DOCKED: ATOM     21  C   UNL     1     141.653  79.565 223.850 -0.61 -0.00    +0.002 A  
DOCKED: ATOM     22  C   UNL     1     141.578  80.898 223.495 -0.57 -0.00    +0.001 A  
DOCKED: ENDBRANCH  10  13
DOCKED: ENDBRANCH   8   9
DOCKED: ENDBRANCH   6   8
DOCKED: ENDBRANCH   1   6
DOCKED: BRANCH   5  23
DOCKED: ATOM     23  C   UNL     1     142.205  74.899 220.873 -0.23 -0.02    +0.067 C  
DOCKED: BRANCH  23  24
DOCKED: ATOM     24  C   UNL     1     140.836  74.276 221.201 -0.21 -0.04    +0.231 C  
DOCKED: BRANCH  24  25
DOCKED: ATOM     25  O   UNL     1     139.809  74.988 220.539 -0.03 +0.11    -0.494 OA 
DOCKED: BRANCH  25  26
DOCKED: ATOM     26  C   UNL     1     139.303  76.186 221.026 -0.15 -0.03    +0.119 A  
DOCKED: ATOM     27  C   UNL     1     138.945  77.154 220.108 -0.07 -0.01    +0.046 A  
DOCKED: ATOM     28  C   UNL     1     139.169  76.380 222.392 -0.31 -0.01    +0.046 A  
DOCKED: ATOM     29  C   UNL     1     138.433  78.369 220.555 -0.08 -0.00    +0.004 A  
DOCKED: ATOM     30  C   UNL     1     138.658  77.594 222.815 -0.26 -0.00    +0.004 A  
DOCKED: ATOM     31  C   UNL     1     138.291  78.585 221.925 -0.19 -0.00    +0.000 A  
DOCKED: ENDBRANCH  25  26
DOCKED: ENDBRANCH  24  25
DOCKED: ENDBRANCH  23  24
DOCKED: ENDBRANCH   5  23
DOCKED: BRANCH   3  32
DOCKED: ATOM     32  O   UNL     1     146.323  73.138 219.044 -0.70 -0.35    -0.391 OA 
DOCKED: ATOM     33  H   UNL     1     146.395  74.125 218.859 -0.48 -0.02    +0.211 HD 
DOCKED: ENDBRANCH   3  32
DOCKED: TORSDOF 9
DOCKED: TER
DOCKED: ENDMDL
________________________________________________________________________________


    FINAL DOCKED STATE:
    ________________________


Run:   14 / 20
Time taken for this run:   0.040s

DOCKED: MODEL        14
DOCKED: USER    Run = 14
DOCKED: USER
DOCKED: USER    Estimated Free Energy of Binding    =  -8.78 kcal/mol  [=(1)+(2)+(3)-(4)]
DOCKED: USER
DOCKED: USER    (1) Final Intermolecular Energy     = -11.46 kcal/mol
DOCKED: USER        vdW + Hbond + desolv Energy     = -11.35 kcal/mol
DOCKED: USER        Electrostatic Energy            =  -0.12 kcal/mol
DOCKED: USER        Moving Ligand-Fixed Receptor    = -11.46 kcal/mol
DOCKED: USER        Moving Ligand-Moving Receptor   =  +0.00 kcal/mol
DOCKED: USER    (2) Final Total Internal Energy     =  -1.70 kcal/mol
DOCKED: USER    (3) Torsional Free Energy           =  +2.68 kcal/mol
DOCKED: USER    (4) Unbound System's Energy         =  -1.70 kcal/mol
DOCKED: USER
DOCKED: USER
DOCKED: REMARK SMILES O=C(NCC(=O)N1C[C@@H](O)C[C@H]1CCOc1ccccc1)c1ccc2ccccc2n1
DOCKED: REMARK SMILES IDX 7 1 8 2 9 3 11 4 12 5 5 6 6 7 4 8 3 9 2 10 1 11 22 13 23 14
DOCKED: REMARK SMILES IDX 31 15 24 16 30 17 25 18 29 19 26 20 28 21 27 22 13 23 14 24
DOCKED: REMARK SMILES IDX 15 25 16 26 17 27 21 28 18 29 20 30 19 31 10 32
DOCKED: REMARK H PARENT 3 12 10 33
DOCKED: USER                              x       y       z     vdW  Elec       q    Type
DOCKED: USER                           _______ _______ _______ _____ _____    ______ ____
DOCKED: ROOT
DOCKED: ATOM      1  N   UNL     1     141.462  76.056 220.723 -0.13 +0.14    -0.335 N  
DOCKED: ATOM      2  C   UNL     1     142.585  75.475 219.962 -0.25 -0.07    +0.151 C  
DOCKED: ATOM      3  C   UNL     1     143.150  76.594 219.121 -0.30 -0.09    +0.136 C  
DOCKED: ATOM      4  C   UNL     1     141.985  77.562 219.094 -0.26 -0.03    +0.059 C  
DOCKED: ATOM      5  C   UNL     1     141.583  77.482 220.576 -0.26 -0.05    +0.091 C  
DOCKED: ENDROOT
DOCKED: BRANCH   1   6
DOCKED: ATOM      6  C   UNL     1     140.540  75.236 221.402 -0.23 -0.05    +0.242 C  
DOCKED: ATOM      7  O   UNL     1     139.979  75.743 222.426 -0.49 +0.04    -0.273 OA 
DOCKED: BRANCH   6   8
DOCKED: ATOM      8  C   UNL     1     140.167  73.863 221.050 -0.17 -0.04    +0.216 C  
DOCKED: BRANCH   8   9
DOCKED: ATOM      9  N   UNL     1     139.980  73.107 222.291 -0.16 +0.04    -0.342 N  
DOCKED: ATOM     10  C   UNL     1     140.357  71.729 222.374 -0.20 -0.03    +0.270 C  
DOCKED: ATOM     11  O   UNL     1     140.864  71.111 221.387 -0.11 +0.03    -0.268 OA 
DOCKED: ATOM     12  H   UNL     1     139.574  73.520 223.151 -0.48 -0.04    +0.164 HD 
DOCKED: BRANCH  10  13
DOCKED: ATOM     13  C   UNL     1     140.151  71.004 223.647 -0.30 -0.02    +0.128 A  
DOCKED: ATOM     14  C   UNL     1     139.504  69.786 223.635 -0.25 -0.01    +0.035 A  
DOCKED: ATOM     15  N   UNL     1     140.579  71.498 224.822 -0.32 +0.03    -0.243 NA 
DOCKED: ATOM     16  C   UNL     1     139.315  69.115 224.825 -0.38 -0.00    +0.013 A  
DOCKED: ATOM     17  C   UNL     1     140.416  70.880 225.993 -0.53 -0.01    +0.071 A  
DOCKED: ATOM     18  C   UNL     1     139.766  69.648 226.023 -0.48 -0.00    +0.000 A  
DOCKED: ATOM     19  C   UNL     1     140.876  71.435 227.173 -0.73 -0.01    +0.029 A  
DOCKED: ATOM     20  C   UNL     1     139.585  68.990 227.216 -0.57 -0.00    +0.010 A  
DOCKED: ATOM     21  C   UNL     1     140.677  70.752 228.335 -0.61 -0.00    +0.002 A  
DOCKED: ATOM     22  C   UNL     1     140.035  69.529 228.384 -0.61 -0.00    +0.001 A  
DOCKED: ENDBRANCH  10  13
DOCKED: ENDBRANCH   8   9
DOCKED: ENDBRANCH   6   8
DOCKED: ENDBRANCH   1   6
DOCKED: BRANCH   5  23
DOCKED: ATOM     23  C   UNL     1     140.356  78.275 220.854 -0.19 -0.02    +0.067 C  
DOCKED: BRANCH  23  24
DOCKED: ATOM     24  C   UNL     1     140.427  79.507 219.933 -0.10 -0.08    +0.231 C  
DOCKED: BRANCH  24  25
DOCKED: ATOM     25  O   UNL     1     140.593  80.680 220.705 -0.03 +0.15    -0.494 OA 
DOCKED: BRANCH  25  26
DOCKED: ATOM     26  C   UNL     1     141.350  80.702 221.869 -0.35 -0.03    +0.119 A  
DOCKED: ATOM     27  C   UNL     1     140.778  81.249 223.000 -0.41 -0.01    +0.046 A  
DOCKED: ATOM     28  C   UNL     1     142.637  80.184 221.872 -0.34 -0.02    +0.046 A  
DOCKED: ATOM     29  C   UNL     1     141.502  81.290 224.188 -0.33 -0.00    +0.004 A  
DOCKED: ATOM     30  C   UNL     1     143.341  80.235 223.062 -0.62 -0.00    +0.004 A  
DOCKED: ATOM     31  C   UNL     1     142.799  80.775 224.212 -0.61 -0.00    +0.000 A  
DOCKED: ENDBRANCH  25  26
DOCKED: ENDBRANCH  24  25
DOCKED: ENDBRANCH  23  24
DOCKED: ENDBRANCH   5  23
DOCKED: BRANCH   3  32
DOCKED: ATOM     32  O   UNL     1     143.512  76.171 217.851 -0.15 +0.23    -0.391 OA 
DOCKED: ATOM     33  H   UNL     1     144.500  75.983 217.901 -0.43 -0.16    +0.211 HD 
DOCKED: ENDBRANCH   3  32
DOCKED: TORSDOF 9
DOCKED: TER
DOCKED: ENDMDL
________________________________________________________________________________


    FINAL DOCKED STATE:
    ________________________


Run:   15 / 20
Time taken for this run:   0.040s

DOCKED: MODEL        15
DOCKED: USER    Run = 15
DOCKED: USER
DOCKED: USER    Estimated Free Energy of Binding    =  -8.32 kcal/mol  [=(1)+(2)+(3)-(4)]
DOCKED: USER
DOCKED: USER    (1) Final Intermolecular Energy     = -11.00 kcal/mol
DOCKED: USER        vdW + Hbond + desolv Energy     = -10.86 kcal/mol
DOCKED: USER        Electrostatic Energy            =  -0.14 kcal/mol
DOCKED: USER        Moving Ligand-Fixed Receptor    = -11.00 kcal/mol
DOCKED: USER        Moving Ligand-Moving Receptor   =  +0.00 kcal/mol
DOCKED: USER    (2) Final Total Internal Energy     =  -1.44 kcal/mol
DOCKED: USER    (3) Torsional Free Energy           =  +2.68 kcal/mol
DOCKED: USER    (4) Unbound System's Energy         =  -1.44 kcal/mol
DOCKED: USER
DOCKED: USER
DOCKED: REMARK SMILES O=C(NCC(=O)N1C[C@@H](O)C[C@H]1CCOc1ccccc1)c1ccc2ccccc2n1
DOCKED: REMARK SMILES IDX 7 1 8 2 9 3 11 4 12 5 5 6 6 7 4 8 3 9 2 10 1 11 22 13 23 14
DOCKED: REMARK SMILES IDX 31 15 24 16 30 17 25 18 29 19 26 20 28 21 27 22 13 23 14 24
DOCKED: REMARK SMILES IDX 15 25 16 26 17 27 21 28 18 29 20 30 19 31 10 32
DOCKED: REMARK H PARENT 3 12 10 33
DOCKED: USER                              x       y       z     vdW  Elec       q    Type
DOCKED: USER                           _______ _______ _______ _____ _____    ______ ____
DOCKED: ROOT
DOCKED: ATOM      1  N   UNL     1     137.365  75.121 221.510 -0.06 +0.08    -0.335 N  
DOCKED: ATOM      2  C   UNL     1     136.618  74.131 222.311 -0.12 -0.04    +0.151 C  
DOCKED: ATOM      3  C   UNL     1     135.839  74.919 223.337 -0.20 -0.03    +0.136 C  
DOCKED: ATOM      4  C   UNL     1     136.607  76.224 223.356 -0.18 -0.01    +0.059 C  
DOCKED: ATOM      5  C   UNL     1     136.798  76.402 221.841 -0.14 -0.02    +0.091 C  
DOCKED: ENDROOT
DOCKED: BRANCH   1   6
DOCKED: ATOM      6  C   UNL     1     138.400  74.723 220.642 -0.07 -0.05    +0.242 C  
DOCKED: ATOM      7  O   UNL     1     138.144  74.772 219.396 -0.01 +0.06    -0.273 OA 
DOCKED: BRANCH   6   8
DOCKED: ATOM      8  C   UNL     1     139.736  74.261 221.029 -0.16 -0.04    +0.216 C  
DOCKED: BRANCH   8   9
DOCKED: ATOM      9  N   UNL     1     139.608  73.471 222.257 -0.14 +0.06    -0.342 N  
DOCKED: ATOM     10  C   UNL     1     140.313  72.235 222.410 -0.21 -0.03    +0.270 C  
DOCKED: ATOM     11  O   UNL     1     141.071  71.776 221.499 -0.16 +0.03    -0.268 OA 
DOCKED: ATOM     12  H   UNL     1     139.014  73.758 223.057 -0.54 -0.09    +0.164 HD 
DOCKED: BRANCH  10  13
DOCKED: ATOM     13  C   UNL     1     140.155  71.469 223.667 -0.34 -0.02    +0.128 A  
DOCKED: ATOM     14  C   UNL     1     139.466  70.276 223.649 -0.29 -0.01    +0.035 A  
DOCKED: ATOM     15  N   UNL     1     140.667  71.904 224.831 -0.26 +0.03    -0.243 NA 
DOCKED: ATOM     16  C   UNL     1     139.323  69.567 224.824 -0.37 -0.00    +0.013 A  
DOCKED: ATOM     17  C   UNL     1     140.551  71.249 225.987 -0.55 -0.01    +0.071 A  
DOCKED: ATOM     18  C   UNL     1     139.861  70.039 226.011 -0.49 -0.00    +0.000 A  
DOCKED: ATOM     19  C   UNL     1     141.098  71.743 227.157 -0.76 -0.01    +0.029 A  
DOCKED: ATOM     20  C   UNL     1     139.725  69.342 227.189 -0.56 -0.00    +0.010 A  
DOCKED: ATOM     21  C   UNL     1     140.942  71.024 228.303 -0.66 -0.00    +0.002 A  
DOCKED: ATOM     22  C   UNL     1     140.261  69.822 228.347 -0.60 -0.00    +0.001 A  
DOCKED: ENDBRANCH  10  13
DOCKED: ENDBRANCH   8   9
DOCKED: ENDBRANCH   6   8
DOCKED: ENDBRANCH   1   6
DOCKED: BRANCH   5  23
DOCKED: ATOM     23  C   UNL     1     137.641  77.588 221.531 -0.13 -0.01    +0.067 C  
DOCKED: BRANCH  23  24
DOCKED: ATOM     24  C   UNL     1     138.391  77.929 222.833 -0.15 -0.04    +0.231 C  
DOCKED: BRANCH  24  25
DOCKED: ATOM     25  O   UNL     1     139.762  77.614 222.698 -0.13 +0.10    -0.494 OA 
DOCKED: BRANCH  25  26
DOCKED: ATOM     26  C   UNL     1     140.753  78.587 222.714 -0.38 -0.04    +0.119 A  
DOCKED: ATOM     27  C   UNL     1     141.165  79.108 221.504 -0.32 -0.02    +0.046 A  
DOCKED: ATOM     28  C   UNL     1     141.296  79.006 223.920 -0.53 -0.01    +0.046 A  
DOCKED: ATOM     29  C   UNL     1     142.156  80.085 221.476 -0.42 -0.00    +0.004 A  
DOCKED: ATOM     30  C   UNL     1     142.280  79.978 223.871 -0.62 -0.00    +0.004 A  
DOCKED: ATOM     31  C   UNL     1     142.716  80.521 222.678 -0.61 -0.00    +0.000 A  
DOCKED: ENDBRANCH  25  26
DOCKED: ENDBRANCH  24  25
DOCKED: ENDBRANCH  23  24
DOCKED: ENDBRANCH   5  23
DOCKED: BRANCH   3  32
DOCKED: ATOM     32  O   UNL     1     135.821  74.300 224.578 -0.18 +0.10    -0.391 OA 
DOCKED: ATOM     33  H   UNL     1     136.567  73.624 224.552 -0.50 -0.12    +0.211 HD 
DOCKED: ENDBRANCH   3  32
DOCKED: TORSDOF 9
DOCKED: TER
DOCKED: ENDMDL
________________________________________________________________________________


    FINAL DOCKED STATE:
    ________________________


Run:   16 / 20
Time taken for this run:   0.040s

DOCKED: MODEL        16
DOCKED: USER    Run = 16
DOCKED: USER
DOCKED: USER    Estimated Free Energy of Binding    =  -9.43 kcal/mol  [=(1)+(2)+(3)-(4)]
DOCKED: USER
DOCKED: USER    (1) Final Intermolecular Energy     = -12.11 kcal/mol
DOCKED: USER        vdW + Hbond + desolv Energy     = -11.80 kcal/mol
DOCKED: USER        Electrostatic Energy            =  -0.31 kcal/mol
DOCKED: USER        Moving Ligand-Fixed Receptor    = -12.11 kcal/mol
DOCKED: USER        Moving Ligand-Moving Receptor   =  +0.00 kcal/mol
DOCKED: USER    (2) Final Total Internal Energy     =  -1.30 kcal/mol
DOCKED: USER    (3) Torsional Free Energy           =  +2.68 kcal/mol
DOCKED: USER    (4) Unbound System's Energy         =  -1.30 kcal/mol
DOCKED: USER
DOCKED: USER
DOCKED: REMARK SMILES O=C(NCC(=O)N1C[C@@H](O)C[C@H]1CCOc1ccccc1)c1ccc2ccccc2n1
DOCKED: REMARK SMILES IDX 7 1 8 2 9 3 11 4 12 5 5 6 6 7 4 8 3 9 2 10 1 11 22 13 23 14
DOCKED: REMARK SMILES IDX 31 15 24 16 30 17 25 18 29 19 26 20 28 21 27 22 13 23 14 24
DOCKED: REMARK SMILES IDX 15 25 16 26 17 27 21 28 18 29 20 30 19 31 10 32
DOCKED: REMARK H PARENT 3 12 10 33
DOCKED: USER                              x       y       z     vdW  Elec       q    Type
DOCKED: USER                           _______ _______ _______ _____ _____    ______ ____
DOCKED: ROOT
DOCKED: ATOM      1  N   UNL     1     142.854  72.984 219.985 -0.07 +0.06    -0.335 N  
DOCKED: ATOM      2  C   UNL     1     144.202  72.397 220.107 -0.27 -0.01    +0.151 C  
DOCKED: ATOM      3  C   UNL     1     145.142  73.549 220.373 -0.47 -0.02    +0.136 C  
DOCKED: ATOM      4  C   UNL     1     144.326  74.720 219.868 -0.30 -0.03    +0.059 C  
DOCKED: ATOM      5  C   UNL     1     142.966  74.333 220.472 -0.29 -0.03    +0.091 C  
DOCKED: ENDROOT
DOCKED: BRANCH   1   6
DOCKED: ATOM      6  C   UNL     1     141.778  72.235 219.470 -0.05 -0.04    +0.242 C  
DOCKED: ATOM      7  O   UNL     1     142.044  71.460 218.495 -0.02 +0.04    -0.273 OA 
DOCKED: BRANCH   6   8
DOCKED: ATOM      8  C   UNL     1     140.391  72.260 219.941 -0.05 -0.04    +0.216 C  
DOCKED: BRANCH   8   9
DOCKED: ATOM      9  N   UNL     1     140.324  71.521 221.205 -0.06 +0.05    -0.342 N  
DOCKED: ATOM     10  C   UNL     1     140.154  72.208 222.448 -0.21 -0.04    +0.270 C  
DOCKED: ATOM     11  O   UNL     1     140.055  73.473 222.508 -0.76 +0.01    -0.268 OA 
DOCKED: ATOM     12  H   UNL     1     140.396  70.488 221.262 +0.04 -0.02    +0.164 HD 
DOCKED: BRANCH  10  13
DOCKED: ATOM     13  C   UNL     1     140.091  71.422 223.701 -0.34 -0.02    +0.128 A  
DOCKED: ATOM     14  C   UNL     1     139.499  70.178 223.689 -0.29 -0.01    +0.035 A  
DOCKED: ATOM     15  N   UNL     1     140.599  71.887 224.855 -0.27 +0.04    -0.243 NA 
DOCKED: ATOM     16  C   UNL     1     139.443  69.450 224.859 -0.38 -0.00    +0.013 A  
DOCKED: ATOM     17  C   UNL     1     140.566  71.215 226.007 -0.56 -0.01    +0.071 A  
DOCKED: ATOM     18  C   UNL     1     139.974  69.953 226.037 -0.50 -0.00    +0.000 A  
DOCKED: ATOM     19  C   UNL     1     141.104  71.741 227.167 -0.76 -0.01    +0.029 A  
DOCKED: ATOM     20  C   UNL     1     139.927  69.238 227.210 -0.58 -0.00    +0.010 A  
DOCKED: ATOM     21  C   UNL     1     141.037  71.002 228.310 -0.66 -0.00    +0.002 A  
DOCKED: ATOM     22  C   UNL     1     140.455  69.750 228.358 -0.58 -0.00    +0.001 A  
DOCKED: ENDBRANCH  10  13
DOCKED: ENDBRANCH   8   9
DOCKED: ENDBRANCH   6   8
DOCKED: ENDBRANCH   1   6
DOCKED: BRANCH   5  23
DOCKED: ATOM     23  C   UNL     1     141.893  75.272 220.050 -0.24 -0.03    +0.067 C  
DOCKED: BRANCH  23  24
DOCKED: ATOM     24  C   UNL     1     142.525  76.676 220.064 -0.18 -0.15    +0.231 C  
DOCKED: BRANCH  24  25
DOCKED: ATOM     25  O   UNL     1     141.558  77.638 220.438 -0.08 +0.27    -0.494 OA 
DOCKED: BRANCH  25  26
DOCKED: ATOM     26  C   UNL     1     141.702  78.437 221.565 -0.31 -0.07    +0.119 A  
DOCKED: ATOM     27  C   UNL     1     142.155  79.729 221.386 -0.34 -0.02    +0.046 A  
DOCKED: ATOM     28  C   UNL     1     141.394  77.931 222.819 -0.41 -0.02    +0.046 A  
DOCKED: ATOM     29  C   UNL     1     142.312  80.562 222.489 -0.57 -0.00    +0.004 A  
DOCKED: ATOM     30  C   UNL     1     141.558  78.776 223.903 -0.58 -0.00    +0.004 A  
DOCKED: ATOM     31  C   UNL     1     142.009  80.073 223.760 -0.63 -0.00    +0.000 A  
DOCKED: ENDBRANCH  25  26
DOCKED: ENDBRANCH  24  25
DOCKED: ENDBRANCH  23  24
DOCKED: ENDBRANCH   5  23
DOCKED: BRANCH   3  32
DOCKED: ATOM     32  O   UNL     1     146.346  73.416 219.698 -0.57 -0.16    -0.391 OA 
DOCKED: ATOM     33  H   UNL     1     146.567  74.336 219.356 -0.47 -0.05    +0.211 HD 
DOCKED: ENDBRANCH   3  32
DOCKED: TORSDOF 9
DOCKED: TER
DOCKED: ENDMDL
________________________________________________________________________________


    FINAL DOCKED STATE:
    ________________________


Run:   17 / 20
Time taken for this run:   0.040s

DOCKED: MODEL        17
DOCKED: USER    Run = 17
DOCKED: USER
DOCKED: USER    Estimated Free Energy of Binding    =  -8.86 kcal/mol  [=(1)+(2)+(3)-(4)]
DOCKED: USER
DOCKED: USER    (1) Final Intermolecular Energy     = -11.55 kcal/mol
DOCKED: USER        vdW + Hbond + desolv Energy     = -11.41 kcal/mol
DOCKED: USER        Electrostatic Energy            =  -0.13 kcal/mol
DOCKED: USER        Moving Ligand-Fixed Receptor    = -11.55 kcal/mol
DOCKED: USER        Moving Ligand-Moving Receptor   =  +0.00 kcal/mol
DOCKED: USER    (2) Final Total Internal Energy     =  -1.87 kcal/mol
DOCKED: USER    (3) Torsional Free Energy           =  +2.68 kcal/mol
DOCKED: USER    (4) Unbound System's Energy         =  -1.87 kcal/mol
DOCKED: USER
DOCKED: USER
DOCKED: REMARK SMILES O=C(NCC(=O)N1C[C@@H](O)C[C@H]1CCOc1ccccc1)c1ccc2ccccc2n1
DOCKED: REMARK SMILES IDX 7 1 8 2 9 3 11 4 12 5 5 6 6 7 4 8 3 9 2 10 1 11 22 13 23 14
DOCKED: REMARK SMILES IDX 31 15 24 16 30 17 25 18 29 19 26 20 28 21 27 22 13 23 14 24
DOCKED: REMARK SMILES IDX 15 25 16 26 17 27 21 28 18 29 20 30 19 31 10 32
DOCKED: REMARK H PARENT 3 12 10 33
DOCKED: USER                              x       y       z     vdW  Elec       q    Type
DOCKED: USER                           _______ _______ _______ _____ _____    ______ ____
DOCKED: ROOT
DOCKED: ATOM      1  N   UNL     1     141.535  76.120 220.372 -0.11 +0.15    -0.335 N  
DOCKED: ATOM      2  C   UNL     1     142.791  75.508 219.897 -0.26 -0.08    +0.151 C  
DOCKED: ATOM      3  C   UNL     1     143.265  76.357 218.742 -0.28 -0.08    +0.136 C  
DOCKED: ATOM      4  C   UNL     1     141.983  77.058 218.343 -0.21 -0.03    +0.059 C  
DOCKED: ATOM      5  C   UNL     1     141.468  77.414 219.747 -0.22 -0.05    +0.091 C  
DOCKED: ENDROOT
DOCKED: BRANCH   1   6
DOCKED: ATOM      6  C   UNL     1     140.681  75.436 221.259 -0.22 -0.06    +0.242 C  
DOCKED: ATOM      7  O   UNL     1     140.510  75.969 222.402 -0.42 +0.05    -0.273 OA 
DOCKED: BRANCH   6   8
DOCKED: ATOM      8  C   UNL     1     139.976  74.178 220.998 -0.16 -0.04    +0.216 C  
DOCKED: BRANCH   8   9
DOCKED: ATOM      9  N   UNL     1     139.899  73.428 222.254 -0.14 +0.04    -0.342 N  
DOCKED: ATOM     10  C   UNL     1     140.237  72.039 222.301 -0.20 -0.04    +0.270 C  
DOCKED: ATOM     11  O   UNL     1     140.615  71.404 221.268 -0.12 +0.04    -0.268 OA 
DOCKED: ATOM     12  H   UNL     1     139.600  73.854 223.152 -0.49 -0.02    +0.164 HD 
DOCKED: BRANCH  10  13
DOCKED: ATOM     13  C   UNL     1     140.144  71.320 223.592 -0.32 -0.02    +0.128 A  
DOCKED: ATOM     14  C   UNL     1     139.567  70.069 223.629 -0.28 -0.01    +0.035 A  
DOCKED: ATOM     15  N   UNL     1     140.610  71.853 224.735 -0.27 +0.03    -0.243 NA 
DOCKED: ATOM     16  C   UNL     1     139.483  69.405 224.835 -0.37 -0.00    +0.013 A  
DOCKED: ATOM     17  C   UNL     1     140.549  71.243 225.920 -0.55 -0.01    +0.071 A  
DOCKED: ATOM     18  C   UNL     1     139.972  69.978 226.000 -0.50 -0.00    +0.000 A  
DOCKED: ATOM     19  C   UNL     1     141.045  71.838 227.065 -0.77 -0.01    +0.029 A  
DOCKED: ATOM     20  C   UNL     1     139.896  69.326 227.208 -0.58 -0.00    +0.010 A  
DOCKED: ATOM     21  C   UNL     1     140.951  71.161 228.244 -0.70 -0.00    +0.002 A  
DOCKED: ATOM     22  C   UNL     1     140.381  69.905 228.342 -0.59 -0.00    +0.001 A  
DOCKED: ENDBRANCH  10  13
DOCKED: ENDBRANCH   8   9
DOCKED: ENDBRANCH   6   8
DOCKED: ENDBRANCH   1   6
DOCKED: BRANCH   5  23
DOCKED: ATOM     23  C   UNL     1     140.121  78.044 219.692 -0.10 -0.02    +0.067 C  
DOCKED: BRANCH  23  24
DOCKED: ATOM     24  C   UNL     1     140.364  79.565 219.664 -0.08 -0.08    +0.231 C  
DOCKED: BRANCH  24  25
DOCKED: ATOM     25  O   UNL     1     140.007  80.135 220.908 +0.00 +0.13    -0.494 OA 
DOCKED: BRANCH  25  26
DOCKED: ATOM     26  C   UNL     1     140.873  80.152 221.994 -0.29 -0.03    +0.119 A  
DOCKED: ATOM     27  C   UNL     1     140.968  79.007 222.760 -0.44 -0.01    +0.046 A  
DOCKED: ATOM     28  C   UNL     1     141.608  81.292 222.279 -0.45 -0.01    +0.046 A  
DOCKED: ATOM     29  C   UNL     1     141.825  78.982 223.857 -0.63 -0.00    +0.004 A  
DOCKED: ATOM     30  C   UNL     1     142.453  81.247 223.373 -0.55 -0.00    +0.004 A  
DOCKED: ATOM     31  C   UNL     1     142.573  80.119 224.161 -0.53 -0.00    +0.000 A  
DOCKED: ENDBRANCH  25  26
DOCKED: ENDBRANCH  24  25
DOCKED: ENDBRANCH  23  24
DOCKED: ENDBRANCH   5  23
DOCKED: BRANCH   3  32
DOCKED: ATOM     32  O   UNL     1     143.794  75.598 217.709 -0.11 +0.21    -0.391 OA 
DOCKED: ATOM     33  H   UNL     1     144.794  75.669 217.807 -0.47 -0.18    +0.211 HD 
DOCKED: ENDBRANCH   3  32
DOCKED: TORSDOF 9
DOCKED: TER
DOCKED: ENDMDL
________________________________________________________________________________


    FINAL DOCKED STATE:
    ________________________


Run:   18 / 20
Time taken for this run:   0.040s

DOCKED: MODEL        18
DOCKED: USER    Run = 18
DOCKED: USER
DOCKED: USER    Estimated Free Energy of Binding    =  -9.36 kcal/mol  [=(1)+(2)+(3)-(4)]
DOCKED: USER
DOCKED: USER    (1) Final Intermolecular Energy     = -12.05 kcal/mol
DOCKED: USER        vdW + Hbond + desolv Energy     = -11.80 kcal/mol
DOCKED: USER        Electrostatic Energy            =  -0.25 kcal/mol
DOCKED: USER        Moving Ligand-Fixed Receptor    = -12.05 kcal/mol
DOCKED: USER        Moving Ligand-Moving Receptor   =  +0.00 kcal/mol
DOCKED: USER    (2) Final Total Internal Energy     =  -1.36 kcal/mol
DOCKED: USER    (3) Torsional Free Energy           =  +2.68 kcal/mol
DOCKED: USER    (4) Unbound System's Energy         =  -1.36 kcal/mol
DOCKED: USER
DOCKED: USER
DOCKED: REMARK SMILES O=C(NCC(=O)N1C[C@@H](O)C[C@H]1CCOc1ccccc1)c1ccc2ccccc2n1
DOCKED: REMARK SMILES IDX 7 1 8 2 9 3 11 4 12 5 5 6 6 7 4 8 3 9 2 10 1 11 22 13 23 14
DOCKED: REMARK SMILES IDX 31 15 24 16 30 17 25 18 29 19 26 20 28 21 27 22 13 23 14 24
DOCKED: REMARK SMILES IDX 15 25 16 26 17 27 21 28 18 29 20 30 19 31 10 32
DOCKED: REMARK H PARENT 3 12 10 33
DOCKED: USER                              x       y       z     vdW  Elec       q    Type
DOCKED: USER                           _______ _______ _______ _____ _____    ______ ____
DOCKED: ROOT
DOCKED: ATOM      1  N   UNL     1     142.835  72.906 219.940 -0.07 +0.06    -0.335 N  
DOCKED: ATOM      2  C   UNL     1     144.197  72.359 220.097 -0.27 -0.01    +0.151 C  
DOCKED: ATOM      3  C   UNL     1     145.103  73.543 220.335 -0.46 -0.02    +0.136 C  
DOCKED: ATOM      4  C   UNL     1     144.263  74.675 219.783 -0.30 -0.03    +0.059 C  
DOCKED: ATOM      5  C   UNL     1     142.907  74.272 220.384 -0.28 -0.03    +0.091 C  
DOCKED: ENDROOT
DOCKED: BRANCH   1   6
DOCKED: ATOM      6  C   UNL     1     141.785  72.112 219.439 -0.05 -0.04    +0.242 C  
DOCKED: ATOM      7  O   UNL     1     142.088  71.297 218.508 -0.02 +0.04    -0.273 OA 
DOCKED: BRANCH   6   8
DOCKED: ATOM      8  C   UNL     1     140.388  72.132 219.878 -0.05 -0.04    +0.216 C  
DOCKED: BRANCH   8   9
DOCKED: ATOM      9  N   UNL     1     140.301  71.425 221.159 -0.06 +0.05    -0.342 N  
DOCKED: ATOM     10  C   UNL     1     140.255  72.146 222.394 -0.21 -0.03    +0.270 C  
DOCKED: ATOM     11  O   UNL     1     140.288  73.415 222.432 -0.77 +0.00    -0.268 OA 
DOCKED: ATOM     12  H   UNL     1     140.270  70.390 221.234 +0.04 -0.03    +0.164 HD 
DOCKED: BRANCH  10  13
DOCKED: ATOM     13  C   UNL     1     140.168  71.391 223.663 -0.33 -0.02    +0.128 A  
DOCKED: ATOM     14  C   UNL     1     139.549  70.159 223.676 -0.29 -0.01    +0.035 A  
DOCKED: ATOM     15  N   UNL     1     140.677  71.871 224.811 -0.28 +0.03    -0.243 NA 
DOCKED: ATOM     16  C   UNL     1     139.471  69.460 224.863 -0.38 -0.00    +0.013 A  
DOCKED: ATOM     17  C   UNL     1     140.622  71.227 225.978 -0.56 -0.01    +0.071 A  
DOCKED: ATOM     18  C   UNL     1     140.004  69.980 226.032 -0.50 -0.00    +0.000 A  
DOCKED: ATOM     19  C   UNL     1     141.163  71.769 227.129 -0.75 -0.00    +0.029 A  
DOCKED: ATOM     20  C   UNL     1     139.933  69.293 227.222 -0.58 -0.00    +0.010 A  
DOCKED: ATOM     21  C   UNL     1     141.073  71.059 228.288 -0.67 -0.00    +0.002 A  
DOCKED: ATOM     22  C   UNL     1     140.464  69.820 228.361 -0.58 -0.00    +0.001 A  
DOCKED: ENDBRANCH  10  13
DOCKED: ENDBRANCH   8   9
DOCKED: ENDBRANCH   6   8
DOCKED: ENDBRANCH   1   6
DOCKED: BRANCH   5  23
DOCKED: ATOM     23  C   UNL     1     141.814  75.168 219.920 -0.22 -0.02    +0.067 C  
DOCKED: BRANCH  23  24
DOCKED: ATOM     24  C   UNL     1     141.447  76.052 221.127 -0.17 -0.10    +0.231 C  
DOCKED: BRANCH  24  25
DOCKED: ATOM     25  O   UNL     1     141.632  77.416 220.802 -0.09 +0.28    -0.494 OA 
DOCKED: BRANCH  25  26
DOCKED: ATOM     26  C   UNL     1     141.723  78.405 221.772 -0.30 -0.07    +0.119 A  
DOCKED: ATOM     27  C   UNL     1     141.448  78.053 223.079 -0.47 -0.02    +0.046 A  
DOCKED: ATOM     28  C   UNL     1     142.080  79.697 221.417 -0.35 -0.02    +0.046 A  
DOCKED: ATOM     29  C   UNL     1     141.529  79.014 224.082 -0.58 -0.00    +0.004 A  
DOCKED: ATOM     30  C   UNL     1     142.153  80.638 222.429 -0.55 -0.00    +0.004 A  
DOCKED: ATOM     31  C   UNL     1     141.886  80.320 223.746 -0.61 -0.00    +0.000 A  
DOCKED: ENDBRANCH  25  26
DOCKED: ENDBRANCH  24  25
DOCKED: ENDBRANCH  23  24
DOCKED: ENDBRANCH   5  23
DOCKED: BRANCH   3  32
DOCKED: ATOM     32  O   UNL     1     146.318  73.420 219.678 -0.58 -0.15    -0.391 OA 
DOCKED: ATOM     33  H   UNL     1     146.546  74.346 219.356 -0.47 -0.06    +0.211 HD 
DOCKED: ENDBRANCH   3  32
DOCKED: TORSDOF 9
DOCKED: TER
DOCKED: ENDMDL
________________________________________________________________________________


    FINAL DOCKED STATE:
    ________________________


Run:   19 / 20
Time taken for this run:   0.040s

DOCKED: MODEL        19
DOCKED: USER    Run = 19
DOCKED: USER
DOCKED: USER    Estimated Free Energy of Binding    =  -8.98 kcal/mol  [=(1)+(2)+(3)-(4)]
DOCKED: USER
DOCKED: USER    (1) Final Intermolecular Energy     = -11.66 kcal/mol
DOCKED: USER        vdW + Hbond + desolv Energy     = -11.59 kcal/mol
DOCKED: USER        Electrostatic Energy            =  -0.07 kcal/mol
DOCKED: USER        Moving Ligand-Fixed Receptor    = -11.66 kcal/mol
DOCKED: USER        Moving Ligand-Moving Receptor   =  +0.00 kcal/mol
DOCKED: USER    (2) Final Total Internal Energy     =  -1.61 kcal/mol
DOCKED: USER    (3) Torsional Free Energy           =  +2.68 kcal/mol
DOCKED: USER    (4) Unbound System's Energy         =  -1.61 kcal/mol
DOCKED: USER
DOCKED: USER
DOCKED: REMARK SMILES O=C(NCC(=O)N1C[C@@H](O)C[C@H]1CCOc1ccccc1)c1ccc2ccccc2n1
DOCKED: REMARK SMILES IDX 7 1 8 2 9 3 11 4 12 5 5 6 6 7 4 8 3 9 2 10 1 11 22 13 23 14
DOCKED: REMARK SMILES IDX 31 15 24 16 30 17 25 18 29 19 26 20 28 21 27 22 13 23 14 24
DOCKED: REMARK SMILES IDX 15 25 16 26 17 27 21 28 18 29 20 30 19 31 10 32
DOCKED: REMARK H PARENT 3 12 10 33
DOCKED: USER                              x       y       z     vdW  Elec       q    Type
DOCKED: USER                           _______ _______ _______ _____ _____    ______ ____
DOCKED: ROOT
DOCKED: ATOM      1  N   UNL     1     141.593  75.885 220.389 -0.11 +0.14    -0.335 N  
DOCKED: ATOM      2  C   UNL     1     142.835  75.147 220.085 -0.27 -0.07    +0.151 C  
DOCKED: ATOM      3  C   UNL     1     143.465  75.848 218.905 -0.25 -0.08    +0.136 C  
DOCKED: ATOM      4  C   UNL     1     142.277  76.592 218.332 -0.22 -0.03    +0.059 C  
DOCKED: ATOM      5  C   UNL     1     141.676  77.115 219.647 -0.23 -0.05    +0.091 C  
DOCKED: ENDROOT
DOCKED: BRANCH   1   6
DOCKED: ATOM      6  C   UNL     1     140.621  75.349 221.254 -0.22 -0.06    +0.242 C  
DOCKED: ATOM      7  O   UNL     1     140.487  75.927 222.381 -0.44 +0.05    -0.273 OA 
DOCKED: BRANCH   6   8
DOCKED: ATOM      8  C   UNL     1     139.754  74.198 220.989 -0.15 -0.04    +0.216 C  
DOCKED: BRANCH   8   9
DOCKED: ATOM      9  N   UNL     1     139.640  73.417 222.224 -0.14 +0.06    -0.342 N  
DOCKED: ATOM     10  C   UNL     1     140.359  72.190 222.385 -0.21 -0.03    +0.270 C  
DOCKED: ATOM     11  O   UNL     1     141.118  71.732 221.476 -0.15 +0.03    -0.268 OA 
DOCKED: ATOM     12  H   UNL     1     139.046  73.705 223.024 -0.53 -0.08    +0.164 HD 
DOCKED: BRANCH  10  13
DOCKED: ATOM     13  C   UNL     1     140.214  71.434 223.649 -0.33 -0.02    +0.128 A  
DOCKED: ATOM     14  C   UNL     1     139.567  70.217 223.638 -0.29 -0.01    +0.035 A  
DOCKED: ATOM     15  N   UNL     1     140.698  71.899 224.813 -0.27 +0.03    -0.243 NA 
DOCKED: ATOM     16  C   UNL     1     139.435  69.517 224.819 -0.37 -0.00    +0.013 A  
DOCKED: ATOM     17  C   UNL     1     140.592  71.254 225.976 -0.56 -0.01    +0.071 A  
DOCKED: ATOM     18  C   UNL     1     139.944  70.021 226.007 -0.50 -0.00    +0.000 A  
DOCKED: ATOM     19  C   UNL     1     141.109  71.779 227.145 -0.76 -0.01    +0.029 A  
DOCKED: ATOM     20  C   UNL     1     139.820  69.333 227.191 -0.57 -0.00    +0.010 A  
DOCKED: ATOM     21  C   UNL     1     140.966  71.068 228.298 -0.67 -0.00    +0.002 A  
DOCKED: ATOM     22  C   UNL     1     140.327  69.844 228.348 -0.59 -0.00    +0.001 A  
DOCKED: ENDBRANCH  10  13
DOCKED: ENDBRANCH   8   9
DOCKED: ENDBRANCH   6   8
DOCKED: ENDBRANCH   1   6
DOCKED: BRANCH   5  23
DOCKED: ATOM     23  C   UNL     1     140.390  77.827 219.416 -0.11 -0.02    +0.067 C  
DOCKED: BRANCH  23  24
DOCKED: ATOM     24  C   UNL     1     140.756  79.305 219.188 -0.10 -0.10    +0.231 C  
DOCKED: BRANCH  24  25
DOCKED: ATOM     25  O   UNL     1     141.958  79.616 219.866 -0.09 +0.29    -0.494 OA 
DOCKED: BRANCH  25  26
DOCKED: ATOM     26  C   UNL     1     141.978  80.020 221.195 -0.31 -0.05    +0.119 A  
DOCKED: ATOM     27  C   UNL     1     142.201  79.056 222.158 -0.46 -0.03    +0.046 A  
DOCKED: ATOM     28  C   UNL     1     141.780  81.354 221.519 -0.38 -0.01    +0.046 A  
DOCKED: ATOM     29  C   UNL     1     142.230  79.419 223.501 -0.62 -0.00    +0.004 A  
DOCKED: ATOM     30  C   UNL     1     141.812  81.694 222.860 -0.48 -0.00    +0.004 A  
DOCKED: ATOM     31  C   UNL     1     142.032  80.755 223.849 -0.62 -0.00    +0.000 A  
DOCKED: ENDBRANCH  25  26
DOCKED: ENDBRANCH  24  25
DOCKED: ENDBRANCH  23  24
DOCKED: ENDBRANCH   5  23
DOCKED: BRANCH   3  32
DOCKED: ATOM     32  O   UNL     1     144.018  74.959 217.995 -0.08 +0.18    -0.391 OA 
DOCKED: ATOM     33  H   UNL     1     144.830  75.423 217.624 -0.49 -0.16    +0.211 HD 
DOCKED: ENDBRANCH   3  32
DOCKED: TORSDOF 9
DOCKED: TER
DOCKED: ENDMDL
________________________________________________________________________________


    FINAL DOCKED STATE:
    ________________________


Run:   20 / 20
Time taken for this run:   0.040s

DOCKED: MODEL        20
DOCKED: USER    Run = 20
DOCKED: USER
DOCKED: USER    Estimated Free Energy of Binding    =  -8.19 kcal/mol  [=(1)+(2)+(3)-(4)]
DOCKED: USER
DOCKED: USER    (1) Final Intermolecular Energy     = -10.88 kcal/mol
DOCKED: USER        vdW + Hbond + desolv Energy     = -10.64 kcal/mol
DOCKED: USER        Electrostatic Energy            =  -0.24 kcal/mol
DOCKED: USER        Moving Ligand-Fixed Receptor    = -10.88 kcal/mol
DOCKED: USER        Moving Ligand-Moving Receptor   =  +0.00 kcal/mol
DOCKED: USER    (2) Final Total Internal Energy     =  -1.68 kcal/mol
DOCKED: USER    (3) Torsional Free Energy           =  +2.68 kcal/mol
DOCKED: USER    (4) Unbound System's Energy         =  -1.68 kcal/mol
DOCKED: USER
DOCKED: USER
DOCKED: REMARK SMILES O=C(NCC(=O)N1C[C@@H](O)C[C@H]1CCOc1ccccc1)c1ccc2ccccc2n1
DOCKED: REMARK SMILES IDX 7 1 8 2 9 3 11 4 12 5 5 6 6 7 4 8 3 9 2 10 1 11 22 13 23 14
DOCKED: REMARK SMILES IDX 31 15 24 16 30 17 25 18 29 19 26 20 28 21 27 22 13 23 14 24
DOCKED: REMARK SMILES IDX 15 25 16 26 17 27 21 28 18 29 20 30 19 31 10 32
DOCKED: REMARK H PARENT 3 12 10 33
DOCKED: USER                              x       y       z     vdW  Elec       q    Type
DOCKED: USER                           _______ _______ _______ _____ _____    ______ ____
DOCKED: ROOT
DOCKED: ATOM      1  N   UNL     1     137.169  70.627 222.736 -0.04 +0.06    -0.335 N  
DOCKED: ATOM      2  C   UNL     1     137.803  71.949 222.561 -0.13 -0.04    +0.151 C  
DOCKED: ATOM      3  C   UNL     1     139.281  71.690 222.393 -0.21 -0.03    +0.136 C  
DOCKED: ATOM      4  C   UNL     1     139.411  70.308 222.997 -0.23 -0.01    +0.059 C  
DOCKED: ATOM      5  C   UNL     1     138.168  69.660 222.365 -0.14 -0.02    +0.091 C  
DOCKED: ENDROOT
DOCKED: BRANCH   1   6
DOCKED: ATOM      6  C   UNL     1     135.841  70.511 223.187 -0.08 -0.03    +0.242 C  
DOCKED: ATOM      7  O   UNL     1     134.931  70.654 222.308 -0.01 +0.04    -0.273 OA 
DOCKED: BRANCH   6   8
DOCKED: ATOM      8  C   UNL     1     135.404  70.246 224.560 -0.14 -0.02    +0.216 C  
DOCKED: BRANCH   8   9
DOCKED: ATOM      9  N   UNL     1     134.739  71.448 225.069 -0.07 +0.03    -0.342 N  
DOCKED: ATOM     10  C   UNL     1     133.849  71.376 226.188 -0.22 -0.02    +0.270 C  
DOCKED: ATOM     11  O   UNL     1     133.601  70.280 226.780 -0.48 +0.00    -0.268 OA 
DOCKED: ATOM     12  H   UNL     1     134.873  72.389 224.655 +0.04 -0.02    +0.164 HD 
DOCKED: BRANCH  10  13
DOCKED: ATOM     13  C   UNL     1     133.199  72.615 226.669 -0.33 -0.01    +0.128 A  
DOCKED: ATOM     14  C   UNL     1     132.010  72.530 227.362 -0.39 -0.01    +0.035 A  
DOCKED: ATOM     15  N   UNL     1     133.735  73.828 226.451 -0.79 -0.03    -0.243 NA 
DOCKED: ATOM     16  C   UNL     1     131.409  73.689 227.808 -0.32 -0.00    +0.013 A  
DOCKED: ATOM     17  C   UNL     1     133.186  74.971 226.865 -0.33 +0.00    +0.071 A  
DOCKED: ATOM     18  C   UNL     1     131.984  74.928 227.568 -0.41 -0.00    +0.000 A  
DOCKED: ATOM     19  C   UNL     1     133.782  76.193 226.612 -0.38 -0.00    +0.029 A  
DOCKED: ATOM     20  C   UNL     1     131.396  76.090 228.007 -0.29 +0.00    +0.010 A  
DOCKED: ATOM     21  C   UNL     1     133.169  77.323 227.063 -0.35 -0.00    +0.002 A  
DOCKED: ATOM     22  C   UNL     1     131.977  77.299 227.762 -0.32 +0.00    +0.001 A  
DOCKED: ENDBRANCH  10  13
DOCKED: ENDBRANCH   8   9
DOCKED: ENDBRANCH   6   8
DOCKED: ENDBRANCH   1   6
DOCKED: BRANCH   5  23
DOCKED: ATOM     23  C   UNL     1     137.956  68.277 222.867 -0.20 -0.01    +0.067 C  
DOCKED: BRANCH  23  24
DOCKED: ATOM     24  C   UNL     1     139.189  67.943 223.728 +0.02 -0.03    +0.231 C  
DOCKED: BRANCH  24  25
DOCKED: ATOM     25  O   UNL     1     138.813  67.826 225.086 -0.58 -0.03    -0.494 OA 
DOCKED: BRANCH  25  26
DOCKED: ATOM     26  C   UNL     1     139.563  68.383 226.115 -0.47 -0.02    +0.119 A  
DOCKED: ATOM     27  C   UNL     1     139.481  69.748 226.306 -0.43 -0.01    +0.046 A  
DOCKED: ATOM     28  C   UNL     1     140.360  67.574 226.911 -0.59 -0.01    +0.046 A  
DOCKED: ATOM     29  C   UNL     1     140.216  70.345 227.326 -0.60 -0.00    +0.004 A  
DOCKED: ATOM     30  C   UNL     1     141.083  68.186 227.919 -0.66 -0.00    +0.004 A  
DOCKED: ATOM     31  C   UNL     1     141.025  69.549 228.138 -0.60 -0.00    +0.000 A  
DOCKED: ENDBRANCH  25  26
DOCKED: ENDBRANCH  24  25
DOCKED: ENDBRANCH  23  24
DOCKED: ENDBRANCH   5  23
DOCKED: BRANCH   3  32
DOCKED: ATOM     32  O   UNL     1     140.061  72.629 223.051 -0.49 +0.05    -0.391 OA 
DOCKED: ATOM     33  H   UNL     1     139.423  73.347 223.351 -0.42 -0.09    +0.211 HD 
DOCKED: ENDBRANCH   3  32
DOCKED: TORSDOF 9
DOCKED: TER
DOCKED: ENDMDL
________________________________________________________________________________


    CLUSTERING HISTOGRAM
    ____________________


________________________________________________________________________________
     |           |     |           |     |
Clus | Lowest    | Run | Mean      | Num | Histogram
-ter | Binding   |     | Binding   | in  |
Rank | Energy    |     | Energy    | Clus|    5    10   15   20   25   30   35
_____|___________|_____|___________|_____|____:____|____:____|____:____|____:___
   1 |     -9.43 |  16 |     -8.97 |   8 |########
   2 |     -8.66 |   7 |     -8.54 |   2 |##
   3 |     -8.65 |   1 |     -8.45 |   3 |###
   4 |     -8.19 |  20 |     -8.19 |   1 |#
   5 |     -7.81 |   2 |     -7.81 |   1 |#
   6 |     -7.47 |   4 |     -6.96 |   5 |#####
_____|___________|_____|___________|_____|______________________________________


    RMSD TABLE
    __________


_______________________________________________________________________
     |      |      |           |         |                 |
Rank | Sub- | Run  | Binding   | Cluster | Reference       | Grep
     | Rank |      | Energy    | RMSD    | RMSD            | Pattern
_____|______|______|___________|_________|_________________|___________
   1      1     16       -9.43      0.00    270.37           RANKING
   1      2     18       -9.36      0.29    270.37           RANKING
   1      3     11       -9.10      1.52    270.62           RANKING
   1      4     19       -8.98      1.77    270.41           RANKING
   1      5     17       -8.86      1.91    270.46           RANKING
   1      6     10       -8.81      1.30    270.44           RANKING
   1      7     14       -8.78      1.90    270.58           RANKING
   1      8      6       -8.44      1.74    270.35           RANKING
   2      1      7       -8.66      0.00    270.29           RANKING
   2      2      9       -8.42      0.31    270.32           RANKING
   3      1      1       -8.65      0.00    270.57           RANKING
   3      2     12       -8.38      1.51    270.33           RANKING
   3      3     15       -8.32      1.99    270.22           RANKING
   4      1     20       -8.19      0.00    269.57           RANKING
   5      1      2       -7.81      0.00    269.65           RANKING
   6      1      4       -7.47      0.00    270.10           RANKING
   6      2      8       -7.40      0.72    270.21           RANKING
   6      3      3       -7.36      0.29    270.11           RANKING
   6      4      5       -6.81      1.01    269.70           RANKING
   6      5     13       -5.78      1.73    269.33           RANKING

Run time 0.735 sec
Idle time 0.000 sec
