AutoDock-GPU version: v1.6

**********************************************************
**    AutoDock-GPU AUTODOCKTOOLS-COMPATIBLE DLG FILE    **
**********************************************************


    DOCKING PARAMETERS
    ________________________


Ligand file:                               /home/a/REINVENT4/ReinventStudies/pleaseWork/justmol2mol_4_Compounds_ontop/graph-dock-hn62wh/graph-DockGPU/node-autodockgpu/inputs/YLRQYMCSDCCODA-WBADGWMWNA-N.pdbqt
Grid fld file:                             /home/a/REINVENT4/ReinventStudies/mols/Rad51/maps/rad51_receptor.maps.fld

Random seed:                               42
Number of runs:                            20
Number of energy evaluations:              2040163
Number of generations:                     42000
Size of population:                        150
Rate of crossover:                         80.000000%
Tournament selection probability limit:    60.000000%
Rate of mutation:                          2.000000%
Maximal allowed delta movement:            +/- 6.000000A
Maximal allowed delta angle:               +/- 90.000000

Rate of local search:                      100.000000%
Maximal number of local search iterations: 300
Rho lower bound:                           0.010000
Spread of local search delta movement:     2.000000A
Spread of local search delta angle:        74.999999
Limit of consecutive successes/failures:   4

Handle symmetry during clustering:         YES
RMSD tolerance:                            2.000000A

Program call in command line was:          /home/a/REINVENT4/ReinventStudies/adgpu-v1.6_linux_x64_cuda12_128wi --filelist batch.txt --heuristics 1 --nrun 20 --psize 150 --lsit 300 --seed 42 --heurmax 12000000 


    GRID PARAMETERS
    ________________________


Receptor name:                             rad51_receptor
Number of grid points (x, y, z):           53, 53, 53
Grid center (x, y, z):                     139.950000, 75.640000, 221.970000A
Grid size (x, y, z):                       19.500000, 19.500000, 19.500000A
Grid spacing:                              0.375000A


    LIGAND PARAMETERS
    ________________________


Ligand name:                               /home/a/REINVENT4/ReinventStudies/pleaseWork/justmol2mol_4_Compounds_ontop/graph-dock-hn62wh/graph-DockGPU/node-autodockgpu/inputs/YLRQYMCSDCCODA-WBADGWMWNA-N
Number of atoms:                           33
Number of rotatable bonds:                 9
Number of atom types:                      6


    DUMMY DATA (only for ADT-compatibility)
    ________________________


DPF> outlev 1
DPF> ga_run 20
DPF> fld /home/a/REINVENT4/ReinventStudies/mols/Rad51/maps/rad51_receptor.maps.fld
DPF> move /home/a/REINVENT4/ReinventStudies/pleaseWork/justmol2mol_4_Compounds_ontop/graph-dock-hn62wh/graph-DockGPU/node-autodockgpu/inputs/YLRQYMCSDCCODA-WBADGWMWNA-N.pdbqt


    COUNTER STATES
    ________________________


Number of energy evaluations performed:    1212762
Number of generations used:                70


    INPUT LIGAND PDBQT FILE:
    ________________________


INPUT-LIGAND-PDBQT: REMARK SMILES O=C(NCC(=O)N1C[C@H](O)C[C@H]1CCOc1ccccc1)c1ccc2ccccc2n1
INPUT-LIGAND-PDBQT: REMARK SMILES IDX 7 1 8 2 9 3 11 4 12 5 5 6 6 7 4 8 3 9 2 10 1 11 22 13 23 14
INPUT-LIGAND-PDBQT: REMARK SMILES IDX 31 15 24 16 30 17 25 18 29 19 26 20 28 21 27 22 13 23 14 24
INPUT-LIGAND-PDBQT: REMARK SMILES IDX 15 25 16 26 17 27 21 28 18 29 20 30 19 31 10 32
INPUT-LIGAND-PDBQT: REMARK H PARENT 3 12 10 33
INPUT-LIGAND-PDBQT: ROOT
INPUT-LIGAND-PDBQT: ATOM      1  N   UNL     1      -1.328  -1.007   2.230  1.00  0.00    -0.335 N 
INPUT-LIGAND-PDBQT: ATOM      2  C   UNL     1      -1.729  -0.434   3.493  1.00  0.00     0.151 C 
INPUT-LIGAND-PDBQT: ATOM      3  C   UNL     1      -2.817  -1.325   3.983  1.00  0.00     0.136 C 
INPUT-LIGAND-PDBQT: ATOM      4  C   UNL     1      -2.900  -2.465   3.028  1.00  0.00     0.059 C 
INPUT-LIGAND-PDBQT: ATOM      5  C   UNL     1      -2.246  -2.025   1.777  1.00  0.00     0.091 C 
INPUT-LIGAND-PDBQT: ENDROOT
INPUT-LIGAND-PDBQT: BRANCH   1   6
INPUT-LIGAND-PDBQT: ATOM      6  C   UNL     1      -0.168  -0.632   1.496  1.00  0.00     0.242 C 
INPUT-LIGAND-PDBQT: ATOM      7  O   UNL     1       0.145  -1.166   0.388  1.00  0.00    -0.273 OA
INPUT-LIGAND-PDBQT: BRANCH   6   8
INPUT-LIGAND-PDBQT: ATOM      8  C   UNL     1       0.750   0.440   2.023  1.00  0.00     0.216 C 
INPUT-LIGAND-PDBQT: BRANCH   8   9
INPUT-LIGAND-PDBQT: ATOM      9  N   UNL     1       1.856   0.659   1.130  1.00  0.00    -0.342 N 
INPUT-LIGAND-PDBQT: ATOM     10  C   UNL     1       2.747  -0.422   0.840  1.00  0.00     0.270 C 
INPUT-LIGAND-PDBQT: ATOM     11  O   UNL     1       2.554  -1.551   1.371  1.00  0.00    -0.268 OA
INPUT-LIGAND-PDBQT: ATOM     12  H   UNL     1       2.040   1.585   0.677  1.00  0.00     0.164 HD
INPUT-LIGAND-PDBQT: BRANCH  10  13
INPUT-LIGAND-PDBQT: ATOM     13  C   UNL     1       3.866  -0.188  -0.068  1.00  0.00     0.128 A 
INPUT-LIGAND-PDBQT: ATOM     14  C   UNL     1       4.716  -1.225  -0.341  1.00  0.00     0.035 A 
INPUT-LIGAND-PDBQT: ATOM     15  N   UNL     1       4.099   1.006  -0.651  1.00  0.00    -0.243 NA
INPUT-LIGAND-PDBQT: ATOM     16  C   UNL     1       5.790  -1.010  -1.210  1.00  0.00     0.013 A 
INPUT-LIGAND-PDBQT: ATOM     17  C   UNL     1       5.105   1.244  -1.478  1.00  0.00     0.071 A 
INPUT-LIGAND-PDBQT: ATOM     18  C   UNL     1       5.976   0.229  -1.774  1.00  0.00     0.000 A 
INPUT-LIGAND-PDBQT: ATOM     19  C   UNL     1       5.310   2.478  -2.055  1.00  0.00     0.029 A 
INPUT-LIGAND-PDBQT: ATOM     20  C   UNL     1       7.055   0.374  -2.624  1.00  0.00     0.010 A 
INPUT-LIGAND-PDBQT: ATOM     21  C   UNL     1       6.390   2.644  -2.912  1.00  0.00     0.002 A 
INPUT-LIGAND-PDBQT: ATOM     22  C   UNL     1       7.263   1.624  -3.208  1.00  0.00     0.001 A 
INPUT-LIGAND-PDBQT: ENDBRANCH  10  13
INPUT-LIGAND-PDBQT: ENDBRANCH   8   9
INPUT-LIGAND-PDBQT: ENDBRANCH   6   8
INPUT-LIGAND-PDBQT: ENDBRANCH   1   6
INPUT-LIGAND-PDBQT: BRANCH   5  23
INPUT-LIGAND-PDBQT: ATOM     23  C   UNL     1      -3.161  -1.490   0.708  1.00  0.00     0.067 C 
INPUT-LIGAND-PDBQT: BRANCH  23  24
INPUT-LIGAND-PDBQT: ATOM     24  C   UNL     1      -4.014  -0.344   1.095  1.00  0.00     0.231 C 
INPUT-LIGAND-PDBQT: BRANCH  24  25
INPUT-LIGAND-PDBQT: ATOM     25  O   UNL     1      -4.809   0.079   0.045  1.00  0.00    -0.494 OA
INPUT-LIGAND-PDBQT: BRANCH  25  26
INPUT-LIGAND-PDBQT: ATOM     26  C   UNL     1      -4.563   0.608  -1.169  1.00  0.00     0.119 A 
INPUT-LIGAND-PDBQT: ATOM     27  C   UNL     1      -5.672   0.885  -1.981  1.00  0.00     0.046 A 
INPUT-LIGAND-PDBQT: ATOM     28  C   UNL     1      -3.341   0.918  -1.717  1.00  0.00     0.046 A 
INPUT-LIGAND-PDBQT: ATOM     29  C   UNL     1      -5.543   1.428  -3.236  1.00  0.00     0.004 A 
INPUT-LIGAND-PDBQT: ATOM     30  C   UNL     1      -3.209   1.470  -2.995  1.00  0.00     0.004 A 
INPUT-LIGAND-PDBQT: ATOM     31  C   UNL     1      -4.310   1.729  -3.763  1.00  0.00     0.000 A 
INPUT-LIGAND-PDBQT: ENDBRANCH  25  26
INPUT-LIGAND-PDBQT: ENDBRANCH  24  25
INPUT-LIGAND-PDBQT: ENDBRANCH  23  24
INPUT-LIGAND-PDBQT: ENDBRANCH   5  23
INPUT-LIGAND-PDBQT: BRANCH   3  32
INPUT-LIGAND-PDBQT: ATOM     32  O   UNL     1      -2.440  -1.750   5.280  1.00  0.00    -0.391 OA
INPUT-LIGAND-PDBQT: ATOM     33  H   UNL     1      -1.440  -1.811   5.321  1.00  0.00     0.211 HD
INPUT-LIGAND-PDBQT: ENDBRANCH   3  32
INPUT-LIGAND-PDBQT: TORSDOF 9


    FINAL DOCKED STATE:
    ________________________


Run:   1 / 20
Time taken for this run:   0.059s

DOCKED: MODEL        1
DOCKED: USER    Run = 1
DOCKED: USER
DOCKED: USER    Estimated Free Energy of Binding    =  -7.31 kcal/mol  [=(1)+(2)+(3)-(4)]
DOCKED: USER
DOCKED: USER    (1) Final Intermolecular Energy     =  -9.99 kcal/mol
DOCKED: USER        vdW + Hbond + desolv Energy     =  -9.67 kcal/mol
DOCKED: USER        Electrostatic Energy            =  -0.32 kcal/mol
DOCKED: USER        Moving Ligand-Fixed Receptor    =  -9.99 kcal/mol
DOCKED: USER        Moving Ligand-Moving Receptor   =  +0.00 kcal/mol
DOCKED: USER    (2) Final Total Internal Energy     =  -3.16 kcal/mol
DOCKED: USER    (3) Torsional Free Energy           =  +2.68 kcal/mol
DOCKED: USER    (4) Unbound System's Energy         =  -3.16 kcal/mol
DOCKED: USER
DOCKED: USER
DOCKED: REMARK SMILES O=C(NCC(=O)N1C[C@H](O)C[C@H]1CCOc1ccccc1)c1ccc2ccccc2n1
DOCKED: REMARK SMILES IDX 7 1 8 2 9 3 11 4 12 5 5 6 6 7 4 8 3 9 2 10 1 11 22 13 23 14
DOCKED: REMARK SMILES IDX 31 15 24 16 30 17 25 18 29 19 26 20 28 21 27 22 13 23 14 24
DOCKED: REMARK SMILES IDX 15 25 16 26 17 27 21 28 18 29 20 30 19 31 10 32
DOCKED: REMARK H PARENT 3 12 10 33
DOCKED: USER                              x       y       z     vdW  Elec       q    Type
DOCKED: USER                           _______ _______ _______ _____ _____    ______ ____
DOCKED: ROOT
DOCKED: ATOM      1  N   UNL     1     143.405  73.612 219.330 -0.07 +0.08    -0.335 N  
DOCKED: ATOM      2  C   UNL     1     144.500  72.925 218.688 -0.17 +0.00    +0.151 C  
DOCKED: ATOM      3  C   UNL     1     145.703  73.313 219.476 -0.32 +0.03    +0.136 C  
DOCKED: ATOM      4  C   UNL     1     145.216  74.111 220.636 -0.51 -0.02    +0.059 C  
DOCKED: ATOM      5  C   UNL     1     143.861  74.591 220.288 -0.35 -0.04    +0.091 C  
DOCKED: ENDROOT
DOCKED: BRANCH   1   6
DOCKED: ATOM      6  C   UNL     1     142.027  73.372 219.069 -0.05 -0.05    +0.242 C  
DOCKED: ATOM      7  O   UNL     1     141.603  72.957 217.947 -0.01 +0.05    -0.273 OA 
DOCKED: BRANCH   6   8
DOCKED: ATOM      8  C   UNL     1     140.998  73.606 220.145 -0.10 -0.04    +0.216 C  
DOCKED: BRANCH   8   9
DOCKED: ATOM      9  N   UNL     1     141.021  74.973 220.594 -0.10 +0.09    -0.342 N  
DOCKED: ATOM     10  C   UNL     1     140.262  75.344 221.748 -0.21 -0.05    +0.270 C  
DOCKED: ATOM     11  O   UNL     1     139.581  74.472 222.356 -0.77 +0.03    -0.268 OA 
DOCKED: ATOM     12  H   UNL     1     141.576  75.716 220.108 +0.05 -0.06    +0.164 HD 
DOCKED: BRANCH  10  13
DOCKED: ATOM     13  C   UNL     1     140.293  76.734 222.194 -0.33 -0.03    +0.128 A  
DOCKED: ATOM     14  C   UNL     1     139.115  77.334 222.549 -0.29 -0.01    +0.035 A  
DOCKED: ATOM     15  N   UNL     1     141.431  77.453 222.272 -0.16 +0.13    -0.243 NA 
DOCKED: ATOM     16  C   UNL     1     139.136  78.665 222.978 -0.33 -0.00    +0.013 A  
DOCKED: ATOM     17  C   UNL     1     141.487  78.713 222.674 -0.46 -0.03    +0.071 A  
DOCKED: ATOM     18  C   UNL     1     140.327  79.346 223.037 -0.43 -0.00    +0.000 A  
DOCKED: ATOM     19  C   UNL     1     142.670  79.415 222.742 -0.57 -0.01    +0.029 A  
DOCKED: ATOM     20  C   UNL     1     140.278  80.657 223.470 -0.44 -0.00    +0.010 A  
DOCKED: ATOM     21  C   UNL     1     142.641  80.734 223.174 -0.63 -0.00    +0.002 A  
DOCKED: ATOM     22  C   UNL     1     141.476  81.368 223.538 -0.51 -0.00    +0.001 A  
DOCKED: ENDBRANCH  10  13
DOCKED: ENDBRANCH   8   9
DOCKED: ENDBRANCH   6   8
DOCKED: ENDBRANCH   1   6
DOCKED: BRANCH   5  23
DOCKED: ATOM     23  C   UNL     1     143.782  75.982 219.718 -0.30 -0.05    +0.067 C  
DOCKED: BRANCH  23  24
DOCKED: ATOM     24  C   UNL     1     143.108  76.111 218.406 -0.20 -0.13    +0.231 C  
DOCKED: BRANCH  24  25
DOCKED: ATOM     25  O   UNL     1     142.058  77.010 218.457 -0.06 +0.27    -0.494 OA 
DOCKED: BRANCH  25  26
DOCKED: ATOM     26  C   UNL     1     141.967  78.344 218.621 -0.22 -0.08    +0.119 A  
DOCKED: ATOM     27  C   UNL     1     140.939  78.816 219.450 -0.17 -0.02    +0.046 A  
DOCKED: ATOM     28  C   UNL     1     142.772  79.313 218.073 -0.28 -0.05    +0.046 A  
DOCKED: ATOM     29  C   UNL     1     140.752  80.154 219.694 -0.19 -0.00    +0.004 A  
DOCKED: ATOM     30  C   UNL     1     142.582  80.676 218.320 -0.34 -0.00    +0.004 A  
DOCKED: ATOM     31  C   UNL     1     141.570  81.106 219.133 -0.27 -0.00    +0.000 A  
DOCKED: ENDBRANCH  25  26
DOCKED: ENDBRANCH  24  25
DOCKED: ENDBRANCH  23  24
DOCKED: ENDBRANCH   5  23
DOCKED: BRANCH   3  32
DOCKED: ATOM     32  O   UNL     1     146.324  72.109 219.888 -0.47 -0.29    -0.391 OA 
DOCKED: ATOM     33  H   UNL     1     145.999  71.878 220.808 -0.41 -0.03    +0.211 HD 
DOCKED: ENDBRANCH   3  32
DOCKED: TORSDOF 9
DOCKED: TER
DOCKED: ENDMDL
________________________________________________________________________________


    FINAL DOCKED STATE:
    ________________________


Run:   2 / 20
Time taken for this run:   0.059s

DOCKED: MODEL        2
DOCKED: USER    Run = 2
DOCKED: USER
DOCKED: USER    Estimated Free Energy of Binding    =  -7.21 kcal/mol  [=(1)+(2)+(3)-(4)]
DOCKED: USER
DOCKED: USER    (1) Final Intermolecular Energy     =  -9.90 kcal/mol
DOCKED: USER        vdW + Hbond + desolv Energy     =  -9.70 kcal/mol
DOCKED: USER        Electrostatic Energy            =  -0.20 kcal/mol
DOCKED: USER        Moving Ligand-Fixed Receptor    =  -9.90 kcal/mol
DOCKED: USER        Moving Ligand-Moving Receptor   =  +0.00 kcal/mol
DOCKED: USER    (2) Final Total Internal Energy     =  -3.48 kcal/mol
DOCKED: USER    (3) Torsional Free Energy           =  +2.68 kcal/mol
DOCKED: USER    (4) Unbound System's Energy         =  -3.48 kcal/mol
DOCKED: USER
DOCKED: USER
DOCKED: REMARK SMILES O=C(NCC(=O)N1C[C@H](O)C[C@H]1CCOc1ccccc1)c1ccc2ccccc2n1
DOCKED: REMARK SMILES IDX 7 1 8 2 9 3 11 4 12 5 5 6 6 7 4 8 3 9 2 10 1 11 22 13 23 14
DOCKED: REMARK SMILES IDX 31 15 24 16 30 17 25 18 29 19 26 20 28 21 27 22 13 23 14 24
DOCKED: REMARK SMILES IDX 15 25 16 26 17 27 21 28 18 29 20 30 19 31 10 32
DOCKED: REMARK H PARENT 3 12 10 33
DOCKED: USER                              x       y       z     vdW  Elec       q    Type
DOCKED: USER                           _______ _______ _______ _____ _____    ______ ____
DOCKED: ROOT
DOCKED: ATOM      1  N   UNL     1     143.265  73.192 220.413 -0.13 +0.06    -0.335 N  
DOCKED: ATOM      2  C   UNL     1     144.360  72.252 220.397 -0.29 -0.02    +0.151 C  
DOCKED: ATOM      3  C   UNL     1     145.584  73.099 220.355 -0.49 +0.00    +0.136 C  
DOCKED: ATOM      4  C   UNL     1     145.132  74.512 220.487 -0.38 -0.02    +0.059 C  
DOCKED: ATOM      5  C   UNL     1     143.698  74.539 220.126 -0.36 -0.04    +0.091 C  
DOCKED: ENDROOT
DOCKED: BRANCH   1   6
DOCKED: ATOM      6  C   UNL     1     141.907  72.859 220.678 -0.15 -0.04    +0.242 C  
DOCKED: ATOM      7  O   UNL     1     141.572  71.873 221.404 -0.16 +0.03    -0.273 OA 
DOCKED: BRANCH   6   8
DOCKED: ATOM      8  C   UNL     1     140.793  73.687 220.092 -0.09 -0.04    +0.216 C  
DOCKED: BRANCH   8   9
DOCKED: ATOM      9  N   UNL     1     140.856  75.045 220.561 -0.09 +0.09    -0.342 N  
DOCKED: ATOM     10  C   UNL     1     140.199  75.394 221.783 -0.21 -0.05    +0.270 C  
DOCKED: ATOM     11  O   UNL     1     139.573  74.510 222.432 -0.73 +0.03    -0.268 OA 
DOCKED: ATOM     12  H   UNL     1     141.367  75.798 220.043 +0.05 -0.06    +0.164 HD 
DOCKED: BRANCH  10  13
DOCKED: ATOM     13  C   UNL     1     140.269  76.776 222.251 -0.33 -0.03    +0.128 A  
DOCKED: ATOM     14  C   UNL     1     139.110  77.401 222.623 -0.29 -0.01    +0.035 A  
DOCKED: ATOM     15  N   UNL     1     141.427  77.463 222.332 -0.16 +0.13    -0.243 NA 
DOCKED: ATOM     16  C   UNL     1     139.168  78.724 223.072 -0.34 -0.00    +0.013 A  
DOCKED: ATOM     17  C   UNL     1     141.517  78.715 222.753 -0.47 -0.03    +0.071 A  
DOCKED: ATOM     18  C   UNL     1     140.377  79.373 223.134 -0.45 -0.00    +0.000 A  
DOCKED: ATOM     19  C   UNL     1     142.719  79.385 222.824 -0.55 -0.01    +0.029 A  
DOCKED: ATOM     20  C   UNL     1     140.365  80.677 223.588 -0.43 -0.00    +0.010 A  
DOCKED: ATOM     21  C   UNL     1     142.728  80.698 223.277 -0.64 -0.00    +0.002 A  
DOCKED: ATOM     22  C   UNL     1     141.582  81.355 223.658 -0.53 -0.00    +0.001 A  
DOCKED: ENDBRANCH  10  13
DOCKED: ENDBRANCH   8   9
DOCKED: ENDBRANCH   6   8
DOCKED: ENDBRANCH   1   6
DOCKED: BRANCH   5  23
DOCKED: ATOM     23  C   UNL     1     143.384  74.917 218.703 -0.23 -0.03    +0.067 C  
DOCKED: BRANCH  23  24
DOCKED: ATOM     24  C   UNL     1     143.363  76.366 218.404 -0.19 -0.14    +0.231 C  
DOCKED: BRANCH  24  25
DOCKED: ATOM     25  O   UNL     1     142.125  76.925 218.667 -0.06 +0.27    -0.494 OA 
DOCKED: BRANCH  25  26
DOCKED: ATOM     26  C   UNL     1     141.691  78.173 218.924 -0.20 -0.07    +0.119 A  
DOCKED: ATOM     27  C   UNL     1     142.549  79.229 218.586 -0.28 -0.04    +0.046 A  
DOCKED: ATOM     28  C   UNL     1     140.491  78.546 219.481 -0.12 -0.02    +0.046 A  
DOCKED: ATOM     29  C   UNL     1     142.212  80.544 218.799 -0.33 -0.00    +0.004 A  
DOCKED: ATOM     30  C   UNL     1     140.147  79.884 219.698 -0.13 -0.00    +0.004 A  
DOCKED: ATOM     31  C   UNL     1     141.006  80.892 219.358 -0.21 -0.00    +0.000 A  
DOCKED: ENDBRANCH  25  26
DOCKED: ENDBRANCH  24  25
DOCKED: ENDBRANCH  23  24
DOCKED: ENDBRANCH   5  23
DOCKED: BRANCH   3  32
DOCKED: ATOM     32  O   UNL     1     146.392  72.699 221.447 -0.32 +0.05    -0.391 OA 
DOCKED: ATOM     33  H   UNL     1     145.947  71.931 221.912 -0.43 -0.20    +0.211 HD 
DOCKED: ENDBRANCH   3  32
DOCKED: TORSDOF 9
DOCKED: TER
DOCKED: ENDMDL
________________________________________________________________________________


    FINAL DOCKED STATE:
    ________________________


Run:   3 / 20
Time taken for this run:   0.059s

DOCKED: MODEL        3
DOCKED: USER    Run = 3
DOCKED: USER
DOCKED: USER    Estimated Free Energy of Binding    =  -7.57 kcal/mol  [=(1)+(2)+(3)-(4)]
DOCKED: USER
DOCKED: USER    (1) Final Intermolecular Energy     = -10.25 kcal/mol
DOCKED: USER        vdW + Hbond + desolv Energy     = -10.08 kcal/mol
DOCKED: USER        Electrostatic Energy            =  -0.17 kcal/mol
DOCKED: USER        Moving Ligand-Fixed Receptor    = -10.25 kcal/mol
DOCKED: USER        Moving Ligand-Moving Receptor   =  +0.00 kcal/mol
DOCKED: USER    (2) Final Total Internal Energy     =  -3.19 kcal/mol
DOCKED: USER    (3) Torsional Free Energy           =  +2.68 kcal/mol
DOCKED: USER    (4) Unbound System's Energy         =  -3.19 kcal/mol
DOCKED: USER
DOCKED: USER
DOCKED: REMARK SMILES O=C(NCC(=O)N1C[C@H](O)C[C@H]1CCOc1ccccc1)c1ccc2ccccc2n1
DOCKED: REMARK SMILES IDX 7 1 8 2 9 3 11 4 12 5 5 6 6 7 4 8 3 9 2 10 1 11 22 13 23 14
DOCKED: REMARK SMILES IDX 31 15 24 16 30 17 25 18 29 19 26 20 28 21 27 22 13 23 14 24
DOCKED: REMARK SMILES IDX 15 25 16 26 17 27 21 28 18 29 20 30 19 31 10 32
DOCKED: REMARK H PARENT 3 12 10 33
DOCKED: USER                              x       y       z     vdW  Elec       q    Type
DOCKED: USER                           _______ _______ _______ _____ _____    ______ ____
DOCKED: ROOT
DOCKED: ATOM      1  N   UNL     1     143.237  73.219 220.510 -0.13 +0.06    -0.335 N  
DOCKED: ATOM      2  C   UNL     1     144.322  72.267 220.534 -0.29 -0.02    +0.151 C  
DOCKED: ATOM      3  C   UNL     1     145.554  73.097 220.418 -0.49 -0.00    +0.136 C  
DOCKED: ATOM      4  C   UNL     1     145.118  74.520 220.470 -0.38 -0.02    +0.059 C  
DOCKED: ATOM      5  C   UNL     1     143.679  74.541 220.133 -0.36 -0.04    +0.091 C  
DOCKED: ENDROOT
DOCKED: BRANCH   1   6
DOCKED: ATOM      6  C   UNL     1     141.881  72.917 220.818 -0.16 -0.03    +0.242 C  
DOCKED: ATOM      7  O   UNL     1     141.545  71.925 221.536 -0.17 +0.02    -0.273 OA 
DOCKED: BRANCH   6   8
DOCKED: ATOM      8  C   UNL     1     140.771  73.788 220.291 -0.11 -0.04    +0.216 C  
DOCKED: BRANCH   8   9
DOCKED: ATOM      9  N   UNL     1     140.903  75.139 220.767 -0.11 +0.09    -0.342 N  
DOCKED: ATOM     10  C   UNL     1     140.093  75.579 221.861 -0.22 -0.05    +0.270 C  
DOCKED: ATOM     11  O   UNL     1     139.273  74.779 222.394 -0.61 +0.05    -0.268 OA 
DOCKED: ATOM     12  H   UNL     1     141.573  75.823 220.344 +0.04 -0.07    +0.164 HD 
DOCKED: BRANCH  10  13
DOCKED: ATOM     13  C   UNL     1     140.236  76.952 222.336 -0.34 -0.03    +0.128 A  
DOCKED: ATOM     14  C   UNL     1     139.106  77.657 222.650 -0.29 -0.01    +0.035 A  
DOCKED: ATOM     15  N   UNL     1     141.433  77.557 222.479 -0.19 +0.12    -0.243 NA 
DOCKED: ATOM     16  C   UNL     1     139.234  78.973 223.106 -0.35 -0.00    +0.013 A  
DOCKED: ATOM     17  C   UNL     1     141.590  78.800 222.908 -0.49 -0.03    +0.071 A  
DOCKED: ATOM     18  C   UNL     1     140.481  79.536 223.231 -0.46 -0.00    +0.000 A  
DOCKED: ATOM     19  C   UNL     1     142.831  79.383 223.042 -0.53 -0.01    +0.029 A  
DOCKED: ATOM     20  C   UNL     1     140.537  80.838 223.688 -0.42 -0.00    +0.010 A  
DOCKED: ATOM     21  C   UNL     1     142.908  80.692 223.498 -0.66 -0.00    +0.002 A  
DOCKED: ATOM     22  C   UNL     1     141.793  81.429 223.823 -0.56 -0.00    +0.001 A  
DOCKED: ENDBRANCH  10  13
DOCKED: ENDBRANCH   8   9
DOCKED: ENDBRANCH   6   8
DOCKED: ENDBRANCH   1   6
DOCKED: BRANCH   5  23
DOCKED: ATOM     23  C   UNL     1     143.342  74.832 218.695 -0.22 -0.03    +0.067 C  
DOCKED: BRANCH  23  24
DOCKED: ATOM     24  C   UNL     1     143.387  76.256 218.292 -0.18 -0.14    +0.231 C  
DOCKED: BRANCH  24  25
DOCKED: ATOM     25  O   UNL     1     142.406  76.997 218.925 -0.10 +0.29    -0.494 OA 
DOCKED: BRANCH  25  26
DOCKED: ATOM     26  C   UNL     1     142.104  78.309 218.981 -0.24 -0.08    +0.119 A  
DOCKED: ATOM     27  C   UNL     1     142.866  79.173 218.181 -0.26 -0.05    +0.046 A  
DOCKED: ATOM     28  C   UNL     1     141.125  78.914 219.732 -0.20 -0.02    +0.046 A  
DOCKED: ATOM     29  C   UNL     1     142.647  80.528 218.153 -0.35 -0.00    +0.004 A  
DOCKED: ATOM     30  C   UNL     1     140.902  80.294 219.705 -0.21 -0.00    +0.004 A  
DOCKED: ATOM     31  C   UNL     1     141.662  81.110 218.915 -0.27 -0.00    +0.000 A  
DOCKED: ENDBRANCH  25  26
DOCKED: ENDBRANCH  24  25
DOCKED: ENDBRANCH  23  24
DOCKED: ENDBRANCH   5  23
DOCKED: BRANCH   3  32
DOCKED: ATOM     32  O   UNL     1     146.377  72.757 221.518 -0.34 +0.06    -0.391 OA 
DOCKED: ATOM     33  H   UNL     1     146.032  71.910 221.929 -0.42 -0.20    +0.211 HD 
DOCKED: ENDBRANCH   3  32
DOCKED: TORSDOF 9
DOCKED: TER
DOCKED: ENDMDL
________________________________________________________________________________


    FINAL DOCKED STATE:
    ________________________


Run:   4 / 20
Time taken for this run:   0.059s

DOCKED: MODEL        4
DOCKED: USER    Run = 4
DOCKED: USER
DOCKED: USER    Estimated Free Energy of Binding    =  -9.00 kcal/mol  [=(1)+(2)+(3)-(4)]
DOCKED: USER
DOCKED: USER    (1) Final Intermolecular Energy     = -11.68 kcal/mol
DOCKED: USER        vdW + Hbond + desolv Energy     = -11.56 kcal/mol
DOCKED: USER        Electrostatic Energy            =  -0.12 kcal/mol
DOCKED: USER        Moving Ligand-Fixed Receptor    = -11.68 kcal/mol
DOCKED: USER        Moving Ligand-Moving Receptor   =  +0.00 kcal/mol
DOCKED: USER    (2) Final Total Internal Energy     =  -1.63 kcal/mol
DOCKED: USER    (3) Torsional Free Energy           =  +2.68 kcal/mol
DOCKED: USER    (4) Unbound System's Energy         =  -1.63 kcal/mol
DOCKED: USER
DOCKED: USER
DOCKED: REMARK SMILES O=C(NCC(=O)N1C[C@H](O)C[C@H]1CCOc1ccccc1)c1ccc2ccccc2n1
DOCKED: REMARK SMILES IDX 7 1 8 2 9 3 11 4 12 5 5 6 6 7 4 8 3 9 2 10 1 11 22 13 23 14
DOCKED: REMARK SMILES IDX 31 15 24 16 30 17 25 18 29 19 26 20 28 21 27 22 13 23 14 24
DOCKED: REMARK SMILES IDX 15 25 16 26 17 27 21 28 18 29 20 30 19 31 10 32
DOCKED: REMARK H PARENT 3 12 10 33
DOCKED: USER                              x       y       z     vdW  Elec       q    Type
DOCKED: USER                           _______ _______ _______ _____ _____    ______ ____
DOCKED: ROOT
DOCKED: ATOM      1  N   UNL     1     141.755  75.116 220.441 -0.12 +0.12    -0.335 N  
DOCKED: ATOM      2  C   UNL     1     142.480  74.034 219.818 -0.18 -0.04    +0.151 C  
DOCKED: ATOM      3  C   UNL     1     143.694  74.675 219.242 -0.26 -0.05    +0.136 C  
DOCKED: ATOM      4  C   UNL     1     143.678  76.097 219.684 -0.35 -0.04    +0.059 C  
DOCKED: ATOM      5  C   UNL     1     142.287  76.408 220.079 -0.26 -0.05    +0.091 C  
DOCKED: ENDROOT
DOCKED: BRANCH   1   6
DOCKED: ATOM      6  C   UNL     1     140.643  74.957 221.314 -0.22 -0.05    +0.242 C  
DOCKED: ATOM      7  O   UNL     1     140.355  75.799 222.219 -0.47 +0.05    -0.273 OA 
DOCKED: BRANCH   6   8
DOCKED: ATOM      8  C   UNL     1     139.747  73.752 221.190 -0.16 -0.04    +0.216 C  
DOCKED: BRANCH   8   9
DOCKED: ATOM      9  N   UNL     1     139.701  73.012 222.422 -0.14 +0.06    -0.342 N  
DOCKED: ATOM     10  C   UNL     1     140.156  71.657 222.443 -0.20 -0.04    +0.270 C  
DOCKED: ATOM     11  O   UNL     1     140.590  71.127 221.382 -0.11 +0.04    -0.268 OA 
DOCKED: ATOM     12  H   UNL     1     139.344  73.427 223.316 -0.46 -0.07    +0.164 HD 
DOCKED: BRANCH  10  13
DOCKED: ATOM     13  C   UNL     1     140.105  70.915 223.700 -0.29 -0.02    +0.128 A  
DOCKED: ATOM     14  C   UNL     1     139.554  69.663 223.699 -0.25 -0.01    +0.035 A  
DOCKED: ATOM     15  N   UNL     1     140.578  71.410 224.862 -0.32 +0.04    -0.243 NA 
DOCKED: ATOM     16  C   UNL     1     139.501  68.946 224.898 -0.38 -0.00    +0.013 A  
DOCKED: ATOM     17  C   UNL     1     140.544  70.759 226.014 -0.53 -0.01    +0.071 A  
DOCKED: ATOM     18  C   UNL     1     139.999  69.503 226.051 -0.49 -0.00    +0.000 A  
DOCKED: ATOM     19  C   UNL     1     141.039  71.298 227.181 -0.71 -0.00    +0.029 A  
DOCKED: ATOM     20  C   UNL     1     139.917  68.741 227.200 -0.61 -0.00    +0.010 A  
DOCKED: ATOM     21  C   UNL     1     140.965  70.548 228.348 -0.57 -0.00    +0.002 A  
DOCKED: ATOM     22  C   UNL     1     140.418  69.287 228.383 -0.62 -0.00    +0.001 A  
DOCKED: ENDBRANCH  10  13
DOCKED: ENDBRANCH   8   9
DOCKED: ENDBRANCH   6   8
DOCKED: ENDBRANCH   1   6
DOCKED: BRANCH   5  23
DOCKED: ATOM     23  C   UNL     1     141.436  77.068 219.027 -0.17 -0.03    +0.067 C  
DOCKED: BRANCH  23  24
DOCKED: ATOM     24  C   UNL     1     140.444  78.052 219.516 -0.07 -0.09    +0.231 C  
DOCKED: BRANCH  24  25
DOCKED: ATOM     25  O   UNL     1     141.053  79.115 220.159 -0.04 +0.22    -0.494 OA 
DOCKED: BRANCH  25  26
DOCKED: ATOM     26  C   UNL     1     141.468  79.340 221.421 -0.31 -0.05    +0.119 A  
DOCKED: ATOM     27  C   UNL     1     142.150  80.541 221.664 -0.43 -0.02    +0.046 A  
DOCKED: ATOM     28  C   UNL     1     141.298  78.528 222.517 -0.45 -0.02    +0.046 A  
DOCKED: ATOM     29  C   UNL     1     142.615  80.879 222.911 -0.58 -0.00    +0.004 A  
DOCKED: ATOM     30  C   UNL     1     141.773  78.871 223.787 -0.62 -0.00    +0.004 A  
DOCKED: ATOM     31  C   UNL     1     142.435  80.050 223.992 -0.58 -0.00    +0.000 A  
DOCKED: ENDBRANCH  25  26
DOCKED: ENDBRANCH  24  25
DOCKED: ENDBRANCH  23  24
DOCKED: ENDBRANCH   5  23
DOCKED: BRANCH   3  32
DOCKED: ATOM     32  O   UNL     1     144.809  73.974 219.762 -0.21 +0.10    -0.391 OA 
DOCKED: ATOM     33  H   UNL     1     145.639  74.311 219.312 -0.37 -0.09    +0.211 HD 
DOCKED: ENDBRANCH   3  32
DOCKED: TORSDOF 9
DOCKED: TER
DOCKED: ENDMDL
________________________________________________________________________________


    FINAL DOCKED STATE:
    ________________________


Run:   5 / 20
Time taken for this run:   0.059s

DOCKED: MODEL        5
DOCKED: USER    Run = 5
DOCKED: USER
DOCKED: USER    Estimated Free Energy of Binding    =  -7.18 kcal/mol  [=(1)+(2)+(3)-(4)]
DOCKED: USER
DOCKED: USER    (1) Final Intermolecular Energy     =  -9.86 kcal/mol
DOCKED: USER        vdW + Hbond + desolv Energy     =  -9.69 kcal/mol
DOCKED: USER        Electrostatic Energy            =  -0.17 kcal/mol
DOCKED: USER        Moving Ligand-Fixed Receptor    =  -9.86 kcal/mol
DOCKED: USER        Moving Ligand-Moving Receptor   =  +0.00 kcal/mol
DOCKED: USER    (2) Final Total Internal Energy     =  -3.50 kcal/mol
DOCKED: USER    (3) Torsional Free Energy           =  +2.68 kcal/mol
DOCKED: USER    (4) Unbound System's Energy         =  -3.50 kcal/mol
DOCKED: USER
DOCKED: USER
DOCKED: REMARK SMILES O=C(NCC(=O)N1C[C@H](O)C[C@H]1CCOc1ccccc1)c1ccc2ccccc2n1
DOCKED: REMARK SMILES IDX 7 1 8 2 9 3 11 4 12 5 5 6 6 7 4 8 3 9 2 10 1 11 22 13 23 14
DOCKED: REMARK SMILES IDX 31 15 24 16 30 17 25 18 29 19 26 20 28 21 27 22 13 23 14 24
DOCKED: REMARK SMILES IDX 15 25 16 26 17 27 21 28 18 29 20 30 19 31 10 32
DOCKED: REMARK H PARENT 3 12 10 33
DOCKED: USER                              x       y       z     vdW  Elec       q    Type
DOCKED: USER                           _______ _______ _______ _____ _____    ______ ____
DOCKED: ROOT
DOCKED: ATOM      1  N   UNL     1     143.226  73.229 220.356 -0.12 +0.06    -0.335 N  
DOCKED: ATOM      2  C   UNL     1     144.336  72.315 220.481 -0.30 -0.02    +0.151 C  
DOCKED: ATOM      3  C   UNL     1     145.545  73.185 220.474 -0.50 -0.00    +0.136 C  
DOCKED: ATOM      4  C   UNL     1     145.059  74.593 220.480 -0.32 -0.02    +0.059 C  
DOCKED: ATOM      5  C   UNL     1     143.656  74.565 220.015 -0.35 -0.04    +0.091 C  
DOCKED: ENDROOT
DOCKED: BRANCH   1   6
DOCKED: ATOM      6  C   UNL     1     141.859  72.882 220.542 -0.14 -0.04    +0.242 C  
DOCKED: ATOM      7  O   UNL     1     141.494  71.865 221.207 -0.15 +0.03    -0.273 OA 
DOCKED: BRANCH   6   8
DOCKED: ATOM      8  C   UNL     1     140.771  73.735 219.943 -0.08 -0.05    +0.216 C  
DOCKED: BRANCH   8   9
DOCKED: ATOM      9  N   UNL     1     140.830  75.080 220.447 -0.08 +0.09    -0.342 N  
DOCKED: ATOM     10  C   UNL     1     140.217  75.385 221.703 -0.21 -0.05    +0.270 C  
DOCKED: ATOM     11  O   UNL     1     139.631  74.473 222.351 -0.78 +0.03    -0.268 OA 
DOCKED: ATOM     12  H   UNL     1     141.308  75.856 219.931 +0.05 -0.06    +0.164 HD 
DOCKED: BRANCH  10  13
DOCKED: ATOM     13  C   UNL     1     140.284  76.754 222.206 -0.33 -0.03    +0.128 A  
DOCKED: ATOM     14  C   UNL     1     139.126  77.359 222.616 -0.29 -0.01    +0.035 A  
DOCKED: ATOM     15  N   UNL     1     141.436  77.450 222.284 -0.15 +0.13    -0.243 NA 
DOCKED: ATOM     16  C   UNL     1     139.181  78.669 223.099 -0.34 -0.00    +0.013 A  
DOCKED: ATOM     17  C   UNL     1     141.524  78.692 222.736 -0.47 -0.03    +0.071 A  
DOCKED: ATOM     18  C   UNL     1     140.386  79.328 223.156 -0.45 -0.00    +0.000 A  
DOCKED: ATOM     19  C   UNL     1     142.721  79.370 222.802 -0.55 -0.01    +0.029 A  
DOCKED: ATOM     20  C   UNL     1     140.371  80.620 223.644 -0.43 -0.00    +0.010 A  
DOCKED: ATOM     21  C   UNL     1     142.726  80.671 223.289 -0.65 -0.00    +0.002 A  
DOCKED: ATOM     22  C   UNL     1     141.583  81.307 223.710 -0.54 -0.00    +0.001 A  
DOCKED: ENDBRANCH  10  13
DOCKED: ENDBRANCH   8   9
DOCKED: ENDBRANCH   6   8
DOCKED: ENDBRANCH   1   6
DOCKED: BRANCH   5  23
DOCKED: ATOM     23  C   UNL     1     143.441  74.844 218.551 -0.21 -0.03    +0.067 C  
DOCKED: BRANCH  23  24
DOCKED: ATOM     24  C   UNL     1     143.305  76.269 218.173 -0.20 -0.14    +0.231 C  
DOCKED: BRANCH  24  25
DOCKED: ATOM     25  O   UNL     1     142.123  76.811 218.644 -0.06 +0.26    -0.494 OA 
DOCKED: BRANCH  25  26
DOCKED: ATOM     26  C   UNL     1     141.698  78.063 218.901 -0.20 -0.07    +0.119 A  
DOCKED: ATOM     27  C   UNL     1     142.569  79.112 218.577 -0.28 -0.04    +0.046 A  
DOCKED: ATOM     28  C   UNL     1     140.495  78.446 219.447 -0.12 -0.02    +0.046 A  
DOCKED: ATOM     29  C   UNL     1     142.242  80.429 218.791 -0.33 -0.00    +0.004 A  
DOCKED: ATOM     30  C   UNL     1     140.162  79.786 219.666 -0.13 -0.00    +0.004 A  
DOCKED: ATOM     31  C   UNL     1     141.034  80.787 219.339 -0.21 -0.00    +0.000 A  
DOCKED: ENDBRANCH  25  26
DOCKED: ENDBRANCH  24  25
DOCKED: ENDBRANCH  23  24
DOCKED: ENDBRANCH   5  23
DOCKED: BRANCH   3  32
DOCKED: ATOM     32  O   UNL     1     146.276  72.874 221.645 -0.38 +0.08    -0.391 OA 
DOCKED: ATOM     33  H   UNL     1     146.040  71.944 221.935 -0.42 -0.20    +0.211 HD 
DOCKED: ENDBRANCH   3  32
DOCKED: TORSDOF 9
DOCKED: TER
DOCKED: ENDMDL
________________________________________________________________________________


    FINAL DOCKED STATE:
    ________________________


Run:   6 / 20
Time taken for this run:   0.059s

DOCKED: MODEL        6
DOCKED: USER    Run = 6
DOCKED: USER
DOCKED: USER    Estimated Free Energy of Binding    =  -6.97 kcal/mol  [=(1)+(2)+(3)-(4)]
DOCKED: USER
DOCKED: USER    (1) Final Intermolecular Energy     =  -9.66 kcal/mol
DOCKED: USER        vdW + Hbond + desolv Energy     =  -9.40 kcal/mol
DOCKED: USER        Electrostatic Energy            =  -0.26 kcal/mol
DOCKED: USER        Moving Ligand-Fixed Receptor    =  -9.66 kcal/mol
DOCKED: USER        Moving Ligand-Moving Receptor   =  +0.00 kcal/mol
DOCKED: USER    (2) Final Total Internal Energy     =  -2.76 kcal/mol
DOCKED: USER    (3) Torsional Free Energy           =  +2.68 kcal/mol
DOCKED: USER    (4) Unbound System's Energy         =  -2.76 kcal/mol
DOCKED: USER
DOCKED: USER
DOCKED: REMARK SMILES O=C(NCC(=O)N1C[C@H](O)C[C@H]1CCOc1ccccc1)c1ccc2ccccc2n1
DOCKED: REMARK SMILES IDX 7 1 8 2 9 3 11 4 12 5 5 6 6 7 4 8 3 9 2 10 1 11 22 13 23 14
DOCKED: REMARK SMILES IDX 31 15 24 16 30 17 25 18 29 19 26 20 28 21 27 22 13 23 14 24
DOCKED: REMARK SMILES IDX 15 25 16 26 17 27 21 28 18 29 20 30 19 31 10 32
DOCKED: REMARK H PARENT 3 12 10 33
DOCKED: USER                              x       y       z     vdW  Elec       q    Type
DOCKED: USER                           _______ _______ _______ _____ _____    ______ ____
DOCKED: ROOT
DOCKED: ATOM      1  N   UNL     1     141.836  72.867 220.247 -0.06 +0.06    -0.335 N  
DOCKED: ATOM      2  C   UNL     1     141.385  71.907 219.267 -0.05 -0.02    +0.151 C  
DOCKED: ATOM      3  C   UNL     1     142.372  70.794 219.347 -0.09 -0.02    +0.136 C  
DOCKED: ATOM      4  C   UNL     1     143.282  71.110 220.483 -0.17 -0.01    +0.059 C  
DOCKED: ATOM      5  C   UNL     1     143.157  72.560 220.743 -0.24 -0.01    +0.091 C  
DOCKED: ENDROOT
DOCKED: BRANCH   1   6
DOCKED: ATOM      6  C   UNL     1     141.087  73.992 220.691 -0.16 -0.05    +0.242 C  
DOCKED: ATOM      7  O   UNL     1     141.518  75.182 220.599 -0.18 +0.09    -0.273 OA 
DOCKED: BRANCH   6   8
DOCKED: ATOM      8  C   UNL     1     139.722  73.803 221.299 -0.17 -0.04    +0.216 C  
DOCKED: BRANCH   8   9
DOCKED: ATOM      9  N   UNL     1     139.802  73.063 222.530 -0.12 +0.05    -0.342 N  
DOCKED: ATOM     10  C   UNL     1     139.767  71.633 222.491 -0.19 -0.05    +0.270 C  
DOCKED: ATOM     11  O   UNL     1     139.666  71.040 221.381 -0.09 +0.05    -0.268 OA 
DOCKED: ATOM     12  H   UNL     1     139.885  73.529 223.463 -0.36 +0.01    +0.164 HD 
DOCKED: BRANCH  10  13
DOCKED: ATOM     13  C   UNL     1     139.849  70.893 223.746 -0.31 -0.02    +0.128 A  
DOCKED: ATOM     14  C   UNL     1     139.387  69.605 223.778 -0.26 -0.01    +0.035 A  
DOCKED: ATOM     15  N   UNL     1     140.362  71.421 224.876 -0.31 +0.04    -0.243 NA 
DOCKED: ATOM     16  C   UNL     1     139.462  68.888 224.976 -0.40 -0.00    +0.013 A  
DOCKED: ATOM     17  C   UNL     1     140.449  70.771 226.026 -0.53 -0.01    +0.071 A  
DOCKED: ATOM     18  C   UNL     1     139.995  69.480 226.095 -0.50 -0.00    +0.000 A  
DOCKED: ATOM     19  C   UNL     1     140.980  71.345 227.160 -0.71 -0.00    +0.029 A  
DOCKED: ATOM     20  C   UNL     1     140.041  68.717 227.246 -0.62 -0.00    +0.010 A  
DOCKED: ATOM     21  C   UNL     1     141.034  70.593 228.327 -0.59 -0.00    +0.002 A  
DOCKED: ATOM     22  C   UNL     1     140.578  69.298 228.394 -0.61 -0.00    +0.001 A  
DOCKED: ENDBRANCH  10  13
DOCKED: ENDBRANCH   8   9
DOCKED: ENDBRANCH   6   8
DOCKED: ENDBRANCH   1   6
DOCKED: BRANCH   5  23
DOCKED: ATOM     23  C   UNL     1     144.194  73.438 220.096 -0.37 -0.01    +0.067 C  
DOCKED: BRANCH  23  24
DOCKED: ATOM     24  C   UNL     1     145.590  72.950 220.158 -0.38 +0.02    +0.231 C  
DOCKED: BRANCH  24  25
DOCKED: ATOM     25  O   UNL     1     145.941  72.258 219.013 -0.59 -0.48    -0.494 OA 
DOCKED: BRANCH  25  26
DOCKED: ATOM     26  C   UNL     1     145.726  71.005 218.566 -0.13 +0.09    +0.119 A  
DOCKED: ATOM     27  C   UNL     1     146.247  69.955 219.335 -0.27 +0.03    +0.046 A  
DOCKED: ATOM     28  C   UNL     1     145.046  70.624 217.434 -0.13 +0.01    +0.046 A  
DOCKED: ATOM     29  C   UNL     1     146.087  68.638 218.980 -0.42 +0.00    +0.004 A  
DOCKED: ATOM     30  C   UNL     1     144.883  69.283 217.071 -0.12 -0.00    +0.004 A  
DOCKED: ATOM     31  C   UNL     1     145.403  68.281 217.843 -0.27 -0.00    +0.000 A  
DOCKED: ENDBRANCH  25  26
DOCKED: ENDBRANCH  24  25
DOCKED: ENDBRANCH  23  24
DOCKED: ENDBRANCH   5  23
DOCKED: BRANCH   3  32
DOCKED: ATOM     32  O   UNL     1     141.630  69.610 219.579 -0.05 +0.06    -0.391 OA 
DOCKED: ATOM     33  H   UNL     1     140.826  69.838 220.132 +0.04 -0.03    +0.211 HD 
DOCKED: ENDBRANCH   3  32
DOCKED: TORSDOF 9
DOCKED: TER
DOCKED: ENDMDL
________________________________________________________________________________


    FINAL DOCKED STATE:
    ________________________


Run:   7 / 20
Time taken for this run:   0.059s

DOCKED: MODEL        7
DOCKED: USER    Run = 7
DOCKED: USER
DOCKED: USER    Estimated Free Energy of Binding    =  -8.93 kcal/mol  [=(1)+(2)+(3)-(4)]
DOCKED: USER
DOCKED: USER    (1) Final Intermolecular Energy     = -11.62 kcal/mol
DOCKED: USER        vdW + Hbond + desolv Energy     = -11.57 kcal/mol
DOCKED: USER        Electrostatic Energy            =  -0.05 kcal/mol
DOCKED: USER        Moving Ligand-Fixed Receptor    = -11.62 kcal/mol
DOCKED: USER        Moving Ligand-Moving Receptor   =  +0.00 kcal/mol
DOCKED: USER    (2) Final Total Internal Energy     =  -1.62 kcal/mol
DOCKED: USER    (3) Torsional Free Energy           =  +2.68 kcal/mol
DOCKED: USER    (4) Unbound System's Energy         =  -1.62 kcal/mol
DOCKED: USER
DOCKED: USER
DOCKED: REMARK SMILES O=C(NCC(=O)N1C[C@H](O)C[C@H]1CCOc1ccccc1)c1ccc2ccccc2n1
DOCKED: REMARK SMILES IDX 7 1 8 2 9 3 11 4 12 5 5 6 6 7 4 8 3 9 2 10 1 11 22 13 23 14
DOCKED: REMARK SMILES IDX 31 15 24 16 30 17 25 18 29 19 26 20 28 21 27 22 13 23 14 24
DOCKED: REMARK SMILES IDX 15 25 16 26 17 27 21 28 18 29 20 30 19 31 10 32
DOCKED: REMARK H PARENT 3 12 10 33
DOCKED: USER                              x       y       z     vdW  Elec       q    Type
DOCKED: USER                           _______ _______ _______ _____ _____    ______ ____
DOCKED: ROOT
DOCKED: ATOM      1  N   UNL     1     141.805  75.212 220.542 -0.13 +0.12    -0.335 N  
DOCKED: ATOM      2  C   UNL     1     142.583  74.118 220.010 -0.21 -0.04    +0.151 C  
DOCKED: ATOM      3  C   UNL     1     143.775  74.766 219.395 -0.27 -0.06    +0.136 C  
DOCKED: ATOM      4  C   UNL     1     143.693  76.215 219.727 -0.32 -0.04    +0.059 C  
DOCKED: ATOM      5  C   UNL     1     142.286  76.495 220.086 -0.27 -0.05    +0.091 C  
DOCKED: ENDROOT
DOCKED: BRANCH   1   6
DOCKED: ATOM      6  C   UNL     1     140.691  75.071 221.416 -0.23 -0.05    +0.242 C  
DOCKED: ATOM      7  O   UNL     1     140.416  75.920 222.318 -0.45 +0.05    -0.273 OA 
DOCKED: BRANCH   6   8
DOCKED: ATOM      8  C   UNL     1     139.777  73.880 221.295 -0.18 -0.04    +0.216 C  
DOCKED: BRANCH   8   9
DOCKED: ATOM      9  N   UNL     1     139.761  73.115 222.513 -0.11 +0.05    -0.342 N  
DOCKED: ATOM     10  C   UNL     1     140.020  71.709 222.460 -0.20 -0.04    +0.270 C  
DOCKED: ATOM     11  O   UNL     1     140.257  71.158 221.350 -0.10 +0.04    -0.268 OA 
DOCKED: ATOM     12  H   UNL     1     139.566  73.546 223.447 -0.45 -0.05    +0.164 HD 
DOCKED: BRANCH  10  13
DOCKED: ATOM     13  C   UNL     1     140.001  70.942 223.703 -0.30 -0.02    +0.128 A  
DOCKED: ATOM     14  C   UNL     1     139.464  69.684 223.688 -0.25 -0.01    +0.035 A  
DOCKED: ATOM     15  N   UNL     1     140.491  71.420 224.866 -0.32 +0.04    -0.243 NA 
DOCKED: ATOM     16  C   UNL     1     139.442  68.943 224.874 -0.38 -0.00    +0.013 A  
DOCKED: ATOM     17  C   UNL     1     140.487  70.745 226.005 -0.53 -0.01    +0.071 A  
DOCKED: ATOM     18  C   UNL     1     139.957  69.482 226.027 -0.49 -0.00    +0.000 A  
DOCKED: ATOM     19  C   UNL     1     140.998  71.267 227.173 -0.70 -0.00    +0.029 A  
DOCKED: ATOM     20  C   UNL     1     139.905  68.697 227.163 -0.61 -0.00    +0.010 A  
DOCKED: ATOM     21  C   UNL     1     140.955  70.493 228.325 -0.58 -0.00    +0.002 A  
DOCKED: ATOM     22  C   UNL     1     140.422  69.226 228.346 -0.64 -0.00    +0.001 A  
DOCKED: ENDBRANCH  10  13
DOCKED: ENDBRANCH   8   9
DOCKED: ENDBRANCH   6   8
DOCKED: ENDBRANCH   1   6
DOCKED: BRANCH   5  23
DOCKED: ATOM     23  C   UNL     1     141.419  77.035 218.980 -0.17 -0.03    +0.067 C  
DOCKED: BRANCH  23  24
DOCKED: ATOM     24  C   UNL     1     140.982  78.442 219.124 -0.11 -0.11    +0.231 C  
DOCKED: BRANCH  24  25
DOCKED: ATOM     25  O   UNL     1     141.840  79.163 219.935 -0.09 +0.29    -0.494 OA 
DOCKED: BRANCH  25  26
DOCKED: ATOM     26  C   UNL     1     141.828  79.522 221.233 -0.32 -0.06    +0.119 A  
DOCKED: ATOM     27  C   UNL     1     141.873  80.895 221.515 -0.40 -0.01    +0.046 A  
DOCKED: ATOM     28  C   UNL     1     141.775  78.698 222.332 -0.44 -0.02    +0.046 A  
DOCKED: ATOM     29  C   UNL     1     141.863  81.379 222.801 -0.53 -0.00    +0.004 A  
DOCKED: ATOM     30  C   UNL     1     141.765  79.190 223.640 -0.61 -0.00    +0.004 A  
DOCKED: ATOM     31  C   UNL     1     141.809  80.534 223.883 -0.57 -0.00    +0.000 A  
DOCKED: ENDBRANCH  25  26
DOCKED: ENDBRANCH  24  25
DOCKED: ENDBRANCH  23  24
DOCKED: ENDBRANCH   5  23
DOCKED: BRANCH   3  32
DOCKED: ATOM     32  O   UNL     1     144.912  74.155 219.976 -0.25 +0.12    -0.391 OA 
DOCKED: ATOM     33  H   UNL     1     145.735  74.516 219.530 -0.35 -0.11    +0.211 HD 
DOCKED: ENDBRANCH   3  32
DOCKED: TORSDOF 9
DOCKED: TER
DOCKED: ENDMDL
________________________________________________________________________________


    FINAL DOCKED STATE:
    ________________________


Run:   8 / 20
Time taken for this run:   0.059s

DOCKED: MODEL        8
DOCKED: USER    Run = 8
DOCKED: USER
DOCKED: USER    Estimated Free Energy of Binding    =  -7.61 kcal/mol  [=(1)+(2)+(3)-(4)]
DOCKED: USER
DOCKED: USER    (1) Final Intermolecular Energy     = -10.29 kcal/mol
DOCKED: USER        vdW + Hbond + desolv Energy     =  -9.90 kcal/mol
DOCKED: USER        Electrostatic Energy            =  -0.40 kcal/mol
DOCKED: USER        Moving Ligand-Fixed Receptor    = -10.29 kcal/mol
DOCKED: USER        Moving Ligand-Moving Receptor   =  +0.00 kcal/mol
DOCKED: USER    (2) Final Total Internal Energy     =  -3.12 kcal/mol
DOCKED: USER    (3) Torsional Free Energy           =  +2.68 kcal/mol
DOCKED: USER    (4) Unbound System's Energy         =  -3.12 kcal/mol
DOCKED: USER
DOCKED: USER
DOCKED: REMARK SMILES O=C(NCC(=O)N1C[C@H](O)C[C@H]1CCOc1ccccc1)c1ccc2ccccc2n1
DOCKED: REMARK SMILES IDX 7 1 8 2 9 3 11 4 12 5 5 6 6 7 4 8 3 9 2 10 1 11 22 13 23 14
DOCKED: REMARK SMILES IDX 31 15 24 16 30 17 25 18 29 19 26 20 28 21 27 22 13 23 14 24
DOCKED: REMARK SMILES IDX 15 25 16 26 17 27 21 28 18 29 20 30 19 31 10 32
DOCKED: REMARK H PARENT 3 12 10 33
DOCKED: USER                              x       y       z     vdW  Elec       q    Type
DOCKED: USER                           _______ _______ _______ _____ _____    ______ ____
DOCKED: ROOT
DOCKED: ATOM      1  N   UNL     1     143.353  73.184 220.153 -0.11 +0.06    -0.335 N  
DOCKED: ATOM      2  C   UNL     1     144.109  72.421 219.188 -0.17 -0.00    +0.151 C  
DOCKED: ATOM      3  C   UNL     1     145.504  72.923 219.320 -0.31 +0.04    +0.136 C  
DOCKED: ATOM      4  C   UNL     1     145.512  73.872 220.467 -0.55 -0.01    +0.059 C  
DOCKED: ATOM      5  C   UNL     1     144.111  74.290 220.687 -0.26 -0.03    +0.091 C  
DOCKED: ENDROOT
DOCKED: BRANCH   1   6
DOCKED: ATOM      6  C   UNL     1     142.016  72.900 220.550 -0.14 -0.04    +0.242 C  
DOCKED: ATOM      7  O   UNL     1     141.727  71.984 221.379 -0.16 +0.03    -0.273 OA 
DOCKED: BRANCH   6   8
DOCKED: ATOM      8  C   UNL     1     140.871  73.700 219.986 -0.09 -0.04    +0.216 C  
DOCKED: BRANCH   8   9
DOCKED: ATOM      9  N   UNL     1     140.881  75.046 220.492 -0.08 +0.09    -0.342 N  
DOCKED: ATOM     10  C   UNL     1     140.217  75.336 221.726 -0.21 -0.05    +0.270 C  
DOCKED: ATOM     11  O   UNL     1     139.630  74.410 222.352 -0.78 +0.03    -0.268 OA 
DOCKED: ATOM     12  H   UNL     1     141.358  75.833 219.993 +0.05 -0.06    +0.164 HD 
DOCKED: BRANCH  10  13
DOCKED: ATOM     13  C   UNL     1     140.233  76.705 222.230 -0.33 -0.03    +0.128 A  
DOCKED: ATOM     14  C   UNL     1     139.042  77.310 222.525 -0.29 -0.01    +0.035 A  
DOCKED: ATOM     15  N   UNL     1     141.373  77.402 222.420 -0.16 +0.12    -0.243 NA 
DOCKED: ATOM     16  C   UNL     1     139.048  78.621 223.009 -0.32 -0.00    +0.013 A  
DOCKED: ATOM     17  C   UNL     1     141.416  78.644 222.877 -0.49 -0.03    +0.071 A  
DOCKED: ATOM     18  C   UNL     1     140.241  79.281 223.182 -0.44 -0.00    +0.000 A  
DOCKED: ATOM     19  C   UNL     1     142.600  79.324 223.058 -0.56 -0.01    +0.029 A  
DOCKED: ATOM     20  C   UNL     1     140.178  80.573 223.664 -0.42 -0.00    +0.010 A  
DOCKED: ATOM     21  C   UNL     1     142.557  80.625 223.542 -0.67 -0.00    +0.002 A  
DOCKED: ATOM     22  C   UNL     1     141.378  81.262 223.848 -0.50 -0.00    +0.001 A  
DOCKED: ENDBRANCH  10  13
DOCKED: ENDBRANCH   8   9
DOCKED: ENDBRANCH   6   8
DOCKED: ENDBRANCH   1   6
DOCKED: BRANCH   5  23
DOCKED: ATOM     23  C   UNL     1     143.701  75.587 220.042 -0.26 -0.04    +0.067 C  
DOCKED: BRANCH  23  24
DOCKED: ATOM     24  C   UNL     1     143.406  75.528 218.592 -0.17 -0.12    +0.231 C  
DOCKED: BRANCH  24  25
DOCKED: ATOM     25  O   UNL     1     142.436  76.445 218.230 -0.06 +0.26    -0.494 OA 
DOCKED: BRANCH  25  26
DOCKED: ATOM     26  C   UNL     1     142.192  77.732 218.544 -0.24 -0.08    +0.119 A  
DOCKED: ATOM     27  C   UNL     1     142.926  78.707 217.854 -0.28 -0.05    +0.046 A  
DOCKED: ATOM     28  C   UNL     1     141.297  78.215 219.469 -0.20 -0.02    +0.046 A  
DOCKED: ATOM     29  C   UNL     1     142.760  80.051 218.088 -0.32 -0.00    +0.004 A  
DOCKED: ATOM     30  C   UNL     1     141.128  79.582 219.708 -0.23 -0.00    +0.004 A  
DOCKED: ATOM     31  C   UNL     1     141.859  80.509 219.019 -0.30 -0.00    +0.000 A  
DOCKED: ENDBRANCH  25  26
DOCKED: ENDBRANCH  24  25
DOCKED: ENDBRANCH  23  24
DOCKED: ENDBRANCH   5  23
DOCKED: BRANCH   3  32
DOCKED: ATOM     32  O   UNL     1     146.321  71.793 219.565 -0.42 -0.41    -0.391 OA 
DOCKED: ATOM     33  H   UNL     1     146.221  71.525 220.526 -0.39 +0.02    +0.211 HD 
DOCKED: ENDBRANCH   3  32
DOCKED: TORSDOF 9
DOCKED: TER
DOCKED: ENDMDL
________________________________________________________________________________


    FINAL DOCKED STATE:
    ________________________


Run:   9 / 20
Time taken for this run:   0.059s

DOCKED: MODEL        9
DOCKED: USER    Run = 9
DOCKED: USER
DOCKED: USER    Estimated Free Energy of Binding    =  -8.75 kcal/mol  [=(1)+(2)+(3)-(4)]
DOCKED: USER
DOCKED: USER    (1) Final Intermolecular Energy     = -11.44 kcal/mol
DOCKED: USER        vdW + Hbond + desolv Energy     = -11.33 kcal/mol
DOCKED: USER        Electrostatic Energy            =  -0.11 kcal/mol
DOCKED: USER        Moving Ligand-Fixed Receptor    = -11.44 kcal/mol
DOCKED: USER        Moving Ligand-Moving Receptor   =  +0.00 kcal/mol
DOCKED: USER    (2) Final Total Internal Energy     =  -1.77 kcal/mol
DOCKED: USER    (3) Torsional Free Energy           =  +2.68 kcal/mol
DOCKED: USER    (4) Unbound System's Energy         =  -1.77 kcal/mol
DOCKED: USER
DOCKED: USER
DOCKED: REMARK SMILES O=C(NCC(=O)N1C[C@H](O)C[C@H]1CCOc1ccccc1)c1ccc2ccccc2n1
DOCKED: REMARK SMILES IDX 7 1 8 2 9 3 11 4 12 5 5 6 6 7 4 8 3 9 2 10 1 11 22 13 23 14
DOCKED: REMARK SMILES IDX 31 15 24 16 30 17 25 18 29 19 26 20 28 21 27 22 13 23 14 24
DOCKED: REMARK SMILES IDX 15 25 16 26 17 27 21 28 18 29 20 30 19 31 10 32
DOCKED: REMARK H PARENT 3 12 10 33
DOCKED: USER                              x       y       z     vdW  Elec       q    Type
DOCKED: USER                           _______ _______ _______ _____ _____    ______ ____
DOCKED: ROOT
DOCKED: ATOM      1  N   UNL     1     140.799  76.113 220.772 -0.10 +0.11    -0.335 N  
DOCKED: ATOM      2  C   UNL     1     141.535  75.718 219.594 -0.15 -0.06    +0.151 C  
DOCKED: ATOM      3  C   UNL     1     142.270  76.945 219.180 -0.25 -0.08    +0.136 C  
DOCKED: ATOM      4  C   UNL     1     142.025  77.968 220.235 -0.22 -0.04    +0.059 C  
DOCKED: ATOM      5  C   UNL     1     140.816  77.542 220.973 -0.25 -0.04    +0.091 C  
DOCKED: ENDROOT
DOCKED: BRANCH   1   6
DOCKED: ATOM      6  C   UNL     1     140.126  75.218 221.651 -0.22 -0.04    +0.242 C  
DOCKED: ATOM      7  O   UNL     1     139.561  75.603 222.721 -0.48 +0.04    -0.273 OA 
DOCKED: BRANCH   6   8
DOCKED: ATOM      8  C   UNL     1     140.059  73.747 221.332 -0.19 -0.03    +0.216 C  
DOCKED: BRANCH   8   9
DOCKED: ATOM      9  N   UNL     1     139.935  72.963 222.531 -0.15 +0.04    -0.342 N  
DOCKED: ATOM     10  C   UNL     1     140.215  71.561 222.483 -0.20 -0.04    +0.270 C  
DOCKED: ATOM     11  O   UNL     1     140.565  71.030 221.392 -0.11 +0.04    -0.268 OA 
DOCKED: ATOM     12  H   UNL     1     139.646  73.377 223.448 -0.42 -0.04    +0.164 HD 
DOCKED: BRANCH  10  13
DOCKED: ATOM     13  C   UNL     1     140.086  70.775 223.706 -0.28 -0.02    +0.128 A  
DOCKED: ATOM     14  C   UNL     1     139.428  69.576 223.648 -0.24 -0.01    +0.035 A  
DOCKED: ATOM     15  N   UNL     1     140.588  71.177 224.892 -0.32 +0.03    -0.243 NA 
DOCKED: ATOM     16  C   UNL     1     139.300  68.816 224.815 -0.38 -0.00    +0.013 A  
DOCKED: ATOM     17  C   UNL     1     140.486  70.483 226.015 -0.51 -0.01    +0.071 A  
DOCKED: ATOM     18  C   UNL     1     139.833  69.279 225.994 -0.49 -0.00    +0.000 A  
DOCKED: ATOM     19  C   UNL     1     141.013  70.927 227.207 -0.65 -0.00    +0.029 A  
DOCKED: ATOM     20  C   UNL     1     139.673  68.480 227.109 -0.60 -0.00    +0.010 A  
DOCKED: ATOM     21  C   UNL     1     140.861  70.138 228.340 -0.57 -0.00    +0.002 A  
DOCKED: ATOM     22  C   UNL     1     140.206  68.930 228.317 -0.65 -0.00    +0.001 A  
DOCKED: ENDBRANCH  10  13
DOCKED: ENDBRANCH   8   9
DOCKED: ENDBRANCH   6   8
DOCKED: ENDBRANCH   1   6
DOCKED: BRANCH   5  23
DOCKED: ATOM     23  C   UNL     1     139.520  78.166 220.528 -0.11 -0.02    +0.067 C  
DOCKED: BRANCH  23  24
DOCKED: ATOM     24  C   UNL     1     138.568  78.523 221.603 -0.11 -0.05    +0.231 C  
DOCKED: BRANCH  24  25
DOCKED: ATOM     25  O   UNL     1     139.220  78.809 222.789 -0.08 +0.09    -0.494 OA 
DOCKED: BRANCH  25  26
DOCKED: ATOM     26  C   UNL     1     140.329  79.502 223.111 -0.36 -0.02    +0.119 A  
DOCKED: ATOM     27  C   UNL     1     140.396  80.835 222.680 -0.36 -0.01    +0.046 A  
DOCKED: ATOM     28  C   UNL     1     141.418  79.059 223.824 -0.57 -0.01    +0.046 A  
DOCKED: ATOM     29  C   UNL     1     141.476  81.639 222.952 -0.49 -0.00    +0.004 A  
DOCKED: ATOM     30  C   UNL     1     142.518  79.877 224.100 -0.47 -0.00    +0.004 A  
DOCKED: ATOM     31  C   UNL     1     142.554  81.173 223.666 -0.62 -0.00    +0.000 A  
DOCKED: ENDBRANCH  25  26
DOCKED: ENDBRANCH  24  25
DOCKED: ENDBRANCH  23  24
DOCKED: ENDBRANCH   5  23
DOCKED: BRANCH   3  32
DOCKED: ATOM     32  O   UNL     1     143.639  76.589 219.099 -0.24 +0.28    -0.391 OA 
DOCKED: ATOM     33  H   UNL     1     144.157  77.154 219.745 -0.49 -0.21    +0.211 HD 
DOCKED: ENDBRANCH   3  32
DOCKED: TORSDOF 9
DOCKED: TER
DOCKED: ENDMDL
________________________________________________________________________________


    FINAL DOCKED STATE:
    ________________________


Run:   10 / 20
Time taken for this run:   0.059s

DOCKED: MODEL        10
DOCKED: USER    Run = 10
DOCKED: USER
DOCKED: USER    Estimated Free Energy of Binding    =  -8.83 kcal/mol  [=(1)+(2)+(3)-(4)]
DOCKED: USER
DOCKED: USER    (1) Final Intermolecular Energy     = -11.52 kcal/mol
DOCKED: USER        vdW + Hbond + desolv Energy     = -11.47 kcal/mol
DOCKED: USER        Electrostatic Energy            =  -0.05 kcal/mol
DOCKED: USER        Moving Ligand-Fixed Receptor    = -11.52 kcal/mol
DOCKED: USER        Moving Ligand-Moving Receptor   =  +0.00 kcal/mol
DOCKED: USER    (2) Final Total Internal Energy     =  -1.63 kcal/mol
DOCKED: USER    (3) Torsional Free Energy           =  +2.68 kcal/mol
DOCKED: USER    (4) Unbound System's Energy         =  -1.63 kcal/mol
DOCKED: USER
DOCKED: USER
DOCKED: REMARK SMILES O=C(NCC(=O)N1C[C@H](O)C[C@H]1CCOc1ccccc1)c1ccc2ccccc2n1
DOCKED: REMARK SMILES IDX 7 1 8 2 9 3 11 4 12 5 5 6 6 7 4 8 3 9 2 10 1 11 22 13 23 14
DOCKED: REMARK SMILES IDX 31 15 24 16 30 17 25 18 29 19 26 20 28 21 27 22 13 23 14 24
DOCKED: REMARK SMILES IDX 15 25 16 26 17 27 21 28 18 29 20 30 19 31 10 32
DOCKED: REMARK H PARENT 3 12 10 33
DOCKED: USER                              x       y       z     vdW  Elec       q    Type
DOCKED: USER                           _______ _______ _______ _____ _____    ______ ____
DOCKED: ROOT
DOCKED: ATOM      1  N   UNL     1     141.714  75.189 220.483 -0.12 +0.12    -0.335 N  
DOCKED: ATOM      2  C   UNL     1     142.524  74.168 219.863 -0.19 -0.04    +0.151 C  
DOCKED: ATOM      3  C   UNL     1     143.673  74.906 219.269 -0.27 -0.06    +0.136 C  
DOCKED: ATOM      4  C   UNL     1     143.538  76.326 219.698 -0.33 -0.04    +0.059 C  
DOCKED: ATOM      5  C   UNL     1     142.129  76.519 220.104 -0.27 -0.05    +0.091 C  
DOCKED: ENDROOT
DOCKED: BRANCH   1   6
DOCKED: ATOM      6  C   UNL     1     140.628  74.943 221.369 -0.22 -0.05    +0.242 C  
DOCKED: ATOM      7  O   UNL     1     140.305  75.745 222.298 -0.50 +0.04    -0.273 OA 
DOCKED: BRANCH   6   8
DOCKED: ATOM      8  C   UNL     1     139.803  73.690 221.228 -0.17 -0.04    +0.216 C  
DOCKED: BRANCH   8   9
DOCKED: ATOM      9  N   UNL     1     139.763  72.956 222.464 -0.14 +0.06    -0.342 N  
DOCKED: ATOM     10  C   UNL     1     139.998  71.544 222.449 -0.20 -0.04    +0.270 C  
DOCKED: ATOM     11  O   UNL     1     140.234  70.962 221.354 -0.10 +0.04    -0.268 OA 
DOCKED: ATOM     12  H   UNL     1     139.569  73.413 223.386 -0.44 -0.05    +0.164 HD 
DOCKED: BRANCH  10  13
DOCKED: ATOM     13  C   UNL     1     139.955  70.809 223.709 -0.30 -0.02    +0.128 A  
DOCKED: ATOM     14  C   UNL     1     139.361  69.577 223.729 -0.26 -0.01    +0.035 A  
DOCKED: ATOM     15  N   UNL     1     140.476  71.291 224.856 -0.31 +0.04    -0.243 NA 
DOCKED: ATOM     16  C   UNL     1     139.316  68.865 224.932 -0.39 -0.00    +0.013 A  
DOCKED: ATOM     17  C   UNL     1     140.452  70.645 226.011 -0.52 -0.01    +0.071 A  
DOCKED: ATOM     18  C   UNL     1     139.865  69.408 226.068 -0.49 -0.00    +0.000 A  
DOCKED: ATOM     19  C   UNL     1     140.996  71.170 227.163 -0.69 -0.00    +0.029 A  
DOCKED: ATOM     20  C   UNL     1     139.788  68.654 227.222 -0.60 -0.00    +0.010 A  
DOCKED: ATOM     21  C   UNL     1     140.928  70.427 228.334 -0.57 -0.00    +0.002 A  
DOCKED: ATOM     22  C   UNL     1     140.339  69.186 228.389 -0.63 -0.00    +0.001 A  
DOCKED: ENDBRANCH  10  13
DOCKED: ENDBRANCH   8   9
DOCKED: ENDBRANCH   6   8
DOCKED: ENDBRANCH   1   6
DOCKED: BRANCH   5  23
DOCKED: ATOM     23  C   UNL     1     141.214  77.092 219.055 -0.15 -0.03    +0.067 C  
DOCKED: BRANCH  23  24
DOCKED: ATOM     24  C   UNL     1     140.841  78.514 219.224 -0.10 -0.10    +0.231 C  
DOCKED: BRANCH  24  25
DOCKED: ATOM     25  O   UNL     1     141.747  79.190 220.022 -0.09 +0.28    -0.494 OA 
DOCKED: BRANCH  25  26
DOCKED: ATOM     26  C   UNL     1     141.842  79.431 221.343 -0.33 -0.06    +0.119 A  
DOCKED: ATOM     27  C   UNL     1     141.089  78.612 222.197 -0.39 -0.02    +0.046 A  
DOCKED: ATOM     28  C   UNL     1     142.599  80.393 221.968 -0.44 -0.02    +0.046 A  
DOCKED: ATOM     29  C   UNL     1     141.109  78.763 223.562 -0.52 -0.00    +0.004 A  
DOCKED: ATOM     30  C   UNL     1     142.619  80.548 223.358 -0.67 -0.00    +0.004 A  
DOCKED: ATOM     31  C   UNL     1     141.874  79.733 224.164 -0.49 -0.00    +0.000 A  
DOCKED: ENDBRANCH  25  26
DOCKED: ENDBRANCH  24  25
DOCKED: ENDBRANCH  23  24
DOCKED: ENDBRANCH   5  23
DOCKED: BRANCH   3  32
DOCKED: ATOM     32  O   UNL     1     144.849  74.309 219.784 -0.20 +0.14    -0.391 OA 
DOCKED: ATOM     33  H   UNL     1     145.594  74.447 219.128 -0.37 -0.12    +0.211 HD 
DOCKED: ENDBRANCH   3  32
DOCKED: TORSDOF 9
DOCKED: TER
DOCKED: ENDMDL
________________________________________________________________________________


    FINAL DOCKED STATE:
    ________________________


Run:   11 / 20
Time taken for this run:   0.059s

DOCKED: MODEL        11
DOCKED: USER    Run = 11
DOCKED: USER
DOCKED: USER    Estimated Free Energy of Binding    =  -7.47 kcal/mol  [=(1)+(2)+(3)-(4)]
DOCKED: USER
DOCKED: USER    (1) Final Intermolecular Energy     = -10.16 kcal/mol
DOCKED: USER        vdW + Hbond + desolv Energy     = -10.01 kcal/mol
DOCKED: USER        Electrostatic Energy            =  -0.15 kcal/mol
DOCKED: USER        Moving Ligand-Fixed Receptor    = -10.16 kcal/mol
DOCKED: USER        Moving Ligand-Moving Receptor   =  +0.00 kcal/mol
DOCKED: USER    (2) Final Total Internal Energy     =  -3.22 kcal/mol
DOCKED: USER    (3) Torsional Free Energy           =  +2.68 kcal/mol
DOCKED: USER    (4) Unbound System's Energy         =  -3.22 kcal/mol
DOCKED: USER
DOCKED: USER
DOCKED: REMARK SMILES O=C(NCC(=O)N1C[C@H](O)C[C@H]1CCOc1ccccc1)c1ccc2ccccc2n1
DOCKED: REMARK SMILES IDX 7 1 8 2 9 3 11 4 12 5 5 6 6 7 4 8 3 9 2 10 1 11 22 13 23 14
DOCKED: REMARK SMILES IDX 31 15 24 16 30 17 25 18 29 19 26 20 28 21 27 22 13 23 14 24
DOCKED: REMARK SMILES IDX 15 25 16 26 17 27 21 28 18 29 20 30 19 31 10 32
DOCKED: REMARK H PARENT 3 12 10 33
DOCKED: USER                              x       y       z     vdW  Elec       q    Type
DOCKED: USER                           _______ _______ _______ _____ _____    ______ ____
DOCKED: ROOT
DOCKED: ATOM      1  N   UNL     1     143.230  73.243 220.550 -0.13 +0.06    -0.335 N  
DOCKED: ATOM      2  C   UNL     1     144.316  72.307 220.721 -0.27 -0.03    +0.151 C  
DOCKED: ATOM      3  C   UNL     1     145.549  73.129 220.570 -0.51 -0.01    +0.136 C  
DOCKED: ATOM      4  C   UNL     1     145.108  74.547 220.453 -0.34 -0.02    +0.059 C  
DOCKED: ATOM      5  C   UNL     1     143.684  74.521 220.055 -0.36 -0.04    +0.091 C  
DOCKED: ENDROOT
DOCKED: BRANCH   1   6
DOCKED: ATOM      6  C   UNL     1     141.863  72.966 220.831 -0.16 -0.03    +0.242 C  
DOCKED: ATOM      7  O   UNL     1     141.495  71.992 221.557 -0.17 +0.02    -0.273 OA 
DOCKED: BRANCH   6   8
DOCKED: ATOM      8  C   UNL     1     140.778  73.843 220.261 -0.11 -0.04    +0.216 C  
DOCKED: BRANCH   8   9
DOCKED: ATOM      9  N   UNL     1     140.905  75.196 220.733 -0.11 +0.09    -0.342 N  
DOCKED: ATOM     10  C   UNL     1     140.116  75.627 221.846 -0.22 -0.05    +0.270 C  
DOCKED: ATOM     11  O   UNL     1     139.318  74.818 222.397 -0.62 +0.05    -0.268 OA 
DOCKED: ATOM     12  H   UNL     1     141.558  75.887 220.294 +0.04 -0.07    +0.164 HD 
DOCKED: BRANCH  10  13
DOCKED: ATOM     13  C   UNL     1     140.254  77.002 222.316 -0.34 -0.03    +0.128 A  
DOCKED: ATOM     14  C   UNL     1     139.122  77.700 222.640 -0.29 -0.01    +0.035 A  
DOCKED: ATOM     15  N   UNL     1     141.448  77.615 222.446 -0.20 +0.12    -0.243 NA 
DOCKED: ATOM     16  C   UNL     1     139.245  79.017 223.092 -0.35 -0.00    +0.013 A  
DOCKED: ATOM     17  C   UNL     1     141.600  78.860 222.871 -0.49 -0.03    +0.071 A  
DOCKED: ATOM     18  C   UNL     1     140.489  79.589 223.205 -0.46 -0.00    +0.000 A  
DOCKED: ATOM     19  C   UNL     1     142.838  79.452 222.992 -0.54 -0.01    +0.029 A  
DOCKED: ATOM     20  C   UNL     1     140.541  80.892 223.658 -0.42 -0.00    +0.010 A  
DOCKED: ATOM     21  C   UNL     1     142.910  80.763 223.445 -0.64 -0.00    +0.002 A  
DOCKED: ATOM     22  C   UNL     1     141.794  81.493 223.780 -0.54 -0.00    +0.001 A  
DOCKED: ENDBRANCH  10  13
DOCKED: ENDBRANCH   8   9
DOCKED: ENDBRANCH   6   8
DOCKED: ENDBRANCH   1   6
DOCKED: BRANCH   5  23
DOCKED: ATOM     23  C   UNL     1     143.410  74.657 218.581 -0.20 -0.02    +0.067 C  
DOCKED: BRANCH  23  24
DOCKED: ATOM     24  C   UNL     1     143.391  76.038 218.047 -0.17 -0.13    +0.231 C  
DOCKED: BRANCH  24  25
DOCKED: ATOM     25  O   UNL     1     142.460  76.826 218.700 -0.10 +0.28    -0.494 OA 
DOCKED: BRANCH  25  26
DOCKED: ATOM     26  C   UNL     1     142.228  78.151 218.764 -0.25 -0.08    +0.119 A  
DOCKED: ATOM     27  C   UNL     1     141.169  78.574 219.580 -0.20 -0.02    +0.046 A  
DOCKED: ATOM     28  C   UNL     1     142.913  79.155 218.123 -0.25 -0.05    +0.046 A  
DOCKED: ATOM     29  C   UNL     1     140.841  79.900 219.726 -0.20 -0.00    +0.004 A  
DOCKED: ATOM     30  C   UNL     1     142.579  80.505 218.270 -0.35 -0.00    +0.004 A  
DOCKED: ATOM     31  C   UNL     1     141.541  80.886 219.073 -0.26 -0.00    +0.000 A  
DOCKED: ENDBRANCH  25  26
DOCKED: ENDBRANCH  24  25
DOCKED: ENDBRANCH  23  24
DOCKED: ENDBRANCH   5  23
DOCKED: BRANCH   3  32
DOCKED: ATOM     32  O   UNL     1     146.325  72.912 221.735 -0.40 +0.08    -0.391 OA 
DOCKED: ATOM     33  H   UNL     1     146.230  71.953 222.012 -0.38 -0.18    +0.211 HD 
DOCKED: ENDBRANCH   3  32
DOCKED: TORSDOF 9
DOCKED: TER
DOCKED: ENDMDL
________________________________________________________________________________


    FINAL DOCKED STATE:
    ________________________


Run:   12 / 20
Time taken for this run:   0.059s

DOCKED: MODEL        12
DOCKED: USER    Run = 12
DOCKED: USER
DOCKED: USER    Estimated Free Energy of Binding    =  -8.31 kcal/mol  [=(1)+(2)+(3)-(4)]
DOCKED: USER
DOCKED: USER    (1) Final Intermolecular Energy     = -11.00 kcal/mol
DOCKED: USER        vdW + Hbond + desolv Energy     = -10.92 kcal/mol
DOCKED: USER        Electrostatic Energy            =  -0.08 kcal/mol
DOCKED: USER        Moving Ligand-Fixed Receptor    = -11.00 kcal/mol
DOCKED: USER        Moving Ligand-Moving Receptor   =  +0.00 kcal/mol
DOCKED: USER    (2) Final Total Internal Energy     =  -1.67 kcal/mol
DOCKED: USER    (3) Torsional Free Energy           =  +2.68 kcal/mol
DOCKED: USER    (4) Unbound System's Energy         =  -1.67 kcal/mol
DOCKED: USER
DOCKED: USER
DOCKED: REMARK SMILES O=C(NCC(=O)N1C[C@H](O)C[C@H]1CCOc1ccccc1)c1ccc2ccccc2n1
DOCKED: REMARK SMILES IDX 7 1 8 2 9 3 11 4 12 5 5 6 6 7 4 8 3 9 2 10 1 11 22 13 23 14
DOCKED: REMARK SMILES IDX 31 15 24 16 30 17 25 18 29 19 26 20 28 21 27 22 13 23 14 24
DOCKED: REMARK SMILES IDX 15 25 16 26 17 27 21 28 18 29 20 30 19 31 10 32
DOCKED: REMARK H PARENT 3 12 10 33
DOCKED: USER                              x       y       z     vdW  Elec       q    Type
DOCKED: USER                           _______ _______ _______ _____ _____    ______ ____
DOCKED: ROOT
DOCKED: ATOM      1  N   UNL     1     142.075  74.181 220.835 -0.14 +0.08    -0.335 N  
DOCKED: ATOM      2  C   UNL     1     142.632  72.894 220.491 -0.21 -0.02    +0.151 C  
DOCKED: ATOM      3  C   UNL     1     144.027  73.188 220.063 -0.30 -0.02    +0.136 C  
DOCKED: ATOM      4  C   UNL     1     144.255  74.639 220.313 -0.38 -0.03    +0.059 C  
DOCKED: ATOM      5  C   UNL     1     142.923  75.272 220.413 -0.17 -0.05    +0.091 C  
DOCKED: ENDROOT
DOCKED: BRANCH   1   6
DOCKED: ATOM      6  C   UNL     1     140.839  74.382 221.510 -0.20 -0.03    +0.242 C  
DOCKED: ATOM      7  O   UNL     1     140.568  75.448 222.142 -0.54 +0.04    -0.273 OA 
DOCKED: BRANCH   6   8
DOCKED: ATOM      8  C   UNL     1     139.784  73.306 221.496 -0.18 -0.04    +0.216 C  
DOCKED: BRANCH   8   9
DOCKED: ATOM      9  N   UNL     1     139.842  72.510 222.692 -0.17 +0.06    -0.342 N  
DOCKED: ATOM     10  C   UNL     1     139.690  71.090 222.596 -0.17 -0.05    +0.270 C  
DOCKED: ATOM     11  O   UNL     1     139.505  70.556 221.468 -0.08 +0.05    -0.268 OA 
DOCKED: ATOM     12  H   UNL     1     139.992  72.927 223.641 -0.26 -0.03    +0.164 HD 
DOCKED: BRANCH  10  13
DOCKED: ATOM     13  C   UNL     1     139.750  70.292 223.817 -0.25 -0.02    +0.128 A  
DOCKED: ATOM     14  C   UNL     1     139.191  69.043 223.811 -0.27 -0.01    +0.035 A  
DOCKED: ATOM     15  N   UNL     1     140.334  70.730 224.951 -0.29 +0.04    -0.243 NA 
DOCKED: ATOM     16  C   UNL     1     139.245  68.270 224.975 -0.42 -0.00    +0.013 A  
DOCKED: ATOM     17  C   UNL     1     140.403  70.026 226.070 -0.47 -0.01    +0.071 A  
DOCKED: ATOM     18  C   UNL     1     139.854  68.771 226.101 -0.54 -0.00    +0.000 A  
DOCKED: ATOM     19  C   UNL     1     141.009  70.508 227.209 -0.60 -0.00    +0.029 A  
DOCKED: ATOM     20  C   UNL     1     139.874  67.957 227.216 -0.63 -0.00    +0.010 A  
DOCKED: ATOM     21  C   UNL     1     141.039  69.705 228.342 -0.58 -0.00    +0.002 A  
DOCKED: ATOM     22  C   UNL     1     140.487  68.446 228.370 -0.66 -0.00    +0.001 A  
DOCKED: ENDBRANCH  10  13
DOCKED: ENDBRANCH   8   9
DOCKED: ENDBRANCH   6   8
DOCKED: ENDBRANCH   1   6
DOCKED: BRANCH   5  23
DOCKED: ATOM     23  C   UNL     1     142.399  75.907 219.153 -0.25 -0.03    +0.067 C  
DOCKED: BRANCH  23  24
DOCKED: ATOM     24  C   UNL     1     142.084  77.351 219.234 -0.20 -0.14    +0.231 C  
DOCKED: BRANCH  24  25
DOCKED: ATOM     25  O   UNL     1     141.148  77.615 220.218 -0.04 +0.23    -0.494 OA 
DOCKED: BRANCH  25  26
DOCKED: ATOM     26  C   UNL     1     141.164  78.315 221.369 -0.28 -0.05    +0.119 A  
DOCKED: ATOM     27  C   UNL     1     139.986  78.320 222.129 -0.30 -0.01    +0.046 A  
DOCKED: ATOM     28  C   UNL     1     142.210  79.031 221.901 -0.40 -0.03    +0.046 A  
DOCKED: ATOM     29  C   UNL     1     139.886  78.995 223.321 -0.40 -0.00    +0.004 A  
DOCKED: ATOM     30  C   UNL     1     142.108  79.720 223.114 -0.61 -0.00    +0.004 A  
DOCKED: ATOM     31  C   UNL     1     140.945  79.706 223.832 -0.53 -0.00    +0.000 A  
DOCKED: ENDBRANCH  25  26
DOCKED: ENDBRANCH  24  25
DOCKED: ENDBRANCH  23  24
DOCKED: ENDBRANCH   5  23
DOCKED: BRANCH   3  32
DOCKED: ATOM     32  O   UNL     1     144.874  72.377 220.856 -0.21 +0.08    -0.391 OA 
DOCKED: ATOM     33  H   UNL     1     144.379  71.542 221.106 -0.22 -0.07    +0.211 HD 
DOCKED: ENDBRANCH   3  32
DOCKED: TORSDOF 9
DOCKED: TER
DOCKED: ENDMDL
________________________________________________________________________________


    FINAL DOCKED STATE:
    ________________________


Run:   13 / 20
Time taken for this run:   0.059s

DOCKED: MODEL        13
DOCKED: USER    Run = 13
DOCKED: USER
DOCKED: USER    Estimated Free Energy of Binding    =  -8.66 kcal/mol  [=(1)+(2)+(3)-(4)]
DOCKED: USER
DOCKED: USER    (1) Final Intermolecular Energy     = -11.34 kcal/mol
DOCKED: USER        vdW + Hbond + desolv Energy     = -11.20 kcal/mol
DOCKED: USER        Electrostatic Energy            =  -0.14 kcal/mol
DOCKED: USER        Moving Ligand-Fixed Receptor    = -11.34 kcal/mol
DOCKED: USER        Moving Ligand-Moving Receptor   =  +0.00 kcal/mol
DOCKED: USER    (2) Final Total Internal Energy     =  -1.74 kcal/mol
DOCKED: USER    (3) Torsional Free Energy           =  +2.68 kcal/mol
DOCKED: USER    (4) Unbound System's Energy         =  -1.74 kcal/mol
DOCKED: USER
DOCKED: USER
DOCKED: REMARK SMILES O=C(NCC(=O)N1C[C@H](O)C[C@H]1CCOc1ccccc1)c1ccc2ccccc2n1
DOCKED: REMARK SMILES IDX 7 1 8 2 9 3 11 4 12 5 5 6 6 7 4 8 3 9 2 10 1 11 22 13 23 14
DOCKED: REMARK SMILES IDX 31 15 24 16 30 17 25 18 29 19 26 20 28 21 27 22 13 23 14 24
DOCKED: REMARK SMILES IDX 15 25 16 26 17 27 21 28 18 29 20 30 19 31 10 32
DOCKED: REMARK H PARENT 3 12 10 33
DOCKED: USER                              x       y       z     vdW  Elec       q    Type
DOCKED: USER                           _______ _______ _______ _____ _____    ______ ____
DOCKED: ROOT
DOCKED: ATOM      1  N   UNL     1     141.426  75.628 219.964 -0.07 +0.12    -0.335 N  
DOCKED: ATOM      2  C   UNL     1     141.909  74.759 218.917 -0.09 -0.05    +0.151 C  
DOCKED: ATOM      3  C   UNL     1     142.839  75.608 218.121 -0.17 -0.06    +0.136 C  
DOCKED: ATOM      4  C   UNL     1     142.953  76.908 218.839 -0.33 -0.04    +0.059 C  
DOCKED: ATOM      5  C   UNL     1     141.779  77.009 219.733 -0.24 -0.05    +0.091 C  
DOCKED: ENDROOT
DOCKED: BRANCH   1   6
DOCKED: ATOM      6  C   UNL     1     140.686  75.201 221.102 -0.21 -0.06    +0.242 C  
DOCKED: ATOM      7  O   UNL     1     140.722  75.814 222.213 -0.44 +0.05    -0.273 OA 
DOCKED: BRANCH   6   8
DOCKED: ATOM      8  C   UNL     1     139.813  73.976 221.023 -0.15 -0.04    +0.216 C  
DOCKED: BRANCH   8   9
DOCKED: ATOM      9  N   UNL     1     139.779  73.283 222.283 -0.15 +0.05    -0.342 N  
DOCKED: ATOM     10  C   UNL     1     140.062  71.881 222.319 -0.20 -0.04    +0.270 C  
DOCKED: ATOM     11  O   UNL     1     140.334  71.270 221.248 -0.10 +0.04    -0.268 OA 
DOCKED: ATOM     12  H   UNL     1     139.555  73.764 223.185 -0.50 -0.03    +0.164 HD 
DOCKED: BRANCH  10  13
DOCKED: ATOM     13  C   UNL     1     140.025  71.188 223.603 -0.32 -0.02    +0.128 A  
DOCKED: ATOM     14  C   UNL     1     139.488  69.930 223.654 -0.27 -0.01    +0.035 A  
DOCKED: ATOM     15  N   UNL     1     140.498  71.732 224.743 -0.28 +0.04    -0.243 NA 
DOCKED: ATOM     16  C   UNL     1     139.449  69.259 224.880 -0.38 -0.00    +0.013 A  
DOCKED: ATOM     17  C   UNL     1     140.477  71.125 225.919 -0.54 -0.01    +0.071 A  
DOCKED: ATOM     18  C   UNL     1     139.947  69.865 226.008 -0.49 -0.00    +0.000 A  
DOCKED: ATOM     19  C   UNL     1     140.971  71.714 227.063 -0.75 -0.01    +0.029 A  
DOCKED: ATOM     20  C   UNL     1     139.879  69.147 227.186 -0.58 -0.00    +0.010 A  
DOCKED: ATOM     21  C   UNL     1     140.912  71.008 228.257 -0.67 -0.00    +0.002 A  
DOCKED: ATOM     22  C   UNL     1     140.379  69.744 228.344 -0.60 -0.00    +0.001 A  
DOCKED: ENDBRANCH  10  13
DOCKED: ENDBRANCH   8   9
DOCKED: ENDBRANCH   6   8
DOCKED: ENDBRANCH   1   6
DOCKED: BRANCH   5  23
DOCKED: ATOM     23  C   UNL     1     140.606  77.784 219.194 -0.11 -0.03    +0.067 C  
DOCKED: BRANCH  23  24
DOCKED: ATOM     24  C   UNL     1     140.637  79.247 219.415 -0.09 -0.09    +0.231 C  
DOCKED: BRANCH  24  25
DOCKED: ATOM     25  O   UNL     1     140.313  79.574 220.719 +0.00 +0.16    -0.494 OA 
DOCKED: BRANCH  25  26
DOCKED: ATOM     26  C   UNL     1     141.013  79.679 221.865 -0.30 -0.04    +0.119 A  
DOCKED: ATOM     27  C   UNL     1     141.807  80.823 222.026 -0.45 -0.01    +0.046 A  
DOCKED: ATOM     28  C   UNL     1     141.042  78.791 222.914 -0.47 -0.01    +0.046 A  
DOCKED: ATOM     29  C   UNL     1     142.560  81.039 223.154 -0.56 -0.00    +0.004 A  
DOCKED: ATOM     30  C   UNL     1     141.810  79.009 224.062 -0.60 -0.00    +0.004 A  
DOCKED: ATOM     31  C   UNL     1     142.574  80.135 224.189 -0.53 -0.00    +0.000 A  
DOCKED: ENDBRANCH  25  26
DOCKED: ENDBRANCH  24  25
DOCKED: ENDBRANCH  23  24
DOCKED: ENDBRANCH   5  23
DOCKED: BRANCH   3  32
DOCKED: ATOM     32  O   UNL     1     144.076  74.920 218.075 -0.08 +0.19    -0.391 OA 
DOCKED: ATOM     33  H   UNL     1     144.801  75.576 217.850 -0.47 -0.18    +0.211 HD 
DOCKED: ENDBRANCH   3  32
DOCKED: TORSDOF 9
DOCKED: TER
DOCKED: ENDMDL
________________________________________________________________________________


    FINAL DOCKED STATE:
    ________________________


Run:   14 / 20
Time taken for this run:   0.059s

DOCKED: MODEL        14
DOCKED: USER    Run = 14
DOCKED: USER
DOCKED: USER    Estimated Free Energy of Binding    =  -8.92 kcal/mol  [=(1)+(2)+(3)-(4)]
DOCKED: USER
DOCKED: USER    (1) Final Intermolecular Energy     = -11.61 kcal/mol
DOCKED: USER        vdW + Hbond + desolv Energy     = -11.51 kcal/mol
DOCKED: USER        Electrostatic Energy            =  -0.09 kcal/mol
DOCKED: USER        Moving Ligand-Fixed Receptor    = -11.61 kcal/mol
DOCKED: USER        Moving Ligand-Moving Receptor   =  +0.00 kcal/mol
DOCKED: USER    (2) Final Total Internal Energy     =  -1.72 kcal/mol
DOCKED: USER    (3) Torsional Free Energy           =  +2.68 kcal/mol
DOCKED: USER    (4) Unbound System's Energy         =  -1.72 kcal/mol
DOCKED: USER
DOCKED: USER
DOCKED: REMARK SMILES O=C(NCC(=O)N1C[C@H](O)C[C@H]1CCOc1ccccc1)c1ccc2ccccc2n1
DOCKED: REMARK SMILES IDX 7 1 8 2 9 3 11 4 12 5 5 6 6 7 4 8 3 9 2 10 1 11 22 13 23 14
DOCKED: REMARK SMILES IDX 31 15 24 16 30 17 25 18 29 19 26 20 28 21 27 22 13 23 14 24
DOCKED: REMARK SMILES IDX 15 25 16 26 17 27 21 28 18 29 20 30 19 31 10 32
DOCKED: REMARK H PARENT 3 12 10 33
DOCKED: USER                              x       y       z     vdW  Elec       q    Type
DOCKED: USER                           _______ _______ _______ _____ _____    ______ ____
DOCKED: ROOT
DOCKED: ATOM      1  N   UNL     1     141.768  75.028 220.447 -0.12 +0.11    -0.335 N  
DOCKED: ATOM      2  C   UNL     1     142.446  73.949 219.769 -0.17 -0.04    +0.151 C  
DOCKED: ATOM      3  C   UNL     1     143.674  74.572 219.202 -0.25 -0.05    +0.136 C  
DOCKED: ATOM      4  C   UNL     1     143.714  75.974 219.704 -0.35 -0.04    +0.059 C  
DOCKED: ATOM      5  C   UNL     1     142.341  76.315 220.132 -0.23 -0.05    +0.091 C  
DOCKED: ENDROOT
DOCKED: BRANCH   1   6
DOCKED: ATOM      6  C   UNL     1     140.662  74.871 221.328 -0.22 -0.05    +0.242 C  
DOCKED: ATOM      7  O   UNL     1     140.344  75.744 222.192 -0.48 +0.05    -0.273 OA 
DOCKED: BRANCH   6   8
DOCKED: ATOM      8  C   UNL     1     139.810  73.630 221.263 -0.17 -0.04    +0.216 C  
DOCKED: BRANCH   8   9
DOCKED: ATOM      9  N   UNL     1     139.859  72.903 222.503 -0.15 +0.05    -0.342 N  
DOCKED: ATOM     10  C   UNL     1     139.810  71.473 222.479 -0.19 -0.05    +0.270 C  
DOCKED: ATOM     11  O   UNL     1     139.723  70.869 221.374 -0.09 +0.04    -0.268 OA 
DOCKED: ATOM     12  H   UNL     1     139.929  73.379 223.433 -0.39 -0.00    +0.164 HD 
DOCKED: BRANCH  10  13
DOCKED: ATOM     13  C   UNL     1     139.860  70.746 223.744 -0.29 -0.02    +0.128 A  
DOCKED: ATOM     14  C   UNL     1     139.362  69.472 223.787 -0.25 -0.01    +0.035 A  
DOCKED: ATOM     15  N   UNL     1     140.377  71.274 224.872 -0.31 +0.04    -0.243 NA 
DOCKED: ATOM     16  C   UNL     1     139.407  68.768 224.994 -0.40 -0.00    +0.013 A  
DOCKED: ATOM     17  C   UNL     1     140.436  70.636 226.031 -0.52 -0.01    +0.071 A  
DOCKED: ATOM     18  C   UNL     1     139.946  69.359 226.111 -0.50 -0.00    +0.000 A  
DOCKED: ATOM     19  C   UNL     1     140.973  71.208 227.163 -0.70 -0.00    +0.029 A  
DOCKED: ATOM     20  C   UNL     1     139.961  68.608 227.271 -0.63 -0.00    +0.010 A  
DOCKED: ATOM     21  C   UNL     1     140.996  70.470 228.339 -0.57 -0.00    +0.002 A  
DOCKED: ATOM     22  C   UNL     1     140.504  69.189 228.417 -0.61 -0.00    +0.001 A  
DOCKED: ENDBRANCH  10  13
DOCKED: ENDBRANCH   8   9
DOCKED: ENDBRANCH   6   8
DOCKED: ENDBRANCH   1   6
DOCKED: BRANCH   5  23
DOCKED: ATOM     23  C   UNL     1     141.499  77.048 219.121 -0.19 -0.03    +0.067 C  
DOCKED: BRANCH  23  24
DOCKED: ATOM     24  C   UNL     1     141.607  78.524 219.133 -0.17 -0.13    +0.231 C  
DOCKED: BRANCH  24  25
DOCKED: ATOM     25  O   UNL     1     141.038  79.069 220.270 -0.04 +0.21    -0.494 OA 
DOCKED: BRANCH  25  26
DOCKED: ATOM     26  C   UNL     1     141.511  79.434 221.477 -0.32 -0.05    +0.119 A  
DOCKED: ATOM     27  C   UNL     1     141.346  78.520 222.529 -0.45 -0.02    +0.046 A  
DOCKED: ATOM     28  C   UNL     1     142.147  80.606 221.811 -0.45 -0.02    +0.046 A  
DOCKED: ATOM     29  C   UNL     1     141.791  78.782 223.801 -0.62 -0.00    +0.004 A  
DOCKED: ATOM     30  C   UNL     1     142.599  80.873 223.107 -0.61 -0.00    +0.004 A  
DOCKED: ATOM     31  C   UNL     1     142.424  79.962 224.111 -0.51 -0.00    +0.000 A  
DOCKED: ENDBRANCH  25  26
DOCKED: ENDBRANCH  24  25
DOCKED: ENDBRANCH  23  24
DOCKED: ENDBRANCH   5  23
DOCKED: BRANCH   3  32
DOCKED: ATOM     32  O   UNL     1     144.770  73.811 219.676 -0.20 +0.08    -0.391 OA 
DOCKED: ATOM     33  H   UNL     1     145.617  74.198 219.304 -0.38 -0.07    +0.211 HD 
DOCKED: ENDBRANCH   3  32
DOCKED: TORSDOF 9
DOCKED: TER
DOCKED: ENDMDL
________________________________________________________________________________


    FINAL DOCKED STATE:
    ________________________


Run:   15 / 20
Time taken for this run:   0.059s

DOCKED: MODEL        15
DOCKED: USER    Run = 15
DOCKED: USER
DOCKED: USER    Estimated Free Energy of Binding    =  -7.56 kcal/mol  [=(1)+(2)+(3)-(4)]
DOCKED: USER
DOCKED: USER    (1) Final Intermolecular Energy     = -10.25 kcal/mol
DOCKED: USER        vdW + Hbond + desolv Energy     =  -9.87 kcal/mol
DOCKED: USER        Electrostatic Energy            =  -0.38 kcal/mol
DOCKED: USER        Moving Ligand-Fixed Receptor    = -10.25 kcal/mol
DOCKED: USER        Moving Ligand-Moving Receptor   =  +0.00 kcal/mol
DOCKED: USER    (2) Final Total Internal Energy     =  -3.15 kcal/mol
DOCKED: USER    (3) Torsional Free Energy           =  +2.68 kcal/mol
DOCKED: USER    (4) Unbound System's Energy         =  -3.15 kcal/mol
DOCKED: USER
DOCKED: USER
DOCKED: REMARK SMILES O=C(NCC(=O)N1C[C@H](O)C[C@H]1CCOc1ccccc1)c1ccc2ccccc2n1
DOCKED: REMARK SMILES IDX 7 1 8 2 9 3 11 4 12 5 5 6 6 7 4 8 3 9 2 10 1 11 22 13 23 14
DOCKED: REMARK SMILES IDX 31 15 24 16 30 17 25 18 29 19 26 20 28 21 27 22 13 23 14 24
DOCKED: REMARK SMILES IDX 15 25 16 26 17 27 21 28 18 29 20 30 19 31 10 32
DOCKED: REMARK H PARENT 3 12 10 33
DOCKED: USER                              x       y       z     vdW  Elec       q    Type
DOCKED: USER                           _______ _______ _______ _____ _____    ______ ____
DOCKED: ROOT
DOCKED: ATOM      1  N   UNL     1     143.358  73.164 220.173 -0.11 +0.06    -0.335 N  
DOCKED: ATOM      2  C   UNL     1     144.114  72.356 219.245 -0.18 -0.00    +0.151 C  
DOCKED: ATOM      3  C   UNL     1     145.511  72.859 219.360 -0.32 +0.04    +0.136 C  
DOCKED: ATOM      4  C   UNL     1     145.518  73.858 220.465 -0.56 -0.01    +0.059 C  
DOCKED: ATOM      5  C   UNL     1     144.118  74.290 220.661 -0.28 -0.03    +0.091 C  
DOCKED: ENDROOT
DOCKED: BRANCH   1   6
DOCKED: ATOM      6  C   UNL     1     142.018  72.903 220.577 -0.15 -0.04    +0.242 C  
DOCKED: ATOM      7  O   UNL     1     141.719  71.997 221.414 -0.17 +0.03    -0.273 OA 
DOCKED: BRANCH   6   8
DOCKED: ATOM      8  C   UNL     1     140.883  73.716 220.011 -0.09 -0.04    +0.216 C  
DOCKED: BRANCH   8   9
DOCKED: ATOM      9  N   UNL     1     140.906  75.061 220.519 -0.09 +0.09    -0.342 N  
DOCKED: ATOM     10  C   UNL     1     140.228  75.361 221.742 -0.21 -0.05    +0.270 C  
DOCKED: ATOM     11  O   UNL     1     139.617  74.444 222.359 -0.77 +0.03    -0.268 OA 
DOCKED: ATOM     12  H   UNL     1     141.404  75.840 220.027 +0.05 -0.06    +0.164 HD 
DOCKED: BRANCH  10  13
DOCKED: ATOM     13  C   UNL     1     140.259  76.730 222.248 -0.33 -0.03    +0.128 A  
DOCKED: ATOM     14  C   UNL     1     139.077  77.329 222.590 -0.29 -0.01    +0.035 A  
DOCKED: ATOM     15  N   UNL     1     141.402  77.431 222.393 -0.16 +0.12    -0.243 NA 
DOCKED: ATOM     16  C   UNL     1     139.098  78.640 223.075 -0.33 -0.00    +0.013 A  
DOCKED: ATOM     17  C   UNL     1     141.458  78.673 222.849 -0.49 -0.03    +0.071 A  
DOCKED: ATOM     18  C   UNL     1     140.294  79.304 223.202 -0.45 -0.00    +0.000 A  
DOCKED: ATOM     19  C   UNL     1     142.646  79.357 222.985 -0.56 -0.01    +0.029 A  
DOCKED: ATOM     20  C   UNL     1     140.244  80.596 223.688 -0.42 -0.00    +0.010 A  
DOCKED: ATOM     21  C   UNL     1     142.616  80.657 223.472 -0.67 -0.00    +0.002 A  
DOCKED: ATOM     22  C   UNL     1     141.447  81.289 223.825 -0.51 -0.00    +0.001 A  
DOCKED: ENDBRANCH  10  13
DOCKED: ENDBRANCH   8   9
DOCKED: ENDBRANCH   6   8
DOCKED: ENDBRANCH   1   6
DOCKED: BRANCH   5  23
DOCKED: ATOM     23  C   UNL     1     143.715  75.559 219.957 -0.30 -0.04    +0.067 C  
DOCKED: BRANCH  23  24
DOCKED: ATOM     24  C   UNL     1     143.336  75.421 218.533 -0.18 -0.11    +0.231 C  
DOCKED: BRANCH  24  25
DOCKED: ATOM     25  O   UNL     1     142.363  76.336 218.172 -0.05 +0.25    -0.494 OA 
DOCKED: BRANCH  25  26
DOCKED: ATOM     26  C   UNL     1     142.107  77.617 218.500 -0.22 -0.07    +0.119 A  
DOCKED: ATOM     27  C   UNL     1     142.938  78.598 217.941 -0.28 -0.05    +0.046 A  
DOCKED: ATOM     28  C   UNL     1     141.113  78.089 219.325 -0.17 -0.02    +0.046 A  
DOCKED: ATOM     29  C   UNL     1     142.770  79.936 218.201 -0.31 -0.00    +0.004 A  
DOCKED: ATOM     30  C   UNL     1     140.942  79.451 219.591 -0.20 -0.00    +0.004 A  
DOCKED: ATOM     31  C   UNL     1     141.769  80.384 219.030 -0.29 -0.00    +0.000 A  
DOCKED: ENDBRANCH  25  26
DOCKED: ENDBRANCH  24  25
DOCKED: ENDBRANCH  23  24
DOCKED: ENDBRANCH   5  23
DOCKED: BRANCH   3  32
DOCKED: ATOM     32  O   UNL     1     146.323  71.738 219.657 -0.42 -0.37    -0.391 OA 
DOCKED: ATOM     33  H   UNL     1     146.220  71.515 220.629 -0.40 -0.01    +0.211 HD 
DOCKED: ENDBRANCH   3  32
DOCKED: TORSDOF 9
DOCKED: TER
DOCKED: ENDMDL
________________________________________________________________________________


    FINAL DOCKED STATE:
    ________________________


Run:   16 / 20
Time taken for this run:   0.059s

DOCKED: MODEL        16
DOCKED: USER    Run = 16
DOCKED: USER
DOCKED: USER    Estimated Free Energy of Binding    =  -6.39 kcal/mol  [=(1)+(2)+(3)-(4)]
DOCKED: USER
DOCKED: USER    (1) Final Intermolecular Energy     =  -9.07 kcal/mol
DOCKED: USER        vdW + Hbond + desolv Energy     =  -8.92 kcal/mol
DOCKED: USER        Electrostatic Energy            =  -0.15 kcal/mol
DOCKED: USER        Moving Ligand-Fixed Receptor    =  -9.07 kcal/mol
DOCKED: USER        Moving Ligand-Moving Receptor   =  +0.00 kcal/mol
DOCKED: USER    (2) Final Total Internal Energy     =  -3.29 kcal/mol
DOCKED: USER    (3) Torsional Free Energy           =  +2.68 kcal/mol
DOCKED: USER    (4) Unbound System's Energy         =  -3.29 kcal/mol
DOCKED: USER
DOCKED: USER
DOCKED: REMARK SMILES O=C(NCC(=O)N1C[C@H](O)C[C@H]1CCOc1ccccc1)c1ccc2ccccc2n1
DOCKED: REMARK SMILES IDX 7 1 8 2 9 3 11 4 12 5 5 6 6 7 4 8 3 9 2 10 1 11 22 13 23 14
DOCKED: REMARK SMILES IDX 31 15 24 16 30 17 25 18 29 19 26 20 28 21 27 22 13 23 14 24
DOCKED: REMARK SMILES IDX 15 25 16 26 17 27 21 28 18 29 20 30 19 31 10 32
DOCKED: REMARK H PARENT 3 12 10 33
DOCKED: USER                              x       y       z     vdW  Elec       q    Type
DOCKED: USER                           _______ _______ _______ _____ _____    ______ ____
DOCKED: ROOT
DOCKED: ATOM      1  N   UNL     1     140.452  78.453 220.512 -0.05 +0.12    -0.335 N  
DOCKED: ATOM      2  C   UNL     1     141.372  77.792 221.407 -0.26 -0.08    +0.151 C  
DOCKED: ATOM      3  C   UNL     1     140.651  76.566 221.851 -0.32 -0.04    +0.136 C  
DOCKED: ATOM      4  C   UNL     1     139.382  76.510 221.073 -0.19 -0.01    +0.059 C  
DOCKED: ATOM      5  C   UNL     1     139.130  77.875 220.565 -0.10 -0.02    +0.091 C  
DOCKED: ENDROOT
DOCKED: BRANCH   1   6
DOCKED: ATOM      6  C   UNL     1     140.782  79.548 219.666 -0.11 -0.10    +0.242 C  
DOCKED: ATOM      7  O   UNL     1     140.248  80.693 219.786 -0.07 +0.09    -0.273 OA 
DOCKED: BRANCH   6   8
DOCKED: ATOM      8  C   UNL     1     141.804  79.380 218.571 -0.20 -0.14    +0.216 C  
DOCKED: BRANCH   8   9
DOCKED: ATOM      9  N   UNL     1     142.572  78.179 218.761 -0.16 +0.26    -0.342 N  
DOCKED: ATOM     10  C   UNL     1     142.019  76.922 218.362 -0.14 -0.14    +0.270 C  
DOCKED: ATOM     11  O   UNL     1     140.865  76.881 217.851 -0.03 +0.11    -0.268 OA 
DOCKED: ATOM     12  H   UNL     1     143.531  78.184 219.183 -0.38 -0.19    +0.164 HD 
DOCKED: BRANCH  10  13
DOCKED: ATOM     13  C   UNL     1     142.808  75.710 218.559 -0.20 -0.06    +0.128 A  
DOCKED: ATOM     14  C   UNL     1     142.629  74.664 217.696 -0.10 -0.01    +0.035 A  
DOCKED: ATOM     15  N   UNL     1     143.708  75.576 219.556 -0.26 +0.14    -0.243 NA 
DOCKED: ATOM     16  C   UNL     1     143.382  73.500 217.877 -0.10 -0.00    +0.013 A  
DOCKED: ATOM     17  C   UNL     1     144.437  74.489 219.756 -0.34 -0.03    +0.071 A  
DOCKED: ATOM     18  C   UNL     1     144.284  73.422 218.911 -0.25 -0.00    +0.000 A  
DOCKED: ATOM     19  C   UNL     1     145.347  74.390 220.785 -0.48 -0.01    +0.029 A  
DOCKED: ATOM     20  C   UNL     1     144.996  72.245 219.033 -0.29 +0.00    +0.010 A  
DOCKED: ATOM     21  C   UNL     1     146.072  73.214 220.925 -0.68 -0.00    +0.002 A  
DOCKED: ATOM     22  C   UNL     1     145.917  72.144 220.076 -0.38 +0.00    +0.001 A  
DOCKED: ENDBRANCH  10  13
DOCKED: ENDBRANCH   8   9
DOCKED: ENDBRANCH   6   8
DOCKED: ENDBRANCH   1   6
DOCKED: BRANCH   5  23
DOCKED: ATOM     23  C   UNL     1     138.201  78.724 221.391 -0.12 -0.01    +0.067 C  
DOCKED: BRANCH  23  24
DOCKED: ATOM     24  C   UNL     1     138.061  78.340 222.814 -0.14 -0.04    +0.231 C  
DOCKED: BRANCH  24  25
DOCKED: ATOM     25  O   UNL     1     138.827  79.144 223.638 -0.11 +0.06    -0.494 OA 
DOCKED: BRANCH  25  26
DOCKED: ATOM     26  C   UNL     1     139.978  79.826 223.484 -0.37 -0.02    +0.119 A  
DOCKED: ATOM     27  C   UNL     1     141.132  79.267 224.051 -0.47 -0.01    +0.046 A  
DOCKED: ATOM     28  C   UNL     1     140.165  81.018 222.826 -0.34 -0.01    +0.046 A  
DOCKED: ATOM     29  C   UNL     1     142.362  79.871 223.954 -0.57 -0.00    +0.004 A  
DOCKED: ATOM     30  C   UNL     1     141.417  81.634 222.728 -0.49 -0.00    +0.004 A  
DOCKED: ATOM     31  C   UNL     1     142.524  81.064 223.291 -0.58 -0.00    +0.000 A  
DOCKED: ENDBRANCH  25  26
DOCKED: ENDBRANCH  24  25
DOCKED: ENDBRANCH  23  24
DOCKED: ENDBRANCH   5  23
DOCKED: BRANCH   3  32
DOCKED: ATOM     32  O   UNL     1     141.498  75.470 221.560 -0.24 +0.13    -0.391 OA 
DOCKED: ATOM     33  H   UNL     1     142.388  75.821 221.259 -0.42 -0.15    +0.211 HD 
DOCKED: ENDBRANCH   3  32
DOCKED: TORSDOF 9
DOCKED: TER
DOCKED: ENDMDL
________________________________________________________________________________


    FINAL DOCKED STATE:
    ________________________


Run:   17 / 20
Time taken for this run:   0.059s

DOCKED: MODEL        17
DOCKED: USER    Run = 17
DOCKED: USER
DOCKED: USER    Estimated Free Energy of Binding    =  -7.76 kcal/mol  [=(1)+(2)+(3)-(4)]
DOCKED: USER
DOCKED: USER    (1) Final Intermolecular Energy     = -10.45 kcal/mol
DOCKED: USER        vdW + Hbond + desolv Energy     = -10.42 kcal/mol
DOCKED: USER        Electrostatic Energy            =  -0.03 kcal/mol
DOCKED: USER        Moving Ligand-Fixed Receptor    = -10.45 kcal/mol
DOCKED: USER        Moving Ligand-Moving Receptor   =  +0.00 kcal/mol
DOCKED: USER    (2) Final Total Internal Energy     =  -2.09 kcal/mol
DOCKED: USER    (3) Torsional Free Energy           =  +2.68 kcal/mol
DOCKED: USER    (4) Unbound System's Energy         =  -2.09 kcal/mol
DOCKED: USER
DOCKED: USER
DOCKED: REMARK SMILES O=C(NCC(=O)N1C[C@H](O)C[C@H]1CCOc1ccccc1)c1ccc2ccccc2n1
DOCKED: REMARK SMILES IDX 7 1 8 2 9 3 11 4 12 5 5 6 6 7 4 8 3 9 2 10 1 11 22 13 23 14
DOCKED: REMARK SMILES IDX 31 15 24 16 30 17 25 18 29 19 26 20 28 21 27 22 13 23 14 24
DOCKED: REMARK SMILES IDX 15 25 16 26 17 27 21 28 18 29 20 30 19 31 10 32
DOCKED: REMARK H PARENT 3 12 10 33
DOCKED: USER                              x       y       z     vdW  Elec       q    Type
DOCKED: USER                           _______ _______ _______ _____ _____    ______ ____
DOCKED: ROOT
DOCKED: ATOM      1  N   UNL     1     139.353  71.473 221.826 -0.07 +0.06    -0.335 N  
DOCKED: ATOM      2  C   UNL     1     140.074  70.460 221.091 -0.09 -0.02    +0.151 C  
DOCKED: ATOM      3  C   UNL     1     139.105  69.339 220.944 -0.09 -0.03    +0.136 C  
DOCKED: ATOM      4  C   UNL     1     137.807  69.820 221.493 -0.08 -0.01    +0.059 C  
DOCKED: ATOM      5  C   UNL     1     138.111  70.974 222.366 -0.14 -0.02    +0.091 C  
DOCKED: ENDROOT
DOCKED: BRANCH   1   6
DOCKED: ATOM      6  C   UNL     1     139.791  72.814 222.010 -0.20 -0.04    +0.242 C  
DOCKED: ATOM      7  O   UNL     1     140.970  73.106 222.380 -0.58 -0.01    -0.273 OA 
DOCKED: BRANCH   6   8
DOCKED: ATOM      8  C   UNL     1     138.847  73.962 221.765 -0.15 -0.05    +0.216 C  
DOCKED: BRANCH   8   9
DOCKED: ATOM      9  N   UNL     1     139.451  75.215 222.129 -0.17 +0.06    -0.342 N  
DOCKED: ATOM     10  C   UNL     1     138.618  76.359 222.341 -0.21 -0.06    +0.270 C  
DOCKED: ATOM     11  O   UNL     1     137.367  76.255 222.205 -0.15 +0.06    -0.268 OA 
DOCKED: ATOM     12  H   UNL     1     140.485  75.330 222.248 +0.04 -0.01    +0.164 HD 
DOCKED: BRANCH  10  13
DOCKED: ATOM     13  C   UNL     1     139.242  77.626 222.711 -0.25 -0.02    +0.128 A  
DOCKED: ATOM     14  C   UNL     1     138.436  78.680 223.047 -0.27 -0.01    +0.035 A  
DOCKED: ATOM     15  N   UNL     1     140.579  77.804 222.736 -0.26 +0.07    -0.243 NA 
DOCKED: ATOM     16  C   UNL     1     139.025  79.897 223.403 -0.38 -0.00    +0.013 A  
DOCKED: ATOM     17  C   UNL     1     141.169  78.942 223.068 -0.48 -0.02    +0.071 A  
DOCKED: ATOM     18  C   UNL     1     140.394  80.018 223.410 -0.47 -0.00    +0.000 A  
DOCKED: ATOM     19  C   UNL     1     142.539  79.085 223.083 -0.51 -0.01    +0.029 A  
DOCKED: ATOM     20  C   UNL     1     140.911  81.246 223.772 -0.37 -0.00    +0.010 A  
DOCKED: ATOM     21  C   UNL     1     143.079  80.313 223.443 -0.65 -0.00    +0.002 A  
DOCKED: ATOM     22  C   UNL     1     142.299  81.391 223.787 -0.60 -0.00    +0.001 A  
DOCKED: ENDBRANCH  10  13
DOCKED: ENDBRANCH   8   9
DOCKED: ENDBRANCH   6   8
DOCKED: ENDBRANCH   1   6
DOCKED: BRANCH   5  23
DOCKED: ATOM     23  C   UNL     1     138.244  70.671 223.835 -0.26 -0.01    +0.067 C  
DOCKED: BRANCH  23  24
DOCKED: ATOM     24  C   UNL     1     138.710  69.309 224.179 -0.22 -0.03    +0.231 C  
DOCKED: BRANCH  24  25
DOCKED: ATOM     25  O   UNL     1     139.795  69.341 225.036 -0.09 +0.08    -0.494 OA 
DOCKED: BRANCH  25  26
DOCKED: ATOM     26  C   UNL     1     140.237  70.212 225.965 -0.43 -0.02    +0.119 A  
DOCKED: ATOM     27  C   UNL     1     139.884  69.956 227.298 -0.53 -0.01    +0.046 A  
DOCKED: ATOM     28  C   UNL     1     141.005  71.334 225.765 -0.59 -0.01    +0.046 A  
DOCKED: ATOM     29  C   UNL     1     140.280  70.772 228.329 -0.62 -0.00    +0.004 A  
DOCKED: ATOM     30  C   UNL     1     141.407  72.166 226.814 -0.73 -0.00    +0.004 A  
DOCKED: ATOM     31  C   UNL     1     141.048  71.890 228.104 -0.82 -0.00    +0.000 A  
DOCKED: ENDBRANCH  25  26
DOCKED: ENDBRANCH  24  25
DOCKED: ENDBRANCH  23  24
DOCKED: ENDBRANCH   5  23
DOCKED: BRANCH   3  32
DOCKED: ATOM     32  O   UNL     1     139.020  69.055 219.560 -0.01 +0.08    -0.391 OA 
DOCKED: ATOM     33  H   UNL     1     139.202  69.897 219.046 +0.02 -0.04    +0.211 HD 
DOCKED: ENDBRANCH   3  32
DOCKED: TORSDOF 9
DOCKED: TER
DOCKED: ENDMDL
________________________________________________________________________________


    FINAL DOCKED STATE:
    ________________________


Run:   18 / 20
Time taken for this run:   0.059s

DOCKED: MODEL        18
DOCKED: USER    Run = 18
DOCKED: USER
DOCKED: USER    Estimated Free Energy of Binding    =  -8.74 kcal/mol  [=(1)+(2)+(3)-(4)]
DOCKED: USER
DOCKED: USER    (1) Final Intermolecular Energy     = -11.42 kcal/mol
DOCKED: USER        vdW + Hbond + desolv Energy     = -11.33 kcal/mol
DOCKED: USER        Electrostatic Energy            =  -0.09 kcal/mol
DOCKED: USER        Moving Ligand-Fixed Receptor    = -11.42 kcal/mol
DOCKED: USER        Moving Ligand-Moving Receptor   =  +0.00 kcal/mol
DOCKED: USER    (2) Final Total Internal Energy     =  -1.58 kcal/mol
DOCKED: USER    (3) Torsional Free Energy           =  +2.68 kcal/mol
DOCKED: USER    (4) Unbound System's Energy         =  -1.58 kcal/mol
DOCKED: USER
DOCKED: USER
DOCKED: REMARK SMILES O=C(NCC(=O)N1C[C@H](O)C[C@H]1CCOc1ccccc1)c1ccc2ccccc2n1
DOCKED: REMARK SMILES IDX 7 1 8 2 9 3 11 4 12 5 5 6 6 7 4 8 3 9 2 10 1 11 22 13 23 14
DOCKED: REMARK SMILES IDX 31 15 24 16 30 17 25 18 29 19 26 20 28 21 27 22 13 23 14 24
DOCKED: REMARK SMILES IDX 15 25 16 26 17 27 21 28 18 29 20 30 19 31 10 32
DOCKED: REMARK H PARENT 3 12 10 33
DOCKED: USER                              x       y       z     vdW  Elec       q    Type
DOCKED: USER                           _______ _______ _______ _____ _____    ______ ____
DOCKED: ROOT
DOCKED: ATOM      1  N   UNL     1     142.086  74.126 220.798 -0.14 +0.08    -0.335 N  
DOCKED: ATOM      2  C   UNL     1     142.706  72.869 220.452 -0.21 -0.02    +0.151 C  
DOCKED: ATOM      3  C   UNL     1     144.103  73.227 220.081 -0.31 -0.02    +0.136 C  
DOCKED: ATOM      4  C   UNL     1     144.263  74.680 220.364 -0.36 -0.03    +0.059 C  
DOCKED: ATOM      5  C   UNL     1     142.902  75.257 220.427 -0.18 -0.05    +0.091 C  
DOCKED: ENDROOT
DOCKED: BRANCH   1   6
DOCKED: ATOM      6  C   UNL     1     140.819  74.263 221.431 -0.20 -0.03    +0.242 C  
DOCKED: ATOM      7  O   UNL     1     140.475  75.312 222.056 -0.60 +0.04    -0.273 OA 
DOCKED: BRANCH   6   8
DOCKED: ATOM      8  C   UNL     1     139.818  73.139 221.377 -0.17 -0.04    +0.216 C  
DOCKED: BRANCH   8   9
DOCKED: ATOM      9  N   UNL     1     139.815  72.389 222.605 -0.17 +0.06    -0.342 N  
DOCKED: ATOM     10  C   UNL     1     139.847  70.960 222.553 -0.15 -0.04    +0.270 C  
DOCKED: ATOM     11  O   UNL     1     139.876  70.375 221.435 -0.09 +0.04    -0.268 OA 
DOCKED: ATOM     12  H   UNL     1     139.790  72.848 223.545 -0.28 -0.04    +0.164 HD 
DOCKED: BRANCH  10  13
DOCKED: ATOM     13  C   UNL     1     139.844  70.210 223.806 -0.23 -0.02    +0.128 A  
DOCKED: ATOM     14  C   UNL     1     139.216  68.995 223.840 -0.26 -0.01    +0.035 A  
DOCKED: ATOM     15  N   UNL     1     140.434  70.661 224.931 -0.28 +0.04    -0.243 NA 
DOCKED: ATOM     16  C   UNL     1     139.209  68.269 225.035 -0.43 -0.00    +0.013 A  
DOCKED: ATOM     17  C   UNL     1     140.447  70.001 226.079 -0.47 -0.01    +0.071 A  
DOCKED: ATOM     18  C   UNL     1     139.827  68.781 226.150 -0.54 -0.00    +0.000 A  
DOCKED: ATOM     19  C   UNL     1     141.061  70.495 227.208 -0.59 -0.00    +0.029 A  
DOCKED: ATOM     20  C   UNL     1     139.785  68.014 227.297 -0.61 -0.00    +0.010 A  
DOCKED: ATOM     21  C   UNL     1     141.028  69.739 228.372 -0.55 -0.00    +0.002 A  
DOCKED: ATOM     22  C   UNL     1     140.407  68.515 228.442 -0.66 -0.00    +0.001 A  
DOCKED: ENDBRANCH  10  13
DOCKED: ENDBRANCH   8   9
DOCKED: ENDBRANCH   6   8
DOCKED: ENDBRANCH   1   6
DOCKED: BRANCH   5  23
DOCKED: ATOM     23  C   UNL     1     142.398  75.895 219.160 -0.25 -0.03    +0.067 C  
DOCKED: BRANCH  23  24
DOCKED: ATOM     24  C   UNL     1     142.063  77.334 219.244 -0.20 -0.13    +0.231 C  
DOCKED: BRANCH  24  25
DOCKED: ATOM     25  O   UNL     1     141.430  77.642 220.435 -0.07 +0.25    -0.494 OA 
DOCKED: BRANCH  25  26
DOCKED: ATOM     26  C   UNL     1     141.681  78.503 221.440 -0.31 -0.07    +0.119 A  
DOCKED: ATOM     27  C   UNL     1     141.443  78.048 222.744 -0.42 -0.02    +0.046 A  
DOCKED: ATOM     28  C   UNL     1     142.152  79.791 221.343 -0.34 -0.02    +0.046 A  
DOCKED: ATOM     29  C   UNL     1     141.666  78.837 223.847 -0.61 -0.00    +0.004 A  
DOCKED: ATOM     30  C   UNL     1     142.379  80.595 222.464 -0.57 -0.00    +0.004 A  
DOCKED: ATOM     31  C   UNL     1     142.137  80.122 223.724 -0.64 -0.00    +0.000 A  
DOCKED: ENDBRANCH  25  26
DOCKED: ENDBRANCH  24  25
DOCKED: ENDBRANCH  23  24
DOCKED: ENDBRANCH   5  23
DOCKED: BRANCH   3  32
DOCKED: ATOM     32  O   UNL     1     144.954  72.435 220.890 -0.21 +0.08    -0.391 OA 
DOCKED: ATOM     33  H   UNL     1     144.459  71.607 221.163 -0.25 -0.07    +0.211 HD 
DOCKED: ENDBRANCH   3  32
DOCKED: TORSDOF 9
DOCKED: TER
DOCKED: ENDMDL
________________________________________________________________________________


    FINAL DOCKED STATE:
    ________________________


Run:   19 / 20
Time taken for this run:   0.059s

DOCKED: MODEL        19
DOCKED: USER    Run = 19
DOCKED: USER
DOCKED: USER    Estimated Free Energy of Binding    =  -9.07 kcal/mol  [=(1)+(2)+(3)-(4)]
DOCKED: USER
DOCKED: USER    (1) Final Intermolecular Energy     = -11.75 kcal/mol
DOCKED: USER        vdW + Hbond + desolv Energy     = -11.56 kcal/mol
DOCKED: USER        Electrostatic Energy            =  -0.19 kcal/mol
DOCKED: USER        Moving Ligand-Fixed Receptor    = -11.75 kcal/mol
DOCKED: USER        Moving Ligand-Moving Receptor   =  +0.00 kcal/mol
DOCKED: USER    (2) Final Total Internal Energy     =  -1.53 kcal/mol
DOCKED: USER    (3) Torsional Free Energy           =  +2.68 kcal/mol
DOCKED: USER    (4) Unbound System's Energy         =  -1.53 kcal/mol
DOCKED: USER
DOCKED: USER
DOCKED: REMARK SMILES O=C(NCC(=O)N1C[C@H](O)C[C@H]1CCOc1ccccc1)c1ccc2ccccc2n1
DOCKED: REMARK SMILES IDX 7 1 8 2 9 3 11 4 12 5 5 6 6 7 4 8 3 9 2 10 1 11 22 13 23 14
DOCKED: REMARK SMILES IDX 31 15 24 16 30 17 25 18 29 19 26 20 28 21 27 22 13 23 14 24
DOCKED: REMARK SMILES IDX 15 25 16 26 17 27 21 28 18 29 20 30 19 31 10 32
DOCKED: REMARK H PARENT 3 12 10 33
DOCKED: USER                              x       y       z     vdW  Elec       q    Type
DOCKED: USER                           _______ _______ _______ _____ _____    ______ ____
DOCKED: ROOT
DOCKED: ATOM      1  N   UNL     1     141.826  75.382 220.120 -0.10 +0.13    -0.335 N  
DOCKED: ATOM      2  C   UNL     1     142.274  74.348 219.217 -0.13 -0.04    +0.151 C  
DOCKED: ATOM      3  C   UNL     1     143.419  74.957 218.484 -0.18 -0.06    +0.136 C  
DOCKED: ATOM      4  C   UNL     1     143.666  76.287 219.106 -0.24 -0.04    +0.059 C  
DOCKED: ATOM      5  C   UNL     1     142.431  76.660 219.828 -0.29 -0.06    +0.091 C  
DOCKED: ENDROOT
DOCKED: BRANCH   1   6
DOCKED: ATOM      6  C   UNL     1     140.899  75.191 221.182 -0.22 -0.06    +0.242 C  
DOCKED: ATOM      7  O   UNL     1     140.930  75.875 222.251 -0.41 +0.07    -0.273 OA 
DOCKED: BRANCH   6   8
DOCKED: ATOM      8  C   UNL     1     139.822  74.143 221.071 -0.16 -0.04    +0.216 C  
DOCKED: BRANCH   8   9
DOCKED: ATOM      9  N   UNL     1     139.696  73.398 222.294 -0.14 +0.05    -0.342 N  
DOCKED: ATOM     10  C   UNL     1     140.362  72.138 222.419 -0.21 -0.03    +0.270 C  
DOCKED: ATOM     11  O   UNL     1     141.048  71.696 221.456 -0.15 +0.03    -0.268 OA 
DOCKED: ATOM     12  H   UNL     1     139.133  73.741 223.108 -0.51 -0.08    +0.164 HD 
DOCKED: BRANCH  10  13
DOCKED: ATOM     13  C   UNL     1     140.228  71.390 223.666 -0.33 -0.02    +0.128 A  
DOCKED: ATOM     14  C   UNL     1     139.628  70.161 223.631 -0.28 -0.01    +0.035 A  
DOCKED: ATOM     15  N   UNL     1     140.670  71.858 224.851 -0.28 +0.03    -0.243 NA 
DOCKED: ATOM     16  C   UNL     1     139.495  69.438 224.820 -0.37 -0.00    +0.013 A  
DOCKED: ATOM     17  C   UNL     1     140.561  71.200 225.995 -0.55 -0.01    +0.071 A  
DOCKED: ATOM     18  C   UNL     1     139.966  69.966 225.998 -0.50 -0.00    +0.000 A  
DOCKED: ATOM     19  C   UNL     1     141.026  71.711 227.187 -0.76 -0.01    +0.029 A  
DOCKED: ATOM     20  C   UNL     1     139.804  69.200 227.136 -0.57 -0.00    +0.010 A  
DOCKED: ATOM     21  C   UNL     1     140.872  70.956 228.343 -0.64 -0.00    +0.002 A  
DOCKED: ATOM     22  C   UNL     1     140.274  69.718 228.343 -0.61 -0.00    +0.001 A  
DOCKED: ENDBRANCH  10  13
DOCKED: ENDBRANCH   8   9
DOCKED: ENDBRANCH   6   8
DOCKED: ENDBRANCH   1   6
DOCKED: BRANCH   5  23
DOCKED: ATOM     23  C   UNL     1     141.475  77.552 219.083 -0.19 -0.03    +0.067 C  
DOCKED: BRANCH  23  24
DOCKED: ATOM     24  C   UNL     1     141.833  78.987 219.027 -0.19 -0.14    +0.231 C  
DOCKED: BRANCH  24  25
DOCKED: ATOM     25  O   UNL     1     141.331  79.682 220.112 -0.06 +0.22    -0.494 OA 
DOCKED: BRANCH  25  26
DOCKED: ATOM     26  C   UNL     1     141.588  79.678 221.434 -0.33 -0.05    +0.119 A  
DOCKED: ATOM     27  C   UNL     1     142.212  80.815 221.966 -0.46 -0.01    +0.046 A  
DOCKED: ATOM     28  C   UNL     1     141.305  78.684 222.340 -0.43 -0.02    +0.046 A  
DOCKED: ATOM     29  C   UNL     1     142.520  80.924 223.300 -0.62 -0.00    +0.004 A  
DOCKED: ATOM     30  C   UNL     1     141.619  78.794 223.699 -0.60 -0.00    +0.004 A  
DOCKED: ATOM     31  C   UNL     1     142.228  79.916 224.188 -0.50 -0.00    +0.000 A  
DOCKED: ENDBRANCH  25  26
DOCKED: ENDBRANCH  24  25
DOCKED: ENDBRANCH  23  24
DOCKED: ENDBRANCH   5  23
DOCKED: BRANCH   3  32
DOCKED: ATOM     32  O   UNL     1     144.520  74.083 218.653 -0.09 +0.11    -0.391 OA 
DOCKED: ATOM     33  H   UNL     1     145.339  74.520 218.275 -0.44 -0.13    +0.211 HD 
DOCKED: ENDBRANCH   3  32
DOCKED: TORSDOF 9
DOCKED: TER
DOCKED: ENDMDL
________________________________________________________________________________


    FINAL DOCKED STATE:
    ________________________


Run:   20 / 20
Time taken for this run:   0.059s

DOCKED: MODEL        20
DOCKED: USER    Run = 20
DOCKED: USER
DOCKED: USER    Estimated Free Energy of Binding    =  -9.07 kcal/mol  [=(1)+(2)+(3)-(4)]
DOCKED: USER
DOCKED: USER    (1) Final Intermolecular Energy     = -11.75 kcal/mol
DOCKED: USER        vdW + Hbond + desolv Energy     = -11.60 kcal/mol
DOCKED: USER        Electrostatic Energy            =  -0.15 kcal/mol
DOCKED: USER        Moving Ligand-Fixed Receptor    = -11.75 kcal/mol
DOCKED: USER        Moving Ligand-Moving Receptor   =  +0.00 kcal/mol
DOCKED: USER    (2) Final Total Internal Energy     =  -1.67 kcal/mol
DOCKED: USER    (3) Torsional Free Energy           =  +2.68 kcal/mol
DOCKED: USER    (4) Unbound System's Energy         =  -1.67 kcal/mol
DOCKED: USER
DOCKED: USER
DOCKED: REMARK SMILES O=C(NCC(=O)N1C[C@H](O)C[C@H]1CCOc1ccccc1)c1ccc2ccccc2n1
DOCKED: REMARK SMILES IDX 7 1 8 2 9 3 11 4 12 5 5 6 6 7 4 8 3 9 2 10 1 11 22 13 23 14
DOCKED: REMARK SMILES IDX 31 15 24 16 30 17 25 18 29 19 26 20 28 21 27 22 13 23 14 24
DOCKED: REMARK SMILES IDX 15 25 16 26 17 27 21 28 18 29 20 30 19 31 10 32
DOCKED: REMARK H PARENT 3 12 10 33
DOCKED: USER                              x       y       z     vdW  Elec       q    Type
DOCKED: USER                           _______ _______ _______ _____ _____    ______ ____
DOCKED: ROOT
DOCKED: ATOM      1  N   UNL     1     141.782  75.158 220.470 -0.12 +0.12    -0.335 N  
DOCKED: ATOM      2  C   UNL     1     142.558  74.089 219.889 -0.19 -0.04    +0.151 C  
DOCKED: ATOM      3  C   UNL     1     143.754  74.762 219.310 -0.26 -0.06    +0.136 C  
DOCKED: ATOM      4  C   UNL     1     143.675  76.194 219.710 -0.33 -0.04    +0.059 C  
DOCKED: ATOM      5  C   UNL     1     142.268  76.460 220.077 -0.27 -0.05    +0.091 C  
DOCKED: ENDROOT
DOCKED: BRANCH   1   6
DOCKED: ATOM      6  C   UNL     1     140.664  74.979 221.332 -0.22 -0.05    +0.242 C  
DOCKED: ATOM      7  O   UNL     1     140.349  75.820 222.229 -0.46 +0.05    -0.273 OA 
DOCKED: BRANCH   6   8
DOCKED: ATOM      8  C   UNL     1     139.796  73.755 221.205 -0.17 -0.04    +0.216 C  
DOCKED: BRANCH   8   9
DOCKED: ATOM      9  N   UNL     1     139.759  73.017 222.439 -0.14 +0.06    -0.342 N  
DOCKED: ATOM     10  C   UNL     1     140.034  71.613 222.425 -0.20 -0.04    +0.270 C  
DOCKED: ATOM     11  O   UNL     1     140.303  71.040 221.332 -0.10 +0.04    -0.268 OA 
DOCKED: ATOM     12  H   UNL     1     139.537  73.467 223.359 -0.45 -0.05    +0.164 HD 
DOCKED: BRANCH  10  13
DOCKED: ATOM     13  C   UNL     1     139.994  70.874 223.683 -0.30 -0.02    +0.128 A  
DOCKED: ATOM     14  C   UNL     1     139.432  69.627 223.693 -0.25 -0.01    +0.035 A  
DOCKED: ATOM     15  N   UNL     1     140.487  71.367 224.838 -0.31 +0.04    -0.243 NA 
DOCKED: ATOM     16  C   UNL     1     139.389  68.912 224.894 -0.39 -0.00    +0.013 A  
DOCKED: ATOM     17  C   UNL     1     140.464  70.718 225.992 -0.53 -0.01    +0.071 A  
DOCKED: ATOM     18  C   UNL     1     139.909  69.467 226.038 -0.49 -0.00    +0.000 A  
DOCKED: ATOM     19  C   UNL     1     140.979  71.254 227.151 -0.70 -0.00    +0.029 A  
DOCKED: ATOM     20  C   UNL     1     139.836  68.708 227.190 -0.60 -0.00    +0.010 A  
DOCKED: ATOM     21  C   UNL     1     140.915  70.507 228.320 -0.58 -0.00    +0.002 A  
DOCKED: ATOM     22  C   UNL     1     140.357  69.251 228.365 -0.64 -0.00    +0.001 A  
DOCKED: ENDBRANCH  10  13
DOCKED: ENDBRANCH   8   9
DOCKED: ENDBRANCH   6   8
DOCKED: ENDBRANCH   1   6
DOCKED: BRANCH   5  23
DOCKED: ATOM     23  C   UNL     1     141.406  77.055 218.996 -0.17 -0.03    +0.067 C  
DOCKED: BRANCH  23  24
DOCKED: ATOM     24  C   UNL     1     141.105  78.498 219.123 -0.12 -0.11    +0.231 C  
DOCKED: BRANCH  24  25
DOCKED: ATOM     25  O   UNL     1     140.634  78.813 220.385 -0.01 +0.19    -0.494 OA 
DOCKED: BRANCH  25  26
DOCKED: ATOM     26  C   UNL     1     141.215  79.198 221.538 -0.29 -0.05    +0.119 A  
DOCKED: ATOM     27  C   UNL     1     141.946  80.394 221.517 -0.41 -0.02    +0.046 A  
DOCKED: ATOM     28  C   UNL     1     141.175  78.555 222.752 -0.47 -0.02    +0.046 A  
DOCKED: ATOM     29  C   UNL     1     142.577  80.886 222.633 -0.55 -0.00    +0.004 A  
DOCKED: ATOM     30  C   UNL     1     141.819  79.055 223.889 -0.62 -0.00    +0.004 A  
DOCKED: ATOM     31  C   UNL     1     142.524  80.225 223.836 -0.66 -0.00    +0.000 A  
DOCKED: ENDBRANCH  25  26
DOCKED: ENDBRANCH  24  25
DOCKED: ENDBRANCH  23  24
DOCKED: ENDBRANCH   5  23
DOCKED: BRANCH   3  32
DOCKED: ATOM     32  O   UNL     1     144.888  74.121 219.865 -0.23 +0.12    -0.391 OA 
DOCKED: ATOM     33  H   UNL     1     145.713  74.494 219.433 -0.36 -0.11    +0.211 HD 
DOCKED: ENDBRANCH   3  32
DOCKED: TORSDOF 9
DOCKED: TER
DOCKED: ENDMDL
________________________________________________________________________________


    CLUSTERING HISTOGRAM
    ____________________


________________________________________________________________________________
     |           |     |           |     |
Clus | Lowest    | Run | Mean      | Num | Histogram
-ter | Binding   |     | Binding   | in  |
Rank | Energy    |     | Energy    | Clus|    5    10   15   20   25   30   35
_____|___________|_____|___________|_____|____:____|____:____|____:____|____:___
   1 |     -9.07 |  19 |     -8.83 |  10 |##########
   2 |     -7.76 |  17 |     -7.76 |   1 |#
   3 |     -7.61 |   8 |     -7.42 |   7 |#######
   4 |     -6.97 |   6 |     -6.97 |   1 |#
   5 |     -6.39 |  16 |     -6.39 |   1 |#
_____|___________|_____|___________|_____|______________________________________


    RMSD TABLE
    __________


_______________________________________________________________________
     |      |      |           |         |                 |
Rank | Sub- | Run  | Binding   | Cluster | Reference       | Grep
     | Rank |      | Energy    | RMSD    | RMSD            | Pattern
_____|______|______|___________|_________|_________________|___________
   1      1     19       -9.07      0.00    271.92           RANKING
   1      2     20       -9.07      0.66    271.91           RANKING
   1      3      4       -9.00      0.58    271.92           RANKING
   1      4      7       -8.93      0.67    271.96           RANKING
   1      5     14       -8.92      0.67    271.93           RANKING
   1      6     10       -8.83      0.65    271.91           RANKING
   1      7      9       -8.75      1.56    272.06           RANKING
   1      8     18       -8.74      1.48    271.90           RANKING
   1      9     13       -8.66      0.62    271.79           RANKING
   1     10     12       -8.31      1.55    271.80           RANKING
   2      1     17       -7.76      0.00    271.67           RANKING
   3      1      8       -7.61      0.00    271.43           RANKING
   3      2      3       -7.57      0.72    271.69           RANKING
   3      3     15       -7.56      0.11    271.43           RANKING
   3      4     11       -7.47      0.74    271.67           RANKING
   3      5      1       -7.31      0.82    271.34           RANKING
   3      6      2       -7.21      0.71    271.56           RANKING
   3      7      5       -7.18      0.73    271.52           RANKING
   4      1      6       -6.97      0.00    270.80           RANKING
   5      1     16       -6.39      0.00    271.39           RANKING

Run time 1.134 sec
Idle time 0.000 sec
