AutoDock-GPU version: v1.6

**********************************************************
**    AutoDock-GPU AUTODOCKTOOLS-COMPATIBLE DLG FILE    **
**********************************************************


    DOCKING PARAMETERS
    ________________________


Ligand file:                               /home/a/REINVENT4/ReinventStudies/pleaseWork/justmol2mol_4_Compounds_ontop/graph-dock-hn62wh/graph-DockGPU/node-autodockgpu/inputs/YLRQYMCSDCCODA-JYMBYSSGNA-N.pdbqt
Grid fld file:                             /home/a/REINVENT4/ReinventStudies/mols/Rad51/maps/rad51_receptor.maps.fld

Random seed:                               42
Number of runs:                            20
Number of energy evaluations:              2040163
Number of generations:                     42000
Size of population:                        150
Rate of crossover:                         80.000000%
Tournament selection probability limit:    60.000000%
Rate of mutation:                          2.000000%
Maximal allowed delta movement:            +/- 6.000000A
Maximal allowed delta angle:               +/- 90.000000

Rate of local search:                      100.000000%
Maximal number of local search iterations: 300
Rho lower bound:                           0.010000
Spread of local search delta movement:     2.000000A
Spread of local search delta angle:        74.999999
Limit of consecutive successes/failures:   4

Handle symmetry during clustering:         YES
RMSD tolerance:                            2.000000A

Program call in command line was:          /home/a/REINVENT4/ReinventStudies/adgpu-v1.6_linux_x64_cuda12_128wi --filelist batch.txt --heuristics 1 --nrun 20 --psize 150 --lsit 300 --seed 42 --heurmax 12000000 


    GRID PARAMETERS
    ________________________


Receptor name:                             rad51_receptor
Number of grid points (x, y, z):           53, 53, 53
Grid center (x, y, z):                     139.950000, 75.640000, 221.970000A
Grid size (x, y, z):                       19.500000, 19.500000, 19.500000A
Grid spacing:                              0.375000A


    LIGAND PARAMETERS
    ________________________


Ligand name:                               /home/a/REINVENT4/ReinventStudies/pleaseWork/justmol2mol_4_Compounds_ontop/graph-dock-hn62wh/graph-DockGPU/node-autodockgpu/inputs/YLRQYMCSDCCODA-JYMBYSSGNA-N
Number of atoms:                           33
Number of rotatable bonds:                 9
Number of atom types:                      6


    DUMMY DATA (only for ADT-compatibility)
    ________________________


DPF> outlev 1
DPF> ga_run 20
DPF> fld /home/a/REINVENT4/ReinventStudies/mols/Rad51/maps/rad51_receptor.maps.fld
DPF> move /home/a/REINVENT4/ReinventStudies/pleaseWork/justmol2mol_4_Compounds_ontop/graph-dock-hn62wh/graph-DockGPU/node-autodockgpu/inputs/YLRQYMCSDCCODA-JYMBYSSGNA-N.pdbqt


    COUNTER STATES
    ________________________


Number of energy evaluations performed:    1113095
Number of generations used:                60


    INPUT LIGAND PDBQT FILE:
    ________________________


INPUT-LIGAND-PDBQT: REMARK SMILES O=C(NCC(=O)N1C[C@H](O)C[C@@H]1CCOc1ccccc1)c1ccc2ccccc2n1
INPUT-LIGAND-PDBQT: REMARK SMILES IDX 7 1 8 2 9 3 11 4 12 5 5 6 6 7 4 8 3 9 2 10 1 11 22 13 23 14
INPUT-LIGAND-PDBQT: REMARK SMILES IDX 31 15 24 16 30 17 25 18 29 19 26 20 28 21 27 22 13 23 14 24
INPUT-LIGAND-PDBQT: REMARK SMILES IDX 15 25 16 26 17 27 21 28 18 29 20 30 19 31 10 32
INPUT-LIGAND-PDBQT: REMARK H PARENT 3 12 10 33
INPUT-LIGAND-PDBQT: ROOT
INPUT-LIGAND-PDBQT: ATOM      1  N   UNL     1       0.766  -1.052   0.855  1.00  0.00    -0.335 N 
INPUT-LIGAND-PDBQT: ATOM      2  C   UNL     1       1.438  -1.671   1.999  1.00  0.00     0.151 C 
INPUT-LIGAND-PDBQT: ATOM      3  C   UNL     1       2.650  -2.372   1.401  1.00  0.00     0.136 C 
INPUT-LIGAND-PDBQT: ATOM      4  C   UNL     1       2.532  -2.120  -0.083  1.00  0.00     0.059 C 
INPUT-LIGAND-PDBQT: ATOM      5  C   UNL     1       1.848  -0.788  -0.114  1.00  0.00     0.091 C 
INPUT-LIGAND-PDBQT: ENDROOT
INPUT-LIGAND-PDBQT: BRANCH   1   6
INPUT-LIGAND-PDBQT: ATOM      6  C   UNL     1      -0.615  -0.761   0.689  1.00  0.00     0.242 C 
INPUT-LIGAND-PDBQT: ATOM      7  O   UNL     1      -1.008  -0.222  -0.377  1.00  0.00    -0.273 OA
INPUT-LIGAND-PDBQT: BRANCH   6   8
INPUT-LIGAND-PDBQT: ATOM      8  C   UNL     1      -1.524  -1.121   1.808  1.00  0.00     0.216 C 
INPUT-LIGAND-PDBQT: BRANCH   8   9
INPUT-LIGAND-PDBQT: ATOM      9  N   UNL     1      -2.856  -0.750   1.447  1.00  0.00    -0.342 N 
INPUT-LIGAND-PDBQT: ATOM     10  C   UNL     1      -3.117   0.626   1.166  1.00  0.00     0.270 C 
INPUT-LIGAND-PDBQT: ATOM     11  O   UNL     1      -2.184   1.498   1.236  1.00  0.00    -0.268 OA
INPUT-LIGAND-PDBQT: ATOM     12  H   UNL     1      -3.596  -1.472   1.397  1.00  0.00     0.164 HD
INPUT-LIGAND-PDBQT: BRANCH  10  13
INPUT-LIGAND-PDBQT: ATOM     13  C   UNL     1      -4.466   1.040   0.795  1.00  0.00     0.128 A 
INPUT-LIGAND-PDBQT: ATOM     14  C   UNL     1      -4.725   2.367   0.522  1.00  0.00     0.035 A 
INPUT-LIGAND-PDBQT: ATOM     15  N   UNL     1      -5.500   0.185   0.699  1.00  0.00    -0.243 NA
INPUT-LIGAND-PDBQT: ATOM     16  C   UNL     1      -5.968   2.841   0.164  1.00  0.00     0.013 A 
INPUT-LIGAND-PDBQT: ATOM     17  C   UNL     1      -6.741   0.595   0.353  1.00  0.00     0.071 A 
INPUT-LIGAND-PDBQT: ATOM     18  C   UNL     1      -6.990   1.930   0.081  1.00  0.00     0.000 A 
INPUT-LIGAND-PDBQT: ATOM     19  C   UNL     1      -7.767  -0.322   0.269  1.00  0.00     0.029 A 
INPUT-LIGAND-PDBQT: ATOM     20  C   UNL     1      -8.280   2.276  -0.267  1.00  0.00     0.010 A 
INPUT-LIGAND-PDBQT: ATOM     21  C   UNL     1      -9.062   0.025  -0.080  1.00  0.00     0.002 A 
INPUT-LIGAND-PDBQT: ATOM     22  C   UNL     1      -9.314   1.372  -0.354  1.00  0.00     0.001 A 
INPUT-LIGAND-PDBQT: ENDBRANCH  10  13
INPUT-LIGAND-PDBQT: ENDBRANCH   8   9
INPUT-LIGAND-PDBQT: ENDBRANCH   6   8
INPUT-LIGAND-PDBQT: ENDBRANCH   1   6
INPUT-LIGAND-PDBQT: BRANCH   5  23
INPUT-LIGAND-PDBQT: ATOM     23  C   UNL     1       2.629   0.347   0.456  1.00  0.00     0.067 C 
INPUT-LIGAND-PDBQT: BRANCH  23  24
INPUT-LIGAND-PDBQT: ATOM     24  C   UNL     1       3.792   0.809  -0.354  1.00  0.00     0.231 C 
INPUT-LIGAND-PDBQT: BRANCH  24  25
INPUT-LIGAND-PDBQT: ATOM     25  O   UNL     1       4.701  -0.264  -0.502  1.00  0.00    -0.494 OA
INPUT-LIGAND-PDBQT: BRANCH  25  26
INPUT-LIGAND-PDBQT: ATOM     26  C   UNL     1       5.872  -0.022  -1.242  1.00  0.00     0.119 A 
INPUT-LIGAND-PDBQT: ATOM     27  C   UNL     1       6.115   1.228  -1.802  1.00  0.00     0.046 A 
INPUT-LIGAND-PDBQT: ATOM     28  C   UNL     1       6.814  -1.010  -1.438  1.00  0.00     0.046 A 
INPUT-LIGAND-PDBQT: ATOM     29  C   UNL     1       7.256   1.448  -2.519  1.00  0.00     0.004 A 
INPUT-LIGAND-PDBQT: ATOM     30  C   UNL     1       7.965  -0.779  -2.163  1.00  0.00     0.004 A 
INPUT-LIGAND-PDBQT: ATOM     31  C   UNL     1       8.205   0.457  -2.717  1.00  0.00     0.000 A 
INPUT-LIGAND-PDBQT: ENDBRANCH  25  26
INPUT-LIGAND-PDBQT: ENDBRANCH  24  25
INPUT-LIGAND-PDBQT: ENDBRANCH  23  24
INPUT-LIGAND-PDBQT: ENDBRANCH   5  23
INPUT-LIGAND-PDBQT: BRANCH   3  32
INPUT-LIGAND-PDBQT: ATOM     32  O   UNL     1       3.843  -1.980   1.955  1.00  0.00    -0.391 OA
INPUT-LIGAND-PDBQT: ATOM     33  H   UNL     1       4.512  -2.705   1.996  1.00  0.00     0.211 HD
INPUT-LIGAND-PDBQT: ENDBRANCH   3  32
INPUT-LIGAND-PDBQT: TORSDOF 9


    FINAL DOCKED STATE:
    ________________________


Run:   1 / 20
Time taken for this run:   0.054s

DOCKED: MODEL        1
DOCKED: USER    Run = 1
DOCKED: USER
DOCKED: USER    Estimated Free Energy of Binding    =  -7.08 kcal/mol  [=(1)+(2)+(3)-(4)]
DOCKED: USER
DOCKED: USER    (1) Final Intermolecular Energy     =  -9.77 kcal/mol
DOCKED: USER        vdW + Hbond + desolv Energy     =  -9.42 kcal/mol
DOCKED: USER        Electrostatic Energy            =  -0.34 kcal/mol
DOCKED: USER        Moving Ligand-Fixed Receptor    =  -9.77 kcal/mol
DOCKED: USER        Moving Ligand-Moving Receptor   =  +0.00 kcal/mol
DOCKED: USER    (2) Final Total Internal Energy     =  -3.31 kcal/mol
DOCKED: USER    (3) Torsional Free Energy           =  +2.68 kcal/mol
DOCKED: USER    (4) Unbound System's Energy         =  -3.31 kcal/mol
DOCKED: USER
DOCKED: USER
DOCKED: REMARK SMILES O=C(NCC(=O)N1C[C@H](O)C[C@@H]1CCOc1ccccc1)c1ccc2ccccc2n1
DOCKED: REMARK SMILES IDX 7 1 8 2 9 3 11 4 12 5 5 6 6 7 4 8 3 9 2 10 1 11 22 13 23 14
DOCKED: REMARK SMILES IDX 31 15 24 16 30 17 25 18 29 19 26 20 28 21 27 22 13 23 14 24
DOCKED: REMARK SMILES IDX 15 25 16 26 17 27 21 28 18 29 20 30 19 31 10 32
DOCKED: REMARK H PARENT 3 12 10 33
DOCKED: USER                              x       y       z     vdW  Elec       q    Type
DOCKED: USER                           _______ _______ _______ _____ _____    ______ ____
DOCKED: ROOT
DOCKED: ATOM      1  N   UNL     1     142.987  73.077 219.972 -0.08 +0.06    -0.335 N  
DOCKED: ATOM      2  C   UNL     1     144.256  72.436 220.322 -0.29 -0.02    +0.151 C  
DOCKED: ATOM      3  C   UNL     1     145.090  72.510 219.051 -0.25 +0.03    +0.136 C  
DOCKED: ATOM      4  C   UNL     1     144.177  73.168 218.044 -0.14 -0.00    +0.059 C  
DOCKED: ATOM      5  C   UNL     1     143.341  74.050 218.919 -0.18 -0.03    +0.091 C  
DOCKED: ENDROOT
DOCKED: BRANCH   1   6
DOCKED: ATOM      6  C   UNL     1     141.694  72.836 220.507 -0.13 -0.04    +0.242 C  
DOCKED: ATOM      7  O   UNL     1     141.559  72.010 221.445 -0.17 +0.03    -0.273 OA 
DOCKED: BRANCH   6   8
DOCKED: ATOM      8  C   UNL     1     140.561  73.593 219.914 -0.07 -0.04    +0.216 C  
DOCKED: BRANCH   8   9
DOCKED: ATOM      9  N   UNL     1     140.651  74.953 220.341 -0.06 +0.09    -0.342 N  
DOCKED: ATOM     10  C   UNL     1     140.127  75.290 221.627 -0.22 -0.05    +0.270 C  
DOCKED: ATOM     11  O   UNL     1     139.593  74.397 222.371 -0.77 +0.03    -0.268 OA 
DOCKED: ATOM     12  H   UNL     1     141.087  75.660 219.722 +0.05 -0.06    +0.164 HD 
DOCKED: BRANCH  10  13
DOCKED: ATOM     13  C   UNL     1     140.202  76.670 222.094 -0.32 -0.03    +0.128 A  
DOCKED: ATOM     14  C   UNL     1     139.049  77.336 222.452 -0.30 -0.01    +0.035 A  
DOCKED: ATOM     15  N   UNL     1     141.357  77.351 222.202 -0.16 +0.12    -0.243 NA 
DOCKED: ATOM     16  C   UNL     1     139.031  78.637 222.904 -0.32 -0.00    +0.013 A  
DOCKED: ATOM     17  C   UNL     1     141.399  78.630 222.638 -0.46 -0.03    +0.071 A  
DOCKED: ATOM     18  C   UNL     1     140.235  79.289 222.995 -0.42 -0.00    +0.000 A  
DOCKED: ATOM     19  C   UNL     1     142.609  79.283 222.730 -0.53 -0.01    +0.029 A  
DOCKED: ATOM     20  C   UNL     1     140.353  80.593 223.433 -0.45 -0.00    +0.010 A  
DOCKED: ATOM     21  C   UNL     1     142.729  80.591 223.169 -0.65 -0.00    +0.002 A  
DOCKED: ATOM     22  C   UNL     1     141.554  81.258 223.529 -0.56 -0.00    +0.001 A  
DOCKED: ENDBRANCH  10  13
DOCKED: ENDBRANCH   8   9
DOCKED: ENDBRANCH   6   8
DOCKED: ENDBRANCH   1   6
DOCKED: BRANCH   5  23
DOCKED: ATOM     23  C   UNL     1     144.077  75.145 219.615 -0.26 -0.04    +0.067 C  
DOCKED: BRANCH  23  24
DOCKED: ATOM     24  C   UNL     1     143.278  76.358 219.946 -0.05 -0.17    +0.231 C  
DOCKED: BRANCH  24  25
DOCKED: ATOM     25  O   UNL     1     142.625  76.809 218.776 -0.12 +0.29    -0.494 OA 
DOCKED: BRANCH  25  26
DOCKED: ATOM     26  C   UNL     1     142.192  78.147 218.752 -0.25 -0.08    +0.119 A  
DOCKED: ATOM     27  C   UNL     1     140.978  78.513 219.325 -0.17 -0.02    +0.046 A  
DOCKED: ATOM     28  C   UNL     1     142.950  79.136 218.161 -0.24 -0.05    +0.046 A  
DOCKED: ATOM     29  C   UNL     1     140.570  79.816 219.293 -0.15 -0.00    +0.004 A  
DOCKED: ATOM     30  C   UNL     1     142.530  80.450 218.134 -0.35 -0.00    +0.004 A  
DOCKED: ATOM     31  C   UNL     1     141.331  80.812 218.701 -0.22 -0.00    +0.000 A  
DOCKED: ENDBRANCH  25  26
DOCKED: ENDBRANCH  24  25
DOCKED: ENDBRANCH  23  24
DOCKED: ENDBRANCH   5  23
DOCKED: BRANCH   3  32
DOCKED: ATOM     32  O   UNL     1     146.300  73.135 219.220 -0.70 -0.30    -0.391 OA 
DOCKED: ATOM     33  H   UNL     1     146.288  74.087 218.958 -0.46 -0.02    +0.211 HD 
DOCKED: ENDBRANCH   3  32
DOCKED: TORSDOF 9
DOCKED: TER
DOCKED: ENDMDL
________________________________________________________________________________


    FINAL DOCKED STATE:
    ________________________


Run:   2 / 20
Time taken for this run:   0.054s

DOCKED: MODEL        2
DOCKED: USER    Run = 2
DOCKED: USER
DOCKED: USER    Estimated Free Energy of Binding    =  -7.33 kcal/mol  [=(1)+(2)+(3)-(4)]
DOCKED: USER
DOCKED: USER    (1) Final Intermolecular Energy     = -10.01 kcal/mol
DOCKED: USER        vdW + Hbond + desolv Energy     =  -9.99 kcal/mol
DOCKED: USER        Electrostatic Energy            =  -0.02 kcal/mol
DOCKED: USER        Moving Ligand-Fixed Receptor    = -10.01 kcal/mol
DOCKED: USER        Moving Ligand-Moving Receptor   =  +0.00 kcal/mol
DOCKED: USER    (2) Final Total Internal Energy     =  -2.56 kcal/mol
DOCKED: USER    (3) Torsional Free Energy           =  +2.68 kcal/mol
DOCKED: USER    (4) Unbound System's Energy         =  -2.56 kcal/mol
DOCKED: USER
DOCKED: USER
DOCKED: REMARK SMILES O=C(NCC(=O)N1C[C@H](O)C[C@@H]1CCOc1ccccc1)c1ccc2ccccc2n1
DOCKED: REMARK SMILES IDX 7 1 8 2 9 3 11 4 12 5 5 6 6 7 4 8 3 9 2 10 1 11 22 13 23 14
DOCKED: REMARK SMILES IDX 31 15 24 16 30 17 25 18 29 19 26 20 28 21 27 22 13 23 14 24
DOCKED: REMARK SMILES IDX 15 25 16 26 17 27 21 28 18 29 20 30 19 31 10 32
DOCKED: REMARK H PARENT 3 12 10 33
DOCKED: USER                              x       y       z     vdW  Elec       q    Type
DOCKED: USER                           _______ _______ _______ _____ _____    ______ ____
DOCKED: ROOT
DOCKED: ATOM      1  N   UNL     1     137.650  75.131 221.540 -0.07 +0.08    -0.335 N  
DOCKED: ATOM      2  C   UNL     1     137.111  76.226 220.731 -0.05 -0.03    +0.151 C  
DOCKED: ATOM      3  C   UNL     1     137.621  77.492 221.407 -0.11 -0.03    +0.136 C  
DOCKED: ATOM      4  C   UNL     1     138.391  76.990 222.605 -0.27 -0.01    +0.059 C  
DOCKED: ATOM      5  C   UNL     1     138.900  75.671 222.111 -0.26 -0.02    +0.091 C  
DOCKED: ENDROOT
DOCKED: BRANCH   1   6
DOCKED: ATOM      6  C   UNL     1     137.111  73.833 221.746 -0.09 -0.06    +0.242 C  
DOCKED: ATOM      7  O   UNL     1     135.985  73.712 222.292 -0.08 +0.06    -0.273 OA 
DOCKED: BRANCH   6   8
DOCKED: ATOM      8  C   UNL     1     137.929  72.678 221.293 -0.07 -0.05    +0.216 C  
DOCKED: BRANCH   8   9
DOCKED: ATOM      9  N   UNL     1     138.280  71.895 222.436 -0.08 +0.09    -0.342 N  
DOCKED: ATOM     10  C   UNL     1     139.541  72.142 223.059 -0.11 -0.06    +0.270 C  
DOCKED: ATOM     11  O   UNL     1     140.331  73.040 222.606 -0.69 +0.01    -0.268 OA 
DOCKED: ATOM     12  H   UNL     1     137.625  71.173 222.786 +0.04 -0.04    +0.164 HD 
DOCKED: BRANCH  10  13
DOCKED: ATOM     13  C   UNL     1     139.931  71.360 224.228 -0.36 -0.02    +0.128 A  
DOCKED: ATOM     14  C   UNL     1     140.804  71.897 225.151 -0.33 -0.00    +0.035 A  
DOCKED: ATOM     15  N   UNL     1     139.478  70.117 224.467 -0.20 +0.04    -0.243 NA 
DOCKED: ATOM     16  C   UNL     1     141.222  71.227 226.280 -0.65 -0.00    +0.013 A  
DOCKED: ATOM     17  C   UNL     1     139.856  69.413 225.559 -0.40 -0.01    +0.071 A  
DOCKED: ATOM     18  C   UNL     1     140.733  69.961 226.479 -0.56 -0.00    +0.000 A  
DOCKED: ATOM     19  C   UNL     1     139.363  68.141 225.758 -0.52 -0.00    +0.029 A  
DOCKED: ATOM     20  C   UNL     1     141.073  69.186 227.570 -0.59 -0.00    +0.010 A  
DOCKED: ATOM     21  C   UNL     1     139.704  67.363 226.852 -0.57 -0.00    +0.002 A  
DOCKED: ATOM     22  C   UNL     1     140.590  67.915 227.781 -0.55 -0.00    +0.001 A  
DOCKED: ENDBRANCH  10  13
DOCKED: ENDBRANCH   8   9
DOCKED: ENDBRANCH   6   8
DOCKED: ENDBRANCH   1   6
DOCKED: BRANCH   5  23
DOCKED: ATOM     23  C   UNL     1     139.863  75.740 220.976 -0.21 -0.02    +0.067 C  
DOCKED: BRANCH  23  24
DOCKED: ATOM     24  C   UNL     1     141.132  76.477 221.241 -0.21 -0.10    +0.231 C  
DOCKED: BRANCH  24  25
DOCKED: ATOM     25  O   UNL     1     140.934  77.846 220.950 -0.05 +0.21    -0.494 OA 
DOCKED: BRANCH  25  26
DOCKED: ATOM     26  C   UNL     1     141.378  78.781 221.902 -0.34 -0.05    +0.119 A  
DOCKED: ATOM     27  C   UNL     1     141.803  80.047 221.513 -0.40 -0.02    +0.046 A  
DOCKED: ATOM     28  C   UNL     1     141.408  78.476 223.246 -0.53 -0.02    +0.046 A  
DOCKED: ATOM     29  C   UNL     1     142.233  80.944 222.448 -0.54 -0.00    +0.004 A  
DOCKED: ATOM     30  C   UNL     1     141.843  79.388 224.186 -0.54 -0.00    +0.004 A  
DOCKED: ATOM     31  C   UNL     1     142.263  80.640 223.801 -0.65 -0.00    +0.000 A  
DOCKED: ENDBRANCH  25  26
DOCKED: ENDBRANCH  24  25
DOCKED: ENDBRANCH  23  24
DOCKED: ENDBRANCH   5  23
DOCKED: BRANCH   3  32
DOCKED: ATOM     32  O   UNL     1     138.333  78.315 220.571 -0.01 +0.09    -0.391 OA 
DOCKED: ATOM     33  H   UNL     1     139.305  78.138 220.583 +0.06 -0.06    +0.211 HD 
DOCKED: ENDBRANCH   3  32
DOCKED: TORSDOF 9
DOCKED: TER
DOCKED: ENDMDL
________________________________________________________________________________


    FINAL DOCKED STATE:
    ________________________


Run:   3 / 20
Time taken for this run:   0.054s

DOCKED: MODEL        3
DOCKED: USER    Run = 3
DOCKED: USER
DOCKED: USER    Estimated Free Energy of Binding    =  -7.59 kcal/mol  [=(1)+(2)+(3)-(4)]
DOCKED: USER
DOCKED: USER    (1) Final Intermolecular Energy     = -10.28 kcal/mol
DOCKED: USER        vdW + Hbond + desolv Energy     = -10.26 kcal/mol
DOCKED: USER        Electrostatic Energy            =  -0.02 kcal/mol
DOCKED: USER        Moving Ligand-Fixed Receptor    = -10.28 kcal/mol
DOCKED: USER        Moving Ligand-Moving Receptor   =  +0.00 kcal/mol
DOCKED: USER    (2) Final Total Internal Energy     =  -2.32 kcal/mol
DOCKED: USER    (3) Torsional Free Energy           =  +2.68 kcal/mol
DOCKED: USER    (4) Unbound System's Energy         =  -2.32 kcal/mol
DOCKED: USER
DOCKED: USER
DOCKED: REMARK SMILES O=C(NCC(=O)N1C[C@H](O)C[C@@H]1CCOc1ccccc1)c1ccc2ccccc2n1
DOCKED: REMARK SMILES IDX 7 1 8 2 9 3 11 4 12 5 5 6 6 7 4 8 3 9 2 10 1 11 22 13 23 14
DOCKED: REMARK SMILES IDX 31 15 24 16 30 17 25 18 29 19 26 20 28 21 27 22 13 23 14 24
DOCKED: REMARK SMILES IDX 15 25 16 26 17 27 21 28 18 29 20 30 19 31 10 32
DOCKED: REMARK H PARENT 3 12 10 33
DOCKED: USER                              x       y       z     vdW  Elec       q    Type
DOCKED: USER                           _______ _______ _______ _____ _____    ______ ____
DOCKED: ROOT
DOCKED: ATOM      1  N   UNL     1     140.112  76.540 221.537 -0.14 +0.09    -0.335 N  
DOCKED: ATOM      2  C   UNL     1     141.076  76.763 220.458 -0.20 -0.06    +0.151 C  
DOCKED: ATOM      3  C   UNL     1     140.986  78.254 220.163 -0.18 -0.06    +0.136 C  
DOCKED: ATOM      4  C   UNL     1     139.912  78.755 221.098 -0.18 -0.02    +0.059 C  
DOCKED: ATOM      5  C   UNL     1     140.061  77.825 222.263 -0.33 -0.02    +0.091 C  
DOCKED: ENDROOT
DOCKED: BRANCH   1   6
DOCKED: ATOM      6  C   UNL     1     139.376  75.363 221.839 -0.21 -0.05    +0.242 C  
DOCKED: ATOM      7  O   UNL     1     138.239  75.464 222.367 -0.22 +0.08    -0.273 OA 
DOCKED: BRANCH   6   8
DOCKED: ATOM      8  C   UNL     1     140.009  74.061 221.503 -0.21 -0.03    +0.216 C  
DOCKED: BRANCH   8   9
DOCKED: ATOM      9  N   UNL     1     139.721  73.133 222.551 -0.09 +0.06    -0.342 N  
DOCKED: ATOM     10  C   UNL     1     140.604  72.024 222.727 -0.19 -0.02    +0.270 C  
DOCKED: ATOM     11  O   UNL     1     141.623  71.870 221.969 -0.16 +0.02    -0.268 OA 
DOCKED: ATOM     12  H   UNL     1     138.891  73.277 223.152 -0.46 -0.10    +0.164 HD 
DOCKED: BRANCH  10  13
DOCKED: ATOM     13  C   UNL     1     140.340  71.057 223.787 -0.31 -0.02    +0.128 A  
DOCKED: ATOM     14  C   UNL     1     139.567  69.945 223.523 -0.25 -0.01    +0.035 A  
DOCKED: ATOM     15  N   UNL     1     140.816  71.184 225.038 -0.33 +0.03    -0.243 NA 
DOCKED: ATOM     16  C   UNL     1     139.270  68.984 224.464 -0.34 -0.00    +0.013 A  
DOCKED: ATOM     17  C   UNL     1     140.556  70.273 226.002 -0.49 -0.01    +0.071 A  
DOCKED: ATOM     18  C   UNL     1     139.778  69.160 225.726 -0.47 -0.00    +0.000 A  
DOCKED: ATOM     19  C   UNL     1     141.068  70.450 227.270 -0.59 -0.00    +0.029 A  
DOCKED: ATOM     20  C   UNL     1     139.555  68.271 226.758 -0.60 -0.00    +0.010 A  
DOCKED: ATOM     21  C   UNL     1     140.844  69.558 228.306 -0.60 -0.00    +0.002 A  
DOCKED: ATOM     22  C   UNL     1     140.059  68.436 228.028 -0.64 -0.00    +0.001 A  
DOCKED: ENDBRANCH  10  13
DOCKED: ENDBRANCH   8   9
DOCKED: ENDBRANCH   6   8
DOCKED: ENDBRANCH   1   6
DOCKED: BRANCH   5  23
DOCKED: ATOM     23  C   UNL     1     141.354  77.921 222.999 -0.38 -0.03    +0.067 C  
DOCKED: BRANCH  23  24
DOCKED: ATOM     24  C   UNL     1     141.576  79.182 223.762 -0.43 -0.06    +0.231 C  
DOCKED: BRANCH  24  25
DOCKED: ATOM     25  O   UNL     1     142.165  80.139 222.904 -0.22 +0.15    -0.494 OA 
DOCKED: BRANCH  25  26
DOCKED: ATOM     26  C   UNL     1     141.326  81.138 222.377 -0.38 -0.02    +0.119 A  
DOCKED: ATOM     27  C   UNL     1     141.769  81.975 221.358 -0.29 -0.01    +0.046 A  
DOCKED: ATOM     28  C   UNL     1     140.044  81.321 222.851 -0.30 -0.01    +0.046 A  
DOCKED: ATOM     29  C   UNL     1     140.944  82.941 220.857 -0.29 -0.00    +0.004 A  
DOCKED: ATOM     30  C   UNL     1     139.216  82.299 222.338 -0.12 -0.00    +0.004 A  
DOCKED: ATOM     31  C   UNL     1     139.654  83.127 221.331 -0.22 -0.00    +0.000 A  
DOCKED: ENDBRANCH  25  26
DOCKED: ENDBRANCH  24  25
DOCKED: ENDBRANCH  23  24
DOCKED: ENDBRANCH   5  23
DOCKED: BRANCH   3  32
DOCKED: ATOM     32  O   UNL     1     142.187  78.910 220.267 -0.10 +0.28    -0.391 OA 
DOCKED: ATOM     33  H   UNL     1     142.569  78.885 221.177 -0.34 -0.18    +0.211 HD 
DOCKED: ENDBRANCH   3  32
DOCKED: TORSDOF 9
DOCKED: TER
DOCKED: ENDMDL
________________________________________________________________________________


    FINAL DOCKED STATE:
    ________________________


Run:   4 / 20
Time taken for this run:   0.054s

DOCKED: MODEL        4
DOCKED: USER    Run = 4
DOCKED: USER
DOCKED: USER    Estimated Free Energy of Binding    =  -7.55 kcal/mol  [=(1)+(2)+(3)-(4)]
DOCKED: USER
DOCKED: USER    (1) Final Intermolecular Energy     = -10.24 kcal/mol
DOCKED: USER        vdW + Hbond + desolv Energy     = -10.27 kcal/mol
DOCKED: USER        Electrostatic Energy            =  +0.03 kcal/mol
DOCKED: USER        Moving Ligand-Fixed Receptor    = -10.24 kcal/mol
DOCKED: USER        Moving Ligand-Moving Receptor   =  +0.00 kcal/mol
DOCKED: USER    (2) Final Total Internal Energy     =  -2.21 kcal/mol
DOCKED: USER    (3) Torsional Free Energy           =  +2.68 kcal/mol
DOCKED: USER    (4) Unbound System's Energy         =  -2.21 kcal/mol
DOCKED: USER
DOCKED: USER
DOCKED: REMARK SMILES O=C(NCC(=O)N1C[C@H](O)C[C@@H]1CCOc1ccccc1)c1ccc2ccccc2n1
DOCKED: REMARK SMILES IDX 7 1 8 2 9 3 11 4 12 5 5 6 6 7 4 8 3 9 2 10 1 11 22 13 23 14
DOCKED: REMARK SMILES IDX 31 15 24 16 30 17 25 18 29 19 26 20 28 21 27 22 13 23 14 24
DOCKED: REMARK SMILES IDX 15 25 16 26 17 27 21 28 18 29 20 30 19 31 10 32
DOCKED: REMARK H PARENT 3 12 10 33
DOCKED: USER                              x       y       z     vdW  Elec       q    Type
DOCKED: USER                           _______ _______ _______ _____ _____    ______ ____
DOCKED: ROOT
DOCKED: ATOM      1  N   UNL     1     140.656  72.944 220.020 -0.02 +0.06    -0.335 N  
DOCKED: ATOM      2  C   UNL     1     141.973  72.900 220.658 -0.19 -0.02    +0.151 C  
DOCKED: ATOM      3  C   UNL     1     142.771  73.999 219.969 -0.22 -0.04    +0.136 C  
DOCKED: ATOM      4  C   UNL     1     141.823  74.557 218.936 -0.11 -0.02    +0.059 C  
DOCKED: ATOM      5  C   UNL     1     140.494  74.348 219.596 -0.08 -0.02    +0.091 C  
DOCKED: ENDROOT
DOCKED: BRANCH   1   6
DOCKED: ATOM      6  C   UNL     1     139.725  71.886 219.837 -0.03 -0.04    +0.242 C  
DOCKED: ATOM      7  O   UNL     1     139.949  71.011 218.962 -0.01 +0.05    -0.273 OA 
DOCKED: BRANCH   6   8
DOCKED: ATOM      8  C   UNL     1     138.522  71.882 220.709 -0.04 -0.04    +0.216 C  
DOCKED: BRANCH   8   9
DOCKED: ATOM      9  N   UNL     1     138.844  71.202 221.923 -0.05 +0.07    -0.342 N  
DOCKED: ATOM     10  C   UNL     1     139.565  71.921 222.925 -0.20 -0.06    +0.270 C  
DOCKED: ATOM     11  O   UNL     1     139.910  73.138 222.737 -0.70 +0.03    -0.268 OA 
DOCKED: ATOM     12  H   UNL     1     138.556  70.216 222.053 +0.04 -0.03    +0.164 HD 
DOCKED: BRANCH  10  13
DOCKED: ATOM     13  C   UNL     1     139.912  71.256 224.176 -0.36 -0.02    +0.128 A  
DOCKED: ATOM     14  C   UNL     1     140.740  71.888 225.081 -0.36 -0.00    +0.035 A  
DOCKED: ATOM     15  N   UNL     1     139.462  70.034 224.512 -0.19 +0.04    -0.243 NA 
DOCKED: ATOM     16  C   UNL     1     141.115  71.332 226.285 -0.67 -0.00    +0.013 A  
DOCKED: ATOM     17  C   UNL     1     139.799  69.440 225.679 -0.41 -0.01    +0.071 A  
DOCKED: ATOM     18  C   UNL     1     140.631  70.084 226.581 -0.57 -0.00    +0.000 A  
DOCKED: ATOM     19  C   UNL     1     139.311  68.185 225.976 -0.53 -0.00    +0.029 A  
DOCKED: ATOM     20  C   UNL     1     140.931  69.418 227.752 -0.60 -0.00    +0.010 A  
DOCKED: ATOM     21  C   UNL     1     139.613  67.517 227.151 -0.45 -0.00    +0.002 A  
DOCKED: ATOM     22  C   UNL     1     140.452  68.166 228.061 -0.64 -0.00    +0.001 A  
DOCKED: ENDBRANCH  10  13
DOCKED: ENDBRANCH   8   9
DOCKED: ENDBRANCH   6   8
DOCKED: ENDBRANCH   1   6
DOCKED: BRANCH   5  23
DOCKED: ATOM     23  C   UNL     1     140.272  75.123 220.850 -0.22 -0.02    +0.067 C  
DOCKED: BRANCH  23  24
DOCKED: ATOM     24  C   UNL     1     140.685  76.555 220.812 -0.17 -0.08    +0.231 C  
DOCKED: BRANCH  24  25
DOCKED: ATOM     25  O   UNL     1     141.234  76.906 222.067 -0.12 +0.23    -0.494 OA 
DOCKED: BRANCH  25  26
DOCKED: ATOM     26  C   UNL     1     141.475  78.270 222.309 -0.36 -0.06    +0.119 A  
DOCKED: ATOM     27  C   UNL     1     141.583  78.755 223.609 -0.56 -0.01    +0.046 A  
DOCKED: ATOM     28  C   UNL     1     141.611  79.170 221.273 -0.35 -0.02    +0.046 A  
DOCKED: ATOM     29  C   UNL     1     141.816  80.082 223.829 -0.61 -0.00    +0.004 A  
DOCKED: ATOM     30  C   UNL     1     141.847  80.509 221.504 -0.43 -0.00    +0.004 A  
DOCKED: ATOM     31  C   UNL     1     141.954  80.988 222.789 -0.56 -0.00    +0.000 A  
DOCKED: ENDBRANCH  25  26
DOCKED: ENDBRANCH  24  25
DOCKED: ENDBRANCH  23  24
DOCKED: ENDBRANCH   5  23
DOCKED: BRANCH   3  32
DOCKED: ATOM     32  O   UNL     1     143.289  74.930 220.834 -0.11 +0.20    -0.391 OA 
DOCKED: ATOM     33  H   UNL     1     142.599  75.395 221.367 -0.39 -0.13    +0.211 HD 
DOCKED: ENDBRANCH   3  32
DOCKED: TORSDOF 9
DOCKED: TER
DOCKED: ENDMDL
________________________________________________________________________________


    FINAL DOCKED STATE:
    ________________________


Run:   5 / 20
Time taken for this run:   0.054s

DOCKED: MODEL        5
DOCKED: USER    Run = 5
DOCKED: USER
DOCKED: USER    Estimated Free Energy of Binding    =  -7.91 kcal/mol  [=(1)+(2)+(3)-(4)]
DOCKED: USER
DOCKED: USER    (1) Final Intermolecular Energy     = -10.59 kcal/mol
DOCKED: USER        vdW + Hbond + desolv Energy     = -10.46 kcal/mol
DOCKED: USER        Electrostatic Energy            =  -0.13 kcal/mol
DOCKED: USER        Moving Ligand-Fixed Receptor    = -10.59 kcal/mol
DOCKED: USER        Moving Ligand-Moving Receptor   =  +0.00 kcal/mol
DOCKED: USER    (2) Final Total Internal Energy     =  -2.37 kcal/mol
DOCKED: USER    (3) Torsional Free Energy           =  +2.68 kcal/mol
DOCKED: USER    (4) Unbound System's Energy         =  -2.37 kcal/mol
DOCKED: USER
DOCKED: USER
DOCKED: REMARK SMILES O=C(NCC(=O)N1C[C@H](O)C[C@@H]1CCOc1ccccc1)c1ccc2ccccc2n1
DOCKED: REMARK SMILES IDX 7 1 8 2 9 3 11 4 12 5 5 6 6 7 4 8 3 9 2 10 1 11 22 13 23 14
DOCKED: REMARK SMILES IDX 31 15 24 16 30 17 25 18 29 19 26 20 28 21 27 22 13 23 14 24
DOCKED: REMARK SMILES IDX 15 25 16 26 17 27 21 28 18 29 20 30 19 31 10 32
DOCKED: REMARK H PARENT 3 12 10 33
DOCKED: USER                              x       y       z     vdW  Elec       q    Type
DOCKED: USER                           _______ _______ _______ _____ _____    ______ ____
DOCKED: ROOT
DOCKED: ATOM      1  N   UNL     1     142.878  73.885 220.331 -0.13 +0.09    -0.335 N  
DOCKED: ATOM      2  C   UNL     1     144.118  74.477 219.825 -0.32 -0.06    +0.151 C  
DOCKED: ATOM      3  C   UNL     1     145.189  73.436 220.118 -0.45 -0.01    +0.136 C  
DOCKED: ATOM      4  C   UNL     1     144.449  72.328 220.828 -0.33 -0.01    +0.059 C  
DOCKED: ATOM      5  C   UNL     1     143.086  72.428 220.215 -0.22 -0.01    +0.091 C  
DOCKED: ENDROOT
DOCKED: BRANCH   1   6
DOCKED: ATOM      6  C   UNL     1     141.720  74.542 220.829 -0.19 -0.06    +0.242 C  
DOCKED: ATOM      7  O   UNL     1     141.818  75.717 221.264 -0.21 +0.13    -0.273 OA 
DOCKED: BRANCH   6   8
DOCKED: ATOM      8  C   UNL     1     140.444  73.782 220.802 -0.15 -0.04    +0.216 C  
DOCKED: BRANCH   8   9
DOCKED: ATOM      9  N   UNL     1     140.228  73.211 222.094 -0.16 +0.03    -0.342 N  
DOCKED: ATOM     10  C   UNL     1     140.424  71.804 222.248 -0.19 -0.03    +0.270 C  
DOCKED: ATOM     11  O   UNL     1     140.782  71.080 221.257 -0.11 +0.04    -0.268 OA 
DOCKED: ATOM     12  H   UNL     1     139.938  73.816 222.882 -0.24 +0.01    +0.164 HD 
DOCKED: BRANCH  10  13
DOCKED: ATOM     13  C   UNL     1     140.212  71.189 223.554 -0.31 -0.02    +0.128 A  
DOCKED: ATOM     14  C   UNL     1     139.539  69.988 223.644 -0.27 -0.01    +0.035 A  
DOCKED: ATOM     15  N   UNL     1     140.646  71.732 224.705 -0.28 +0.03    -0.243 NA 
DOCKED: ATOM     16  C   UNL     1     139.297  69.340 224.835 -0.38 -0.00    +0.013 A  
DOCKED: ATOM     17  C   UNL     1     140.436  71.140 225.903 -0.54 -0.01    +0.071 A  
DOCKED: ATOM     18  C   UNL     1     139.758  69.935 225.982 -0.48 -0.00    +0.000 A  
DOCKED: ATOM     19  C   UNL     1     140.901  71.740 227.054 -0.74 -0.01    +0.029 A  
DOCKED: ATOM     20  C   UNL     1     139.582  69.389 227.237 -0.56 -0.00    +0.010 A  
DOCKED: ATOM     21  C   UNL     1     140.724  71.191 228.314 -0.69 -0.00    +0.002 A  
DOCKED: ATOM     22  C   UNL     1     140.039  69.976 228.394 -0.56 -0.00    +0.001 A  
DOCKED: ENDBRANCH  10  13
DOCKED: ENDBRANCH   8   9
DOCKED: ENDBRANCH   6   8
DOCKED: ENDBRANCH   1   6
DOCKED: BRANCH   5  23
DOCKED: ATOM     23  C   UNL     1     143.017  72.128 218.756 -0.09 -0.01    +0.067 C  
DOCKED: BRANCH  23  24
DOCKED: ATOM     24  C   UNL     1     143.330  70.724 218.364 -0.04 -0.01    +0.231 C  
DOCKED: BRANCH  24  25
DOCKED: ATOM     25  O   UNL     1     144.733  70.556 218.348 -0.01 -0.10    -0.494 OA 
DOCKED: BRANCH  25  26
DOCKED: ATOM     26  C   UNL     1     145.229  69.245 218.458 -0.23 +0.02    +0.119 A  
DOCKED: ATOM     27  C   UNL     1     145.112  68.537 219.650 -0.36 +0.01    +0.046 A  
DOCKED: ATOM     28  C   UNL     1     145.845  68.619 217.395 -0.22 +0.00    +0.046 A  
DOCKED: ATOM     29  C   UNL     1     145.598  67.264 219.742 -0.52 -0.00    +0.004 A  
DOCKED: ATOM     30  C   UNL     1     146.333  67.332 217.496 -0.36 -0.00    +0.004 A  
DOCKED: ATOM     31  C   UNL     1     146.218  66.633 218.675 -0.51 -0.00    +0.000 A  
DOCKED: ENDBRANCH  25  26
DOCKED: ENDBRANCH  24  25
DOCKED: ENDBRANCH  23  24
DOCKED: ENDBRANCH   5  23
DOCKED: BRANCH   3  32
DOCKED: ATOM     32  O   UNL     1     145.889  73.036 219.007 -0.71 -0.23    -0.391 OA 
DOCKED: ATOM     33  H   UNL     1     145.511  72.233 218.575 +0.08 +0.14    +0.211 HD 
DOCKED: ENDBRANCH   3  32
DOCKED: TORSDOF 9
DOCKED: TER
DOCKED: ENDMDL
________________________________________________________________________________


    FINAL DOCKED STATE:
    ________________________


Run:   6 / 20
Time taken for this run:   0.054s

DOCKED: MODEL        6
DOCKED: USER    Run = 6
DOCKED: USER
DOCKED: USER    Estimated Free Energy of Binding    =  -7.96 kcal/mol  [=(1)+(2)+(3)-(4)]
DOCKED: USER
DOCKED: USER    (1) Final Intermolecular Energy     = -10.64 kcal/mol
DOCKED: USER        vdW + Hbond + desolv Energy     = -10.27 kcal/mol
DOCKED: USER        Electrostatic Energy            =  -0.37 kcal/mol
DOCKED: USER        Moving Ligand-Fixed Receptor    = -10.64 kcal/mol
DOCKED: USER        Moving Ligand-Moving Receptor   =  +0.00 kcal/mol
DOCKED: USER    (2) Final Total Internal Energy     =  -2.01 kcal/mol
DOCKED: USER    (3) Torsional Free Energy           =  +2.68 kcal/mol
DOCKED: USER    (4) Unbound System's Energy         =  -2.01 kcal/mol
DOCKED: USER
DOCKED: USER
DOCKED: REMARK SMILES O=C(NCC(=O)N1C[C@H](O)C[C@@H]1CCOc1ccccc1)c1ccc2ccccc2n1
DOCKED: REMARK SMILES IDX 7 1 8 2 9 3 11 4 12 5 5 6 6 7 4 8 3 9 2 10 1 11 22 13 23 14
DOCKED: REMARK SMILES IDX 31 15 24 16 30 17 25 18 29 19 26 20 28 21 27 22 13 23 14 24
DOCKED: REMARK SMILES IDX 15 25 16 26 17 27 21 28 18 29 20 30 19 31 10 32
DOCKED: REMARK H PARENT 3 12 10 33
DOCKED: USER                              x       y       z     vdW  Elec       q    Type
DOCKED: USER                           _______ _______ _______ _____ _____    ______ ____
DOCKED: ROOT
DOCKED: ATOM      1  N   UNL     1     143.075  73.470 220.130 -0.11 +0.07    -0.335 N  
DOCKED: ATOM      2  C   UNL     1     144.110  74.061 219.280 -0.24 -0.04    +0.151 C  
DOCKED: ATOM      3  C   UNL     1     145.424  73.580 219.880 -0.38 -0.01    +0.136 C  
DOCKED: ATOM      4  C   UNL     1     145.009  72.769 221.084 -0.38 -0.01    +0.059 C  
DOCKED: ATOM      5  C   UNL     1     143.683  72.227 220.646 -0.27 -0.01    +0.091 C  
DOCKED: ENDROOT
DOCKED: BRANCH   1   6
DOCKED: ATOM      6  C   UNL     1     141.772  73.961 220.413 -0.16 -0.05    +0.242 C  
DOCKED: ATOM      7  O   UNL     1     141.638  75.123 220.876 -0.22 +0.09    -0.273 OA 
DOCKED: BRANCH   6   8
DOCKED: ATOM      8  C   UNL     1     140.629  73.053 220.138 -0.08 -0.04    +0.216 C  
DOCKED: BRANCH   8   9
DOCKED: ATOM      9  N   UNL     1     140.557  72.084 221.186 -0.08 +0.05    -0.342 N  
DOCKED: ATOM     10  C   UNL     1     140.188  72.533 222.491 -0.20 -0.03    +0.270 C  
DOCKED: ATOM     11  O   UNL     1     139.930  73.766 222.712 -0.73 -0.00    -0.268 OA 
DOCKED: ATOM     12  H   UNL     1     140.771  71.092 220.985 +0.04 -0.02    +0.164 HD 
DOCKED: BRANCH  10  13
DOCKED: ATOM     13  C   UNL     1     140.106  71.571 223.584 -0.33 -0.02    +0.128 A  
DOCKED: ATOM     14  C   UNL     1     139.481  70.357 223.384 -0.27 -0.01    +0.035 A  
DOCKED: ATOM     15  N   UNL     1     140.616  71.799 224.808 -0.28 +0.03    -0.243 NA 
DOCKED: ATOM     16  C   UNL     1     139.361  69.394 224.361 -0.33 -0.00    +0.013 A  
DOCKED: ATOM     17  C   UNL     1     140.526  70.889 225.804 -0.53 -0.01    +0.071 A  
DOCKED: ATOM     18  C   UNL     1     139.896  69.674 225.593 -0.45 -0.00    +0.000 A  
DOCKED: ATOM     19  C   UNL     1     141.066  71.173 227.041 -0.68 -0.00    +0.029 A  
DOCKED: ATOM     20  C   UNL     1     139.843  68.794 226.655 -0.57 -0.00    +0.010 A  
DOCKED: ATOM     21  C   UNL     1     141.012  70.290 228.107 -0.60 -0.00    +0.002 A  
DOCKED: ATOM     22  C   UNL     1     140.376  69.064 227.894 -0.64 -0.00    +0.001 A  
DOCKED: ENDBRANCH  10  13
DOCKED: ENDBRANCH   8   9
DOCKED: ENDBRANCH   6   8
DOCKED: ENDBRANCH   1   6
DOCKED: BRANCH   5  23
DOCKED: ATOM     23  C   UNL     1     143.724  71.290 219.488 -0.19 -0.00    +0.067 C  
DOCKED: BRANCH  23  24
DOCKED: ATOM     24  C   UNL     1     144.274  69.932 219.768 -0.09 +0.02    +0.231 C  
DOCKED: BRANCH  24  25
DOCKED: ATOM     25  O   UNL     1     145.622  69.889 219.344 -0.19 -0.24    -0.494 OA 
DOCKED: BRANCH  25  26
DOCKED: ATOM     26  C   UNL     1     145.962  68.938 218.365 -0.28 +0.03    +0.119 A  
DOCKED: ATOM     27  C   UNL     1     145.945  67.578 218.657 -0.46 -0.00    +0.046 A  
DOCKED: ATOM     28  C   UNL     1     146.324  69.319 217.090 -0.18 +0.02    +0.046 A  
DOCKED: ATOM     29  C   UNL     1     146.279  66.667 217.698 -0.30 -0.00    +0.004 A  
DOCKED: ATOM     30  C   UNL     1     146.659  68.391 216.125 -0.18 -0.00    +0.004 A  
DOCKED: ATOM     31  C   UNL     1     146.642  67.046 216.415 -0.31 -0.00    +0.000 A  
DOCKED: ENDBRANCH  25  26
DOCKED: ENDBRANCH  24  25
DOCKED: ENDBRANCH  23  24
DOCKED: ENDBRANCH   5  23
DOCKED: BRANCH   3  32
DOCKED: ATOM     32  O   UNL     1     146.225  72.911 218.989 -0.69 -0.40    -0.391 OA 
DOCKED: ATOM     33  H   UNL     1     145.972  71.965 218.869 +0.09 +0.24    +0.211 HD 
DOCKED: ENDBRANCH   3  32
DOCKED: TORSDOF 9
DOCKED: TER
DOCKED: ENDMDL
________________________________________________________________________________


    FINAL DOCKED STATE:
    ________________________


Run:   7 / 20
Time taken for this run:   0.054s

DOCKED: MODEL        7
DOCKED: USER    Run = 7
DOCKED: USER
DOCKED: USER    Estimated Free Energy of Binding    =  -7.95 kcal/mol  [=(1)+(2)+(3)-(4)]
DOCKED: USER
DOCKED: USER    (1) Final Intermolecular Energy     = -10.63 kcal/mol
DOCKED: USER        vdW + Hbond + desolv Energy     = -10.62 kcal/mol
DOCKED: USER        Electrostatic Energy            =  -0.01 kcal/mol
DOCKED: USER        Moving Ligand-Fixed Receptor    = -10.63 kcal/mol
DOCKED: USER        Moving Ligand-Moving Receptor   =  +0.00 kcal/mol
DOCKED: USER    (2) Final Total Internal Energy     =  -2.02 kcal/mol
DOCKED: USER    (3) Torsional Free Energy           =  +2.68 kcal/mol
DOCKED: USER    (4) Unbound System's Energy         =  -2.02 kcal/mol
DOCKED: USER
DOCKED: USER
DOCKED: REMARK SMILES O=C(NCC(=O)N1C[C@H](O)C[C@@H]1CCOc1ccccc1)c1ccc2ccccc2n1
DOCKED: REMARK SMILES IDX 7 1 8 2 9 3 11 4 12 5 5 6 6 7 4 8 3 9 2 10 1 11 22 13 23 14
DOCKED: REMARK SMILES IDX 31 15 24 16 30 17 25 18 29 19 26 20 28 21 27 22 13 23 14 24
DOCKED: REMARK SMILES IDX 15 25 16 26 17 27 21 28 18 29 20 30 19 31 10 32
DOCKED: REMARK H PARENT 3 12 10 33
DOCKED: USER                              x       y       z     vdW  Elec       q    Type
DOCKED: USER                           _______ _______ _______ _____ _____    ______ ____
DOCKED: ROOT
DOCKED: ATOM      1  N   UNL     1     138.867  71.612 222.137 -0.08 +0.07    -0.335 N  
DOCKED: ATOM      2  C   UNL     1     137.664  71.179 221.423 -0.06 -0.03    +0.151 C  
DOCKED: ATOM      3  C   UNL     1     137.868  69.688 221.195 -0.06 -0.02    +0.136 C  
DOCKED: ATOM      4  C   UNL     1     139.232  69.404 221.777 -0.14 -0.01    +0.059 C  
DOCKED: ATOM      5  C   UNL     1     139.311  70.415 222.879 -0.21 -0.02    +0.091 C  
DOCKED: ENDROOT
DOCKED: BRANCH   1   6
DOCKED: ATOM      6  C   UNL     1     139.489  72.890 222.133 -0.17 -0.05    +0.242 C  
DOCKED: ATOM      7  O   UNL     1     140.704  72.986 222.441 -0.65 +0.00    -0.273 OA 
DOCKED: BRANCH   6   8
DOCKED: ATOM      8  C   UNL     1     138.645  74.054 221.756 -0.14 -0.06    +0.216 C  
DOCKED: BRANCH   8   9
DOCKED: ATOM      9  N   UNL     1     139.332  75.251 222.128 -0.17 +0.07    -0.342 N  
DOCKED: ATOM     10  C   UNL     1     138.557  76.432 222.340 -0.20 -0.06    +0.270 C  
DOCKED: ATOM     11  O   UNL     1     137.286  76.415 222.201 -0.15 +0.06    -0.268 OA 
DOCKED: ATOM     12  H   UNL     1     140.362  75.241 222.235 +0.03 -0.01    +0.164 HD 
DOCKED: BRANCH  10  13
DOCKED: ATOM     13  C   UNL     1     139.226  77.671 222.720 -0.25 -0.02    +0.128 A  
DOCKED: ATOM     14  C   UNL     1     138.477  78.767 223.096 -0.28 -0.01    +0.035 A  
DOCKED: ATOM     15  N   UNL     1     140.564  77.815 222.729 -0.26 +0.07    -0.243 NA 
DOCKED: ATOM     16  C   UNL     1     139.029  79.973 223.469 -0.39 -0.00    +0.013 A  
DOCKED: ATOM     17  C   UNL     1     141.159  78.976 223.085 -0.48 -0.02    +0.071 A  
DOCKED: ATOM     18  C   UNL     1     140.397  80.070 223.460 -0.47 -0.00    +0.000 A  
DOCKED: ATOM     19  C   UNL     1     142.534  79.071 223.077 -0.50 -0.01    +0.029 A  
DOCKED: ATOM     20  C   UNL     1     141.072  81.221 223.813 -0.42 -0.00    +0.010 A  
DOCKED: ATOM     21  C   UNL     1     143.212  80.227 223.430 -0.61 -0.00    +0.002 A  
DOCKED: ATOM     22  C   UNL     1     142.444  81.331 223.808 -0.61 -0.00    +0.001 A  
DOCKED: ENDBRANCH  10  13
DOCKED: ENDBRANCH   8   9
DOCKED: ENDBRANCH   6   8
DOCKED: ENDBRANCH   1   6
DOCKED: BRANCH   5  23
DOCKED: ATOM     23  C   UNL     1     138.325  70.239 223.983 -0.27 -0.01    +0.067 C  
DOCKED: BRANCH  23  24
DOCKED: ATOM     24  C   UNL     1     138.438  68.973 224.762 -0.25 -0.02    +0.231 C  
DOCKED: BRANCH  24  25
DOCKED: ATOM     25  O   UNL     1     139.748  68.874 225.286 -0.12 +0.08    -0.494 OA 
DOCKED: BRANCH  25  26
DOCKED: ATOM     26  C   UNL     1     140.173  69.892 226.158 -0.42 -0.02    +0.119 A  
DOCKED: ATOM     27  C   UNL     1     141.018  70.904 225.714 -0.57 -0.01    +0.046 A  
DOCKED: ATOM     28  C   UNL     1     139.771  69.921 227.477 -0.53 -0.01    +0.046 A  
DOCKED: ATOM     29  C   UNL     1     141.424  71.885 226.573 -0.72 -0.00    +0.004 A  
DOCKED: ATOM     30  C   UNL     1     140.185  70.916 228.338 -0.64 -0.00    +0.004 A  
DOCKED: ATOM     31  C   UNL     1     141.021  71.917 227.899 -0.84 -0.00    +0.000 A  
DOCKED: ENDBRANCH  25  26
DOCKED: ENDBRANCH  24  25
DOCKED: ENDBRANCH  23  24
DOCKED: ENDBRANCH   5  23
DOCKED: BRANCH   3  32
DOCKED: ATOM     32  O   UNL     1     136.857  68.909 221.700 -0.02 +0.06    -0.391 OA 
DOCKED: ATOM     33  H   UNL     1     136.086  68.825 221.089 +0.02 -0.03    +0.211 HD 
DOCKED: ENDBRANCH   3  32
DOCKED: TORSDOF 9
DOCKED: TER
DOCKED: ENDMDL
________________________________________________________________________________


    FINAL DOCKED STATE:
    ________________________


Run:   8 / 20
Time taken for this run:   0.054s

DOCKED: MODEL        8
DOCKED: USER    Run = 8
DOCKED: USER
DOCKED: USER    Estimated Free Energy of Binding    =  -6.77 kcal/mol  [=(1)+(2)+(3)-(4)]
DOCKED: USER
DOCKED: USER    (1) Final Intermolecular Energy     =  -9.45 kcal/mol
DOCKED: USER        vdW + Hbond + desolv Energy     =  -9.15 kcal/mol
DOCKED: USER        Electrostatic Energy            =  -0.30 kcal/mol
DOCKED: USER        Moving Ligand-Fixed Receptor    =  -9.45 kcal/mol
DOCKED: USER        Moving Ligand-Moving Receptor   =  +0.00 kcal/mol
DOCKED: USER    (2) Final Total Internal Energy     =  -3.80 kcal/mol
DOCKED: USER    (3) Torsional Free Energy           =  +2.68 kcal/mol
DOCKED: USER    (4) Unbound System's Energy         =  -3.80 kcal/mol
DOCKED: USER
DOCKED: USER
DOCKED: REMARK SMILES O=C(NCC(=O)N1C[C@H](O)C[C@@H]1CCOc1ccccc1)c1ccc2ccccc2n1
DOCKED: REMARK SMILES IDX 7 1 8 2 9 3 11 4 12 5 5 6 6 7 4 8 3 9 2 10 1 11 22 13 23 14
DOCKED: REMARK SMILES IDX 31 15 24 16 30 17 25 18 29 19 26 20 28 21 27 22 13 23 14 24
DOCKED: REMARK SMILES IDX 15 25 16 26 17 27 21 28 18 29 20 30 19 31 10 32
DOCKED: REMARK H PARENT 3 12 10 33
DOCKED: USER                              x       y       z     vdW  Elec       q    Type
DOCKED: USER                           _______ _______ _______ _____ _____    ______ ____
DOCKED: ROOT
DOCKED: ATOM      1  N   UNL     1     143.123  73.154 220.308 -0.11 +0.06    -0.335 N  
DOCKED: ATOM      2  C   UNL     1     144.441  72.606 220.633 -0.32 -0.02    +0.151 C  
DOCKED: ATOM      3  C   UNL     1     145.220  72.675 219.327 -0.29 +0.03    +0.136 C  
DOCKED: ATOM      4  C   UNL     1     144.230  73.232 218.331 -0.17 -0.01    +0.059 C  
DOCKED: ATOM      5  C   UNL     1     143.375  74.100 219.202 -0.22 -0.03    +0.091 C  
DOCKED: ENDROOT
DOCKED: BRANCH   1   6
DOCKED: ATOM      6  C   UNL     1     141.868  72.859 220.906 -0.16 -0.03    +0.242 C  
DOCKED: ATOM      7  O   UNL     1     141.798  71.959 221.782 -0.15 +0.02    -0.273 OA 
DOCKED: BRANCH   6   8
DOCKED: ATOM      8  C   UNL     1     140.695  73.648 220.449 -0.12 -0.04    +0.216 C  
DOCKED: BRANCH   8   9
DOCKED: ATOM      9  N   UNL     1     140.876  75.006 220.856 -0.12 +0.09    -0.342 N  
DOCKED: ATOM     10  C   UNL     1     140.048  75.508 221.906 -0.21 -0.05    +0.270 C  
DOCKED: ATOM     11  O   UNL     1     139.171  74.762 222.463 -0.53 +0.06    -0.268 OA 
DOCKED: ATOM     12  H   UNL     1     141.591  75.592 220.391 +0.04 -0.06    +0.164 HD 
DOCKED: BRANCH  10  13
DOCKED: ATOM     13  C   UNL     1     140.206  76.890 222.347 -0.34 -0.03    +0.128 A  
DOCKED: ATOM     14  C   UNL     1     139.094  77.632 222.688 -0.29 -0.01    +0.035 A  
DOCKED: ATOM     15  N   UNL     1     141.400  77.502 222.444 -0.18 +0.12    -0.243 NA 
DOCKED: ATOM     16  C   UNL     1     139.155  78.941 223.114 -0.34 -0.00    +0.013 A  
DOCKED: ATOM     17  C   UNL     1     141.518  78.784 222.856 -0.48 -0.03    +0.071 A  
DOCKED: ATOM     18  C   UNL     1     140.395  79.520 223.196 -0.45 -0.00    +0.000 A  
DOCKED: ATOM     19  C   UNL     1     142.766  79.365 222.938 -0.53 -0.01    +0.029 A  
DOCKED: ATOM     20  C   UNL     1     140.592  80.822 223.608 -0.44 -0.00    +0.010 A  
DOCKED: ATOM     21  C   UNL     1     142.964  80.672 223.352 -0.64 -0.00    +0.002 A  
DOCKED: ATOM     22  C   UNL     1     141.831  81.415 223.695 -0.57 -0.00    +0.001 A  
DOCKED: ENDBRANCH  10  13
DOCKED: ENDBRANCH   8   9
DOCKED: ENDBRANCH   6   8
DOCKED: ENDBRANCH   1   6
DOCKED: BRANCH   5  23
DOCKED: ATOM     23  C   UNL     1     144.067  75.266 219.822 -0.30 -0.04    +0.067 C  
DOCKED: BRANCH  23  24
DOCKED: ATOM     24  C   UNL     1     143.656  76.608 219.320 -0.09 -0.17    +0.231 C  
DOCKED: BRANCH  24  25
DOCKED: ATOM     25  O   UNL     1     142.276  76.580 219.014 -0.08 +0.26    -0.494 OA 
DOCKED: BRANCH  25  26
DOCKED: ATOM     26  C   UNL     1     141.552  77.774 219.179 -0.18 -0.06    +0.119 A  
DOCKED: ATOM     27  C   UNL     1     140.161  77.772 219.161 -0.08 -0.02    +0.046 A  
DOCKED: ATOM     28  C   UNL     1     142.193  78.982 219.362 -0.22 -0.03    +0.046 A  
DOCKED: ATOM     29  C   UNL     1     139.472  78.940 219.321 -0.07 -0.00    +0.004 A  
DOCKED: ATOM     30  C   UNL     1     141.489  80.157 219.524 -0.27 -0.00    +0.004 A  
DOCKED: ATOM     31  C   UNL     1     140.113  80.155 219.506 -0.12 -0.00    +0.000 A  
DOCKED: ENDBRANCH  25  26
DOCKED: ENDBRANCH  24  25
DOCKED: ENDBRANCH  23  24
DOCKED: ENDBRANCH   5  23
DOCKED: BRANCH   3  32
DOCKED: ATOM     32  O   UNL     1     146.394  73.380 219.421 -0.66 -0.22    -0.391 OA 
DOCKED: ATOM     33  H   UNL     1     146.266  74.358 219.393 -0.44 -0.08    +0.211 HD 
DOCKED: ENDBRANCH   3  32
DOCKED: TORSDOF 9
DOCKED: TER
DOCKED: ENDMDL
________________________________________________________________________________


    FINAL DOCKED STATE:
    ________________________


Run:   9 / 20
Time taken for this run:   0.054s

DOCKED: MODEL        9
DOCKED: USER    Run = 9
DOCKED: USER
DOCKED: USER    Estimated Free Energy of Binding    =  -8.01 kcal/mol  [=(1)+(2)+(3)-(4)]
DOCKED: USER
DOCKED: USER    (1) Final Intermolecular Energy     = -10.70 kcal/mol
DOCKED: USER        vdW + Hbond + desolv Energy     = -10.76 kcal/mol
DOCKED: USER        Electrostatic Energy            =  +0.06 kcal/mol
DOCKED: USER        Moving Ligand-Fixed Receptor    = -10.70 kcal/mol
DOCKED: USER        Moving Ligand-Moving Receptor   =  +0.00 kcal/mol
DOCKED: USER    (2) Final Total Internal Energy     =  -2.35 kcal/mol
DOCKED: USER    (3) Torsional Free Energy           =  +2.68 kcal/mol
DOCKED: USER    (4) Unbound System's Energy         =  -2.35 kcal/mol
DOCKED: USER
DOCKED: USER
DOCKED: REMARK SMILES O=C(NCC(=O)N1C[C@H](O)C[C@@H]1CCOc1ccccc1)c1ccc2ccccc2n1
DOCKED: REMARK SMILES IDX 7 1 8 2 9 3 11 4 12 5 5 6 6 7 4 8 3 9 2 10 1 11 22 13 23 14
DOCKED: REMARK SMILES IDX 31 15 24 16 30 17 25 18 29 19 26 20 28 21 27 22 13 23 14 24
DOCKED: REMARK SMILES IDX 15 25 16 26 17 27 21 28 18 29 20 30 19 31 10 32
DOCKED: REMARK H PARENT 3 12 10 33
DOCKED: USER                              x       y       z     vdW  Elec       q    Type
DOCKED: USER                           _______ _______ _______ _____ _____    ______ ____
DOCKED: ROOT
DOCKED: ATOM      1  N   UNL     1     142.162  73.316 219.870 -0.05 +0.07    -0.335 N  
DOCKED: ATOM      2  C   UNL     1     143.529  73.751 220.161 -0.27 -0.04    +0.151 C  
DOCKED: ATOM      3  C   UNL     1     143.693  75.052 219.388 -0.29 -0.06    +0.136 C  
DOCKED: ATOM      4  C   UNL     1     142.378  75.224 218.665 -0.17 -0.02    +0.059 C  
DOCKED: ATOM      5  C   UNL     1     141.421  74.567 219.611 -0.13 -0.03    +0.091 C  
DOCKED: ENDROOT
DOCKED: BRANCH   1   6
DOCKED: ATOM      6  C   UNL     1     141.640  71.995 219.836 -0.07 -0.04    +0.242 C  
DOCKED: ATOM      7  O   UNL     1     142.355  71.060 219.393 -0.06 +0.03    -0.273 OA 
DOCKED: BRANCH   6   8
DOCKED: ATOM      8  C   UNL     1     140.255  71.799 220.339 -0.07 -0.04    +0.216 C  
DOCKED: BRANCH   8   9
DOCKED: ATOM      9  N   UNL     1     140.321  71.114 221.592 -0.08 +0.05    -0.342 N  
DOCKED: ATOM     10  C   UNL     1     140.221  71.890 222.787 -0.22 -0.04    +0.270 C  
DOCKED: ATOM     11  O   UNL     1     140.077  73.160 222.735 -0.70 +0.02    -0.268 OA 
DOCKED: ATOM     12  H   UNL     1     140.438  70.086 221.611 +0.05 -0.02    +0.164 HD 
DOCKED: BRANCH  10  13
DOCKED: ATOM     13  C   UNL     1     140.284  71.223 224.083 -0.36 -0.02    +0.128 A  
DOCKED: ATOM     14  C   UNL     1     140.760  71.906 225.183 -0.33 -0.00    +0.035 A  
DOCKED: ATOM     15  N   UNL     1     139.896  69.950 224.278 -0.17 +0.04    -0.243 NA 
DOCKED: ATOM     16  C   UNL     1     140.852  71.352 226.441 -0.67 -0.00    +0.013 A  
DOCKED: ATOM     17  C   UNL     1     139.966  69.356 225.490 -0.40 -0.01    +0.071 A  
DOCKED: ATOM     18  C   UNL     1     140.445  70.051 226.588 -0.56 -0.00    +0.000 A  
DOCKED: ATOM     19  C   UNL     1     139.555  68.048 225.636 -0.52 -0.00    +0.029 A  
DOCKED: ATOM     20  C   UNL     1     140.486  69.381 227.794 -0.62 -0.00    +0.010 A  
DOCKED: ATOM     21  C   UNL     1     139.596  67.375 226.847 -0.59 -0.00    +0.002 A  
DOCKED: ATOM     22  C   UNL     1     140.081  68.076 227.954 -0.54 -0.00    +0.001 A  
DOCKED: ENDBRANCH  10  13
DOCKED: ENDBRANCH   8   9
DOCKED: ENDBRANCH   6   8
DOCKED: ENDBRANCH   1   6
DOCKED: BRANCH   5  23
DOCKED: ATOM     23  C   UNL     1     141.274  75.229 220.938 -0.28 -0.02    +0.067 C  
DOCKED: BRANCH  23  24
DOCKED: ATOM     24  C   UNL     1     140.664  76.589 220.924 -0.18 -0.08    +0.231 C  
DOCKED: BRANCH  24  25
DOCKED: ATOM     25  O   UNL     1     141.694  77.551 220.817 -0.10 +0.29    -0.494 OA 
DOCKED: BRANCH  25  26
DOCKED: ATOM     26  C   UNL     1     141.760  78.542 221.812 -0.33 -0.07    +0.119 A  
DOCKED: ATOM     27  C   UNL     1     141.459  78.242 223.137 -0.51 -0.02    +0.046 A  
DOCKED: ATOM     28  C   UNL     1     142.121  79.839 221.512 -0.39 -0.02    +0.046 A  
DOCKED: ATOM     29  C   UNL     1     141.526  79.214 224.093 -0.56 -0.00    +0.004 A  
DOCKED: ATOM     30  C   UNL     1     142.187  80.815 222.484 -0.55 -0.00    +0.004 A  
DOCKED: ATOM     31  C   UNL     1     141.889  80.518 223.794 -0.61 -0.00    +0.000 A  
DOCKED: ENDBRANCH  25  26
DOCKED: ENDBRANCH  24  25
DOCKED: ENDBRANCH  23  24
DOCKED: ENDBRANCH   5  23
DOCKED: BRANCH   3  32
DOCKED: ATOM     32  O   UNL     1     144.060  76.118 220.171 -0.15 +0.31    -0.391 OA 
DOCKED: ATOM     33  H   UNL     1     143.297  76.549 220.626 -0.28 -0.21    +0.211 HD 
DOCKED: ENDBRANCH   3  32
DOCKED: TORSDOF 9
DOCKED: TER
DOCKED: ENDMDL
________________________________________________________________________________


    FINAL DOCKED STATE:
    ________________________


Run:   10 / 20
Time taken for this run:   0.054s

DOCKED: MODEL        10
DOCKED: USER    Run = 10
DOCKED: USER
DOCKED: USER    Estimated Free Energy of Binding    =  -8.43 kcal/mol  [=(1)+(2)+(3)-(4)]
DOCKED: USER
DOCKED: USER    (1) Final Intermolecular Energy     = -11.11 kcal/mol
DOCKED: USER        vdW + Hbond + desolv Energy     = -11.13 kcal/mol
DOCKED: USER        Electrostatic Energy            =  +0.02 kcal/mol
DOCKED: USER        Moving Ligand-Fixed Receptor    = -11.11 kcal/mol
DOCKED: USER        Moving Ligand-Moving Receptor   =  +0.00 kcal/mol
DOCKED: USER    (2) Final Total Internal Energy     =  -2.19 kcal/mol
DOCKED: USER    (3) Torsional Free Energy           =  +2.68 kcal/mol
DOCKED: USER    (4) Unbound System's Energy         =  -2.19 kcal/mol
DOCKED: USER
DOCKED: USER
DOCKED: REMARK SMILES O=C(NCC(=O)N1C[C@H](O)C[C@@H]1CCOc1ccccc1)c1ccc2ccccc2n1
DOCKED: REMARK SMILES IDX 7 1 8 2 9 3 11 4 12 5 5 6 6 7 4 8 3 9 2 10 1 11 22 13 23 14
DOCKED: REMARK SMILES IDX 31 15 24 16 30 17 25 18 29 19 26 20 28 21 27 22 13 23 14 24
DOCKED: REMARK SMILES IDX 15 25 16 26 17 27 21 28 18 29 20 30 19 31 10 32
DOCKED: REMARK H PARENT 3 12 10 33
DOCKED: USER                              x       y       z     vdW  Elec       q    Type
DOCKED: USER                           _______ _______ _______ _____ _____    ______ ____
DOCKED: ROOT
DOCKED: ATOM      1  N   UNL     1     142.330  73.786 219.745 -0.06 +0.08    -0.335 N  
DOCKED: ATOM      2  C   UNL     1     143.666  74.328 219.999 -0.30 -0.05    +0.151 C  
DOCKED: ATOM      3  C   UNL     1     143.694  75.650 219.243 -0.26 -0.08    +0.136 C  
DOCKED: ATOM      4  C   UNL     1     142.345  75.723 218.569 -0.19 -0.03    +0.059 C  
DOCKED: ATOM      5  C   UNL     1     141.479  74.974 219.534 -0.14 -0.03    +0.091 C  
DOCKED: ENDROOT
DOCKED: BRANCH   1   6
DOCKED: ATOM      6  C   UNL     1     141.918  72.426 219.705 -0.07 -0.04    +0.242 C  
DOCKED: ATOM      7  O   UNL     1     142.771  71.530 219.479 -0.07 +0.03    -0.273 OA 
DOCKED: BRANCH   6   8
DOCKED: ATOM      8  C   UNL     1     140.478  72.145 219.939 -0.06 -0.04    +0.216 C  
DOCKED: BRANCH   8   9
DOCKED: ATOM      9  N   UNL     1     140.353  71.399 221.152 -0.06 +0.05    -0.342 N  
DOCKED: ATOM     10  C   UNL     1     140.253  72.123 222.379 -0.21 -0.03    +0.270 C  
DOCKED: ATOM     11  O   UNL     1     140.276  73.402 222.389 -0.79 +0.01    -0.268 OA 
DOCKED: ATOM     12  H   UNL     1     140.337  70.365 221.120 +0.04 -0.03    +0.164 HD 
DOCKED: BRANCH  10  13
DOCKED: ATOM     13  C   UNL     1     140.125  71.393 223.636 -0.33 -0.02    +0.128 A  
DOCKED: ATOM     14  C   UNL     1     139.441  70.196 223.666 -0.29 -0.01    +0.035 A  
DOCKED: ATOM     15  N   UNL     1     140.648  71.826 224.797 -0.28 +0.03    -0.243 NA 
DOCKED: ATOM     16  C   UNL     1     139.275  69.444 224.808 -0.37 -0.00    +0.013 A  
DOCKED: ATOM     17  C   UNL     1     140.515  71.130 225.948 -0.55 -0.01    +0.071 A  
DOCKED: ATOM     18  C   UNL     1     139.826  69.928 225.967 -0.48 -0.00    +0.000 A  
DOCKED: ATOM     19  C   UNL     1     141.070  71.617 227.112 -0.75 -0.00    +0.029 A  
DOCKED: ATOM     20  C   UNL     1     139.731  69.272 227.177 -0.57 -0.00    +0.010 A  
DOCKED: ATOM     21  C   UNL     1     140.975  70.958 228.327 -0.64 -0.00    +0.002 A  
DOCKED: ATOM     22  C   UNL     1     140.279  69.747 228.347 -0.60 -0.00    +0.001 A  
DOCKED: ENDBRANCH  10  13
DOCKED: ENDBRANCH   8   9
DOCKED: ENDBRANCH   6   8
DOCKED: ENDBRANCH   1   6
DOCKED: BRANCH   5  23
DOCKED: ATOM     23  C   UNL     1     141.325  75.601 220.877 -0.28 -0.02    +0.067 C  
DOCKED: BRANCH  23  24
DOCKED: ATOM     24  C   UNL     1     140.550  76.874 220.917 -0.17 -0.08    +0.231 C  
DOCKED: BRANCH  24  25
DOCKED: ATOM     25  O   UNL     1     141.434  77.954 220.693 -0.07 +0.26    -0.494 OA 
DOCKED: BRANCH  25  26
DOCKED: ATOM     26  C   UNL     1     141.729  78.786 221.787 -0.36 -0.06    +0.119 A  
DOCKED: ATOM     27  C   UNL     1     142.221  80.072 221.592 -0.41 -0.02    +0.046 A  
DOCKED: ATOM     28  C   UNL     1     141.542  78.358 223.085 -0.50 -0.02    +0.046 A  
DOCKED: ATOM     29  C   UNL     1     142.504  80.869 222.664 -0.56 -0.00    +0.004 A  
DOCKED: ATOM     30  C   UNL     1     141.829  79.170 224.163 -0.57 -0.00    +0.004 A  
DOCKED: ATOM     31  C   UNL     1     142.316  80.441 223.970 -0.61 -0.00    +0.000 A  
DOCKED: ENDBRANCH  25  26
DOCKED: ENDBRANCH  24  25
DOCKED: ENDBRANCH  23  24
DOCKED: ENDBRANCH   5  23
DOCKED: BRANCH   3  32
DOCKED: ATOM     32  O   UNL     1     143.998  76.730 220.034 -0.13 +0.36    -0.391 OA 
DOCKED: ATOM     33  H   UNL     1     143.384  77.493 219.907 -0.45 -0.22    +0.211 HD 
DOCKED: ENDBRANCH   3  32
DOCKED: TORSDOF 9
DOCKED: TER
DOCKED: ENDMDL
________________________________________________________________________________


    FINAL DOCKED STATE:
    ________________________


Run:   11 / 20
Time taken for this run:   0.054s

DOCKED: MODEL        11
DOCKED: USER    Run = 11
DOCKED: USER
DOCKED: USER    Estimated Free Energy of Binding    =  -8.52 kcal/mol  [=(1)+(2)+(3)-(4)]
DOCKED: USER
DOCKED: USER    (1) Final Intermolecular Energy     = -11.20 kcal/mol
DOCKED: USER        vdW + Hbond + desolv Energy     = -11.20 kcal/mol
DOCKED: USER        Electrostatic Energy            =  -0.01 kcal/mol
DOCKED: USER        Moving Ligand-Fixed Receptor    = -11.20 kcal/mol
DOCKED: USER        Moving Ligand-Moving Receptor   =  +0.00 kcal/mol
DOCKED: USER    (2) Final Total Internal Energy     =  -2.09 kcal/mol
DOCKED: USER    (3) Torsional Free Energy           =  +2.68 kcal/mol
DOCKED: USER    (4) Unbound System's Energy         =  -2.09 kcal/mol
DOCKED: USER
DOCKED: USER
DOCKED: REMARK SMILES O=C(NCC(=O)N1C[C@H](O)C[C@@H]1CCOc1ccccc1)c1ccc2ccccc2n1
DOCKED: REMARK SMILES IDX 7 1 8 2 9 3 11 4 12 5 5 6 6 7 4 8 3 9 2 10 1 11 22 13 23 14
DOCKED: REMARK SMILES IDX 31 15 24 16 30 17 25 18 29 19 26 20 28 21 27 22 13 23 14 24
DOCKED: REMARK SMILES IDX 15 25 16 26 17 27 21 28 18 29 20 30 19 31 10 32
DOCKED: REMARK H PARENT 3 12 10 33
DOCKED: USER                              x       y       z     vdW  Elec       q    Type
DOCKED: USER                           _______ _______ _______ _____ _____    ______ ____
DOCKED: ROOT
DOCKED: ATOM      1  N   UNL     1     142.561  74.311 219.786 -0.09 +0.10    -0.335 N  
DOCKED: ATOM      2  C   UNL     1     143.708  75.191 219.549 -0.30 -0.08    +0.151 C  
DOCKED: ATOM      3  C   UNL     1     143.207  76.211 218.536 -0.26 -0.08    +0.136 C  
DOCKED: ATOM      4  C   UNL     1     141.790  75.782 218.242 -0.11 -0.02    +0.059 C  
DOCKED: ATOM      5  C   UNL     1     141.381  75.165 219.544 -0.14 -0.03    +0.091 C  
DOCKED: ENDROOT
DOCKED: BRANCH   1   6
DOCKED: ATOM      6  C   UNL     1     142.558  72.941 220.162 -0.14 -0.04    +0.242 C  
DOCKED: ATOM      7  O   UNL     1     143.618  72.416 220.588 -0.20 +0.04    -0.273 OA 
DOCKED: BRANCH   6   8
DOCKED: ATOM      8  C   UNL     1     141.275  72.203 220.027 -0.08 -0.03    +0.216 C  
DOCKED: BRANCH   8   9
DOCKED: ATOM      9  N   UNL     1     141.044  71.472 221.233 -0.08 +0.04    -0.342 N  
DOCKED: ATOM     10  C   UNL     1     140.524  72.181 222.359 -0.20 -0.03    +0.270 C  
DOCKED: ATOM     11  O   UNL     1     140.274  73.433 222.287 -0.78 +0.01    -0.268 OA 
DOCKED: ATOM     12  H   UNL     1     141.255  70.459 221.270 +0.06 -0.02    +0.164 HD 
DOCKED: BRANCH  10  13
DOCKED: ATOM     13  C   UNL     1     140.277  71.466 223.607 -0.33 -0.02    +0.128 A  
DOCKED: ATOM     14  C   UNL     1     139.538  70.301 223.594 -0.29 -0.01    +0.035 A  
DOCKED: ATOM     15  N   UNL     1     140.739  71.882 224.800 -0.26 +0.03    -0.243 NA 
DOCKED: ATOM     16  C   UNL     1     139.259  69.565 224.725 -0.36 -0.00    +0.013 A  
DOCKED: ATOM     17  C   UNL     1     140.495  71.200 225.941 -0.54 -0.01    +0.071 A  
DOCKED: ATOM     18  C   UNL     1     139.751  70.032 225.917 -0.48 -0.00    +0.000 A  
DOCKED: ATOM     19  C   UNL     1     140.991  71.669 227.139 -0.75 -0.01    +0.029 A  
DOCKED: ATOM     20  C   UNL     1     139.543  69.388 227.121 -0.54 -0.00    +0.010 A  
DOCKED: ATOM     21  C   UNL     1     140.782  71.024 228.347 -0.65 -0.00    +0.002 A  
DOCKED: ATOM     22  C   UNL     1     140.031  69.845 228.323 -0.61 -0.00    +0.001 A  
DOCKED: ENDBRANCH  10  13
DOCKED: ENDBRANCH   8   9
DOCKED: ENDBRANCH   6   8
DOCKED: ENDBRANCH   1   6
DOCKED: BRANCH   5  23
DOCKED: ATOM     23  C   UNL     1     141.318  76.099 220.705 -0.26 -0.03    +0.067 C  
DOCKED: BRANCH  23  24
DOCKED: ATOM     24  C   UNL     1     140.487  77.321 220.512 -0.13 -0.08    +0.231 C  
DOCKED: BRANCH  24  25
DOCKED: ATOM     25  O   UNL     1     141.338  78.449 220.459 -0.06 +0.25    -0.494 OA 
DOCKED: BRANCH  25  26
DOCKED: ATOM     26  C   UNL     1     141.675  79.063 221.678 -0.35 -0.06    +0.119 A  
DOCKED: ATOM     27  C   UNL     1     142.246  80.331 221.704 -0.43 -0.02    +0.046 A  
DOCKED: ATOM     28  C   UNL     1     141.453  78.432 222.885 -0.50 -0.02    +0.046 A  
DOCKED: ATOM     29  C   UNL     1     142.569  80.914 222.895 -0.58 -0.00    +0.004 A  
DOCKED: ATOM     30  C   UNL     1     141.781  79.029 224.085 -0.59 -0.00    +0.004 A  
DOCKED: ATOM     31  C   UNL     1     142.346  80.283 224.109 -0.55 -0.00    +0.000 A  
DOCKED: ENDBRANCH  25  26
DOCKED: ENDBRANCH  24  25
DOCKED: ENDBRANCH  23  24
DOCKED: ENDBRANCH   5  23
DOCKED: BRANCH   3  32
DOCKED: ATOM     32  O   UNL     1     143.336  77.512 218.954 -0.16 +0.33    -0.391 OA 
DOCKED: ATOM     33  H   UNL     1     143.282  77.615 219.934 -0.43 -0.22    +0.211 HD 
DOCKED: ENDBRANCH   3  32
DOCKED: TORSDOF 9
DOCKED: TER
DOCKED: ENDMDL
________________________________________________________________________________


    FINAL DOCKED STATE:
    ________________________


Run:   12 / 20
Time taken for this run:   0.054s

DOCKED: MODEL        12
DOCKED: USER    Run = 12
DOCKED: USER
DOCKED: USER    Estimated Free Energy of Binding    =  -8.22 kcal/mol  [=(1)+(2)+(3)-(4)]
DOCKED: USER
DOCKED: USER    (1) Final Intermolecular Energy     = -10.90 kcal/mol
DOCKED: USER        vdW + Hbond + desolv Energy     = -10.88 kcal/mol
DOCKED: USER        Electrostatic Energy            =  -0.02 kcal/mol
DOCKED: USER        Moving Ligand-Fixed Receptor    = -10.90 kcal/mol
DOCKED: USER        Moving Ligand-Moving Receptor   =  +0.00 kcal/mol
DOCKED: USER    (2) Final Total Internal Energy     =  -1.67 kcal/mol
DOCKED: USER    (3) Torsional Free Energy           =  +2.68 kcal/mol
DOCKED: USER    (4) Unbound System's Energy         =  -1.67 kcal/mol
DOCKED: USER
DOCKED: USER
DOCKED: REMARK SMILES O=C(NCC(=O)N1C[C@H](O)C[C@@H]1CCOc1ccccc1)c1ccc2ccccc2n1
DOCKED: REMARK SMILES IDX 7 1 8 2 9 3 11 4 12 5 5 6 6 7 4 8 3 9 2 10 1 11 22 13 23 14
DOCKED: REMARK SMILES IDX 31 15 24 16 30 17 25 18 29 19 26 20 28 21 27 22 13 23 14 24
DOCKED: REMARK SMILES IDX 15 25 16 26 17 27 21 28 18 29 20 30 19 31 10 32
DOCKED: REMARK H PARENT 3 12 10 33
DOCKED: USER                              x       y       z     vdW  Elec       q    Type
DOCKED: USER                           _______ _______ _______ _____ _____    ______ ____
DOCKED: ROOT
DOCKED: ATOM      1  N   UNL     1     140.997  75.373 220.468 -0.09 +0.10    -0.335 N  
DOCKED: ATOM      2  C   UNL     1     142.424  75.195 220.745 -0.06 -0.07    +0.151 C  
DOCKED: ATOM      3  C   UNL     1     143.026  74.777 219.410 -0.24 -0.05    +0.136 C  
DOCKED: ATOM      4  C   UNL     1     141.843  74.708 218.473 -0.09 -0.02    +0.059 C  
DOCKED: ATOM      5  C   UNL     1     140.939  75.756 219.044 -0.09 -0.03    +0.091 C  
DOCKED: ENDROOT
DOCKED: BRANCH   1   6
DOCKED: ATOM      6  C   UNL     1     139.897  75.218 221.354 -0.20 -0.05    +0.242 C  
DOCKED: ATOM      7  O   UNL     1     139.713  76.066 222.264 -0.35 +0.05    -0.273 OA 
DOCKED: BRANCH   6   8
DOCKED: ATOM      8  C   UNL     1     139.016  74.040 221.142 -0.13 -0.05    +0.216 C  
DOCKED: BRANCH   8   9
DOCKED: ATOM      9  N   UNL     1     139.011  73.257 222.338 -0.07 +0.10    -0.342 N  
DOCKED: ATOM     10  C   UNL     1     140.027  72.266 222.496 -0.21 -0.04    +0.270 C  
DOCKED: ATOM     11  O   UNL     1     140.914  72.086 221.592 -0.18 +0.03    -0.268 OA 
DOCKED: ATOM     12  H   UNL     1     138.283  73.419 223.056 -0.51 -0.11    +0.164 HD 
DOCKED: BRANCH  10  13
DOCKED: ATOM     13  C   UNL     1     140.051  71.448 223.704 -0.34 -0.02    +0.128 A  
DOCKED: ATOM     14  C   UNL     1     139.577  70.153 223.665 -0.29 -0.01    +0.035 A  
DOCKED: ATOM     15  N   UNL     1     140.519  71.890 224.885 -0.27 +0.04    -0.243 NA 
DOCKED: ATOM     16  C   UNL     1     139.565  69.315 224.758 -0.37 -0.00    +0.013 A  
DOCKED: ATOM     17  C   UNL     1     140.530  71.111 225.990 -0.55 -0.01    +0.071 A  
DOCKED: ATOM     18  C   UNL     1     140.052  69.812 225.939 -0.49 -0.00    +0.000 A  
DOCKED: ATOM     19  C   UNL     1     141.021  71.613 227.177 -0.75 -0.01    +0.029 A  
DOCKED: ATOM     20  C   UNL     1     140.095  69.075 227.106 -0.59 -0.00    +0.010 A  
DOCKED: ATOM     21  C   UNL     1     141.064  70.873 228.347 -0.62 -0.00    +0.002 A  
DOCKED: ATOM     22  C   UNL     1     140.582  69.563 228.297 -0.61 -0.00    +0.001 A  
DOCKED: ENDBRANCH  10  13
DOCKED: ENDBRANCH   8   9
DOCKED: ENDBRANCH   6   8
DOCKED: ENDBRANCH   1   6
DOCKED: BRANCH   5  23
DOCKED: ATOM     23  C   UNL     1     141.457  77.153 218.982 -0.18 -0.03    +0.067 C  
DOCKED: BRANCH  23  24
DOCKED: ATOM     24  C   UNL     1     140.640  78.183 219.684 -0.09 -0.09    +0.231 C  
DOCKED: BRANCH  24  25
DOCKED: ATOM     25  O   UNL     1     141.477  79.264 220.043 -0.07 +0.25    -0.494 OA 
DOCKED: BRANCH  25  26
DOCKED: ATOM     26  C   UNL     1     141.710  79.475 221.414 -0.33 -0.06    +0.119 A  
DOCKED: ATOM     27  C   UNL     1     142.199  80.693 221.874 -0.45 -0.02    +0.046 A  
DOCKED: ATOM     28  C   UNL     1     141.463  78.486 222.344 -0.43 -0.02    +0.046 A  
DOCKED: ATOM     29  C   UNL     1     142.420  80.883 223.208 -0.63 -0.00    +0.004 A  
DOCKED: ATOM     30  C   UNL     1     141.689  78.687 223.690 -0.60 -0.00    +0.004 A  
DOCKED: ATOM     31  C   UNL     1     142.173  79.891 224.145 -0.52 -0.00    +0.000 A  
DOCKED: ENDBRANCH  25  26
DOCKED: ENDBRANCH  24  25
DOCKED: ENDBRANCH  23  24
DOCKED: ENDBRANCH   5  23
DOCKED: BRANCH   3  32
DOCKED: ATOM     32  O   UNL     1     144.045  75.591 218.985 -0.09 +0.24    -0.391 OA 
DOCKED: ATOM     33  H   UNL     1     144.656  75.152 218.345 -0.39 -0.15    +0.211 HD 
DOCKED: ENDBRANCH   3  32
DOCKED: TORSDOF 9
DOCKED: TER
DOCKED: ENDMDL
________________________________________________________________________________


    FINAL DOCKED STATE:
    ________________________


Run:   13 / 20
Time taken for this run:   0.054s

DOCKED: MODEL        13
DOCKED: USER    Run = 13
DOCKED: USER
DOCKED: USER    Estimated Free Energy of Binding    =  -8.66 kcal/mol  [=(1)+(2)+(3)-(4)]
DOCKED: USER
DOCKED: USER    (1) Final Intermolecular Energy     = -11.34 kcal/mol
DOCKED: USER        vdW + Hbond + desolv Energy     = -11.32 kcal/mol
DOCKED: USER        Electrostatic Energy            =  -0.03 kcal/mol
DOCKED: USER        Moving Ligand-Fixed Receptor    = -11.34 kcal/mol
DOCKED: USER        Moving Ligand-Moving Receptor   =  +0.00 kcal/mol
DOCKED: USER    (2) Final Total Internal Energy     =  -1.67 kcal/mol
DOCKED: USER    (3) Torsional Free Energy           =  +2.68 kcal/mol
DOCKED: USER    (4) Unbound System's Energy         =  -1.67 kcal/mol
DOCKED: USER
DOCKED: USER
DOCKED: REMARK SMILES O=C(NCC(=O)N1C[C@H](O)C[C@@H]1CCOc1ccccc1)c1ccc2ccccc2n1
DOCKED: REMARK SMILES IDX 7 1 8 2 9 3 11 4 12 5 5 6 6 7 4 8 3 9 2 10 1 11 22 13 23 14
DOCKED: REMARK SMILES IDX 31 15 24 16 30 17 25 18 29 19 26 20 28 21 27 22 13 23 14 24
DOCKED: REMARK SMILES IDX 15 25 16 26 17 27 21 28 18 29 20 30 19 31 10 32
DOCKED: REMARK H PARENT 3 12 10 33
DOCKED: USER                              x       y       z     vdW  Elec       q    Type
DOCKED: USER                           _______ _______ _______ _____ _____    ______ ____
DOCKED: ROOT
DOCKED: ATOM      1  N   UNL     1     141.593  75.700 220.152 -0.10 +0.13    -0.335 N  
DOCKED: ATOM      2  C   UNL     1     142.938  75.233 219.812 -0.28 -0.07    +0.151 C  
DOCKED: ATOM      3  C   UNL     1     143.016  75.353 218.297 -0.18 -0.06    +0.136 C  
DOCKED: ATOM      4  C   UNL     1     141.649  75.850 217.891 -0.09 -0.02    +0.059 C  
DOCKED: ATOM      5  C   UNL     1     141.252  76.662 219.085 -0.14 -0.04    +0.091 C  
DOCKED: ENDROOT
DOCKED: BRANCH   1   6
DOCKED: ATOM      6  C   UNL     1     140.777  75.326 221.254 -0.22 -0.06    +0.242 C  
DOCKED: ATOM      7  O   UNL     1     140.866  75.967 222.333 -0.42 +0.07    -0.273 OA 
DOCKED: BRANCH   6   8
DOCKED: ATOM      8  C   UNL     1     139.852  74.180 221.056 -0.16 -0.04    +0.216 C  
DOCKED: BRANCH   8   9
DOCKED: ATOM      9  N   UNL     1     139.739  73.471 222.292 -0.14 +0.05    -0.342 N  
DOCKED: ATOM     10  C   UNL     1     140.321  72.169 222.373 -0.21 -0.03    +0.270 C  
DOCKED: ATOM     11  O   UNL     1     140.924  71.655 221.369 -0.14 +0.03    -0.268 OA 
DOCKED: ATOM     12  H   UNL     1     139.246  73.905 223.092 -0.54 -0.06    +0.164 HD 
DOCKED: BRANCH  10  13
DOCKED: ATOM     13  C   UNL     1     140.223  71.415 223.619 -0.33 -0.02    +0.128 A  
DOCKED: ATOM     14  C   UNL     1     139.620  70.175 223.625 -0.28 -0.01    +0.035 A  
DOCKED: ATOM     15  N   UNL     1     140.699  71.867 224.793 -0.28 +0.03    -0.243 NA 
DOCKED: ATOM     16  C   UNL     1     139.488  69.399 224.756 -0.37 -0.00    +0.013 A  
DOCKED: ATOM     17  C   UNL     1     140.596  71.149 225.934 -0.55 -0.01    +0.071 A  
DOCKED: ATOM     18  C   UNL     1     139.988  69.904 225.929 -0.49 -0.00    +0.000 A  
DOCKED: ATOM     19  C   UNL     1     141.100  71.658 227.112 -0.75 -0.00    +0.029 A  
DOCKED: ATOM     20  C   UNL     1     139.920  69.227 227.130 -0.57 -0.00    +0.010 A  
DOCKED: ATOM     21  C   UNL     1     141.031  70.978 228.318 -0.65 -0.00    +0.002 A  
DOCKED: ATOM     22  C   UNL     1     140.418  69.723 228.313 -0.60 -0.00    +0.001 A  
DOCKED: ENDBRANCH  10  13
DOCKED: ENDBRANCH   8   9
DOCKED: ENDBRANCH   6   8
DOCKED: ENDBRANCH   1   6
DOCKED: BRANCH   5  23
DOCKED: ATOM     23  C   UNL     1     142.089  77.867 219.349 -0.26 -0.04    +0.067 C  
DOCKED: BRANCH  23  24
DOCKED: ATOM     24  C   UNL     1     141.419  79.183 219.145 -0.16 -0.12    +0.231 C  
DOCKED: BRANCH  24  25
DOCKED: ATOM     25  O   UNL     1     141.936  80.109 220.080 -0.11 +0.25    -0.494 OA 
DOCKED: BRANCH  25  26
DOCKED: ATOM     26  C   UNL     1     141.768  79.812 221.445 -0.34 -0.05    +0.119 A  
DOCKED: ATOM     27  C   UNL     1     140.630  79.150 221.894 -0.30 -0.01    +0.046 A  
DOCKED: ATOM     28  C   UNL     1     142.718  80.167 222.379 -0.53 -0.02    +0.046 A  
DOCKED: ATOM     29  C   UNL     1     140.480  78.869 223.222 -0.45 -0.00    +0.004 A  
DOCKED: ATOM     30  C   UNL     1     142.559  79.879 223.719 -0.62 -0.00    +0.004 A  
DOCKED: ATOM     31  C   UNL     1     141.434  79.224 224.163 -0.54 -0.00    +0.000 A  
DOCKED: ENDBRANCH  25  26
DOCKED: ENDBRANCH  24  25
DOCKED: ENDBRANCH  23  24
DOCKED: ENDBRANCH   5  23
DOCKED: BRANCH   3  32
DOCKED: ATOM     32  O   UNL     1     144.061  76.128 217.857 -0.04 +0.26    -0.391 OA 
DOCKED: ATOM     33  H   UNL     1     144.833  75.600 217.542 -0.50 -0.17    +0.211 HD 
DOCKED: ENDBRANCH   3  32
DOCKED: TORSDOF 9
DOCKED: TER
DOCKED: ENDMDL
________________________________________________________________________________


    FINAL DOCKED STATE:
    ________________________


Run:   14 / 20
Time taken for this run:   0.054s

DOCKED: MODEL        14
DOCKED: USER    Run = 14
DOCKED: USER
DOCKED: USER    Estimated Free Energy of Binding    =  -6.22 kcal/mol  [=(1)+(2)+(3)-(4)]
DOCKED: USER
DOCKED: USER    (1) Final Intermolecular Energy     =  -8.90 kcal/mol
DOCKED: USER        vdW + Hbond + desolv Energy     =  -8.66 kcal/mol
DOCKED: USER        Electrostatic Energy            =  -0.25 kcal/mol
DOCKED: USER        Moving Ligand-Fixed Receptor    =  -8.90 kcal/mol
DOCKED: USER        Moving Ligand-Moving Receptor   =  +0.00 kcal/mol
DOCKED: USER    (2) Final Total Internal Energy     =  -3.74 kcal/mol
DOCKED: USER    (3) Torsional Free Energy           =  +2.68 kcal/mol
DOCKED: USER    (4) Unbound System's Energy         =  -3.74 kcal/mol
DOCKED: USER
DOCKED: USER
DOCKED: REMARK SMILES O=C(NCC(=O)N1C[C@H](O)C[C@@H]1CCOc1ccccc1)c1ccc2ccccc2n1
DOCKED: REMARK SMILES IDX 7 1 8 2 9 3 11 4 12 5 5 6 6 7 4 8 3 9 2 10 1 11 22 13 23 14
DOCKED: REMARK SMILES IDX 31 15 24 16 30 17 25 18 29 19 26 20 28 21 27 22 13 23 14 24
DOCKED: REMARK SMILES IDX 15 25 16 26 17 27 21 28 18 29 20 30 19 31 10 32
DOCKED: REMARK H PARENT 3 12 10 33
DOCKED: USER                              x       y       z     vdW  Elec       q    Type
DOCKED: USER                           _______ _______ _______ _____ _____    ______ ____
DOCKED: ROOT
DOCKED: ATOM      1  N   UNL     1     142.759  73.426 219.645 -0.06 +0.07    -0.335 N  
DOCKED: ATOM      2  C   UNL     1     143.905  72.637 220.100 -0.25 -0.02    +0.151 C  
DOCKED: ATOM      3  C   UNL     1     144.905  72.713 218.954 -0.23 +0.02    +0.136 C  
DOCKED: ATOM      4  C   UNL     1     144.199  73.528 217.897 -0.15 -0.01    +0.059 C  
DOCKED: ATOM      5  C   UNL     1     143.338  74.428 218.728 -0.19 -0.03    +0.091 C  
DOCKED: ENDROOT
DOCKED: BRANCH   1   6
DOCKED: ATOM      6  C   UNL     1     141.389  73.281 219.992 -0.09 -0.05    +0.242 C  
DOCKED: ATOM      7  O   UNL     1     140.557  72.970 219.101 -0.02 +0.05    -0.273 OA 
DOCKED: BRANCH   6   8
DOCKED: ATOM      8  C   UNL     1     141.021  73.509 221.413 -0.20 -0.02    +0.216 C  
DOCKED: BRANCH   8   9
DOCKED: ATOM      9  N   UNL     1     141.202  74.894 221.712 -0.14 +0.06    -0.342 N  
DOCKED: ATOM     10  C   UNL     1     140.075  75.631 222.189 -0.11 -0.04    +0.270 C  
DOCKED: ATOM     11  O   UNL     1     138.939  75.065 222.344 -0.40 +0.07    -0.268 OA 
DOCKED: ATOM     12  H   UNL     1     142.130  75.332 221.579 -0.33 -0.08    +0.164 HD 
DOCKED: BRANCH  10  13
DOCKED: ATOM     13  C   UNL     1     140.225  77.048 222.503 -0.30 -0.03    +0.128 A  
DOCKED: ATOM     14  C   UNL     1     139.105  77.845 222.625 -0.29 -0.01    +0.035 A  
DOCKED: ATOM     15  N   UNL     1     141.418  77.641 222.687 -0.23 +0.11    -0.243 NA 
DOCKED: ATOM     16  C   UNL     1     139.158  79.190 222.920 -0.33 -0.00    +0.013 A  
DOCKED: ATOM     17  C   UNL     1     141.529  78.957 222.978 -0.50 -0.03    +0.071 A  
DOCKED: ATOM     18  C   UNL     1     140.398  79.748 223.098 -0.44 -0.00    +0.000 A  
DOCKED: ATOM     19  C   UNL     1     142.776  79.517 223.157 -0.55 -0.01    +0.029 A  
DOCKED: ATOM     20  C   UNL     1     140.587  81.082 223.397 -0.42 -0.00    +0.010 A  
DOCKED: ATOM     21  C   UNL     1     142.965  80.856 223.457 -0.61 -0.00    +0.002 A  
DOCKED: ATOM     22  C   UNL     1     141.825  81.655 223.577 -0.51 -0.00    +0.001 A  
DOCKED: ENDBRANCH  10  13
DOCKED: ENDBRANCH   8   9
DOCKED: ENDBRANCH   6   8
DOCKED: ENDBRANCH   1   6
DOCKED: BRANCH   5  23
DOCKED: ATOM     23  C   UNL     1     144.071  75.392 219.598 -0.18 -0.04    +0.067 C  
DOCKED: BRANCH  23  24
DOCKED: ATOM     24  C   UNL     1     143.472  76.752 219.711 -0.04 -0.18    +0.231 C  
DOCKED: BRANCH  24  25
DOCKED: ATOM     25  O   UNL     1     142.066  76.627 219.802 -0.09 +0.27    -0.494 OA 
DOCKED: BRANCH  25  26
DOCKED: ATOM     26  C   UNL     1     141.298  77.785 219.590 -0.18 -0.06    +0.119 A  
DOCKED: ATOM     27  C   UNL     1     139.950  77.696 219.259 -0.07 -0.02    +0.046 A  
DOCKED: ATOM     28  C   UNL     1     141.852  79.043 219.700 -0.26 -0.03    +0.046 A  
DOCKED: ATOM     29  C   UNL     1     139.217  78.830 219.055 -0.05 -0.00    +0.004 A  
DOCKED: ATOM     30  C   UNL     1     141.104  80.184 219.493 -0.22 -0.00    +0.004 A  
DOCKED: ATOM     31  C   UNL     1     139.771  80.096 219.166 -0.08 -0.00    +0.000 A  
DOCKED: ENDBRANCH  25  26
DOCKED: ENDBRANCH  24  25
DOCKED: ENDBRANCH  23  24
DOCKED: ENDBRANCH   5  23
DOCKED: BRANCH   3  32
DOCKED: ATOM     32  O   UNL     1     146.134  73.200 219.325 -0.67 -0.21    -0.391 OA 
DOCKED: ATOM     33  H   UNL     1     146.275  74.142 219.067 -0.47 -0.03    +0.211 HD 
DOCKED: ENDBRANCH   3  32
DOCKED: TORSDOF 9
DOCKED: TER
DOCKED: ENDMDL
________________________________________________________________________________


    FINAL DOCKED STATE:
    ________________________


Run:   15 / 20
Time taken for this run:   0.054s

DOCKED: MODEL        15
DOCKED: USER    Run = 15
DOCKED: USER
DOCKED: USER    Estimated Free Energy of Binding    =  -8.50 kcal/mol  [=(1)+(2)+(3)-(4)]
DOCKED: USER
DOCKED: USER    (1) Final Intermolecular Energy     = -11.18 kcal/mol
DOCKED: USER        vdW + Hbond + desolv Energy     = -11.03 kcal/mol
DOCKED: USER        Electrostatic Energy            =  -0.15 kcal/mol
DOCKED: USER        Moving Ligand-Fixed Receptor    = -11.18 kcal/mol
DOCKED: USER        Moving Ligand-Moving Receptor   =  +0.00 kcal/mol
DOCKED: USER    (2) Final Total Internal Energy     =  -1.85 kcal/mol
DOCKED: USER    (3) Torsional Free Energy           =  +2.68 kcal/mol
DOCKED: USER    (4) Unbound System's Energy         =  -1.85 kcal/mol
DOCKED: USER
DOCKED: USER
DOCKED: REMARK SMILES O=C(NCC(=O)N1C[C@H](O)C[C@@H]1CCOc1ccccc1)c1ccc2ccccc2n1
DOCKED: REMARK SMILES IDX 7 1 8 2 9 3 11 4 12 5 5 6 6 7 4 8 3 9 2 10 1 11 22 13 23 14
DOCKED: REMARK SMILES IDX 31 15 24 16 30 17 25 18 29 19 26 20 28 21 27 22 13 23 14 24
DOCKED: REMARK SMILES IDX 15 25 16 26 17 27 21 28 18 29 20 30 19 31 10 32
DOCKED: REMARK H PARENT 3 12 10 33
DOCKED: USER                              x       y       z     vdW  Elec       q    Type
DOCKED: USER                           _______ _______ _______ _____ _____    ______ ____
DOCKED: ROOT
DOCKED: ATOM      1  N   UNL     1     139.631  76.734 221.226 -0.08 +0.09    -0.335 N  
DOCKED: ATOM      2  C   UNL     1     141.044  76.997 221.507 -0.28 -0.06    +0.151 C  
DOCKED: ATOM      3  C   UNL     1     141.517  77.849 220.338 -0.24 -0.07    +0.136 C  
DOCKED: ATOM      4  C   UNL     1     140.305  77.962 219.444 -0.10 -0.02    +0.059 C  
DOCKED: ATOM      5  C   UNL     1     139.185  77.899 220.436 -0.09 -0.02    +0.091 C  
DOCKED: ENDROOT
DOCKED: BRANCH   1   6
DOCKED: ATOM      6  C   UNL     1     138.843  75.617 221.614 -0.18 -0.05    +0.242 C  
DOCKED: ATOM      7  O   UNL     1     137.784  75.805 222.266 -0.18 +0.07    -0.273 OA 
DOCKED: BRANCH   6   8
DOCKED: ATOM      8  C   UNL     1     139.330  74.271 221.214 -0.16 -0.04    +0.216 C  
DOCKED: BRANCH   8   9
DOCKED: ATOM      9  N   UNL     1     139.219  73.396 222.338 -0.10 +0.09    -0.342 N  
DOCKED: ATOM     10  C   UNL     1     140.281  72.472 222.579 -0.20 -0.03    +0.270 C  
DOCKED: ATOM     11  O   UNL     1     141.302  72.432 221.809 -0.23 +0.02    -0.268 OA 
DOCKED: ATOM     12  H   UNL     1     138.384  73.445 222.948 -0.52 -0.10    +0.164 HD 
DOCKED: BRANCH  10  13
DOCKED: ATOM     13  C   UNL     1     140.200  71.564 223.718 -0.34 -0.02    +0.128 A  
DOCKED: ATOM     14  C   UNL     1     139.621  70.321 223.563 -0.29 -0.01    +0.035 A  
DOCKED: ATOM     15  N   UNL     1     140.667  71.871 224.941 -0.28 +0.03    -0.243 NA 
DOCKED: ATOM     16  C   UNL     1     139.505  69.405 224.585 -0.35 -0.00    +0.013 A  
DOCKED: ATOM     17  C   UNL     1     140.578  71.010 225.980 -0.55 -0.01    +0.071 A  
DOCKED: ATOM     18  C   UNL     1     139.996  69.765 225.814 -0.48 -0.00    +0.000 A  
DOCKED: ATOM     19  C   UNL     1     141.073  71.374 227.215 -0.72 -0.00    +0.029 A  
DOCKED: ATOM     20  C   UNL     1     139.941  68.938 226.918 -0.58 -0.00    +0.010 A  
DOCKED: ATOM     21  C   UNL     1     141.018  70.544 228.323 -0.58 -0.00    +0.002 A  
DOCKED: ATOM     22  C   UNL     1     140.429  69.288 228.156 -0.64 -0.00    +0.001 A  
DOCKED: ENDBRANCH  10  13
DOCKED: ENDBRANCH   8   9
DOCKED: ENDBRANCH   6   8
DOCKED: ENDBRANCH   1   6
DOCKED: BRANCH   5  23
DOCKED: ATOM     23  C   UNL     1     139.118  79.035 221.400 -0.15 -0.02    +0.067 C  
DOCKED: BRANCH  23  24
DOCKED: ATOM     24  C   UNL     1     138.284  78.810 222.614 -0.17 -0.04    +0.231 C  
DOCKED: BRANCH  24  25
DOCKED: ATOM     25  O   UNL     1     138.812  79.575 223.680 -0.13 +0.06    -0.494 OA 
DOCKED: BRANCH  25  26
DOCKED: ATOM     26  C   UNL     1     140.158  79.971 223.586 -0.37 -0.02    +0.119 A  
DOCKED: ATOM     27  C   UNL     1     141.184  79.087 223.905 -0.52 -0.01    +0.046 A  
DOCKED: ATOM     28  C   UNL     1     140.506  81.242 223.179 -0.37 -0.01    +0.046 A  
DOCKED: ATOM     29  C   UNL     1     142.486  79.486 223.811 -0.48 -0.00    +0.004 A  
DOCKED: ATOM     30  C   UNL     1     141.824  81.636 223.085 -0.52 -0.00    +0.004 A  
DOCKED: ATOM     31  C   UNL     1     142.839  80.763 223.401 -0.64 -0.00    +0.000 A  
DOCKED: ENDBRANCH  25  26
DOCKED: ENDBRANCH  24  25
DOCKED: ENDBRANCH  23  24
DOCKED: ENDBRANCH   5  23
DOCKED: BRANCH   3  32
DOCKED: ATOM     32  O   UNL     1     142.062  79.051 220.716 -0.13 +0.25    -0.391 OA 
DOCKED: ATOM     33  H   UNL     1     142.905  78.956 221.222 -0.39 -0.22    +0.211 HD 
DOCKED: ENDBRANCH   3  32
DOCKED: TORSDOF 9
DOCKED: TER
DOCKED: ENDMDL
________________________________________________________________________________


    FINAL DOCKED STATE:
    ________________________


Run:   16 / 20
Time taken for this run:   0.054s

DOCKED: MODEL        16
DOCKED: USER    Run = 16
DOCKED: USER
DOCKED: USER    Estimated Free Energy of Binding    =  -8.12 kcal/mol  [=(1)+(2)+(3)-(4)]
DOCKED: USER
DOCKED: USER    (1) Final Intermolecular Energy     = -10.81 kcal/mol
DOCKED: USER        vdW + Hbond + desolv Energy     = -10.74 kcal/mol
DOCKED: USER        Electrostatic Energy            =  -0.07 kcal/mol
DOCKED: USER        Moving Ligand-Fixed Receptor    = -10.81 kcal/mol
DOCKED: USER        Moving Ligand-Moving Receptor   =  +0.00 kcal/mol
DOCKED: USER    (2) Final Total Internal Energy     =  -2.09 kcal/mol
DOCKED: USER    (3) Torsional Free Energy           =  +2.68 kcal/mol
DOCKED: USER    (4) Unbound System's Energy         =  -2.09 kcal/mol
DOCKED: USER
DOCKED: USER
DOCKED: REMARK SMILES O=C(NCC(=O)N1C[C@H](O)C[C@@H]1CCOc1ccccc1)c1ccc2ccccc2n1
DOCKED: REMARK SMILES IDX 7 1 8 2 9 3 11 4 12 5 5 6 6 7 4 8 3 9 2 10 1 11 22 13 23 14
DOCKED: REMARK SMILES IDX 31 15 24 16 30 17 25 18 29 19 26 20 28 21 27 22 13 23 14 24
DOCKED: REMARK SMILES IDX 15 25 16 26 17 27 21 28 18 29 20 30 19 31 10 32
DOCKED: REMARK H PARENT 3 12 10 33
DOCKED: USER                              x       y       z     vdW  Elec       q    Type
DOCKED: USER                           _______ _______ _______ _____ _____    ______ ____
DOCKED: ROOT
DOCKED: ATOM      1  N   UNL     1     141.114  76.248 220.217 -0.08 +0.13    -0.335 N  
DOCKED: ATOM      2  C   UNL     1     142.428  76.883 220.103 -0.21 -0.10    +0.151 C  
DOCKED: ATOM      3  C   UNL     1     142.741  76.855 218.614 -0.27 -0.08    +0.136 C  
DOCKED: ATOM      4  C   UNL     1     141.561  76.143 217.997 -0.10 -0.02    +0.059 C  
DOCKED: ATOM      5  C   UNL     1     140.452  76.527 218.928 -0.07 -0.03    +0.091 C  
DOCKED: ENDROOT
DOCKED: BRANCH   1   6
DOCKED: ATOM      6  C   UNL     1     140.573  75.519 221.311 -0.23 -0.06    +0.242 C  
DOCKED: ATOM      7  O   UNL     1     140.512  76.062 222.444 -0.40 +0.05    -0.273 OA 
DOCKED: BRANCH   6   8
DOCKED: ATOM      8  C   UNL     1     140.104  74.135 221.040 -0.17 -0.04    +0.216 C  
DOCKED: BRANCH   8   9
DOCKED: ATOM      9  N   UNL     1     139.950  73.456 222.288 -0.14 +0.03    -0.342 N  
DOCKED: ATOM     10  C   UNL     1     140.351  72.087 222.361 -0.21 -0.03    +0.270 C  
DOCKED: ATOM     11  O   UNL     1     140.833  71.489 221.338 -0.13 +0.03    -0.268 OA 
DOCKED: ATOM     12  H   UNL     1     139.557  73.959 223.102 -0.52 -0.02    +0.164 HD 
DOCKED: BRANCH  10  13
DOCKED: ATOM     13  C   UNL     1     140.206  71.363 223.619 -0.33 -0.02    +0.128 A  
DOCKED: ATOM     14  C   UNL     1     139.569  70.140 223.637 -0.28 -0.01    +0.035 A  
DOCKED: ATOM     15  N   UNL     1     140.669  71.826 224.794 -0.28 +0.03    -0.243 NA 
DOCKED: ATOM     16  C   UNL     1     139.392  69.391 224.780 -0.37 -0.00    +0.013 A  
DOCKED: ATOM     17  C   UNL     1     140.522  71.135 225.947 -0.55 -0.01    +0.071 A  
DOCKED: ATOM     18  C   UNL     1     139.881  69.907 225.953 -0.49 -0.00    +0.000 A  
DOCKED: ATOM     19  C   UNL     1     141.015  71.654 227.125 -0.75 -0.01    +0.029 A  
DOCKED: ATOM     20  C   UNL     1     139.768  69.257 227.166 -0.57 -0.00    +0.010 A  
DOCKED: ATOM     21  C   UNL     1     140.902  71.002 228.342 -0.65 -0.00    +0.002 A  
DOCKED: ATOM     22  C   UNL     1     140.255  69.764 228.349 -0.60 -0.00    +0.001 A  
DOCKED: ENDBRANCH  10  13
DOCKED: ENDBRANCH   8   9
DOCKED: ENDBRANCH   6   8
DOCKED: ENDBRANCH   1   6
DOCKED: BRANCH   5  23
DOCKED: ATOM     23  C   UNL     1     140.114  77.979 218.957 -0.07 -0.02    +0.067 C  
DOCKED: BRANCH  23  24
DOCKED: ATOM     24  C   UNL     1     139.254  78.425 220.091 -0.04 -0.06    +0.231 C  
DOCKED: BRANCH  24  25
DOCKED: ATOM     25  O   UNL     1     139.704  79.690 220.535 +0.01 +0.14    -0.494 OA 
DOCKED: BRANCH  25  26
DOCKED: ATOM     26  C   UNL     1     140.662  79.711 221.564 -0.23 -0.04    +0.119 A  
DOCKED: ATOM     27  C   UNL     1     141.840  80.438 221.425 -0.39 -0.02    +0.046 A  
DOCKED: ATOM     28  C   UNL     1     140.469  79.014 222.738 -0.39 -0.01    +0.046 A  
DOCKED: ATOM     29  C   UNL     1     142.762  80.449 222.432 -0.56 -0.00    +0.004 A  
DOCKED: ATOM     30  C   UNL     1     141.406  79.031 223.752 -0.60 -0.00    +0.004 A  
DOCKED: ATOM     31  C   UNL     1     142.570  79.750 223.614 -0.61 -0.00    +0.000 A  
DOCKED: ENDBRANCH  25  26
DOCKED: ENDBRANCH  24  25
DOCKED: ENDBRANCH  23  24
DOCKED: ENDBRANCH   5  23
DOCKED: BRANCH   3  32
DOCKED: ATOM     32  O   UNL     1     143.005  78.093 218.082 -0.21 +0.34    -0.391 OA 
DOCKED: ATOM     33  H   UNL     1     143.687  78.598 218.587 -0.27 -0.24    +0.211 HD 
DOCKED: ENDBRANCH   3  32
DOCKED: TORSDOF 9
DOCKED: TER
DOCKED: ENDMDL
________________________________________________________________________________


    FINAL DOCKED STATE:
    ________________________


Run:   17 / 20
Time taken for this run:   0.054s

DOCKED: MODEL        17
DOCKED: USER    Run = 17
DOCKED: USER
DOCKED: USER    Estimated Free Energy of Binding    =  -8.49 kcal/mol  [=(1)+(2)+(3)-(4)]
DOCKED: USER
DOCKED: USER    (1) Final Intermolecular Energy     = -11.17 kcal/mol
DOCKED: USER        vdW + Hbond + desolv Energy     = -11.12 kcal/mol
DOCKED: USER        Electrostatic Energy            =  -0.06 kcal/mol
DOCKED: USER        Moving Ligand-Fixed Receptor    = -11.17 kcal/mol
DOCKED: USER        Moving Ligand-Moving Receptor   =  +0.00 kcal/mol
DOCKED: USER    (2) Final Total Internal Energy     =  -1.83 kcal/mol
DOCKED: USER    (3) Torsional Free Energy           =  +2.68 kcal/mol
DOCKED: USER    (4) Unbound System's Energy         =  -1.83 kcal/mol
DOCKED: USER
DOCKED: USER
DOCKED: REMARK SMILES O=C(NCC(=O)N1C[C@H](O)C[C@@H]1CCOc1ccccc1)c1ccc2ccccc2n1
DOCKED: REMARK SMILES IDX 7 1 8 2 9 3 11 4 12 5 5 6 6 7 4 8 3 9 2 10 1 11 22 13 23 14
DOCKED: REMARK SMILES IDX 31 15 24 16 30 17 25 18 29 19 26 20 28 21 27 22 13 23 14 24
DOCKED: REMARK SMILES IDX 15 25 16 26 17 27 21 28 18 29 20 30 19 31 10 32
DOCKED: REMARK H PARENT 3 12 10 33
DOCKED: USER                              x       y       z     vdW  Elec       q    Type
DOCKED: USER                           _______ _______ _______ _____ _____    ______ ____
DOCKED: ROOT
DOCKED: ATOM      1  N   UNL     1     141.271  75.860 220.236 -0.09 +0.13    -0.335 N  
DOCKED: ATOM      2  C   UNL     1     142.660  75.573 219.873 -0.26 -0.07    +0.151 C  
DOCKED: ATOM      3  C   UNL     1     142.730  75.844 218.376 -0.19 -0.06    +0.136 C  
DOCKED: ATOM      4  C   UNL     1     141.320  76.230 218.000 -0.09 -0.02    +0.059 C  
DOCKED: ATOM      5  C   UNL     1     140.833  76.877 219.260 -0.11 -0.04    +0.091 C  
DOCKED: ENDROOT
DOCKED: BRANCH   1   6
DOCKED: ATOM      6  C   UNL     1     140.495  75.299 221.286 -0.22 -0.06    +0.242 C  
DOCKED: ATOM      7  O   UNL     1     140.320  75.957 222.343 -0.46 +0.05    -0.273 OA 
DOCKED: BRANCH   6   8
DOCKED: ATOM      8  C   UNL     1     139.929  73.943 221.062 -0.16 -0.04    +0.216 C  
DOCKED: BRANCH   8   9
DOCKED: ATOM      9  N   UNL     1     139.853  73.271 222.321 -0.15 +0.04    -0.342 N  
DOCKED: ATOM     10  C   UNL     1     140.145  71.873 222.354 -0.20 -0.04    +0.270 C  
DOCKED: ATOM     11  O   UNL     1     140.467  71.245 221.288 -0.11 +0.04    -0.268 OA 
DOCKED: ATOM     12  H   UNL     1     139.590  73.798 223.172 -0.49 -0.03    +0.164 HD 
DOCKED: BRANCH  10  13
DOCKED: ATOM     13  C   UNL     1     140.076  71.155 223.622 -0.32 -0.02    +0.128 A  
DOCKED: ATOM     14  C   UNL     1     139.492  69.906 223.672 -0.27 -0.01    +0.035 A  
DOCKED: ATOM     15  N   UNL     1     140.561  71.647 224.776 -0.30 +0.04    -0.243 NA 
DOCKED: ATOM     16  C   UNL     1     139.386  69.161 224.826 -0.38 -0.00    +0.013 A  
DOCKED: ATOM     17  C   UNL     1     140.484  70.960 225.939 -0.54 -0.01    +0.071 A  
DOCKED: ATOM     18  C   UNL     1     139.895  69.707 225.977 -0.48 -0.00    +0.000 A  
DOCKED: ATOM     19  C   UNL     1     140.997  71.509 227.094 -0.73 -0.00    +0.029 A  
DOCKED: ATOM     20  C   UNL     1     139.852  69.064 227.197 -0.59 -0.00    +0.010 A  
DOCKED: ATOM     21  C   UNL     1     140.954  70.864 228.320 -0.63 -0.00    +0.002 A  
DOCKED: ATOM     22  C   UNL     1     140.359  69.600 228.359 -0.60 -0.00    +0.001 A  
DOCKED: ENDBRANCH  10  13
DOCKED: ENDBRANCH   8   9
DOCKED: ENDBRANCH   6   8
DOCKED: ENDBRANCH   1   6
DOCKED: BRANCH   5  23
DOCKED: ATOM     23  C   UNL     1     141.536  78.134 219.648 -0.24 -0.04    +0.067 C  
DOCKED: BRANCH  23  24
DOCKED: ATOM     24  C   UNL     1     140.825  79.404 219.324 -0.11 -0.10    +0.231 C  
DOCKED: BRANCH  24  25
DOCKED: ATOM     25  O   UNL     1     140.196  79.886 220.495 +0.00 +0.15    -0.494 OA 
DOCKED: BRANCH  25  26
DOCKED: ATOM     26  C   UNL     1     140.960  79.913 221.676 -0.28 -0.04    +0.119 A  
DOCKED: ATOM     27  C   UNL     1     141.944  80.877 221.866 -0.44 -0.01    +0.046 A  
DOCKED: ATOM     28  C   UNL     1     140.761  78.988 222.679 -0.41 -0.01    +0.046 A  
DOCKED: ATOM     29  C   UNL     1     142.678  80.889 223.017 -0.58 -0.00    +0.004 A  
DOCKED: ATOM     30  C   UNL     1     141.507  79.008 223.840 -0.61 -0.00    +0.004 A  
DOCKED: ATOM     31  C   UNL     1     142.480  79.961 224.028 -0.54 -0.00    +0.000 A  
DOCKED: ENDBRANCH  25  26
DOCKED: ENDBRANCH  24  25
DOCKED: ENDBRANCH  23  24
DOCKED: ENDBRANCH   5  23
DOCKED: BRANCH   3  32
DOCKED: ATOM     32  O   UNL     1     143.688  76.764 218.027 -0.16 +0.27    -0.391 OA 
DOCKED: ATOM     33  H   UNL     1     144.561  76.357 217.811 -0.40 -0.17    +0.211 HD 
DOCKED: ENDBRANCH   3  32
DOCKED: TORSDOF 9
DOCKED: TER
DOCKED: ENDMDL
________________________________________________________________________________


    FINAL DOCKED STATE:
    ________________________


Run:   18 / 20
Time taken for this run:   0.054s

DOCKED: MODEL        18
DOCKED: USER    Run = 18
DOCKED: USER
DOCKED: USER    Estimated Free Energy of Binding    =  -6.76 kcal/mol  [=(1)+(2)+(3)-(4)]
DOCKED: USER
DOCKED: USER    (1) Final Intermolecular Energy     =  -9.44 kcal/mol
DOCKED: USER        vdW + Hbond + desolv Energy     =  -9.17 kcal/mol
DOCKED: USER        Electrostatic Energy            =  -0.27 kcal/mol
DOCKED: USER        Moving Ligand-Fixed Receptor    =  -9.44 kcal/mol
DOCKED: USER        Moving Ligand-Moving Receptor   =  +0.00 kcal/mol
DOCKED: USER    (2) Final Total Internal Energy     =  -3.81 kcal/mol
DOCKED: USER    (3) Torsional Free Energy           =  +2.68 kcal/mol
DOCKED: USER    (4) Unbound System's Energy         =  -3.81 kcal/mol
DOCKED: USER
DOCKED: USER
DOCKED: REMARK SMILES O=C(NCC(=O)N1C[C@H](O)C[C@@H]1CCOc1ccccc1)c1ccc2ccccc2n1
DOCKED: REMARK SMILES IDX 7 1 8 2 9 3 11 4 12 5 5 6 6 7 4 8 3 9 2 10 1 11 22 13 23 14
DOCKED: REMARK SMILES IDX 31 15 24 16 30 17 25 18 29 19 26 20 28 21 27 22 13 23 14 24
DOCKED: REMARK SMILES IDX 15 25 16 26 17 27 21 28 18 29 20 30 19 31 10 32
DOCKED: REMARK H PARENT 3 12 10 33
DOCKED: USER                              x       y       z     vdW  Elec       q    Type
DOCKED: USER                           _______ _______ _______ _____ _____    ______ ____
DOCKED: ROOT
DOCKED: ATOM      1  N   UNL     1     143.081  73.123 220.198 -0.10 +0.06    -0.335 N  
DOCKED: ATOM      2  C   UNL     1     144.389  72.550 220.521 -0.32 -0.02    +0.151 C  
DOCKED: ATOM      3  C   UNL     1     145.177  72.631 219.221 -0.28 +0.03    +0.136 C  
DOCKED: ATOM      4  C   UNL     1     144.203  73.220 218.230 -0.16 -0.01    +0.059 C  
DOCKED: ATOM      5  C   UNL     1     143.355  74.085 219.112 -0.21 -0.03    +0.091 C  
DOCKED: ENDROOT
DOCKED: BRANCH   1   6
DOCKED: ATOM      6  C   UNL     1     141.818  72.836 220.783 -0.16 -0.03    +0.242 C  
DOCKED: ATOM      7  O   UNL     1     141.734  71.937 221.659 -0.17 +0.02    -0.273 OA 
DOCKED: BRANCH   6   8
DOCKED: ATOM      8  C   UNL     1     140.656  73.632 220.312 -0.11 -0.04    +0.216 C  
DOCKED: BRANCH   8   9
DOCKED: ATOM      9  N   UNL     1     140.834  74.986 220.734 -0.11 +0.09    -0.342 N  
DOCKED: ATOM     10  C   UNL     1     140.044  75.459 221.826 -0.21 -0.05    +0.270 C  
DOCKED: ATOM     11  O   UNL     1     139.204  74.691 222.409 -0.59 +0.06    -0.268 OA 
DOCKED: ATOM     12  H   UNL     1     141.519  75.591 220.248 +0.05 -0.06    +0.164 HD 
DOCKED: BRANCH  10  13
DOCKED: ATOM     13  C   UNL     1     140.200  76.836 222.282 -0.33 -0.03    +0.128 A  
DOCKED: ATOM     14  C   UNL     1     139.088  77.567 222.647 -0.29 -0.01    +0.035 A  
DOCKED: ATOM     15  N   UNL     1     141.391  77.453 222.371 -0.17 +0.12    -0.243 NA 
DOCKED: ATOM     16  C   UNL     1     139.147  78.870 223.089 -0.34 -0.00    +0.013 A  
DOCKED: ATOM     17  C   UNL     1     141.508  78.731 222.797 -0.48 -0.03    +0.071 A  
DOCKED: ATOM     18  C   UNL     1     140.385  79.456 223.161 -0.45 -0.00    +0.000 A  
DOCKED: ATOM     19  C   UNL     1     142.753  79.318 222.870 -0.51 -0.01    +0.029 A  
DOCKED: ATOM     20  C   UNL     1     140.580  80.754 223.587 -0.44 -0.00    +0.010 A  
DOCKED: ATOM     21  C   UNL     1     142.949  80.622 223.298 -0.65 -0.00    +0.002 A  
DOCKED: ATOM     22  C   UNL     1     141.816  81.354 223.665 -0.58 -0.00    +0.001 A  
DOCKED: ENDBRANCH  10  13
DOCKED: ENDBRANCH   8   9
DOCKED: ENDBRANCH   6   8
DOCKED: ENDBRANCH   1   6
DOCKED: BRANCH   5  23
DOCKED: ATOM     23  C   UNL     1     144.060  75.229 219.757 -0.30 -0.04    +0.067 C  
DOCKED: BRANCH  23  24
DOCKED: ATOM     24  C   UNL     1     143.644  76.588 219.305 -0.10 -0.17    +0.231 C  
DOCKED: BRANCH  24  25
DOCKED: ATOM     25  O   UNL     1     142.262  76.567 219.006 -0.08 +0.26    -0.494 OA 
DOCKED: BRANCH  25  26
DOCKED: ATOM     26  C   UNL     1     141.550  77.770 219.157 -0.18 -0.06    +0.119 A  
DOCKED: ATOM     27  C   UNL     1     140.159  77.782 219.138 -0.08 -0.02    +0.046 A  
DOCKED: ATOM     28  C   UNL     1     142.202  78.974 219.326 -0.22 -0.03    +0.046 A  
DOCKED: ATOM     29  C   UNL     1     139.481  78.958 219.284 -0.07 -0.00    +0.004 A  
DOCKED: ATOM     30  C   UNL     1     141.509  80.158 219.475 -0.27 -0.00    +0.004 A  
DOCKED: ATOM     31  C   UNL     1     140.134  80.169 219.455 -0.12 -0.00    +0.000 A  
DOCKED: ENDBRANCH  25  26
DOCKED: ENDBRANCH  24  25
DOCKED: ENDBRANCH  23  24
DOCKED: ENDBRANCH   5  23
DOCKED: BRANCH   3  32
DOCKED: ATOM     32  O   UNL     1     146.361  73.316 219.336 -0.69 -0.24    -0.391 OA 
DOCKED: ATOM     33  H   UNL     1     146.397  74.130 218.779 -0.48 -0.02    +0.211 HD 
DOCKED: ENDBRANCH   3  32
DOCKED: TORSDOF 9
DOCKED: TER
DOCKED: ENDMDL
________________________________________________________________________________


    FINAL DOCKED STATE:
    ________________________


Run:   19 / 20
Time taken for this run:   0.054s

DOCKED: MODEL        19
DOCKED: USER    Run = 19
DOCKED: USER
DOCKED: USER    Estimated Free Energy of Binding    =  -8.46 kcal/mol  [=(1)+(2)+(3)-(4)]
DOCKED: USER
DOCKED: USER    (1) Final Intermolecular Energy     = -11.15 kcal/mol
DOCKED: USER        vdW + Hbond + desolv Energy     = -11.15 kcal/mol
DOCKED: USER        Electrostatic Energy            =  +0.00 kcal/mol
DOCKED: USER        Moving Ligand-Fixed Receptor    = -11.15 kcal/mol
DOCKED: USER        Moving Ligand-Moving Receptor   =  +0.00 kcal/mol
DOCKED: USER    (2) Final Total Internal Energy     =  -2.08 kcal/mol
DOCKED: USER    (3) Torsional Free Energy           =  +2.68 kcal/mol
DOCKED: USER    (4) Unbound System's Energy         =  -2.08 kcal/mol
DOCKED: USER
DOCKED: USER
DOCKED: REMARK SMILES O=C(NCC(=O)N1C[C@H](O)C[C@@H]1CCOc1ccccc1)c1ccc2ccccc2n1
DOCKED: REMARK SMILES IDX 7 1 8 2 9 3 11 4 12 5 5 6 6 7 4 8 3 9 2 10 1 11 22 13 23 14
DOCKED: REMARK SMILES IDX 31 15 24 16 30 17 25 18 29 19 26 20 28 21 27 22 13 23 14 24
DOCKED: REMARK SMILES IDX 15 25 16 26 17 27 21 28 18 29 20 30 19 31 10 32
DOCKED: REMARK H PARENT 3 12 10 33
DOCKED: USER                              x       y       z     vdW  Elec       q    Type
DOCKED: USER                           _______ _______ _______ _____ _____    ______ ____
DOCKED: ROOT
DOCKED: ATOM      1  N   UNL     1     142.464  74.323 219.742 -0.08 +0.10    -0.335 N  
DOCKED: ATOM      2  C   UNL     1     143.642  75.166 219.529 -0.30 -0.08    +0.151 C  
DOCKED: ATOM      3  C   UNL     1     143.186  76.220 218.530 -0.26 -0.08    +0.136 C  
DOCKED: ATOM      4  C   UNL     1     141.757  75.846 218.219 -0.11 -0.02    +0.059 C  
DOCKED: ATOM      5  C   UNL     1     141.316  75.222 219.507 -0.13 -0.03    +0.091 C  
DOCKED: ENDROOT
DOCKED: BRANCH   1   6
DOCKED: ATOM      6  C   UNL     1     142.409  72.948 220.095 -0.13 -0.04    +0.242 C  
DOCKED: ATOM      7  O   UNL     1     143.468  72.351 220.418 -0.18 +0.04    -0.273 OA 
DOCKED: BRANCH   6   8
DOCKED: ATOM      8  C   UNL     1     141.077  72.290 220.060 -0.08 -0.04    +0.216 C  
DOCKED: BRANCH   8   9
DOCKED: ATOM      9  N   UNL     1     140.914  71.531 221.260 -0.08 +0.04    -0.342 N  
DOCKED: ATOM     10  C   UNL     1     140.398  72.200 222.412 -0.21 -0.03    +0.270 C  
DOCKED: ATOM     11  O   UNL     1     140.091  73.441 222.367 -0.80 +0.02    -0.268 OA 
DOCKED: ATOM     12  H   UNL     1     141.170  70.529 221.274 +0.06 -0.02    +0.164 HD 
DOCKED: BRANCH  10  13
DOCKED: ATOM     13  C   UNL     1     140.220  71.456 223.654 -0.33 -0.02    +0.128 A  
DOCKED: ATOM     14  C   UNL     1     139.499  70.280 223.651 -0.29 -0.01    +0.035 A  
DOCKED: ATOM     15  N   UNL     1     140.729  71.856 224.833 -0.27 +0.03    -0.243 NA 
DOCKED: ATOM     16  C   UNL     1     139.285  69.517 224.778 -0.37 -0.00    +0.013 A  
DOCKED: ATOM     17  C   UNL     1     140.549  71.147 225.971 -0.55 -0.01    +0.071 A  
DOCKED: ATOM     18  C   UNL     1     139.824  69.967 225.956 -0.48 -0.00    +0.000 A  
DOCKED: ATOM     19  C   UNL     1     141.092  71.601 227.154 -0.75 -0.00    +0.029 A  
DOCKED: ATOM     20  C   UNL     1     139.682  69.296 227.154 -0.56 -0.00    +0.010 A  
DOCKED: ATOM     21  C   UNL     1     140.950  70.928 228.356 -0.62 -0.00    +0.002 A  
DOCKED: ATOM     22  C   UNL     1     140.217  69.738 228.343 -0.61 -0.00    +0.001 A  
DOCKED: ENDBRANCH  10  13
DOCKED: ENDBRANCH   8   9
DOCKED: ENDBRANCH   6   8
DOCKED: ENDBRANCH   1   6
DOCKED: BRANCH   5  23
DOCKED: ATOM     23  C   UNL     1     141.277  76.138 220.683 -0.26 -0.03    +0.067 C  
DOCKED: BRANCH  23  24
DOCKED: ATOM     24  C   UNL     1     140.479  77.385 220.510 -0.13 -0.08    +0.231 C  
DOCKED: BRANCH  24  25
DOCKED: ATOM     25  O   UNL     1     141.360  78.492 220.490 -0.06 +0.25    -0.494 OA 
DOCKED: BRANCH  25  26
DOCKED: ATOM     26  C   UNL     1     141.698  79.071 221.725 -0.36 -0.06    +0.119 A  
DOCKED: ATOM     27  C   UNL     1     141.438  78.406 222.919 -0.50 -0.02    +0.046 A  
DOCKED: ATOM     28  C   UNL     1     142.296  80.312 221.796 -0.43 -0.02    +0.046 A  
DOCKED: ATOM     29  C   UNL     1     141.772  78.982 224.111 -0.59 -0.00    +0.004 A  
DOCKED: ATOM     30  C   UNL     1     142.631  80.886 223.005 -0.59 -0.00    +0.004 A  
DOCKED: ATOM     31  C   UNL     1     142.373  80.229 224.185 -0.52 -0.00    +0.000 A  
DOCKED: ENDBRANCH  25  26
DOCKED: ENDBRANCH  24  25
DOCKED: ENDBRANCH  23  24
DOCKED: ENDBRANCH   5  23
DOCKED: BRANCH   3  32
DOCKED: ATOM     32  O   UNL     1     143.357  77.509 218.972 -0.15 +0.33    -0.391 OA 
DOCKED: ATOM     33  H   UNL     1     143.256  77.604 219.949 -0.42 -0.22    +0.211 HD 
DOCKED: ENDBRANCH   3  32
DOCKED: TORSDOF 9
DOCKED: TER
DOCKED: ENDMDL
________________________________________________________________________________


    FINAL DOCKED STATE:
    ________________________


Run:   20 / 20
Time taken for this run:   0.054s

DOCKED: MODEL        20
DOCKED: USER    Run = 20
DOCKED: USER
DOCKED: USER    Estimated Free Energy of Binding    =  -5.98 kcal/mol  [=(1)+(2)+(3)-(4)]
DOCKED: USER
DOCKED: USER    (1) Final Intermolecular Energy     =  -8.67 kcal/mol
DOCKED: USER        vdW + Hbond + desolv Energy     =  -8.66 kcal/mol
DOCKED: USER        Electrostatic Energy            =  -0.00 kcal/mol
DOCKED: USER        Moving Ligand-Fixed Receptor    =  -8.67 kcal/mol
DOCKED: USER        Moving Ligand-Moving Receptor   =  +0.00 kcal/mol
DOCKED: USER    (2) Final Total Internal Energy     =  -3.77 kcal/mol
DOCKED: USER    (3) Torsional Free Energy           =  +2.68 kcal/mol
DOCKED: USER    (4) Unbound System's Energy         =  -3.77 kcal/mol
DOCKED: USER
DOCKED: USER
DOCKED: REMARK SMILES O=C(NCC(=O)N1C[C@H](O)C[C@@H]1CCOc1ccccc1)c1ccc2ccccc2n1
DOCKED: REMARK SMILES IDX 7 1 8 2 9 3 11 4 12 5 5 6 6 7 4 8 3 9 2 10 1 11 22 13 23 14
DOCKED: REMARK SMILES IDX 31 15 24 16 30 17 25 18 29 19 26 20 28 21 27 22 13 23 14 24
DOCKED: REMARK SMILES IDX 15 25 16 26 17 27 21 28 18 29 20 30 19 31 10 32
DOCKED: REMARK H PARENT 3 12 10 33
DOCKED: USER                              x       y       z     vdW  Elec       q    Type
DOCKED: USER                           _______ _______ _______ _____ _____    ______ ____
DOCKED: ROOT
DOCKED: ATOM      1  N   UNL     1     142.609  73.809 219.780 -0.07 +0.08    -0.335 N  
DOCKED: ATOM      2  C   UNL     1     143.582  73.525 220.836 -0.20 -0.03    +0.151 C  
DOCKED: ATOM      3  C   UNL     1     144.907  73.357 220.105 -0.41 -0.02    +0.136 C  
DOCKED: ATOM      4  C   UNL     1     144.551  73.519 218.647 -0.21 -0.01    +0.059 C  
DOCKED: ATOM      5  C   UNL     1     143.394  74.468 218.717 -0.19 -0.03    +0.091 C  
DOCKED: ENDROOT
DOCKED: BRANCH   1   6
DOCKED: ATOM      6  C   UNL     1     141.217  73.523 219.756 -0.07 -0.05    +0.242 C  
DOCKED: ATOM      7  O   UNL     1     140.712  73.001 218.730 -0.01 +0.06    -0.273 OA 
DOCKED: BRANCH   6   8
DOCKED: ATOM      8  C   UNL     1     140.433  73.865 220.971 -0.17 -0.04    +0.216 C  
DOCKED: BRANCH   8   9
DOCKED: ATOM      9  N   UNL     1     140.758  75.202 221.359 -0.17 +0.08    -0.342 N  
DOCKED: ATOM     10  C   UNL     1     139.834  75.903 222.192 -0.20 -0.05    +0.270 C  
DOCKED: ATOM     11  O   UNL     1     138.748  75.348 222.578 -0.29 +0.07    -0.268 OA 
DOCKED: ATOM     12  H   UNL     1     141.643  75.631 221.035 -0.03 -0.07    +0.164 HD 
DOCKED: BRANCH  10  13
DOCKED: ATOM     13  C   UNL     1     140.134  77.269 222.606 -0.28 -0.03    +0.128 A  
DOCKED: ATOM     14  C   UNL     1     139.107  78.120 222.959 -0.26 -0.01    +0.035 A  
DOCKED: ATOM     15  N   UNL     1     141.383  77.764 222.668 -0.26 +0.11    -0.243 NA 
DOCKED: ATOM     16  C   UNL     1     139.303  79.423 223.362 -0.39 -0.00    +0.013 A  
DOCKED: ATOM     17  C   UNL     1     141.634  79.035 223.055 -0.51 -0.02    +0.071 A  
DOCKED: ATOM     18  C   UNL     1     140.595  79.881 223.407 -0.48 -0.00    +0.000 A  
DOCKED: ATOM     19  C   UNL     1     142.933  79.494 223.102 -0.53 -0.01    +0.029 A  
DOCKED: ATOM     20  C   UNL     1     140.925  81.164 223.794 -0.39 -0.00    +0.010 A  
DOCKED: ATOM     21  C   UNL     1     143.265  80.782 223.489 -0.56 -0.00    +0.002 A  
DOCKED: ATOM     22  C   UNL     1     142.217  81.635 223.844 -0.58 -0.00    +0.001 A  
DOCKED: ENDBRANCH  10  13
DOCKED: ENDBRANCH   8   9
DOCKED: ENDBRANCH   6   8
DOCKED: ENDBRANCH   1   6
DOCKED: BRANCH   5  23
DOCKED: ATOM     23  C   UNL     1     143.712  75.828 219.239 -0.28 -0.04    +0.067 C  
DOCKED: BRANCH  23  24
DOCKED: ATOM     24  C   UNL     1     142.911  76.948 218.667 -0.24 -0.15    +0.231 C  
DOCKED: BRANCH  24  25
DOCKED: ATOM     25  O   UNL     1     141.757  77.136 219.461 -0.06 +0.26    -0.494 OA 
DOCKED: BRANCH  25  26
DOCKED: ATOM     26  C   UNL     1     141.281  78.451 219.608 -0.18 -0.06    +0.119 A  
DOCKED: ATOM     27  C   UNL     1     139.919  78.706 219.731 -0.10 -0.02    +0.046 A  
DOCKED: ATOM     28  C   UNL     1     142.143  79.528 219.634 -0.19 -0.03    +0.046 A  
DOCKED: ATOM     29  C   UNL     1     139.471  79.988 219.872 -0.09 -0.00    +0.004 A  
DOCKED: ATOM     30  C   UNL     1     141.682  80.820 219.778 -0.30 -0.00    +0.004 A  
DOCKED: ATOM     31  C   UNL     1     140.335  81.072 219.900 -0.17 -0.00    +0.000 A  
DOCKED: ENDBRANCH  25  26
DOCKED: ENDBRANCH  24  25
DOCKED: ENDBRANCH  23  24
DOCKED: ENDBRANCH   5  23
DOCKED: BRANCH   3  32
DOCKED: ATOM     32  O   UNL     1     145.894  74.199 220.551 -0.38 +0.08    -0.391 OA 
DOCKED: ATOM     33  H   UNL     1     146.471  74.542 219.827 -0.41 -0.07    +0.211 HD 
DOCKED: ENDBRANCH   3  32
DOCKED: TORSDOF 9
DOCKED: TER
DOCKED: ENDMDL
________________________________________________________________________________


    CLUSTERING HISTOGRAM
    ____________________


________________________________________________________________________________
     |           |     |           |     |
Clus | Lowest    | Run | Mean      | Num | Histogram
-ter | Binding   |     | Binding   | in  |
Rank | Energy    |     | Energy    | Clus|    5    10   15   20   25   30   35
_____|___________|_____|___________|_____|____:____|____:____|____:____|____:___
   1 |     -8.66 |  13 |     -8.30 |  10 |##########
   2 |     -7.96 |   6 |     -7.93 |   2 |##
   3 |     -7.95 |   7 |     -7.95 |   1 |#
   4 |     -7.59 |   3 |     -7.46 |   2 |##
   5 |     -7.08 |   1 |     -6.56 |   5 |#####
_____|___________|_____|___________|_____|______________________________________


    RMSD TABLE
    __________


_______________________________________________________________________
     |      |      |           |         |                 |
Rank | Sub- | Run  | Binding   | Cluster | Reference       | Grep
     | Rank |      | Energy    | RMSD    | RMSD            | Pattern
_____|______|______|___________|_________|_________________|___________
   1      1     13       -8.66      0.00    271.92           RANKING
   1      2     11       -8.52      1.61    271.96           RANKING
   1      3     15       -8.50      1.97    272.34           RANKING
   1      4     17       -8.49      0.60    271.91           RANKING
   1      5     19       -8.46      1.59    271.96           RANKING
   1      6     10       -8.43      1.64    271.91           RANKING
   1      7     12       -8.22      0.78    271.91           RANKING
   1      8     16       -8.12      1.07    271.87           RANKING
   1      9      9       -8.01      1.81    271.83           RANKING
   1     10      4       -7.55      1.89    271.59           RANKING
   2      1      6       -7.96      0.00    270.94           RANKING
   2      2      5       -7.91      1.18    271.08           RANKING
   3      1      7       -7.95      0.00    271.84           RANKING
   4      1      3       -7.59      0.00    272.32           RANKING
   4      2      2       -7.33      1.97    271.69           RANKING
   5      1      1       -7.08      0.00    271.33           RANKING
   5      2      8       -6.77      0.59    271.56           RANKING
   5      3     18       -6.76      0.54    271.47           RANKING
   5      4     14       -6.22      0.97    271.47           RANKING
   5      5     20       -5.98      1.14    271.71           RANKING

Run time 1.049 sec
Idle time 0.000 sec
