AutoDock-GPU version: v1.6

**********************************************************
**    AutoDock-GPU AUTODOCKTOOLS-COMPATIBLE DLG FILE    **
**********************************************************


    DOCKING PARAMETERS
    ________________________


Ligand file:                               /home/a/REINVENT4/ReinventStudies/pleaseWork/justmol2mol_4_Compounds_ontop/graph-dock-hn62wh/graph-DockGPU/node-autodockgpu/inputs/YLRQYMCSDCCODA-WLSUZABENA-N.pdbqt
Grid fld file:                             /home/a/REINVENT4/ReinventStudies/mols/Rad51/maps/rad51_receptor.maps.fld

Random seed:                               42
Number of runs:                            20
Number of energy evaluations:              2040163
Number of generations:                     42000
Size of population:                        150
Rate of crossover:                         80.000000%
Tournament selection probability limit:    60.000000%
Rate of mutation:                          2.000000%
Maximal allowed delta movement:            +/- 6.000000A
Maximal allowed delta angle:               +/- 90.000000

Rate of local search:                      100.000000%
Maximal number of local search iterations: 300
Rho lower bound:                           0.010000
Spread of local search delta movement:     2.000000A
Spread of local search delta angle:        74.999999
Limit of consecutive successes/failures:   4

Handle symmetry during clustering:         YES
RMSD tolerance:                            2.000000A

Program call in command line was:          /home/a/REINVENT4/ReinventStudies/adgpu-v1.6_linux_x64_cuda12_128wi --filelist batch.txt --heuristics 1 --nrun 20 --psize 150 --lsit 300 --seed 42 --heurmax 12000000 


    GRID PARAMETERS
    ________________________


Receptor name:                             rad51_receptor
Number of grid points (x, y, z):           53, 53, 53
Grid center (x, y, z):                     139.950000, 75.640000, 221.970000A
Grid size (x, y, z):                       19.500000, 19.500000, 19.500000A
Grid spacing:                              0.375000A


    LIGAND PARAMETERS
    ________________________


Ligand name:                               /home/a/REINVENT4/ReinventStudies/pleaseWork/justmol2mol_4_Compounds_ontop/graph-dock-hn62wh/graph-DockGPU/node-autodockgpu/inputs/YLRQYMCSDCCODA-WLSUZABENA-N
Number of atoms:                           33
Number of rotatable bonds:                 9
Number of atom types:                      6


    DUMMY DATA (only for ADT-compatibility)
    ________________________


DPF> outlev 1
DPF> ga_run 20
DPF> fld /home/a/REINVENT4/ReinventStudies/mols/Rad51/maps/rad51_receptor.maps.fld
DPF> move /home/a/REINVENT4/ReinventStudies/pleaseWork/justmol2mol_4_Compounds_ontop/graph-dock-hn62wh/graph-DockGPU/node-autodockgpu/inputs/YLRQYMCSDCCODA-WLSUZABENA-N.pdbqt


    COUNTER STATES
    ________________________


Number of energy evaluations performed:    1420283
Number of generations used:                85


    INPUT LIGAND PDBQT FILE:
    ________________________


INPUT-LIGAND-PDBQT: REMARK SMILES O=C(NCC(=O)N1C[C@@H](O)C[C@@H]1CCOc1ccccc1)c1ccc2ccccc2n1
INPUT-LIGAND-PDBQT: REMARK SMILES IDX 7 1 8 2 9 3 11 4 12 5 5 6 6 7 4 8 3 9 2 10 1 11 22 13 23 14
INPUT-LIGAND-PDBQT: REMARK SMILES IDX 31 15 24 16 30 17 25 18 29 19 26 20 28 21 27 22 13 23 14 24
INPUT-LIGAND-PDBQT: REMARK SMILES IDX 15 25 16 26 17 27 21 28 18 29 20 30 19 31 10 32
INPUT-LIGAND-PDBQT: REMARK H PARENT 3 12 10 33
INPUT-LIGAND-PDBQT: ROOT
INPUT-LIGAND-PDBQT: ATOM      1  N   UNL     1      -0.501   1.070  -0.692  1.00  0.00    -0.335 N 
INPUT-LIGAND-PDBQT: ATOM      2  C   UNL     1       0.394   0.901   0.429  1.00  0.00     0.151 C 
INPUT-LIGAND-PDBQT: ATOM      3  C   UNL     1      -0.491   1.046   1.660  1.00  0.00     0.136 C 
INPUT-LIGAND-PDBQT: ATOM      4  C   UNL     1      -1.468   2.076   1.199  1.00  0.00     0.059 C 
INPUT-LIGAND-PDBQT: ATOM      5  C   UNL     1      -1.816   1.541  -0.212  1.00  0.00     0.091 C 
INPUT-LIGAND-PDBQT: ENDROOT
INPUT-LIGAND-PDBQT: BRANCH   1   6
INPUT-LIGAND-PDBQT: ATOM      6  C   UNL     1      -0.290   0.825  -2.071  1.00  0.00     0.242 C 
INPUT-LIGAND-PDBQT: ATOM      7  O   UNL     1      -1.257   1.166  -2.887  1.00  0.00    -0.273 OA
INPUT-LIGAND-PDBQT: BRANCH   6   8
INPUT-LIGAND-PDBQT: ATOM      8  C   UNL     1       0.836   0.230  -2.778  1.00  0.00     0.216 C 
INPUT-LIGAND-PDBQT: BRANCH   8   9
INPUT-LIGAND-PDBQT: ATOM      9  N   UNL     1       1.972  -0.066  -1.996  1.00  0.00    -0.342 N 
INPUT-LIGAND-PDBQT: ATOM     10  C   UNL     1       2.850   0.875  -1.391  1.00  0.00     0.270 C 
INPUT-LIGAND-PDBQT: ATOM     11  O   UNL     1       2.640   2.106  -1.558  1.00  0.00    -0.268 OA
INPUT-LIGAND-PDBQT: ATOM     12  H   UNL     1       2.232  -1.084  -1.816  1.00  0.00     0.164 HD
INPUT-LIGAND-PDBQT: BRANCH  10  13
INPUT-LIGAND-PDBQT: ATOM     13  C   UNL     1       3.990   0.430  -0.579  1.00  0.00     0.128 A 
INPUT-LIGAND-PDBQT: ATOM     14  C   UNL     1       4.821   1.371  -0.008  1.00  0.00     0.035 A 
INPUT-LIGAND-PDBQT: ATOM     15  N   UNL     1       4.263  -0.870  -0.366  1.00  0.00    -0.243 NA
INPUT-LIGAND-PDBQT: ATOM     16  C   UNL     1       5.914   1.038   0.769  1.00  0.00     0.013 A 
INPUT-LIGAND-PDBQT: ATOM     17  C   UNL     1       5.332  -1.242   0.394  1.00  0.00     0.071 A 
INPUT-LIGAND-PDBQT: ATOM     18  C   UNL     1       6.167  -0.305   0.969  1.00  0.00     0.000 A 
INPUT-LIGAND-PDBQT: ATOM     19  C   UNL     1       5.630  -2.569   0.625  1.00  0.00     0.029 A 
INPUT-LIGAND-PDBQT: ATOM     20  C   UNL     1       7.259  -0.640   1.744  1.00  0.00     0.010 A 
INPUT-LIGAND-PDBQT: ATOM     21  C   UNL     1       6.724  -2.940   1.403  1.00  0.00     0.002 A 
INPUT-LIGAND-PDBQT: ATOM     22  C   UNL     1       7.540  -1.975   1.963  1.00  0.00     0.001 A 
INPUT-LIGAND-PDBQT: ENDBRANCH  10  13
INPUT-LIGAND-PDBQT: ENDBRANCH   8   9
INPUT-LIGAND-PDBQT: ENDBRANCH   6   8
INPUT-LIGAND-PDBQT: ENDBRANCH   1   6
INPUT-LIGAND-PDBQT: BRANCH   5  23
INPUT-LIGAND-PDBQT: ATOM     23  C   UNL     1      -2.835   0.460  -0.001  1.00  0.00     0.067 C 
INPUT-LIGAND-PDBQT: BRANCH  23  24
INPUT-LIGAND-PDBQT: ATOM     24  C   UNL     1      -3.215  -0.360  -1.177  1.00  0.00     0.231 C 
INPUT-LIGAND-PDBQT: BRANCH  24  25
INPUT-LIGAND-PDBQT: ATOM     25  O   UNL     1      -4.176  -1.354  -0.935  1.00  0.00    -0.494 OA
INPUT-LIGAND-PDBQT: BRANCH  25  26
INPUT-LIGAND-PDBQT: ATOM     26  C   UNL     1      -5.465  -1.211  -0.567  1.00  0.00     0.119 A 
INPUT-LIGAND-PDBQT: ATOM     27  C   UNL     1      -6.191  -2.403  -0.359  1.00  0.00     0.046 A 
INPUT-LIGAND-PDBQT: ATOM     28  C   UNL     1      -6.173  -0.058  -0.369  1.00  0.00     0.046 A 
INPUT-LIGAND-PDBQT: ATOM     29  C   UNL     1      -7.511  -2.395   0.015  1.00  0.00     0.004 A 
INPUT-LIGAND-PDBQT: ATOM     30  C   UNL     1      -7.519  -0.047   0.013  1.00  0.00     0.004 A 
INPUT-LIGAND-PDBQT: ATOM     31  C   UNL     1      -8.200  -1.219   0.208  1.00  0.00     0.000 A 
INPUT-LIGAND-PDBQT: ENDBRANCH  25  26
INPUT-LIGAND-PDBQT: ENDBRANCH  24  25
INPUT-LIGAND-PDBQT: ENDBRANCH  23  24
INPUT-LIGAND-PDBQT: ENDBRANCH   5  23
INPUT-LIGAND-PDBQT: BRANCH   3  32
INPUT-LIGAND-PDBQT: ATOM     32  O   UNL     1       0.277   1.514   2.746  1.00  0.00    -0.391 OA
INPUT-LIGAND-PDBQT: ATOM     33  H   UNL     1       0.504   2.466   2.555  1.00  0.00     0.211 HD
INPUT-LIGAND-PDBQT: ENDBRANCH   3  32
INPUT-LIGAND-PDBQT: TORSDOF 9


    FINAL DOCKED STATE:
    ________________________


Run:   1 / 20
Time taken for this run:   0.070s

DOCKED: MODEL        1
DOCKED: USER    Run = 1
DOCKED: USER
DOCKED: USER    Estimated Free Energy of Binding    =  -8.40 kcal/mol  [=(1)+(2)+(3)-(4)]
DOCKED: USER
DOCKED: USER    (1) Final Intermolecular Energy     = -11.09 kcal/mol
DOCKED: USER        vdW + Hbond + desolv Energy     = -10.96 kcal/mol
DOCKED: USER        Electrostatic Energy            =  -0.13 kcal/mol
DOCKED: USER        Moving Ligand-Fixed Receptor    = -11.09 kcal/mol
DOCKED: USER        Moving Ligand-Moving Receptor   =  +0.00 kcal/mol
DOCKED: USER    (2) Final Total Internal Energy     =  -1.68 kcal/mol
DOCKED: USER    (3) Torsional Free Energy           =  +2.68 kcal/mol
DOCKED: USER    (4) Unbound System's Energy         =  -1.68 kcal/mol
DOCKED: USER
DOCKED: USER
DOCKED: REMARK SMILES O=C(NCC(=O)N1C[C@@H](O)C[C@@H]1CCOc1ccccc1)c1ccc2ccccc2n1
DOCKED: REMARK SMILES IDX 7 1 8 2 9 3 11 4 12 5 5 6 6 7 4 8 3 9 2 10 1 11 22 13 23 14
DOCKED: REMARK SMILES IDX 31 15 24 16 30 17 25 18 29 19 26 20 28 21 27 22 13 23 14 24
DOCKED: REMARK SMILES IDX 15 25 16 26 17 27 21 28 18 29 20 30 19 31 10 32
DOCKED: REMARK H PARENT 3 12 10 33
DOCKED: USER                              x       y       z     vdW  Elec       q    Type
DOCKED: USER                           _______ _______ _______ _____ _____    ______ ____
DOCKED: ROOT
DOCKED: ATOM      1  N   UNL     1     141.547  73.608 220.158 -0.06 +0.07    -0.335 N  
DOCKED: ATOM      2  C   UNL     1     142.849  72.993 220.277 -0.20 -0.03    +0.151 C  
DOCKED: ATOM      3  C   UNL     1     143.780  74.127 220.683 -0.25 -0.04    +0.136 C  
DOCKED: ATOM      4  C   UNL     1     143.188  75.275 219.934 -0.34 -0.03    +0.059 C  
DOCKED: ATOM      5  C   UNL     1     141.682  75.076 220.234 -0.22 -0.03    +0.091 C  
DOCKED: ENDROOT
DOCKED: BRANCH   1   6
DOCKED: ATOM      6  C   UNL     1     140.268  73.014 220.023 -0.05 -0.05    +0.242 C  
DOCKED: ATOM      7  O   UNL     1     139.287  73.801 219.656 -0.02 +0.06    -0.273 OA 
DOCKED: BRANCH   6   8
DOCKED: ATOM      8  C   UNL     1     139.819  71.645 220.236 -0.05 -0.04    +0.216 C  
DOCKED: BRANCH   8   9
DOCKED: ATOM      9  N   UNL     1     140.016  71.123 221.531 -0.07 +0.05    -0.342 N  
DOCKED: ATOM     10  C   UNL     1     140.068  71.866 222.743 -0.22 -0.04    +0.270 C  
DOCKED: ATOM     11  O   UNL     1     139.948  73.120 222.700 -0.71 +0.03    -0.268 OA 
DOCKED: ATOM     12  H   UNL     1     140.140  70.072 221.658 +0.04 -0.03    +0.164 HD 
DOCKED: BRANCH  10  13
DOCKED: ATOM     13  C   UNL     1     140.257  71.193 224.034 -0.36 -0.02    +0.128 A  
DOCKED: ATOM     14  C   UNL     1     140.773  71.903 225.098 -0.31 -0.00    +0.035 A  
DOCKED: ATOM     15  N   UNL     1     139.947  69.898 224.227 -0.16 +0.04    -0.243 NA 
DOCKED: ATOM     16  C   UNL     1     140.982  71.347 226.345 -0.67 -0.00    +0.013 A  
DOCKED: ATOM     17  C   UNL     1     140.139  69.309 225.442 -0.39 -0.01    +0.071 A  
DOCKED: ATOM     18  C   UNL     1     140.654  70.015 226.510 -0.56 -0.00    +0.000 A  
DOCKED: ATOM     19  C   UNL     1     139.828  67.983 225.661 -0.52 -0.00    +0.029 A  
DOCKED: ATOM     20  C   UNL     1     140.863  69.457 227.755 -0.60 -0.00    +0.010 A  
DOCKED: ATOM     21  C   UNL     1     140.027  67.390 226.906 -0.56 -0.00    +0.002 A  
DOCKED: ATOM     22  C   UNL     1     140.545  68.127 227.954 -0.65 -0.00    +0.001 A  
DOCKED: ENDBRANCH  10  13
DOCKED: ENDBRANCH   8   9
DOCKED: ENDBRANCH   6   8
DOCKED: ENDBRANCH   1   6
DOCKED: BRANCH   5  23
DOCKED: ATOM     23  C   UNL     1     141.455  75.661 221.598 -0.20 -0.02    +0.067 C  
DOCKED: BRANCH  23  24
DOCKED: ATOM     24  C   UNL     1     140.070  76.057 221.950 -0.26 -0.05    +0.231 C  
DOCKED: BRANCH  24  25
DOCKED: ATOM     25  O   UNL     1     139.889  77.415 222.253 -0.11 +0.12    -0.494 OA 
DOCKED: BRANCH  25  26
DOCKED: ATOM     26  C   UNL     1     140.820  78.353 222.519 -0.37 -0.04    +0.119 A  
DOCKED: ATOM     27  C   UNL     1     141.253  79.131 221.424 -0.33 -0.02    +0.046 A  
DOCKED: ATOM     28  C   UNL     1     141.411  78.654 223.715 -0.53 -0.01    +0.046 A  
DOCKED: ATOM     29  C   UNL     1     142.198  80.116 221.560 -0.45 -0.00    +0.004 A  
DOCKED: ATOM     30  C   UNL     1     142.375  79.658 223.856 -0.57 -0.00    +0.004 A  
DOCKED: ATOM     31  C   UNL     1     142.777  80.399 222.776 -0.63 -0.00    +0.000 A  
DOCKED: ENDBRANCH  25  26
DOCKED: ENDBRANCH  24  25
DOCKED: ENDBRANCH  23  24
DOCKED: ENDBRANCH   5  23
DOCKED: BRANCH   3  32
DOCKED: ATOM     32  O   UNL     1     145.091  73.847 220.244 -0.29 +0.08    -0.391 OA 
DOCKED: ATOM     33  H   UNL     1     145.324  74.534 219.560 -0.28 -0.10    +0.211 HD 
DOCKED: ENDBRANCH   3  32
DOCKED: TORSDOF 9
DOCKED: TER
DOCKED: ENDMDL
________________________________________________________________________________


    FINAL DOCKED STATE:
    ________________________


Run:   2 / 20
Time taken for this run:   0.070s

DOCKED: MODEL        2
DOCKED: USER    Run = 2
DOCKED: USER
DOCKED: USER    Estimated Free Energy of Binding    =  -7.13 kcal/mol  [=(1)+(2)+(3)-(4)]
DOCKED: USER
DOCKED: USER    (1) Final Intermolecular Energy     =  -9.81 kcal/mol
DOCKED: USER        vdW + Hbond + desolv Energy     =  -9.53 kcal/mol
DOCKED: USER        Electrostatic Energy            =  -0.28 kcal/mol
DOCKED: USER        Moving Ligand-Fixed Receptor    =  -9.81 kcal/mol
DOCKED: USER        Moving Ligand-Moving Receptor   =  +0.00 kcal/mol
DOCKED: USER    (2) Final Total Internal Energy     =  -3.06 kcal/mol
DOCKED: USER    (3) Torsional Free Energy           =  +2.68 kcal/mol
DOCKED: USER    (4) Unbound System's Energy         =  -3.06 kcal/mol
DOCKED: USER
DOCKED: USER
DOCKED: REMARK SMILES O=C(NCC(=O)N1C[C@@H](O)C[C@@H]1CCOc1ccccc1)c1ccc2ccccc2n1
DOCKED: REMARK SMILES IDX 7 1 8 2 9 3 11 4 12 5 5 6 6 7 4 8 3 9 2 10 1 11 22 13 23 14
DOCKED: REMARK SMILES IDX 31 15 24 16 30 17 25 18 29 19 26 20 28 21 27 22 13 23 14 24
DOCKED: REMARK SMILES IDX 15 25 16 26 17 27 21 28 18 29 20 30 19 31 10 32
DOCKED: REMARK H PARENT 3 12 10 33
DOCKED: USER                              x       y       z     vdW  Elec       q    Type
DOCKED: USER                           _______ _______ _______ _____ _____    ______ ____
DOCKED: ROOT
DOCKED: ATOM      1  N   UNL     1     142.958  73.196 219.691 -0.06 +0.06    -0.335 N  
DOCKED: ATOM      2  C   UNL     1     144.064  72.670 220.457 -0.30 -0.02    +0.151 C  
DOCKED: ATOM      3  C   UNL     1     145.310  73.165 219.734 -0.38 +0.01    +0.136 C  
DOCKED: ATOM      4  C   UNL     1     144.860  73.122 218.312 -0.20 +0.00    +0.059 C  
DOCKED: ATOM      5  C   UNL     1     143.459  73.772 218.426 -0.13 -0.02    +0.091 C  
DOCKED: ENDROOT
DOCKED: BRANCH   1   6
DOCKED: ATOM      6  C   UNL     1     141.577  73.247 220.002 -0.10 -0.05    +0.242 C  
DOCKED: ATOM      7  O   UNL     1     140.743  72.920 219.045 -0.02 +0.05    -0.273 OA 
DOCKED: BRANCH   6   8
DOCKED: ATOM      8  C   UNL     1     140.883  73.622 221.226 -0.20 -0.03    +0.216 C  
DOCKED: BRANCH   8   9
DOCKED: ATOM      9  N   UNL     1     140.996  74.974 221.612 -0.18 +0.06    -0.342 N  
DOCKED: ATOM     10  C   UNL     1     139.952  75.798 222.117 -0.20 -0.05    +0.270 C  
DOCKED: ATOM     11  O   UNL     1     138.793  75.320 222.231 -0.29 +0.07    -0.268 OA 
DOCKED: ATOM     12  H   UNL     1     141.940  75.463 221.534 -0.26 -0.07    +0.164 HD 
DOCKED: BRANCH  10  13
DOCKED: ATOM     13  C   UNL     1     140.211  77.191 222.505 -0.30 -0.03    +0.128 A  
DOCKED: ATOM     14  C   UNL     1     139.151  78.063 222.638 -0.30 -0.01    +0.035 A  
DOCKED: ATOM     15  N   UNL     1     141.451  77.659 222.737 -0.23 +0.12    -0.243 NA 
DOCKED: ATOM     16  C   UNL     1     139.307  79.388 222.998 -0.34 -0.00    +0.013 A  
DOCKED: ATOM     17  C   UNL     1     141.649  78.960 223.094 -0.52 -0.03    +0.071 A  
DOCKED: ATOM     18  C   UNL     1     140.593  79.838 223.230 -0.47 -0.00    +0.000 A  
DOCKED: ATOM     19  C   UNL     1     142.912  79.460 223.337 -0.40 -0.01    +0.029 A  
DOCKED: ATOM     20  C   UNL     1     140.751  81.161 223.589 -0.39 -0.00    +0.010 A  
DOCKED: ATOM     21  C   UNL     1     143.105  80.790 223.701 -0.62 -0.00    +0.002 A  
DOCKED: ATOM     22  C   UNL     1     142.024  81.642 223.828 -0.55 -0.00    +0.001 A  
DOCKED: ENDBRANCH  10  13
DOCKED: ENDBRANCH   8   9
DOCKED: ENDBRANCH   6   8
DOCKED: ENDBRANCH   1   6
DOCKED: BRANCH   5  23
DOCKED: ATOM     23  C   UNL     1     143.695  75.253 218.458 -0.20 -0.03    +0.067 C  
DOCKED: BRANCH  23  24
DOCKED: ATOM     24  C   UNL     1     143.483  75.952 219.748 -0.25 -0.15    +0.231 C  
DOCKED: BRANCH  24  25
DOCKED: ATOM     25  O   UNL     1     142.346  76.773 219.811 -0.12 +0.30    -0.494 OA 
DOCKED: BRANCH  25  26
DOCKED: ATOM     26  C   UNL     1     142.191  78.036 219.365 -0.24 -0.08    +0.119 A  
DOCKED: ATOM     27  C   UNL     1     142.673  78.303 218.066 -0.30 -0.04    +0.046 A  
DOCKED: ATOM     28  C   UNL     1     141.627  79.104 220.006 -0.26 -0.03    +0.046 A  
DOCKED: ATOM     29  C   UNL     1     142.578  79.548 217.497 -0.27 -0.00    +0.004 A  
DOCKED: ATOM     30  C   UNL     1     141.529  80.374 219.428 -0.27 -0.00    +0.004 A  
DOCKED: ATOM     31  C   UNL     1     142.005  80.606 218.166 -0.30 -0.00    +0.000 A  
DOCKED: ENDBRANCH  25  26
DOCKED: ENDBRANCH  24  25
DOCKED: ENDBRANCH  23  24
DOCKED: ENDBRANCH   5  23
DOCKED: BRANCH   3  32
DOCKED: ATOM     32  O   UNL     1     146.379  72.274 219.964 -0.45 -0.28    -0.391 OA 
DOCKED: ATOM     33  H   UNL     1     146.205  71.828 220.838 -0.43 -0.03    +0.211 HD 
DOCKED: ENDBRANCH   3  32
DOCKED: TORSDOF 9
DOCKED: TER
DOCKED: ENDMDL
________________________________________________________________________________


    FINAL DOCKED STATE:
    ________________________


Run:   3 / 20
Time taken for this run:   0.070s

DOCKED: MODEL        3
DOCKED: USER    Run = 3
DOCKED: USER
DOCKED: USER    Estimated Free Energy of Binding    =  -8.61 kcal/mol  [=(1)+(2)+(3)-(4)]
DOCKED: USER
DOCKED: USER    (1) Final Intermolecular Energy     = -11.30 kcal/mol
DOCKED: USER        vdW + Hbond + desolv Energy     = -11.21 kcal/mol
DOCKED: USER        Electrostatic Energy            =  -0.09 kcal/mol
DOCKED: USER        Moving Ligand-Fixed Receptor    = -11.30 kcal/mol
DOCKED: USER        Moving Ligand-Moving Receptor   =  +0.00 kcal/mol
DOCKED: USER    (2) Final Total Internal Energy     =  -2.20 kcal/mol
DOCKED: USER    (3) Torsional Free Energy           =  +2.68 kcal/mol
DOCKED: USER    (4) Unbound System's Energy         =  -2.20 kcal/mol
DOCKED: USER
DOCKED: USER
DOCKED: REMARK SMILES O=C(NCC(=O)N1C[C@@H](O)C[C@@H]1CCOc1ccccc1)c1ccc2ccccc2n1
DOCKED: REMARK SMILES IDX 7 1 8 2 9 3 11 4 12 5 5 6 6 7 4 8 3 9 2 10 1 11 22 13 23 14
DOCKED: REMARK SMILES IDX 31 15 24 16 30 17 25 18 29 19 26 20 28 21 27 22 13 23 14 24
DOCKED: REMARK SMILES IDX 15 25 16 26 17 27 21 28 18 29 20 30 19 31 10 32
DOCKED: REMARK H PARENT 3 12 10 33
DOCKED: USER                              x       y       z     vdW  Elec       q    Type
DOCKED: USER                           _______ _______ _______ _____ _____    ______ ____
DOCKED: ROOT
DOCKED: ATOM      1  N   UNL     1     140.469  76.649 220.604 -0.07 +0.11    -0.335 N  
DOCKED: ATOM      2  C   UNL     1     141.790  77.107 220.245 -0.23 -0.09    +0.151 C  
DOCKED: ATOM      3  C   UNL     1     141.563  78.435 219.533 -0.21 -0.07    +0.136 C  
DOCKED: ATOM      4  C   UNL     1     140.278  78.170 218.822 -0.08 -0.02    +0.059 C  
DOCKED: ATOM      5  C   UNL     1     139.453  77.496 219.947 -0.07 -0.03    +0.091 C  
DOCKED: ENDROOT
DOCKED: BRANCH   1   6
DOCKED: ATOM      6  C   UNL     1     140.072  75.596 221.464 -0.22 -0.05    +0.242 C  
DOCKED: ATOM      7  O   UNL     1     139.852  75.907 222.717 -0.41 +0.04    -0.273 OA 
DOCKED: BRANCH   6   8
DOCKED: ATOM      8  C   UNL     1     139.870  74.176 221.211 -0.18 -0.04    +0.216 C  
DOCKED: BRANCH   8   9
DOCKED: ATOM      9  N   UNL     1     139.833  73.343 222.348 -0.15 +0.04    -0.342 N  
DOCKED: ATOM     10  C   UNL     1     140.110  71.948 222.384 -0.21 -0.04    +0.270 C  
DOCKED: ATOM     11  O   UNL     1     140.404  71.353 221.313 -0.11 +0.04    -0.268 OA 
DOCKED: ATOM     12  H   UNL     1     139.579  73.761 223.295 -0.48 -0.03    +0.164 HD 
DOCKED: BRANCH  10  13
DOCKED: ATOM     13  C   UNL     1     140.057  71.200 223.646 -0.32 -0.02    +0.128 A  
DOCKED: ATOM     14  C   UNL     1     139.500  69.938 223.661 -0.27 -0.01    +0.035 A  
DOCKED: ATOM     15  N   UNL     1     140.532  71.697 224.802 -0.29 +0.04    -0.243 NA 
DOCKED: ATOM     16  C   UNL     1     139.411  69.168 224.805 -0.37 -0.00    +0.013 A  
DOCKED: ATOM     17  C   UNL     1     140.464  70.970 225.954 -0.54 -0.01    +0.071 A  
DOCKED: ATOM     18  C   UNL     1     139.908  69.706 225.975 -0.48 -0.00    +0.000 A  
DOCKED: ATOM     19  C   UNL     1     140.945  71.461 227.150 -0.73 -0.01    +0.029 A  
DOCKED: ATOM     20  C   UNL     1     139.819  68.939 227.119 -0.58 -0.00    +0.010 A  
DOCKED: ATOM     21  C   UNL     1     140.871  70.711 228.321 -0.60 -0.00    +0.002 A  
DOCKED: ATOM     22  C   UNL     1     140.307  69.449 228.307 -0.63 -0.00    +0.001 A  
DOCKED: ENDBRANCH  10  13
DOCKED: ENDBRANCH   8   9
DOCKED: ENDBRANCH   6   8
DOCKED: ENDBRANCH   1   6
DOCKED: BRANCH   5  23
DOCKED: ATOM     23  C   UNL     1     138.922  78.616 220.793 -0.10 -0.02    +0.067 C  
DOCKED: BRANCH  23  24
DOCKED: ATOM     24  C   UNL     1     138.350  78.262 222.115 -0.15 -0.04    +0.231 C  
DOCKED: BRANCH  24  25
DOCKED: ATOM     25  O   UNL     1     138.965  78.870 223.221 -0.11 +0.07    -0.494 OA 
DOCKED: BRANCH  25  26
DOCKED: ATOM     26  C   UNL     1     140.162  79.485 223.290 -0.37 -0.02    +0.119 A  
DOCKED: ATOM     27  C   UNL     1     141.297  78.662 223.136 -0.52 -0.02    +0.046 A  
DOCKED: ATOM     28  C   UNL     1     140.429  80.811 223.492 -0.42 -0.01    +0.046 A  
DOCKED: ATOM     29  C   UNL     1     142.573  79.165 223.188 -0.53 -0.00    +0.004 A  
DOCKED: ATOM     30  C   UNL     1     141.729  81.326 223.545 -0.57 -0.00    +0.004 A  
DOCKED: ATOM     31  C   UNL     1     142.813  80.504 223.394 -0.68 -0.00    +0.000 A  
DOCKED: ENDBRANCH  25  26
DOCKED: ENDBRANCH  24  25
DOCKED: ENDBRANCH  23  24
DOCKED: ENDBRANCH   5  23
DOCKED: BRANCH   3  32
DOCKED: ATOM     32  O   UNL     1     142.614  78.674 218.625 -0.19 +0.32    -0.391 OA 
DOCKED: ATOM     33  H   UNL     1     143.437  78.269 219.016 -0.33 -0.22    +0.211 HD 
DOCKED: ENDBRANCH   3  32
DOCKED: TORSDOF 9
DOCKED: TER
DOCKED: ENDMDL
________________________________________________________________________________


    FINAL DOCKED STATE:
    ________________________


Run:   4 / 20
Time taken for this run:   0.070s

DOCKED: MODEL        4
DOCKED: USER    Run = 4
DOCKED: USER
DOCKED: USER    Estimated Free Energy of Binding    =  -8.38 kcal/mol  [=(1)+(2)+(3)-(4)]
DOCKED: USER
DOCKED: USER    (1) Final Intermolecular Energy     = -11.06 kcal/mol
DOCKED: USER        vdW + Hbond + desolv Energy     = -11.00 kcal/mol
DOCKED: USER        Electrostatic Energy            =  -0.06 kcal/mol
DOCKED: USER        Moving Ligand-Fixed Receptor    = -11.06 kcal/mol
DOCKED: USER        Moving Ligand-Moving Receptor   =  +0.00 kcal/mol
DOCKED: USER    (2) Final Total Internal Energy     =  -2.02 kcal/mol
DOCKED: USER    (3) Torsional Free Energy           =  +2.68 kcal/mol
DOCKED: USER    (4) Unbound System's Energy         =  -2.02 kcal/mol
DOCKED: USER
DOCKED: USER
DOCKED: REMARK SMILES O=C(NCC(=O)N1C[C@@H](O)C[C@@H]1CCOc1ccccc1)c1ccc2ccccc2n1
DOCKED: REMARK SMILES IDX 7 1 8 2 9 3 11 4 12 5 5 6 6 7 4 8 3 9 2 10 1 11 22 13 23 14
DOCKED: REMARK SMILES IDX 31 15 24 16 30 17 25 18 29 19 26 20 28 21 27 22 13 23 14 24
DOCKED: REMARK SMILES IDX 15 25 16 26 17 27 21 28 18 29 20 30 19 31 10 32
DOCKED: REMARK H PARENT 3 12 10 33
DOCKED: USER                              x       y       z     vdW  Elec       q    Type
DOCKED: USER                           _______ _______ _______ _____ _____    ______ ____
DOCKED: ROOT
DOCKED: ATOM      1  N   UNL     1     141.101  76.394 220.076 -0.07 +0.13    -0.335 N  
DOCKED: ATOM      2  C   UNL     1     142.435  76.769 219.667 -0.28 -0.09    +0.151 C  
DOCKED: ATOM      3  C   UNL     1     142.241  77.984 218.769 -0.24 -0.09    +0.136 C  
DOCKED: ATOM      4  C   UNL     1     140.955  77.644 218.091 -0.10 -0.03    +0.059 C  
DOCKED: ATOM      5  C   UNL     1     140.108  77.157 219.293 -0.07 -0.03    +0.091 C  
DOCKED: ENDROOT
DOCKED: BRANCH   1   6
DOCKED: ATOM      6  C   UNL     1     140.677  75.485 221.076 -0.21 -0.06    +0.242 C  
DOCKED: ATOM      7  O   UNL     1     140.907  75.824 222.320 -0.42 +0.06    -0.273 OA 
DOCKED: BRANCH   6   8
DOCKED: ATOM      8  C   UNL     1     140.020  74.189 220.976 -0.16 -0.04    +0.216 C  
DOCKED: BRANCH   8   9
DOCKED: ATOM      9  N   UNL     1     139.980  73.422 222.160 -0.15 +0.04    -0.342 N  
DOCKED: ATOM     10  C   UNL     1     140.110  72.009 222.257 -0.20 -0.04    +0.270 C  
DOCKED: ATOM     11  O   UNL     1     140.261  71.334 221.204 -0.10 +0.04    -0.268 OA 
DOCKED: ATOM     12  H   UNL     1     139.841  73.913 223.096 -0.38 +0.02    +0.164 HD 
DOCKED: BRANCH  10  13
DOCKED: ATOM     13  C   UNL     1     140.072  71.335 223.561 -0.32 -0.02    +0.128 A  
DOCKED: ATOM     14  C   UNL     1     139.498  70.085 223.659 -0.28 -0.01    +0.035 A  
DOCKED: ATOM     15  N   UNL     1     140.577  71.890 224.677 -0.27 +0.03    -0.243 NA 
DOCKED: ATOM     16  C   UNL     1     139.421  69.383 224.846 -0.38 -0.00    +0.013 A  
DOCKED: ATOM     17  C   UNL     1     140.521  71.232 225.870 -0.54 -0.01    +0.071 A  
DOCKED: ATOM     18  C   UNL     1     139.949  69.980 225.974 -0.50 -0.00    +0.000 A  
DOCKED: ATOM     19  C   UNL     1     141.033  71.782 227.026 -0.76 -0.01    +0.029 A  
DOCKED: ATOM     20  C   UNL     1     139.872  69.280 227.161 -0.57 -0.00    +0.010 A  
DOCKED: ATOM     21  C   UNL     1     140.972  71.102 228.240 -0.69 -0.00    +0.002 A  
DOCKED: ATOM     22  C   UNL     1     140.390  69.850 228.308 -0.60 -0.00    +0.001 A  
DOCKED: ENDBRANCH  10  13
DOCKED: ENDBRANCH   8   9
DOCKED: ENDBRANCH   6   8
DOCKED: ENDBRANCH   1   6
DOCKED: BRANCH   5  23
DOCKED: ATOM     23  C   UNL     1     139.595  78.398 219.963 -0.09 -0.02    +0.067 C  
DOCKED: BRANCH  23  24
DOCKED: ATOM     24  C   UNL     1     138.888  78.234 221.256 -0.09 -0.05    +0.231 C  
DOCKED: BRANCH  24  25
DOCKED: ATOM     25  O   UNL     1     139.707  78.220 222.395 -0.08 +0.11    -0.494 OA 
DOCKED: BRANCH  25  26
DOCKED: ATOM     26  C   UNL     1     140.575  79.158 222.824 -0.36 -0.03    +0.119 A  
DOCKED: ATOM     27  C   UNL     1     141.945  78.873 222.639 -0.47 -0.02    +0.046 A  
DOCKED: ATOM     28  C   UNL     1     140.308  80.359 223.421 -0.43 -0.01    +0.046 A  
DOCKED: ATOM     29  C   UNL     1     142.929  79.744 223.033 -0.62 -0.00    +0.004 A  
DOCKED: ATOM     30  C   UNL     1     141.310  81.249 223.824 -0.49 -0.00    +0.004 A  
DOCKED: ATOM     31  C   UNL     1     142.632  80.947 223.632 -0.65 -0.00    +0.000 A  
DOCKED: ENDBRANCH  25  26
DOCKED: ENDBRANCH  24  25
DOCKED: ENDBRANCH  23  24
DOCKED: ENDBRANCH   5  23
DOCKED: BRANCH   3  32
DOCKED: ATOM     32  O   UNL     1     143.303  78.067 217.846 -0.15 +0.38    -0.391 OA 
DOCKED: ATOM     33  H   UNL     1     143.346  79.014 217.534 -0.30 -0.30    +0.211 HD 
DOCKED: ENDBRANCH   3  32
DOCKED: TORSDOF 9
DOCKED: TER
DOCKED: ENDMDL
________________________________________________________________________________


    FINAL DOCKED STATE:
    ________________________


Run:   5 / 20
Time taken for this run:   0.070s

DOCKED: MODEL        5
DOCKED: USER    Run = 5
DOCKED: USER
DOCKED: USER    Estimated Free Energy of Binding    =  -7.48 kcal/mol  [=(1)+(2)+(3)-(4)]
DOCKED: USER
DOCKED: USER    (1) Final Intermolecular Energy     = -10.16 kcal/mol
DOCKED: USER        vdW + Hbond + desolv Energy     = -10.03 kcal/mol
DOCKED: USER        Electrostatic Energy            =  -0.13 kcal/mol
DOCKED: USER        Moving Ligand-Fixed Receptor    = -10.16 kcal/mol
DOCKED: USER        Moving Ligand-Moving Receptor   =  +0.00 kcal/mol
DOCKED: USER    (2) Final Total Internal Energy     =  -2.20 kcal/mol
DOCKED: USER    (3) Torsional Free Energy           =  +2.68 kcal/mol
DOCKED: USER    (4) Unbound System's Energy         =  -2.20 kcal/mol
DOCKED: USER
DOCKED: USER
DOCKED: REMARK SMILES O=C(NCC(=O)N1C[C@@H](O)C[C@@H]1CCOc1ccccc1)c1ccc2ccccc2n1
DOCKED: REMARK SMILES IDX 7 1 8 2 9 3 11 4 12 5 5 6 6 7 4 8 3 9 2 10 1 11 22 13 23 14
DOCKED: REMARK SMILES IDX 31 15 24 16 30 17 25 18 29 19 26 20 28 21 27 22 13 23 14 24
DOCKED: REMARK SMILES IDX 15 25 16 26 17 27 21 28 18 29 20 30 19 31 10 32
DOCKED: REMARK H PARENT 3 12 10 33
DOCKED: USER                              x       y       z     vdW  Elec       q    Type
DOCKED: USER                           _______ _______ _______ _____ _____    ______ ____
DOCKED: ROOT
DOCKED: ATOM      1  N   UNL     1     140.837  76.443 220.937 -0.12 +0.12    -0.335 N  
DOCKED: ATOM      2  C   UNL     1     140.681  77.872 221.071 -0.21 -0.06    +0.151 C  
DOCKED: ATOM      3  C   UNL     1     141.437  78.460 219.887 -0.21 -0.07    +0.136 C  
DOCKED: ATOM      4  C   UNL     1     142.574  77.502 219.759 -0.18 -0.04    +0.059 C  
DOCKED: ATOM      5  C   UNL     1     141.833  76.148 219.886 -0.23 -0.04    +0.091 C  
DOCKED: ENDROOT
DOCKED: BRANCH   1   6
DOCKED: ATOM      6  C   UNL     1     140.179  75.387 221.613 -0.24 -0.05    +0.242 C  
DOCKED: ATOM      7  O   UNL     1     139.545  75.696 222.718 -0.46 +0.04    -0.273 OA 
DOCKED: BRANCH   6   8
DOCKED: ATOM      8  C   UNL     1     140.081  73.966 221.308 -0.19 -0.04    +0.216 C  
DOCKED: BRANCH   8   9
DOCKED: ATOM      9  N   UNL     1     139.968  73.101 222.417 -0.15 +0.04    -0.342 N  
DOCKED: ATOM     10  C   UNL     1     140.303  71.719 222.448 -0.20 -0.04    +0.270 C  
DOCKED: ATOM     11  O   UNL     1     140.732  71.167 221.399 -0.12 +0.03    -0.268 OA 
DOCKED: ATOM     12  H   UNL     1     139.600  73.482 223.342 -0.45 -0.04    +0.164 HD 
DOCKED: BRANCH  10  13
DOCKED: ATOM     13  C   UNL     1     140.157  70.935 223.681 -0.29 -0.02    +0.128 A  
DOCKED: ATOM     14  C   UNL     1     139.471  69.739 223.643 -0.25 -0.01    +0.035 A  
DOCKED: ATOM     15  N   UNL     1     140.668  71.336 224.859 -0.32 +0.03    -0.243 NA 
DOCKED: ATOM     16  C   UNL     1     139.288  68.940 224.756 -0.37 -0.00    +0.013 A  
DOCKED: ATOM     17  C   UNL     1     140.510  70.579 225.981 -0.52 -0.01    +0.071 A  
DOCKED: ATOM     18  C   UNL     1     139.825  69.380 225.950 -0.48 -0.00    +0.000 A  
DOCKED: ATOM     19  C   UNL     1     141.025  70.972 227.199 -0.66 -0.00    +0.029 A  
DOCKED: ATOM     20  C   UNL     1     139.642  68.585 227.064 -0.59 -0.00    +0.010 A  
DOCKED: ATOM     21  C   UNL     1     140.859  70.192 228.341 -0.56 -0.00    +0.002 A  
DOCKED: ATOM     22  C   UNL     1     140.166  68.997 228.274 -0.65 -0.00    +0.001 A  
DOCKED: ENDBRANCH  10  13
DOCKED: ENDBRANCH   8   9
DOCKED: ENDBRANCH   6   8
DOCKED: ENDBRANCH   1   6
DOCKED: BRANCH   5  23
DOCKED: ATOM     23  C   UNL     1     141.255  75.868 218.530 -0.09 -0.02    +0.067 C  
DOCKED: BRANCH  23  24
DOCKED: ATOM     24  C   UNL     1     141.923  74.833 217.703 -0.03 -0.07    +0.231 C  
DOCKED: BRANCH  24  25
DOCKED: ATOM     25  O   UNL     1     142.332  73.681 218.392 +0.02 +0.12    -0.494 OA 
DOCKED: BRANCH  25  26
DOCKED: ATOM     26  C   UNL     1     143.337  73.539 219.279 -0.17 -0.03    +0.119 A  
DOCKED: ATOM     27  C   UNL     1     143.315  72.369 220.067 -0.24 -0.01    +0.046 A  
DOCKED: ATOM     28  C   UNL     1     144.384  74.384 219.525 -0.30 -0.02    +0.046 A  
DOCKED: ATOM     29  C   UNL     1     144.278  72.107 221.008 -0.22 -0.00    +0.004 A  
DOCKED: ATOM     30  C   UNL     1     145.368  74.119 220.484 -0.58 -0.00    +0.004 A  
DOCKED: ATOM     31  C   UNL     1     145.322  72.975 221.235 -0.56 -0.00    +0.000 A  
DOCKED: ENDBRANCH  25  26
DOCKED: ENDBRANCH  24  25
DOCKED: ENDBRANCH  23  24
DOCKED: ENDBRANCH   5  23
DOCKED: BRANCH   3  32
DOCKED: ATOM     32  O   UNL     1     141.890  79.757 220.208 -0.15 +0.21    -0.391 OA 
DOCKED: ATOM     33  H   UNL     1     142.666  79.651 220.825 -0.26 -0.16    +0.211 HD 
DOCKED: ENDBRANCH   3  32
DOCKED: TORSDOF 9
DOCKED: TER
DOCKED: ENDMDL
________________________________________________________________________________


    FINAL DOCKED STATE:
    ________________________


Run:   6 / 20
Time taken for this run:   0.070s

DOCKED: MODEL        6
DOCKED: USER    Run = 6
DOCKED: USER
DOCKED: USER    Estimated Free Energy of Binding    =  -6.84 kcal/mol  [=(1)+(2)+(3)-(4)]
DOCKED: USER
DOCKED: USER    (1) Final Intermolecular Energy     =  -9.53 kcal/mol
DOCKED: USER        vdW + Hbond + desolv Energy     =  -9.24 kcal/mol
DOCKED: USER        Electrostatic Energy            =  -0.29 kcal/mol
DOCKED: USER        Moving Ligand-Fixed Receptor    =  -9.53 kcal/mol
DOCKED: USER        Moving Ligand-Moving Receptor   =  +0.00 kcal/mol
DOCKED: USER    (2) Final Total Internal Energy     =  -3.62 kcal/mol
DOCKED: USER    (3) Torsional Free Energy           =  +2.68 kcal/mol
DOCKED: USER    (4) Unbound System's Energy         =  -3.62 kcal/mol
DOCKED: USER
DOCKED: USER
DOCKED: REMARK SMILES O=C(NCC(=O)N1C[C@@H](O)C[C@@H]1CCOc1ccccc1)c1ccc2ccccc2n1
DOCKED: REMARK SMILES IDX 7 1 8 2 9 3 11 4 12 5 5 6 6 7 4 8 3 9 2 10 1 11 22 13 23 14
DOCKED: REMARK SMILES IDX 31 15 24 16 30 17 25 18 29 19 26 20 28 21 27 22 13 23 14 24
DOCKED: REMARK SMILES IDX 15 25 16 26 17 27 21 28 18 29 20 30 19 31 10 32
DOCKED: REMARK H PARENT 3 12 10 33
DOCKED: USER                              x       y       z     vdW  Elec       q    Type
DOCKED: USER                           _______ _______ _______ _____ _____    ______ ____
DOCKED: ROOT
DOCKED: ATOM      1  N   UNL     1     142.942  73.146 220.448 -0.11 +0.06    -0.335 N  
DOCKED: ATOM      2  C   UNL     1     144.169  72.506 220.861 -0.26 -0.03    +0.151 C  
DOCKED: ATOM      3  C   UNL     1     145.271  73.278 220.148 -0.45 -0.01    +0.136 C  
DOCKED: ATOM      4  C   UNL     1     144.605  73.612 218.855 -0.23 -0.01    +0.059 C  
DOCKED: ATOM      5  C   UNL     1     143.221  74.097 219.353 -0.22 -0.03    +0.091 C  
DOCKED: ENDROOT
DOCKED: BRANCH   1   6
DOCKED: ATOM      6  C   UNL     1     141.626  73.003 220.951 -0.16 -0.03    +0.242 C  
DOCKED: ATOM      7  O   UNL     1     141.351  71.885 221.578 -0.17 +0.03    -0.273 OA 
DOCKED: BRANCH   6   8
DOCKED: ATOM      8  C   UNL     1     140.474  73.892 220.889 -0.16 -0.04    +0.216 C  
DOCKED: BRANCH   8   9
DOCKED: ATOM      9  N   UNL     1     140.678  75.205 221.362 -0.16 +0.08    -0.342 N  
DOCKED: ATOM     10  C   UNL     1     139.745  75.998 222.085 -0.23 -0.05    +0.270 C  
DOCKED: ATOM     11  O   UNL     1     138.604  75.526 222.337 -0.27 +0.07    -0.268 OA 
DOCKED: ATOM     12  H   UNL     1     141.612  75.687 221.181 -0.06 -0.07    +0.164 HD 
DOCKED: BRANCH  10  13
DOCKED: ATOM     13  C   UNL     1     140.095  77.349 222.540 -0.29 -0.03    +0.128 A  
DOCKED: ATOM     14  C   UNL     1     139.092  78.213 222.927 -0.28 -0.01    +0.035 A  
DOCKED: ATOM     15  N   UNL     1     141.366  77.787 222.596 -0.26 +0.11    -0.243 NA 
DOCKED: ATOM     16  C   UNL     1     139.335  79.501 223.367 -0.39 -0.00    +0.013 A  
DOCKED: ATOM     17  C   UNL     1     141.650  79.050 223.024 -0.51 -0.03    +0.071 A  
DOCKED: ATOM     18  C   UNL     1     140.650  79.920 223.413 -0.49 -0.00    +0.000 A  
DOCKED: ATOM     19  C   UNL     1     142.945  79.520 223.089 -0.54 -0.01    +0.029 A  
DOCKED: ATOM     20  C   UNL     1     140.895  81.206 223.851 -0.35 -0.00    +0.010 A  
DOCKED: ATOM     21  C   UNL     1     143.226  80.812 223.527 -0.56 -0.00    +0.002 A  
DOCKED: ATOM     22  C   UNL     1     142.200  81.656 223.908 -0.57 -0.00    +0.001 A  
DOCKED: ENDBRANCH  10  13
DOCKED: ENDBRANCH   8   9
DOCKED: ENDBRANCH   6   8
DOCKED: ENDBRANCH   1   6
DOCKED: BRANCH   5  23
DOCKED: ATOM     23  C   UNL     1     143.416  75.520 219.787 -0.35 -0.04    +0.067 C  
DOCKED: BRANCH  23  24
DOCKED: ATOM     24  C   UNL     1     142.758  76.576 218.980 -0.23 -0.14    +0.231 C  
DOCKED: BRANCH  24  25
DOCKED: ATOM     25  O   UNL     1     141.560  77.082 219.509 -0.04 +0.24    -0.494 OA 
DOCKED: BRANCH  25  26
DOCKED: ATOM     26  C   UNL     1     141.131  78.359 219.558 -0.17 -0.06    +0.119 A  
DOCKED: ATOM     27  C   UNL     1     142.130  79.354 219.545 -0.19 -0.03    +0.046 A  
DOCKED: ATOM     28  C   UNL     1     139.847  78.825 219.622 -0.09 -0.01    +0.046 A  
DOCKED: ATOM     29  C   UNL     1     141.826  80.691 219.594 -0.31 -0.00    +0.004 A  
DOCKED: ATOM     30  C   UNL     1     139.534  80.188 219.671 -0.09 -0.00    +0.004 A  
DOCKED: ATOM     31  C   UNL     1     140.524  81.134 219.658 -0.18 -0.00    +0.000 A  
DOCKED: ENDBRANCH  25  26
DOCKED: ENDBRANCH  24  25
DOCKED: ENDBRANCH  23  24
DOCKED: ENDBRANCH   5  23
DOCKED: BRANCH   3  32
DOCKED: ATOM     32  O   UNL     1     146.389  72.441 219.951 -0.47 -0.27    -0.391 OA 
DOCKED: ATOM     33  H   UNL     1     146.454  71.848 220.750 -0.39 +0.01    +0.211 HD 
DOCKED: ENDBRANCH   3  32
DOCKED: TORSDOF 9
DOCKED: TER
DOCKED: ENDMDL
________________________________________________________________________________


    FINAL DOCKED STATE:
    ________________________


Run:   7 / 20
Time taken for this run:   0.070s

DOCKED: MODEL        7
DOCKED: USER    Run = 7
DOCKED: USER
DOCKED: USER    Estimated Free Energy of Binding    =  -9.23 kcal/mol  [=(1)+(2)+(3)-(4)]
DOCKED: USER
DOCKED: USER    (1) Final Intermolecular Energy     = -11.91 kcal/mol
DOCKED: USER        vdW + Hbond + desolv Energy     = -11.70 kcal/mol
DOCKED: USER        Electrostatic Energy            =  -0.21 kcal/mol
DOCKED: USER        Moving Ligand-Fixed Receptor    = -11.91 kcal/mol
DOCKED: USER        Moving Ligand-Moving Receptor   =  +0.00 kcal/mol
DOCKED: USER    (2) Final Total Internal Energy     =  -1.43 kcal/mol
DOCKED: USER    (3) Torsional Free Energy           =  +2.68 kcal/mol
DOCKED: USER    (4) Unbound System's Energy         =  -1.43 kcal/mol
DOCKED: USER
DOCKED: USER
DOCKED: REMARK SMILES O=C(NCC(=O)N1C[C@@H](O)C[C@@H]1CCOc1ccccc1)c1ccc2ccccc2n1
DOCKED: REMARK SMILES IDX 7 1 8 2 9 3 11 4 12 5 5 6 6 7 4 8 3 9 2 10 1 11 22 13 23 14
DOCKED: REMARK SMILES IDX 31 15 24 16 30 17 25 18 29 19 26 20 28 21 27 22 13 23 14 24
DOCKED: REMARK SMILES IDX 15 25 16 26 17 27 21 28 18 29 20 30 19 31 10 32
DOCKED: REMARK H PARENT 3 12 10 33
DOCKED: USER                              x       y       z     vdW  Elec       q    Type
DOCKED: USER                           _______ _______ _______ _____ _____    ______ ____
DOCKED: ROOT
DOCKED: ATOM      1  N   UNL     1     141.917  74.876 220.585 -0.13 +0.11    -0.335 N  
DOCKED: ATOM      2  C   UNL     1     143.120  74.103 220.793 -0.17 -0.04    +0.151 C  
DOCKED: ATOM      3  C   UNL     1     144.149  74.723 219.857 -0.31 -0.06    +0.136 C  
DOCKED: ATOM      4  C   UNL     1     143.294  75.107 218.695 -0.24 -0.03    +0.059 C  
DOCKED: ATOM      5  C   UNL     1     142.092  75.763 219.417 -0.21 -0.04    +0.091 C  
DOCKED: ENDROOT
DOCKED: BRANCH   1   6
DOCKED: ATOM      6  C   UNL     1     140.712  74.902 221.328 -0.22 -0.05    +0.242 C  
DOCKED: ATOM      7  O   UNL     1     140.577  75.867 222.204 -0.44 +0.05    -0.273 OA 
DOCKED: BRANCH   6   8
DOCKED: ATOM      8  C   UNL     1     139.556  74.015 221.311 -0.17 -0.04    +0.216 C  
DOCKED: BRANCH   8   9
DOCKED: ATOM      9  N   UNL     1     139.482  73.074 222.359 -0.14 +0.07    -0.342 N  
DOCKED: ATOM     10  C   UNL     1     140.409  72.027 222.621 -0.21 -0.03    +0.270 C  
DOCKED: ATOM     11  O   UNL     1     141.399  71.879 221.857 -0.19 +0.02    -0.268 OA 
DOCKED: ATOM     12  H   UNL     1     138.667  73.117 223.044 -0.47 -0.09    +0.164 HD 
DOCKED: BRANCH  10  13
DOCKED: ATOM     13  C   UNL     1     140.224  71.124 223.765 -0.33 -0.02    +0.128 A  
DOCKED: ATOM     14  C   UNL     1     139.521  69.951 223.593 -0.26 -0.01    +0.035 A  
DOCKED: ATOM     15  N   UNL     1     140.716  71.396 224.987 -0.33 +0.03    -0.243 NA 
DOCKED: ATOM     16  C   UNL     1     139.302  69.047 224.615 -0.36 -0.00    +0.013 A  
DOCKED: ATOM     17  C   UNL     1     140.522  70.532 226.024 -0.51 -0.01    +0.071 A  
DOCKED: ATOM     18  C   UNL     1     139.819  69.355 225.858 -0.48 -0.00    +0.000 A  
DOCKED: ATOM     19  C   UNL     1     141.017  70.790 227.285 -0.64 -0.00    +0.029 A  
DOCKED: ATOM     20  C   UNL     1     139.601  68.454 226.881 -0.59 -0.00    +0.010 A  
DOCKED: ATOM     21  C   UNL     1     140.814  69.902 228.338 -0.57 -0.00    +0.002 A  
DOCKED: ATOM     22  C   UNL     1     140.105  68.732 228.137 -0.64 -0.00    +0.001 A  
DOCKED: ENDBRANCH  10  13
DOCKED: ENDBRANCH   8   9
DOCKED: ENDBRANCH   6   8
DOCKED: ENDBRANCH   1   6
DOCKED: BRANCH   5  23
DOCKED: ATOM     23  C   UNL     1     142.524  77.161 219.746 -0.29 -0.05    +0.067 C  
DOCKED: BRANCH  23  24
DOCKED: ATOM     24  C   UNL     1     141.573  78.259 219.446 -0.17 -0.13    +0.231 C  
DOCKED: BRANCH  24  25
DOCKED: ATOM     25  O   UNL     1     140.873  78.770 220.550 -0.03 +0.20    -0.494 OA 
DOCKED: BRANCH  25  26
DOCKED: ATOM     26  C   UNL     1     141.354  79.171 221.744 -0.32 -0.05    +0.119 A  
DOCKED: ATOM     27  C   UNL     1     142.092  80.373 221.748 -0.44 -0.02    +0.046 A  
DOCKED: ATOM     28  C   UNL     1     141.225  78.565 222.963 -0.50 -0.02    +0.046 A  
DOCKED: ATOM     29  C   UNL     1     142.638  80.889 222.896 -0.57 -0.00    +0.004 A  
DOCKED: ATOM     30  C   UNL     1     141.780  79.088 224.136 -0.58 -0.00    +0.004 A  
DOCKED: ATOM     31  C   UNL     1     142.493  80.257 224.111 -0.56 -0.00    +0.000 A  
DOCKED: ENDBRANCH  25  26
DOCKED: ENDBRANCH  24  25
DOCKED: ENDBRANCH  23  24
DOCKED: ENDBRANCH   5  23
DOCKED: BRANCH   3  32
DOCKED: ATOM     32  O   UNL     1     145.107  73.754 219.494 -0.21 +0.06    -0.391 OA 
DOCKED: ATOM     33  H   UNL     1     145.854  74.237 219.042 -0.42 -0.08    +0.211 HD 
DOCKED: ENDBRANCH   3  32
DOCKED: TORSDOF 9
DOCKED: TER
DOCKED: ENDMDL
________________________________________________________________________________


    FINAL DOCKED STATE:
    ________________________


Run:   8 / 20
Time taken for this run:   0.070s

DOCKED: MODEL        8
DOCKED: USER    Run = 8
DOCKED: USER
DOCKED: USER    Estimated Free Energy of Binding    =  -9.13 kcal/mol  [=(1)+(2)+(3)-(4)]
DOCKED: USER
DOCKED: USER    (1) Final Intermolecular Energy     = -11.81 kcal/mol
DOCKED: USER        vdW + Hbond + desolv Energy     = -11.67 kcal/mol
DOCKED: USER        Electrostatic Energy            =  -0.14 kcal/mol
DOCKED: USER        Moving Ligand-Fixed Receptor    = -11.81 kcal/mol
DOCKED: USER        Moving Ligand-Moving Receptor   =  +0.00 kcal/mol
DOCKED: USER    (2) Final Total Internal Energy     =  -1.53 kcal/mol
DOCKED: USER    (3) Torsional Free Energy           =  +2.68 kcal/mol
DOCKED: USER    (4) Unbound System's Energy         =  -1.53 kcal/mol
DOCKED: USER
DOCKED: USER
DOCKED: REMARK SMILES O=C(NCC(=O)N1C[C@@H](O)C[C@@H]1CCOc1ccccc1)c1ccc2ccccc2n1
DOCKED: REMARK SMILES IDX 7 1 8 2 9 3 11 4 12 5 5 6 6 7 4 8 3 9 2 10 1 11 22 13 23 14
DOCKED: REMARK SMILES IDX 31 15 24 16 30 17 25 18 29 19 26 20 28 21 27 22 13 23 14 24
DOCKED: REMARK SMILES IDX 15 25 16 26 17 27 21 28 18 29 20 30 19 31 10 32
DOCKED: REMARK H PARENT 3 12 10 33
DOCKED: USER                              x       y       z     vdW  Elec       q    Type
DOCKED: USER                           _______ _______ _______ _____ _____    ______ ____
DOCKED: ROOT
DOCKED: ATOM      1  N   UNL     1     142.054  74.586 220.563 -0.13 +0.10    -0.335 N  
DOCKED: ATOM      2  C   UNL     1     143.285  73.874 220.814 -0.17 -0.04    +0.151 C  
DOCKED: ATOM      3  C   UNL     1     144.313  74.538 219.907 -0.32 -0.06    +0.136 C  
DOCKED: ATOM      4  C   UNL     1     143.479  74.873 218.715 -0.23 -0.02    +0.059 C  
DOCKED: ATOM      5  C   UNL     1     142.223  75.474 219.394 -0.21 -0.04    +0.091 C  
DOCKED: ENDROOT
DOCKED: BRANCH   1   6
DOCKED: ATOM      6  C   UNL     1     140.825  74.558 221.266 -0.21 -0.04    +0.242 C  
DOCKED: ATOM      7  O   UNL     1     140.547  75.599 222.012 -0.50 +0.05    -0.273 OA 
DOCKED: BRANCH   6   8
DOCKED: ATOM      8  C   UNL     1     139.780  73.546 221.331 -0.17 -0.04    +0.216 C  
DOCKED: BRANCH   8   9
DOCKED: ATOM      9  N   UNL     1     139.789  72.718 222.473 -0.16 +0.06    -0.342 N  
DOCKED: ATOM     10  C   UNL     1     139.835  71.297 222.486 -0.18 -0.04    +0.270 C  
DOCKED: ATOM     11  O   UNL     1     139.853  70.673 221.392 -0.09 +0.04    -0.268 OA 
DOCKED: ATOM     12  H   UNL     1     139.762  73.163 223.441 -0.37 -0.03    +0.164 HD 
DOCKED: BRANCH  10  13
DOCKED: ATOM     13  C   UNL     1     139.862  70.554 223.753 -0.27 -0.02    +0.128 A  
DOCKED: ATOM     14  C   UNL     1     139.261  69.315 223.823 -0.27 -0.01    +0.035 A  
DOCKED: ATOM     15  N   UNL     1     140.453  71.036 224.862 -0.31 +0.04    -0.243 NA 
DOCKED: ATOM     16  C   UNL     1     139.241  68.551 224.975 -0.41 -0.00    +0.013 A  
DOCKED: ATOM     17  C   UNL     1     140.456  70.315 226.019 -0.49 -0.01    +0.071 A  
DOCKED: ATOM     18  C   UNL     1     139.857  69.074 226.095 -0.51 -0.00    +0.000 A  
DOCKED: ATOM     19  C   UNL     1     141.056  70.790 227.167 -0.63 -0.00    +0.029 A  
DOCKED: ATOM     20  C   UNL     1     139.837  68.313 227.247 -0.63 -0.00    +0.010 A  
DOCKED: ATOM     21  C   UNL     1     141.054  70.047 228.345 -0.56 -0.00    +0.002 A  
DOCKED: ATOM     22  C   UNL     1     140.444  68.807 228.386 -0.65 -0.00    +0.001 A  
DOCKED: ENDBRANCH  10  13
DOCKED: ENDBRANCH   8   9
DOCKED: ENDBRANCH   6   8
DOCKED: ENDBRANCH   1   6
DOCKED: BRANCH   5  23
DOCKED: ATOM     23  C   UNL     1     142.577  76.894 219.726 -0.32 -0.04    +0.067 C  
DOCKED: BRANCH  23  24
DOCKED: ATOM     24  C   UNL     1     141.594  77.945 219.367 -0.17 -0.13    +0.231 C  
DOCKED: BRANCH  24  25
DOCKED: ATOM     25  O   UNL     1     140.885  78.502 220.443 -0.03 +0.21    -0.494 OA 
DOCKED: BRANCH  25  26
DOCKED: ATOM     26  C   UNL     1     141.357  78.956 221.621 -0.31 -0.05    +0.119 A  
DOCKED: ATOM     27  C   UNL     1     142.098  80.157 221.576 -0.42 -0.02    +0.046 A  
DOCKED: ATOM     28  C   UNL     1     141.219  78.406 222.865 -0.48 -0.02    +0.046 A  
DOCKED: ATOM     29  C   UNL     1     142.635  80.723 222.704 -0.57 -0.00    +0.004 A  
DOCKED: ATOM     30  C   UNL     1     141.765  78.982 224.017 -0.60 -0.00    +0.004 A  
DOCKED: ATOM     31  C   UNL     1     142.480  80.148 223.945 -0.62 -0.00    +0.000 A  
DOCKED: ENDBRANCH  25  26
DOCKED: ENDBRANCH  24  25
DOCKED: ENDBRANCH  23  24
DOCKED: ENDBRANCH   5  23
DOCKED: BRANCH   3  32
DOCKED: ATOM     32  O   UNL     1     145.328  73.614 219.582 -0.25 +0.02    -0.391 OA 
DOCKED: ATOM     33  H   UNL     1     146.115  74.142 219.272 -0.44 -0.04    +0.211 HD 
DOCKED: ENDBRANCH   3  32
DOCKED: TORSDOF 9
DOCKED: TER
DOCKED: ENDMDL
________________________________________________________________________________


    FINAL DOCKED STATE:
    ________________________


Run:   9 / 20
Time taken for this run:   0.070s

DOCKED: MODEL        9
DOCKED: USER    Run = 9
DOCKED: USER
DOCKED: USER    Estimated Free Energy of Binding    =  -8.32 kcal/mol  [=(1)+(2)+(3)-(4)]
DOCKED: USER
DOCKED: USER    (1) Final Intermolecular Energy     = -11.01 kcal/mol
DOCKED: USER        vdW + Hbond + desolv Energy     = -10.89 kcal/mol
DOCKED: USER        Electrostatic Energy            =  -0.12 kcal/mol
DOCKED: USER        Moving Ligand-Fixed Receptor    = -11.01 kcal/mol
DOCKED: USER        Moving Ligand-Moving Receptor   =  +0.00 kcal/mol
DOCKED: USER    (2) Final Total Internal Energy     =  -1.67 kcal/mol
DOCKED: USER    (3) Torsional Free Energy           =  +2.68 kcal/mol
DOCKED: USER    (4) Unbound System's Energy         =  -1.67 kcal/mol
DOCKED: USER
DOCKED: USER
DOCKED: REMARK SMILES O=C(NCC(=O)N1C[C@@H](O)C[C@@H]1CCOc1ccccc1)c1ccc2ccccc2n1
DOCKED: REMARK SMILES IDX 7 1 8 2 9 3 11 4 12 5 5 6 6 7 4 8 3 9 2 10 1 11 22 13 23 14
DOCKED: REMARK SMILES IDX 31 15 24 16 30 17 25 18 29 19 26 20 28 21 27 22 13 23 14 24
DOCKED: REMARK SMILES IDX 15 25 16 26 17 27 21 28 18 29 20 30 19 31 10 32
DOCKED: REMARK H PARENT 3 12 10 33
DOCKED: USER                              x       y       z     vdW  Elec       q    Type
DOCKED: USER                           _______ _______ _______ _____ _____    ______ ____
DOCKED: ROOT
DOCKED: ATOM      1  N   UNL     1     139.241  75.962 221.418 -0.11 +0.08    -0.335 N  
DOCKED: ATOM      2  C   UNL     1     140.675  76.027 221.254 -0.26 -0.05    +0.151 C  
DOCKED: ATOM      3  C   UNL     1     141.015  77.506 221.379 -0.28 -0.06    +0.136 C  
DOCKED: ATOM      4  C   UNL     1     139.821  78.136 220.741 -0.15 -0.02    +0.059 C  
DOCKED: ATOM      5  C   UNL     1     138.675  77.326 221.396 -0.16 -0.02    +0.091 C  
DOCKED: ENDROOT
DOCKED: BRANCH   1   6
DOCKED: ATOM      6  C   UNL     1     138.397  74.841 221.613 -0.15 -0.06    +0.242 C  
DOCKED: ATOM      7  O   UNL     1     137.213  75.075 222.126 -0.13 +0.08    -0.273 OA 
DOCKED: BRANCH   6   8
DOCKED: ATOM      8  C   UNL     1     138.609  73.424 221.355 -0.12 -0.05    +0.216 C  
DOCKED: BRANCH   8   9
DOCKED: ATOM      9  N   UNL     1     138.814  72.611 222.490 -0.07 +0.10    -0.342 N  
DOCKED: ATOM     10  C   UNL     1     139.524  71.380 222.531 -0.18 -0.05    +0.270 C  
DOCKED: ATOM     11  O   UNL     1     140.022  70.923 221.468 -0.10 +0.04    -0.268 OA 
DOCKED: ATOM     12  H   UNL     1     138.413  72.916 223.430 -0.43 -0.12    +0.164 HD 
DOCKED: BRANCH  10  13
DOCKED: ATOM     13  C   UNL     1     139.682  70.641 223.791 -0.29 -0.02    +0.128 A  
DOCKED: ATOM     14  C   UNL     1     139.241  69.337 223.869 -0.27 -0.01    +0.035 A  
DOCKED: ATOM     15  N   UNL     1     140.245  71.188 224.884 -0.31 +0.04    -0.243 NA 
DOCKED: ATOM     16  C   UNL     1     139.351  68.572 225.015 -0.41 -0.00    +0.013 A  
DOCKED: ATOM     17  C   UNL     1     140.373  70.468 226.035 -0.50 -0.01    +0.071 A  
DOCKED: ATOM     18  C   UNL     1     139.934  69.162 226.120 -0.51 -0.00    +0.000 A  
DOCKED: ATOM     19  C   UNL     1     140.946  71.009 227.167 -0.67 -0.00    +0.029 A  
DOCKED: ATOM     20  C   UNL     1     140.044  68.400 227.266 -0.64 -0.00    +0.010 A  
DOCKED: ATOM     21  C   UNL     1     141.073  70.266 228.339 -0.56 -0.00    +0.002 A  
DOCKED: ATOM     22  C   UNL     1     140.622  68.961 228.389 -0.64 -0.00    +0.001 A  
DOCKED: ENDBRANCH  10  13
DOCKED: ENDBRANCH   8   9
DOCKED: ENDBRANCH   6   8
DOCKED: ENDBRANCH   1   6
DOCKED: BRANCH   5  23
DOCKED: ATOM     23  C   UNL     1     138.458  77.941 222.747 -0.25 -0.01    +0.067 C  
DOCKED: BRANCH  23  24
DOCKED: ATOM     24  C   UNL     1     137.983  79.345 222.790 -0.17 -0.03    +0.231 C  
DOCKED: BRANCH  24  25
DOCKED: ATOM     25  O   UNL     1     138.896  80.276 223.311 -0.11 +0.07    -0.494 OA 
DOCKED: BRANCH  25  26
DOCKED: ATOM     26  C   UNL     1     140.241  80.282 223.218 -0.36 -0.02    +0.119 A  
DOCKED: ATOM     27  C   UNL     1     140.796  81.154 222.258 -0.36 -0.01    +0.046 A  
DOCKED: ATOM     28  C   UNL     1     141.149  79.550 223.932 -0.48 -0.01    +0.046 A  
DOCKED: ATOM     29  C   UNL     1     142.151  81.254 222.063 -0.45 -0.00    +0.004 A  
DOCKED: ATOM     30  C   UNL     1     142.530  79.650 223.735 -0.55 -0.00    +0.004 A  
DOCKED: ATOM     31  C   UNL     1     143.043  80.505 222.796 -0.61 -0.00    +0.000 A  
DOCKED: ENDBRANCH  25  26
DOCKED: ENDBRANCH  24  25
DOCKED: ENDBRANCH  23  24
DOCKED: ENDBRANCH   5  23
DOCKED: BRANCH   3  32
DOCKED: ATOM     32  O   UNL     1     142.193  77.786 220.656 -0.16 +0.29    -0.391 OA 
DOCKED: ATOM     33  H   UNL     1     142.929  77.881 221.323 -0.45 -0.25    +0.211 HD 
DOCKED: ENDBRANCH   3  32
DOCKED: TORSDOF 9
DOCKED: TER
DOCKED: ENDMDL
________________________________________________________________________________


    FINAL DOCKED STATE:
    ________________________


Run:   10 / 20
Time taken for this run:   0.070s

DOCKED: MODEL        10
DOCKED: USER    Run = 10
DOCKED: USER
DOCKED: USER    Estimated Free Energy of Binding    =  -6.85 kcal/mol  [=(1)+(2)+(3)-(4)]
DOCKED: USER
DOCKED: USER    (1) Final Intermolecular Energy     =  -9.54 kcal/mol
DOCKED: USER        vdW + Hbond + desolv Energy     =  -9.26 kcal/mol
DOCKED: USER        Electrostatic Energy            =  -0.28 kcal/mol
DOCKED: USER        Moving Ligand-Fixed Receptor    =  -9.54 kcal/mol
DOCKED: USER        Moving Ligand-Moving Receptor   =  +0.00 kcal/mol
DOCKED: USER    (2) Final Total Internal Energy     =  -3.19 kcal/mol
DOCKED: USER    (3) Torsional Free Energy           =  +2.68 kcal/mol
DOCKED: USER    (4) Unbound System's Energy         =  -3.19 kcal/mol
DOCKED: USER
DOCKED: USER
DOCKED: REMARK SMILES O=C(NCC(=O)N1C[C@@H](O)C[C@@H]1CCOc1ccccc1)c1ccc2ccccc2n1
DOCKED: REMARK SMILES IDX 7 1 8 2 9 3 11 4 12 5 5 6 6 7 4 8 3 9 2 10 1 11 22 13 23 14
DOCKED: REMARK SMILES IDX 31 15 24 16 30 17 25 18 29 19 26 20 28 21 27 22 13 23 14 24
DOCKED: REMARK SMILES IDX 15 25 16 26 17 27 21 28 18 29 20 30 19 31 10 32
DOCKED: REMARK H PARENT 3 12 10 33
DOCKED: USER                              x       y       z     vdW  Elec       q    Type
DOCKED: USER                           _______ _______ _______ _____ _____    ______ ____
DOCKED: ROOT
DOCKED: ATOM      1  N   UNL     1     142.867  73.242 220.100 -0.09 +0.07    -0.335 N  
DOCKED: ATOM      2  C   UNL     1     143.993  72.512 220.636 -0.27 -0.02    +0.151 C  
DOCKED: ATOM      3  C   UNL     1     145.218  73.295 220.181 -0.45 -0.01    +0.136 C  
DOCKED: ATOM      4  C   UNL     1     144.777  73.774 218.838 -0.18 -0.01    +0.059 C  
DOCKED: ATOM      5  C   UNL     1     143.347  74.274 219.158 -0.23 -0.03    +0.091 C  
DOCKED: ENDROOT
DOCKED: BRANCH   1   6
DOCKED: ATOM      6  C   UNL     1     141.484  73.114 220.376 -0.12 -0.04    +0.242 C  
DOCKED: ATOM      7  O   UNL     1     140.758  72.488 219.483 -0.03 +0.05    -0.273 OA 
DOCKED: BRANCH   6   8
DOCKED: ATOM      8  C   UNL     1     140.684  73.578 221.501 -0.21 -0.02    +0.216 C  
DOCKED: BRANCH   8   9
DOCKED: ATOM      9  N   UNL     1     140.857  74.929 221.869 -0.16 +0.04    -0.342 N  
DOCKED: ATOM     10  C   UNL     1     139.826  75.871 222.136 -0.21 -0.05    +0.270 C  
DOCKED: ATOM     11  O   UNL     1     138.623  75.512 222.029 -0.22 +0.06    -0.268 OA 
DOCKED: ATOM     12  H   UNL     1     141.843  75.321 221.969 -0.25 -0.06    +0.164 HD 
DOCKED: BRANCH  10  13
DOCKED: ATOM     13  C   UNL     1     140.146  77.248 222.533 -0.29 -0.03    +0.128 A  
DOCKED: ATOM     14  C   UNL     1     139.121  78.121 222.831 -0.28 -0.01    +0.035 A  
DOCKED: ATOM     15  N   UNL     1     141.410  77.701 222.620 -0.24 +0.11    -0.243 NA 
DOCKED: ATOM     16  C   UNL     1     139.334  79.432 223.213 -0.37 -0.00    +0.013 A  
DOCKED: ATOM     17  C   UNL     1     141.665  78.988 222.993 -0.51 -0.03    +0.071 A  
DOCKED: ATOM     18  C   UNL     1     140.643  79.866 223.292 -0.48 -0.00    +0.000 A  
DOCKED: ATOM     19  C   UNL     1     142.953  79.472 223.088 -0.52 -0.01    +0.029 A  
DOCKED: ATOM     20  C   UNL     1     140.859  81.175 223.672 -0.40 -0.00    +0.010 A  
DOCKED: ATOM     21  C   UNL     1     143.205  80.788 223.469 -0.57 -0.00    +0.002 A  
DOCKED: ATOM     22  C   UNL     1     142.157  81.641 223.762 -0.56 -0.00    +0.001 A  
DOCKED: ENDBRANCH  10  13
DOCKED: ENDBRANCH   8   9
DOCKED: ENDBRANCH   6   8
DOCKED: ENDBRANCH   1   6
DOCKED: BRANCH   5  23
DOCKED: ATOM     23  C   UNL     1     143.514  75.642 219.752 -0.36 -0.04    +0.067 C  
DOCKED: BRANCH  23  24
DOCKED: ATOM     24  C   UNL     1     143.020  76.795 218.960 -0.25 -0.15    +0.231 C  
DOCKED: BRANCH  24  25
DOCKED: ATOM     25  O   UNL     1     141.699  77.189 219.226 -0.05 +0.25    -0.494 OA 
DOCKED: BRANCH  25  26
DOCKED: ATOM     26  C   UNL     1     141.213  78.429 219.430 -0.17 -0.06    +0.119 A  
DOCKED: ATOM     27  C   UNL     1     142.161  79.473 219.471 -0.21 -0.03    +0.046 A  
DOCKED: ATOM     28  C   UNL     1     139.914  78.818 219.607 -0.09 -0.02    +0.046 A  
DOCKED: ATOM     29  C   UNL     1     141.796  80.780 219.674 -0.30 -0.00    +0.004 A  
DOCKED: ATOM     30  C   UNL     1     139.539  80.150 219.814 -0.09 -0.00    +0.004 A  
DOCKED: ATOM     31  C   UNL     1     140.480  81.144 219.850 -0.18 -0.00    +0.000 A  
DOCKED: ENDBRANCH  25  26
DOCKED: ENDBRANCH  24  25
DOCKED: ENDBRANCH  23  24
DOCKED: ENDBRANCH   5  23
DOCKED: BRANCH   3  32
DOCKED: ATOM     32  O   UNL     1     146.326  72.429 220.082 -0.49 -0.21    -0.391 OA 
DOCKED: ATOM     33  H   UNL     1     146.318  71.849 220.893 -0.44 -0.03    +0.211 HD 
DOCKED: ENDBRANCH   3  32
DOCKED: TORSDOF 9
DOCKED: TER
DOCKED: ENDMDL
________________________________________________________________________________


    FINAL DOCKED STATE:
    ________________________


Run:   11 / 20
Time taken for this run:   0.070s

DOCKED: MODEL        11
DOCKED: USER    Run = 11
DOCKED: USER
DOCKED: USER    Estimated Free Energy of Binding    =  -8.60 kcal/mol  [=(1)+(2)+(3)-(4)]
DOCKED: USER
DOCKED: USER    (1) Final Intermolecular Energy     = -11.29 kcal/mol
DOCKED: USER        vdW + Hbond + desolv Energy     = -11.20 kcal/mol
DOCKED: USER        Electrostatic Energy            =  -0.09 kcal/mol
DOCKED: USER        Moving Ligand-Fixed Receptor    = -11.29 kcal/mol
DOCKED: USER        Moving Ligand-Moving Receptor   =  +0.00 kcal/mol
DOCKED: USER    (2) Final Total Internal Energy     =  -2.21 kcal/mol
DOCKED: USER    (3) Torsional Free Energy           =  +2.68 kcal/mol
DOCKED: USER    (4) Unbound System's Energy         =  -2.21 kcal/mol
DOCKED: USER
DOCKED: USER
DOCKED: REMARK SMILES O=C(NCC(=O)N1C[C@@H](O)C[C@@H]1CCOc1ccccc1)c1ccc2ccccc2n1
DOCKED: REMARK SMILES IDX 7 1 8 2 9 3 11 4 12 5 5 6 6 7 4 8 3 9 2 10 1 11 22 13 23 14
DOCKED: REMARK SMILES IDX 31 15 24 16 30 17 25 18 29 19 26 20 28 21 27 22 13 23 14 24
DOCKED: REMARK SMILES IDX 15 25 16 26 17 27 21 28 18 29 20 30 19 31 10 32
DOCKED: REMARK H PARENT 3 12 10 33
DOCKED: USER                              x       y       z     vdW  Elec       q    Type
DOCKED: USER                           _______ _______ _______ _____ _____    ______ ____
DOCKED: ROOT
DOCKED: ATOM      1  N   UNL     1     140.532  76.347 220.557 -0.07 +0.11    -0.335 N  
DOCKED: ATOM      2  C   UNL     1     141.888  76.686 220.194 -0.22 -0.08    +0.151 C  
DOCKED: ATOM      3  C   UNL     1     141.769  77.994 219.422 -0.22 -0.08    +0.136 C  
DOCKED: ATOM      4  C   UNL     1     140.474  77.796 218.707 -0.09 -0.02    +0.059 C  
DOCKED: ATOM      5  C   UNL     1     139.590  77.238 219.850 -0.07 -0.03    +0.091 C  
DOCKED: ENDROOT
DOCKED: BRANCH   1   6
DOCKED: ATOM      6  C   UNL     1     140.048  75.367 221.458 -0.22 -0.05    +0.242 C  
DOCKED: ATOM      7  O   UNL     1     139.912  75.730 222.710 -0.42 +0.03    -0.273 OA 
DOCKED: BRANCH   6   8
DOCKED: ATOM      8  C   UNL     1     139.673  73.975 221.250 -0.17 -0.04    +0.216 C  
DOCKED: BRANCH   8   9
DOCKED: ATOM      9  N   UNL     1     139.700  73.148 222.392 -0.14 +0.06    -0.342 N  
DOCKED: ATOM     10  C   UNL     1     139.865  71.736 222.410 -0.20 -0.04    +0.270 C  
DOCKED: ATOM     11  O   UNL     1     139.985  71.118 221.319 -0.09 +0.04    -0.268 OA 
DOCKED: ATOM     12  H   UNL     1     139.590  73.587 223.358 -0.46 -0.04    +0.164 HD 
DOCKED: BRANCH  10  13
DOCKED: ATOM     13  C   UNL     1     139.897  70.995 223.678 -0.31 -0.02    +0.128 A  
DOCKED: ATOM     14  C   UNL     1     139.417  69.703 223.718 -0.26 -0.01    +0.035 A  
DOCKED: ATOM     15  N   UNL     1     140.377  71.529 224.816 -0.31 +0.04    -0.243 NA 
DOCKED: ATOM     16  C   UNL     1     139.411  68.937 224.868 -0.38 -0.00    +0.013 A  
DOCKED: ATOM     17  C   UNL     1     140.389  70.808 225.973 -0.53 -0.01    +0.071 A  
DOCKED: ATOM     18  C   UNL     1     139.911  69.514 226.019 -0.49 -0.00    +0.000 A  
DOCKED: ATOM     19  C   UNL     1     140.877  71.336 227.150 -0.71 -0.01    +0.029 A  
DOCKED: ATOM     20  C   UNL     1     139.905  68.751 227.169 -0.61 -0.00    +0.010 A  
DOCKED: ATOM     21  C   UNL     1     140.885  70.592 228.328 -0.59 -0.00    +0.002 A  
DOCKED: ATOM     22  C   UNL     1     140.398  69.298 228.338 -0.64 -0.00    +0.001 A  
DOCKED: ENDBRANCH  10  13
DOCKED: ENDBRANCH   8   9
DOCKED: ENDBRANCH   6   8
DOCKED: ENDBRANCH   1   6
DOCKED: BRANCH   5  23
DOCKED: ATOM     23  C   UNL     1     139.138  78.432 220.639 -0.10 -0.02    +0.067 C  
DOCKED: BRANCH  23  24
DOCKED: ATOM     24  C   UNL     1     138.391  78.179 221.895 -0.13 -0.04    +0.231 C  
DOCKED: BRANCH  24  25
DOCKED: ATOM     25  O   UNL     1     138.993  78.668 223.065 -0.10 +0.08    -0.494 OA 
DOCKED: BRANCH  25  26
DOCKED: ATOM     26  C   UNL     1     140.151  79.345 223.199 -0.36 -0.02    +0.119 A  
DOCKED: ATOM     27  C   UNL     1     141.336  78.595 223.036 -0.51 -0.02    +0.046 A  
DOCKED: ATOM     28  C   UNL     1     140.338  80.670 223.479 -0.42 -0.01    +0.046 A  
DOCKED: ATOM     29  C   UNL     1     142.579  79.164 223.150 -0.53 -0.00    +0.004 A  
DOCKED: ATOM     30  C   UNL     1     141.604  81.253 223.595 -0.56 -0.00    +0.004 A  
DOCKED: ATOM     31  C   UNL     1     142.738  80.502 223.432 -0.68 -0.00    +0.000 A  
DOCKED: ENDBRANCH  25  26
DOCKED: ENDBRANCH  24  25
DOCKED: ENDBRANCH  23  24
DOCKED: ENDBRANCH   5  23
DOCKED: BRANCH   3  32
DOCKED: ATOM     32  O   UNL     1     142.844  78.111 218.517 -0.20 +0.32    -0.391 OA 
DOCKED: ATOM     33  H   UNL     1     143.683  77.981 219.040 -0.39 -0.22    +0.211 HD 
DOCKED: ENDBRANCH   3  32
DOCKED: TORSDOF 9
DOCKED: TER
DOCKED: ENDMDL
________________________________________________________________________________


    FINAL DOCKED STATE:
    ________________________


Run:   12 / 20
Time taken for this run:   0.070s

DOCKED: MODEL        12
DOCKED: USER    Run = 12
DOCKED: USER
DOCKED: USER    Estimated Free Energy of Binding    =  -8.38 kcal/mol  [=(1)+(2)+(3)-(4)]
DOCKED: USER
DOCKED: USER    (1) Final Intermolecular Energy     = -11.07 kcal/mol
DOCKED: USER        vdW + Hbond + desolv Energy     = -11.01 kcal/mol
DOCKED: USER        Electrostatic Energy            =  -0.06 kcal/mol
DOCKED: USER        Moving Ligand-Fixed Receptor    = -11.07 kcal/mol
DOCKED: USER        Moving Ligand-Moving Receptor   =  +0.00 kcal/mol
DOCKED: USER    (2) Final Total Internal Energy     =  -1.98 kcal/mol
DOCKED: USER    (3) Torsional Free Energy           =  +2.68 kcal/mol
DOCKED: USER    (4) Unbound System's Energy         =  -1.98 kcal/mol
DOCKED: USER
DOCKED: USER
DOCKED: REMARK SMILES O=C(NCC(=O)N1C[C@@H](O)C[C@@H]1CCOc1ccccc1)c1ccc2ccccc2n1
DOCKED: REMARK SMILES IDX 7 1 8 2 9 3 11 4 12 5 5 6 6 7 4 8 3 9 2 10 1 11 22 13 23 14
DOCKED: REMARK SMILES IDX 31 15 24 16 30 17 25 18 29 19 26 20 28 21 27 22 13 23 14 24
DOCKED: REMARK SMILES IDX 15 25 16 26 17 27 21 28 18 29 20 30 19 31 10 32
DOCKED: REMARK H PARENT 3 12 10 33
DOCKED: USER                              x       y       z     vdW  Elec       q    Type
DOCKED: USER                           _______ _______ _______ _____ _____    ______ ____
DOCKED: ROOT
DOCKED: ATOM      1  N   UNL     1     140.527  76.301 220.659 -0.08 +0.11    -0.335 N  
DOCKED: ATOM      2  C   UNL     1     141.884  76.465 220.194 -0.22 -0.08    +0.151 C  
DOCKED: ATOM      3  C   UNL     1     141.920  77.857 219.578 -0.23 -0.08    +0.136 C  
DOCKED: ATOM      4  C   UNL     1     140.553  77.951 218.986 -0.10 -0.02    +0.059 C  
DOCKED: ATOM      5  C   UNL     1     139.690  77.407 220.150 -0.09 -0.03    +0.091 C  
DOCKED: ENDROOT
DOCKED: BRANCH   1   6
DOCKED: ATOM      6  C   UNL     1     139.965  75.309 221.500 -0.22 -0.05    +0.242 C  
DOCKED: ATOM      7  O   UNL     1     139.611  75.685 222.704 -0.47 +0.04    -0.273 OA 
DOCKED: BRANCH   6   8
DOCKED: ATOM      8  C   UNL     1     139.712  73.892 221.273 -0.17 -0.04    +0.216 C  
DOCKED: BRANCH   8   9
DOCKED: ATOM      9  N   UNL     1     139.738  73.068 222.418 -0.14 +0.06    -0.342 N  
DOCKED: ATOM     10  C   UNL     1     139.955  71.662 222.442 -0.20 -0.04    +0.270 C  
DOCKED: ATOM     11  O   UNL     1     140.128  71.049 221.355 -0.10 +0.04    -0.268 OA 
DOCKED: ATOM     12  H   UNL     1     139.586  73.503 223.379 -0.45 -0.04    +0.164 HD 
DOCKED: BRANCH  10  13
DOCKED: ATOM     13  C   UNL     1     139.980  70.924 223.711 -0.31 -0.02    +0.128 A  
DOCKED: ATOM     14  C   UNL     1     139.449  69.652 223.764 -0.26 -0.01    +0.035 A  
DOCKED: ATOM     15  N   UNL     1     140.503  71.440 224.838 -0.32 +0.04    -0.243 NA 
DOCKED: ATOM     16  C   UNL     1     139.433  68.890 224.916 -0.39 -0.00    +0.013 A  
DOCKED: ATOM     17  C   UNL     1     140.506  70.722 225.997 -0.53 -0.01    +0.071 A  
DOCKED: ATOM     18  C   UNL     1     139.977  69.449 226.056 -0.49 -0.00    +0.000 A  
DOCKED: ATOM     19  C   UNL     1     141.037  71.232 227.164 -0.70 -0.00    +0.029 A  
DOCKED: ATOM     20  C   UNL     1     139.961  68.689 227.209 -0.62 -0.00    +0.010 A  
DOCKED: ATOM     21  C   UNL     1     141.036  70.492 228.343 -0.57 -0.00    +0.002 A  
DOCKED: ATOM     22  C   UNL     1     140.497  69.219 228.367 -0.63 -0.00    +0.001 A  
DOCKED: ENDBRANCH  10  13
DOCKED: ENDBRANCH   8   9
DOCKED: ENDBRANCH   6   8
DOCKED: ENDBRANCH   1   6
DOCKED: BRANCH   5  23
DOCKED: ATOM     23  C   UNL     1     139.513  78.554 221.101 -0.15 -0.02    +0.067 C  
DOCKED: BRANCH  23  24
DOCKED: ATOM     24  C   UNL     1     139.479  79.920 220.525 -0.06 -0.06    +0.231 C  
DOCKED: BRANCH  24  25
DOCKED: ATOM     25  O   UNL     1     140.616  80.706 220.766 -0.03 +0.14    -0.494 OA 
DOCKED: BRANCH  25  26
DOCKED: ATOM     26  C   UNL     1     141.336  80.825 221.900 -0.35 -0.03    +0.119 A  
DOCKED: ATOM     27  C   UNL     1     142.519  80.060 221.972 -0.45 -0.02    +0.046 A  
DOCKED: ATOM     28  C   UNL     1     141.071  81.590 223.002 -0.39 -0.01    +0.046 A  
DOCKED: ATOM     29  C   UNL     1     143.339  80.089 223.072 -0.61 -0.00    +0.004 A  
DOCKED: ATOM     30  C   UNL     1     141.906  81.622 224.125 -0.48 -0.00    +0.004 A  
DOCKED: ATOM     31  C   UNL     1     143.049  80.869 224.168 -0.60 -0.00    +0.000 A  
DOCKED: ENDBRANCH  25  26
DOCKED: ENDBRANCH  24  25
DOCKED: ENDBRANCH  23  24
DOCKED: ENDBRANCH   5  23
DOCKED: BRANCH   3  32
DOCKED: ATOM     32  O   UNL     1     142.917  77.912 218.583 -0.21 +0.31    -0.391 OA 
DOCKED: ATOM     33  H   UNL     1     143.797  77.928 219.051 -0.39 -0.22    +0.211 HD 
DOCKED: ENDBRANCH   3  32
DOCKED: TORSDOF 9
DOCKED: TER
DOCKED: ENDMDL
________________________________________________________________________________


    FINAL DOCKED STATE:
    ________________________


Run:   13 / 20
Time taken for this run:   0.070s

DOCKED: MODEL        13
DOCKED: USER    Run = 13
DOCKED: USER
DOCKED: USER    Estimated Free Energy of Binding    =  -6.50 kcal/mol  [=(1)+(2)+(3)-(4)]
DOCKED: USER
DOCKED: USER    (1) Final Intermolecular Energy     =  -9.19 kcal/mol
DOCKED: USER        vdW + Hbond + desolv Energy     =  -8.93 kcal/mol
DOCKED: USER        Electrostatic Energy            =  -0.26 kcal/mol
DOCKED: USER        Moving Ligand-Fixed Receptor    =  -9.19 kcal/mol
DOCKED: USER        Moving Ligand-Moving Receptor   =  +0.00 kcal/mol
DOCKED: USER    (2) Final Total Internal Energy     =  -3.59 kcal/mol
DOCKED: USER    (3) Torsional Free Energy           =  +2.68 kcal/mol
DOCKED: USER    (4) Unbound System's Energy         =  -3.59 kcal/mol
DOCKED: USER
DOCKED: USER
DOCKED: REMARK SMILES O=C(NCC(=O)N1C[C@@H](O)C[C@@H]1CCOc1ccccc1)c1ccc2ccccc2n1
DOCKED: REMARK SMILES IDX 7 1 8 2 9 3 11 4 12 5 5 6 6 7 4 8 3 9 2 10 1 11 22 13 23 14
DOCKED: REMARK SMILES IDX 31 15 24 16 30 17 25 18 29 19 26 20 28 21 27 22 13 23 14 24
DOCKED: REMARK SMILES IDX 15 25 16 26 17 27 21 28 18 29 20 30 19 31 10 32
DOCKED: REMARK H PARENT 3 12 10 33
DOCKED: USER                              x       y       z     vdW  Elec       q    Type
DOCKED: USER                           _______ _______ _______ _____ _____    ______ ____
DOCKED: ROOT
DOCKED: ATOM      1  N   UNL     1     142.893  73.302 219.921 -0.08 +0.07    -0.335 N  
DOCKED: ATOM      2  C   UNL     1     143.931  72.482 220.500 -0.27 -0.02    +0.151 C  
DOCKED: ATOM      3  C   UNL     1     145.232  73.184 220.134 -0.44 -0.01    +0.136 C  
DOCKED: ATOM      4  C   UNL     1     144.905  73.721 218.780 -0.15 -0.01    +0.059 C  
DOCKED: ATOM      5  C   UNL     1     143.497  74.316 219.033 -0.22 -0.03    +0.091 C  
DOCKED: ENDROOT
DOCKED: BRANCH   1   6
DOCKED: ATOM      6  C   UNL     1     141.490  73.269 220.117 -0.10 -0.05    +0.242 C  
DOCKED: ATOM      7  O   UNL     1     140.768  72.782 219.138 -0.02 +0.05    -0.273 OA 
DOCKED: BRANCH   6   8
DOCKED: ATOM      8  C   UNL     1     140.668  73.705 221.237 -0.20 -0.03    +0.216 C  
DOCKED: BRANCH   8   9
DOCKED: ATOM      9  N   UNL     1     140.828  75.048 221.638 -0.18 +0.06    -0.342 N  
DOCKED: ATOM     10  C   UNL     1     139.867  75.847 222.317 -0.17 -0.05    +0.270 C  
DOCKED: ATOM     11  O   UNL     1     138.742  75.352 222.594 -0.29 +0.07    -0.268 OA 
DOCKED: ATOM     12  H   UNL     1     141.745  75.550 221.430 -0.15 -0.07    +0.164 HD 
DOCKED: BRANCH  10  13
DOCKED: ATOM     13  C   UNL     1     140.172  77.232 222.698 -0.26 -0.03    +0.128 A  
DOCKED: ATOM     14  C   UNL     1     139.137  78.091 223.005 -0.24 -0.01    +0.035 A  
DOCKED: ATOM     15  N   UNL     1     141.429  77.706 222.760 -0.25 +0.11    -0.243 NA 
DOCKED: ATOM     16  C   UNL     1     139.336  79.408 223.372 -0.39 -0.00    +0.013 A  
DOCKED: ATOM     17  C   UNL     1     141.670  79.000 223.117 -0.52 -0.03    +0.071 A  
DOCKED: ATOM     18  C   UNL     1     140.639  79.864 223.427 -0.49 -0.00    +0.000 A  
DOCKED: ATOM     19  C   UNL     1     142.951  79.506 223.187 -0.48 -0.01    +0.029 A  
DOCKED: ATOM     20  C   UNL     1     140.840  81.180 223.792 -0.36 -0.00    +0.010 A  
DOCKED: ATOM     21  C   UNL     1     143.187  80.829 223.553 -0.57 -0.00    +0.002 A  
DOCKED: ATOM     22  C   UNL     1     142.131  81.667 223.856 -0.55 -0.00    +0.001 A  
DOCKED: ENDBRANCH  10  13
DOCKED: ENDBRANCH   8   9
DOCKED: ENDBRANCH   6   8
DOCKED: ENDBRANCH   1   6
DOCKED: BRANCH   5  23
DOCKED: ATOM     23  C   UNL     1     143.726  75.656 219.668 -0.35 -0.04    +0.067 C  
DOCKED: BRANCH  23  24
DOCKED: ATOM     24  C   UNL     1     142.959  76.806 219.132 -0.25 -0.15    +0.231 C  
DOCKED: BRANCH  24  25
DOCKED: ATOM     25  O   UNL     1     141.814  77.161 219.862 -0.08 +0.27    -0.494 OA 
DOCKED: BRANCH  25  26
DOCKED: ATOM     26  C   UNL     1     141.099  78.303 219.810 -0.17 -0.06    +0.119 A  
DOCKED: ATOM     27  C   UNL     1     141.834  79.505 219.902 -0.27 -0.03    +0.046 A  
DOCKED: ATOM     28  C   UNL     1     139.747  78.459 219.683 -0.09 -0.01    +0.046 A  
DOCKED: ATOM     29  C   UNL     1     141.226  80.734 219.865 -0.26 -0.00    +0.004 A  
DOCKED: ATOM     30  C   UNL     1     139.124  79.711 219.644 -0.06 -0.00    +0.004 A  
DOCKED: ATOM     31  C   UNL     1     139.862  80.861 219.736 -0.11 -0.00    +0.000 A  
DOCKED: ENDBRANCH  25  26
DOCKED: ENDBRANCH  24  25
DOCKED: ENDBRANCH  23  24
DOCKED: ENDBRANCH   5  23
DOCKED: BRANCH   3  32
DOCKED: ATOM     32  O   UNL     1     146.280  72.242 220.074 -0.46 -0.22    -0.391 OA 
DOCKED: ATOM     33  H   UNL     1     146.272  71.741 220.936 -0.42 -0.05    +0.211 HD 
DOCKED: ENDBRANCH   3  32
DOCKED: TORSDOF 9
DOCKED: TER
DOCKED: ENDMDL
________________________________________________________________________________


    FINAL DOCKED STATE:
    ________________________


Run:   14 / 20
Time taken for this run:   0.070s

DOCKED: MODEL        14
DOCKED: USER    Run = 14
DOCKED: USER
DOCKED: USER    Estimated Free Energy of Binding    =  -6.85 kcal/mol  [=(1)+(2)+(3)-(4)]
DOCKED: USER
DOCKED: USER    (1) Final Intermolecular Energy     =  -9.54 kcal/mol
DOCKED: USER        vdW + Hbond + desolv Energy     =  -9.22 kcal/mol
DOCKED: USER        Electrostatic Energy            =  -0.31 kcal/mol
DOCKED: USER        Moving Ligand-Fixed Receptor    =  -9.54 kcal/mol
DOCKED: USER        Moving Ligand-Moving Receptor   =  +0.00 kcal/mol
DOCKED: USER    (2) Final Total Internal Energy     =  -3.68 kcal/mol
DOCKED: USER    (3) Torsional Free Energy           =  +2.68 kcal/mol
DOCKED: USER    (4) Unbound System's Energy         =  -3.68 kcal/mol
DOCKED: USER
DOCKED: USER
DOCKED: REMARK SMILES O=C(NCC(=O)N1C[C@@H](O)C[C@@H]1CCOc1ccccc1)c1ccc2ccccc2n1
DOCKED: REMARK SMILES IDX 7 1 8 2 9 3 11 4 12 5 5 6 6 7 4 8 3 9 2 10 1 11 22 13 23 14
DOCKED: REMARK SMILES IDX 31 15 24 16 30 17 25 18 29 19 26 20 28 21 27 22 13 23 14 24
DOCKED: REMARK SMILES IDX 15 25 16 26 17 27 21 28 18 29 20 30 19 31 10 32
DOCKED: REMARK H PARENT 3 12 10 33
DOCKED: USER                              x       y       z     vdW  Elec       q    Type
DOCKED: USER                           _______ _______ _______ _____ _____    ______ ____
DOCKED: ROOT
DOCKED: ATOM      1  N   UNL     1     142.924  73.101 220.407 -0.11 +0.06    -0.335 N  
DOCKED: ATOM      2  C   UNL     1     144.111  72.375 220.796 -0.26 -0.03    +0.151 C  
DOCKED: ATOM      3  C   UNL     1     145.261  73.123 220.135 -0.43 -0.00    +0.136 C  
DOCKED: ATOM      4  C   UNL     1     144.628  73.561 218.855 -0.23 -0.01    +0.059 C  
DOCKED: ATOM      5  C   UNL     1     143.266  74.092 219.366 -0.23 -0.03    +0.091 C  
DOCKED: ENDROOT
DOCKED: BRANCH   1   6
DOCKED: ATOM      6  C   UNL     1     141.597  73.003 220.891 -0.16 -0.03    +0.242 C  
DOCKED: ATOM      7  O   UNL     1     141.290  71.919 221.561 -0.17 +0.03    -0.273 OA 
DOCKED: BRANCH   6   8
DOCKED: ATOM      8  C   UNL     1     140.462  73.907 220.767 -0.15 -0.04    +0.216 C  
DOCKED: BRANCH   8   9
DOCKED: ATOM      9  N   UNL     1     140.658  75.218 221.248 -0.15 +0.08    -0.342 N  
DOCKED: ATOM     10  C   UNL     1     139.785  75.945 222.102 -0.22 -0.05    +0.270 C  
DOCKED: ATOM     11  O   UNL     1     138.708  75.410 222.478 -0.29 +0.07    -0.268 OA 
DOCKED: ATOM     12  H   UNL     1     141.538  75.752 220.967 -0.01 -0.07    +0.164 HD 
DOCKED: BRANCH  10  13
DOCKED: ATOM     13  C   UNL     1     140.122  77.303 222.549 -0.29 -0.03    +0.128 A  
DOCKED: ATOM     14  C   UNL     1     139.111  78.160 222.928 -0.27 -0.01    +0.035 A  
DOCKED: ATOM     15  N   UNL     1     141.389  77.753 222.604 -0.25 +0.11    -0.243 NA 
DOCKED: ATOM     16  C   UNL     1     139.341  79.452 223.360 -0.39 -0.00    +0.013 A  
DOCKED: ATOM     17  C   UNL     1     141.660  79.021 223.024 -0.51 -0.03    +0.071 A  
DOCKED: ATOM     18  C   UNL     1     140.652  79.884 223.405 -0.49 -0.00    +0.000 A  
DOCKED: ATOM     19  C   UNL     1     142.952  79.502 223.088 -0.53 -0.01    +0.029 A  
DOCKED: ATOM     20  C   UNL     1     140.885  81.175 223.835 -0.37 -0.00    +0.010 A  
DOCKED: ATOM     21  C   UNL     1     143.220  80.799 223.518 -0.57 -0.00    +0.002 A  
DOCKED: ATOM     22  C   UNL     1     142.186  81.637 223.892 -0.58 -0.00    +0.001 A  
DOCKED: ENDBRANCH  10  13
DOCKED: ENDBRANCH   8   9
DOCKED: ENDBRANCH   6   8
DOCKED: ENDBRANCH   1   6
DOCKED: BRANCH   5  23
DOCKED: ATOM     23  C   UNL     1     143.532  75.478 219.878 -0.33 -0.04    +0.067 C  
DOCKED: BRANCH  23  24
DOCKED: ATOM     24  C   UNL     1     143.087  76.614 219.035 -0.25 -0.15    +0.231 C  
DOCKED: BRANCH  24  25
DOCKED: ATOM     25  O   UNL     1     141.745  76.992 219.189 -0.05 +0.25    -0.494 OA 
DOCKED: BRANCH  25  26
DOCKED: ATOM     26  C   UNL     1     141.232  78.220 219.405 -0.17 -0.06    +0.119 A  
DOCKED: ATOM     27  C   UNL     1     142.159  79.282 219.463 -0.20 -0.03    +0.046 A  
DOCKED: ATOM     28  C   UNL     1     139.925  78.580 219.580 -0.09 -0.02    +0.046 A  
DOCKED: ATOM     29  C   UNL     1     141.767  80.579 219.679 -0.31 -0.00    +0.004 A  
DOCKED: ATOM     30  C   UNL     1     139.522  79.902 219.801 -0.09 -0.00    +0.004 A  
DOCKED: ATOM     31  C   UNL     1     140.443  80.914 219.852 -0.17 -0.00    +0.000 A  
DOCKED: ENDBRANCH  25  26
DOCKED: ENDBRANCH  24  25
DOCKED: ENDBRANCH  23  24
DOCKED: ENDBRANCH   5  23
DOCKED: BRANCH   3  32
DOCKED: ATOM     32  O   UNL     1     146.334  72.239 219.903 -0.49 -0.29    -0.391 OA 
DOCKED: ATOM     33  H   UNL     1     146.327  71.570 220.643 -0.40 +0.00    +0.211 HD 
DOCKED: ENDBRANCH   3  32
DOCKED: TORSDOF 9
DOCKED: TER
DOCKED: ENDMDL
________________________________________________________________________________


    FINAL DOCKED STATE:
    ________________________


Run:   15 / 20
Time taken for this run:   0.070s

DOCKED: MODEL        15
DOCKED: USER    Run = 15
DOCKED: USER
DOCKED: USER    Estimated Free Energy of Binding    =  -8.65 kcal/mol  [=(1)+(2)+(3)-(4)]
DOCKED: USER
DOCKED: USER    (1) Final Intermolecular Energy     = -11.33 kcal/mol
DOCKED: USER        vdW + Hbond + desolv Energy     = -11.26 kcal/mol
DOCKED: USER        Electrostatic Energy            =  -0.08 kcal/mol
DOCKED: USER        Moving Ligand-Fixed Receptor    = -11.33 kcal/mol
DOCKED: USER        Moving Ligand-Moving Receptor   =  +0.00 kcal/mol
DOCKED: USER    (2) Final Total Internal Energy     =  -2.16 kcal/mol
DOCKED: USER    (3) Torsional Free Energy           =  +2.68 kcal/mol
DOCKED: USER    (4) Unbound System's Energy         =  -2.16 kcal/mol
DOCKED: USER
DOCKED: USER
DOCKED: REMARK SMILES O=C(NCC(=O)N1C[C@@H](O)C[C@@H]1CCOc1ccccc1)c1ccc2ccccc2n1
DOCKED: REMARK SMILES IDX 7 1 8 2 9 3 11 4 12 5 5 6 6 7 4 8 3 9 2 10 1 11 22 13 23 14
DOCKED: REMARK SMILES IDX 31 15 24 16 30 17 25 18 29 19 26 20 28 21 27 22 13 23 14 24
DOCKED: REMARK SMILES IDX 15 25 16 26 17 27 21 28 18 29 20 30 19 31 10 32
DOCKED: REMARK H PARENT 3 12 10 33
DOCKED: USER                              x       y       z     vdW  Elec       q    Type
DOCKED: USER                           _______ _______ _______ _____ _____    ______ ____
DOCKED: ROOT
DOCKED: ATOM      1  N   UNL     1     140.609  76.482 220.545 -0.07 +0.11    -0.335 N  
DOCKED: ATOM      2  C   UNL     1     141.964  76.844 220.202 -0.22 -0.09    +0.151 C  
DOCKED: ATOM      3  C   UNL     1     141.836  78.158 219.442 -0.23 -0.08    +0.136 C  
DOCKED: ATOM      4  C   UNL     1     140.552  77.949 218.710 -0.09 -0.02    +0.059 C  
DOCKED: ATOM      5  C   UNL     1     139.663  77.368 219.837 -0.08 -0.03    +0.091 C  
DOCKED: ENDROOT
DOCKED: BRANCH   1   6
DOCKED: ATOM      6  C   UNL     1     140.129  75.486 221.431 -0.22 -0.05    +0.242 C  
DOCKED: ATOM      7  O   UNL     1     139.949  75.841 222.679 -0.42 +0.03    -0.273 OA 
DOCKED: BRANCH   6   8
DOCKED: ATOM      8  C   UNL     1     139.798  74.085 221.209 -0.18 -0.04    +0.216 C  
DOCKED: BRANCH   8   9
DOCKED: ATOM      9  N   UNL     1     139.783  73.263 222.356 -0.15 +0.05    -0.342 N  
DOCKED: ATOM     10  C   UNL     1     140.009  71.860 222.393 -0.20 -0.04    +0.270 C  
DOCKED: ATOM     11  O   UNL     1     140.233  71.246 221.315 -0.10 +0.04    -0.268 OA 
DOCKED: ATOM     12  H   UNL     1     139.587  73.699 223.308 -0.47 -0.03    +0.164 HD 
DOCKED: BRANCH  10  13
DOCKED: ATOM     13  C   UNL     1     139.986  71.125 223.664 -0.32 -0.02    +0.128 A  
DOCKED: ATOM     14  C   UNL     1     139.456  69.852 223.699 -0.27 -0.01    +0.035 A  
DOCKED: ATOM     15  N   UNL     1     140.464  71.645 224.809 -0.30 +0.04    -0.243 NA 
DOCKED: ATOM     16  C   UNL     1     139.396  69.093 224.851 -0.38 -0.00    +0.013 A  
DOCKED: ATOM     17  C   UNL     1     140.423  70.929 225.969 -0.53 -0.01    +0.071 A  
DOCKED: ATOM     18  C   UNL     1     139.895  69.655 226.010 -0.48 -0.00    +0.000 A  
DOCKED: ATOM     19  C   UNL     1     140.907  71.443 227.154 -0.73 -0.01    +0.029 A  
DOCKED: ATOM     20  C   UNL     1     139.835  68.898 227.163 -0.59 -0.00    +0.010 A  
DOCKED: ATOM     21  C   UNL     1     140.862  70.705 228.335 -0.60 -0.00    +0.002 A  
DOCKED: ATOM     22  C   UNL     1     140.325  69.432 228.340 -0.63 -0.00    +0.001 A  
DOCKED: ENDBRANCH  10  13
DOCKED: ENDBRANCH   8   9
DOCKED: ENDBRANCH   6   8
DOCKED: ENDBRANCH   1   6
DOCKED: BRANCH   5  23
DOCKED: ATOM     23  C   UNL     1     139.186  78.547 220.633 -0.10 -0.02    +0.067 C  
DOCKED: BRANCH  23  24
DOCKED: ATOM     24  C   UNL     1     138.517  78.272 221.928 -0.14 -0.05    +0.231 C  
DOCKED: BRANCH  24  25
DOCKED: ATOM     25  O   UNL     1     139.286  78.533 223.072 -0.11 +0.08    -0.494 OA 
DOCKED: BRANCH  25  26
DOCKED: ATOM     26  C   UNL     1     140.479  79.154 223.165 -0.39 -0.03    +0.119 A  
DOCKED: ATOM     27  C   UNL     1     140.445  80.527 223.486 -0.43 -0.01    +0.046 A  
DOCKED: ATOM     28  C   UNL     1     141.730  78.631 222.985 -0.51 -0.02    +0.046 A  
DOCKED: ATOM     29  C   UNL     1     141.589  81.275 223.608 -0.56 -0.00    +0.004 A  
DOCKED: ATOM     30  C   UNL     1     142.898  79.391 223.108 -0.53 -0.00    +0.004 A  
DOCKED: ATOM     31  C   UNL     1     142.836  80.722 223.421 -0.65 -0.00    +0.000 A  
DOCKED: ENDBRANCH  25  26
DOCKED: ENDBRANCH  24  25
DOCKED: ENDBRANCH  23  24
DOCKED: ENDBRANCH   5  23
DOCKED: BRANCH   3  32
DOCKED: ATOM     32  O   UNL     1     142.920  78.299 218.550 -0.20 +0.34    -0.391 OA 
DOCKED: ATOM     33  H   UNL     1     143.730  77.955 219.018 -0.39 -0.22    +0.211 HD 
DOCKED: ENDBRANCH   3  32
DOCKED: TORSDOF 9
DOCKED: TER
DOCKED: ENDMDL
________________________________________________________________________________


    FINAL DOCKED STATE:
    ________________________


Run:   16 / 20
Time taken for this run:   0.070s

DOCKED: MODEL        16
DOCKED: USER    Run = 16
DOCKED: USER
DOCKED: USER    Estimated Free Energy of Binding    =  -6.96 kcal/mol  [=(1)+(2)+(3)-(4)]
DOCKED: USER
DOCKED: USER    (1) Final Intermolecular Energy     =  -9.65 kcal/mol
DOCKED: USER        vdW + Hbond + desolv Energy     =  -9.42 kcal/mol
DOCKED: USER        Electrostatic Energy            =  -0.23 kcal/mol
DOCKED: USER        Moving Ligand-Fixed Receptor    =  -9.65 kcal/mol
DOCKED: USER        Moving Ligand-Moving Receptor   =  +0.00 kcal/mol
DOCKED: USER    (2) Final Total Internal Energy     =  -3.34 kcal/mol
DOCKED: USER    (3) Torsional Free Energy           =  +2.68 kcal/mol
DOCKED: USER    (4) Unbound System's Energy         =  -3.34 kcal/mol
DOCKED: USER
DOCKED: USER
DOCKED: REMARK SMILES O=C(NCC(=O)N1C[C@@H](O)C[C@@H]1CCOc1ccccc1)c1ccc2ccccc2n1
DOCKED: REMARK SMILES IDX 7 1 8 2 9 3 11 4 12 5 5 6 6 7 4 8 3 9 2 10 1 11 22 13 23 14
DOCKED: REMARK SMILES IDX 31 15 24 16 30 17 25 18 29 19 26 20 28 21 27 22 13 23 14 24
DOCKED: REMARK SMILES IDX 15 25 16 26 17 27 21 28 18 29 20 30 19 31 10 32
DOCKED: REMARK H PARENT 3 12 10 33
DOCKED: USER                              x       y       z     vdW  Elec       q    Type
DOCKED: USER                           _______ _______ _______ _____ _____    ______ ____
DOCKED: ROOT
DOCKED: ATOM      1  N   UNL     1     142.932  73.153 219.951 -0.08 +0.06    -0.335 N  
DOCKED: ATOM      2  C   UNL     1     143.919  72.651 220.879 -0.21 -0.03    +0.151 C  
DOCKED: ATOM      3  C   UNL     1     145.184  73.440 220.569 -0.49 -0.02    +0.136 C  
DOCKED: ATOM      4  C   UNL     1     145.071  73.604 219.089 -0.21 -0.00    +0.059 C  
DOCKED: ATOM      5  C   UNL     1     143.586  74.021 218.951 -0.20 -0.03    +0.091 C  
DOCKED: ENDROOT
DOCKED: BRANCH   1   6
DOCKED: ATOM      6  C   UNL     1     141.530  72.953 219.916 -0.08 -0.04    +0.242 C  
DOCKED: ATOM      7  O   UNL     1     141.098  71.747 220.189 -0.07 +0.04    -0.273 OA 
DOCKED: BRANCH   6   8
DOCKED: ATOM      8  C   UNL     1     140.439  73.867 219.607 -0.05 -0.05    +0.216 C  
DOCKED: BRANCH   8   9
DOCKED: ATOM      9  N   UNL     1     140.490  75.129 220.236 -0.05 +0.09    -0.342 N  
DOCKED: ATOM     10  C   UNL     1     140.144  75.415 221.586 -0.22 -0.05    +0.270 C  
DOCKED: ATOM     11  O   UNL     1     139.729  74.482 222.324 -0.79 +0.02    -0.268 OA 
DOCKED: ATOM     12  H   UNL     1     140.817  75.977 219.680 +0.05 -0.06    +0.164 HD 
DOCKED: BRANCH  10  13
DOCKED: ATOM     13  C   UNL     1     140.265  76.776 222.124 -0.33 -0.03    +0.128 A  
DOCKED: ATOM     14  C   UNL     1     139.138  77.423 222.583 -0.29 -0.01    +0.035 A  
DOCKED: ATOM     15  N   UNL     1     141.441  77.426 222.189 -0.15 +0.13    -0.243 NA 
DOCKED: ATOM     16  C   UNL     1     139.164  78.703 223.105 -0.34 -0.00    +0.013 A  
DOCKED: ATOM     17  C   UNL     1     141.511  78.690 222.695 -0.46 -0.03    +0.071 A  
DOCKED: ATOM     18  C   UNL     1     140.387  79.343 223.157 -0.45 -0.00    +0.000 A  
DOCKED: ATOM     19  C   UNL     1     142.707  79.375 222.771 -0.55 -0.01    +0.029 A  
DOCKED: ATOM     20  C   UNL     1     140.415  80.622 223.677 -0.43 -0.00    +0.010 A  
DOCKED: ATOM     21  C   UNL     1     142.769  80.666 223.290 -0.64 -0.00    +0.002 A  
DOCKED: ATOM     22  C   UNL     1     141.622  81.291 223.743 -0.56 -0.00    +0.001 A  
DOCKED: ENDBRANCH  10  13
DOCKED: ENDBRANCH   8   9
DOCKED: ENDBRANCH   6   8
DOCKED: ENDBRANCH   1   6
DOCKED: BRANCH   5  23
DOCKED: ATOM     23  C   UNL     1     143.541  75.488 219.262 -0.32 -0.04    +0.067 C  
DOCKED: BRANCH  23  24
DOCKED: ATOM     24  C   UNL     1     142.784  76.361 218.333 -0.19 -0.13    +0.231 C  
DOCKED: BRANCH  24  25
DOCKED: ATOM     25  O   UNL     1     141.800  77.167 218.927 -0.05 +0.26    -0.494 OA 
DOCKED: BRANCH  25  26
DOCKED: ATOM     26  C   UNL     1     141.721  78.512 218.966 -0.21 -0.07    +0.119 A  
DOCKED: ATOM     27  C   UNL     1     142.697  79.217 218.230 -0.29 -0.04    +0.046 A  
DOCKED: ATOM     28  C   UNL     1     140.817  79.294 219.631 -0.17 -0.02    +0.046 A  
DOCKED: ATOM     29  C   UNL     1     142.728  80.588 218.191 -0.34 -0.00    +0.004 A  
DOCKED: ATOM     30  C   UNL     1     140.847  80.693 219.591 -0.20 -0.00    +0.004 A  
DOCKED: ATOM     31  C   UNL     1     141.806  81.352 218.869 -0.28 -0.00    +0.000 A  
DOCKED: ENDBRANCH  25  26
DOCKED: ENDBRANCH  24  25
DOCKED: ENDBRANCH  23  24
DOCKED: ENDBRANCH   5  23
DOCKED: BRANCH   3  32
DOCKED: ATOM     32  O   UNL     1     146.318  72.679 220.918 -0.35 -0.02    -0.391 OA 
DOCKED: ATOM     33  H   UNL     1     146.008  71.957 221.532 -0.45 -0.15    +0.211 HD 
DOCKED: ENDBRANCH   3  32
DOCKED: TORSDOF 9
DOCKED: TER
DOCKED: ENDMDL
________________________________________________________________________________


    FINAL DOCKED STATE:
    ________________________


Run:   17 / 20
Time taken for this run:   0.070s

DOCKED: MODEL        17
DOCKED: USER    Run = 17
DOCKED: USER
DOCKED: USER    Estimated Free Energy of Binding    =  -8.85 kcal/mol  [=(1)+(2)+(3)-(4)]
DOCKED: USER
DOCKED: USER    (1) Final Intermolecular Energy     = -11.54 kcal/mol
DOCKED: USER        vdW + Hbond + desolv Energy     = -11.37 kcal/mol
DOCKED: USER        Electrostatic Energy            =  -0.17 kcal/mol
DOCKED: USER        Moving Ligand-Fixed Receptor    = -11.54 kcal/mol
DOCKED: USER        Moving Ligand-Moving Receptor   =  +0.00 kcal/mol
DOCKED: USER    (2) Final Total Internal Energy     =  -1.49 kcal/mol
DOCKED: USER    (3) Torsional Free Energy           =  +2.68 kcal/mol
DOCKED: USER    (4) Unbound System's Energy         =  -1.49 kcal/mol
DOCKED: USER
DOCKED: USER
DOCKED: REMARK SMILES O=C(NCC(=O)N1C[C@@H](O)C[C@@H]1CCOc1ccccc1)c1ccc2ccccc2n1
DOCKED: REMARK SMILES IDX 7 1 8 2 9 3 11 4 12 5 5 6 6 7 4 8 3 9 2 10 1 11 22 13 23 14
DOCKED: REMARK SMILES IDX 31 15 24 16 30 17 25 18 29 19 26 20 28 21 27 22 13 23 14 24
DOCKED: REMARK SMILES IDX 15 25 16 26 17 27 21 28 18 29 20 30 19 31 10 32
DOCKED: REMARK H PARENT 3 12 10 33
DOCKED: USER                              x       y       z     vdW  Elec       q    Type
DOCKED: USER                           _______ _______ _______ _____ _____    ______ ____
DOCKED: ROOT
DOCKED: ATOM      1  N   UNL     1     142.150  73.810 220.078 -0.08 +0.08    -0.335 N  
DOCKED: ATOM      2  C   UNL     1     143.052  72.950 220.807 -0.19 -0.02    +0.151 C  
DOCKED: ATOM      3  C   UNL     1     144.411  73.630 220.699 -0.37 -0.03    +0.136 C  
DOCKED: ATOM      4  C   UNL     1     144.340  74.210 219.326 -0.25 -0.02    +0.059 C  
DOCKED: ATOM      5  C   UNL     1     142.922  74.832 219.342 -0.25 -0.03    +0.091 C  
DOCKED: ENDROOT
DOCKED: BRANCH   1   6
DOCKED: ATOM      6  C   UNL     1     140.734  73.806 220.020 -0.08 -0.05    +0.242 C  
DOCKED: ATOM      7  O   UNL     1     140.190  73.467 218.878 -0.01 +0.06    -0.273 OA 
DOCKED: BRANCH   6   8
DOCKED: ATOM      8  C   UNL     1     139.733  74.132 221.026 -0.15 -0.04    +0.216 C  
DOCKED: BRANCH   8   9
DOCKED: ATOM      9  N   UNL     1     139.771  73.366 222.210 -0.15 +0.05    -0.342 N  
DOCKED: ATOM     10  C   UNL     1     140.010  71.968 222.304 -0.20 -0.04    +0.270 C  
DOCKED: ATOM     11  O   UNL     1     140.193  71.304 221.249 -0.10 +0.04    -0.268 OA 
DOCKED: ATOM     12  H   UNL     1     139.611  73.846 223.149 -0.49 -0.02    +0.164 HD 
DOCKED: BRANCH  10  13
DOCKED: ATOM     13  C   UNL     1     140.044  71.294 223.609 -0.32 -0.02    +0.128 A  
DOCKED: ATOM     14  C   UNL     1     139.577  70.000 223.714 -0.28 -0.01    +0.035 A  
DOCKED: ATOM     15  N   UNL     1     140.516  71.890 224.719 -0.27 +0.04    -0.243 NA 
DOCKED: ATOM     16  C   UNL     1     139.574  69.295 224.902 -0.38 -0.00    +0.013 A  
DOCKED: ATOM     17  C   UNL     1     140.531  71.230 225.912 -0.55 -0.01    +0.071 A  
DOCKED: ATOM     18  C   UNL     1     140.066  69.935 226.023 -0.50 -0.00    +0.000 A  
DOCKED: ATOM     19  C   UNL     1     141.010  71.822 227.062 -0.76 -0.01    +0.029 A  
DOCKED: ATOM     20  C   UNL     1     140.063  69.233 227.211 -0.59 -0.00    +0.010 A  
DOCKED: ATOM     21  C   UNL     1     141.022  71.141 228.276 -0.69 -0.00    +0.002 A  
DOCKED: ATOM     22  C   UNL     1     140.547  69.845 228.352 -0.58 -0.00    +0.001 A  
DOCKED: ENDBRANCH  10  13
DOCKED: ENDBRANCH   8   9
DOCKED: ENDBRANCH   6   8
DOCKED: ENDBRANCH   1   6
DOCKED: BRANCH   5  23
DOCKED: ATOM     23  C   UNL     1     143.059  76.149 220.048 -0.19 -0.04    +0.067 C  
DOCKED: BRANCH  23  24
DOCKED: ATOM     24  C   UNL     1     142.111  77.226 219.676 -0.21 -0.14    +0.231 C  
DOCKED: BRANCH  24  25
DOCKED: ATOM     25  O   UNL     1     141.275  77.679 220.709 -0.07 +0.24    -0.494 OA 
DOCKED: BRANCH  25  26
DOCKED: ATOM     26  C   UNL     1     141.587  78.441 221.776 -0.32 -0.06    +0.119 A  
DOCKED: ATOM     27  C   UNL     1     142.162  79.699 221.498 -0.37 -0.02    +0.046 A  
DOCKED: ATOM     28  C   UNL     1     141.424  78.158 223.104 -0.49 -0.02    +0.046 A  
DOCKED: ATOM     29  C   UNL     1     142.528  80.568 222.494 -0.58 -0.00    +0.004 A  
DOCKED: ATOM     30  C   UNL     1     141.795  79.043 224.122 -0.59 -0.00    +0.004 A  
DOCKED: ATOM     31  C   UNL     1     142.352  80.258 223.824 -0.65 -0.00    +0.000 A  
DOCKED: ENDBRANCH  25  26
DOCKED: ENDBRANCH  24  25
DOCKED: ENDBRANCH  23  24
DOCKED: ENDBRANCH   5  23
DOCKED: BRANCH   3  32
DOCKED: ATOM     32  O   UNL     1     145.435  72.665 220.798 -0.28 +0.04    -0.391 OA 
DOCKED: ATOM     33  H   UNL     1     145.114  71.961 221.426 -0.38 -0.11    +0.211 HD 
DOCKED: ENDBRANCH   3  32
DOCKED: TORSDOF 9
DOCKED: TER
DOCKED: ENDMDL
________________________________________________________________________________


    FINAL DOCKED STATE:
    ________________________


Run:   18 / 20
Time taken for this run:   0.070s

DOCKED: MODEL        18
DOCKED: USER    Run = 18
DOCKED: USER
DOCKED: USER    Estimated Free Energy of Binding    =  -8.42 kcal/mol  [=(1)+(2)+(3)-(4)]
DOCKED: USER
DOCKED: USER    (1) Final Intermolecular Energy     = -11.10 kcal/mol
DOCKED: USER        vdW + Hbond + desolv Energy     = -11.03 kcal/mol
DOCKED: USER        Electrostatic Energy            =  -0.07 kcal/mol
DOCKED: USER        Moving Ligand-Fixed Receptor    = -11.10 kcal/mol
DOCKED: USER        Moving Ligand-Moving Receptor   =  +0.00 kcal/mol
DOCKED: USER    (2) Final Total Internal Energy     =  -1.47 kcal/mol
DOCKED: USER    (3) Torsional Free Energy           =  +2.68 kcal/mol
DOCKED: USER    (4) Unbound System's Energy         =  -1.47 kcal/mol
DOCKED: USER
DOCKED: USER
DOCKED: REMARK SMILES O=C(NCC(=O)N1C[C@@H](O)C[C@@H]1CCOc1ccccc1)c1ccc2ccccc2n1
DOCKED: REMARK SMILES IDX 7 1 8 2 9 3 11 4 12 5 5 6 6 7 4 8 3 9 2 10 1 11 22 13 23 14
DOCKED: REMARK SMILES IDX 31 15 24 16 30 17 25 18 29 19 26 20 28 21 27 22 13 23 14 24
DOCKED: REMARK SMILES IDX 15 25 16 26 17 27 21 28 18 29 20 30 19 31 10 32
DOCKED: REMARK H PARENT 3 12 10 33
DOCKED: USER                              x       y       z     vdW  Elec       q    Type
DOCKED: USER                           _______ _______ _______ _____ _____    ______ ____
DOCKED: ROOT
DOCKED: ATOM      1  N   UNL     1     136.572  71.579 223.163 -0.07 +0.07    -0.335 N  
DOCKED: ATOM      2  C   UNL     1     135.516  70.930 223.905 -0.13 -0.02    +0.151 C  
DOCKED: ATOM      3  C   UNL     1     136.101  69.587 224.322 -0.18 -0.01    +0.136 C  
DOCKED: ATOM      4  C   UNL     1     136.956  69.261 223.142 -0.16 -0.01    +0.059 C  
DOCKED: ATOM      5  C   UNL     1     137.664  70.618 222.907 -0.16 -0.02    +0.091 C  
DOCKED: ENDROOT
DOCKED: BRANCH   1   6
DOCKED: ATOM      6  C   UNL     1     136.684  72.920 222.722 -0.06 -0.07    +0.242 C  
DOCKED: ATOM      7  O   UNL     1     135.816  73.776 223.204 -0.13 +0.07    -0.273 OA 
DOCKED: BRANCH   6   8
DOCKED: ATOM      8  C   UNL     1     137.608  73.549 221.788 -0.10 -0.06    +0.216 C  
DOCKED: BRANCH   8   9
DOCKED: ATOM      9  N   UNL     1     138.015  74.861 222.108 -0.09 +0.10    -0.342 N  
DOCKED: ATOM     10  C   UNL     1     139.355  75.325 222.227 -0.15 -0.05    +0.270 C  
DOCKED: ATOM     11  O   UNL     1     140.303  74.513 222.055 -0.79 +0.01    -0.268 OA 
DOCKED: ATOM     12  H   UNL     1     137.277  75.609 222.285 +0.02 -0.04    +0.164 HD 
DOCKED: BRANCH  10  13
DOCKED: ATOM     13  C   UNL     1     139.641  76.729 222.546 -0.24 -0.03    +0.128 A  
DOCKED: ATOM     14  C   UNL     1     138.594  77.608 222.730 -0.28 -0.01    +0.035 A  
DOCKED: ATOM     15  N   UNL     1     140.895  77.202 222.668 -0.28 +0.08    -0.243 NA 
DOCKED: ATOM     16  C   UNL     1     138.777  78.944 223.032 -0.32 -0.00    +0.013 A  
DOCKED: ATOM     17  C   UNL     1     141.119  78.514 222.965 -0.47 -0.02    +0.071 A  
DOCKED: ATOM     18  C   UNL     1     140.076  79.398 223.150 -0.42 -0.00    +0.000 A  
DOCKED: ATOM     19  C   UNL     1     142.396  79.019 223.094 -0.52 -0.01    +0.029 A  
DOCKED: ATOM     20  C   UNL     1     140.260  80.733 223.451 -0.44 -0.00    +0.010 A  
DOCKED: ATOM     21  C   UNL     1     142.616  80.361 223.397 -0.67 -0.00    +0.002 A  
DOCKED: ATOM     22  C   UNL     1     141.547  81.219 223.576 -0.56 -0.00    +0.001 A  
DOCKED: ENDBRANCH  10  13
DOCKED: ENDBRANCH   8   9
DOCKED: ENDBRANCH   6   8
DOCKED: ENDBRANCH   1   6
DOCKED: BRANCH   5  23
DOCKED: ATOM     23  C   UNL     1     138.793  70.668 223.893 -0.29 -0.01    +0.067 C  
DOCKED: BRANCH  23  24
DOCKED: ATOM     24  C   UNL     1     140.078  71.248 223.433 -0.25 -0.04    +0.231 C  
DOCKED: BRANCH  24  25
DOCKED: ATOM     25  O   UNL     1     141.012  71.526 224.443 -0.14 +0.04    -0.494 OA 
DOCKED: BRANCH  25  26
DOCKED: ATOM     26  C   UNL     1     141.009  71.123 225.729 -0.52 -0.02    +0.119 A  
DOCKED: ATOM     27  C   UNL     1     140.999  69.729 225.947 -0.48 -0.01    +0.046 A  
DOCKED: ATOM     28  C   UNL     1     141.013  71.888 226.863 -0.73 -0.01    +0.046 A  
DOCKED: ATOM     29  C   UNL     1     140.993  69.189 227.208 -0.59 -0.00    +0.004 A  
DOCKED: ATOM     30  C   UNL     1     141.007  71.340 228.151 -0.75 -0.00    +0.004 A  
DOCKED: ATOM     31  C   UNL     1     140.997  69.983 228.333 -0.57 -0.00    +0.000 A  
DOCKED: ENDBRANCH  25  26
DOCKED: ENDBRANCH  24  25
DOCKED: ENDBRANCH  23  24
DOCKED: ENDBRANCH   5  23
DOCKED: BRANCH   3  32
DOCKED: ATOM     32  O   UNL     1     135.064  68.645 224.483 -0.56 -0.00    -0.391 OA 
DOCKED: ATOM     33  H   UNL     1     134.204  69.149 224.447 +0.06 -0.02    +0.211 HD 
DOCKED: ENDBRANCH   3  32
DOCKED: TORSDOF 9
DOCKED: TER
DOCKED: ENDMDL
________________________________________________________________________________


    FINAL DOCKED STATE:
    ________________________


Run:   19 / 20
Time taken for this run:   0.070s

DOCKED: MODEL        19
DOCKED: USER    Run = 19
DOCKED: USER
DOCKED: USER    Estimated Free Energy of Binding    =  -8.64 kcal/mol  [=(1)+(2)+(3)-(4)]
DOCKED: USER
DOCKED: USER    (1) Final Intermolecular Energy     = -11.33 kcal/mol
DOCKED: USER        vdW + Hbond + desolv Energy     = -11.26 kcal/mol
DOCKED: USER        Electrostatic Energy            =  -0.07 kcal/mol
DOCKED: USER        Moving Ligand-Fixed Receptor    = -11.33 kcal/mol
DOCKED: USER        Moving Ligand-Moving Receptor   =  +0.00 kcal/mol
DOCKED: USER    (2) Final Total Internal Energy     =  -1.32 kcal/mol
DOCKED: USER    (3) Torsional Free Energy           =  +2.68 kcal/mol
DOCKED: USER    (4) Unbound System's Energy         =  -1.32 kcal/mol
DOCKED: USER
DOCKED: USER
DOCKED: REMARK SMILES O=C(NCC(=O)N1C[C@@H](O)C[C@@H]1CCOc1ccccc1)c1ccc2ccccc2n1
DOCKED: REMARK SMILES IDX 7 1 8 2 9 3 11 4 12 5 5 6 6 7 4 8 3 9 2 10 1 11 22 13 23 14
DOCKED: REMARK SMILES IDX 31 15 24 16 30 17 25 18 29 19 26 20 28 21 27 22 13 23 14 24
DOCKED: REMARK SMILES IDX 15 25 16 26 17 27 21 28 18 29 20 30 19 31 10 32
DOCKED: REMARK H PARENT 3 12 10 33
DOCKED: USER                              x       y       z     vdW  Elec       q    Type
DOCKED: USER                           _______ _______ _______ _____ _____    ______ ____
DOCKED: ROOT
DOCKED: ATOM      1  N   UNL     1     141.811  74.146 219.940 -0.06 +0.09    -0.335 N  
DOCKED: ATOM      2  C   UNL     1     143.011  73.481 220.393 -0.24 -0.03    +0.151 C  
DOCKED: ATOM      3  C   UNL     1     144.094  74.550 220.338 -0.34 -0.06    +0.136 C  
DOCKED: ATOM      4  C   UNL     1     143.676  75.329 219.136 -0.29 -0.03    +0.059 C  
DOCKED: ATOM      5  C   UNL     1     142.155  75.474 219.393 -0.20 -0.04    +0.091 C  
DOCKED: ENDROOT
DOCKED: BRANCH   1   6
DOCKED: ATOM      6  C   UNL     1     140.461  73.721 219.987 -0.07 -0.05    +0.242 C  
DOCKED: ATOM      7  O   UNL     1     140.024  73.025 218.966 -0.01 +0.05    -0.273 OA 
DOCKED: BRANCH   6   8
DOCKED: ATOM      8  C   UNL     1     139.423  73.931 220.987 -0.13 -0.04    +0.216 C  
DOCKED: BRANCH   8   9
DOCKED: ATOM      9  N   UNL     1     139.557  73.195 222.183 -0.14 +0.06    -0.342 N  
DOCKED: ATOM     10  C   UNL     1     139.717  71.786 222.295 -0.18 -0.05    +0.270 C  
DOCKED: ATOM     11  O   UNL     1     139.728  71.085 221.248 -0.08 +0.04    -0.268 OA 
DOCKED: ATOM     12  H   UNL     1     139.543  73.708 223.117 -0.50 -0.03    +0.164 HD 
DOCKED: BRANCH  10  13
DOCKED: ATOM     13  C   UNL     1     139.868  71.146 223.608 -0.32 -0.02    +0.128 A  
DOCKED: ATOM     14  C   UNL     1     139.514  69.821 223.758 -0.27 -0.01    +0.035 A  
DOCKED: ATOM     15  N   UNL     1     140.340  71.802 224.683 -0.28 +0.04    -0.243 NA 
DOCKED: ATOM     16  C   UNL     1     139.625  69.143 224.957 -0.38 -0.00    +0.013 A  
DOCKED: ATOM     17  C   UNL     1     140.465  71.171 225.885 -0.54 -0.01    +0.071 A  
DOCKED: ATOM     18  C   UNL     1     140.114  69.845 226.041 -0.50 -0.00    +0.000 A  
DOCKED: ATOM     19  C   UNL     1     140.947  71.825 227.000 -0.75 -0.01    +0.029 A  
DOCKED: ATOM     20  C   UNL     1     140.224  69.170 227.240 -0.60 -0.00    +0.010 A  
DOCKED: ATOM     21  C   UNL     1     141.072  71.172 228.224 -0.71 -0.00    +0.002 A  
DOCKED: ATOM     22  C   UNL     1     140.709  69.844 228.345 -0.58 -0.00    +0.001 A  
DOCKED: ENDBRANCH  10  13
DOCKED: ENDBRANCH   8   9
DOCKED: ENDBRANCH   6   8
DOCKED: ENDBRANCH   1   6
DOCKED: BRANCH   5  23
DOCKED: ATOM     23  C   UNL     1     142.009  76.612 220.360 -0.22 -0.04    +0.067 C  
DOCKED: BRANCH  23  24
DOCKED: ATOM     24  C   UNL     1     141.238  77.796 219.911 -0.15 -0.11    +0.231 C  
DOCKED: BRANCH  24  25
DOCKED: ATOM     25  O   UNL     1     141.795  79.041 220.244 -0.09 +0.29    -0.494 OA 
DOCKED: BRANCH  25  26
DOCKED: ATOM     26  C   UNL     1     141.890  79.627 221.454 -0.34 -0.06    +0.119 A  
DOCKED: ATOM     27  C   UNL     1     141.674  81.021 221.491 -0.39 -0.01    +0.046 A  
DOCKED: ATOM     28  C   UNL     1     142.172  79.051 222.662 -0.51 -0.02    +0.046 A  
DOCKED: ATOM     29  C   UNL     1     141.744  81.737 222.659 -0.46 -0.00    +0.004 A  
DOCKED: ATOM     30  C   UNL     1     142.244  79.779 223.854 -0.62 -0.00    +0.004 A  
DOCKED: ATOM     31  C   UNL     1     142.030  81.132 223.862 -0.62 -0.00    +0.000 A  
DOCKED: ENDBRANCH  25  26
DOCKED: ENDBRANCH  24  25
DOCKED: ENDBRANCH  23  24
DOCKED: ENDBRANCH   5  23
DOCKED: BRANCH   3  32
DOCKED: ATOM     32  O   UNL     1     145.352  73.943 220.146 -0.30 +0.08    -0.391 OA 
DOCKED: ATOM     33  H   UNL     1     145.821  74.461 219.435 -0.38 -0.11    +0.211 HD 
DOCKED: ENDBRANCH   3  32
DOCKED: TORSDOF 9
DOCKED: TER
DOCKED: ENDMDL
________________________________________________________________________________


    FINAL DOCKED STATE:
    ________________________


Run:   20 / 20
Time taken for this run:   0.070s

DOCKED: MODEL        20
DOCKED: USER    Run = 20
DOCKED: USER
DOCKED: USER    Estimated Free Energy of Binding    =  -7.51 kcal/mol  [=(1)+(2)+(3)-(4)]
DOCKED: USER
DOCKED: USER    (1) Final Intermolecular Energy     = -10.19 kcal/mol
DOCKED: USER        vdW + Hbond + desolv Energy     =  -9.92 kcal/mol
DOCKED: USER        Electrostatic Energy            =  -0.27 kcal/mol
DOCKED: USER        Moving Ligand-Fixed Receptor    = -10.19 kcal/mol
DOCKED: USER        Moving Ligand-Moving Receptor   =  +0.00 kcal/mol
DOCKED: USER    (2) Final Total Internal Energy     =  -2.58 kcal/mol
DOCKED: USER    (3) Torsional Free Energy           =  +2.68 kcal/mol
DOCKED: USER    (4) Unbound System's Energy         =  -2.58 kcal/mol
DOCKED: USER
DOCKED: USER
DOCKED: REMARK SMILES O=C(NCC(=O)N1C[C@@H](O)C[C@@H]1CCOc1ccccc1)c1ccc2ccccc2n1
DOCKED: REMARK SMILES IDX 7 1 8 2 9 3 11 4 12 5 5 6 6 7 4 8 3 9 2 10 1 11 22 13 23 14
DOCKED: REMARK SMILES IDX 31 15 24 16 30 17 25 18 29 19 26 20 28 21 27 22 13 23 14 24
DOCKED: REMARK SMILES IDX 15 25 16 26 17 27 21 28 18 29 20 30 19 31 10 32
DOCKED: REMARK H PARENT 3 12 10 33
DOCKED: USER                              x       y       z     vdW  Elec       q    Type
DOCKED: USER                           _______ _______ _______ _____ _____    ______ ____
DOCKED: ROOT
DOCKED: ATOM      1  N   UNL     1     142.911  73.235 220.053 -0.09 +0.07    -0.335 N  
DOCKED: ATOM      2  C   UNL     1     144.024  72.476 220.575 -0.28 -0.02    +0.151 C  
DOCKED: ATOM      3  C   UNL     1     145.263  73.224 220.100 -0.44 -0.00    +0.136 C  
DOCKED: ATOM      4  C   UNL     1     144.816  73.712 218.762 -0.18 -0.01    +0.059 C  
DOCKED: ATOM      5  C   UNL     1     143.405  74.251 219.101 -0.22 -0.03    +0.091 C  
DOCKED: ENDROOT
DOCKED: BRANCH   1   6
DOCKED: ATOM      6  C   UNL     1     141.529  73.145 220.349 -0.12 -0.04    +0.242 C  
DOCKED: ATOM      7  O   UNL     1     140.764  72.593 219.439 -0.03 +0.05    -0.273 OA 
DOCKED: BRANCH   6   8
DOCKED: ATOM      8  C   UNL     1     140.767  73.580 221.511 -0.21 -0.02    +0.216 C  
DOCKED: BRANCH   8   9
DOCKED: ATOM      9  N   UNL     1     140.919  74.933 221.881 -0.15 +0.04    -0.342 N  
DOCKED: ATOM     10  C   UNL     1     139.875  75.879 222.073 -0.22 -0.05    +0.270 C  
DOCKED: ATOM     11  O   UNL     1     138.681  75.522 221.889 -0.21 +0.06    -0.268 OA 
DOCKED: ATOM     12  H   UNL     1     141.898  75.324 222.043 -0.30 -0.06    +0.164 HD 
DOCKED: BRANCH  10  13
DOCKED: ATOM     13  C   UNL     1     140.172  77.259 222.481 -0.31 -0.03    +0.128 A  
DOCKED: ATOM     14  C   UNL     1     139.131  78.128 222.732 -0.30 -0.01    +0.035 A  
DOCKED: ATOM     15  N   UNL     1     141.429  77.717 222.622 -0.24 +0.12    -0.243 NA 
DOCKED: ATOM     16  C   UNL     1     139.323  79.440 223.120 -0.36 -0.00    +0.013 A  
DOCKED: ATOM     17  C   UNL     1     141.663  79.005 223.002 -0.51 -0.03    +0.071 A  
DOCKED: ATOM     18  C   UNL     1     140.625  79.880 223.256 -0.47 -0.00    +0.000 A  
DOCKED: ATOM     19  C   UNL     1     142.943  79.495 223.152 -0.50 -0.01    +0.029 A  
DOCKED: ATOM     20  C   UNL     1     140.819  81.190 223.643 -0.39 -0.00    +0.010 A  
DOCKED: ATOM     21  C   UNL     1     143.172  80.813 223.542 -0.58 -0.00    +0.002 A  
DOCKED: ATOM     22  C   UNL     1     142.110  81.662 223.787 -0.54 -0.00    +0.001 A  
DOCKED: ENDBRANCH  10  13
DOCKED: ENDBRANCH   8   9
DOCKED: ENDBRANCH   6   8
DOCKED: ENDBRANCH   1   6
DOCKED: BRANCH   5  23
DOCKED: ATOM     23  C   UNL     1     143.617  75.615 219.689 -0.37 -0.04    +0.067 C  
DOCKED: BRANCH  23  24
DOCKED: ATOM     24  C   UNL     1     142.465  76.551 219.677 -0.24 -0.14    +0.231 C  
DOCKED: BRANCH  24  25
DOCKED: ATOM     25  O   UNL     1     142.461  77.490 218.635 -0.12 +0.32    -0.494 OA 
DOCKED: BRANCH  25  26
DOCKED: ATOM     26  C   UNL     1     142.281  78.825 218.701 -0.24 -0.09    +0.119 A  
DOCKED: ATOM     27  C   UNL     1     141.534  79.300 219.799 -0.25 -0.02    +0.046 A  
DOCKED: ATOM     28  C   UNL     1     142.725  79.789 217.839 -0.28 -0.05    +0.046 A  
DOCKED: ATOM     29  C   UNL     1     141.277  80.636 219.981 -0.27 -0.00    +0.004 A  
DOCKED: ATOM     30  C   UNL     1     142.465  81.152 218.022 -0.33 -0.00    +0.004 A  
DOCKED: ATOM     31  C   UNL     1     141.737  81.586 219.098 -0.26 -0.00    +0.000 A  
DOCKED: ENDBRANCH  25  26
DOCKED: ENDBRANCH  24  25
DOCKED: ENDBRANCH  23  24
DOCKED: ENDBRANCH   5  23
DOCKED: BRANCH   3  32
DOCKED: ATOM     32  O   UNL     1     146.346  72.329 219.987 -0.48 -0.26    -0.391 OA 
DOCKED: ATOM     33  H   UNL     1     146.389  71.812 220.839 -0.43 -0.01    +0.211 HD 
DOCKED: ENDBRANCH   3  32
DOCKED: TORSDOF 9
DOCKED: TER
DOCKED: ENDMDL
________________________________________________________________________________


    CLUSTERING HISTOGRAM
    ____________________


________________________________________________________________________________
     |           |     |           |     |
Clus | Lowest    | Run | Mean      | Num | Histogram
-ter | Binding   |     | Binding   | in  |
Rank | Energy    |     | Energy    | Clus|    5    10   15   20   25   30   35
_____|___________|_____|___________|_____|____:____|____:____|____:____|____:___
   1 |     -9.23 |   7 |     -8.69 |  10 |##########
   2 |     -8.42 |  18 |     -8.42 |   1 |#
   3 |     -8.32 |   9 |     -8.32 |   1 |#
   4 |     -7.51 |  20 |     -6.95 |   7 |#######
   5 |     -7.48 |   5 |     -7.48 |   1 |#
_____|___________|_____|___________|_____|______________________________________


    RMSD TABLE
    __________


_______________________________________________________________________
     |      |      |           |         |                 |
Rank | Sub- | Run  | Binding   | Cluster | Reference       | Grep
     | Rank |      | Energy    | RMSD    | RMSD            | Pattern
_____|______|______|___________|_________|_________________|___________
   1      1      7       -9.23      0.00    270.92           RANKING
   1      2      8       -9.13      0.56    270.87           RANKING
   1      3     17       -8.85      1.23    270.88           RANKING
   1      4     15       -8.65      1.62    270.92           RANKING
   1      5     19       -8.64      1.04    270.81           RANKING
   1      6      3       -8.61      1.72    270.93           RANKING
   1      7     11       -8.60      1.66    270.86           RANKING
   1      8      1       -8.40      1.48    270.69           RANKING
   1      9     12       -8.38      1.49    270.98           RANKING
   1     10      4       -8.38      1.70    270.81           RANKING
   2      1     18       -8.42      0.00    270.58           RANKING
   3      1      9       -8.32      0.00    270.96           RANKING
   4      1     20       -7.51      0.00    270.63           RANKING
   4      2      2       -7.13      0.54    270.49           RANKING
   4      3     16       -6.96      0.92    270.33           RANKING
   4      4     10       -6.85      0.58    270.61           RANKING
   4      5     14       -6.85      0.80    270.63           RANKING
   4      6      6       -6.84      0.79    270.66           RANKING
   4      7     13       -6.50      0.73    270.61           RANKING
   5      1      5       -7.48      0.00    270.32           RANKING

Run time 1.340 sec
Idle time 0.000 sec
