REMARK SMILES O=C(CCCCCC(=O)c1nnc(-c2nc(=O)c(F)c[nH]2)o1)[N-]c1ccccc1
REMARK SMILES IDX 5 1 4 2 3 3 2 4 1 5 23 6 24 7 25 8 29 9 26 10 28 11 27 12
REMARK SMILES IDX 6 13 7 14 8 15 9 16 10 17 11 18 22 19 12 20 13 21 14 22
REMARK SMILES IDX 15 23 21 24 16 25 20 26 18 27 17 29 19 30
REMARK H PARENT 21 28
ROOT
ATOM      1  C   UNL     1       0.885   3.234   1.748  1.00  0.00     0.001 C 
ENDROOT
BRANCH   1   2
ATOM      2  C   UNL     1       0.421   4.123   0.577  1.00  0.00     0.006 C 
BRANCH   2   3
ATOM      3  C   UNL     1       0.940   3.639  -0.790  1.00  0.00     0.055 C 
BRANCH   3   4
ATOM      4  C   UNL     1       0.033   2.615  -1.406  1.00  0.00     0.054 C 
ATOM      5  O   UNL     1      -0.518   2.861  -2.511  1.00  0.00    -0.320 OA
BRANCH   4   6
ATOM      6  N   UNL     1      -0.230   1.386  -0.714  1.00  0.00    -0.627 NA
BRANCH   6   7
ATOM      7  C   UNL     1      -0.945   0.258  -1.232  1.00  0.00    -0.134 A 
ATOM      8  C   UNL     1      -0.902  -0.087  -2.594  1.00  0.00    -0.016 A 
ATOM      9  C   UNL     1      -1.661  -0.551  -0.341  1.00  0.00    -0.016 A 
ATOM     10  C   UNL     1      -1.580  -1.222  -3.052  1.00  0.00    -0.001 A 
ATOM     11  C   UNL     1      -2.366  -1.665  -0.809  1.00  0.00    -0.001 A 
ATOM     12  C   UNL     1      -2.318  -2.005  -2.162  1.00  0.00    -0.000 A 
ENDBRANCH   6   7
ENDBRANCH   4   6
ENDBRANCH   3   4
ENDBRANCH   2   3
ENDBRANCH   1   2
BRANCH   1  13
ATOM     13  C   UNL     1       2.346   3.512   2.172  1.00  0.00     0.008 C 
BRANCH  13  14
ATOM     14  C   UNL     1       3.180   2.227   2.317  1.00  0.00     0.086 C 
BRANCH  14  15
ATOM     15  C   UNL     1       3.717   1.778   0.985  1.00  0.00     0.219 C 
ATOM     16  O   UNL     1       4.636   2.443   0.435  1.00  0.00    -0.289 OA
BRANCH  15  17
ATOM     17  C   UNL     1       3.169   0.604   0.291  1.00  0.00     0.284 A 
ATOM     18  N   UNL     1       3.472   0.275  -0.980  1.00  0.00    -0.104 NA
ATOM     19  O   UNL     1       2.337  -0.259   0.822  1.00  0.00    -0.411 OA
ATOM     20  N   UNL     1       2.801  -0.835  -1.247  1.00  0.00    -0.104 NA
ATOM     21  C   UNL     1       2.119  -1.141  -0.125  1.00  0.00     0.284 A 
BRANCH  21  22
ATOM     22  C   UNL     1       1.245  -2.313   0.011  1.00  0.00     0.199 A 
ATOM     23  N   UNL     1       0.945  -3.061  -1.084  1.00  0.00    -0.183 NA
ATOM     24  N   UNL     1       0.730  -2.656   1.226  1.00  0.00    -0.339 N 
ATOM     25  C   UNL     1       0.130  -4.145  -0.994  1.00  0.00     0.309 A 
ATOM     26  C   UNL     1      -0.080  -3.741   1.357  1.00  0.00     0.129 A 
ATOM     27  C   UNL     1      -0.407  -4.508   0.239  1.00  0.00     0.206 A 
ATOM     28  H   UNL     1       0.959  -2.093   2.074  1.00  0.00     0.168 HD
ATOM     29  O   UNL     1      -0.141  -4.814  -2.027  1.00  0.00    -0.264 OA
ATOM     30  F   UNL     1      -1.223  -5.588   0.357  1.00  0.00    -0.199 F 
ENDBRANCH  21  22
ENDBRANCH  15  17
ENDBRANCH  14  15
ENDBRANCH  13  14
ENDBRANCH   1  13
TORSDOF 10
