REMARK SMILES O=C(CCCC/C=C(/O)Nc1ccccc1)c1nnc(-c2nc(=O)c(F)c[nH]2)o1
REMARK SMILES IDX 5 1 6 2 7 3 8 4 9 5 10 7 11 9 12 10 16 11 13 12 15 13 14 14
REMARK SMILES IDX 4 15 3 16 2 17 1 18 17 19 18 20 29 21 19 22 20 23 21 24
REMARK SMILES IDX 22 25 28 26 23 27 27 28 25 29 24 31 26 32
REMARK H PARENT 9 6 10 8 28 30
ROOT
ATOM      1  C   UNL     1       1.827  -2.885  -1.871  1.00  0.00     0.005 C 
ENDROOT
BRANCH   1   2
ATOM      2  C   UNL     1       0.736  -1.905  -2.332  1.00  0.00     0.033 C 
BRANCH   2   3
ATOM      3  C   UNL     1       1.341  -0.609  -2.813  1.00  0.00     0.039 C 
BRANCH   3   4
ATOM      4  C   UNL     1       0.899   0.613  -2.470  1.00  0.00     0.184 C 
BRANCH   4   5
ATOM      5  O   UNL     1       1.584   1.744  -2.914  1.00  0.00    -0.495 OA
ATOM      6  H   UNL     1       2.405   1.679  -3.506  1.00  0.00     0.295 HD
ENDBRANCH   4   5
BRANCH   4   7
ATOM      7  N   UNL     1      -0.244   0.804  -1.624  1.00  0.00    -0.327 N 
ATOM      8  H   UNL     1      -0.113   1.434  -0.802  1.00  0.00     0.170 HD
BRANCH   7   9
ATOM      9  C   UNL     1      -1.589   0.433  -1.982  1.00  0.00     0.041 A 
ATOM     10  C   UNL     1      -2.624   0.626  -1.052  1.00  0.00     0.026 A 
ATOM     11  C   UNL     1      -1.904  -0.088  -3.254  1.00  0.00     0.026 A 
ATOM     12  C   UNL     1      -3.940   0.277  -1.370  1.00  0.00     0.002 A 
ATOM     13  C   UNL     1      -3.222  -0.434  -3.568  1.00  0.00     0.002 A 
ATOM     14  C   UNL     1      -4.239  -0.255  -2.626  1.00  0.00     0.000 A 
ENDBRANCH   7   9
ENDBRANCH   4   7
ENDBRANCH   3   4
ENDBRANCH   2   3
ENDBRANCH   1   2
BRANCH   1  15
ATOM     15  C   UNL     1       2.485  -2.458  -0.540  1.00  0.00     0.009 C 
BRANCH  15  16
ATOM     16  C   UNL     1       1.989  -3.260   0.674  1.00  0.00     0.086 C 
BRANCH  16  17
ATOM     17  C   UNL     1       0.507  -3.137   0.890  1.00  0.00     0.219 C 
ATOM     18  O   UNL     1      -0.239  -4.125   0.651  1.00  0.00    -0.289 OA
BRANCH  17  19
ATOM     19  C   UNL     1      -0.089  -1.882   1.364  1.00  0.00     0.284 A 
ATOM     20  N   UNL     1      -1.397  -1.728   1.646  1.00  0.00    -0.104 NA
ATOM     21  O   UNL     1       0.574  -0.767   1.554  1.00  0.00    -0.411 OA
ATOM     22  N   UNL     1      -1.548  -0.468   2.024  1.00  0.00    -0.104 NA
ATOM     23  C   UNL     1      -0.327   0.097   1.953  1.00  0.00     0.284 A 
BRANCH  23  24
ATOM     24  C   UNL     1      -0.040   1.506   2.257  1.00  0.00     0.199 A 
ATOM     25  N   UNL     1       1.238   1.962   2.155  1.00  0.00    -0.183 NA
ATOM     26  N   UNL     1      -1.038   2.362   2.622  1.00  0.00    -0.339 N 
ATOM     27  C   UNL     1       1.544   3.260   2.413  1.00  0.00     0.309 A 
ATOM     28  C   UNL     1      -0.770   3.669   2.888  1.00  0.00     0.129 A 
ATOM     29  C   UNL     1       0.535   4.148   2.788  1.00  0.00     0.206 A 
ATOM     30  H   UNL     1      -2.024   2.026   2.700  1.00  0.00     0.168 HD
ATOM     31  O   UNL     1       2.735   3.654   2.312  1.00  0.00    -0.264 OA
ATOM     32  F   UNL     1       0.813   5.450   3.054  1.00  0.00    -0.199 F 
ENDBRANCH  23  24
ENDBRANCH  17  19
ENDBRANCH  16  17
ENDBRANCH  15  16
ENDBRANCH   1  15
TORSDOF 11
