REMARK SMILES c1cc(-c2ccc3nccn3n2)c2cc[nH]c2n1
REMARK SMILES IDX 1 1 2 2 3 3 13 4 14 5 15 6 16 7 17 8 18 9 4 11 5 12 12 13
REMARK SMILES IDX 6 14 11 15 7 16 10 17 8 18 9 19
REMARK H PARENT 16 10
ROOT
ATOM      1  C   UNL     1       1.639   2.663   1.989  1.00  0.00     0.114 A 
ATOM      2  C   UNL     1       0.711   1.861   1.290  1.00  0.00     0.031 A 
ATOM      3  C   UNL     1       1.160   0.920   0.338  1.00  0.00     0.014 A 
ATOM      4  C   UNL     1       2.548   0.819   0.157  1.00  0.00     0.028 A 
ATOM      5  C   UNL     1       3.331  -0.026  -0.609  1.00  0.00     0.030 A 
ATOM      6  C   UNL     1       4.647   0.332  -0.328  1.00  0.00     0.085 A 
ATOM      7  N   UNL     1       4.689   1.339   0.573  1.00  0.00    -0.346 N 
ATOM      8  C   UNL     1       3.409   1.616   0.860  1.00  0.00     0.137 A 
ATOM      9  N   UNL     1       2.980   2.528   1.766  1.00  0.00    -0.239 NA
ATOM     10  H   UNL     1       5.541   1.788   0.976  1.00  0.00     0.167 HD
ENDROOT
BRANCH   3  11
ATOM     11  C   UNL     1       0.189   0.084  -0.400  1.00  0.00     0.092 A 
ATOM     12  C   UNL     1       0.321  -0.151  -1.790  1.00  0.00     0.035 A 
ATOM     13  N   UNL     1      -0.887  -0.435   0.262  1.00  0.00    -0.166 NA
ATOM     14  C   UNL     1      -0.631  -0.932  -2.463  1.00  0.00     0.051 A 
ATOM     15  N   UNL     1      -1.771  -1.171  -0.408  1.00  0.00    -0.221 N 
ATOM     16  C   UNL     1      -1.685  -1.436  -1.714  1.00  0.00     0.153 A 
ATOM     17  C   UNL     1      -2.878  -1.768   0.044  1.00  0.00     0.135 A 
ATOM     18  N   UNL     1      -2.703  -2.197  -2.163  1.00  0.00    -0.236 NA
ATOM     19  C   UNL     1      -3.451  -2.404  -1.048  1.00  0.00     0.134 A 
ENDBRANCH   3  11
TORSDOF 1
