REMARK SMILES c1cc2c(-c3ccc4nccn4n3)cc[nH]c-2n1
REMARK SMILES IDX 15 1 14 2 4 3 3 4 2 5 1 6 18 7 17 8 16 9 5 11 6 12 13 13
REMARK SMILES IDX 7 14 12 15 8 16 11 17 9 18 10 19
REMARK H PARENT 16 10
ROOT
ATOM      1  C   UNL     1       1.223   0.662  -3.109  1.00  0.00     0.085 A 
ATOM      2  C   UNL     1       0.942  -0.061  -1.924  1.00  0.00     0.029 A 
ATOM      3  C   UNL     1       1.347   0.426  -0.660  1.00  0.00     0.014 A 
ATOM      4  C   UNL     1       2.014   1.654  -0.651  1.00  0.00     0.028 A 
ATOM      5  C   UNL     1       2.471   2.487   0.345  1.00  0.00     0.033 A 
ATOM      6  C   UNL     1       2.989   3.608  -0.305  1.00  0.00     0.114 A 
ATOM      7  N   UNL     1       2.868   3.535  -1.655  1.00  0.00    -0.239 NA
ATOM      8  C   UNL     1       2.275   2.350  -1.872  1.00  0.00     0.137 A 
ATOM      9  N   UNL     1       1.884   1.858  -3.070  1.00  0.00    -0.346 N 
ATOM     10  H   UNL     1       2.071   2.388  -3.950  1.00  0.00     0.167 HD
ENDROOT
BRANCH   3  11
ATOM     11  C   UNL     1       1.044  -0.337   0.570  1.00  0.00     0.092 A 
ATOM     12  C   UNL     1       1.993  -0.466   1.614  1.00  0.00     0.035 A 
ATOM     13  N   UNL     1      -0.161  -0.970   0.686  1.00  0.00    -0.166 NA
ATOM     14  C   UNL     1       1.679  -1.212   2.760  1.00  0.00     0.051 A 
ATOM     15  N   UNL     1      -0.425  -1.671   1.786  1.00  0.00    -0.221 N 
ATOM     16  C   UNL     1       0.427  -1.810   2.806  1.00  0.00     0.153 A 
ATOM     17  C   UNL     1      -1.529  -2.354   2.099  1.00  0.00     0.135 A 
ATOM     18  N   UNL     1      -0.068  -2.570   3.803  1.00  0.00    -0.236 NA
ATOM     19  C   UNL     1      -1.303  -2.909   3.350  1.00  0.00     0.134 A 
ENDBRANCH   3  11
TORSDOF 1
