REMARK SMILES O=C(CCCC/C=C(/O)c1nnc(-c2nc(=O)c(F)c[nH]2)o1)Nc1ccccc1
REMARK SMILES IDX 6 1 7 2 8 3 9 4 10 6 11 7 22 8 12 9 13 10 14 11 15 12 21 13
REMARK SMILES IDX 16 14 20 15 18 16 17 18 19 19 5 20 4 21 3 22 2 23 23 24 1 25
REMARK SMILES IDX 24 27 25 28 29 29 26 30 28 31 27 32
REMARK H PARENT 9 5 21 17 23 26
ROOT
ATOM      1  C   UNL     1       0.189   0.364  -0.525  1.00  0.00     0.031 C 
ENDROOT
BRANCH   1   2
ATOM      2  C   UNL     1      -0.557   1.663  -0.691  1.00  0.00     0.025 C 
BRANCH   2   3
ATOM      3  C   UNL     1      -1.501   2.148   0.140  1.00  0.00     0.176 C 
BRANCH   3   4
ATOM      4  O   UNL     1      -2.063   3.396  -0.134  1.00  0.00    -0.503 OA
ATOM      5  H   UNL     1      -1.782   3.953  -0.934  1.00  0.00     0.293 HD
ENDBRANCH   3   4
BRANCH   3   6
ATOM      6  C   UNL     1      -1.998   1.441   1.340  1.00  0.00     0.282 A 
ATOM      7  N   UNL     1      -2.842   2.000   2.230  1.00  0.00    -0.104 NA
ATOM      8  O   UNL     1      -1.705   0.210   1.685  1.00  0.00    -0.411 OA
ATOM      9  N   UNL     1      -3.073   1.085   3.157  1.00  0.00    -0.104 NA
ATOM     10  C   UNL     1      -2.363  -0.001   2.798  1.00  0.00     0.284 A 
BRANCH  10  11
ATOM     11  C   UNL     1      -2.330  -1.258   3.558  1.00  0.00     0.199 A 
ATOM     12  N   UNL     1      -3.064  -1.374   4.698  1.00  0.00    -0.183 NA
ATOM     13  N   UNL     1      -1.569  -2.307   3.132  1.00  0.00    -0.339 N 
ATOM     14  C   UNL     1      -3.057  -2.522   5.424  1.00  0.00     0.309 A 
ATOM     15  C   UNL     1      -1.536  -3.472   3.833  1.00  0.00     0.129 A 
ATOM     16  C   UNL     1      -2.285  -3.605   5.002  1.00  0.00     0.206 A 
ATOM     17  H   UNL     1      -0.999  -2.228   2.260  1.00  0.00     0.168 HD
ATOM     18  O   UNL     1      -3.746  -2.603   6.475  1.00  0.00    -0.264 OA
ATOM     19  F   UNL     1      -2.259  -4.763   5.708  1.00  0.00    -0.199 F 
ENDBRANCH  10  11
ENDBRANCH   3   6
ENDBRANCH   2   3
ENDBRANCH   1   2
BRANCH   1  20
ATOM     20  C   UNL     1       1.268   0.430   0.571  1.00  0.00     0.005 C 
BRANCH  20  21
ATOM     21  C   UNL     1       2.367   1.486   0.324  1.00  0.00     0.010 C 
BRANCH  21  22
ATOM     22  C   UNL     1       3.495   1.012  -0.609  1.00  0.00     0.100 C 
BRANCH  22  23
ATOM     23  C   UNL     1       3.089   1.022  -2.053  1.00  0.00     0.224 C 
ATOM     24  N   UNL     1       2.963  -0.214  -2.775  1.00  0.00    -0.326 N 
ATOM     25  O   UNL     1       2.826   2.122  -2.611  1.00  0.00    -0.275 OA
ATOM     26  H   UNL     1       2.952  -1.102  -2.223  1.00  0.00     0.169 HD
BRANCH  24  27
ATOM     27  C   UNL     1       2.674  -0.296  -4.181  1.00  0.00     0.041 A 
ATOM     28  C   UNL     1       1.860  -1.336  -4.656  1.00  0.00     0.026 A 
ATOM     29  C   UNL     1       3.233   0.612  -5.100  1.00  0.00     0.026 A 
ATOM     30  C   UNL     1       1.578  -1.446  -6.022  1.00  0.00     0.002 A 
ATOM     31  C   UNL     1       2.949   0.498  -6.464  1.00  0.00     0.002 A 
ATOM     32  C   UNL     1       2.119  -0.527  -6.925  1.00  0.00     0.000 A 
ENDBRANCH  24  27
ENDBRANCH  22  23
ENDBRANCH  21  22
ENDBRANCH  20  21
ENDBRANCH   1  20
TORSDOF 10
