REMARK SMILES O=C(CCCC/C=C(\O)c1nnc(-c2nc(=O)c(F)c[nH]2)o1)Nc1ccccc1
REMARK SMILES IDX 6 1 7 2 8 3 9 4 10 6 11 7 22 8 12 9 13 10 14 11 15 12 21 13
REMARK SMILES IDX 16 14 20 15 18 16 17 18 19 19 5 20 4 21 3 22 2 23 23 24 1 25
REMARK SMILES IDX 24 27 25 28 29 29 26 30 28 31 27 32
REMARK H PARENT 9 5 21 17 23 26
ROOT
ATOM      1  C   UNL     1       2.556   2.626   3.574  1.00  0.00     0.031 C 
ENDROOT
BRANCH   1   2
ATOM      2  C   UNL     1       2.841   1.599   2.511  1.00  0.00     0.025 C 
BRANCH   2   3
ATOM      3  C   UNL     1       2.534   1.791   1.221  1.00  0.00     0.176 C 
BRANCH   3   4
ATOM      4  O   UNL     1       1.974   3.002   0.813  1.00  0.00    -0.503 OA
ATOM      5  H   UNL     1       1.725   3.174  -0.153  1.00  0.00     0.293 HD
ENDBRANCH   3   4
BRANCH   3   6
ATOM      6  C   UNL     1       2.772   0.732   0.222  1.00  0.00     0.282 A 
ATOM      7  N   UNL     1       3.210  -0.511   0.506  1.00  0.00    -0.104 NA
ATOM      8  O   UNL     1       2.559   0.875  -1.064  1.00  0.00    -0.411 OA
ATOM      9  N   UNL     1       3.266  -1.160  -0.647  1.00  0.00    -0.104 NA
ATOM     10  C   UNL     1       2.861  -0.287  -1.589  1.00  0.00     0.284 A 
BRANCH  10  11
ATOM     11  C   UNL     1       2.753  -0.596  -3.022  1.00  0.00     0.199 A 
ATOM     12  N   UNL     1       2.367   0.381  -3.885  1.00  0.00    -0.183 NA
ATOM     13  N   UNL     1       3.008  -1.852  -3.490  1.00  0.00    -0.339 N 
ATOM     14  C   UNL     1       2.228   0.132  -5.213  1.00  0.00     0.309 A 
ATOM     15  C   UNL     1       2.880  -2.139  -4.813  1.00  0.00     0.129 A 
ATOM     16  C   UNL     1       2.484  -1.146  -5.708  1.00  0.00     0.206 A 
ATOM     17  H   UNL     1       3.299  -2.614  -2.837  1.00  0.00     0.168 HD
ATOM     18  O   UNL     1       1.868   1.056  -5.989  1.00  0.00    -0.264 OA
ATOM     19  F   UNL     1       2.352  -1.424  -7.030  1.00  0.00    -0.199 F 
ENDBRANCH  10  11
ENDBRANCH   3   6
ENDBRANCH   2   3
ENDBRANCH   1   2
BRANCH   1  20
ATOM     20  C   UNL     1       1.063   2.671   3.934  1.00  0.00     0.005 C 
BRANCH  20  21
ATOM     21  C   UNL     1       0.579   1.376   4.631  1.00  0.00     0.010 C 
BRANCH  21  22
ATOM     22  C   UNL     1      -0.660   0.763   3.965  1.00  0.00     0.100 C 
BRANCH  22  23
ATOM     23  C   UNL     1      -0.346   0.212   2.602  1.00  0.00     0.224 C 
ATOM     24  N   UNL     1      -0.868   0.852   1.426  1.00  0.00    -0.326 N 
ATOM     25  O   UNL     1       0.418  -0.787   2.506  1.00  0.00    -0.275 OA
ATOM     26  H   UNL     1      -1.281   1.805   1.538  1.00  0.00     0.169 HD
BRANCH  24  27
ATOM     27  C   UNL     1      -0.759   0.327   0.090  1.00  0.00     0.041 A 
ATOM     28  C   UNL     1      -0.718   1.217  -0.995  1.00  0.00     0.026 A 
ATOM     29  C   UNL     1      -0.756  -1.059  -0.164  1.00  0.00     0.026 A 
ATOM     30  C   UNL     1      -0.641   0.736  -2.305  1.00  0.00     0.002 A 
ATOM     31  C   UNL     1      -0.674  -1.535  -1.476  1.00  0.00     0.002 A 
ATOM     32  C   UNL     1      -0.616  -0.639  -2.546  1.00  0.00     0.000 A 
ENDBRANCH  24  27
ENDBRANCH  22  23
ENDBRANCH  21  22
ENDBRANCH  20  21
ENDBRANCH   1  20
TORSDOF 10
