REMARK SMILES [H]/N=c1\ncc(-c2ccc([C@](C)(c3ccc([C@@H](O)c4ccc(F)cc4)s3)c3cncn3C)cc2)c[nH]1
REMARK SMILES IDX 11 1 12 2 10 3 7 4 8 5 34 6 9 7 33 8 6 9 3 10 4 11 36 12
REMARK SMILES IDX 5 13 35 14 2 16 1 17 13 18 26 19 14 20 16 21 15 22 17 23
REMARK SMILES IDX 18 24 19 26 20 27 25 28 21 29 24 30 22 31 23 32 27 33 28 34
REMARK SMILES IDX 31 35 29 36 30 37 32 38
REMARK H PARENT 36 15 18 25
ROOT
ATOM      1  C   UNL     1       0.750   0.611  -1.771  1.00  0.00     0.068 C 
ATOM      2  C   UNL     1       1.148   0.050  -3.162  1.00  0.00     0.029 C 
ENDROOT
BRANCH   1   3
ATOM      3  C   UNL     1      -0.776   0.810  -1.683  1.00  0.00    -0.031 A 
ATOM      4  C   UNL     1      -3.589   1.077  -1.395  1.00  0.00    -0.015 A 
ATOM      5  C   UNL     1      -2.722   2.032  -0.843  1.00  0.00     0.009 A 
ATOM      6  C   UNL     1      -3.042  -0.027  -2.066  1.00  0.00     0.009 A 
ATOM      7  C   UNL     1      -1.338   1.893  -0.968  1.00  0.00     0.006 A 
ATOM      8  C   UNL     1      -1.658  -0.165  -2.198  1.00  0.00     0.006 A 
BRANCH   4   9
ATOM      9  C   UNL     1      -5.060   1.221  -1.252  1.00  0.00     0.016 A 
ATOM     10  C   UNL     1      -7.798   1.494  -0.975  1.00  0.00     0.219 A 
ATOM     11  N   UNL     1      -7.216   0.274  -0.834  1.00  0.00    -0.221 NA
ATOM     12  N   UNL     1      -7.030   2.583  -1.254  1.00  0.00    -0.331 N 
ATOM     13  C   UNL     1      -5.875   0.116  -0.967  1.00  0.00     0.125 A 
ATOM     14  C   UNL     1      -5.683   2.470  -1.393  1.00  0.00     0.096 A 
ATOM     15  H   UNL     1      -7.474   3.523  -1.365  1.00  0.00     0.169 HD
BRANCH  10  16
ATOM     16  N   UNL     1      -9.080   1.620  -0.843  1.00  0.00    -0.267 NA
ATOM     17  H   UNL     1      -9.691   0.801  -0.627  1.00  0.00     0.191 HD
ENDBRANCH  10  16
ENDBRANCH   4   9
ENDBRANCH   1   3
BRANCH   1  18
ATOM     18  C   UNL     1       1.166  -0.395  -0.700  1.00  0.00     0.021 A 
ATOM     19  S   UNL     1       2.540  -1.378  -0.752  1.00  0.00    -0.141 S 
ATOM     20  C   UNL     1       0.584  -0.554   0.561  1.00  0.00     0.017 A 
ATOM     21  C   UNL     1       2.389  -2.017   0.796  1.00  0.00     0.038 A 
ATOM     22  C   UNL     1       1.243  -1.481   1.376  1.00  0.00     0.019 A 
BRANCH  21  23
ATOM     23  C   UNL     1       3.275  -3.087   1.390  1.00  0.00     0.185 C 
BRANCH  23  24
ATOM     24  O   UNL     1       4.534  -3.111   0.764  1.00  0.00    -0.383 OA
ATOM     25  H   UNL     1       4.968  -2.229   0.913  1.00  0.00     0.211 HD
ENDBRANCH  23  24
BRANCH  23  26
ATOM     26  C   UNL     1       3.439  -2.936   2.892  1.00  0.00    -0.014 A 
ATOM     27  C   UNL     1       3.853  -1.713   3.456  1.00  0.00     0.010 A 
ATOM     28  C   UNL     1       3.206  -4.034   3.740  1.00  0.00     0.010 A 
ATOM     29  C   UNL     1       4.008  -1.589   4.839  1.00  0.00     0.039 A 
ATOM     30  C   UNL     1       3.364  -3.906   5.123  1.00  0.00     0.039 A 
ATOM     31  C   UNL     1       3.763  -2.684   5.673  1.00  0.00     0.123 A 
ATOM     32  F   UNL     1       3.918  -2.563   7.015  1.00  0.00    -0.207 F 
ENDBRANCH  23  26
ENDBRANCH  21  23
ENDBRANCH   1  18
BRANCH   1  33
ATOM     33  C   UNL     1       1.507   1.933  -1.571  1.00  0.00     0.053 A 
ATOM     34  C   UNL     1       2.428   2.217  -0.572  1.00  0.00     0.135 A 
ATOM     35  N   UNL     1       1.400   3.043  -2.341  1.00  0.00    -0.337 N 
ATOM     36  N   UNL     1       2.898   3.470  -0.726  1.00  0.00    -0.245 NA
ATOM     37  C   UNL     1       2.257   3.940  -1.813  1.00  0.00     0.199 A 
ATOM     38  C   UNL     1       0.618   3.256  -3.557  1.00  0.00     0.151 C 
ENDBRANCH   1  33
TORSDOF 8
