REMARK SMILES Cn1cncc1[C@@](C)(c1ccc(-c2cnc(N)nc2)cc1)c1ccc([C@H](O)c2ccc(F)cc2)s1
REMARK SMILES IDX 7 1 8 2 6 3 2 4 3 5 4 6 5 7 1 8 9 9 10 10 21 11 11 12 20 13
REMARK SMILES IDX 12 14 13 15 14 16 19 17 15 18 18 19 16 20 17 21 22 24 23 25
REMARK SMILES IDX 35 26 24 27 25 28 26 29 27 30 28 32 29 33 34 34 30 35 33 36
REMARK SMILES IDX 31 37 32 38
REMARK H PARENT 17 22 17 23 27 31
ROOT
ATOM      1  C   UNL     1       1.630  -1.057   0.483  1.00  0.00     0.068 C 
ATOM      2  C   UNL     1       2.879  -1.308  -0.405  1.00  0.00     0.029 C 
ENDROOT
BRANCH   1   3
ATOM      3  C   UNL     1       1.973  -1.525   1.906  1.00  0.00     0.053 A 
ATOM      4  N   UNL     1       2.304  -2.785   2.277  1.00  0.00    -0.337 N 
ATOM      5  C   UNL     1       2.531  -2.728   3.604  1.00  0.00     0.199 A 
ATOM      6  N   UNL     1       2.342  -1.495   4.113  1.00  0.00    -0.245 NA
ATOM      7  C   UNL     1       1.990  -0.743   3.053  1.00  0.00     0.135 A 
ATOM      8  C   UNL     1       2.500  -3.974   1.450  1.00  0.00     0.151 C 
ENDBRANCH   1   3
BRANCH   1   9
ATOM      9  C   UNL     1       0.404  -1.805  -0.078  1.00  0.00    -0.031 A 
ATOM     10  C   UNL     1      -0.575  -2.357   0.779  1.00  0.00     0.006 A 
ATOM     11  C   UNL     1       0.160  -1.847  -1.467  1.00  0.00     0.006 A 
ATOM     12  C   UNL     1      -1.707  -2.992   0.263  1.00  0.00     0.009 A 
ATOM     13  C   UNL     1      -0.974  -2.481  -1.981  1.00  0.00     0.009 A 
ATOM     14  C   UNL     1      -1.916  -3.069  -1.122  1.00  0.00    -0.015 A 
BRANCH  14  15
ATOM     15  C   UNL     1      -3.121  -3.745  -1.668  1.00  0.00     0.019 A 
ATOM     16  C   UNL     1      -3.617  -4.924  -1.090  1.00  0.00     0.125 A 
ATOM     17  C   UNL     1      -3.805  -3.230  -2.780  1.00  0.00     0.125 A 
ATOM     18  N   UNL     1      -4.719  -5.526  -1.606  1.00  0.00    -0.221 NA
ATOM     19  N   UNL     1      -4.906  -3.865  -3.260  1.00  0.00    -0.221 NA
ATOM     20  C   UNL     1      -5.364  -5.006  -2.682  1.00  0.00     0.219 A 
BRANCH  20  21
ATOM     21  N   UNL     1      -6.521  -5.655  -3.203  1.00  0.00    -0.368 N 
ATOM     22  H   UNL     1      -6.881  -6.529  -2.761  1.00  0.00     0.159 HD
ATOM     23  H   UNL     1      -7.019  -5.262  -4.033  1.00  0.00     0.159 HD
ENDBRANCH  20  21
ENDBRANCH  14  15
ENDBRANCH   1   9
BRANCH   1  24
ATOM     24  C   UNL     1       1.322   0.438   0.486  1.00  0.00     0.021 A 
ATOM     25  C   UNL     1       0.082   1.029   0.747  1.00  0.00     0.017 A 
ATOM     26  S   UNL     1       2.462   1.681   0.377  1.00  0.00    -0.141 S 
ATOM     27  C   UNL     1       0.119   2.427   0.799  1.00  0.00     0.019 A 
ATOM     28  C   UNL     1       1.394   2.956   0.622  1.00  0.00     0.038 A 
BRANCH  28  29
ATOM     29  C   UNL     1       1.778   4.413   0.565  1.00  0.00     0.185 C 
BRANCH  29  30
ATOM     30  O   UNL     1       1.265   5.139   1.657  1.00  0.00    -0.383 OA
ATOM     31  H   UNL     1       0.282   5.018   1.689  1.00  0.00     0.211 HD
ENDBRANCH  29  30
BRANCH  29  32
ATOM     32  C   UNL     1       1.377   5.031  -0.760  1.00  0.00    -0.014 A 
ATOM     33  C   UNL     1       0.030   5.319  -1.059  1.00  0.00     0.010 A 
ATOM     34  C   UNL     1       2.357   5.277  -1.740  1.00  0.00     0.010 A 
ATOM     35  C   UNL     1      -0.320   5.861  -2.299  1.00  0.00     0.039 A 
ATOM     36  C   UNL     1       2.001   5.819  -2.980  1.00  0.00     0.039 A 
ATOM     37  C   UNL     1       0.664   6.113  -3.258  1.00  0.00     0.123 A 
ATOM     38  F   UNL     1       0.321   6.637  -4.460  1.00  0.00    -0.207 F 
ENDBRANCH  29  32
ENDBRANCH  28  29
ENDBRANCH   1  24
TORSDOF 8
