REMARK SMILES CCCCCCCn1nnc(-c2nnn(C)c2-c2ccc(F)cc2)n1
REMARK SMILES IDX 6 1 5 2 4 3 3 4 2 5 1 6 7 7 8 8 9 9 25 10 10 11 11 12 12 13
REMARK SMILES IDX 13 14 17 15 14 16 15 17 16 18 18 19 19 20 24 21 20 22 23 23
REMARK SMILES IDX 21 24 22 25
REMARK H PARENT
ROOT
ATOM      1  C   UNL     1      -2.493   1.181  -3.551  1.00  0.00     0.026 C 
ENDROOT
BRANCH   1   2
ATOM      2  C   UNL     1      -3.238   1.323  -2.207  1.00  0.00     0.002 C 
BRANCH   2   3
ATOM      3  C   UNL     1      -2.948   0.150  -1.251  1.00  0.00     0.000 C 
BRANCH   3   4
ATOM      4  C   UNL     1      -3.349   0.447   0.206  1.00  0.00    -0.000 C 
BRANCH   4   5
ATOM      5  C   UNL     1      -4.845   0.743   0.411  1.00  0.00    -0.003 C 
ATOM      6  C   UNL     1      -5.741  -0.445   0.063  1.00  0.00     0.004 C 
ENDBRANCH   4   5
ENDBRANCH   3   4
ENDBRANCH   2   3
ENDBRANCH   1   2
BRANCH   1   7
ATOM      7  C   UNL     1      -1.191   1.995  -3.611  1.00  0.00     0.170 C 
BRANCH   7   8
ATOM      8  N   UNL     1      -0.261   1.581  -2.567  1.00  0.00    -0.164 N 
ATOM      9  N   UNL     1      -0.155   2.174  -1.390  1.00  0.00    -0.047 NA
ATOM     10  N   UNL     1       0.481   0.488  -2.621  1.00  0.00    -0.129 NA
ATOM     11  N   UNL     1       0.679   1.479  -0.635  1.00  0.00    -0.106 NA
ATOM     12  C   UNL     1       1.060   0.439  -1.406  1.00  0.00     0.227 A 
BRANCH  12  13
ATOM     13  C   UNL     1       1.965  -0.631  -0.969  1.00  0.00     0.162 A 
ATOM     14  N   UNL     1       2.648  -1.429  -1.814  1.00  0.00    -0.126 NA
ATOM     15  C   UNL     1       2.304  -0.983   0.326  1.00  0.00     0.100 A 
ATOM     16  N   UNL     1       3.380  -2.244  -1.066  1.00  0.00    -0.066 NA
ATOM     17  N   UNL     1       3.184  -1.999   0.220  1.00  0.00    -0.247 N 
ATOM     18  C   UNL     1       3.833  -2.740   1.296  1.00  0.00     0.176 C 
BRANCH  15  19
ATOM     19  C   UNL     1       1.724  -0.471   1.586  1.00  0.00     0.002 A 
ATOM     20  C   UNL     1       0.329  -0.416   1.748  1.00  0.00     0.013 A 
ATOM     21  C   UNL     1       2.557  -0.045   2.634  1.00  0.00     0.013 A 
ATOM     22  C   UNL     1      -0.224   0.067   2.938  1.00  0.00     0.040 A 
ATOM     23  C   UNL     1       2.000   0.434   3.824  1.00  0.00     0.040 A 
ATOM     24  C   UNL     1       0.611   0.491   3.976  1.00  0.00     0.123 A 
ATOM     25  F   UNL     1       0.074   0.957   5.131  1.00  0.00    -0.207 F 
ENDBRANCH  15  19
ENDBRANCH  12  13
ENDBRANCH   7   8
ENDBRANCH   1   7
TORSDOF 8
