REMARK SMILES Cc1ccc2[nH]/c(=N\C(=O)CSc3nnnn3-c3ccccc3)sc2c1
REMARK SMILES IDX 11 1 12 2 13 3 17 4 16 5 15 6 14 7 18 8 21 9 20 10 22 11
REMARK SMILES IDX 19 12 23 13 9 14 10 15 8 16 7 17 24 18 6 19 25 20 5 21 26 22
REMARK SMILES IDX 4 23 2 24 3 25 1 27
REMARK H PARENT 6 26
ROOT
ATOM      1  C   UNL     1      -1.321  -0.852   1.294  1.00  0.00     0.180 C 
ENDROOT
BRANCH   1   2
ATOM      2  S   UNL     1      -2.500   0.501   0.950  1.00  0.00    -0.074 SA
BRANCH   2   3
ATOM      3  C   UNL     1      -2.549   1.103   2.642  1.00  0.00     0.214 A 
ATOM      4  N   UNL     1      -3.519   0.863   3.547  1.00  0.00    -0.187 N 
ATOM      5  N   UNL     1      -3.211   1.585   4.609  1.00  0.00    -0.039 NA
ATOM      6  N   UNL     1      -2.082   2.237   4.372  1.00  0.00    -0.022 NA
ATOM      7  N   UNL     1      -1.648   1.963   3.149  1.00  0.00    -0.101 NA
BRANCH   4   8
ATOM      8  C   UNL     1      -4.726   0.092   3.418  1.00  0.00     0.069 A 
ATOM      9  C   UNL     1      -7.101  -1.397   3.211  1.00  0.00     0.000 A 
ATOM     10  C   UNL     1      -7.100  -0.173   3.885  1.00  0.00     0.002 A 
ATOM     11  C   UNL     1      -5.917  -1.886   2.652  1.00  0.00     0.002 A 
ATOM     12  C   UNL     1      -5.918   0.565   3.995  1.00  0.00     0.028 A 
ATOM     13  C   UNL     1      -4.733  -1.151   2.760  1.00  0.00     0.028 A 
ENDBRANCH   4   8
ENDBRANCH   2   3
ENDBRANCH   1   2
BRANCH   1  14
ATOM     14  C   UNL     1       0.049  -0.457   0.847  1.00  0.00     0.258 C 
ATOM     15  O   UNL     1       0.670   0.435   1.483  1.00  0.00    -0.272 OA
BRANCH  14  16
ATOM     16  N   UNL     1       0.611  -1.096  -0.312  1.00  0.00    -0.185 NA
BRANCH  16  17
ATOM     17  C   UNL     1       1.775  -0.924  -0.872  1.00  0.00     0.191 A 
ATOM     18  S   UNL     1       2.254  -1.798  -2.237  1.00  0.00    -0.097 S 
ATOM     19  N   UNL     1       2.742  -0.066  -0.448  1.00  0.00    -0.330 N 
ATOM     20  C   UNL     1       3.756  -1.048  -2.283  1.00  0.00     0.054 A 
ATOM     21  C   UNL     1       3.845  -0.141  -1.239  1.00  0.00     0.058 A 
ATOM     22  C   UNL     1       4.808  -1.264  -3.170  1.00  0.00     0.024 A 
ATOM     23  C   UNL     1       5.011   0.603  -1.052  1.00  0.00     0.028 A 
ATOM     24  C   UNL     1       5.988  -0.512  -3.003  1.00  0.00    -0.050 A 
ATOM     25  C   UNL     1       6.088   0.409  -1.934  1.00  0.00     0.005 A 
ATOM     26  H   UNL     1       2.689   0.575   0.371  1.00  0.00     0.169 HD
ATOM     27  C   UNL     1       7.166  -0.752  -3.901  1.00  0.00     0.044 C 
ENDBRANCH  16  17
ENDBRANCH  14  16
ENDBRANCH   1  14
TORSDOF 6
