REMARK SMILES Cc1ccc2[n-]/c(=N\C(=O)CSc3nnnn3-c3ccccc3)sc2c1
REMARK SMILES IDX 11 1 12 2 13 3 17 4 16 5 15 6 14 7 18 8 21 9 20 10 22 11
REMARK SMILES IDX 19 12 23 13 9 14 10 15 8 16 7 17 6 18 24 19 5 20 25 21 4 22
REMARK SMILES IDX 26 23 3 24 2 25 1 26
REMARK H PARENT
ROOT
ATOM      1  C   UNL     1      -1.937  -1.883   3.200  1.00  0.00     0.154 C 
ENDROOT
BRANCH   1   2
ATOM      2  S   UNL     1      -2.765  -0.383   3.826  1.00  0.00    -0.076 SA
BRANCH   2   3
ATOM      3  C   UNL     1      -3.743  -0.104   2.343  1.00  0.00     0.214 A 
ATOM      4  N   UNL     1      -3.394   0.636   1.268  1.00  0.00    -0.187 N 
ATOM      5  N   UNL     1      -4.381   0.492   0.400  1.00  0.00    -0.039 NA
ATOM      6  N   UNL     1      -5.308  -0.295   0.924  1.00  0.00    -0.022 NA
ATOM      7  N   UNL     1      -4.938  -0.685   2.136  1.00  0.00    -0.101 NA
BRANCH   4   8
ATOM      8  C   UNL     1      -2.207   1.409   1.010  1.00  0.00     0.069 A 
ATOM      9  C   UNL     1       0.107   2.907   0.458  1.00  0.00     0.000 A 
ATOM     10  C   UNL     1      -0.380   2.829   1.765  1.00  0.00     0.002 A 
ATOM     11  C   UNL     1      -0.571   2.264  -0.578  1.00  0.00     0.002 A 
ATOM     12  C   UNL     1      -1.537   2.094   2.040  1.00  0.00     0.028 A 
ATOM     13  C   UNL     1      -1.725   1.523  -0.306  1.00  0.00     0.028 A 
ENDBRANCH   4   8
ENDBRANCH   2   3
ENDBRANCH   1   2
BRANCH   1  14
ATOM     14  C   UNL     1      -0.790  -1.507   2.321  1.00  0.00     0.158 C 
ATOM     15  O   UNL     1       0.230  -0.969   2.833  1.00  0.00    -0.298 OA
BRANCH  14  16
ATOM     16  N   UNL     1      -0.874  -1.747   0.909  1.00  0.00    -0.395 NA
BRANCH  16  17
ATOM     17  C   UNL     1      -0.025  -1.334   0.016  1.00  0.00     0.001 A 
ATOM     18  N   UNL     1       1.064  -0.575   0.297  1.00  0.00    -0.426 NA
ATOM     19  S   UNL     1      -0.209  -1.630  -1.639  1.00  0.00    -0.145 S 
ATOM     20  C   UNL     1       1.728  -0.253  -0.842  1.00  0.00    -0.023 A 
ATOM     21  C   UNL     1       1.171  -0.748  -2.010  1.00  0.00     0.030 A 
ATOM     22  C   UNL     1       2.872   0.543  -0.887  1.00  0.00     0.005 A 
ATOM     23  C   UNL     1       1.721  -0.483  -3.261  1.00  0.00     0.022 A 
ATOM     24  C   UNL     1       3.449   0.826  -2.136  1.00  0.00     0.004 A 
ATOM     25  C   UNL     1       2.888   0.305  -3.325  1.00  0.00    -0.050 A 
ATOM     26  C   UNL     1       3.489   0.650  -4.655  1.00  0.00     0.044 C 
ENDBRANCH  16  17
ENDBRANCH  14  16
ENDBRANCH   1  14
TORSDOF 6
