REMARK SMILES Cc1ccc2nc(/N=C(/O)CSc3nnnn3-c3ccccc3)sc2c1
REMARK SMILES IDX 9 1 10 2 8 4 7 5 6 6 24 7 5 8 25 9 4 10 26 11 3 12 2 13 1 14
REMARK SMILES IDX 11 15 12 16 13 17 14 18 17 19 15 20 16 21 18 22 19 23 23 24
REMARK SMILES IDX 20 25 22 26 21 27
REMARK H PARENT 10 3
ROOT
ATOM      1  C   UNL     1      -0.755   1.020   2.089  1.00  0.00     0.198 C 
ENDROOT
BRANCH   1   2
ATOM      2  O   UNL     1      -1.092   1.982   3.039  1.00  0.00    -0.496 OA
ATOM      3  H   UNL     1      -1.948   1.912   3.577  1.00  0.00     0.295 HD
ENDBRANCH   1   2
BRANCH   1   4
ATOM      4  N   UNL     1      -1.571   0.019   1.898  1.00  0.00    -0.187 NA
BRANCH   4   5
ATOM      5  C   UNL     1      -1.457  -1.088   0.991  1.00  0.00     0.213 A 
ATOM      6  N   UNL     1      -0.405  -1.309   0.164  1.00  0.00    -0.218 NA
ATOM      7  S   UNL     1      -2.649  -2.280   0.849  1.00  0.00    -0.095 S 
ATOM      8  C   UNL     1      -0.592  -2.436  -0.567  1.00  0.00     0.084 A 
ATOM      9  C   UNL     1      -1.780  -3.107  -0.325  1.00  0.00     0.057 A 
ATOM     10  C   UNL     1       0.317  -2.927  -1.503  1.00  0.00     0.030 A 
ATOM     11  C   UNL     1      -2.116  -4.281  -0.992  1.00  0.00     0.024 A 
ATOM     12  C   UNL     1       0.004  -4.111  -2.193  1.00  0.00     0.006 A 
ATOM     13  C   UNL     1      -1.216  -4.785  -1.953  1.00  0.00    -0.050 A 
ATOM     14  C   UNL     1      -1.519  -6.070  -2.664  1.00  0.00     0.044 C 
ENDBRANCH   4   5
ENDBRANCH   1   4
BRANCH   1  15
ATOM     15  C   UNL     1       0.529   1.211   1.330  1.00  0.00     0.175 C 
BRANCH  15  16
ATOM     16  S   UNL     1       0.198   1.763  -0.382  1.00  0.00    -0.074 SA
BRANCH  16  17
ATOM     17  C   UNL     1      -0.124   3.473   0.065  1.00  0.00     0.214 A 
ATOM     18  N   UNL     1      -1.313   3.907   0.519  1.00  0.00    -0.101 NA
ATOM     19  N   UNL     1       0.712   4.517  -0.114  1.00  0.00    -0.187 N 
ATOM     20  N   UNL     1      -1.185   5.222   0.623  1.00  0.00    -0.022 NA
ATOM     21  N   UNL     1       0.026   5.591   0.234  1.00  0.00    -0.039 NA
BRANCH  19  22
ATOM     22  C   UNL     1       2.032   4.554  -0.684  1.00  0.00     0.069 A 
ATOM     23  C   UNL     1       2.396   5.620  -1.525  1.00  0.00     0.028 A 
ATOM     24  C   UNL     1       2.986   3.564  -0.388  1.00  0.00     0.028 A 
ATOM     25  C   UNL     1       3.678   5.679  -2.081  1.00  0.00     0.002 A 
ATOM     26  C   UNL     1       4.267   3.627  -0.945  1.00  0.00     0.002 A 
ATOM     27  C   UNL     1       4.611   4.681  -1.794  1.00  0.00     0.000 A 
ENDBRANCH  19  22
ENDBRANCH  16  17
ENDBRANCH  15  16
ENDBRANCH   1  15
TORSDOF 7
