REMARK SMILES Cc1ccc2nc(NC(=O)CSc3nnnn3-c3ccccc3)sc2c1
REMARK SMILES IDX 11 1 9 2 8 3 10 5 7 6 2 7 3 8 26 9 4 10 25 11 5 12 24 13
REMARK SMILES IDX 6 14 1 15 12 16 13 17 14 18 17 19 15 20 16 21 18 22 19 23
REMARK SMILES IDX 23 24 20 25 22 26 21 27
REMARK H PARENT 8 4
ROOT
ATOM      1  C   UNL     1       4.148   0.793  -0.535  1.00  0.00     0.178 C 
ENDROOT
BRANCH   1   2
ATOM      2  C   UNL     1       2.759   0.460  -0.979  1.00  0.00     0.236 C 
ATOM      3  N   UNL     1       1.924  -0.385  -0.171  1.00  0.00    -0.301 N 
ATOM      4  H   UNL     1       2.332  -0.814   0.689  1.00  0.00     0.172 HD
ATOM      5  O   UNL     1       2.327   0.949  -2.058  1.00  0.00    -0.274 OA
BRANCH   3   6
ATOM      6  C   UNL     1       0.537  -0.619  -0.439  1.00  0.00     0.190 A 
ATOM      7  C   UNL     1      -4.109  -1.204  -1.103  1.00  0.00    -0.050 A 
ATOM      8  C   UNL     1      -3.742  -0.360  -2.176  1.00  0.00     0.006 A 
ATOM      9  C   UNL     1      -3.129  -1.641  -0.189  1.00  0.00     0.024 A 
ATOM     10  C   UNL     1      -2.408   0.049  -2.342  1.00  0.00     0.030 A 
ATOM     11  C   UNL     1      -1.816  -1.221  -0.380  1.00  0.00     0.057 A 
ATOM     12  C   UNL     1      -1.452  -0.394  -1.429  1.00  0.00     0.084 A 
ATOM     13  S   UNL     1      -0.463  -1.557   0.556  1.00  0.00    -0.097 S 
ATOM     14  N   UNL     1      -0.140  -0.050  -1.467  1.00  0.00    -0.220 NA
ATOM     15  C   UNL     1      -5.543  -1.609  -0.936  1.00  0.00     0.044 C 
ENDBRANCH   3   6
ENDBRANCH   1   2
BRANCH   1  16
ATOM     16  S   UNL     1       4.234   2.528   0.024  1.00  0.00    -0.074 SA
BRANCH  16  17
ATOM     17  C   UNL     1       3.504   2.216   1.638  1.00  0.00     0.214 A 
ATOM     18  N   UNL     1       4.220   1.801   2.698  1.00  0.00    -0.101 NA
ATOM     19  N   UNL     1       2.195   2.290   1.963  1.00  0.00    -0.187 N 
ATOM     20  N   UNL     1       3.333   1.619   3.665  1.00  0.00    -0.022 NA
ATOM     21  N   UNL     1       2.118   1.904   3.225  1.00  0.00    -0.039 NA
BRANCH  19  22
ATOM     22  C   UNL     1       1.053   2.646   1.162  1.00  0.00     0.069 A 
ATOM     23  C   UNL     1      -0.188   2.033   1.412  1.00  0.00     0.028 A 
ATOM     24  C   UNL     1       1.136   3.629   0.160  1.00  0.00     0.028 A 
ATOM     25  C   UNL     1      -1.308   2.358   0.641  1.00  0.00     0.002 A 
ATOM     26  C   UNL     1       0.013   3.948  -0.612  1.00  0.00     0.002 A 
ATOM     27  C   UNL     1      -1.205   3.307  -0.377  1.00  0.00     0.000 A 
ENDBRANCH  19  22
ENDBRANCH  16  17
ENDBRANCH   1  16
TORSDOF 5
