REMARK SMILES O=C([N-]C/C(O)=[N+]1\C[C@H](O)C[C@H]1COCc1ccccc1)c1ccc2cc(Cl)ccc2n1
REMARK SMILES IDX 5 1 6 2 7 4 8 5 12 6 9 7 11 8 13 9 14 10 15 11 16 12 17 13
REMARK SMILES IDX 21 14 18 15 20 16 19 17 10 18 4 20 3 21 2 22 1 23 22 24
REMARK SMILES IDX 32 25 23 26 31 27 24 28 30 29 25 30 29 31 26 32 27 33 28 34
REMARK H PARENT 6 3 10 19
ROOT
ATOM      1  C   UNL     1      -2.509  -2.062   1.192  1.00  0.00     0.316 C 
ENDROOT
BRANCH   1   2
ATOM      2  O   UNL     1      -2.240  -2.105   2.565  1.00  0.00    -0.465 OA
ATOM      3  H   UNL     1      -1.637  -2.784   3.007  1.00  0.00     0.299 HD
ENDBRANCH   1   2
BRANCH   1   4
ATOM      4  N   UNL     1      -1.911  -2.870   0.340  1.00  0.00    -0.196 N 
ATOM      5  C   UNL     1      -2.273  -2.964  -1.074  1.00  0.00     0.386 C 
ATOM      6  C   UNL     1      -0.869  -3.840   0.688  1.00  0.00     0.292 C 
ATOM      7  C   UNL     1      -1.383  -4.053  -1.670  1.00  0.00     0.186 C 
ATOM      8  C   UNL     1      -0.868  -4.840  -0.470  1.00  0.00     0.117 C 
BRANCH   6   9
ATOM      9  C   UNL     1       0.508  -3.153   0.802  1.00  0.00     0.236 C 
BRANCH   9  10
ATOM     10  O   UNL     1       0.460  -2.105   1.745  1.00  0.00    -0.370 OA
BRANCH  10  11
ATOM     11  C   UNL     1       1.749  -1.553   1.912  1.00  0.00     0.196 C 
BRANCH  11  12
ATOM     12  C   UNL     1       1.655  -0.357   2.816  1.00  0.00    -0.022 A 
ATOM     13  C   UNL     1       1.861   0.940   2.317  1.00  0.00     0.006 A 
ATOM     14  C   UNL     1       1.338  -0.530   4.173  1.00  0.00     0.006 A 
ATOM     15  C   UNL     1       1.774   2.045   3.170  1.00  0.00     0.000 A 
ATOM     16  C   UNL     1       1.243   0.578   5.021  1.00  0.00     0.000 A 
ATOM     17  C   UNL     1       1.463   1.864   4.520  1.00  0.00     0.000 A 
ENDBRANCH  11  12
ENDBRANCH  10  11
ENDBRANCH   9  10
ENDBRANCH   6   9
BRANCH   7  18
ATOM     18  O   UNL     1      -2.101  -4.889  -2.538  1.00  0.00    -0.386 OA
ATOM     19  H   UNL     1      -2.247  -4.369  -3.371  1.00  0.00     0.211 HD
ENDBRANCH   7  18
ENDBRANCH   1   4
BRANCH   1  20
ATOM     20  C   UNL     1      -3.492  -1.018   0.734  1.00  0.00     0.039 C 
BRANCH  20  21
ATOM     21  N   UNL     1      -2.781   0.083   0.095  1.00  0.00    -0.637 NA
BRANCH  21  22
ATOM     22  C   UNL     1      -1.982   1.027   0.815  1.00  0.00     0.101 C 
ATOM     23  O   UNL     1      -1.983   1.026   2.077  1.00  0.00    -0.313 OA
BRANCH  22  24
ATOM     24  C   UNL     1      -1.155   1.994   0.073  1.00  0.00     0.088 A 
ATOM     25  N   UNL     1      -1.028   1.865  -1.277  1.00  0.00    -0.246 NA
ATOM     26  C   UNL     1      -0.485   3.037   0.734  1.00  0.00     0.031 A 
ATOM     27  C   UNL     1      -0.262   2.711  -2.015  1.00  0.00     0.071 A 
ATOM     28  C   UNL     1       0.314   3.918   0.004  1.00  0.00     0.013 A 
ATOM     29  C   UNL     1      -0.160   2.539  -3.400  1.00  0.00     0.030 A 
ATOM     30  C   UNL     1       0.437   3.763  -1.382  1.00  0.00     0.002 A 
ATOM     31  C   UNL     1       0.633   3.408  -4.156  1.00  0.00     0.023 A 
ATOM     32  C   UNL     1       1.233   4.629  -2.145  1.00  0.00     0.030 A 
ATOM     33  C   UNL     1       1.331   4.449  -3.531  1.00  0.00     0.041 A 
ATOM     34  Cl  UNL     1       2.326   5.532  -4.486  1.00  0.00    -0.084 Cl
ENDBRANCH  22  24
ENDBRANCH  21  22
ENDBRANCH  20  21
ENDBRANCH   1  20
TORSDOF 11
