REMARK SMILES O=C([N-]C/C(O)=[N+]1/C[C@H](O)C[C@H]1COCc1ccccc1)c1ccc2cc(Cl)ccc2n1
REMARK SMILES IDX 5 1 6 2 7 4 8 5 12 6 9 7 11 8 13 9 14 10 15 11 16 12 17 13
REMARK SMILES IDX 21 14 18 15 20 16 19 17 10 18 4 20 3 21 2 22 1 23 22 24
REMARK SMILES IDX 32 25 23 26 31 27 24 28 30 29 25 30 29 31 26 32 27 33 28 34
REMARK H PARENT 6 3 10 19
ROOT
ATOM      1  C   UNL     1       0.711   0.363   3.555  1.00  0.00     0.316 C 
ENDROOT
BRANCH   1   2
ATOM      2  O   UNL     1       1.508   0.467   4.707  1.00  0.00    -0.465 OA
ATOM      3  H   UNL     1       1.842  -0.330   5.234  1.00  0.00     0.299 HD
ENDBRANCH   1   2
BRANCH   1   4
ATOM      4  N   UNL     1       0.485  -0.802   2.985  1.00  0.00    -0.196 N 
ATOM      5  C   UNL     1       1.188  -2.017   3.390  1.00  0.00     0.386 C 
ATOM      6  C   UNL     1      -0.349  -1.031   1.793  1.00  0.00     0.292 C 
ATOM      7  C   UNL     1       1.023  -3.027   2.258  1.00  0.00     0.186 C 
ATOM      8  C   UNL     1      -0.109  -2.496   1.380  1.00  0.00     0.117 C 
BRANCH   6   9
ATOM      9  C   UNL     1      -1.855  -0.748   2.068  1.00  0.00     0.236 C 
BRANCH   9  10
ATOM     10  O   UNL     1      -2.307   0.354   1.286  1.00  0.00    -0.370 OA
BRANCH  10  11
ATOM     11  C   UNL     1      -3.079  -0.069   0.171  1.00  0.00     0.196 C 
BRANCH  11  12
ATOM     12  C   UNL     1      -2.203  -0.600  -0.934  1.00  0.00    -0.022 A 
ATOM     13  C   UNL     1      -1.342   0.268  -1.625  1.00  0.00     0.006 A 
ATOM     14  C   UNL     1      -2.234  -1.960  -1.275  1.00  0.00     0.006 A 
ATOM     15  C   UNL     1      -0.515  -0.221  -2.641  1.00  0.00     0.000 A 
ATOM     16  C   UNL     1      -1.412  -2.446  -2.295  1.00  0.00     0.000 A 
ATOM     17  C   UNL     1      -0.552  -1.578  -2.977  1.00  0.00     0.000 A 
ENDBRANCH  11  12
ENDBRANCH  10  11
ENDBRANCH   9  10
ENDBRANCH   6   9
BRANCH   7  18
ATOM     18  O   UNL     1       2.205  -3.127   1.501  1.00  0.00    -0.386 OA
ATOM     19  H   UNL     1       2.824  -3.705   2.025  1.00  0.00     0.211 HD
ENDBRANCH   7  18
ENDBRANCH   1   4
BRANCH   1  20
ATOM     20  C   UNL     1       0.179   1.660   3.003  1.00  0.00     0.039 C 
BRANCH  20  21
ATOM     21  N   UNL     1       0.717   1.889   1.671  1.00  0.00    -0.637 NA
BRANCH  21  22
ATOM     22  C   UNL     1       0.234   2.907   0.792  1.00  0.00     0.101 C 
ATOM     23  O   UNL     1      -0.645   3.711   1.188  1.00  0.00    -0.313 OA
BRANCH  22  24
ATOM     24  C   UNL     1       0.727   2.984  -0.598  1.00  0.00     0.088 A 
ATOM     25  N   UNL     1       0.182   3.893  -1.453  1.00  0.00    -0.246 NA
ATOM     26  C   UNL     1       1.745   2.128  -1.049  1.00  0.00     0.031 A 
ATOM     27  C   UNL     1       0.601   4.013  -2.740  1.00  0.00     0.071 A 
ATOM     28  C   UNL     1       2.190   2.219  -2.377  1.00  0.00     0.013 A 
ATOM     29  C   UNL     1       0.015   4.960  -3.599  1.00  0.00     0.030 A 
ATOM     30  C   UNL     1       1.622   3.165  -3.237  1.00  0.00     0.002 A 
ATOM     31  C   UNL     1       0.427   5.057  -4.934  1.00  0.00     0.023 A 
ATOM     32  C   UNL     1       2.035   3.272  -4.580  1.00  0.00     0.030 A 
ATOM     33  C   UNL     1       1.430   4.213  -5.423  1.00  0.00     0.041 A 
ATOM     34  Cl  UNL     1       1.909   4.319  -7.106  1.00  0.00    -0.084 Cl
ENDBRANCH  22  24
ENDBRANCH  21  22
ENDBRANCH  20  21
ENDBRANCH   1  20
TORSDOF 11
