REMARK SMILES O=C(N/C=C(/O)N1C[C@H](O)C[C@H]1COCc1ccccc1)c1ccc2cc(Cl)ccc2n1
REMARK SMILES IDX 7 1 8 2 9 3 11 4 12 5 5 6 6 7 4 9 3 10 2 11 1 13 22 14 32 15
REMARK SMILES IDX 23 16 31 17 24 18 30 19 25 20 29 21 26 22 27 23 28 24 13 25
REMARK SMILES IDX 14 26 15 27 16 28 17 29 21 30 18 31 20 32 19 33 10 34
REMARK H PARENT 6 8 3 12 10 35
ROOT
ATOM      1  N   UNL     1       0.212  -0.913   0.877  1.00  0.00    -0.334 N 
ATOM      2  C   UNL     1       0.932  -0.486   2.062  1.00  0.00     0.151 C 
ATOM      3  C   UNL     1       2.201  -1.334   2.095  1.00  0.00     0.136 C 
ATOM      4  C   UNL     1       2.348  -1.908   0.682  1.00  0.00     0.061 C 
ATOM      5  C   UNL     1       0.935  -1.908   0.092  1.00  0.00     0.113 C 
ENDROOT
BRANCH   1   6
ATOM      6  C   UNL     1      -1.104  -0.430   0.562  1.00  0.00     0.204 C 
BRANCH   6   7
ATOM      7  O   UNL     1      -2.152  -0.679   1.444  1.00  0.00    -0.494 OA
ATOM      8  H   UNL     1      -2.004  -1.211   2.292  1.00  0.00     0.295 HD
ENDBRANCH   6   7
BRANCH   6   9
ATOM      9  C   UNL     1      -1.352   0.251  -0.562  1.00  0.00     0.152 C 
BRANCH   9  10
ATOM     10  N   UNL     1      -0.303   0.665  -1.450  1.00  0.00    -0.322 N 
ATOM     11  C   UNL     1      -0.570   1.102  -2.791  1.00  0.00     0.273 C 
ATOM     12  H   UNL     1       0.682   0.675  -1.103  1.00  0.00     0.169 HD
ATOM     13  O   UNL     1      -1.762   1.193  -3.197  1.00  0.00    -0.267 OA
BRANCH  11  14
ATOM     14  C   UNL     1       0.545   1.430  -3.706  1.00  0.00     0.129 A 
ATOM     15  N   UNL     1       1.830   1.303  -3.271  1.00  0.00    -0.243 NA
ATOM     16  C   UNL     1       0.304   1.854  -5.024  1.00  0.00     0.035 A 
ATOM     17  C   UNL     1       2.897   1.577  -4.068  1.00  0.00     0.071 A 
ATOM     18  C   UNL     1       1.380   2.141  -5.867  1.00  0.00     0.013 A 
ATOM     19  C   UNL     1       4.198   1.432  -3.574  1.00  0.00     0.030 A 
ATOM     20  C   UNL     1       2.691   2.005  -5.397  1.00  0.00     0.002 A 
ATOM     21  C   UNL     1       5.294   1.713  -4.397  1.00  0.00     0.023 A 
ATOM     22  C   UNL     1       3.795   2.286  -6.217  1.00  0.00     0.030 A 
ATOM     23  C   UNL     1       5.094   2.142  -5.714  1.00  0.00     0.041 A 
ATOM     24  Cl  UNL     1       6.473   2.494  -6.739  1.00  0.00    -0.084 Cl
ENDBRANCH  11  14
ENDBRANCH   9  10
ENDBRANCH   6   9
ENDBRANCH   1   6
BRANCH   5  25
ATOM     25  C   UNL     1       0.268  -3.286   0.219  1.00  0.00     0.185 C 
BRANCH  25  26
ATOM     26  O   UNL     1      -0.991  -3.260  -0.423  1.00  0.00    -0.375 OA
BRANCH  26  27
ATOM     27  C   UNL     1      -1.695  -4.461  -0.176  1.00  0.00     0.195 C 
BRANCH  27  28
ATOM     28  C   UNL     1      -2.528  -4.330   1.070  1.00  0.00    -0.022 A 
ATOM     29  C   UNL     1      -3.668  -3.508   1.069  1.00  0.00     0.006 A 
ATOM     30  C   UNL     1      -2.153  -4.989   2.253  1.00  0.00     0.006 A 
ATOM     31  C   UNL     1      -4.425  -3.355   2.235  1.00  0.00     0.000 A 
ATOM     32  C   UNL     1      -2.914  -4.833   3.416  1.00  0.00     0.000 A 
ATOM     33  C   UNL     1      -4.049  -4.017   3.407  1.00  0.00     0.000 A 
ENDBRANCH  27  28
ENDBRANCH  26  27
ENDBRANCH  25  26
ENDBRANCH   5  25
BRANCH   3  34
ATOM     34  O   UNL     1       3.311  -0.552   2.448  1.00  0.00    -0.391 OA
ATOM     35  H   UNL     1       4.065  -1.182   2.589  1.00  0.00     0.211 HD
ENDBRANCH   3  34
TORSDOF 10
