REMARK SMILES O=C([N-]CC(=O)N1CCC[C@H]1c1ccc(Cl)cc1)c1ccc2cc(F)ccc2n1
REMARK SMILES IDX 4 1 3 2 2 3 1 4 19 5 20 6 29 7 21 8 28 9 22 10 27 11 23 12
REMARK SMILES IDX 26 13 24 14 25 15 5 16 6 17 7 18 8 19 11 20 9 21 10 22 12 23
REMARK SMILES IDX 13 24 18 25 14 26 17 27 15 28 16 29
REMARK H PARENT
ROOT
ATOM      1  C   UNL     1       0.888   0.220  -1.109  1.00  0.00    -0.015 C 
ENDROOT
BRANCH   1   2
ATOM      2  N   UNL     1       0.187  -1.006  -1.474  1.00  0.00    -0.640 NA
BRANCH   2   3
ATOM      3  C   UNL     1       0.162  -2.244  -0.749  1.00  0.00     0.101 C 
ATOM      4  O   UNL     1      -0.362  -3.245  -1.306  1.00  0.00    -0.313 OA
BRANCH   3   5
ATOM      5  C   UNL     1       0.734  -2.399   0.607  1.00  0.00     0.088 A 
ATOM      6  C   UNL     1       1.223  -3.647   1.028  1.00  0.00     0.031 A 
ATOM      7  N   UNL     1       0.736  -1.353   1.479  1.00  0.00    -0.246 NA
ATOM      8  C   UNL     1       1.724  -3.795   2.323  1.00  0.00     0.013 A 
ATOM      9  C   UNL     1       1.211  -1.468   2.748  1.00  0.00     0.071 A 
ATOM     10  C   UNL     1       1.722  -2.704   3.200  1.00  0.00     0.003 A 
ATOM     11  C   UNL     1       1.184  -0.367   3.614  1.00  0.00     0.032 A 
ATOM     12  C   UNL     1       2.211  -2.821   4.510  1.00  0.00     0.049 A 
ATOM     13  C   UNL     1       1.672  -0.491   4.919  1.00  0.00     0.041 A 
ATOM     14  C   UNL     1       2.185  -1.714   5.365  1.00  0.00     0.123 A 
ATOM     15  F   UNL     1       2.655  -1.827   6.632  1.00  0.00    -0.207 F 
ENDBRANCH   3   5
ENDBRANCH   2   3
ENDBRANCH   1   2
BRANCH   1  16
ATOM     16  C   UNL     1       0.079   1.066  -0.163  1.00  0.00     0.205 C 
ATOM     17  O   UNL     1       0.673   1.601   0.812  1.00  0.00    -0.277 OA
BRANCH  16  18
ATOM     18  N   UNL     1      -1.326   1.331  -0.361  1.00  0.00    -0.337 N 
ATOM     19  C   UNL     1      -2.149   1.905   0.691  1.00  0.00     0.120 C 
ATOM     20  C   UNL     1      -2.095   1.035  -1.568  1.00  0.00     0.115 C 
ATOM     21  C   UNL     1      -3.586   1.795   0.202  1.00  0.00     0.024 C 
ATOM     22  C   UNL     1      -3.498   1.595  -1.307  1.00  0.00     0.032 C 
BRANCH  20  23
ATOM     23  C   UNL     1      -1.474   1.657  -2.802  1.00  0.00    -0.025 A 
ATOM     24  C   UNL     1      -1.023   2.990  -2.790  1.00  0.00     0.007 A 
ATOM     25  C   UNL     1      -1.366   0.909  -3.986  1.00  0.00     0.007 A 
ATOM     26  C   UNL     1      -0.457   3.555  -3.936  1.00  0.00     0.021 A 
ATOM     27  C   UNL     1      -0.800   1.477  -5.131  1.00  0.00     0.021 A 
ATOM     28  C   UNL     1      -0.342   2.798  -5.107  1.00  0.00     0.041 A 
ATOM     29  Cl  UNL     1       0.369   3.509  -6.544  1.00  0.00    -0.084 Cl
ENDBRANCH  20  23
ENDBRANCH  16  18
ENDBRANCH   1  16
TORSDOF 6
