REMARK SMILES O=C(N/C=C(\O)N1CCC[C@H]1c1ccc(Cl)cc1)c1ccc2cc(F)ccc2n1
REMARK SMILES IDX 5 1 6 2 4 4 3 5 2 6 1 8 19 9 29 10 20 11 28 12 21 13 27 14
REMARK SMILES IDX 22 15 26 16 23 17 24 18 25 19 7 20 8 21 11 22 9 23 10 24
REMARK SMILES IDX 12 25 13 26 18 27 14 28 17 29 15 30 16 31
REMARK H PARENT 6 3 3 7
ROOT
ATOM      1  C   UNL     1       1.550  -0.134   0.082  1.00  0.00     0.204 C 
ENDROOT
BRANCH   1   2
ATOM      2  O   UNL     1       1.052  -1.244   0.769  1.00  0.00    -0.494 OA
ATOM      3  H   UNL     1       1.635  -1.830   1.351  1.00  0.00     0.295 HD
ENDBRANCH   1   2
BRANCH   1   4
ATOM      4  C   UNL     1       0.724   0.563  -0.713  1.00  0.00     0.152 C 
BRANCH   4   5
ATOM      5  N   UNL     1      -0.655   0.193  -0.880  1.00  0.00    -0.322 N 
ATOM      6  C   UNL     1      -1.544   0.945  -1.721  1.00  0.00     0.273 C 
ATOM      7  H   UNL     1      -1.026  -0.645  -0.379  1.00  0.00     0.169 HD
ATOM      8  O   UNL     1      -1.116   1.958  -2.341  1.00  0.00    -0.267 OA
BRANCH   6   9
ATOM      9  C   UNL     1      -2.961   0.542  -1.868  1.00  0.00     0.129 A 
ATOM     10  N   UNL     1      -3.426  -0.549  -1.197  1.00  0.00    -0.243 NA
ATOM     11  C   UNL     1      -3.839   1.270  -2.690  1.00  0.00     0.035 A 
ATOM     12  C   UNL     1      -4.717  -0.965  -1.294  1.00  0.00     0.071 A 
ATOM     13  C   UNL     1      -5.171   0.867  -2.809  1.00  0.00     0.013 A 
ATOM     14  C   UNL     1      -5.147  -2.092  -0.586  1.00  0.00     0.032 A 
ATOM     15  C   UNL     1      -5.625  -0.257  -2.111  1.00  0.00     0.003 A 
ATOM     16  C   UNL     1      -6.476  -2.517  -0.688  1.00  0.00     0.041 A 
ATOM     17  C   UNL     1      -6.957  -0.689  -2.208  1.00  0.00     0.049 A 
ATOM     18  C   UNL     1      -7.378  -1.817  -1.497  1.00  0.00     0.123 A 
ATOM     19  F   UNL     1      -8.665  -2.234  -1.591  1.00  0.00    -0.207 F 
ENDBRANCH   6   9
ENDBRANCH   4   5
ENDBRANCH   1   4
BRANCH   1  20
ATOM     20  N   UNL     1       2.934   0.256   0.238  1.00  0.00    -0.335 N 
ATOM     21  C   UNL     1       3.662   1.070  -0.725  1.00  0.00     0.120 C 
ATOM     22  C   UNL     1       3.797  -0.222   1.314  1.00  0.00     0.115 C 
ATOM     23  C   UNL     1       5.132   0.943  -0.353  1.00  0.00     0.024 C 
ATOM     24  C   UNL     1       5.152   0.456   1.091  1.00  0.00     0.032 C 
BRANCH  22  25
ATOM     25  C   UNL     1       3.228   0.112   2.678  1.00  0.00    -0.025 A 
ATOM     26  C   UNL     1       2.688   1.385   2.943  1.00  0.00     0.007 A 
ATOM     27  C   UNL     1       3.274  -0.839   3.711  1.00  0.00     0.007 A 
ATOM     28  C   UNL     1       2.182   1.688   4.211  1.00  0.00     0.021 A 
ATOM     29  C   UNL     1       2.767  -0.533   4.978  1.00  0.00     0.021 A 
ATOM     30  C   UNL     1       2.219   0.729   5.228  1.00  0.00     0.041 A 
ATOM     31  Cl  UNL     1       1.584   1.111   6.818  1.00  0.00    -0.084 Cl
ENDBRANCH  22  25
ENDBRANCH   1  20
TORSDOF 6
