REMARK SMILES CC(C)C[C@H](N/C(O)=C\NC(=O)c1ccc2ccccc2n1)C(=O)[N-]C1CCCC1
REMARK SMILES IDX 6 1 7 3 8 4 9 6 10 7 11 8 12 10 13 11 22 12 14 13 21 14
REMARK SMILES IDX 15 15 20 16 16 17 19 18 17 19 18 20 5 21 23 22 24 23 25 24
REMARK SMILES IDX 26 25 27 26 30 27 28 28 29 29 4 30 2 31 1 32 3 33
REMARK H PARENT 6 2 8 5 10 9
ROOT
ATOM      1  N   UNL     1      -1.179   1.530  -1.643  1.00  0.00    -0.347 N 
ATOM      2  H   UNL     1      -1.141   0.514  -1.890  1.00  0.00     0.164 HD
ENDROOT
BRANCH   1   3
ATOM      3  C   UNL     1      -0.216   2.425  -2.215  1.00  0.00     0.201 C 
BRANCH   3   4
ATOM      4  O   UNL     1      -0.629   3.701  -2.602  1.00  0.00    -0.494 OA
ATOM      5  H   UNL     1       0.011   4.375  -3.004  1.00  0.00     0.295 HD
ENDBRANCH   3   4
BRANCH   3   6
ATOM      6  C   UNL     1       1.068   2.063  -2.376  1.00  0.00     0.152 C 
BRANCH   6   7
ATOM      7  N   UNL     1       1.591   0.827  -1.860  1.00  0.00    -0.322 N 
ATOM      8  C   UNL     1       2.979   0.479  -1.995  1.00  0.00     0.273 C 
ATOM      9  H   UNL     1       0.979   0.204  -1.288  1.00  0.00     0.169 HD
ATOM     10  O   UNL     1       3.738   1.184  -2.717  1.00  0.00    -0.267 OA
BRANCH   8  11
ATOM     11  C   UNL     1       3.528  -0.694  -1.278  1.00  0.00     0.129 A 
ATOM     12  N   UNL     1       2.695  -1.488  -0.549  1.00  0.00    -0.243 NA
ATOM     13  C   UNL     1       4.902  -0.991  -1.316  1.00  0.00     0.035 A 
ATOM     14  C   UNL     1       3.144  -2.560   0.156  1.00  0.00     0.071 A 
ATOM     15  C   UNL     1       5.394  -2.086  -0.601  1.00  0.00     0.013 A 
ATOM     16  C   UNL     1       2.248  -3.337   0.901  1.00  0.00     0.029 A 
ATOM     17  C   UNL     1       4.518  -2.883   0.146  1.00  0.00     0.000 A 
ATOM     18  C   UNL     1       2.715  -4.434   1.632  1.00  0.00     0.002 A 
ATOM     19  C   UNL     1       4.979  -3.986   0.881  1.00  0.00     0.010 A 
ATOM     20  C   UNL     1       4.076  -4.758   1.621  1.00  0.00     0.001 A 
ENDBRANCH   8  11
ENDBRANCH   6   7
ENDBRANCH   3   6
ENDBRANCH   1   3
BRANCH   1  21
ATOM     21  C   UNL     1      -2.126   1.988  -0.623  1.00  0.00     0.130 C 
BRANCH  21  22
ATOM     22  C   UNL     1      -1.364   2.229   0.650  1.00  0.00     0.074 C 
ATOM     23  O   UNL     1      -1.355   3.378   1.170  1.00  0.00    -0.318 OA
BRANCH  22  24
ATOM     24  N   UNL     1      -0.603   1.163   1.232  1.00  0.00    -0.649 NA
BRANCH  24  25
ATOM     25  C   UNL     1       0.237   1.317   2.418  1.00  0.00    -0.107 C 
ATOM     26  C   UNL     1       1.135   0.099   2.564  1.00  0.00    -0.016 C 
ATOM     27  C   UNL     1      -0.613   1.319   3.684  1.00  0.00    -0.016 C 
ATOM     28  C   UNL     1       0.316  -0.926   3.337  1.00  0.00    -0.001 C 
ATOM     29  C   UNL     1      -0.742  -0.141   4.111  1.00  0.00    -0.001 C 
ENDBRANCH  24  25
ENDBRANCH  22  24
ENDBRANCH  21  22
BRANCH  21  30
ATOM     30  C   UNL     1      -3.242   0.930  -0.434  1.00  0.00     0.034 C 
BRANCH  30  31
ATOM     31  C   UNL     1      -4.477   1.356   0.404  1.00  0.00    -0.015 C 
ATOM     32  C   UNL     1      -5.158   2.623  -0.131  1.00  0.00     0.007 C 
ATOM     33  C   UNL     1      -4.177   1.484   1.903  1.00  0.00     0.007 C 
ENDBRANCH  30  31
ENDBRANCH  21  30
ENDBRANCH   1  21
TORSDOF 11
