REMARK SMILES CC(C)CN/C(O)=C\NC(=O)c1ccc2ccccc2n1
REMARK SMILES IDX 6 1 7 2 8 4 9 5 10 6 11 8 12 9 21 10 13 11 20 12 14 13 19 14
REMARK SMILES IDX 15 15 18 16 16 17 17 18 5 19 4 21 2 22 1 23 3 24
REMARK H PARENT 7 3 9 7 5 20
ROOT
ATOM      1  C   UNL     1      -3.241  -0.345   0.494  1.00  0.00     0.200 C 
ENDROOT
BRANCH   1   2
ATOM      2  O   UNL     1      -4.621  -0.431   0.678  1.00  0.00    -0.494 OA
ATOM      3  H   UNL     1      -5.273  -0.098  -0.020  1.00  0.00     0.295 HD
ENDBRANCH   1   2
BRANCH   1   4
ATOM      4  C   UNL     1      -2.440  -0.898   1.413  1.00  0.00     0.152 C 
BRANCH   4   5
ATOM      5  N   UNL     1      -1.013  -0.791   1.349  1.00  0.00    -0.322 N 
ATOM      6  C   UNL     1      -0.235  -1.467   0.352  1.00  0.00     0.273 C 
ATOM      7  H   UNL     1      -0.526  -0.360   2.166  1.00  0.00     0.169 HD
ATOM      8  O   UNL     1      -0.772  -2.354  -0.368  1.00  0.00    -0.267 OA
BRANCH   6   9
ATOM      9  C   UNL     1       1.188  -1.119   0.158  1.00  0.00     0.129 A 
ATOM     10  N   UNL     1       1.726  -0.084   0.861  1.00  0.00    -0.243 NA
ATOM     11  C   UNL     1       1.989  -1.822  -0.758  1.00  0.00     0.035 A 
ATOM     12  C   UNL     1       3.023   0.296   0.712  1.00  0.00     0.071 A 
ATOM     13  C   UNL     1       3.326  -1.455  -0.932  1.00  0.00     0.013 A 
ATOM     14  C   UNL     1       3.531   1.368   1.455  1.00  0.00     0.029 A 
ATOM     15  C   UNL     1       3.858  -0.389  -0.197  1.00  0.00     0.000 A 
ATOM     16  C   UNL     1       4.866   1.756   1.299  1.00  0.00     0.002 A 
ATOM     17  C   UNL     1       5.195   0.006  -0.348  1.00  0.00     0.010 A 
ATOM     18  C   UNL     1       5.695   1.077   0.400  1.00  0.00     0.001 A 
ENDBRANCH   6   9
ENDBRANCH   4   5
ENDBRANCH   1   4
BRANCH   1  19
ATOM     19  N   UNL     1      -2.708   0.342  -0.650  1.00  0.00    -0.355 N 
ATOM     20  H   UNL     1      -1.837  -0.007  -1.105  1.00  0.00     0.163 HD
BRANCH  19  21
ATOM     21  C   UNL     1      -3.216   1.643  -1.089  1.00  0.00     0.119 C 
BRANCH  21  22
ATOM     22  C   UNL     1      -2.310   2.800  -0.617  1.00  0.00     0.002 C 
ATOM     23  C   UNL     1      -2.292   2.921   0.912  1.00  0.00     0.009 C 
ATOM     24  C   UNL     1      -0.882   2.678  -1.168  1.00  0.00     0.009 C 
ENDBRANCH  21  22
ENDBRANCH  19  21
ENDBRANCH   1  19
TORSDOF 7
