REMARK SMILES C[C@H]([N-]C(=O)C/N=C(\O)c1ccc2cc(Cl)ccc2n1)c1ccccc1
REMARK SMILES IDX 6 1 7 2 8 3 9 4 10 6 20 7 11 8 19 9 12 10 18 11 13 12 17 13
REMARK SMILES IDX 14 14 15 15 16 16 4 17 5 18 3 19 2 20 1 21 21 22 22 23 26 24
REMARK SMILES IDX 23 25 25 26 24 27
REMARK H PARENT 9 5
ROOT
ATOM      1  C   UNL     1      -2.556  -1.625   1.575  1.00  0.00     0.201 C 
ENDROOT
BRANCH   1   2
ATOM      2  N   UNL     1      -1.097  -1.573   1.639  1.00  0.00    -0.244 NA
BRANCH   2   3
ATOM      3  C   UNL     1      -0.348  -0.524   1.439  1.00  0.00     0.233 C 
BRANCH   3   4
ATOM      4  O   UNL     1      -0.894   0.744   1.217  1.00  0.00    -0.492 OA
ATOM      5  H   UNL     1      -1.885   0.941   1.228  1.00  0.00     0.295 HD
ENDBRANCH   3   4
BRANCH   3   6
ATOM      6  C   UNL     1       1.120  -0.661   1.423  1.00  0.00     0.125 A 
ATOM      7  N   UNL     1       1.881   0.446   1.198  1.00  0.00    -0.243 NA
ATOM      8  C   UNL     1       1.748  -1.908   1.587  1.00  0.00     0.035 A 
ATOM      9  C   UNL     1       3.237   0.391   1.129  1.00  0.00     0.071 A 
ATOM     10  C   UNL     1       3.140  -1.996   1.520  1.00  0.00     0.013 A 
ATOM     11  C   UNL     1       3.977   1.555   0.892  1.00  0.00     0.030 A 
ATOM     12  C   UNL     1       3.901  -0.845   1.288  1.00  0.00     0.002 A 
ATOM     13  C   UNL     1       5.371   1.494   0.812  1.00  0.00     0.023 A 
ATOM     14  C   UNL     1       5.301  -0.899   1.207  1.00  0.00     0.030 A 
ATOM     15  C   UNL     1       6.033   0.270   0.969  1.00  0.00     0.041 A 
ATOM     16  Cl  UNL     1       7.782   0.201   0.863  1.00  0.00    -0.084 Cl
ENDBRANCH   3   6
ENDBRANCH   2   3
ENDBRANCH   1   2
BRANCH   1  17
ATOM     17  C   UNL     1      -2.986  -1.712   0.145  1.00  0.00     0.074 C 
ATOM     18  O   UNL     1      -3.160  -2.843  -0.386  1.00  0.00    -0.318 OA
BRANCH  17  19
ATOM     19  N   UNL     1      -3.096  -0.521  -0.641  1.00  0.00    -0.646 NA
BRANCH  19  20
ATOM     20  C   UNL     1      -3.103  -0.530  -2.101  1.00  0.00    -0.079 C 
ATOM     21  C   UNL     1      -3.473   0.859  -2.618  1.00  0.00    -0.008 C 
BRANCH  20  22
ATOM     22  C   UNL     1      -1.744  -0.949  -2.622  1.00  0.00    -0.063 A 
ATOM     23  C   UNL     1      -1.635  -1.990  -3.561  1.00  0.00     0.002 A 
ATOM     24  C   UNL     1      -0.573  -0.314  -2.167  1.00  0.00     0.002 A 
ATOM     25  C   UNL     1      -0.378  -2.395  -4.021  1.00  0.00     0.000 A 
ATOM     26  C   UNL     1       0.680  -0.726  -2.626  1.00  0.00     0.000 A 
ATOM     27  C   UNL     1       0.778  -1.768  -3.552  1.00  0.00     0.000 A 
ENDBRANCH  20  22
ENDBRANCH  19  20
ENDBRANCH  17  19
ENDBRANCH   1  17
TORSDOF 8
