REMARK SMILES C[C@H]([N-]C(=O)C/N=C(/O)c1ccc2cc(Cl)ccc2n1)c1ccccc1
REMARK SMILES IDX 6 1 7 2 8 3 9 4 10 6 20 7 11 8 19 9 12 10 18 11 13 12 17 13
REMARK SMILES IDX 14 14 15 15 16 16 4 17 5 18 3 19 2 20 1 21 21 22 22 23 26 24
REMARK SMILES IDX 23 25 25 26 24 27
REMARK H PARENT 9 5
ROOT
ATOM      1  C   UNL     1      -1.715  -1.002   0.296  1.00  0.00     0.201 C 
ENDROOT
BRANCH   1   2
ATOM      2  N   UNL     1      -1.051  -1.887   1.254  1.00  0.00    -0.244 NA
BRANCH   2   3
ATOM      3  C   UNL     1      -0.103  -1.562   2.088  1.00  0.00     0.233 C 
BRANCH   3   4
ATOM      4  O   UNL     1       0.382  -2.524   2.969  1.00  0.00    -0.492 OA
ATOM      5  H   UNL     1       0.025  -3.473   2.955  1.00  0.00     0.295 HD
ENDBRANCH   3   4
BRANCH   3   6
ATOM      6  C   UNL     1       0.453  -0.200   2.177  1.00  0.00     0.125 A 
ATOM      7  N   UNL     1       0.334   0.487   3.345  1.00  0.00    -0.243 NA
ATOM      8  C   UNL     1       1.166   0.364   1.109  1.00  0.00     0.035 A 
ATOM      9  C   UNL     1       0.848   1.737   3.502  1.00  0.00     0.071 A 
ATOM     10  C   UNL     1       1.695   1.649   1.235  1.00  0.00     0.013 A 
ATOM     11  C   UNL     1       0.688   2.417   4.715  1.00  0.00     0.030 A 
ATOM     12  C   UNL     1       1.538   2.353   2.434  1.00  0.00     0.002 A 
ATOM     13  C   UNL     1       1.213   3.704   4.870  1.00  0.00     0.023 A 
ATOM     14  C   UNL     1       2.060   3.645   2.596  1.00  0.00     0.030 A 
ATOM     15  C   UNL     1       1.897   4.318   3.813  1.00  0.00     0.041 A 
ATOM     16  Cl  UNL     1       2.549   5.934   4.016  1.00  0.00    -0.084 Cl
ENDBRANCH   3   6
ENDBRANCH   2   3
ENDBRANCH   1   2
BRANCH   1  17
ATOM     17  C   UNL     1      -0.949  -0.933  -0.985  1.00  0.00     0.074 C 
ATOM     18  O   UNL     1      -0.876   0.159  -1.612  1.00  0.00    -0.318 OA
BRANCH  17  19
ATOM     19  N   UNL     1      -0.328  -2.112  -1.510  1.00  0.00    -0.646 NA
BRANCH  19  20
ATOM     20  C   UNL     1       0.483  -2.128  -2.726  1.00  0.00    -0.079 C 
ATOM     21  C   UNL     1       1.190  -3.479  -2.845  1.00  0.00    -0.008 C 
BRANCH  20  22
ATOM     22  C   UNL     1      -0.374  -1.871  -3.949  1.00  0.00    -0.063 A 
ATOM     23  C   UNL     1      -1.613  -2.518  -4.112  1.00  0.00     0.002 A 
ATOM     24  C   UNL     1       0.087  -1.010  -4.961  1.00  0.00     0.002 A 
ATOM     25  C   UNL     1      -2.388  -2.282  -5.252  1.00  0.00     0.000 A 
ATOM     26  C   UNL     1      -0.689  -0.785  -6.104  1.00  0.00     0.000 A 
ATOM     27  C   UNL     1      -1.927  -1.416  -6.247  1.00  0.00     0.000 A 
ENDBRANCH  20  22
ENDBRANCH  19  20
ENDBRANCH  17  19
ENDBRANCH   1  17
TORSDOF 8
