REMARK SMILES C[C@H](NC(=O)C[N-]C(=O)c1ccc2cc(Cl)ccc2n1)c1ccccc1
REMARK SMILES IDX 6 1 4 2 3 3 5 5 2 6 1 7 21 8 22 9 26 10 23 11 25 12 24 13
REMARK SMILES IDX 7 14 8 15 9 16 10 17 11 18 20 19 12 20 19 21 13 22 18 23
REMARK SMILES IDX 14 24 17 25 15 26 16 27
REMARK H PARENT 3 4
ROOT
ATOM      1  C   UNL     1       0.520  -2.644   0.709  1.00  0.00    -0.015 C 
ENDROOT
BRANCH   1   2
ATOM      2  C   UNL     1      -0.127  -1.504   1.439  1.00  0.00     0.202 C 
ATOM      3  N   UNL     1       0.630  -0.674   2.333  1.00  0.00    -0.351 N 
ATOM      4  H   UNL     1       1.601  -0.961   2.588  1.00  0.00     0.164 HD
ATOM      5  O   UNL     1      -1.365  -1.313   1.298  1.00  0.00    -0.277 OA
BRANCH   3   6
ATOM      6  C   UNL     1       0.071   0.565   2.883  1.00  0.00     0.109 C 
ATOM      7  C   UNL     1       0.971   1.124   3.990  1.00  0.00     0.036 C 
BRANCH   6   8
ATOM      8  C   UNL     1      -0.119   1.585   1.780  1.00  0.00    -0.026 A 
ATOM      9  C   UNL     1      -1.393   2.118   1.518  1.00  0.00     0.006 A 
ATOM     10  C   UNL     1       0.970   2.000   0.992  1.00  0.00     0.006 A 
ATOM     11  C   UNL     1      -1.572   3.052   0.494  1.00  0.00     0.000 A 
ATOM     12  C   UNL     1       0.789   2.945  -0.021  1.00  0.00     0.000 A 
ATOM     13  C   UNL     1      -0.481   3.467  -0.274  1.00  0.00     0.000 A 
ENDBRANCH   6   8
ENDBRANCH   3   6
ENDBRANCH   1   2
BRANCH   1  14
ATOM     14  N   UNL     1       1.889  -2.325   0.312  1.00  0.00    -0.640 NA
BRANCH  14  15
ATOM     15  C   UNL     1       2.346  -1.376  -0.667  1.00  0.00     0.101 C 
ATOM     16  O   UNL     1       3.590  -1.282  -0.849  1.00  0.00    -0.313 OA
BRANCH  15  17
ATOM     17  C   UNL     1       1.440  -0.498  -1.457  1.00  0.00     0.088 A 
ATOM     18  C   UNL     1       1.974   0.480  -2.317  1.00  0.00     0.031 A 
ATOM     19  N   UNL     1       0.089  -0.611  -1.346  1.00  0.00    -0.246 NA
ATOM     20  C   UNL     1       1.120   1.331  -3.020  1.00  0.00     0.013 A 
ATOM     21  C   UNL     1      -0.769   0.202  -2.016  1.00  0.00     0.071 A 
ATOM     22  C   UNL     1      -0.265   1.208  -2.867  1.00  0.00     0.002 A 
ATOM     23  C   UNL     1      -2.152   0.056  -1.850  1.00  0.00     0.030 A 
ATOM     24  C   UNL     1      -1.151   2.066  -3.533  1.00  0.00     0.030 A 
ATOM     25  C   UNL     1      -3.030   0.914  -2.519  1.00  0.00     0.023 A 
ATOM     26  C   UNL     1      -2.531   1.920  -3.355  1.00  0.00     0.041 A 
ATOM     27  Cl  UNL     1      -3.640   2.998  -4.185  1.00  0.00    -0.084 Cl
ENDBRANCH  15  17
ENDBRANCH  14  15
ENDBRANCH   1  14
TORSDOF 6
