REMARK SMILES O=C(C/N=C(\O)c1ccc2cc(Cl)ccc2n1)N1CCC(F)(F)C1
REMARK SMILES IDX 4 1 5 2 6 3 7 5 17 6 8 7 16 8 9 9 15 10 10 11 14 12 11 13
REMARK SMILES IDX 12 14 13 15 3 16 2 17 1 18 18 19 19 20 24 21 20 22 21 23
REMARK SMILES IDX 22 24 23 25
REMARK H PARENT 6 4
ROOT
ATOM      1  N   UNL     1      -0.431  -1.460  -0.694  1.00  0.00    -0.240 NA
ENDROOT
BRANCH   1   2
ATOM      2  C   UNL     1       0.311  -0.769   0.126  1.00  0.00     0.233 C 
BRANCH   2   3
ATOM      3  O   UNL     1      -0.251   0.063   1.100  1.00  0.00    -0.492 OA
ATOM      4  H   UNL     1      -1.248   0.174   1.229  1.00  0.00     0.295 HD
ENDBRANCH   2   3
BRANCH   2   5
ATOM      5  C   UNL     1       1.782  -0.852   0.039  1.00  0.00     0.125 A 
ATOM      6  N   UNL     1       2.536  -0.123   0.908  1.00  0.00    -0.243 NA
ATOM      7  C   UNL     1       2.421  -1.662  -0.917  1.00  0.00     0.035 A 
ATOM      8  C   UNL     1       3.895  -0.149   0.887  1.00  0.00     0.071 A 
ATOM      9  C   UNL     1       3.816  -1.710  -0.962  1.00  0.00     0.013 A 
ATOM     10  C   UNL     1       4.628   0.617   1.800  1.00  0.00     0.030 A 
ATOM     11  C   UNL     1       4.569  -0.952  -0.059  1.00  0.00     0.002 A 
ATOM     12  C   UNL     1       6.026   0.588   1.775  1.00  0.00     0.023 A 
ATOM     13  C   UNL     1       5.972  -0.977  -0.079  1.00  0.00     0.030 A 
ATOM     14  C   UNL     1       6.698  -0.207   0.839  1.00  0.00     0.041 A 
ATOM     15  Cl  UNL     1       8.451  -0.238   0.814  1.00  0.00    -0.084 Cl
ENDBRANCH   2   5
ENDBRANCH   1   2
BRANCH   1  16
ATOM     16  C   UNL     1      -1.892  -1.469  -0.728  1.00  0.00     0.246 C 
BRANCH  16  17
ATOM     17  C   UNL     1      -2.427  -0.168  -1.267  1.00  0.00     0.244 C 
ATOM     18  O   UNL     1      -1.812   0.396  -2.214  1.00  0.00    -0.273 OA
BRANCH  17  19
ATOM     19  N   UNL     1      -3.653   0.407  -0.778  1.00  0.00    -0.335 N 
ATOM     20  C   UNL     1      -4.245   1.599  -1.361  1.00  0.00     0.126 C 
ATOM     21  C   UNL     1      -4.455  -0.149   0.299  1.00  0.00     0.196 C 
ATOM     22  C   UNL     1      -5.625   1.724  -0.729  1.00  0.00     0.100 C 
ATOM     23  C   UNL     1      -5.590   0.847   0.522  1.00  0.00     0.267 C 
ATOM     24  F   UNL     1      -5.321   1.628   1.634  1.00  0.00    -0.205 F 
ATOM     25  F   UNL     1      -6.797   0.192   0.701  1.00  0.00    -0.205 F 
ENDBRANCH  17  19
ENDBRANCH  16  17
ENDBRANCH   1  16
TORSDOF 6
