REMARK SMILES O=C([N-]/C=C(\O)N1C[C@H](O)C[C@H]1COCc1ccccc1)c1ccc2cc(Cl)ccc2n1
REMARK SMILES IDX 5 1 6 2 4 4 3 5 2 6 1 7 22 8 32 9 23 10 31 11 24 12 30 13
REMARK SMILES IDX 25 14 29 15 26 16 27 17 28 18 7 19 8 20 12 21 9 22 11 23
REMARK SMILES IDX 13 24 14 25 15 26 16 27 17 28 21 29 18 30 20 31 19 32 10 33
REMARK H PARENT 6 3 10 34
ROOT
ATOM      1  C   UNL     1       0.082  -1.180   0.337  1.00  0.00     0.164 C 
ENDROOT
BRANCH   1   2
ATOM      2  O   UNL     1       0.808  -1.612  -0.777  1.00  0.00    -0.496 OA
ATOM      3  H   UNL     1       0.839  -2.576  -1.081  1.00  0.00     0.295 HD
ENDBRANCH   1   2
BRANCH   1   4
ATOM      4  C   UNL     1      -0.774  -2.008   0.966  1.00  0.00    -0.069 C 
BRANCH   4   5
ATOM      5  N   UNL     1      -1.114  -3.307   0.466  1.00  0.00    -0.623 NA
BRANCH   5   6
ATOM      6  C   UNL     1      -1.561  -3.618  -0.863  1.00  0.00     0.104 C 
ATOM      7  O   UNL     1      -1.525  -4.820  -1.238  1.00  0.00    -0.313 OA
BRANCH   6   8
ATOM      8  C   UNL     1      -2.083  -2.582  -1.788  1.00  0.00     0.089 A 
ATOM      9  N   UNL     1      -2.422  -1.351  -1.314  1.00  0.00    -0.246 NA
ATOM     10  C   UNL     1      -2.238  -2.855  -3.158  1.00  0.00     0.031 A 
ATOM     11  C   UNL     1      -2.884  -0.361  -2.121  1.00  0.00     0.071 A 
ATOM     12  C   UNL     1      -2.719  -1.860  -4.014  1.00  0.00     0.013 A 
ATOM     13  C   UNL     1      -3.191   0.895  -1.587  1.00  0.00     0.030 A 
ATOM     14  C   UNL     1      -3.044  -0.598  -3.502  1.00  0.00     0.002 A 
ATOM     15  C   UNL     1      -3.660   1.914  -2.422  1.00  0.00     0.023 A 
ATOM     16  C   UNL     1      -3.518   0.427  -4.334  1.00  0.00     0.030 A 
ATOM     17  C   UNL     1      -3.824   1.682  -3.793  1.00  0.00     0.041 A 
ATOM     18  Cl  UNL     1      -4.416   2.964  -4.833  1.00  0.00    -0.084 Cl
ENDBRANCH   6   8
ENDBRANCH   5   6
ENDBRANCH   4   5
ENDBRANCH   1   4
BRANCH   1  19
ATOM     19  N   UNL     1       0.278   0.174   0.799  1.00  0.00    -0.337 N 
ATOM     20  C   UNL     1      -0.538   0.822   1.818  1.00  0.00     0.151 C 
ATOM     21  C   UNL     1       1.196   1.100   0.143  1.00  0.00     0.113 C 
ATOM     22  C   UNL     1      -0.047   2.269   1.888  1.00  0.00     0.136 C 
ATOM     23  C   UNL     1       0.784   2.497   0.620  1.00  0.00     0.061 C 
BRANCH  21  24
ATOM     24  C   UNL     1       2.649   0.762   0.511  1.00  0.00     0.185 C 
BRANCH  24  25
ATOM     25  O   UNL     1       2.812   0.803   1.918  1.00  0.00    -0.375 OA
BRANCH  25  26
ATOM     26  C   UNL     1       3.684  -0.216   2.363  1.00  0.00     0.195 C 
BRANCH  26  27
ATOM     27  C   UNL     1       2.924  -1.501   2.561  1.00  0.00    -0.022 A 
ATOM     28  C   UNL     1       1.951  -1.591   3.570  1.00  0.00     0.006 A 
ATOM     29  C   UNL     1       3.148  -2.603   1.719  1.00  0.00     0.006 A 
ATOM     30  C   UNL     1       1.223  -2.772   3.743  1.00  0.00     0.000 A 
ATOM     31  C   UNL     1       2.415  -3.782   1.894  1.00  0.00     0.000 A 
ATOM     32  C   UNL     1       1.456  -3.867   2.906  1.00  0.00     0.000 A 
ENDBRANCH  26  27
ENDBRANCH  25  26
ENDBRANCH  24  25
ENDBRANCH  21  24
BRANCH  22  33
ATOM     33  O   UNL     1      -1.107   3.186   2.002  1.00  0.00    -0.391 OA
ATOM     34  H   UNL     1      -1.693   3.079   1.207  1.00  0.00     0.211 HD
ENDBRANCH  22  33
ENDBRANCH   1  19
TORSDOF 11
