REMARK SMILES CC(C)C[N-]/C(O)=C\NC(=O)c1ccc2cc(Cl)ccc2n1
REMARK SMILES IDX 6 1 7 2 5 4 4 5 2 6 1 7 3 8 8 9 9 10 10 11 11 13 12 14 22 15
REMARK SMILES IDX 13 16 21 17 14 18 20 19 15 20 19 21 16 22 17 23 18 24
REMARK H PARENT 7 3 9 12
ROOT
ATOM      1  C   UNL     1       1.193   2.073   1.222  1.00  0.00     0.027 C 
ENDROOT
BRANCH   1   2
ATOM      2  O   UNL     1       1.565   3.370   1.581  1.00  0.00    -0.529 OA
ATOM      3  H   UNL     1       1.629   3.679   2.540  1.00  0.00     0.290 HD
ENDBRANCH   1   2
BRANCH   1   4
ATOM      4  N   UNL     1       0.862   1.085   2.211  1.00  0.00    -0.653 NA
BRANCH   4   5
ATOM      5  C   UNL     1       0.761   1.293   3.654  1.00  0.00    -0.115 C 
BRANCH   5   6
ATOM      6  C   UNL     1      -0.680   1.655   4.067  1.00  0.00    -0.035 C 
ATOM      7  C   UNL     1      -0.818   1.611   5.594  1.00  0.00     0.006 C 
ATOM      8  C   UNL     1      -1.103   3.033   3.543  1.00  0.00     0.006 C 
ENDBRANCH   5   6
ENDBRANCH   4   5
ENDBRANCH   1   4
BRANCH   1   9
ATOM      9  C   UNL     1       1.156   1.762  -0.077  1.00  0.00     0.107 C 
BRANCH   9  10
ATOM     10  N   UNL     1       0.783   0.454  -0.541  1.00  0.00    -0.325 N 
ATOM     11  C   UNL     1       0.745   0.130  -1.941  1.00  0.00     0.273 C 
ATOM     12  H   UNL     1       0.529  -0.286   0.152  1.00  0.00     0.169 HD
ATOM     13  O   UNL     1       1.052   1.007  -2.796  1.00  0.00    -0.267 OA
BRANCH  11  14
ATOM     14  C   UNL     1       0.349  -1.223  -2.390  1.00  0.00     0.129 A 
ATOM     15  N   UNL     1       0.014  -2.169  -1.468  1.00  0.00    -0.243 NA
ATOM     16  C   UNL     1       0.311  -1.551  -3.756  1.00  0.00     0.035 A 
ATOM     17  C   UNL     1      -0.358  -3.428  -1.822  1.00  0.00     0.071 A 
ATOM     18  C   UNL     1      -0.068  -2.836  -4.151  1.00  0.00     0.013 A 
ATOM     19  C   UNL     1      -0.693  -4.365  -0.839  1.00  0.00     0.030 A 
ATOM     20  C   UNL     1      -0.407  -3.790  -3.186  1.00  0.00     0.002 A 
ATOM     21  C   UNL     1      -1.076  -5.659  -1.207  1.00  0.00     0.023 A 
ATOM     22  C   UNL     1      -0.791  -5.090  -3.548  1.00  0.00     0.030 A 
ATOM     23  C   UNL     1      -1.125  -6.022  -2.558  1.00  0.00     0.041 A 
ATOM     24  Cl  UNL     1      -1.606  -7.647  -3.011  1.00  0.00    -0.084 Cl
ENDBRANCH  11  14
ENDBRANCH   9  10
ENDBRANCH   1   9
TORSDOF 7
