REMARK SMILES C[C@H](N/C(O)=C/NC(=O)c1ccc2cc(F)ccc2n1)c1ccccc1
REMARK SMILES IDX 4 1 5 2 6 4 7 5 8 6 9 8 10 9 20 10 11 11 19 12 12 13 18 14
REMARK SMILES IDX 13 15 17 16 14 17 15 18 16 19 3 20 2 22 1 23 21 24 22 25
REMARK SMILES IDX 26 26 23 27 25 28 24 29
REMARK H PARENT 5 3 7 7 3 21
ROOT
ATOM      1  C   UNL     1       1.344   1.644   1.231  1.00  0.00     0.201 C 
ENDROOT
BRANCH   1   2
ATOM      2  O   UNL     1       0.172   0.919   1.212  1.00  0.00    -0.494 OA
ATOM      3  H   UNL     1       0.107  -0.071   1.122  1.00  0.00     0.295 HD
ENDBRANCH   1   2
BRANCH   1   4
ATOM      4  C   UNL     1       2.023   2.037   0.172  1.00  0.00     0.152 C 
BRANCH   4   5
ATOM      5  N   UNL     1       1.468   1.604  -1.033  1.00  0.00    -0.322 N 
ATOM      6  C   UNL     1       0.951   1.201  -2.158  1.00  0.00     0.273 C 
ATOM      7  H   UNL     1       1.925   2.705  -1.600  1.00  0.00     0.169 HD
ATOM      8  O   UNL     1       1.634   1.463  -3.226  1.00  0.00    -0.267 OA
BRANCH   6   9
ATOM      9  C   UNL     1      -0.278   0.518  -2.373  1.00  0.00     0.129 A 
ATOM     10  N   UNL     1      -1.086   0.144  -1.385  1.00  0.00    -0.243 NA
ATOM     11  C   UNL     1      -0.660   0.297  -3.703  1.00  0.00     0.035 A 
ATOM     12  C   UNL     1      -2.266  -0.441  -1.560  1.00  0.00     0.071 A 
ATOM     13  C   UNL     1      -1.863  -0.301  -3.956  1.00  0.00     0.013 A 
ATOM     14  C   UNL     1      -3.110  -0.832  -0.544  1.00  0.00     0.032 A 
ATOM     15  C   UNL     1      -2.634  -0.654  -2.875  1.00  0.00     0.003 A 
ATOM     16  C   UNL     1      -4.317  -1.430  -0.814  1.00  0.00     0.041 A 
ATOM     17  C   UNL     1      -3.833  -1.248  -3.108  1.00  0.00     0.049 A 
ATOM     18  C   UNL     1      -4.683  -1.641  -2.108  1.00  0.00     0.123 A 
ATOM     19  F   UNL     1      -5.872  -2.229  -2.360  1.00  0.00    -0.207 F 
ENDBRANCH   6   9
ENDBRANCH   4   5
ENDBRANCH   1   4
BRANCH   1  20
ATOM     20  N   UNL     1       1.897   2.010   2.463  1.00  0.00    -0.349 N 
ATOM     21  H   UNL     1       2.728   2.640   2.598  1.00  0.00     0.164 HD
BRANCH  20  22
ATOM     22  C   UNL     1       1.280   1.480   3.644  1.00  0.00     0.109 C 
ATOM     23  C   UNL     1      -0.110   2.038   3.841  1.00  0.00     0.036 C 
BRANCH  22  24
ATOM     24  C   UNL     1       1.100  -0.007   3.554  1.00  0.00    -0.026 A 
ATOM     25  C   UNL     1      -0.056  -0.638   3.947  1.00  0.00     0.006 A 
ATOM     26  C   UNL     1       2.172  -0.734   3.042  1.00  0.00     0.006 A 
ATOM     27  C   UNL     1      -0.218  -2.010   3.857  1.00  0.00     0.000 A 
ATOM     28  C   UNL     1       2.009  -2.098   2.953  1.00  0.00     0.000 A 
ATOM     29  C   UNL     1       0.838  -2.733   3.352  1.00  0.00     0.000 A 
ENDBRANCH  22  24
ENDBRANCH  20  22
ENDBRANCH   1  20
TORSDOF 7
