REMARK SMILES O/C(=C\N=C(\O)c1ccc2cc(Cl)ccc2n1)N1CC[C@H](O)[C@H]1Cc1ccccc1
REMARK SMILES IDX 3 1 2 2 1 3 18 5 19 6 23 7 20 8 21 9 24 10 25 11 26 12 30 13
REMARK SMILES IDX 27 14 29 15 28 16 22 17 4 19 5 20 6 21 7 23 17 24 8 25 16 26
REMARK SMILES IDX 9 27 15 28 10 29 14 30 11 31 12 32 13 33
REMARK H PARENT 1 4 22 18 6 22
ROOT
ATOM      1  C   UNL     1       1.569  -0.658  -0.062  1.00  0.00     0.181 C 
ENDROOT
BRANCH   1   2
ATOM      2  C   UNL     1       2.119  -0.322  -1.239  1.00  0.00     0.206 C 
BRANCH   2   3
ATOM      3  O   UNL     1       2.967  -1.208  -1.910  1.00  0.00    -0.494 OA
ATOM      4  H   UNL     1       3.200  -2.128  -1.554  1.00  0.00     0.295 HD
ENDBRANCH   2   3
BRANCH   2   5
ATOM      5  N   UNL     1       1.860   0.960  -1.839  1.00  0.00    -0.336 N 
ATOM      6  C   UNL     1       2.888   1.671  -2.582  1.00  0.00     0.123 C 
ATOM      7  C   UNL     1       0.578   1.664  -1.829  1.00  0.00     0.118 C 
ATOM      8  C   UNL     1       2.222   2.934  -3.115  1.00  0.00     0.055 C 
ATOM      9  C   UNL     1       0.918   3.082  -2.323  1.00  0.00     0.139 C 
BRANCH   7  10
ATOM     10  C   UNL     1      -0.433   0.978  -2.778  1.00  0.00     0.063 C 
BRANCH  10  11
ATOM     11  C   UNL     1      -0.900  -0.353  -2.247  1.00  0.00    -0.046 A 
ATOM     12  C   UNL     1      -0.389  -1.553  -2.770  1.00  0.00     0.004 A 
ATOM     13  C   UNL     1      -1.824  -0.402  -1.191  1.00  0.00     0.004 A 
ATOM     14  C   UNL     1      -0.781  -2.781  -2.227  1.00  0.00     0.000 A 
ATOM     15  C   UNL     1      -2.216  -1.631  -0.652  1.00  0.00     0.000 A 
ATOM     16  C   UNL     1      -1.691  -2.820  -1.167  1.00  0.00     0.000 A 
ENDBRANCH  10  11
ENDBRANCH   7  10
BRANCH   9  17
ATOM     17  O   UNL     1       1.090   3.964  -1.240  1.00  0.00    -0.391 OA
ATOM     18  H   UNL     1       1.813   3.602  -0.660  1.00  0.00     0.211 HD
ENDBRANCH   9  17
ENDBRANCH   2   5
ENDBRANCH   1   2
BRANCH   1  19
ATOM     19  N   UNL     1       1.773  -1.968   0.484  1.00  0.00    -0.215 NA
BRANCH  19  20
ATOM     20  C   UNL     1       1.372  -2.432   1.635  1.00  0.00     0.237 C 
BRANCH  20  21
ATOM     21  O   UNL     1       1.732  -3.731   1.987  1.00  0.00    -0.492 OA
ATOM     22  H   UNL     1       2.283  -4.310   1.364  1.00  0.00     0.295 HD
ENDBRANCH  20  21
BRANCH  20  23
ATOM     23  C   UNL     1       0.578  -1.647   2.608  1.00  0.00     0.126 A 
ATOM     24  N   UNL     1      -0.455  -0.860   2.196  1.00  0.00    -0.243 NA
ATOM     25  C   UNL     1       0.840  -1.781   3.980  1.00  0.00     0.035 A 
ATOM     26  C   UNL     1      -1.226  -0.163   3.075  1.00  0.00     0.071 A 
ATOM     27  C   UNL     1       0.068  -1.078   4.906  1.00  0.00     0.013 A 
ATOM     28  C   UNL     1      -2.268   0.647   2.611  1.00  0.00     0.030 A 
ATOM     29  C   UNL     1      -0.974  -0.256   4.462  1.00  0.00     0.002 A 
ATOM     30  C   UNL     1      -3.055   1.365   3.517  1.00  0.00     0.023 A 
ATOM     31  C   UNL     1      -1.767   0.467   5.365  1.00  0.00     0.030 A 
ATOM     32  C   UNL     1      -2.805   1.277   4.891  1.00  0.00     0.041 A 
ATOM     33  Cl  UNL     1      -3.793   2.184   6.021  1.00  0.00    -0.084 Cl
ENDBRANCH  20  23
ENDBRANCH  19  20
ENDBRANCH   1  19
TORSDOF 10
