REMARK SMILES O=C(N/C=C(/O)N1C[C@H](O)C[C@H]1c1ccccc1)c1ccc2cc(Cl)ccc2n1
REMARK SMILES IDX 5 1 6 2 4 4 3 5 2 6 1 8 19 9 29 10 20 11 28 12 21 13 27 14
REMARK SMILES IDX 22 15 26 16 23 17 24 18 25 19 7 20 8 21 12 22 9 23 11 24
REMARK SMILES IDX 13 25 14 26 18 27 15 28 17 29 16 30 10 31
REMARK H PARENT 6 3 3 7 10 32
ROOT
ATOM      1  C   UNL     1       0.415  -2.044   2.505  1.00  0.00     0.204 C 
ENDROOT
BRANCH   1   2
ATOM      2  O   UNL     1       0.476  -2.421   3.847  1.00  0.00    -0.494 OA
ATOM      3  H   UNL     1       1.309  -2.282   4.407  1.00  0.00     0.295 HD
ENDBRANCH   1   2
BRANCH   1   4
ATOM      4  C   UNL     1       1.481  -1.478   1.920  1.00  0.00     0.152 C 
BRANCH   4   5
ATOM      5  N   UNL     1       1.524  -1.200   0.513  1.00  0.00    -0.322 N 
ATOM      6  C   UNL     1       2.553  -0.385  -0.068  1.00  0.00     0.273 C 
ATOM      7  H   UNL     1       0.822  -1.648  -0.117  1.00  0.00     0.169 HD
ATOM      8  O   UNL     1       3.452   0.109   0.667  1.00  0.00    -0.267 OA
BRANCH   6   9
ATOM      9  C   UNL     1       2.560  -0.109  -1.522  1.00  0.00     0.129 A 
ATOM     10  N   UNL     1       1.566  -0.609  -2.307  1.00  0.00    -0.243 NA
ATOM     11  C   UNL     1       3.575   0.667  -2.108  1.00  0.00     0.035 A 
ATOM     12  C   UNL     1       1.517  -0.385  -3.647  1.00  0.00     0.071 A 
ATOM     13  C   UNL     1       3.553   0.914  -3.482  1.00  0.00     0.013 A 
ATOM     14  C   UNL     1       0.475  -0.920  -4.412  1.00  0.00     0.030 A 
ATOM     15  C   UNL     1       2.521   0.390  -4.268  1.00  0.00     0.002 A 
ATOM     16  C   UNL     1       0.428  -0.688  -5.790  1.00  0.00     0.023 A 
ATOM     17  C   UNL     1       2.467   0.619  -5.651  1.00  0.00     0.030 A 
ATOM     18  C   UNL     1       1.421   0.080  -6.409  1.00  0.00     0.041 A 
ATOM     19  Cl  UNL     1       1.354   0.368  -8.138  1.00  0.00    -0.084 Cl
ENDBRANCH   6   9
ENDBRANCH   4   5
ENDBRANCH   1   4
BRANCH   1  20
ATOM     20  N   UNL     1      -0.804  -2.271   1.783  1.00  0.00    -0.332 N 
ATOM     21  C   UNL     1      -1.409  -3.586   1.679  1.00  0.00     0.152 C 
ATOM     22  C   UNL     1      -1.663  -1.201   1.290  1.00  0.00     0.118 C 
ATOM     23  C   UNL     1      -2.821  -3.352   1.137  1.00  0.00     0.136 C 
ATOM     24  C   UNL     1      -2.839  -1.912   0.613  1.00  0.00     0.063 C 
BRANCH  22  25
ATOM     25  C   UNL     1      -2.123  -0.302   2.422  1.00  0.00    -0.025 A 
ATOM     26  C   UNL     1      -2.056   1.095   2.276  1.00  0.00     0.006 A 
ATOM     27  C   UNL     1      -2.647  -0.840   3.613  1.00  0.00     0.006 A 
ATOM     28  C   UNL     1      -2.489   1.935   3.306  1.00  0.00     0.000 A 
ATOM     29  C   UNL     1      -3.079   0.005   4.640  1.00  0.00     0.000 A 
ATOM     30  C   UNL     1      -2.999   1.391   4.487  1.00  0.00     0.000 A 
ENDBRANCH  22  25
BRANCH  23  31
ATOM     31  O   UNL     1      -3.126  -4.254   0.107  1.00  0.00    -0.391 OA
ATOM     32  H   UNL     1      -3.283  -5.134   0.541  1.00  0.00     0.211 HD
ENDBRANCH  23  31
ENDBRANCH   1  20
TORSDOF 7
