REMARK SMILES O=C(N/C=C(\O)N1C[C@H](O)C[C@H]1c1ccccc1)c1ccc2cc(Cl)ccc2n1
REMARK SMILES IDX 5 1 6 2 4 4 3 5 2 6 1 8 19 9 29 10 20 11 28 12 21 13 27 14
REMARK SMILES IDX 22 15 26 16 23 17 24 18 25 19 7 20 8 21 12 22 9 23 11 24
REMARK SMILES IDX 13 25 14 26 18 27 15 28 17 29 16 30 10 31
REMARK H PARENT 6 3 3 7 10 32
ROOT
ATOM      1  C   UNL     1       0.148  -0.593   2.004  1.00  0.00     0.204 C 
ENDROOT
BRANCH   1   2
ATOM      2  O   UNL     1      -0.585   0.446   2.586  1.00  0.00    -0.494 OA
ATOM      3  H   UNL     1      -0.700   1.361   2.172  1.00  0.00     0.295 HD
ENDBRANCH   1   2
BRANCH   1   4
ATOM      4  C   UNL     1       0.614  -0.506   0.742  1.00  0.00     0.152 C 
BRANCH   4   5
ATOM      5  N   UNL     1       0.275   0.571  -0.147  1.00  0.00    -0.322 N 
ATOM      6  C   UNL     1       0.978   0.772  -1.385  1.00  0.00     0.273 C 
ATOM      7  H   UNL     1      -0.559   1.165   0.049  1.00  0.00     0.169 HD
ATOM      8  O   UNL     1       1.982   0.058  -1.659  1.00  0.00    -0.267 OA
BRANCH   6   9
ATOM      9  C   UNL     1       0.540   1.815  -2.339  1.00  0.00     0.129 A 
ATOM     10  N   UNL     1      -0.536   2.595  -2.040  1.00  0.00    -0.243 NA
ATOM     11  C   UNL     1       1.217   2.014  -3.555  1.00  0.00     0.035 A 
ATOM     12  C   UNL     1      -0.984   3.566  -2.879  1.00  0.00     0.071 A 
ATOM     13  C   UNL     1       0.780   3.004  -4.438  1.00  0.00     0.013 A 
ATOM     14  C   UNL     1      -2.095   4.341  -2.529  1.00  0.00     0.030 A 
ATOM     15  C   UNL     1      -0.328   3.792  -4.109  1.00  0.00     0.002 A 
ATOM     16  C   UNL     1      -2.554   5.339  -3.395  1.00  0.00     0.023 A 
ATOM     17  C   UNL     1      -0.794   4.795  -4.973  1.00  0.00     0.030 A 
ATOM     18  C   UNL     1      -1.906   5.566  -4.615  1.00  0.00     0.041 A 
ATOM     19  Cl  UNL     1      -2.488   6.819  -5.696  1.00  0.00    -0.084 Cl
ENDBRANCH   6   9
ENDBRANCH   4   5
ENDBRANCH   1   4
BRANCH   1  20
ATOM     20  N   UNL     1       0.418  -1.760   2.811  1.00  0.00    -0.332 N 
ATOM     21  C   UNL     1       0.247  -1.744   4.254  1.00  0.00     0.152 C 
ATOM     22  C   UNL     1       0.907  -3.049   2.326  1.00  0.00     0.118 C 
ATOM     23  C   UNL     1       0.889  -3.033   4.766  1.00  0.00     0.136 C 
ATOM     24  C   UNL     1       0.948  -3.963   3.555  1.00  0.00     0.063 C 
BRANCH  22  25
ATOM     25  C   UNL     1       0.010  -3.620   1.244  1.00  0.00    -0.025 A 
ATOM     26  C   UNL     1      -1.390  -3.602   1.382  1.00  0.00     0.006 A 
ATOM     27  C   UNL     1       0.577  -4.207   0.100  1.00  0.00     0.006 A 
ATOM     28  C   UNL     1      -2.205  -4.141   0.382  1.00  0.00     0.000 A 
ATOM     29  C   UNL     1      -0.243  -4.744  -0.898  1.00  0.00     0.000 A 
ATOM     30  C   UNL     1      -1.632  -4.709  -0.758  1.00  0.00     0.000 A 
ENDBRANCH  22  25
BRANCH  23  31
ATOM     31  O   UNL     1       2.192  -2.779   5.223  1.00  0.00    -0.391 OA
ATOM     32  H   UNL     1       2.102  -2.379   6.128  1.00  0.00     0.211 HD
ENDBRANCH  23  31
ENDBRANCH   1  20
TORSDOF 7
