REMARK SMILES O/C(=N\C=C(\O)N1C[C@H](O)C[C@H]1c1ccccc1)c1ccc2cc(Cl)ccc2n1
REMARK SMILES IDX 4 1 3 2 2 3 1 4 19 6 29 7 20 8 28 9 21 10 27 11 22 12 26 13
REMARK SMILES IDX 23 14 24 15 25 16 5 17 6 18 7 20 8 21 12 22 9 23 11 24 13 25
REMARK SMILES IDX 14 26 18 27 15 28 17 29 16 30 10 31
REMARK H PARENT 1 5 6 19 10 32
ROOT
ATOM      1  C   UNL     1       0.111   0.717   2.185  1.00  0.00     0.181 C 
ENDROOT
BRANCH   1   2
ATOM      2  N   UNL     1       0.066   0.905   0.765  1.00  0.00    -0.215 NA
BRANCH   2   3
ATOM      3  C   UNL     1       0.109   2.031   0.113  1.00  0.00     0.237 C 
BRANCH   3   4
ATOM      4  O   UNL     1       0.152   3.269   0.763  1.00  0.00    -0.492 OA
ATOM      5  H   UNL     1       0.097   3.384   1.765  1.00  0.00     0.295 HD
ENDBRANCH   3   4
BRANCH   3   6
ATOM      6  C   UNL     1       0.115   1.990  -1.361  1.00  0.00     0.126 A 
ATOM      7  N   UNL     1       0.114   0.784  -1.995  1.00  0.00    -0.243 NA
ATOM      8  C   UNL     1       0.137   3.170  -2.122  1.00  0.00     0.035 A 
ATOM      9  C   UNL     1       0.137   0.677  -3.350  1.00  0.00     0.071 A 
ATOM     10  C   UNL     1       0.158   3.092  -3.516  1.00  0.00     0.013 A 
ATOM     11  C   UNL     1       0.142  -0.584  -3.955  1.00  0.00     0.030 A 
ATOM     12  C   UNL     1       0.160   1.842  -4.146  1.00  0.00     0.002 A 
ATOM     13  C   UNL     1       0.169  -0.690  -5.349  1.00  0.00     0.023 A 
ATOM     14  C   UNL     1       0.186   1.729  -5.544  1.00  0.00     0.030 A 
ATOM     15  C   UNL     1       0.191   0.463  -6.143  1.00  0.00     0.041 A 
ATOM     16  Cl  UNL     1       0.224   0.321  -7.891  1.00  0.00    -0.084 Cl
ENDBRANCH   3   6
ENDBRANCH   2   3
ENDBRANCH   1   2
BRANCH   1  17
ATOM     17  C   UNL     1       0.010  -0.513   2.698  1.00  0.00     0.206 C 
BRANCH  17  18
ATOM     18  O   UNL     1       0.180  -0.721   4.067  1.00  0.00    -0.494 OA
ATOM     19  H   UNL     1       0.376   0.041   4.706  1.00  0.00     0.295 HD
ENDBRANCH  17  18
BRANCH  17  20
ATOM     20  N   UNL     1      -0.253  -1.640   1.852  1.00  0.00    -0.332 N 
ATOM     21  C   UNL     1      -1.538  -1.856   1.209  1.00  0.00     0.152 C 
ATOM     22  C   UNL     1       0.633  -2.792   1.781  1.00  0.00     0.118 C 
ATOM     23  C   UNL     1      -1.426  -3.221   0.525  1.00  0.00     0.136 C 
ATOM     24  C   UNL     1      -0.193  -3.908   1.131  1.00  0.00     0.063 C 
BRANCH  22  25
ATOM     25  C   UNL     1       1.867  -2.453   0.967  1.00  0.00    -0.025 A 
ATOM     26  C   UNL     1       3.146  -2.729   1.479  1.00  0.00     0.006 A 
ATOM     27  C   UNL     1       1.752  -1.868  -0.309  1.00  0.00     0.006 A 
ATOM     28  C   UNL     1       4.288  -2.415   0.734  1.00  0.00     0.000 A 
ATOM     29  C   UNL     1       2.895  -1.554  -1.049  1.00  0.00     0.000 A 
ATOM     30  C   UNL     1       4.162  -1.827  -0.528  1.00  0.00     0.000 A 
ENDBRANCH  22  25
BRANCH  23  31
ATOM     31  O   UNL     1      -2.594  -3.990   0.678  1.00  0.00    -0.391 OA
ATOM     32  H   UNL     1      -2.748  -4.121   1.651  1.00  0.00     0.211 HD
ENDBRANCH  23  31
ENDBRANCH  17  20
ENDBRANCH   1  17
TORSDOF 9
