REMARK SMILES O=C(N/C=C(\O)N1CCCC[C@H]1C1CCCCC1)c1ccc2cc(F)ccc2n1
REMARK SMILES IDX 4 1 5 2 6 3 7 5 8 6 12 7 9 8 11 9 10 10 13 11 14 12 18 13
REMARK SMILES IDX 15 14 17 15 16 16 3 17 2 18 1 20 19 21 29 22 20 23 28 24
REMARK SMILES IDX 21 25 27 26 22 27 26 28 23 29 24 30 25 31
REMARK H PARENT 6 4 3 19
ROOT
ATOM      1  C   UNL     1      -0.512  -0.118  -2.111  1.00  0.00     0.152 C 
ENDROOT
BRANCH   1   2
ATOM      2  C   UNL     1      -0.769   0.920  -1.302  1.00  0.00     0.203 C 
BRANCH   2   3
ATOM      3  O   UNL     1       0.280   1.704  -0.823  1.00  0.00    -0.494 OA
ATOM      4  H   UNL     1       0.117   2.520  -0.249  1.00  0.00     0.295 HD
ENDBRANCH   2   3
BRANCH   2   5
ATOM      5  N   UNL     1      -2.123   1.195  -0.885  1.00  0.00    -0.339 N 
ATOM      6  C   UNL     1      -3.199   1.239  -1.888  1.00  0.00     0.120 C 
ATOM      7  C   UNL     1      -2.431   1.420   0.545  1.00  0.00     0.088 C 
ATOM      8  C   UNL     1      -4.031   2.520  -1.736  1.00  0.00     0.022 C 
ATOM      9  C   UNL     1      -3.917   1.815   0.730  1.00  0.00     0.025 C 
ATOM     10  C   UNL     1      -4.302   2.912  -0.268  1.00  0.00     0.004 C 
BRANCH   7  11
ATOM     11  C   UNL     1      -2.005   0.190   1.407  1.00  0.00     0.012 C 
ATOM     12  C   UNL     1      -2.025   0.502   2.925  1.00  0.00     0.006 C 
ATOM     13  C   UNL     1      -2.764  -1.123   1.050  1.00  0.00     0.006 C 
ATOM     14  C   UNL     1      -1.849  -0.782   3.742  1.00  0.00     0.000 C 
ATOM     15  C   UNL     1      -3.727  -1.570   2.157  1.00  0.00     0.000 C 
ATOM     16  C   UNL     1      -2.997  -1.785   3.496  1.00  0.00     0.000 C 
ENDBRANCH   7  11
ENDBRANCH   2   5
ENDBRANCH   1   2
BRANCH   1  17
ATOM     17  N   UNL     1       0.816  -0.449  -2.544  1.00  0.00    -0.322 N 
ATOM     18  C   UNL     1       1.730   0.512  -3.098  1.00  0.00     0.273 C 
ATOM     19  H   UNL     1       1.048  -1.464  -2.623  1.00  0.00     0.169 HD
ATOM     20  O   UNL     1       1.319   1.663  -3.413  1.00  0.00    -0.267 OA
BRANCH  18  21
ATOM     21  C   UNL     1       3.144   0.148  -3.330  1.00  0.00     0.129 A 
ATOM     22  N   UNL     1       3.593  -1.081  -2.952  1.00  0.00    -0.243 NA
ATOM     23  C   UNL     1       4.038   1.055  -3.926  1.00  0.00     0.035 A 
ATOM     24  C   UNL     1       4.883  -1.470  -3.135  1.00  0.00     0.071 A 
ATOM     25  C   UNL     1       5.370   0.685  -4.127  1.00  0.00     0.013 A 
ATOM     26  C   UNL     1       5.298  -2.744  -2.732  1.00  0.00     0.032 A 
ATOM     27  C   UNL     1       5.807  -0.585  -3.732  1.00  0.00     0.003 A 
ATOM     28  C   UNL     1       6.626  -3.140  -2.921  1.00  0.00     0.041 A 
ATOM     29  C   UNL     1       7.138  -0.989  -3.919  1.00  0.00     0.049 A 
ATOM     30  C   UNL     1       7.544  -2.265  -3.513  1.00  0.00     0.123 A 
ATOM     31  F   UNL     1       8.830  -2.655  -3.693  1.00  0.00    -0.207 F 
ENDBRANCH  18  21
ENDBRANCH   1  17
TORSDOF 6
