REMARK SMILES C[C@H](N/C(O)=C\NC(=O)c1ccc2cc(Cl)ccc2n1)c1ccccc1
REMARK SMILES IDX 4 1 5 2 6 4 7 5 8 6 9 8 10 9 20 10 11 11 19 12 12 13 18 14
REMARK SMILES IDX 13 15 17 16 14 17 15 18 16 19 3 20 2 22 1 23 21 24 22 25
REMARK SMILES IDX 26 26 23 27 25 28 24 29
REMARK H PARENT 5 3 7 7 3 21
ROOT
ATOM      1  C   UNL     1       0.177  -0.846   0.619  1.00  0.00     0.201 C 
ENDROOT
BRANCH   1   2
ATOM      2  O   UNL     1       0.960  -1.950   0.952  1.00  0.00    -0.494 OA
ATOM      3  H   UNL     1       0.846  -2.446   1.829  1.00  0.00     0.295 HD
ENDBRANCH   1   2
BRANCH   1   4
ATOM      4  C   UNL     1      -0.765  -0.415   1.476  1.00  0.00     0.152 C 
BRANCH   4   5
ATOM      5  N   UNL     1      -1.542   0.776   1.271  1.00  0.00    -0.322 N 
ATOM      6  C   UNL     1      -1.025   2.035   0.807  1.00  0.00     0.273 C 
ATOM      7  H   UNL     1      -2.549   0.740   1.547  1.00  0.00     0.169 HD
ATOM      8  O   UNL     1      -1.817   2.847   0.258  1.00  0.00    -0.267 OA
BRANCH   6   9
ATOM      9  C   UNL     1       0.394   2.419   0.992  1.00  0.00     0.129 A 
ATOM     10  N   UNL     1       1.156   1.776   1.919  1.00  0.00    -0.243 NA
ATOM     11  C   UNL     1       0.964   3.451   0.227  1.00  0.00     0.035 A 
ATOM     12  C   UNL     1       2.465   2.084   2.122  1.00  0.00     0.071 A 
ATOM     13  C   UNL     1       2.305   3.790   0.412  1.00  0.00     0.013 A 
ATOM     14  C   UNL     1       3.211   1.385   3.076  1.00  0.00     0.030 A 
ATOM     15  C   UNL     1       3.073   3.107   1.362  1.00  0.00     0.002 A 
ATOM     16  C   UNL     1       4.558   1.701   3.279  1.00  0.00     0.023 A 
ATOM     17  C   UNL     1       4.424   3.419   1.570  1.00  0.00     0.030 A 
ATOM     18  C   UNL     1       5.165   2.715   2.528  1.00  0.00     0.041 A 
ATOM     19  Cl  UNL     1       6.856   3.104   2.787  1.00  0.00    -0.084 Cl
ENDBRANCH   6   9
ENDBRANCH   4   5
ENDBRANCH   1   4
BRANCH   1  20
ATOM     20  N   UNL     1       0.415  -0.201  -0.639  1.00  0.00    -0.349 N 
ATOM     21  H   UNL     1       1.414  -0.130  -0.937  1.00  0.00     0.164 HD
BRANCH  20  22
ATOM     22  C   UNL     1      -0.609  -0.176  -1.688  1.00  0.00     0.109 C 
ATOM     23  C   UNL     1      -0.315   0.946  -2.688  1.00  0.00     0.036 C 
BRANCH  22  24
ATOM     24  C   UNL     1      -0.677  -1.518  -2.388  1.00  0.00    -0.026 A 
ATOM     25  C   UNL     1      -1.901  -2.203  -2.484  1.00  0.00     0.006 A 
ATOM     26  C   UNL     1       0.475  -2.095  -2.957  1.00  0.00     0.006 A 
ATOM     27  C   UNL     1      -1.971  -3.441  -3.130  1.00  0.00     0.000 A 
ATOM     28  C   UNL     1       0.400  -3.333  -3.602  1.00  0.00     0.000 A 
ATOM     29  C   UNL     1      -0.822  -4.006  -3.687  1.00  0.00     0.000 A 
ENDBRANCH  22  24
ENDBRANCH  20  22
ENDBRANCH   1  20
TORSDOF 7
