REMARK SMILES CC(C)C[N-]/C(O)=C\N=C(\O)c1ccc2cc(Cl)ccc2n1
REMARK SMILES IDX 8 1 9 2 10 3 11 4 12 6 22 7 13 8 21 9 14 10 20 11 15 12
REMARK SMILES IDX 19 13 16 14 17 15 18 16 6 17 5 18 4 19 2 20 1 21 3 22 7 23
REMARK H PARENT 11 5 7 24
ROOT
ATOM      1  C   UNL     1       1.907  -1.792  -1.035  1.00  0.00     0.136 C 
ENDROOT
BRANCH   1   2
ATOM      2  N   UNL     1       1.635  -1.901   0.367  1.00  0.00    -0.218 NA
BRANCH   2   3
ATOM      3  C   UNL     1       1.236  -0.945   1.157  1.00  0.00     0.237 C 
BRANCH   3   4
ATOM      4  O   UNL     1       1.128  -1.201   2.521  1.00  0.00    -0.492 OA
ATOM      5  H   UNL     1       1.349  -2.114   2.901  1.00  0.00     0.295 HD
ENDBRANCH   3   4
BRANCH   3   6
ATOM      6  C   UNL     1       0.893   0.409   0.679  1.00  0.00     0.126 A 
ATOM      7  N   UNL     1       1.390   1.488   1.343  1.00  0.00    -0.243 NA
ATOM      8  C   UNL     1      -0.002   0.602  -0.386  1.00  0.00     0.035 A 
ATOM      9  C   UNL     1       1.081   2.763   0.983  1.00  0.00     0.071 A 
ATOM     10  C   UNL     1      -0.337   1.899  -0.780  1.00  0.00     0.013 A 
ATOM     11  C   UNL     1       1.626   3.844   1.684  1.00  0.00     0.030 A 
ATOM     12  C   UNL     1       0.205   2.996  -0.101  1.00  0.00     0.002 A 
ATOM     13  C   UNL     1       1.307   5.153   1.310  1.00  0.00     0.023 A 
ATOM     14  C   UNL     1      -0.112   4.312  -0.469  1.00  0.00     0.030 A 
ATOM     15  C   UNL     1       0.440   5.388   0.236  1.00  0.00     0.041 A 
ATOM     16  Cl  UNL     1       0.043   7.033  -0.225  1.00  0.00    -0.084 Cl
ENDBRANCH   3   6
ENDBRANCH   2   3
ENDBRANCH   1   2
BRANCH   1  17
ATOM     17  C   UNL     1       2.129  -2.862  -1.812  1.00  0.00     0.029 C 
BRANCH  17  18
ATOM     18  N   UNL     1       2.025  -4.227  -1.363  1.00  0.00    -0.653 NA
BRANCH  18  19
ATOM     19  C   UNL     1       1.387  -4.754  -0.157  1.00  0.00    -0.115 C 
BRANCH  19  20
ATOM     20  C   UNL     1      -0.140  -4.538  -0.189  1.00  0.00    -0.035 C 
ATOM     21  C   UNL     1      -0.791  -5.352  -1.315  1.00  0.00     0.006 C 
ATOM     22  C   UNL     1      -0.757  -4.914   1.163  1.00  0.00     0.006 C 
ENDBRANCH  19  20
ENDBRANCH  18  19
ENDBRANCH  17  18
BRANCH  17  23
ATOM     23  O   UNL     1       2.491  -2.637  -3.137  1.00  0.00    -0.529 OA
ATOM     24  H   UNL     1       2.670  -3.411  -3.765  1.00  0.00     0.290 HD
ENDBRANCH  17  23
ENDBRANCH   1  17
TORSDOF 9
