REMARK SMILES CC(C)C[N-]/C(O)=C\N=C(/O)c1ccc2cc(Cl)ccc2n1
REMARK SMILES IDX 8 1 9 2 10 3 11 4 12 6 22 7 13 8 21 9 14 10 20 11 15 12
REMARK SMILES IDX 19 13 16 14 17 15 18 16 6 17 5 18 4 19 2 20 1 21 3 22 7 23
REMARK H PARENT 11 5 7 24
ROOT
ATOM      1  C   UNL     1      -0.727   0.698  -3.004  1.00  0.00     0.136 C 
ENDROOT
BRANCH   1   2
ATOM      2  N   UNL     1      -0.606  -0.583  -2.372  1.00  0.00    -0.218 NA
BRANCH   2   3
ATOM      3  C   UNL     1      -0.546  -1.748  -2.953  1.00  0.00     0.237 C 
BRANCH   3   4
ATOM      4  O   UNL     1      -0.598  -1.895  -4.344  1.00  0.00    -0.492 OA
ATOM      5  H   UNL     1      -0.688  -1.129  -4.995  1.00  0.00     0.295 HD
ENDBRANCH   3   4
BRANCH   3   6
ATOM      6  C   UNL     1      -0.418  -2.954  -2.111  1.00  0.00     0.126 A 
ATOM      7  N   UNL     1      -0.364  -2.825  -0.755  1.00  0.00    -0.243 NA
ATOM      8  C   UNL     1      -0.350  -4.234  -2.686  1.00  0.00     0.035 A 
ATOM      9  C   UNL     1      -0.245  -3.900   0.070  1.00  0.00     0.071 A 
ATOM     10  C   UNL     1      -0.229  -5.357  -1.864  1.00  0.00     0.013 A 
ATOM     11  C   UNL     1      -0.193  -3.719   1.456  1.00  0.00     0.030 A 
ATOM     12  C   UNL     1      -0.175  -5.201  -0.474  1.00  0.00     0.002 A 
ATOM     13  C   UNL     1      -0.072  -4.826   2.302  1.00  0.00     0.023 A 
ATOM     14  C   UNL     1      -0.053  -6.307   0.380  1.00  0.00     0.030 A 
ATOM     15  C   UNL     1      -0.002  -6.117   1.767  1.00  0.00     0.041 A 
ATOM     16  Cl  UNL     1       0.150  -7.501   2.835  1.00  0.00    -0.084 Cl
ENDBRANCH   3   6
ENDBRANCH   2   3
ENDBRANCH   1   2
BRANCH   1  17
ATOM     17  C   UNL     1      -0.780   1.807  -2.264  1.00  0.00     0.029 C 
BRANCH  17  18
ATOM     18  N   UNL     1      -0.723   1.716  -0.836  1.00  0.00    -0.653 NA
BRANCH  18  19
ATOM     19  C   UNL     1      -0.711   2.873   0.054  1.00  0.00    -0.115 C 
BRANCH  19  20
ATOM     20  C   UNL     1       0.730   3.272   0.428  1.00  0.00    -0.035 C 
ATOM     21  C   UNL     1       1.515   3.783  -0.787  1.00  0.00     0.006 C 
ATOM     22  C   UNL     1       0.714   4.339   1.529  1.00  0.00     0.006 C 
ENDBRANCH  19  20
ENDBRANCH  18  19
ENDBRANCH  17  18
BRANCH  17  23
ATOM     23  O   UNL     1      -0.892   3.057  -2.876  1.00  0.00    -0.529 OA
ATOM     24  H   UNL     1      -0.933   3.160  -3.884  1.00  0.00     0.290 HD
ENDBRANCH  17  23
ENDBRANCH   1  17
TORSDOF 9
