REMARK SMILES CC(C)C[N-]/C(O)=C/N=C(\O)c1ccc2cc(Cl)ccc2n1
REMARK SMILES IDX 8 1 9 2 10 3 11 4 12 6 22 7 13 8 21 9 14 10 20 11 15 12
REMARK SMILES IDX 19 13 16 14 17 15 18 16 6 17 5 18 4 19 2 20 1 21 3 22 7 23
REMARK H PARENT 11 5 7 24
ROOT
ATOM      1  C   UNL     1       1.478  -0.592   1.135  1.00  0.00     0.136 C 
ENDROOT
BRANCH   1   2
ATOM      2  N   UNL     1       0.403   0.306   0.830  1.00  0.00    -0.218 NA
BRANCH   2   3
ATOM      3  C   UNL     1      -0.733   0.421   1.459  1.00  0.00     0.237 C 
BRANCH   3   4
ATOM      4  O   UNL     1      -1.055  -0.363   2.573  1.00  0.00    -0.492 OA
ATOM      5  H   UNL     1      -0.448  -1.066   2.970  1.00  0.00     0.295 HD
ENDBRANCH   3   4
BRANCH   3   6
ATOM      6  C   UNL     1      -1.712   1.416   0.979  1.00  0.00     0.126 A 
ATOM      7  N   UNL     1      -1.412   2.186  -0.105  1.00  0.00    -0.243 NA
ATOM      8  C   UNL     1      -2.950   1.581   1.621  1.00  0.00     0.035 A 
ATOM      9  C   UNL     1      -2.274   3.117  -0.592  1.00  0.00     0.071 A 
ATOM     10  C   UNL     1      -3.857   2.530   1.143  1.00  0.00     0.013 A 
ATOM     11  C   UNL     1      -1.923   3.885  -1.708  1.00  0.00     0.030 A 
ATOM     12  C   UNL     1      -3.527   3.310   0.029  1.00  0.00     0.002 A 
ATOM     13  C   UNL     1      -2.812   4.842  -2.207  1.00  0.00     0.023 A 
ATOM     14  C   UNL     1      -4.415   4.272  -0.477  1.00  0.00     0.030 A 
ATOM     15  C   UNL     1      -4.056   5.036  -1.593  1.00  0.00     0.041 A 
ATOM     16  Cl  UNL     1      -5.165   6.239  -2.225  1.00  0.00    -0.084 Cl
ENDBRANCH   3   6
ENDBRANCH   2   3
ENDBRANCH   1   2
BRANCH   1  17
ATOM     17  C   UNL     1       2.589  -0.598   0.394  1.00  0.00     0.029 C 
BRANCH  17  18
ATOM     18  N   UNL     1       3.640  -1.510   0.729  1.00  0.00    -0.653 NA
BRANCH  18  19
ATOM     19  C   UNL     1       4.874  -1.648  -0.038  1.00  0.00    -0.115 C 
BRANCH  19  20
ATOM     20  C   UNL     1       4.763  -2.783  -1.074  1.00  0.00    -0.035 C 
ATOM     21  C   UNL     1       3.734  -2.462  -2.167  1.00  0.00     0.006 C 
ATOM     22  C   UNL     1       6.133  -3.056  -1.708  1.00  0.00     0.006 C 
ENDBRANCH  19  20
ENDBRANCH  18  19
ENDBRANCH  17  18
BRANCH  17  23
ATOM     23  O   UNL     1       2.745   0.266  -0.694  1.00  0.00    -0.529 OA
ATOM     24  H   UNL     1       2.033   0.929  -0.976  1.00  0.00     0.290 HD
ENDBRANCH  17  23
ENDBRANCH   1  17
TORSDOF 9
