REMARK SMILES O/C(=N\C=C(\O)N1CCCC[C@H]1c1ccccc1)c1ccc2cc(Cl)ccc2n1
REMARK SMILES IDX 3 1 2 2 1 3 19 5 29 6 20 7 28 8 21 9 27 10 22 11 26 12 23 13
REMARK SMILES IDX 24 14 25 15 4 16 5 17 6 18 7 20 8 21 12 22 9 23 11 24 10 25
REMARK SMILES IDX 13 26 14 27 18 28 15 29 17 30 16 31
REMARK H PARENT 1 4 6 19
ROOT
ATOM      1  N   UNL     1       0.622  -0.756   1.484  1.00  0.00    -0.215 NA
ENDROOT
BRANCH   1   2
ATOM      2  C   UNL     1       0.696   0.194   2.371  1.00  0.00     0.237 C 
BRANCH   2   3
ATOM      3  O   UNL     1       1.755   0.287   3.280  1.00  0.00    -0.492 OA
ATOM      4  H   UNL     1       2.513  -0.376   3.332  1.00  0.00     0.295 HD
ENDBRANCH   2   3
BRANCH   2   5
ATOM      5  C   UNL     1      -0.362   1.220   2.382  1.00  0.00     0.126 A 
ATOM      6  N   UNL     1      -1.390   1.125   1.492  1.00  0.00    -0.243 NA
ATOM      7  C   UNL     1      -0.314   2.308   3.268  1.00  0.00     0.035 A 
ATOM      8  C   UNL     1      -2.380   2.054   1.426  1.00  0.00     0.071 A 
ATOM      9  C   UNL     1      -1.319   3.278   3.227  1.00  0.00     0.013 A 
ATOM     10  C   UNL     1      -3.408   1.918   0.488  1.00  0.00     0.030 A 
ATOM     11  C   UNL     1      -2.365   3.161   2.302  1.00  0.00     0.002 A 
ATOM     12  C   UNL     1      -4.419   2.881   0.415  1.00  0.00     0.023 A 
ATOM     13  C   UNL     1      -3.387   4.120   2.229  1.00  0.00     0.030 A 
ATOM     14  C   UNL     1      -4.410   3.980   1.284  1.00  0.00     0.041 A 
ATOM     15  Cl  UNL     1      -5.688   5.179   1.192  1.00  0.00    -0.084 Cl
ENDBRANCH   2   5
ENDBRANCH   1   2
BRANCH   1  16
ATOM     16  C   UNL     1       1.553  -1.820   1.257  1.00  0.00     0.181 C 
BRANCH  16  17
ATOM     17  C   UNL     1       1.417  -2.589   0.171  1.00  0.00     0.206 C 
BRANCH  17  18
ATOM     18  O   UNL     1       2.343  -3.594  -0.108  1.00  0.00    -0.494 OA
ATOM     19  H   UNL     1       3.140  -3.771   0.494  1.00  0.00     0.295 HD
ENDBRANCH  17  18
BRANCH  17  20
ATOM     20  N   UNL     1       0.318  -2.383  -0.729  1.00  0.00    -0.335 N 
ATOM     21  C   UNL     1      -0.967  -3.008  -0.394  1.00  0.00     0.120 C 
ATOM     22  C   UNL     1       0.543  -1.656  -1.993  1.00  0.00     0.115 C 
ATOM     23  C   UNL     1      -2.104  -2.391  -1.199  1.00  0.00     0.022 C 
ATOM     24  C   UNL     1      -0.389  -2.167  -3.123  1.00  0.00     0.030 C 
ATOM     25  C   UNL     1      -1.840  -2.499  -2.704  1.00  0.00     0.004 C 
BRANCH  22  26
ATOM     26  C   UNL     1       0.502  -0.147  -1.763  1.00  0.00    -0.025 A 
ATOM     27  C   UNL     1       1.635   0.483  -1.211  1.00  0.00     0.006 A 
ATOM     28  C   UNL     1      -0.636   0.642  -2.040  1.00  0.00     0.006 A 
ATOM     29  C   UNL     1       1.625   1.851  -0.923  1.00  0.00     0.000 A 
ATOM     30  C   UNL     1      -0.637   2.012  -1.760  1.00  0.00     0.000 A 
ATOM     31  C   UNL     1       0.488   2.615  -1.195  1.00  0.00     0.000 A 
ENDBRANCH  22  26
ENDBRANCH  17  20
ENDBRANCH  16  17
ENDBRANCH   1  16
TORSDOF 8
