REMARK SMILES O/C(=C\N=C(\O)c1ccc2cc(Cl)ccc2n1)N1CCCC[C@H]1c1ccccc1
REMARK SMILES IDX 3 1 2 2 1 3 18 5 19 6 23 7 20 8 22 9 21 10 24 11 25 12 29 13
REMARK SMILES IDX 26 14 28 15 27 16 4 17 5 18 6 19 7 21 17 22 8 23 16 24 9 25
REMARK SMILES IDX 15 26 10 27 14 28 11 29 12 30 13 31
REMARK H PARENT 1 4 6 20
ROOT
ATOM      1  C   UNL     1      -0.344  -1.885  -1.020  1.00  0.00     0.181 C 
ENDROOT
BRANCH   1   2
ATOM      2  C   UNL     1       0.476  -2.240  -2.024  1.00  0.00     0.206 C 
BRANCH   2   3
ATOM      3  O   UNL     1       0.026  -3.129  -3.007  1.00  0.00    -0.494 OA
ATOM      4  H   UNL     1      -0.902  -3.533  -3.007  1.00  0.00     0.295 HD
ENDBRANCH   2   3
BRANCH   2   5
ATOM      5  N   UNL     1       1.826  -1.713  -2.125  1.00  0.00    -0.335 N 
ATOM      6  C   UNL     1       2.586  -1.991  -3.357  1.00  0.00     0.120 C 
ATOM      7  C   UNL     1       2.535  -1.173  -0.940  1.00  0.00     0.115 C 
ATOM      8  C   UNL     1       3.623  -0.895  -3.641  1.00  0.00     0.022 C 
ATOM      9  C   UNL     1       4.062  -1.230  -1.130  1.00  0.00     0.030 C 
ATOM     10  C   UNL     1       4.506  -0.544  -2.428  1.00  0.00     0.004 C 
BRANCH   7  11
ATOM     11  C   UNL     1       2.089   0.239  -0.590  1.00  0.00    -0.025 A 
ATOM     12  C   UNL     1       2.244   0.698   0.731  1.00  0.00     0.006 A 
ATOM     13  C   UNL     1       1.525   1.106  -1.548  1.00  0.00     0.006 A 
ATOM     14  C   UNL     1       1.840   1.987   1.088  1.00  0.00     0.000 A 
ATOM     15  C   UNL     1       1.124   2.396  -1.186  1.00  0.00     0.000 A 
ATOM     16  C   UNL     1       1.283   2.836   0.130  1.00  0.00     0.000 A 
ENDBRANCH   7  11
ENDBRANCH   2   5
ENDBRANCH   1   2
BRANCH   1  17
ATOM     17  N   UNL     1      -1.673  -2.413  -0.920  1.00  0.00    -0.215 NA
BRANCH  17  18
ATOM     18  C   UNL     1      -2.604  -1.965  -0.124  1.00  0.00     0.237 C 
BRANCH  18  19
ATOM     19  O   UNL     1      -3.811  -2.652  -0.036  1.00  0.00    -0.492 OA
ATOM     20  H   UNL     1      -3.977  -3.490  -0.581  1.00  0.00     0.295 HD
ENDBRANCH  18  19
BRANCH  18  21
ATOM     21  C   UNL     1      -2.429  -0.754   0.702  1.00  0.00     0.126 A 
ATOM     22  N   UNL     1      -2.641  -0.827   2.043  1.00  0.00    -0.243 NA
ATOM     23  C   UNL     1      -2.076   0.473   0.118  1.00  0.00     0.035 A 
ATOM     24  C   UNL     1      -2.484   0.253   2.856  1.00  0.00     0.071 A 
ATOM     25  C   UNL     1      -1.914   1.600   0.924  1.00  0.00     0.013 A 
ATOM     26  C   UNL     1      -2.691   0.133   4.234  1.00  0.00     0.030 A 
ATOM     27  C   UNL     1      -2.105   1.499   2.307  1.00  0.00     0.002 A 
ATOM     28  C   UNL     1      -2.513   1.241   5.067  1.00  0.00     0.023 A 
ATOM     29  C   UNL     1      -1.931   2.607   3.149  1.00  0.00     0.030 A 
ATOM     30  C   UNL     1      -2.132   2.475   4.528  1.00  0.00     0.041 A 
ATOM     31  Cl  UNL     1      -1.909   3.860   5.581  1.00  0.00    -0.084 Cl
ENDBRANCH  18  21
ENDBRANCH  17  18
ENDBRANCH   1  17
TORSDOF 8
