REMARK SMILES O=C(NC/C(O)=[N+]1/CCC[C@@H]1c1cscn1)c1ccc2cc(F)ccc2n1
REMARK SMILES IDX 4 1 5 2 6 3 7 5 8 6 11 7 9 8 10 9 12 10 16 11 13 12 15 13
REMARK SMILES IDX 14 14 3 15 2 16 1 18 17 19 27 20 18 21 26 22 19 23 25 24
REMARK SMILES IDX 20 25 24 26 21 27 22 28 23 29
REMARK H PARENT 6 4 3 17
ROOT
ATOM      1  C   UNL     1      -0.234   1.852  -1.373  1.00  0.00     0.269 C 
ENDROOT
BRANCH   1   2
ATOM      2  C   UNL     1      -0.017   0.641  -2.248  1.00  0.00     0.354 C 
BRANCH   2   3
ATOM      3  O   UNL     1       0.903   0.782  -3.292  1.00  0.00    -0.462 OA
ATOM      4  H   UNL     1       1.142   0.039  -3.935  1.00  0.00     0.299 HD
ENDBRANCH   2   3
BRANCH   2   5
ATOM      5  N   UNL     1      -0.639  -0.500  -2.039  1.00  0.00    -0.192 N 
ATOM      6  C   UNL     1      -0.407  -1.697  -2.843  1.00  0.00     0.355 C 
ATOM      7  C   UNL     1      -1.599  -0.755  -0.961  1.00  0.00     0.314 C 
ATOM      8  C   UNL     1      -1.337  -2.769  -2.290  1.00  0.00     0.080 C 
ATOM      9  C   UNL     1      -1.762  -2.274  -0.915  1.00  0.00     0.090 C 
BRANCH   7  10
ATOM     10  C   UNL     1      -2.920  -0.091  -1.253  1.00  0.00     0.119 A 
ATOM     11  N   UNL     1      -3.462  -0.075  -2.503  1.00  0.00    -0.243 NA
ATOM     12  C   UNL     1      -3.698   0.506  -0.266  1.00  0.00     0.097 A 
ATOM     13  C   UNL     1      -4.661   0.544  -2.532  1.00  0.00     0.176 A 
ATOM     14  S   UNL     1      -5.095   1.082  -1.001  1.00  0.00    -0.130 S 
ENDBRANCH   7  10
ENDBRANCH   2   5
ENDBRANCH   1   2
BRANCH   1  15
ATOM     15  N   UNL     1       0.396   1.671  -0.067  1.00  0.00    -0.337 N 
ATOM     16  C   UNL     1       1.820   1.577   0.098  1.00  0.00     0.270 C 
ATOM     17  H   UNL     1      -0.223   1.652   0.775  1.00  0.00     0.164 HD
ATOM     18  O   UNL     1       2.578   1.749  -0.896  1.00  0.00    -0.268 OA
BRANCH  16  19
ATOM     19  C   UNL     1       2.402   1.278   1.424  1.00  0.00     0.128 A 
ATOM     20  N   UNL     1       1.579   1.044   2.484  1.00  0.00    -0.243 NA
ATOM     21  C   UNL     1       3.795   1.221   1.608  1.00  0.00     0.035 A 
ATOM     22  C   UNL     1       2.057   0.757   3.724  1.00  0.00     0.071 A 
ATOM     23  C   UNL     1       4.316   0.929   2.871  1.00  0.00     0.013 A 
ATOM     24  C   UNL     1       1.172   0.524   4.783  1.00  0.00     0.032 A 
ATOM     25  C   UNL     1       3.450   0.694   3.945  1.00  0.00     0.003 A 
ATOM     26  C   UNL     1       1.667   0.230   6.057  1.00  0.00     0.041 A 
ATOM     27  C   UNL     1       3.940   0.398   5.226  1.00  0.00     0.049 A 
ATOM     28  C   UNL     1       3.047   0.167   6.278  1.00  0.00     0.123 A 
ATOM     29  F   UNL     1       3.521  -0.120   7.516  1.00  0.00    -0.207 F 
ENDBRANCH  16  19
ENDBRANCH   1  15
TORSDOF 6
