REMARK SMILES O=C(NC/C(O)=[N+]1/CCC[C@H]1c1cscn1)c1ccc2cc(F)ccc2n1
REMARK SMILES IDX 4 1 5 2 6 3 7 5 8 6 11 7 9 8 10 9 12 10 16 11 13 12 15 13
REMARK SMILES IDX 14 14 3 15 2 16 1 18 17 19 27 20 18 21 26 22 19 23 25 24
REMARK SMILES IDX 20 25 24 26 21 27 22 28 23 29
REMARK H PARENT 6 4 3 17
ROOT
ATOM      1  C   UNL     1      -2.500   0.815   1.899  1.00  0.00     0.269 C 
ENDROOT
BRANCH   1   2
ATOM      2  C   UNL     1      -2.692   1.902   0.869  1.00  0.00     0.354 C 
BRANCH   2   3
ATOM      3  O   UNL     1      -2.783   3.210   1.358  1.00  0.00    -0.462 OA
ATOM      4  H   UNL     1      -2.911   4.022   0.769  1.00  0.00     0.299 HD
ENDBRANCH   2   3
BRANCH   2   5
ATOM      5  N   UNL     1      -2.743   1.652  -0.424  1.00  0.00    -0.192 N 
ATOM      6  C   UNL     1      -2.941   2.693  -1.429  1.00  0.00     0.355 C 
ATOM      7  C   UNL     1      -2.677   0.320  -1.034  1.00  0.00     0.314 C 
ATOM      8  C   UNL     1      -2.915   1.996  -2.783  1.00  0.00     0.080 C 
ATOM      9  C   UNL     1      -3.098   0.513  -2.492  1.00  0.00     0.090 C 
BRANCH   7  10
ATOM     10  C   UNL     1      -1.283  -0.254  -0.945  1.00  0.00     0.119 A 
ATOM     11  N   UNL     1      -1.070  -1.535  -0.535  1.00  0.00    -0.243 NA
ATOM     12  C   UNL     1      -0.132   0.447  -1.304  1.00  0.00     0.097 A 
ATOM     13  C   UNL     1       0.239  -1.866  -0.550  1.00  0.00     0.176 A 
ATOM     14  S   UNL     1       1.178  -0.581  -1.086  1.00  0.00    -0.130 S 
ENDBRANCH   7  10
ENDBRANCH   2   5
ENDBRANCH   1   2
BRANCH   1  15
ATOM     15  N   UNL     1      -1.080   0.514   2.075  1.00  0.00    -0.337 N 
ATOM     16  C   UNL     1      -0.645  -0.600   2.869  1.00  0.00     0.270 C 
ATOM     17  H   UNL     1      -0.367   1.115   1.603  1.00  0.00     0.164 HD
ATOM     18  O   UNL     1      -1.495  -1.284   3.503  1.00  0.00    -0.268 OA
BRANCH  16  19
ATOM     19  C   UNL     1       0.787  -0.964   2.932  1.00  0.00     0.128 A 
ATOM     20  N   UNL     1       1.701  -0.218   2.252  1.00  0.00    -0.243 NA
ATOM     21  C   UNL     1       1.220  -2.081   3.668  1.00  0.00     0.035 A 
ATOM     22  C   UNL     1       3.027  -0.518   2.251  1.00  0.00     0.071 A 
ATOM     23  C   UNL     1       2.576  -2.414   3.687  1.00  0.00     0.013 A 
ATOM     24  C   UNL     1       3.927   0.274   1.530  1.00  0.00     0.032 A 
ATOM     25  C   UNL     1       3.496  -1.636   2.975  1.00  0.00     0.003 A 
ATOM     26  C   UNL     1       5.289  -0.040   1.528  1.00  0.00     0.041 A 
ATOM     27  C   UNL     1       4.864  -1.945   2.970  1.00  0.00     0.049 A 
ATOM     28  C   UNL     1       5.757  -1.147   2.246  1.00  0.00     0.123 A 
ATOM     29  F   UNL     1       7.080  -1.447   2.239  1.00  0.00    -0.207 F 
ENDBRANCH  16  19
ENDBRANCH   1  15
TORSDOF 6
