REMARK SMILES O=C(NC/C(O)=[N+]1\CCC[C@H]1c1cscn1)c1ccc2cc(F)ccc2n1
REMARK SMILES IDX 4 1 5 2 6 3 7 5 8 6 11 7 9 8 10 9 12 10 16 11 13 12 15 13
REMARK SMILES IDX 14 14 3 15 2 16 1 18 17 19 27 20 18 21 26 22 19 23 25 24
REMARK SMILES IDX 20 25 24 26 21 27 22 28 23 29
REMARK H PARENT 6 4 3 17
ROOT
ATOM      1  C   UNL     1       0.138   3.156  -2.011  1.00  0.00     0.269 C 
ENDROOT
BRANCH   1   2
ATOM      2  C   UNL     1      -1.231   2.809  -1.484  1.00  0.00     0.354 C 
BRANCH   2   3
ATOM      3  O   UNL     1      -1.724   3.606  -0.445  1.00  0.00    -0.462 OA
ATOM      4  H   UNL     1      -2.622   3.467  -0.004  1.00  0.00     0.299 HD
ENDBRANCH   2   3
BRANCH   2   5
ATOM      5  N   UNL     1      -1.903   1.770  -1.932  1.00  0.00    -0.192 N 
ATOM      6  C   UNL     1      -1.476   0.941  -3.057  1.00  0.00     0.355 C 
ATOM      7  C   UNL     1      -3.156   1.288  -1.351  1.00  0.00     0.314 C 
ATOM      8  C   UNL     1      -2.483  -0.197  -3.159  1.00  0.00     0.080 C 
ATOM      9  C   UNL     1      -3.683   0.233  -2.325  1.00  0.00     0.090 C 
BRANCH   7  10
ATOM     10  C   UNL     1      -2.912   0.691   0.015  1.00  0.00     0.119 A 
ATOM     11  N   UNL     1      -3.746   0.943   1.060  1.00  0.00    -0.243 NA
ATOM     12  C   UNL     1      -1.847  -0.162   0.307  1.00  0.00     0.097 A 
ATOM     13  C   UNL     1      -3.356   0.314   2.190  1.00  0.00     0.176 A 
ATOM     14  S   UNL     1      -1.962  -0.586   1.927  1.00  0.00    -0.130 S 
ENDBRANCH   7  10
ENDBRANCH   2   5
ENDBRANCH   1   2
BRANCH   1  15
ATOM     15  N   UNL     1       1.122   2.206  -1.496  1.00  0.00    -0.337 N 
ATOM     16  C   UNL     1       1.331   2.026  -0.087  1.00  0.00     0.270 C 
ATOM     17  H   UNL     1       1.596   1.566  -2.171  1.00  0.00     0.164 HD
ATOM     18  O   UNL     1       1.137   2.992   0.701  1.00  0.00    -0.268 OA
BRANCH  16  19
ATOM     19  C   UNL     1       1.719   0.704   0.443  1.00  0.00     0.128 A 
ATOM     20  N   UNL     1       1.815  -0.356  -0.406  1.00  0.00    -0.243 NA
ATOM     21  C   UNL     1       1.932   0.508   1.818  1.00  0.00     0.035 A 
ATOM     22  C   UNL     1       2.113  -1.609   0.029  1.00  0.00     0.071 A 
ATOM     23  C   UNL     1       2.241  -0.767   2.296  1.00  0.00     0.013 A 
ATOM     24  C   UNL     1       2.194  -2.668  -0.881  1.00  0.00     0.032 A 
ATOM     25  C   UNL     1       2.332  -1.842   1.404  1.00  0.00     0.003 A 
ATOM     26  C   UNL     1       2.493  -3.957  -0.428  1.00  0.00     0.041 A 
ATOM     27  C   UNL     1       2.633  -3.138   1.851  1.00  0.00     0.049 A 
ATOM     28  C   UNL     1       2.713  -4.192   0.934  1.00  0.00     0.123 A 
ATOM     29  F   UNL     1       3.002  -5.444   1.366  1.00  0.00    -0.207 F 
ENDBRANCH  16  19
ENDBRANCH   1  15
TORSDOF 6
