REMARK SMILES CC(C)C[N-]/C(O)=C\[N-]C(=O)c1ccc2ccccc2n1
REMARK SMILES IDX 6 1 7 2 5 4 4 5 2 6 1 7 3 8 8 9 9 10 10 11 11 12 12 13 21 14
REMARK SMILES IDX 13 15 20 16 14 17 19 18 15 19 18 20 16 21 17 22
REMARK H PARENT 7 3
ROOT
ATOM      1  C   UNL     1       1.667   1.564   0.095  1.00  0.00    -0.012 C 
ENDROOT
BRANCH   1   2
ATOM      2  O   UNL     1       2.278   1.701   1.343  1.00  0.00    -0.533 OA
ATOM      3  H   UNL     1       2.468   2.608   1.752  1.00  0.00     0.290 HD
ENDBRANCH   1   2
BRANCH   1   4
ATOM      4  N   UNL     1       1.432   0.254  -0.431  1.00  0.00    -0.655 NA
BRANCH   4   5
ATOM      5  C   UNL     1       1.689  -0.955   0.343  1.00  0.00    -0.115 C 
BRANCH   5   6
ATOM      6  C   UNL     1       1.607  -2.203  -0.552  1.00  0.00    -0.035 C 
ATOM      7  C   UNL     1       0.214  -2.358  -1.177  1.00  0.00     0.006 C 
ATOM      8  C   UNL     1       1.967  -3.457   0.254  1.00  0.00     0.006 C 
ENDBRANCH   5   6
ENDBRANCH   4   5
ENDBRANCH   1   4
BRANCH   1   9
ATOM      9  C   UNL     1       1.337   2.656  -0.609  1.00  0.00    -0.114 C 
BRANCH   9  10
ATOM     10  N   UNL     1       0.656   2.599  -1.871  1.00  0.00    -0.626 NA
BRANCH  10  11
ATOM     11  C   UNL     1      -0.430   1.725  -2.213  1.00  0.00     0.104 C 
ATOM     12  O   UNL     1      -0.563   1.372  -3.414  1.00  0.00    -0.313 OA
BRANCH  11  13
ATOM     13  C   UNL     1      -1.412   1.245  -1.215  1.00  0.00     0.089 A 
ATOM     14  N   UNL     1      -2.092   0.092  -1.464  1.00  0.00    -0.246 NA
ATOM     15  C   UNL     1      -1.683   1.963  -0.038  1.00  0.00     0.031 A 
ATOM     16  C   UNL     1      -3.001  -0.417  -0.591  1.00  0.00     0.071 A 
ATOM     17  C   UNL     1      -2.610   1.464   0.880  1.00  0.00     0.012 A 
ATOM     18  C   UNL     1      -3.657  -1.619  -0.880  1.00  0.00     0.029 A 
ATOM     19  C   UNL     1      -3.275   0.262   0.615  1.00  0.00     0.000 A 
ATOM     20  C   UNL     1      -4.583  -2.145   0.025  1.00  0.00     0.002 A 
ATOM     21  C   UNL     1      -4.208  -0.270   1.518  1.00  0.00     0.010 A 
ATOM     22  C   UNL     1      -4.858  -1.472   1.221  1.00  0.00     0.001 A 
ENDBRANCH  11  13
ENDBRANCH  10  11
ENDBRANCH   9  10
ENDBRANCH   1   9
TORSDOF 8
