REMARK SMILES O=C([N-]/C=C(\O)N1CCCC[C@@H]1C1CCCCC1)c1ccc2cc(F)ccc2n1
REMARK SMILES IDX 4 1 5 2 6 3 7 5 8 6 12 7 9 8 11 9 10 10 13 11 14 12 18 13
REMARK SMILES IDX 15 14 17 15 16 16 3 17 2 18 1 19 19 20 29 21 20 22 28 23
REMARK SMILES IDX 21 24 27 25 22 26 26 27 23 28 24 29 25 30
REMARK H PARENT 6 4
ROOT
ATOM      1  C   UNL     1       1.736   0.964   0.935  1.00  0.00    -0.069 C 
ENDROOT
BRANCH   1   2
ATOM      2  C   UNL     1       2.294   0.709  -0.251  1.00  0.00     0.164 C 
BRANCH   2   3
ATOM      3  O   UNL     1       3.517   0.035  -0.354  1.00  0.00    -0.496 OA
ATOM      4  H   UNL     1       4.032  -0.286   0.457  1.00  0.00     0.295 HD
ENDBRANCH   2   3
BRANCH   2   5
ATOM      5  N   UNL     1       1.633   1.135  -1.452  1.00  0.00    -0.342 N 
ATOM      6  C   UNL     1       1.884   2.491  -1.943  1.00  0.00     0.120 C 
ATOM      7  C   UNL     1       1.128   0.124  -2.402  1.00  0.00     0.088 C 
ATOM      8  C   UNL     1       2.948   2.467  -3.055  1.00  0.00     0.022 C 
ATOM      9  C   UNL     1       1.788   0.329  -3.797  1.00  0.00     0.025 C 
ATOM     10  C   UNL     1       3.122   1.077  -3.696  1.00  0.00     0.004 C 
BRANCH   7  11
ATOM     11  C   UNL     1      -0.429   0.179  -2.499  1.00  0.00     0.012 C 
ATOM     12  C   UNL     1      -0.995  -1.012  -3.335  1.00  0.00     0.006 C 
ATOM     13  C   UNL     1      -1.088   0.277  -1.102  1.00  0.00     0.006 C 
ATOM     14  C   UNL     1      -1.837  -1.989  -2.506  1.00  0.00     0.000 C 
ATOM     15  C   UNL     1      -2.606   0.073  -1.176  1.00  0.00     0.000 C 
ATOM     16  C   UNL     1      -3.007  -1.268  -1.823  1.00  0.00     0.000 C 
ENDBRANCH   7  11
ENDBRANCH   2   5
ENDBRANCH   1   2
BRANCH   1  17
ATOM     17  N   UNL     1       2.397   0.619   2.155  1.00  0.00    -0.623 NA
BRANCH  17  18
ATOM     18  C   UNL     1       1.726   0.576   3.416  1.00  0.00     0.104 C 
ATOM     19  O   UNL     1       2.370   0.867   4.456  1.00  0.00    -0.313 OA
BRANCH  18  20
ATOM     20  C   UNL     1       0.330   0.111   3.526  1.00  0.00     0.089 A 
ATOM     21  N   UNL     1      -0.164  -0.754   2.598  1.00  0.00    -0.246 NA
ATOM     22  C   UNL     1      -0.472   0.492   4.614  1.00  0.00     0.031 A 
ATOM     23  C   UNL     1      -1.420  -1.271   2.688  1.00  0.00     0.071 A 
ATOM     24  C   UNL     1      -1.768  -0.017   4.730  1.00  0.00     0.013 A 
ATOM     25  C   UNL     1      -1.886  -2.169   1.720  1.00  0.00     0.032 A 
ATOM     26  C   UNL     1      -2.253  -0.911   3.770  1.00  0.00     0.003 A 
ATOM     27  C   UNL     1      -3.177  -2.697   1.822  1.00  0.00     0.041 A 
ATOM     28  C   UNL     1      -3.548  -1.446   3.863  1.00  0.00     0.049 A 
ATOM     29  C   UNL     1      -4.008  -2.334   2.888  1.00  0.00     0.123 A 
ATOM     30  F   UNL     1      -5.258  -2.848   2.981  1.00  0.00    -0.207 F 
ENDBRANCH  18  20
ENDBRANCH  17  18
ENDBRANCH   1  17
TORSDOF 7
