REMARK SMILES CC(C)C[N-]C(=O)C[N-]C(=O)c1ccc2ccccc2n1
REMARK SMILES IDX 6 1 7 2 5 3 4 4 2 5 1 6 3 7 8 8 9 9 10 10 11 11 12 12 13 13
REMARK SMILES IDX 21 14 14 15 20 16 15 17 19 18 16 19 18 20 17 21
REMARK H PARENT
ROOT
ATOM      1  C   UNL     1      -2.528   0.411   1.230  1.00  0.00     0.033 C 
ATOM      2  O   UNL     1      -2.107   0.793   2.355  1.00  0.00    -0.322 OA
ENDROOT
BRANCH   1   3
ATOM      3  N   UNL     1      -2.212  -0.901   0.754  1.00  0.00    -0.654 NA
BRANCH   3   4
ATOM      4  C   UNL     1      -1.290  -1.789   1.451  1.00  0.00    -0.115 C 
BRANCH   4   5
ATOM      5  C   UNL     1      -1.055  -3.070   0.632  1.00  0.00    -0.035 C 
ATOM      6  C   UNL     1      -0.186  -4.053   1.425  1.00  0.00     0.006 C 
ATOM      7  C   UNL     1      -0.400  -2.755  -0.720  1.00  0.00     0.006 C 
ENDBRANCH   4   5
ENDBRANCH   3   4
ENDBRANCH   1   3
BRANCH   1   8
ATOM      8  C   UNL     1      -3.312   1.370   0.381  1.00  0.00    -0.061 C 
BRANCH   8   9
ATOM      9  N   UNL     1      -3.884   0.721  -0.797  1.00  0.00    -0.643 NA
BRANCH   9  10
ATOM     10  C   UNL     1      -3.232   0.381  -2.033  1.00  0.00     0.101 C 
ATOM     11  O   UNL     1      -3.949  -0.074  -2.963  1.00  0.00    -0.313 OA
BRANCH  10  12
ATOM     12  C   UNL     1      -1.767   0.520  -2.259  1.00  0.00     0.088 A 
ATOM     13  C   UNL     1      -1.210   0.231  -3.519  1.00  0.00     0.031 A 
ATOM     14  N   UNL     1      -0.938   0.869  -1.239  1.00  0.00    -0.246 NA
ATOM     15  C   UNL     1       0.173   0.299  -3.702  1.00  0.00     0.012 A 
ATOM     16  C   UNL     1       0.411   0.939  -1.382  1.00  0.00     0.071 A 
ATOM     17  C   UNL     1       1.001   0.649  -2.631  1.00  0.00     0.000 A 
ATOM     18  C   UNL     1       1.217   1.277  -0.289  1.00  0.00     0.029 A 
ATOM     19  C   UNL     1       2.395   0.708  -2.772  1.00  0.00     0.010 A 
ATOM     20  C   UNL     1       2.607   1.330  -0.436  1.00  0.00     0.002 A 
ATOM     21  C   UNL     1       3.194   1.047  -1.674  1.00  0.00     0.001 A 
ENDBRANCH  10  12
ENDBRANCH   9  10
ENDBRANCH   8   9
ENDBRANCH   1   8
TORSDOF 7
