REMARK SMILES CC(C)C[N-]C(=O)C/N=C(/O)c1ccc2ccccc2n1
REMARK SMILES IDX 8 1 9 2 10 3 11 4 12 6 21 7 13 8 20 9 14 10 19 11 15 12
REMARK SMILES IDX 18 13 16 14 17 15 6 16 7 17 5 18 4 19 2 20 1 21 3 22
REMARK H PARENT 11 5
ROOT
ATOM      1  C   UNL     1       0.346   0.454   0.174  1.00  0.00     0.201 C 
ENDROOT
BRANCH   1   2
ATOM      2  N   UNL     1      -0.887  -0.316   0.311  1.00  0.00    -0.244 NA
BRANCH   2   3
ATOM      3  C   UNL     1      -0.991  -1.515   0.811  1.00  0.00     0.233 C 
BRANCH   3   4
ATOM      4  O   UNL     1      -2.225  -2.157   0.779  1.00  0.00    -0.492 OA
ATOM      5  H   UNL     1      -3.038  -1.708   0.371  1.00  0.00     0.295 HD
ENDBRANCH   3   4
BRANCH   3   6
ATOM      6  C   UNL     1       0.151  -2.238   1.395  1.00  0.00     0.125 A 
ATOM      7  N   UNL     1       0.459  -3.479   0.925  1.00  0.00    -0.243 NA
ATOM      8  C   UNL     1       0.836  -1.726   2.505  1.00  0.00     0.035 A 
ATOM      9  C   UNL     1       1.444  -4.233   1.482  1.00  0.00     0.071 A 
ATOM     10  C   UNL     1       1.862  -2.469   3.087  1.00  0.00     0.013 A 
ATOM     11  C   UNL     1       1.732  -5.503   0.972  1.00  0.00     0.029 A 
ATOM     12  C   UNL     1       2.174  -3.736   2.584  1.00  0.00     0.000 A 
ATOM     13  C   UNL     1       2.734  -6.282   1.560  1.00  0.00     0.002 A 
ATOM     14  C   UNL     1       3.173  -4.525   3.170  1.00  0.00     0.010 A 
ATOM     15  C   UNL     1       3.446  -5.799   2.661  1.00  0.00     0.001 A 
ENDBRANCH   3   6
ENDBRANCH   2   3
ENDBRANCH   1   2
BRANCH   1  16
ATOM     16  C   UNL     1       0.040   1.767  -0.465  1.00  0.00     0.073 C 
ATOM     17  O   UNL     1       0.216   1.919  -1.705  1.00  0.00    -0.318 OA
BRANCH  16  18
ATOM     18  N   UNL     1      -0.483   2.836   0.329  1.00  0.00    -0.652 NA
BRANCH  18  19
ATOM     19  C   UNL     1      -0.815   4.140  -0.233  1.00  0.00    -0.115 C 
BRANCH  19  20
ATOM     20  C   UNL     1      -1.252   5.112   0.873  1.00  0.00    -0.035 C 
ATOM     21  C   UNL     1      -0.133   5.330   1.900  1.00  0.00     0.006 C 
ATOM     22  C   UNL     1      -1.683   6.452   0.265  1.00  0.00     0.006 C 
ENDBRANCH  19  20
ENDBRANCH  18  19
ENDBRANCH  16  18
ENDBRANCH   1  16
TORSDOF 8
