REMARK SMILES N#Cc1ccccc1C[N-]C(=O)C/N=C(\O)c1ccc2ccccc2n1
REMARK SMILES IDX 11 1 12 2 13 3 14 4 15 5 16 6 17 8 26 9 18 10 25 11 19 12
REMARK SMILES IDX 24 13 20 14 23 15 21 16 22 17 10 18 9 19 8 20 7 21 3 22 6 23
REMARK SMILES IDX 4 24 5 25 2 26 1 27
REMARK H PARENT 16 7
ROOT
ATOM      1  C   UNL     1       4.071   1.112  -2.132  1.00  0.00     0.073 C 
ATOM      2  O   UNL     1       4.778   0.140  -2.506  1.00  0.00    -0.318 OA
ENDROOT
BRANCH   1   3
ATOM      3  C   UNL     1       3.000   1.632  -3.053  1.00  0.00     0.201 C 
BRANCH   3   4
ATOM      4  N   UNL     1       1.665   1.341  -2.536  1.00  0.00    -0.244 NA
BRANCH   4   5
ATOM      5  C   UNL     1       1.113   0.164  -2.433  1.00  0.00     0.233 C 
BRANCH   5   6
ATOM      6  O   UNL     1       1.769  -0.998  -2.846  1.00  0.00    -0.492 OA
ATOM      7  H   UNL     1       2.655  -0.995  -3.331  1.00  0.00     0.295 HD
ENDBRANCH   5   6
BRANCH   5   8
ATOM      8  C   UNL     1      -0.239   0.039  -1.860  1.00  0.00     0.125 A 
ATOM      9  N   UNL     1      -0.646  -1.168  -1.376  1.00  0.00    -0.243 NA
ATOM     10  C   UNL     1      -1.113   1.139  -1.800  1.00  0.00     0.035 A 
ATOM     11  C   UNL     1      -1.872  -1.345  -0.814  1.00  0.00     0.071 A 
ATOM     12  C   UNL     1      -2.378   0.987  -1.230  1.00  0.00     0.013 A 
ATOM     13  C   UNL     1      -2.243  -2.599  -0.317  1.00  0.00     0.029 A 
ATOM     14  C   UNL     1      -2.770  -0.258  -0.725  1.00  0.00     0.000 A 
ATOM     15  C   UNL     1      -3.500  -2.773   0.273  1.00  0.00     0.002 A 
ATOM     16  C   UNL     1      -4.030  -0.442  -0.135  1.00  0.00     0.010 A 
ATOM     17  C   UNL     1      -4.390  -1.698   0.364  1.00  0.00     0.001 A 
ENDBRANCH   5   8
ENDBRANCH   4   5
ENDBRANCH   3   4
ENDBRANCH   1   3
BRANCH   1  18
ATOM     18  N   UNL     1       4.334   1.694  -0.848  1.00  0.00    -0.648 NA
BRANCH  18  19
ATOM     19  C   UNL     1       3.624   2.813  -0.235  1.00  0.00    -0.080 C 
BRANCH  19  20
ATOM     20  C   UNL     1       2.295   2.385   0.352  1.00  0.00    -0.048 A 
ATOM     21  C   UNL     1       1.163   3.185   0.116  1.00  0.00     0.003 A 
ATOM     22  C   UNL     1       2.173   1.266   1.217  1.00  0.00     0.054 A 
ATOM     23  C   UNL     1      -0.065   2.875   0.706  1.00  0.00     0.000 A 
ATOM     24  C   UNL     1       0.925   0.945   1.772  1.00  0.00     0.020 A 
ATOM     25  C   UNL     1      -0.186   1.750   1.523  1.00  0.00     0.001 A 
BRANCH  22  26
ATOM     26  C   UNL     1       3.312   0.454   1.572  1.00  0.00     0.099 C 
ATOM     27  N   UNL     1       4.225  -0.198   1.858  1.00  0.00    -0.192 NA
ENDBRANCH  22  26
ENDBRANCH  19  20
ENDBRANCH  18  19
ENDBRANCH   1  18
TORSDOF 9
