REMARK SMILES N#Cc1ccccc1C[N-]C(=O)C/N=C(/O)c1ccc2ccccc2n1
REMARK SMILES IDX 11 1 12 2 13 3 14 4 15 5 16 6 17 8 26 9 18 10 25 11 19 12
REMARK SMILES IDX 24 13 20 14 23 15 21 16 22 17 10 18 9 19 8 20 7 21 3 22 6 23
REMARK SMILES IDX 4 24 5 25 2 26 1 27
REMARK H PARENT 16 7
ROOT
ATOM      1  C   UNL     1       2.168  -1.731  -0.141  1.00  0.00     0.073 C 
ATOM      2  O   UNL     1       2.153  -2.720   0.639  1.00  0.00    -0.318 OA
ENDROOT
BRANCH   1   3
ATOM      3  C   UNL     1       2.122  -1.970  -1.628  1.00  0.00     0.201 C 
BRANCH   3   4
ATOM      4  N   UNL     1       1.183  -3.046  -1.955  1.00  0.00    -0.244 NA
BRANCH   4   5
ATOM      5  C   UNL     1      -0.118  -2.991  -1.885  1.00  0.00     0.233 C 
BRANCH   5   6
ATOM      6  O   UNL     1      -0.859  -4.140  -2.149  1.00  0.00    -0.492 OA
ATOM      7  H   UNL     1      -0.406  -5.010  -2.401  1.00  0.00     0.295 HD
ENDBRANCH   5   6
BRANCH   5   8
ATOM      8  C   UNL     1      -0.847  -1.767  -1.509  1.00  0.00     0.125 A 
ATOM      9  N   UNL     1      -1.670  -1.794  -0.426  1.00  0.00    -0.243 NA
ATOM     10  C   UNL     1      -0.778  -0.612  -2.302  1.00  0.00     0.035 A 
ATOM     11  C   UNL     1      -2.407  -0.712  -0.056  1.00  0.00     0.071 A 
ATOM     12  C   UNL     1      -1.515   0.518  -1.942  1.00  0.00     0.013 A 
ATOM     13  C   UNL     1      -3.235  -0.778   1.071  1.00  0.00     0.029 A 
ATOM     14  C   UNL     1      -2.339   0.480  -0.811  1.00  0.00     0.000 A 
ATOM     15  C   UNL     1      -3.990   0.337   1.449  1.00  0.00     0.002 A 
ATOM     16  C   UNL     1      -3.099   1.594  -0.426  1.00  0.00     0.010 A 
ATOM     17  C   UNL     1      -3.923   1.519   0.703  1.00  0.00     0.001 A 
ENDBRANCH   5   8
ENDBRANCH   4   5
ENDBRANCH   3   4
ENDBRANCH   1   3
BRANCH   1  18
ATOM     18  N   UNL     1       2.315  -0.420   0.417  1.00  0.00    -0.648 NA
BRANCH  18  19
ATOM     19  C   UNL     1       2.273   0.821  -0.344  1.00  0.00    -0.080 C 
BRANCH  19  20
ATOM     20  C   UNL     1       2.624   1.979   0.557  1.00  0.00    -0.048 A 
ATOM     21  C   UNL     1       3.879   2.600   0.423  1.00  0.00     0.003 A 
ATOM     22  C   UNL     1       1.734   2.439   1.556  1.00  0.00     0.054 A 
ATOM     23  C   UNL     1       4.235   3.669   1.249  1.00  0.00     0.000 A 
ATOM     24  C   UNL     1       2.102   3.512   2.379  1.00  0.00     0.020 A 
ATOM     25  C   UNL     1       3.348   4.125   2.224  1.00  0.00     0.001 A 
BRANCH  22  26
ATOM     26  C   UNL     1       0.448   1.817   1.765  1.00  0.00     0.099 C 
ATOM     27  N   UNL     1      -0.582   1.317   1.940  1.00  0.00    -0.192 NA
ENDBRANCH  22  26
ENDBRANCH  19  20
ENDBRANCH  18  19
ENDBRANCH   1  18
TORSDOF 9
