REMARK SMILES N#Cc1ccccc1C/N=C(\O)C[N-]C(=O)c1ccc2ccccc2n1
REMARK SMILES IDX 11 1 12 2 10 4 9 5 8 6 7 7 3 8 6 9 4 10 5 11 2 12 1 13 13 14
REMARK SMILES IDX 14 15 15 16 16 17 17 18 26 19 18 20 25 21 19 22 24 23 20 24
REMARK SMILES IDX 23 25 21 26 22 27
REMARK H PARENT 12 3
ROOT
ATOM      1  C   UNL     1      -1.298   3.476  -0.470  1.00  0.00     0.162 C 
ENDROOT
BRANCH   1   2
ATOM      2  O   UNL     1      -2.417   4.269  -0.729  1.00  0.00    -0.498 OA
ATOM      3  H   UNL     1      -3.223   3.930  -1.240  1.00  0.00     0.294 HD
ENDBRANCH   1   2
BRANCH   1   4
ATOM      4  N   UNL     1      -1.226   2.241  -0.875  1.00  0.00    -0.252 NA
BRANCH   4   5
ATOM      5  C   UNL     1      -2.253   1.496  -1.588  1.00  0.00     0.182 C 
BRANCH   5   6
ATOM      6  C   UNL     1      -1.775   0.074  -1.752  1.00  0.00    -0.009 A 
ATOM      7  C   UNL     1      -1.245  -0.338  -2.987  1.00  0.00     0.007 A 
ATOM      8  C   UNL     1      -1.747  -0.824  -0.657  1.00  0.00     0.057 A 
ATOM      9  C   UNL     1      -0.718  -1.624  -3.139  1.00  0.00     0.000 A 
ATOM     10  C   UNL     1      -1.217  -2.111  -0.823  1.00  0.00     0.020 A 
ATOM     11  C   UNL     1      -0.705  -2.508  -2.059  1.00  0.00     0.001 A 
BRANCH   8  12
ATOM     12  C   UNL     1      -2.234  -0.438   0.646  1.00  0.00     0.099 C 
ATOM     13  N   UNL     1      -2.622  -0.129   1.691  1.00  0.00    -0.192 NA
ENDBRANCH   8  12
ENDBRANCH   5   6
ENDBRANCH   4   5
ENDBRANCH   1   4
BRANCH   1  14
ATOM     14  C   UNL     1      -0.138   4.073   0.276  1.00  0.00    -0.019 C 
BRANCH  14  15
ATOM     15  N   UNL     1       0.608   3.033   0.984  1.00  0.00    -0.640 NA
BRANCH  15  16
ATOM     16  C   UNL     1       1.446   2.092   0.303  1.00  0.00     0.101 C 
ATOM     17  O   UNL     1       2.034   2.430  -0.760  1.00  0.00    -0.313 OA
BRANCH  16  18
ATOM     18  C   UNL     1       1.533   0.698   0.771  1.00  0.00     0.088 A 
ATOM     19  N   UNL     1       2.080  -0.243  -0.047  1.00  0.00    -0.246 NA
ATOM     20  C   UNL     1       0.975   0.307   1.999  1.00  0.00     0.031 A 
ATOM     21  C   UNL     1       2.102  -1.562   0.280  1.00  0.00     0.071 A 
ATOM     22  C   UNL     1       0.986  -1.041   2.365  1.00  0.00     0.012 A 
ATOM     23  C   UNL     1       2.651  -2.497  -0.604  1.00  0.00     0.029 A 
ATOM     24  C   UNL     1       1.544  -1.993   1.504  1.00  0.00     0.000 A 
ATOM     25  C   UNL     1       2.645  -3.856  -0.276  1.00  0.00     0.002 A 
ATOM     26  C   UNL     1       1.545  -3.358   1.827  1.00  0.00     0.010 A 
ATOM     27  C   UNL     1       2.094  -4.285   0.936  1.00  0.00     0.001 A 
ENDBRANCH  16  18
ENDBRANCH  15  16
ENDBRANCH  14  15
ENDBRANCH   1  14
TORSDOF 9
