REMARK SMILES O=C([N-]CC(=O)N1C[C@H](O)C[C@H]1Cn1cccc1)c1ccc2cc(Cl)ccc2n1
REMARK SMILES IDX 4 1 3 2 2 3 1 4 19 5 20 6 29 7 21 8 28 9 22 10 27 11 23 12
REMARK SMILES IDX 26 13 24 14 25 15 5 16 6 17 7 18 8 19 12 20 9 21 11 22 13 23
REMARK SMILES IDX 14 24 15 25 18 26 16 27 17 28 10 29
REMARK H PARENT 10 30
ROOT
ATOM      1  C   UNL     1      -1.695  -0.363  -0.516  1.00  0.00    -0.015 C 
ENDROOT
BRANCH   1   2
ATOM      2  N   UNL     1      -1.846   0.248   0.799  1.00  0.00    -0.640 NA
BRANCH   2   3
ATOM      3  C   UNL     1      -1.046   1.337   1.276  1.00  0.00     0.101 C 
ATOM      4  O   UNL     1      -1.500   2.072   2.191  1.00  0.00    -0.313 OA
BRANCH   3   5
ATOM      5  C   UNL     1       0.283   1.633   0.715  1.00  0.00     0.088 A 
ATOM      6  C   UNL     1       1.252   0.627   0.587  1.00  0.00     0.031 A 
ATOM      7  N   UNL     1       0.590   2.912   0.365  1.00  0.00    -0.246 NA
ATOM      8  C   UNL     1       2.505   0.936   0.057  1.00  0.00     0.013 A 
ATOM      9  C   UNL     1       1.805   3.246  -0.149  1.00  0.00     0.071 A 
ATOM     10  C   UNL     1       2.794   2.252  -0.322  1.00  0.00     0.002 A 
ATOM     11  C   UNL     1       2.076   4.570  -0.510  1.00  0.00     0.030 A 
ATOM     12  C   UNL     1       4.043   2.599  -0.858  1.00  0.00     0.030 A 
ATOM     13  C   UNL     1       3.324   4.908  -1.044  1.00  0.00     0.023 A 
ATOM     14  C   UNL     1       4.306   3.926  -1.218  1.00  0.00     0.041 A 
ATOM     15  Cl  UNL     1       5.868   4.359  -1.889  1.00  0.00    -0.084 Cl
ENDBRANCH   3   5
ENDBRANCH   2   3
ENDBRANCH   1   2
BRANCH   1  16
ATOM     16  C   UNL     1      -2.673  -1.489  -0.659  1.00  0.00     0.205 C 
ATOM     17  O   UNL     1      -3.707  -1.306  -1.357  1.00  0.00    -0.277 OA
BRANCH  16  18
ATOM     18  N   UNL     1      -2.503  -2.736   0.042  1.00  0.00    -0.337 N 
ATOM     19  C   UNL     1      -3.653  -3.529   0.450  1.00  0.00     0.151 C 
ATOM     20  C   UNL     1      -1.262  -3.202   0.659  1.00  0.00     0.107 C 
ATOM     21  C   UNL     1      -3.105  -4.607   1.384  1.00  0.00     0.136 C 
ATOM     22  C   UNL     1      -1.729  -4.100   1.808  1.00  0.00     0.060 C 
BRANCH  20  23
ATOM     23  C   UNL     1      -0.420  -4.013  -0.351  1.00  0.00     0.146 C 
BRANCH  23  24
ATOM     24  N   UNL     1       0.180  -3.154  -1.369  1.00  0.00    -0.352 N 
ATOM     25  C   UNL     1       1.349  -2.493  -1.261  1.00  0.00     0.085 A 
ATOM     26  C   UNL     1      -0.338  -2.865  -2.578  1.00  0.00     0.085 A 
ATOM     27  C   UNL     1       1.579  -1.767  -2.412  1.00  0.00     0.019 A 
ATOM     28  C   UNL     1       0.506  -2.004  -3.250  1.00  0.00     0.019 A 
ENDBRANCH  23  24
ENDBRANCH  20  23
BRANCH  21  29
ATOM     29  O   UNL     1      -3.931  -4.789   2.503  1.00  0.00    -0.391 OA
ATOM     30  H   UNL     1      -4.735  -5.273   2.181  1.00  0.00     0.211 HD
ENDBRANCH  21  29
ENDBRANCH  16  18
ENDBRANCH   1  16
TORSDOF 8
