REMARK SMILES O=C([N-]/C=C(/O)N1C[C@H](O)C[C@H]1Cn1cccc1)c1ccc2cc(Cl)ccc2n1
REMARK SMILES IDX 4 1 5 2 6 3 7 5 8 6 12 7 9 8 11 9 13 10 14 11 15 12 18 13
REMARK SMILES IDX 16 14 17 15 10 16 3 18 2 19 1 20 19 21 29 22 20 23 28 24
REMARK SMILES IDX 21 25 27 26 22 27 26 28 23 29 24 30 25 31
REMARK H PARENT 6 4 10 17
ROOT
ATOM      1  C   UNL     1       1.907   0.420   2.180  1.00  0.00    -0.069 C 
ENDROOT
BRANCH   1   2
ATOM      2  C   UNL     1       1.583   1.702   1.946  1.00  0.00     0.164 C 
BRANCH   2   3
ATOM      3  O   UNL     1       2.266   2.703   2.640  1.00  0.00    -0.496 OA
ATOM      4  H   UNL     1       3.004   2.496   3.304  1.00  0.00     0.295 HD
ENDBRANCH   2   3
BRANCH   2   5
ATOM      5  N   UNL     1       0.541   2.104   1.027  1.00  0.00    -0.337 N 
ATOM      6  C   UNL     1      -0.169   3.356   1.223  1.00  0.00     0.151 C 
ATOM      7  C   UNL     1       0.112   1.408  -0.189  1.00  0.00     0.107 C 
ATOM      8  C   UNL     1      -1.350   3.325   0.254  1.00  0.00     0.136 C 
ATOM      9  C   UNL     1      -0.995   2.278  -0.806  1.00  0.00     0.060 C 
BRANCH   7  10
ATOM     10  C   UNL     1       1.283   1.148  -1.168  1.00  0.00     0.146 C 
BRANCH  10  11
ATOM     11  N   UNL     1       2.018   2.371  -1.508  1.00  0.00    -0.352 N 
ATOM     12  C   UNL     1       3.044   2.906  -0.816  1.00  0.00     0.085 A 
ATOM     13  C   UNL     1       1.832   3.139  -2.600  1.00  0.00     0.085 A 
ATOM     14  C   UNL     1       3.503   4.037  -1.460  1.00  0.00     0.019 A 
ATOM     15  C   UNL     1       2.731   4.185  -2.596  1.00  0.00     0.019 A 
ENDBRANCH  10  11
ENDBRANCH   7  10
BRANCH   8  16
ATOM     16  O   UNL     1      -2.542   2.986   0.920  1.00  0.00    -0.391 OA
ATOM     17  H   UNL     1      -2.414   2.094   1.339  1.00  0.00     0.211 HD
ENDBRANCH   8  16
ENDBRANCH   2   5
ENDBRANCH   1   2
BRANCH   1  18
ATOM     18  N   UNL     1       1.197  -0.666   1.585  1.00  0.00    -0.623 NA
BRANCH  18  19
ATOM     19  C   UNL     1       1.510  -2.043   1.805  1.00  0.00     0.104 C 
ATOM     20  O   UNL     1       2.432  -2.367   2.602  1.00  0.00    -0.313 OA
BRANCH  19  21
ATOM     21  C   UNL     1       0.748  -3.077   1.083  1.00  0.00     0.089 A 
ATOM     22  N   UNL     1      -0.223  -2.694   0.208  1.00  0.00    -0.246 NA
ATOM     23  C   UNL     1       1.007  -4.444   1.273  1.00  0.00     0.031 A 
ATOM     24  C   UNL     1      -0.960  -3.594  -0.495  1.00  0.00     0.071 A 
ATOM     25  C   UNL     1       0.266  -5.393   0.564  1.00  0.00     0.013 A 
ATOM     26  C   UNL     1      -1.946  -3.152  -1.384  1.00  0.00     0.030 A 
ATOM     27  C   UNL     1      -0.728  -4.976  -0.330  1.00  0.00     0.002 A 
ATOM     28  C   UNL     1      -2.702  -4.081  -2.106  1.00  0.00     0.023 A 
ATOM     29  C   UNL     1      -1.489  -5.902  -1.058  1.00  0.00     0.030 A 
ATOM     30  C   UNL     1      -2.475  -5.453  -1.945  1.00  0.00     0.041 A 
ATOM     31  Cl  UNL     1      -3.428  -6.611  -2.855  1.00  0.00    -0.084 Cl
ENDBRANCH  19  21
ENDBRANCH  18  19
ENDBRANCH   1  18
TORSDOF 9
