REMARK SMILES O=C([N-]/C=C(/O)N1CCCC[C@@H]1C1CCCC1)c1ccc2cc(F)ccc2n1
REMARK SMILES IDX 4 1 5 2 6 3 7 5 8 6 12 7 9 8 11 9 10 10 13 11 14 12 17 13
REMARK SMILES IDX 15 14 16 15 3 16 2 17 1 18 18 19 28 20 19 21 27 22 20 23
REMARK SMILES IDX 26 24 21 25 25 26 22 27 23 28 24 29
REMARK H PARENT 6 4
ROOT
ATOM      1  C   UNL     1      -1.043  -0.104  -0.149  1.00  0.00    -0.069 C 
ENDROOT
BRANCH   1   2
ATOM      2  C   UNL     1      -0.869   0.907   0.714  1.00  0.00     0.164 C 
BRANCH   2   3
ATOM      3  O   UNL     1      -1.971   1.426   1.397  1.00  0.00    -0.496 OA
ATOM      4  H   UNL     1      -2.910   1.075   1.251  1.00  0.00     0.295 HD
ENDBRANCH   2   3
BRANCH   2   5
ATOM      5  N   UNL     1       0.437   1.462   0.980  1.00  0.00    -0.342 N 
ATOM      6  C   UNL     1       1.201   2.017  -0.160  1.00  0.00     0.120 C 
ATOM      7  C   UNL     1       0.852   1.564   2.401  1.00  0.00     0.088 C 
ATOM      8  C   UNL     1       2.250   3.079   0.219  1.00  0.00     0.022 C 
ATOM      9  C   UNL     1       2.060   2.503   2.613  1.00  0.00     0.025 C 
ATOM     10  C   UNL     1       2.040   3.646   1.612  1.00  0.00     0.004 C 
BRANCH   7  11
ATOM     11  C   UNL     1       1.060   0.137   2.992  1.00  0.00     0.012 C 
ATOM     12  C   UNL     1       1.462   0.102   4.469  1.00  0.00     0.006 C 
ATOM     13  C   UNL     1       2.097  -0.717   2.244  1.00  0.00     0.006 C 
ATOM     14  C   UNL     1       2.187  -1.219   4.634  1.00  0.00     0.000 C 
ATOM     15  C   UNL     1       2.914  -1.439   3.314  1.00  0.00     0.000 C 
ENDBRANCH   7  11
ENDBRANCH   2   5
ENDBRANCH   1   2
BRANCH   1  16
ATOM     16  N   UNL     1       0.070  -0.730  -0.794  1.00  0.00    -0.623 NA
BRANCH  16  17
ATOM     17  C   UNL     1      -0.016  -1.717  -1.830  1.00  0.00     0.104 C 
ATOM     18  O   UNL     1       0.978  -2.467  -2.025  1.00  0.00    -0.313 OA
BRANCH  17  19
ATOM     19  C   UNL     1      -1.207  -1.849  -2.703  1.00  0.00     0.089 A 
ATOM     20  N   UNL     1      -2.084  -0.815  -2.821  1.00  0.00    -0.246 NA
ATOM     21  C   UNL     1      -1.422  -3.022  -3.450  1.00  0.00     0.031 A 
ATOM     22  C   UNL     1      -3.176  -0.876  -3.627  1.00  0.00     0.071 A 
ATOM     23  C   UNL     1      -2.532  -3.113  -4.294  1.00  0.00     0.013 A 
ATOM     24  C   UNL     1      -4.056   0.210  -3.701  1.00  0.00     0.032 A 
ATOM     25  C   UNL     1      -3.423  -2.037  -4.393  1.00  0.00     0.003 A 
ATOM     26  C   UNL     1      -5.173   0.149  -4.539  1.00  0.00     0.041 A 
ATOM     27  C   UNL     1      -4.539  -2.085  -5.242  1.00  0.00     0.049 A 
ATOM     28  C   UNL     1      -5.411  -0.992  -5.313  1.00  0.00     0.123 A 
ATOM     29  F   UNL     1      -6.489  -1.035  -6.137  1.00  0.00    -0.207 F 
ENDBRANCH  17  19
ENDBRANCH  16  17
ENDBRANCH   1  16
TORSDOF 7
