REMARK SMILES O=C([N-]/C=C(\O)N1CCCC[C@@H]1C1CCCC1)c1ccc2cc(F)ccc2n1
REMARK SMILES IDX 4 1 5 2 6 3 7 5 8 6 12 7 9 8 11 9 10 10 13 11 14 12 17 13
REMARK SMILES IDX 15 14 16 15 3 16 2 17 1 18 18 19 28 20 19 21 27 22 20 23
REMARK SMILES IDX 26 24 21 25 25 26 22 27 23 28 24 29
REMARK H PARENT 6 4
ROOT
ATOM      1  C   UNL     1       1.181   0.928   0.612  1.00  0.00    -0.069 C 
ENDROOT
BRANCH   1   2
ATOM      2  C   UNL     1       0.510   0.261  -0.338  1.00  0.00     0.164 C 
BRANCH   2   3
ATOM      3  O   UNL     1       0.864  -1.048  -0.659  1.00  0.00    -0.496 OA
ATOM      4  H   UNL     1       0.368  -1.566  -1.374  1.00  0.00     0.295 HD
ENDBRANCH   2   3
BRANCH   2   5
ATOM      5  N   UNL     1      -0.592   0.878  -1.027  1.00  0.00    -0.342 N 
ATOM      6  C   UNL     1      -1.905   0.221  -0.970  1.00  0.00     0.120 C 
ATOM      7  C   UNL     1      -0.439   2.161  -1.754  1.00  0.00     0.088 C 
ATOM      8  C   UNL     1      -2.974   1.183  -0.426  1.00  0.00     0.022 C 
ATOM      9  C   UNL     1      -1.822   2.792  -2.036  1.00  0.00     0.025 C 
ATOM     10  C   UNL     1      -2.726   2.657  -0.807  1.00  0.00     0.004 C 
BRANCH   7  11
ATOM     11  C   UNL     1       0.370   2.019  -3.079  1.00  0.00     0.012 C 
ATOM     12  C   UNL     1      -0.002   0.813  -3.941  1.00  0.00     0.006 C 
ATOM     13  C   UNL     1       1.890   1.941  -2.891  1.00  0.00     0.006 C 
ATOM     14  C   UNL     1       1.216   0.575  -4.812  1.00  0.00     0.000 C 
ATOM     15  C   UNL     1       2.414   0.988  -3.967  1.00  0.00     0.000 C 
ENDBRANCH   7  11
ENDBRANCH   2   5
ENDBRANCH   1   2
BRANCH   1  16
ATOM     16  N   UNL     1       2.263   0.342   1.350  1.00  0.00    -0.623 NA
BRANCH  16  17
ATOM     17  C   UNL     1       2.309  -1.000   1.857  1.00  0.00     0.104 C 
ATOM     18  O   UNL     1       3.433  -1.543   2.028  1.00  0.00    -0.313 OA
BRANCH  17  19
ATOM     19  C   UNL     1       1.078  -1.732   2.231  1.00  0.00     0.089 A 
ATOM     20  N   UNL     1      -0.077  -1.043   2.448  1.00  0.00    -0.246 NA
ATOM     21  C   UNL     1       1.083  -3.129   2.372  1.00  0.00     0.031 A 
ATOM     22  C   UNL     1      -1.239  -1.662   2.783  1.00  0.00     0.071 A 
ATOM     23  C   UNL     1      -0.097  -3.796   2.713  1.00  0.00     0.013 A 
ATOM     24  C   UNL     1      -2.401  -0.911   2.991  1.00  0.00     0.032 A 
ATOM     25  C   UNL     1      -1.274  -3.067   2.920  1.00  0.00     0.003 A 
ATOM     26  C   UNL     1      -3.597  -1.552   3.328  1.00  0.00     0.041 A 
ATOM     27  C   UNL     1      -2.478  -3.703   3.262  1.00  0.00     0.049 A 
ATOM     28  C   UNL     1      -3.636  -2.944   3.464  1.00  0.00     0.123 A 
ATOM     29  F   UNL     1      -4.799  -3.559   3.795  1.00  0.00    -0.207 F 
ENDBRANCH  17  19
ENDBRANCH  16  17
ENDBRANCH   1  16
TORSDOF 7
