REMARK SMILES O=C([N-]CC(=O)N1CCC[C@H]1c1ccc(Cl)cc1)c1ccc2cc(Cl)ccc2n1
REMARK SMILES IDX 4 1 3 2 2 3 1 4 19 5 20 6 29 7 21 8 28 9 22 10 27 11 23 12
REMARK SMILES IDX 26 13 24 14 25 15 5 16 6 17 7 18 8 19 11 20 9 21 10 22 12 23
REMARK SMILES IDX 13 24 18 25 14 26 17 27 15 28 16 29
REMARK H PARENT
ROOT
ATOM      1  C   UNL     1       0.894  -0.449   2.993  1.00  0.00    -0.015 C 
ENDROOT
BRANCH   1   2
ATOM      2  N   UNL     1       2.303  -0.787   3.188  1.00  0.00    -0.640 NA
BRANCH   2   3
ATOM      3  C   UNL     1       3.042  -1.705   2.371  1.00  0.00     0.101 C 
ATOM      4  O   UNL     1       4.293  -1.766   2.492  1.00  0.00    -0.313 OA
BRANCH   3   5
ATOM      5  C   UNL     1       2.379  -2.539   1.360  1.00  0.00     0.088 A 
ATOM      6  C   UNL     1       1.453  -3.520   1.739  1.00  0.00     0.031 A 
ATOM      7  N   UNL     1       2.641  -2.326   0.043  1.00  0.00    -0.246 NA
ATOM      8  C   UNL     1       0.793  -4.260   0.756  1.00  0.00     0.013 A 
ATOM      9  C   UNL     1       2.007  -3.025  -0.937  1.00  0.00     0.071 A 
ATOM     10  C   UNL     1       1.054  -4.010  -0.596  1.00  0.00     0.002 A 
ATOM     11  C   UNL     1       2.278  -2.752  -2.282  1.00  0.00     0.030 A 
ATOM     12  C   UNL     1       0.382  -4.709  -1.610  1.00  0.00     0.030 A 
ATOM     13  C   UNL     1       1.602  -3.450  -3.287  1.00  0.00     0.023 A 
ATOM     14  C   UNL     1       0.656  -4.426  -2.953  1.00  0.00     0.041 A 
ATOM     15  Cl  UNL     1      -0.192  -5.293  -4.220  1.00  0.00    -0.084 Cl
ENDBRANCH   3   5
ENDBRANCH   2   3
ENDBRANCH   1   2
BRANCH   1  16
ATOM     16  C   UNL     1       0.683   0.150   1.627  1.00  0.00     0.205 C 
ATOM     17  O   UNL     1       1.423   1.107   1.270  1.00  0.00    -0.277 OA
BRANCH  16  18
ATOM     18  N   UNL     1      -0.322  -0.346   0.721  1.00  0.00    -0.337 N 
ATOM     19  C   UNL     1      -1.416  -1.226   1.106  1.00  0.00     0.120 C 
ATOM     20  C   UNL     1      -0.311  -0.057  -0.707  1.00  0.00     0.115 C 
ATOM     21  C   UNL     1      -2.249  -1.431  -0.153  1.00  0.00     0.024 C 
ATOM     22  C   UNL     1      -1.372  -0.975  -1.317  1.00  0.00     0.032 C 
BRANCH  20  23
ATOM     23  C   UNL     1      -0.619   1.403  -0.976  1.00  0.00    -0.025 A 
ATOM     24  C   UNL     1      -1.662   2.065  -0.301  1.00  0.00     0.007 A 
ATOM     25  C   UNL     1       0.116   2.103  -1.948  1.00  0.00     0.007 A 
ATOM     26  C   UNL     1      -1.946   3.405  -0.579  1.00  0.00     0.021 A 
ATOM     27  C   UNL     1      -0.170   3.443  -2.224  1.00  0.00     0.021 A 
ATOM     28  C   UNL     1      -1.199   4.096  -1.539  1.00  0.00     0.041 A 
ATOM     29  Cl  UNL     1      -1.558   5.777  -1.887  1.00  0.00    -0.084 Cl
ENDBRANCH  20  23
ENDBRANCH  16  18
ENDBRANCH   1  16
TORSDOF 6
