REMARK SMILES O=C(NCC(=O)N1CCC[C@@H]1c1ccc(Cl)cc1)c1ccc2cc(Cl)ccc2n1
REMARK SMILES IDX 4 1 3 2 2 3 1 4 19 6 20 7 29 8 21 9 28 10 22 11 27 12 23 13
REMARK SMILES IDX 26 14 24 15 25 16 5 17 6 18 7 19 8 20 11 21 9 22 10 23 12 24
REMARK SMILES IDX 13 25 18 26 14 27 17 28 15 29 16 30
REMARK H PARENT 3 5
ROOT
ATOM      1  C   UNL     1      -1.895  -0.049  -1.043  1.00  0.00     0.216 C 
ENDROOT
BRANCH   1   2
ATOM      2  N   UNL     1      -1.094   1.155  -0.832  1.00  0.00    -0.342 N 
ATOM      3  C   UNL     1      -0.049   1.538  -1.736  1.00  0.00     0.270 C 
ATOM      4  O   UNL     1      -0.161   1.285  -2.967  1.00  0.00    -0.268 OA
ATOM      5  H   UNL     1      -1.219   1.683   0.060  1.00  0.00     0.164 HD
BRANCH   3   6
ATOM      6  C   UNL     1       1.174   2.182  -1.219  1.00  0.00     0.128 A 
ATOM      7  C   UNL     1       2.187   2.625  -2.085  1.00  0.00     0.035 A 
ATOM      8  N   UNL     1       1.346   2.300   0.128  1.00  0.00    -0.243 NA
ATOM      9  C   UNL     1       3.356   3.177  -1.558  1.00  0.00     0.013 A 
ATOM     10  C   UNL     1       2.474   2.829   0.669  1.00  0.00     0.071 A 
ATOM     11  C   UNL     1       3.516   3.278  -0.171  1.00  0.00     0.002 A 
ATOM     12  C   UNL     1       2.605   2.925   2.060  1.00  0.00     0.030 A 
ATOM     13  C   UNL     1       4.682   3.815   0.394  1.00  0.00     0.030 A 
ATOM     14  C   UNL     1       3.772   3.458   2.615  1.00  0.00     0.023 A 
ATOM     15  C   UNL     1       4.810   3.902   1.785  1.00  0.00     0.041 A 
ATOM     16  Cl  UNL     1       6.271   4.565   2.494  1.00  0.00    -0.084 Cl
ENDBRANCH   3   6
ENDBRANCH   1   2
BRANCH   1  17
ATOM     17  C   UNL     1      -1.010  -1.260  -1.165  1.00  0.00     0.242 C 
ATOM     18  O   UNL     1      -1.043  -1.926  -2.235  1.00  0.00    -0.273 OA
BRANCH  17  19
ATOM     19  N   UNL     1      -0.111  -1.658  -0.111  1.00  0.00    -0.334 N 
ATOM     20  C   UNL     1       0.939  -2.641  -0.323  1.00  0.00     0.120 C 
ATOM     21  C   UNL     1      -0.104  -1.109   1.242  1.00  0.00     0.115 C 
ATOM     22  C   UNL     1       1.615  -2.835   1.028  1.00  0.00     0.024 C 
ATOM     23  C   UNL     1       1.155  -1.672   1.905  1.00  0.00     0.032 C 
BRANCH  21  24
ATOM     24  C   UNL     1      -1.357  -1.504   1.996  1.00  0.00    -0.025 A 
ATOM     25  C   UNL     1      -2.033  -0.551   2.777  1.00  0.00     0.007 A 
ATOM     26  C   UNL     1      -1.840  -2.824   1.960  1.00  0.00     0.007 A 
ATOM     27  C   UNL     1      -3.185  -0.905   3.487  1.00  0.00     0.021 A 
ATOM     28  C   UNL     1      -2.994  -3.173   2.665  1.00  0.00     0.021 A 
ATOM     29  C   UNL     1      -3.670  -2.215   3.427  1.00  0.00     0.041 A 
ATOM     30  Cl  UNL     1      -5.118  -2.654   4.312  1.00  0.00    -0.084 Cl
ENDBRANCH  21  24
ENDBRANCH  17  19
ENDBRANCH   1  17
TORSDOF 5
