REMARK SMILES O=C(NC/C(O)=[N+]1/CCC[C@@H]1c1ccc(Cl)cc1)c1ccc2cc(Cl)ccc2n1
REMARK SMILES IDX 5 1 6 2 7 4 8 5 11 6 9 7 10 8 12 9 13 10 18 11 14 12 17 13
REMARK SMILES IDX 15 14 16 15 4 16 3 17 2 18 1 20 19 21 29 22 20 23 28 24
REMARK SMILES IDX 21 25 27 26 22 27 26 28 23 29 24 30 25 31
REMARK H PARENT 6 3 3 19
ROOT
ATOM      1  C   UNL     1       0.134  -2.455  -2.254  1.00  0.00     0.354 C 
ENDROOT
BRANCH   1   2
ATOM      2  O   UNL     1      -0.858  -2.434  -3.241  1.00  0.00    -0.462 OA
ATOM      3  H   UNL     1      -1.697  -2.997  -3.206  1.00  0.00     0.299 HD
ENDBRANCH   1   2
BRANCH   1   4
ATOM      4  N   UNL     1       0.064  -3.288  -1.235  1.00  0.00    -0.194 N 
ATOM      5  C   UNL     1      -0.941  -4.341  -1.143  1.00  0.00     0.355 C 
ATOM      6  C   UNL     1       1.021  -3.358  -0.123  1.00  0.00     0.295 C 
ATOM      7  C   UNL     1      -0.472  -5.290  -0.050  1.00  0.00     0.080 C 
ATOM      8  C   UNL     1       0.565  -4.526   0.760  1.00  0.00     0.088 C 
BRANCH   6   9
ATOM      9  C   UNL     1       1.063  -2.070   0.680  1.00  0.00     0.020 A 
ATOM     10  C   UNL     1      -0.125  -1.441   1.099  1.00  0.00     0.012 A 
ATOM     11  C   UNL     1       2.298  -1.520   1.062  1.00  0.00     0.012 A 
ATOM     12  C   UNL     1      -0.073  -0.277   1.872  1.00  0.00     0.021 A 
ATOM     13  C   UNL     1       2.346  -0.355   1.834  1.00  0.00     0.021 A 
ATOM     14  C   UNL     1       1.161   0.266   2.242  1.00  0.00     0.041 A 
ATOM     15  Cl  UNL     1       1.225   1.718   3.223  1.00  0.00    -0.084 Cl
ENDBRANCH   6   9
ENDBRANCH   1   4
BRANCH   1  16
ATOM     16  C   UNL     1       1.252  -1.454  -2.412  1.00  0.00     0.269 C 
BRANCH  16  17
ATOM     17  N   UNL     1       0.889  -0.179  -1.796  1.00  0.00    -0.337 N 
ATOM     18  C   UNL     1       1.856   0.863  -1.602  1.00  0.00     0.270 C 
ATOM     19  H   UNL     1      -0.093  -0.032  -1.469  1.00  0.00     0.164 HD
ATOM     20  O   UNL     1       3.020   0.732  -2.072  1.00  0.00    -0.268 OA
BRANCH  18  21
ATOM     21  C   UNL     1       1.504   2.077  -0.835  1.00  0.00     0.128 A 
ATOM     22  N   UNL     1       0.235   2.230  -0.366  1.00  0.00    -0.243 NA
ATOM     23  C   UNL     1       2.464   3.065  -0.558  1.00  0.00     0.035 A 
ATOM     24  C   UNL     1      -0.141   3.308   0.371  1.00  0.00     0.071 A 
ATOM     25  C   UNL     1       2.107   4.185   0.195  1.00  0.00     0.013 A 
ATOM     26  C   UNL     1      -1.453   3.411   0.847  1.00  0.00     0.030 A 
ATOM     27  C   UNL     1       0.798   4.317   0.672  1.00  0.00     0.002 A 
ATOM     28  C   UNL     1      -1.833   4.514   1.617  1.00  0.00     0.023 A 
ATOM     29  C   UNL     1       0.410   5.422   1.444  1.00  0.00     0.030 A 
ATOM     30  C   UNL     1      -0.904   5.518   1.916  1.00  0.00     0.041 A 
ATOM     31  Cl  UNL     1      -1.388   6.897   2.885  1.00  0.00    -0.084 Cl
ENDBRANCH  18  21
ENDBRANCH  16  17
ENDBRANCH   1  16
TORSDOF 6
