REMARK SMILES O=C([N-]CC(=O)N1CCC[C@@H]1c1ccc(Cl)cc1)c1ccc2cc(Cl)ccc2n1
REMARK SMILES IDX 4 1 3 2 2 3 1 4 19 5 20 6 29 7 21 8 28 9 22 10 27 11 23 12
REMARK SMILES IDX 26 13 24 14 25 15 5 16 6 17 7 18 8 19 11 20 9 21 10 22 12 23
REMARK SMILES IDX 13 24 18 25 14 26 17 27 15 28 16 29
REMARK H PARENT
ROOT
ATOM      1  C   UNL     1       0.592  -1.459  -2.092  1.00  0.00    -0.015 C 
ENDROOT
BRANCH   1   2
ATOM      2  N   UNL     1       1.627  -1.690  -3.100  1.00  0.00    -0.640 NA
BRANCH   2   3
ATOM      3  C   UNL     1       2.856  -0.967  -3.271  1.00  0.00     0.101 C 
ATOM      4  O   UNL     1       3.523  -1.171  -4.318  1.00  0.00    -0.313 OA
BRANCH   3   5
ATOM      5  C   UNL     1       3.353   0.015  -2.282  1.00  0.00     0.088 A 
ATOM      6  C   UNL     1       4.162   1.087  -2.689  1.00  0.00     0.031 A 
ATOM      7  N   UNL     1       3.048  -0.128  -0.963  1.00  0.00    -0.246 NA
ATOM      8  C   UNL     1       4.614   2.013  -1.745  1.00  0.00     0.013 A 
ATOM      9  C   UNL     1       3.486   0.748  -0.019  1.00  0.00     0.071 A 
ATOM     10  C   UNL     1       4.275   1.855  -0.397  1.00  0.00     0.002 A 
ATOM     11  C   UNL     1       3.157   0.552   1.325  1.00  0.00     0.030 A 
ATOM     12  C   UNL     1       4.705   2.770   0.578  1.00  0.00     0.030 A 
ATOM     13  C   UNL     1       3.587   1.465   2.293  1.00  0.00     0.023 A 
ATOM     14  C   UNL     1       4.354   2.576   1.920  1.00  0.00     0.041 A 
ATOM     15  Cl  UNL     1       4.884   3.725   3.137  1.00  0.00    -0.084 Cl
ENDBRANCH   3   5
ENDBRANCH   2   3
ENDBRANCH   1   2
BRANCH   1  16
ATOM     16  C   UNL     1      -0.078  -0.117  -2.264  1.00  0.00     0.205 C 
ATOM     17  O   UNL     1       0.389   0.714  -3.091  1.00  0.00    -0.277 OA
BRANCH  16  18
ATOM     18  N   UNL     1      -1.254   0.232  -1.506  1.00  0.00    -0.337 N 
ATOM     19  C   UNL     1      -2.021   1.435  -1.786  1.00  0.00     0.120 C 
ATOM     20  C   UNL     1      -1.904  -0.636  -0.530  1.00  0.00     0.115 C 
ATOM     21  C   UNL     1      -3.227   1.394  -0.855  1.00  0.00     0.024 C 
ATOM     22  C   UNL     1      -3.297  -0.034  -0.318  1.00  0.00     0.032 C 
BRANCH  20  23
ATOM     23  C   UNL     1      -1.110  -0.688   0.762  1.00  0.00    -0.025 A 
ATOM     24  C   UNL     1      -0.785  -1.927   1.340  1.00  0.00     0.007 A 
ATOM     25  C   UNL     1      -0.725   0.494   1.424  1.00  0.00     0.007 A 
ATOM     26  C   UNL     1      -0.094  -1.983   2.556  1.00  0.00     0.021 A 
ATOM     27  C   UNL     1      -0.049   0.435   2.646  1.00  0.00     0.021 A 
ATOM     28  C   UNL     1       0.267  -0.803   3.213  1.00  0.00     0.041 A 
ATOM     29  Cl  UNL     1       1.133  -0.872   4.738  1.00  0.00    -0.084 Cl
ENDBRANCH  20  23
ENDBRANCH  16  18
ENDBRANCH   1  16
TORSDOF 6
