REMARK SMILES O=C([N-]C/C(O)=[N+]1\CCC[C@H]1CNc1ccc(Cl)cc1)c1ccc2cc(Cl)ccc2n1
REMARK SMILES IDX 5 1 6 2 7 4 8 5 11 6 9 7 10 8 12 9 13 10 14 12 15 13 20 14
REMARK SMILES IDX 16 15 19 16 17 17 18 18 4 19 3 20 2 21 1 22 21 23 31 24
REMARK SMILES IDX 22 25 30 26 23 27 29 28 24 29 28 30 25 31 26 32 27 33
REMARK H PARENT 6 3 13 11
ROOT
ATOM      1  C   UNL     1      -0.381   1.539   0.552  1.00  0.00     0.315 C 
ENDROOT
BRANCH   1   2
ATOM      2  O   UNL     1       0.015   2.246  -0.582  1.00  0.00    -0.465 OA
ATOM      3  H   UNL     1       0.991   2.438  -0.770  1.00  0.00     0.299 HD
ENDBRANCH   1   2
BRANCH   1   4
ATOM      4  N   UNL     1      -1.650   1.257   0.740  1.00  0.00    -0.200 N 
ATOM      5  C   UNL     1      -2.129   0.322   1.753  1.00  0.00     0.354 C 
ATOM      6  C   UNL     1      -2.735   1.705  -0.140  1.00  0.00     0.282 C 
ATOM      7  C   UNL     1      -3.512  -0.106   1.295  1.00  0.00     0.079 C 
ATOM      8  C   UNL     1      -3.999   1.011   0.389  1.00  0.00     0.085 C 
BRANCH   6   9
ATOM      9  C   UNL     1      -2.912   3.249  -0.114  1.00  0.00     0.189 C 
BRANCH   9  10
ATOM     10  N   UNL     1      -2.094   3.908  -1.135  1.00  0.00    -0.378 N 
ATOM     11  H   UNL     1      -1.318   4.525  -0.801  1.00  0.00     0.160 HD
BRANCH  10  12
ATOM     12  C   UNL     1      -2.299   3.773  -2.556  1.00  0.00     0.034 A 
ATOM     13  C   UNL     1      -1.318   4.258  -3.439  1.00  0.00     0.027 A 
ATOM     14  C   UNL     1      -3.462   3.181  -3.090  1.00  0.00     0.027 A 
ATOM     15  C   UNL     1      -1.490   4.147  -4.823  1.00  0.00     0.022 A 
ATOM     16  C   UNL     1      -3.633   3.076  -4.473  1.00  0.00     0.022 A 
ATOM     17  C   UNL     1      -2.648   3.558  -5.340  1.00  0.00     0.041 A 
ATOM     18  Cl  UNL     1      -2.871   3.440  -7.078  1.00  0.00    -0.084 Cl
ENDBRANCH  10  12
ENDBRANCH   9  10
ENDBRANCH   6   9
ENDBRANCH   1   4
BRANCH   1  19
ATOM     19  C   UNL     1       0.689   1.062   1.500  1.00  0.00     0.039 C 
BRANCH  19  20
ATOM     20  N   UNL     1       1.135  -0.262   1.093  1.00  0.00    -0.637 NA
BRANCH  20  21
ATOM     21  C   UNL     1       2.108  -1.017   1.823  1.00  0.00     0.101 C 
ATOM     22  O   UNL     1       2.607  -0.547   2.881  1.00  0.00    -0.313 OA
BRANCH  21  23
ATOM     23  C   UNL     1       2.530  -2.348   1.347  1.00  0.00     0.088 A 
ATOM     24  N   UNL     1       3.410  -3.075   2.091  1.00  0.00    -0.246 NA
ATOM     25  C   UNL     1       2.037  -2.882   0.144  1.00  0.00     0.031 A 
ATOM     26  C   UNL     1       3.835  -4.308   1.711  1.00  0.00     0.071 A 
ATOM     27  C   UNL     1       2.464  -4.142  -0.279  1.00  0.00     0.013 A 
ATOM     28  C   UNL     1       4.739  -5.019   2.508  1.00  0.00     0.030 A 
ATOM     29  C   UNL     1       3.371  -4.869   0.500  1.00  0.00     0.002 A 
ATOM     30  C   UNL     1       5.188  -6.280   2.100  1.00  0.00     0.023 A 
ATOM     31  C   UNL     1       3.827  -6.133   0.097  1.00  0.00     0.030 A 
ATOM     32  C   UNL     1       4.736  -6.836   0.895  1.00  0.00     0.041 A 
ATOM     33  Cl  UNL     1       5.313  -8.413   0.388  1.00  0.00    -0.084 Cl
ENDBRANCH  21  23
ENDBRANCH  20  21
ENDBRANCH  19  20
ENDBRANCH   1  19
TORSDOF 9
