REMARK SMILES O=C([N-]CC(=O)N1CCC[C@H]1C[NH2+]c1ccc(Cl)cc1)c1ccc2cc(Cl)ccc2n1
REMARK SMILES IDX 5 1 6 2 4 3 3 4 2 5 1 6 21 7 22 8 31 9 23 10 30 11 24 12
REMARK SMILES IDX 29 13 25 14 28 15 26 16 27 17 7 18 8 19 11 20 9 21 10 22
REMARK SMILES IDX 12 23 13 24 14 27 15 28 20 29 16 30 19 31 17 32 18 33
REMARK H PARENT 13 25 13 26
ROOT
ATOM      1  C   UNL     1       0.116   0.280  -4.159  1.00  0.00     0.205 C 
ATOM      2  O   UNL     1       1.205   0.904  -4.276  1.00  0.00    -0.277 OA
ENDROOT
BRANCH   1   3
ATOM      3  C   UNL     1      -1.178   1.014  -4.346  1.00  0.00    -0.015 C 
BRANCH   3   4
ATOM      4  N   UNL     1      -2.025   0.787  -3.183  1.00  0.00    -0.640 NA
BRANCH   4   5
ATOM      5  C   UNL     1      -1.859   1.493  -1.951  1.00  0.00     0.101 C 
ATOM      6  O   UNL     1      -1.375   2.657  -1.950  1.00  0.00    -0.313 OA
BRANCH   5   7
ATOM      7  C   UNL     1      -2.212   0.833  -0.684  1.00  0.00     0.088 A 
ATOM      8  C   UNL     1      -2.347   1.566   0.506  1.00  0.00     0.031 A 
ATOM      9  N   UNL     1      -2.333  -0.522  -0.656  1.00  0.00    -0.246 NA
ATOM     10  C   UNL     1      -2.605   0.897   1.703  1.00  0.00     0.013 A 
ATOM     11  C   UNL     1      -2.564  -1.203   0.498  1.00  0.00     0.071 A 
ATOM     12  C   UNL     1      -2.701  -0.500   1.714  1.00  0.00     0.002 A 
ATOM     13  C   UNL     1      -2.639  -2.600   0.486  1.00  0.00     0.030 A 
ATOM     14  C   UNL     1      -2.909  -1.207   2.908  1.00  0.00     0.030 A 
ATOM     15  C   UNL     1      -2.842  -3.299   1.680  1.00  0.00     0.023 A 
ATOM     16  C   UNL     1      -2.976  -2.605   2.889  1.00  0.00     0.041 A 
ATOM     17  Cl  UNL     1      -3.221  -3.490   4.383  1.00  0.00    -0.084 Cl
ENDBRANCH   5   7
ENDBRANCH   4   5
ENDBRANCH   3   4
ENDBRANCH   1   3
BRANCH   1  18
ATOM     18  N   UNL     1       0.123  -1.120  -3.830  1.00  0.00    -0.335 N 
ATOM     19  C   UNL     1      -0.749  -2.080  -4.493  1.00  0.00     0.120 C 
ATOM     20  C   UNL     1       0.669  -1.640  -2.580  1.00  0.00     0.140 C 
ATOM     21  C   UNL     1      -0.887  -3.249  -3.529  1.00  0.00     0.024 C 
ATOM     22  C   UNL     1       0.287  -3.125  -2.569  1.00  0.00     0.033 C 
BRANCH  20  23
ATOM     23  C   UNL     1       2.206  -1.436  -2.470  1.00  0.00     0.291 C 
BRANCH  23  24
ATOM     24  N   UNL     1       2.568  -0.319  -1.576  1.00  0.00    -0.312 N 
ATOM     25  H   UNL     1       3.599  -0.153  -1.650  1.00  0.00     0.352 HD
ATOM     26  H   UNL     1       2.090   0.556  -1.891  1.00  0.00     0.352 HD
BRANCH  24  27
ATOM     27  C   UNL     1       2.250  -0.609  -0.195  1.00  0.00     0.129 A 
ATOM     28  C   UNL     1       1.225   0.095   0.465  1.00  0.00     0.069 A 
ATOM     29  C   UNL     1       2.961  -1.597   0.512  1.00  0.00     0.069 A 
ATOM     30  C   UNL     1       0.901  -0.204   1.791  1.00  0.00     0.026 A 
ATOM     31  C   UNL     1       2.625  -1.901   1.835  1.00  0.00     0.026 A 
ATOM     32  C   UNL     1       1.591  -1.209   2.473  1.00  0.00     0.041 A 
ATOM     33  Cl  UNL     1       1.157  -1.601   4.126  1.00  0.00    -0.084 Cl
ENDBRANCH  24  27
ENDBRANCH  23  24
ENDBRANCH  20  23
ENDBRANCH   1  18
TORSDOF 8
