REMARK SMILES O=C(NCC(=O)N1CCCC[C@H]1c1nnc[n-]1)c1ccc2cc(F)ccc2n1
REMARK SMILES IDX 4 1 3 2 2 3 1 4 18 6 19 7 28 8 20 9 27 10 21 11 26 12 22 13
REMARK SMILES IDX 25 14 23 15 24 16 5 17 6 18 7 19 8 20 12 21 9 22 11 23 10 24
REMARK SMILES IDX 13 25 14 26 17 27 15 28 16 29
REMARK H PARENT 3 5
ROOT
ATOM      1  C   UNL     1       0.500  -1.071  -0.803  1.00  0.00     0.216 C 
ENDROOT
BRANCH   1   2
ATOM      2  N   UNL     1      -0.344   0.087  -1.101  1.00  0.00    -0.342 N 
ATOM      3  C   UNL     1      -1.654  -0.074  -1.666  1.00  0.00     0.270 C 
ATOM      4  O   UNL     1      -2.095  -1.233  -1.899  1.00  0.00    -0.268 OA
ATOM      5  H   UNL     1       0.028   1.052  -0.950  1.00  0.00     0.164 HD
BRANCH   3   6
ATOM      6  C   UNL     1      -2.491   1.107  -1.978  1.00  0.00     0.128 A 
ATOM      7  C   UNL     1      -3.771   0.959  -2.540  1.00  0.00     0.035 A 
ATOM      8  N   UNL     1      -2.017   2.357  -1.717  1.00  0.00    -0.243 NA
ATOM      9  C   UNL     1      -4.538   2.091  -2.823  1.00  0.00     0.013 A 
ATOM     10  C   UNL     1      -2.742   3.477  -1.981  1.00  0.00     0.071 A 
ATOM     11  C   UNL     1      -4.031   3.365  -2.546  1.00  0.00     0.003 A 
ATOM     12  C   UNL     1      -2.213   4.741  -1.695  1.00  0.00     0.032 A 
ATOM     13  C   UNL     1      -4.775   4.522  -2.818  1.00  0.00     0.049 A 
ATOM     14  C   UNL     1      -2.961   5.890  -1.969  1.00  0.00     0.041 A 
ATOM     15  C   UNL     1      -4.239   5.782  -2.529  1.00  0.00     0.123 A 
ATOM     16  F   UNL     1      -4.958   6.900  -2.792  1.00  0.00    -0.207 F 
ENDBRANCH   3   6
ENDBRANCH   1   2
BRANCH   1  17
ATOM     17  C   UNL     1       1.756  -0.670  -0.068  1.00  0.00     0.242 C 
ATOM     18  O   UNL     1       1.685   0.248   0.795  1.00  0.00    -0.273 OA
BRANCH  17  19
ATOM     19  N   UNL     1       3.009  -1.364  -0.269  1.00  0.00    -0.334 N 
ATOM     20  C   UNL     1       4.266  -0.711   0.131  1.00  0.00     0.120 C 
ATOM     21  C   UNL     1       3.040  -2.771  -0.725  1.00  0.00     0.121 C 
ATOM     22  C   UNL     1       5.346  -0.891  -0.948  1.00  0.00     0.022 C 
ATOM     23  C   UNL     1       4.483  -3.299  -0.839  1.00  0.00     0.030 C 
ATOM     24  C   UNL     1       5.354  -2.293  -1.594  1.00  0.00     0.004 C 
BRANCH  21  25
ATOM     25  C   UNL     1       2.258  -3.649   0.211  1.00  0.00     0.012 A 
ATOM     26  N   UNL     1       1.390  -4.589  -0.202  1.00  0.00    -0.351 NA
ATOM     27  N   UNL     1       2.376  -3.608   1.553  1.00  0.00    -0.368 NA
ATOM     28  N   UNL     1       0.920  -5.170   0.888  1.00  0.00    -0.357 NA
ATOM     29  C   UNL     1       1.518  -4.573   1.935  1.00  0.00     0.044 A 
ENDBRANCH  21  25
ENDBRANCH  17  19
ENDBRANCH   1  17
TORSDOF 5
