REMARK SMILES O=C(C/N=C(\O)c1ccc2cc(F)ccc2n1)N1CCC[C@H]1C1CCCCC1
REMARK SMILES IDX 4 1 5 2 6 3 7 5 17 6 8 7 16 8 9 9 15 10 10 11 14 12 11 13
REMARK SMILES IDX 12 14 13 15 3 16 2 17 1 18 18 19 19 20 22 21 20 22 21 23
REMARK SMILES IDX 23 24 24 25 28 26 25 27 27 28 26 29
REMARK H PARENT 6 4
ROOT
ATOM      1  N   UNL     1      -2.579   1.278   0.709  1.00  0.00    -0.240 NA
ENDROOT
BRANCH   1   2
ATOM      2  C   UNL     1      -2.428   1.207   2.001  1.00  0.00     0.233 C 
BRANCH   2   3
ATOM      3  O   UNL     1      -3.215   0.360   2.788  1.00  0.00    -0.492 OA
ATOM      4  H   UNL     1      -3.961  -0.212   2.414  1.00  0.00     0.295 HD
ENDBRANCH   2   3
BRANCH   2   5
ATOM      5  C   UNL     1      -1.391   2.035   2.644  1.00  0.00     0.125 A 
ATOM      6  N   UNL     1      -0.604   2.841   1.876  1.00  0.00    -0.243 NA
ATOM      7  C   UNL     1      -1.189   1.993   4.032  1.00  0.00     0.035 A 
ATOM      8  C   UNL     1       0.377   3.615   2.410  1.00  0.00     0.071 A 
ATOM      9  C   UNL     1      -0.188   2.777   4.610  1.00  0.00     0.013 A 
ATOM     10  C   UNL     1       1.161   4.427   1.582  1.00  0.00     0.032 A 
ATOM     11  C   UNL     1       0.608   3.598   3.803  1.00  0.00     0.003 A 
ATOM     12  C   UNL     1       2.171   5.221   2.135  1.00  0.00     0.041 A 
ATOM     13  C   UNL     1       1.624   4.397   4.350  1.00  0.00     0.049 A 
ATOM     14  C   UNL     1       2.402   5.206   3.515  1.00  0.00     0.123 A 
ATOM     15  F   UNL     1       3.383   5.978   4.044  1.00  0.00    -0.207 F 
ENDBRANCH   2   5
ENDBRANCH   1   2
BRANCH   1  16
ATOM     16  C   UNL     1      -3.510   0.494  -0.100  1.00  0.00     0.246 C 
BRANCH  16  17
ATOM     17  C   UNL     1      -3.093  -0.951  -0.133  1.00  0.00     0.244 C 
ATOM     18  O   UNL     1      -3.934  -1.833   0.187  1.00  0.00    -0.273 OA
BRANCH  17  19
ATOM     19  N   UNL     1      -1.755  -1.349  -0.488  1.00  0.00    -0.338 N 
ATOM     20  C   UNL     1      -1.089  -2.405   0.260  1.00  0.00     0.120 C 
ATOM     21  C   UNL     1      -0.813  -0.548  -1.274  1.00  0.00     0.088 C 
ATOM     22  C   UNL     1       0.398  -2.242  -0.022  1.00  0.00     0.024 C 
ATOM     23  C   UNL     1       0.540  -0.845  -0.613  1.00  0.00     0.027 C 
BRANCH  21  24
ATOM     24  C   UNL     1      -0.836  -0.965  -2.782  1.00  0.00     0.012 C 
ATOM     25  C   UNL     1      -2.244  -0.813  -3.426  1.00  0.00     0.006 C 
ATOM     26  C   UNL     1       0.247  -0.191  -3.596  1.00  0.00     0.006 C 
ATOM     27  C   UNL     1      -2.441   0.577  -4.042  1.00  0.00     0.000 C 
ATOM     28  C   UNL     1      -0.148   0.014  -5.063  1.00  0.00     0.000 C 
ATOM     29  C   UNL     1      -1.444   0.836  -5.188  1.00  0.00     0.000 C 
ENDBRANCH  21  24
ENDBRANCH  17  19
ENDBRANCH  16  17
ENDBRANCH   1  16
TORSDOF 7
