REMARK SMILES O=C(C/N=C(/O)c1ccc2cc(F)ccc2n1)N1CCC[C@H]1C1CCCCC1
REMARK SMILES IDX 4 1 5 2 6 3 7 5 17 6 8 7 16 8 9 9 15 10 10 11 14 12 11 13
REMARK SMILES IDX 12 14 13 15 3 16 2 17 1 18 18 19 19 20 22 21 20 22 21 23
REMARK SMILES IDX 23 24 24 25 28 26 25 27 27 28 26 29
REMARK H PARENT 6 4
ROOT
ATOM      1  N   UNL     1      -0.356  -2.162   0.565  1.00  0.00    -0.240 NA
ENDROOT
BRANCH   1   2
ATOM      2  C   UNL     1      -1.462  -2.847   0.681  1.00  0.00     0.233 C 
BRANCH   2   3
ATOM      3  O   UNL     1      -1.569  -3.742   1.745  1.00  0.00    -0.492 OA
ATOM      4  H   UNL     1      -0.817  -3.854   2.417  1.00  0.00     0.295 HD
ENDBRANCH   2   3
BRANCH   2   5
ATOM      5  C   UNL     1      -2.617  -2.727  -0.258  1.00  0.00     0.125 A 
ATOM      6  N   UNL     1      -2.698  -1.693  -1.140  1.00  0.00    -0.243 NA
ATOM      7  C   UNL     1      -3.663  -3.669  -0.217  1.00  0.00     0.035 A 
ATOM      8  C   UNL     1      -3.740  -1.540  -1.994  1.00  0.00     0.071 A 
ATOM      9  C   UNL     1      -4.750  -3.544  -1.082  1.00  0.00     0.013 A 
ATOM     10  C   UNL     1      -3.763  -0.458  -2.885  1.00  0.00     0.032 A 
ATOM     11  C   UNL     1      -4.800  -2.475  -1.983  1.00  0.00     0.003 A 
ATOM     12  C   UNL     1      -4.842  -0.300  -3.757  1.00  0.00     0.041 A 
ATOM     13  C   UNL     1      -5.877  -2.312  -2.863  1.00  0.00     0.049 A 
ATOM     14  C   UNL     1      -5.898  -1.221  -3.746  1.00  0.00     0.123 A 
ATOM     15  F   UNL     1      -6.952  -1.048  -4.578  1.00  0.00    -0.207 F 
ENDBRANCH   2   5
ENDBRANCH   1   2
BRANCH   1  16
ATOM     16  C   UNL     1      -0.021  -1.193  -0.477  1.00  0.00     0.246 C 
BRANCH  16  17
ATOM     17  C   UNL     1       1.410  -0.730  -0.353  1.00  0.00     0.244 C 
ATOM     18  O   UNL     1       2.214  -1.395   0.335  1.00  0.00    -0.273 OA
BRANCH  17  19
ATOM     19  N   UNL     1       1.872   0.429  -1.079  1.00  0.00    -0.338 N 
ATOM     20  C   UNL     1       1.084   1.037  -2.140  1.00  0.00     0.120 C 
ATOM     21  C   UNL     1       3.256   0.914  -1.058  1.00  0.00     0.088 C 
ATOM     22  C   UNL     1       2.064   1.778  -3.033  1.00  0.00     0.024 C 
ATOM     23  C   UNL     1       3.377   1.868  -2.260  1.00  0.00     0.027 C 
BRANCH  21  24
ATOM     24  C   UNL     1       3.652   1.625   0.282  1.00  0.00     0.012 C 
ATOM     25  C   UNL     1       4.482   0.716   1.212  1.00  0.00     0.006 C 
ATOM     26  C   UNL     1       2.451   2.234   1.043  1.00  0.00     0.006 C 
ATOM     27  C   UNL     1       4.941   1.493   2.451  1.00  0.00     0.000 C 
ATOM     28  C   UNL     1       2.912   2.979   2.302  1.00  0.00     0.000 C 
ATOM     29  C   UNL     1       3.746   2.072   3.209  1.00  0.00     0.000 C 
ENDBRANCH  21  24
ENDBRANCH  17  19
ENDBRANCH  16  17
ENDBRANCH   1  16
TORSDOF 7
