REMARK SMILES O=C(NCC(=O)N1CCCC[C@H]1c1ncc([O-])cn1)c1ccc2cc(Cl)ccc2n1
REMARK SMILES IDX 4 1 3 2 2 3 1 4 20 6 21 7 30 8 22 9 29 10 23 11 28 12 24 13
REMARK SMILES IDX 27 14 25 15 26 16 5 17 6 18 7 19 8 20 12 21 9 22 11 23 10 24
REMARK SMILES IDX 13 25 14 26 19 27 15 28 18 29 16 30 17 31
REMARK H PARENT 3 5
ROOT
ATOM      1  C   UNL     1       1.441  -0.632  -1.283  1.00  0.00     0.216 C 
ENDROOT
BRANCH   1   2
ATOM      2  N   UNL     1       0.172  -1.291  -1.591  1.00  0.00    -0.342 N 
ATOM      3  C   UNL     1      -0.277  -2.460  -0.889  1.00  0.00     0.270 C 
ATOM      4  O   UNL     1       0.459  -2.980  -0.006  1.00  0.00    -0.268 OA
ATOM      5  H   UNL     1      -0.414  -0.883  -2.351  1.00  0.00     0.164 HD
BRANCH   3   6
ATOM      6  C   UNL     1      -1.594  -3.058  -1.196  1.00  0.00     0.128 A 
ATOM      7  C   UNL     1      -2.042  -4.213  -0.529  1.00  0.00     0.035 A 
ATOM      8  N   UNL     1      -2.392  -2.477  -2.137  1.00  0.00    -0.243 NA
ATOM      9  C   UNL     1      -3.291  -4.752  -0.843  1.00  0.00     0.013 A 
ATOM     10  C   UNL     1      -3.615  -2.977  -2.458  1.00  0.00     0.071 A 
ATOM     11  C   UNL     1      -4.094  -4.137  -1.810  1.00  0.00     0.002 A 
ATOM     12  C   UNL     1      -4.400  -2.342  -3.427  1.00  0.00     0.030 A 
ATOM     13  C   UNL     1      -5.357  -4.649  -2.142  1.00  0.00     0.030 A 
ATOM     14  C   UNL     1      -5.660  -2.855  -3.750  1.00  0.00     0.023 A 
ATOM     15  C   UNL     1      -6.137  -4.007  -3.112  1.00  0.00     0.041 A 
ATOM     16  Cl  UNL     1      -7.719  -4.642  -3.524  1.00  0.00    -0.084 Cl
ENDBRANCH   3   6
ENDBRANCH   1   2
BRANCH   1  17
ATOM     17  C   UNL     1       1.344   0.193  -0.022  1.00  0.00     0.242 C 
ATOM     18  O   UNL     1       0.205   0.400   0.488  1.00  0.00    -0.273 OA
BRANCH  17  19
ATOM     19  N   UNL     1       2.515   0.785   0.591  1.00  0.00    -0.331 N 
ATOM     20  C   UNL     1       3.856   0.624  -0.006  1.00  0.00     0.120 C 
ATOM     21  C   UNL     1       2.376   1.453   1.903  1.00  0.00     0.153 C 
ATOM     22  C   UNL     1       4.709   1.873   0.238  1.00  0.00     0.022 C 
ATOM     23  C   UNL     1       3.738   1.589   2.608  1.00  0.00     0.033 C 
ATOM     24  C   UNL     1       4.793   2.274   1.726  1.00  0.00     0.004 C 
BRANCH  21  25
ATOM     25  C   UNL     1       1.712   2.800   1.758  1.00  0.00     0.150 A 
ATOM     26  N   UNL     1       1.084   3.359   2.829  1.00  0.00    -0.240 NA
ATOM     27  N   UNL     1       1.776   3.482   0.581  1.00  0.00    -0.240 NA
ATOM     28  C   UNL     1       0.504   4.584   2.740  1.00  0.00     0.106 A 
ATOM     29  C   UNL     1       1.209   4.711   0.451  1.00  0.00     0.106 A 
ATOM     30  C   UNL     1       0.555   5.292   1.538  1.00  0.00    -0.071 A 
ATOM     31  O   UNL     1      -0.028   6.553   1.428  1.00  0.00    -0.870 OA
ENDBRANCH  21  25
ENDBRANCH  17  19
ENDBRANCH   1  17
TORSDOF 5
