REMARK SMILES O=C(C/N=C(\O)c1ccc2cc(Cl)ccc2n1)N1CCCC[C@H]1c1ncc([O-])cn1
REMARK SMILES IDX 3 1 4 2 5 3 6 4 7 6 17 7 8 8 16 9 9 10 15 11 10 12 14 13
REMARK SMILES IDX 11 14 12 15 13 16 2 17 1 18 18 19 19 20 23 21 20 22 22 23
REMARK SMILES IDX 21 24 24 25 25 26 30 27 26 28 29 29 27 30 28 31
REMARK H PARENT 6 5
ROOT
ATOM      1  C   UNL     1      -0.982   0.119   0.080  1.00  0.00     0.246 C 
ENDROOT
BRANCH   1   2
ATOM      2  N   UNL     1      -0.683   1.151   1.072  1.00  0.00    -0.240 NA
BRANCH   2   3
ATOM      3  C   UNL     1       0.502   1.613   1.358  1.00  0.00     0.233 C 
BRANCH   3   4
ATOM      4  O   UNL     1       1.650   1.138   0.715  1.00  0.00    -0.492 OA
ATOM      5  H   UNL     1       1.634   0.419   0.004  1.00  0.00     0.295 HD
ENDBRANCH   3   4
BRANCH   3   6
ATOM      6  C   UNL     1       0.633   2.664   2.385  1.00  0.00     0.125 A 
ATOM      7  N   UNL     1      -0.481   3.131   3.016  1.00  0.00    -0.243 NA
ATOM      8  C   UNL     1       1.890   3.191   2.723  1.00  0.00     0.035 A 
ATOM      9  C   UNL     1      -0.420   4.098   3.970  1.00  0.00     0.071 A 
ATOM     10  C   UNL     1       1.984   4.185   3.699  1.00  0.00     0.013 A 
ATOM     11  C   UNL     1      -1.590   4.548   4.592  1.00  0.00     0.030 A 
ATOM     12  C   UNL     1       0.827   4.651   4.334  1.00  0.00     0.002 A 
ATOM     13  C   UNL     1      -1.524   5.543   5.572  1.00  0.00     0.023 A 
ATOM     14  C   UNL     1       0.887   5.649   5.319  1.00  0.00     0.030 A 
ATOM     15  C   UNL     1      -0.289   6.093   5.936  1.00  0.00     0.041 A 
ATOM     16  Cl  UNL     1      -0.214   7.340   7.167  1.00  0.00    -0.084 Cl
ENDBRANCH   3   6
ENDBRANCH   2   3
ENDBRANCH   1   2
BRANCH   1  17
ATOM     17  C   UNL     1      -0.800   0.649  -1.322  1.00  0.00     0.245 C 
ATOM     18  O   UNL     1      -1.093   1.855  -1.547  1.00  0.00    -0.273 OA
BRANCH  17  19
ATOM     19  N   UNL     1      -0.357  -0.196  -2.412  1.00  0.00    -0.331 N 
ATOM     20  C   UNL     1       0.307   0.430  -3.572  1.00  0.00     0.120 C 
ATOM     21  C   UNL     1      -0.371  -1.670  -2.280  1.00  0.00     0.153 C 
ATOM     22  C   UNL     1      -0.071  -0.272  -4.877  1.00  0.00     0.022 C 
ATOM     23  C   UNL     1      -0.666  -2.359  -3.626  1.00  0.00     0.033 C 
ATOM     24  C   UNL     1       0.164  -1.777  -4.771  1.00  0.00     0.004 C 
BRANCH  21  25
ATOM     25  C   UNL     1       0.911  -2.182  -1.670  1.00  0.00     0.150 A 
ATOM     26  N   UNL     1       2.114  -1.652  -2.025  1.00  0.00    -0.240 NA
ATOM     27  N   UNL     1       0.867  -3.212  -0.781  1.00  0.00    -0.240 NA
ATOM     28  C   UNL     1       3.272  -2.119  -1.491  1.00  0.00     0.106 A 
ATOM     29  C   UNL     1       2.003  -3.707  -0.224  1.00  0.00     0.106 A 
ATOM     30  C   UNL     1       3.239  -3.164  -0.570  1.00  0.00    -0.071 A 
ATOM     31  O   UNL     1       4.412  -3.655  -0.010  1.00  0.00    -0.870 OA
ENDBRANCH  21  25
ENDBRANCH  17  19
ENDBRANCH   1  17
TORSDOF 7
