REMARK SMILES O=C(N/C=C(\O)N1CCCC[C@H]1c1ccccc1)c1ccc2ccccc2n1
REMARK SMILES IDX 5 1 6 2 4 4 3 5 2 6 1 8 19 9 28 10 20 11 27 12 21 13 26 14
REMARK SMILES IDX 22 15 25 16 23 17 24 18 7 19 8 20 12 21 9 22 11 23 10 24
REMARK SMILES IDX 13 25 14 26 18 27 15 28 17 29 16 30
REMARK H PARENT 6 3 3 7
ROOT
ATOM      1  C   UNL     1      -0.566  -0.606   0.451  1.00  0.00     0.204 C 
ENDROOT
BRANCH   1   2
ATOM      2  O   UNL     1       0.189   0.477   0.001  1.00  0.00    -0.494 OA
ATOM      3  H   UNL     1      -0.207   1.189  -0.599  1.00  0.00     0.295 HD
ENDBRANCH   1   2
BRANCH   1   4
ATOM      4  C   UNL     1      -0.026  -1.491   1.300  1.00  0.00     0.152 C 
BRANCH   4   5
ATOM      5  N   UNL     1       1.309  -1.360   1.808  1.00  0.00    -0.322 N 
ATOM      6  C   UNL     1       1.824  -0.144   2.377  1.00  0.00     0.273 C 
ATOM      7  H   UNL     1       1.857  -2.240   1.931  1.00  0.00     0.169 HD
ATOM      8  O   UNL     1       1.040   0.811   2.635  1.00  0.00    -0.267 OA
BRANCH   6   9
ATOM      9  C   UNL     1       3.264  -0.017   2.690  1.00  0.00     0.129 A 
ATOM     10  N   UNL     1       4.112  -1.036   2.375  1.00  0.00    -0.243 NA
ATOM     11  C   UNL     1       3.774   1.142   3.299  1.00  0.00     0.035 A 
ATOM     12  C   UNL     1       5.446  -0.974   2.633  1.00  0.00     0.071 A 
ATOM     13  C   UNL     1       5.140   1.234   3.577  1.00  0.00     0.013 A 
ATOM     14  C   UNL     1       6.278  -2.046   2.293  1.00  0.00     0.029 A 
ATOM     15  C   UNL     1       5.992   0.175   3.246  1.00  0.00     0.000 A 
ATOM     16  C   UNL     1       7.649  -1.979   2.560  1.00  0.00     0.002 A 
ATOM     17  C   UNL     1       7.368   0.234   3.511  1.00  0.00     0.010 A 
ATOM     18  C   UNL     1       8.193  -0.842   3.167  1.00  0.00     0.001 A 
ENDBRANCH   6   9
ENDBRANCH   4   5
ENDBRANCH   1   4
BRANCH   1  19
ATOM     19  N   UNL     1      -1.909  -0.800  -0.031  1.00  0.00    -0.335 N 
ATOM     20  C   UNL     1      -3.016  -0.822   0.942  1.00  0.00     0.120 C 
ATOM     21  C   UNL     1      -2.134  -0.905  -1.489  1.00  0.00     0.115 C 
ATOM     22  C   UNL     1      -4.090  -1.835   0.550  1.00  0.00     0.022 C 
ATOM     23  C   UNL     1      -3.329  -1.820  -1.838  1.00  0.00     0.030 C 
ATOM     24  C   UNL     1      -4.522  -1.638  -0.900  1.00  0.00     0.004 C 
BRANCH  21  25
ATOM     25  C   UNL     1      -2.241   0.455  -2.165  1.00  0.00    -0.025 A 
ATOM     26  C   UNL     1      -1.472   0.712  -3.318  1.00  0.00     0.006 A 
ATOM     27  C   UNL     1      -3.111   1.459  -1.699  1.00  0.00     0.006 A 
ATOM     28  C   UNL     1      -1.555   1.946  -3.970  1.00  0.00     0.000 A 
ATOM     29  C   UNL     1      -3.190   2.692  -2.354  1.00  0.00     0.000 A 
ATOM     30  C   UNL     1      -2.412   2.936  -3.487  1.00  0.00     0.000 A 
ENDBRANCH  21  25
ENDBRANCH   1  19
TORSDOF 6
