REMARK SMILES O=C(N/C=C(/O)N1CCCC[C@H]1c1ccccc1)c1ccc2ccccc2n1
REMARK SMILES IDX 5 1 6 2 4 4 3 5 2 6 1 8 19 9 28 10 20 11 27 12 21 13 26 14
REMARK SMILES IDX 22 15 25 16 23 17 24 18 7 19 8 20 12 21 9 22 11 23 10 24
REMARK SMILES IDX 13 25 14 26 18 27 15 28 17 29 16 30
REMARK H PARENT 6 3 3 7
ROOT
ATOM      1  C   UNL     1      -1.258   1.973  -0.307  1.00  0.00     0.204 C 
ENDROOT
BRANCH   1   2
ATOM      2  O   UNL     1      -2.589   2.353  -0.460  1.00  0.00    -0.494 OA
ATOM      3  H   UNL     1      -3.115   2.090  -1.284  1.00  0.00     0.295 HD
ENDBRANCH   1   2
BRANCH   1   4
ATOM      4  C   UNL     1      -0.601   2.352   0.796  1.00  0.00     0.152 C 
BRANCH   4   5
ATOM      5  N   UNL     1       0.739   1.916   1.077  1.00  0.00    -0.322 N 
ATOM      6  C   UNL     1       1.472   2.393   2.216  1.00  0.00     0.273 C 
ATOM      7  H   UNL     1       1.182   1.196   0.467  1.00  0.00     0.169 HD
ATOM      8  O   UNL     1       0.961   3.263   2.975  1.00  0.00    -0.267 OA
BRANCH   6   9
ATOM      9  C   UNL     1       2.826   1.870   2.503  1.00  0.00     0.129 A 
ATOM     10  N   UNL     1       3.342   0.873   1.729  1.00  0.00    -0.243 NA
ATOM     11  C   UNL     1       3.594   2.387   3.561  1.00  0.00     0.035 A 
ATOM     12  C   UNL     1       4.581   0.356   1.941  1.00  0.00     0.071 A 
ATOM     13  C   UNL     1       4.873   1.878   3.802  1.00  0.00     0.013 A 
ATOM     14  C   UNL     1       5.067  -0.665   1.116  1.00  0.00     0.029 A 
ATOM     15  C   UNL     1       5.381   0.855   2.991  1.00  0.00     0.000 A 
ATOM     16  C   UNL     1       6.347  -1.189   1.330  1.00  0.00     0.002 A 
ATOM     17  C   UNL     1       6.663   0.323   3.201  1.00  0.00     0.010 A 
ATOM     18  C   UNL     1       7.143  -0.697   2.369  1.00  0.00     0.001 A 
ENDBRANCH   6   9
ENDBRANCH   4   5
ENDBRANCH   1   4
BRANCH   1  19
ATOM     19  N   UNL     1      -0.622   1.186  -1.332  1.00  0.00    -0.335 N 
ATOM     20  C   UNL     1       0.350   1.872  -2.203  1.00  0.00     0.120 C 
ATOM     21  C   UNL     1      -1.223  -0.091  -1.768  1.00  0.00     0.115 C 
ATOM     22  C   UNL     1       0.382   1.251  -3.604  1.00  0.00     0.022 C 
ATOM     23  C   UNL     1      -0.155  -0.983  -2.440  1.00  0.00     0.030 C 
ATOM     24  C   UNL     1       0.655  -0.258  -3.535  1.00  0.00     0.004 C 
BRANCH  21  25
ATOM     25  C   UNL     1      -1.871  -0.839  -0.613  1.00  0.00    -0.025 A 
ATOM     26  C   UNL     1      -1.137  -1.158   0.546  1.00  0.00     0.006 A 
ATOM     27  C   UNL     1      -3.220  -1.228  -0.694  1.00  0.00     0.006 A 
ATOM     28  C   UNL     1      -1.746  -1.837   1.606  1.00  0.00     0.000 A 
ATOM     29  C   UNL     1      -3.823  -1.910   0.367  1.00  0.00     0.000 A 
ATOM     30  C   UNL     1      -3.088  -2.212   1.516  1.00  0.00     0.000 A 
ENDBRANCH  21  25
ENDBRANCH   1  19
TORSDOF 6
