REMARK SMILES O=C(C/N=C(\O)c1ccc2cc(F)ccc2n1)N1CCCC[C@H]1C1CCCCC1
REMARK SMILES IDX 4 1 5 2 6 3 7 5 17 6 8 7 16 8 9 9 15 10 10 11 14 12 11 13
REMARK SMILES IDX 12 14 13 15 3 16 2 17 1 18 18 19 19 20 23 21 20 22 22 23
REMARK SMILES IDX 21 24 24 25 25 26 29 27 26 28 28 29 27 30
REMARK H PARENT 6 4
ROOT
ATOM      1  N   UNL     1      -0.720   2.154   1.018  1.00  0.00    -0.240 NA
ENDROOT
BRANCH   1   2
ATOM      2  C   UNL     1      -0.308   2.972   0.094  1.00  0.00     0.233 C 
BRANCH   2   3
ATOM      3  O   UNL     1      -1.184   3.854  -0.547  1.00  0.00    -0.492 OA
ATOM      4  H   UNL     1      -2.170   3.911  -0.327  1.00  0.00     0.295 HD
ENDBRANCH   2   3
BRANCH   2   5
ATOM      5  C   UNL     1       1.116   2.954  -0.290  1.00  0.00     0.125 A 
ATOM      6  N   UNL     1       1.957   2.058   0.299  1.00  0.00    -0.243 NA
ATOM      7  C   UNL     1       1.614   3.832  -1.266  1.00  0.00     0.035 A 
ATOM      8  C   UNL     1       3.275   1.981  -0.027  1.00  0.00     0.071 A 
ATOM      9  C   UNL     1       2.964   3.777  -1.620  1.00  0.00     0.013 A 
ATOM     10  C   UNL     1       4.100   1.041   0.601  1.00  0.00     0.032 A 
ATOM     11  C   UNL     1       3.810   2.848  -1.004  1.00  0.00     0.003 A 
ATOM     12  C   UNL     1       5.455   0.964   0.262  1.00  0.00     0.041 A 
ATOM     13  C   UNL     1       5.170   2.765  -1.338  1.00  0.00     0.049 A 
ATOM     14  C   UNL     1       5.989   1.823  -0.705  1.00  0.00     0.123 A 
ATOM     15  F   UNL     1       7.303   1.742  -1.028  1.00  0.00    -0.207 F 
ENDBRANCH   2   5
ENDBRANCH   1   2
BRANCH   1  16
ATOM     16  C   UNL     1      -2.095   2.026   1.480  1.00  0.00     0.246 C 
BRANCH  16  17
ATOM     17  C   UNL     1      -2.177   0.954   2.522  1.00  0.00     0.244 C 
ATOM     18  O   UNL     1      -2.281   1.293   3.732  1.00  0.00    -0.273 OA
BRANCH  17  19
ATOM     19  N   UNL     1      -2.153  -0.448   2.174  1.00  0.00    -0.338 N 
ATOM     20  C   UNL     1      -3.163  -1.287   2.837  1.00  0.00     0.120 C 
ATOM     21  C   UNL     1      -0.852  -1.067   1.809  1.00  0.00     0.088 C 
ATOM     22  C   UNL     1      -2.603  -1.932   4.123  1.00  0.00     0.022 C 
ATOM     23  C   UNL     1      -0.408  -2.111   2.871  1.00  0.00     0.025 C 
ATOM     24  C   UNL     1      -1.070  -1.852   4.227  1.00  0.00     0.004 C 
BRANCH  21  25
ATOM     25  C   UNL     1      -0.802  -1.656   0.359  1.00  0.00     0.012 C 
ATOM     26  C   UNL     1      -0.862  -0.546  -0.720  1.00  0.00     0.006 C 
ATOM     27  C   UNL     1      -1.803  -2.814   0.062  1.00  0.00     0.006 C 
ATOM     28  C   UNL     1      -1.136  -1.130  -2.108  1.00  0.00     0.000 C 
ATOM     29  C   UNL     1      -2.987  -2.356  -0.800  1.00  0.00     0.000 C 
ATOM     30  C   UNL     1      -2.513  -1.823  -2.167  1.00  0.00     0.000 C 
ENDBRANCH  21  25
ENDBRANCH  17  19
ENDBRANCH  16  17
ENDBRANCH   1  16
TORSDOF 7
