REMARK SMILES O=C([N-]CC(=O)N1CCC[C@H]1c1c[nH]c(-c2ccccc2)n1)c1ccc2ccccc2n1
REMARK SMILES IDX 4 1 3 2 2 3 1 4 23 5 24 6 32 7 25 8 31 9 26 10 30 11 27 12
REMARK SMILES IDX 29 13 28 14 5 15 6 16 7 17 8 18 11 19 9 20 10 21 12 22 13 23
REMARK SMILES IDX 22 24 14 25 15 26 16 28 17 29 21 30 18 31 20 32 19 33
REMARK H PARENT 14 27
ROOT
ATOM      1  C   UNL     1      -2.156   0.064  -0.609  1.00  0.00    -0.015 C 
ENDROOT
BRANCH   1   2
ATOM      2  N   UNL     1      -2.315   1.420  -0.091  1.00  0.00    -0.640 NA
BRANCH   2   3
ATOM      3  C   UNL     1      -1.972   2.617  -0.804  1.00  0.00     0.101 C 
ATOM      4  O   UNL     1      -1.888   3.699  -0.165  1.00  0.00    -0.313 OA
BRANCH   3   5
ATOM      5  C   UNL     1      -1.661   2.617  -2.244  1.00  0.00     0.088 A 
ATOM      6  C   UNL     1      -2.504   1.985  -3.172  1.00  0.00     0.031 A 
ATOM      7  N   UNL     1      -0.563   3.294  -2.684  1.00  0.00    -0.246 NA
ATOM      8  C   UNL     1      -2.185   2.021  -4.531  1.00  0.00     0.012 A 
ATOM      9  C   UNL     1      -0.229   3.349  -4.001  1.00  0.00     0.071 A 
ATOM     10  C   UNL     1      -1.039   2.701  -4.960  1.00  0.00     0.000 A 
ATOM     11  C   UNL     1       0.913   4.049  -4.409  1.00  0.00     0.029 A 
ATOM     12  C   UNL     1      -0.690   2.760  -6.319  1.00  0.00     0.010 A 
ATOM     13  C   UNL     1       1.253   4.103  -5.764  1.00  0.00     0.002 A 
ATOM     14  C   UNL     1       0.456   3.458  -6.716  1.00  0.00     0.001 A 
ENDBRANCH   3   5
ENDBRANCH   2   3
ENDBRANCH   1   2
BRANCH   1  15
ATOM     15  C   UNL     1      -2.249  -0.945   0.502  1.00  0.00     0.205 C 
ATOM     16  O   UNL     1      -2.632  -0.581   1.648  1.00  0.00    -0.277 OA
BRANCH  15  17
ATOM     17  N   UNL     1      -1.934  -2.330   0.264  1.00  0.00    -0.335 N 
ATOM     18  C   UNL     1      -1.562  -2.866  -1.036  1.00  0.00     0.120 C 
ATOM     19  C   UNL     1      -2.023  -3.358   1.292  1.00  0.00     0.136 C 
ATOM     20  C   UNL     1      -1.275  -4.344  -0.806  1.00  0.00     0.024 C 
ATOM     21  C   UNL     1      -1.903  -4.685   0.543  1.00  0.00     0.033 C 
BRANCH  19  22
ATOM     22  C   UNL     1      -0.911  -3.197   2.291  1.00  0.00     0.081 A 
ATOM     23  C   UNL     1      -0.959  -3.572   3.615  1.00  0.00     0.110 A 
ATOM     24  N   UNL     1       0.321  -2.735   1.991  1.00  0.00    -0.231 NA
ATOM     25  N   UNL     1       0.244  -3.331   4.158  1.00  0.00    -0.344 N 
ATOM     26  C   UNL     1       0.999  -2.824   3.157  1.00  0.00     0.137 A 
ATOM     27  H   UNL     1       0.510  -3.502   5.153  1.00  0.00     0.168 HD
BRANCH  26  28
ATOM     28  C   UNL     1       2.419  -2.415   3.294  1.00  0.00     0.017 A 
ATOM     29  C   UNL     1       3.047  -1.705   2.251  1.00  0.00     0.012 A 
ATOM     30  C   UNL     1       3.167  -2.733   4.445  1.00  0.00     0.012 A 
ATOM     31  C   UNL     1       4.387  -1.320   2.361  1.00  0.00     0.001 A 
ATOM     32  C   UNL     1       4.507  -2.348   4.547  1.00  0.00     0.001 A 
ATOM     33  C   UNL     1       5.117  -1.641   3.507  1.00  0.00     0.000 A 
ENDBRANCH  26  28
ENDBRANCH  19  22
ENDBRANCH  15  17
ENDBRANCH   1  15
TORSDOF 7
