REMARK SMILES C[C@H]([N-]/C(O)=C/N=C(\O)c1ccc2cc(F)ccc2n1)c1ccccc1
REMARK SMILES IDX 6 1 7 2 8 3 9 4 10 6 20 7 11 8 19 9 12 10 18 11 13 12 17 13
REMARK SMILES IDX 14 14 15 15 16 16 4 17 3 18 2 19 1 20 21 21 22 22 26 23
REMARK SMILES IDX 23 24 25 25 24 26 5 27
REMARK H PARENT 9 5 5 28
ROOT
ATOM      1  C   UNL     1       0.186  -0.206  -1.246  1.00  0.00     0.136 C 
ENDROOT
BRANCH   1   2
ATOM      2  N   UNL     1      -0.709  -0.589  -0.194  1.00  0.00    -0.218 NA
BRANCH   2   3
ATOM      3  C   UNL     1      -2.012  -0.553  -0.214  1.00  0.00     0.237 C 
BRANCH   3   4
ATOM      4  O   UNL     1      -2.730  -0.099  -1.325  1.00  0.00    -0.492 OA
ATOM      5  H   UNL     1      -2.308   0.252  -2.172  1.00  0.00     0.295 HD
ENDBRANCH   3   4
BRANCH   3   6
ATOM      6  C   UNL     1      -2.774  -0.999   0.970  1.00  0.00     0.126 A 
ATOM      7  N   UNL     1      -4.134  -0.924   0.946  1.00  0.00    -0.243 NA
ATOM      8  C   UNL     1      -2.131  -1.495   2.118  1.00  0.00     0.035 A 
ATOM      9  C   UNL     1      -4.900  -1.316   1.999  1.00  0.00     0.071 A 
ATOM     10  C   UNL     1      -2.892  -1.905   3.215  1.00  0.00     0.013 A 
ATOM     11  C   UNL     1      -6.294  -1.219   1.928  1.00  0.00     0.032 A 
ATOM     12  C   UNL     1      -4.288  -1.819   3.167  1.00  0.00     0.003 A 
ATOM     13  C   UNL     1      -7.079  -1.620   3.014  1.00  0.00     0.041 A 
ATOM     14  C   UNL     1      -5.081  -2.220   4.252  1.00  0.00     0.049 A 
ATOM     15  C   UNL     1      -6.474  -2.119   4.173  1.00  0.00     0.123 A 
ATOM     16  F   UNL     1      -7.241  -2.506   5.222  1.00  0.00    -0.207 F 
ENDBRANCH   3   6
ENDBRANCH   2   3
ENDBRANCH   1   2
BRANCH   1  17
ATOM     17  C   UNL     1       1.501  -0.261  -1.052  1.00  0.00     0.029 C 
BRANCH  17  18
ATOM     18  N   UNL     1       2.380   0.128  -2.116  1.00  0.00    -0.647 NA
BRANCH  18  19
ATOM     19  C   UNL     1       3.837   0.199  -2.016  1.00  0.00    -0.079 C 
ATOM     20  C   UNL     1       4.429   0.427  -3.405  1.00  0.00    -0.008 C 
BRANCH  19  21
ATOM     21  C   UNL     1       4.256   1.311  -1.080  1.00  0.00    -0.063 A 
ATOM     22  C   UNL     1       3.667   2.587  -1.167  1.00  0.00     0.002 A 
ATOM     23  C   UNL     1       5.275   1.092  -0.137  1.00  0.00     0.002 A 
ATOM     24  C   UNL     1       4.077   3.614  -0.311  1.00  0.00     0.000 A 
ATOM     25  C   UNL     1       5.681   2.123   0.717  1.00  0.00     0.000 A 
ATOM     26  C   UNL     1       5.081   3.382   0.631  1.00  0.00     0.000 A 
ENDBRANCH  19  21
ENDBRANCH  18  19
ENDBRANCH  17  18
BRANCH  17  27
ATOM     27  O   UNL     1       1.999  -0.692   0.180  1.00  0.00    -0.529 OA
ATOM     28  H   UNL     1       2.989  -0.768   0.369  1.00  0.00     0.290 HD
ENDBRANCH  17  27
ENDBRANCH   1  17
TORSDOF 9
