REMARK SMILES C[C@H]([N-]/C(O)=C/N=C(/O)c1ccc2cc(F)ccc2n1)c1ccccc1
REMARK SMILES IDX 6 1 4 2 5 3 3 5 2 6 1 7 21 8 22 9 26 10 23 11 25 12 24 13
REMARK SMILES IDX 7 14 8 15 9 16 10 18 20 19 11 20 19 21 12 22 18 23 13 24
REMARK SMILES IDX 17 25 14 26 15 27 16 28
REMARK H PARENT 5 4 9 17
ROOT
ATOM      1  C   UNL     1      -0.296  -0.141  -0.192  1.00  0.00     0.136 C 
ENDROOT
BRANCH   1   2
ATOM      2  C   UNL     1      -0.824   0.917   0.428  1.00  0.00     0.029 C 
BRANCH   2   3
ATOM      3  O   UNL     1      -1.459   0.790   1.665  1.00  0.00    -0.529 OA
ATOM      4  H   UNL     1      -1.550  -0.095   2.149  1.00  0.00     0.290 HD
ENDBRANCH   2   3
BRANCH   2   5
ATOM      5  N   UNL     1      -0.724   2.202  -0.198  1.00  0.00    -0.647 NA
BRANCH   5   6
ATOM      6  C   UNL     1      -1.242   3.458   0.347  1.00  0.00    -0.079 C 
ATOM      7  C   UNL     1      -2.777   3.453   0.361  1.00  0.00    -0.008 C 
BRANCH   6   8
ATOM      8  C   UNL     1      -0.587   3.775   1.682  1.00  0.00    -0.063 A 
ATOM      9  C   UNL     1      -1.234   3.567   2.919  1.00  0.00     0.002 A 
ATOM     10  C   UNL     1       0.739   4.246   1.685  1.00  0.00     0.002 A 
ATOM     11  C   UNL     1      -0.574   3.845   4.119  1.00  0.00     0.000 A 
ATOM     12  C   UNL     1       1.394   4.523   2.889  1.00  0.00     0.000 A 
ATOM     13  C   UNL     1       0.737   4.325   4.105  1.00  0.00     0.000 A 
ENDBRANCH   6   8
ENDBRANCH   5   6
ENDBRANCH   2   5
ENDBRANCH   1   2
BRANCH   1  14
ATOM     14  N   UNL     1      -0.387  -1.453   0.380  1.00  0.00    -0.218 NA
BRANCH  14  15
ATOM     15  C   UNL     1       0.204  -2.531  -0.054  1.00  0.00     0.237 C 
BRANCH  15  16
ATOM     16  O   UNL     1      -0.086  -3.749   0.555  1.00  0.00    -0.492 OA
ATOM     17  H   UNL     1      -0.741  -3.806   1.326  1.00  0.00     0.295 HD
ENDBRANCH  15  16
BRANCH  15  18
ATOM     18  C   UNL     1       1.165  -2.532  -1.175  1.00  0.00     0.126 A 
ATOM     19  N   UNL     1       1.027  -3.462  -2.159  1.00  0.00    -0.243 NA
ATOM     20  C   UNL     1       2.264  -1.658  -1.196  1.00  0.00     0.035 A 
ATOM     21  C   UNL     1       1.901  -3.548  -3.198  1.00  0.00     0.071 A 
ATOM     22  C   UNL     1       3.177  -1.720  -2.251  1.00  0.00     0.013 A 
ATOM     23  C   UNL     1       1.714  -4.510  -4.197  1.00  0.00     0.032 A 
ATOM     24  C   UNL     1       3.002  -2.666  -3.267  1.00  0.00     0.003 A 
ATOM     25  C   UNL     1       2.614  -4.595  -5.264  1.00  0.00     0.041 A 
ATOM     26  C   UNL     1       3.901  -2.758  -4.341  1.00  0.00     0.049 A 
ATOM     27  C   UNL     1       3.705  -3.721  -5.336  1.00  0.00     0.123 A 
ATOM     28  F   UNL     1       4.574  -3.809  -6.373  1.00  0.00    -0.207 F 
ENDBRANCH  15  18
ENDBRANCH  14  15
ENDBRANCH   1  14
TORSDOF 9
