REMARK SMILES C[C@H]([N-]/C(O)=C\[N-]C(=O)c1ccc2cc(F)ccc2n1)c1ccccc1
REMARK SMILES IDX 6 1 4 2 5 3 3 5 2 6 1 7 21 8 22 9 26 10 23 11 25 12 24 13
REMARK SMILES IDX 7 14 8 15 9 16 10 17 20 18 11 19 19 20 12 21 18 22 13 23
REMARK SMILES IDX 17 24 14 25 15 26 16 27
REMARK H PARENT 5 4
ROOT
ATOM      1  C   UNL     1      -2.483  -2.000  -2.634  1.00  0.00    -0.114 C 
ENDROOT
BRANCH   1   2
ATOM      2  C   UNL     1      -1.500  -1.134  -2.918  1.00  0.00    -0.012 C 
BRANCH   2   3
ATOM      3  O   UNL     1      -0.434  -1.534  -3.727  1.00  0.00    -0.533 OA
ATOM      4  H   UNL     1      -0.370  -2.472  -4.108  1.00  0.00     0.290 HD
ENDBRANCH   2   3
BRANCH   2   5
ATOM      5  N   UNL     1      -1.526   0.200  -2.405  1.00  0.00    -0.650 NA
BRANCH   5   6
ATOM      6  C   UNL     1      -0.407   1.131  -2.519  1.00  0.00    -0.079 C 
ATOM      7  C   UNL     1      -0.456   1.854  -3.865  1.00  0.00    -0.008 C 
BRANCH   6   8
ATOM      8  C   UNL     1      -0.458   2.116  -1.374  1.00  0.00    -0.063 A 
ATOM      9  C   UNL     1       0.665   2.302  -0.548  1.00  0.00     0.002 A 
ATOM     10  C   UNL     1      -1.629   2.852  -1.111  1.00  0.00     0.002 A 
ATOM     11  C   UNL     1       0.614   3.200   0.522  1.00  0.00     0.000 A 
ATOM     12  C   UNL     1      -1.674   3.750  -0.040  1.00  0.00     0.000 A 
ATOM     13  C   UNL     1      -0.554   3.923   0.777  1.00  0.00     0.000 A 
ENDBRANCH   6   8
ENDBRANCH   5   6
ENDBRANCH   2   5
ENDBRANCH   1   2
BRANCH   1  14
ATOM     14  N   UNL     1      -3.621  -1.680  -1.815  1.00  0.00    -0.626 NA
BRANCH  14  15
ATOM     15  C   UNL     1      -3.684  -0.841  -0.651  1.00  0.00     0.104 C 
ATOM     16  O   UNL     1      -4.792  -0.323  -0.351  1.00  0.00    -0.313 OA
BRANCH  15  17
ATOM     17  C   UNL     1      -2.517  -0.618   0.235  1.00  0.00     0.089 A 
ATOM     18  N   UNL     1      -1.407  -1.398   0.111  1.00  0.00    -0.246 NA
ATOM     19  C   UNL     1      -2.532   0.409   1.194  1.00  0.00     0.031 A 
ATOM     20  C   UNL     1      -0.291  -1.195   0.861  1.00  0.00     0.071 A 
ATOM     21  C   UNL     1      -1.405   0.636   1.986  1.00  0.00     0.013 A 
ATOM     22  C   UNL     1       0.839  -1.997   0.670  1.00  0.00     0.032 A 
ATOM     23  C   UNL     1      -0.266  -0.159   1.819  1.00  0.00     0.003 A 
ATOM     24  C   UNL     1       1.993  -1.769   1.425  1.00  0.00     0.041 A 
ATOM     25  C   UNL     1       0.896   0.064   2.573  1.00  0.00     0.049 A 
ATOM     26  C   UNL     1       2.023  -0.741   2.374  1.00  0.00     0.123 A 
ATOM     27  F   UNL     1       3.147  -0.523   3.100  1.00  0.00    -0.207 F 
ENDBRANCH  15  17
ENDBRANCH  14  15
ENDBRANCH   1  14
TORSDOF 8
