REMARK SMILES O=C([N-]CC(=O)N1CC[C@H](O)[C@H]1Cc1ccccc1)c1ccc2cc(Cl)ccc2n1
REMARK SMILES IDX 4 1 3 2 2 3 1 4 20 5 21 6 30 7 22 8 29 9 23 10 28 11 24 12
REMARK SMILES IDX 27 13 25 14 26 15 5 16 6 17 7 18 8 19 12 20 9 21 10 22 13 23
REMARK SMILES IDX 14 24 15 25 19 26 16 27 18 28 17 29 11 30
REMARK H PARENT 11 31
ROOT
ATOM      1  C   UNL     1       0.111  -0.300   0.298  1.00  0.00    -0.015 C 
ENDROOT
BRANCH   1   2
ATOM      2  N   UNL     1      -0.030   0.979   0.986  1.00  0.00    -0.640 NA
BRANCH   2   3
ATOM      3  C   UNL     1       0.606   1.317   2.225  1.00  0.00     0.101 C 
ATOM      4  O   UNL     1       0.650   2.526   2.573  1.00  0.00    -0.313 OA
BRANCH   3   5
ATOM      5  C   UNL     1       1.248   0.307   3.082  1.00  0.00     0.088 A 
ATOM      6  C   UNL     1       0.569  -0.860   3.463  1.00  0.00     0.031 A 
ATOM      7  N   UNL     1       2.502   0.542   3.559  1.00  0.00    -0.246 NA
ATOM      8  C   UNL     1       1.201  -1.787   4.295  1.00  0.00     0.013 A 
ATOM      9  C   UNL     1       3.141  -0.341   4.372  1.00  0.00     0.071 A 
ATOM     10  C   UNL     1       2.498  -1.538   4.756  1.00  0.00     0.002 A 
ATOM     11  C   UNL     1       4.436  -0.067   4.827  1.00  0.00     0.030 A 
ATOM     12  C   UNL     1       3.161  -2.446   5.596  1.00  0.00     0.030 A 
ATOM     13  C   UNL     1       5.091  -0.977   5.662  1.00  0.00     0.023 A 
ATOM     14  C   UNL     1       4.456  -2.164   6.047  1.00  0.00     0.041 A 
ATOM     15  Cl  UNL     1       5.285  -3.301   7.094  1.00  0.00    -0.084 Cl
ENDBRANCH   3   5
ENDBRANCH   2   3
ENDBRANCH   1   2
BRANCH   1  16
ATOM     16  C   UNL     1      -0.454  -0.195  -1.086  1.00  0.00     0.205 C 
ATOM     17  O   UNL     1      -0.212   0.833  -1.775  1.00  0.00    -0.277 OA
BRANCH  16  18
ATOM     18  N   UNL     1      -1.225  -1.271  -1.650  1.00  0.00    -0.338 N 
ATOM     19  C   UNL     1      -0.904  -2.664  -1.387  1.00  0.00     0.122 C 
ATOM     20  C   UNL     1      -2.124  -1.106  -2.790  1.00  0.00     0.118 C 
ATOM     21  C   UNL     1      -1.357  -3.428  -2.620  1.00  0.00     0.055 C 
ATOM     22  C   UNL     1      -2.386  -2.531  -3.312  1.00  0.00     0.139 C 
BRANCH  20  23
ATOM     23  C   UNL     1      -3.448  -0.429  -2.368  1.00  0.00     0.063 C 
BRANCH  23  24
ATOM     24  C   UNL     1      -3.259   1.005  -1.946  1.00  0.00    -0.046 A 
ATOM     25  C   UNL     1      -3.266   1.353  -0.584  1.00  0.00     0.004 A 
ATOM     26  C   UNL     1      -3.042   2.004  -2.910  1.00  0.00     0.004 A 
ATOM     27  C   UNL     1      -3.054   2.679  -0.194  1.00  0.00     0.000 A 
ATOM     28  C   UNL     1      -2.832   3.329  -2.516  1.00  0.00     0.000 A 
ATOM     29  C   UNL     1      -2.838   3.666  -1.159  1.00  0.00     0.000 A 
ENDBRANCH  23  24
ENDBRANCH  20  23
BRANCH  22  30
ATOM     30  O   UNL     1      -2.237  -2.578  -4.707  1.00  0.00    -0.391 OA
ATOM     31  H   UNL     1      -2.570  -3.467  -4.997  1.00  0.00     0.211 HD
ENDBRANCH  22  30
ENDBRANCH  16  18
ENDBRANCH   1  16
TORSDOF 8
