REMARK SMILES O=C(NC/C(O)=[N+]1/CCC[C@@H]1c1ncc(F)cn1)c1ccc2cc(Cl)ccc2n1
REMARK SMILES IDX 5 1 6 2 7 4 8 5 11 6 9 7 10 8 12 9 13 10 18 11 14 12 17 13
REMARK SMILES IDX 15 14 16 15 4 16 3 17 2 18 1 20 19 21 29 22 20 23 28 24
REMARK SMILES IDX 21 25 27 26 22 27 26 28 23 29 24 30 25 31
REMARK H PARENT 6 3 3 19
ROOT
ATOM      1  C   UNL     1       2.153  -2.224  -2.080  1.00  0.00     0.354 C 
ENDROOT
BRANCH   1   2
ATOM      2  O   UNL     1       1.858  -3.292  -2.936  1.00  0.00    -0.462 OA
ATOM      3  H   UNL     1       1.917  -4.264  -2.664  1.00  0.00     0.299 HD
ENDBRANCH   1   2
BRANCH   1   4
ATOM      4  N   UNL     1       2.563  -2.437  -0.847  1.00  0.00    -0.191 N 
ATOM      5  C   UNL     1       2.839  -3.770  -0.318  1.00  0.00     0.355 C 
ATOM      6  C   UNL     1       2.882  -1.397   0.137  1.00  0.00     0.332 C 
ATOM      7  C   UNL     1       3.361  -3.569   1.100  1.00  0.00     0.080 C 
ATOM      8  C   UNL     1       3.742  -2.098   1.186  1.00  0.00     0.091 C 
BRANCH   6   9
ATOM      9  C   UNL     1       1.628  -0.857   0.778  1.00  0.00     0.197 A 
ATOM     10  N   UNL     1       0.547  -1.663   0.972  1.00  0.00    -0.232 NA
ATOM     11  N   UNL     1       1.604   0.423   1.239  1.00  0.00    -0.232 NA
ATOM     12  C   UNL     1      -0.567  -1.203   1.597  1.00  0.00     0.154 A 
ATOM     13  C   UNL     1       0.509   0.920   1.871  1.00  0.00     0.154 A 
ATOM     14  C   UNL     1      -0.608   0.108   2.066  1.00  0.00     0.159 A 
ATOM     15  F   UNL     1      -1.711   0.586   2.693  1.00  0.00    -0.204 F 
ENDBRANCH   6   9
ENDBRANCH   1   4
BRANCH   1  16
ATOM     16  C   UNL     1       1.990  -0.839  -2.658  1.00  0.00     0.269 C 
BRANCH  16  17
ATOM     17  N   UNL     1       0.851  -0.141  -2.068  1.00  0.00    -0.337 N 
ATOM     18  C   UNL     1      -0.501  -0.607  -2.206  1.00  0.00     0.270 C 
ATOM     19  H   UNL     1       1.040   0.750  -1.558  1.00  0.00     0.164 HD
ATOM     20  O   UNL     1      -0.743  -1.638  -2.891  1.00  0.00    -0.268 OA
BRANCH  18  21
ATOM     21  C   UNL     1      -1.609   0.108  -1.537  1.00  0.00     0.128 A 
ATOM     22  N   UNL     1      -1.367   1.301  -0.927  1.00  0.00    -0.243 NA
ATOM     23  C   UNL     1      -2.904  -0.436  -1.499  1.00  0.00     0.035 A 
ATOM     24  C   UNL     1      -2.338   1.990  -0.271  1.00  0.00     0.071 A 
ATOM     25  C   UNL     1      -3.922   0.248  -0.830  1.00  0.00     0.013 A 
ATOM     26  C   UNL     1      -2.037   3.205   0.353  1.00  0.00     0.030 A 
ATOM     27  C   UNL     1      -3.648   1.469  -0.205  1.00  0.00     0.002 A 
ATOM     28  C   UNL     1      -3.034   3.903   1.042  1.00  0.00     0.023 A 
ATOM     29  C   UNL     1      -4.644   2.175   0.486  1.00  0.00     0.030 A 
ATOM     30  C   UNL     1      -4.335   3.391   1.108  1.00  0.00     0.041 A 
ATOM     31  Cl  UNL     1      -5.580   4.272   1.975  1.00  0.00    -0.084 Cl
ENDBRANCH  18  21
ENDBRANCH  16  17
ENDBRANCH   1  16
TORSDOF 6
