REMARK SMILES O=C(C/N=C(\O)c1ccc2cc(Cl)ccc2n1)N1CCC[C@@H]1c1ncc(F)cn1
REMARK SMILES IDX 3 1 4 2 5 3 6 4 7 6 17 7 8 8 16 9 9 10 15 11 10 12 14 13
REMARK SMILES IDX 11 14 12 15 13 16 2 17 1 18 18 19 19 20 22 21 20 22 21 23
REMARK SMILES IDX 23 24 24 25 29 26 25 27 28 28 26 29 27 30
REMARK H PARENT 6 5
ROOT
ATOM      1  C   UNL     1       1.200  -1.131   0.928  1.00  0.00     0.246 C 
ENDROOT
BRANCH   1   2
ATOM      2  N   UNL     1      -0.214  -0.759   0.942  1.00  0.00    -0.240 NA
BRANCH   2   3
ATOM      3  C   UNL     1      -1.005  -0.725  -0.094  1.00  0.00     0.233 C 
BRANCH   3   4
ATOM      4  O   UNL     1      -0.554  -1.065  -1.374  1.00  0.00    -0.492 OA
ATOM      5  H   UNL     1       0.395  -1.355  -1.571  1.00  0.00     0.295 HD
ENDBRANCH   3   4
BRANCH   3   6
ATOM      6  C   UNL     1      -2.415  -0.321   0.067  1.00  0.00     0.125 A 
ATOM      7  N   UNL     1      -3.224  -0.296  -1.029  1.00  0.00    -0.243 NA
ATOM      8  C   UNL     1      -2.941   0.040   1.321  1.00  0.00     0.035 A 
ATOM      9  C   UNL     1      -4.532   0.067  -0.956  1.00  0.00     0.071 A 
ATOM     10  C   UNL     1      -4.282   0.417   1.427  1.00  0.00     0.013 A 
ATOM     11  C   UNL     1      -5.324   0.078  -2.109  1.00  0.00     0.030 A 
ATOM     12  C   UNL     1      -5.093   0.435   0.287  1.00  0.00     0.002 A 
ATOM     13  C   UNL     1      -6.669   0.452  -2.031  1.00  0.00     0.023 A 
ATOM     14  C   UNL     1      -6.443   0.809   0.358  1.00  0.00     0.030 A 
ATOM     15  C   UNL     1      -7.229   0.817  -0.801  1.00  0.00     0.041 A 
ATOM     16  Cl  UNL     1      -8.917   1.285  -0.711  1.00  0.00    -0.084 Cl
ENDBRANCH   3   6
ENDBRANCH   2   3
ENDBRANCH   1   2
BRANCH   1  17
ATOM     17  C   UNL     1       2.032  -0.064   0.264  1.00  0.00     0.245 C 
ATOM     18  O   UNL     1       1.718   1.146   0.432  1.00  0.00    -0.273 OA
BRANCH  17  19
ATOM     19  N   UNL     1       3.208  -0.393  -0.499  1.00  0.00    -0.331 N 
ATOM     20  C   UNL     1       3.679  -1.749  -0.737  1.00  0.00     0.120 C 
ATOM     21  C   UNL     1       4.035   0.609  -1.158  1.00  0.00     0.153 C 
ATOM     22  C   UNL     1       4.988  -1.605  -1.503  1.00  0.00     0.024 C 
ATOM     23  C   UNL     1       4.991  -0.181  -2.053  1.00  0.00     0.035 C 
BRANCH  21  24
ATOM     24  C   UNL     1       4.788   1.423  -0.140  1.00  0.00     0.150 A 
ATOM     25  N   UNL     1       4.842   2.777  -0.259  1.00  0.00    -0.236 NA
ATOM     26  N   UNL     1       5.440   0.808   0.886  1.00  0.00    -0.236 NA
ATOM     27  C   UNL     1       5.528   3.532   0.637  1.00  0.00     0.154 A 
ATOM     28  C   UNL     1       6.137   1.528   1.803  1.00  0.00     0.154 A 
ATOM     29  C   UNL     1       6.194   2.917   1.697  1.00  0.00     0.159 A 
ATOM     30  F   UNL     1       6.885   3.653   2.602  1.00  0.00    -0.204 F 
ENDBRANCH  21  24
ENDBRANCH  17  19
ENDBRANCH   1  17
TORSDOF 7
