REMARK SMILES CC(C)C[C@H](NC(=O)C/N=C(/O)c1ccc2ccccc2n1)C(=O)NC1CCCC1
REMARK SMILES IDX 7 1 8 2 6 3 9 5 10 6 11 7 12 8 13 10 22 11 14 12 21 13 15 14
REMARK SMILES IDX 20 15 16 16 19 17 17 18 18 19 5 20 23 21 25 22 24 23 26 25
REMARK SMILES IDX 27 26 30 27 28 28 29 29 4 30 2 31 1 32 3 33
REMARK H PARENT 6 4 12 9 25 24
ROOT
ATOM      1  C   UNL     1      -0.342   1.192   0.202  1.00  0.00     0.242 C 
ATOM      2  O   UNL     1      -1.163   1.098   1.151  1.00  0.00    -0.273 OA
ATOM      3  N   UNL     1      -0.686   1.922  -0.986  1.00  0.00    -0.343 N 
ATOM      4  H   UNL     1       0.012   1.965  -1.762  1.00  0.00     0.164 HD
ENDROOT
BRANCH   1   5
ATOM      5  C   UNL     1       1.003   0.556   0.337  1.00  0.00     0.246 C 
BRANCH   5   6
ATOM      6  N   UNL     1       1.845   1.402   1.162  1.00  0.00    -0.240 NA
BRANCH   6   7
ATOM      7  C   UNL     1       2.971   1.058   1.720  1.00  0.00     0.233 C 
BRANCH   7   8
ATOM      8  O   UNL     1       3.606   1.962   2.561  1.00  0.00    -0.492 OA
ATOM      9  H   UNL     1       3.247   2.906   2.694  1.00  0.00     0.295 HD
ENDBRANCH   7   8
BRANCH   7  10
ATOM     10  C   UNL     1       3.583  -0.271   1.550  1.00  0.00     0.125 A 
ATOM     11  N   UNL     1       3.920  -0.980   2.658  1.00  0.00    -0.243 NA
ATOM     12  C   UNL     1       3.895  -0.775   0.277  1.00  0.00     0.035 A 
ATOM     13  C   UNL     1       4.520  -2.195   2.578  1.00  0.00     0.071 A 
ATOM     14  C   UNL     1       4.511  -2.017   0.160  1.00  0.00     0.013 A 
ATOM     15  C   UNL     1       4.845  -2.896   3.745  1.00  0.00     0.029 A 
ATOM     16  C   UNL     1       4.825  -2.749   1.316  1.00  0.00     0.000 A 
ATOM     17  C   UNL     1       5.472  -4.142   3.658  1.00  0.00     0.002 A 
ATOM     18  C   UNL     1       5.445  -4.007   1.240  1.00  0.00     0.010 A 
ATOM     19  C   UNL     1       5.768  -4.697   2.409  1.00  0.00     0.001 A 
ENDBRANCH   7  10
ENDBRANCH   6   7
ENDBRANCH   5   6
ENDBRANCH   1   5
BRANCH   3  20
ATOM     20  C   UNL     1      -1.959   2.640  -1.114  1.00  0.00     0.171 C 
BRANCH  20  21
ATOM     21  C   UNL     1      -3.096   1.654  -1.149  1.00  0.00     0.242 C 
ATOM     22  N   UNL     1      -3.033   0.496  -1.994  1.00  0.00    -0.352 N 
ATOM     23  O   UNL     1      -4.115   1.860  -0.432  1.00  0.00    -0.273 OA
ATOM     24  H   UNL     1      -2.266   0.436  -2.699  1.00  0.00     0.163 HD
BRANCH  22  25
ATOM     25  C   UNL     1      -3.984  -0.613  -1.851  1.00  0.00     0.082 C 
ATOM     26  C   UNL     1      -3.688  -1.397  -0.579  1.00  0.00     0.025 C 
ATOM     27  C   UNL     1      -3.819  -1.635  -2.977  1.00  0.00     0.025 C 
ATOM     28  C   UNL     1      -2.633  -2.411  -0.979  1.00  0.00     0.002 C 
ATOM     29  C   UNL     1      -2.874  -2.717  -2.455  1.00  0.00     0.002 C 
ENDBRANCH  22  25
ENDBRANCH  20  21
BRANCH  20  30
ATOM     30  C   UNL     1      -1.947   3.539  -2.370  1.00  0.00     0.038 C 
BRANCH  30  31
ATOM     31  C   UNL     1      -3.202   4.451  -2.482  1.00  0.00    -0.015 C 
ATOM     32  C   UNL     1      -2.821   5.857  -2.962  1.00  0.00     0.007 C 
ATOM     33  C   UNL     1      -4.248   3.850  -3.434  1.00  0.00     0.007 C 
ENDBRANCH  30  31
ENDBRANCH  20  30
ENDBRANCH   3  20
TORSDOF 10
