REMARK SMILES CC(C)C[C@H](NC(=O)C/N=C(/O)c1ccc2ccccc2n1)C(=O)[N-]C1CCCC1
REMARK SMILES IDX 7 1 8 2 6 3 9 5 10 6 11 7 12 8 13 10 22 11 14 12 21 13 15 14
REMARK SMILES IDX 20 15 16 16 19 17 17 18 18 19 5 20 23 21 24 22 25 23 26 24
REMARK SMILES IDX 27 25 30 26 28 27 29 28 4 29 2 30 1 31 3 32
REMARK H PARENT 6 4 12 9
ROOT
ATOM      1  C   UNL     1      -0.877  -0.769   2.126  1.00  0.00     0.242 C 
ATOM      2  O   UNL     1      -1.655  -1.101   3.062  1.00  0.00    -0.273 OA
ATOM      3  N   UNL     1      -0.896   0.568   1.604  1.00  0.00    -0.346 N 
ATOM      4  H   UNL     1      -0.213   0.805   0.848  1.00  0.00     0.164 HD
ENDROOT
BRANCH   1   5
ATOM      5  C   UNL     1       0.092  -1.770   1.584  1.00  0.00     0.246 C 
BRANCH   5   6
ATOM      6  N   UNL     1       1.431  -1.446   2.067  1.00  0.00    -0.240 NA
BRANCH   6   7
ATOM      7  C   UNL     1       2.561  -2.000   1.720  1.00  0.00     0.233 C 
BRANCH   7   8
ATOM      8  O   UNL     1       3.735  -1.504   2.284  1.00  0.00    -0.492 OA
ATOM      9  H   UNL     1       3.716  -0.737   2.946  1.00  0.00     0.295 HD
ENDBRANCH   7   8
BRANCH   7  10
ATOM     10  C   UNL     1       2.665  -3.122   0.748  1.00  0.00     0.125 A 
ATOM     11  N   UNL     1       1.596  -3.926   0.486  1.00  0.00    -0.243 NA
ATOM     12  C   UNL     1       3.893  -3.391   0.119  1.00  0.00     0.035 A 
ATOM     13  C   UNL     1       1.667  -4.975  -0.377  1.00  0.00     0.071 A 
ATOM     14  C   UNL     1       3.999  -4.461  -0.772  1.00  0.00     0.013 A 
ATOM     15  C   UNL     1       0.537  -5.766  -0.615  1.00  0.00     0.029 A 
ATOM     16  C   UNL     1       2.883  -5.266  -1.031  1.00  0.00     0.000 A 
ATOM     17  C   UNL     1       0.615  -6.846  -1.501  1.00  0.00     0.002 A 
ATOM     18  C   UNL     1       2.954  -6.351  -1.918  1.00  0.00     0.010 A 
ATOM     19  C   UNL     1       1.820  -7.137  -2.151  1.00  0.00     0.001 A 
ENDBRANCH   7  10
ENDBRANCH   6   7
ENDBRANCH   5   6
ENDBRANCH   1   5
BRANCH   3  20
ATOM     20  C   UNL     1      -1.767   1.611   2.158  1.00  0.00     0.130 C 
BRANCH  20  21
ATOM     21  C   UNL     1      -2.092   2.688   1.149  1.00  0.00     0.074 C 
ATOM     22  O   UNL     1      -2.887   3.612   1.471  1.00  0.00    -0.318 OA
BRANCH  21  23
ATOM     23  N   UNL     1      -1.533   2.658  -0.170  1.00  0.00    -0.649 NA
BRANCH  23  24
ATOM     24  C   UNL     1      -1.791   3.684  -1.175  1.00  0.00    -0.107 C 
ATOM     25  C   UNL     1      -3.212   3.599  -1.715  1.00  0.00    -0.016 C 
ATOM     26  C   UNL     1      -0.901   3.485  -2.388  1.00  0.00    -0.016 C 
ATOM     27  C   UNL     1      -3.140   4.093  -3.156  1.00  0.00    -0.001 C 
ATOM     28  C   UNL     1      -1.663   4.106  -3.549  1.00  0.00    -0.001 C 
ENDBRANCH  23  24
ENDBRANCH  21  23
ENDBRANCH  20  21
BRANCH  20  29
ATOM     29  C   UNL     1      -1.204   2.184   3.486  1.00  0.00     0.034 C 
BRANCH  29  30
ATOM     30  C   UNL     1       0.235   2.774   3.492  1.00  0.00    -0.015 C 
ATOM     31  C   UNL     1       1.336   1.707   3.406  1.00  0.00     0.007 C 
ATOM     32  C   UNL     1       0.459   3.879   2.453  1.00  0.00     0.007 C 
ENDBRANCH  29  30
ENDBRANCH  20  29
ENDBRANCH   3  20
TORSDOF 11
