REMARK SMILES N#Cc1ccccc1CNC(=O)C/N=C(\O)c1ccc2ccccc2n1
REMARK SMILES IDX 11 1 12 2 10 3 13 5 14 6 15 7 16 8 17 10 26 11 18 12 25 13
REMARK SMILES IDX 19 14 24 15 20 16 23 17 21 18 22 19 9 20 8 21 7 22 3 23 6 24
REMARK SMILES IDX 4 25 5 26 2 27 1 28
REMARK H PARENT 10 4 16 9
ROOT
ATOM      1  C   UNL     1       1.902  -1.153   0.550  1.00  0.00     0.242 C 
ATOM      2  O   UNL     1       2.930  -1.643   1.093  1.00  0.00    -0.273 OA
ATOM      3  N   UNL     1       0.705  -1.935   0.429  1.00  0.00    -0.350 N 
ATOM      4  H   UNL     1      -0.149  -1.500   0.010  1.00  0.00     0.163 HD
ENDROOT
BRANCH   1   5
ATOM      5  C   UNL     1       1.957   0.239  -0.005  1.00  0.00     0.246 C 
BRANCH   5   6
ATOM      6  N   UNL     1       0.775   1.007   0.384  1.00  0.00    -0.240 NA
BRANCH   6   7
ATOM      7  C   UNL     1       0.502   1.446   1.580  1.00  0.00     0.233 C 
BRANCH   7   8
ATOM      8  O   UNL     1       1.364   1.226   2.659  1.00  0.00    -0.492 OA
ATOM      9  H   UNL     1       2.244   0.732   2.578  1.00  0.00     0.295 HD
ENDBRANCH   7   8
BRANCH   7  10
ATOM     10  C   UNL     1      -0.750   2.196   1.796  1.00  0.00     0.125 A 
ATOM     11  N   UNL     1      -1.592   2.417   0.747  1.00  0.00    -0.243 NA
ATOM     12  C   UNL     1      -1.089   2.686   3.070  1.00  0.00     0.035 A 
ATOM     13  C   UNL     1      -2.759   3.100   0.886  1.00  0.00     0.071 A 
ATOM     14  C   UNL     1      -2.282   3.392   3.244  1.00  0.00     0.013 A 
ATOM     15  C   UNL     1      -3.592   3.303  -0.221  1.00  0.00     0.029 A 
ATOM     16  C   UNL     1      -3.132   3.606   2.152  1.00  0.00     0.000 A 
ATOM     17  C   UNL     1      -4.792   4.006  -0.073  1.00  0.00     0.002 A 
ATOM     18  C   UNL     1      -4.337   4.311   2.292  1.00  0.00     0.010 A 
ATOM     19  C   UNL     1      -5.165   4.507   1.180  1.00  0.00     0.001 A 
ENDBRANCH   7  10
ENDBRANCH   6   7
ENDBRANCH   5   6
ENDBRANCH   1   5
BRANCH   3  20
ATOM     20  C   UNL     1       0.634  -3.330   0.857  1.00  0.00     0.153 C 
BRANCH  20  21
ATOM     21  C   UNL     1       1.299  -4.222  -0.165  1.00  0.00    -0.011 A 
ATOM     22  C   UNL     1       2.576  -4.746   0.105  1.00  0.00     0.007 A 
ATOM     23  C   UNL     1       0.686  -4.509  -1.409  1.00  0.00     0.057 A 
ATOM     24  C   UNL     1       3.228  -5.547  -0.836  1.00  0.00     0.000 A 
ATOM     25  C   UNL     1       1.350  -5.313  -2.346  1.00  0.00     0.020 A 
ATOM     26  C   UNL     1       2.616  -5.831  -2.059  1.00  0.00     0.001 A 
BRANCH  23  27
ATOM     27  C   UNL     1      -0.622  -3.991  -1.740  1.00  0.00     0.099 C 
ATOM     28  N   UNL     1      -1.671  -3.575  -2.000  1.00  0.00    -0.192 NA
ENDBRANCH  23  27
ENDBRANCH  20  21
ENDBRANCH   3  20
TORSDOF 8
