REMARK SMILES O=C(NC/C(O)=[N+]1/CCCC[C@H]1c1ccccc1)c1ccc2ccccc2n1
REMARK SMILES IDX 5 1 6 2 7 4 8 5 12 6 9 7 11 8 10 9 13 10 14 11 18 12 15 13
REMARK SMILES IDX 17 14 16 15 4 16 3 17 2 18 1 20 19 21 28 22 20 23 27 24
REMARK SMILES IDX 21 25 26 26 22 27 25 28 23 29 24 30
REMARK H PARENT 6 3 3 19
ROOT
ATOM      1  C   UNL     1       2.973   2.037  -0.071  1.00  0.00     0.354 C 
ENDROOT
BRANCH   1   2
ATOM      2  O   UNL     1       4.138   2.713  -0.460  1.00  0.00    -0.462 OA
ATOM      3  H   UNL     1       5.067   2.500  -0.122  1.00  0.00     0.299 HD
ENDBRANCH   1   2
BRANCH   1   4
ATOM      4  N   UNL     1       3.016   0.885   0.587  1.00  0.00    -0.194 N 
ATOM      5  C   UNL     1       4.339   0.246   0.813  1.00  0.00     0.354 C 
ATOM      6  C   UNL     1       1.771   0.322   1.196  1.00  0.00     0.294 C 
ATOM      7  C   UNL     1       4.283  -1.248   1.142  1.00  0.00     0.073 C 
ATOM      8  C   UNL     1       1.852  -1.182   1.520  1.00  0.00     0.082 C 
ATOM      9  C   UNL     1       3.185  -1.563   2.138  1.00  0.00     0.014 C 
BRANCH   6  10
ATOM     10  C   UNL     1       1.344   1.106   2.430  1.00  0.00     0.019 A 
ATOM     11  C   UNL     1       2.281   1.616   3.349  1.00  0.00     0.010 A 
ATOM     12  C   UNL     1      -0.028   1.287   2.690  1.00  0.00     0.010 A 
ATOM     13  C   UNL     1       1.855   2.311   4.484  1.00  0.00     0.001 A 
ATOM     14  C   UNL     1      -0.449   1.983   3.827  1.00  0.00     0.001 A 
ATOM     15  C   UNL     1       0.491   2.497   4.722  1.00  0.00     0.000 A 
ENDBRANCH   6  10
ENDBRANCH   1   4
BRANCH   1  16
ATOM     16  C   UNL     1       1.678   2.706  -0.477  1.00  0.00     0.269 C 
BRANCH  16  17
ATOM     17  N   UNL     1       1.034   1.978  -1.570  1.00  0.00    -0.337 N 
ATOM     18  C   UNL     1      -0.253   2.368  -2.071  1.00  0.00     0.270 C 
ATOM     19  H   UNL     1       1.514   1.146  -1.983  1.00  0.00     0.164 HD
ATOM     20  O   UNL     1      -0.817   3.398  -1.607  1.00  0.00    -0.268 OA
BRANCH  18  21
ATOM     21  C   UNL     1      -0.925   1.571  -3.120  1.00  0.00     0.128 A 
ATOM     22  N   UNL     1      -0.327   0.443  -3.596  1.00  0.00    -0.243 NA
ATOM     23  C   UNL     1      -2.176   1.955  -3.632  1.00  0.00     0.035 A 
ATOM     24  C   UNL     1      -0.899  -0.331  -4.556  1.00  0.00     0.071 A 
ATOM     25  C   UNL     1      -2.789   1.180  -4.619  1.00  0.00     0.013 A 
ATOM     26  C   UNL     1      -0.246  -1.481  -5.014  1.00  0.00     0.029 A 
ATOM     27  C   UNL     1      -2.155   0.026  -5.093  1.00  0.00     0.000 A 
ATOM     28  C   UNL     1      -0.837  -2.275  -6.001  1.00  0.00     0.002 A 
ATOM     29  C   UNL     1      -2.742  -0.776  -6.083  1.00  0.00     0.010 A 
ATOM     30  C   UNL     1      -2.082  -1.923  -6.535  1.00  0.00     0.001 A 
ENDBRANCH  18  21
ENDBRANCH  16  17
ENDBRANCH   1  16
TORSDOF 6
