REMARK SMILES O=C(N/C=C(/O)N1CCCC[C@H]1c1nnc[n-]1)c1ccc2cc(F)ccc2n1
REMARK SMILES IDX 4 1 5 2 6 3 7 5 8 6 12 7 9 8 11 9 10 10 13 11 14 12 17 13
REMARK SMILES IDX 15 14 16 15 3 16 2 17 1 19 18 20 28 21 19 22 27 23 20 24
REMARK SMILES IDX 26 25 21 26 25 27 22 28 23 29 24 30
REMARK H PARENT 6 4 3 18
ROOT
ATOM      1  C   UNL     1       0.866   0.794  -3.140  1.00  0.00     0.152 C 
ENDROOT
BRANCH   1   2
ATOM      2  C   UNL     1       0.227   1.941  -3.415  1.00  0.00     0.204 C 
BRANCH   2   3
ATOM      3  O   UNL     1       0.683   2.762  -4.446  1.00  0.00    -0.494 OA
ATOM      4  H   UNL     1       1.492   2.522  -5.007  1.00  0.00     0.295 HD
ENDBRANCH   2   3
BRANCH   2   5
ATOM      5  N   UNL     1      -0.921   2.358  -2.660  1.00  0.00    -0.335 N 
ATOM      6  C   UNL     1      -2.198   1.650  -2.814  1.00  0.00     0.120 C 
ATOM      7  C   UNL     1      -0.852   3.595  -1.868  1.00  0.00     0.121 C 
ATOM      8  C   UNL     1      -3.288   2.608  -3.324  1.00  0.00     0.022 C 
ATOM      9  C   UNL     1      -2.261   4.116  -1.524  1.00  0.00     0.030 C 
ATOM     10  C   UNL     1      -3.164   4.042  -2.761  1.00  0.00     0.004 C 
BRANCH   7  11
ATOM     11  C   UNL     1      -0.058   3.353  -0.616  1.00  0.00     0.012 A 
ATOM     12  N   UNL     1      -0.396   2.451   0.323  1.00  0.00    -0.351 NA
ATOM     13  N   UNL     1       1.090   3.995  -0.325  1.00  0.00    -0.368 NA
ATOM     14  N   UNL     1       0.546   2.502   1.249  1.00  0.00    -0.357 NA
ATOM     15  C   UNL     1       1.432   3.432   0.850  1.00  0.00     0.044 A 
ENDBRANCH   7  11
ENDBRANCH   2   5
ENDBRANCH   1   2
BRANCH   1  16
ATOM     16  N   UNL     1       0.500  -0.038  -2.028  1.00  0.00    -0.322 N 
ATOM     17  C   UNL     1       1.199  -1.256  -1.729  1.00  0.00     0.273 C 
ATOM     18  H   UNL     1      -0.260   0.268  -1.383  1.00  0.00     0.169 HD
ATOM     19  O   UNL     1       2.043  -1.714  -2.548  1.00  0.00    -0.267 OA
BRANCH  17  20
ATOM     20  C   UNL     1       0.938  -1.975  -0.463  1.00  0.00     0.129 A 
ATOM     21  N   UNL     1       0.090  -1.433   0.456  1.00  0.00    -0.243 NA
ATOM     22  C   UNL     1       1.560  -3.205  -0.184  1.00  0.00     0.035 A 
ATOM     23  C   UNL     1      -0.181  -2.041   1.640  1.00  0.00     0.071 A 
ATOM     24  C   UNL     1       1.299  -3.855   1.024  1.00  0.00     0.013 A 
ATOM     25  C   UNL     1      -1.058  -1.443   2.553  1.00  0.00     0.032 A 
ATOM     26  C   UNL     1       0.424  -3.278   1.952  1.00  0.00     0.003 A 
ATOM     27  C   UNL     1      -1.334  -2.072   3.771  1.00  0.00     0.041 A 
ATOM     28  C   UNL     1       0.141  -3.903   3.175  1.00  0.00     0.049 A 
ATOM     29  C   UNL     1      -0.738  -3.299   4.082  1.00  0.00     0.123 A 
ATOM     30  F   UNL     1      -1.011  -3.903   5.264  1.00  0.00    -0.207 F 
ENDBRANCH  17  20
ENDBRANCH   1  16
TORSDOF 6
