REMARK SMILES O=C(NCC(=O)N1CCC[C@H]1c1ccccc1)c1ccc2cc(Cl)ccc2n1
REMARK SMILES IDX 4 1 3 2 2 3 1 4 18 6 19 7 28 8 20 9 27 10 21 11 26 12 22 13
REMARK SMILES IDX 25 14 23 15 24 16 5 17 6 18 7 19 8 20 11 21 9 22 10 23 12 24
REMARK SMILES IDX 13 25 17 26 14 27 16 28 15 29
REMARK H PARENT 3 5
ROOT
ATOM      1  C   UNL     1       2.285   1.099   2.194  1.00  0.00     0.216 C 
ENDROOT
BRANCH   1   2
ATOM      2  N   UNL     1       2.514   2.121   1.179  1.00  0.00    -0.342 N 
ATOM      3  C   UNL     1       3.118   1.785  -0.072  1.00  0.00     0.270 C 
ATOM      4  O   UNL     1       4.297   1.337  -0.093  1.00  0.00    -0.268 OA
ATOM      5  H   UNL     1       1.936   2.991   1.228  1.00  0.00     0.164 HD
BRANCH   3   6
ATOM      6  C   UNL     1       2.340   1.901  -1.319  1.00  0.00     0.128 A 
ATOM      7  C   UNL     1       2.935   1.687  -2.573  1.00  0.00     0.035 A 
ATOM      8  N   UNL     1       1.003   2.150  -1.245  1.00  0.00    -0.243 NA
ATOM      9  C   UNL     1       2.150   1.735  -3.727  1.00  0.00     0.013 A 
ATOM     10  C   UNL     1       0.213   2.198  -2.350  1.00  0.00     0.071 A 
ATOM     11  C   UNL     1       0.776   1.986  -3.627  1.00  0.00     0.002 A 
ATOM     12  C   UNL     1      -1.158   2.444  -2.224  1.00  0.00     0.030 A 
ATOM     13  C   UNL     1      -0.043   2.026  -4.765  1.00  0.00     0.030 A 
ATOM     14  C   UNL     1      -1.970   2.480  -3.361  1.00  0.00     0.023 A 
ATOM     15  C   UNL     1      -1.415   2.273  -4.630  1.00  0.00     0.041 A 
ATOM     16  Cl  UNL     1      -2.441   2.319  -6.052  1.00  0.00    -0.084 Cl
ENDBRANCH   3   6
ENDBRANCH   1   2
BRANCH   1  17
ATOM     17  C   UNL     1       0.863   0.625   2.104  1.00  0.00     0.242 C 
ATOM     18  O   UNL     1      -0.005   1.183   2.828  1.00  0.00    -0.273 OA
BRANCH  17  19
ATOM     19  N   UNL     1       0.457  -0.367   1.143  1.00  0.00    -0.334 N 
ATOM     20  C   UNL     1       1.367  -1.292   0.485  1.00  0.00     0.120 C 
ATOM     21  C   UNL     1      -0.910  -0.479   0.652  1.00  0.00     0.115 C 
ATOM     22  C   UNL     1       0.500  -2.153  -0.425  1.00  0.00     0.024 C 
ATOM     23  C   UNL     1      -0.832  -1.418  -0.554  1.00  0.00     0.032 C 
BRANCH  21  24
ATOM     24  C   UNL     1      -1.837  -1.023   1.722  1.00  0.00    -0.025 A 
ATOM     25  C   UNL     1      -3.121  -0.473   1.877  1.00  0.00     0.006 A 
ATOM     26  C   UNL     1      -1.452  -2.103   2.540  1.00  0.00     0.006 A 
ATOM     27  C   UNL     1      -3.996  -0.980   2.843  1.00  0.00     0.000 A 
ATOM     28  C   UNL     1      -2.329  -2.605   3.506  1.00  0.00     0.000 A 
ATOM     29  C   UNL     1      -3.600  -2.044   3.658  1.00  0.00     0.000 A 
ENDBRANCH  21  24
ENDBRANCH  17  19
ENDBRANCH   1  17
TORSDOF 5
