REMARK SMILES O=C([N-]CC(=O)N1C[C@H](O)C[C@H]1c1ccccc1)c1ccc2ccccc2n1
REMARK SMILES IDX 4 1 3 2 2 3 1 4 19 5 20 6 28 7 21 8 27 9 22 10 26 11 23 12
REMARK SMILES IDX 25 13 24 14 5 15 6 16 7 17 8 18 12 19 9 20 11 21 13 22 14 23
REMARK SMILES IDX 18 24 15 25 17 26 16 27 10 28
REMARK H PARENT 10 29
ROOT
ATOM      1  C   UNL     1       0.502  -0.258  -0.585  1.00  0.00    -0.015 C 
ENDROOT
BRANCH   1   2
ATOM      2  N   UNL     1      -0.474  -1.203  -1.114  1.00  0.00    -0.640 NA
BRANCH   2   3
ATOM      3  C   UNL     1      -0.529  -2.599  -0.797  1.00  0.00     0.101 C 
ATOM      4  O   UNL     1      -1.556  -3.251  -1.119  1.00  0.00    -0.313 OA
BRANCH   3   5
ATOM      5  C   UNL     1       0.548  -3.291  -0.066  1.00  0.00     0.088 A 
ATOM      6  C   UNL     1       1.893  -3.149  -0.442  1.00  0.00     0.031 A 
ATOM      7  N   UNL     1       0.220  -4.133   0.953  1.00  0.00    -0.246 NA
ATOM      8  C   UNL     1       2.883  -3.842   0.258  1.00  0.00     0.012 A 
ATOM      9  C   UNL     1       1.161  -4.823   1.651  1.00  0.00     0.071 A 
ATOM     10  C   UNL     1       2.527  -4.685   1.317  1.00  0.00     0.000 A 
ATOM     11  C   UNL     1       0.780  -5.670   2.698  1.00  0.00     0.029 A 
ATOM     12  C   UNL     1       3.495  -5.399   2.039  1.00  0.00     0.010 A 
ATOM     13  C   UNL     1       1.752  -6.378   3.413  1.00  0.00     0.002 A 
ATOM     14  C   UNL     1       3.105  -6.242   3.085  1.00  0.00     0.001 A 
ENDBRANCH   3   5
ENDBRANCH   2   3
ENDBRANCH   1   2
BRANCH   1  15
ATOM     15  C   UNL     1      -0.008   1.138  -0.773  1.00  0.00     0.205 C 
ATOM     16  O   UNL     1       0.469   1.841  -1.705  1.00  0.00    -0.277 OA
BRANCH  15  17
ATOM     17  N   UNL     1      -1.054   1.674   0.061  1.00  0.00    -0.334 N 
ATOM     18  C   UNL     1      -1.725   0.920   1.109  1.00  0.00     0.151 C 
ATOM     19  C   UNL     1      -1.632   2.997  -0.141  1.00  0.00     0.118 C 
ATOM     20  C   UNL     1      -2.710   1.894   1.753  1.00  0.00     0.136 C 
ATOM     21  C   UNL     1      -2.876   3.039   0.750  1.00  0.00     0.063 C 
BRANCH  19  22
ATOM     22  C   UNL     1      -0.643   4.086   0.225  1.00  0.00    -0.025 A 
ATOM     23  C   UNL     1       0.133   4.002   1.396  1.00  0.00     0.006 A 
ATOM     24  C   UNL     1      -0.525   5.225  -0.591  1.00  0.00     0.006 A 
ATOM     25  C   UNL     1       1.023   5.027   1.729  1.00  0.00     0.000 A 
ATOM     26  C   UNL     1       0.364   6.249  -0.253  1.00  0.00     0.000 A 
ATOM     27  C   UNL     1       1.140   6.149   0.905  1.00  0.00     0.000 A 
ENDBRANCH  19  22
BRANCH  20  28
ATOM     28  O   UNL     1      -3.934   1.260   2.012  1.00  0.00    -0.391 OA
ATOM     29  H   UNL     1      -4.459   1.885   2.578  1.00  0.00     0.211 HD
ENDBRANCH  20  28
ENDBRANCH  15  17
ENDBRANCH   1  15
TORSDOF 7
