REMARK SMILES COc1ccccc1[C@H](C)NC(=O)CNC(=O)c1ccc2cc(F)ccc2n1
REMARK SMILES IDX 11 1 12 2 13 3 9 5 10 6 8 7 3 8 4 9 5 10 7 11 6 12 2 13 1 14
REMARK SMILES IDX 14 15 15 16 16 17 17 19 18 20 19 21 28 22 20 23 27 24 21 25
REMARK SMILES IDX 26 26 22 27 25 28 23 29 24 30
REMARK H PARENT 11 4 15 18
ROOT
ATOM      1  N   UNL     1      -2.353  -0.985  -0.084  1.00  0.00    -0.348 N 
ATOM      2  C   UNL     1      -0.933  -0.756  -0.177  1.00  0.00     0.239 C 
ATOM      3  O   UNL     1      -0.395  -0.447  -1.281  1.00  0.00    -0.273 OA
ATOM      4  H   UNL     1      -2.699  -1.238   0.859  1.00  0.00     0.164 HD
ENDROOT
BRANCH   1   5
ATOM      5  C   UNL     1      -3.147  -0.855  -1.278  1.00  0.00     0.113 C 
ATOM      6  C   UNL     1      -3.774  -2.198  -1.588  1.00  0.00     0.036 C 
BRANCH   5   7
ATOM      7  C   UNL     1      -4.138   0.241  -1.196  1.00  0.00     0.016 A 
ATOM      8  C   UNL     1      -4.854   0.577  -0.080  1.00  0.00     0.124 A 
ATOM      9  C   UNL     1      -5.760   1.640  -0.126  1.00  0.00     0.047 A 
ATOM     10  C   UNL     1      -5.971   2.381  -1.262  1.00  0.00     0.004 A 
ATOM     11  C   UNL     1      -4.368   1.006  -2.339  1.00  0.00     0.010 A 
ATOM     12  C   UNL     1      -5.250   2.043  -2.387  1.00  0.00     0.001 A 
BRANCH   8  13
ATOM     13  O   UNL     1      -4.684  -0.131   1.086  1.00  0.00    -0.496 OA
ATOM     14  C   UNL     1      -5.422   0.213   2.240  1.00  0.00     0.278 C 
ENDBRANCH   8  13
ENDBRANCH   5   7
ENDBRANCH   1   5
BRANCH   2  15
ATOM     15  C   UNL     1      -0.076  -0.881   1.035  1.00  0.00     0.216 C 
BRANCH  15  16
ATOM     16  N   UNL     1       1.292  -0.593   0.623  1.00  0.00    -0.342 N 
ATOM     17  C   UNL     1       2.281  -0.662   1.661  1.00  0.00     0.270 C 
ATOM     18  H   UNL     1       1.555  -0.351  -0.356  1.00  0.00     0.164 HD
ATOM     19  O   UNL     1       1.851  -0.963   2.809  1.00  0.00    -0.268 OA
BRANCH  17  20
ATOM     20  C   UNL     1       3.675  -0.401   1.399  1.00  0.00     0.128 A 
ATOM     21  C   UNL     1       4.577  -0.482   2.429  1.00  0.00     0.035 A 
ATOM     22  N   UNL     1       4.158  -0.075   0.170  1.00  0.00    -0.243 NA
ATOM     23  C   UNL     1       5.928  -0.251   2.280  1.00  0.00     0.013 A 
ATOM     24  C   UNL     1       5.466   0.160  -0.031  1.00  0.00     0.071 A 
ATOM     25  C   UNL     1       6.370   0.079   1.007  1.00  0.00     0.003 A 
ATOM     26  C   UNL     1       5.899   0.486  -1.292  1.00  0.00     0.032 A 
ATOM     27  C   UNL     1       7.712   0.312   0.840  1.00  0.00     0.049 A 
ATOM     28  C   UNL     1       7.241   0.726  -1.495  1.00  0.00     0.041 A 
ATOM     29  C   UNL     1       8.133   0.641  -0.447  1.00  0.00     0.123 A 
ATOM     30  F   UNL     1       9.457   0.885  -0.682  1.00  0.00    -0.207 F 
ENDBRANCH  17  20
ENDBRANCH  15  16
ENDBRANCH   2  15
TORSDOF 6
