REMARK SMILES O=C(NCC(=O)N1C[C@H](O)C[C@H]1c1ccc(Cl)cc1)c1ccc2ccccc2n1
REMARK SMILES IDX 5 1 6 2 4 3 3 4 2 5 1 6 20 8 21 9 29 10 22 11 28 12 23 13
REMARK SMILES IDX 27 14 24 15 26 16 25 17 7 18 8 19 12 20 9 21 11 22 13 23
REMARK SMILES IDX 14 24 19 25 15 26 18 27 16 28 17 29 10 30
REMARK H PARENT 3 7 10 31
ROOT
ATOM      1  C   UNL     1      -1.489   0.215   1.676  1.00  0.00     0.242 C 
ATOM      2  O   UNL     1      -2.587   0.575   2.254  1.00  0.00    -0.273 OA
ENDROOT
BRANCH   1   3
ATOM      3  C   UNL     1      -0.316   0.245   2.548  1.00  0.00     0.216 C 
BRANCH   3   4
ATOM      4  N   UNL     1       0.932  -0.027   1.926  1.00  0.00    -0.342 N 
ATOM      5  C   UNL     1       1.409   0.896   0.939  1.00  0.00     0.270 C 
ATOM      6  O   UNL     1       0.771   1.929   0.608  1.00  0.00    -0.268 OA
ATOM      7  H   UNL     1       1.491  -0.889   2.187  1.00  0.00     0.164 HD
BRANCH   5   8
ATOM      8  C   UNL     1       2.691   0.602   0.305  1.00  0.00     0.128 A 
ATOM      9  C   UNL     1       3.199   1.467  -0.660  1.00  0.00     0.035 A 
ATOM     10  N   UNL     1       3.433  -0.473   0.597  1.00  0.00    -0.243 NA
ATOM     11  C   UNL     1       4.398   1.242  -1.289  1.00  0.00     0.013 A 
ATOM     12  C   UNL     1       4.621  -0.726  -0.004  1.00  0.00     0.071 A 
ATOM     13  C   UNL     1       5.142   0.129  -0.971  1.00  0.00     0.000 A 
ATOM     14  C   UNL     1       5.356  -1.849   0.327  1.00  0.00     0.029 A 
ATOM     15  C   UNL     1       6.348  -0.108  -1.595  1.00  0.00     0.010 A 
ATOM     16  C   UNL     1       6.569  -2.071  -0.313  1.00  0.00     0.002 A 
ATOM     17  C   UNL     1       7.063  -1.220  -1.258  1.00  0.00     0.001 A 
ENDBRANCH   5   8
ENDBRANCH   3   4
ENDBRANCH   1   3
BRANCH   1  18
ATOM     18  N   UNL     1      -1.605  -0.142   0.329  1.00  0.00    -0.331 N 
ATOM     19  C   UNL     1      -0.612  -0.718  -0.603  1.00  0.00     0.152 C 
ATOM     20  C   UNL     1      -2.781  -0.024  -0.558  1.00  0.00     0.118 C 
ATOM     21  C   UNL     1      -1.466  -1.689  -1.467  1.00  0.00     0.136 C 
ATOM     22  C   UNL     1      -2.909  -1.452  -0.974  1.00  0.00     0.063 C 
BRANCH  20  23
ATOM     23  C   UNL     1      -3.937   0.632  -0.019  1.00  0.00    -0.025 A 
ATOM     24  C   UNL     1      -5.150  -0.062   0.027  1.00  0.00     0.007 A 
ATOM     25  C   UNL     1      -3.977   1.928   0.438  1.00  0.00     0.007 A 
ATOM     26  C   UNL     1      -6.307   0.511   0.499  1.00  0.00     0.021 A 
ATOM     27  C   UNL     1      -5.133   2.504   0.910  1.00  0.00     0.021 A 
ATOM     28  C   UNL     1      -6.319   1.812   0.951  1.00  0.00     0.041 A 
ATOM     29  Cl  UNL     1      -7.762   2.592   1.560  1.00  0.00    -0.084 Cl
ENDBRANCH  20  23
BRANCH  21  30
ATOM     30  O   UNL     1      -1.336  -1.278  -2.792  1.00  0.00    -0.391 OA
ATOM     31  H   UNL     1      -2.216  -1.250  -3.244  1.00  0.00     0.211 HD
ENDBRANCH  21  30
ENDBRANCH   1  18
TORSDOF 6
