REMARK SMILES COc1cccc([C@H](C)NC(=O)CNC(=O)c2ccc3ccccc3n2)c1
REMARK SMILES IDX 10 1 11 2 12 3 8 5 9 6 7 7 3 8 4 9 27 10 5 11 6 12 2 13 1 14
REMARK SMILES IDX 13 15 14 16 15 17 16 19 17 20 18 21 26 22 19 23 25 24 20 25
REMARK SMILES IDX 24 26 21 27 23 28 22 29
REMARK H PARENT 10 4 14 18
ROOT
ATOM      1  N   UNL     1       2.039   0.473   0.955  1.00  0.00    -0.348 N 
ATOM      2  C   UNL     1       0.681   0.386   0.587  1.00  0.00     0.239 C 
ATOM      3  O   UNL     1       0.287   1.021  -0.438  1.00  0.00    -0.273 OA
ATOM      4  H   UNL     1       2.382  -0.043   1.796  1.00  0.00     0.164 HD
ENDROOT
BRANCH   1   5
ATOM      5  C   UNL     1       2.950   1.264   0.184  1.00  0.00     0.109 C 
ATOM      6  C   UNL     1       3.565   2.396   0.962  1.00  0.00     0.036 C 
BRANCH   5   7
ATOM      7  C   UNL     1       4.049   0.467  -0.414  1.00  0.00    -0.022 A 
ATOM      8  C   UNL     1       5.748  -1.232  -0.199  1.00  0.00     0.119 A 
ATOM      9  C   UNL     1       6.118  -1.037  -1.535  1.00  0.00     0.046 A 
ATOM     10  C   UNL     1       4.724  -0.482   0.343  1.00  0.00     0.052 A 
ATOM     11  C   UNL     1       5.460  -0.097  -2.306  1.00  0.00     0.004 A 
ATOM     12  C   UNL     1       4.441   0.631  -1.726  1.00  0.00     0.006 A 
BRANCH   8  13
ATOM     13  O   UNL     1       6.451  -2.192   0.518  1.00  0.00    -0.497 OA
ATOM     14  C   UNL     1       6.215  -2.517   1.858  1.00  0.00     0.278 C 
ENDBRANCH   8  13
ENDBRANCH   5   7
ENDBRANCH   1   5
BRANCH   2  15
ATOM     15  C   UNL     1      -0.216  -0.445   1.418  1.00  0.00     0.216 C 
BRANCH  15  16
ATOM     16  N   UNL     1      -1.578  -0.452   0.936  1.00  0.00    -0.342 N 
ATOM     17  C   UNL     1      -2.337   0.744   0.834  1.00  0.00     0.270 C 
ATOM     18  H   UNL     1      -2.075  -1.336   0.639  1.00  0.00     0.164 HD
ATOM     19  O   UNL     1      -1.791   1.842   1.178  1.00  0.00    -0.268 OA
BRANCH  17  20
ATOM     20  C   UNL     1      -3.725   0.707   0.339  1.00  0.00     0.128 A 
ATOM     21  C   UNL     1      -4.420   1.896   0.258  1.00  0.00     0.035 A 
ATOM     22  N   UNL     1      -4.259  -0.476  -0.013  1.00  0.00    -0.243 NA
ATOM     23  C   UNL     1      -5.728   1.852  -0.210  1.00  0.00     0.013 A 
ATOM     24  C   UNL     1      -5.530  -0.520  -0.467  1.00  0.00     0.071 A 
ATOM     25  C   UNL     1      -6.290   0.624  -0.578  1.00  0.00     0.000 A 
ATOM     26  C   UNL     1      -6.093  -1.734  -0.834  1.00  0.00     0.029 A 
ATOM     27  C   UNL     1      -7.605   0.562  -1.050  1.00  0.00     0.010 A 
ATOM     28  C   UNL     1      -7.386  -1.828  -1.302  1.00  0.00     0.002 A 
ATOM     29  C   UNL     1      -8.145  -0.658  -1.409  1.00  0.00     0.001 A 
ENDBRANCH  17  20
ENDBRANCH  15  16
ENDBRANCH   2  15
TORSDOF 6
