REMARK SMILES O=C(NCC(=O)N1C[C@H](O)C[C@H]1c1ccccc1)c1ccncc1
REMARK SMILES IDX 5 1 6 2 4 3 3 4 2 5 1 6 19 8 20 9 24 10 21 11 23 12 22 13
REMARK SMILES IDX 7 14 8 15 12 16 9 17 11 18 13 19 14 20 18 21 15 22 17 23
REMARK SMILES IDX 16 24 10 25
REMARK H PARENT 3 7 10 26
ROOT
ATOM      1  C   UNL     1      -0.212  -0.424  -0.154  1.00  0.00     0.242 C 
ATOM      2  O   UNL     1      -0.212   0.830  -0.204  1.00  0.00    -0.273 OA
ENDROOT
BRANCH   1   3
ATOM      3  C   UNL     1       1.151  -1.061  -0.052  1.00  0.00     0.216 C 
BRANCH   3   4
ATOM      4  N   UNL     1       2.184  -0.048  -0.035  1.00  0.00    -0.343 N 
ATOM      5  C   UNL     1       3.535  -0.422   0.056  1.00  0.00     0.251 C 
ATOM      6  O   UNL     1       3.777  -1.675   0.119  1.00  0.00    -0.269 OA
ATOM      7  H   UNL     1       1.906   0.956  -0.091  1.00  0.00     0.164 HD
BRANCH   5   8
ATOM      8  C   UNL     1       4.627   0.540   0.078  1.00  0.00     0.042 A 
ATOM      9  C   UNL     1       4.439   1.905   0.013  1.00  0.00     0.034 A 
ATOM     10  C   UNL     1       5.926   0.084   0.169  1.00  0.00     0.034 A 
ATOM     11  C   UNL     1       5.540   2.764   0.040  1.00  0.00     0.112 A 
ATOM     12  C   UNL     1       7.011   0.952   0.195  1.00  0.00     0.112 A 
ATOM     13  N   UNL     1       6.802   2.280   0.130  1.00  0.00    -0.265 NA
ENDBRANCH   5   8
ENDBRANCH   3   4
ENDBRANCH   1   3
BRANCH   1  14
ATOM     14  N   UNL     1      -1.350  -1.248  -0.184  1.00  0.00    -0.331 N 
ATOM     15  C   UNL     1      -1.330  -2.730  -0.105  1.00  0.00     0.152 C 
ATOM     16  C   UNL     1      -2.763  -0.958  -0.277  1.00  0.00     0.118 C 
ATOM     17  C   UNL     1      -2.400  -2.933   0.948  1.00  0.00     0.136 C 
ATOM     18  C   UNL     1      -3.250  -1.653   0.970  1.00  0.00     0.063 C 
BRANCH  16  19
ATOM     19  C   UNL     1      -3.144   0.429  -0.420  1.00  0.00    -0.025 A 
ATOM     20  C   UNL     1      -4.022   1.045   0.457  1.00  0.00     0.006 A 
ATOM     21  C   UNL     1      -2.664   1.192  -1.454  1.00  0.00     0.006 A 
ATOM     22  C   UNL     1      -4.421   2.351   0.339  1.00  0.00     0.000 A 
ATOM     23  C   UNL     1      -3.057   2.529  -1.594  1.00  0.00     0.000 A 
ATOM     24  C   UNL     1      -3.932   3.126  -0.711  1.00  0.00     0.000 A 
ENDBRANCH  16  19
BRANCH  17  25
ATOM     25  O   UNL     1      -3.245  -3.932   0.474  1.00  0.00    -0.391 OA
ATOM     26  H   UNL     1      -3.383  -3.756  -0.496  1.00  0.00     0.211 HD
ENDBRANCH  17  25
ENDBRANCH   1  14
TORSDOF 6
