REMARK SMILES CC(C)(C)C[C@H](NC(=O)CNC(=O)c1ccc2ccccc2n1)c1ccccc1
REMARK SMILES IDX 7 1 8 2 9 3 6 5 5 6 2 7 1 8 3 9 4 10 24 11 25 12 29 13 26 14
REMARK SMILES IDX 28 15 27 16 10 17 11 18 12 19 13 21 14 22 15 23 23 24 16 25
REMARK SMILES IDX 22 26 17 27 21 28 18 29 20 30 19 31
REMARK H PARENT 7 4 11 20
ROOT
ATOM      1  N   UNL     1      -1.545   1.097  -0.393  1.00  0.00    -0.348 N 
ATOM      2  C   UNL     1      -0.156   0.759  -0.330  1.00  0.00     0.239 C 
ATOM      3  O   UNL     1       0.252  -0.298   0.211  1.00  0.00    -0.273 OA
ATOM      4  H   UNL     1      -1.871   1.978  -0.845  1.00  0.00     0.164 HD
ENDROOT
BRANCH   1   5
ATOM      5  C   UNL     1      -2.495   0.141   0.209  1.00  0.00     0.113 C 
BRANCH   5   6
ATOM      6  C   UNL     1      -3.237   0.911   1.237  1.00  0.00     0.036 C 
BRANCH   6   7
ATOM      7  C   UNL     1      -4.270   0.197   2.021  1.00  0.00    -0.036 C 
ATOM      8  C   UNL     1      -5.401  -0.401   1.265  1.00  0.00     0.011 C 
ATOM      9  C   UNL     1      -3.700  -0.881   2.923  1.00  0.00     0.011 C 
ATOM     10  C   UNL     1      -4.870   1.236   2.982  1.00  0.00     0.011 C 
ENDBRANCH   6   7
ENDBRANCH   5   6
BRANCH   5  11
ATOM     11  C   UNL     1      -3.289  -0.368  -0.917  1.00  0.00    -0.026 A 
ATOM     12  C   UNL     1      -3.606  -1.697  -1.114  1.00  0.00     0.006 A 
ATOM     13  C   UNL     1      -3.778   0.514  -1.889  1.00  0.00     0.006 A 
ATOM     14  C   UNL     1      -4.349  -2.148  -2.182  1.00  0.00     0.000 A 
ATOM     15  C   UNL     1      -4.525   0.061  -2.963  1.00  0.00     0.000 A 
ATOM     16  C   UNL     1      -4.820  -1.272  -3.125  1.00  0.00     0.000 A 
ENDBRANCH   5  11
ENDBRANCH   1   5
BRANCH   2  17
ATOM     17  C   UNL     1       0.885   1.663  -0.911  1.00  0.00     0.216 C 
BRANCH  17  18
ATOM     18  N   UNL     1       2.163   1.025  -0.675  1.00  0.00    -0.342 N 
ATOM     19  C   UNL     1       3.380   1.639  -1.114  1.00  0.00     0.270 C 
ATOM     20  H   UNL     1       2.273   0.107  -0.184  1.00  0.00     0.164 HD
ATOM     21  O   UNL     1       3.259   2.746  -1.706  1.00  0.00    -0.268 OA
BRANCH  19  22
ATOM     22  C   UNL     1       4.677   1.006  -0.881  1.00  0.00     0.128 A 
ATOM     23  C   UNL     1       5.796   1.672  -1.340  1.00  0.00     0.035 A 
ATOM     24  N   UNL     1       4.780  -0.175  -0.247  1.00  0.00    -0.243 NA
ATOM     25  C   UNL     1       7.045   1.129  -1.153  1.00  0.00     0.013 A 
ATOM     26  C   UNL     1       5.999  -0.747  -0.040  1.00  0.00     0.071 A 
ATOM     27  C   UNL     1       7.136  -0.087  -0.498  1.00  0.00     0.000 A 
ATOM     28  C   UNL     1       6.115  -1.950   0.604  1.00  0.00     0.029 A 
ATOM     29  C   UNL     1       8.367  -0.694  -0.274  1.00  0.00     0.010 A 
ATOM     30  C   UNL     1       7.367  -2.531   0.813  1.00  0.00     0.002 A 
ATOM     31  C   UNL     1       8.511  -1.890   0.365  1.00  0.00     0.001 A 
ENDBRANCH  19  22
ENDBRANCH  17  18
ENDBRANCH   2  17
TORSDOF 7
