REMARK SMILES O=C(NCC(=O)N1CC[C@H](c2ccccc2)C1)c1ccc2cc(Cl)ccc2n1
REMARK SMILES IDX 4 1 3 2 2 3 1 4 18 6 19 7 28 8 20 9 27 10 21 11 26 12 22 13
REMARK SMILES IDX 25 14 23 15 24 16 5 17 6 18 7 19 8 20 17 21 9 22 10 23 11 24
REMARK SMILES IDX 12 25 16 26 13 27 15 28 14 29
REMARK H PARENT 3 5
ROOT
ATOM      1  C   UNL     1       0.128  -0.403  -0.422  1.00  0.00     0.216 C 
ENDROOT
BRANCH   1   2
ATOM      2  N   UNL     1       1.589  -0.350  -0.275  1.00  0.00    -0.342 N 
ATOM      3  C   UNL     1       2.447  -1.156  -1.088  1.00  0.00     0.270 C 
ATOM      4  O   UNL     1       1.915  -1.916  -1.937  1.00  0.00    -0.268 OA
ATOM      5  H   UNL     1       2.048   0.281   0.430  1.00  0.00     0.164 HD
BRANCH   3   6
ATOM      6  C   UNL     1       3.890  -1.062  -0.899  1.00  0.00     0.128 A 
ATOM      7  C   UNL     1       4.707  -1.858  -1.704  1.00  0.00     0.035 A 
ATOM      8  N   UNL     1       4.415  -0.233   0.023  1.00  0.00    -0.243 NA
ATOM      9  C   UNL     1       6.064  -1.736  -1.490  1.00  0.00     0.013 A 
ATOM     10  C   UNL     1       5.736  -0.103   0.243  1.00  0.00     0.071 A 
ATOM     11  C   UNL     1       6.584  -0.883  -0.542  1.00  0.00     0.002 A 
ATOM     12  C   UNL     1       6.201   0.763   1.202  1.00  0.00     0.030 A 
ATOM     13  C   UNL     1       7.938  -0.742  -0.307  1.00  0.00     0.030 A 
ATOM     14  C   UNL     1       7.556   0.894   1.425  1.00  0.00     0.023 A 
ATOM     15  C   UNL     1       8.410   0.134   0.662  1.00  0.00     0.041 A 
ATOM     16  Cl  UNL     1      10.125   0.305   0.950  1.00  0.00    -0.084 Cl
ENDBRANCH   3   6
ENDBRANCH   1   2
BRANCH   1  17
ATOM     17  C   UNL     1      -0.453   0.538   0.553  1.00  0.00     0.241 C 
ATOM     18  O   UNL     1       0.230   1.233   1.342  1.00  0.00    -0.273 OA
BRANCH  17  19
ATOM     19  N   UNL     1      -1.867   0.686   0.626  1.00  0.00    -0.341 N 
ATOM     20  C   UNL     1      -2.638   1.547   1.503  1.00  0.00     0.120 C 
ATOM     21  C   UNL     1      -2.884  -0.007  -0.180  1.00  0.00     0.128 C 
ATOM     22  C   UNL     1      -3.681   2.119   0.575  1.00  0.00     0.032 C 
ATOM     23  C   UNL     1      -4.000   0.985  -0.337  1.00  0.00     0.040 C 
BRANCH  23  24
ATOM     24  C   UNL     1      -5.320   0.364  -0.128  1.00  0.00    -0.043 A 
ATOM     25  C   UNL     1      -6.220   0.420  -1.189  1.00  0.00     0.004 A 
ATOM     26  C   UNL     1      -5.668  -0.245   1.045  1.00  0.00     0.004 A 
ATOM     27  C   UNL     1      -7.494  -0.144  -1.079  1.00  0.00     0.000 A 
ATOM     28  C   UNL     1      -6.936  -0.805   1.153  1.00  0.00     0.000 A 
ATOM     29  C   UNL     1      -7.841  -0.760   0.113  1.00  0.00     0.000 A 
ENDBRANCH  23  24
ENDBRANCH  17  19
ENDBRANCH   1  17
TORSDOF 5
