REMARK SMILES O=C(NCC(=O)N1C[C@H](c2ccccc2)C[C@@H]1CO)c1ccc2ccccc2n1
REMARK SMILES IDX 7 1 8 2 9 3 16 4 17 5 5 6 6 7 4 8 3 9 2 10 1 11 20 13 21 14
REMARK SMILES IDX 29 15 22 16 28 17 23 18 27 19 24 20 26 21 25 22 18 23 19 24
REMARK SMILES IDX 10 26 11 27 15 28 12 29 14 30 13 31
REMARK H PARENT 3 12 19 25
ROOT
ATOM      1  N   UNL     1      -1.665   0.708  -0.099  1.00  0.00    -0.335 N 
ATOM      2  C   UNL     1      -2.661  -0.329  -0.307  1.00  0.00     0.128 C 
ATOM      3  C   UNL     1      -3.660   0.093   0.766  1.00  0.00     0.041 C 
ATOM      4  C   UNL     1      -3.797   1.554   0.492  1.00  0.00     0.037 C 
ATOM      5  C   UNL     1      -2.422   1.944  -0.007  1.00  0.00     0.111 C 
ENDROOT
BRANCH   1   6
ATOM      6  C   UNL     1      -0.265   0.491  -0.011  1.00  0.00     0.242 C 
ATOM      7  O   UNL     1       0.136  -0.696  -0.126  1.00  0.00    -0.273 OA
BRANCH   6   8
ATOM      8  C   UNL     1       0.691   1.607   0.205  1.00  0.00     0.216 C 
BRANCH   8   9
ATOM      9  N   UNL     1       2.039   1.082   0.251  1.00  0.00    -0.342 N 
ATOM     10  C   UNL     1       2.628   0.379  -0.830  1.00  0.00     0.270 C 
ATOM     11  O   UNL     1       1.954   0.200  -1.880  1.00  0.00    -0.268 OA
ATOM     12  H   UNL     1       2.653   1.203   1.110  1.00  0.00     0.164 HD
BRANCH  10  13
ATOM     13  C   UNL     1       3.995  -0.130  -0.727  1.00  0.00     0.128 A 
ATOM     14  C   UNL     1       4.541  -0.812  -1.801  1.00  0.00     0.035 A 
ATOM     15  N   UNL     1       4.739   0.051   0.393  1.00  0.00    -0.243 NA
ATOM     16  C   UNL     1       5.847  -1.306  -1.721  1.00  0.00     0.013 A 
ATOM     17  C   UNL     1       6.008  -0.426   0.477  1.00  0.00     0.071 A 
ATOM     18  C   UNL     1       6.595  -1.114  -0.570  1.00  0.00     0.000 A 
ATOM     19  C   UNL     1       6.740  -0.219   1.648  1.00  0.00     0.029 A 
ATOM     20  C   UNL     1       7.888  -1.578  -0.433  1.00  0.00     0.010 A 
ATOM     21  C   UNL     1       8.040  -0.698   1.757  1.00  0.00     0.002 A 
ATOM     22  C   UNL     1       8.626  -1.379   0.723  1.00  0.00     0.001 A 
ENDBRANCH  10  13
ENDBRANCH   8   9
ENDBRANCH   6   8
ENDBRANCH   1   6
BRANCH   5  23
ATOM     23  C   UNL     1      -2.485   2.570  -1.383  1.00  0.00     0.181 C 
BRANCH  23  24
ATOM     24  O   UNL     1      -3.087   1.787  -2.335  1.00  0.00    -0.394 OA
ATOM     25  H   UNL     1      -3.969   2.122  -2.638  1.00  0.00     0.210 HD
ENDBRANCH  23  24
ENDBRANCH   5  23
BRANCH   3  26
ATOM     26  C   UNL     1      -4.936  -0.647   0.687  1.00  0.00    -0.043 A 
ATOM     27  C   UNL     1      -5.440  -1.363   1.754  1.00  0.00     0.004 A 
ATOM     28  C   UNL     1      -5.644  -0.625  -0.479  1.00  0.00     0.004 A 
ATOM     29  C   UNL     1      -6.638  -2.037   1.625  1.00  0.00     0.000 A 
ATOM     30  C   UNL     1      -6.849  -1.297  -0.623  1.00  0.00     0.000 A 
ATOM     31  C   UNL     1      -7.365  -2.020   0.443  1.00  0.00     0.000 A 
ENDBRANCH   3  26
TORSDOF 7
