REMARK SMILES O=C(NCC(=O)N1C[C@H](O)C[C@H]1CO)c1ccc2ccccc2n1
REMARK SMILES IDX 7 1 8 2 9 3 11 4 12 5 5 6 6 7 4 8 3 9 2 10 1 11 15 13 16 14
REMARK SMILES IDX 24 15 17 16 23 17 18 18 22 19 19 20 21 21 20 22 13 23 14 24
REMARK SMILES IDX 10 26
REMARK H PARENT 3 12 14 25 10 27
ROOT
ATOM      1  N   UNL     1      -3.185   0.230  -0.324  1.00  0.00    -0.333 N 
ATOM      2  C   UNL     1      -3.977  -0.947  -0.012  1.00  0.00     0.151 C 
ATOM      3  C   UNL     1      -5.285  -0.342   0.452  1.00  0.00     0.136 C 
ATOM      4  C   UNL     1      -5.461   0.781  -0.545  1.00  0.00     0.061 C 
ATOM      5  C   UNL     1      -4.073   1.338  -0.691  1.00  0.00     0.113 C 
ENDROOT
BRANCH   1   6
ATOM      6  C   UNL     1      -1.770   0.369  -0.303  1.00  0.00     0.242 C 
ATOM      7  O   UNL     1      -1.172   1.438  -0.592  1.00  0.00    -0.273 OA
BRANCH   6   8
ATOM      8  C   UNL     1      -0.962  -0.828   0.086  1.00  0.00     0.216 C 
BRANCH   8   9
ATOM      9  N   UNL     1       0.443  -0.564   0.070  1.00  0.00    -0.342 N 
ATOM     10  C   UNL     1       1.360  -1.586   0.413  1.00  0.00     0.270 C 
ATOM     11  O   UNL     1       0.915  -2.737   0.733  1.00  0.00    -0.268 OA
ATOM     12  H   UNL     1       0.764   0.393  -0.198  1.00  0.00     0.164 HD
BRANCH  10  13
ATOM     13  C   UNL     1       2.802  -1.333   0.402  1.00  0.00     0.128 A 
ATOM     14  C   UNL     1       3.668  -2.355   0.742  1.00  0.00     0.035 A 
ATOM     15  N   UNL     1       3.251  -0.124   0.064  1.00  0.00    -0.243 NA
ATOM     16  C   UNL     1       5.034  -2.139   0.739  1.00  0.00     0.013 A 
ATOM     17  C   UNL     1       4.579   0.089   0.060  1.00  0.00     0.071 A 
ATOM     18  C   UNL     1       5.501  -0.883   0.388  1.00  0.00     0.000 A 
ATOM     19  C   UNL     1       5.043   1.358  -0.294  1.00  0.00     0.029 A 
ATOM     20  C   UNL     1       6.866  -0.664   0.384  1.00  0.00     0.010 A 
ATOM     21  C   UNL     1       6.412   1.582  -0.300  1.00  0.00     0.002 A 
ATOM     22  C   UNL     1       7.316   0.592   0.033  1.00  0.00     0.001 A 
ENDBRANCH  10  13
ENDBRANCH   8   9
ENDBRANCH   6   8
ENDBRANCH   1   6
BRANCH   5  23
ATOM     23  C   UNL     1      -3.939   2.454   0.340  1.00  0.00     0.181 C 
BRANCH  23  24
ATOM     24  O   UNL     1      -4.798   3.472  -0.054  1.00  0.00    -0.394 OA
ATOM     25  H   UNL     1      -4.870   3.586  -1.030  1.00  0.00     0.210 HD
ENDBRANCH  23  24
ENDBRANCH   5  23
BRANCH   3  26
ATOM     26  O   UNL     1      -6.278  -1.309   0.317  1.00  0.00    -0.391 OA
ATOM     27  H   UNL     1      -5.889  -2.144   0.715  1.00  0.00     0.211 HD
ENDBRANCH   3  26
TORSDOF 7
