REMARK SMILES O=C(NCC(=O)N1CCC[C@H]1COc1ccc(Cl)cc1)c1ccc2cc(F)ccc2n1
REMARK SMILES IDX 7 1 8 2 9 3 10 4 11 5 5 6 6 7 4 8 3 9 2 10 1 11 21 13 22 14
REMARK SMILES IDX 31 15 23 16 30 17 24 18 29 19 25 20 28 21 26 22 27 23 12 24
REMARK SMILES IDX 13 25 14 26 15 27 20 28 16 29 19 30 17 31 18 32
REMARK H PARENT 3 12
ROOT
ATOM      1  N   UNL     1      -1.573  -2.085  -0.194  1.00  0.00    -0.335 N 
ATOM      2  C   UNL     1      -2.095  -3.411   0.086  1.00  0.00     0.120 C 
ATOM      3  C   UNL     1      -3.182  -3.572  -0.957  1.00  0.00     0.024 C 
ATOM      4  C   UNL     1      -3.383  -2.206  -1.577  1.00  0.00     0.030 C 
ATOM      5  C   UNL     1      -2.737  -1.257  -0.549  1.00  0.00     0.123 C 
ENDROOT
BRANCH   1   6
ATOM      6  C   UNL     1      -0.217  -1.661  -0.141  1.00  0.00     0.242 C 
ATOM      7  O   UNL     1       0.648  -2.515   0.185  1.00  0.00    -0.273 OA
BRANCH   6   8
ATOM      8  C   UNL     1       0.107  -0.249  -0.468  1.00  0.00     0.216 C 
BRANCH   8   9
ATOM      9  N   UNL     1       1.504   0.036  -0.374  1.00  0.00    -0.342 N 
ATOM     10  C   UNL     1       2.222  -0.126   0.845  1.00  0.00     0.270 C 
ATOM     11  O   UNL     1       1.598  -0.533   1.860  1.00  0.00    -0.268 OA
ATOM     12  H   UNL     1       2.070   0.381  -1.203  1.00  0.00     0.164 HD
BRANCH  10  13
ATOM     13  C   UNL     1       3.649   0.176   0.901  1.00  0.00     0.128 A 
ATOM     14  C   UNL     1       4.316   0.006   2.104  1.00  0.00     0.035 A 
ATOM     15  N   UNL     1       4.316   0.611  -0.185  1.00  0.00    -0.243 NA
ATOM     16  C   UNL     1       5.668   0.291   2.163  1.00  0.00     0.013 A 
ATOM     17  C   UNL     1       5.635   0.897  -0.159  1.00  0.00     0.071 A 
ATOM     18  C   UNL     1       6.324   0.739   1.016  1.00  0.00     0.003 A 
ATOM     19  C   UNL     1       6.297   1.342  -1.288  1.00  0.00     0.032 A 
ATOM     20  C   UNL     1       7.674   1.025   1.068  1.00  0.00     0.049 A 
ATOM     21  C   UNL     1       7.660   1.641  -1.275  1.00  0.00     0.041 A 
ATOM     22  C   UNL     1       8.323   1.469  -0.067  1.00  0.00     0.123 A 
ATOM     23  F   UNL     1       9.639   1.758  -0.054  1.00  0.00    -0.207 F 
ENDBRANCH  10  13
ENDBRANCH   8   9
ENDBRANCH   6   8
ENDBRANCH   1   6
BRANCH   5  24
ATOM     24  C   UNL     1      -3.699  -1.186   0.607  1.00  0.00     0.254 C 
BRANCH  24  25
ATOM     25  O   UNL     1      -4.838  -0.434   0.412  1.00  0.00    -0.491 OA
BRANCH  25  26
ATOM     26  C   UNL     1      -5.032   0.880   0.157  1.00  0.00     0.119 A 
ATOM     27  C   UNL     1      -4.068   1.852   0.035  1.00  0.00     0.048 A 
ATOM     28  C   UNL     1      -6.350   1.317  -0.006  1.00  0.00     0.048 A 
ATOM     29  C   UNL     1      -4.360   3.182  -0.231  1.00  0.00     0.024 A 
ATOM     30  C   UNL     1      -6.646   2.625  -0.269  1.00  0.00     0.024 A 
ATOM     31  C   UNL     1      -5.663   3.586  -0.388  1.00  0.00     0.041 A 
ATOM     32  Cl  UNL     1      -6.021   5.257  -0.722  1.00  0.00    -0.084 Cl
ENDBRANCH  25  26
ENDBRANCH  24  25
ENDBRANCH   5  24
TORSDOF 7
