REMARK SMILES O=C(NCC(=O)N1C[C@H](O)C[C@H]1Cc1cccc(Cl)c1)c1ccc2ccccc2n1
REMARK SMILES IDX 7 1 8 2 9 3 11 4 12 5 5 6 6 7 4 8 3 9 2 10 1 11 21 13 22 14
REMARK SMILES IDX 30 15 23 16 29 17 24 18 28 19 25 20 27 21 26 22 13 23 14 24
REMARK SMILES IDX 15 25 20 26 16 27 18 28 17 29 19 30 10 31
REMARK H PARENT 3 12 10 32
ROOT
ATOM      1  N   UNL     1       2.182  -1.350   1.233  1.00  0.00    -0.335 N 
ATOM      2  C   UNL     1       2.590  -2.746   1.130  1.00  0.00     0.151 C 
ATOM      3  C   UNL     1       3.846  -2.886   1.927  1.00  0.00     0.136 C 
ATOM      4  C   UNL     1       3.961  -1.561   2.651  1.00  0.00     0.059 C 
ATOM      5  C   UNL     1       3.352  -0.610   1.649  1.00  0.00     0.092 C 
ENDROOT
BRANCH   1   6
ATOM      6  C   UNL     1       0.901  -0.803   0.982  1.00  0.00     0.242 C 
ATOM      7  O   UNL     1       0.696   0.439   1.115  1.00  0.00    -0.273 OA
BRANCH   6   8
ATOM      8  C   UNL     1      -0.185  -1.701   0.565  1.00  0.00     0.216 C 
BRANCH   8   9
ATOM      9  N   UNL     1      -1.428  -0.984   0.350  1.00  0.00    -0.342 N 
ATOM     10  C   UNL     1      -1.504   0.051  -0.623  1.00  0.00     0.270 C 
ATOM     11  O   UNL     1      -0.514   0.385  -1.330  1.00  0.00    -0.268 OA
ATOM     12  H   UNL     1      -2.262  -1.240   0.920  1.00  0.00     0.164 HD
BRANCH  10  13
ATOM     13  C   UNL     1      -2.799   0.729  -0.781  1.00  0.00     0.128 A 
ATOM     14  C   UNL     1      -2.969   1.748  -1.703  1.00  0.00     0.035 A 
ATOM     15  N   UNL     1      -3.878   0.401  -0.047  1.00  0.00    -0.243 NA
ATOM     16  C   UNL     1      -4.194   2.399  -1.861  1.00  0.00     0.013 A 
ATOM     17  C   UNL     1      -5.076   1.001  -0.166  1.00  0.00     0.071 A 
ATOM     18  C   UNL     1      -5.269   2.021  -1.080  1.00  0.00     0.000 A 
ATOM     19  C   UNL     1      -6.109   0.572   0.648  1.00  0.00     0.029 A 
ATOM     20  C   UNL     1      -6.513   2.606  -1.168  1.00  0.00     0.010 A 
ATOM     21  C   UNL     1      -7.366   1.161   0.561  1.00  0.00     0.002 A 
ATOM     22  C   UNL     1      -7.557   2.178  -0.350  1.00  0.00     0.001 A 
ENDBRANCH  10  13
ENDBRANCH   8   9
ENDBRANCH   6   8
ENDBRANCH   1   6
BRANCH   5  23
ATOM     23  C   UNL     1       4.332  -0.422   0.525  1.00  0.00     0.060 C 
BRANCH  23  24
ATOM     24  C   UNL     1       3.727   0.326  -0.614  1.00  0.00    -0.044 A 
ATOM     25  C   UNL     1       3.854   1.707  -0.575  1.00  0.00     0.004 A 
ATOM     26  C   UNL     1       3.076  -0.299  -1.656  1.00  0.00     0.024 A 
ATOM     27  C   UNL     1       3.344   2.508  -1.559  1.00  0.00     0.002 A 
ATOM     28  C   UNL     1       2.564   0.521  -2.646  1.00  0.00     0.041 A 
ATOM     29  C   UNL     1       2.685   1.897  -2.615  1.00  0.00     0.020 A 
ATOM     30  Cl  UNL     1       1.729  -0.248  -3.985  1.00  0.00    -0.084 Cl
ENDBRANCH  23  24
ENDBRANCH   5  23
BRANCH   3  31
ATOM     31  O   UNL     1       3.772  -3.935   2.848  1.00  0.00    -0.391 OA
ATOM     32  H   UNL     1       3.225  -4.644   2.422  1.00  0.00     0.211 HD
ENDBRANCH   3  31
TORSDOF 7
