REMARK SMILES O=C(NCC(=O)N1CCC[C@@H]1C1CCOCC1)c1ccc2cc(F)ccc2n1
REMARK SMILES IDX 4 1 3 2 2 3 1 4 18 6 19 7 28 8 20 9 27 10 21 11 26 12 22 13
REMARK SMILES IDX 25 14 23 15 24 16 5 17 6 18 7 19 8 20 11 21 9 22 10 23 12 24
REMARK SMILES IDX 13 25 17 26 14 27 16 28 15 29
REMARK H PARENT 3 5
ROOT
ATOM      1  C   UNL     1      -0.212  -0.358  -0.482  1.00  0.00     0.216 C 
ENDROOT
BRANCH   1   2
ATOM      2  N   UNL     1       1.261  -0.431  -0.522  1.00  0.00    -0.342 N 
ATOM      3  C   UNL     1       1.988  -0.332   0.706  1.00  0.00     0.270 C 
ATOM      4  O   UNL     1       1.418  -0.183   1.822  1.00  0.00    -0.268 OA
ATOM      5  H   UNL     1       1.792  -0.552  -1.402  1.00  0.00     0.164 HD
BRANCH   3   6
ATOM      6  C   UNL     1       3.446  -0.406   0.654  1.00  0.00     0.128 A 
ATOM      7  C   UNL     1       4.194  -0.314   1.811  1.00  0.00     0.035 A 
ATOM      8  N   UNL     1       4.124  -0.562  -0.494  1.00  0.00    -0.243 NA
ATOM      9  C   UNL     1       5.568  -0.376   1.835  1.00  0.00     0.013 A 
ATOM     10  C   UNL     1       5.464  -0.629  -0.532  1.00  0.00     0.071 A 
ATOM     11  C   UNL     1       6.218  -0.539   0.624  1.00  0.00     0.003 A 
ATOM     12  C   UNL     1       6.139  -0.791  -1.725  1.00  0.00     0.032 A 
ATOM     13  C   UNL     1       7.601  -0.605   0.610  1.00  0.00     0.049 A 
ATOM     14  C   UNL     1       7.530  -0.863  -1.785  1.00  0.00     0.041 A 
ATOM     15  C   UNL     1       8.261  -0.768  -0.606  1.00  0.00     0.123 A 
ATOM     16  F   UNL     1       9.629  -0.835  -0.628  1.00  0.00    -0.207 F 
ENDBRANCH   3   6
ENDBRANCH   1   2
BRANCH   1  17
ATOM     17  C   UNL     1      -0.653   0.912   0.081  1.00  0.00     0.242 C 
ATOM     18  O   UNL     1       0.310   1.732   0.392  1.00  0.00    -0.273 OA
BRANCH  17  19
ATOM     19  N   UNL     1      -1.931   1.387   0.343  1.00  0.00    -0.338 N 
ATOM     20  C   UNL     1      -2.091   2.772   0.921  1.00  0.00     0.120 C 
ATOM     21  C   UNL     1      -3.283   0.946   0.268  1.00  0.00     0.088 C 
ATOM     22  C   UNL     1      -3.292   2.644   1.846  1.00  0.00     0.024 C 
ATOM     23  C   UNL     1      -3.697   1.166   1.739  1.00  0.00     0.027 C 
BRANCH  21  24
ATOM     24  C   UNL     1      -3.605  -0.399  -0.220  1.00  0.00     0.016 C 
ATOM     25  C   UNL     1      -3.273  -0.571  -1.660  1.00  0.00     0.034 C 
ATOM     26  C   UNL     1      -5.124  -0.584  -0.070  1.00  0.00     0.034 C 
ATOM     27  C   UNL     1      -4.539  -0.806  -2.479  1.00  0.00     0.160 C 
ATOM     28  C   UNL     1      -5.549  -1.876  -0.725  1.00  0.00     0.160 C 
ATOM     29  O   UNL     1      -5.201  -1.942  -2.054  1.00  0.00    -0.381 OA
ENDBRANCH  21  24
ENDBRANCH  17  19
ENDBRANCH   1  17
TORSDOF 5
