REMARK SMILES O=C(NCC(=O)N1CCC[C@H]1C1CCOCC1)c1ccc2cc(F)ccc2n1
REMARK SMILES IDX 4 1 3 2 2 3 1 4 18 6 19 7 28 8 20 9 27 10 21 11 26 12 22 13
REMARK SMILES IDX 25 14 23 15 24 16 5 17 6 18 7 19 8 20 11 21 9 22 10 23 12 24
REMARK SMILES IDX 13 25 17 26 14 27 16 28 15 29
REMARK H PARENT 3 5
ROOT
ATOM      1  C   UNL     1       0.121   1.803   0.532  1.00  0.00     0.216 C 
ENDROOT
BRANCH   1   2
ATOM      2  N   UNL     1       1.386   1.123   0.362  1.00  0.00    -0.342 N 
ATOM      3  C   UNL     1       2.571   1.826   0.653  1.00  0.00     0.270 C 
ATOM      4  O   UNL     1       2.481   3.010   1.045  1.00  0.00    -0.268 OA
ATOM      5  H   UNL     1       1.456   0.125   0.032  1.00  0.00     0.164 HD
BRANCH   3   6
ATOM      6  C   UNL     1       3.873   1.179   0.496  1.00  0.00     0.128 A 
ATOM      7  C   UNL     1       5.025   1.911   0.795  1.00  0.00     0.035 A 
ATOM      8  N   UNL     1       3.974  -0.088   0.077  1.00  0.00    -0.243 NA
ATOM      9  C   UNL     1       6.246   1.310   0.650  1.00  0.00     0.013 A 
ATOM     10  C   UNL     1       5.163  -0.722  -0.081  1.00  0.00     0.071 A 
ATOM     11  C   UNL     1       6.316   0.003   0.216  1.00  0.00     0.003 A 
ATOM     12  C   UNL     1       5.218  -2.032  -0.517  1.00  0.00     0.032 A 
ATOM     13  C   UNL     1       7.553  -0.611   0.067  1.00  0.00     0.049 A 
ATOM     14  C   UNL     1       6.460  -2.636  -0.662  1.00  0.00     0.041 A 
ATOM     15  C   UNL     1       7.618  -1.926  -0.370  1.00  0.00     0.123 A 
ATOM     16  F   UNL     1       8.832  -2.483  -0.500  1.00  0.00    -0.207 F 
ENDBRANCH   3   6
ENDBRANCH   1   2
BRANCH   1  17
ATOM     17  C   UNL     1      -0.968   0.826   0.154  1.00  0.00     0.242 C 
ATOM     18  O   UNL     1      -0.559  -0.304  -0.206  1.00  0.00    -0.273 OA
BRANCH  17  19
ATOM     19  N   UNL     1      -2.317   1.224   0.225  1.00  0.00    -0.338 N 
ATOM     20  C   UNL     1      -2.745   2.585   0.643  1.00  0.00     0.120 C 
ATOM     21  C   UNL     1      -3.562   0.570  -0.050  1.00  0.00     0.088 C 
ATOM     22  C   UNL     1      -3.661   2.942  -0.503  1.00  0.00     0.024 C 
ATOM     23  C   UNL     1      -4.222   1.597  -0.947  1.00  0.00     0.027 C 
BRANCH  21  24
ATOM     24  C   UNL     1      -3.527  -0.808  -0.582  1.00  0.00     0.016 C 
ATOM     25  C   UNL     1      -4.955  -1.307  -0.919  1.00  0.00     0.034 C 
ATOM     26  C   UNL     1      -2.981  -1.816   0.413  1.00  0.00     0.034 C 
ATOM     27  C   UNL     1      -4.765  -2.789  -1.260  1.00  0.00     0.160 C 
ATOM     28  C   UNL     1      -4.069  -2.720   0.944  1.00  0.00     0.160 C 
ATOM     29  O   UNL     1      -4.724  -3.448  -0.038  1.00  0.00    -0.381 OA
ENDBRANCH  21  24
ENDBRANCH  17  19
ENDBRANCH   1  17
TORSDOF 5
