REMARK SMILES O=C(NCC(=O)N1CC[C@H](O)[C@@H]1c1cccc(Cl)c1)c1ccncc1
REMARK SMILES IDX 5 1 6 2 4 3 3 4 2 5 1 6 20 8 21 9 25 10 22 11 24 12 23 13
REMARK SMILES IDX 7 14 8 15 12 16 9 17 10 18 13 19 14 20 19 21 15 22 17 23
REMARK SMILES IDX 16 24 18 25 11 26
REMARK H PARENT 3 7 11 27
ROOT
ATOM      1  C   UNL     1       0.148  -0.843   1.177  1.00  0.00     0.242 C 
ATOM      2  O   UNL     1       1.041  -1.618   1.647  1.00  0.00    -0.273 OA
ENDROOT
BRANCH   1   3
ATOM      3  C   UNL     1       0.509   0.309   0.363  1.00  0.00     0.216 C 
BRANCH   3   4
ATOM      4  N   UNL     1       1.976   0.331   0.252  1.00  0.00    -0.343 N 
ATOM      5  C   UNL     1       2.593   1.350  -0.488  1.00  0.00     0.251 C 
ATOM      6  O   UNL     1       1.887   2.244  -1.055  1.00  0.00    -0.269 OA
ATOM      7  H   UNL     1       2.577  -0.390   0.706  1.00  0.00     0.164 HD
BRANCH   5   8
ATOM      8  C   UNL     1       4.033   1.463  -0.660  1.00  0.00     0.042 A 
ATOM      9  C   UNL     1       4.539   2.506  -1.409  1.00  0.00     0.034 A 
ATOM     10  C   UNL     1       4.937   0.585  -0.117  1.00  0.00     0.034 A 
ATOM     11  C   UNL     1       5.907   2.651  -1.599  1.00  0.00     0.112 A 
ATOM     12  C   UNL     1       6.307   0.750  -0.321  1.00  0.00     0.112 A 
ATOM     13  N   UNL     1       6.780   1.771  -1.052  1.00  0.00    -0.265 NA
ENDBRANCH   5   8
ENDBRANCH   3   4
ENDBRANCH   1   3
BRANCH   1  14
ATOM     14  N   UNL     1      -1.206  -1.205   1.519  1.00  0.00    -0.331 N 
ATOM     15  C   UNL     1      -1.450  -2.386   2.356  1.00  0.00     0.123 C 
ATOM     16  C   UNL     1      -2.382  -0.536   1.141  1.00  0.00     0.144 C 
ATOM     17  C   UNL     1      -2.857  -2.040   2.884  1.00  0.00     0.056 C 
ATOM     18  C   UNL     1      -3.510  -1.335   1.718  1.00  0.00     0.143 C 
BRANCH  16  19
ATOM     19  C   UNL     1      -2.558  -0.165  -0.253  1.00  0.00    -0.021 A 
ATOM     20  C   UNL     1      -2.294  -1.105  -1.250  1.00  0.00     0.006 A 
ATOM     21  C   UNL     1      -2.985   1.106  -0.665  1.00  0.00     0.026 A 
ATOM     22  C   UNL     1      -2.448  -0.792  -2.596  1.00  0.00     0.002 A 
ATOM     23  C   UNL     1      -3.127   1.379  -2.010  1.00  0.00     0.041 A 
ATOM     24  C   UNL     1      -2.872   0.469  -2.987  1.00  0.00     0.020 A 
ATOM     25  Cl  UNL     1      -3.665   2.982  -2.494  1.00  0.00    -0.084 Cl
ENDBRANCH  16  19
BRANCH  18  26
ATOM     26  O   UNL     1      -3.955  -2.283   0.775  1.00  0.00    -0.391 OA
ATOM     27  H   UNL     1      -4.598  -1.842   0.188  1.00  0.00     0.211 HD
ENDBRANCH  18  26
ENDBRANCH   1  14
TORSDOF 6
