REMARK SMILES O=C(NCC(=O)N1CC[C@H](O)[C@H]1c1cccc(Cl)c1)c1ccncc1
REMARK SMILES IDX 5 1 6 2 4 3 3 4 2 5 1 6 20 8 21 9 25 10 22 11 24 12 23 13
REMARK SMILES IDX 7 14 8 15 12 16 9 17 10 18 13 19 14 20 19 21 15 22 17 23
REMARK SMILES IDX 16 24 18 25 11 26
REMARK H PARENT 3 7 11 27
ROOT
ATOM      1  C   UNL     1       0.171  -0.996   0.527  1.00  0.00     0.242 C 
ATOM      2  O   UNL     1       0.582  -1.595   1.554  1.00  0.00    -0.273 OA
ENDROOT
BRANCH   1   3
ATOM      3  C   UNL     1       0.986  -0.090  -0.296  1.00  0.00     0.216 C 
BRANCH   3   4
ATOM      4  N   UNL     1       2.335   0.051   0.198  1.00  0.00    -0.343 N 
ATOM      5  C   UNL     1       3.304   0.882  -0.444  1.00  0.00     0.251 C 
ATOM      6  O   UNL     1       2.892   1.490  -1.484  1.00  0.00    -0.269 OA
ATOM      7  H   UNL     1       2.581  -0.487   1.057  1.00  0.00     0.164 HD
BRANCH   5   8
ATOM      8  C   UNL     1       4.657   1.020   0.055  1.00  0.00     0.042 A 
ATOM      9  C   UNL     1       5.136   0.377   1.176  1.00  0.00     0.034 A 
ATOM     10  C   UNL     1       5.515   1.850  -0.642  1.00  0.00     0.034 A 
ATOM     11  C   UNL     1       6.435   0.545   1.608  1.00  0.00     0.112 A 
ATOM     12  C   UNL     1       6.813   1.993  -0.177  1.00  0.00     0.112 A 
ATOM     13  N   UNL     1       7.253   1.353   0.921  1.00  0.00    -0.265 NA
ENDBRANCH   5   8
ENDBRANCH   3   4
ENDBRANCH   1   3
BRANCH   1  14
ATOM     14  N   UNL     1      -1.179  -1.216   0.140  1.00  0.00    -0.331 N 
ATOM     15  C   UNL     1      -2.138  -2.076   0.828  1.00  0.00     0.123 C 
ATOM     16  C   UNL     1      -1.917  -0.667  -0.984  1.00  0.00     0.144 C 
ATOM     17  C   UNL     1      -3.109  -2.536  -0.255  1.00  0.00     0.056 C 
ATOM     18  C   UNL     1      -2.539  -1.939  -1.523  1.00  0.00     0.143 C 
BRANCH  16  19
ATOM     19  C   UNL     1      -2.918   0.278  -0.445  1.00  0.00    -0.021 A 
ATOM     20  C   UNL     1      -2.537   1.185   0.537  1.00  0.00     0.006 A 
ATOM     21  C   UNL     1      -4.222   0.324  -0.855  1.00  0.00     0.026 A 
ATOM     22  C   UNL     1      -3.453   2.093   1.069  1.00  0.00     0.002 A 
ATOM     23  C   UNL     1      -5.135   1.222  -0.330  1.00  0.00     0.041 A 
ATOM     24  C   UNL     1      -4.766   2.116   0.635  1.00  0.00     0.020 A 
ATOM     25  Cl  UNL     1      -6.811   1.264  -0.872  1.00  0.00    -0.084 Cl
ENDBRANCH  16  19
BRANCH  18  26
ATOM     26  O   UNL     1      -1.499  -2.770  -1.923  1.00  0.00    -0.391 OA
ATOM     27  H   UNL     1      -1.185  -3.356  -1.185  1.00  0.00     0.211 HD
ENDBRANCH  18  26
ENDBRANCH   1  14
TORSDOF 6
