REMARK SMILES O=C(NCC(=O)N1CCCC[C@H]1Cc1ccc(Cl)cc1)c1ccc2ccccc2n1
REMARK SMILES IDX 7 1 8 2 9 3 10 4 11 5 12 6 5 7 6 8 4 9 3 10 2 11 1 12 21 14
REMARK SMILES IDX 22 15 30 16 23 17 29 18 24 19 28 20 25 21 27 22 26 23 13 24
REMARK SMILES IDX 14 25 15 26 20 27 16 28 19 29 17 30 18 31
REMARK H PARENT 3 13
ROOT
ATOM      1  N   UNL     1      -1.706   0.821   0.009  1.00  0.00    -0.338 N 
ATOM      2  C   UNL     1      -1.994   2.216  -0.243  1.00  0.00     0.120 C 
ATOM      3  C   UNL     1      -2.993   2.804   0.694  1.00  0.00     0.022 C 
ATOM      4  C   UNL     1      -3.843   1.880   1.449  1.00  0.00     0.004 C 
ATOM      5  C   UNL     1      -3.552   0.432   1.409  1.00  0.00     0.025 C 
ATOM      6  C   UNL     1      -2.834  -0.073   0.201  1.00  0.00     0.089 C 
ENDROOT
BRANCH   1   7
ATOM      7  C   UNL     1      -0.383   0.301   0.073  1.00  0.00     0.242 C 
ATOM      8  O   UNL     1      -0.153  -0.921   0.293  1.00  0.00    -0.273 OA
BRANCH   7   9
ATOM      9  C   UNL     1       0.732   1.262  -0.132  1.00  0.00     0.216 C 
BRANCH   9  10
ATOM     10  N   UNL     1       2.022   0.618  -0.044  1.00  0.00    -0.342 N 
ATOM     11  C   UNL     1       3.172   1.443  -0.225  1.00  0.00     0.270 C 
ATOM     12  O   UNL     1       2.944   2.671  -0.447  1.00  0.00    -0.268 OA
ATOM     13  H   UNL     1       2.124  -0.397   0.141  1.00  0.00     0.164 HD
BRANCH  11  14
ATOM     14  C   UNL     1       4.526   0.898  -0.157  1.00  0.00     0.128 A 
ATOM     15  C   UNL     1       5.574   1.778  -0.345  1.00  0.00     0.035 A 
ATOM     16  N   UNL     1       4.778  -0.404   0.078  1.00  0.00    -0.243 NA
ATOM     17  C   UNL     1       6.869   1.343  -0.297  1.00  0.00     0.013 A 
ATOM     18  C   UNL     1       6.051  -0.881   0.135  1.00  0.00     0.071 A 
ATOM     19  C   UNL     1       7.118  -0.010  -0.052  1.00  0.00     0.000 A 
ATOM     20  C   UNL     1       6.243  -2.226   0.379  1.00  0.00     0.029 A 
ATOM     21  C   UNL     1       8.412  -0.455  -0.001  1.00  0.00     0.010 A 
ATOM     22  C   UNL     1       7.546  -2.668   0.429  1.00  0.00     0.002 A 
ATOM     23  C   UNL     1       8.621  -1.813   0.245  1.00  0.00     0.001 A 
ENDBRANCH  11  14
ENDBRANCH   9  10
ENDBRANCH   7   9
ENDBRANCH   1   7
BRANCH   6  24
ATOM     24  C   UNL     1      -3.699  -0.144  -1.036  1.00  0.00     0.060 C 
BRANCH  24  25
ATOM     25  C   UNL     1      -4.835  -1.069  -0.785  1.00  0.00    -0.046 A 
ATOM     26  C   UNL     1      -6.044  -0.663  -0.269  1.00  0.00     0.005 A 
ATOM     27  C   UNL     1      -4.669  -2.408  -1.088  1.00  0.00     0.005 A 
ATOM     28  C   UNL     1      -7.076  -1.556  -0.051  1.00  0.00     0.021 A 
ATOM     29  C   UNL     1      -5.668  -3.348  -0.891  1.00  0.00     0.021 A 
ATOM     30  C   UNL     1      -6.856  -2.881  -0.371  1.00  0.00     0.041 A 
ATOM     31  Cl  UNL     1      -8.194  -3.997  -0.082  1.00  0.00    -0.084 Cl
ENDBRANCH  24  25
ENDBRANCH   6  24
TORSDOF 6
