REMARK SMILES O=C(NCC(=O)N1CCCC[C@H]1c1ccccc1)c1ccc2ccccc2n1
REMARK SMILES IDX 4 1 3 2 2 3 1 4 19 6 20 7 28 8 21 9 27 10 22 11 26 12 23 13
REMARK SMILES IDX 25 14 24 15 5 16 6 17 7 18 8 19 12 20 9 21 11 22 10 23 13 24
REMARK SMILES IDX 14 25 18 26 15 27 17 28 16 29
REMARK H PARENT 3 5
ROOT
ATOM      1  C   UNL     1       0.161  -1.668  -1.280  1.00  0.00     0.216 C 
ENDROOT
BRANCH   1   2
ATOM      2  N   UNL     1       1.296  -0.780  -1.388  1.00  0.00    -0.342 N 
ATOM      3  C   UNL     1       1.799  -0.208  -0.173  1.00  0.00     0.270 C 
ATOM      4  O   UNL     1       1.223  -0.512   0.919  1.00  0.00    -0.268 OA
ATOM      5  H   UNL     1       1.758  -0.539  -2.297  1.00  0.00     0.164 HD
BRANCH   3   6
ATOM      6  C   UNL     1       2.939   0.696  -0.193  1.00  0.00     0.128 A 
ATOM      7  C   UNL     1       3.391   1.221   0.995  1.00  0.00     0.035 A 
ATOM      8  N   UNL     1       3.584   1.051  -1.319  1.00  0.00    -0.243 NA
ATOM      9  C   UNL     1       4.457   2.082   1.092  1.00  0.00     0.013 A 
ATOM     10  C   UNL     1       4.643   1.899  -1.279  1.00  0.00     0.071 A 
ATOM     11  C   UNL     1       5.097   2.426  -0.084  1.00  0.00     0.000 A 
ATOM     12  C   UNL     1       5.308   2.266  -2.433  1.00  0.00     0.029 A 
ATOM     13  C   UNL     1       6.169   3.290   0.001  1.00  0.00     0.010 A 
ATOM     14  C   UNL     1       6.392   3.137  -2.366  1.00  0.00     0.002 A 
ATOM     15  C   UNL     1       6.825   3.651  -1.148  1.00  0.00     0.001 A 
ENDBRANCH   3   6
ENDBRANCH   1   2
BRANCH   1  16
ATOM     16  C   UNL     1      -1.026  -0.995  -0.691  1.00  0.00     0.242 C 
ATOM     17  O   UNL     1      -0.959   0.221  -0.356  1.00  0.00    -0.273 OA
BRANCH  16  18
ATOM     18  N   UNL     1      -2.213  -1.765  -0.526  1.00  0.00    -0.334 N 
ATOM     19  C   UNL     1      -2.288  -3.174  -0.911  1.00  0.00     0.120 C 
ATOM     20  C   UNL     1      -3.416  -1.162   0.040  1.00  0.00     0.115 C 
ATOM     21  C   UNL     1      -3.633  -3.434  -1.570  1.00  0.00     0.022 C 
ATOM     22  C   UNL     1      -4.271  -2.279   0.560  1.00  0.00     0.030 C 
ATOM     23  C   UNL     1      -4.777  -3.063  -0.654  1.00  0.00     0.004 C 
BRANCH  20  24
ATOM     24  C   UNL     1      -3.157  -0.110   1.034  1.00  0.00    -0.025 A 
ATOM     25  C   UNL     1      -3.856   1.097   0.995  1.00  0.00     0.006 A 
ATOM     26  C   UNL     1      -2.234  -0.238   2.048  1.00  0.00     0.006 A 
ATOM     27  C   UNL     1      -3.639   2.104   1.912  1.00  0.00     0.000 A 
ATOM     28  C   UNL     1      -1.986   0.743   2.984  1.00  0.00     0.000 A 
ATOM     29  C   UNL     1      -2.705   1.938   2.914  1.00  0.00     0.000 A 
ENDBRANCH  20  24
ENDBRANCH  16  18
ENDBRANCH   1  16
TORSDOF 5
