REMARK SMILES O=C(NCC(=O)N1CCC[C@H]1c1ccc(Cl)c(Cl)c1)c1ccc2ccccc2n1
REMARK SMILES IDX 5 1 6 2 4 3 3 4 2 5 1 6 20 8 21 9 29 10 22 11 28 12 23 13
REMARK SMILES IDX 27 14 24 15 26 16 25 17 7 18 8 19 11 20 9 21 10 22 12 23
REMARK SMILES IDX 13 24 19 25 14 26 17 27 15 28 18 29 16 30
REMARK H PARENT 3 7
ROOT
ATOM      1  C   UNL     1      -1.512   1.090   0.846  1.00  0.00     0.242 C 
ATOM      2  O   UNL     1      -2.493   1.603   1.553  1.00  0.00    -0.273 OA
ENDROOT
BRANCH   1   3
ATOM      3  C   UNL     1      -0.302   0.896   1.600  1.00  0.00     0.216 C 
BRANCH   3   4
ATOM      4  N   UNL     1       0.844   0.343   0.964  1.00  0.00    -0.342 N 
ATOM      5  C   UNL     1       2.016   0.194   1.828  1.00  0.00     0.270 C 
ATOM      6  O   UNL     1       1.900   0.563   3.031  1.00  0.00    -0.268 OA
ATOM      7  H   UNL     1       0.993   0.032   0.014  1.00  0.00     0.164 HD
BRANCH   5   8
ATOM      8  C   UNL     1       3.246  -0.361   1.285  1.00  0.00     0.128 A 
ATOM      9  C   UNL     1       4.317  -0.480   2.138  1.00  0.00     0.035 A 
ATOM     10  N   UNL     1       3.377  -0.757   0.002  1.00  0.00    -0.243 NA
ATOM     11  C   UNL     1       5.528  -0.993   1.726  1.00  0.00     0.013 A 
ATOM     12  C   UNL     1       4.539  -1.266  -0.455  1.00  0.00     0.071 A 
ATOM     13  C   UNL     1       5.618  -1.388   0.396  1.00  0.00     0.000 A 
ATOM     14  C   UNL     1       4.645  -1.663  -1.771  1.00  0.00     0.029 A 
ATOM     15  C   UNL     1       6.816  -1.909  -0.059  1.00  0.00     0.010 A 
ATOM     16  C   UNL     1       5.823  -2.184  -2.252  1.00  0.00     0.002 A 
ATOM     17  C   UNL     1       6.896  -2.297  -1.376  1.00  0.00     0.001 A 
ENDBRANCH   5   8
ENDBRANCH   3   4
ENDBRANCH   1   3
BRANCH   1  18
ATOM     18  N   UNL     1      -1.823   0.825  -0.517  1.00  0.00    -0.334 N 
ATOM     19  C   UNL     1      -0.962   0.289  -1.567  1.00  0.00     0.120 C 
ATOM     20  C   UNL     1      -3.160   1.097  -1.045  1.00  0.00     0.115 C 
ATOM     21  C   UNL     1      -1.897   0.346  -2.807  1.00  0.00     0.024 C 
ATOM     22  C   UNL     1      -3.265   0.144  -2.183  1.00  0.00     0.032 C 
BRANCH  20  23
ATOM     23  C   UNL     1      -4.257   1.009  -0.088  1.00  0.00    -0.024 A 
ATOM     24  C   UNL     1      -4.461  -0.070   0.774  1.00  0.00     0.007 A 
ATOM     25  C   UNL     1      -5.194   2.035   0.020  1.00  0.00     0.028 A 
ATOM     26  C   UNL     1      -5.513  -0.112   1.664  1.00  0.00     0.022 A 
ATOM     27  C   UNL     1      -6.244   1.990   0.910  1.00  0.00     0.060 A 
ATOM     28  C   UNL     1      -6.430   0.919   1.752  1.00  0.00     0.059 A 
ATOM     29  Cl  UNL     1      -7.391   3.326   0.991  1.00  0.00    -0.083 Cl
ATOM     30  Cl  UNL     1      -7.734   0.819   2.886  1.00  0.00    -0.083 Cl
ENDBRANCH  20  23
ENDBRANCH   1  18
TORSDOF 5
