REMARK SMILES O=C(NCC(=O)N1CCCC[C@H]1c1cccc(Cl)c1)c1ccc2ccccc2n1
REMARK SMILES IDX 5 1 6 2 4 3 3 4 2 5 1 6 20 8 21 9 29 10 22 11 28 12 23 13
REMARK SMILES IDX 27 14 24 15 26 16 25 17 7 18 8 19 12 20 9 21 11 22 10 23
REMARK SMILES IDX 13 24 14 25 19 26 15 27 17 28 16 29 18 30
REMARK H PARENT 3 7
ROOT
ATOM      1  C   UNL     1      -0.773   0.358  -0.073  1.00  0.00     0.242 C 
ATOM      2  O   UNL     1      -0.264  -0.304   0.875  1.00  0.00    -0.273 OA
ENDROOT
BRANCH   1   3
ATOM      3  C   UNL     1       0.093   0.902  -1.143  1.00  0.00     0.216 C 
BRANCH   3   4
ATOM      4  N   UNL     1       1.490   0.574  -0.935  1.00  0.00    -0.342 N 
ATOM      5  C   UNL     1       2.158   1.014   0.249  1.00  0.00     0.270 C 
ATOM      6  O   UNL     1       1.561   1.690   1.134  1.00  0.00    -0.268 OA
ATOM      7  H   UNL     1       2.036   0.008  -1.650  1.00  0.00     0.164 HD
BRANCH   5   8
ATOM      8  C   UNL     1       3.569   0.650   0.397  1.00  0.00     0.128 A 
ATOM      9  C   UNL     1       4.264   1.051   1.526  1.00  0.00     0.035 A 
ATOM     10  N   UNL     1       4.231  -0.069  -0.528  1.00  0.00    -0.243 NA
ATOM     11  C   UNL     1       5.599   0.726   1.702  1.00  0.00     0.013 A 
ATOM     12  C   UNL     1       5.527  -0.414  -0.411  1.00  0.00     0.071 A 
ATOM     13  C   UNL     1       6.220  -0.012   0.717  1.00  0.00     0.000 A 
ATOM     14  C   UNL     1       6.125  -1.158  -1.419  1.00  0.00     0.029 A 
ATOM     15  C   UNL     1       7.552  -0.351   0.868  1.00  0.00     0.010 A 
ATOM     16  C   UNL     1       7.462  -1.494  -1.261  1.00  0.00     0.002 A 
ATOM     17  C   UNL     1       8.153  -1.094  -0.138  1.00  0.00     0.001 A 
ENDBRANCH   5   8
ENDBRANCH   3   4
ENDBRANCH   1   3
BRANCH   1  18
ATOM     18  N   UNL     1      -2.168   0.614  -0.165  1.00  0.00    -0.334 N 
ATOM     19  C   UNL     1      -2.753   1.381  -1.265  1.00  0.00     0.120 C 
ATOM     20  C   UNL     1      -3.099   0.124   0.835  1.00  0.00     0.115 C 
ATOM     21  C   UNL     1      -3.528   2.578  -0.698  1.00  0.00     0.022 C 
ATOM     22  C   UNL     1      -3.974   1.265   1.302  1.00  0.00     0.030 C 
ATOM     23  C   UNL     1      -4.632   1.982   0.157  1.00  0.00     0.004 C 
BRANCH  20  24
ATOM     24  C   UNL     1      -3.888  -1.038   0.377  1.00  0.00    -0.024 A 
ATOM     25  C   UNL     1      -3.215  -2.048  -0.281  1.00  0.00     0.006 A 
ATOM     26  C   UNL     1      -5.257  -1.146   0.581  1.00  0.00     0.026 A 
ATOM     27  C   UNL     1      -3.903  -3.176  -0.741  1.00  0.00     0.002 A 
ATOM     28  C   UNL     1      -5.904  -2.272   0.114  1.00  0.00     0.041 A 
ATOM     29  C   UNL     1      -5.265  -3.294  -0.543  1.00  0.00     0.020 A 
ATOM     30  Cl  UNL     1      -7.642  -2.447   0.353  1.00  0.00    -0.084 Cl
ENDBRANCH  20  24
ENDBRANCH   1  18
TORSDOF 5
