AutoDock-GPU version: v1.6

**********************************************************
**    AutoDock-GPU AUTODOCKTOOLS-COMPATIBLE DLG FILE    **
**********************************************************


    DOCKING PARAMETERS
    ________________________


Ligand file:                               /home/a/REINVENT4/ReinventStudies/pleaseWork/justmol2mol_4_Compounds_ontop/graph-dock/graph-DockGPU/node-autodockgpu/inputs/CGKKVLKAWPJFGL-OAEUJLFZNA-N.pdbqt
Grid fld file:                             /home/a/REINVENT4/ReinventStudies/mols/Rad51/maps/rad51_receptor.maps.fld

Random seed:                               42
Number of runs:                            20
Number of energy evaluations:              1132076
Number of generations:                     42000
Size of population:                        150
Rate of crossover:                         80.000000%
Tournament selection probability limit:    60.000000%
Rate of mutation:                          2.000000%
Maximal allowed delta movement:            +/- 6.000000A
Maximal allowed delta angle:               +/- 90.000000

Rate of local search:                      100.000000%
Maximal number of local search iterations: 300
Rho lower bound:                           0.010000
Spread of local search delta movement:     2.000000A
Spread of local search delta angle:        74.999999
Limit of consecutive successes/failures:   4

Handle symmetry during clustering:         YES
RMSD tolerance:                            2.000000A

Program call in command line was:          /home/a/REINVENT4/ReinventStudies/adgpu-v1.6_linux_x64_cuda12_128wi --filelist batch.txt --heuristics 1 --nrun 20 --psize 150 --lsit 300 --seed 42 --heurmax 12000000 


    GRID PARAMETERS
    ________________________


Receptor name:                             rad51_receptor
Number of grid points (x, y, z):           53, 53, 53
Grid center (x, y, z):                     139.950000, 75.640000, 221.970000A
Grid size (x, y, z):                       19.500000, 19.500000, 19.500000A
Grid spacing:                              0.375000A


    LIGAND PARAMETERS
    ________________________


Ligand name:                               /home/a/REINVENT4/ReinventStudies/pleaseWork/justmol2mol_4_Compounds_ontop/graph-dock/graph-DockGPU/node-autodockgpu/inputs/CGKKVLKAWPJFGL-OAEUJLFZNA-N
Number of atoms:                           31
Number of rotatable bonds:                 6
Number of atom types:                      7


    DUMMY DATA (only for ADT-compatibility)
    ________________________


DPF> outlev 1
DPF> ga_run 20
DPF> fld /home/a/REINVENT4/ReinventStudies/mols/Rad51/maps/rad51_receptor.maps.fld
DPF> move /home/a/REINVENT4/ReinventStudies/pleaseWork/justmol2mol_4_Compounds_ontop/graph-dock/graph-DockGPU/node-autodockgpu/inputs/CGKKVLKAWPJFGL-OAEUJLFZNA-N.pdbqt


    COUNTER STATES
    ________________________


Number of energy evaluations performed:    870512
Number of generations used:                50


    INPUT LIGAND PDBQT FILE:
    ________________________


INPUT-LIGAND-PDBQT: REMARK SMILES O=C(NCC(=O)N1C[C@H](O)C[C@H]1c1ccc(Cl)cc1)c1ccc2ccccc2n1
INPUT-LIGAND-PDBQT: REMARK SMILES IDX 5 1 6 2 4 3 3 4 2 5 1 6 20 8 21 9 29 10 22 11 28 12 23 13
INPUT-LIGAND-PDBQT: REMARK SMILES IDX 27 14 24 15 26 16 25 17 7 18 8 19 12 20 9 21 11 22 13 23
INPUT-LIGAND-PDBQT: REMARK SMILES IDX 14 24 19 25 15 26 18 27 16 28 17 29 10 30
INPUT-LIGAND-PDBQT: REMARK H PARENT 3 7 10 31
INPUT-LIGAND-PDBQT: ROOT
INPUT-LIGAND-PDBQT: ATOM      1  C   UNL     1      -1.489   0.215   1.676  1.00  0.00     0.242 C 
INPUT-LIGAND-PDBQT: ATOM      2  O   UNL     1      -2.587   0.575   2.254  1.00  0.00    -0.273 OA
INPUT-LIGAND-PDBQT: ENDROOT
INPUT-LIGAND-PDBQT: BRANCH   1   3
INPUT-LIGAND-PDBQT: ATOM      3  C   UNL     1      -0.316   0.245   2.548  1.00  0.00     0.216 C 
INPUT-LIGAND-PDBQT: BRANCH   3   4
INPUT-LIGAND-PDBQT: ATOM      4  N   UNL     1       0.932  -0.027   1.926  1.00  0.00    -0.342 N 
INPUT-LIGAND-PDBQT: ATOM      5  C   UNL     1       1.409   0.896   0.939  1.00  0.00     0.270 C 
INPUT-LIGAND-PDBQT: ATOM      6  O   UNL     1       0.771   1.929   0.608  1.00  0.00    -0.268 OA
INPUT-LIGAND-PDBQT: ATOM      7  H   UNL     1       1.491  -0.889   2.187  1.00  0.00     0.164 HD
INPUT-LIGAND-PDBQT: BRANCH   5   8
INPUT-LIGAND-PDBQT: ATOM      8  C   UNL     1       2.691   0.602   0.305  1.00  0.00     0.128 A 
INPUT-LIGAND-PDBQT: ATOM      9  C   UNL     1       3.199   1.467  -0.660  1.00  0.00     0.035 A 
INPUT-LIGAND-PDBQT: ATOM     10  N   UNL     1       3.433  -0.473   0.597  1.00  0.00    -0.243 NA
INPUT-LIGAND-PDBQT: ATOM     11  C   UNL     1       4.398   1.242  -1.289  1.00  0.00     0.013 A 
INPUT-LIGAND-PDBQT: ATOM     12  C   UNL     1       4.621  -0.726  -0.004  1.00  0.00     0.071 A 
INPUT-LIGAND-PDBQT: ATOM     13  C   UNL     1       5.142   0.129  -0.971  1.00  0.00     0.000 A 
INPUT-LIGAND-PDBQT: ATOM     14  C   UNL     1       5.356  -1.849   0.327  1.00  0.00     0.029 A 
INPUT-LIGAND-PDBQT: ATOM     15  C   UNL     1       6.348  -0.108  -1.595  1.00  0.00     0.010 A 
INPUT-LIGAND-PDBQT: ATOM     16  C   UNL     1       6.569  -2.071  -0.313  1.00  0.00     0.002 A 
INPUT-LIGAND-PDBQT: ATOM     17  C   UNL     1       7.063  -1.220  -1.258  1.00  0.00     0.001 A 
INPUT-LIGAND-PDBQT: ENDBRANCH   5   8
INPUT-LIGAND-PDBQT: ENDBRANCH   3   4
INPUT-LIGAND-PDBQT: ENDBRANCH   1   3
INPUT-LIGAND-PDBQT: BRANCH   1  18
INPUT-LIGAND-PDBQT: ATOM     18  N   UNL     1      -1.605  -0.142   0.329  1.00  0.00    -0.331 N 
INPUT-LIGAND-PDBQT: ATOM     19  C   UNL     1      -0.612  -0.718  -0.603  1.00  0.00     0.152 C 
INPUT-LIGAND-PDBQT: ATOM     20  C   UNL     1      -2.781  -0.024  -0.558  1.00  0.00     0.118 C 
INPUT-LIGAND-PDBQT: ATOM     21  C   UNL     1      -1.466  -1.689  -1.467  1.00  0.00     0.136 C 
INPUT-LIGAND-PDBQT: ATOM     22  C   UNL     1      -2.909  -1.452  -0.974  1.00  0.00     0.063 C 
INPUT-LIGAND-PDBQT: BRANCH  20  23
INPUT-LIGAND-PDBQT: ATOM     23  C   UNL     1      -3.937   0.632  -0.019  1.00  0.00    -0.025 A 
INPUT-LIGAND-PDBQT: ATOM     24  C   UNL     1      -5.150  -0.062   0.027  1.00  0.00     0.007 A 
INPUT-LIGAND-PDBQT: ATOM     25  C   UNL     1      -3.977   1.928   0.438  1.00  0.00     0.007 A 
INPUT-LIGAND-PDBQT: ATOM     26  C   UNL     1      -6.307   0.511   0.499  1.00  0.00     0.021 A 
INPUT-LIGAND-PDBQT: ATOM     27  C   UNL     1      -5.133   2.504   0.910  1.00  0.00     0.021 A 
INPUT-LIGAND-PDBQT: ATOM     28  C   UNL     1      -6.319   1.812   0.951  1.00  0.00     0.041 A 
INPUT-LIGAND-PDBQT: ATOM     29  Cl  UNL     1      -7.762   2.592   1.560  1.00  0.00    -0.084 Cl
INPUT-LIGAND-PDBQT: ENDBRANCH  20  23
INPUT-LIGAND-PDBQT: BRANCH  21  30
INPUT-LIGAND-PDBQT: ATOM     30  O   UNL     1      -1.336  -1.278  -2.792  1.00  0.00    -0.391 OA
INPUT-LIGAND-PDBQT: ATOM     31  H   UNL     1      -2.216  -1.250  -3.244  1.00  0.00     0.211 HD
INPUT-LIGAND-PDBQT: ENDBRANCH  21  30
INPUT-LIGAND-PDBQT: ENDBRANCH   1  18
INPUT-LIGAND-PDBQT: TORSDOF 6


    FINAL DOCKED STATE:
    ________________________


Run:   1 / 20
Time taken for this run:   0.039s

DOCKED: MODEL        1
DOCKED: USER    Run = 1
DOCKED: USER
DOCKED: USER    Estimated Free Energy of Binding    =  -7.89 kcal/mol  [=(1)+(2)+(3)-(4)]
DOCKED: USER
DOCKED: USER    (1) Final Intermolecular Energy     =  -9.68 kcal/mol
DOCKED: USER        vdW + Hbond + desolv Energy     =  -9.54 kcal/mol
DOCKED: USER        Electrostatic Energy            =  -0.14 kcal/mol
DOCKED: USER        Moving Ligand-Fixed Receptor    =  -9.68 kcal/mol
DOCKED: USER        Moving Ligand-Moving Receptor   =  +0.00 kcal/mol
DOCKED: USER    (2) Final Total Internal Energy     =  -2.03 kcal/mol
DOCKED: USER    (3) Torsional Free Energy           =  +1.79 kcal/mol
DOCKED: USER    (4) Unbound System's Energy         =  -2.03 kcal/mol
DOCKED: USER
DOCKED: USER
DOCKED: REMARK SMILES O=C(NCC(=O)N1C[C@H](O)C[C@H]1c1ccc(Cl)cc1)c1ccc2ccccc2n1
DOCKED: REMARK SMILES IDX 5 1 6 2 4 3 3 4 2 5 1 6 20 8 21 9 29 10 22 11 28 12 23 13
DOCKED: REMARK SMILES IDX 27 14 24 15 26 16 25 17 7 18 8 19 12 20 9 21 11 22 13 23
DOCKED: REMARK SMILES IDX 14 24 19 25 15 26 18 27 16 28 17 29 10 30
DOCKED: REMARK H PARENT 3 7 10 31
DOCKED: USER                              x       y       z     vdW  Elec       q    Type
DOCKED: USER                           _______ _______ _______ _____ _____    ______ ____
DOCKED: ROOT
DOCKED: ATOM      1  C   UNL     1     140.811  75.322 221.021 -0.20 -0.06    +0.242 C  
DOCKED: ATOM      2  O   UNL     1     141.025  75.843 222.184 -0.40 +0.07    -0.273 OA 
DOCKED: ENDROOT
DOCKED: BRANCH   1   3
DOCKED: ATOM      3  C   UNL     1     139.966  74.130 221.046 -0.17 -0.04    +0.216 C  
DOCKED: BRANCH   3   4
DOCKED: ATOM      4  N   UNL     1     139.893  73.441 222.286 -0.14 +0.04    -0.342 N  
DOCKED: ATOM      5  C   UNL     1     140.303  72.068 222.320 -0.21 -0.03    +0.270 C  
DOCKED: ATOM      6  O   UNL     1     140.723  71.457 221.302 -0.12 +0.04    -0.268 OA 
DOCKED: ATOM      7  H   UNL     1     139.546  73.931 223.159 -0.51 -0.03    +0.164 HD 
DOCKED: BRANCH   5   8
DOCKED: ATOM      8  C   UNL     1     140.220  71.371 223.600 -0.32 -0.02    +0.128 A  
DOCKED: ATOM      9  C   UNL     1     139.638  70.108 223.662 -0.27 -0.01    +0.035 A  
DOCKED: ATOM     10  N   UNL     1     140.678  71.877 224.751 -0.27 +0.03    -0.243 NA 
DOCKED: ATOM     11  C   UNL     1     139.532  69.406 224.837 -0.38 -0.00    +0.013 A  
DOCKED: ATOM     12  C   UNL     1     140.591  71.212 225.928 -0.55 -0.01    +0.071 A  
DOCKED: ATOM     13  C   UNL     1     140.012  69.949 226.007 -0.50 -0.00    +0.000 A  
DOCKED: ATOM     14  C   UNL     1     141.077  71.772 227.095 -0.76 -0.01    +0.029 A  
DOCKED: ATOM     15  C   UNL     1     139.912  69.254 227.193 -0.58 -0.00    +0.010 A  
DOCKED: ATOM     16  C   UNL     1     140.967  71.056 228.281 -0.67 -0.00    +0.002 A  
DOCKED: ATOM     17  C   UNL     1     140.397  69.818 228.337 -0.60 -0.00    +0.001 A  
DOCKED: ENDBRANCH   5   8
DOCKED: ENDBRANCH   3   4
DOCKED: ENDBRANCH   1   3
DOCKED: BRANCH   1  18
DOCKED: ATOM     18  N   UNL     1     141.414  75.981 219.945 -0.08 +0.13    -0.331 N  
DOCKED: ATOM     19  C   UNL     1     141.160  77.320 219.372 -0.14 -0.07    +0.152 C  
DOCKED: ATOM     20  C   UNL     1     142.490  75.498 219.055 -0.21 -0.05    +0.118 C  
DOCKED: ATOM     21  C   UNL     1     142.582  77.803 218.968 -0.23 -0.10    +0.136 C  
DOCKED: ATOM     22  C   UNL     1     143.485  76.589 219.272 -0.27 -0.04    +0.063 C  
DOCKED: BRANCH  20  23
DOCKED: ATOM     23  C   UNL     1     142.920  74.142 219.233 -0.21 +0.01    -0.025 A  
DOCKED: ATOM     24  C   UNL     1     142.320  73.135 218.470 -0.07 -0.00    +0.007 A  
DOCKED: ATOM     25  C   UNL     1     143.868  73.718 220.134 -0.37 -0.00    +0.007 A  
DOCKED: ATOM     26  C   UNL     1     142.656  71.809 218.609 -0.07 -0.00    +0.021 A  
DOCKED: ATOM     27  C   UNL     1     144.206  72.393 220.275 -0.35 -0.00    +0.021 A  
DOCKED: ATOM     28  C   UNL     1     143.610  71.412 219.519 -0.19 -0.00    +0.041 A  
DOCKED: ATOM     29  Cl  UNL     1     144.076  69.740 219.739 -0.30 -0.01    -0.084 Cl 
DOCKED: ENDBRANCH  20  23
DOCKED: BRANCH  21  30
DOCKED: ATOM     30  O   UNL     1     142.555  78.053 217.598 -0.17 +0.32    -0.391 OA 
DOCKED: ATOM     31  H   UNL     1     143.299  78.647 217.330 -0.22 -0.29    +0.211 HD 
DOCKED: ENDBRANCH  21  30
DOCKED: ENDBRANCH   1  18
DOCKED: TORSDOF 6
DOCKED: TER
DOCKED: ENDMDL
________________________________________________________________________________


    FINAL DOCKED STATE:
    ________________________


Run:   2 / 20
Time taken for this run:   0.039s

DOCKED: MODEL        2
DOCKED: USER    Run = 2
DOCKED: USER
DOCKED: USER    Estimated Free Energy of Binding    =  -7.53 kcal/mol  [=(1)+(2)+(3)-(4)]
DOCKED: USER
DOCKED: USER    (1) Final Intermolecular Energy     =  -9.32 kcal/mol
DOCKED: USER        vdW + Hbond + desolv Energy     =  -9.02 kcal/mol
DOCKED: USER        Electrostatic Energy            =  -0.30 kcal/mol
DOCKED: USER        Moving Ligand-Fixed Receptor    =  -9.32 kcal/mol
DOCKED: USER        Moving Ligand-Moving Receptor   =  +0.00 kcal/mol
DOCKED: USER    (2) Final Total Internal Energy     =  -2.80 kcal/mol
DOCKED: USER    (3) Torsional Free Energy           =  +1.79 kcal/mol
DOCKED: USER    (4) Unbound System's Energy         =  -2.80 kcal/mol
DOCKED: USER
DOCKED: USER
DOCKED: REMARK SMILES O=C(NCC(=O)N1C[C@H](O)C[C@H]1c1ccc(Cl)cc1)c1ccc2ccccc2n1
DOCKED: REMARK SMILES IDX 5 1 6 2 4 3 3 4 2 5 1 6 20 8 21 9 29 10 22 11 28 12 23 13
DOCKED: REMARK SMILES IDX 27 14 24 15 26 16 25 17 7 18 8 19 12 20 9 21 11 22 13 23
DOCKED: REMARK SMILES IDX 14 24 19 25 15 26 18 27 16 28 17 29 10 30
DOCKED: REMARK H PARENT 3 7 10 31
DOCKED: USER                              x       y       z     vdW  Elec       q    Type
DOCKED: USER                           _______ _______ _______ _____ _____    ______ ____
DOCKED: ROOT
DOCKED: ATOM      1  C   UNL     1     141.821  72.984 220.385 -0.13 -0.04    +0.242 C  
DOCKED: ATOM      2  O   UNL     1     141.168  72.200 219.593 -0.04 +0.05    -0.273 OA 
DOCKED: ENDROOT
DOCKED: BRANCH   1   3
DOCKED: ATOM      3  C   UNL     1     141.042  73.471 221.522 -0.20 -0.02    +0.216 C  
DOCKED: BRANCH   3   4
DOCKED: ATOM      4  N   UNL     1     141.204  74.844 221.849 -0.10 +0.04    -0.342 N  
DOCKED: ATOM      5  C   UNL     1     140.025  75.644 222.006 -0.21 -0.05    +0.270 C  
DOCKED: ATOM      6  O   UNL     1     138.864  75.179 221.869 -0.24 +0.06    -0.268 OA 
DOCKED: ATOM      7  H   UNL     1     142.171  75.261 221.972 -0.46 -0.07    +0.164 HD 
DOCKED: BRANCH   5   8
DOCKED: ATOM      8  C   UNL     1     140.207  77.054 222.338 -0.34 -0.03    +0.128 A  
DOCKED: ATOM      9  C   UNL     1     139.097  77.888 222.439 -0.29 -0.01    +0.035 A  
DOCKED: ATOM     10  N   UNL     1     141.401  77.615 222.559 -0.22 +0.12    -0.243 NA 
DOCKED: ATOM     11  C   UNL     1     139.207  79.221 222.748 -0.31 -0.00    +0.013 A  
DOCKED: ATOM     12  C   UNL     1     141.547  78.927 222.866 -0.49 -0.03    +0.071 A  
DOCKED: ATOM     13  C   UNL     1     140.447  79.774 222.970 -0.43 -0.00    +0.000 A  
DOCKED: ATOM     14  C   UNL     1     142.800  79.468 223.086 -0.55 -0.01    +0.029 A  
DOCKED: ATOM     15  C   UNL     1     140.571  81.111 223.282 -0.41 -0.00    +0.010 A  
DOCKED: ATOM     16  C   UNL     1     142.904  80.817 223.399 -0.62 -0.00    +0.002 A  
DOCKED: ATOM     17  C   UNL     1     141.814  81.631 223.497 -0.53 -0.00    +0.001 A  
DOCKED: ENDBRANCH   5   8
DOCKED: ENDBRANCH   3   4
DOCKED: ENDBRANCH   1   3
DOCKED: BRANCH   1  18
DOCKED: ATOM     18  N   UNL     1     143.151  73.232 220.028 -0.10 +0.06    -0.331 N  
DOCKED: ATOM     19  C   UNL     1     144.356  72.385 220.158 -0.29 -0.01    +0.152 C  
DOCKED: ATOM     20  C   UNL     1     143.731  74.447 219.421 -0.28 -0.04    +0.118 C  
DOCKED: ATOM     21  C   UNL     1     145.158  72.719 218.868 -0.24 +0.04    +0.136 C  
DOCKED: ATOM     22  C   UNL     1     144.333  73.837 218.198 -0.16 -0.01    +0.063 C  
DOCKED: BRANCH  20  23
DOCKED: ATOM     23  C   UNL     1     142.856  75.572 219.258 -0.30 +0.01    -0.025 A  
DOCKED: ATOM     24  C   UNL     1     141.711  75.431 218.468 -0.12 -0.00    +0.007 A  
DOCKED: ATOM     25  C   UNL     1     143.060  76.823 219.790 -0.29 -0.01    +0.007 A  
DOCKED: ATOM     26  C   UNL     1     140.843  76.472 218.239 -0.07 -0.01    +0.021 A  
DOCKED: ATOM     27  C   UNL     1     142.194  77.867 219.562 -0.29 -0.01    +0.021 A  
DOCKED: ATOM     28  C   UNL     1     141.071  77.716 218.785 -0.14 -0.02    +0.041 A  
DOCKED: ATOM     29  Cl  UNL     1     140.002  79.077 218.525 -0.08 +0.03    -0.084 Cl 
DOCKED: ENDBRANCH  20  23
DOCKED: BRANCH  21  30
DOCKED: ATOM     30  O   UNL     1     146.396  73.212 219.275 -0.66 -0.30    -0.391 OA 
DOCKED: ATOM     31  H   UNL     1     146.382  74.199 219.342 -0.46 -0.03    +0.211 HD 
DOCKED: ENDBRANCH  21  30
DOCKED: ENDBRANCH   1  18
DOCKED: TORSDOF 6
DOCKED: TER
DOCKED: ENDMDL
________________________________________________________________________________


    FINAL DOCKED STATE:
    ________________________


Run:   3 / 20
Time taken for this run:   0.039s

DOCKED: MODEL        3
DOCKED: USER    Run = 3
DOCKED: USER
DOCKED: USER    Estimated Free Energy of Binding    =  -8.88 kcal/mol  [=(1)+(2)+(3)-(4)]
DOCKED: USER
DOCKED: USER    (1) Final Intermolecular Energy     = -10.67 kcal/mol
DOCKED: USER        vdW + Hbond + desolv Energy     = -10.56 kcal/mol
DOCKED: USER        Electrostatic Energy            =  -0.11 kcal/mol
DOCKED: USER        Moving Ligand-Fixed Receptor    = -10.67 kcal/mol
DOCKED: USER        Moving Ligand-Moving Receptor   =  +0.00 kcal/mol
DOCKED: USER    (2) Final Total Internal Energy     =  -1.38 kcal/mol
DOCKED: USER    (3) Torsional Free Energy           =  +1.79 kcal/mol
DOCKED: USER    (4) Unbound System's Energy         =  -1.38 kcal/mol
DOCKED: USER
DOCKED: USER
DOCKED: REMARK SMILES O=C(NCC(=O)N1C[C@H](O)C[C@H]1c1ccc(Cl)cc1)c1ccc2ccccc2n1
DOCKED: REMARK SMILES IDX 5 1 6 2 4 3 3 4 2 5 1 6 20 8 21 9 29 10 22 11 28 12 23 13
DOCKED: REMARK SMILES IDX 27 14 24 15 26 16 25 17 7 18 8 19 12 20 9 21 11 22 13 23
DOCKED: REMARK SMILES IDX 14 24 19 25 15 26 18 27 16 28 17 29 10 30
DOCKED: REMARK H PARENT 3 7 10 31
DOCKED: USER                              x       y       z     vdW  Elec       q    Type
DOCKED: USER                           _______ _______ _______ _____ _____    ______ ____
DOCKED: ROOT
DOCKED: ATOM      1  C   UNL     1     140.432  75.149 221.692 -0.21 -0.04    +0.242 C  
DOCKED: ATOM      2  O   UNL     1     139.926  75.758 222.714 -0.42 +0.03    -0.273 OA 
DOCKED: ENDROOT
DOCKED: BRANCH   1   3
DOCKED: ATOM      3  C   UNL     1     139.931  73.790 221.499 -0.20 -0.03    +0.216 C  
DOCKED: BRANCH   3   4
DOCKED: ATOM      4  N   UNL     1     139.845  72.984 222.665 -0.12 +0.05    -0.342 N  
DOCKED: ATOM      5  C   UNL     1     140.077  71.576 222.531 -0.20 -0.04    +0.270 C  
DOCKED: ATOM      6  O   UNL     1     140.354  71.033 221.430 -0.11 +0.04    -0.268 OA 
DOCKED: ATOM      7  H   UNL     1     139.614  73.415 223.606 -0.39 -0.06    +0.164 HD 
DOCKED: BRANCH   5   8
DOCKED: ATOM      8  C   UNL     1     139.980  70.759 223.738 -0.29 -0.02    +0.128 A  
DOCKED: ATOM      9  C   UNL     1     139.329  69.530 223.690 -0.25 -0.01    +0.035 A  
DOCKED: ATOM     10  N   UNL     1     140.491  71.121 224.921 -0.32 +0.04    -0.243 NA 
DOCKED: ATOM     11  C   UNL     1     139.208  68.720 224.791 -0.39 -0.00    +0.013 A  
DOCKED: ATOM     12  C   UNL     1     140.390  70.347 226.028 -0.49 -0.01    +0.071 A  
DOCKED: ATOM     13  C   UNL     1     139.741  69.116 225.996 -0.49 -0.00    +0.000 A  
DOCKED: ATOM     14  C   UNL     1     140.932  70.759 227.231 -0.63 -0.00    +0.029 A  
DOCKED: ATOM     15  C   UNL     1     139.627  68.311 227.110 -0.60 -0.00    +0.010 A  
DOCKED: ATOM     16  C   UNL     1     140.806  69.934 228.343 -0.57 -0.00    +0.002 A  
DOCKED: ATOM     17  C   UNL     1     140.167  68.730 228.290 -0.65 -0.00    +0.001 A  
DOCKED: ENDBRANCH   5   8
DOCKED: ENDBRANCH   3   4
DOCKED: ENDBRANCH   1   3
DOCKED: BRANCH   1  18
DOCKED: ATOM     18  N   UNL     1     141.360  75.885 220.949 -0.15 +0.13    -0.331 N  
DOCKED: ATOM     19  C   UNL     1     142.459  75.438 220.068 -0.25 -0.07    +0.152 C  
DOCKED: ATOM     20  C   UNL     1     141.508  77.353 220.852 -0.24 -0.06    +0.118 C  
DOCKED: ATOM     21  C   UNL     1     142.442  76.492 218.925 -0.24 -0.07    +0.136 C  
DOCKED: ATOM     22  C   UNL     1     141.370  77.508 219.374 -0.20 -0.03    +0.063 C  
DOCKED: BRANCH  20  23
DOCKED: ATOM     23  C   UNL     1     140.666  78.147 221.699 -0.32 +0.01    -0.025 A  
DOCKED: ATOM     24  C   UNL     1     141.191  78.657 222.890 -0.51 -0.00    +0.007 A  
DOCKED: ATOM     25  C   UNL     1     139.342  78.435 221.463 -0.19 -0.00    +0.007 A  
DOCKED: ATOM     26  C   UNL     1     140.436  79.398 223.768 -0.48 -0.00    +0.021 A  
DOCKED: ATOM     27  C   UNL     1     138.585  79.176 222.339 -0.23 -0.00    +0.021 A  
DOCKED: ATOM     28  C   UNL     1     139.112  79.672 223.506 -0.38 -0.01    +0.041 A  
DOCKED: ATOM     29  Cl  UNL     1     138.104  80.608 224.588 -0.42 +0.01    -0.084 Cl 
DOCKED: ENDBRANCH  20  23
DOCKED: BRANCH  21  30
DOCKED: ATOM     30  O   UNL     1     143.699  77.095 218.907 -0.15 +0.31    -0.391 OA 
DOCKED: ATOM     31  H   UNL     1     143.949  77.424 219.806 -0.48 -0.24    +0.211 HD 
DOCKED: ENDBRANCH  21  30
DOCKED: ENDBRANCH   1  18
DOCKED: TORSDOF 6
DOCKED: TER
DOCKED: ENDMDL
________________________________________________________________________________


    FINAL DOCKED STATE:
    ________________________


Run:   4 / 20
Time taken for this run:   0.039s

DOCKED: MODEL        4
DOCKED: USER    Run = 4
DOCKED: USER
DOCKED: USER    Estimated Free Energy of Binding    =  -9.13 kcal/mol  [=(1)+(2)+(3)-(4)]
DOCKED: USER
DOCKED: USER    (1) Final Intermolecular Energy     = -10.92 kcal/mol
DOCKED: USER        vdW + Hbond + desolv Energy     = -10.79 kcal/mol
DOCKED: USER        Electrostatic Energy            =  -0.13 kcal/mol
DOCKED: USER        Moving Ligand-Fixed Receptor    = -10.92 kcal/mol
DOCKED: USER        Moving Ligand-Moving Receptor   =  +0.00 kcal/mol
DOCKED: USER    (2) Final Total Internal Energy     =  -1.22 kcal/mol
DOCKED: USER    (3) Torsional Free Energy           =  +1.79 kcal/mol
DOCKED: USER    (4) Unbound System's Energy         =  -1.22 kcal/mol
DOCKED: USER
DOCKED: USER
DOCKED: REMARK SMILES O=C(NCC(=O)N1C[C@H](O)C[C@H]1c1ccc(Cl)cc1)c1ccc2ccccc2n1
DOCKED: REMARK SMILES IDX 5 1 6 2 4 3 3 4 2 5 1 6 20 8 21 9 29 10 22 11 28 12 23 13
DOCKED: REMARK SMILES IDX 27 14 24 15 26 16 25 17 7 18 8 19 12 20 9 21 11 22 13 23
DOCKED: REMARK SMILES IDX 14 24 19 25 15 26 18 27 16 28 17 29 10 30
DOCKED: REMARK H PARENT 3 7 10 31
DOCKED: USER                              x       y       z     vdW  Elec       q    Type
DOCKED: USER                           _______ _______ _______ _____ _____    ______ ____
DOCKED: ROOT
DOCKED: ATOM      1  C   UNL     1     140.035  75.212 221.681 -0.22 -0.04    +0.242 C  
DOCKED: ATOM      2  O   UNL     1     139.611  75.813 222.743 -0.42 +0.04    -0.273 OA 
DOCKED: ENDROOT
DOCKED: BRANCH   1   3
DOCKED: ATOM      3  C   UNL     1     139.319  73.976 221.366 -0.16 -0.04    +0.216 C  
DOCKED: BRANCH   3   4
DOCKED: ATOM      4  N   UNL     1     139.187  73.043 222.429 -0.06 +0.09    -0.342 N  
DOCKED: ATOM      5  C   UNL     1     140.321  72.232 222.759 -0.22 -0.03    +0.270 C  
DOCKED: ATOM      6  O   UNL     1     141.419  72.316 222.150 -0.19 +0.01    -0.268 OA 
DOCKED: ATOM      7  H   UNL     1     138.274  72.953 222.960 -0.42 -0.09    +0.164 HD 
DOCKED: BRANCH   5   8
DOCKED: ATOM      8  C   UNL     1     140.169  71.274 223.851 -0.34 -0.02    +0.128 A  
DOCKED: ATOM      9  C   UNL     1     139.484  70.082 223.634 -0.28 -0.01    +0.035 A  
DOCKED: ATOM     10  N   UNL     1     140.659  71.469 225.081 -0.34 +0.03    -0.243 NA 
DOCKED: ATOM     11  C   UNL     1     139.311  69.145 224.622 -0.36 -0.00    +0.013 A  
DOCKED: ATOM     12  C   UNL     1     140.507  70.566 226.080 -0.52 -0.01    +0.071 A  
DOCKED: ATOM     13  C   UNL     1     139.824  69.370 225.879 -0.48 -0.00    +0.000 A  
DOCKED: ATOM     14  C   UNL     1     141.029  70.807 227.337 -0.64 -0.00    +0.029 A  
DOCKED: ATOM     15  C   UNL     1     139.658  68.436 226.880 -0.60 -0.00    +0.010 A  
DOCKED: ATOM     16  C   UNL     1     140.851  69.854 228.333 -0.58 -0.00    +0.002 A  
DOCKED: ATOM     17  C   UNL     1     140.179  68.687 228.115 -0.65 -0.00    +0.001 A  
DOCKED: ENDBRANCH   5   8
DOCKED: ENDBRANCH   3   4
DOCKED: ENDBRANCH   1   3
DOCKED: BRANCH   1  18
DOCKED: ATOM     18  N   UNL     1     141.093  75.838 221.015 -0.15 +0.12    -0.331 N  
DOCKED: ATOM     19  C   UNL     1     142.186  75.270 220.197 -0.23 -0.06    +0.152 C  
DOCKED: ATOM     20  C   UNL     1     141.424  77.277 220.958 -0.25 -0.06    +0.118 C  
DOCKED: ATOM     21  C   UNL     1     142.374  76.333 219.078 -0.23 -0.07    +0.136 C  
DOCKED: ATOM     22  C   UNL     1     141.406  77.467 219.478 -0.21 -0.03    +0.063 C  
DOCKED: BRANCH  20  23
DOCKED: ATOM     23  C   UNL     1     140.630  78.158 221.765 -0.32 +0.01    -0.025 A  
DOCKED: ATOM     24  C   UNL     1     141.137  78.592 222.994 -0.52 -0.00    +0.007 A  
DOCKED: ATOM     25  C   UNL     1     139.367  78.601 221.454 -0.19 -0.00    +0.007 A  
DOCKED: ATOM     26  C   UNL     1     140.422  79.410 223.836 -0.47 -0.00    +0.021 A  
DOCKED: ATOM     27  C   UNL     1     138.649  79.419 222.295 -0.22 -0.00    +0.021 A  
DOCKED: ATOM     28  C   UNL     1     139.157  79.839 223.500 -0.38 -0.01    +0.041 A  
DOCKED: ATOM     29  Cl  UNL     1     138.201  80.879 224.533 -0.42 +0.01    -0.084 Cl 
DOCKED: ENDBRANCH  20  23
DOCKED: BRANCH  21  30
DOCKED: ATOM     30  O   UNL     1     143.693  76.777 219.154 -0.24 +0.30    -0.391 OA 
DOCKED: ATOM     31  H   UNL     1     143.799  77.459 219.863 -0.48 -0.24    +0.211 HD 
DOCKED: ENDBRANCH  21  30
DOCKED: ENDBRANCH   1  18
DOCKED: TORSDOF 6
DOCKED: TER
DOCKED: ENDMDL
________________________________________________________________________________


    FINAL DOCKED STATE:
    ________________________


Run:   5 / 20
Time taken for this run:   0.039s

DOCKED: MODEL        5
DOCKED: USER    Run = 5
DOCKED: USER
DOCKED: USER    Estimated Free Energy of Binding    =  -7.85 kcal/mol  [=(1)+(2)+(3)-(4)]
DOCKED: USER
DOCKED: USER    (1) Final Intermolecular Energy     =  -9.64 kcal/mol
DOCKED: USER        vdW + Hbond + desolv Energy     =  -9.50 kcal/mol
DOCKED: USER        Electrostatic Energy            =  -0.14 kcal/mol
DOCKED: USER        Moving Ligand-Fixed Receptor    =  -9.64 kcal/mol
DOCKED: USER        Moving Ligand-Moving Receptor   =  +0.00 kcal/mol
DOCKED: USER    (2) Final Total Internal Energy     =  -2.09 kcal/mol
DOCKED: USER    (3) Torsional Free Energy           =  +1.79 kcal/mol
DOCKED: USER    (4) Unbound System's Energy         =  -2.09 kcal/mol
DOCKED: USER
DOCKED: USER
DOCKED: REMARK SMILES O=C(NCC(=O)N1C[C@H](O)C[C@H]1c1ccc(Cl)cc1)c1ccc2ccccc2n1
DOCKED: REMARK SMILES IDX 5 1 6 2 4 3 3 4 2 5 1 6 20 8 21 9 29 10 22 11 28 12 23 13
DOCKED: REMARK SMILES IDX 27 14 24 15 26 16 25 17 7 18 8 19 12 20 9 21 11 22 13 23
DOCKED: REMARK SMILES IDX 14 24 19 25 15 26 18 27 16 28 17 29 10 30
DOCKED: REMARK H PARENT 3 7 10 31
DOCKED: USER                              x       y       z     vdW  Elec       q    Type
DOCKED: USER                           _______ _______ _______ _____ _____    ______ ____
DOCKED: ROOT
DOCKED: ATOM      1  C   UNL     1     140.696  75.360 220.969 -0.19 -0.06    +0.242 C  
DOCKED: ATOM      2  O   UNL     1     140.706  75.959 222.114 -0.40 +0.07    -0.273 OA 
DOCKED: ENDROOT
DOCKED: BRANCH   1   3
DOCKED: ATOM      3  C   UNL     1     139.995  74.077 220.972 -0.16 -0.04    +0.216 C  
DOCKED: BRANCH   3   4
DOCKED: ATOM      4  N   UNL     1     139.913  73.412 222.225 -0.15 +0.04    -0.342 N  
DOCKED: ATOM      5  C   UNL     1     140.296  72.032 222.283 -0.20 -0.03    +0.270 C  
DOCKED: ATOM      6  O   UNL     1     140.700  71.395 221.276 -0.12 +0.04    -0.268 OA 
DOCKED: ATOM      7  H   UNL     1     139.578  73.926 223.090 -0.51 -0.02    +0.164 HD 
DOCKED: BRANCH   5   8
DOCKED: ATOM      8  C   UNL     1     140.203  71.361 223.576 -0.32 -0.02    +0.128 A  
DOCKED: ATOM      9  C   UNL     1     139.610  70.104 223.661 -0.28 -0.01    +0.035 A  
DOCKED: ATOM     10  N   UNL     1     140.663  71.885 224.718 -0.27 +0.03    -0.243 NA 
DOCKED: ATOM     11  C   UNL     1     139.495  69.426 224.849 -0.38 -0.00    +0.013 A  
DOCKED: ATOM     12  C   UNL     1     140.566  71.244 225.908 -0.55 -0.01    +0.071 A  
DOCKED: ATOM     13  C   UNL     1     139.976  69.987 226.009 -0.50 -0.00    +0.000 A  
DOCKED: ATOM     14  C   UNL     1     141.054  71.822 227.065 -0.77 -0.01    +0.029 A  
DOCKED: ATOM     15  C   UNL     1     139.867  69.316 227.208 -0.57 -0.00    +0.010 A  
DOCKED: ATOM     16  C   UNL     1     140.935  71.130 228.264 -0.69 -0.00    +0.002 A  
DOCKED: ATOM     17  C   UNL     1     140.353  69.898 228.342 -0.59 -0.00    +0.001 A  
DOCKED: ENDBRANCH   5   8
DOCKED: ENDBRANCH   3   4
DOCKED: ENDBRANCH   1   3
DOCKED: BRANCH   1  18
DOCKED: ATOM     18  N   UNL     1     141.346  76.032 219.930 -0.07 +0.13    -0.331 N  
DOCKED: ATOM     19  C   UNL     1     141.108  77.373 219.354 -0.14 -0.07    +0.152 C  
DOCKED: ATOM     20  C   UNL     1     142.471  75.567 219.092 -0.21 -0.05    +0.118 C  
DOCKED: ATOM     21  C   UNL     1     142.544  77.873 219.027 -0.21 -0.10    +0.136 C  
DOCKED: ATOM     22  C   UNL     1     143.443  76.666 219.368 -0.27 -0.05    +0.063 C  
DOCKED: BRANCH  20  23
DOCKED: ATOM     23  C   UNL     1     142.905  74.213 219.283 -0.22 +0.01    -0.025 A  
DOCKED: ATOM     24  C   UNL     1     142.442  73.224 218.410 -0.08 -0.00    +0.007 A  
DOCKED: ATOM     25  C   UNL     1     143.729  73.775 220.293 -0.37 -0.00    +0.007 A  
DOCKED: ATOM     26  C   UNL     1     142.788  71.901 218.549 -0.07 -0.00    +0.021 A  
DOCKED: ATOM     27  C   UNL     1     144.076  72.452 220.435 -0.35 -0.00    +0.021 A  
DOCKED: ATOM     28  C   UNL     1     143.615  71.489 219.570 -0.20 -0.00    +0.041 A  
DOCKED: ATOM     29  Cl  UNL     1     144.086  69.819 219.796 -0.26 -0.01    -0.084 Cl 
DOCKED: ENDBRANCH  20  23
DOCKED: BRANCH  21  30
DOCKED: ATOM     30  O   UNL     1     142.585  78.133 217.659 -0.18 +0.32    -0.391 OA 
DOCKED: ATOM     31  H   UNL     1     143.332  78.741 217.434 -0.23 -0.29    +0.211 HD 
DOCKED: ENDBRANCH  21  30
DOCKED: ENDBRANCH   1  18
DOCKED: TORSDOF 6
DOCKED: TER
DOCKED: ENDMDL
________________________________________________________________________________


    FINAL DOCKED STATE:
    ________________________


Run:   6 / 20
Time taken for this run:   0.039s

DOCKED: MODEL        6
DOCKED: USER    Run = 6
DOCKED: USER
DOCKED: USER    Estimated Free Energy of Binding    =  -8.98 kcal/mol  [=(1)+(2)+(3)-(4)]
DOCKED: USER
DOCKED: USER    (1) Final Intermolecular Energy     = -10.77 kcal/mol
DOCKED: USER        vdW + Hbond + desolv Energy     = -10.66 kcal/mol
DOCKED: USER        Electrostatic Energy            =  -0.11 kcal/mol
DOCKED: USER        Moving Ligand-Fixed Receptor    = -10.77 kcal/mol
DOCKED: USER        Moving Ligand-Moving Receptor   =  +0.00 kcal/mol
DOCKED: USER    (2) Final Total Internal Energy     =  -1.28 kcal/mol
DOCKED: USER    (3) Torsional Free Energy           =  +1.79 kcal/mol
DOCKED: USER    (4) Unbound System's Energy         =  -1.28 kcal/mol
DOCKED: USER
DOCKED: USER
DOCKED: REMARK SMILES O=C(NCC(=O)N1C[C@H](O)C[C@H]1c1ccc(Cl)cc1)c1ccc2ccccc2n1
DOCKED: REMARK SMILES IDX 5 1 6 2 4 3 3 4 2 5 1 6 20 8 21 9 29 10 22 11 28 12 23 13
DOCKED: REMARK SMILES IDX 27 14 24 15 26 16 25 17 7 18 8 19 12 20 9 21 11 22 13 23
DOCKED: REMARK SMILES IDX 14 24 19 25 15 26 18 27 16 28 17 29 10 30
DOCKED: REMARK H PARENT 3 7 10 31
DOCKED: USER                              x       y       z     vdW  Elec       q    Type
DOCKED: USER                           _______ _______ _______ _____ _____    ______ ____
DOCKED: ROOT
DOCKED: ATOM      1  C   UNL     1     140.245  75.134 221.707 -0.21 -0.04    +0.242 C  
DOCKED: ATOM      2  O   UNL     1     139.670  75.792 222.659 -0.44 +0.04    -0.273 OA 
DOCKED: ENDROOT
DOCKED: BRANCH   1   3
DOCKED: ATOM      3  C   UNL     1     139.753  73.767 221.543 -0.19 -0.04    +0.216 C  
DOCKED: BRANCH   3   4
DOCKED: ATOM      4  N   UNL     1     139.738  72.964 222.715 -0.10 +0.06    -0.342 N  
DOCKED: ATOM      5  C   UNL     1     139.910  71.549 222.564 -0.20 -0.04    +0.270 C  
DOCKED: ATOM      6  O   UNL     1     140.075  70.998 221.445 -0.10 +0.04    -0.268 OA 
DOCKED: ATOM      7  H   UNL     1     139.602  73.402 223.670 -0.38 -0.06    +0.164 HD 
DOCKED: BRANCH   5   8
DOCKED: ATOM      8  C   UNL     1     139.888  70.735 223.776 -0.30 -0.02    +0.128 A  
DOCKED: ATOM      9  C   UNL     1     139.267  69.489 223.761 -0.26 -0.01    +0.035 A  
DOCKED: ATOM     10  N   UNL     1     140.440  71.115 224.935 -0.31 +0.04    -0.243 NA 
DOCKED: ATOM     11  C   UNL     1     139.216  68.681 224.869 -0.40 -0.00    +0.013 A  
DOCKED: ATOM     12  C   UNL     1     140.408  70.343 226.048 -0.49 -0.01    +0.071 A  
DOCKED: ATOM     13  C   UNL     1     139.791  69.095 226.048 -0.50 -0.00    +0.000 A  
DOCKED: ATOM     14  C   UNL     1     140.991  70.774 227.225 -0.63 -0.00    +0.029 A  
DOCKED: ATOM     15  C   UNL     1     139.747  68.293 227.168 -0.62 -0.00    +0.010 A  
DOCKED: ATOM     16  C   UNL     1     140.935  69.951 228.343 -0.57 -0.00    +0.002 A  
DOCKED: ATOM     17  C   UNL     1     140.326  68.731 228.323 -0.66 -0.00    +0.001 A  
DOCKED: ENDBRANCH   5   8
DOCKED: ENDBRANCH   3   4
DOCKED: ENDBRANCH   1   3
DOCKED: BRANCH   1  18
DOCKED: ATOM     18  N   UNL     1     141.228  75.832 220.999 -0.15 +0.12    -0.331 N  
DOCKED: ATOM     19  C   UNL     1     142.292  75.345 220.095 -0.24 -0.07    +0.152 C  
DOCKED: ATOM     20  C   UNL     1     141.487  77.287 220.972 -0.23 -0.06    +0.118 C  
DOCKED: ATOM     21  C   UNL     1     142.358  76.451 219.004 -0.23 -0.07    +0.136 C  
DOCKED: ATOM     22  C   UNL     1     141.365  77.522 219.502 -0.20 -0.03    +0.063 C  
DOCKED: BRANCH  20  23
DOCKED: ATOM     23  C   UNL     1     140.705  78.101 221.857 -0.34 +0.01    -0.025 A  
DOCKED: ATOM     24  C   UNL     1     139.411  78.467 221.475 -0.19 -0.00    +0.007 A  
DOCKED: ATOM     25  C   UNL     1     141.132  78.602 223.064 -0.53 -0.00    +0.007 A  
DOCKED: ATOM     26  C   UNL     1     138.615  79.272 222.255 -0.22 -0.00    +0.021 A  
DOCKED: ATOM     27  C   UNL     1     140.338  79.408 223.846 -0.46 -0.00    +0.021 A  
DOCKED: ATOM     28  C   UNL     1     139.067  79.760 223.461 -0.37 -0.01    +0.041 A  
DOCKED: ATOM     29  Cl  UNL     1     138.099  80.789 224.492 -0.45 +0.01    -0.084 Cl 
DOCKED: ENDBRANCH  20  23
DOCKED: BRANCH  21  30
DOCKED: ATOM     30  O   UNL     1     143.656  76.956 219.013 -0.19 +0.30    -0.391 OA 
DOCKED: ATOM     31  H   UNL     1     143.837  77.459 219.846 -0.48 -0.24    +0.211 HD 
DOCKED: ENDBRANCH  21  30
DOCKED: ENDBRANCH   1  18
DOCKED: TORSDOF 6
DOCKED: TER
DOCKED: ENDMDL
________________________________________________________________________________


    FINAL DOCKED STATE:
    ________________________


Run:   7 / 20
Time taken for this run:   0.039s

DOCKED: MODEL        7
DOCKED: USER    Run = 7
DOCKED: USER
DOCKED: USER    Estimated Free Energy of Binding    =  -7.54 kcal/mol  [=(1)+(2)+(3)-(4)]
DOCKED: USER
DOCKED: USER    (1) Final Intermolecular Energy     =  -9.33 kcal/mol
DOCKED: USER        vdW + Hbond + desolv Energy     =  -9.03 kcal/mol
DOCKED: USER        Electrostatic Energy            =  -0.31 kcal/mol
DOCKED: USER        Moving Ligand-Fixed Receptor    =  -9.33 kcal/mol
DOCKED: USER        Moving Ligand-Moving Receptor   =  +0.00 kcal/mol
DOCKED: USER    (2) Final Total Internal Energy     =  -2.85 kcal/mol
DOCKED: USER    (3) Torsional Free Energy           =  +1.79 kcal/mol
DOCKED: USER    (4) Unbound System's Energy         =  -2.85 kcal/mol
DOCKED: USER
DOCKED: USER
DOCKED: REMARK SMILES O=C(NCC(=O)N1C[C@H](O)C[C@H]1c1ccc(Cl)cc1)c1ccc2ccccc2n1
DOCKED: REMARK SMILES IDX 5 1 6 2 4 3 3 4 2 5 1 6 20 8 21 9 29 10 22 11 28 12 23 13
DOCKED: REMARK SMILES IDX 27 14 24 15 26 16 25 17 7 18 8 19 12 20 9 21 11 22 13 23
DOCKED: REMARK SMILES IDX 14 24 19 25 15 26 18 27 16 28 17 29 10 30
DOCKED: REMARK H PARENT 3 7 10 31
DOCKED: USER                              x       y       z     vdW  Elec       q    Type
DOCKED: USER                           _______ _______ _______ _____ _____    ______ ____
DOCKED: ROOT
DOCKED: ATOM      1  C   UNL     1     141.856  72.993 220.379 -0.13 -0.04    +0.242 C  
DOCKED: ATOM      2  O   UNL     1     141.222  72.165 219.616 -0.04 +0.05    -0.273 OA 
DOCKED: ENDROOT
DOCKED: BRANCH   1   3
DOCKED: ATOM      3  C   UNL     1     141.073  73.482 221.512 -0.20 -0.02    +0.216 C  
DOCKED: BRANCH   3   4
DOCKED: ATOM      4  N   UNL     1     141.231  74.857 221.833 -0.09 +0.05    -0.342 N  
DOCKED: ATOM      5  C   UNL     1     140.049  75.648 222.009 -0.21 -0.05    +0.270 C  
DOCKED: ATOM      6  O   UNL     1     138.889  75.175 221.893 -0.25 +0.06    -0.268 OA 
DOCKED: ATOM      7  H   UNL     1     142.196  75.281 221.939 -0.48 -0.07    +0.164 HD 
DOCKED: BRANCH   5   8
DOCKED: ATOM      8  C   UNL     1     140.226  77.060 222.335 -0.34 -0.03    +0.128 A  
DOCKED: ATOM      9  C   UNL     1     139.114  77.891 222.437 -0.29 -0.01    +0.035 A  
DOCKED: ATOM     10  N   UNL     1     141.419  77.628 222.550 -0.21 +0.12    -0.243 NA 
DOCKED: ATOM     11  C   UNL     1     139.219  79.225 222.741 -0.31 -0.00    +0.013 A  
DOCKED: ATOM     12  C   UNL     1     141.560  78.941 222.852 -0.49 -0.03    +0.071 A  
DOCKED: ATOM     13  C   UNL     1     140.458  79.784 222.957 -0.42 -0.00    +0.000 A  
DOCKED: ATOM     14  C   UNL     1     142.812  79.487 223.066 -0.56 -0.01    +0.029 A  
DOCKED: ATOM     15  C   UNL     1     140.577  81.123 223.263 -0.41 -0.00    +0.010 A  
DOCKED: ATOM     16  C   UNL     1     142.912  80.838 223.373 -0.61 -0.00    +0.002 A  
DOCKED: ATOM     17  C   UNL     1     141.819  81.648 223.472 -0.52 -0.00    +0.001 A  
DOCKED: ENDBRANCH   5   8
DOCKED: ENDBRANCH   3   4
DOCKED: ENDBRANCH   1   3
DOCKED: BRANCH   1  18
DOCKED: ATOM     18  N   UNL     1     143.171  73.277 219.998 -0.10 +0.07    -0.331 N  
DOCKED: ATOM     19  C   UNL     1     144.410  72.486 220.154 -0.30 -0.01    +0.152 C  
DOCKED: ATOM     20  C   UNL     1     143.697  74.487 219.332 -0.27 -0.04    +0.118 C  
DOCKED: ATOM     21  C   UNL     1     145.188  72.794 218.843 -0.24 +0.03    +0.136 C  
DOCKED: ATOM     22  C   UNL     1     144.313  73.847 218.132 -0.16 -0.01    +0.063 C  
DOCKED: BRANCH  20  23
DOCKED: ATOM     23  C   UNL     1     142.776  75.567 219.127 -0.28 +0.01    -0.025 A  
DOCKED: ATOM     24  C   UNL     1     143.058  76.814 219.693 -0.34 -0.01    +0.007 A  
DOCKED: ATOM     25  C   UNL     1     141.590  75.483 218.438 -0.11 -0.00    +0.007 A  
DOCKED: ATOM     26  C   UNL     1     142.208  77.887 219.569 -0.28 -0.01    +0.021 A  
DOCKED: ATOM     27  C   UNL     1     140.737  76.555 218.312 -0.07 -0.01    +0.021 A  
DOCKED: ATOM     28  C   UNL     1     141.025  77.775 218.872 -0.14 -0.02    +0.041 A  
DOCKED: ATOM     29  Cl  UNL     1     139.905  79.107 218.683 -0.08 +0.03    -0.084 Cl 
DOCKED: ENDBRANCH  20  23
DOCKED: BRANCH  21  30
DOCKED: ATOM     30  O   UNL     1     146.409  73.354 219.215 -0.66 -0.27    -0.391 OA 
DOCKED: ATOM     31  H   UNL     1     146.336  74.337 219.308 -0.44 -0.07    +0.211 HD 
DOCKED: ENDBRANCH  21  30
DOCKED: ENDBRANCH   1  18
DOCKED: TORSDOF 6
DOCKED: TER
DOCKED: ENDMDL
________________________________________________________________________________


    FINAL DOCKED STATE:
    ________________________


Run:   8 / 20
Time taken for this run:   0.039s

DOCKED: MODEL        8
DOCKED: USER    Run = 8
DOCKED: USER
DOCKED: USER    Estimated Free Energy of Binding    =  -7.54 kcal/mol  [=(1)+(2)+(3)-(4)]
DOCKED: USER
DOCKED: USER    (1) Final Intermolecular Energy     =  -9.33 kcal/mol
DOCKED: USER        vdW + Hbond + desolv Energy     =  -9.04 kcal/mol
DOCKED: USER        Electrostatic Energy            =  -0.29 kcal/mol
DOCKED: USER        Moving Ligand-Fixed Receptor    =  -9.33 kcal/mol
DOCKED: USER        Moving Ligand-Moving Receptor   =  +0.00 kcal/mol
DOCKED: USER    (2) Final Total Internal Energy     =  -2.86 kcal/mol
DOCKED: USER    (3) Torsional Free Energy           =  +1.79 kcal/mol
DOCKED: USER    (4) Unbound System's Energy         =  -2.86 kcal/mol
DOCKED: USER
DOCKED: USER
DOCKED: REMARK SMILES O=C(NCC(=O)N1C[C@H](O)C[C@H]1c1ccc(Cl)cc1)c1ccc2ccccc2n1
DOCKED: REMARK SMILES IDX 5 1 6 2 4 3 3 4 2 5 1 6 20 8 21 9 29 10 22 11 28 12 23 13
DOCKED: REMARK SMILES IDX 27 14 24 15 26 16 25 17 7 18 8 19 12 20 9 21 11 22 13 23
DOCKED: REMARK SMILES IDX 14 24 19 25 15 26 18 27 16 28 17 29 10 30
DOCKED: REMARK H PARENT 3 7 10 31
DOCKED: USER                              x       y       z     vdW  Elec       q    Type
DOCKED: USER                           _______ _______ _______ _____ _____    ______ ____
DOCKED: ROOT
DOCKED: ATOM      1  C   UNL     1     141.872  72.918 220.440 -0.13 -0.04    +0.242 C  
DOCKED: ATOM      2  O   UNL     1     141.280  72.034 219.707 -0.05 +0.04    -0.273 OA 
DOCKED: ENDROOT
DOCKED: BRANCH   1   3
DOCKED: ATOM      3  C   UNL     1     141.049  73.440 221.529 -0.20 -0.02    +0.216 C  
DOCKED: BRANCH   3   4
DOCKED: ATOM      4  N   UNL     1     141.219  74.817 221.836 -0.09 +0.04    -0.342 N  
DOCKED: ATOM      5  C   UNL     1     140.044  75.622 221.998 -0.21 -0.05    +0.270 C  
DOCKED: ATOM      6  O   UNL     1     138.880  75.158 221.883 -0.25 +0.06    -0.268 OA 
DOCKED: ATOM      7  H   UNL     1     142.188  75.233 221.941 -0.44 -0.07    +0.164 HD 
DOCKED: BRANCH   5   8
DOCKED: ATOM      8  C   UNL     1     140.234  77.036 222.309 -0.34 -0.03    +0.128 A  
DOCKED: ATOM      9  C   UNL     1     139.131  77.883 222.373 -0.29 -0.01    +0.035 A  
DOCKED: ATOM     10  N   UNL     1     141.429  77.589 222.544 -0.20 +0.12    -0.243 NA 
DOCKED: ATOM     11  C   UNL     1     139.248  79.220 222.661 -0.30 -0.00    +0.013 A  
DOCKED: ATOM     12  C   UNL     1     141.582  78.905 222.832 -0.49 -0.03    +0.071 A  
DOCKED: ATOM     13  C   UNL     1     140.489  79.765 222.899 -0.42 -0.00    +0.000 A  
DOCKED: ATOM     14  C   UNL     1     142.836  79.436 223.068 -0.54 -0.01    +0.029 A  
DOCKED: ATOM     15  C   UNL     1     140.621  81.105 223.190 -0.42 -0.00    +0.010 A  
DOCKED: ATOM     16  C   UNL     1     142.948  80.790 223.359 -0.61 -0.00    +0.002 A  
DOCKED: ATOM     17  C   UNL     1     141.864  81.616 223.421 -0.53 -0.00    +0.001 A  
DOCKED: ENDBRANCH   5   8
DOCKED: ENDBRANCH   3   4
DOCKED: ENDBRANCH   1   3
DOCKED: BRANCH   1  18
DOCKED: ATOM     18  N   UNL     1     143.187  73.222 220.075 -0.10 +0.06    -0.331 N  
DOCKED: ATOM     19  C   UNL     1     144.436  72.448 220.245 -0.30 -0.01    +0.152 C  
DOCKED: ATOM     20  C   UNL     1     143.704  74.439 219.416 -0.28 -0.04    +0.118 C  
DOCKED: ATOM     21  C   UNL     1     145.225  72.769 218.944 -0.25 +0.04    +0.136 C  
DOCKED: ATOM     22  C   UNL     1     144.343  73.809 218.223 -0.17 -0.01    +0.063 C  
DOCKED: BRANCH  20  23
DOCKED: ATOM     23  C   UNL     1     142.770  75.506 219.201 -0.28 +0.01    -0.025 A  
DOCKED: ATOM     24  C   UNL     1     143.071  76.779 219.694 -0.36 -0.01    +0.007 A  
DOCKED: ATOM     25  C   UNL     1     141.554  75.386 218.569 -0.11 -0.00    +0.007 A  
DOCKED: ATOM     26  C   UNL     1     142.211  77.843 219.556 -0.29 -0.01    +0.021 A  
DOCKED: ATOM     27  C   UNL     1     140.692  76.449 218.430 -0.07 -0.01    +0.021 A  
DOCKED: ATOM     28  C   UNL     1     140.999  77.695 218.918 -0.14 -0.02    +0.041 A  
DOCKED: ATOM     29  Cl  UNL     1     139.866  79.013 218.716 -0.08 +0.03    -0.084 Cl 
DOCKED: ENDBRANCH  20  23
DOCKED: BRANCH  21  30
DOCKED: ATOM     30  O   UNL     1     146.433  73.346 219.331 -0.66 -0.26    -0.391 OA 
DOCKED: ATOM     31  H   UNL     1     146.362  74.333 219.361 -0.45 -0.07    +0.211 HD 
DOCKED: ENDBRANCH  21  30
DOCKED: ENDBRANCH   1  18
DOCKED: TORSDOF 6
DOCKED: TER
DOCKED: ENDMDL
________________________________________________________________________________


    FINAL DOCKED STATE:
    ________________________


Run:   9 / 20
Time taken for this run:   0.039s

DOCKED: MODEL        9
DOCKED: USER    Run = 9
DOCKED: USER
DOCKED: USER    Estimated Free Energy of Binding    =  -8.58 kcal/mol  [=(1)+(2)+(3)-(4)]
DOCKED: USER
DOCKED: USER    (1) Final Intermolecular Energy     = -10.37 kcal/mol
DOCKED: USER        vdW + Hbond + desolv Energy     = -10.29 kcal/mol
DOCKED: USER        Electrostatic Energy            =  -0.07 kcal/mol
DOCKED: USER        Moving Ligand-Fixed Receptor    = -10.37 kcal/mol
DOCKED: USER        Moving Ligand-Moving Receptor   =  +0.00 kcal/mol
DOCKED: USER    (2) Final Total Internal Energy     =  -1.43 kcal/mol
DOCKED: USER    (3) Torsional Free Energy           =  +1.79 kcal/mol
DOCKED: USER    (4) Unbound System's Energy         =  -1.43 kcal/mol
DOCKED: USER
DOCKED: USER
DOCKED: REMARK SMILES O=C(NCC(=O)N1C[C@H](O)C[C@H]1c1ccc(Cl)cc1)c1ccc2ccccc2n1
DOCKED: REMARK SMILES IDX 5 1 6 2 4 3 3 4 2 5 1 6 20 8 21 9 29 10 22 11 28 12 23 13
DOCKED: REMARK SMILES IDX 27 14 24 15 26 16 25 17 7 18 8 19 12 20 9 21 11 22 13 23
DOCKED: REMARK SMILES IDX 14 24 19 25 15 26 18 27 16 28 17 29 10 30
DOCKED: REMARK H PARENT 3 7 10 31
DOCKED: USER                              x       y       z     vdW  Elec       q    Type
DOCKED: USER                           _______ _______ _______ _____ _____    ______ ____
DOCKED: ROOT
DOCKED: ATOM      1  C   UNL     1     140.827  75.807 221.367 -0.24 -0.07    +0.242 C  
DOCKED: ATOM      2  O   UNL     1     140.531  76.269 222.537 -0.35 +0.06    -0.273 OA 
DOCKED: ENDROOT
DOCKED: BRANCH   1   3
DOCKED: ATOM      3  C   UNL     1     140.374  74.437 221.132 -0.20 -0.04    +0.216 C  
DOCKED: BRANCH   3   4
DOCKED: ATOM      4  N   UNL     1     140.110  73.659 222.291 -0.07 +0.02    -0.342 N  
DOCKED: ATOM      5  C   UNL     1     140.599  72.312 222.324 -0.20 -0.02    +0.270 C  
DOCKED: ATOM      6  O   UNL     1     141.249  71.800 221.376 -0.15 +0.03    -0.268 OA 
DOCKED: ATOM      7  H   UNL     1     139.566  74.065 223.105 -0.52 -0.02    +0.164 HD 
DOCKED: BRANCH   5   8
DOCKED: ATOM      8  C   UNL     1     140.317  71.522 223.519 -0.33 -0.02    +0.128 A  
DOCKED: ATOM      9  C   UNL     1     139.615  70.326 223.407 -0.27 -0.01    +0.035 A  
DOCKED: ATOM     10  N   UNL     1     140.700  71.879 224.751 -0.27 +0.03    -0.243 NA 
DOCKED: ATOM     11  C   UNL     1     139.321  69.542 224.494 -0.34 -0.00    +0.013 A  
DOCKED: ATOM     12  C   UNL     1     140.428  71.130 225.847 -0.54 -0.01    +0.071 A  
DOCKED: ATOM     13  C   UNL     1     139.726  69.932 225.751 -0.47 -0.00    +0.000 A  
DOCKED: ATOM     14  C   UNL     1     140.842  71.535 227.102 -0.73 -0.01    +0.029 A  
DOCKED: ATOM     15  C   UNL     1     139.438  69.153 226.851 -0.52 -0.00    +0.010 A  
DOCKED: ATOM     16  C   UNL     1     140.542  70.738 228.199 -0.64 -0.00    +0.002 A  
DOCKED: ATOM     17  C   UNL     1     139.853  69.566 228.083 -0.63 -0.00    +0.001 A  
DOCKED: ENDBRANCH   5   8
DOCKED: ENDBRANCH   3   4
DOCKED: ENDBRANCH   1   3
DOCKED: BRANCH   1  18
DOCKED: ATOM     18  N   UNL     1     141.522  76.686 220.530 -0.12 +0.16    -0.331 N  
DOCKED: ATOM     19  C   UNL     1     142.499  76.419 219.453 -0.27 -0.09    +0.152 C  
DOCKED: ATOM     20  C   UNL     1     141.478  78.163 220.504 -0.25 -0.06    +0.118 C  
DOCKED: ATOM     21  C   UNL     1     142.163  77.511 218.398 -0.22 -0.08    +0.136 C  
DOCKED: ATOM     22  C   UNL     1     141.072  78.363 219.082 -0.16 -0.03    +0.063 C  
DOCKED: BRANCH  20  23
DOCKED: ATOM     23  C   UNL     1     140.707  78.807 221.527 -0.29 +0.01    -0.025 A  
DOCKED: ATOM     24  C   UNL     1     139.318  78.883 221.382 -0.17 -0.00    +0.007 A  
DOCKED: ATOM     25  C   UNL     1     141.220  79.406 222.654 -0.47 -0.00    +0.007 A  
DOCKED: ATOM     26  C   UNL     1     138.517  79.514 222.304 -0.21 -0.00    +0.021 A  
DOCKED: ATOM     27  C   UNL     1     140.420  80.037 223.577 -0.45 -0.00    +0.021 A  
DOCKED: ATOM     28  C   UNL     1     139.057  80.106 223.424 -0.37 -0.01    +0.041 A  
DOCKED: ATOM     29  Cl  UNL     1     138.085  80.922 224.628 -0.44 +0.01    -0.084 Cl 
DOCKED: ENDBRANCH  20  23
DOCKED: BRANCH  21  30
DOCKED: ATOM     30  O   UNL     1     143.318  78.267 218.212 -0.13 +0.38    -0.391 OA 
DOCKED: ATOM     31  H   UNL     1     143.356  78.640 217.296 -0.26 -0.29    +0.211 HD 
DOCKED: ENDBRANCH  21  30
DOCKED: ENDBRANCH   1  18
DOCKED: TORSDOF 6
DOCKED: TER
DOCKED: ENDMDL
________________________________________________________________________________


    FINAL DOCKED STATE:
    ________________________


Run:   10 / 20
Time taken for this run:   0.039s

DOCKED: MODEL        10
DOCKED: USER    Run = 10
DOCKED: USER
DOCKED: USER    Estimated Free Energy of Binding    =  -7.77 kcal/mol  [=(1)+(2)+(3)-(4)]
DOCKED: USER
DOCKED: USER    (1) Final Intermolecular Energy     =  -9.56 kcal/mol
DOCKED: USER        vdW + Hbond + desolv Energy     =  -9.43 kcal/mol
DOCKED: USER        Electrostatic Energy            =  -0.14 kcal/mol
DOCKED: USER        Moving Ligand-Fixed Receptor    =  -9.56 kcal/mol
DOCKED: USER        Moving Ligand-Moving Receptor   =  +0.00 kcal/mol
DOCKED: USER    (2) Final Total Internal Energy     =  -2.07 kcal/mol
DOCKED: USER    (3) Torsional Free Energy           =  +1.79 kcal/mol
DOCKED: USER    (4) Unbound System's Energy         =  -2.07 kcal/mol
DOCKED: USER
DOCKED: USER
DOCKED: REMARK SMILES O=C(NCC(=O)N1C[C@H](O)C[C@H]1c1ccc(Cl)cc1)c1ccc2ccccc2n1
DOCKED: REMARK SMILES IDX 5 1 6 2 4 3 3 4 2 5 1 6 20 8 21 9 29 10 22 11 28 12 23 13
DOCKED: REMARK SMILES IDX 27 14 24 15 26 16 25 17 7 18 8 19 12 20 9 21 11 22 13 23
DOCKED: REMARK SMILES IDX 14 24 19 25 15 26 18 27 16 28 17 29 10 30
DOCKED: REMARK H PARENT 3 7 10 31
DOCKED: USER                              x       y       z     vdW  Elec       q    Type
DOCKED: USER                           _______ _______ _______ _____ _____    ______ ____
DOCKED: ROOT
DOCKED: ATOM      1  C   UNL     1     139.757  75.242 221.741 -0.22 -0.04    +0.242 C  
DOCKED: ATOM      2  O   UNL     1     139.863  74.106 222.348 -0.83 +0.02    -0.273 OA 
DOCKED: ENDROOT
DOCKED: BRANCH   1   3
DOCKED: ATOM      3  C   UNL     1     138.401  75.788 221.727 -0.18 -0.05    +0.216 C  
DOCKED: BRANCH   3   4
DOCKED: ATOM      4  N   UNL     1     137.501  75.252 222.687 -0.06 +0.12    -0.342 N  
DOCKED: ATOM      5  C   UNL     1     136.419  76.080 223.132 -0.17 -0.06    +0.270 C  
DOCKED: ATOM      6  O   UNL     1     136.237  77.250 222.707 -0.12 +0.04    -0.268 OA 
DOCKED: ATOM      7  H   UNL     1     137.630  74.269 223.061 -0.48 -0.11    +0.164 HD 
DOCKED: BRANCH   5   8
DOCKED: ATOM      8  C   UNL     1     135.505  75.518 224.122 -0.26 -0.02    +0.128 A  
DOCKED: ATOM      9  C   UNL     1     134.701  76.366 224.879 -0.24 -0.00    +0.035 A  
DOCKED: ATOM     10  N   UNL     1     135.382  74.206 224.358 -0.19 +0.05    -0.243 NA 
DOCKED: ATOM     11  C   UNL     1     133.823  75.895 225.824 -0.33 -0.00    +0.013 A  
DOCKED: ATOM     12  C   UNL     1     134.526  73.707 225.282 -0.27 -0.00    +0.071 A  
DOCKED: ATOM     13  C   UNL     1     133.716  74.541 226.047 -0.36 +0.00    +0.000 A  
DOCKED: ATOM     14  C   UNL     1     134.430  72.344 225.494 -0.23 -0.00    +0.029 A  
DOCKED: ATOM     15  C   UNL     1     132.838  74.056 226.992 -0.37 +0.00    +0.010 A  
DOCKED: ATOM     16  C   UNL     1     133.540  71.874 226.451 -0.39 -0.00    +0.002 A  
DOCKED: ATOM     17  C   UNL     1     132.754  72.709 227.191 -0.43 -0.00    +0.001 A  
DOCKED: ENDBRANCH   5   8
DOCKED: ENDBRANCH   3   4
DOCKED: ENDBRANCH   1   3
DOCKED: BRANCH   1  18
DOCKED: ATOM     18  N   UNL     1     140.944  75.755 221.209 -0.16 +0.10    -0.331 N  
DOCKED: ATOM     19  C   UNL     1     142.071  75.074 220.537 -0.23 -0.06    +0.152 C  
DOCKED: ATOM     20  C   UNL     1     141.414  77.156 221.186 -0.22 -0.06    +0.118 C  
DOCKED: ATOM     21  C   UNL     1     142.495  76.095 219.444 -0.26 -0.07    +0.136 C  
DOCKED: ATOM     22  C   UNL     1     141.597  77.321 219.713 -0.24 -0.03    +0.063 C  
DOCKED: BRANCH  20  23
DOCKED: ATOM     23  C   UNL     1     140.613  78.120 221.883 -0.33 +0.01    -0.025 A  
DOCKED: ATOM     24  C   UNL     1     140.982  78.498 223.177 -0.50 -0.00    +0.007 A  
DOCKED: ATOM     25  C   UNL     1     139.465  78.701 221.399 -0.18 -0.00    +0.007 A  
DOCKED: ATOM     26  C   UNL     1     140.246  79.392 223.919 -0.43 -0.00    +0.021 A  
DOCKED: ATOM     27  C   UNL     1     138.727  79.594 222.140 -0.21 -0.00    +0.021 A  
DOCKED: ATOM     28  C   UNL     1     139.099  79.958 223.411 -0.37 -0.01    +0.041 A  
DOCKED: ATOM     29  Cl  UNL     1     138.124  81.099 224.311 -0.41 +0.01    -0.084 Cl 
DOCKED: ENDBRANCH  20  23
DOCKED: BRANCH  21  30
DOCKED: ATOM     30  O   UNL     1     143.830  76.416 219.681 -0.28 +0.30    -0.391 OA 
DOCKED: ATOM     31  H   UNL     1     143.908  77.250 220.207 -0.49 -0.25    +0.211 HD 
DOCKED: ENDBRANCH  21  30
DOCKED: ENDBRANCH   1  18
DOCKED: TORSDOF 6
DOCKED: TER
DOCKED: ENDMDL
________________________________________________________________________________


    FINAL DOCKED STATE:
    ________________________


Run:   11 / 20
Time taken for this run:   0.039s

DOCKED: MODEL        11
DOCKED: USER    Run = 11
DOCKED: USER
DOCKED: USER    Estimated Free Energy of Binding    =  -8.04 kcal/mol  [=(1)+(2)+(3)-(4)]
DOCKED: USER
DOCKED: USER    (1) Final Intermolecular Energy     =  -9.83 kcal/mol
DOCKED: USER        vdW + Hbond + desolv Energy     =  -9.70 kcal/mol
DOCKED: USER        Electrostatic Energy            =  -0.13 kcal/mol
DOCKED: USER        Moving Ligand-Fixed Receptor    =  -9.83 kcal/mol
DOCKED: USER        Moving Ligand-Moving Receptor   =  +0.00 kcal/mol
DOCKED: USER    (2) Final Total Internal Energy     =  -1.66 kcal/mol
DOCKED: USER    (3) Torsional Free Energy           =  +1.79 kcal/mol
DOCKED: USER    (4) Unbound System's Energy         =  -1.66 kcal/mol
DOCKED: USER
DOCKED: USER
DOCKED: REMARK SMILES O=C(NCC(=O)N1C[C@H](O)C[C@H]1c1ccc(Cl)cc1)c1ccc2ccccc2n1
DOCKED: REMARK SMILES IDX 5 1 6 2 4 3 3 4 2 5 1 6 20 8 21 9 29 10 22 11 28 12 23 13
DOCKED: REMARK SMILES IDX 27 14 24 15 26 16 25 17 7 18 8 19 12 20 9 21 11 22 13 23
DOCKED: REMARK SMILES IDX 14 24 19 25 15 26 18 27 16 28 17 29 10 30
DOCKED: REMARK H PARENT 3 7 10 31
DOCKED: USER                              x       y       z     vdW  Elec       q    Type
DOCKED: USER                           _______ _______ _______ _____ _____    ______ ____
DOCKED: ROOT
DOCKED: ATOM      1  C   UNL     1     141.219  73.092 219.374 -0.04 -0.05    +0.242 C  
DOCKED: ATOM      2  O   UNL     1     141.203  73.639 218.203 -0.01 +0.06    -0.273 OA 
DOCKED: ENDROOT
DOCKED: BRANCH   1   3
DOCKED: ATOM      3  C   UNL     1     139.945  72.497 219.774 -0.04 -0.04    +0.216 C  
DOCKED: BRANCH   3   4
DOCKED: ATOM      4  N   UNL     1     139.972  71.694 220.946 -0.05 +0.06    -0.342 N  
DOCKED: ATOM      5  C   UNL     1     140.034  72.357 222.216 -0.20 -0.04    +0.270 C  
DOCKED: ATOM      6  O   UNL     1     140.063  73.610 222.329 -0.82 +0.01    -0.268 OA 
DOCKED: ATOM      7  H   UNL     1     139.946  70.637 220.880 +0.04 -0.03    +0.164 HD 
DOCKED: BRANCH   5   8
DOCKED: ATOM      8  C   UNL     1     140.065  71.520 223.412 -0.32 -0.02    +0.128 A  
DOCKED: ATOM      9  C   UNL     1     139.576  70.217 223.356 -0.26 -0.01    +0.035 A  
DOCKED: ATOM     10  N   UNL     1     140.545  71.930 224.592 -0.23 +0.04    -0.243 NA 
DOCKED: ATOM     11  C   UNL     1     139.579  69.385 224.448 -0.33 -0.00    +0.013 A  
DOCKED: ATOM     12  C   UNL     1     140.564  71.136 225.689 -0.54 -0.01    +0.071 A  
DOCKED: ATOM     13  C   UNL     1     140.079  69.832 225.650 -0.47 -0.00    +0.000 A  
DOCKED: ATOM     14  C   UNL     1     141.069  71.600 226.889 -0.73 -0.00    +0.029 A  
DOCKED: ATOM     15  C   UNL     1     140.088  69.006 226.754 -0.57 -0.00    +0.010 A  
DOCKED: ATOM     16  C   UNL     1     141.070  70.753 227.991 -0.68 -0.00    +0.002 A  
DOCKED: ATOM     17  C   UNL     1     140.590  69.477 227.931 -0.63 -0.00    +0.001 A  
DOCKED: ENDBRANCH   5   8
DOCKED: ENDBRANCH   3   4
DOCKED: ENDBRANCH   1   3
DOCKED: BRANCH   1  18
DOCKED: ATOM     18  N   UNL     1     142.439  73.159 220.054 -0.07 +0.06    -0.331 N  
DOCKED: ATOM     19  C   UNL     1     143.327  72.083 220.545 -0.22 -0.02    +0.152 C  
DOCKED: ATOM     20  C   UNL     1     143.187  74.356 220.491 -0.28 -0.04    +0.118 C  
DOCKED: ATOM     21  C   UNL     1     144.748  72.666 220.304 -0.36 -0.01    +0.136 C  
DOCKED: ATOM     22  C   UNL     1     144.480  74.096 219.791 -0.38 -0.02    +0.063 C  
DOCKED: BRANCH  20  23
DOCKED: ATOM     23  C   UNL     1     142.552  75.626 220.293 -0.26 +0.01    -0.025 A  
DOCKED: ATOM     24  C   UNL     1     141.458  75.969 221.094 -0.30 -0.00    +0.007 A  
DOCKED: ATOM     25  C   UNL     1     142.902  76.552 219.339 -0.37 -0.00    +0.007 A  
DOCKED: ATOM     26  C   UNL     1     140.778  77.153 220.941 -0.26 -0.01    +0.021 A  
DOCKED: ATOM     27  C   UNL     1     142.223  77.738 219.184 -0.29 -0.01    +0.021 A  
DOCKED: ATOM     28  C   UNL     1     141.150  78.064 219.977 -0.22 -0.02    +0.041 A  
DOCKED: ATOM     29  Cl  UNL     1     140.320  79.585 219.737 -0.17 +0.03    -0.084 Cl 
DOCKED: ENDBRANCH  20  23
DOCKED: BRANCH  21  30
DOCKED: ATOM     30  O   UNL     1     145.386  72.710 221.542 -0.25 +0.12    -0.391 OA 
DOCKED: ATOM     31  H   UNL     1     145.222  71.881 222.057 -0.40 -0.18    +0.211 HD 
DOCKED: ENDBRANCH  21  30
DOCKED: ENDBRANCH   1  18
DOCKED: TORSDOF 6
DOCKED: TER
DOCKED: ENDMDL
________________________________________________________________________________


    FINAL DOCKED STATE:
    ________________________


Run:   12 / 20
Time taken for this run:   0.039s

DOCKED: MODEL        12
DOCKED: USER    Run = 12
DOCKED: USER
DOCKED: USER    Estimated Free Energy of Binding    =  -7.55 kcal/mol  [=(1)+(2)+(3)-(4)]
DOCKED: USER
DOCKED: USER    (1) Final Intermolecular Energy     =  -9.34 kcal/mol
DOCKED: USER        vdW + Hbond + desolv Energy     =  -9.06 kcal/mol
DOCKED: USER        Electrostatic Energy            =  -0.28 kcal/mol
DOCKED: USER        Moving Ligand-Fixed Receptor    =  -9.34 kcal/mol
DOCKED: USER        Moving Ligand-Moving Receptor   =  +0.00 kcal/mol
DOCKED: USER    (2) Final Total Internal Energy     =  -2.87 kcal/mol
DOCKED: USER    (3) Torsional Free Energy           =  +1.79 kcal/mol
DOCKED: USER    (4) Unbound System's Energy         =  -2.87 kcal/mol
DOCKED: USER
DOCKED: USER
DOCKED: REMARK SMILES O=C(NCC(=O)N1C[C@H](O)C[C@H]1c1ccc(Cl)cc1)c1ccc2ccccc2n1
DOCKED: REMARK SMILES IDX 5 1 6 2 4 3 3 4 2 5 1 6 20 8 21 9 29 10 22 11 28 12 23 13
DOCKED: REMARK SMILES IDX 27 14 24 15 26 16 25 17 7 18 8 19 12 20 9 21 11 22 13 23
DOCKED: REMARK SMILES IDX 14 24 19 25 15 26 18 27 16 28 17 29 10 30
DOCKED: REMARK H PARENT 3 7 10 31
DOCKED: USER                              x       y       z     vdW  Elec       q    Type
DOCKED: USER                           _______ _______ _______ _____ _____    ______ ____
DOCKED: ROOT
DOCKED: ATOM      1  C   UNL     1     141.851  72.968 220.446 -0.13 -0.04    +0.242 C  
DOCKED: ATOM      2  O   UNL     1     141.247  72.113 219.688 -0.05 +0.05    -0.273 OA 
DOCKED: ENDROOT
DOCKED: BRANCH   1   3
DOCKED: ATOM      3  C   UNL     1     141.033  73.474 221.547 -0.20 -0.02    +0.216 C  
DOCKED: BRANCH   3   4
DOCKED: ATOM      4  N   UNL     1     141.206  74.845 221.875 -0.09 +0.04    -0.342 N  
DOCKED: ATOM      5  C   UNL     1     140.034  75.658 222.019 -0.20 -0.05    +0.270 C  
DOCKED: ATOM      6  O   UNL     1     138.869  75.205 221.870 -0.24 +0.06    -0.268 OA 
DOCKED: ATOM      7  H   UNL     1     142.176  75.252 222.008 -0.46 -0.07    +0.164 HD 
DOCKED: BRANCH   5   8
DOCKED: ATOM      8  C   UNL     1     140.227  77.066 222.353 -0.34 -0.03    +0.128 A  
DOCKED: ATOM      9  C   UNL     1     139.124  77.906 222.469 -0.29 -0.01    +0.035 A  
DOCKED: ATOM     10  N   UNL     1     141.428  77.621 222.561 -0.21 +0.12    -0.243 NA 
DOCKED: ATOM     11  C   UNL     1     139.244  79.237 222.780 -0.32 -0.00    +0.013 A  
DOCKED: ATOM     12  C   UNL     1     141.583  78.931 222.870 -0.49 -0.03    +0.071 A  
DOCKED: ATOM     13  C   UNL     1     140.490  79.784 222.989 -0.43 -0.00    +0.000 A  
DOCKED: ATOM     14  C   UNL     1     142.842  79.464 223.077 -0.54 -0.01    +0.029 A  
DOCKED: ATOM     15  C   UNL     1     140.624  81.119 223.303 -0.42 -0.00    +0.010 A  
DOCKED: ATOM     16  C   UNL     1     142.957  80.812 223.392 -0.61 -0.00    +0.002 A  
DOCKED: ATOM     17  C   UNL     1     141.872  81.631 223.505 -0.53 -0.00    +0.001 A  
DOCKED: ENDBRANCH   5   8
DOCKED: ENDBRANCH   3   4
DOCKED: ENDBRANCH   1   3
DOCKED: BRANCH   1  18
DOCKED: ATOM     18  N   UNL     1     143.171  73.261 220.092 -0.10 +0.07    -0.331 N  
DOCKED: ATOM     19  C   UNL     1     144.412  72.476 220.267 -0.30 -0.02    +0.152 C  
DOCKED: ATOM     20  C   UNL     1     143.703  74.477 219.441 -0.28 -0.04    +0.118 C  
DOCKED: ATOM     21  C   UNL     1     145.213  72.795 218.973 -0.25 +0.03    +0.136 C  
DOCKED: ATOM     22  C   UNL     1     144.345  73.846 218.250 -0.16 -0.01    +0.063 C  
DOCKED: BRANCH  20  23
DOCKED: ATOM     23  C   UNL     1     142.780  75.553 219.224 -0.29 +0.01    -0.025 A  
DOCKED: ATOM     24  C   UNL     1     143.086  76.820 219.730 -0.32 -0.01    +0.007 A  
DOCKED: ATOM     25  C   UNL     1     141.572  75.448 218.577 -0.11 -0.00    +0.007 A  
DOCKED: ATOM     26  C   UNL     1     142.237  77.892 219.591 -0.27 -0.01    +0.021 A  
DOCKED: ATOM     27  C   UNL     1     140.720  76.519 218.437 -0.08 -0.01    +0.021 A  
DOCKED: ATOM     28  C   UNL     1     141.031  77.759 218.938 -0.14 -0.02    +0.041 A  
DOCKED: ATOM     29  Cl  UNL     1     139.912  79.088 218.733 -0.08 +0.03    -0.084 Cl 
DOCKED: ENDBRANCH  20  23
DOCKED: BRANCH  21  30
DOCKED: ATOM     30  O   UNL     1     146.423  73.359 219.371 -0.66 -0.24    -0.391 OA 
DOCKED: ATOM     31  H   UNL     1     146.375  74.348 219.361 -0.45 -0.07    +0.211 HD 
DOCKED: ENDBRANCH  21  30
DOCKED: ENDBRANCH   1  18
DOCKED: TORSDOF 6
DOCKED: TER
DOCKED: ENDMDL
________________________________________________________________________________


    FINAL DOCKED STATE:
    ________________________


Run:   13 / 20
Time taken for this run:   0.039s

DOCKED: MODEL        13
DOCKED: USER    Run = 13
DOCKED: USER
DOCKED: USER    Estimated Free Energy of Binding    =  -7.57 kcal/mol  [=(1)+(2)+(3)-(4)]
DOCKED: USER
DOCKED: USER    (1) Final Intermolecular Energy     =  -9.36 kcal/mol
DOCKED: USER        vdW + Hbond + desolv Energy     =  -9.08 kcal/mol
DOCKED: USER        Electrostatic Energy            =  -0.28 kcal/mol
DOCKED: USER        Moving Ligand-Fixed Receptor    =  -9.36 kcal/mol
DOCKED: USER        Moving Ligand-Moving Receptor   =  +0.00 kcal/mol
DOCKED: USER    (2) Final Total Internal Energy     =  -2.85 kcal/mol
DOCKED: USER    (3) Torsional Free Energy           =  +1.79 kcal/mol
DOCKED: USER    (4) Unbound System's Energy         =  -2.85 kcal/mol
DOCKED: USER
DOCKED: USER
DOCKED: REMARK SMILES O=C(NCC(=O)N1C[C@H](O)C[C@H]1c1ccc(Cl)cc1)c1ccc2ccccc2n1
DOCKED: REMARK SMILES IDX 5 1 6 2 4 3 3 4 2 5 1 6 20 8 21 9 29 10 22 11 28 12 23 13
DOCKED: REMARK SMILES IDX 27 14 24 15 26 16 25 17 7 18 8 19 12 20 9 21 11 22 13 23
DOCKED: REMARK SMILES IDX 14 24 19 25 15 26 18 27 16 28 17 29 10 30
DOCKED: REMARK H PARENT 3 7 10 31
DOCKED: USER                              x       y       z     vdW  Elec       q    Type
DOCKED: USER                           _______ _______ _______ _____ _____    ______ ____
DOCKED: ROOT
DOCKED: ATOM      1  C   UNL     1     141.865  72.938 220.471 -0.13 -0.04    +0.242 C  
DOCKED: ATOM      2  O   UNL     1     141.274  72.053 219.738 -0.05 +0.04    -0.273 OA 
DOCKED: ENDROOT
DOCKED: BRANCH   1   3
DOCKED: ATOM      3  C   UNL     1     141.038  73.464 221.556 -0.20 -0.02    +0.216 C  
DOCKED: BRANCH   3   4
DOCKED: ATOM      4  N   UNL     1     141.209  74.841 221.861 -0.09 +0.04    -0.342 N  
DOCKED: ATOM      5  C   UNL     1     140.035  75.641 222.048 -0.19 -0.05    +0.270 C  
DOCKED: ATOM      6  O   UNL     1     138.871  75.174 221.956 -0.26 +0.06    -0.268 OA 
DOCKED: ATOM      7  H   UNL     1     142.179  75.261 221.946 -0.46 -0.07    +0.164 HD 
DOCKED: BRANCH   5   8
DOCKED: ATOM      8  C   UNL     1     140.226  77.056 222.357 -0.34 -0.03    +0.128 A  
DOCKED: ATOM      9  C   UNL     1     139.122  77.900 222.438 -0.29 -0.01    +0.035 A  
DOCKED: ATOM     10  N   UNL     1     141.424  77.612 222.574 -0.21 +0.12    -0.243 NA 
DOCKED: ATOM     11  C   UNL     1     139.241  79.237 222.725 -0.31 -0.00    +0.013 A  
DOCKED: ATOM     12  C   UNL     1     141.578  78.928 222.860 -0.49 -0.03    +0.071 A  
DOCKED: ATOM     13  C   UNL     1     140.484  79.785 222.944 -0.43 -0.00    +0.000 A  
DOCKED: ATOM     14  C   UNL     1     142.834  79.462 223.077 -0.55 -0.01    +0.029 A  
DOCKED: ATOM     15  C   UNL     1     140.616  81.126 223.233 -0.42 -0.00    +0.010 A  
DOCKED: ATOM     16  C   UNL     1     142.947  80.816 223.367 -0.61 -0.00    +0.002 A  
DOCKED: ATOM     17  C   UNL     1     141.862  81.640 223.446 -0.53 -0.00    +0.001 A  
DOCKED: ENDBRANCH   5   8
DOCKED: ENDBRANCH   3   4
DOCKED: ENDBRANCH   1   3
DOCKED: BRANCH   1  18
DOCKED: ATOM     18  N   UNL     1     143.181  73.240 220.109 -0.10 +0.06    -0.331 N  
DOCKED: ATOM     19  C   UNL     1     144.429  72.466 220.284 -0.30 -0.02    +0.152 C  
DOCKED: ATOM     20  C   UNL     1     143.700  74.456 219.449 -0.28 -0.04    +0.118 C  
DOCKED: ATOM     21  C   UNL     1     145.222  72.783 218.985 -0.26 +0.03    +0.136 C  
DOCKED: ATOM     22  C   UNL     1     144.343  73.824 218.259 -0.17 -0.01    +0.063 C  
DOCKED: BRANCH  20  23
DOCKED: ATOM     23  C   UNL     1     142.768  75.523 219.230 -0.28 +0.01    -0.025 A  
DOCKED: ATOM     24  C   UNL     1     143.072  76.799 219.715 -0.35 -0.01    +0.007 A  
DOCKED: ATOM     25  C   UNL     1     141.552  75.402 218.601 -0.11 -0.00    +0.007 A  
DOCKED: ATOM     26  C   UNL     1     142.214  77.863 219.573 -0.28 -0.01    +0.021 A  
DOCKED: ATOM     27  C   UNL     1     140.691  76.465 218.457 -0.07 -0.01    +0.021 A  
DOCKED: ATOM     28  C   UNL     1     141.001  77.714 218.938 -0.14 -0.02    +0.041 A  
DOCKED: ATOM     29  Cl  UNL     1     139.870  79.033 218.730 -0.08 +0.03    -0.084 Cl 
DOCKED: ENDBRANCH  20  23
DOCKED: BRANCH  21  30
DOCKED: ATOM     30  O   UNL     1     146.429  73.360 219.374 -0.66 -0.24    -0.391 OA 
DOCKED: ATOM     31  H   UNL     1     146.367  74.348 219.377 -0.45 -0.07    +0.211 HD 
DOCKED: ENDBRANCH  21  30
DOCKED: ENDBRANCH   1  18
DOCKED: TORSDOF 6
DOCKED: TER
DOCKED: ENDMDL
________________________________________________________________________________


    FINAL DOCKED STATE:
    ________________________


Run:   14 / 20
Time taken for this run:   0.039s

DOCKED: MODEL        14
DOCKED: USER    Run = 14
DOCKED: USER
DOCKED: USER    Estimated Free Energy of Binding    =  -9.20 kcal/mol  [=(1)+(2)+(3)-(4)]
DOCKED: USER
DOCKED: USER    (1) Final Intermolecular Energy     = -10.99 kcal/mol
DOCKED: USER        vdW + Hbond + desolv Energy     = -10.85 kcal/mol
DOCKED: USER        Electrostatic Energy            =  -0.14 kcal/mol
DOCKED: USER        Moving Ligand-Fixed Receptor    = -10.99 kcal/mol
DOCKED: USER        Moving Ligand-Moving Receptor   =  +0.00 kcal/mol
DOCKED: USER    (2) Final Total Internal Energy     =  -1.18 kcal/mol
DOCKED: USER    (3) Torsional Free Energy           =  +1.79 kcal/mol
DOCKED: USER    (4) Unbound System's Energy         =  -1.18 kcal/mol
DOCKED: USER
DOCKED: USER
DOCKED: REMARK SMILES O=C(NCC(=O)N1C[C@H](O)C[C@H]1c1ccc(Cl)cc1)c1ccc2ccccc2n1
DOCKED: REMARK SMILES IDX 5 1 6 2 4 3 3 4 2 5 1 6 20 8 21 9 29 10 22 11 28 12 23 13
DOCKED: REMARK SMILES IDX 27 14 24 15 26 16 25 17 7 18 8 19 12 20 9 21 11 22 13 23
DOCKED: REMARK SMILES IDX 14 24 19 25 15 26 18 27 16 28 17 29 10 30
DOCKED: REMARK H PARENT 3 7 10 31
DOCKED: USER                              x       y       z     vdW  Elec       q    Type
DOCKED: USER                           _______ _______ _______ _____ _____    ______ ____
DOCKED: ROOT
DOCKED: ATOM      1  C   UNL     1     139.965  75.241 221.715 -0.22 -0.04    +0.242 C  
DOCKED: ATOM      2  O   UNL     1     139.443  75.881 222.708 -0.41 +0.05    -0.273 OA 
DOCKED: ENDROOT
DOCKED: BRANCH   1   3
DOCKED: ATOM      3  C   UNL     1     139.296  73.980 221.399 -0.17 -0.04    +0.216 C  
DOCKED: BRANCH   3   4
DOCKED: ATOM      4  N   UNL     1     139.187  73.046 222.464 -0.04 +0.09    -0.342 N  
DOCKED: ATOM      5  C   UNL     1     140.305  72.190 222.728 -0.22 -0.03    +0.270 C  
DOCKED: ATOM      6  O   UNL     1     141.370  72.235 222.059 -0.21 +0.01    -0.268 OA 
DOCKED: ATOM      7  H   UNL     1     138.302  72.988 223.045 -0.46 -0.09    +0.164 HD 
DOCKED: BRANCH   5   8
DOCKED: ATOM      8  C   UNL     1     140.177  71.232 223.823 -0.34 -0.02    +0.128 A  
DOCKED: ATOM      9  C   UNL     1     139.518  70.025 223.612 -0.27 -0.01    +0.035 A  
DOCKED: ATOM     10  N   UNL     1     140.666  71.442 225.051 -0.33 +0.03    -0.243 NA 
DOCKED: ATOM     11  C   UNL     1     139.368  69.088 224.603 -0.35 -0.00    +0.013 A  
DOCKED: ATOM     12  C   UNL     1     140.536  70.539 226.053 -0.52 -0.01    +0.071 A  
DOCKED: ATOM     13  C   UNL     1     139.879  69.328 225.858 -0.48 -0.00    +0.000 A  
DOCKED: ATOM     14  C   UNL     1     141.056  70.796 227.308 -0.64 -0.00    +0.029 A  
DOCKED: ATOM     15  C   UNL     1     139.736  68.394 226.862 -0.61 -0.00    +0.010 A  
DOCKED: ATOM     16  C   UNL     1     140.901  69.843 228.307 -0.58 -0.00    +0.002 A  
DOCKED: ATOM     17  C   UNL     1     140.254  68.661 228.096 -0.66 -0.00    +0.001 A  
DOCKED: ENDBRANCH   5   8
DOCKED: ENDBRANCH   3   4
DOCKED: ENDBRANCH   1   3
DOCKED: BRANCH   1  18
DOCKED: ATOM     18  N   UNL     1     141.067  75.855 221.113 -0.16 +0.11    -0.331 N  
DOCKED: ATOM     19  C   UNL     1     142.197  75.275 220.356 -0.24 -0.06    +0.152 C  
DOCKED: ATOM     20  C   UNL     1     141.420  77.289 221.081 -0.24 -0.06    +0.118 C  
DOCKED: ATOM     21  C   UNL     1     142.462  76.339 219.254 -0.26 -0.07    +0.136 C  
DOCKED: ATOM     22  C   UNL     1     141.488  77.484 219.602 -0.22 -0.03    +0.063 C  
DOCKED: BRANCH  20  23
DOCKED: ATOM     23  C   UNL     1     140.593  78.178 221.845 -0.33 +0.01    -0.025 A  
DOCKED: ATOM     24  C   UNL     1     141.070  78.665 223.066 -0.52 -0.00    +0.007 A  
DOCKED: ATOM     25  C   UNL     1     139.325  78.581 221.500 -0.19 -0.00    +0.007 A  
DOCKED: ATOM     26  C   UNL     1     140.323  79.494 223.869 -0.45 -0.00    +0.021 A  
DOCKED: ATOM     27  C   UNL     1     138.575  79.409 222.301 -0.22 -0.00    +0.021 A  
DOCKED: ATOM     28  C   UNL     1     139.055  79.882 223.499 -0.38 -0.01    +0.041 A  
DOCKED: ATOM     29  Cl  UNL     1     138.059  80.933 224.482 -0.46 +0.01    -0.084 Cl 
DOCKED: ENDBRANCH  20  23
DOCKED: BRANCH  21  30
DOCKED: ATOM     30  O   UNL     1     143.780  76.765 219.406 -0.22 +0.31    -0.391 OA 
DOCKED: ATOM     31  H   UNL     1     143.842  77.505 220.060 -0.49 -0.27    +0.211 HD 
DOCKED: ENDBRANCH  21  30
DOCKED: ENDBRANCH   1  18
DOCKED: TORSDOF 6
DOCKED: TER
DOCKED: ENDMDL
________________________________________________________________________________


    FINAL DOCKED STATE:
    ________________________


Run:   15 / 20
Time taken for this run:   0.039s

DOCKED: MODEL        15
DOCKED: USER    Run = 15
DOCKED: USER
DOCKED: USER    Estimated Free Energy of Binding    =  -7.52 kcal/mol  [=(1)+(2)+(3)-(4)]
DOCKED: USER
DOCKED: USER    (1) Final Intermolecular Energy     =  -9.31 kcal/mol
DOCKED: USER        vdW + Hbond + desolv Energy     =  -8.98 kcal/mol
DOCKED: USER        Electrostatic Energy            =  -0.33 kcal/mol
DOCKED: USER        Moving Ligand-Fixed Receptor    =  -9.31 kcal/mol
DOCKED: USER        Moving Ligand-Moving Receptor   =  +0.00 kcal/mol
DOCKED: USER    (2) Final Total Internal Energy     =  -2.83 kcal/mol
DOCKED: USER    (3) Torsional Free Energy           =  +1.79 kcal/mol
DOCKED: USER    (4) Unbound System's Energy         =  -2.83 kcal/mol
DOCKED: USER
DOCKED: USER
DOCKED: REMARK SMILES O=C(NCC(=O)N1C[C@H](O)C[C@H]1c1ccc(Cl)cc1)c1ccc2ccccc2n1
DOCKED: REMARK SMILES IDX 5 1 6 2 4 3 3 4 2 5 1 6 20 8 21 9 29 10 22 11 28 12 23 13
DOCKED: REMARK SMILES IDX 27 14 24 15 26 16 25 17 7 18 8 19 12 20 9 21 11 22 13 23
DOCKED: REMARK SMILES IDX 14 24 19 25 15 26 18 27 16 28 17 29 10 30
DOCKED: REMARK H PARENT 3 7 10 31
DOCKED: USER                              x       y       z     vdW  Elec       q    Type
DOCKED: USER                           _______ _______ _______ _____ _____    ______ ____
DOCKED: ROOT
DOCKED: ATOM      1  C   UNL     1     141.798  72.950 220.340 -0.12 -0.04    +0.242 C  
DOCKED: ATOM      2  O   UNL     1     141.089  72.202 219.562 -0.04 +0.05    -0.273 OA 
DOCKED: ENDROOT
DOCKED: BRANCH   1   3
DOCKED: ATOM      3  C   UNL     1     141.087  73.422 221.527 -0.19 -0.02    +0.216 C  
DOCKED: BRANCH   3   4
DOCKED: ATOM      4  N   UNL     1     141.241  74.799 221.841 -0.08 +0.04    -0.342 N  
DOCKED: ATOM      5  C   UNL     1     140.057  75.583 222.036 -0.18 -0.05    +0.270 C  
DOCKED: ATOM      6  O   UNL     1     138.898  75.100 221.942 -0.27 +0.06    -0.268 OA 
DOCKED: ATOM      7  H   UNL     1     142.205  75.231 221.927 -0.45 -0.07    +0.164 HD 
DOCKED: BRANCH   5   8
DOCKED: ATOM      8  C   UNL     1     140.229  76.997 222.354 -0.34 -0.03    +0.128 A  
DOCKED: ATOM      9  C   UNL     1     139.116  77.831 222.422 -0.29 -0.01    +0.035 A  
DOCKED: ATOM     10  N   UNL     1     141.418  77.564 222.591 -0.20 +0.12    -0.243 NA 
DOCKED: ATOM     11  C   UNL     1     139.217  79.167 222.717 -0.31 -0.00    +0.013 A  
DOCKED: ATOM     12  C   UNL     1     141.555  78.880 222.885 -0.49 -0.03    +0.071 A  
DOCKED: ATOM     13  C   UNL     1     140.452  79.726 222.957 -0.42 -0.00    +0.000 A  
DOCKED: ATOM     14  C   UNL     1     142.802  79.425 223.124 -0.53 -0.01    +0.029 A  
DOCKED: ATOM     15  C   UNL     1     140.567  81.067 223.255 -0.42 -0.00    +0.010 A  
DOCKED: ATOM     16  C   UNL     1     142.898  80.779 223.422 -0.63 -0.00    +0.002 A  
DOCKED: ATOM     17  C   UNL     1     141.804  81.592 223.488 -0.54 -0.00    +0.001 A  
DOCKED: ENDBRANCH   5   8
DOCKED: ENDBRANCH   3   4
DOCKED: ENDBRANCH   1   3
DOCKED: BRANCH   1  18
DOCKED: ATOM     18  N   UNL     1     143.113  73.180 219.923 -0.09 +0.06    -0.331 N  
DOCKED: ATOM     19  C   UNL     1     144.307  72.310 219.983 -0.26 -0.01    +0.152 C  
DOCKED: ATOM     20  C   UNL     1     143.686  74.393 219.305 -0.26 -0.04    +0.118 C  
DOCKED: ATOM     21  C   UNL     1     145.053  72.648 218.661 -0.21 +0.04    +0.136 C  
DOCKED: ATOM     22  C   UNL     1     144.217  73.790 218.046 -0.16 -0.01    +0.063 C  
DOCKED: BRANCH  20  23
DOCKED: ATOM     23  C   UNL     1     142.825  75.536 219.199 -0.29 +0.01    -0.025 A  
DOCKED: ATOM     24  C   UNL     1     141.649  75.431 218.449 -0.11 -0.00    +0.007 A  
DOCKED: ATOM     25  C   UNL     1     143.069  76.771 219.751 -0.34 -0.01    +0.007 A  
DOCKED: ATOM     26  C   UNL     1     140.792  76.491 218.276 -0.07 -0.01    +0.021 A  
DOCKED: ATOM     27  C   UNL     1     142.213  77.833 219.578 -0.28 -0.01    +0.021 A  
DOCKED: ATOM     28  C   UNL     1     141.060  77.719 218.840 -0.14 -0.02    +0.041 A  
DOCKED: ATOM     29  Cl  UNL     1     140.006  79.102 218.650 -0.09 +0.03    -0.084 Cl 
DOCKED: ENDBRANCH  20  23
DOCKED: BRANCH  21  30
DOCKED: ATOM     30  O   UNL     1     146.318  73.113 219.014 -0.70 -0.36    -0.391 OA 
DOCKED: ATOM     31  H   UNL     1     146.380  74.095 218.905 -0.47 -0.01    +0.211 HD 
DOCKED: ENDBRANCH  21  30
DOCKED: ENDBRANCH   1  18
DOCKED: TORSDOF 6
DOCKED: TER
DOCKED: ENDMDL
________________________________________________________________________________


    FINAL DOCKED STATE:
    ________________________


Run:   16 / 20
Time taken for this run:   0.039s

DOCKED: MODEL        16
DOCKED: USER    Run = 16
DOCKED: USER
DOCKED: USER    Estimated Free Energy of Binding    =  -7.80 kcal/mol  [=(1)+(2)+(3)-(4)]
DOCKED: USER
DOCKED: USER    (1) Final Intermolecular Energy     =  -9.59 kcal/mol
DOCKED: USER        vdW + Hbond + desolv Energy     =  -9.36 kcal/mol
DOCKED: USER        Electrostatic Energy            =  -0.23 kcal/mol
DOCKED: USER        Moving Ligand-Fixed Receptor    =  -9.59 kcal/mol
DOCKED: USER        Moving Ligand-Moving Receptor   =  +0.00 kcal/mol
DOCKED: USER    (2) Final Total Internal Energy     =  -2.23 kcal/mol
DOCKED: USER    (3) Torsional Free Energy           =  +1.79 kcal/mol
DOCKED: USER    (4) Unbound System's Energy         =  -2.23 kcal/mol
DOCKED: USER
DOCKED: USER
DOCKED: REMARK SMILES O=C(NCC(=O)N1C[C@H](O)C[C@H]1c1ccc(Cl)cc1)c1ccc2ccccc2n1
DOCKED: REMARK SMILES IDX 5 1 6 2 4 3 3 4 2 5 1 6 20 8 21 9 29 10 22 11 28 12 23 13
DOCKED: REMARK SMILES IDX 27 14 24 15 26 16 25 17 7 18 8 19 12 20 9 21 11 22 13 23
DOCKED: REMARK SMILES IDX 14 24 19 25 15 26 18 27 16 28 17 29 10 30
DOCKED: REMARK H PARENT 3 7 10 31
DOCKED: USER                              x       y       z     vdW  Elec       q    Type
DOCKED: USER                           _______ _______ _______ _____ _____    ______ ____
DOCKED: ROOT
DOCKED: ATOM      1  C   UNL     1     141.733  73.239 220.202 -0.12 -0.05    +0.242 C  
DOCKED: ATOM      2  O   UNL     1     141.031  72.997 219.145 -0.02 +0.05    -0.273 OA 
DOCKED: ENDROOT
DOCKED: BRANCH   1   3
DOCKED: ATOM      3  C   UNL     1     140.942  73.594 221.379 -0.20 -0.03    +0.216 C  
DOCKED: BRANCH   3   4
DOCKED: ATOM      4  N   UNL     1     141.115  74.914 221.873 -0.13 +0.04    -0.342 N  
DOCKED: ATOM      5  C   UNL     1     140.030  75.838 221.721 -0.23 -0.06    +0.270 C  
DOCKED: ATOM      6  O   UNL     1     138.940  75.526 221.175 -0.11 +0.06    -0.268 OA 
DOCKED: ATOM      7  H   UNL     1     142.021  75.204 222.339 -0.31 -0.04    +0.164 HD 
DOCKED: BRANCH   5   8
DOCKED: ATOM      8  C   UNL     1     140.222  77.193 222.230 -0.33 -0.03    +0.128 A  
DOCKED: ATOM      9  C   UNL     1     139.117  77.962 222.584 -0.29 -0.01    +0.035 A  
DOCKED: ATOM     10  N   UNL     1     141.424  77.763 222.384 -0.23 +0.12    -0.243 NA 
DOCKED: ATOM     11  C   UNL     1     139.238  79.241 223.068 -0.35 -0.00    +0.013 A  
DOCKED: ATOM     12  C   UNL     1     141.579  79.023 222.859 -0.49 -0.03    +0.071 A  
DOCKED: ATOM     13  C   UNL     1     140.484  79.804 223.217 -0.46 -0.00    +0.000 A  
DOCKED: ATOM     14  C   UNL     1     142.839  79.574 223.002 -0.57 -0.01    +0.029 A  
DOCKED: ATOM     15  C   UNL     1     140.618  81.087 223.702 -0.36 -0.00    +0.010 A  
DOCKED: ATOM     16  C   UNL     1     142.954  80.869 223.493 -0.62 -0.00    +0.002 A  
DOCKED: ATOM     17  C   UNL     1     141.868  81.618 223.839 -0.53 -0.00    +0.001 A  
DOCKED: ENDBRANCH   5   8
DOCKED: ENDBRANCH   3   4
DOCKED: ENDBRANCH   1   3
DOCKED: BRANCH   1  18
DOCKED: ATOM     18  N   UNL     1     143.118  73.119 220.046 -0.09 +0.06    -0.331 N  
DOCKED: ATOM     19  C   UNL     1     144.038  72.024 220.421 -0.25 -0.02    +0.152 C  
DOCKED: ATOM     20  C   UNL     1     144.067  74.089 219.460 -0.29 -0.04    +0.118 C  
DOCKED: ATOM     21  C   UNL     1     145.069  72.020 219.257 -0.25 +0.04    +0.136 C  
DOCKED: ATOM     22  C   UNL     1     144.656  73.229 218.392 -0.20 -0.00    +0.063 C  
DOCKED: BRANCH  20  23
DOCKED: ATOM     23  C   UNL     1     143.538  75.369 219.087 -0.32 +0.01    -0.025 A  
DOCKED: ATOM     24  C   UNL     1     143.571  75.749 217.742 -0.23 -0.00    +0.007 A  
DOCKED: ATOM     25  C   UNL     1     143.019  76.301 219.954 -0.31 -0.00    +0.007 A  
DOCKED: ATOM     26  C   UNL     1     143.114  76.972 217.312 -0.26 -0.01    +0.021 A  
DOCKED: ATOM     27  C   UNL     1     142.562  77.525 219.528 -0.28 -0.02    +0.021 A  
DOCKED: ATOM     28  C   UNL     1     142.598  77.888 218.203 -0.31 -0.03    +0.041 A  
DOCKED: ATOM     29  Cl  UNL     1     142.004  79.459 217.713 -0.33 +0.07    -0.084 Cl 
DOCKED: ENDBRANCH  20  23
DOCKED: BRANCH  21  30
DOCKED: ATOM     30  O   UNL     1     146.324  72.238 219.823 -0.52 -0.31    -0.391 OA 
DOCKED: ATOM     31  H   UNL     1     146.370  71.870 220.740 -0.39 +0.01    +0.211 HD 
DOCKED: ENDBRANCH  21  30
DOCKED: ENDBRANCH   1  18
DOCKED: TORSDOF 6
DOCKED: TER
DOCKED: ENDMDL
________________________________________________________________________________


    FINAL DOCKED STATE:
    ________________________


Run:   17 / 20
Time taken for this run:   0.039s

DOCKED: MODEL        17
DOCKED: USER    Run = 17
DOCKED: USER
DOCKED: USER    Estimated Free Energy of Binding    =  -9.15 kcal/mol  [=(1)+(2)+(3)-(4)]
DOCKED: USER
DOCKED: USER    (1) Final Intermolecular Energy     = -10.94 kcal/mol
DOCKED: USER        vdW + Hbond + desolv Energy     = -10.80 kcal/mol
DOCKED: USER        Electrostatic Energy            =  -0.13 kcal/mol
DOCKED: USER        Moving Ligand-Fixed Receptor    = -10.94 kcal/mol
DOCKED: USER        Moving Ligand-Moving Receptor   =  +0.00 kcal/mol
DOCKED: USER    (2) Final Total Internal Energy     =  -1.16 kcal/mol
DOCKED: USER    (3) Torsional Free Energy           =  +1.79 kcal/mol
DOCKED: USER    (4) Unbound System's Energy         =  -1.16 kcal/mol
DOCKED: USER
DOCKED: USER
DOCKED: REMARK SMILES O=C(NCC(=O)N1C[C@H](O)C[C@H]1c1ccc(Cl)cc1)c1ccc2ccccc2n1
DOCKED: REMARK SMILES IDX 5 1 6 2 4 3 3 4 2 5 1 6 20 8 21 9 29 10 22 11 28 12 23 13
DOCKED: REMARK SMILES IDX 27 14 24 15 26 16 25 17 7 18 8 19 12 20 9 21 11 22 13 23
DOCKED: REMARK SMILES IDX 14 24 19 25 15 26 18 27 16 28 17 29 10 30
DOCKED: REMARK H PARENT 3 7 10 31
DOCKED: USER                              x       y       z     vdW  Elec       q    Type
DOCKED: USER                           _______ _______ _______ _____ _____    ______ ____
DOCKED: ROOT
DOCKED: ATOM      1  C   UNL     1     139.909  75.200 221.744 -0.21 -0.04    +0.242 C  
DOCKED: ATOM      2  O   UNL     1     139.392  75.847 222.736 -0.40 +0.05    -0.273 OA 
DOCKED: ENDROOT
DOCKED: BRANCH   1   3
DOCKED: ATOM      3  C   UNL     1     139.231  73.943 221.430 -0.16 -0.04    +0.216 C  
DOCKED: BRANCH   3   4
DOCKED: ATOM      4  N   UNL     1     139.144  73.000 222.489 -0.03 +0.10    -0.342 N  
DOCKED: ATOM      5  C   UNL     1     140.296  72.197 222.774 -0.22 -0.03    +0.270 C  
DOCKED: ATOM      6  O   UNL     1     141.372  72.297 222.129 -0.21 +0.01    -0.268 OA 
DOCKED: ATOM      7  H   UNL     1     138.250  72.896 223.050 -0.44 -0.09    +0.164 HD 
DOCKED: BRANCH   5   8
DOCKED: ATOM      8  C   UNL     1     140.190  71.229 223.862 -0.34 -0.02    +0.128 A  
DOCKED: ATOM      9  C   UNL     1     139.571  70.002 223.638 -0.27 -0.01    +0.035 A  
DOCKED: ATOM     10  N   UNL     1     140.661  71.446 225.096 -0.34 +0.03    -0.243 NA 
DOCKED: ATOM     11  C   UNL     1     139.444  69.054 224.622 -0.35 -0.00    +0.013 A  
DOCKED: ATOM     12  C   UNL     1     140.553  70.533 226.091 -0.52 -0.01    +0.071 A  
DOCKED: ATOM     13  C   UNL     1     139.937  69.302 225.882 -0.48 -0.00    +0.000 A  
DOCKED: ATOM     14  C   UNL     1     141.053  70.798 227.352 -0.64 -0.00    +0.029 A  
DOCKED: ATOM     15  C   UNL     1     139.815  68.358 226.879 -0.62 -0.00    +0.010 A  
DOCKED: ATOM     16  C   UNL     1     140.921  69.834 228.344 -0.58 -0.00    +0.002 A  
DOCKED: ATOM     17  C   UNL     1     140.314  68.633 228.119 -0.66 -0.00    +0.001 A  
DOCKED: ENDBRANCH   5   8
DOCKED: ENDBRANCH   3   4
DOCKED: ENDBRANCH   1   3
DOCKED: BRANCH   1  18
DOCKED: ATOM     18  N   UNL     1     141.016  75.805 221.140 -0.16 +0.11    -0.331 N  
DOCKED: ATOM     19  C   UNL     1     142.115  75.221 220.340 -0.23 -0.06    +0.152 C  
DOCKED: ATOM     20  C   UNL     1     141.408  77.230 221.150 -0.23 -0.06    +0.118 C  
DOCKED: ATOM     21  C   UNL     1     142.387  76.316 219.270 -0.25 -0.07    +0.136 C  
DOCKED: ATOM     22  C   UNL     1     141.452  77.474 219.678 -0.22 -0.03    +0.063 C  
DOCKED: BRANCH  20  23
DOCKED: ATOM     23  C   UNL     1     140.622  78.113 221.961 -0.34 +0.01    -0.025 A  
DOCKED: ATOM     24  C   UNL     1     139.363  78.513 221.503 -0.19 -0.00    +0.007 A  
DOCKED: ATOM     25  C   UNL     1     141.013  78.649 223.166 -0.52 -0.00    +0.007 A  
DOCKED: ATOM     26  C   UNL     1     138.566  79.383 222.209 -0.21 -0.00    +0.021 A  
DOCKED: ATOM     27  C   UNL     1     140.218  79.519 223.874 -0.44 -0.00    +0.021 A  
DOCKED: ATOM     28  C   UNL     1     138.982  79.905 223.414 -0.36 -0.01    +0.041 A  
DOCKED: ATOM     29  Cl  UNL     1     138.011  81.016 224.353 -0.44 +0.01    -0.084 Cl 
DOCKED: ENDBRANCH  20  23
DOCKED: BRANCH  21  30
DOCKED: ATOM     30  O   UNL     1     143.719  76.701 219.409 -0.25 +0.30    -0.391 OA 
DOCKED: ATOM     31  H   UNL     1     143.811  77.437 220.064 -0.49 -0.26    +0.211 HD 
DOCKED: ENDBRANCH  21  30
DOCKED: ENDBRANCH   1  18
DOCKED: TORSDOF 6
DOCKED: TER
DOCKED: ENDMDL
________________________________________________________________________________


    FINAL DOCKED STATE:
    ________________________


Run:   18 / 20
Time taken for this run:   0.039s

DOCKED: MODEL        18
DOCKED: USER    Run = 18
DOCKED: USER
DOCKED: USER    Estimated Free Energy of Binding    =  -8.74 kcal/mol  [=(1)+(2)+(3)-(4)]
DOCKED: USER
DOCKED: USER    (1) Final Intermolecular Energy     = -10.53 kcal/mol
DOCKED: USER        vdW + Hbond + desolv Energy     = -10.45 kcal/mol
DOCKED: USER        Electrostatic Energy            =  -0.08 kcal/mol
DOCKED: USER        Moving Ligand-Fixed Receptor    = -10.53 kcal/mol
DOCKED: USER        Moving Ligand-Moving Receptor   =  +0.00 kcal/mol
DOCKED: USER    (2) Final Total Internal Energy     =  -1.44 kcal/mol
DOCKED: USER    (3) Torsional Free Energy           =  +1.79 kcal/mol
DOCKED: USER    (4) Unbound System's Energy         =  -1.44 kcal/mol
DOCKED: USER
DOCKED: USER
DOCKED: REMARK SMILES O=C(NCC(=O)N1C[C@H](O)C[C@H]1c1ccc(Cl)cc1)c1ccc2ccccc2n1
DOCKED: REMARK SMILES IDX 5 1 6 2 4 3 3 4 2 5 1 6 20 8 21 9 29 10 22 11 28 12 23 13
DOCKED: REMARK SMILES IDX 27 14 24 15 26 16 25 17 7 18 8 19 12 20 9 21 11 22 13 23
DOCKED: REMARK SMILES IDX 14 24 19 25 15 26 18 27 16 28 17 29 10 30
DOCKED: REMARK H PARENT 3 7 10 31
DOCKED: USER                              x       y       z     vdW  Elec       q    Type
DOCKED: USER                           _______ _______ _______ _____ _____    ______ ____
DOCKED: ROOT
DOCKED: ATOM      1  C   UNL     1     140.660  75.511 221.566 -0.25 -0.06    +0.242 C  
DOCKED: ATOM      2  O   UNL     1     140.367  76.012 222.720 -0.34 +0.04    -0.273 OA 
DOCKED: ENDROOT
DOCKED: BRANCH   1   3
DOCKED: ATOM      3  C   UNL     1     140.144  74.159 221.352 -0.20 -0.03    +0.216 C  
DOCKED: BRANCH   3   4
DOCKED: ATOM      4  N   UNL     1     139.973  73.364 222.517 -0.03 +0.03    -0.342 N  
DOCKED: ATOM      5  C   UNL     1     140.421  72.004 222.476 -0.21 -0.03    +0.270 C  
DOCKED: ATOM      6  O   UNL     1     140.957  71.493 221.459 -0.14 +0.03    -0.268 OA 
DOCKED: ATOM      7  H   UNL     1     139.526  73.769 223.388 -0.47 -0.05    +0.164 HD 
DOCKED: BRANCH   5   8
DOCKED: ATOM      8  C   UNL     1     140.235  71.197 223.679 -0.32 -0.02    +0.128 A  
DOCKED: ATOM      9  C   UNL     1     139.587  69.968 223.593 -0.26 -0.01    +0.035 A  
DOCKED: ATOM     10  N   UNL     1     140.658  71.568 224.894 -0.32 +0.03    -0.243 NA 
DOCKED: ATOM     11  C   UNL     1     139.384  69.167 224.689 -0.36 -0.00    +0.013 A  
DOCKED: ATOM     12  C   UNL     1     140.475  70.803 225.997 -0.53 -0.01    +0.071 A  
DOCKED: ATOM     13  C   UNL     1     139.828  69.572 225.927 -0.48 -0.00    +0.000 A  
DOCKED: ATOM     14  C   UNL     1     140.927  71.224 227.233 -0.70 -0.00    +0.029 A  
DOCKED: ATOM     15  C   UNL     1     139.631  68.777 227.036 -0.57 -0.00    +0.010 A  
DOCKED: ATOM     16  C   UNL     1     140.719  70.409 228.339 -0.57 -0.00    +0.002 A  
DOCKED: ATOM     17  C   UNL     1     140.084  69.205 228.249 -0.64 -0.00    +0.001 A  
DOCKED: ENDBRANCH   5   8
DOCKED: ENDBRANCH   3   4
DOCKED: ENDBRANCH   1   3
DOCKED: BRANCH   1  18
DOCKED: ATOM     18  N   UNL     1     141.410  76.336 220.723 -0.13 +0.15    -0.331 N  
DOCKED: ATOM     19  C   UNL     1     142.396  75.999 219.674 -0.25 -0.08    +0.152 C  
DOCKED: ATOM     20  C   UNL     1     141.433  77.812 220.659 -0.26 -0.06    +0.118 C  
DOCKED: ATOM     21  C   UNL     1     142.131  77.078 218.585 -0.21 -0.08    +0.136 C  
DOCKED: ATOM     22  C   UNL     1     141.065  77.994 219.224 -0.16 -0.03    +0.063 C  
DOCKED: BRANCH  20  23
DOCKED: ATOM     23  C   UNL     1     140.670  78.516 221.649 -0.30 +0.01    -0.025 A  
DOCKED: ATOM     24  C   UNL     1     139.298  78.694 221.447 -0.18 -0.00    +0.007 A  
DOCKED: ATOM     25  C   UNL     1     141.179  79.080 222.795 -0.49 -0.00    +0.007 A  
DOCKED: ATOM     26  C   UNL     1     138.508  79.385 222.334 -0.22 -0.00    +0.021 A  
DOCKED: ATOM     27  C   UNL     1     140.391  79.773 223.684 -0.46 -0.00    +0.021 A  
DOCKED: ATOM     28  C   UNL     1     139.044  79.941 223.475 -0.37 -0.01    +0.041 A  
DOCKED: ATOM     29  Cl  UNL     1     138.086  80.832 224.637 -0.43 +0.01    -0.084 Cl 
DOCKED: ENDBRANCH  20  23
DOCKED: BRANCH  21  30
DOCKED: ATOM     30  O   UNL     1     143.322  77.777 218.405 -0.17 +0.33    -0.391 OA 
DOCKED: ATOM     31  H   UNL     1     143.826  77.846 219.254 -0.42 -0.24    +0.211 HD 
DOCKED: ENDBRANCH  21  30
DOCKED: ENDBRANCH   1  18
DOCKED: TORSDOF 6
DOCKED: TER
DOCKED: ENDMDL
________________________________________________________________________________


    FINAL DOCKED STATE:
    ________________________


Run:   19 / 20
Time taken for this run:   0.039s

DOCKED: MODEL        19
DOCKED: USER    Run = 19
DOCKED: USER
DOCKED: USER    Estimated Free Energy of Binding    =  -8.47 kcal/mol  [=(1)+(2)+(3)-(4)]
DOCKED: USER
DOCKED: USER    (1) Final Intermolecular Energy     = -10.26 kcal/mol
DOCKED: USER        vdW + Hbond + desolv Energy     = -10.08 kcal/mol
DOCKED: USER        Electrostatic Energy            =  -0.18 kcal/mol
DOCKED: USER        Moving Ligand-Fixed Receptor    = -10.26 kcal/mol
DOCKED: USER        Moving Ligand-Moving Receptor   =  +0.00 kcal/mol
DOCKED: USER    (2) Final Total Internal Energy     =  -1.54 kcal/mol
DOCKED: USER    (3) Torsional Free Energy           =  +1.79 kcal/mol
DOCKED: USER    (4) Unbound System's Energy         =  -1.54 kcal/mol
DOCKED: USER
DOCKED: USER
DOCKED: REMARK SMILES O=C(NCC(=O)N1C[C@H](O)C[C@H]1c1ccc(Cl)cc1)c1ccc2ccccc2n1
DOCKED: REMARK SMILES IDX 5 1 6 2 4 3 3 4 2 5 1 6 20 8 21 9 29 10 22 11 28 12 23 13
DOCKED: REMARK SMILES IDX 27 14 24 15 26 16 25 17 7 18 8 19 12 20 9 21 11 22 13 23
DOCKED: REMARK SMILES IDX 14 24 19 25 15 26 18 27 16 28 17 29 10 30
DOCKED: REMARK H PARENT 3 7 10 31
DOCKED: USER                              x       y       z     vdW  Elec       q    Type
DOCKED: USER                           _______ _______ _______ _____ _____    ______ ____
DOCKED: ROOT
DOCKED: ATOM      1  C   UNL     1     141.754  72.557 219.475 -0.05 -0.04    +0.242 C  
DOCKED: ATOM      2  O   UNL     1     141.783  72.547 218.183 -0.01 +0.05    -0.273 OA 
DOCKED: ENDROOT
DOCKED: BRANCH   1   3
DOCKED: ATOM      3  C   UNL     1     140.431  72.306 220.045 -0.06 -0.04    +0.216 C  
DOCKED: BRANCH   3   4
DOCKED: ATOM      4  N   UNL     1     140.402  71.545 221.245 -0.07 +0.05    -0.342 N  
DOCKED: ATOM      5  C   UNL     1     140.148  72.235 222.475 -0.21 -0.04    +0.270 C  
DOCKED: ATOM      6  O   UNL     1     139.949  73.476 222.531 -0.78 +0.02    -0.268 OA 
DOCKED: ATOM      7  H   UNL     1     140.565  70.498 221.226 +0.05 -0.02    +0.164 HD 
DOCKED: BRANCH   5   8
DOCKED: ATOM      8  C   UNL     1     140.125  71.441 223.700 -0.34 -0.02    +0.128 A  
DOCKED: ATOM      9  C   UNL     1     139.573  70.163 223.685 -0.29 -0.01    +0.035 A  
DOCKED: ATOM     10  N   UNL     1     140.612  71.870 224.870 -0.28 +0.04    -0.243 NA 
DOCKED: ATOM     11  C   UNL     1     139.524  69.372 224.805 -0.37 -0.00    +0.013 A  
DOCKED: ATOM     12  C   UNL     1     140.581  71.116 225.996 -0.56 -0.01    +0.071 A  
DOCKED: ATOM     13  C   UNL     1     140.032  69.836 225.997 -0.50 -0.00    +0.000 A  
DOCKED: ATOM     14  C   UNL     1     141.095  71.597 227.185 -0.75 -0.00    +0.029 A  
DOCKED: ATOM     15  C   UNL     1     139.990  69.051 227.129 -0.59 -0.00    +0.010 A  
DOCKED: ATOM     16  C   UNL     1     141.043  70.791 228.315 -0.61 -0.00    +0.002 A  
DOCKED: ATOM     17  C   UNL     1     140.502  69.539 228.296 -0.61 -0.00    +0.001 A  
DOCKED: ENDBRANCH   5   8
DOCKED: ENDBRANCH   3   4
DOCKED: ENDBRANCH   1   3
DOCKED: BRANCH   1  18
DOCKED: ATOM     18  N   UNL     1     142.978  72.801 220.105 -0.09 +0.05    -0.331 N  
DOCKED: ATOM     19  C   UNL     1     144.057  71.872 220.504 -0.24 -0.02    +0.152 C  
DOCKED: ATOM     20  C   UNL     1     143.536  74.088 220.568 -0.28 -0.04    +0.118 C  
DOCKED: ATOM     21  C   UNL     1     145.347  72.697 220.232 -0.41 +0.01    +0.136 C  
DOCKED: ATOM     22  C   UNL     1     144.818  74.082 219.802 -0.34 -0.02    +0.063 C  
DOCKED: BRANCH  20  23
DOCKED: ATOM     23  C   UNL     1     142.688  75.240 220.461 -0.28 +0.01    -0.025 A  
DOCKED: ATOM     24  C   UNL     1     143.029  76.251 219.558 -0.38 -0.00    +0.007 A  
DOCKED: ATOM     25  C   UNL     1     141.556  75.468 221.207 -0.29 -0.00    +0.007 A  
DOCKED: ATOM     26  C   UNL     1     142.284  77.398 219.423 -0.31 -0.01    +0.021 A  
DOCKED: ATOM     27  C   UNL     1     140.808  76.614 221.074 -0.29 -0.01    +0.021 A  
DOCKED: ATOM     28  C   UNL     1     141.154  77.601 220.184 -0.22 -0.02    +0.041 A  
DOCKED: ATOM     29  Cl  UNL     1     140.169  79.042 220.055 -0.17 +0.03    -0.084 Cl 
DOCKED: ENDBRANCH  20  23
DOCKED: BRANCH  21  30
DOCKED: ATOM     30  O   UNL     1     146.030  72.797 221.442 -0.34 +0.08    -0.391 OA 
DOCKED: ATOM     31  H   UNL     1     145.979  71.950 221.951 -0.42 -0.20    +0.211 HD 
DOCKED: ENDBRANCH  21  30
DOCKED: ENDBRANCH   1  18
DOCKED: TORSDOF 6
DOCKED: TER
DOCKED: ENDMDL
________________________________________________________________________________


    FINAL DOCKED STATE:
    ________________________


Run:   20 / 20
Time taken for this run:   0.039s

DOCKED: MODEL        20
DOCKED: USER    Run = 20
DOCKED: USER
DOCKED: USER    Estimated Free Energy of Binding    =  -7.55 kcal/mol  [=(1)+(2)+(3)-(4)]
DOCKED: USER
DOCKED: USER    (1) Final Intermolecular Energy     =  -9.34 kcal/mol
DOCKED: USER        vdW + Hbond + desolv Energy     =  -9.01 kcal/mol
DOCKED: USER        Electrostatic Energy            =  -0.33 kcal/mol
DOCKED: USER        Moving Ligand-Fixed Receptor    =  -9.34 kcal/mol
DOCKED: USER        Moving Ligand-Moving Receptor   =  +0.00 kcal/mol
DOCKED: USER    (2) Final Total Internal Energy     =  -2.83 kcal/mol
DOCKED: USER    (3) Torsional Free Energy           =  +1.79 kcal/mol
DOCKED: USER    (4) Unbound System's Energy         =  -2.83 kcal/mol
DOCKED: USER
DOCKED: USER
DOCKED: REMARK SMILES O=C(NCC(=O)N1C[C@H](O)C[C@H]1c1ccc(Cl)cc1)c1ccc2ccccc2n1
DOCKED: REMARK SMILES IDX 5 1 6 2 4 3 3 4 2 5 1 6 20 8 21 9 29 10 22 11 28 12 23 13
DOCKED: REMARK SMILES IDX 27 14 24 15 26 16 25 17 7 18 8 19 12 20 9 21 11 22 13 23
DOCKED: REMARK SMILES IDX 14 24 19 25 15 26 18 27 16 28 17 29 10 30
DOCKED: REMARK H PARENT 3 7 10 31
DOCKED: USER                              x       y       z     vdW  Elec       q    Type
DOCKED: USER                           _______ _______ _______ _____ _____    ______ ____
DOCKED: ROOT
DOCKED: ATOM      1  C   UNL     1     141.777  73.010 220.340 -0.12 -0.04    +0.242 C  
DOCKED: ATOM      2  O   UNL     1     141.057  72.287 219.546 -0.04 +0.05    -0.273 OA 
DOCKED: ENDROOT
DOCKED: BRANCH   1   3
DOCKED: ATOM      3  C   UNL     1     141.071  73.468 221.536 -0.20 -0.02    +0.216 C  
DOCKED: BRANCH   3   4
DOCKED: ATOM      4  N   UNL     1     141.230  74.840 221.867 -0.08 +0.04    -0.342 N  
DOCKED: ATOM      5  C   UNL     1     140.050  75.637 222.028 -0.20 -0.05    +0.270 C  
DOCKED: ATOM      6  O   UNL     1     138.890  75.169 221.890 -0.25 +0.06    -0.268 OA 
DOCKED: ATOM      7  H   UNL     1     142.196  75.259 221.991 -0.48 -0.07    +0.164 HD 
DOCKED: BRANCH   5   8
DOCKED: ATOM      8  C   UNL     1     140.228  77.046 222.365 -0.33 -0.03    +0.128 A  
DOCKED: ATOM      9  C   UNL     1     139.115  77.871 222.495 -0.29 -0.01    +0.035 A  
DOCKED: ATOM     10  N   UNL     1     141.423  77.615 222.562 -0.21 +0.12    -0.243 NA 
DOCKED: ATOM     11  C   UNL     1     139.221  79.203 222.810 -0.32 -0.00    +0.013 A  
DOCKED: ATOM     12  C   UNL     1     141.565  78.926 222.875 -0.49 -0.03    +0.071 A  
DOCKED: ATOM     13  C   UNL     1     140.462  79.765 223.008 -0.43 -0.00    +0.000 A  
DOCKED: ATOM     14  C   UNL     1     142.819  79.475 223.071 -0.55 -0.01    +0.029 A  
DOCKED: ATOM     15  C   UNL     1     140.582  81.100 223.326 -0.41 -0.00    +0.010 A  
DOCKED: ATOM     16  C   UNL     1     142.920  80.823 223.389 -0.61 -0.00    +0.002 A  
DOCKED: ATOM     17  C   UNL     1     141.826  81.628 223.517 -0.53 -0.00    +0.001 A  
DOCKED: ENDBRANCH   5   8
DOCKED: ENDBRANCH   3   4
DOCKED: ENDBRANCH   1   3
DOCKED: BRANCH   1  18
DOCKED: ATOM     18  N   UNL     1     143.095  73.228 219.929 -0.09 +0.06    -0.331 N  
DOCKED: ATOM     19  C   UNL     1     144.284  72.351 220.002 -0.26 -0.01    +0.152 C  
DOCKED: ATOM     20  C   UNL     1     143.679  74.433 219.305 -0.26 -0.04    +0.118 C  
DOCKED: ATOM     21  C   UNL     1     145.039  72.676 218.682 -0.21 +0.03    +0.136 C  
DOCKED: ATOM     22  C   UNL     1     144.213  73.818 218.054 -0.16 -0.01    +0.063 C  
DOCKED: BRANCH  20  23
DOCKED: ATOM     23  C   UNL     1     142.826  75.580 219.186 -0.29 +0.01    -0.025 A  
DOCKED: ATOM     24  C   UNL     1     141.664  75.483 218.414 -0.11 -0.00    +0.007 A  
DOCKED: ATOM     25  C   UNL     1     143.065  76.813 219.746 -0.32 -0.01    +0.007 A  
DOCKED: ATOM     26  C   UNL     1     140.815  76.548 218.228 -0.07 -0.01    +0.021 A  
DOCKED: ATOM     27  C   UNL     1     142.218  77.880 219.561 -0.28 -0.01    +0.021 A  
DOCKED: ATOM     28  C   UNL     1     141.079  77.773 218.801 -0.14 -0.02    +0.041 A  
DOCKED: ATOM     29  Cl  UNL     1     140.035  79.162 218.595 -0.09 +0.03    -0.084 Cl 
DOCKED: ENDBRANCH  20  23
DOCKED: BRANCH  21  30
DOCKED: ATOM     30  O   UNL     1     146.305  73.136 219.038 -0.70 -0.34    -0.391 OA 
DOCKED: ATOM     31  H   UNL     1     146.370  74.118 218.933 -0.47 -0.02    +0.211 HD 
DOCKED: ENDBRANCH  21  30
DOCKED: ENDBRANCH   1  18
DOCKED: TORSDOF 6
DOCKED: TER
DOCKED: ENDMDL
________________________________________________________________________________


    CLUSTERING HISTOGRAM
    ____________________


________________________________________________________________________________
     |           |     |           |     |
Clus | Lowest    | Run | Mean      | Num | Histogram
-ter | Binding   |     | Binding   | in  |
Rank | Energy    |     | Energy    | Clus|    5    10   15   20   25   30   35
_____|___________|_____|___________|_____|____:____|____:____|____:____|____:___
   1 |     -9.20 |  14 |     -8.95 |   7 |#######
   2 |     -8.47 |  19 |     -8.25 |   2 |##
   3 |     -7.89 |   1 |     -7.87 |   2 |##
   4 |     -7.80 |  16 |     -7.58 |   8 |########
   5 |     -7.77 |  10 |     -7.77 |   1 |#
_____|___________|_____|___________|_____|______________________________________


    RMSD TABLE
    __________


_______________________________________________________________________
     |      |      |           |         |                 |
Rank | Sub- | Run  | Binding   | Cluster | Reference       | Grep
     | Rank |      | Energy    | RMSD    | RMSD            | Pattern
_____|______|______|___________|_________|_________________|___________
   1      1     14       -9.20      0.00    271.93           RANKING
   1      2     17       -9.15      0.09    271.93           RANKING
   1      3      4       -9.13      0.12    271.90           RANKING
   1      4      6       -8.98      0.55    271.88           RANKING
   1      5      3       -8.88      0.55    271.88           RANKING
   1      6     18       -8.74      0.68    271.92           RANKING
   1      7      9       -8.58      1.05    271.84           RANKING
   2      1     19       -8.47      0.00    271.47           RANKING
   2      2     11       -8.04      0.54    271.26           RANKING
   3      1      1       -7.89      0.00    271.16           RANKING
   3      2      5       -7.85      0.12    271.16           RANKING
   4      1     16       -7.80      0.00    271.51           RANKING
   4      2     13       -7.57      1.05    271.44           RANKING
   4      3     12       -7.55      1.03    271.44           RANKING
   4      4     20       -7.55      1.01    271.36           RANKING
   4      5      8       -7.54      1.05    271.41           RANKING
   4      6      7       -7.54      1.04    271.39           RANKING
   4      7      2       -7.53      0.99    271.40           RANKING
   4      8     15       -7.52      1.02    271.34           RANKING
   5      1     10       -7.77      0.00    271.22           RANKING

Run time 0.708 sec
Idle time 0.000 sec
