AutoDock-GPU version: v1.6

**********************************************************
**    AutoDock-GPU AUTODOCKTOOLS-COMPATIBLE DLG FILE    **
**********************************************************


    DOCKING PARAMETERS
    ________________________


Ligand file:                               /home/a/REINVENT4/ReinventStudies/pleaseWork/justmol2mol_4_Compounds_ontop/graph-dock/graph-DockGPU/node-autodockgpu/inputs/HVJMTXUSLZAIMG-PLMDPJFHNA-N.pdbqt
Grid fld file:                             /home/a/REINVENT4/ReinventStudies/mols/Rad51/maps/rad51_receptor.maps.fld

Random seed:                               42
Number of runs:                            20
Number of energy evaluations:              1132076
Number of generations:                     42000
Size of population:                        150
Rate of crossover:                         80.000000%
Tournament selection probability limit:    60.000000%
Rate of mutation:                          2.000000%
Maximal allowed delta movement:            +/- 6.000000A
Maximal allowed delta angle:               +/- 90.000000

Rate of local search:                      100.000000%
Maximal number of local search iterations: 300
Rho lower bound:                           0.010000
Spread of local search delta movement:     2.000000A
Spread of local search delta angle:        74.999999
Limit of consecutive successes/failures:   4

Handle symmetry during clustering:         YES
RMSD tolerance:                            2.000000A

Program call in command line was:          /home/a/REINVENT4/ReinventStudies/adgpu-v1.6_linux_x64_cuda12_128wi --filelist batch.txt --heuristics 1 --nrun 20 --psize 150 --lsit 300 --seed 42 --heurmax 12000000 


    GRID PARAMETERS
    ________________________


Receptor name:                             rad51_receptor
Number of grid points (x, y, z):           53, 53, 53
Grid center (x, y, z):                     139.950000, 75.640000, 221.970000A
Grid size (x, y, z):                       19.500000, 19.500000, 19.500000A
Grid spacing:                              0.375000A


    LIGAND PARAMETERS
    ________________________


Ligand name:                               /home/a/REINVENT4/ReinventStudies/pleaseWork/justmol2mol_4_Compounds_ontop/graph-dock/graph-DockGPU/node-autodockgpu/inputs/HVJMTXUSLZAIMG-PLMDPJFHNA-N
Number of atoms:                           29
Number of rotatable bonds:                 6
Number of atom types:                      6


    DUMMY DATA (only for ADT-compatibility)
    ________________________


DPF> outlev 1
DPF> ga_run 20
DPF> fld /home/a/REINVENT4/ReinventStudies/mols/Rad51/maps/rad51_receptor.maps.fld
DPF> move /home/a/REINVENT4/ReinventStudies/pleaseWork/justmol2mol_4_Compounds_ontop/graph-dock/graph-DockGPU/node-autodockgpu/inputs/HVJMTXUSLZAIMG-PLMDPJFHNA-N.pdbqt


    COUNTER STATES
    ________________________


Number of energy evaluations performed:    753728
Number of generations used:                45


    INPUT LIGAND PDBQT FILE:
    ________________________


INPUT-LIGAND-PDBQT: REMARK SMILES COc1cccc([C@H](C)NC(=O)CNC(=O)c2ccc3ccccc3n2)c1
INPUT-LIGAND-PDBQT: REMARK SMILES IDX 10 1 11 2 12 3 8 5 9 6 7 7 3 8 4 9 27 10 5 11 6 12 2 13 1 14
INPUT-LIGAND-PDBQT: REMARK SMILES IDX 13 15 14 16 15 17 16 19 17 20 18 21 26 22 19 23 25 24 20 25
INPUT-LIGAND-PDBQT: REMARK SMILES IDX 24 26 21 27 23 28 22 29
INPUT-LIGAND-PDBQT: REMARK H PARENT 10 4 14 18
INPUT-LIGAND-PDBQT: ROOT
INPUT-LIGAND-PDBQT: ATOM      1  N   UNL     1       2.039   0.473   0.955  1.00  0.00    -0.348 N 
INPUT-LIGAND-PDBQT: ATOM      2  C   UNL     1       0.681   0.386   0.587  1.00  0.00     0.239 C 
INPUT-LIGAND-PDBQT: ATOM      3  O   UNL     1       0.287   1.021  -0.438  1.00  0.00    -0.273 OA
INPUT-LIGAND-PDBQT: ATOM      4  H   UNL     1       2.382  -0.043   1.796  1.00  0.00     0.164 HD
INPUT-LIGAND-PDBQT: ENDROOT
INPUT-LIGAND-PDBQT: BRANCH   1   5
INPUT-LIGAND-PDBQT: ATOM      5  C   UNL     1       2.950   1.264   0.184  1.00  0.00     0.109 C 
INPUT-LIGAND-PDBQT: ATOM      6  C   UNL     1       3.565   2.396   0.962  1.00  0.00     0.036 C 
INPUT-LIGAND-PDBQT: BRANCH   5   7
INPUT-LIGAND-PDBQT: ATOM      7  C   UNL     1       4.049   0.467  -0.414  1.00  0.00    -0.022 A 
INPUT-LIGAND-PDBQT: ATOM      8  C   UNL     1       5.748  -1.232  -0.199  1.00  0.00     0.119 A 
INPUT-LIGAND-PDBQT: ATOM      9  C   UNL     1       6.118  -1.037  -1.535  1.00  0.00     0.046 A 
INPUT-LIGAND-PDBQT: ATOM     10  C   UNL     1       4.724  -0.482   0.343  1.00  0.00     0.052 A 
INPUT-LIGAND-PDBQT: ATOM     11  C   UNL     1       5.460  -0.097  -2.306  1.00  0.00     0.004 A 
INPUT-LIGAND-PDBQT: ATOM     12  C   UNL     1       4.441   0.631  -1.726  1.00  0.00     0.006 A 
INPUT-LIGAND-PDBQT: BRANCH   8  13
INPUT-LIGAND-PDBQT: ATOM     13  O   UNL     1       6.451  -2.192   0.518  1.00  0.00    -0.497 OA
INPUT-LIGAND-PDBQT: ATOM     14  C   UNL     1       6.215  -2.517   1.858  1.00  0.00     0.278 C 
INPUT-LIGAND-PDBQT: ENDBRANCH   8  13
INPUT-LIGAND-PDBQT: ENDBRANCH   5   7
INPUT-LIGAND-PDBQT: ENDBRANCH   1   5
INPUT-LIGAND-PDBQT: BRANCH   2  15
INPUT-LIGAND-PDBQT: ATOM     15  C   UNL     1      -0.216  -0.445   1.418  1.00  0.00     0.216 C 
INPUT-LIGAND-PDBQT: BRANCH  15  16
INPUT-LIGAND-PDBQT: ATOM     16  N   UNL     1      -1.578  -0.452   0.936  1.00  0.00    -0.342 N 
INPUT-LIGAND-PDBQT: ATOM     17  C   UNL     1      -2.337   0.744   0.834  1.00  0.00     0.270 C 
INPUT-LIGAND-PDBQT: ATOM     18  H   UNL     1      -2.075  -1.336   0.639  1.00  0.00     0.164 HD
INPUT-LIGAND-PDBQT: ATOM     19  O   UNL     1      -1.791   1.842   1.178  1.00  0.00    -0.268 OA
INPUT-LIGAND-PDBQT: BRANCH  17  20
INPUT-LIGAND-PDBQT: ATOM     20  C   UNL     1      -3.725   0.707   0.339  1.00  0.00     0.128 A 
INPUT-LIGAND-PDBQT: ATOM     21  C   UNL     1      -4.420   1.896   0.258  1.00  0.00     0.035 A 
INPUT-LIGAND-PDBQT: ATOM     22  N   UNL     1      -4.259  -0.476  -0.013  1.00  0.00    -0.243 NA
INPUT-LIGAND-PDBQT: ATOM     23  C   UNL     1      -5.728   1.852  -0.210  1.00  0.00     0.013 A 
INPUT-LIGAND-PDBQT: ATOM     24  C   UNL     1      -5.530  -0.520  -0.467  1.00  0.00     0.071 A 
INPUT-LIGAND-PDBQT: ATOM     25  C   UNL     1      -6.290   0.624  -0.578  1.00  0.00     0.000 A 
INPUT-LIGAND-PDBQT: ATOM     26  C   UNL     1      -6.093  -1.734  -0.834  1.00  0.00     0.029 A 
INPUT-LIGAND-PDBQT: ATOM     27  C   UNL     1      -7.605   0.562  -1.050  1.00  0.00     0.010 A 
INPUT-LIGAND-PDBQT: ATOM     28  C   UNL     1      -7.386  -1.828  -1.302  1.00  0.00     0.002 A 
INPUT-LIGAND-PDBQT: ATOM     29  C   UNL     1      -8.145  -0.658  -1.409  1.00  0.00     0.001 A 
INPUT-LIGAND-PDBQT: ENDBRANCH  17  20
INPUT-LIGAND-PDBQT: ENDBRANCH  15  16
INPUT-LIGAND-PDBQT: ENDBRANCH   2  15
INPUT-LIGAND-PDBQT: TORSDOF 6


    FINAL DOCKED STATE:
    ________________________


Run:   1 / 20
Time taken for this run:   0.032s

DOCKED: MODEL        1
DOCKED: USER    Run = 1
DOCKED: USER
DOCKED: USER    Estimated Free Energy of Binding    =  -8.19 kcal/mol  [=(1)+(2)+(3)-(4)]
DOCKED: USER
DOCKED: USER    (1) Final Intermolecular Energy     =  -9.98 kcal/mol
DOCKED: USER        vdW + Hbond + desolv Energy     = -10.02 kcal/mol
DOCKED: USER        Electrostatic Energy            =  +0.04 kcal/mol
DOCKED: USER        Moving Ligand-Fixed Receptor    =  -9.98 kcal/mol
DOCKED: USER        Moving Ligand-Moving Receptor   =  +0.00 kcal/mol
DOCKED: USER    (2) Final Total Internal Energy     =  -1.06 kcal/mol
DOCKED: USER    (3) Torsional Free Energy           =  +1.79 kcal/mol
DOCKED: USER    (4) Unbound System's Energy         =  -1.06 kcal/mol
DOCKED: USER
DOCKED: USER
DOCKED: REMARK SMILES COc1cccc([C@H](C)NC(=O)CNC(=O)c2ccc3ccccc3n2)c1
DOCKED: REMARK SMILES IDX 10 1 11 2 12 3 8 5 9 6 7 7 3 8 4 9 27 10 5 11 6 12 2 13 1 14
DOCKED: REMARK SMILES IDX 13 15 14 16 15 17 16 19 17 20 18 21 26 22 19 23 25 24 20 25
DOCKED: REMARK SMILES IDX 24 26 21 27 23 28 22 29
DOCKED: REMARK H PARENT 10 4 14 18
DOCKED: USER                              x       y       z     vdW  Elec       q    Type
DOCKED: USER                           _______ _______ _______ _____ _____    ______ ____
DOCKED: ROOT
DOCKED: ATOM      1  N   UNL     1     138.721  75.787 222.189 -0.16 +0.08    -0.348 N  
DOCKED: ATOM      2  C   UNL     1     139.259  75.339 220.965 -0.13 -0.05    +0.239 C  
DOCKED: ATOM      3  O   UNL     1     139.068  76.039 219.925 -0.03 +0.07    -0.273 OA 
DOCKED: ATOM      4  H   UNL     1     138.868  75.224 223.056 -0.47 -0.05    +0.164 HD 
DOCKED: ENDROOT
DOCKED: BRANCH   1   5
DOCKED: ATOM      5  C   UNL     1     137.975  77.007 222.250 -0.23 -0.02    +0.109 C  
DOCKED: ATOM      6  C   UNL     1     136.717  76.899 223.070 -0.18 -0.01    +0.036 C  
DOCKED: BRANCH   5   7
DOCKED: ATOM      7  C   UNL     1     138.767  78.147 222.773 -0.29 +0.00    -0.022 A  
DOCKED: ATOM      8  C   UNL     1     140.906  79.176 223.204 -0.43 -0.03    +0.119 A  
DOCKED: ATOM      9  C   UNL     1     140.264  80.291 223.755 -0.40 -0.01    +0.046 A  
DOCKED: ATOM     10  C   UNL     1     140.155  78.123 222.722 -0.37 -0.01    +0.052 A  
DOCKED: ATOM     11  C   UNL     1     138.883  80.335 223.816 -0.42 -0.00    +0.004 A  
DOCKED: ATOM     12  C   UNL     1     138.170  79.262 223.322 -0.26 -0.00    +0.006 A  
DOCKED: BRANCH   8  13
DOCKED: ATOM     13  O   UNL     1     142.295  79.197 223.175 -0.23 +0.20    -0.497 OA 
DOCKED: ATOM     14  C   UNL     1     143.072  80.353 223.048 -0.40 -0.08    +0.278 C  
DOCKED: ENDBRANCH   8  13
DOCKED: ENDBRANCH   5   7
DOCKED: ENDBRANCH   1   5
DOCKED: BRANCH   2  15
DOCKED: ATOM     15  C   UNL     1     140.021  74.073 220.959 -0.16 -0.04    +0.216 C  
DOCKED: BRANCH  15  16
DOCKED: ATOM     16  N   UNL     1     139.924  73.355 222.209 -0.15 +0.04    -0.342 N  
DOCKED: ATOM     17  C   UNL     1     140.281  71.984 222.310 -0.20 -0.04    +0.270 C  
DOCKED: ATOM     18  H   UNL     1     139.586  73.806 223.103 -0.50 -0.02    +0.164 HD 
DOCKED: ATOM     19  O   UNL     1     140.697  71.386 221.265 -0.12 +0.04    -0.268 OA 
DOCKED: BRANCH  17  20
DOCKED: ATOM     20  C   UNL     1     140.172  71.277 223.599 -0.32 -0.02    +0.128 A  
DOCKED: ATOM     21  C   UNL     1     139.569  70.037 223.612 -0.27 -0.01    +0.035 A  
DOCKED: ATOM     22  N   UNL     1     140.661  71.863 224.706 -0.27 +0.03    -0.243 NA 
DOCKED: ATOM     23  C   UNL     1     139.470  69.377 224.832 -0.37 -0.00    +0.013 A  
DOCKED: ATOM     24  C   UNL     1     140.565  71.224 225.891 -0.55 -0.01    +0.071 A  
DOCKED: ATOM     25  C   UNL     1     139.977  69.981 225.988 -0.50 -0.00    +0.000 A  
DOCKED: ATOM     26  C   UNL     1     141.065  71.817 227.041 -0.76 -0.01    +0.029 A  
DOCKED: ATOM     27  C   UNL     1     139.885  69.332 227.223 -0.58 -0.00    +0.010 A  
DOCKED: ATOM     28  C   UNL     1     140.989  71.203 228.273 -0.70 -0.00    +0.002 A  
DOCKED: ATOM     29  C   UNL     1     140.390  69.942 228.355 -0.58 -0.00    +0.001 A  
DOCKED: ENDBRANCH  17  20
DOCKED: ENDBRANCH  15  16
DOCKED: ENDBRANCH   2  15
DOCKED: TORSDOF 6
DOCKED: TER
DOCKED: ENDMDL
________________________________________________________________________________


    FINAL DOCKED STATE:
    ________________________


Run:   2 / 20
Time taken for this run:   0.032s

DOCKED: MODEL        2
DOCKED: USER    Run = 2
DOCKED: USER
DOCKED: USER    Estimated Free Energy of Binding    =  -8.32 kcal/mol  [=(1)+(2)+(3)-(4)]
DOCKED: USER
DOCKED: USER    (1) Final Intermolecular Energy     = -10.11 kcal/mol
DOCKED: USER        vdW + Hbond + desolv Energy     = -10.07 kcal/mol
DOCKED: USER        Electrostatic Energy            =  -0.04 kcal/mol
DOCKED: USER        Moving Ligand-Fixed Receptor    = -10.11 kcal/mol
DOCKED: USER        Moving Ligand-Moving Receptor   =  +0.00 kcal/mol
DOCKED: USER    (2) Final Total Internal Energy     =  -1.13 kcal/mol
DOCKED: USER    (3) Torsional Free Energy           =  +1.79 kcal/mol
DOCKED: USER    (4) Unbound System's Energy         =  -1.13 kcal/mol
DOCKED: USER
DOCKED: USER
DOCKED: REMARK SMILES COc1cccc([C@H](C)NC(=O)CNC(=O)c2ccc3ccccc3n2)c1
DOCKED: REMARK SMILES IDX 10 1 11 2 12 3 8 5 9 6 7 7 3 8 4 9 27 10 5 11 6 12 2 13 1 14
DOCKED: REMARK SMILES IDX 13 15 14 16 15 17 16 19 17 20 18 21 26 22 19 23 25 24 20 25
DOCKED: REMARK SMILES IDX 24 26 21 27 23 28 22 29
DOCKED: REMARK H PARENT 10 4 14 18
DOCKED: USER                              x       y       z     vdW  Elec       q    Type
DOCKED: USER                           _______ _______ _______ _____ _____    ______ ____
DOCKED: ROOT
DOCKED: ATOM      1  N   UNL     1     140.521  76.493 220.841 -0.09 +0.12    -0.348 N  
DOCKED: ATOM      2  C   UNL     1     140.813  75.125 221.018 -0.20 -0.06    +0.239 C  
DOCKED: ATOM      3  O   UNL     1     142.028  74.763 221.063 -0.24 +0.08    -0.273 OA 
DOCKED: ATOM      4  H   UNL     1     139.526  76.809 220.802 +0.05 -0.04    +0.164 HD 
DOCKED: ENDROOT
DOCKED: BRANCH   1   5
DOCKED: ATOM      5  C   UNL     1     141.579  77.449 220.713 -0.25 -0.06    +0.109 C  
DOCKED: ATOM      6  C   UNL     1     141.590  78.155 219.384 -0.24 -0.02    +0.036 C  
DOCKED: BRANCH   5   7
DOCKED: ATOM      7  C   UNL     1     141.562  78.479 221.780 -0.39 +0.01    -0.022 A  
DOCKED: ATOM      8  C   UNL     1     141.657  80.797 222.442 -0.43 -0.03    +0.119 A  
DOCKED: ATOM      9  C   UNL     1     141.530  80.424 223.785 -0.53 -0.01    +0.046 A  
DOCKED: ATOM     10  C   UNL     1     141.671  79.827 221.461 -0.38 -0.02    +0.052 A  
DOCKED: ATOM     11  C   UNL     1     141.421  79.088 224.125 -0.55 -0.00    +0.004 A  
DOCKED: ATOM     12  C   UNL     1     141.439  78.149 223.114 -0.52 -0.00    +0.006 A  
DOCKED: BRANCH   8  13
DOCKED: ATOM     13  O   UNL     1     141.762  82.156 222.171 -0.14 +0.08    -0.497 OA 
DOCKED: ATOM     14  C   UNL     1     141.015  82.836 221.203 -0.19 -0.05    +0.278 C  
DOCKED: ENDBRANCH   8  13
DOCKED: ENDBRANCH   5   7
DOCKED: ENDBRANCH   1   5
DOCKED: BRANCH   2  15
DOCKED: ATOM     15  C   UNL     1     139.683  74.180 221.145 -0.17 -0.04    +0.216 C  
DOCKED: BRANCH  15  16
DOCKED: ATOM     16  N   UNL     1     139.722  73.422 222.374 -0.12 +0.05    -0.342 N  
DOCKED: ATOM     17  C   UNL     1     139.981  72.026 222.379 -0.20 -0.04    +0.270 C  
DOCKED: ATOM     18  H   UNL     1     139.561  73.861 223.322 -0.48 -0.03    +0.164 HD 
DOCKED: ATOM     19  O   UNL     1     140.183  71.441 221.266 -0.10 +0.04    -0.268 OA 
DOCKED: BRANCH  17  20
DOCKED: ATOM     20  C   UNL     1     140.015  71.278 223.649 -0.33 -0.02    +0.128 A  
DOCKED: ATOM     21  C   UNL     1     139.560  69.975 223.650 -0.27 -0.01    +0.035 A  
DOCKED: ATOM     22  N   UNL     1     140.485  71.888 224.751 -0.27 +0.04    -0.243 NA 
DOCKED: ATOM     23  C   UNL     1     139.595  69.277 224.851 -0.37 -0.00    +0.013 A  
DOCKED: ATOM     24  C   UNL     1     140.519  71.211 225.919 -0.55 -0.01    +0.071 A  
DOCKED: ATOM     25  C   UNL     1     140.083  69.906 226.003 -0.50 -0.00    +0.000 A  
DOCKED: ATOM     26  C   UNL     1     141.002  71.828 227.064 -0.76 -0.01    +0.029 A  
DOCKED: ATOM     27  C   UNL     1     140.125  69.218 227.219 -0.59 -0.00    +0.010 A  
DOCKED: ATOM     28  C   UNL     1     141.056  71.177 228.278 -0.70 -0.00    +0.002 A  
DOCKED: ATOM     29  C   UNL     1     140.610  69.853 228.347 -0.58 -0.00    +0.001 A  
DOCKED: ENDBRANCH  17  20
DOCKED: ENDBRANCH  15  16
DOCKED: ENDBRANCH   2  15
DOCKED: TORSDOF 6
DOCKED: TER
DOCKED: ENDMDL
________________________________________________________________________________


    FINAL DOCKED STATE:
    ________________________


Run:   3 / 20
Time taken for this run:   0.032s

DOCKED: MODEL        3
DOCKED: USER    Run = 3
DOCKED: USER
DOCKED: USER    Estimated Free Energy of Binding    =  -7.53 kcal/mol  [=(1)+(2)+(3)-(4)]
DOCKED: USER
DOCKED: USER    (1) Final Intermolecular Energy     =  -9.32 kcal/mol
DOCKED: USER        vdW + Hbond + desolv Energy     =  -9.19 kcal/mol
DOCKED: USER        Electrostatic Energy            =  -0.13 kcal/mol
DOCKED: USER        Moving Ligand-Fixed Receptor    =  -9.32 kcal/mol
DOCKED: USER        Moving Ligand-Moving Receptor   =  +0.00 kcal/mol
DOCKED: USER    (2) Final Total Internal Energy     =  -1.69 kcal/mol
DOCKED: USER    (3) Torsional Free Energy           =  +1.79 kcal/mol
DOCKED: USER    (4) Unbound System's Energy         =  -1.69 kcal/mol
DOCKED: USER
DOCKED: USER
DOCKED: REMARK SMILES COc1cccc([C@H](C)NC(=O)CNC(=O)c2ccc3ccccc3n2)c1
DOCKED: REMARK SMILES IDX 10 1 11 2 12 3 8 5 9 6 7 7 3 8 4 9 27 10 5 11 6 12 2 13 1 14
DOCKED: REMARK SMILES IDX 13 15 14 16 15 17 16 19 17 20 18 21 26 22 19 23 25 24 20 25
DOCKED: REMARK SMILES IDX 24 26 21 27 23 28 22 29
DOCKED: REMARK H PARENT 10 4 14 18
DOCKED: USER                              x       y       z     vdW  Elec       q    Type
DOCKED: USER                           _______ _______ _______ _____ _____    ______ ____
DOCKED: ROOT
DOCKED: ATOM      1  N   UNL     1     141.738  74.357 220.430 -0.10 +0.09    -0.348 N  
DOCKED: ATOM      2  C   UNL     1     140.612  74.927 221.058 -0.20 -0.05    +0.239 C  
DOCKED: ATOM      3  O   UNL     1     140.706  76.101 221.527 -0.26 +0.08    -0.273 OA 
DOCKED: ATOM      4  H   UNL     1     141.679  73.391 220.038 +0.05 -0.03    +0.164 HD 
DOCKED: ENDROOT
DOCKED: BRANCH   1   5
DOCKED: ATOM      5  C   UNL     1     142.961  75.095 220.328 -0.23 -0.05    +0.109 C  
DOCKED: ATOM      6  C   UNL     1     144.174  74.220 220.157 -0.42 -0.01    +0.036 C  
DOCKED: BRANCH   5   7
DOCKED: ATOM      7  C   UNL     1     142.951  76.087 219.225 -0.34 +0.01    -0.022 A  
DOCKED: ATOM      8  C   UNL     1     142.530  78.329 218.442 -0.27 -0.09    +0.119 A  
DOCKED: ATOM      9  C   UNL     1     142.931  77.959 217.153 -0.26 -0.04    +0.046 A  
DOCKED: ATOM     10  C   UNL     1     142.545  77.394 219.457 -0.29 -0.04    +0.052 A  
DOCKED: ATOM     11  C   UNL     1     143.337  76.662 216.900 -0.25 -0.00    +0.004 A  
DOCKED: ATOM     12  C   UNL     1     143.338  75.758 217.943 -0.25 -0.00    +0.006 A  
DOCKED: BRANCH   8  13
DOCKED: ATOM     13  O   UNL     1     142.133  79.648 218.626 -0.13 +0.35    -0.497 OA 
DOCKED: ATOM     14  C   UNL     1     142.578  80.728 217.857 -0.22 -0.25    +0.278 C  
DOCKED: ENDBRANCH   8  13
DOCKED: ENDBRANCH   5   7
DOCKED: ENDBRANCH   1   5
DOCKED: BRANCH   2  15
DOCKED: ATOM     15  C   UNL     1     139.374  74.121 221.136 -0.15 -0.04    +0.216 C  
DOCKED: BRANCH  15  16
DOCKED: ATOM     16  N   UNL     1     139.323  73.287 222.315 -0.12 +0.08    -0.342 N  
DOCKED: ATOM     17  C   UNL     1     140.238  72.219 222.510 -0.21 -0.03    +0.270 C  
DOCKED: ATOM     18  H   UNL     1     138.610  73.426 223.083 -0.51 -0.11    +0.164 HD 
DOCKED: ATOM     19  O   UNL     1     141.120  72.003 221.617 -0.18 +0.03    -0.268 OA 
DOCKED: BRANCH  17  20
DOCKED: ATOM     20  C   UNL     1     140.162  71.384 223.722 -0.34 -0.02    +0.128 A  
DOCKED: ATOM     21  C   UNL     1     139.592  70.132 223.616 -0.28 -0.01    +0.035 A  
DOCKED: ATOM     22  N   UNL     1     140.647  71.869 224.878 -0.28 +0.03    -0.243 NA 
DOCKED: ATOM     23  C   UNL     1     139.524  69.351 224.764 -0.37 -0.00    +0.013 A  
DOCKED: ATOM     24  C   UNL     1     140.582  71.112 225.994 -0.56 -0.01    +0.071 A  
DOCKED: ATOM     25  C   UNL     1     140.028  69.850 225.971 -0.49 -0.00    +0.000 A  
DOCKED: ATOM     26  C   UNL     1     141.079  71.600 227.194 -0.75 -0.01    +0.029 A  
DOCKED: ATOM     27  C   UNL     1     139.967  69.078 227.135 -0.59 -0.00    +0.010 A  
DOCKED: ATOM     28  C   UNL     1     141.034  70.864 228.358 -0.60 -0.00    +0.002 A  
DOCKED: ATOM     29  C   UNL     1     140.468  69.585 228.319 -0.61 -0.00    +0.001 A  
DOCKED: ENDBRANCH  17  20
DOCKED: ENDBRANCH  15  16
DOCKED: ENDBRANCH   2  15
DOCKED: TORSDOF 6
DOCKED: TER
DOCKED: ENDMDL
________________________________________________________________________________


    FINAL DOCKED STATE:
    ________________________


Run:   4 / 20
Time taken for this run:   0.032s

DOCKED: MODEL        4
DOCKED: USER    Run = 4
DOCKED: USER
DOCKED: USER    Estimated Free Energy of Binding    =  -7.79 kcal/mol  [=(1)+(2)+(3)-(4)]
DOCKED: USER
DOCKED: USER    (1) Final Intermolecular Energy     =  -9.57 kcal/mol
DOCKED: USER        vdW + Hbond + desolv Energy     =  -9.49 kcal/mol
DOCKED: USER        Electrostatic Energy            =  -0.08 kcal/mol
DOCKED: USER        Moving Ligand-Fixed Receptor    =  -9.57 kcal/mol
DOCKED: USER        Moving Ligand-Moving Receptor   =  +0.00 kcal/mol
DOCKED: USER    (2) Final Total Internal Energy     =  -1.75 kcal/mol
DOCKED: USER    (3) Torsional Free Energy           =  +1.79 kcal/mol
DOCKED: USER    (4) Unbound System's Energy         =  -1.75 kcal/mol
DOCKED: USER
DOCKED: USER
DOCKED: REMARK SMILES COc1cccc([C@H](C)NC(=O)CNC(=O)c2ccc3ccccc3n2)c1
DOCKED: REMARK SMILES IDX 10 1 11 2 12 3 8 5 9 6 7 7 3 8 4 9 27 10 5 11 6 12 2 13 1 14
DOCKED: REMARK SMILES IDX 13 15 14 16 15 17 16 19 17 20 18 21 26 22 19 23 25 24 20 25
DOCKED: REMARK SMILES IDX 24 26 21 27 23 28 22 29
DOCKED: REMARK H PARENT 10 4 14 18
DOCKED: USER                              x       y       z     vdW  Elec       q    Type
DOCKED: USER                           _______ _______ _______ _____ _____    ______ ____
DOCKED: ROOT
DOCKED: ATOM      1  N   UNL     1     138.160  74.633 221.965 -0.10 +0.10    -0.348 N  
DOCKED: ATOM      2  C   UNL     1     138.174  74.165 220.635 -0.06 -0.05    +0.239 C  
DOCKED: ATOM      3  O   UNL     1     137.733  74.923 219.719 -0.01 +0.06    -0.273 OA 
DOCKED: ATOM      4  H   UNL     1     138.519  74.023 222.733 -0.55 -0.08    +0.164 HD 
DOCKED: ENDROOT
DOCKED: BRANCH   1   5
DOCKED: ATOM      5  C   UNL     1     137.655  75.938 222.269 -0.22 -0.03    +0.109 C  
DOCKED: ATOM      6  C   UNL     1     136.686  75.951 223.419 -0.19 -0.01    +0.036 C  
DOCKED: BRANCH   5   7
DOCKED: ATOM      7  C   UNL     1     138.727  76.922 222.560 -0.29 +0.00    -0.022 A  
DOCKED: ATOM      8  C   UNL     1     139.398  79.106 223.333 -0.31 -0.02    +0.119 A  
DOCKED: ATOM      9  C   UNL     1     140.740  78.777 223.111 -0.46 -0.01    +0.046 A  
DOCKED: ATOM     10  C   UNL     1     138.412  78.180 223.056 -0.22 -0.01    +0.052 A  
DOCKED: ATOM     11  C   UNL     1     141.075  77.530 222.616 -0.45 -0.00    +0.004 A  
DOCKED: ATOM     12  C   UNL     1     140.060  76.633 222.354 -0.39 -0.00    +0.006 A  
DOCKED: BRANCH   8  13
DOCKED: ATOM     13  O   UNL     1     139.132  80.376 223.830 -0.15 +0.06    -0.497 OA 
DOCKED: ATOM     14  C   UNL     1     137.901  80.785 224.354 -0.25 -0.03    +0.278 C  
DOCKED: ENDBRANCH   8  13
DOCKED: ENDBRANCH   5   7
DOCKED: ENDBRANCH   1   5
DOCKED: BRANCH   2  15
DOCKED: ATOM     15  C   UNL     1     138.706  72.810 220.377 -0.05 -0.04    +0.216 C  
DOCKED: BRANCH  15  16
DOCKED: ATOM     16  N   UNL     1     138.776  72.000 221.571 -0.05 +0.07    -0.342 N  
DOCKED: ATOM     17  C   UNL     1     139.733  72.255 222.589 -0.20 -0.05    +0.270 C  
DOCKED: ATOM     18  H   UNL     1     138.127  71.184 221.748 +0.04 -0.03    +0.164 HD 
DOCKED: ATOM     19  O   UNL     1     140.542  73.226 222.433 -0.71 -0.00    -0.268 OA 
DOCKED: BRANCH  17  20
DOCKED: ATOM     20  C   UNL     1     139.781  71.412 223.797 -0.33 -0.03    +0.128 A  
DOCKED: ATOM     21  C   UNL     1     139.228  70.149 223.733 -0.29 -0.01    +0.035 A  
DOCKED: ATOM     22  N   UNL     1     140.358  71.900 224.909 -0.24 +0.04    -0.243 NA 
DOCKED: ATOM     23  C   UNL     1     139.278  69.361 224.876 -0.38 -0.00    +0.013 A  
DOCKED: ATOM     24  C   UNL     1     140.406  71.135 226.021 -0.54 -0.01    +0.071 A  
DOCKED: ATOM     25  C   UNL     1     139.877  69.863 226.038 -0.49 -0.00    +0.000 A  
DOCKED: ATOM     26  C   UNL     1     140.999  71.627 227.175 -0.75 -0.01    +0.029 A  
DOCKED: ATOM     27  C   UNL     1     139.935  69.083 227.197 -0.59 -0.00    +0.010 A  
DOCKED: ATOM     28  C   UNL     1     141.071  70.883 228.333 -0.63 -0.00    +0.002 A  
DOCKED: ATOM     29  C   UNL     1     140.529  69.594 228.335 -0.61 -0.00    +0.001 A  
DOCKED: ENDBRANCH  17  20
DOCKED: ENDBRANCH  15  16
DOCKED: ENDBRANCH   2  15
DOCKED: TORSDOF 6
DOCKED: TER
DOCKED: ENDMDL
________________________________________________________________________________


    FINAL DOCKED STATE:
    ________________________


Run:   5 / 20
Time taken for this run:   0.032s

DOCKED: MODEL        5
DOCKED: USER    Run = 5
DOCKED: USER
DOCKED: USER    Estimated Free Energy of Binding    =  -7.81 kcal/mol  [=(1)+(2)+(3)-(4)]
DOCKED: USER
DOCKED: USER    (1) Final Intermolecular Energy     =  -9.60 kcal/mol
DOCKED: USER        vdW + Hbond + desolv Energy     =  -9.52 kcal/mol
DOCKED: USER        Electrostatic Energy            =  -0.08 kcal/mol
DOCKED: USER        Moving Ligand-Fixed Receptor    =  -9.60 kcal/mol
DOCKED: USER        Moving Ligand-Moving Receptor   =  +0.00 kcal/mol
DOCKED: USER    (2) Final Total Internal Energy     =  -1.78 kcal/mol
DOCKED: USER    (3) Torsional Free Energy           =  +1.79 kcal/mol
DOCKED: USER    (4) Unbound System's Energy         =  -1.78 kcal/mol
DOCKED: USER
DOCKED: USER
DOCKED: REMARK SMILES COc1cccc([C@H](C)NC(=O)CNC(=O)c2ccc3ccccc3n2)c1
DOCKED: REMARK SMILES IDX 10 1 11 2 12 3 8 5 9 6 7 7 3 8 4 9 27 10 5 11 6 12 2 13 1 14
DOCKED: REMARK SMILES IDX 13 15 14 16 15 17 16 19 17 20 18 21 26 22 19 23 25 24 20 25
DOCKED: REMARK SMILES IDX 24 26 21 27 23 28 22 29
DOCKED: REMARK H PARENT 10 4 14 18
DOCKED: USER                              x       y       z     vdW  Elec       q    Type
DOCKED: USER                           _______ _______ _______ _____ _____    ______ ____
DOCKED: ROOT
DOCKED: ATOM      1  N   UNL     1     138.324  74.819 221.966 -0.12 +0.10    -0.348 N  
DOCKED: ATOM      2  C   UNL     1     138.205  74.270 220.673 -0.07 -0.05    +0.239 C  
DOCKED: ATOM      3  O   UNL     1     137.588  74.933 219.785 -0.01 +0.05    -0.273 OA 
DOCKED: ATOM      4  H   UNL     1     138.829  74.288 222.710 -0.55 -0.07    +0.164 HD 
DOCKED: ENDROOT
DOCKED: BRANCH   1   5
DOCKED: ATOM      5  C   UNL     1     137.757  76.099 222.265 -0.23 -0.03    +0.109 C  
DOCKED: ATOM      6  C   UNL     1     136.756  76.062 223.388 -0.18 -0.01    +0.036 C  
DOCKED: BRANCH   5   7
DOCKED: ATOM      7  C   UNL     1     138.777  77.125 222.592 -0.29 +0.00    -0.022 A  
DOCKED: ATOM      8  C   UNL     1     139.334  79.330 223.396 -0.33 -0.02    +0.119 A  
DOCKED: ATOM      9  C   UNL     1     140.695  79.059 223.211 -0.46 -0.01    +0.046 A  
DOCKED: ATOM     10  C   UNL     1     138.396  78.365 223.086 -0.23 -0.01    +0.052 A  
DOCKED: ATOM     11  C   UNL     1     141.096  77.831 222.719 -0.48 -0.00    +0.004 A  
DOCKED: ATOM     12  C   UNL     1     140.126  76.894 222.422 -0.37 -0.00    +0.006 A  
DOCKED: BRANCH   8  13
DOCKED: ATOM     13  O   UNL     1     139.001  80.584 223.894 -0.15 +0.05    -0.497 OA 
DOCKED: ATOM     14  C   UNL     1     137.826  80.877 224.593 -0.26 -0.03    +0.278 C  
DOCKED: ENDBRANCH   8  13
DOCKED: ENDBRANCH   5   7
DOCKED: ENDBRANCH   1   5
DOCKED: BRANCH   2  15
DOCKED: ATOM     15  C   UNL     1     138.810  72.944 220.419 -0.05 -0.04    +0.216 C  
DOCKED: BRANCH  15  16
DOCKED: ATOM     16  N   UNL     1     138.845  72.110 221.598 -0.06 +0.07    -0.342 N  
DOCKED: ATOM     17  C   UNL     1     139.827  72.290 222.607 -0.20 -0.05    +0.270 C  
DOCKED: ATOM     18  H   UNL     1     138.151  71.332 221.768 +0.04 -0.03    +0.164 HD 
DOCKED: ATOM     19  O   UNL     1     140.691  73.213 222.457 -0.68 -0.01    -0.268 OA 
DOCKED: BRANCH  17  20
DOCKED: ATOM     20  C   UNL     1     139.839  71.423 223.800 -0.33 -0.03    +0.128 A  
DOCKED: ATOM     21  C   UNL     1     139.232  70.187 223.714 -0.29 -0.01    +0.035 A  
DOCKED: ATOM     22  N   UNL     1     140.437  71.866 224.920 -0.27 +0.04    -0.243 NA 
DOCKED: ATOM     23  C   UNL     1     139.248  69.377 224.843 -0.38 -0.00    +0.013 A  
DOCKED: ATOM     24  C   UNL     1     140.452  71.080 226.018 -0.54 -0.01    +0.071 A  
DOCKED: ATOM     25  C   UNL     1     139.868  69.832 226.012 -0.49 -0.00    +0.000 A  
DOCKED: ATOM     26  C   UNL     1     141.066  71.525 227.180 -0.74 -0.00    +0.029 A  
DOCKED: ATOM     27  C   UNL     1     139.893  69.029 227.157 -0.59 -0.00    +0.010 A  
DOCKED: ATOM     28  C   UNL     1     141.106  70.758 228.325 -0.59 -0.00    +0.002 A  
DOCKED: ATOM     29  C   UNL     1     140.509  69.493 228.303 -0.62 -0.00    +0.001 A  
DOCKED: ENDBRANCH  17  20
DOCKED: ENDBRANCH  15  16
DOCKED: ENDBRANCH   2  15
DOCKED: TORSDOF 6
DOCKED: TER
DOCKED: ENDMDL
________________________________________________________________________________


    FINAL DOCKED STATE:
    ________________________


Run:   6 / 20
Time taken for this run:   0.032s

DOCKED: MODEL        6
DOCKED: USER    Run = 6
DOCKED: USER
DOCKED: USER    Estimated Free Energy of Binding    =  -7.79 kcal/mol  [=(1)+(2)+(3)-(4)]
DOCKED: USER
DOCKED: USER    (1) Final Intermolecular Energy     =  -9.58 kcal/mol
DOCKED: USER        vdW + Hbond + desolv Energy     =  -9.50 kcal/mol
DOCKED: USER        Electrostatic Energy            =  -0.08 kcal/mol
DOCKED: USER        Moving Ligand-Fixed Receptor    =  -9.58 kcal/mol
DOCKED: USER        Moving Ligand-Moving Receptor   =  +0.00 kcal/mol
DOCKED: USER    (2) Final Total Internal Energy     =  -1.78 kcal/mol
DOCKED: USER    (3) Torsional Free Energy           =  +1.79 kcal/mol
DOCKED: USER    (4) Unbound System's Energy         =  -1.78 kcal/mol
DOCKED: USER
DOCKED: USER
DOCKED: REMARK SMILES COc1cccc([C@H](C)NC(=O)CNC(=O)c2ccc3ccccc3n2)c1
DOCKED: REMARK SMILES IDX 10 1 11 2 12 3 8 5 9 6 7 7 3 8 4 9 27 10 5 11 6 12 2 13 1 14
DOCKED: REMARK SMILES IDX 13 15 14 16 15 17 16 19 17 20 18 21 26 22 19 23 25 24 20 25
DOCKED: REMARK SMILES IDX 24 26 21 27 23 28 22 29
DOCKED: REMARK H PARENT 10 4 14 18
DOCKED: USER                              x       y       z     vdW  Elec       q    Type
DOCKED: USER                           _______ _______ _______ _____ _____    ______ ____
DOCKED: ROOT
DOCKED: ATOM      1  N   UNL     1     138.318  74.859 221.943 -0.12 +0.10    -0.348 N  
DOCKED: ATOM      2  C   UNL     1     138.181  74.290 220.661 -0.06 -0.05    +0.239 C  
DOCKED: ATOM      3  O   UNL     1     137.547  74.938 219.773 -0.01 +0.05    -0.273 OA 
DOCKED: ATOM      4  H   UNL     1     138.837  74.341 222.687 -0.53 -0.06    +0.164 HD 
DOCKED: ENDROOT
DOCKED: BRANCH   1   5
DOCKED: ATOM      5  C   UNL     1     137.749  76.141 222.232 -0.23 -0.02    +0.109 C  
DOCKED: ATOM      6  C   UNL     1     136.733  76.107 223.342 -0.19 -0.01    +0.036 C  
DOCKED: BRANCH   5   7
DOCKED: ATOM      7  C   UNL     1     138.767  77.165 222.573 -0.29 +0.00    -0.022 A  
DOCKED: ATOM      8  C   UNL     1     139.319  79.357 223.414 -0.33 -0.02    +0.119 A  
DOCKED: ATOM      9  C   UNL     1     140.680  79.095 223.216 -0.46 -0.01    +0.046 A  
DOCKED: ATOM     10  C   UNL     1     138.384  78.394 223.092 -0.23 -0.01    +0.052 A  
DOCKED: ATOM     11  C   UNL     1     141.083  77.878 222.699 -0.49 -0.00    +0.004 A  
DOCKED: ATOM     12  C   UNL     1     140.116  76.943 222.391 -0.38 -0.00    +0.006 A  
DOCKED: BRANCH   8  13
DOCKED: ATOM     13  O   UNL     1     138.984  80.600 223.936 -0.15 +0.05    -0.497 OA 
DOCKED: ATOM     14  C   UNL     1     137.781  80.892 224.588 -0.26 -0.03    +0.278 C  
DOCKED: ENDBRANCH   8  13
DOCKED: ENDBRANCH   5   7
DOCKED: ENDBRANCH   1   5
DOCKED: BRANCH   2  15
DOCKED: ATOM     15  C   UNL     1     138.788  72.965 220.416 -0.05 -0.04    +0.216 C  
DOCKED: BRANCH  15  16
DOCKED: ATOM     16  N   UNL     1     138.809  72.133 221.597 -0.06 +0.07    -0.342 N  
DOCKED: ATOM     17  C   UNL     1     139.790  72.304 222.610 -0.20 -0.05    +0.270 C  
DOCKED: ATOM     18  H   UNL     1     138.106  71.362 221.767 +0.04 -0.03    +0.164 HD 
DOCKED: ATOM     19  O   UNL     1     140.665  73.217 222.461 -0.68 -0.01    -0.268 OA 
DOCKED: BRANCH  17  20
DOCKED: ATOM     20  C   UNL     1     139.787  71.440 223.804 -0.33 -0.03    +0.128 A  
DOCKED: ATOM     21  C   UNL     1     139.138  70.225 223.729 -0.29 -0.01    +0.035 A  
DOCKED: ATOM     22  N   UNL     1     140.414  71.865 224.916 -0.26 +0.04    -0.243 NA 
DOCKED: ATOM     23  C   UNL     1     139.141  69.417 224.860 -0.37 -0.00    +0.013 A  
DOCKED: ATOM     24  C   UNL     1     140.416  71.081 226.015 -0.54 -0.01    +0.071 A  
DOCKED: ATOM     25  C   UNL     1     139.791  69.853 226.020 -0.48 -0.00    +0.000 A  
DOCKED: ATOM     26  C   UNL     1     141.059  71.507 227.169 -0.74 -0.00    +0.029 A  
DOCKED: ATOM     27  C   UNL     1     139.802  69.052 227.167 -0.58 -0.00    +0.010 A  
DOCKED: ATOM     28  C   UNL     1     141.087  70.742 228.315 -0.60 -0.00    +0.002 A  
DOCKED: ATOM     29  C   UNL     1     140.448  69.498 228.304 -0.62 -0.00    +0.001 A  
DOCKED: ENDBRANCH  17  20
DOCKED: ENDBRANCH  15  16
DOCKED: ENDBRANCH   2  15
DOCKED: TORSDOF 6
DOCKED: TER
DOCKED: ENDMDL
________________________________________________________________________________


    FINAL DOCKED STATE:
    ________________________


Run:   7 / 20
Time taken for this run:   0.032s

DOCKED: MODEL        7
DOCKED: USER    Run = 7
DOCKED: USER
DOCKED: USER    Estimated Free Energy of Binding    =  -7.66 kcal/mol  [=(1)+(2)+(3)-(4)]
DOCKED: USER
DOCKED: USER    (1) Final Intermolecular Energy     =  -9.45 kcal/mol
DOCKED: USER        vdW + Hbond + desolv Energy     =  -9.45 kcal/mol
DOCKED: USER        Electrostatic Energy            =  +0.01 kcal/mol
DOCKED: USER        Moving Ligand-Fixed Receptor    =  -9.45 kcal/mol
DOCKED: USER        Moving Ligand-Moving Receptor   =  +0.00 kcal/mol
DOCKED: USER    (2) Final Total Internal Energy     =  -1.77 kcal/mol
DOCKED: USER    (3) Torsional Free Energy           =  +1.79 kcal/mol
DOCKED: USER    (4) Unbound System's Energy         =  -1.77 kcal/mol
DOCKED: USER
DOCKED: USER
DOCKED: REMARK SMILES COc1cccc([C@H](C)NC(=O)CNC(=O)c2ccc3ccccc3n2)c1
DOCKED: REMARK SMILES IDX 10 1 11 2 12 3 8 5 9 6 7 7 3 8 4 9 27 10 5 11 6 12 2 13 1 14
DOCKED: REMARK SMILES IDX 13 15 14 16 15 17 16 19 17 20 18 21 26 22 19 23 25 24 20 25
DOCKED: REMARK SMILES IDX 24 26 21 27 23 28 22 29
DOCKED: REMARK H PARENT 10 4 14 18
DOCKED: USER                              x       y       z     vdW  Elec       q    Type
DOCKED: USER                           _______ _______ _______ _____ _____    ______ ____
DOCKED: ROOT
DOCKED: ATOM      1  N   UNL     1     139.250  75.007 222.000 -0.16 +0.07    -0.348 N  
DOCKED: ATOM      2  C   UNL     1     140.156  74.858 220.930 -0.17 -0.05    +0.239 C  
DOCKED: ATOM      3  O   UNL     1     140.297  75.819 220.115 -0.06 +0.08    -0.273 OA 
DOCKED: ATOM      4  H   UNL     1     139.120  74.226 222.681 -0.49 -0.05    +0.164 HD 
DOCKED: ENDROOT
DOCKED: BRANCH   1   5
DOCKED: ATOM      5  C   UNL     1     138.507  76.221 222.157 -0.25 -0.02    +0.109 C  
DOCKED: ATOM      6  C   UNL     1     137.316  76.080 223.067 -0.22 -0.01    +0.036 C  
DOCKED: BRANCH   5   7
DOCKED: ATOM      7  C   UNL     1     139.334  77.348 222.653 -0.29 +0.00    -0.022 A  
DOCKED: ATOM      8  C   UNL     1     139.492  79.591 223.526 -0.35 -0.02    +0.119 A  
DOCKED: ATOM      9  C   UNL     1     140.885  79.473 223.590 -0.50 -0.01    +0.046 A  
DOCKED: ATOM     10  C   UNL     1     138.737  78.534 223.061 -0.28 -0.01    +0.052 A  
DOCKED: ATOM     11  C   UNL     1     141.500  78.301 223.189 -0.54 -0.00    +0.004 A  
DOCKED: ATOM     12  C   UNL     1     140.708  77.268 222.731 -0.40 -0.00    +0.006 A  
DOCKED: BRANCH   8  13
DOCKED: ATOM     13  O   UNL     1     138.940  80.796 223.944 -0.15 +0.05    -0.497 OA 
DOCKED: ATOM     14  C   UNL     1     137.753  80.917 224.675 -0.25 -0.03    +0.278 C  
DOCKED: ENDBRANCH   8  13
DOCKED: ENDBRANCH   5   7
DOCKED: ENDBRANCH   1   5
DOCKED: BRANCH   2  15
DOCKED: ATOM     15  C   UNL     1     140.897  73.584 220.815 -0.16 -0.04    +0.216 C  
DOCKED: BRANCH  15  16
DOCKED: ATOM     16  N   UNL     1     140.875  72.812 222.036 -0.15 +0.02    -0.342 N  
DOCKED: ATOM     17  C   UNL     1     139.694  72.161 222.482 -0.20 -0.05    +0.270 C  
DOCKED: ATOM     18  H   UNL     1     141.724  72.693 222.653 +0.10 +0.02    +0.164 HD 
DOCKED: ATOM     19  O   UNL     1     138.637  72.268 221.780 -0.10 +0.06    -0.268 OA 
DOCKED: BRANCH  17  20
DOCKED: ATOM     20  C   UNL     1     139.700  71.379 223.732 -0.32 -0.03    +0.128 A  
DOCKED: ATOM     21  C   UNL     1     139.018  70.181 223.755 -0.28 -0.01    +0.035 A  
DOCKED: ATOM     22  N   UNL     1     140.366  71.860 224.797 -0.27 +0.04    -0.243 NA 
DOCKED: ATOM     23  C   UNL     1     139.029  69.450 224.937 -0.38 -0.00    +0.013 A  
DOCKED: ATOM     24  C   UNL     1     140.377  71.152 225.947 -0.54 -0.01    +0.071 A  
DOCKED: ATOM     25  C   UNL     1     139.720  69.945 226.050 -0.48 -0.00    +0.000 A  
DOCKED: ATOM     26  C   UNL     1     141.060  71.637 227.053 -0.75 -0.00    +0.029 A  
DOCKED: ATOM     27  C   UNL     1     139.740  69.223 227.247 -0.57 -0.00    +0.010 A  
DOCKED: ATOM     28  C   UNL     1     141.098  70.949 228.247 -0.65 -0.00    +0.002 A  
DOCKED: ATOM     29  C   UNL     1     140.427  69.726 228.336 -0.60 -0.00    +0.001 A  
DOCKED: ENDBRANCH  17  20
DOCKED: ENDBRANCH  15  16
DOCKED: ENDBRANCH   2  15
DOCKED: TORSDOF 6
DOCKED: TER
DOCKED: ENDMDL
________________________________________________________________________________


    FINAL DOCKED STATE:
    ________________________


Run:   8 / 20
Time taken for this run:   0.032s

DOCKED: MODEL        8
DOCKED: USER    Run = 8
DOCKED: USER
DOCKED: USER    Estimated Free Energy of Binding    =  -8.36 kcal/mol  [=(1)+(2)+(3)-(4)]
DOCKED: USER
DOCKED: USER    (1) Final Intermolecular Energy     = -10.15 kcal/mol
DOCKED: USER        vdW + Hbond + desolv Energy     = -10.01 kcal/mol
DOCKED: USER        Electrostatic Energy            =  -0.14 kcal/mol
DOCKED: USER        Moving Ligand-Fixed Receptor    = -10.15 kcal/mol
DOCKED: USER        Moving Ligand-Moving Receptor   =  +0.00 kcal/mol
DOCKED: USER    (2) Final Total Internal Energy     =  -0.98 kcal/mol
DOCKED: USER    (3) Torsional Free Energy           =  +1.79 kcal/mol
DOCKED: USER    (4) Unbound System's Energy         =  -0.98 kcal/mol
DOCKED: USER
DOCKED: USER
DOCKED: REMARK SMILES COc1cccc([C@H](C)NC(=O)CNC(=O)c2ccc3ccccc3n2)c1
DOCKED: REMARK SMILES IDX 10 1 11 2 12 3 8 5 9 6 7 7 3 8 4 9 27 10 5 11 6 12 2 13 1 14
DOCKED: REMARK SMILES IDX 13 15 14 16 15 17 16 19 17 20 18 21 26 22 19 23 25 24 20 25
DOCKED: REMARK SMILES IDX 24 26 21 27 23 28 22 29
DOCKED: REMARK H PARENT 10 4 14 18
DOCKED: USER                              x       y       z     vdW  Elec       q    Type
DOCKED: USER                           _______ _______ _______ _____ _____    ______ ____
DOCKED: ROOT
DOCKED: ATOM      1  N   UNL     1     140.451  76.503 220.465 -0.05 +0.11    -0.348 N  
DOCKED: ATOM      2  C   UNL     1     140.452  75.331 221.247 -0.22 -0.06    +0.239 C  
DOCKED: ATOM      3  O   UNL     1     141.466  75.081 221.966 -0.41 +0.05    -0.273 OA 
DOCKED: ATOM      4  H   UNL     1     139.624  76.726 219.866 +0.04 -0.05    +0.164 HD 
DOCKED: ENDROOT
DOCKED: BRANCH   1   5
DOCKED: ATOM      5  C   UNL     1     141.575  77.390 220.485 -0.25 -0.06    +0.109 C  
DOCKED: ATOM      6  C   UNL     1     141.816  78.080 219.170 -0.26 -0.02    +0.036 C  
DOCKED: BRANCH   5   7
DOCKED: ATOM      7  C   UNL     1     141.476  78.429 221.539 -0.37 +0.01    -0.022 A  
DOCKED: ATOM      8  C   UNL     1     141.305  80.753 222.166 -0.36 -0.03    +0.119 A  
DOCKED: ATOM      9  C   UNL     1     141.288  80.391 223.518 -0.51 -0.01    +0.046 A  
DOCKED: ATOM     10  C   UNL     1     141.398  79.774 221.197 -0.33 -0.02    +0.052 A  
DOCKED: ATOM     11  C   UNL     1     141.366  79.059 223.880 -0.59 -0.00    +0.004 A  
DOCKED: ATOM     12  C   UNL     1     141.457  78.111 222.881 -0.48 -0.00    +0.006 A  
DOCKED: BRANCH   8  13
DOCKED: ATOM     13  O   UNL     1     141.224  82.108 221.873 -0.14 +0.09    -0.497 OA 
DOCKED: ATOM     14  C   UNL     1     141.121  82.640 220.583 -0.16 -0.06    +0.278 C  
DOCKED: ENDBRANCH   8  13
DOCKED: ENDBRANCH   5   7
DOCKED: ENDBRANCH   1   5
DOCKED: BRANCH   2  15
DOCKED: ATOM     15  C   UNL     1     139.265  74.451 221.188 -0.16 -0.05    +0.216 C  
DOCKED: BRANCH  15  16
DOCKED: ATOM     16  N   UNL     1     139.184  73.545 222.311 -0.08 +0.09    -0.342 N  
DOCKED: ATOM     17  C   UNL     1     140.100  72.470 222.466 -0.20 -0.04    +0.270 C  
DOCKED: ATOM     18  H   UNL     1     138.449  73.632 223.065 -0.53 -0.12    +0.164 HD 
DOCKED: ATOM     19  O   UNL     1     141.009  72.314 221.588 -0.19 +0.03    -0.268 OA 
DOCKED: BRANCH  17  20
DOCKED: ATOM     20  C   UNL     1     139.994  71.560 223.621 -0.33 -0.02    +0.128 A  
DOCKED: ATOM     21  C   UNL     1     139.292  70.383 223.461 -0.28 -0.01    +0.035 A  
DOCKED: ATOM     22  N   UNL     1     140.581  71.909 224.780 -0.25 +0.04    -0.243 NA 
DOCKED: ATOM     23  C   UNL     1     139.197  69.531 224.555 -0.35 -0.00    +0.013 A  
DOCKED: ATOM     24  C   UNL     1     140.488  71.082 225.844 -0.54 -0.01    +0.071 A  
DOCKED: ATOM     25  C   UNL     1     139.806  69.888 225.764 -0.47 -0.00    +0.000 A  
DOCKED: ATOM     26  C   UNL     1     141.090  71.430 227.045 -0.72 -0.00    +0.029 A  
DOCKED: ATOM     27  C   UNL     1     139.719  69.043 226.875 -0.56 -0.00    +0.010 A  
DOCKED: ATOM     28  C   UNL     1     141.022  70.618 228.157 -0.63 -0.00    +0.002 A  
DOCKED: ATOM     29  C   UNL     1     140.325  69.409 228.061 -0.64 -0.00    +0.001 A  
DOCKED: ENDBRANCH  17  20
DOCKED: ENDBRANCH  15  16
DOCKED: ENDBRANCH   2  15
DOCKED: TORSDOF 6
DOCKED: TER
DOCKED: ENDMDL
________________________________________________________________________________


    FINAL DOCKED STATE:
    ________________________


Run:   9 / 20
Time taken for this run:   0.032s

DOCKED: MODEL        9
DOCKED: USER    Run = 9
DOCKED: USER
DOCKED: USER    Estimated Free Energy of Binding    =  -7.32 kcal/mol  [=(1)+(2)+(3)-(4)]
DOCKED: USER
DOCKED: USER    (1) Final Intermolecular Energy     =  -9.11 kcal/mol
DOCKED: USER        vdW + Hbond + desolv Energy     =  -9.08 kcal/mol
DOCKED: USER        Electrostatic Energy            =  -0.04 kcal/mol
DOCKED: USER        Moving Ligand-Fixed Receptor    =  -9.11 kcal/mol
DOCKED: USER        Moving Ligand-Moving Receptor   =  +0.00 kcal/mol
DOCKED: USER    (2) Final Total Internal Energy     =  -2.06 kcal/mol
DOCKED: USER    (3) Torsional Free Energy           =  +1.79 kcal/mol
DOCKED: USER    (4) Unbound System's Energy         =  -2.06 kcal/mol
DOCKED: USER
DOCKED: USER
DOCKED: REMARK SMILES COc1cccc([C@H](C)NC(=O)CNC(=O)c2ccc3ccccc3n2)c1
DOCKED: REMARK SMILES IDX 10 1 11 2 12 3 8 5 9 6 7 7 3 8 4 9 27 10 5 11 6 12 2 13 1 14
DOCKED: REMARK SMILES IDX 13 15 14 16 15 17 16 19 17 20 18 21 26 22 19 23 25 24 20 25
DOCKED: REMARK SMILES IDX 24 26 21 27 23 28 22 29
DOCKED: REMARK H PARENT 10 4 14 18
DOCKED: USER                              x       y       z     vdW  Elec       q    Type
DOCKED: USER                           _______ _______ _______ _____ _____    ______ ____
DOCKED: ROOT
DOCKED: ATOM      1  N   UNL     1     138.245  74.497 222.092 -0.06 +0.11    -0.348 N  
DOCKED: ATOM      2  C   UNL     1     137.731  73.683 221.062 -0.07 -0.05    +0.239 C  
DOCKED: ATOM      3  O   UNL     1     136.785  74.133 220.346 -0.02 +0.05    -0.273 OA 
DOCKED: ATOM      4  H   UNL     1     139.024  74.143 222.691 -0.52 -0.06    +0.164 HD 
DOCKED: ENDROOT
DOCKED: BRANCH   1   5
DOCKED: ATOM      5  C   UNL     1     137.707  75.803 222.321 -0.23 -0.03    +0.109 C  
DOCKED: ATOM      6  C   UNL     1     136.708  75.850 223.446 -0.15 -0.01    +0.036 C  
DOCKED: BRANCH   5   7
DOCKED: ATOM      7  C   UNL     1     138.750  76.823 222.590 -0.29 +0.00    -0.022 A  
DOCKED: ATOM      8  C   UNL     1     139.362  79.034 223.336 -0.31 -0.02    +0.119 A  
DOCKED: ATOM      9  C   UNL     1     140.711  78.745 223.100 -0.46 -0.01    +0.046 A  
DOCKED: ATOM     10  C   UNL     1     138.403  78.075 223.080 -0.21 -0.01    +0.052 A  
DOCKED: ATOM     11  C   UNL     1     141.079  77.505 222.611 -0.45 -0.00    +0.004 A  
DOCKED: ATOM     12  C   UNL     1     140.089  76.575 222.369 -0.38 -0.00    +0.006 A  
DOCKED: BRANCH   8  13
DOCKED: ATOM     13  O   UNL     1     139.062  80.299 223.827 -0.15 +0.06    -0.497 OA 
DOCKED: ATOM     14  C   UNL     1     137.821  80.678 224.348 -0.24 -0.03    +0.278 C  
DOCKED: ENDBRANCH   8  13
DOCKED: ENDBRANCH   5   7
DOCKED: ENDBRANCH   1   5
DOCKED: BRANCH   2  15
DOCKED: ATOM     15  C   UNL     1     138.324  72.342 220.869 -0.06 -0.04    +0.216 C  
DOCKED: BRANCH  15  16
DOCKED: ATOM     16  N   UNL     1     138.599  71.667 222.116 -0.07 +0.08    -0.342 N  
DOCKED: ATOM     17  C   UNL     1     139.762  71.957 222.878 -0.21 -0.05    +0.270 C  
DOCKED: ATOM     18  H   UNL     1     137.958  70.932 222.522 +0.04 -0.03    +0.164 HD 
DOCKED: ATOM     19  O   UNL     1     140.573  72.835 222.440 -0.58 +0.01    -0.268 OA 
DOCKED: BRANCH  17  20
DOCKED: ATOM     20  C   UNL     1     140.017  71.252 224.147 -0.36 -0.02    +0.128 A  
DOCKED: ATOM     21  C   UNL     1     140.775  71.891 225.107 -0.34 -0.00    +0.035 A  
DOCKED: ATOM     22  N   UNL     1     139.505  70.021 224.323 -0.18 +0.04    -0.243 NA 
DOCKED: ATOM     23  C   UNL     1     141.011  71.220 226.301 -0.66 -0.00    +0.013 A  
DOCKED: ATOM     24  C   UNL     1     139.734  69.367 225.482 -0.39 -0.01    +0.071 A  
DOCKED: ATOM     25  C   UNL     1     140.480  69.938 226.490 -0.55 -0.00    +0.000 A  
DOCKED: ATOM     26  C   UNL     1     139.211  68.097 225.676 -0.50 -0.00    +0.029 A  
DOCKED: ATOM     27  C   UNL     1     140.709  69.248 227.685 -0.62 -0.00    +0.010 A  
DOCKED: ATOM     28  C   UNL     1     139.418  67.391 226.842 -0.57 -0.00    +0.002 A  
DOCKED: ATOM     29  C   UNL     1     140.178  67.984 227.855 -0.50 -0.00    +0.001 A  
DOCKED: ENDBRANCH  17  20
DOCKED: ENDBRANCH  15  16
DOCKED: ENDBRANCH   2  15
DOCKED: TORSDOF 6
DOCKED: TER
DOCKED: ENDMDL
________________________________________________________________________________


    FINAL DOCKED STATE:
    ________________________


Run:   10 / 20
Time taken for this run:   0.032s

DOCKED: MODEL        10
DOCKED: USER    Run = 10
DOCKED: USER
DOCKED: USER    Estimated Free Energy of Binding    =  -7.33 kcal/mol  [=(1)+(2)+(3)-(4)]
DOCKED: USER
DOCKED: USER    (1) Final Intermolecular Energy     =  -9.12 kcal/mol
DOCKED: USER        vdW + Hbond + desolv Energy     =  -9.01 kcal/mol
DOCKED: USER        Electrostatic Energy            =  -0.11 kcal/mol
DOCKED: USER        Moving Ligand-Fixed Receptor    =  -9.12 kcal/mol
DOCKED: USER        Moving Ligand-Moving Receptor   =  +0.00 kcal/mol
DOCKED: USER    (2) Final Total Internal Energy     =  -1.92 kcal/mol
DOCKED: USER    (3) Torsional Free Energy           =  +1.79 kcal/mol
DOCKED: USER    (4) Unbound System's Energy         =  -1.92 kcal/mol
DOCKED: USER
DOCKED: USER
DOCKED: REMARK SMILES COc1cccc([C@H](C)NC(=O)CNC(=O)c2ccc3ccccc3n2)c1
DOCKED: REMARK SMILES IDX 10 1 11 2 12 3 8 5 9 6 7 7 3 8 4 9 27 10 5 11 6 12 2 13 1 14
DOCKED: REMARK SMILES IDX 13 15 14 16 15 17 16 19 17 20 18 21 26 22 19 23 25 24 20 25
DOCKED: REMARK SMILES IDX 24 26 21 27 23 28 22 29
DOCKED: REMARK H PARENT 10 4 14 18
DOCKED: USER                              x       y       z     vdW  Elec       q    Type
DOCKED: USER                           _______ _______ _______ _____ _____    ______ ____
DOCKED: ROOT
DOCKED: ATOM      1  N   UNL     1     137.203  73.481 222.245 -0.05 +0.11    -0.348 N  
DOCKED: ATOM      2  C   UNL     1     137.171  73.549 220.838 -0.05 -0.05    +0.239 C  
DOCKED: ATOM      3  O   UNL     1     136.182  73.041 220.227 -0.01 +0.05    -0.273 OA 
DOCKED: ATOM      4  H   UNL     1     138.010  73.894 222.766 -0.53 -0.09    +0.164 HD 
DOCKED: ENDROOT
DOCKED: BRANCH   1   5
DOCKED: ATOM      5  C   UNL     1     136.139  72.850 222.965 -0.14 -0.03    +0.109 C  
DOCKED: ATOM      6  C   UNL     1     136.569  71.608 223.699 -0.19 -0.01    +0.036 C  
DOCKED: BRANCH   5   7
DOCKED: ATOM      7  C   UNL     1     135.480  73.754 223.940 -0.23 +0.00    -0.022 A  
DOCKED: ATOM      8  C   UNL     1     134.051  74.066 225.857 -0.28 +0.00    +0.119 A  
DOCKED: ATOM      9  C   UNL     1     134.238  75.451 225.777 -0.37 -0.00    +0.046 A  
DOCKED: ATOM     10  C   UNL     1     134.670  73.238 224.943 -0.26 -0.00    +0.052 A  
DOCKED: ATOM     11  C   UNL     1     135.039  75.985 224.785 -0.30 -0.00    +0.004 A  
DOCKED: ATOM     12  C   UNL     1     135.641  75.123 223.892 -0.29 -0.00    +0.006 A  
DOCKED: BRANCH   8  13
DOCKED: ATOM     13  O   UNL     1     133.233  73.597 226.878 -0.72 -0.03    -0.497 OA 
DOCKED: ATOM     14  C   UNL     1     132.962  72.247 227.125 -0.27 -0.03    +0.278 C  
DOCKED: ENDBRANCH   8  13
DOCKED: ENDBRANCH   5   7
DOCKED: ENDBRANCH   1   5
DOCKED: BRANCH   2  15
DOCKED: ATOM     15  C   UNL     1     138.295  74.213 220.144 -0.04 -0.04    +0.216 C  
DOCKED: BRANCH  15  16
DOCKED: ATOM     16  N   UNL     1     138.588  75.523 220.679 -0.03 +0.08    -0.342 N  
DOCKED: ATOM     17  C   UNL     1     139.448  75.695 221.796 -0.21 -0.06    +0.270 C  
DOCKED: ATOM     18  H   UNL     1     138.181  76.410 220.274 +0.03 -0.04    +0.164 HD 
DOCKED: ATOM     19  O   UNL     1     139.969  74.662 222.328 -0.77 +0.01    -0.268 OA 
DOCKED: BRANCH  17  20
DOCKED: ATOM     20  C   UNL     1     139.728  77.044 222.321 -0.30 -0.03    +0.128 A  
DOCKED: ATOM     21  C   UNL     1     138.662  77.818 222.731 -0.28 -0.01    +0.035 A  
DOCKED: ATOM     22  N   UNL     1     141.003  77.467 222.381 -0.27 +0.10    -0.243 NA 
DOCKED: ATOM     23  C   UNL     1     138.935  79.088 223.225 -0.33 -0.00    +0.013 A  
DOCKED: ATOM     24  C   UNL     1     141.269  78.701 222.860 -0.47 -0.02    +0.071 A  
DOCKED: ATOM     25  C   UNL     1     140.260  79.535 223.290 -0.45 -0.00    +0.000 A  
DOCKED: ATOM     26  C   UNL     1     142.581  79.150 222.927 -0.51 -0.01    +0.029 A  
DOCKED: ATOM     27  C   UNL     1     140.552  80.811 223.783 -0.41 -0.00    +0.010 A  
DOCKED: ATOM     28  C   UNL     1     142.901  80.402 223.408 -0.68 -0.00    +0.002 A  
DOCKED: ATOM     29  C   UNL     1     141.865  81.237 223.841 -0.61 -0.00    +0.001 A  
DOCKED: ENDBRANCH  17  20
DOCKED: ENDBRANCH  15  16
DOCKED: ENDBRANCH   2  15
DOCKED: TORSDOF 6
DOCKED: TER
DOCKED: ENDMDL
________________________________________________________________________________


    FINAL DOCKED STATE:
    ________________________


Run:   11 / 20
Time taken for this run:   0.032s

DOCKED: MODEL        11
DOCKED: USER    Run = 11
DOCKED: USER
DOCKED: USER    Estimated Free Energy of Binding    =  -8.35 kcal/mol  [=(1)+(2)+(3)-(4)]
DOCKED: USER
DOCKED: USER    (1) Final Intermolecular Energy     = -10.14 kcal/mol
DOCKED: USER        vdW + Hbond + desolv Energy     =  -9.75 kcal/mol
DOCKED: USER        Electrostatic Energy            =  -0.39 kcal/mol
DOCKED: USER        Moving Ligand-Fixed Receptor    = -10.14 kcal/mol
DOCKED: USER        Moving Ligand-Moving Receptor   =  +0.00 kcal/mol
DOCKED: USER    (2) Final Total Internal Energy     =  -1.21 kcal/mol
DOCKED: USER    (3) Torsional Free Energy           =  +1.79 kcal/mol
DOCKED: USER    (4) Unbound System's Energy         =  -1.21 kcal/mol
DOCKED: USER
DOCKED: USER
DOCKED: REMARK SMILES COc1cccc([C@H](C)NC(=O)CNC(=O)c2ccc3ccccc3n2)c1
DOCKED: REMARK SMILES IDX 10 1 11 2 12 3 8 5 9 6 7 7 3 8 4 9 27 10 5 11 6 12 2 13 1 14
DOCKED: REMARK SMILES IDX 13 15 14 16 15 17 16 19 17 20 18 21 26 22 19 23 25 24 20 25
DOCKED: REMARK SMILES IDX 24 26 21 27 23 28 22 29
DOCKED: REMARK H PARENT 10 4 14 18
DOCKED: USER                              x       y       z     vdW  Elec       q    Type
DOCKED: USER                           _______ _______ _______ _____ _____    ______ ____
DOCKED: ROOT
DOCKED: ATOM      1  N   UNL     1     141.445  74.664 219.250 -0.02 +0.10    -0.348 N  
DOCKED: ATOM      2  C   UNL     1     141.034  74.653 220.599 -0.16 -0.06    +0.239 C  
DOCKED: ATOM      3  O   UNL     1     141.790  75.180 221.469 -0.26 +0.09    -0.273 OA 
DOCKED: ATOM      4  H   UNL     1     140.834  74.234 218.519 +0.03 -0.04    +0.164 HD 
DOCKED: ENDROOT
DOCKED: BRANCH   1   5
DOCKED: ATOM      5  C   UNL     1     142.692  75.259 218.877 -0.20 -0.04    +0.109 C  
DOCKED: ATOM      6  C   UNL     1     142.846  76.676 219.359 -0.35 -0.02    +0.036 C  
DOCKED: BRANCH   5   7
DOCKED: ATOM      7  C   UNL     1     143.868  74.485 219.345 -0.32 +0.01    -0.022 A  
DOCKED: ATOM      8  C   UNL     1     145.401  72.644 219.057 -0.26 +0.05    +0.119 A  
DOCKED: ATOM      9  C   UNL     1     146.082  73.024 220.219 -0.52 +0.01    +0.046 A  
DOCKED: ATOM     10  C   UNL     1     144.308  73.374 218.635 -0.20 -0.01    +0.052 A  
DOCKED: ATOM     11  C   UNL     1     145.660  74.125 220.941 -0.60 -0.00    +0.004 A  
DOCKED: ATOM     12  C   UNL     1     144.564  74.828 220.485 -0.38 -0.00    +0.006 A  
DOCKED: BRANCH   8  13
DOCKED: ATOM     13  O   UNL     1     145.877  71.528 218.381 -0.33 -0.55    -0.497 OA 
DOCKED: ATOM     14  C   UNL     1     145.372  70.232 218.528 -0.15 +0.11    +0.278 C  
DOCKED: ENDBRANCH   8  13
DOCKED: ENDBRANCH   5   7
DOCKED: ENDBRANCH   1   5
DOCKED: BRANCH   2  15
DOCKED: ATOM     15  C   UNL     1     139.736  74.026 220.928 -0.14 -0.04    +0.216 C  
DOCKED: BRANCH  15  16
DOCKED: ATOM     16  N   UNL     1     139.759  73.322 222.190 -0.15 +0.05    -0.342 N  
DOCKED: ATOM     17  C   UNL     1     140.042  71.932 222.261 -0.20 -0.04    +0.270 C  
DOCKED: ATOM     18  H   UNL     1     139.568  73.798 223.114 -0.51 -0.03    +0.164 HD 
DOCKED: ATOM     19  O   UNL     1     140.281  71.304 221.179 -0.10 +0.04    -0.268 OA 
DOCKED: BRANCH  17  20
DOCKED: ATOM     20  C   UNL     1     140.059  71.240 223.563 -0.32 -0.02    +0.128 A  
DOCKED: ATOM     21  C   UNL     1     139.563  69.954 223.623 -0.27 -0.01    +0.035 A  
DOCKED: ATOM     22  N   UNL     1     140.554  71.883 224.635 -0.27 +0.03    -0.243 NA 
DOCKED: ATOM     23  C   UNL     1     139.582  69.309 224.854 -0.38 -0.00    +0.013 A  
DOCKED: ATOM     24  C   UNL     1     140.573  71.257 225.832 -0.54 -0.01    +0.071 A  
DOCKED: ATOM     25  C   UNL     1     140.096  69.972 225.975 -0.50 -0.00    +0.000 A  
DOCKED: ATOM     26  C   UNL     1     141.082  71.908 226.946 -0.76 -0.01    +0.029 A  
DOCKED: ATOM     27  C   UNL     1     140.123  69.338 227.221 -0.59 -0.00    +0.010 A  
DOCKED: ATOM     28  C   UNL     1     141.121  71.310 228.187 -0.73 -0.00    +0.002 A  
DOCKED: ATOM     29  C   UNL     1     140.633  70.006 228.317 -0.58 -0.00    +0.001 A  
DOCKED: ENDBRANCH  17  20
DOCKED: ENDBRANCH  15  16
DOCKED: ENDBRANCH   2  15
DOCKED: TORSDOF 6
DOCKED: TER
DOCKED: ENDMDL
________________________________________________________________________________


    FINAL DOCKED STATE:
    ________________________


Run:   12 / 20
Time taken for this run:   0.032s

DOCKED: MODEL        12
DOCKED: USER    Run = 12
DOCKED: USER
DOCKED: USER    Estimated Free Energy of Binding    =  -8.01 kcal/mol  [=(1)+(2)+(3)-(4)]
DOCKED: USER
DOCKED: USER    (1) Final Intermolecular Energy     =  -9.80 kcal/mol
DOCKED: USER        vdW + Hbond + desolv Energy     =  -9.79 kcal/mol
DOCKED: USER        Electrostatic Energy            =  -0.01 kcal/mol
DOCKED: USER        Moving Ligand-Fixed Receptor    =  -9.80 kcal/mol
DOCKED: USER        Moving Ligand-Moving Receptor   =  +0.00 kcal/mol
DOCKED: USER    (2) Final Total Internal Energy     =  -1.23 kcal/mol
DOCKED: USER    (3) Torsional Free Energy           =  +1.79 kcal/mol
DOCKED: USER    (4) Unbound System's Energy         =  -1.23 kcal/mol
DOCKED: USER
DOCKED: USER
DOCKED: REMARK SMILES COc1cccc([C@H](C)NC(=O)CNC(=O)c2ccc3ccccc3n2)c1
DOCKED: REMARK SMILES IDX 10 1 11 2 12 3 8 5 9 6 7 7 3 8 4 9 27 10 5 11 6 12 2 13 1 14
DOCKED: REMARK SMILES IDX 13 15 14 16 15 17 16 19 17 20 18 21 26 22 19 23 25 24 20 25
DOCKED: REMARK SMILES IDX 24 26 21 27 23 28 22 29
DOCKED: REMARK H PARENT 10 4 14 18
DOCKED: USER                              x       y       z     vdW  Elec       q    Type
DOCKED: USER                           _______ _______ _______ _____ _____    ______ ____
DOCKED: ROOT
DOCKED: ATOM      1  N   UNL     1     140.788  76.342 221.705 -0.18 +0.12    -0.348 N  
DOCKED: ATOM      2  C   UNL     1     140.186  75.220 221.099 -0.19 -0.05    +0.239 C  
DOCKED: ATOM      3  O   UNL     1     139.011  75.337 220.635 -0.06 +0.06    -0.273 OA 
DOCKED: ATOM      4  H   UNL     1     141.755  76.265 222.093 -0.47 -0.10    +0.164 HD 
DOCKED: ENDROOT
DOCKED: BRANCH   1   5
DOCKED: ATOM      5  C   UNL     1     140.082  77.585 221.793 -0.27 -0.03    +0.109 C  
DOCKED: ATOM      6  C   UNL     1     138.868  77.521 222.680 -0.28 -0.01    +0.036 C  
DOCKED: BRANCH   5   7
DOCKED: ATOM      7  C   UNL     1     140.934  78.705 222.261 -0.39 +0.01    -0.022 A  
DOCKED: ATOM      8  C   UNL     1     141.759  80.955 221.982 -0.39 -0.03    +0.119 A  
DOCKED: ATOM      9  C   UNL     1     142.536  80.818 223.138 -0.59 -0.01    +0.046 A  
DOCKED: ATOM     10  C   UNL     1     140.972  79.903 221.559 -0.30 -0.02    +0.052 A  
DOCKED: ATOM     11  C   UNL     1     142.515  79.634 223.851 -0.52 -0.00    +0.004 A  
DOCKED: ATOM     12  C   UNL     1     141.713  78.607 223.395 -0.59 -0.00    +0.006 A  
DOCKED: BRANCH   8  13
DOCKED: ATOM     13  O   UNL     1     141.828  82.171 221.314 -0.12 +0.11    -0.497 OA 
DOCKED: ATOM     14  C   UNL     1     140.878  82.631 220.396 -0.17 -0.07    +0.278 C  
DOCKED: ENDBRANCH   8  13
DOCKED: ENDBRANCH   5   7
DOCKED: ENDBRANCH   1   5
DOCKED: BRANCH   2  15
DOCKED: ATOM     15  C   UNL     1     140.960  73.962 221.035 -0.19 -0.04    +0.216 C  
DOCKED: BRANCH  15  16
DOCKED: ATOM     16  N   UNL     1     140.874  73.190 222.253 -0.09 -0.00    -0.342 N  
DOCKED: ATOM     17  C   UNL     1     140.002  72.075 222.367 -0.21 -0.04    +0.270 C  
DOCKED: ATOM     18  H   UNL     1     141.448  73.412 223.112 +0.17 +0.06    +0.164 HD 
DOCKED: ATOM     19  O   UNL     1     139.284  71.759 221.364 -0.08 +0.05    -0.268 OA 
DOCKED: BRANCH  17  20
DOCKED: ATOM     20  C   UNL     1     139.935  71.306 223.623 -0.32 -0.02    +0.128 A  
DOCKED: ATOM     21  C   UNL     1     139.275  70.094 223.610 -0.27 -0.01    +0.035 A  
DOCKED: ATOM     22  N   UNL     1     140.515  71.809 224.726 -0.28 +0.04    -0.243 NA 
DOCKED: ATOM     23  C   UNL     1     139.217  69.375 224.798 -0.37 -0.00    +0.013 A  
DOCKED: ATOM     24  C   UNL     1     140.459  71.112 225.881 -0.54 -0.01    +0.071 A  
DOCKED: ATOM     25  C   UNL     1     139.819  69.893 225.951 -0.48 -0.00    +0.000 A  
DOCKED: ATOM     26  C   UNL     1     141.054  71.620 227.027 -0.74 -0.00    +0.029 A  
DOCKED: ATOM     27  C   UNL     1     139.769  69.183 227.154 -0.57 -0.00    +0.010 A  
DOCKED: ATOM     28  C   UNL     1     141.021  70.944 228.228 -0.66 -0.00    +0.002 A  
DOCKED: ATOM     29  C   UNL     1     140.368  69.709 228.283 -0.61 -0.00    +0.001 A  
DOCKED: ENDBRANCH  17  20
DOCKED: ENDBRANCH  15  16
DOCKED: ENDBRANCH   2  15
DOCKED: TORSDOF 6
DOCKED: TER
DOCKED: ENDMDL
________________________________________________________________________________


    FINAL DOCKED STATE:
    ________________________


Run:   13 / 20
Time taken for this run:   0.032s

DOCKED: MODEL        13
DOCKED: USER    Run = 13
DOCKED: USER
DOCKED: USER    Estimated Free Energy of Binding    =  -7.27 kcal/mol  [=(1)+(2)+(3)-(4)]
DOCKED: USER
DOCKED: USER    (1) Final Intermolecular Energy     =  -9.05 kcal/mol
DOCKED: USER        vdW + Hbond + desolv Energy     =  -9.02 kcal/mol
DOCKED: USER        Electrostatic Energy            =  -0.03 kcal/mol
DOCKED: USER        Moving Ligand-Fixed Receptor    =  -9.05 kcal/mol
DOCKED: USER        Moving Ligand-Moving Receptor   =  +0.00 kcal/mol
DOCKED: USER    (2) Final Total Internal Energy     =  -2.07 kcal/mol
DOCKED: USER    (3) Torsional Free Energy           =  +1.79 kcal/mol
DOCKED: USER    (4) Unbound System's Energy         =  -2.07 kcal/mol
DOCKED: USER
DOCKED: USER
DOCKED: REMARK SMILES COc1cccc([C@H](C)NC(=O)CNC(=O)c2ccc3ccccc3n2)c1
DOCKED: REMARK SMILES IDX 10 1 11 2 12 3 8 5 9 6 7 7 3 8 4 9 27 10 5 11 6 12 2 13 1 14
DOCKED: REMARK SMILES IDX 13 15 14 16 15 17 16 19 17 20 18 21 26 22 19 23 25 24 20 25
DOCKED: REMARK SMILES IDX 24 26 21 27 23 28 22 29
DOCKED: REMARK H PARENT 10 4 14 18
DOCKED: USER                              x       y       z     vdW  Elec       q    Type
DOCKED: USER                           _______ _______ _______ _____ _____    ______ ____
DOCKED: ROOT
DOCKED: ATOM      1  N   UNL     1     138.199  74.483 222.075 -0.07 +0.11    -0.348 N  
DOCKED: ATOM      2  C   UNL     1     137.585  73.642 221.124 -0.07 -0.05    +0.239 C  
DOCKED: ATOM      3  O   UNL     1     136.565  74.070 220.504 -0.02 +0.05    -0.273 OA 
DOCKED: ATOM      4  H   UNL     1     139.041  74.148 222.596 -0.43 -0.05    +0.164 HD 
DOCKED: ENDROOT
DOCKED: BRANCH   1   5
DOCKED: ATOM      5  C   UNL     1     137.677  75.791 222.331 -0.22 -0.03    +0.109 C  
DOCKED: ATOM      6  C   UNL     1     136.699  75.831 223.475 -0.14 -0.01    +0.036 C  
DOCKED: BRANCH   5   7
DOCKED: ATOM      7  C   UNL     1     138.734  76.798 222.595 -0.29 +0.00    -0.022 A  
DOCKED: ATOM      8  C   UNL     1     139.376  79.002 223.335 -0.30 -0.02    +0.119 A  
DOCKED: ATOM      9  C   UNL     1     140.721  78.696 223.094 -0.46 -0.01    +0.046 A  
DOCKED: ATOM     10  C   UNL     1     138.404  78.055 223.083 -0.20 -0.01    +0.052 A  
DOCKED: ATOM     11  C   UNL     1     141.071  77.451 222.606 -0.44 -0.00    +0.004 A  
DOCKED: ATOM     12  C   UNL     1     140.069  76.532 222.370 -0.38 -0.00    +0.006 A  
DOCKED: BRANCH   8  13
DOCKED: ATOM     13  O   UNL     1     139.094  80.272 223.824 -0.15 +0.06    -0.497 OA 
DOCKED: ATOM     14  C   UNL     1     137.848  80.680 224.309 -0.24 -0.03    +0.278 C  
DOCKED: ENDBRANCH   8  13
DOCKED: ENDBRANCH   5   7
DOCKED: ENDBRANCH   1   5
DOCKED: BRANCH   2  15
DOCKED: ATOM     15  C   UNL     1     138.166  72.302 220.899 -0.05 -0.04    +0.216 C  
DOCKED: BRANCH  15  16
DOCKED: ATOM     16  N   UNL     1     138.492  71.619 222.130 -0.06 +0.08    -0.342 N  
DOCKED: ATOM     17  C   UNL     1     139.628  71.980 222.902 -0.19 -0.06    +0.270 C  
DOCKED: ATOM     18  H   UNL     1     137.911  70.825 222.515 +0.04 -0.03    +0.164 HD 
DOCKED: ATOM     19  O   UNL     1     140.367  72.931 222.489 -0.65 +0.01    -0.268 OA 
DOCKED: BRANCH  17  20
DOCKED: ATOM     20  C   UNL     1     139.937  71.266 224.154 -0.36 -0.02    +0.128 A  
DOCKED: ATOM     21  C   UNL     1     140.745  71.893 225.080 -0.35 -0.00    +0.035 A  
DOCKED: ATOM     22  N   UNL     1     139.422  70.039 224.347 -0.18 +0.04    -0.243 NA 
DOCKED: ATOM     23  C   UNL     1     141.031  71.213 226.258 -0.66 -0.00    +0.013 A  
DOCKED: ATOM     24  C   UNL     1     139.700  69.377 225.491 -0.39 -0.01    +0.071 A  
DOCKED: ATOM     25  C   UNL     1     140.499  69.935 226.465 -0.55 -0.00    +0.000 A  
DOCKED: ATOM     26  C   UNL     1     139.175  68.110 225.703 -0.50 -0.00    +0.029 A  
DOCKED: ATOM     27  C   UNL     1     140.777  69.236 227.644 -0.61 -0.00    +0.010 A  
DOCKED: ATOM     28  C   UNL     1     139.431  67.396 226.854 -0.56 -0.00    +0.002 A  
DOCKED: ATOM     29  C   UNL     1     140.244  67.976 227.833 -0.51 -0.00    +0.001 A  
DOCKED: ENDBRANCH  17  20
DOCKED: ENDBRANCH  15  16
DOCKED: ENDBRANCH   2  15
DOCKED: TORSDOF 6
DOCKED: TER
DOCKED: ENDMDL
________________________________________________________________________________


    FINAL DOCKED STATE:
    ________________________


Run:   14 / 20
Time taken for this run:   0.032s

DOCKED: MODEL        14
DOCKED: USER    Run = 14
DOCKED: USER
DOCKED: USER    Estimated Free Energy of Binding    =  -8.43 kcal/mol  [=(1)+(2)+(3)-(4)]
DOCKED: USER
DOCKED: USER    (1) Final Intermolecular Energy     = -10.22 kcal/mol
DOCKED: USER        vdW + Hbond + desolv Energy     = -10.08 kcal/mol
DOCKED: USER        Electrostatic Energy            =  -0.14 kcal/mol
DOCKED: USER        Moving Ligand-Fixed Receptor    = -10.22 kcal/mol
DOCKED: USER        Moving Ligand-Moving Receptor   =  +0.00 kcal/mol
DOCKED: USER    (2) Final Total Internal Energy     =  -0.97 kcal/mol
DOCKED: USER    (3) Torsional Free Energy           =  +1.79 kcal/mol
DOCKED: USER    (4) Unbound System's Energy         =  -0.97 kcal/mol
DOCKED: USER
DOCKED: USER
DOCKED: REMARK SMILES COc1cccc([C@H](C)NC(=O)CNC(=O)c2ccc3ccccc3n2)c1
DOCKED: REMARK SMILES IDX 10 1 11 2 12 3 8 5 9 6 7 7 3 8 4 9 27 10 5 11 6 12 2 13 1 14
DOCKED: REMARK SMILES IDX 13 15 14 16 15 17 16 19 17 20 18 21 26 22 19 23 25 24 20 25
DOCKED: REMARK SMILES IDX 24 26 21 27 23 28 22 29
DOCKED: REMARK H PARENT 10 4 14 18
DOCKED: USER                              x       y       z     vdW  Elec       q    Type
DOCKED: USER                           _______ _______ _______ _____ _____    ______ ____
DOCKED: ROOT
DOCKED: ATOM      1  N   UNL     1     140.450  76.638 220.568 -0.06 +0.12    -0.348 N  
DOCKED: ATOM      2  C   UNL     1     140.451  75.431 221.295 -0.22 -0.06    +0.239 C  
DOCKED: ATOM      3  O   UNL     1     141.477  75.133 221.978 -0.39 +0.06    -0.273 OA 
DOCKED: ATOM      4  H   UNL     1     139.614  76.900 220.000 +0.04 -0.05    +0.164 HD 
DOCKED: ENDROOT
DOCKED: BRANCH   1   5
DOCKED: ATOM      5  C   UNL     1     141.588  77.506 220.603 -0.25 -0.06    +0.109 C  
DOCKED: ATOM      6  C   UNL     1     141.811  78.253 219.315 -0.27 -0.02    +0.036 C  
DOCKED: BRANCH   5   7
DOCKED: ATOM      7  C   UNL     1     141.529  78.498 221.705 -0.38 +0.01    -0.022 A  
DOCKED: ATOM      8  C   UNL     1     141.481  80.794 222.442 -0.41 -0.03    +0.119 A  
DOCKED: ATOM      9  C   UNL     1     141.416  80.369 223.775 -0.51 -0.01    +0.046 A  
DOCKED: ATOM     10  C   UNL     1     141.537  79.859 221.429 -0.36 -0.02    +0.052 A  
DOCKED: ATOM     11  C   UNL     1     141.408  79.019 224.072 -0.57 -0.00    +0.004 A  
DOCKED: ATOM     12  C   UNL     1     141.464  78.117 223.029 -0.49 -0.00    +0.006 A  
DOCKED: BRANCH   8  13
DOCKED: ATOM     13  O   UNL     1     141.486  82.165 222.216 -0.15 +0.07    -0.497 OA 
DOCKED: ATOM     14  C   UNL     1     141.036  82.780 221.042 -0.19 -0.05    +0.278 C  
DOCKED: ENDBRANCH   8  13
DOCKED: ENDBRANCH   5   7
DOCKED: ENDBRANCH   1   5
DOCKED: BRANCH   2  15
DOCKED: ATOM     15  C   UNL     1     139.249  74.572 221.224 -0.16 -0.05    +0.216 C  
DOCKED: BRANCH  15  16
DOCKED: ATOM     16  N   UNL     1     139.177  73.621 222.309 -0.08 +0.09    -0.342 N  
DOCKED: ATOM     17  C   UNL     1     140.090  72.538 222.411 -0.20 -0.04    +0.270 C  
DOCKED: ATOM     18  H   UNL     1     138.449  73.679 223.073 -0.54 -0.12    +0.164 HD 
DOCKED: ATOM     19  O   UNL     1     140.990  72.415 221.518 -0.19 +0.03    -0.268 OA 
DOCKED: BRANCH  17  20
DOCKED: ATOM     20  C   UNL     1     139.992  71.582 223.529 -0.32 -0.02    +0.128 A  
DOCKED: ATOM     21  C   UNL     1     139.307  70.402 223.320 -0.27 -0.01    +0.035 A  
DOCKED: ATOM     22  N   UNL     1     140.569  71.892 224.703 -0.26 +0.04    -0.243 NA 
DOCKED: ATOM     23  C   UNL     1     139.220  69.507 224.379 -0.34 -0.00    +0.013 A  
DOCKED: ATOM     24  C   UNL     1     140.484  71.023 225.733 -0.53 -0.01    +0.071 A  
DOCKED: ATOM     25  C   UNL     1     139.818  69.824 225.604 -0.46 -0.00    +0.000 A  
DOCKED: ATOM     26  C   UNL     1     141.075  71.331 226.950 -0.70 -0.00    +0.029 A  
DOCKED: ATOM     27  C   UNL     1     139.739  68.934 226.680 -0.55 -0.00    +0.010 A  
DOCKED: ATOM     28  C   UNL     1     141.014  70.476 228.029 -0.63 -0.00    +0.002 A  
DOCKED: ATOM     29  C   UNL     1     140.335  69.262 227.883 -0.64 -0.00    +0.001 A  
DOCKED: ENDBRANCH  17  20
DOCKED: ENDBRANCH  15  16
DOCKED: ENDBRANCH   2  15
DOCKED: TORSDOF 6
DOCKED: TER
DOCKED: ENDMDL
________________________________________________________________________________


    FINAL DOCKED STATE:
    ________________________


Run:   15 / 20
Time taken for this run:   0.032s

DOCKED: MODEL        15
DOCKED: USER    Run = 15
DOCKED: USER
DOCKED: USER    Estimated Free Energy of Binding    =  -7.28 kcal/mol  [=(1)+(2)+(3)-(4)]
DOCKED: USER
DOCKED: USER    (1) Final Intermolecular Energy     =  -9.07 kcal/mol
DOCKED: USER        vdW + Hbond + desolv Energy     =  -9.02 kcal/mol
DOCKED: USER        Electrostatic Energy            =  -0.06 kcal/mol
DOCKED: USER        Moving Ligand-Fixed Receptor    =  -9.07 kcal/mol
DOCKED: USER        Moving Ligand-Moving Receptor   =  +0.00 kcal/mol
DOCKED: USER    (2) Final Total Internal Energy     =  -2.08 kcal/mol
DOCKED: USER    (3) Torsional Free Energy           =  +1.79 kcal/mol
DOCKED: USER    (4) Unbound System's Energy         =  -2.08 kcal/mol
DOCKED: USER
DOCKED: USER
DOCKED: REMARK SMILES COc1cccc([C@H](C)NC(=O)CNC(=O)c2ccc3ccccc3n2)c1
DOCKED: REMARK SMILES IDX 10 1 11 2 12 3 8 5 9 6 7 7 3 8 4 9 27 10 5 11 6 12 2 13 1 14
DOCKED: REMARK SMILES IDX 13 15 14 16 15 17 16 19 17 20 18 21 26 22 19 23 25 24 20 25
DOCKED: REMARK SMILES IDX 24 26 21 27 23 28 22 29
DOCKED: REMARK H PARENT 10 4 14 18
DOCKED: USER                              x       y       z     vdW  Elec       q    Type
DOCKED: USER                           _______ _______ _______ _____ _____    ______ ____
DOCKED: ROOT
DOCKED: ATOM      1  N   UNL     1     138.216  74.303 221.929 -0.09 +0.10    -0.348 N  
DOCKED: ATOM      2  C   UNL     1     138.157  73.710 220.652 -0.06 -0.05    +0.239 C  
DOCKED: ATOM      3  O   UNL     1     137.621  74.360 219.704 -0.01 +0.05    -0.273 OA 
DOCKED: ATOM      4  H   UNL     1     138.654  73.782 222.722 -0.55 -0.08    +0.164 HD 
DOCKED: ENDROOT
DOCKED: BRANCH   1   5
DOCKED: ATOM      5  C   UNL     1     137.680  75.612 222.147 -0.21 -0.03    +0.109 C  
DOCKED: ATOM      6  C   UNL     1     136.666  75.666 223.258 -0.19 -0.01    +0.036 C  
DOCKED: BRANCH   5   7
DOCKED: ATOM      7  C   UNL     1     138.724  76.628 222.427 -0.30 +0.00    -0.022 A  
DOCKED: ATOM      8  C   UNL     1     139.329  78.867 223.090 -0.30 -0.02    +0.119 A  
DOCKED: ATOM      9  C   UNL     1     140.685  78.544 222.959 -0.43 -0.01    +0.046 A  
DOCKED: ATOM     10  C   UNL     1     138.370  77.911 222.824 -0.24 -0.01    +0.052 A  
DOCKED: ATOM     11  C   UNL     1     141.059  77.273 222.564 -0.42 -0.00    +0.004 A  
DOCKED: ATOM     12  C   UNL     1     140.069  76.347 222.309 -0.38 -0.00    +0.006 A  
DOCKED: BRANCH   8  13
DOCKED: ATOM     13  O   UNL     1     139.024  80.162 223.490 -0.12 +0.07    -0.497 OA 
DOCKED: ATOM     14  C   UNL     1     137.858  80.533 224.168 -0.24 -0.03    +0.278 C  
DOCKED: ENDBRANCH   8  13
DOCKED: ENDBRANCH   5   7
DOCKED: ENDBRANCH   1   5
DOCKED: BRANCH   2  15
DOCKED: ATOM     15  C   UNL     1     138.726  72.356 220.483 -0.04 -0.04    +0.216 C  
DOCKED: BRANCH  15  16
DOCKED: ATOM     16  N   UNL     1     138.898  71.661 221.738 -0.06 +0.07    -0.342 N  
DOCKED: ATOM     17  C   UNL     1     139.903  72.040 222.666 -0.21 -0.04    +0.270 C  
DOCKED: ATOM     18  H   UNL     1     138.293  70.843 222.026 +0.04 -0.03    +0.164 HD 
DOCKED: ATOM     19  O   UNL     1     140.663  73.019 222.374 -0.68 +0.00    -0.268 OA 
DOCKED: BRANCH  17  20
DOCKED: ATOM     20  C   UNL     1     140.055  71.312 223.939 -0.35 -0.02    +0.128 A  
DOCKED: ATOM     21  C   UNL     1     140.730  71.935 224.969 -0.25 -0.00    +0.035 A  
DOCKED: ATOM     22  N   UNL     1     139.535  70.077 224.049 -0.17 +0.04    -0.243 NA 
DOCKED: ATOM     23  C   UNL     1     140.869  71.241 226.166 -0.64 -0.00    +0.013 A  
DOCKED: ATOM     24  C   UNL     1     139.670  69.402 225.211 -0.37 -0.01    +0.071 A  
DOCKED: ATOM     25  C   UNL     1     140.330  69.955 226.287 -0.53 -0.00    +0.000 A  
DOCKED: ATOM     26  C   UNL     1     139.137  68.127 225.338 -0.45 -0.00    +0.029 A  
DOCKED: ATOM     27  C   UNL     1     140.462  69.244 227.484 -0.61 -0.00    +0.010 A  
DOCKED: ATOM     28  C   UNL     1     139.251  67.401 226.504 -0.58 -0.00    +0.002 A  
DOCKED: ATOM     29  C   UNL     1     139.924  67.976 227.587 -0.57 -0.00    +0.001 A  
DOCKED: ENDBRANCH  17  20
DOCKED: ENDBRANCH  15  16
DOCKED: ENDBRANCH   2  15
DOCKED: TORSDOF 6
DOCKED: TER
DOCKED: ENDMDL
________________________________________________________________________________


    FINAL DOCKED STATE:
    ________________________


Run:   16 / 20
Time taken for this run:   0.032s

DOCKED: MODEL        16
DOCKED: USER    Run = 16
DOCKED: USER
DOCKED: USER    Estimated Free Energy of Binding    =  -7.40 kcal/mol  [=(1)+(2)+(3)-(4)]
DOCKED: USER
DOCKED: USER    (1) Final Intermolecular Energy     =  -9.19 kcal/mol
DOCKED: USER        vdW + Hbond + desolv Energy     =  -9.18 kcal/mol
DOCKED: USER        Electrostatic Energy            =  -0.00 kcal/mol
DOCKED: USER        Moving Ligand-Fixed Receptor    =  -9.19 kcal/mol
DOCKED: USER        Moving Ligand-Moving Receptor   =  +0.00 kcal/mol
DOCKED: USER    (2) Final Total Internal Energy     =  -2.00 kcal/mol
DOCKED: USER    (3) Torsional Free Energy           =  +1.79 kcal/mol
DOCKED: USER    (4) Unbound System's Energy         =  -2.00 kcal/mol
DOCKED: USER
DOCKED: USER
DOCKED: REMARK SMILES COc1cccc([C@H](C)NC(=O)CNC(=O)c2ccc3ccccc3n2)c1
DOCKED: REMARK SMILES IDX 10 1 11 2 12 3 8 5 9 6 7 7 3 8 4 9 27 10 5 11 6 12 2 13 1 14
DOCKED: REMARK SMILES IDX 13 15 14 16 15 17 16 19 17 20 18 21 26 22 19 23 25 24 20 25
DOCKED: REMARK SMILES IDX 24 26 21 27 23 28 22 29
DOCKED: REMARK H PARENT 10 4 14 18
DOCKED: USER                              x       y       z     vdW  Elec       q    Type
DOCKED: USER                           _______ _______ _______ _____ _____    ______ ____
DOCKED: ROOT
DOCKED: ATOM      1  N   UNL     1     139.224  72.424 222.806 -0.07 +0.10    -0.348 N  
DOCKED: ATOM      2  C   UNL     1     140.277  72.016 221.963 -0.20 -0.03    +0.239 C  
DOCKED: ATOM      3  O   UNL     1     140.698  70.822 222.051 -0.05 +0.03    -0.273 OA 
DOCKED: ATOM      4  H   UNL     1     138.864  73.403 222.748 -0.50 -0.07    +0.164 HD 
DOCKED: ENDROOT
DOCKED: BRANCH   1   5
DOCKED: ATOM      5  C   UNL     1     138.646  71.507 223.741 -0.14 -0.03    +0.109 C  
DOCKED: ATOM      6  C   UNL     1     138.138  70.243 223.102 -0.21 -0.01    +0.036 C  
DOCKED: BRANCH   5   7
DOCKED: ATOM      7  C   UNL     1     139.575  71.128 224.833 -0.43 +0.00    -0.022 A  
DOCKED: ATOM      8  C   UNL     1     140.211  69.610 226.597 -0.45 -0.02    +0.119 A  
DOCKED: ATOM      9  C   UNL     1     141.322  70.410 226.891 -0.46 -0.01    +0.046 A  
DOCKED: ATOM     10  C   UNL     1     139.355  69.976 225.578 -0.39 -0.01    +0.052 A  
DOCKED: ATOM     11  C   UNL     1     141.559  71.561 226.162 -0.59 -0.00    +0.004 A  
DOCKED: ATOM     12  C   UNL     1     140.679  71.891 225.151 -0.40 -0.00    +0.006 A  
DOCKED: BRANCH   8  13
DOCKED: ATOM     13  O   UNL     1     140.033  68.468 227.368 -0.21 +0.10    -0.497 OA 
DOCKED: ATOM     14  C   UNL     1     140.618  68.252 228.620 -0.32 -0.07    +0.278 C  
DOCKED: ENDBRANCH   8  13
DOCKED: ENDBRANCH   5   7
DOCKED: ENDBRANCH   1   5
DOCKED: BRANCH   2  15
DOCKED: ATOM     15  C   UNL     1     140.837  73.003 221.016 -0.17 -0.03    +0.216 C  
DOCKED: BRANCH  15  16
DOCKED: ATOM     16  N   UNL     1     140.881  74.340 221.562 -0.17 +0.04    -0.342 N  
DOCKED: ATOM     17  C   UNL     1     139.729  75.171 221.588 -0.21 -0.05    +0.270 C  
DOCKED: ATOM     18  H   UNL     1     141.760  74.764 221.965 -0.03 -0.03    +0.164 HD 
DOCKED: ATOM     19  O   UNL     1     138.639  74.714 221.115 -0.10 +0.06    -0.268 OA 
DOCKED: BRANCH  17  20
DOCKED: ATOM     20  C   UNL     1     139.803  76.531 222.151 -0.30 -0.03    +0.128 A  
DOCKED: ATOM     21  C   UNL     1     138.627  77.146 222.526 -0.29 -0.01    +0.035 A  
DOCKED: ATOM     22  N   UNL     1     141.006  77.118 222.278 -0.26 +0.10    -0.243 NA 
DOCKED: ATOM     23  C   UNL     1     138.705  78.428 223.057 -0.29 -0.00    +0.013 A  
DOCKED: ATOM     24  C   UNL     1     141.084  78.364 222.792 -0.45 -0.02    +0.071 A  
DOCKED: ATOM     25  C   UNL     1     139.955  79.045 223.191 -0.41 -0.00    +0.000 A  
DOCKED: ATOM     26  C   UNL     1     142.319  78.982 222.929 -0.49 -0.01    +0.029 A  
DOCKED: ATOM     27  C   UNL     1     140.051  80.335 223.723 -0.42 -0.00    +0.010 A  
DOCKED: ATOM     28  C   UNL     1     142.448  80.252 223.448 -0.66 -0.00    +0.002 A  
DOCKED: ATOM     29  C   UNL     1     141.292  80.931 223.849 -0.51 -0.00    +0.001 A  
DOCKED: ENDBRANCH  17  20
DOCKED: ENDBRANCH  15  16
DOCKED: ENDBRANCH   2  15
DOCKED: TORSDOF 6
DOCKED: TER
DOCKED: ENDMDL
________________________________________________________________________________


    FINAL DOCKED STATE:
    ________________________


Run:   17 / 20
Time taken for this run:   0.032s

DOCKED: MODEL        17
DOCKED: USER    Run = 17
DOCKED: USER
DOCKED: USER    Estimated Free Energy of Binding    =  -7.68 kcal/mol  [=(1)+(2)+(3)-(4)]
DOCKED: USER
DOCKED: USER    (1) Final Intermolecular Energy     =  -9.47 kcal/mol
DOCKED: USER        vdW + Hbond + desolv Energy     =  -9.47 kcal/mol
DOCKED: USER        Electrostatic Energy            =  +0.00 kcal/mol
DOCKED: USER        Moving Ligand-Fixed Receptor    =  -9.47 kcal/mol
DOCKED: USER        Moving Ligand-Moving Receptor   =  +0.00 kcal/mol
DOCKED: USER    (2) Final Total Internal Energy     =  -1.78 kcal/mol
DOCKED: USER    (3) Torsional Free Energy           =  +1.79 kcal/mol
DOCKED: USER    (4) Unbound System's Energy         =  -1.78 kcal/mol
DOCKED: USER
DOCKED: USER
DOCKED: REMARK SMILES COc1cccc([C@H](C)NC(=O)CNC(=O)c2ccc3ccccc3n2)c1
DOCKED: REMARK SMILES IDX 10 1 11 2 12 3 8 5 9 6 7 7 3 8 4 9 27 10 5 11 6 12 2 13 1 14
DOCKED: REMARK SMILES IDX 13 15 14 16 15 17 16 19 17 20 18 21 26 22 19 23 25 24 20 25
DOCKED: REMARK SMILES IDX 24 26 21 27 23 28 22 29
DOCKED: REMARK H PARENT 10 4 14 18
DOCKED: USER                              x       y       z     vdW  Elec       q    Type
DOCKED: USER                           _______ _______ _______ _____ _____    ______ ____
DOCKED: ROOT
DOCKED: ATOM      1  N   UNL     1     139.238  75.071 222.019 -0.16 +0.07    -0.348 N  
DOCKED: ATOM      2  C   UNL     1     140.152  74.909 220.958 -0.17 -0.05    +0.239 C  
DOCKED: ATOM      3  O   UNL     1     140.301  75.862 220.133 -0.07 +0.08    -0.273 OA 
DOCKED: ATOM      4  H   UNL     1     139.102  74.298 222.708 -0.51 -0.05    +0.164 HD 
DOCKED: ENDROOT
DOCKED: BRANCH   1   5
DOCKED: ATOM      5  C   UNL     1     138.495  76.288 222.158 -0.25 -0.02    +0.109 C  
DOCKED: ATOM      6  C   UNL     1     137.292  76.155 223.051 -0.23 -0.01    +0.036 C  
DOCKED: BRANCH   5   7
DOCKED: ATOM      7  C   UNL     1     139.318  77.416 222.659 -0.29 +0.00    -0.022 A  
DOCKED: ATOM      8  C   UNL     1     139.465  79.649 223.561 -0.35 -0.02    +0.119 A  
DOCKED: ATOM      9  C   UNL     1     140.861  79.543 223.605 -0.49 -0.01    +0.046 A  
DOCKED: ATOM     10  C   UNL     1     138.714  78.590 223.091 -0.28 -0.01    +0.052 A  
DOCKED: ATOM     11  C   UNL     1     141.481  78.384 223.179 -0.55 -0.00    +0.004 A  
DOCKED: ATOM     12  C   UNL     1     140.694  77.349 222.717 -0.42 -0.00    +0.006 A  
DOCKED: BRANCH   8  13
DOCKED: ATOM     13  O   UNL     1     138.907  80.841 224.003 -0.15 +0.05    -0.497 OA 
DOCKED: ATOM     14  C   UNL     1     137.637  80.962 224.577 -0.25 -0.03    +0.278 C  
DOCKED: ENDBRANCH   8  13
DOCKED: ENDBRANCH   5   7
DOCKED: ENDBRANCH   1   5
DOCKED: BRANCH   2  15
DOCKED: ATOM     15  C   UNL     1     140.892  73.633 220.862 -0.17 -0.04    +0.216 C  
DOCKED: BRANCH  15  16
DOCKED: ATOM     16  N   UNL     1     140.842  72.864 222.084 -0.15 +0.02    -0.342 N  
DOCKED: ATOM     17  C   UNL     1     139.649  72.224 222.512 -0.20 -0.05    +0.270 C  
DOCKED: ATOM     18  H   UNL     1     141.679  72.741 222.717 +0.10 +0.02    +0.164 HD 
DOCKED: ATOM     19  O   UNL     1     138.605  72.338 221.791 -0.10 +0.06    -0.268 OA 
DOCKED: BRANCH  17  20
DOCKED: ATOM     20  C   UNL     1     139.626  71.446 223.764 -0.32 -0.03    +0.128 A  
DOCKED: ATOM     21  C   UNL     1     138.861  70.300 223.806 -0.29 -0.01    +0.035 A  
DOCKED: ATOM     22  N   UNL     1     140.349  71.880 224.812 -0.26 +0.04    -0.243 NA 
DOCKED: ATOM     23  C   UNL     1     138.846  69.572 224.990 -0.37 -0.00    +0.013 A  
DOCKED: ATOM     24  C   UNL     1     140.334  71.174 225.964 -0.53 -0.01    +0.071 A  
DOCKED: ATOM     25  C   UNL     1     139.595  70.018 226.085 -0.47 -0.00    +0.000 A  
DOCKED: ATOM     26  C   UNL     1     141.075  71.610 227.053 -0.74 -0.00    +0.029 A  
DOCKED: ATOM     27  C   UNL     1     139.590  69.298 227.284 -0.56 -0.00    +0.010 A  
DOCKED: ATOM     28  C   UNL     1     141.091  70.924 228.248 -0.65 -0.00    +0.002 A  
DOCKED: ATOM     29  C   UNL     1     140.335  69.752 228.355 -0.59 -0.00    +0.001 A  
DOCKED: ENDBRANCH  17  20
DOCKED: ENDBRANCH  15  16
DOCKED: ENDBRANCH   2  15
DOCKED: TORSDOF 6
DOCKED: TER
DOCKED: ENDMDL
________________________________________________________________________________


    FINAL DOCKED STATE:
    ________________________


Run:   18 / 20
Time taken for this run:   0.032s

DOCKED: MODEL        18
DOCKED: USER    Run = 18
DOCKED: USER
DOCKED: USER    Estimated Free Energy of Binding    =  -8.44 kcal/mol  [=(1)+(2)+(3)-(4)]
DOCKED: USER
DOCKED: USER    (1) Final Intermolecular Energy     = -10.23 kcal/mol
DOCKED: USER        vdW + Hbond + desolv Energy     = -10.17 kcal/mol
DOCKED: USER        Electrostatic Energy            =  -0.06 kcal/mol
DOCKED: USER        Moving Ligand-Fixed Receptor    = -10.23 kcal/mol
DOCKED: USER        Moving Ligand-Moving Receptor   =  +0.00 kcal/mol
DOCKED: USER    (2) Final Total Internal Energy     =  -0.94 kcal/mol
DOCKED: USER    (3) Torsional Free Energy           =  +1.79 kcal/mol
DOCKED: USER    (4) Unbound System's Energy         =  -0.94 kcal/mol
DOCKED: USER
DOCKED: USER
DOCKED: REMARK SMILES COc1cccc([C@H](C)NC(=O)CNC(=O)c2ccc3ccccc3n2)c1
DOCKED: REMARK SMILES IDX 10 1 11 2 12 3 8 5 9 6 7 7 3 8 4 9 27 10 5 11 6 12 2 13 1 14
DOCKED: REMARK SMILES IDX 13 15 14 16 15 17 16 19 17 20 18 21 26 22 19 23 25 24 20 25
DOCKED: REMARK SMILES IDX 24 26 21 27 23 28 22 29
DOCKED: REMARK H PARENT 10 4 14 18
DOCKED: USER                              x       y       z     vdW  Elec       q    Type
DOCKED: USER                           _______ _______ _______ _____ _____    ______ ____
DOCKED: ROOT
DOCKED: ATOM      1  N   UNL     1     140.377  76.653 221.788 -0.17 +0.10    -0.348 N  
DOCKED: ATOM      2  C   UNL     1     139.650  75.599 221.198 -0.18 -0.05    +0.239 C  
DOCKED: ATOM      3  O   UNL     1     138.485  75.837 220.756 -0.06 +0.06    -0.273 OA 
DOCKED: ATOM      4  H   UNL     1     141.338  76.476 222.158 -0.20 -0.07    +0.164 HD 
DOCKED: ENDROOT
DOCKED: BRANCH   1   5
DOCKED: ATOM      5  C   UNL     1     139.806  77.962 221.884 -0.25 -0.03    +0.109 C  
DOCKED: ATOM      6  C   UNL     1     138.590  78.021 222.768 -0.27 -0.01    +0.036 C  
DOCKED: BRANCH   5   7
DOCKED: ATOM      7  C   UNL     1     140.771  78.983 222.362 -0.38 +0.01    -0.022 A  
DOCKED: ATOM      8  C   UNL     1     141.713  81.198 222.203 -0.41 -0.03    +0.119 A  
DOCKED: ATOM      9  C   UNL     1     142.585  80.908 223.259 -0.59 -0.01    +0.046 A  
DOCKED: ATOM     10  C   UNL     1     140.821  80.238 221.769 -0.30 -0.01    +0.052 A  
DOCKED: ATOM     11  C   UNL     1     142.552  79.665 223.862 -0.51 -0.00    +0.004 A  
DOCKED: ATOM     12  C   UNL     1     141.645  78.734 223.399 -0.59 -0.00    +0.006 A  
DOCKED: BRANCH   8  13
DOCKED: ATOM     13  O   UNL     1     141.799  82.466 221.642 -0.11 +0.09    -0.497 OA 
DOCKED: ATOM     14  C   UNL     1     140.731  83.151 221.051 -0.18 -0.05    +0.278 C  
DOCKED: ENDBRANCH   8  13
DOCKED: ENDBRANCH   5   7
DOCKED: ENDBRANCH   1   5
DOCKED: BRANCH   2  15
DOCKED: ATOM     15  C   UNL     1     140.287  74.267 221.124 -0.19 -0.04    +0.216 C  
DOCKED: BRANCH  15  16
DOCKED: ATOM     16  N   UNL     1     140.075  73.479 222.317 -0.11 +0.02    -0.342 N  
DOCKED: ATOM     17  C   UNL     1     140.517  72.132 222.407 -0.20 -0.03    +0.270 C  
DOCKED: ATOM     18  H   UNL     1     139.586  73.858 223.173 -0.50 -0.02    +0.164 HD 
DOCKED: ATOM     19  O   UNL     1     141.113  71.619 221.405 -0.14 +0.03    -0.268 OA 
DOCKED: BRANCH  17  20
DOCKED: ATOM     20  C   UNL     1     140.287  71.352 223.636 -0.33 -0.02    +0.128 A  
DOCKED: ATOM     21  C   UNL     1     139.654  70.131 223.524 -0.26 -0.01    +0.035 A  
DOCKED: ATOM     22  N   UNL     1     140.699  71.855 224.813 -0.28 +0.03    -0.243 NA 
DOCKED: ATOM     23  C   UNL     1     139.442  69.401 224.688 -0.36 -0.00    +0.013 A  
DOCKED: ATOM     24  C   UNL     1     140.492  71.148 225.945 -0.55 -0.01    +0.071 A  
DOCKED: ATOM     25  C   UNL     1     139.868  69.920 225.916 -0.48 -0.00    +0.000 A  
DOCKED: ATOM     26  C   UNL     1     140.912  71.656 227.166 -0.75 -0.01    +0.029 A  
DOCKED: ATOM     27  C   UNL     1     139.661  69.199 227.097 -0.56 -0.00    +0.010 A  
DOCKED: ATOM     28  C   UNL     1     140.722  70.970 228.346 -0.64 -0.00    +0.002 A  
DOCKED: ATOM     29  C   UNL     1     140.087  69.725 228.302 -0.62 -0.00    +0.001 A  
DOCKED: ENDBRANCH  17  20
DOCKED: ENDBRANCH  15  16
DOCKED: ENDBRANCH   2  15
DOCKED: TORSDOF 6
DOCKED: TER
DOCKED: ENDMDL
________________________________________________________________________________


    FINAL DOCKED STATE:
    ________________________


Run:   19 / 20
Time taken for this run:   0.032s

DOCKED: MODEL        19
DOCKED: USER    Run = 19
DOCKED: USER
DOCKED: USER    Estimated Free Energy of Binding    =  -8.46 kcal/mol  [=(1)+(2)+(3)-(4)]
DOCKED: USER
DOCKED: USER    (1) Final Intermolecular Energy     = -10.25 kcal/mol
DOCKED: USER        vdW + Hbond + desolv Energy     =  -9.80 kcal/mol
DOCKED: USER        Electrostatic Energy            =  -0.45 kcal/mol
DOCKED: USER        Moving Ligand-Fixed Receptor    = -10.25 kcal/mol
DOCKED: USER        Moving Ligand-Moving Receptor   =  +0.00 kcal/mol
DOCKED: USER    (2) Final Total Internal Energy     =  -1.15 kcal/mol
DOCKED: USER    (3) Torsional Free Energy           =  +1.79 kcal/mol
DOCKED: USER    (4) Unbound System's Energy         =  -1.15 kcal/mol
DOCKED: USER
DOCKED: USER
DOCKED: REMARK SMILES COc1cccc([C@H](C)NC(=O)CNC(=O)c2ccc3ccccc3n2)c1
DOCKED: REMARK SMILES IDX 10 1 11 2 12 3 8 5 9 6 7 7 3 8 4 9 27 10 5 11 6 12 2 13 1 14
DOCKED: REMARK SMILES IDX 13 15 14 16 15 17 16 19 17 20 18 21 26 22 19 23 25 24 20 25
DOCKED: REMARK SMILES IDX 24 26 21 27 23 28 22 29
DOCKED: REMARK H PARENT 10 4 14 18
DOCKED: USER                              x       y       z     vdW  Elec       q    Type
DOCKED: USER                           _______ _______ _______ _____ _____    ______ ____
DOCKED: ROOT
DOCKED: ATOM      1  N   UNL     1     141.532  74.654 219.338 -0.02 +0.10    -0.348 N  
DOCKED: ATOM      2  C   UNL     1     141.038  74.564 220.655 -0.17 -0.06    +0.239 C  
DOCKED: ATOM      3  O   UNL     1     141.762  74.986 221.607 -0.27 +0.08    -0.273 OA 
DOCKED: ATOM      4  H   UNL     1     140.950  74.311 218.541 +0.03 -0.04    +0.164 HD 
DOCKED: ENDROOT
DOCKED: BRANCH   1   5
DOCKED: ATOM      5  C   UNL     1     142.827  75.211 219.086 -0.23 -0.05    +0.109 C  
DOCKED: ATOM      6  C   UNL     1     143.021  76.572 219.697 -0.35 -0.02    +0.036 C  
DOCKED: BRANCH   5   7
DOCKED: ATOM      7  C   UNL     1     143.935  74.338 219.547 -0.34 +0.01    -0.022 A  
DOCKED: ATOM      8  C   UNL     1     145.420  72.477 219.163 -0.27 +0.05    +0.119 A  
DOCKED: ATOM      9  C   UNL     1     146.020  72.693 220.410 -0.50 +0.01    +0.046 A  
DOCKED: ATOM     10  C   UNL     1     144.390  73.297 218.749 -0.21 -0.00    +0.052 A  
DOCKED: ATOM     11  C   UNL     1     145.581  73.723 221.220 -0.65 -0.00    +0.004 A  
DOCKED: ATOM     12  C   UNL     1     144.550  74.520 220.768 -0.32 -0.00    +0.006 A  
DOCKED: BRANCH   8  13
DOCKED: ATOM     13  O   UNL     1     145.910  71.424 218.400 -0.30 -0.55    -0.497 OA 
DOCKED: ATOM     14  C   UNL     1     145.420  70.114 218.442 -0.15 +0.11    +0.278 C  
DOCKED: ENDBRANCH   8  13
DOCKED: ENDBRANCH   5   7
DOCKED: ENDBRANCH   1   5
DOCKED: BRANCH   2  15
DOCKED: ATOM     15  C   UNL     1     139.695  73.981 220.858 -0.13 -0.04    +0.216 C  
DOCKED: BRANCH  15  16
DOCKED: ATOM     16  N   UNL     1     139.584  73.250 222.100 -0.15 +0.06    -0.342 N  
DOCKED: ATOM     17  C   UNL     1     140.326  72.061 222.331 -0.21 -0.03    +0.270 C  
DOCKED: ATOM     18  H   UNL     1     138.953  73.556 222.890 -0.51 -0.08    +0.164 HD 
DOCKED: ATOM     19  O   UNL     1     141.105  71.642 221.415 -0.15 +0.03    -0.268 OA 
DOCKED: BRANCH  17  20
DOCKED: ATOM     20  C   UNL     1     140.194  71.336 223.608 -0.32 -0.02    +0.128 A  
DOCKED: ATOM     21  C   UNL     1     139.559  70.111 223.598 -0.28 -0.01    +0.035 A  
DOCKED: ATOM     22  N   UNL     1     140.692  71.891 224.727 -0.27 +0.03    -0.243 NA 
DOCKED: ATOM     23  C   UNL     1     139.439  69.433 224.806 -0.37 -0.00    +0.013 A  
DOCKED: ATOM     24  C   UNL     1     140.575  71.234 225.901 -0.55 -0.01    +0.071 A  
DOCKED: ATOM     25  C   UNL     1     139.955  70.005 225.974 -0.50 -0.00    +0.000 A  
DOCKED: ATOM     26  C   UNL     1     141.085  71.795 227.063 -0.76 -0.01    +0.029 A  
DOCKED: ATOM     27  C   UNL     1     139.842  69.337 227.198 -0.57 -0.00    +0.010 A  
DOCKED: ATOM     28  C   UNL     1     140.988  71.162 228.283 -0.69 -0.00    +0.002 A  
DOCKED: ATOM     29  C   UNL     1     140.357  69.916 228.342 -0.59 -0.00    +0.001 A  
DOCKED: ENDBRANCH  17  20
DOCKED: ENDBRANCH  15  16
DOCKED: ENDBRANCH   2  15
DOCKED: TORSDOF 6
DOCKED: TER
DOCKED: ENDMDL
________________________________________________________________________________


    FINAL DOCKED STATE:
    ________________________


Run:   20 / 20
Time taken for this run:   0.032s

DOCKED: MODEL        20
DOCKED: USER    Run = 20
DOCKED: USER
DOCKED: USER    Estimated Free Energy of Binding    =  -8.31 kcal/mol  [=(1)+(2)+(3)-(4)]
DOCKED: USER
DOCKED: USER    (1) Final Intermolecular Energy     = -10.10 kcal/mol
DOCKED: USER        vdW + Hbond + desolv Energy     = -10.06 kcal/mol
DOCKED: USER        Electrostatic Energy            =  -0.04 kcal/mol
DOCKED: USER        Moving Ligand-Fixed Receptor    = -10.10 kcal/mol
DOCKED: USER        Moving Ligand-Moving Receptor   =  +0.00 kcal/mol
DOCKED: USER    (2) Final Total Internal Energy     =  -1.14 kcal/mol
DOCKED: USER    (3) Torsional Free Energy           =  +1.79 kcal/mol
DOCKED: USER    (4) Unbound System's Energy         =  -1.14 kcal/mol
DOCKED: USER
DOCKED: USER
DOCKED: REMARK SMILES COc1cccc([C@H](C)NC(=O)CNC(=O)c2ccc3ccccc3n2)c1
DOCKED: REMARK SMILES IDX 10 1 11 2 12 3 8 5 9 6 7 7 3 8 4 9 27 10 5 11 6 12 2 13 1 14
DOCKED: REMARK SMILES IDX 13 15 14 16 15 17 16 19 17 20 18 21 26 22 19 23 25 24 20 25
DOCKED: REMARK SMILES IDX 24 26 21 27 23 28 22 29
DOCKED: REMARK H PARENT 10 4 14 18
DOCKED: USER                              x       y       z     vdW  Elec       q    Type
DOCKED: USER                           _______ _______ _______ _____ _____    ______ ____
DOCKED: ROOT
DOCKED: ATOM      1  N   UNL     1     140.543  76.506 220.790 -0.08 +0.12    -0.348 N  
DOCKED: ATOM      2  C   UNL     1     140.832  75.149 221.039 -0.21 -0.06    +0.239 C  
DOCKED: ATOM      3  O   UNL     1     142.046  74.797 221.153 -0.24 +0.09    -0.273 OA 
DOCKED: ATOM      4  H   UNL     1     139.550  76.815 220.693 +0.05 -0.04    +0.164 HD 
DOCKED: ENDROOT
DOCKED: BRANCH   1   5
DOCKED: ATOM      5  C   UNL     1     141.602  77.462 220.668 -0.25 -0.06    +0.109 C  
DOCKED: ATOM      6  C   UNL     1     141.619  78.170 219.340 -0.24 -0.02    +0.036 C  
DOCKED: BRANCH   5   7
DOCKED: ATOM      7  C   UNL     1     141.581  78.491 221.737 -0.38 +0.01    -0.022 A  
DOCKED: ATOM      8  C   UNL     1     141.672  80.808 222.402 -0.42 -0.03    +0.119 A  
DOCKED: ATOM      9  C   UNL     1     141.541  80.432 223.744 -0.53 -0.01    +0.046 A  
DOCKED: ATOM     10  C   UNL     1     141.690  79.839 221.419 -0.37 -0.02    +0.052 A  
DOCKED: ATOM     11  C   UNL     1     141.432  79.096 224.082 -0.56 -0.00    +0.004 A  
DOCKED: ATOM     12  C   UNL     1     141.454  78.159 223.069 -0.52 -0.00    +0.006 A  
DOCKED: BRANCH   8  13
DOCKED: ATOM     13  O   UNL     1     141.777  82.167 222.133 -0.14 +0.08    -0.497 OA 
DOCKED: ATOM     14  C   UNL     1     141.013  82.853 221.183 -0.19 -0.05    +0.278 C  
DOCKED: ENDBRANCH   8  13
DOCKED: ENDBRANCH   5   7
DOCKED: ENDBRANCH   1   5
DOCKED: BRANCH   2  15
DOCKED: ATOM     15  C   UNL     1     139.701  74.204 221.156 -0.17 -0.04    +0.216 C  
DOCKED: BRANCH  15  16
DOCKED: ATOM     16  N   UNL     1     139.735  73.441 222.382 -0.11 +0.05    -0.342 N  
DOCKED: ATOM     17  C   UNL     1     139.990  72.044 222.382 -0.21 -0.04    +0.270 C  
DOCKED: ATOM     18  H   UNL     1     139.571  73.876 223.331 -0.48 -0.03    +0.164 HD 
DOCKED: ATOM     19  O   UNL     1     140.195  71.463 221.267 -0.10 +0.04    -0.268 OA 
DOCKED: BRANCH  17  20
DOCKED: ATOM     20  C   UNL     1     140.018  71.290 223.648 -0.33 -0.02    +0.128 A  
DOCKED: ATOM     21  C   UNL     1     139.559  69.989 223.643 -0.27 -0.01    +0.035 A  
DOCKED: ATOM     22  N   UNL     1     140.486  71.894 224.755 -0.26 +0.04    -0.243 NA 
DOCKED: ATOM     23  C   UNL     1     139.589  69.286 224.841 -0.37 -0.00    +0.013 A  
DOCKED: ATOM     24  C   UNL     1     140.515  71.212 225.920 -0.55 -0.01    +0.071 A  
DOCKED: ATOM     25  C   UNL     1     140.075  69.909 225.997 -0.50 -0.00    +0.000 A  
DOCKED: ATOM     26  C   UNL     1     140.996  71.823 227.069 -0.76 -0.01    +0.029 A  
DOCKED: ATOM     27  C   UNL     1     140.111  69.215 227.211 -0.59 -0.00    +0.010 A  
DOCKED: ATOM     28  C   UNL     1     141.044  71.167 228.280 -0.70 -0.00    +0.002 A  
DOCKED: ATOM     29  C   UNL     1     140.594  69.845 228.342 -0.59 -0.00    +0.001 A  
DOCKED: ENDBRANCH  17  20
DOCKED: ENDBRANCH  15  16
DOCKED: ENDBRANCH   2  15
DOCKED: TORSDOF 6
DOCKED: TER
DOCKED: ENDMDL
________________________________________________________________________________


    CLUSTERING HISTOGRAM
    ____________________


________________________________________________________________________________
     |           |     |           |     |
Clus | Lowest    | Run | Mean      | Num | Histogram
-ter | Binding   |     | Binding   | in  |
Rank | Energy    |     | Energy    | Clus|    5    10   15   20   25   30   35
_____|___________|_____|___________|_____|____:____|____:____|____:____|____:___
   1 |     -8.46 |  19 |     -8.41 |   2 |##
   2 |     -8.44 |  18 |     -8.07 |  12 |############
   3 |     -7.53 |   3 |     -7.53 |   1 |#
   4 |     -7.40 |  16 |     -7.40 |   1 |#
   5 |     -7.33 |  10 |     -7.33 |   1 |#
   6 |     -7.32 |   9 |     -7.29 |   3 |###
_____|___________|_____|___________|_____|______________________________________


    RMSD TABLE
    __________


_______________________________________________________________________
     |      |      |           |         |                 |
Rank | Sub- | Run  | Binding   | Cluster | Reference       | Grep
     | Rank |      | Energy    | RMSD    | RMSD            | Pattern
_____|______|______|___________|_________|_________________|___________
   1      1     19       -8.46      0.00    270.78           RANKING
   1      2     11       -8.35      0.32    270.73           RANKING
   2      1     18       -8.44      0.00    271.78           RANKING
   2      2     14       -8.43      1.30    271.51           RANKING
   2      3      8       -8.36      1.32    271.46           RANKING
   2      4      2       -8.32      1.19    271.66           RANKING
   2      5     20       -8.31      1.20    271.66           RANKING
   2      6      1       -8.19      1.57    271.51           RANKING
   2      7     12       -8.01      0.66    271.71           RANKING
   2      8      5       -7.81      1.88    271.07           RANKING
   2      9      6       -7.79      1.88    271.06           RANKING
   2     10      4       -7.79      1.93    271.01           RANKING
   2     11     17       -7.68      1.67    271.45           RANKING
   2     12      7       -7.66      1.66    271.44           RANKING
   3      1      3       -7.53      0.00    270.67           RANKING
   4      1     16       -7.40      0.00    271.51           RANKING
   5      1     10       -7.33      0.00    270.47           RANKING
   6      1      9       -7.32      0.00    270.94           RANKING
   6      2     15       -7.28      0.39    270.74           RANKING
   6      3     13       -7.27      0.10    270.92           RANKING

Run time 0.598 sec
Idle time 0.000 sec
