AutoDock-GPU version: v1.6

**********************************************************
**    AutoDock-GPU AUTODOCKTOOLS-COMPATIBLE DLG FILE    **
**********************************************************


    DOCKING PARAMETERS
    ________________________


Ligand file:                               /home/a/REINVENT4/ReinventStudies/pleaseWork/justmol2mol_4_Compounds_ontop/graph-dock/graph-DockGPU/node-autodockgpu/inputs/HXMMQXWCKLLGIO-TWBAEBIBNA-N.pdbqt
Grid fld file:                             /home/a/REINVENT4/ReinventStudies/mols/Rad51/maps/rad51_receptor.maps.fld

Random seed:                               42
Number of runs:                            20
Number of energy evaluations:              1132076
Number of generations:                     42000
Size of population:                        150
Rate of crossover:                         80.000000%
Tournament selection probability limit:    60.000000%
Rate of mutation:                          2.000000%
Maximal allowed delta movement:            +/- 6.000000A
Maximal allowed delta angle:               +/- 90.000000

Rate of local search:                      100.000000%
Maximal number of local search iterations: 300
Rho lower bound:                           0.010000
Spread of local search delta movement:     2.000000A
Spread of local search delta angle:        74.999999
Limit of consecutive successes/failures:   4

Handle symmetry during clustering:         YES
RMSD tolerance:                            2.000000A

Program call in command line was:          /home/a/REINVENT4/ReinventStudies/adgpu-v1.6_linux_x64_cuda12_128wi --filelist batch.txt --heuristics 1 --nrun 20 --psize 150 --lsit 300 --seed 42 --heurmax 12000000 


    GRID PARAMETERS
    ________________________


Receptor name:                             rad51_receptor
Number of grid points (x, y, z):           53, 53, 53
Grid center (x, y, z):                     139.950000, 75.640000, 221.970000A
Grid size (x, y, z):                       19.500000, 19.500000, 19.500000A
Grid spacing:                              0.375000A


    LIGAND PARAMETERS
    ________________________


Ligand name:                               /home/a/REINVENT4/ReinventStudies/pleaseWork/justmol2mol_4_Compounds_ontop/graph-dock/graph-DockGPU/node-autodockgpu/inputs/HXMMQXWCKLLGIO-TWBAEBIBNA-N
Number of atoms:                           26
Number of rotatable bonds:                 6
Number of atom types:                      6


    DUMMY DATA (only for ADT-compatibility)
    ________________________


DPF> outlev 1
DPF> ga_run 20
DPF> fld /home/a/REINVENT4/ReinventStudies/mols/Rad51/maps/rad51_receptor.maps.fld
DPF> move /home/a/REINVENT4/ReinventStudies/pleaseWork/justmol2mol_4_Compounds_ontop/graph-dock/graph-DockGPU/node-autodockgpu/inputs/HXMMQXWCKLLGIO-TWBAEBIBNA-N.pdbqt


    COUNTER STATES
    ________________________


Number of energy evaluations performed:    680538
Number of generations used:                30


    INPUT LIGAND PDBQT FILE:
    ________________________


INPUT-LIGAND-PDBQT: REMARK SMILES O=C(NCC(=O)N1C[C@H](O)C[C@H]1c1ccccc1)c1ccncc1
INPUT-LIGAND-PDBQT: REMARK SMILES IDX 5 1 6 2 4 3 3 4 2 5 1 6 19 8 20 9 24 10 21 11 23 12 22 13
INPUT-LIGAND-PDBQT: REMARK SMILES IDX 7 14 8 15 12 16 9 17 11 18 13 19 14 20 18 21 15 22 17 23
INPUT-LIGAND-PDBQT: REMARK SMILES IDX 16 24 10 25
INPUT-LIGAND-PDBQT: REMARK H PARENT 3 7 10 26
INPUT-LIGAND-PDBQT: ROOT
INPUT-LIGAND-PDBQT: ATOM      1  C   UNL     1      -0.212  -0.424  -0.154  1.00  0.00     0.242 C 
INPUT-LIGAND-PDBQT: ATOM      2  O   UNL     1      -0.212   0.830  -0.204  1.00  0.00    -0.273 OA
INPUT-LIGAND-PDBQT: ENDROOT
INPUT-LIGAND-PDBQT: BRANCH   1   3
INPUT-LIGAND-PDBQT: ATOM      3  C   UNL     1       1.151  -1.061  -0.052  1.00  0.00     0.216 C 
INPUT-LIGAND-PDBQT: BRANCH   3   4
INPUT-LIGAND-PDBQT: ATOM      4  N   UNL     1       2.184  -0.048  -0.035  1.00  0.00    -0.343 N 
INPUT-LIGAND-PDBQT: ATOM      5  C   UNL     1       3.535  -0.422   0.056  1.00  0.00     0.251 C 
INPUT-LIGAND-PDBQT: ATOM      6  O   UNL     1       3.777  -1.675   0.119  1.00  0.00    -0.269 OA
INPUT-LIGAND-PDBQT: ATOM      7  H   UNL     1       1.906   0.956  -0.091  1.00  0.00     0.164 HD
INPUT-LIGAND-PDBQT: BRANCH   5   8
INPUT-LIGAND-PDBQT: ATOM      8  C   UNL     1       4.627   0.540   0.078  1.00  0.00     0.042 A 
INPUT-LIGAND-PDBQT: ATOM      9  C   UNL     1       4.439   1.905   0.013  1.00  0.00     0.034 A 
INPUT-LIGAND-PDBQT: ATOM     10  C   UNL     1       5.926   0.084   0.169  1.00  0.00     0.034 A 
INPUT-LIGAND-PDBQT: ATOM     11  C   UNL     1       5.540   2.764   0.040  1.00  0.00     0.112 A 
INPUT-LIGAND-PDBQT: ATOM     12  C   UNL     1       7.011   0.952   0.195  1.00  0.00     0.112 A 
INPUT-LIGAND-PDBQT: ATOM     13  N   UNL     1       6.802   2.280   0.130  1.00  0.00    -0.265 NA
INPUT-LIGAND-PDBQT: ENDBRANCH   5   8
INPUT-LIGAND-PDBQT: ENDBRANCH   3   4
INPUT-LIGAND-PDBQT: ENDBRANCH   1   3
INPUT-LIGAND-PDBQT: BRANCH   1  14
INPUT-LIGAND-PDBQT: ATOM     14  N   UNL     1      -1.350  -1.248  -0.184  1.00  0.00    -0.331 N 
INPUT-LIGAND-PDBQT: ATOM     15  C   UNL     1      -1.330  -2.730  -0.105  1.00  0.00     0.152 C 
INPUT-LIGAND-PDBQT: ATOM     16  C   UNL     1      -2.763  -0.958  -0.277  1.00  0.00     0.118 C 
INPUT-LIGAND-PDBQT: ATOM     17  C   UNL     1      -2.400  -2.933   0.948  1.00  0.00     0.136 C 
INPUT-LIGAND-PDBQT: ATOM     18  C   UNL     1      -3.250  -1.653   0.970  1.00  0.00     0.063 C 
INPUT-LIGAND-PDBQT: BRANCH  16  19
INPUT-LIGAND-PDBQT: ATOM     19  C   UNL     1      -3.144   0.429  -0.420  1.00  0.00    -0.025 A 
INPUT-LIGAND-PDBQT: ATOM     20  C   UNL     1      -4.022   1.045   0.457  1.00  0.00     0.006 A 
INPUT-LIGAND-PDBQT: ATOM     21  C   UNL     1      -2.664   1.192  -1.454  1.00  0.00     0.006 A 
INPUT-LIGAND-PDBQT: ATOM     22  C   UNL     1      -4.421   2.351   0.339  1.00  0.00     0.000 A 
INPUT-LIGAND-PDBQT: ATOM     23  C   UNL     1      -3.057   2.529  -1.594  1.00  0.00     0.000 A 
INPUT-LIGAND-PDBQT: ATOM     24  C   UNL     1      -3.932   3.126  -0.711  1.00  0.00     0.000 A 
INPUT-LIGAND-PDBQT: ENDBRANCH  16  19
INPUT-LIGAND-PDBQT: BRANCH  17  25
INPUT-LIGAND-PDBQT: ATOM     25  O   UNL     1      -3.245  -3.932   0.474  1.00  0.00    -0.391 OA
INPUT-LIGAND-PDBQT: ATOM     26  H   UNL     1      -3.383  -3.756  -0.496  1.00  0.00     0.211 HD
INPUT-LIGAND-PDBQT: ENDBRANCH  17  25
INPUT-LIGAND-PDBQT: ENDBRANCH   1  14
INPUT-LIGAND-PDBQT: TORSDOF 6


    FINAL DOCKED STATE:
    ________________________


Run:   1 / 20
Time taken for this run:   0.025s

DOCKED: MODEL        1
DOCKED: USER    Run = 1
DOCKED: USER
DOCKED: USER    Estimated Free Energy of Binding    =  -6.27 kcal/mol  [=(1)+(2)+(3)-(4)]
DOCKED: USER
DOCKED: USER    (1) Final Intermolecular Energy     =  -8.06 kcal/mol
DOCKED: USER        vdW + Hbond + desolv Energy     =  -7.87 kcal/mol
DOCKED: USER        Electrostatic Energy            =  -0.19 kcal/mol
DOCKED: USER        Moving Ligand-Fixed Receptor    =  -8.06 kcal/mol
DOCKED: USER        Moving Ligand-Moving Receptor   =  +0.00 kcal/mol
DOCKED: USER    (2) Final Total Internal Energy     =  -1.89 kcal/mol
DOCKED: USER    (3) Torsional Free Energy           =  +1.79 kcal/mol
DOCKED: USER    (4) Unbound System's Energy         =  -1.89 kcal/mol
DOCKED: USER
DOCKED: USER
DOCKED: REMARK SMILES O=C(NCC(=O)N1C[C@H](O)C[C@H]1c1ccccc1)c1ccncc1
DOCKED: REMARK SMILES IDX 5 1 6 2 4 3 3 4 2 5 1 6 19 8 20 9 24 10 21 11 23 12 22 13
DOCKED: REMARK SMILES IDX 7 14 8 15 12 16 9 17 11 18 13 19 14 20 18 21 15 22 17 23
DOCKED: REMARK SMILES IDX 16 24 10 25
DOCKED: REMARK H PARENT 3 7 10 26
DOCKED: USER                              x       y       z     vdW  Elec       q    Type
DOCKED: USER                           _______ _______ _______ _____ _____    ______ ____
DOCKED: ROOT
DOCKED: ATOM      1  C   UNL     1     140.006  75.376 221.740 -0.22 -0.04    +0.242 C  
DOCKED: ATOM      2  O   UNL     1     140.139  74.260 222.298 -0.82 -0.00    -0.273 OA 
DOCKED: ENDROOT
DOCKED: BRANCH   1   3
DOCKED: ATOM      3  C   UNL     1     138.599  75.918 221.715 -0.19 -0.05    +0.216 C  
DOCKED: BRANCH   3   4
DOCKED: ATOM      4  N   UNL     1     137.779  75.242 222.697 +0.01 +0.12    -0.343 N  
DOCKED: ATOM      5  C   UNL     1     136.605  75.850 223.172 -0.17 -0.06    +0.251 C  
DOCKED: ATOM      6  O   UNL     1     136.324  77.000 222.692 -0.13 +0.05    -0.269 OA 
DOCKED: ATOM      7  H   UNL     1     138.075  74.302 223.040 -0.52 -0.12    +0.164 HD 
DOCKED: BRANCH   5   8
DOCKED: ATOM      8  C   UNL     1     135.732  75.231 224.158 -0.30 -0.01    +0.042 A  
DOCKED: ATOM      9  C   UNL     1     135.517  73.870 224.236 -0.23 -0.01    +0.034 A  
DOCKED: ATOM     10  C   UNL     1     135.074  76.028 225.072 -0.24 -0.00    +0.034 A  
DOCKED: ATOM     11  C   UNL     1     134.663  73.352 225.212 -0.23 -0.01    +0.112 A  
DOCKED: ATOM     12  C   UNL     1     134.227  75.497 226.037 -0.36 -0.00    +0.112 A  
DOCKED: ATOM     13  N   UNL     1     134.034  74.166 226.093 -0.69 -0.02    -0.265 NA 
DOCKED: ENDBRANCH   5   8
DOCKED: ENDBRANCH   3   4
DOCKED: ENDBRANCH   1   3
DOCKED: BRANCH   1  14
DOCKED: ATOM     14  N   UNL     1     141.039  76.131 221.157 -0.16 +0.12    -0.331 N  
DOCKED: ATOM     15  C   UNL     1     142.076  75.592 220.243 -0.22 -0.07    +0.152 C  
DOCKED: ATOM     16  C   UNL     1     141.386  77.532 221.233 -0.26 -0.06    +0.118 C  
DOCKED: ATOM     17  C   UNL     1     142.005  76.637 219.148 -0.21 -0.07    +0.136 C  
DOCKED: ATOM     18  C   UNL     1     141.356  77.885 219.767 -0.22 -0.03    +0.063 C  
DOCKED: BRANCH  16  19
DOCKED: ATOM     19  C   UNL     1     140.584  78.365 222.102 -0.35 +0.01    -0.025 A  
DOCKED: ATOM     20  C   UNL     1     139.412  78.963 221.671 -0.20 -0.00    +0.006 A  
DOCKED: ATOM     21  C   UNL     1     140.969  78.616 223.394 -0.50 -0.00    +0.006 A  
DOCKED: ATOM     22  C   UNL     1     138.639  79.774 222.460 -0.24 -0.00    +0.000 A  
DOCKED: ATOM     23  C   UNL     1     140.195  79.441 224.220 -0.30 -0.00    +0.000 A  
DOCKED: ATOM     24  C   UNL     1     139.030  80.028 223.774 -0.42 -0.00    +0.000 A  
DOCKED: ENDBRANCH  16  19
DOCKED: BRANCH  17  25
DOCKED: ATOM     25  O   UNL     1     143.316  77.004 218.859 -0.23 +0.28    -0.391 OA 
DOCKED: ATOM     26  H   UNL     1     143.663  77.485 219.659 -0.46 -0.22    +0.211 HD 
DOCKED: ENDBRANCH  17  25
DOCKED: ENDBRANCH   1  14
DOCKED: TORSDOF 6
DOCKED: TER
DOCKED: ENDMDL
________________________________________________________________________________


    FINAL DOCKED STATE:
    ________________________


Run:   2 / 20
Time taken for this run:   0.025s

DOCKED: MODEL        2
DOCKED: USER    Run = 2
DOCKED: USER
DOCKED: USER    Estimated Free Energy of Binding    =  -6.91 kcal/mol  [=(1)+(2)+(3)-(4)]
DOCKED: USER
DOCKED: USER    (1) Final Intermolecular Energy     =  -8.70 kcal/mol
DOCKED: USER        vdW + Hbond + desolv Energy     =  -8.65 kcal/mol
DOCKED: USER        Electrostatic Energy            =  -0.06 kcal/mol
DOCKED: USER        Moving Ligand-Fixed Receptor    =  -8.70 kcal/mol
DOCKED: USER        Moving Ligand-Moving Receptor   =  +0.00 kcal/mol
DOCKED: USER    (2) Final Total Internal Energy     =  -1.46 kcal/mol
DOCKED: USER    (3) Torsional Free Energy           =  +1.79 kcal/mol
DOCKED: USER    (4) Unbound System's Energy         =  -1.46 kcal/mol
DOCKED: USER
DOCKED: USER
DOCKED: REMARK SMILES O=C(NCC(=O)N1C[C@H](O)C[C@H]1c1ccccc1)c1ccncc1
DOCKED: REMARK SMILES IDX 5 1 6 2 4 3 3 4 2 5 1 6 19 8 20 9 24 10 21 11 23 12 22 13
DOCKED: REMARK SMILES IDX 7 14 8 15 12 16 9 17 11 18 13 19 14 20 18 21 15 22 17 23
DOCKED: REMARK SMILES IDX 16 24 10 25
DOCKED: REMARK H PARENT 3 7 10 26
DOCKED: USER                              x       y       z     vdW  Elec       q    Type
DOCKED: USER                           _______ _______ _______ _____ _____    ______ ____
DOCKED: ROOT
DOCKED: ATOM      1  C   UNL     1     141.820  78.411 219.768 -0.18 -0.15    +0.242 C  
DOCKED: ATOM      2  O   UNL     1     142.156  79.619 219.804 -0.21 +0.17    -0.273 OA 
DOCKED: ENDROOT
DOCKED: BRANCH   1   3
DOCKED: ATOM      3  C   UNL     1     142.394  77.621 218.619 -0.22 -0.14    +0.216 C  
DOCKED: BRANCH   3   4
DOCKED: ATOM      4  N   UNL     1     143.426  76.721 219.087 -0.19 +0.24    -0.343 N  
DOCKED: ATOM      5  C   UNL     1     143.288  75.335 218.903 -0.20 -0.12    +0.251 C  
DOCKED: ATOM      6  O   UNL     1     142.226  74.941 218.313 -0.05 +0.09    -0.269 OA 
DOCKED: ATOM      7  H   UNL     1     144.266  77.120 219.560 -0.48 -0.15    +0.164 HD 
DOCKED: BRANCH   5   8
DOCKED: ATOM      8  C   UNL     1     144.284  74.371 219.347 -0.27 -0.02    +0.042 A  
DOCKED: ATOM      9  C   UNL     1     144.563  73.201 218.672 -0.23 -0.00    +0.034 A  
DOCKED: ATOM     10  C   UNL     1     144.998  74.621 220.501 -0.40 -0.01    +0.034 A  
DOCKED: ATOM     11  C   UNL     1     145.534  72.326 219.162 -0.27 +0.06    +0.112 A  
DOCKED: ATOM     12  C   UNL     1     145.962  73.740 220.976 -0.61 -0.01    +0.112 A  
DOCKED: ATOM     13  N   UNL     1     146.216  72.604 220.299 -0.41 -0.09    -0.265 NA 
DOCKED: ENDBRANCH   5   8
DOCKED: ENDBRANCH   3   4
DOCKED: ENDBRANCH   1   3
DOCKED: BRANCH   1  14
DOCKED: ATOM     14  N   UNL     1     140.980  77.763 220.689 -0.09 +0.14    -0.331 N  
DOCKED: ATOM     15  C   UNL     1     140.224  76.514 220.420 -0.13 -0.05    +0.152 C  
DOCKED: ATOM     16  C   UNL     1     140.622  78.057 222.058 -0.33 -0.04    +0.118 C  
DOCKED: ATOM     17  C   UNL     1     140.582  75.737 221.669 -0.30 -0.03    +0.136 C  
DOCKED: ATOM     18  C   UNL     1     141.041  76.765 222.715 -0.22 -0.02    +0.063 C  
DOCKED: BRANCH  16  19
DOCKED: ATOM     19  C   UNL     1     141.162  79.267 222.636 -0.45 +0.01    -0.025 A  
DOCKED: ATOM     20  C   UNL     1     140.533  80.493 222.496 -0.37 -0.00    +0.006 A  
DOCKED: ATOM     21  C   UNL     1     142.342  79.252 223.335 -0.58 -0.00    +0.006 A  
DOCKED: ATOM     22  C   UNL     1     141.027  81.663 223.012 -0.37 -0.00    +0.000 A  
DOCKED: ATOM     23  C   UNL     1     142.866  80.435 223.872 -0.66 -0.00    +0.000 A  
DOCKED: ATOM     24  C   UNL     1     142.226  81.647 223.723 -0.55 -0.00    +0.000 A  
DOCKED: ENDBRANCH  16  19
DOCKED: BRANCH  17  25
DOCKED: ATOM     25  O   UNL     1     139.395  75.206 222.166 -0.45 +0.07    -0.391 OA 
DOCKED: ATOM     26  H   UNL     1     139.583  74.900 223.094 -0.44 -0.00    +0.211 HD 
DOCKED: ENDBRANCH  17  25
DOCKED: ENDBRANCH   1  14
DOCKED: TORSDOF 6
DOCKED: TER
DOCKED: ENDMDL
________________________________________________________________________________


    FINAL DOCKED STATE:
    ________________________


Run:   3 / 20
Time taken for this run:   0.025s

DOCKED: MODEL        3
DOCKED: USER    Run = 3
DOCKED: USER
DOCKED: USER    Estimated Free Energy of Binding    =  -6.46 kcal/mol  [=(1)+(2)+(3)-(4)]
DOCKED: USER
DOCKED: USER    (1) Final Intermolecular Energy     =  -8.25 kcal/mol
DOCKED: USER        vdW + Hbond + desolv Energy     =  -8.14 kcal/mol
DOCKED: USER        Electrostatic Energy            =  -0.11 kcal/mol
DOCKED: USER        Moving Ligand-Fixed Receptor    =  -8.25 kcal/mol
DOCKED: USER        Moving Ligand-Moving Receptor   =  +0.00 kcal/mol
DOCKED: USER    (2) Final Total Internal Energy     =  -1.84 kcal/mol
DOCKED: USER    (3) Torsional Free Energy           =  +1.79 kcal/mol
DOCKED: USER    (4) Unbound System's Energy         =  -1.84 kcal/mol
DOCKED: USER
DOCKED: USER
DOCKED: REMARK SMILES O=C(NCC(=O)N1C[C@H](O)C[C@H]1c1ccccc1)c1ccncc1
DOCKED: REMARK SMILES IDX 5 1 6 2 4 3 3 4 2 5 1 6 19 8 20 9 24 10 21 11 23 12 22 13
DOCKED: REMARK SMILES IDX 7 14 8 15 12 16 9 17 11 18 13 19 14 20 18 21 15 22 17 23
DOCKED: REMARK SMILES IDX 16 24 10 25
DOCKED: REMARK H PARENT 3 7 10 26
DOCKED: USER                              x       y       z     vdW  Elec       q    Type
DOCKED: USER                           _______ _______ _______ _____ _____    ______ ____
DOCKED: ROOT
DOCKED: ATOM      1  C   UNL     1     140.635  78.131 219.506 -0.08 -0.10    +0.242 C  
DOCKED: ATOM      2  O   UNL     1     139.880  78.829 218.786 -0.02 +0.09    -0.273 OA 
DOCKED: ENDROOT
DOCKED: BRANCH   1   3
DOCKED: ATOM      3  C   UNL     1     142.098  78.188 219.144 -0.19 -0.14    +0.216 C  
DOCKED: BRANCH   3   4
DOCKED: ATOM      4  N   UNL     1     142.827  77.133 219.813 -0.15 +0.26    -0.343 N  
DOCKED: ATOM      5  C   UNL     1     142.836  75.834 219.278 -0.22 -0.13    +0.251 C  
DOCKED: ATOM      6  O   UNL     1     142.178  75.658 218.196 -0.07 +0.11    -0.269 OA 
DOCKED: ATOM      7  H   UNL     1     143.341  77.355 220.693 -0.45 -0.20    +0.164 HD 
DOCKED: BRANCH   5   8
DOCKED: ATOM      8  C   UNL     1     143.546  74.724 219.895 -0.36 -0.02    +0.042 A  
DOCKED: ATOM      9  C   UNL     1     143.036  73.445 219.974 -0.25 -0.01    +0.034 A  
DOCKED: ATOM     10  C   UNL     1     144.798  74.940 220.434 -0.29 -0.02    +0.034 A  
DOCKED: ATOM     11  C   UNL     1     143.781  72.432 220.582 -0.28 -0.02    +0.112 A  
DOCKED: ATOM     12  C   UNL     1     145.527  73.922 221.036 -0.51 -0.03    +0.112 A  
DOCKED: ATOM     13  N   UNL     1     145.007  72.682 221.101 -0.26 +0.06    -0.265 NA 
DOCKED: ENDBRANCH   5   8
DOCKED: ENDBRANCH   3   4
DOCKED: ENDBRANCH   1   3
DOCKED: BRANCH   1  14
DOCKED: ATOM     14  N   UNL     1     140.230  77.330 220.588 -0.05 +0.11    -0.331 N  
DOCKED: ATOM     15  C   UNL     1     139.581  76.001 220.466 -0.11 -0.04    +0.152 C  
DOCKED: ATOM     16  C   UNL     1     140.315  77.508 222.020 -0.31 -0.04    +0.118 C  
DOCKED: ATOM     17  C   UNL     1     140.423  75.226 221.459 -0.27 -0.03    +0.136 C  
DOCKED: ATOM     18  C   UNL     1     141.078  76.260 222.388 -0.13 -0.02    +0.063 C  
DOCKED: BRANCH  16  19
DOCKED: ATOM     19  C   UNL     1     140.869  78.755 222.498 -0.41 +0.01    -0.025 A  
DOCKED: ATOM     20  C   UNL     1     142.233  79.000 222.502 -0.50 -0.00    +0.006 A  
DOCKED: ATOM     21  C   UNL     1     140.060  79.745 222.993 -0.40 -0.00    +0.006 A  
DOCKED: ATOM     22  C   UNL     1     142.793  80.161 222.968 -0.65 -0.00    +0.000 A  
DOCKED: ATOM     23  C   UNL     1     140.610  80.940 223.473 -0.45 -0.00    +0.000 A  
DOCKED: ATOM     24  C   UNL     1     141.971  81.168 223.469 -0.61 -0.00    +0.000 A  
DOCKED: ENDBRANCH  16  19
DOCKED: BRANCH  17  25
DOCKED: ATOM     25  O   UNL     1     139.540  74.511 222.262 -0.69 +0.06    -0.391 OA 
DOCKED: ATOM     26  H   UNL     1     139.382  75.062 223.077 -0.41 -0.03    +0.211 HD 
DOCKED: ENDBRANCH  17  25
DOCKED: ENDBRANCH   1  14
DOCKED: TORSDOF 6
DOCKED: TER
DOCKED: ENDMDL
________________________________________________________________________________


    FINAL DOCKED STATE:
    ________________________


Run:   4 / 20
Time taken for this run:   0.025s

DOCKED: MODEL        4
DOCKED: USER    Run = 4
DOCKED: USER
DOCKED: USER    Estimated Free Energy of Binding    =  -7.04 kcal/mol  [=(1)+(2)+(3)-(4)]
DOCKED: USER
DOCKED: USER    (1) Final Intermolecular Energy     =  -8.83 kcal/mol
DOCKED: USER        vdW + Hbond + desolv Energy     =  -8.71 kcal/mol
DOCKED: USER        Electrostatic Energy            =  -0.12 kcal/mol
DOCKED: USER        Moving Ligand-Fixed Receptor    =  -8.83 kcal/mol
DOCKED: USER        Moving Ligand-Moving Receptor   =  +0.00 kcal/mol
DOCKED: USER    (2) Final Total Internal Energy     =  -1.48 kcal/mol
DOCKED: USER    (3) Torsional Free Energy           =  +1.79 kcal/mol
DOCKED: USER    (4) Unbound System's Energy         =  -1.48 kcal/mol
DOCKED: USER
DOCKED: USER
DOCKED: REMARK SMILES O=C(NCC(=O)N1C[C@H](O)C[C@H]1c1ccccc1)c1ccncc1
DOCKED: REMARK SMILES IDX 5 1 6 2 4 3 3 4 2 5 1 6 19 8 20 9 24 10 21 11 23 12 22 13
DOCKED: REMARK SMILES IDX 7 14 8 15 12 16 9 17 11 18 13 19 14 20 18 21 15 22 17 23
DOCKED: REMARK SMILES IDX 16 24 10 25
DOCKED: REMARK H PARENT 3 7 10 26
DOCKED: USER                              x       y       z     vdW  Elec       q    Type
DOCKED: USER                           _______ _______ _______ _____ _____    ______ ____
DOCKED: ROOT
DOCKED: ATOM      1  C   UNL     1     141.596  78.450 219.797 -0.17 -0.13    +0.242 C  
DOCKED: ATOM      2  O   UNL     1     141.870  79.673 219.851 -0.20 +0.15    -0.273 OA 
DOCKED: ENDROOT
DOCKED: BRANCH   1   3
DOCKED: ATOM      3  C   UNL     1     142.155  77.720 218.602 -0.20 -0.13    +0.216 C  
DOCKED: BRANCH   3   4
DOCKED: ATOM      4  N   UNL     1     143.241  76.851 219.002 -0.19 +0.24    -0.343 N  
DOCKED: ATOM      5  C   UNL     1     143.106  75.457 218.884 -0.19 -0.12    +0.251 C  
DOCKED: ATOM      6  O   UNL     1     141.997  75.029 218.415 -0.05 +0.09    -0.269 OA 
DOCKED: ATOM      7  H   UNL     1     144.116  77.277 219.375 -0.46 -0.16    +0.164 HD 
DOCKED: BRANCH   5   8
DOCKED: ATOM      8  C   UNL     1     144.154  74.522 219.265 -0.26 -0.02    +0.042 A  
DOCKED: ATOM      9  C   UNL     1     144.822  74.578 220.471 -0.46 -0.01    +0.034 A  
DOCKED: ATOM     10  C   UNL     1     144.513  73.518 218.390 -0.20 -0.00    +0.034 A  
DOCKED: ATOM     11  C   UNL     1     145.816  73.643 220.763 -0.59 -0.01    +0.112 A  
DOCKED: ATOM     12  C   UNL     1     145.505  72.594 218.696 -0.21 +0.06    +0.112 A  
DOCKED: ATOM     13  N   UNL     1     146.143  72.670 219.879 -0.55 -0.14    -0.265 NA 
DOCKED: ENDBRANCH   5   8
DOCKED: ENDBRANCH   3   4
DOCKED: ENDBRANCH   1   3
DOCKED: BRANCH   1  14
DOCKED: ATOM     14  N   UNL     1     140.833  77.736 220.737 -0.09 +0.14    -0.331 N  
DOCKED: ATOM     15  C   UNL     1     140.047  76.512 220.442 -0.12 -0.04    +0.152 C  
DOCKED: ATOM     16  C   UNL     1     140.596  77.927 222.150 -0.34 -0.04    +0.118 C  
DOCKED: ATOM     17  C   UNL     1     140.506  75.643 221.595 -0.30 -0.03    +0.136 C  
DOCKED: ATOM     18  C   UNL     1     141.061  76.590 222.671 -0.11 -0.02    +0.063 C  
DOCKED: BRANCH  16  19
DOCKED: ATOM     19  C   UNL     1     141.193  79.090 222.767 -0.47 +0.01    -0.025 A  
DOCKED: ATOM     20  C   UNL     1     140.429  80.137 223.257 -0.45 -0.00    +0.006 A  
DOCKED: ATOM     21  C   UNL     1     142.555  79.215 222.874 -0.55 -0.00    +0.006 A  
DOCKED: ATOM     22  C   UNL     1     140.962  81.263 223.828 -0.38 -0.00    +0.000 A  
DOCKED: ATOM     23  C   UNL     1     143.122  80.356 223.455 -0.65 -0.00    +0.000 A  
DOCKED: ATOM     24  C   UNL     1     142.345  81.389 223.937 -0.61 -0.00    +0.000 A  
DOCKED: ENDBRANCH  16  19
DOCKED: BRANCH  17  25
DOCKED: ATOM     25  O   UNL     1     139.362  75.078 222.151 -0.46 +0.07    -0.391 OA 
DOCKED: ATOM     26  H   UNL     1     139.563  74.909 223.112 -0.44 -0.01    +0.211 HD 
DOCKED: ENDBRANCH  17  25
DOCKED: ENDBRANCH   1  14
DOCKED: TORSDOF 6
DOCKED: TER
DOCKED: ENDMDL
________________________________________________________________________________


    FINAL DOCKED STATE:
    ________________________


Run:   5 / 20
Time taken for this run:   0.025s

DOCKED: MODEL        5
DOCKED: USER    Run = 5
DOCKED: USER
DOCKED: USER    Estimated Free Energy of Binding    =  -6.97 kcal/mol  [=(1)+(2)+(3)-(4)]
DOCKED: USER
DOCKED: USER    (1) Final Intermolecular Energy     =  -8.76 kcal/mol
DOCKED: USER        vdW + Hbond + desolv Energy     =  -8.67 kcal/mol
DOCKED: USER        Electrostatic Energy            =  -0.09 kcal/mol
DOCKED: USER        Moving Ligand-Fixed Receptor    =  -8.76 kcal/mol
DOCKED: USER        Moving Ligand-Moving Receptor   =  +0.00 kcal/mol
DOCKED: USER    (2) Final Total Internal Energy     =  -1.46 kcal/mol
DOCKED: USER    (3) Torsional Free Energy           =  +1.79 kcal/mol
DOCKED: USER    (4) Unbound System's Energy         =  -1.46 kcal/mol
DOCKED: USER
DOCKED: USER
DOCKED: REMARK SMILES O=C(NCC(=O)N1C[C@H](O)C[C@H]1c1ccccc1)c1ccncc1
DOCKED: REMARK SMILES IDX 5 1 6 2 4 3 3 4 2 5 1 6 19 8 20 9 24 10 21 11 23 12 22 13
DOCKED: REMARK SMILES IDX 7 14 8 15 12 16 9 17 11 18 13 19 14 20 18 21 15 22 17 23
DOCKED: REMARK SMILES IDX 16 24 10 25
DOCKED: REMARK H PARENT 3 7 10 26
DOCKED: USER                              x       y       z     vdW  Elec       q    Type
DOCKED: USER                           _______ _______ _______ _____ _____    ______ ____
DOCKED: ROOT
DOCKED: ATOM      1  C   UNL     1     141.643  78.413 219.746 -0.17 -0.14    +0.242 C  
DOCKED: ATOM      2  O   UNL     1     141.895  79.643 219.753 -0.20 +0.16    -0.273 OA 
DOCKED: ENDROOT
DOCKED: BRANCH   1   3
DOCKED: ATOM      3  C   UNL     1     142.269  77.639 218.613 -0.21 -0.14    +0.216 C  
DOCKED: BRANCH   3   4
DOCKED: ATOM      4  N   UNL     1     143.293  76.747 219.114 -0.21 +0.24    -0.343 N  
DOCKED: ATOM      5  C   UNL     1     143.236  75.375 218.820 -0.19 -0.12    +0.251 C  
DOCKED: ATOM      6  O   UNL     1     142.252  74.985 218.104 -0.05 +0.09    -0.269 OA 
DOCKED: ATOM      7  H   UNL     1     144.066  77.142 219.692 -0.52 -0.16    +0.164 HD 
DOCKED: BRANCH   5   8
DOCKED: ATOM      8  C   UNL     1     144.229  74.419 219.288 -0.26 -0.02    +0.042 A  
DOCKED: ATOM      9  C   UNL     1     144.892  74.540 220.492 -0.46 -0.01    +0.034 A  
DOCKED: ATOM     10  C   UNL     1     144.538  73.328 218.503 -0.21 -0.00    +0.034 A  
DOCKED: ATOM     11  C   UNL     1     145.832  73.579 220.871 -0.60 -0.01    +0.112 A  
DOCKED: ATOM     12  C   UNL     1     145.476  72.380 218.895 -0.23 +0.06    +0.112 A  
DOCKED: ATOM     13  N   UNL     1     146.110  72.520 220.074 -0.45 -0.11    -0.265 NA 
DOCKED: ENDBRANCH   5   8
DOCKED: ENDBRANCH   3   4
DOCKED: ENDBRANCH   1   3
DOCKED: BRANCH   1  14
DOCKED: ATOM     14  N   UNL     1     140.850  77.731 220.683 -0.08 +0.14    -0.331 N  
DOCKED: ATOM     15  C   UNL     1     140.097  76.481 220.412 -0.12 -0.05    +0.152 C  
DOCKED: ATOM     16  C   UNL     1     140.548  77.983 222.074 -0.32 -0.04    +0.118 C  
DOCKED: ATOM     17  C   UNL     1     140.518  75.674 221.624 -0.30 -0.03    +0.136 C  
DOCKED: ATOM     18  C   UNL     1     141.009  76.680 222.677 -0.17 -0.02    +0.063 C  
DOCKED: BRANCH  16  19
DOCKED: ATOM     19  C   UNL     1     141.099  79.183 222.662 -0.45 +0.01    -0.025 A  
DOCKED: ATOM     20  C   UNL     1     140.455  80.407 222.575 -0.37 -0.00    +0.006 A  
DOCKED: ATOM     21  C   UNL     1     142.304  79.163 223.316 -0.57 -0.00    +0.006 A  
DOCKED: ATOM     22  C   UNL     1     140.958  81.568 223.102 -0.38 -0.00    +0.000 A  
DOCKED: ATOM     23  C   UNL     1     142.837  80.337 223.863 -0.64 -0.00    +0.000 A  
DOCKED: ATOM     24  C   UNL     1     142.182  81.547 223.767 -0.59 -0.00    +0.000 A  
DOCKED: ENDBRANCH  16  19
DOCKED: BRANCH  17  25
DOCKED: ATOM     25  O   UNL     1     139.360  75.116 222.156 -0.45 +0.07    -0.391 OA 
DOCKED: ATOM     26  H   UNL     1     139.559  74.889 223.104 -0.45 -0.01    +0.211 HD 
DOCKED: ENDBRANCH  17  25
DOCKED: ENDBRANCH   1  14
DOCKED: TORSDOF 6
DOCKED: TER
DOCKED: ENDMDL
________________________________________________________________________________


    FINAL DOCKED STATE:
    ________________________


Run:   6 / 20
Time taken for this run:   0.025s

DOCKED: MODEL        6
DOCKED: USER    Run = 6
DOCKED: USER
DOCKED: USER    Estimated Free Energy of Binding    =  -6.57 kcal/mol  [=(1)+(2)+(3)-(4)]
DOCKED: USER
DOCKED: USER    (1) Final Intermolecular Energy     =  -8.36 kcal/mol
DOCKED: USER        vdW + Hbond + desolv Energy     =  -8.18 kcal/mol
DOCKED: USER        Electrostatic Energy            =  -0.18 kcal/mol
DOCKED: USER        Moving Ligand-Fixed Receptor    =  -8.36 kcal/mol
DOCKED: USER        Moving Ligand-Moving Receptor   =  +0.00 kcal/mol
DOCKED: USER    (2) Final Total Internal Energy     =  -1.52 kcal/mol
DOCKED: USER    (3) Torsional Free Energy           =  +1.79 kcal/mol
DOCKED: USER    (4) Unbound System's Energy         =  -1.52 kcal/mol
DOCKED: USER
DOCKED: USER
DOCKED: REMARK SMILES O=C(NCC(=O)N1C[C@H](O)C[C@H]1c1ccccc1)c1ccncc1
DOCKED: REMARK SMILES IDX 5 1 6 2 4 3 3 4 2 5 1 6 19 8 20 9 24 10 21 11 23 12 22 13
DOCKED: REMARK SMILES IDX 7 14 8 15 12 16 9 17 11 18 13 19 14 20 18 21 15 22 17 23
DOCKED: REMARK SMILES IDX 16 24 10 25
DOCKED: REMARK H PARENT 3 7 10 26
DOCKED: USER                              x       y       z     vdW  Elec       q    Type
DOCKED: USER                           _______ _______ _______ _____ _____    ______ ____
DOCKED: ROOT
DOCKED: ATOM      1  C   UNL     1     142.004  75.443 218.699 -0.09 -0.09    +0.242 C  
DOCKED: ATOM      2  O   UNL     1     142.090  74.688 217.700 -0.03 +0.09    -0.273 OA 
DOCKED: ENDROOT
DOCKED: BRANCH   1   3
DOCKED: ATOM      3  C   UNL     1     142.337  76.891 218.438 -0.19 -0.12    +0.216 C  
DOCKED: BRANCH   3   4
DOCKED: ATOM      4  N   UNL     1     142.572  77.589 219.683 -0.12 +0.26    -0.343 N  
DOCKED: ATOM      5  C   UNL     1     141.578  78.422 220.222 -0.18 -0.14    +0.251 C  
DOCKED: ATOM      6  O   UNL     1     140.490  78.514 219.558 -0.06 +0.10    -0.269 OA 
DOCKED: ATOM      7  H   UNL     1     143.488  77.462 220.167 -0.49 -0.19    +0.164 HD 
DOCKED: BRANCH   5   8
DOCKED: ATOM      8  C   UNL     1     141.743  79.155 221.468 -0.38 -0.02    +0.042 A  
DOCKED: ATOM      9  C   UNL     1     142.042  80.500 221.525 -0.42 -0.01    +0.034 A  
DOCKED: ATOM     10  C   UNL     1     141.595  78.488 222.667 -0.45 -0.02    +0.034 A  
DOCKED: ATOM     11  C   UNL     1     142.185  81.132 222.763 -0.46 -0.02    +0.112 A  
DOCKED: ATOM     12  C   UNL     1     141.740  79.132 223.891 -0.52 -0.03    +0.112 A  
DOCKED: ATOM     13  N   UNL     1     142.033  80.445 223.920 -0.34 +0.05    -0.265 NA 
DOCKED: ENDBRANCH   5   8
DOCKED: ENDBRANCH   3   4
DOCKED: ENDBRANCH   1   3
DOCKED: BRANCH   1  14
DOCKED: ATOM     14  N   UNL     1     141.632  75.051 219.996 -0.08 +0.11    -0.331 N  
DOCKED: ATOM     15  C   UNL     1     140.402  75.494 220.699 -0.18 -0.04    +0.152 C  
DOCKED: ATOM     16  C   UNL     1     142.248  74.173 220.965 -0.13 -0.03    +0.118 C  
DOCKED: ATOM     17  C   UNL     1     139.907  74.151 221.195 -0.20 -0.02    +0.136 C  
DOCKED: ATOM     18  C   UNL     1     141.115  73.202 221.187 -0.25 -0.01    +0.063 C  
DOCKED: BRANCH  16  19
DOCKED: ATOM     19  C   UNL     1     143.523  73.590 220.611 -0.33 +0.01    -0.025 A  
DOCKED: ATOM     20  C   UNL     1     143.626  72.316 220.077 -0.28 -0.00    +0.006 A  
DOCKED: ATOM     21  C   UNL     1     144.694  74.275 220.813 -0.43 -0.00    +0.006 A  
DOCKED: ATOM     22  C   UNL     1     144.819  71.725 219.750 -0.32 +0.00    +0.000 A  
DOCKED: ATOM     23  C   UNL     1     145.925  73.691 220.486 -0.66 -0.00    +0.000 A  
DOCKED: ATOM     24  C   UNL     1     146.009  72.421 219.955 -0.43 +0.00    +0.000 A  
DOCKED: ENDBRANCH  16  19
DOCKED: BRANCH  17  25
DOCKED: ATOM     25  O   UNL     1     139.573  74.316 222.536 -0.63 +0.05    -0.391 OA 
DOCKED: ATOM     26  H   UNL     1     138.834  73.679 222.729 -0.52 -0.09    +0.211 HD 
DOCKED: ENDBRANCH  17  25
DOCKED: ENDBRANCH   1  14
DOCKED: TORSDOF 6
DOCKED: TER
DOCKED: ENDMDL
________________________________________________________________________________


    FINAL DOCKED STATE:
    ________________________


Run:   7 / 20
Time taken for this run:   0.025s

DOCKED: MODEL        7
DOCKED: USER    Run = 7
DOCKED: USER
DOCKED: USER    Estimated Free Energy of Binding    =  -6.67 kcal/mol  [=(1)+(2)+(3)-(4)]
DOCKED: USER
DOCKED: USER    (1) Final Intermolecular Energy     =  -8.46 kcal/mol
DOCKED: USER        vdW + Hbond + desolv Energy     =  -8.41 kcal/mol
DOCKED: USER        Electrostatic Energy            =  -0.06 kcal/mol
DOCKED: USER        Moving Ligand-Fixed Receptor    =  -8.46 kcal/mol
DOCKED: USER        Moving Ligand-Moving Receptor   =  +0.00 kcal/mol
DOCKED: USER    (2) Final Total Internal Energy     =  -1.68 kcal/mol
DOCKED: USER    (3) Torsional Free Energy           =  +1.79 kcal/mol
DOCKED: USER    (4) Unbound System's Energy         =  -1.68 kcal/mol
DOCKED: USER
DOCKED: USER
DOCKED: REMARK SMILES O=C(NCC(=O)N1C[C@H](O)C[C@H]1c1ccccc1)c1ccncc1
DOCKED: REMARK SMILES IDX 5 1 6 2 4 3 3 4 2 5 1 6 19 8 20 9 24 10 21 11 23 12 22 13
DOCKED: REMARK SMILES IDX 7 14 8 15 12 16 9 17 11 18 13 19 14 20 18 21 15 22 17 23
DOCKED: REMARK SMILES IDX 16 24 10 25
DOCKED: REMARK H PARENT 3 7 10 26
DOCKED: USER                              x       y       z     vdW  Elec       q    Type
DOCKED: USER                           _______ _______ _______ _____ _____    ______ ____
DOCKED: ROOT
DOCKED: ATOM      1  C   UNL     1     141.155  78.516 219.811 -0.14 -0.11    +0.242 C  
DOCKED: ATOM      2  O   UNL     1     141.038  79.756 219.652 -0.12 +0.12    -0.273 OA 
DOCKED: ENDROOT
DOCKED: BRANCH   1   3
DOCKED: ATOM      3  C   UNL     1     142.038  77.822 218.804 -0.20 -0.13    +0.216 C  
DOCKED: BRANCH   3   4
DOCKED: ATOM      4  N   UNL     1     142.952  76.919 219.469 -0.19 +0.24    -0.343 N  
DOCKED: ATOM      5  C   UNL     1     142.772  75.530 219.361 -0.20 -0.12    +0.251 C  
DOCKED: ATOM      6  O   UNL     1     141.780  75.136 218.659 -0.05 +0.09    -0.269 OA 
DOCKED: ATOM      7  H   UNL     1     143.740  77.318 220.025 -0.52 -0.18    +0.164 HD 
DOCKED: BRANCH   5   8
DOCKED: ATOM      8  C   UNL     1     143.651  74.562 220.001 -0.37 -0.02    +0.042 A  
DOCKED: ATOM      9  C   UNL     1     144.909  74.873 220.472 -0.32 -0.02    +0.034 A  
DOCKED: ATOM     10  C   UNL     1     143.221  73.260 220.155 -0.27 -0.01    +0.034 A  
DOCKED: ATOM     11  C   UNL     1     145.693  73.886 221.076 -0.54 -0.02    +0.112 A  
DOCKED: ATOM     12  C   UNL     1     144.013  72.290 220.758 -0.29 -0.02    +0.112 A  
DOCKED: ATOM     13  N   UNL     1     145.238  72.618 221.210 -0.23 +0.07    -0.265 NA 
DOCKED: ENDBRANCH   5   8
DOCKED: ENDBRANCH   3   4
DOCKED: ENDBRANCH   1   3
DOCKED: BRANCH   1  14
DOCKED: ATOM     14  N   UNL     1     140.546  77.756 220.823 -0.07 +0.12    -0.331 N  
DOCKED: ATOM     15  C   UNL     1     139.740  76.530 220.599 -0.12 -0.04    +0.152 C  
DOCKED: ATOM     16  C   UNL     1     140.517  77.891 222.262 -0.35 -0.04    +0.118 C  
DOCKED: ATOM     17  C   UNL     1     140.372  75.628 221.638 -0.29 -0.03    +0.136 C  
DOCKED: ATOM     18  C   UNL     1     141.067  76.544 222.658 -0.08 -0.02    +0.063 C  
DOCKED: BRANCH  16  19
DOCKED: ATOM     19  C   UNL     1     141.184  79.040 222.831 -0.48 +0.01    -0.025 A  
DOCKED: ATOM     20  C   UNL     1     140.482  80.126 223.331 -0.46 -0.00    +0.006 A  
DOCKED: ATOM     21  C   UNL     1     142.553  79.113 222.877 -0.52 -0.00    +0.006 A  
DOCKED: ATOM     22  C   UNL     1     141.082  81.240 223.857 -0.41 -0.00    +0.000 A  
DOCKED: ATOM     23  C   UNL     1     143.188  80.241 223.412 -0.62 -0.00    +0.000 A  
DOCKED: ATOM     24  C   UNL     1     142.473  81.313 223.905 -0.62 -0.00    +0.000 A  
DOCKED: ENDBRANCH  16  19
DOCKED: BRANCH  17  25
DOCKED: ATOM     25  O   UNL     1     139.329  75.023 222.333 -0.54 +0.07    -0.391 OA 
DOCKED: ATOM     26  H   UNL     1     139.489  75.196 223.300 -0.39 -0.02    +0.211 HD 
DOCKED: ENDBRANCH  17  25
DOCKED: ENDBRANCH   1  14
DOCKED: TORSDOF 6
DOCKED: TER
DOCKED: ENDMDL
________________________________________________________________________________


    FINAL DOCKED STATE:
    ________________________


Run:   8 / 20
Time taken for this run:   0.025s

DOCKED: MODEL        8
DOCKED: USER    Run = 8
DOCKED: USER
DOCKED: USER    Estimated Free Energy of Binding    =  -6.52 kcal/mol  [=(1)+(2)+(3)-(4)]
DOCKED: USER
DOCKED: USER    (1) Final Intermolecular Energy     =  -8.31 kcal/mol
DOCKED: USER        vdW + Hbond + desolv Energy     =  -8.20 kcal/mol
DOCKED: USER        Electrostatic Energy            =  -0.10 kcal/mol
DOCKED: USER        Moving Ligand-Fixed Receptor    =  -8.31 kcal/mol
DOCKED: USER        Moving Ligand-Moving Receptor   =  +0.00 kcal/mol
DOCKED: USER    (2) Final Total Internal Energy     =  -1.82 kcal/mol
DOCKED: USER    (3) Torsional Free Energy           =  +1.79 kcal/mol
DOCKED: USER    (4) Unbound System's Energy         =  -1.82 kcal/mol
DOCKED: USER
DOCKED: USER
DOCKED: REMARK SMILES O=C(NCC(=O)N1C[C@H](O)C[C@H]1c1ccccc1)c1ccncc1
DOCKED: REMARK SMILES IDX 5 1 6 2 4 3 3 4 2 5 1 6 19 8 20 9 24 10 21 11 23 12 22 13
DOCKED: REMARK SMILES IDX 7 14 8 15 12 16 9 17 11 18 13 19 14 20 18 21 15 22 17 23
DOCKED: REMARK SMILES IDX 16 24 10 25
DOCKED: REMARK H PARENT 3 7 10 26
DOCKED: USER                              x       y       z     vdW  Elec       q    Type
DOCKED: USER                           _______ _______ _______ _____ _____    ______ ____
DOCKED: ROOT
DOCKED: ATOM      1  C   UNL     1     140.690  78.358 219.683 -0.10 -0.10    +0.242 C  
DOCKED: ATOM      2  O   UNL     1     140.005  79.240 219.110 -0.03 +0.09    -0.273 OA 
DOCKED: ENDROOT
DOCKED: BRANCH   1   3
DOCKED: ATOM      3  C   UNL     1     142.097  78.201 219.164 -0.19 -0.14    +0.216 C  
DOCKED: BRANCH   3   4
DOCKED: ATOM      4  N   UNL     1     142.779  77.133 219.862 -0.15 +0.26    -0.343 N  
DOCKED: ATOM      5  C   UNL     1     142.818  75.843 219.308 -0.22 -0.13    +0.251 C  
DOCKED: ATOM      6  O   UNL     1     142.231  75.686 218.184 -0.08 +0.11    -0.269 OA 
DOCKED: ATOM      7  H   UNL     1     143.236  77.341 220.777 -0.44 -0.20    +0.164 HD 
DOCKED: BRANCH   5   8
DOCKED: ATOM      8  C   UNL     1     143.485  74.721 219.952 -0.36 -0.02    +0.042 A  
DOCKED: ATOM      9  C   UNL     1     142.907  73.477 220.102 -0.25 -0.01    +0.034 A  
DOCKED: ATOM     10  C   UNL     1     144.763  74.888 220.445 -0.34 -0.02    +0.034 A  
DOCKED: ATOM     11  C   UNL     1     143.613  72.450 220.732 -0.26 -0.02    +0.112 A  
DOCKED: ATOM     12  C   UNL     1     145.452  73.855 221.069 -0.50 -0.03    +0.112 A  
DOCKED: ATOM     13  N   UNL     1     144.867  72.651 221.204 -0.23 +0.06    -0.265 NA 
DOCKED: ENDBRANCH   5   8
DOCKED: ENDBRANCH   3   4
DOCKED: ENDBRANCH   1   3
DOCKED: BRANCH   1  14
DOCKED: ATOM     14  N   UNL     1     140.256  77.536 220.737 -0.05 +0.11    -0.331 N  
DOCKED: ATOM     15  C   UNL     1     139.542  76.245 220.571 -0.11 -0.04    +0.152 C  
DOCKED: ATOM     16  C   UNL     1     140.361  77.653 222.174 -0.33 -0.04    +0.118 C  
DOCKED: ATOM     17  C   UNL     1     140.353  75.393 221.524 -0.28 -0.03    +0.136 C  
DOCKED: ATOM     18  C   UNL     1     141.065  76.357 222.486 -0.10 -0.02    +0.063 C  
DOCKED: BRANCH  16  19
DOCKED: ATOM     19  C   UNL     1     140.979  78.852 222.694 -0.45 +0.01    -0.025 A  
DOCKED: ATOM     20  C   UNL     1     142.346  79.067 222.620 -0.51 -0.00    +0.006 A  
DOCKED: ATOM     21  C   UNL     1     140.231  79.824 223.310 -0.44 -0.00    +0.006 A  
DOCKED: ATOM     22  C   UNL     1     142.967  80.181 223.122 -0.67 -0.00    +0.000 A  
DOCKED: ATOM     23  C   UNL     1     140.844  80.971 223.829 -0.42 -0.00    +0.000 A  
DOCKED: ATOM     24  C   UNL     1     142.206  81.169 223.746 -0.64 -0.00    +0.000 A  
DOCKED: ENDBRANCH  16  19
DOCKED: BRANCH  17  25
DOCKED: ATOM     25  O   UNL     1     139.443  74.690 222.308 -0.64 +0.06    -0.391 OA 
DOCKED: ATOM     26  H   UNL     1     139.285  75.237 223.125 -0.40 -0.04    +0.211 HD 
DOCKED: ENDBRANCH  17  25
DOCKED: ENDBRANCH   1  14
DOCKED: TORSDOF 6
DOCKED: TER
DOCKED: ENDMDL
________________________________________________________________________________


    FINAL DOCKED STATE:
    ________________________


Run:   9 / 20
Time taken for this run:   0.025s

DOCKED: MODEL        9
DOCKED: USER    Run = 9
DOCKED: USER
DOCKED: USER    Estimated Free Energy of Binding    =  -6.57 kcal/mol  [=(1)+(2)+(3)-(4)]
DOCKED: USER
DOCKED: USER    (1) Final Intermolecular Energy     =  -8.36 kcal/mol
DOCKED: USER        vdW + Hbond + desolv Energy     =  -8.19 kcal/mol
DOCKED: USER        Electrostatic Energy            =  -0.17 kcal/mol
DOCKED: USER        Moving Ligand-Fixed Receptor    =  -8.36 kcal/mol
DOCKED: USER        Moving Ligand-Moving Receptor   =  +0.00 kcal/mol
DOCKED: USER    (2) Final Total Internal Energy     =  -1.59 kcal/mol
DOCKED: USER    (3) Torsional Free Energy           =  +1.79 kcal/mol
DOCKED: USER    (4) Unbound System's Energy         =  -1.59 kcal/mol
DOCKED: USER
DOCKED: USER
DOCKED: REMARK SMILES O=C(NCC(=O)N1C[C@H](O)C[C@H]1c1ccccc1)c1ccncc1
DOCKED: REMARK SMILES IDX 5 1 6 2 4 3 3 4 2 5 1 6 19 8 20 9 24 10 21 11 23 12 22 13
DOCKED: REMARK SMILES IDX 7 14 8 15 12 16 9 17 11 18 13 19 14 20 18 21 15 22 17 23
DOCKED: REMARK SMILES IDX 16 24 10 25
DOCKED: REMARK H PARENT 3 7 10 26
DOCKED: USER                              x       y       z     vdW  Elec       q    Type
DOCKED: USER                           _______ _______ _______ _____ _____    ______ ____
DOCKED: ROOT
DOCKED: ATOM      1  C   UNL     1     141.964  75.326 218.678 -0.08 -0.09    +0.242 C  
DOCKED: ATOM      2  O   UNL     1     141.738  74.676 217.629 -0.02 +0.08    -0.273 OA 
DOCKED: ENDROOT
DOCKED: BRANCH   1   3
DOCKED: ATOM      3  C   UNL     1     142.687  76.634 218.477 -0.21 -0.12    +0.216 C  
DOCKED: BRANCH   3   4
DOCKED: ATOM      4  N   UNL     1     142.808  77.344 219.732 -0.07 +0.27    -0.343 N  
DOCKED: ATOM      5  C   UNL     1     141.767  78.178 220.172 -0.18 -0.15    +0.251 C  
DOCKED: ATOM      6  O   UNL     1     140.743  78.261 219.413 -0.07 +0.11    -0.269 OA 
DOCKED: ATOM      7  H   UNL     1     143.677  77.223 220.297 -0.51 -0.19    +0.164 HD 
DOCKED: BRANCH   5   8
DOCKED: ATOM      8  C   UNL     1     141.819  78.922 221.422 -0.38 -0.02    +0.042 A  
DOCKED: ATOM      9  C   UNL     1     142.195  80.247 221.503 -0.42 -0.01    +0.034 A  
DOCKED: ATOM     10  C   UNL     1     141.476  78.289 222.599 -0.45 -0.02    +0.034 A  
DOCKED: ATOM     11  C   UNL     1     142.218  80.892 222.742 -0.50 -0.03    +0.112 A  
DOCKED: ATOM     12  C   UNL     1     141.504  78.945 223.824 -0.52 -0.03    +0.112 A  
DOCKED: ATOM     13  N   UNL     1     141.875  80.238 223.877 -0.34 +0.05    -0.265 NA 
DOCKED: ENDBRANCH   5   8
DOCKED: ENDBRANCH   3   4
DOCKED: ENDBRANCH   1   3
DOCKED: BRANCH   1  14
DOCKED: ATOM     14  N   UNL     1     141.604  74.938 219.980 -0.08 +0.10    -0.331 N  
DOCKED: ATOM     15  C   UNL     1     140.375  75.374 220.688 -0.18 -0.04    +0.152 C  
DOCKED: ATOM     16  C   UNL     1     142.233  74.069 220.949 -0.15 -0.03    +0.118 C  
DOCKED: ATOM     17  C   UNL     1     139.894  74.029 221.194 -0.20 -0.02    +0.136 C  
DOCKED: ATOM     18  C   UNL     1     141.110  73.090 221.183 -0.25 -0.01    +0.063 C  
DOCKED: BRANCH  16  19
DOCKED: ATOM     19  C   UNL     1     143.510  73.496 220.590 -0.33 +0.01    -0.025 A  
DOCKED: ATOM     20  C   UNL     1     144.702  74.176 220.781 -0.47 -0.00    +0.006 A  
DOCKED: ATOM     21  C   UNL     1     143.592  72.252 220.018 -0.27 -0.00    +0.006 A  
DOCKED: ATOM     22  C   UNL     1     145.928  73.672 220.433 -0.64 -0.00    +0.000 A  
DOCKED: ATOM     23  C   UNL     1     144.834  71.716 219.655 -0.32 +0.00    +0.000 A  
DOCKED: ATOM     24  C   UNL     1     146.011  72.407 219.853 -0.40 +0.00    +0.000 A  
DOCKED: ENDBRANCH  16  19
DOCKED: BRANCH  17  25
DOCKED: ATOM     25  O   UNL     1     139.568  74.199 222.536 -0.64 +0.05    -0.391 OA 
DOCKED: ATOM     26  H   UNL     1     138.755  73.649 222.707 -0.51 -0.09    +0.211 HD 
DOCKED: ENDBRANCH  17  25
DOCKED: ENDBRANCH   1  14
DOCKED: TORSDOF 6
DOCKED: TER
DOCKED: ENDMDL
________________________________________________________________________________


    FINAL DOCKED STATE:
    ________________________


Run:   10 / 20
Time taken for this run:   0.025s

DOCKED: MODEL        10
DOCKED: USER    Run = 10
DOCKED: USER
DOCKED: USER    Estimated Free Energy of Binding    =  -6.26 kcal/mol  [=(1)+(2)+(3)-(4)]
DOCKED: USER
DOCKED: USER    (1) Final Intermolecular Energy     =  -8.05 kcal/mol
DOCKED: USER        vdW + Hbond + desolv Energy     =  -7.92 kcal/mol
DOCKED: USER        Electrostatic Energy            =  -0.13 kcal/mol
DOCKED: USER        Moving Ligand-Fixed Receptor    =  -8.05 kcal/mol
DOCKED: USER        Moving Ligand-Moving Receptor   =  +0.00 kcal/mol
DOCKED: USER    (2) Final Total Internal Energy     =  -1.77 kcal/mol
DOCKED: USER    (3) Torsional Free Energy           =  +1.79 kcal/mol
DOCKED: USER    (4) Unbound System's Energy         =  -1.77 kcal/mol
DOCKED: USER
DOCKED: USER
DOCKED: REMARK SMILES O=C(NCC(=O)N1C[C@H](O)C[C@H]1c1ccccc1)c1ccncc1
DOCKED: REMARK SMILES IDX 5 1 6 2 4 3 3 4 2 5 1 6 19 8 20 9 24 10 21 11 23 12 22 13
DOCKED: REMARK SMILES IDX 7 14 8 15 12 16 9 17 11 18 13 19 14 20 18 21 15 22 17 23
DOCKED: REMARK SMILES IDX 16 24 10 25
DOCKED: REMARK H PARENT 3 7 10 26
DOCKED: USER                              x       y       z     vdW  Elec       q    Type
DOCKED: USER                           _______ _______ _______ _____ _____    ______ ____
DOCKED: ROOT
DOCKED: ATOM      1  C   UNL     1     140.268  76.510 221.549 -0.23 -0.07    +0.242 C  
DOCKED: ATOM      2  O   UNL     1     140.374  75.518 222.311 -0.54 +0.03    -0.273 OA 
DOCKED: ENDROOT
DOCKED: BRANCH   1   3
DOCKED: ATOM      3  C   UNL     1     141.334  76.621 220.489 -0.19 -0.10    +0.216 C  
DOCKED: BRANCH   3   4
DOCKED: ATOM      4  N   UNL     1     142.363  75.625 220.698 -0.02 +0.19    -0.343 N  
DOCKED: ATOM      5  C   UNL     1     143.267  75.321 219.667 -0.25 -0.12    +0.251 C  
DOCKED: ATOM      6  O   UNL     1     143.122  75.963 218.572 -0.20 +0.14    -0.269 OA 
DOCKED: ATOM      7  H   UNL     1     142.417  75.144 221.622 -0.36 -0.08    +0.164 HD 
DOCKED: BRANCH   5   8
DOCKED: ATOM      8  C   UNL     1     144.327  74.332 219.805 -0.38 -0.02    +0.042 A  
DOCKED: ATOM      9  C   UNL     1     145.280  74.374 220.801 -0.47 -0.01    +0.034 A  
DOCKED: ATOM     10  C   UNL     1     144.399  73.291 218.903 -0.24 -0.00    +0.034 A  
DOCKED: ATOM     11  C   UNL     1     146.266  73.386 220.866 -0.60 +0.00    +0.112 A  
DOCKED: ATOM     12  C   UNL     1     145.387  72.316 218.981 -0.24 +0.05    +0.112 A  
DOCKED: ATOM     13  N   UNL     1     146.306  72.378 219.962 -0.49 -0.17    -0.265 NA 
DOCKED: ENDBRANCH   5   8
DOCKED: ENDBRANCH   3   4
DOCKED: ENDBRANCH   1   3
DOCKED: BRANCH   1  14
DOCKED: ATOM     14  N   UNL     1     139.261  77.489 221.611 -0.08 +0.08    -0.331 N  
DOCKED: ATOM     15  C   UNL     1     137.848  77.283 221.206 -0.10 -0.03    +0.152 C  
DOCKED: ATOM     16  C   UNL     1     139.264  78.865 222.053 -0.21 -0.03    +0.118 C  
DOCKED: ATOM     17  C   UNL     1     137.158  77.881 222.415 -0.16 -0.02    +0.136 C  
DOCKED: ATOM     18  C   UNL     1     138.181  78.799 223.102 -0.22 -0.01    +0.063 C  
DOCKED: BRANCH  16  19
DOCKED: ATOM     19  C   UNL     1     140.529  79.418 222.482 -0.36 +0.01    -0.025 A  
DOCKED: ATOM     20  C   UNL     1     141.355  80.119 221.618 -0.38 -0.00    +0.006 A  
DOCKED: ATOM     21  C   UNL     1     140.976  79.249 223.767 -0.54 -0.00    +0.006 A  
DOCKED: ATOM     22  C   UNL     1     142.570  80.638 221.985 -0.47 -0.00    +0.000 A  
DOCKED: ATOM     23  C   UNL     1     142.214  79.772 224.165 -0.51 -0.00    +0.000 A  
DOCKED: ATOM     24  C   UNL     1     143.023  80.468 223.292 -0.67 -0.00    +0.000 A  
DOCKED: ENDBRANCH  16  19
DOCKED: BRANCH  17  25
DOCKED: ATOM     25  O   UNL     1     136.164  78.727 221.933 -0.03 +0.06    -0.391 OA 
DOCKED: ATOM     26  H   UNL     1     136.529  79.162 221.115 +0.03 -0.03    +0.211 HD 
DOCKED: ENDBRANCH  17  25
DOCKED: ENDBRANCH   1  14
DOCKED: TORSDOF 6
DOCKED: TER
DOCKED: ENDMDL
________________________________________________________________________________


    FINAL DOCKED STATE:
    ________________________


Run:   11 / 20
Time taken for this run:   0.025s

DOCKED: MODEL        11
DOCKED: USER    Run = 11
DOCKED: USER
DOCKED: USER    Estimated Free Energy of Binding    =  -7.03 kcal/mol  [=(1)+(2)+(3)-(4)]
DOCKED: USER
DOCKED: USER    (1) Final Intermolecular Energy     =  -8.82 kcal/mol
DOCKED: USER        vdW + Hbond + desolv Energy     =  -8.73 kcal/mol
DOCKED: USER        Electrostatic Energy            =  -0.09 kcal/mol
DOCKED: USER        Moving Ligand-Fixed Receptor    =  -8.82 kcal/mol
DOCKED: USER        Moving Ligand-Moving Receptor   =  +0.00 kcal/mol
DOCKED: USER    (2) Final Total Internal Energy     =  -1.46 kcal/mol
DOCKED: USER    (3) Torsional Free Energy           =  +1.79 kcal/mol
DOCKED: USER    (4) Unbound System's Energy         =  -1.46 kcal/mol
DOCKED: USER
DOCKED: USER
DOCKED: REMARK SMILES O=C(NCC(=O)N1C[C@H](O)C[C@H]1c1ccccc1)c1ccncc1
DOCKED: REMARK SMILES IDX 5 1 6 2 4 3 3 4 2 5 1 6 19 8 20 9 24 10 21 11 23 12 22 13
DOCKED: REMARK SMILES IDX 7 14 8 15 12 16 9 17 11 18 13 19 14 20 18 21 15 22 17 23
DOCKED: REMARK SMILES IDX 16 24 10 25
DOCKED: REMARK H PARENT 3 7 10 26
DOCKED: USER                              x       y       z     vdW  Elec       q    Type
DOCKED: USER                           _______ _______ _______ _____ _____    ______ ____
DOCKED: ROOT
DOCKED: ATOM      1  C   UNL     1     141.634  78.392 219.779 -0.17 -0.14    +0.242 C  
DOCKED: ATOM      2  O   UNL     1     141.851  79.628 219.782 -0.20 +0.15    -0.273 OA 
DOCKED: ENDROOT
DOCKED: BRANCH   1   3
DOCKED: ATOM      3  C   UNL     1     142.279  77.632 218.647 -0.21 -0.14    +0.216 C  
DOCKED: BRANCH   3   4
DOCKED: ATOM      4  N   UNL     1     143.309  76.749 219.152 -0.21 +0.24    -0.343 N  
DOCKED: ATOM      5  C   UNL     1     143.253  75.373 218.875 -0.19 -0.12    +0.251 C  
DOCKED: ATOM      6  O   UNL     1     142.265  74.972 218.172 -0.05 +0.09    -0.269 OA 
DOCKED: ATOM      7  H   UNL     1     144.085  77.154 219.719 -0.53 -0.16    +0.164 HD 
DOCKED: BRANCH   5   8
DOCKED: ATOM      8  C   UNL     1     144.252  74.426 219.348 -0.27 -0.02    +0.042 A  
DOCKED: ATOM      9  C   UNL     1     145.020  74.631 220.476 -0.40 -0.01    +0.034 A  
DOCKED: ATOM     10  C   UNL     1     144.458  73.256 218.647 -0.22 -0.00    +0.034 A  
DOCKED: ATOM     11  C   UNL     1     145.959  73.673 220.865 -0.61 -0.01    +0.112 A  
DOCKED: ATOM     12  C   UNL     1     145.396  72.312 219.048 -0.25 +0.05    +0.112 A  
DOCKED: ATOM     13  N   UNL     1     146.133  72.534 220.152 -0.43 -0.10    -0.265 NA 
DOCKED: ENDBRANCH   5   8
DOCKED: ENDBRANCH   3   4
DOCKED: ENDBRANCH   1   3
DOCKED: BRANCH   1  14
DOCKED: ATOM     14  N   UNL     1     140.862  77.690 220.720 -0.09 +0.14    -0.331 N  
DOCKED: ATOM     15  C   UNL     1     140.093  76.452 220.438 -0.13 -0.05    +0.152 C  
DOCKED: ATOM     16  C   UNL     1     140.601  77.907 222.125 -0.34 -0.04    +0.118 C  
DOCKED: ATOM     17  C   UNL     1     140.542  75.612 221.616 -0.30 -0.03    +0.136 C  
DOCKED: ATOM     18  C   UNL     1     141.069  76.585 222.681 -0.10 -0.02    +0.063 C  
DOCKED: BRANCH  16  19
DOCKED: ATOM     19  C   UNL     1     141.176  79.088 222.728 -0.47 +0.01    -0.025 A  
DOCKED: ATOM     20  C   UNL     1     142.545  79.254 222.863 -0.56 -0.00    +0.006 A  
DOCKED: ATOM     21  C   UNL     1     140.379  80.092 223.218 -0.44 -0.00    +0.006 A  
DOCKED: ATOM     22  C   UNL     1     143.123  80.350 223.448 -0.65 -0.00    +0.000 A  
DOCKED: ATOM     23  C   UNL     1     140.948  81.223 223.819 -0.39 -0.00    +0.000 A  
DOCKED: ATOM     24  C   UNL     1     142.313  81.371 223.944 -0.61 -0.00    +0.000 A  
DOCKED: ENDBRANCH  16  19
DOCKED: BRANCH  17  25
DOCKED: ATOM     25  O   UNL     1     139.395  75.046 222.165 -0.49 +0.07    -0.391 OA 
DOCKED: ATOM     26  H   UNL     1     139.593  74.867 223.124 -0.43 -0.00    +0.211 HD 
DOCKED: ENDBRANCH  17  25
DOCKED: ENDBRANCH   1  14
DOCKED: TORSDOF 6
DOCKED: TER
DOCKED: ENDMDL
________________________________________________________________________________


    FINAL DOCKED STATE:
    ________________________


Run:   12 / 20
Time taken for this run:   0.025s

DOCKED: MODEL        12
DOCKED: USER    Run = 12
DOCKED: USER
DOCKED: USER    Estimated Free Energy of Binding    =  -6.58 kcal/mol  [=(1)+(2)+(3)-(4)]
DOCKED: USER
DOCKED: USER    (1) Final Intermolecular Energy     =  -8.37 kcal/mol
DOCKED: USER        vdW + Hbond + desolv Energy     =  -8.19 kcal/mol
DOCKED: USER        Electrostatic Energy            =  -0.18 kcal/mol
DOCKED: USER        Moving Ligand-Fixed Receptor    =  -8.37 kcal/mol
DOCKED: USER        Moving Ligand-Moving Receptor   =  +0.00 kcal/mol
DOCKED: USER    (2) Final Total Internal Energy     =  -1.58 kcal/mol
DOCKED: USER    (3) Torsional Free Energy           =  +1.79 kcal/mol
DOCKED: USER    (4) Unbound System's Energy         =  -1.58 kcal/mol
DOCKED: USER
DOCKED: USER
DOCKED: REMARK SMILES O=C(NCC(=O)N1C[C@H](O)C[C@H]1c1ccccc1)c1ccncc1
DOCKED: REMARK SMILES IDX 5 1 6 2 4 3 3 4 2 5 1 6 19 8 20 9 24 10 21 11 23 12 22 13
DOCKED: REMARK SMILES IDX 7 14 8 15 12 16 9 17 11 18 13 19 14 20 18 21 15 22 17 23
DOCKED: REMARK SMILES IDX 16 24 10 25
DOCKED: REMARK H PARENT 3 7 10 26
DOCKED: USER                              x       y       z     vdW  Elec       q    Type
DOCKED: USER                           _______ _______ _______ _____ _____    ______ ____
DOCKED: ROOT
DOCKED: ATOM      1  C   UNL     1     141.951  75.353 218.658 -0.08 -0.09    +0.242 C  
DOCKED: ATOM      2  O   UNL     1     141.749  74.682 217.617 -0.02 +0.08    -0.273 OA 
DOCKED: ENDROOT
DOCKED: BRANCH   1   3
DOCKED: ATOM      3  C   UNL     1     142.634  76.680 218.443 -0.21 -0.12    +0.216 C  
DOCKED: BRANCH   3   4
DOCKED: ATOM      4  N   UNL     1     142.779  77.385 219.698 -0.08 +0.27    -0.343 N  
DOCKED: ATOM      5  C   UNL     1     141.720  78.162 220.195 -0.18 -0.15    +0.251 C  
DOCKED: ATOM      6  O   UNL     1     140.657  78.199 219.486 -0.07 +0.11    -0.269 OA 
DOCKED: ATOM      7  H   UNL     1     143.679  77.305 220.219 -0.51 -0.19    +0.164 HD 
DOCKED: BRANCH   5   8
DOCKED: ATOM      8  C   UNL     1     141.793  78.898 221.449 -0.38 -0.02    +0.042 A  
DOCKED: ATOM      9  C   UNL     1     142.185  80.218 221.533 -0.42 -0.01    +0.034 A  
DOCKED: ATOM     10  C   UNL     1     141.458  78.261 222.626 -0.46 -0.01    +0.034 A  
DOCKED: ATOM     11  C   UNL     1     142.229  80.856 222.775 -0.50 -0.03    +0.112 A  
DOCKED: ATOM     12  C   UNL     1     141.507  78.910 223.854 -0.51 -0.03    +0.112 A  
DOCKED: ATOM     13  N   UNL     1     141.892  80.198 223.911 -0.33 +0.05    -0.265 NA 
DOCKED: ENDBRANCH   5   8
DOCKED: ENDBRANCH   3   4
DOCKED: ENDBRANCH   1   3
DOCKED: BRANCH   1  14
DOCKED: ATOM     14  N   UNL     1     141.599  74.971 219.964 -0.08 +0.11    -0.331 N  
DOCKED: ATOM     15  C   UNL     1     140.359  75.385 220.667 -0.18 -0.04    +0.152 C  
DOCKED: ATOM     16  C   UNL     1     142.248  74.128 220.943 -0.15 -0.03    +0.118 C  
DOCKED: ATOM     17  C   UNL     1     139.910  74.036 221.187 -0.20 -0.02    +0.136 C  
DOCKED: ATOM     18  C   UNL     1     141.148  73.125 221.187 -0.25 -0.01    +0.063 C  
DOCKED: BRANCH  16  19
DOCKED: ATOM     19  C   UNL     1     143.539  73.581 220.591 -0.33 +0.01    -0.025 A  
DOCKED: ATOM     20  C   UNL     1     143.677  72.317 220.041 -0.28 -0.00    +0.006 A  
DOCKED: ATOM     21  C   UNL     1     144.692  74.290 220.812 -0.42 -0.00    +0.006 A  
DOCKED: ATOM     22  C   UNL     1     144.886  71.759 219.716 -0.33 +0.00    +0.000 A  
DOCKED: ATOM     23  C   UNL     1     145.938  73.741 220.486 -0.66 -0.00    +0.000 A  
DOCKED: ATOM     24  C   UNL     1     146.057  72.481 219.939 -0.41 +0.00    +0.000 A  
DOCKED: ENDBRANCH  16  19
DOCKED: BRANCH  17  25
DOCKED: ATOM     25  O   UNL     1     139.579  74.212 222.527 -0.64 +0.05    -0.391 OA 
DOCKED: ATOM     26  H   UNL     1     138.828  73.588 222.723 -0.51 -0.09    +0.211 HD 
DOCKED: ENDBRANCH  17  25
DOCKED: ENDBRANCH   1  14
DOCKED: TORSDOF 6
DOCKED: TER
DOCKED: ENDMDL
________________________________________________________________________________


    FINAL DOCKED STATE:
    ________________________


Run:   13 / 20
Time taken for this run:   0.025s

DOCKED: MODEL        13
DOCKED: USER    Run = 13
DOCKED: USER
DOCKED: USER    Estimated Free Energy of Binding    =  -6.31 kcal/mol  [=(1)+(2)+(3)-(4)]
DOCKED: USER
DOCKED: USER    (1) Final Intermolecular Energy     =  -8.10 kcal/mol
DOCKED: USER        vdW + Hbond + desolv Energy     =  -7.96 kcal/mol
DOCKED: USER        Electrostatic Energy            =  -0.14 kcal/mol
DOCKED: USER        Moving Ligand-Fixed Receptor    =  -8.10 kcal/mol
DOCKED: USER        Moving Ligand-Moving Receptor   =  +0.00 kcal/mol
DOCKED: USER    (2) Final Total Internal Energy     =  -1.80 kcal/mol
DOCKED: USER    (3) Torsional Free Energy           =  +1.79 kcal/mol
DOCKED: USER    (4) Unbound System's Energy         =  -1.80 kcal/mol
DOCKED: USER
DOCKED: USER
DOCKED: REMARK SMILES O=C(NCC(=O)N1C[C@H](O)C[C@H]1c1ccccc1)c1ccncc1
DOCKED: REMARK SMILES IDX 5 1 6 2 4 3 3 4 2 5 1 6 19 8 20 9 24 10 21 11 23 12 22 13
DOCKED: REMARK SMILES IDX 7 14 8 15 12 16 9 17 11 18 13 19 14 20 18 21 15 22 17 23
DOCKED: REMARK SMILES IDX 16 24 10 25
DOCKED: REMARK H PARENT 3 7 10 26
DOCKED: USER                              x       y       z     vdW  Elec       q    Type
DOCKED: USER                           _______ _______ _______ _____ _____    ______ ____
DOCKED: ROOT
DOCKED: ATOM      1  C   UNL     1     140.274  78.339 219.669 -0.07 -0.09    +0.242 C  
DOCKED: ATOM      2  O   UNL     1     139.578  79.332 219.344 -0.03 +0.08    -0.273 OA 
DOCKED: ENDROOT
DOCKED: BRANCH   1   3
DOCKED: ATOM      3  C   UNL     1     141.481  78.091 218.800 -0.14 -0.11    +0.216 C  
DOCKED: BRANCH   3   4
DOCKED: ATOM      4  N   UNL     1     142.377  77.148 219.434 -0.15 +0.22    -0.343 N  
DOCKED: ATOM      5  C   UNL     1     142.308  75.784 219.106 -0.16 -0.11    +0.251 C  
DOCKED: ATOM      6  O   UNL     1     141.432  75.448 218.240 -0.03 +0.09    -0.269 OA 
DOCKED: ATOM      7  H   UNL     1     143.067  77.500 220.132 -0.39 -0.16    +0.164 HD 
DOCKED: BRANCH   5   8
DOCKED: ATOM      8  C   UNL     1     143.176  74.778 219.702 -0.31 -0.02    +0.042 A  
DOCKED: ATOM      9  C   UNL     1     142.802  73.463 219.885 -0.22 -0.01    +0.034 A  
DOCKED: ATOM     10  C   UNL     1     144.444  75.138 220.111 -0.32 -0.02    +0.034 A  
DOCKED: ATOM     11  C   UNL     1     143.693  72.557 220.465 -0.28 -0.02    +0.112 A  
DOCKED: ATOM     12  C   UNL     1     145.319  74.224 220.686 -0.46 -0.03    +0.112 A  
DOCKED: ATOM     13  N   UNL     1     144.930  72.946 220.855 -0.29 +0.04    -0.265 NA 
DOCKED: ENDBRANCH   5   8
DOCKED: ENDBRANCH   3   4
DOCKED: ENDBRANCH   1   3
DOCKED: BRANCH   1  14
DOCKED: ATOM     14  N   UNL     1     140.019  77.473 220.746 -0.05 +0.10    -0.331 N  
DOCKED: ATOM     15  C   UNL     1     139.328  76.164 220.640 -0.11 -0.04    +0.152 C  
DOCKED: ATOM     16  C   UNL     1     140.323  77.554 222.157 -0.33 -0.03    +0.118 C  
DOCKED: ATOM     17  C   UNL     1     140.293  75.314 221.442 -0.27 -0.03    +0.136 C  
DOCKED: ATOM     18  C   UNL     1     141.104  76.275 222.325 -0.16 -0.02    +0.063 C  
DOCKED: BRANCH  16  19
DOCKED: ATOM     19  C   UNL     1     140.971  78.759 222.624 -0.44 +0.01    -0.025 A  
DOCKED: ATOM     20  C   UNL     1     142.321  78.995 222.420 -0.46 -0.00    +0.006 A  
DOCKED: ATOM     21  C   UNL     1     140.272  79.716 223.315 -0.45 -0.00    +0.006 A  
DOCKED: ATOM     22  C   UNL     1     142.972  80.115 222.867 -0.65 -0.00    +0.000 A  
DOCKED: ATOM     23  C   UNL     1     140.916  80.870 223.781 -0.46 -0.00    +0.000 A  
DOCKED: ATOM     24  C   UNL     1     142.261  81.088 223.568 -0.63 -0.00    +0.000 A  
DOCKED: ENDBRANCH  16  19
DOCKED: BRANCH  17  25
DOCKED: ATOM     25  O   UNL     1     139.525  74.558 222.323 -0.69 +0.06    -0.391 OA 
DOCKED: ATOM     26  H   UNL     1     139.198  75.182 223.027 -0.40 -0.05    +0.211 HD 
DOCKED: ENDBRANCH  17  25
DOCKED: ENDBRANCH   1  14
DOCKED: TORSDOF 6
DOCKED: TER
DOCKED: ENDMDL
________________________________________________________________________________


    FINAL DOCKED STATE:
    ________________________


Run:   14 / 20
Time taken for this run:   0.025s

DOCKED: MODEL        14
DOCKED: USER    Run = 14
DOCKED: USER
DOCKED: USER    Estimated Free Energy of Binding    =  -6.53 kcal/mol  [=(1)+(2)+(3)-(4)]
DOCKED: USER
DOCKED: USER    (1) Final Intermolecular Energy     =  -8.32 kcal/mol
DOCKED: USER        vdW + Hbond + desolv Energy     =  -8.15 kcal/mol
DOCKED: USER        Electrostatic Energy            =  -0.17 kcal/mol
DOCKED: USER        Moving Ligand-Fixed Receptor    =  -8.32 kcal/mol
DOCKED: USER        Moving Ligand-Moving Receptor   =  +0.00 kcal/mol
DOCKED: USER    (2) Final Total Internal Energy     =  -1.62 kcal/mol
DOCKED: USER    (3) Torsional Free Energy           =  +1.79 kcal/mol
DOCKED: USER    (4) Unbound System's Energy         =  -1.62 kcal/mol
DOCKED: USER
DOCKED: USER
DOCKED: REMARK SMILES O=C(NCC(=O)N1C[C@H](O)C[C@H]1c1ccccc1)c1ccncc1
DOCKED: REMARK SMILES IDX 5 1 6 2 4 3 3 4 2 5 1 6 19 8 20 9 24 10 21 11 23 12 22 13
DOCKED: REMARK SMILES IDX 7 14 8 15 12 16 9 17 11 18 13 19 14 20 18 21 15 22 17 23
DOCKED: REMARK SMILES IDX 16 24 10 25
DOCKED: REMARK H PARENT 3 7 10 26
DOCKED: USER                              x       y       z     vdW  Elec       q    Type
DOCKED: USER                           _______ _______ _______ _____ _____    ______ ____
DOCKED: ROOT
DOCKED: ATOM      1  C   UNL     1     141.911  75.304 218.693 -0.08 -0.09    +0.242 C  
DOCKED: ATOM      2  O   UNL     1     141.561  74.741 217.628 -0.02 +0.08    -0.273 OA 
DOCKED: ENDROOT
DOCKED: BRANCH   1   3
DOCKED: ATOM      3  C   UNL     1     142.769  76.532 218.517 -0.22 -0.12    +0.216 C  
DOCKED: BRANCH   3   4
DOCKED: ATOM      4  N   UNL     1     142.865  77.266 219.760 -0.09 +0.27    -0.343 N  
DOCKED: ATOM      5  C   UNL     1     141.813  78.104 220.166 -0.19 -0.15    +0.251 C  
DOCKED: ATOM      6  O   UNL     1     140.802  78.167 219.388 -0.07 +0.11    -0.269 OA 
DOCKED: ATOM      7  H   UNL     1     143.725  77.161 220.342 -0.52 -0.19    +0.164 HD 
DOCKED: BRANCH   5   8
DOCKED: ATOM      8  C   UNL     1     141.839  78.871 221.402 -0.37 -0.02    +0.042 A  
DOCKED: ATOM      9  C   UNL     1     142.203  80.201 221.464 -0.41 -0.01    +0.034 A  
DOCKED: ATOM     10  C   UNL     1     141.485  78.257 222.585 -0.44 -0.02    +0.034 A  
DOCKED: ATOM     11  C   UNL     1     142.202  80.869 222.690 -0.50 -0.03    +0.112 A  
DOCKED: ATOM     12  C   UNL     1     141.490  78.936 223.798 -0.52 -0.03    +0.112 A  
DOCKED: ATOM     13  N   UNL     1     141.849  80.233 223.832 -0.34 +0.05    -0.265 NA 
DOCKED: ENDBRANCH   5   8
DOCKED: ENDBRANCH   3   4
DOCKED: ENDBRANCH   1   3
DOCKED: BRANCH   1  14
DOCKED: ATOM     14  N   UNL     1     141.572  74.890 219.992 -0.07 +0.10    -0.331 N  
DOCKED: ATOM     15  C   UNL     1     140.340  75.287 220.718 -0.18 -0.04    +0.152 C  
DOCKED: ATOM     16  C   UNL     1     142.230  74.023 220.943 -0.15 -0.03    +0.118 C  
DOCKED: ATOM     17  C   UNL     1     139.895  73.924 221.209 -0.20 -0.02    +0.136 C  
DOCKED: ATOM     18  C   UNL     1     141.133  73.014 221.174 -0.24 -0.01    +0.063 C  
DOCKED: BRANCH  16  19
DOCKED: ATOM     19  C   UNL     1     143.518  73.485 220.565 -0.33 +0.01    -0.025 A  
DOCKED: ATOM     20  C   UNL     1     144.698  74.176 220.786 -0.47 -0.00    +0.006 A  
DOCKED: ATOM     21  C   UNL     1     143.621  72.266 219.944 -0.27 -0.00    +0.006 A  
DOCKED: ATOM     22  C   UNL     1     145.932  73.706 220.421 -0.64 -0.00    +0.000 A  
DOCKED: ATOM     23  C   UNL     1     144.872  71.765 219.563 -0.32 +0.00    +0.000 A  
DOCKED: ATOM     24  C   UNL     1     146.036  72.467 219.792 -0.39 +0.00    +0.000 A  
DOCKED: ENDBRANCH  16  19
DOCKED: BRANCH  17  25
DOCKED: ATOM     25  O   UNL     1     139.578  74.067 222.556 -0.64 +0.05    -0.391 OA 
DOCKED: ATOM     26  H   UNL     1     138.776  73.501 222.725 -0.50 -0.09    +0.211 HD 
DOCKED: ENDBRANCH  17  25
DOCKED: ENDBRANCH   1  14
DOCKED: TORSDOF 6
DOCKED: TER
DOCKED: ENDMDL
________________________________________________________________________________


    FINAL DOCKED STATE:
    ________________________


Run:   15 / 20
Time taken for this run:   0.025s

DOCKED: MODEL        15
DOCKED: USER    Run = 15
DOCKED: USER
DOCKED: USER    Estimated Free Energy of Binding    =  -6.29 kcal/mol  [=(1)+(2)+(3)-(4)]
DOCKED: USER
DOCKED: USER    (1) Final Intermolecular Energy     =  -8.08 kcal/mol
DOCKED: USER        vdW + Hbond + desolv Energy     =  -7.93 kcal/mol
DOCKED: USER        Electrostatic Energy            =  -0.15 kcal/mol
DOCKED: USER        Moving Ligand-Fixed Receptor    =  -8.08 kcal/mol
DOCKED: USER        Moving Ligand-Moving Receptor   =  +0.00 kcal/mol
DOCKED: USER    (2) Final Total Internal Energy     =  -1.74 kcal/mol
DOCKED: USER    (3) Torsional Free Energy           =  +1.79 kcal/mol
DOCKED: USER    (4) Unbound System's Energy         =  -1.74 kcal/mol
DOCKED: USER
DOCKED: USER
DOCKED: REMARK SMILES O=C(NCC(=O)N1C[C@H](O)C[C@H]1c1ccccc1)c1ccncc1
DOCKED: REMARK SMILES IDX 5 1 6 2 4 3 3 4 2 5 1 6 19 8 20 9 24 10 21 11 23 12 22 13
DOCKED: REMARK SMILES IDX 7 14 8 15 12 16 9 17 11 18 13 19 14 20 18 21 15 22 17 23
DOCKED: REMARK SMILES IDX 16 24 10 25
DOCKED: REMARK H PARENT 3 7 10 26
DOCKED: USER                              x       y       z     vdW  Elec       q    Type
DOCKED: USER                           _______ _______ _______ _____ _____    ______ ____
DOCKED: ROOT
DOCKED: ATOM      1  C   UNL     1     140.288  76.397 221.482 -0.23 -0.07    +0.242 C  
DOCKED: ATOM      2  O   UNL     1     140.329  75.319 222.123 -0.60 +0.03    -0.273 OA 
DOCKED: ENDROOT
DOCKED: BRANCH   1   3
DOCKED: ATOM      3  C   UNL     1     141.443  76.627 220.540 -0.20 -0.10    +0.216 C  
DOCKED: BRANCH   3   4
DOCKED: ATOM      4  N   UNL     1     142.440  75.590 220.698 +0.01 +0.19    -0.343 N  
DOCKED: ATOM      5  C   UNL     1     143.363  75.339 219.669 -0.26 -0.13    +0.251 C  
DOCKED: ATOM      6  O   UNL     1     143.262  76.065 218.623 -0.22 +0.15    -0.269 OA 
DOCKED: ATOM      7  H   UNL     1     142.458  75.040 221.584 -0.31 -0.07    +0.164 HD 
DOCKED: BRANCH   5   8
DOCKED: ATOM      8  C   UNL     1     144.393  74.314 219.757 -0.37 -0.01    +0.042 A  
DOCKED: ATOM      9  C   UNL     1     145.295  74.231 220.797 -0.53 -0.01    +0.034 A  
DOCKED: ATOM     10  C   UNL     1     144.489  73.366 218.759 -0.23 -0.00    +0.034 A  
DOCKED: ATOM     11  C   UNL     1     146.255  73.217 220.810 -0.56 +0.01    +0.112 A  
DOCKED: ATOM     12  C   UNL     1     145.450  72.363 218.787 -0.21 +0.06    +0.112 A  
DOCKED: ATOM     13  N   UNL     1     146.319  72.303 219.812 -0.51 -0.21    -0.265 NA 
DOCKED: ENDBRANCH   5   8
DOCKED: ENDBRANCH   3   4
DOCKED: ENDBRANCH   1   3
DOCKED: BRANCH   1  14
DOCKED: ATOM     14  N   UNL     1     139.278  77.369 221.574 -0.08 +0.08    -0.331 N  
DOCKED: ATOM     15  C   UNL     1     137.857  77.159 221.201 -0.10 -0.03    +0.152 C  
DOCKED: ATOM     16  C   UNL     1     139.283  78.742 222.026 -0.21 -0.03    +0.118 C  
DOCKED: ATOM     17  C   UNL     1     137.192  77.744 222.430 -0.17 -0.02    +0.136 C  
DOCKED: ATOM     18  C   UNL     1     138.226  78.663 223.099 -0.21 -0.01    +0.063 C  
DOCKED: BRANCH  16  19
DOCKED: ATOM     19  C   UNL     1     140.555  79.300 222.428 -0.36 +0.01    -0.025 A  
DOCKED: ATOM     20  C   UNL     1     141.026  79.194 223.727 -0.55 -0.00    +0.006 A  
DOCKED: ATOM     21  C   UNL     1     141.343  79.982 221.536 -0.37 -0.00    +0.006 A  
DOCKED: ATOM     22  C   UNL     1     142.216  79.729 224.148 -0.51 -0.00    +0.000 A  
DOCKED: ATOM     23  C   UNL     1     142.563  80.535 221.944 -0.48 -0.00    +0.000 A  
DOCKED: ATOM     24  C   UNL     1     143.017  80.420 223.241 -0.66 -0.00    +0.000 A  
DOCKED: ENDBRANCH  16  19
DOCKED: BRANCH  17  25
DOCKED: ATOM     25  O   UNL     1     136.183  78.588 221.977 -0.03 +0.06    -0.391 OA 
DOCKED: ATOM     26  H   UNL     1     135.319  78.180 222.258 +0.04 -0.03    +0.211 HD 
DOCKED: ENDBRANCH  17  25
DOCKED: ENDBRANCH   1  14
DOCKED: TORSDOF 6
DOCKED: TER
DOCKED: ENDMDL
________________________________________________________________________________


    FINAL DOCKED STATE:
    ________________________


Run:   16 / 20
Time taken for this run:   0.025s

DOCKED: MODEL        16
DOCKED: USER    Run = 16
DOCKED: USER
DOCKED: USER    Estimated Free Energy of Binding    =  -6.48 kcal/mol  [=(1)+(2)+(3)-(4)]
DOCKED: USER
DOCKED: USER    (1) Final Intermolecular Energy     =  -8.27 kcal/mol
DOCKED: USER        vdW + Hbond + desolv Energy     =  -8.16 kcal/mol
DOCKED: USER        Electrostatic Energy            =  -0.11 kcal/mol
DOCKED: USER        Moving Ligand-Fixed Receptor    =  -8.27 kcal/mol
DOCKED: USER        Moving Ligand-Moving Receptor   =  +0.00 kcal/mol
DOCKED: USER    (2) Final Total Internal Energy     =  -1.84 kcal/mol
DOCKED: USER    (3) Torsional Free Energy           =  +1.79 kcal/mol
DOCKED: USER    (4) Unbound System's Energy         =  -1.84 kcal/mol
DOCKED: USER
DOCKED: USER
DOCKED: REMARK SMILES O=C(NCC(=O)N1C[C@H](O)C[C@H]1c1ccccc1)c1ccncc1
DOCKED: REMARK SMILES IDX 5 1 6 2 4 3 3 4 2 5 1 6 19 8 20 9 24 10 21 11 23 12 22 13
DOCKED: REMARK SMILES IDX 7 14 8 15 12 16 9 17 11 18 13 19 14 20 18 21 15 22 17 23
DOCKED: REMARK SMILES IDX 16 24 10 25
DOCKED: REMARK H PARENT 3 7 10 26
DOCKED: USER                              x       y       z     vdW  Elec       q    Type
DOCKED: USER                           _______ _______ _______ _____ _____    ______ ____
DOCKED: ROOT
DOCKED: ATOM      1  C   UNL     1     140.619  78.310 219.650 -0.09 -0.10    +0.242 C  
DOCKED: ATOM      2  O   UNL     1     139.888  79.121 219.032 -0.03 +0.09    -0.273 OA 
DOCKED: ENDROOT
DOCKED: BRANCH   1   3
DOCKED: ATOM      3  C   UNL     1     142.046  78.239 219.169 -0.19 -0.14    +0.216 C  
DOCKED: BRANCH   3   4
DOCKED: ATOM      4  N   UNL     1     142.760  77.184 219.855 -0.13 +0.26    -0.343 N  
DOCKED: ATOM      5  C   UNL     1     142.832  75.900 219.289 -0.22 -0.13    +0.251 C  
DOCKED: ATOM      6  O   UNL     1     142.244  75.737 218.167 -0.08 +0.11    -0.269 OA 
DOCKED: ATOM      7  H   UNL     1     143.216  77.396 220.769 -0.45 -0.20    +0.164 HD 
DOCKED: BRANCH   5   8
DOCKED: ATOM      8  C   UNL     1     143.532  74.791 219.921 -0.37 -0.02    +0.042 A  
DOCKED: ATOM      9  C   UNL     1     144.811  74.889 220.428 -0.33 -0.02    +0.034 A  
DOCKED: ATOM     10  C   UNL     1     142.901  73.568 220.028 -0.25 -0.01    +0.034 A  
DOCKED: ATOM     11  C   UNL     1     145.415  73.778 221.020 -0.53 -0.02    +0.112 A  
DOCKED: ATOM     12  C   UNL     1     143.516  72.472 220.621 -0.26 -0.02    +0.112 A  
DOCKED: ATOM     13  N   UNL     1     144.765  72.593 221.108 -0.21 +0.06    -0.265 NA 
DOCKED: ENDBRANCH   5   8
DOCKED: ENDBRANCH   3   4
DOCKED: ENDBRANCH   1   3
DOCKED: BRANCH   1  14
DOCKED: ATOM     14  N   UNL     1     140.218  77.492 220.720 -0.05 +0.11    -0.331 N  
DOCKED: ATOM     15  C   UNL     1     139.535  76.182 220.581 -0.11 -0.04    +0.152 C  
DOCKED: ATOM     16  C   UNL     1     140.336  77.633 222.154 -0.33 -0.03    +0.118 C  
DOCKED: ATOM     17  C   UNL     1     140.379  75.364 221.537 -0.28 -0.03    +0.136 C  
DOCKED: ATOM     18  C   UNL     1     141.077  76.359 222.476 -0.10 -0.02    +0.063 C  
DOCKED: BRANCH  16  19
DOCKED: ATOM     19  C   UNL     1     140.929  78.855 222.650 -0.44 +0.01    -0.025 A  
DOCKED: ATOM     20  C   UNL     1     140.161  79.930 223.065 -0.41 -0.00    +0.006 A  
DOCKED: ATOM     21  C   UNL     1     142.291  79.008 222.708 -0.52 -0.00    +0.006 A  
DOCKED: ATOM     22  C   UNL     1     140.689  81.110 223.521 -0.42 -0.00    +0.000 A  
DOCKED: ATOM     23  C   UNL     1     142.854  80.204 223.171 -0.67 -0.00    +0.000 A  
DOCKED: ATOM     24  C   UNL     1     142.073  81.264 223.581 -0.62 -0.00    +0.000 A  
DOCKED: ENDBRANCH  16  19
DOCKED: BRANCH  17  25
DOCKED: ATOM     25  O   UNL     1     139.496  74.650 222.341 -0.67 +0.06    -0.391 OA 
DOCKED: ATOM     26  H   UNL     1     139.271  75.238 223.113 -0.41 -0.04    +0.211 HD 
DOCKED: ENDBRANCH  17  25
DOCKED: ENDBRANCH   1  14
DOCKED: TORSDOF 6
DOCKED: TER
DOCKED: ENDMDL
________________________________________________________________________________


    FINAL DOCKED STATE:
    ________________________


Run:   17 / 20
Time taken for this run:   0.025s

DOCKED: MODEL        17
DOCKED: USER    Run = 17
DOCKED: USER
DOCKED: USER    Estimated Free Energy of Binding    =  -6.49 kcal/mol  [=(1)+(2)+(3)-(4)]
DOCKED: USER
DOCKED: USER    (1) Final Intermolecular Energy     =  -8.28 kcal/mol
DOCKED: USER        vdW + Hbond + desolv Energy     =  -8.17 kcal/mol
DOCKED: USER        Electrostatic Energy            =  -0.10 kcal/mol
DOCKED: USER        Moving Ligand-Fixed Receptor    =  -8.28 kcal/mol
DOCKED: USER        Moving Ligand-Moving Receptor   =  +0.00 kcal/mol
DOCKED: USER    (2) Final Total Internal Energy     =  -1.78 kcal/mol
DOCKED: USER    (3) Torsional Free Energy           =  +1.79 kcal/mol
DOCKED: USER    (4) Unbound System's Energy         =  -1.78 kcal/mol
DOCKED: USER
DOCKED: USER
DOCKED: REMARK SMILES O=C(NCC(=O)N1C[C@H](O)C[C@H]1c1ccccc1)c1ccncc1
DOCKED: REMARK SMILES IDX 5 1 6 2 4 3 3 4 2 5 1 6 19 8 20 9 24 10 21 11 23 12 22 13
DOCKED: REMARK SMILES IDX 7 14 8 15 12 16 9 17 11 18 13 19 14 20 18 21 15 22 17 23
DOCKED: REMARK SMILES IDX 16 24 10 25
DOCKED: REMARK H PARENT 3 7 10 26
DOCKED: USER                              x       y       z     vdW  Elec       q    Type
DOCKED: USER                           _______ _______ _______ _____ _____    ______ ____
DOCKED: ROOT
DOCKED: ATOM      1  C   UNL     1     140.724  78.468 219.740 -0.10 -0.10    +0.242 C  
DOCKED: ATOM      2  O   UNL     1     140.150  79.510 219.341 -0.04 +0.10    -0.273 OA 
DOCKED: ENDROOT
DOCKED: BRANCH   1   3
DOCKED: ATOM      3  C   UNL     1     141.995  78.117 219.007 -0.20 -0.14    +0.216 C  
DOCKED: BRANCH   3   4
DOCKED: ATOM      4  N   UNL     1     142.735  77.107 219.732 -0.17 +0.25    -0.343 N  
DOCKED: ATOM      5  C   UNL     1     142.785  75.789 219.248 -0.21 -0.13    +0.251 C  
DOCKED: ATOM      6  O   UNL     1     142.155  75.556 218.161 -0.07 +0.11    -0.269 OA 
DOCKED: ATOM      7  H   UNL     1     143.226  77.376 220.612 -0.44 -0.19    +0.164 HD 
DOCKED: BRANCH   5   8
DOCKED: ATOM      8  C   UNL     1     143.509  74.721 219.922 -0.36 -0.02    +0.042 A  
DOCKED: ATOM      9  C   UNL     1     144.777  74.874 220.444 -0.35 -0.02    +0.034 A  
DOCKED: ATOM     10  C   UNL     1     142.915  73.484 220.057 -0.25 -0.01    +0.034 A  
DOCKED: ATOM     11  C   UNL     1     145.406  73.800 221.077 -0.51 -0.03    +0.112 A  
DOCKED: ATOM     12  C   UNL     1     143.554  72.425 220.691 -0.26 -0.02    +0.112 A  
DOCKED: ATOM     13  N   UNL     1     144.791  72.598 221.192 -0.21 +0.06    -0.265 NA 
DOCKED: ENDBRANCH   5   8
DOCKED: ENDBRANCH   3   4
DOCKED: ENDBRANCH   1   3
DOCKED: BRANCH   1  14
DOCKED: ATOM     14  N   UNL     1     140.285  77.634 220.782 -0.06 +0.11    -0.331 N  
DOCKED: ATOM     15  C   UNL     1     139.582  76.340 220.599 -0.12 -0.04    +0.152 C  
DOCKED: ATOM     16  C   UNL     1     140.375  77.741 222.221 -0.33 -0.04    +0.118 C  
DOCKED: ATOM     17  C   UNL     1     140.390  75.486 221.554 -0.29 -0.03    +0.136 C  
DOCKED: ATOM     18  C   UNL     1     141.085  76.447 222.530 -0.09 -0.02    +0.063 C  
DOCKED: BRANCH  16  19
DOCKED: ATOM     19  C   UNL     1     140.978  78.940 222.757 -0.45 +0.01    -0.025 A  
DOCKED: ATOM     20  C   UNL     1     142.351  79.129 222.773 -0.54 -0.00    +0.006 A  
DOCKED: ATOM     21  C   UNL     1     140.209  79.938 223.299 -0.44 -0.00    +0.006 A  
DOCKED: ATOM     22  C   UNL     1     142.957  80.243 223.292 -0.67 -0.00    +0.000 A  
DOCKED: ATOM     23  C   UNL     1     140.807  81.086 223.835 -0.38 -0.00    +0.000 A  
DOCKED: ATOM     24  C   UNL     1     142.175  81.258 223.841 -0.64 -0.00    +0.000 A  
DOCKED: ENDBRANCH  16  19
DOCKED: BRANCH  17  25
DOCKED: ATOM     25  O   UNL     1     139.477  74.771 222.323 -0.64 +0.06    -0.391 OA 
DOCKED: ATOM     26  H   UNL     1     139.295  75.316 223.135 -0.37 -0.04    +0.211 HD 
DOCKED: ENDBRANCH  17  25
DOCKED: ENDBRANCH   1  14
DOCKED: TORSDOF 6
DOCKED: TER
DOCKED: ENDMDL
________________________________________________________________________________


    FINAL DOCKED STATE:
    ________________________


Run:   18 / 20
Time taken for this run:   0.025s

DOCKED: MODEL        18
DOCKED: USER    Run = 18
DOCKED: USER
DOCKED: USER    Estimated Free Energy of Binding    =  -6.27 kcal/mol  [=(1)+(2)+(3)-(4)]
DOCKED: USER
DOCKED: USER    (1) Final Intermolecular Energy     =  -8.06 kcal/mol
DOCKED: USER        vdW + Hbond + desolv Energy     =  -7.92 kcal/mol
DOCKED: USER        Electrostatic Energy            =  -0.14 kcal/mol
DOCKED: USER        Moving Ligand-Fixed Receptor    =  -8.06 kcal/mol
DOCKED: USER        Moving Ligand-Moving Receptor   =  +0.00 kcal/mol
DOCKED: USER    (2) Final Total Internal Energy     =  -1.76 kcal/mol
DOCKED: USER    (3) Torsional Free Energy           =  +1.79 kcal/mol
DOCKED: USER    (4) Unbound System's Energy         =  -1.76 kcal/mol
DOCKED: USER
DOCKED: USER
DOCKED: REMARK SMILES O=C(NCC(=O)N1C[C@H](O)C[C@H]1c1ccccc1)c1ccncc1
DOCKED: REMARK SMILES IDX 5 1 6 2 4 3 3 4 2 5 1 6 19 8 20 9 24 10 21 11 23 12 22 13
DOCKED: REMARK SMILES IDX 7 14 8 15 12 16 9 17 11 18 13 19 14 20 18 21 15 22 17 23
DOCKED: REMARK SMILES IDX 16 24 10 25
DOCKED: REMARK H PARENT 3 7 10 26
DOCKED: USER                              x       y       z     vdW  Elec       q    Type
DOCKED: USER                           _______ _______ _______ _____ _____    ______ ____
DOCKED: ROOT
DOCKED: ATOM      1  C   UNL     1     140.276  76.468 221.544 -0.23 -0.07    +0.242 C  
DOCKED: ATOM      2  O   UNL     1     140.385  75.477 222.306 -0.55 +0.03    -0.273 OA 
DOCKED: ENDROOT
DOCKED: BRANCH   1   3
DOCKED: ATOM      3  C   UNL     1     141.334  76.573 220.475 -0.19 -0.10    +0.216 C  
DOCKED: BRANCH   3   4
DOCKED: ATOM      4  N   UNL     1     142.370  75.585 220.688 -0.03 +0.18    -0.343 N  
DOCKED: ATOM      5  C   UNL     1     143.267  75.272 219.653 -0.25 -0.12    +0.251 C  
DOCKED: ATOM      6  O   UNL     1     143.109  75.900 218.552 -0.19 +0.14    -0.269 OA 
DOCKED: ATOM      7  H   UNL     1     142.435  75.115 221.617 -0.35 -0.08    +0.164 HD 
DOCKED: BRANCH   5   8
DOCKED: ATOM      8  C   UNL     1     144.333  74.291 219.794 -0.38 -0.01    +0.042 A  
DOCKED: ATOM      9  C   UNL     1     145.280  74.337 220.796 -0.49 -0.01    +0.034 A  
DOCKED: ATOM     10  C   UNL     1     144.418  73.252 218.890 -0.24 -0.00    +0.034 A  
DOCKED: ATOM     11  C   UNL     1     146.273  73.356 220.864 -0.59 +0.00    +0.112 A  
DOCKED: ATOM     12  C   UNL     1     145.411  72.284 218.971 -0.24 +0.06    +0.112 A  
DOCKED: ATOM     13  N   UNL     1     146.325  72.350 219.958 -0.49 -0.17    -0.265 NA 
DOCKED: ENDBRANCH   5   8
DOCKED: ENDBRANCH   3   4
DOCKED: ENDBRANCH   1   3
DOCKED: BRANCH   1  14
DOCKED: ATOM     14  N   UNL     1     139.274  77.450 221.611 -0.08 +0.08    -0.331 N  
DOCKED: ATOM     15  C   UNL     1     137.857  77.250 221.215 -0.10 -0.03    +0.152 C  
DOCKED: ATOM     16  C   UNL     1     139.284  78.826 222.053 -0.21 -0.03    +0.118 C  
DOCKED: ATOM     17  C   UNL     1     137.177  77.850 222.428 -0.16 -0.02    +0.136 C  
DOCKED: ATOM     18  C   UNL     1     138.207  78.765 223.108 -0.21 -0.01    +0.063 C  
DOCKED: BRANCH  16  19
DOCKED: ATOM     19  C   UNL     1     140.553  79.375 222.473 -0.36 +0.01    -0.025 A  
DOCKED: ATOM     20  C   UNL     1     141.037  79.207 223.761 -0.55 -0.00    +0.006 A  
DOCKED: ATOM     21  C   UNL     1     141.327  80.111 221.612 -0.38 -0.00    +0.006 A  
DOCKED: ATOM     22  C   UNL     1     142.225  79.731 224.199 -0.49 -0.00    +0.000 A  
DOCKED: ATOM     23  C   UNL     1     142.545  80.655 222.037 -0.48 -0.00    +0.000 A  
DOCKED: ATOM     24  C   UNL     1     143.011  80.478 223.323 -0.67 -0.00    +0.000 A  
DOCKED: ENDBRANCH  16  19
DOCKED: BRANCH  17  25
DOCKED: ATOM     25  O   UNL     1     136.183  78.699 221.951 -0.03 +0.06    -0.391 OA 
DOCKED: ATOM     26  H   UNL     1     136.276  78.723 220.960 +0.02 -0.03    +0.211 HD 
DOCKED: ENDBRANCH  17  25
DOCKED: ENDBRANCH   1  14
DOCKED: TORSDOF 6
DOCKED: TER
DOCKED: ENDMDL
________________________________________________________________________________


    FINAL DOCKED STATE:
    ________________________


Run:   19 / 20
Time taken for this run:   0.025s

DOCKED: MODEL        19
DOCKED: USER    Run = 19
DOCKED: USER
DOCKED: USER    Estimated Free Energy of Binding    =  -6.51 kcal/mol  [=(1)+(2)+(3)-(4)]
DOCKED: USER
DOCKED: USER    (1) Final Intermolecular Energy     =  -8.30 kcal/mol
DOCKED: USER        vdW + Hbond + desolv Energy     =  -8.23 kcal/mol
DOCKED: USER        Electrostatic Energy            =  -0.07 kcal/mol
DOCKED: USER        Moving Ligand-Fixed Receptor    =  -8.30 kcal/mol
DOCKED: USER        Moving Ligand-Moving Receptor   =  +0.00 kcal/mol
DOCKED: USER    (2) Final Total Internal Energy     =  -1.80 kcal/mol
DOCKED: USER    (3) Torsional Free Energy           =  +1.79 kcal/mol
DOCKED: USER    (4) Unbound System's Energy         =  -1.80 kcal/mol
DOCKED: USER
DOCKED: USER
DOCKED: REMARK SMILES O=C(NCC(=O)N1C[C@H](O)C[C@H]1c1ccccc1)c1ccncc1
DOCKED: REMARK SMILES IDX 5 1 6 2 4 3 3 4 2 5 1 6 19 8 20 9 24 10 21 11 23 12 22 13
DOCKED: REMARK SMILES IDX 7 14 8 15 12 16 9 17 11 18 13 19 14 20 18 21 15 22 17 23
DOCKED: REMARK SMILES IDX 16 24 10 25
DOCKED: REMARK H PARENT 3 7 10 26
DOCKED: USER                              x       y       z     vdW  Elec       q    Type
DOCKED: USER                           _______ _______ _______ _____ _____    ______ ____
DOCKED: ROOT
DOCKED: ATOM      1  C   UNL     1     140.701  78.409 219.705 -0.10 -0.10    +0.242 C  
DOCKED: ATOM      2  O   UNL     1     140.041  79.337 219.178 -0.04 +0.09    -0.273 OA 
DOCKED: ENDROOT
DOCKED: BRANCH   1   3
DOCKED: ATOM      3  C   UNL     1     142.079  78.196 219.130 -0.19 -0.14    +0.216 C  
DOCKED: BRANCH   3   4
DOCKED: ATOM      4  N   UNL     1     142.775  77.155 219.854 -0.14 +0.26    -0.343 N  
DOCKED: ATOM      5  C   UNL     1     142.899  75.872 219.296 -0.23 -0.13    +0.251 C  
DOCKED: ATOM      6  O   UNL     1     142.374  75.697 218.144 -0.09 +0.11    -0.269 OA 
DOCKED: ATOM      7  H   UNL     1     143.178  77.376 220.791 -0.44 -0.19    +0.164 HD 
DOCKED: BRANCH   5   8
DOCKED: ATOM      8  C   UNL     1     143.585  74.776 219.965 -0.37 -0.02    +0.042 A  
DOCKED: ATOM      9  C   UNL     1     144.863  74.877 220.474 -0.34 -0.02    +0.034 A  
DOCKED: ATOM     10  C   UNL     1     142.941  73.564 220.109 -0.26 -0.01    +0.034 A  
DOCKED: ATOM     11  C   UNL     1     145.453  73.779 221.104 -0.52 -0.02    +0.112 A  
DOCKED: ATOM     12  C   UNL     1     143.542  72.481 220.738 -0.26 -0.02    +0.112 A  
DOCKED: ATOM     13  N   UNL     1     144.790  72.604 221.227 -0.20 +0.06    -0.265 NA 
DOCKED: ENDBRANCH   5   8
DOCKED: ENDBRANCH   3   4
DOCKED: ENDBRANCH   1   3
DOCKED: BRANCH   1  14
DOCKED: ATOM     14  N   UNL     1     140.265  77.583 220.755 -0.05 +0.11    -0.331 N  
DOCKED: ATOM     15  C   UNL     1     139.550  76.294 220.584 -0.11 -0.04    +0.152 C  
DOCKED: ATOM     16  C   UNL     1     140.368  77.696 222.193 -0.33 -0.04    +0.118 C  
DOCKED: ATOM     17  C   UNL     1     140.359  75.437 221.535 -0.28 -0.03    +0.136 C  
DOCKED: ATOM     18  C   UNL     1     141.071  76.398 222.502 -0.12 -0.02    +0.063 C  
DOCKED: BRANCH  16  19
DOCKED: ATOM     19  C   UNL     1     140.985  78.892 222.718 -0.45 +0.01    -0.025 A  
DOCKED: ATOM     20  C   UNL     1     142.353  79.104 222.652 -0.52 -0.00    +0.006 A  
DOCKED: ATOM     21  C   UNL     1     140.237  79.865 223.330 -0.45 -0.00    +0.006 A  
DOCKED: ATOM     22  C   UNL     1     142.974  80.216 223.159 -0.67 -0.00    +0.000 A  
DOCKED: ATOM     23  C   UNL     1     140.849  81.011 223.854 -0.40 -0.00    +0.000 A  
DOCKED: ATOM     24  C   UNL     1     142.213  81.205 223.779 -0.64 -0.00    +0.000 A  
DOCKED: ENDBRANCH  16  19
DOCKED: BRANCH  17  25
DOCKED: ATOM     25  O   UNL     1     139.448  74.733 222.316 -0.63 +0.06    -0.391 OA 
DOCKED: ATOM     26  H   UNL     1     139.547  75.068 223.248 -0.39 -0.01    +0.211 HD 
DOCKED: ENDBRANCH  17  25
DOCKED: ENDBRANCH   1  14
DOCKED: TORSDOF 6
DOCKED: TER
DOCKED: ENDMDL
________________________________________________________________________________


    FINAL DOCKED STATE:
    ________________________


Run:   20 / 20
Time taken for this run:   0.025s

DOCKED: MODEL        20
DOCKED: USER    Run = 20
DOCKED: USER
DOCKED: USER    Estimated Free Energy of Binding    =  -6.46 kcal/mol  [=(1)+(2)+(3)-(4)]
DOCKED: USER
DOCKED: USER    (1) Final Intermolecular Energy     =  -8.25 kcal/mol
DOCKED: USER        vdW + Hbond + desolv Energy     =  -8.13 kcal/mol
DOCKED: USER        Electrostatic Energy            =  -0.12 kcal/mol
DOCKED: USER        Moving Ligand-Fixed Receptor    =  -8.25 kcal/mol
DOCKED: USER        Moving Ligand-Moving Receptor   =  +0.00 kcal/mol
DOCKED: USER    (2) Final Total Internal Energy     =  -1.83 kcal/mol
DOCKED: USER    (3) Torsional Free Energy           =  +1.79 kcal/mol
DOCKED: USER    (4) Unbound System's Energy         =  -1.83 kcal/mol
DOCKED: USER
DOCKED: USER
DOCKED: REMARK SMILES O=C(NCC(=O)N1C[C@H](O)C[C@H]1c1ccccc1)c1ccncc1
DOCKED: REMARK SMILES IDX 5 1 6 2 4 3 3 4 2 5 1 6 19 8 20 9 24 10 21 11 23 12 22 13
DOCKED: REMARK SMILES IDX 7 14 8 15 12 16 9 17 11 18 13 19 14 20 18 21 15 22 17 23
DOCKED: REMARK SMILES IDX 16 24 10 25
DOCKED: REMARK H PARENT 3 7 10 26
DOCKED: USER                              x       y       z     vdW  Elec       q    Type
DOCKED: USER                           _______ _______ _______ _____ _____    ______ ____
DOCKED: ROOT
DOCKED: ATOM      1  C   UNL     1     140.592  78.381 219.732 -0.09 -0.10    +0.242 C  
DOCKED: ATOM      2  O   UNL     1     139.866  79.241 219.175 -0.03 +0.09    -0.273 OA 
DOCKED: ENDROOT
DOCKED: BRANCH   1   3
DOCKED: ATOM      3  C   UNL     1     141.997  78.283 219.194 -0.19 -0.14    +0.216 C  
DOCKED: BRANCH   3   4
DOCKED: ATOM      4  N   UNL     1     142.722  77.223 219.860 -0.12 +0.26    -0.343 N  
DOCKED: ATOM      5  C   UNL     1     142.769  75.939 219.292 -0.22 -0.13    +0.251 C  
DOCKED: ATOM      6  O   UNL     1     142.149  75.781 218.186 -0.08 +0.11    -0.269 OA 
DOCKED: ATOM      7  H   UNL     1     143.204  77.431 220.761 -0.45 -0.20    +0.164 HD 
DOCKED: BRANCH   5   8
DOCKED: ATOM      8  C   UNL     1     143.477  74.824 219.904 -0.36 -0.02    +0.042 A  
DOCKED: ATOM      9  C   UNL     1     144.745  74.930 220.437 -0.31 -0.02    +0.034 A  
DOCKED: ATOM     10  C   UNL     1     142.867  73.588 219.965 -0.24 -0.01    +0.034 A  
DOCKED: ATOM     11  C   UNL     1     145.359  73.813 221.007 -0.51 -0.03    +0.112 A  
DOCKED: ATOM     12  C   UNL     1     143.492  72.486 220.536 -0.26 -0.02    +0.112 A  
DOCKED: ATOM     13  N   UNL     1     144.729  72.614 221.049 -0.22 +0.06    -0.265 NA 
DOCKED: ENDBRANCH   5   8
DOCKED: ENDBRANCH   3   4
DOCKED: ENDBRANCH   1   3
DOCKED: BRANCH   1  14
DOCKED: ATOM     14  N   UNL     1     140.203  77.535 220.785 -0.05 +0.11    -0.331 N  
DOCKED: ATOM     15  C   UNL     1     139.548  76.214 220.616 -0.12 -0.04    +0.152 C  
DOCKED: ATOM     16  C   UNL     1     140.313  77.649 222.221 -0.33 -0.03    +0.118 C  
DOCKED: ATOM     17  C   UNL     1     140.404  75.394 221.559 -0.28 -0.03    +0.136 C  
DOCKED: ATOM     18  C   UNL     1     141.078  76.385 222.522 -0.08 -0.02    +0.063 C  
DOCKED: BRANCH  16  19
DOCKED: ATOM     19  C   UNL     1     140.879  78.872 222.744 -0.44 +0.01    -0.025 A  
DOCKED: ATOM     20  C   UNL     1     140.098  79.979 223.036 -0.40 -0.00    +0.006 A  
DOCKED: ATOM     21  C   UNL     1     142.229  78.995 222.953 -0.55 -0.00    +0.006 A  
DOCKED: ATOM     22  C   UNL     1     140.603  81.160 223.513 -0.39 -0.00    +0.000 A  
DOCKED: ATOM     23  C   UNL     1     142.768  80.193 223.440 -0.67 -0.00    +0.000 A  
DOCKED: ATOM     24  C   UNL     1     141.975  81.284 223.726 -0.61 -0.00    +0.000 A  
DOCKED: ENDBRANCH  16  19
DOCKED: BRANCH  17  25
DOCKED: ATOM     25  O   UNL     1     139.533  74.647 222.346 -0.69 +0.06    -0.391 OA 
DOCKED: ATOM     26  H   UNL     1     139.267  75.226 223.110 -0.41 -0.04    +0.211 HD 
DOCKED: ENDBRANCH  17  25
DOCKED: ENDBRANCH   1  14
DOCKED: TORSDOF 6
DOCKED: TER
DOCKED: ENDMDL
________________________________________________________________________________


    CLUSTERING HISTOGRAM
    ____________________


________________________________________________________________________________
     |           |     |           |     |
Clus | Lowest    | Run | Mean      | Num | Histogram
-ter | Binding   |     | Binding   | in  |
Rank | Energy    |     | Energy    | Clus|    5    10   15   20   25   30   35
_____|___________|_____|___________|_____|____:____|____:____|____:____|____:___
   1 |     -7.04 |   4 |     -6.65 |  12 |############
   2 |     -6.58 |  12 |     -6.56 |   4 |####
   3 |     -6.29 |  15 |     -6.27 |   3 |###
   4 |     -6.27 |   1 |     -6.27 |   1 |#
_____|___________|_____|___________|_____|______________________________________


    RMSD TABLE
    __________


_______________________________________________________________________
     |      |      |           |         |                 |
Rank | Sub- | Run  | Binding   | Cluster | Reference       | Grep
     | Rank |      | Energy    | RMSD    | RMSD            | Pattern
_____|______|______|___________|_________|_________________|___________
   1      1      4       -7.04      0.00    271.18           RANKING
   1      2     11       -7.03      0.19    271.21           RANKING
   1      3      5       -6.97      0.31    271.16           RANKING
   1      4      2       -6.91      0.38    271.24           RANKING
   1      5      7       -6.67      0.76    271.31           RANKING
   1      6      8       -6.52      1.01    271.15           RANKING
   1      7     19       -6.51      1.00    271.18           RANKING
   1      8     17       -6.49      0.96    271.17           RANKING
   1      9     16       -6.48      1.04    271.10           RANKING
   1     10      3       -6.46      1.04    271.02           RANKING
   1     11     20       -6.46      1.04    271.12           RANKING
   1     12     13       -6.31      1.07    270.93           RANKING
   2      1     12       -6.58      0.00    270.75           RANKING
   2      2      9       -6.57      0.07    270.73           RANKING
   2      3      6       -6.57      0.22    270.79           RANKING
   2      4     14       -6.53      0.13    270.71           RANKING
   3      1     15       -6.29      0.00    271.07           RANKING
   3      2     18       -6.27      0.36    271.08           RANKING
   3      3     10       -6.26      0.40    271.10           RANKING
   4      1      1       -6.27      0.00    270.65           RANKING

Run time 0.473 sec
Idle time 0.000 sec
