AutoDock-GPU version: v1.6

**********************************************************
**    AutoDock-GPU AUTODOCKTOOLS-COMPATIBLE DLG FILE    **
**********************************************************


    DOCKING PARAMETERS
    ________________________


Ligand file:                               /home/a/REINVENT4/ReinventStudies/pleaseWork/justmol2mol_4_Compounds_ontop/graph-dock/graph-DockGPU/node-autodockgpu/inputs/NTSUXPAEJDOWNI-AZZOHTOPNA-N.pdbqt
Grid fld file:                             /home/a/REINVENT4/ReinventStudies/mols/Rad51/maps/rad51_receptor.maps.fld

Random seed:                               42
Number of runs:                            20
Number of energy evaluations:              1259779
Number of generations:                     42000
Size of population:                        150
Rate of crossover:                         80.000000%
Tournament selection probability limit:    60.000000%
Rate of mutation:                          2.000000%
Maximal allowed delta movement:            +/- 6.000000A
Maximal allowed delta angle:               +/- 90.000000

Rate of local search:                      100.000000%
Maximal number of local search iterations: 300
Rho lower bound:                           0.010000
Spread of local search delta movement:     2.000000A
Spread of local search delta angle:        74.999999
Limit of consecutive successes/failures:   4

Handle symmetry during clustering:         YES
RMSD tolerance:                            2.000000A

Program call in command line was:          /home/a/REINVENT4/ReinventStudies/adgpu-v1.6_linux_x64_cuda12_128wi --filelist batch.txt --heuristics 1 --nrun 20 --psize 150 --lsit 300 --seed 42 --heurmax 12000000 


    GRID PARAMETERS
    ________________________


Receptor name:                             rad51_receptor
Number of grid points (x, y, z):           53, 53, 53
Grid center (x, y, z):                     139.950000, 75.640000, 221.970000A
Grid size (x, y, z):                       19.500000, 19.500000, 19.500000A
Grid spacing:                              0.375000A


    LIGAND PARAMETERS
    ________________________


Ligand name:                               /home/a/REINVENT4/ReinventStudies/pleaseWork/justmol2mol_4_Compounds_ontop/graph-dock/graph-DockGPU/node-autodockgpu/inputs/NTSUXPAEJDOWNI-AZZOHTOPNA-N
Number of atoms:                           32
Number of rotatable bonds:                 7
Number of atom types:                      7


    DUMMY DATA (only for ADT-compatibility)
    ________________________


DPF> outlev 1
DPF> ga_run 20
DPF> fld /home/a/REINVENT4/ReinventStudies/mols/Rad51/maps/rad51_receptor.maps.fld
DPF> move /home/a/REINVENT4/ReinventStudies/pleaseWork/justmol2mol_4_Compounds_ontop/graph-dock/graph-DockGPU/node-autodockgpu/inputs/NTSUXPAEJDOWNI-AZZOHTOPNA-N.pdbqt


    COUNTER STATES
    ________________________


Number of energy evaluations performed:    925715
Number of generations used:                65


    INPUT LIGAND PDBQT FILE:
    ________________________


INPUT-LIGAND-PDBQT: REMARK SMILES O=C(NCC(=O)N1CCC[C@H]1COc1cccc(Cl)c1)c1ccc2cc(Cl)ccc2n1
INPUT-LIGAND-PDBQT: REMARK SMILES IDX 7 1 8 2 9 3 10 4 11 5 5 6 6 7 4 8 3 9 2 10 1 11 21 13 22 14
INPUT-LIGAND-PDBQT: REMARK SMILES IDX 31 15 23 16 30 17 24 18 29 19 25 20 28 21 26 22 27 23 12 24
INPUT-LIGAND-PDBQT: REMARK SMILES IDX 13 25 14 26 15 27 20 28 16 29 18 30 17 31 19 32
INPUT-LIGAND-PDBQT: REMARK H PARENT 3 12
INPUT-LIGAND-PDBQT: ROOT
INPUT-LIGAND-PDBQT: ATOM      1  N   UNL     1      -1.837  -1.561   0.159  1.00  0.00    -0.335 N 
INPUT-LIGAND-PDBQT: ATOM      2  C   UNL     1      -2.465  -2.013   1.384  1.00  0.00     0.120 C 
INPUT-LIGAND-PDBQT: ATOM      3  C   UNL     1      -3.245  -3.207   0.836  1.00  0.00     0.024 C 
INPUT-LIGAND-PDBQT: ATOM      4  C   UNL     1      -3.934  -2.556  -0.343  1.00  0.00     0.030 C 
INPUT-LIGAND-PDBQT: ATOM      5  C   UNL     1      -2.879  -1.601  -0.846  1.00  0.00     0.123 C 
INPUT-LIGAND-PDBQT: ENDROOT
INPUT-LIGAND-PDBQT: BRANCH   1   6
INPUT-LIGAND-PDBQT: ATOM      6  C   UNL     1      -0.475  -1.179   0.059  1.00  0.00     0.242 C 
INPUT-LIGAND-PDBQT: ATOM      7  O   UNL     1       0.201  -1.249   1.137  1.00  0.00    -0.273 OA
INPUT-LIGAND-PDBQT: BRANCH   6   8
INPUT-LIGAND-PDBQT: ATOM      8  C   UNL     1       0.175  -0.721  -1.183  1.00  0.00     0.216 C 
INPUT-LIGAND-PDBQT: BRANCH   8   9
INPUT-LIGAND-PDBQT: ATOM      9  N   UNL     1       1.570  -0.436  -0.826  1.00  0.00    -0.342 N 
INPUT-LIGAND-PDBQT: ATOM     10  C   UNL     1       2.434  -1.434  -0.302  1.00  0.00     0.270 C 
INPUT-LIGAND-PDBQT: ATOM     11  O   UNL     1       2.057  -2.634  -0.109  1.00  0.00    -0.268 OA
INPUT-LIGAND-PDBQT: ATOM     12  H   UNL     1       1.950   0.524  -0.956  1.00  0.00     0.164 HD
INPUT-LIGAND-PDBQT: BRANCH  10  13
INPUT-LIGAND-PDBQT: ATOM     13  C   UNL     1       3.823  -1.047   0.028  1.00  0.00     0.128 A 
INPUT-LIGAND-PDBQT: ATOM     14  C   UNL     1       4.683  -2.012   0.543  1.00  0.00     0.035 A 
INPUT-LIGAND-PDBQT: ATOM     15  N   UNL     1       4.254   0.212  -0.164  1.00  0.00    -0.243 NA
INPUT-LIGAND-PDBQT: ATOM     16  C   UNL     1       5.990  -1.627   0.848  1.00  0.00     0.013 A 
INPUT-LIGAND-PDBQT: ATOM     17  C   UNL     1       5.496   0.605   0.119  1.00  0.00     0.071 A 
INPUT-LIGAND-PDBQT: ATOM     18  C   UNL     1       6.371  -0.327   0.630  1.00  0.00     0.002 A 
INPUT-LIGAND-PDBQT: ATOM     19  C   UNL     1       5.826   1.917  -0.118  1.00  0.00     0.030 A 
INPUT-LIGAND-PDBQT: ATOM     20  C   UNL     1       7.653   0.119   0.911  1.00  0.00     0.030 A 
INPUT-LIGAND-PDBQT: ATOM     21  C   UNL     1       7.116   2.320   0.176  1.00  0.00     0.023 A 
INPUT-LIGAND-PDBQT: ATOM     22  C   UNL     1       8.053   1.423   0.698  1.00  0.00     0.041 A 
INPUT-LIGAND-PDBQT: ATOM     23  Cl  UNL     1       9.645   2.019   1.036  1.00  0.00    -0.084 Cl
INPUT-LIGAND-PDBQT: ENDBRANCH  10  13
INPUT-LIGAND-PDBQT: ENDBRANCH   8   9
INPUT-LIGAND-PDBQT: ENDBRANCH   6   8
INPUT-LIGAND-PDBQT: ENDBRANCH   1   6
INPUT-LIGAND-PDBQT: BRANCH   5  24
INPUT-LIGAND-PDBQT: ATOM     24  C   UNL     1      -3.431  -0.196  -0.989  1.00  0.00     0.254 C 
INPUT-LIGAND-PDBQT: BRANCH  24  25
INPUT-LIGAND-PDBQT: ATOM     25  O   UNL     1      -3.967   0.291   0.203  1.00  0.00    -0.491 OA
INPUT-LIGAND-PDBQT: BRANCH  25  26
INPUT-LIGAND-PDBQT: ATOM     26  C   UNL     1      -4.520   1.561   0.275  1.00  0.00     0.120 A 
INPUT-LIGAND-PDBQT: ATOM     27  C   UNL     1      -4.578   2.420  -0.814  1.00  0.00     0.046 A 
INPUT-LIGAND-PDBQT: ATOM     28  C   UNL     1      -5.048   2.037   1.455  1.00  0.00     0.067 A 
INPUT-LIGAND-PDBQT: ATOM     29  C   UNL     1      -5.125   3.675  -0.737  1.00  0.00     0.005 A 
INPUT-LIGAND-PDBQT: ATOM     30  C   UNL     1      -5.610   3.275   1.609  1.00  0.00     0.044 A 
INPUT-LIGAND-PDBQT: ATOM     31  C   UNL     1      -5.643   4.095   0.492  1.00  0.00     0.021 A 
INPUT-LIGAND-PDBQT: ATOM     32  Cl  UNL     1      -6.269   3.856   3.101  1.00  0.00    -0.084 Cl
INPUT-LIGAND-PDBQT: ENDBRANCH  25  26
INPUT-LIGAND-PDBQT: ENDBRANCH  24  25
INPUT-LIGAND-PDBQT: ENDBRANCH   5  24
INPUT-LIGAND-PDBQT: TORSDOF 7


    FINAL DOCKED STATE:
    ________________________


Run:   1 / 20
Time taken for this run:   0.042s

DOCKED: MODEL        1
DOCKED: USER    Run = 1
DOCKED: USER
DOCKED: USER    Estimated Free Energy of Binding    =  -8.14 kcal/mol  [=(1)+(2)+(3)-(4)]
DOCKED: USER
DOCKED: USER    (1) Final Intermolecular Energy     = -10.22 kcal/mol
DOCKED: USER        vdW + Hbond + desolv Energy     = -10.18 kcal/mol
DOCKED: USER        Electrostatic Energy            =  -0.05 kcal/mol
DOCKED: USER        Moving Ligand-Fixed Receptor    = -10.22 kcal/mol
DOCKED: USER        Moving Ligand-Moving Receptor   =  +0.00 kcal/mol
DOCKED: USER    (2) Final Total Internal Energy     =  -2.53 kcal/mol
DOCKED: USER    (3) Torsional Free Energy           =  +2.09 kcal/mol
DOCKED: USER    (4) Unbound System's Energy         =  -2.53 kcal/mol
DOCKED: USER
DOCKED: USER
DOCKED: REMARK SMILES O=C(NCC(=O)N1CCC[C@H]1COc1cccc(Cl)c1)c1ccc2cc(Cl)ccc2n1
DOCKED: REMARK SMILES IDX 7 1 8 2 9 3 10 4 11 5 5 6 6 7 4 8 3 9 2 10 1 11 21 13 22 14
DOCKED: REMARK SMILES IDX 31 15 23 16 30 17 24 18 29 19 25 20 28 21 26 22 27 23 12 24
DOCKED: REMARK SMILES IDX 13 25 14 26 15 27 20 28 16 29 18 30 17 31 19 32
DOCKED: REMARK H PARENT 3 12
DOCKED: USER                              x       y       z     vdW  Elec       q    Type
DOCKED: USER                           _______ _______ _______ _____ _____    ______ ____
DOCKED: ROOT
DOCKED: ATOM      1  N   UNL     1     137.881  70.009 222.841 -0.05 +0.06    -0.335 N  
DOCKED: ATOM      2  C   UNL     1     138.348  68.861 222.089 -0.14 -0.02    +0.120 C  
DOCKED: ATOM      3  C   UNL     1     137.021  68.406 221.485 -0.10 -0.00    +0.024 C  
DOCKED: ATOM      4  C   UNL     1     136.158  68.379 222.727 -0.12 -0.00    +0.030 C  
DOCKED: ATOM      5  C   UNL     1     136.668  69.570 223.500 -0.16 -0.01    +0.123 C  
DOCKED: ENDROOT
DOCKED: BRANCH   1   6
DOCKED: ATOM      6  C   UNL     1     138.541  71.263 222.867 -0.15 -0.06    +0.242 C  
DOCKED: ATOM      7  O   UNL     1     137.788  72.283 222.996 -0.09 +0.10    -0.273 OA 
DOCKED: BRANCH   6   8
DOCKED: ATOM      8  C   UNL     1     140.001  71.441 222.755 -0.23 -0.03    +0.216 C  
DOCKED: BRANCH   8   9
DOCKED: ATOM      9  N   UNL     1     140.211  72.862 222.450 -0.16 +0.03    -0.342 N  
DOCKED: ATOM     10  C   UNL     1     141.188  73.297 221.515 -0.15 -0.03    +0.270 C  
DOCKED: ATOM     11  O   UNL     1     141.940  72.488 220.884 -0.15 +0.03    -0.268 OA 
DOCKED: ATOM     12  H   UNL     1     139.633  73.583 222.928 -0.37 -0.03    +0.164 HD 
DOCKED: BRANCH  10  13
DOCKED: ATOM     13  C   UNL     1     141.323  74.750 221.278 -0.26 -0.03    +0.128 A  
DOCKED: ATOM     14  C   UNL     1     142.121  75.186 220.224 -0.27 -0.01    +0.035 A  
DOCKED: ATOM     15  N   UNL     1     140.691  75.641 222.062 -0.43 +0.05    -0.243 NA 
DOCKED: ATOM     16  C   UNL     1     142.236  76.562 220.017 -0.31 -0.01    +0.013 A  
DOCKED: ATOM     17  C   UNL     1     140.785  76.959 221.885 -0.35 -0.03    +0.071 A  
DOCKED: ATOM     18  C   UNL     1     141.566  77.421 220.850 -0.30 -0.00    +0.002 A  
DOCKED: ATOM     19  C   UNL     1     140.094  77.775 222.748 -0.33 -0.01    +0.030 A  
DOCKED: ATOM     20  C   UNL     1     141.638  78.797 220.698 -0.31 -0.02    +0.030 A  
DOCKED: ATOM     21  C   UNL     1     140.193  79.142 222.560 -0.35 -0.01    +0.023 A  
DOCKED: ATOM     22  C   UNL     1     140.971  79.675 221.528 -0.31 -0.01    +0.041 A  
DOCKED: ATOM     23  Cl  UNL     1     141.036  81.400 221.371 -0.43 +0.02    -0.084 Cl 
DOCKED: ENDBRANCH  10  13
DOCKED: ENDBRANCH   8   9
DOCKED: ENDBRANCH   6   8
DOCKED: ENDBRANCH   1   6
DOCKED: BRANCH   5  24
DOCKED: ATOM     24  C   UNL     1     137.031  69.190 224.922 -0.12 -0.01    +0.254 C  
DOCKED: BRANCH  24  25
DOCKED: ATOM     25  O   UNL     1     138.243  68.504 224.998 -0.30 +0.01    -0.491 OA 
DOCKED: BRANCH  25  26
DOCKED: ATOM     26  C   UNL     1     139.186  68.819 225.966 -0.40 -0.01    +0.120 A  
DOCKED: ATOM     27  C   UNL     1     139.737  67.872 226.817 -0.61 -0.01    +0.046 A  
DOCKED: ATOM     28  C   UNL     1     139.627  70.114 226.128 -0.41 -0.01    +0.067 A  
DOCKED: ATOM     29  C   UNL     1     140.668  68.189 227.773 -0.67 -0.00    +0.005 A  
DOCKED: ATOM     30  C   UNL     1     140.553  70.507 227.057 -0.58 -0.01    +0.044 A  
DOCKED: ATOM     31  C   UNL     1     141.072  69.523 227.883 -0.58 -0.00    +0.021 A  
DOCKED: ATOM     32  Cl  UNL     1     141.096  72.140 227.246 -0.96 +0.02    -0.084 Cl 
DOCKED: ENDBRANCH  25  26
DOCKED: ENDBRANCH  24  25
DOCKED: ENDBRANCH   5  24
DOCKED: TORSDOF 7
DOCKED: TER
DOCKED: ENDMDL
________________________________________________________________________________


    FINAL DOCKED STATE:
    ________________________


Run:   2 / 20
Time taken for this run:   0.042s

DOCKED: MODEL        2
DOCKED: USER    Run = 2
DOCKED: USER
DOCKED: USER    Estimated Free Energy of Binding    =  -8.15 kcal/mol  [=(1)+(2)+(3)-(4)]
DOCKED: USER
DOCKED: USER    (1) Final Intermolecular Energy     = -10.23 kcal/mol
DOCKED: USER        vdW + Hbond + desolv Energy     = -10.16 kcal/mol
DOCKED: USER        Electrostatic Energy            =  -0.08 kcal/mol
DOCKED: USER        Moving Ligand-Fixed Receptor    = -10.23 kcal/mol
DOCKED: USER        Moving Ligand-Moving Receptor   =  +0.00 kcal/mol
DOCKED: USER    (2) Final Total Internal Energy     =  -2.24 kcal/mol
DOCKED: USER    (3) Torsional Free Energy           =  +2.09 kcal/mol
DOCKED: USER    (4) Unbound System's Energy         =  -2.24 kcal/mol
DOCKED: USER
DOCKED: USER
DOCKED: REMARK SMILES O=C(NCC(=O)N1CCC[C@H]1COc1cccc(Cl)c1)c1ccc2cc(Cl)ccc2n1
DOCKED: REMARK SMILES IDX 7 1 8 2 9 3 10 4 11 5 5 6 6 7 4 8 3 9 2 10 1 11 21 13 22 14
DOCKED: REMARK SMILES IDX 31 15 23 16 30 17 24 18 29 19 25 20 28 21 26 22 27 23 12 24
DOCKED: REMARK SMILES IDX 13 25 14 26 15 27 20 28 16 29 18 30 17 31 19 32
DOCKED: REMARK H PARENT 3 12
DOCKED: USER                              x       y       z     vdW  Elec       q    Type
DOCKED: USER                           _______ _______ _______ _____ _____    ______ ____
DOCKED: ROOT
DOCKED: ATOM      1  N   UNL     1     136.796  70.853 223.231 -0.06 +0.06    -0.335 N  
DOCKED: ATOM      2  C   UNL     1     135.472  70.524 222.746 -0.06 -0.02    +0.120 C  
DOCKED: ATOM      3  C   UNL     1     134.789  70.216 224.078 -0.15 -0.00    +0.024 C  
DOCKED: ATOM      4  C   UNL     1     135.794  69.257 224.676 -0.22 -0.00    +0.030 C  
DOCKED: ATOM      5  C   UNL     1     137.109  69.839 224.217 -0.21 -0.01    +0.123 C  
DOCKED: ENDROOT
DOCKED: BRANCH   1   6
DOCKED: ATOM      6  C   UNL     1     137.556  71.961 222.777 -0.09 -0.07    +0.242 C  
DOCKED: ATOM      7  O   UNL     1     136.909  73.047 222.613 -0.11 +0.09    -0.273 OA 
DOCKED: BRANCH   6   8
DOCKED: ATOM      8  C   UNL     1     139.003  71.923 222.495 -0.17 -0.05    +0.216 C  
DOCKED: BRANCH   8   9
DOCKED: ATOM      9  N   UNL     1     139.413  73.319 222.305 -0.13 +0.07    -0.342 N  
DOCKED: ATOM     10  C   UNL     1     140.579  73.670 221.573 -0.20 -0.03    +0.270 C  
DOCKED: ATOM     11  O   UNL     1     141.339  72.802 221.037 -0.16 +0.03    -0.268 OA 
DOCKED: ATOM     12  H   UNL     1     138.841  74.085 222.714 -0.55 -0.07    +0.164 HD 
DOCKED: BRANCH  10  13
DOCKED: ATOM     13  C   UNL     1     140.908  75.106 221.438 -0.28 -0.03    +0.128 A  
DOCKED: ATOM     14  C   UNL     1     141.809  75.497 220.452 -0.27 -0.01    +0.035 A  
DOCKED: ATOM     15  N   UNL     1     140.351  76.022 222.249 -0.37 +0.05    -0.243 NA 
DOCKED: ATOM     16  C   UNL     1     142.107  76.856 220.341 -0.26 -0.01    +0.013 A  
DOCKED: ATOM     17  C   UNL     1     140.618  77.325 222.163 -0.37 -0.02    +0.071 A  
DOCKED: ATOM     18  C   UNL     1     141.506  77.744 221.198 -0.32 -0.00    +0.002 A  
DOCKED: ATOM     19  C   UNL     1     139.990  78.171 223.045 -0.27 -0.01    +0.030 A  
DOCKED: ATOM     20  C   UNL     1     141.758  79.105 221.140 -0.35 -0.02    +0.030 A  
DOCKED: ATOM     21  C   UNL     1     140.270  79.522 222.952 -0.40 -0.00    +0.023 A  
DOCKED: ATOM     22  C   UNL     1     141.163  80.012 221.994 -0.37 -0.01    +0.041 A  
DOCKED: ATOM     23  Cl  UNL     1     141.451  81.720 221.953 -0.51 +0.02    -0.084 Cl 
DOCKED: ENDBRANCH  10  13
DOCKED: ENDBRANCH   8   9
DOCKED: ENDBRANCH   6   8
DOCKED: ENDBRANCH   1   6
DOCKED: BRANCH   5  24
DOCKED: ATOM     24  C   UNL     1     137.968  68.790 223.538 -0.16 -0.03    +0.254 C  
DOCKED: BRANCH  24  25
DOCKED: ATOM     25  O   UNL     1     138.825  68.144 224.429 -0.44 +0.02    -0.491 OA 
DOCKED: BRANCH  25  26
DOCKED: ATOM     26  C   UNL     1     139.570  68.859 225.355 -0.37 -0.02    +0.120 A  
DOCKED: ATOM     27  C   UNL     1     139.959  70.176 225.153 -0.42 -0.01    +0.046 A  
DOCKED: ATOM     28  C   UNL     1     139.966  68.282 226.542 -0.57 -0.01    +0.067 A  
DOCKED: ATOM     29  C   UNL     1     140.696  70.878 226.072 -0.61 -0.00    +0.005 A  
DOCKED: ATOM     30  C   UNL     1     140.700  68.918 227.505 -0.60 -0.01    +0.044 A  
DOCKED: ATOM     31  C   UNL     1     141.064  70.232 227.256 -0.58 -0.00    +0.021 A  
DOCKED: ATOM     32  Cl  UNL     1     141.188  68.176 228.992 -0.50 +0.02    -0.084 Cl 
DOCKED: ENDBRANCH  25  26
DOCKED: ENDBRANCH  24  25
DOCKED: ENDBRANCH   5  24
DOCKED: TORSDOF 7
DOCKED: TER
DOCKED: ENDMDL
________________________________________________________________________________


    FINAL DOCKED STATE:
    ________________________


Run:   3 / 20
Time taken for this run:   0.042s

DOCKED: MODEL        3
DOCKED: USER    Run = 3
DOCKED: USER
DOCKED: USER    Estimated Free Energy of Binding    =  -8.63 kcal/mol  [=(1)+(2)+(3)-(4)]
DOCKED: USER
DOCKED: USER    (1) Final Intermolecular Energy     = -10.71 kcal/mol
DOCKED: USER        vdW + Hbond + desolv Energy     = -10.71 kcal/mol
DOCKED: USER        Electrostatic Energy            =  -0.00 kcal/mol
DOCKED: USER        Moving Ligand-Fixed Receptor    = -10.71 kcal/mol
DOCKED: USER        Moving Ligand-Moving Receptor   =  +0.00 kcal/mol
DOCKED: USER    (2) Final Total Internal Energy     =  -2.23 kcal/mol
DOCKED: USER    (3) Torsional Free Energy           =  +2.09 kcal/mol
DOCKED: USER    (4) Unbound System's Energy         =  -2.23 kcal/mol
DOCKED: USER
DOCKED: USER
DOCKED: REMARK SMILES O=C(NCC(=O)N1CCC[C@H]1COc1cccc(Cl)c1)c1ccc2cc(Cl)ccc2n1
DOCKED: REMARK SMILES IDX 7 1 8 2 9 3 10 4 11 5 5 6 6 7 4 8 3 9 2 10 1 11 21 13 22 14
DOCKED: REMARK SMILES IDX 31 15 23 16 30 17 24 18 29 19 25 20 28 21 26 22 27 23 12 24
DOCKED: REMARK SMILES IDX 13 25 14 26 15 27 20 28 16 29 18 30 17 31 19 32
DOCKED: REMARK H PARENT 3 12
DOCKED: USER                              x       y       z     vdW  Elec       q    Type
DOCKED: USER                           _______ _______ _______ _____ _____    ______ ____
DOCKED: ROOT
DOCKED: ATOM      1  N   UNL     1     141.514  75.939 220.232 -0.10 +0.14    -0.335 N  
DOCKED: ATOM      2  C   UNL     1     141.964  74.926 219.298 -0.14 -0.04    +0.120 C  
DOCKED: ATOM      3  C   UNL     1     143.443  75.301 219.220 -0.33 -0.01    +0.024 C  
DOCKED: ATOM      4  C   UNL     1     143.328  76.785 218.954 -0.33 -0.02    +0.030 C  
DOCKED: ATOM      5  C   UNL     1     142.133  77.172 219.791 -0.27 -0.08    +0.123 C  
DOCKED: ENDROOT
DOCKED: BRANCH   1   6
DOCKED: ATOM      6  C   UNL     1     140.647  75.682 221.324 -0.23 -0.07    +0.242 C  
DOCKED: ATOM      7  O   UNL     1     140.999  76.186 222.441 -0.35 +0.08    -0.273 OA 
DOCKED: BRANCH   6   8
DOCKED: ATOM      8  C   UNL     1     139.405  74.892 221.237 -0.17 -0.05    +0.216 C  
DOCKED: BRANCH   8   9
DOCKED: ATOM      9  N   UNL     1     139.522  73.844 222.259 -0.11 +0.06    -0.342 N  
DOCKED: ATOM     10  C   UNL     1     139.594  72.466 221.922 -0.17 -0.05    +0.270 C  
DOCKED: ATOM     11  O   UNL     1     139.562  72.053 220.719 -0.05 +0.05    -0.268 OA 
DOCKED: ATOM     12  H   UNL     1     139.555  74.106 223.265 -0.49 -0.02    +0.164 HD 
DOCKED: BRANCH  10  13
DOCKED: ATOM     13  C   UNL     1     139.710  71.487 223.024 -0.28 -0.02    +0.128 A  
DOCKED: ATOM     14  C   UNL     1     139.259  70.187 222.815 -0.21 -0.01    +0.035 A  
DOCKED: ATOM     15  N   UNL     1     140.240  71.838 224.209 -0.27 +0.04    -0.243 NA 
DOCKED: ATOM     16  C   UNL     1     139.377  69.277 223.868 -0.26 -0.00    +0.013 A  
DOCKED: ATOM     17  C   UNL     1     140.364  70.989 225.229 -0.49 -0.01    +0.071 A  
DOCKED: ATOM     18  C   UNL     1     139.927  69.696 225.053 -0.41 -0.00    +0.002 A  
DOCKED: ATOM     19  C   UNL     1     140.921  71.459 226.393 -0.66 -0.00    +0.030 A  
DOCKED: ATOM     20  C   UNL     1     140.073  68.843 226.136 -0.52 -0.01    +0.030 A  
DOCKED: ATOM     21  C   UNL     1     141.048  70.574 227.449 -0.62 -0.00    +0.023 A  
DOCKED: ATOM     22  C   UNL     1     140.623  69.247 227.336 -0.58 -0.01    +0.041 A  
DOCKED: ATOM     23  Cl  UNL     1     140.823  68.212 228.712 -0.67 +0.02    -0.084 Cl 
DOCKED: ENDBRANCH  10  13
DOCKED: ENDBRANCH   8   9
DOCKED: ENDBRANCH   6   8
DOCKED: ENDBRANCH   1   6
DOCKED: BRANCH   5  24
DOCKED: ATOM     24  C   UNL     1     141.108  77.931 218.972 -0.10 -0.12    +0.254 C  
DOCKED: BRANCH  24  25
DOCKED: ATOM     25  O   UNL     1     140.745  79.142 219.559 -0.01 +0.20    -0.491 OA 
DOCKED: BRANCH  25  26
DOCKED: ATOM     26  C   UNL     1     140.674  79.278 220.938 -0.19 -0.04    +0.120 A  
DOCKED: ATOM     27  C   UNL     1     139.597  78.819 221.685 -0.20 -0.01    +0.046 A  
DOCKED: ATOM     28  C   UNL     1     141.689  79.887 221.642 -0.39 -0.03    +0.067 A  
DOCKED: ATOM     29  C   UNL     1     139.531  78.957 223.047 -0.37 -0.00    +0.005 A  
DOCKED: ATOM     30  C   UNL     1     141.694  80.061 223.000 -0.53 -0.01    +0.044 A  
DOCKED: ATOM     31  C   UNL     1     140.596  79.586 223.700 -0.49 -0.00    +0.021 A  
DOCKED: ATOM     32  Cl  UNL     1     142.980  80.829 223.868 -0.73 +0.02    -0.084 Cl 
DOCKED: ENDBRANCH  25  26
DOCKED: ENDBRANCH  24  25
DOCKED: ENDBRANCH   5  24
DOCKED: TORSDOF 7
DOCKED: TER
DOCKED: ENDMDL
________________________________________________________________________________


    FINAL DOCKED STATE:
    ________________________


Run:   4 / 20
Time taken for this run:   0.042s

DOCKED: MODEL        4
DOCKED: USER    Run = 4
DOCKED: USER
DOCKED: USER    Estimated Free Energy of Binding    =  -8.40 kcal/mol  [=(1)+(2)+(3)-(4)]
DOCKED: USER
DOCKED: USER    (1) Final Intermolecular Energy     = -10.49 kcal/mol
DOCKED: USER        vdW + Hbond + desolv Energy     = -10.54 kcal/mol
DOCKED: USER        Electrostatic Energy            =  +0.06 kcal/mol
DOCKED: USER        Moving Ligand-Fixed Receptor    = -10.49 kcal/mol
DOCKED: USER        Moving Ligand-Moving Receptor   =  +0.00 kcal/mol
DOCKED: USER    (2) Final Total Internal Energy     =  -2.87 kcal/mol
DOCKED: USER    (3) Torsional Free Energy           =  +2.09 kcal/mol
DOCKED: USER    (4) Unbound System's Energy         =  -2.87 kcal/mol
DOCKED: USER
DOCKED: USER
DOCKED: REMARK SMILES O=C(NCC(=O)N1CCC[C@H]1COc1cccc(Cl)c1)c1ccc2cc(Cl)ccc2n1
DOCKED: REMARK SMILES IDX 7 1 8 2 9 3 10 4 11 5 5 6 6 7 4 8 3 9 2 10 1 11 21 13 22 14
DOCKED: REMARK SMILES IDX 31 15 23 16 30 17 24 18 29 19 25 20 28 21 26 22 27 23 12 24
DOCKED: REMARK SMILES IDX 13 25 14 26 15 27 20 28 16 29 18 30 17 31 19 32
DOCKED: REMARK H PARENT 3 12
DOCKED: USER                              x       y       z     vdW  Elec       q    Type
DOCKED: USER                           _______ _______ _______ _____ _____    ______ ____
DOCKED: ROOT
DOCKED: ATOM      1  N   UNL     1     140.973  77.313 220.724 -0.10 +0.14    -0.335 N  
DOCKED: ATOM      2  C   UNL     1     141.826  78.376 221.216 -0.28 -0.07    +0.120 C  
DOCKED: ATOM      3  C   UNL     1     141.223  79.552 220.448 -0.28 -0.01    +0.024 C  
DOCKED: ATOM      4  C   UNL     1     141.214  78.978 219.048 -0.20 -0.02    +0.030 C  
DOCKED: ATOM      5  C   UNL     1     140.873  77.529 219.296 -0.12 -0.05    +0.123 C  
DOCKED: ENDROOT
DOCKED: BRANCH   1   6
DOCKED: ATOM      6  C   UNL     1     140.399  76.311 221.547 -0.24 -0.07    +0.242 C  
DOCKED: ATOM      7  O   UNL     1     140.639  76.413 222.795 -0.27 +0.06    -0.273 OA 
DOCKED: BRANCH   6   8
DOCKED: ATOM      8  C   UNL     1     139.570  75.197 221.051 -0.16 -0.05    +0.216 C  
DOCKED: BRANCH   8   9
DOCKED: ATOM      9  N   UNL     1     139.633  74.157 222.085 -0.13 +0.05    -0.342 N  
DOCKED: ATOM     10  C   UNL     1     139.729  72.777 221.762 -0.17 -0.05    +0.270 C  
DOCKED: ATOM     11  O   UNL     1     139.767  72.355 220.562 -0.05 +0.05    -0.268 OA 
DOCKED: ATOM     12  H   UNL     1     139.606  74.426 223.090 -0.50 -0.00    +0.164 HD 
DOCKED: BRANCH  10  13
DOCKED: ATOM     13  C   UNL     1     139.786  71.805 222.876 -0.28 -0.02    +0.128 A  
DOCKED: ATOM     14  C   UNL     1     139.255  70.534 222.684 -0.21 -0.01    +0.035 A  
DOCKED: ATOM     15  N   UNL     1     140.339  72.137 224.056 -0.22 +0.04    -0.243 NA 
DOCKED: ATOM     16  C   UNL     1     139.318  69.631 223.747 -0.27 -0.00    +0.013 A  
DOCKED: ATOM     17  C   UNL     1     140.412  71.295 225.086 -0.48 -0.01    +0.071 A  
DOCKED: ATOM     18  C   UNL     1     139.895  70.029 224.926 -0.41 -0.00    +0.002 A  
DOCKED: ATOM     19  C   UNL     1     140.999  71.742 226.244 -0.64 -0.00    +0.030 A  
DOCKED: ATOM     20  C   UNL     1     139.990  69.181 226.019 -0.48 -0.00    +0.030 A  
DOCKED: ATOM     21  C   UNL     1     141.074  70.864 227.310 -0.65 -0.00    +0.023 A  
DOCKED: ATOM     22  C   UNL     1     140.567  69.565 227.213 -0.56 -0.01    +0.041 A  
DOCKED: ATOM     23  Cl  UNL     1     140.704  68.536 228.601 -0.74 +0.02    -0.084 Cl 
DOCKED: ENDBRANCH  10  13
DOCKED: ENDBRANCH   8   9
DOCKED: ENDBRANCH   6   8
DOCKED: ENDBRANCH   1   6
DOCKED: BRANCH   5  24
DOCKED: ATOM     24  C   UNL     1     141.869  76.605 218.622 -0.12 -0.12    +0.254 C  
DOCKED: BRANCH  24  25
DOCKED: ATOM     25  O   UNL     1     143.011  76.397 219.395 -0.16 +0.31    -0.491 OA 
DOCKED: BRANCH  25  26
DOCKED: ATOM     26  C   UNL     1     143.339  75.133 219.864 -0.32 -0.06    +0.120 A  
DOCKED: ATOM     27  C   UNL     1     142.477  74.049 219.773 -0.21 -0.01    +0.046 A  
DOCKED: ATOM     28  C   UNL     1     144.561  74.892 220.452 -0.34 -0.03    +0.067 A  
DOCKED: ATOM     29  C   UNL     1     142.807  72.802 220.238 -0.25 -0.00    +0.005 A  
DOCKED: ATOM     30  C   UNL     1     144.961  73.678 220.939 -0.51 -0.01    +0.044 A  
DOCKED: ATOM     31  C   UNL     1     144.064  72.627 220.825 -0.36 -0.00    +0.021 A  
DOCKED: ATOM     32  Cl  UNL     1     146.502  73.394 221.676 -0.81 +0.01    -0.084 Cl 
DOCKED: ENDBRANCH  25  26
DOCKED: ENDBRANCH  24  25
DOCKED: ENDBRANCH   5  24
DOCKED: TORSDOF 7
DOCKED: TER
DOCKED: ENDMDL
________________________________________________________________________________


    FINAL DOCKED STATE:
    ________________________


Run:   5 / 20
Time taken for this run:   0.042s

DOCKED: MODEL        5
DOCKED: USER    Run = 5
DOCKED: USER
DOCKED: USER    Estimated Free Energy of Binding    =  -6.40 kcal/mol  [=(1)+(2)+(3)-(4)]
DOCKED: USER
DOCKED: USER    (1) Final Intermolecular Energy     =  -8.49 kcal/mol
DOCKED: USER        vdW + Hbond + desolv Energy     =  -8.52 kcal/mol
DOCKED: USER        Electrostatic Energy            =  +0.03 kcal/mol
DOCKED: USER        Moving Ligand-Fixed Receptor    =  -8.49 kcal/mol
DOCKED: USER        Moving Ligand-Moving Receptor   =  +0.00 kcal/mol
DOCKED: USER    (2) Final Total Internal Energy     =  -3.69 kcal/mol
DOCKED: USER    (3) Torsional Free Energy           =  +2.09 kcal/mol
DOCKED: USER    (4) Unbound System's Energy         =  -3.69 kcal/mol
DOCKED: USER
DOCKED: USER
DOCKED: REMARK SMILES O=C(NCC(=O)N1CCC[C@H]1COc1cccc(Cl)c1)c1ccc2cc(Cl)ccc2n1
DOCKED: REMARK SMILES IDX 7 1 8 2 9 3 10 4 11 5 5 6 6 7 4 8 3 9 2 10 1 11 21 13 22 14
DOCKED: REMARK SMILES IDX 31 15 23 16 30 17 24 18 29 19 25 20 28 21 26 22 27 23 12 24
DOCKED: REMARK SMILES IDX 13 25 14 26 15 27 20 28 16 29 18 30 17 31 19 32
DOCKED: REMARK H PARENT 3 12
DOCKED: USER                              x       y       z     vdW  Elec       q    Type
DOCKED: USER                           _______ _______ _______ _____ _____    ______ ____
DOCKED: ROOT
DOCKED: ATOM      1  N   UNL     1     141.371  80.533 222.175 -0.19 +0.09    -0.335 N  
DOCKED: ATOM      2  C   UNL     1     140.895  81.285 223.318 -0.34 -0.02    +0.120 C  
DOCKED: ATOM      3  C   UNL     1     142.236  81.642 223.956 -0.52 -0.00    +0.024 C  
DOCKED: ATOM      4  C   UNL     1     142.890  80.277 223.983 -0.50 -0.01    +0.030 C  
DOCKED: ATOM      5  C   UNL     1     142.410  79.665 222.689 -0.51 -0.05    +0.123 C  
DOCKED: ENDROOT
DOCKED: BRANCH   1   6
DOCKED: ATOM      6  C   UNL     1     140.866  80.685 220.858 -0.19 -0.07    +0.242 C  
DOCKED: ATOM      7  O   UNL     1     139.603  80.825 220.762 -0.06 +0.06    -0.273 OA 
DOCKED: BRANCH   6   8
DOCKED: ATOM      8  C   UNL     1     141.697  80.688 219.640 -0.21 -0.10    +0.216 C  
DOCKED: BRANCH   8   9
DOCKED: ATOM      9  N   UNL     1     142.193  79.315 219.487 -0.11 +0.23    -0.342 N  
DOCKED: ATOM     10  C   UNL     1     142.188  78.647 218.234 -0.20 -0.20    +0.270 C  
DOCKED: ATOM     11  O   UNL     1     141.757  79.191 217.168 -0.12 +0.20    -0.268 OA 
DOCKED: ATOM     12  H   UNL     1     142.561  78.805 220.315 -0.28 -0.15    +0.164 HD 
DOCKED: BRANCH  10  13
DOCKED: ATOM     13  C   UNL     1     142.709  77.263 218.183 -0.26 -0.08    +0.128 A  
DOCKED: ATOM     14  C   UNL     1     142.638  76.564 216.982 -0.19 -0.02    +0.035 A  
DOCKED: ATOM     15  N   UNL     1     143.242  76.684 219.274 -0.26 +0.17    -0.243 NA 
DOCKED: ATOM     16  C   UNL     1     143.134  75.259 216.955 -0.15 -0.01    +0.013 A  
DOCKED: ATOM     17  C   UNL     1     143.723  75.441 219.274 -0.31 -0.04    +0.071 A  
DOCKED: ATOM     18  C   UNL     1     143.667  74.724 218.100 -0.20 -0.00    +0.002 A  
DOCKED: ATOM     19  C   UNL     1     144.245  74.953 220.447 -0.32 -0.02    +0.030 A  
DOCKED: ATOM     20  C   UNL     1     144.177  73.435 218.140 -0.16 -0.00    +0.030 A  
DOCKED: ATOM     21  C   UNL     1     144.743  73.662 220.442 -0.50 -0.00    +0.023 A  
DOCKED: ATOM     22  C   UNL     1     144.716  72.881 219.283 -0.29 +0.00    +0.041 A  
DOCKED: ATOM     23  Cl  UNL     1     145.363  71.275 219.373 -0.35 -0.03    -0.084 Cl 
DOCKED: ENDBRANCH  10  13
DOCKED: ENDBRANCH   8   9
DOCKED: ENDBRANCH   6   8
DOCKED: ENDBRANCH   1   6
DOCKED: BRANCH   5  24
DOCKED: ATOM     24  C   UNL     1     141.791  78.300 222.922 -0.16 -0.12    +0.254 C  
DOCKED: BRANCH  24  25
DOCKED: ATOM     25  O   UNL     1     141.368  77.697 221.738 -0.12 +0.25    -0.491 OA 
DOCKED: BRANCH  25  26
DOCKED: ATOM     26  C   UNL     1     140.630  76.522 221.756 -0.32 -0.04    +0.120 A  
DOCKED: ATOM     27  C   UNL     1     139.265  76.493 222.008 -0.30 -0.01    +0.046 A  
DOCKED: ATOM     28  C   UNL     1     141.231  75.305 221.518 -0.31 -0.02    +0.067 A  
DOCKED: ATOM     29  C   UNL     1     138.541  75.329 222.024 -0.26 -0.00    +0.005 A  
DOCKED: ATOM     30  C   UNL     1     140.576  74.104 221.518 -0.29 -0.01    +0.044 A  
DOCKED: ATOM     31  C   UNL     1     139.214  74.129 221.775 -0.24 -0.00    +0.021 A  
DOCKED: ATOM     32  Cl  UNL     1     141.349  72.584 221.217 -0.32 +0.01    -0.084 Cl 
DOCKED: ENDBRANCH  25  26
DOCKED: ENDBRANCH  24  25
DOCKED: ENDBRANCH   5  24
DOCKED: TORSDOF 7
DOCKED: TER
DOCKED: ENDMDL
________________________________________________________________________________


    FINAL DOCKED STATE:
    ________________________


Run:   6 / 20
Time taken for this run:   0.042s

DOCKED: MODEL        6
DOCKED: USER    Run = 6
DOCKED: USER
DOCKED: USER    Estimated Free Energy of Binding    =  -7.70 kcal/mol  [=(1)+(2)+(3)-(4)]
DOCKED: USER
DOCKED: USER    (1) Final Intermolecular Energy     =  -9.79 kcal/mol
DOCKED: USER        vdW + Hbond + desolv Energy     =  -9.86 kcal/mol
DOCKED: USER        Electrostatic Energy            =  +0.07 kcal/mol
DOCKED: USER        Moving Ligand-Fixed Receptor    =  -9.79 kcal/mol
DOCKED: USER        Moving Ligand-Moving Receptor   =  +0.00 kcal/mol
DOCKED: USER    (2) Final Total Internal Energy     =  -2.61 kcal/mol
DOCKED: USER    (3) Torsional Free Energy           =  +2.09 kcal/mol
DOCKED: USER    (4) Unbound System's Energy         =  -2.61 kcal/mol
DOCKED: USER
DOCKED: USER
DOCKED: REMARK SMILES O=C(NCC(=O)N1CCC[C@H]1COc1cccc(Cl)c1)c1ccc2cc(Cl)ccc2n1
DOCKED: REMARK SMILES IDX 7 1 8 2 9 3 10 4 11 5 5 6 6 7 4 8 3 9 2 10 1 11 21 13 22 14
DOCKED: REMARK SMILES IDX 31 15 23 16 30 17 24 18 29 19 25 20 28 21 26 22 27 23 12 24
DOCKED: REMARK SMILES IDX 13 25 14 26 15 27 20 28 16 29 18 30 17 31 19 32
DOCKED: REMARK H PARENT 3 12
DOCKED: USER                              x       y       z     vdW  Elec       q    Type
DOCKED: USER                           _______ _______ _______ _____ _____    ______ ____
DOCKED: ROOT
DOCKED: ATOM      1  N   UNL     1     140.588  76.096 220.623 -0.08 +0.11    -0.335 N  
DOCKED: ATOM      2  C   UNL     1     141.073  76.316 221.971 -0.28 -0.04    +0.120 C  
DOCKED: ATOM      3  C   UNL     1     140.914  77.833 222.046 -0.40 -0.01    +0.024 C  
DOCKED: ATOM      4  C   UNL     1     141.605  78.237 220.763 -0.32 -0.02    +0.030 C  
DOCKED: ATOM      5  C   UNL     1     141.204  77.130 219.818 -0.18 -0.05    +0.123 C  
DOCKED: ENDROOT
DOCKED: BRANCH   1   6
DOCKED: ATOM      6  C   UNL     1     139.694  75.056 220.260 -0.08 -0.06    +0.242 C  
DOCKED: ATOM      7  O   UNL     1     140.058  74.330 219.278 -0.02 +0.06    -0.273 OA 
DOCKED: BRANCH   6   8
DOCKED: ATOM      8  C   UNL     1     138.413  74.782 220.936 -0.10 -0.05    +0.216 C  
DOCKED: BRANCH   8   9
DOCKED: ATOM      9  N   UNL     1     138.708  73.783 221.971 -0.11 +0.09    -0.342 N  
DOCKED: ATOM     10  C   UNL     1     138.942  72.418 221.657 -0.11 -0.06    +0.270 C  
DOCKED: ATOM     11  O   UNL     1     138.911  71.974 220.464 -0.03 +0.05    -0.268 OA 
DOCKED: ATOM     12  H   UNL     1     138.750  74.072 222.970 -0.56 -0.10    +0.164 HD 
DOCKED: BRANCH  10  13
DOCKED: ATOM     13  C   UNL     1     139.231  71.489 222.770 -0.23 -0.03    +0.128 A  
DOCKED: ATOM     14  C   UNL     1     138.882  70.149 222.633 -0.19 -0.01    +0.035 A  
DOCKED: ATOM     15  N   UNL     1     139.821  71.923 223.898 -0.21 +0.06    -0.243 NA 
DOCKED: ATOM     16  C   UNL     1     139.163  69.287 223.695 -0.28 -0.00    +0.013 A  
DOCKED: ATOM     17  C   UNL     1     140.099  71.121 224.926 -0.45 -0.01    +0.071 A  
DOCKED: ATOM     18  C   UNL     1     139.766  69.790 224.820 -0.39 -0.00    +0.002 A  
DOCKED: ATOM     19  C   UNL     1     140.704  71.675 226.029 -0.58 -0.00    +0.030 A  
DOCKED: ATOM     20  C   UNL     1     140.072  68.988 225.909 -0.48 -0.01    +0.030 A  
DOCKED: ATOM     21  C   UNL     1     140.992  70.839 227.093 -0.64 -0.00    +0.023 A  
DOCKED: ATOM     22  C   UNL     1     140.679  69.477 227.049 -0.55 -0.01    +0.041 A  
DOCKED: ATOM     23  Cl  UNL     1     141.077  68.509 228.430 -0.76 +0.02    -0.084 Cl 
DOCKED: ENDBRANCH  10  13
DOCKED: ENDBRANCH   8   9
DOCKED: ENDBRANCH   6   8
DOCKED: ENDBRANCH   1   6
DOCKED: BRANCH   5  24
DOCKED: ATOM     24  C   UNL     1     142.414  76.521 219.138 -0.20 -0.14    +0.254 C  
DOCKED: BRANCH  24  25
DOCKED: ATOM     25  O   UNL     1     143.436  76.217 220.038 -0.17 +0.36    -0.491 OA 
DOCKED: BRANCH  25  26
DOCKED: ATOM     26  C   UNL     1     143.830  74.905 220.259 -0.32 -0.06    +0.120 A  
DOCKED: ATOM     27  C   UNL     1     145.151  74.545 220.490 -0.43 -0.02    +0.046 A  
DOCKED: ATOM     28  C   UNL     1     142.910  73.880 220.260 -0.27 -0.02    +0.067 A  
DOCKED: ATOM     29  C   UNL     1     145.536  73.247 220.707 -0.62 -0.00    +0.005 A  
DOCKED: ATOM     30  C   UNL     1     143.217  72.563 220.469 -0.28 -0.01    +0.044 A  
DOCKED: ATOM     31  C   UNL     1     144.550  72.256 220.694 -0.36 -0.00    +0.021 A  
DOCKED: ATOM     32  Cl  UNL     1     142.047  71.288 220.466 -0.18 +0.01    -0.084 Cl 
DOCKED: ENDBRANCH  25  26
DOCKED: ENDBRANCH  24  25
DOCKED: ENDBRANCH   5  24
DOCKED: TORSDOF 7
DOCKED: TER
DOCKED: ENDMDL
________________________________________________________________________________


    FINAL DOCKED STATE:
    ________________________


Run:   7 / 20
Time taken for this run:   0.042s

DOCKED: MODEL        7
DOCKED: USER    Run = 7
DOCKED: USER
DOCKED: USER    Estimated Free Energy of Binding    =  -8.40 kcal/mol  [=(1)+(2)+(3)-(4)]
DOCKED: USER
DOCKED: USER    (1) Final Intermolecular Energy     = -10.49 kcal/mol
DOCKED: USER        vdW + Hbond + desolv Energy     = -10.45 kcal/mol
DOCKED: USER        Electrostatic Energy            =  -0.03 kcal/mol
DOCKED: USER        Moving Ligand-Fixed Receptor    = -10.49 kcal/mol
DOCKED: USER        Moving Ligand-Moving Receptor   =  +0.00 kcal/mol
DOCKED: USER    (2) Final Total Internal Energy     =  -2.76 kcal/mol
DOCKED: USER    (3) Torsional Free Energy           =  +2.09 kcal/mol
DOCKED: USER    (4) Unbound System's Energy         =  -2.76 kcal/mol
DOCKED: USER
DOCKED: USER
DOCKED: REMARK SMILES O=C(NCC(=O)N1CCC[C@H]1COc1cccc(Cl)c1)c1ccc2cc(Cl)ccc2n1
DOCKED: REMARK SMILES IDX 7 1 8 2 9 3 10 4 11 5 5 6 6 7 4 8 3 9 2 10 1 11 21 13 22 14
DOCKED: REMARK SMILES IDX 31 15 23 16 30 17 24 18 29 19 25 20 28 21 26 22 27 23 12 24
DOCKED: REMARK SMILES IDX 13 25 14 26 15 27 20 28 16 29 18 30 17 31 19 32
DOCKED: REMARK H PARENT 3 12
DOCKED: USER                              x       y       z     vdW  Elec       q    Type
DOCKED: USER                           _______ _______ _______ _____ _____    ______ ____
DOCKED: ROOT
DOCKED: ATOM      1  N   UNL     1     141.211  77.540 220.877 -0.12 +0.16    -0.335 N  
DOCKED: ATOM      2  C   UNL     1     141.697  78.792 221.423 -0.32 -0.06    +0.120 C  
DOCKED: ATOM      3  C   UNL     1     141.231  79.740 220.319 -0.27 -0.01    +0.024 C  
DOCKED: ATOM      4  C   UNL     1     141.769  79.018 219.104 -0.27 -0.02    +0.030 C  
DOCKED: ATOM      5  C   UNL     1     141.565  77.568 219.473 -0.20 -0.06    +0.123 C  
DOCKED: ENDROOT
DOCKED: BRANCH   1   6
DOCKED: ATOM      6  C   UNL     1     140.538  76.551 221.638 -0.25 -0.08    +0.242 C  
DOCKED: ATOM      7  O   UNL     1     140.671  76.637 222.902 -0.22 +0.07    -0.273 OA 
DOCKED: BRANCH   6   8
DOCKED: ATOM      8  C   UNL     1     139.721  75.467 221.061 -0.17 -0.05    +0.216 C  
DOCKED: BRANCH   8   9
DOCKED: ATOM      9  N   UNL     1     139.710  74.394 222.063 -0.13 +0.04    -0.342 N  
DOCKED: ATOM     10  C   UNL     1     139.725  73.021 221.699 -0.17 -0.05    +0.270 C  
DOCKED: ATOM     11  O   UNL     1     139.749  72.634 220.487 -0.05 +0.05    -0.268 OA 
DOCKED: ATOM     12  H   UNL     1     139.691  74.634 223.076 -0.40 +0.01    +0.164 HD 
DOCKED: BRANCH  10  13
DOCKED: ATOM     13  C   UNL     1     139.712  72.015 222.783 -0.27 -0.02    +0.128 A  
DOCKED: ATOM     14  C   UNL     1     139.047  70.811 222.572 -0.21 -0.01    +0.035 A  
DOCKED: ATOM     15  N   UNL     1     140.329  72.252 223.954 -0.23 +0.03    -0.243 NA 
DOCKED: ATOM     16  C   UNL     1     139.046  69.874 223.607 -0.27 -0.00    +0.013 A  
DOCKED: ATOM     17  C   UNL     1     140.342  71.375 224.958 -0.46 -0.01    +0.071 A  
DOCKED: ATOM     18  C   UNL     1     139.693  70.174 224.779 -0.41 -0.00    +0.002 A  
DOCKED: ATOM     19  C   UNL     1     141.005  71.724 226.109 -0.62 -0.00    +0.030 A  
DOCKED: ATOM     20  C   UNL     1     139.730  69.288 225.844 -0.45 -0.00    +0.030 A  
DOCKED: ATOM     21  C   UNL     1     141.017  70.810 227.148 -0.64 -0.00    +0.023 A  
DOCKED: ATOM     22  C   UNL     1     140.376  69.573 227.031 -0.54 -0.01    +0.041 A  
DOCKED: ATOM     23  Cl  UNL     1     140.445  68.493 228.384 -0.77 +0.02    -0.084 Cl 
DOCKED: ENDBRANCH  10  13
DOCKED: ENDBRANCH   8   9
DOCKED: ENDBRANCH   6   8
DOCKED: ENDBRANCH   1   6
DOCKED: BRANCH   5  24
DOCKED: ATOM     24  C   UNL     1     142.846  76.773 219.309 -0.24 -0.17    +0.254 C  
DOCKED: BRANCH  24  25
DOCKED: ATOM     25  O   UNL     1     142.616  75.487 218.819 -0.05 +0.21    -0.491 OA 
DOCKED: BRANCH  25  26
DOCKED: ATOM     26  C   UNL     1     143.085  74.369 219.492 -0.22 -0.04    +0.120 A  
DOCKED: ATOM     27  C   UNL     1     142.391  73.167 219.532 -0.14 -0.01    +0.046 A  
DOCKED: ATOM     28  C   UNL     1     144.287  74.401 220.166 -0.42 -0.03    +0.067 A  
DOCKED: ATOM     29  C   UNL     1     142.859  72.065 220.200 -0.23 -0.00    +0.005 A  
DOCKED: ATOM     30  C   UNL     1     144.818  73.344 220.853 -0.51 -0.01    +0.044 A  
DOCKED: ATOM     31  C   UNL     1     144.086  72.167 220.863 -0.33 -0.00    +0.021 A  
DOCKED: ATOM     32  Cl  UNL     1     146.331  73.403 221.694 -0.86 +0.01    -0.084 Cl 
DOCKED: ENDBRANCH  25  26
DOCKED: ENDBRANCH  24  25
DOCKED: ENDBRANCH   5  24
DOCKED: TORSDOF 7
DOCKED: TER
DOCKED: ENDMDL
________________________________________________________________________________


    FINAL DOCKED STATE:
    ________________________


Run:   8 / 20
Time taken for this run:   0.042s

DOCKED: MODEL        8
DOCKED: USER    Run = 8
DOCKED: USER
DOCKED: USER    Estimated Free Energy of Binding    =  -8.45 kcal/mol  [=(1)+(2)+(3)-(4)]
DOCKED: USER
DOCKED: USER    (1) Final Intermolecular Energy     = -10.53 kcal/mol
DOCKED: USER        vdW + Hbond + desolv Energy     = -10.45 kcal/mol
DOCKED: USER        Electrostatic Energy            =  -0.08 kcal/mol
DOCKED: USER        Moving Ligand-Fixed Receptor    = -10.53 kcal/mol
DOCKED: USER        Moving Ligand-Moving Receptor   =  +0.00 kcal/mol
DOCKED: USER    (2) Final Total Internal Energy     =  -2.64 kcal/mol
DOCKED: USER    (3) Torsional Free Energy           =  +2.09 kcal/mol
DOCKED: USER    (4) Unbound System's Energy         =  -2.64 kcal/mol
DOCKED: USER
DOCKED: USER
DOCKED: REMARK SMILES O=C(NCC(=O)N1CCC[C@H]1COc1cccc(Cl)c1)c1ccc2cc(Cl)ccc2n1
DOCKED: REMARK SMILES IDX 7 1 8 2 9 3 10 4 11 5 5 6 6 7 4 8 3 9 2 10 1 11 21 13 22 14
DOCKED: REMARK SMILES IDX 31 15 23 16 30 17 24 18 29 19 25 20 28 21 26 22 27 23 12 24
DOCKED: REMARK SMILES IDX 13 25 14 26 15 27 20 28 16 29 18 30 17 31 19 32
DOCKED: REMARK H PARENT 3 12
DOCKED: USER                              x       y       z     vdW  Elec       q    Type
DOCKED: USER                           _______ _______ _______ _____ _____    ______ ____
DOCKED: ROOT
DOCKED: ATOM      1  N   UNL     1     140.810  77.429 221.173 -0.11 +0.13    -0.335 N  
DOCKED: ATOM      2  C   UNL     1     141.227  78.559 221.979 -0.35 -0.05    +0.120 C  
DOCKED: ATOM      3  C   UNL     1     140.940  79.687 220.989 -0.28 -0.01    +0.024 C  
DOCKED: ATOM      4  C   UNL     1     141.640  79.148 219.761 -0.27 -0.02    +0.030 C  
DOCKED: ATOM      5  C   UNL     1     141.366  77.667 219.858 -0.20 -0.06    +0.123 C  
DOCKED: ENDROOT
DOCKED: BRANCH   1   6
DOCKED: ATOM      6  C   UNL     1     140.019  76.357 221.659 -0.23 -0.06    +0.242 C  
DOCKED: ATOM      7  O   UNL     1     139.435  76.558 222.773 -0.24 +0.05    -0.273 OA 
DOCKED: BRANCH   6   8
DOCKED: ATOM      8  C   UNL     1     139.846  75.067 220.966 -0.16 -0.05    +0.216 C  
DOCKED: BRANCH   8   9
DOCKED: ATOM      9  N   UNL     1     139.821  74.044 222.018 -0.14 +0.04    -0.342 N  
DOCKED: ATOM     10  C   UNL     1     140.107  72.679 221.751 -0.18 -0.04    +0.270 C  
DOCKED: ATOM     11  O   UNL     1     140.402  72.255 220.588 -0.07 +0.04    -0.268 OA 
DOCKED: ATOM     12  H   UNL     1     139.587  74.315 222.995 -0.46 -0.01    +0.164 HD 
DOCKED: BRANCH  10  13
DOCKED: ATOM     13  C   UNL     1     140.054  71.724 222.880 -0.28 -0.02    +0.128 A  
DOCKED: ATOM     14  C   UNL     1     139.504  70.464 222.667 -0.22 -0.01    +0.035 A  
DOCKED: ATOM     15  N   UNL     1     140.528  72.060 224.092 -0.20 +0.03    -0.243 NA 
DOCKED: ATOM     16  C   UNL     1     139.464  69.577 223.744 -0.26 -0.00    +0.013 A  
DOCKED: ATOM     17  C   UNL     1     140.501  71.233 225.137 -0.49 -0.01    +0.071 A  
DOCKED: ATOM     18  C   UNL     1     139.963  69.978 224.958 -0.42 -0.00    +0.002 A  
DOCKED: ATOM     19  C   UNL     1     141.014  71.684 226.329 -0.66 -0.00    +0.030 A  
DOCKED: ATOM     20  C   UNL     1     139.954  69.147 226.067 -0.48 -0.00    +0.030 A  
DOCKED: ATOM     21  C   UNL     1     140.985  70.822 227.410 -0.65 -0.00    +0.023 A  
DOCKED: ATOM     22  C   UNL     1     140.451  69.534 227.295 -0.56 -0.01    +0.041 A  
DOCKED: ATOM     23  Cl  UNL     1     140.458  68.525 228.704 -0.69 +0.02    -0.084 Cl 
DOCKED: ENDBRANCH  10  13
DOCKED: ENDBRANCH   8   9
DOCKED: ENDBRANCH   6   8
DOCKED: ENDBRANCH   1   6
DOCKED: BRANCH   5  24
DOCKED: ATOM     24  C   UNL     1     142.647  76.862 219.750 -0.21 -0.17    +0.254 C  
DOCKED: BRANCH  24  25
DOCKED: ATOM     25  O   UNL     1     142.408  75.493 219.629 -0.07 +0.22    -0.491 OA 
DOCKED: BRANCH  25  26
DOCKED: ATOM     26  C   UNL     1     143.375  74.563 219.978 -0.30 -0.05    +0.120 A  
DOCKED: ATOM     27  C   UNL     1     144.623  74.922 220.469 -0.33 -0.02    +0.046 A  
DOCKED: ATOM     28  C   UNL     1     143.137  73.212 219.851 -0.22 -0.01    +0.067 A  
DOCKED: ATOM     29  C   UNL     1     145.577  73.997 220.812 -0.64 -0.00    +0.005 A  
DOCKED: ATOM     30  C   UNL     1     144.036  72.232 220.172 -0.30 -0.00    +0.044 A  
DOCKED: ATOM     31  C   UNL     1     145.268  72.642 220.657 -0.49 -0.00    +0.021 A  
DOCKED: ATOM     32  Cl  UNL     1     143.717  70.538 220.006 -0.25 +0.00    -0.084 Cl 
DOCKED: ENDBRANCH  25  26
DOCKED: ENDBRANCH  24  25
DOCKED: ENDBRANCH   5  24
DOCKED: TORSDOF 7
DOCKED: TER
DOCKED: ENDMDL
________________________________________________________________________________


    FINAL DOCKED STATE:
    ________________________


Run:   9 / 20
Time taken for this run:   0.042s

DOCKED: MODEL        9
DOCKED: USER    Run = 9
DOCKED: USER
DOCKED: USER    Estimated Free Energy of Binding    =  -8.23 kcal/mol  [=(1)+(2)+(3)-(4)]
DOCKED: USER
DOCKED: USER    (1) Final Intermolecular Energy     = -10.31 kcal/mol
DOCKED: USER        vdW + Hbond + desolv Energy     = -10.33 kcal/mol
DOCKED: USER        Electrostatic Energy            =  +0.02 kcal/mol
DOCKED: USER        Moving Ligand-Fixed Receptor    = -10.31 kcal/mol
DOCKED: USER        Moving Ligand-Moving Receptor   =  +0.00 kcal/mol
DOCKED: USER    (2) Final Total Internal Energy     =  -2.41 kcal/mol
DOCKED: USER    (3) Torsional Free Energy           =  +2.09 kcal/mol
DOCKED: USER    (4) Unbound System's Energy         =  -2.41 kcal/mol
DOCKED: USER
DOCKED: USER
DOCKED: REMARK SMILES O=C(NCC(=O)N1CCC[C@H]1COc1cccc(Cl)c1)c1ccc2cc(Cl)ccc2n1
DOCKED: REMARK SMILES IDX 7 1 8 2 9 3 10 4 11 5 5 6 6 7 4 8 3 9 2 10 1 11 21 13 22 14
DOCKED: REMARK SMILES IDX 31 15 23 16 30 17 24 18 29 19 25 20 28 21 26 22 27 23 12 24
DOCKED: REMARK SMILES IDX 13 25 14 26 15 27 20 28 16 29 18 30 17 31 19 32
DOCKED: REMARK H PARENT 3 12
DOCKED: USER                              x       y       z     vdW  Elec       q    Type
DOCKED: USER                           _______ _______ _______ _____ _____    ______ ____
DOCKED: ROOT
DOCKED: ATOM      1  N   UNL     1     141.383  75.907 220.084 -0.08 +0.13    -0.335 N  
DOCKED: ATOM      2  C   UNL     1     141.920  75.094 219.011 -0.12 -0.04    +0.120 C  
DOCKED: ATOM      3  C   UNL     1     143.306  75.725 218.892 -0.32 -0.01    +0.024 C  
DOCKED: ATOM      4  C   UNL     1     142.926  77.188 218.811 -0.33 -0.02    +0.030 C  
DOCKED: ATOM      5  C   UNL     1     141.753  77.269 219.758 -0.23 -0.07    +0.123 C  
DOCKED: ENDROOT
DOCKED: BRANCH   1   6
DOCKED: ATOM      6  C   UNL     1     140.658  75.388 221.187 -0.22 -0.06    +0.242 C  
DOCKED: ATOM      7  O   UNL     1     141.086  75.725 222.339 -0.40 +0.06    -0.273 OA 
DOCKED: BRANCH   6   8
DOCKED: ATOM      8  C   UNL     1     139.479  74.511 221.073 -0.15 -0.04    +0.216 C  
DOCKED: BRANCH   8   9
DOCKED: ATOM      9  N   UNL     1     139.614  73.513 222.141 -0.14 +0.06    -0.342 N  
DOCKED: ATOM     10  C   UNL     1     139.340  72.136 221.926 -0.15 -0.05    +0.270 C  
DOCKED: ATOM     11  O   UNL     1     138.962  71.680 220.800 -0.04 +0.05    -0.268 OA 
DOCKED: ATOM     12  H   UNL     1     139.920  73.811 223.090 -0.35 +0.02    +0.164 HD 
DOCKED: BRANCH  10  13
DOCKED: ATOM     13  C   UNL     1     139.506  71.209 223.067 -0.26 -0.02    +0.128 A  
DOCKED: ATOM     14  C   UNL     1     139.022  69.909 222.950 -0.21 -0.01    +0.035 A  
DOCKED: ATOM     15  N   UNL     1     140.112  71.607 224.199 -0.28 +0.04    -0.243 NA 
DOCKED: ATOM     16  C   UNL     1     139.188  69.049 224.037 -0.30 -0.00    +0.013 A  
DOCKED: ATOM     17  C   UNL     1     140.283  70.806 225.251 -0.47 -0.01    +0.071 A  
DOCKED: ATOM     18  C   UNL     1     139.815  69.514 225.166 -0.41 -0.00    +0.002 A  
DOCKED: ATOM     19  C   UNL     1     140.916  71.320 226.356 -0.65 -0.00    +0.030 A  
DOCKED: ATOM     20  C   UNL     1     140.011  68.712 226.279 -0.54 -0.01    +0.030 A  
DOCKED: ATOM     21  C   UNL     1     141.092  70.486 227.444 -0.59 -0.00    +0.023 A  
DOCKED: ATOM     22  C   UNL     1     140.640  69.163 227.423 -0.59 -0.01    +0.041 A  
DOCKED: ATOM     23  Cl  UNL     1     140.904  68.192 228.834 -0.58 +0.02    -0.084 Cl 
DOCKED: ENDBRANCH  10  13
DOCKED: ENDBRANCH   8   9
DOCKED: ENDBRANCH   6   8
DOCKED: ENDBRANCH   1   6
DOCKED: BRANCH   5  24
DOCKED: ATOM     24  C   UNL     1     140.555  77.922 219.096 -0.06 -0.10    +0.254 C  
DOCKED: BRANCH  24  25
DOCKED: ATOM     25  O   UNL     1     140.153  79.087 219.750 +0.01 +0.17    -0.491 OA 
DOCKED: BRANCH  25  26
DOCKED: ATOM     26  C   UNL     1     140.257  79.208 221.128 -0.17 -0.04    +0.120 A  
DOCKED: ATOM     27  C   UNL     1     139.244  78.823 221.996 -0.22 -0.01    +0.046 A  
DOCKED: ATOM     28  C   UNL     1     141.393  79.727 221.709 -0.36 -0.02    +0.067 A  
DOCKED: ATOM     29  C   UNL     1     139.351  78.946 223.357 -0.35 -0.00    +0.005 A  
DOCKED: ATOM     30  C   UNL     1     141.573  79.880 223.057 -0.52 -0.01    +0.044 A  
DOCKED: ATOM     31  C   UNL     1     140.532  79.481 223.881 -0.47 -0.00    +0.021 A  
DOCKED: ATOM     32  Cl  UNL     1     143.009  80.534 223.769 -0.77 +0.02    -0.084 Cl 
DOCKED: ENDBRANCH  25  26
DOCKED: ENDBRANCH  24  25
DOCKED: ENDBRANCH   5  24
DOCKED: TORSDOF 7
DOCKED: TER
DOCKED: ENDMDL
________________________________________________________________________________


    FINAL DOCKED STATE:
    ________________________


Run:   10 / 20
Time taken for this run:   0.042s

DOCKED: MODEL        10
DOCKED: USER    Run = 10
DOCKED: USER
DOCKED: USER    Estimated Free Energy of Binding    =  -7.61 kcal/mol  [=(1)+(2)+(3)-(4)]
DOCKED: USER
DOCKED: USER    (1) Final Intermolecular Energy     =  -9.70 kcal/mol
DOCKED: USER        vdW + Hbond + desolv Energy     =  -9.61 kcal/mol
DOCKED: USER        Electrostatic Energy            =  -0.09 kcal/mol
DOCKED: USER        Moving Ligand-Fixed Receptor    =  -9.70 kcal/mol
DOCKED: USER        Moving Ligand-Moving Receptor   =  +0.00 kcal/mol
DOCKED: USER    (2) Final Total Internal Energy     =  -3.00 kcal/mol
DOCKED: USER    (3) Torsional Free Energy           =  +2.09 kcal/mol
DOCKED: USER    (4) Unbound System's Energy         =  -3.00 kcal/mol
DOCKED: USER
DOCKED: USER
DOCKED: REMARK SMILES O=C(NCC(=O)N1CCC[C@H]1COc1cccc(Cl)c1)c1ccc2cc(Cl)ccc2n1
DOCKED: REMARK SMILES IDX 7 1 8 2 9 3 10 4 11 5 5 6 6 7 4 8 3 9 2 10 1 11 21 13 22 14
DOCKED: REMARK SMILES IDX 31 15 23 16 30 17 24 18 29 19 25 20 28 21 26 22 27 23 12 24
DOCKED: REMARK SMILES IDX 13 25 14 26 15 27 20 28 16 29 18 30 17 31 19 32
DOCKED: REMARK H PARENT 3 12
DOCKED: USER                              x       y       z     vdW  Elec       q    Type
DOCKED: USER                           _______ _______ _______ _____ _____    ______ ____
DOCKED: ROOT
DOCKED: ATOM      1  N   UNL     1     138.728  71.182 223.569 -0.13 +0.08    -0.335 N  
DOCKED: ATOM      2  C   UNL     1     139.011  69.791 223.863 -0.25 -0.02    +0.120 C  
DOCKED: ATOM      3  C   UNL     1     139.783  69.967 225.170 -0.43 -0.00    +0.024 C  
DOCKED: ATOM      4  C   UNL     1     140.783  71.021 224.748 -0.45 -0.00    +0.030 C  
DOCKED: ATOM      5  C   UNL     1     139.966  71.889 223.822 -0.25 -0.02    +0.123 C  
DOCKED: ENDROOT
DOCKED: BRANCH   1   6
DOCKED: ATOM      6  C   UNL     1     137.467  71.660 223.129 -0.11 -0.07    +0.242 C  
DOCKED: ATOM      7  O   UNL     1     136.467  71.324 223.844 -0.14 +0.05    -0.273 OA 
DOCKED: BRANCH   6   8
DOCKED: ATOM      8  C   UNL     1     137.262  72.495 221.931 -0.09 -0.05    +0.216 C  
DOCKED: BRANCH   8   9
DOCKED: ATOM      9  N   UNL     1     137.826  73.811 222.256 +0.00 +0.12    -0.342 N  
DOCKED: ATOM     10  C   UNL     1     137.149  75.020 221.946 -0.12 -0.07    +0.270 C  
DOCKED: ATOM     11  O   UNL     1     136.015  75.041 221.370 -0.04 +0.05    -0.268 OA 
DOCKED: ATOM     12  H   UNL     1     138.752  73.873 222.728 -0.55 -0.07    +0.164 HD 
DOCKED: BRANCH  10  13
DOCKED: ATOM     13  C   UNL     1     137.801  76.296 222.313 -0.23 -0.03    +0.128 A  
DOCKED: ATOM     14  C   UNL     1     137.003  77.404 222.577 -0.21 -0.01    +0.035 A  
DOCKED: ATOM     15  N   UNL     1     139.140  76.389 222.393 -0.23 +0.05    -0.243 NA 
DOCKED: ATOM     16  C   UNL     1     137.638  78.599 222.922 -0.20 -0.00    +0.013 A  
DOCKED: ATOM     17  C   UNL     1     139.770  77.518 222.720 -0.28 -0.01    +0.071 A  
DOCKED: ATOM     18  C   UNL     1     139.008  78.633 222.987 -0.33 -0.00    +0.002 A  
DOCKED: ATOM     19  C   UNL     1     141.143  77.497 222.771 -0.38 -0.01    +0.030 A  
DOCKED: ATOM     20  C   UNL     1     139.699  79.786 223.324 -0.40 -0.00    +0.030 A  
DOCKED: ATOM     21  C   UNL     1     141.792  78.670 223.112 -0.55 -0.01    +0.023 A  
DOCKED: ATOM     22  C   UNL     1     141.076  79.838 223.395 -0.50 -0.01    +0.041 A  
DOCKED: ATOM     23  Cl  UNL     1     141.976  81.259 223.812 -0.71 +0.01    -0.084 Cl 
DOCKED: ENDBRANCH  10  13
DOCKED: ENDBRANCH   8   9
DOCKED: ENDBRANCH   6   8
DOCKED: ENDBRANCH   1   6
DOCKED: BRANCH   5  24
DOCKED: ATOM     24  C   UNL     1     140.663  72.082 222.490 -0.20 -0.02    +0.254 C  
DOCKED: BRANCH  24  25
DOCKED: ATOM     25  O   UNL     1     140.535  73.383 222.004 -0.58 +0.03    -0.491 OA 
DOCKED: BRANCH  25  26
DOCKED: ATOM     26  C   UNL     1     141.534  73.965 221.237 -0.22 -0.02    +0.120 A  
DOCKED: ATOM     27  C   UNL     1     141.377  75.187 220.598 -0.25 -0.01    +0.046 A  
DOCKED: ATOM     28  C   UNL     1     142.752  73.343 221.073 -0.06 -0.01    +0.067 A  
DOCKED: ATOM     29  C   UNL     1     142.368  75.757 219.841 -0.30 -0.00    +0.005 A  
DOCKED: ATOM     30  C   UNL     1     143.787  73.849 220.335 -0.37 -0.01    +0.044 A  
DOCKED: ATOM     31  C   UNL     1     143.580  75.072 219.716 -0.39 -0.01    +0.021 A  
DOCKED: ATOM     32  Cl  UNL     1     145.312  73.053 220.140 -0.66 -0.00    -0.084 Cl 
DOCKED: ENDBRANCH  25  26
DOCKED: ENDBRANCH  24  25
DOCKED: ENDBRANCH   5  24
DOCKED: TORSDOF 7
DOCKED: TER
DOCKED: ENDMDL
________________________________________________________________________________


    FINAL DOCKED STATE:
    ________________________


Run:   11 / 20
Time taken for this run:   0.042s

DOCKED: MODEL        11
DOCKED: USER    Run = 11
DOCKED: USER
DOCKED: USER    Estimated Free Energy of Binding    =  -8.61 kcal/mol  [=(1)+(2)+(3)-(4)]
DOCKED: USER
DOCKED: USER    (1) Final Intermolecular Energy     = -10.70 kcal/mol
DOCKED: USER        vdW + Hbond + desolv Energy     = -10.60 kcal/mol
DOCKED: USER        Electrostatic Energy            =  -0.09 kcal/mol
DOCKED: USER        Moving Ligand-Fixed Receptor    = -10.70 kcal/mol
DOCKED: USER        Moving Ligand-Moving Receptor   =  +0.00 kcal/mol
DOCKED: USER    (2) Final Total Internal Energy     =  -2.11 kcal/mol
DOCKED: USER    (3) Torsional Free Energy           =  +2.09 kcal/mol
DOCKED: USER    (4) Unbound System's Energy         =  -2.11 kcal/mol
DOCKED: USER
DOCKED: USER
DOCKED: REMARK SMILES O=C(NCC(=O)N1CCC[C@H]1COc1cccc(Cl)c1)c1ccc2cc(Cl)ccc2n1
DOCKED: REMARK SMILES IDX 7 1 8 2 9 3 10 4 11 5 5 6 6 7 4 8 3 9 2 10 1 11 21 13 22 14
DOCKED: REMARK SMILES IDX 31 15 23 16 30 17 24 18 29 19 25 20 28 21 26 22 27 23 12 24
DOCKED: REMARK SMILES IDX 13 25 14 26 15 27 20 28 16 29 18 30 17 31 19 32
DOCKED: REMARK H PARENT 3 12
DOCKED: USER                              x       y       z     vdW  Elec       q    Type
DOCKED: USER                           _______ _______ _______ _____ _____    ______ ____
DOCKED: ROOT
DOCKED: ATOM      1  N   UNL     1     137.980  70.161 222.171 -0.03 +0.06    -0.335 N  
DOCKED: ATOM      2  C   UNL     1     138.062  69.497 220.886 -0.06 -0.02    +0.120 C  
DOCKED: ATOM      3  C   UNL     1     136.852  68.572 221.009 -0.07 -0.00    +0.024 C  
DOCKED: ATOM      4  C   UNL     1     137.126  67.954 222.362 -0.15 -0.00    +0.030 C  
DOCKED: ATOM      5  C   UNL     1     137.714  69.111 223.132 -0.18 -0.02    +0.123 C  
DOCKED: ENDROOT
DOCKED: BRANCH   1   6
DOCKED: ATOM      6  C   UNL     1     138.141  71.558 222.354 -0.11 -0.06    +0.242 C  
DOCKED: ATOM      7  O   UNL     1     139.250  71.927 222.861 -0.21 +0.07    -0.273 OA 
DOCKED: BRANCH   6   8
DOCKED: ATOM      8  C   UNL     1     137.127  72.569 222.000 -0.09 -0.05    +0.216 C  
DOCKED: BRANCH   8   9
DOCKED: ATOM      9  N   UNL     1     137.726  73.870 222.319 +0.01 +0.13    -0.342 N  
DOCKED: ATOM     10  C   UNL     1     137.070  75.095 222.029 -0.12 -0.07    +0.270 C  
DOCKED: ATOM     11  O   UNL     1     135.924  75.145 221.477 -0.04 +0.05    -0.268 OA 
DOCKED: ATOM     12  H   UNL     1     138.663  73.909 222.772 -0.55 -0.08    +0.164 HD 
DOCKED: BRANCH  10  13
DOCKED: ATOM     13  C   UNL     1     137.758  76.354 222.389 -0.23 -0.03    +0.128 A  
DOCKED: ATOM     14  C   UNL     1     136.990  77.471 222.705 -0.21 -0.01    +0.035 A  
DOCKED: ATOM     15  N   UNL     1     139.100  76.426 222.412 -0.22 +0.05    -0.243 NA 
DOCKED: ATOM     16  C   UNL     1     137.658  78.650 223.042 -0.19 -0.00    +0.013 A  
DOCKED: ATOM     17  C   UNL     1     139.762  77.539 222.729 -0.27 -0.01    +0.071 A  
DOCKED: ATOM     18  C   UNL     1     139.030  78.661 223.048 -0.33 -0.00    +0.002 A  
DOCKED: ATOM     19  C   UNL     1     141.134  77.497 222.720 -0.40 -0.01    +0.030 A  
DOCKED: ATOM     20  C   UNL     1     139.753  79.798 223.373 -0.41 -0.00    +0.030 A  
DOCKED: ATOM     21  C   UNL     1     141.817  78.654 223.052 -0.54 -0.01    +0.023 A  
DOCKED: ATOM     22  C   UNL     1     141.133  79.827 223.384 -0.50 -0.01    +0.041 A  
DOCKED: ATOM     23  Cl  UNL     1     142.073  81.227 223.784 -0.73 +0.01    -0.084 Cl 
DOCKED: ENDBRANCH  10  13
DOCKED: ENDBRANCH   8   9
DOCKED: ENDBRANCH   6   8
DOCKED: ENDBRANCH   1   6
DOCKED: BRANCH   5  24
DOCKED: ATOM     24  C   UNL     1     139.035  68.732 223.772 -0.15 -0.04    +0.254 C  
DOCKED: BRANCH  24  25
DOCKED: ATOM     25  O   UNL     1     138.871  68.134 225.022 -0.53 +0.01    -0.491 OA 
DOCKED: BRANCH  25  26
DOCKED: ATOM     26  C   UNL     1     139.570  68.585 226.131 -0.45 -0.02    +0.120 A  
DOCKED: ATOM     27  C   UNL     1     139.942  67.752 227.177 -0.58 -0.01    +0.046 A  
DOCKED: ATOM     28  C   UNL     1     139.936  69.909 226.247 -0.46 -0.01    +0.067 A  
DOCKED: ATOM     29  C   UNL     1     140.633  68.204 228.272 -0.65 -0.00    +0.005 A  
DOCKED: ATOM     30  C   UNL     1     140.625  70.433 227.306 -0.59 -0.01    +0.044 A  
DOCKED: ATOM     31  C   UNL     1     140.972  69.560 228.325 -0.57 -0.00    +0.021 A  
DOCKED: ATOM     32  Cl  UNL     1     141.076  72.099 227.434 -0.98 +0.02    -0.084 Cl 
DOCKED: ENDBRANCH  25  26
DOCKED: ENDBRANCH  24  25
DOCKED: ENDBRANCH   5  24
DOCKED: TORSDOF 7
DOCKED: TER
DOCKED: ENDMDL
________________________________________________________________________________


    FINAL DOCKED STATE:
    ________________________


Run:   12 / 20
Time taken for this run:   0.042s

DOCKED: MODEL        12
DOCKED: USER    Run = 12
DOCKED: USER
DOCKED: USER    Estimated Free Energy of Binding    =  -7.65 kcal/mol  [=(1)+(2)+(3)-(4)]
DOCKED: USER
DOCKED: USER    (1) Final Intermolecular Energy     =  -9.74 kcal/mol
DOCKED: USER        vdW + Hbond + desolv Energy     =  -9.75 kcal/mol
DOCKED: USER        Electrostatic Energy            =  +0.01 kcal/mol
DOCKED: USER        Moving Ligand-Fixed Receptor    =  -9.74 kcal/mol
DOCKED: USER        Moving Ligand-Moving Receptor   =  +0.00 kcal/mol
DOCKED: USER    (2) Final Total Internal Energy     =  -2.98 kcal/mol
DOCKED: USER    (3) Torsional Free Energy           =  +2.09 kcal/mol
DOCKED: USER    (4) Unbound System's Energy         =  -2.98 kcal/mol
DOCKED: USER
DOCKED: USER
DOCKED: REMARK SMILES O=C(NCC(=O)N1CCC[C@H]1COc1cccc(Cl)c1)c1ccc2cc(Cl)ccc2n1
DOCKED: REMARK SMILES IDX 7 1 8 2 9 3 10 4 11 5 5 6 6 7 4 8 3 9 2 10 1 11 21 13 22 14
DOCKED: REMARK SMILES IDX 31 15 23 16 30 17 24 18 29 19 25 20 28 21 26 22 27 23 12 24
DOCKED: REMARK SMILES IDX 13 25 14 26 15 27 20 28 16 29 18 30 17 31 19 32
DOCKED: REMARK H PARENT 3 12
DOCKED: USER                              x       y       z     vdW  Elec       q    Type
DOCKED: USER                           _______ _______ _______ _____ _____    ______ ____
DOCKED: ROOT
DOCKED: ATOM      1  N   UNL     1     140.910  76.611 220.264 -0.07 +0.13    -0.335 N  
DOCKED: ATOM      2  C   UNL     1     142.141  77.349 220.463 -0.18 -0.08    +0.120 C  
DOCKED: ATOM      3  C   UNL     1     141.769  78.648 219.750 -0.27 -0.01    +0.024 C  
DOCKED: ATOM      4  C   UNL     1     141.252  78.094 218.441 -0.16 -0.02    +0.030 C  
DOCKED: ATOM      5  C   UNL     1     140.547  76.834 218.880 -0.07 -0.04    +0.123 C  
DOCKED: ENDROOT
DOCKED: BRANCH   1   6
DOCKED: ATOM      6  C   UNL     1     140.265  75.855 221.276 -0.21 -0.06    +0.242 C  
DOCKED: ATOM      7  O   UNL     1     140.628  76.105 222.471 -0.38 +0.06    -0.273 OA 
DOCKED: BRANCH   6   8
DOCKED: ATOM      8  C   UNL     1     139.233  74.832 221.024 -0.14 -0.05    +0.216 C  
DOCKED: BRANCH   8   9
DOCKED: ATOM      9  N   UNL     1     139.401  73.823 222.077 -0.13 +0.07    -0.342 N  
DOCKED: ATOM     10  C   UNL     1     139.283  72.432 221.815 -0.14 -0.05    +0.270 C  
DOCKED: ATOM     11  O   UNL     1     139.025  71.973 220.657 -0.04 +0.05    -0.268 OA 
DOCKED: ATOM     12  H   UNL     1     139.613  74.124 223.050 -0.48 -0.01    +0.164 HD 
DOCKED: BRANCH  10  13
DOCKED: ATOM     13  C   UNL     1     139.469  71.494 222.944 -0.26 -0.03    +0.128 A  
DOCKED: ATOM     14  C   UNL     1     139.042  70.178 222.798 -0.20 -0.01    +0.035 A  
DOCKED: ATOM     15  N   UNL     1     140.039  71.899 224.092 -0.25 +0.05    -0.243 NA 
DOCKED: ATOM     16  C   UNL     1     139.226  69.309 223.875 -0.29 -0.00    +0.013 A  
DOCKED: ATOM     17  C   UNL     1     140.227  71.089 225.134 -0.47 -0.01    +0.071 A  
DOCKED: ATOM     18  C   UNL     1     139.815  69.781 225.021 -0.41 -0.00    +0.002 A  
DOCKED: ATOM     19  C   UNL     1     140.820  71.612 226.257 -0.63 -0.00    +0.030 A  
DOCKED: ATOM     20  C   UNL     1     140.027  68.969 226.125 -0.50 -0.01    +0.030 A  
DOCKED: ATOM     21  C   UNL     1     141.014  70.768 227.335 -0.64 -0.00    +0.023 A  
DOCKED: ATOM     22  C   UNL     1     140.617  69.428 227.286 -0.57 -0.01    +0.041 A  
DOCKED: ATOM     23  Cl  UNL     1     140.900  68.446 228.686 -0.71 +0.02    -0.084 Cl 
DOCKED: ENDBRANCH  10  13
DOCKED: ENDBRANCH   8   9
DOCKED: ENDBRANCH   6   8
DOCKED: ENDBRANCH   1   6
DOCKED: BRANCH   5  24
DOCKED: ATOM     24  C   UNL     1     141.018  75.632 218.084 -0.02 -0.08    +0.254 C  
DOCKED: BRANCH  24  25
DOCKED: ATOM     25  O   UNL     1     142.385  75.395 218.235 -0.01 +0.19    -0.491 OA 
DOCKED: BRANCH  25  26
DOCKED: ATOM     26  C   UNL     1     142.852  74.418 219.101 -0.17 -0.04    +0.120 A  
DOCKED: ATOM     27  C   UNL     1     142.092  73.318 219.477 -0.13 -0.01    +0.046 A  
DOCKED: ATOM     28  C   UNL     1     144.118  74.495 219.638 -0.34 -0.03    +0.067 A  
DOCKED: ATOM     29  C   UNL     1     142.558  72.355 220.334 -0.23 -0.00    +0.005 A  
DOCKED: ATOM     30  C   UNL     1     144.653  73.575 220.498 -0.48 -0.01    +0.044 A  
DOCKED: ATOM     31  C   UNL     1     143.853  72.496 220.843 -0.33 -0.00    +0.021 A  
DOCKED: ATOM     32  Cl  UNL     1     146.247  73.689 221.164 -0.82 +0.01    -0.084 Cl 
DOCKED: ENDBRANCH  25  26
DOCKED: ENDBRANCH  24  25
DOCKED: ENDBRANCH   5  24
DOCKED: TORSDOF 7
DOCKED: TER
DOCKED: ENDMDL
________________________________________________________________________________


    FINAL DOCKED STATE:
    ________________________


Run:   13 / 20
Time taken for this run:   0.042s

DOCKED: MODEL        13
DOCKED: USER    Run = 13
DOCKED: USER
DOCKED: USER    Estimated Free Energy of Binding    =  -7.43 kcal/mol  [=(1)+(2)+(3)-(4)]
DOCKED: USER
DOCKED: USER    (1) Final Intermolecular Energy     =  -9.51 kcal/mol
DOCKED: USER        vdW + Hbond + desolv Energy     =  -9.42 kcal/mol
DOCKED: USER        Electrostatic Energy            =  -0.09 kcal/mol
DOCKED: USER        Moving Ligand-Fixed Receptor    =  -9.51 kcal/mol
DOCKED: USER        Moving Ligand-Moving Receptor   =  +0.00 kcal/mol
DOCKED: USER    (2) Final Total Internal Energy     =  -3.01 kcal/mol
DOCKED: USER    (3) Torsional Free Energy           =  +2.09 kcal/mol
DOCKED: USER    (4) Unbound System's Energy         =  -3.01 kcal/mol
DOCKED: USER
DOCKED: USER
DOCKED: REMARK SMILES O=C(NCC(=O)N1CCC[C@H]1COc1cccc(Cl)c1)c1ccc2cc(Cl)ccc2n1
DOCKED: REMARK SMILES IDX 7 1 8 2 9 3 10 4 11 5 5 6 6 7 4 8 3 9 2 10 1 11 21 13 22 14
DOCKED: REMARK SMILES IDX 31 15 23 16 30 17 24 18 29 19 25 20 28 21 26 22 27 23 12 24
DOCKED: REMARK SMILES IDX 13 25 14 26 15 27 20 28 16 29 18 30 17 31 19 32
DOCKED: REMARK H PARENT 3 12
DOCKED: USER                              x       y       z     vdW  Elec       q    Type
DOCKED: USER                           _______ _______ _______ _____ _____    ______ ____
DOCKED: ROOT
DOCKED: ATOM      1  N   UNL     1     139.931  74.691 219.725 -0.01 +0.08    -0.335 N  
DOCKED: ATOM      2  C   UNL     1     140.013  76.080 219.324 -0.06 -0.03    +0.120 C  
DOCKED: ATOM      3  C   UNL     1     141.249  76.007 218.430 -0.10 -0.01    +0.024 C  
DOCKED: ATOM      4  C   UNL     1     142.201  75.277 219.352 -0.22 -0.01    +0.030 C  
DOCKED: ATOM      5  C   UNL     1     141.287  74.304 220.054 -0.15 -0.03    +0.123 C  
DOCKED: ENDROOT
DOCKED: BRANCH   1   6
DOCKED: ATOM      6  C   UNL     1     138.726  73.943 219.758 -0.03 -0.05    +0.242 C  
DOCKED: ATOM      7  O   UNL     1     138.560  73.117 218.802 -0.01 +0.05    -0.273 OA 
DOCKED: BRANCH   6   8
DOCKED: ATOM      8  C   UNL     1     137.693  74.069 220.803 -0.06 -0.05    +0.216 C  
DOCKED: BRANCH   8   9
DOCKED: ATOM      9  N   UNL     1     138.108  73.175 221.890 -0.07 +0.10    -0.342 N  
DOCKED: ATOM     10  C   UNL     1     137.901  71.771 221.832 -0.07 -0.06    +0.270 C  
DOCKED: ATOM     11  O   UNL     1     137.346  71.200 220.840 -0.02 +0.05    -0.268 OA 
DOCKED: ATOM     12  H   UNL     1     138.569  73.569 222.735 -0.53 -0.08    +0.164 HD 
DOCKED: BRANCH  10  13
DOCKED: ATOM     13  C   UNL     1     138.354  70.954 222.980 -0.18 -0.03    +0.128 A  
DOCKED: ATOM     14  C   UNL     1     137.950  69.625 223.057 -0.19 -0.01    +0.035 A  
DOCKED: ATOM     15  N   UNL     1     139.143  71.480 223.933 -0.20 +0.07    -0.243 NA 
DOCKED: ATOM     16  C   UNL     1     138.388  68.871 224.148 -0.32 -0.00    +0.013 A  
DOCKED: ATOM     17  C   UNL     1     139.575  70.782 224.984 -0.40 -0.01    +0.071 A  
DOCKED: ATOM     18  C   UNL     1     139.192  69.464 225.089 -0.40 -0.00    +0.002 A  
DOCKED: ATOM     19  C   UNL     1     140.377  71.422 225.896 -0.55 -0.01    +0.030 A  
DOCKED: ATOM     20  C   UNL     1     139.661  68.771 226.194 -0.51 -0.00    +0.030 A  
DOCKED: ATOM     21  C   UNL     1     140.824  70.694 226.984 -0.62 -0.00    +0.023 A  
DOCKED: ATOM     22  C   UNL     1     140.471  69.351 227.150 -0.56 -0.01    +0.041 A  
DOCKED: ATOM     23  Cl  UNL     1     141.077  68.520 228.544 -0.74 +0.02    -0.084 Cl 
DOCKED: ENDBRANCH  10  13
DOCKED: ENDBRANCH   8   9
DOCKED: ENDBRANCH   6   8
DOCKED: ENDBRANCH   1   6
DOCKED: BRANCH   5  24
DOCKED: ATOM     24  C   UNL     1     141.437  74.396 221.560 -0.04 -0.04    +0.254 C  
DOCKED: BRANCH  24  25
DOCKED: ATOM     25  O   UNL     1     140.267  74.824 222.188 -0.61 +0.01    -0.491 OA 
DOCKED: BRANCH  25  26
DOCKED: ATOM     26  C   UNL     1     140.029  76.170 222.423 -0.26 -0.02    +0.120 A  
DOCKED: ATOM     27  C   UNL     1     138.752  76.711 222.474 -0.29 -0.01    +0.046 A  
DOCKED: ATOM     28  C   UNL     1     141.071  77.049 222.621 -0.35 -0.03    +0.067 A  
DOCKED: ATOM     29  C   UNL     1     138.522  78.043 222.706 -0.29 -0.00    +0.005 A  
DOCKED: ATOM     30  C   UNL     1     140.922  78.388 222.857 -0.46 -0.01    +0.044 A  
DOCKED: ATOM     31  C   UNL     1     139.626  78.879 222.898 -0.35 -0.00    +0.021 A  
DOCKED: ATOM     32  Cl  UNL     1     142.245  79.477 223.104 -0.76 +0.03    -0.084 Cl 
DOCKED: ENDBRANCH  25  26
DOCKED: ENDBRANCH  24  25
DOCKED: ENDBRANCH   5  24
DOCKED: TORSDOF 7
DOCKED: TER
DOCKED: ENDMDL
________________________________________________________________________________


    FINAL DOCKED STATE:
    ________________________


Run:   14 / 20
Time taken for this run:   0.042s

DOCKED: MODEL        14
DOCKED: USER    Run = 14
DOCKED: USER
DOCKED: USER    Estimated Free Energy of Binding    =  -6.92 kcal/mol  [=(1)+(2)+(3)-(4)]
DOCKED: USER
DOCKED: USER    (1) Final Intermolecular Energy     =  -9.00 kcal/mol
DOCKED: USER        vdW + Hbond + desolv Energy     =  -8.92 kcal/mol
DOCKED: USER        Electrostatic Energy            =  -0.08 kcal/mol
DOCKED: USER        Moving Ligand-Fixed Receptor    =  -9.00 kcal/mol
DOCKED: USER        Moving Ligand-Moving Receptor   =  +0.00 kcal/mol
DOCKED: USER    (2) Final Total Internal Energy     =  -3.04 kcal/mol
DOCKED: USER    (3) Torsional Free Energy           =  +2.09 kcal/mol
DOCKED: USER    (4) Unbound System's Energy         =  -3.04 kcal/mol
DOCKED: USER
DOCKED: USER
DOCKED: REMARK SMILES O=C(NCC(=O)N1CCC[C@H]1COc1cccc(Cl)c1)c1ccc2cc(Cl)ccc2n1
DOCKED: REMARK SMILES IDX 7 1 8 2 9 3 10 4 11 5 5 6 6 7 4 8 3 9 2 10 1 11 21 13 22 14
DOCKED: REMARK SMILES IDX 31 15 23 16 30 17 24 18 29 19 25 20 28 21 26 22 27 23 12 24
DOCKED: REMARK SMILES IDX 13 25 14 26 15 27 20 28 16 29 18 30 17 31 19 32
DOCKED: REMARK H PARENT 3 12
DOCKED: USER                              x       y       z     vdW  Elec       q    Type
DOCKED: USER                           _______ _______ _______ _____ _____    ______ ____
DOCKED: ROOT
DOCKED: ATOM      1  N   UNL     1     139.759  74.262 219.707 -0.01 +0.07    -0.335 N  
DOCKED: ATOM      2  C   UNL     1     139.971  75.583 219.150 -0.05 -0.03    +0.120 C  
DOCKED: ATOM      3  C   UNL     1     141.201  75.294 218.291 -0.07 -0.01    +0.024 C  
DOCKED: ATOM      4  C   UNL     1     142.076  74.593 219.307 -0.17 -0.01    +0.030 C  
DOCKED: ATOM      5  C   UNL     1     141.071  73.794 220.101 -0.13 -0.03    +0.123 C  
DOCKED: ENDROOT
DOCKED: BRANCH   1   6
DOCKED: ATOM      6  C   UNL     1     138.490  73.637 219.804 -0.02 -0.05    +0.242 C  
DOCKED: ATOM      7  O   UNL     1     138.185  72.850 218.849 -0.00 +0.05    -0.273 OA 
DOCKED: BRANCH   6   8
DOCKED: ATOM      8  C   UNL     1     137.540  73.842 220.913 -0.06 -0.05    +0.216 C  
DOCKED: BRANCH   8   9
DOCKED: ATOM      9  N   UNL     1     138.003  72.977 222.005 -0.07 +0.10    -0.342 N  
DOCKED: ATOM     10  C   UNL     1     137.883  71.563 221.950 -0.08 -0.06    +0.270 C  
DOCKED: ATOM     11  O   UNL     1     137.370  70.957 220.956 -0.02 +0.05    -0.268 OA 
DOCKED: ATOM     12  H   UNL     1     138.433  73.401 222.852 -0.52 -0.09    +0.164 HD 
DOCKED: BRANCH  10  13
DOCKED: ATOM     13  C   UNL     1     138.378  70.779 223.102 -0.19 -0.03    +0.128 A  
DOCKED: ATOM     14  C   UNL     1     138.055  69.428 223.182 -0.21 -0.01    +0.035 A  
DOCKED: ATOM     15  N   UNL     1     139.128  71.353 224.059 -0.20 +0.06    -0.243 NA 
DOCKED: ATOM     16  C   UNL     1     138.532  68.704 224.277 -0.33 -0.00    +0.013 A  
DOCKED: ATOM     17  C   UNL     1     139.596  70.686 225.114 -0.40 -0.01    +0.071 A  
DOCKED: ATOM     18  C   UNL     1     139.293  69.347 225.221 -0.41 -0.00    +0.002 A  
DOCKED: ATOM     19  C   UNL     1     140.352  71.376 226.029 -0.56 -0.01    +0.030 A  
DOCKED: ATOM     20  C   UNL     1     139.797  68.687 226.330 -0.54 -0.00    +0.030 A  
DOCKED: ATOM     21  C   UNL     1     140.836  70.679 227.121 -0.63 -0.00    +0.023 A  
DOCKED: ATOM     22  C   UNL     1     140.564  69.318 227.289 -0.57 -0.01    +0.041 A  
DOCKED: ATOM     23  Cl  UNL     1     141.212  68.528 228.689 -0.65 +0.02    -0.084 Cl 
DOCKED: ENDBRANCH  10  13
DOCKED: ENDBRANCH   8   9
DOCKED: ENDBRANCH   6   8
DOCKED: ENDBRANCH   1   6
DOCKED: BRANCH   5  24
DOCKED: ATOM     24  C   UNL     1     141.219  74.047 221.589 -0.11 -0.03    +0.254 C  
DOCKED: BRANCH  24  25
DOCKED: ATOM     25  O   UNL     1     140.073  74.611 222.151 -0.68 +0.03    -0.491 OA 
DOCKED: BRANCH  25  26
DOCKED: ATOM     26  C   UNL     1     139.964  75.981 222.335 -0.30 -0.02    +0.120 A  
DOCKED: ATOM     27  C   UNL     1     141.068  76.817 222.443 -0.35 -0.02    +0.046 A  
DOCKED: ATOM     28  C   UNL     1     138.730  76.587 222.421 -0.29 -0.01    +0.067 A  
DOCKED: ATOM     29  C   UNL     1     140.954  78.171 222.626 -0.47 -0.00    +0.005 A  
DOCKED: ATOM     30  C   UNL     1     138.537  77.930 222.602 -0.27 -0.01    +0.044 A  
DOCKED: ATOM     31  C   UNL     1     139.671  78.721 222.704 -0.34 -0.00    +0.021 A  
DOCKED: ATOM     32  Cl  UNL     1     136.978  78.674 222.707 -0.23 +0.01    -0.084 Cl 
DOCKED: ENDBRANCH  25  26
DOCKED: ENDBRANCH  24  25
DOCKED: ENDBRANCH   5  24
DOCKED: TORSDOF 7
DOCKED: TER
DOCKED: ENDMDL
________________________________________________________________________________


    FINAL DOCKED STATE:
    ________________________


Run:   15 / 20
Time taken for this run:   0.042s

DOCKED: MODEL        15
DOCKED: USER    Run = 15
DOCKED: USER
DOCKED: USER    Estimated Free Energy of Binding    =  -8.76 kcal/mol  [=(1)+(2)+(3)-(4)]
DOCKED: USER
DOCKED: USER    (1) Final Intermolecular Energy     = -10.84 kcal/mol
DOCKED: USER        vdW + Hbond + desolv Energy     = -10.73 kcal/mol
DOCKED: USER        Electrostatic Energy            =  -0.11 kcal/mol
DOCKED: USER        Moving Ligand-Fixed Receptor    = -10.84 kcal/mol
DOCKED: USER        Moving Ligand-Moving Receptor   =  +0.00 kcal/mol
DOCKED: USER    (2) Final Total Internal Energy     =  -1.96 kcal/mol
DOCKED: USER    (3) Torsional Free Energy           =  +2.09 kcal/mol
DOCKED: USER    (4) Unbound System's Energy         =  -1.96 kcal/mol
DOCKED: USER
DOCKED: USER
DOCKED: REMARK SMILES O=C(NCC(=O)N1CCC[C@H]1COc1cccc(Cl)c1)c1ccc2cc(Cl)ccc2n1
DOCKED: REMARK SMILES IDX 7 1 8 2 9 3 10 4 11 5 5 6 6 7 4 8 3 9 2 10 1 11 21 13 22 14
DOCKED: REMARK SMILES IDX 31 15 23 16 30 17 24 18 29 19 25 20 28 21 26 22 27 23 12 24
DOCKED: REMARK SMILES IDX 13 25 14 26 15 27 20 28 16 29 18 30 17 31 19 32
DOCKED: REMARK H PARENT 3 12
DOCKED: USER                              x       y       z     vdW  Elec       q    Type
DOCKED: USER                           _______ _______ _______ _____ _____    ______ ____
DOCKED: ROOT
DOCKED: ATOM      1  N   UNL     1     141.462  75.935 220.133 -0.09 +0.13    -0.335 N  
DOCKED: ATOM      2  C   UNL     1     141.718  75.018 219.041 -0.11 -0.04    +0.120 C  
DOCKED: ATOM      3  C   UNL     1     143.230  75.198 218.916 -0.28 -0.01    +0.024 C  
DOCKED: ATOM      4  C   UNL     1     143.315  76.707 218.864 -0.33 -0.02    +0.030 C  
DOCKED: ATOM      5  C   UNL     1     142.228  77.125 219.825 -0.27 -0.08    +0.123 C  
DOCKED: ENDROOT
DOCKED: BRANCH   1   6
DOCKED: ATOM      6  C   UNL     1     140.619  75.642 221.235 -0.22 -0.07    +0.242 C  
DOCKED: ATOM      7  O   UNL     1     141.042  76.027 222.374 -0.38 +0.08    -0.273 OA 
DOCKED: BRANCH   6   8
DOCKED: ATOM      8  C   UNL     1     139.327  74.939 221.134 -0.16 -0.05    +0.216 C  
DOCKED: BRANCH   8   9
DOCKED: ATOM      9  N   UNL     1     139.361  73.885 222.155 -0.11 +0.07    -0.342 N  
DOCKED: ATOM     10  C   UNL     1     140.096  72.683 221.973 -0.20 -0.04    +0.270 C  
DOCKED: ATOM     11  O   UNL     1     140.768  72.443 220.920 -0.12 +0.04    -0.268 OA 
DOCKED: ATOM     12  H   UNL     1     138.835  74.009 223.044 -0.56 -0.10    +0.164 HD 
DOCKED: BRANCH  10  13
DOCKED: ATOM     13  C   UNL     1     140.067  71.680 223.060 -0.30 -0.02    +0.128 A  
DOCKED: ATOM     14  C   UNL     1     139.520  70.427 222.802 -0.22 -0.01    +0.035 A  
DOCKED: ATOM     15  N   UNL     1     140.560  71.966 224.278 -0.22 +0.03    -0.243 NA 
DOCKED: ATOM     16  C   UNL     1     139.502  69.495 223.841 -0.26 -0.00    +0.013 A  
DOCKED: ATOM     17  C   UNL     1     140.555  71.094 225.286 -0.51 -0.01    +0.071 A  
DOCKED: ATOM     18  C   UNL     1     140.020  69.846 225.062 -0.42 -0.00    +0.002 A  
DOCKED: ATOM     19  C   UNL     1     141.085  71.496 226.488 -0.69 -0.00    +0.030 A  
DOCKED: ATOM     20  C   UNL     1     140.033  68.967 226.134 -0.51 -0.01    +0.030 A  
DOCKED: ATOM     21  C   UNL     1     141.079  70.588 227.531 -0.62 -0.00    +0.023 A  
DOCKED: ATOM     22  C   UNL     1     140.549  69.304 227.369 -0.58 -0.01    +0.041 A  
DOCKED: ATOM     23  Cl  UNL     1     140.584  68.234 228.732 -0.58 +0.02    -0.084 Cl 
DOCKED: ENDBRANCH  10  13
DOCKED: ENDBRANCH   8   9
DOCKED: ENDBRANCH   6   8
DOCKED: ENDBRANCH   1   6
DOCKED: BRANCH   5  24
DOCKED: ATOM     24  C   UNL     1     141.284  78.126 219.188 -0.12 -0.13    +0.254 C  
DOCKED: BRANCH  24  25
DOCKED: ATOM     25  O   UNL     1     140.137  78.339 219.951 +0.01 +0.17    -0.491 OA 
DOCKED: BRANCH  25  26
DOCKED: ATOM     26  C   UNL     1     140.219  78.809 221.254 -0.18 -0.04    +0.120 A  
DOCKED: ATOM     27  C   UNL     1     139.149  78.766 222.138 -0.23 -0.01    +0.046 A  
DOCKED: ATOM     28  C   UNL     1     141.389  79.350 221.738 -0.36 -0.03    +0.067 A  
DOCKED: ATOM     29  C   UNL     1     139.235  79.233 223.424 -0.38 -0.00    +0.005 A  
DOCKED: ATOM     30  C   UNL     1     141.551  79.835 223.008 -0.52 -0.01    +0.044 A  
DOCKED: ATOM     31  C   UNL     1     140.454  79.770 223.852 -0.46 -0.00    +0.021 A  
DOCKED: ATOM     32  Cl  UNL     1     143.031  80.511 223.599 -0.78 +0.02    -0.084 Cl 
DOCKED: ENDBRANCH  25  26
DOCKED: ENDBRANCH  24  25
DOCKED: ENDBRANCH   5  24
DOCKED: TORSDOF 7
DOCKED: TER
DOCKED: ENDMDL
________________________________________________________________________________


    FINAL DOCKED STATE:
    ________________________


Run:   16 / 20
Time taken for this run:   0.042s

DOCKED: MODEL        16
DOCKED: USER    Run = 16
DOCKED: USER
DOCKED: USER    Estimated Free Energy of Binding    =  -8.47 kcal/mol  [=(1)+(2)+(3)-(4)]
DOCKED: USER
DOCKED: USER    (1) Final Intermolecular Energy     = -10.56 kcal/mol
DOCKED: USER        vdW + Hbond + desolv Energy     = -10.53 kcal/mol
DOCKED: USER        Electrostatic Energy            =  -0.02 kcal/mol
DOCKED: USER        Moving Ligand-Fixed Receptor    = -10.56 kcal/mol
DOCKED: USER        Moving Ligand-Moving Receptor   =  +0.00 kcal/mol
DOCKED: USER    (2) Final Total Internal Energy     =  -2.38 kcal/mol
DOCKED: USER    (3) Torsional Free Energy           =  +2.09 kcal/mol
DOCKED: USER    (4) Unbound System's Energy         =  -2.38 kcal/mol
DOCKED: USER
DOCKED: USER
DOCKED: REMARK SMILES O=C(NCC(=O)N1CCC[C@H]1COc1cccc(Cl)c1)c1ccc2cc(Cl)ccc2n1
DOCKED: REMARK SMILES IDX 7 1 8 2 9 3 10 4 11 5 5 6 6 7 4 8 3 9 2 10 1 11 21 13 22 14
DOCKED: REMARK SMILES IDX 31 15 23 16 30 17 24 18 29 19 25 20 28 21 26 22 27 23 12 24
DOCKED: REMARK SMILES IDX 13 25 14 26 15 27 20 28 16 29 18 30 17 31 19 32
DOCKED: REMARK H PARENT 3 12
DOCKED: USER                              x       y       z     vdW  Elec       q    Type
DOCKED: USER                           _______ _______ _______ _____ _____    ______ ____
DOCKED: ROOT
DOCKED: ATOM      1  N   UNL     1     140.981  77.280 220.823 -0.10 +0.14    -0.335 N  
DOCKED: ATOM      2  C   UNL     1     141.825  78.261 221.472 -0.25 -0.07    +0.120 C  
DOCKED: ATOM      3  C   UNL     1     141.445  79.495 220.654 -0.32 -0.01    +0.024 C  
DOCKED: ATOM      4  C   UNL     1     141.613  78.947 219.254 -0.25 -0.02    +0.030 C  
DOCKED: ATOM      5  C   UNL     1     141.125  77.527 219.403 -0.15 -0.06    +0.123 C  
DOCKED: ENDROOT
DOCKED: BRANCH   1   6
DOCKED: ATOM      6  C   UNL     1     140.207  76.314 221.516 -0.23 -0.07    +0.242 C  
DOCKED: ATOM      7  O   UNL     1     139.981  76.564 222.745 -0.29 +0.05    -0.273 OA 
DOCKED: BRANCH   6   8
DOCKED: ATOM      8  C   UNL     1     139.672  75.081 220.910 -0.15 -0.05    +0.216 C  
DOCKED: BRANCH   8   9
DOCKED: ATOM      9  N   UNL     1     139.708  74.064 221.967 -0.16 +0.05    -0.342 N  
DOCKED: ATOM     10  C   UNL     1     139.930  72.690 221.685 -0.17 -0.04    +0.270 C  
DOCKED: ATOM     11  O   UNL     1     140.110  72.253 220.503 -0.06 +0.05    -0.268 OA 
DOCKED: ATOM     12  H   UNL     1     139.569  74.346 222.959 -0.45 -0.01    +0.164 HD 
DOCKED: BRANCH  10  13
DOCKED: ATOM     13  C   UNL     1     139.948  71.741 222.820 -0.28 -0.02    +0.128 A  
DOCKED: ATOM     14  C   UNL     1     139.445  70.458 222.629 -0.21 -0.01    +0.035 A  
DOCKED: ATOM     15  N   UNL     1     140.439  72.106 224.018 -0.21 +0.03    -0.243 NA 
DOCKED: ATOM     16  C   UNL     1     139.471  69.578 223.713 -0.26 -0.00    +0.013 A  
DOCKED: ATOM     17  C   UNL     1     140.475  71.285 225.067 -0.48 -0.01    +0.071 A  
DOCKED: ATOM     18  C   UNL     1     139.986  70.008 224.910 -0.41 -0.00    +0.002 A  
DOCKED: ATOM     19  C   UNL     1     141.000  71.765 226.242 -0.64 -0.00    +0.030 A  
DOCKED: ATOM     20  C   UNL     1     140.041  69.184 226.023 -0.48 -0.01    +0.030 A  
DOCKED: ATOM     21  C   UNL     1     141.037  70.910 227.329 -0.66 -0.00    +0.023 A  
DOCKED: ATOM     22  C   UNL     1     140.555  69.601 227.235 -0.56 -0.01    +0.041 A  
DOCKED: ATOM     23  Cl  UNL     1     140.641  68.602 228.649 -0.70 +0.02    -0.084 Cl 
DOCKED: ENDBRANCH  10  13
DOCKED: ENDBRANCH   8   9
DOCKED: ENDBRANCH   6   8
DOCKED: ENDBRANCH   1   6
DOCKED: BRANCH   5  24
DOCKED: ATOM     24  C   UNL     1     142.140  76.536 218.867 -0.16 -0.13    +0.254 C  
DOCKED: BRANCH  24  25
DOCKED: ATOM     25  O   UNL     1     142.464  75.548 219.796 -0.09 +0.23    -0.491 OA 
DOCKED: BRANCH  25  26
DOCKED: ATOM     26  C   UNL     1     143.583  74.746 219.629 -0.30 -0.05    +0.120 A  
DOCKED: ATOM     27  C   UNL     1     143.921  74.167 218.414 -0.19 -0.01    +0.046 A  
DOCKED: ATOM     28  C   UNL     1     144.428  74.482 220.685 -0.32 -0.03    +0.067 A  
DOCKED: ATOM     29  C   UNL     1     145.029  73.374 218.255 -0.23 +0.00    +0.005 A  
DOCKED: ATOM     30  C   UNL     1     145.550  73.703 220.604 -0.60 -0.01    +0.044 A  
DOCKED: ATOM     31  C   UNL     1     145.843  73.148 219.368 -0.38 +0.01    +0.021 A  
DOCKED: ATOM     32  Cl  UNL     1     146.600  73.383 221.943 -0.77 +0.01    -0.084 Cl 
DOCKED: ENDBRANCH  25  26
DOCKED: ENDBRANCH  24  25
DOCKED: ENDBRANCH   5  24
DOCKED: TORSDOF 7
DOCKED: TER
DOCKED: ENDMDL
________________________________________________________________________________


    FINAL DOCKED STATE:
    ________________________


Run:   17 / 20
Time taken for this run:   0.042s

DOCKED: MODEL        17
DOCKED: USER    Run = 17
DOCKED: USER
DOCKED: USER    Estimated Free Energy of Binding    =  -7.30 kcal/mol  [=(1)+(2)+(3)-(4)]
DOCKED: USER
DOCKED: USER    (1) Final Intermolecular Energy     =  -9.38 kcal/mol
DOCKED: USER        vdW + Hbond + desolv Energy     =  -9.31 kcal/mol
DOCKED: USER        Electrostatic Energy            =  -0.07 kcal/mol
DOCKED: USER        Moving Ligand-Fixed Receptor    =  -9.38 kcal/mol
DOCKED: USER        Moving Ligand-Moving Receptor   =  +0.00 kcal/mol
DOCKED: USER    (2) Final Total Internal Energy     =  -3.26 kcal/mol
DOCKED: USER    (3) Torsional Free Energy           =  +2.09 kcal/mol
DOCKED: USER    (4) Unbound System's Energy         =  -3.26 kcal/mol
DOCKED: USER
DOCKED: USER
DOCKED: REMARK SMILES O=C(NCC(=O)N1CCC[C@H]1COc1cccc(Cl)c1)c1ccc2cc(Cl)ccc2n1
DOCKED: REMARK SMILES IDX 7 1 8 2 9 3 10 4 11 5 5 6 6 7 4 8 3 9 2 10 1 11 21 13 22 14
DOCKED: REMARK SMILES IDX 31 15 23 16 30 17 24 18 29 19 25 20 28 21 26 22 27 23 12 24
DOCKED: REMARK SMILES IDX 13 25 14 26 15 27 20 28 16 29 18 30 17 31 19 32
DOCKED: REMARK H PARENT 3 12
DOCKED: USER                              x       y       z     vdW  Elec       q    Type
DOCKED: USER                           _______ _______ _______ _____ _____    ______ ____
DOCKED: ROOT
DOCKED: ATOM      1  N   UNL     1     138.664  71.211 223.554 -0.13 +0.08    -0.335 N  
DOCKED: ATOM      2  C   UNL     1     138.862  69.789 223.752 -0.24 -0.02    +0.120 C  
DOCKED: ATOM      3  C   UNL     1     139.633  69.828 225.070 -0.41 -0.00    +0.024 C  
DOCKED: ATOM      4  C   UNL     1     140.697  70.847 224.726 -0.46 -0.00    +0.030 C  
DOCKED: ATOM      5  C   UNL     1     139.940  71.824 223.860 -0.25 -0.03    +0.123 C  
DOCKED: ENDROOT
DOCKED: BRANCH   1   6
DOCKED: ATOM      6  C   UNL     1     137.437  71.792 223.145 -0.09 -0.07    +0.242 C  
DOCKED: ATOM      7  O   UNL     1     136.442  71.586 223.914 -0.15 +0.06    -0.273 OA 
DOCKED: BRANCH   6   8
DOCKED: ATOM      8  C   UNL     1     137.260  72.593 221.920 -0.09 -0.05    +0.216 C  
DOCKED: BRANCH   8   9
DOCKED: ATOM      9  N   UNL     1     137.848  73.907 222.209 -0.01 +0.12    -0.342 N  
DOCKED: ATOM     10  C   UNL     1     137.208  75.119 221.837 -0.11 -0.07    +0.270 C  
DOCKED: ATOM     11  O   UNL     1     136.088  75.145 221.233 -0.03 +0.05    -0.268 OA 
DOCKED: ATOM     12  H   UNL     1     138.764  73.965 222.700 -0.54 -0.07    +0.164 HD 
DOCKED: BRANCH  10  13
DOCKED: ATOM     13  C   UNL     1     137.882  76.392 222.173 -0.22 -0.03    +0.128 A  
DOCKED: ATOM     14  C   UNL     1     137.128  77.561 222.208 -0.18 -0.01    +0.035 A  
DOCKED: ATOM     15  N   UNL     1     139.200  76.427 222.440 -0.23 +0.05    -0.243 NA 
DOCKED: ATOM     16  C   UNL     1     137.783  78.752 222.526 -0.21 -0.00    +0.013 A  
DOCKED: ATOM     17  C   UNL     1     139.848  77.550 222.746 -0.26 -0.01    +0.071 A  
DOCKED: ATOM     18  C   UNL     1     139.130  78.724 222.789 -0.32 -0.00    +0.002 A  
DOCKED: ATOM     19  C   UNL     1     141.196  77.467 223.001 -0.31 -0.01    +0.030 A  
DOCKED: ATOM     20  C   UNL     1     139.838  79.870 223.112 -0.38 -0.01    +0.030 A  
DOCKED: ATOM     21  C   UNL     1     141.864  78.635 223.319 -0.56 -0.01    +0.023 A  
DOCKED: ATOM     22  C   UNL     1     141.193  79.860 223.379 -0.51 -0.01    +0.041 A  
DOCKED: ATOM     23  Cl  UNL     1     142.114  81.270 223.786 -0.73 +0.01    -0.084 Cl 
DOCKED: ENDBRANCH  10  13
DOCKED: ENDBRANCH   8   9
DOCKED: ENDBRANCH   6   8
DOCKED: ENDBRANCH   1   6
DOCKED: BRANCH   5  24
DOCKED: ATOM     24  C   UNL     1     140.657  72.068 222.547 -0.20 -0.02    +0.254 C  
DOCKED: BRANCH  24  25
DOCKED: ATOM     25  O   UNL     1     140.605  73.404 222.150 -0.61 +0.01    -0.491 OA 
DOCKED: BRANCH  25  26
DOCKED: ATOM     26  C   UNL     1     141.559  73.935 221.295 -0.19 -0.02    +0.120 A  
DOCKED: ATOM     27  C   UNL     1     142.663  73.216 220.857 -0.25 -0.01    +0.046 A  
DOCKED: ATOM     28  C   UNL     1     141.452  75.228 220.831 -0.28 -0.02    +0.067 A  
DOCKED: ATOM     29  C   UNL     1     143.603  73.747 220.012 -0.34 -0.00    +0.005 A  
DOCKED: ATOM     30  C   UNL     1     142.348  75.826 219.988 -0.29 -0.02    +0.044 A  
DOCKED: ATOM     31  C   UNL     1     143.433  75.066 219.580 -0.36 -0.01    +0.021 A  
DOCKED: ATOM     32  Cl  UNL     1     142.197  77.453 219.416 -0.38 +0.05    -0.084 Cl 
DOCKED: ENDBRANCH  25  26
DOCKED: ENDBRANCH  24  25
DOCKED: ENDBRANCH   5  24
DOCKED: TORSDOF 7
DOCKED: TER
DOCKED: ENDMDL
________________________________________________________________________________


    FINAL DOCKED STATE:
    ________________________


Run:   18 / 20
Time taken for this run:   0.042s

DOCKED: MODEL        18
DOCKED: USER    Run = 18
DOCKED: USER
DOCKED: USER    Estimated Free Energy of Binding    =  -8.57 kcal/mol  [=(1)+(2)+(3)-(4)]
DOCKED: USER
DOCKED: USER    (1) Final Intermolecular Energy     = -10.66 kcal/mol
DOCKED: USER        vdW + Hbond + desolv Energy     = -10.61 kcal/mol
DOCKED: USER        Electrostatic Energy            =  -0.05 kcal/mol
DOCKED: USER        Moving Ligand-Fixed Receptor    = -10.66 kcal/mol
DOCKED: USER        Moving Ligand-Moving Receptor   =  +0.00 kcal/mol
DOCKED: USER    (2) Final Total Internal Energy     =  -2.56 kcal/mol
DOCKED: USER    (3) Torsional Free Energy           =  +2.09 kcal/mol
DOCKED: USER    (4) Unbound System's Energy         =  -2.56 kcal/mol
DOCKED: USER
DOCKED: USER
DOCKED: REMARK SMILES O=C(NCC(=O)N1CCC[C@H]1COc1cccc(Cl)c1)c1ccc2cc(Cl)ccc2n1
DOCKED: REMARK SMILES IDX 7 1 8 2 9 3 10 4 11 5 5 6 6 7 4 8 3 9 2 10 1 11 21 13 22 14
DOCKED: REMARK SMILES IDX 31 15 23 16 30 17 24 18 29 19 25 20 28 21 26 22 27 23 12 24
DOCKED: REMARK SMILES IDX 13 25 14 26 15 27 20 28 16 29 18 30 17 31 19 32
DOCKED: REMARK H PARENT 3 12
DOCKED: USER                              x       y       z     vdW  Elec       q    Type
DOCKED: USER                           _______ _______ _______ _____ _____    ______ ____
DOCKED: ROOT
DOCKED: ATOM      1  N   UNL     1     140.894  77.211 220.991 -0.11 +0.14    -0.335 N  
DOCKED: ATOM      2  C   UNL     1     141.508  78.292 221.735 -0.32 -0.06    +0.120 C  
DOCKED: ATOM      3  C   UNL     1     141.256  79.439 220.758 -0.30 -0.01    +0.024 C  
DOCKED: ATOM      4  C   UNL     1     141.772  78.818 219.479 -0.27 -0.02    +0.030 C  
DOCKED: ATOM      5  C   UNL     1     141.345  77.377 219.625 -0.18 -0.06    +0.123 C  
DOCKED: ENDROOT
DOCKED: BRANCH   1   6
DOCKED: ATOM      6  C   UNL     1     140.038  76.238 221.567 -0.23 -0.06    +0.242 C  
DOCKED: ATOM      7  O   UNL     1     139.581  76.516 222.723 -0.29 +0.05    -0.273 OA 
DOCKED: BRANCH   6   8
DOCKED: ATOM      8  C   UNL     1     139.666  74.966 220.919 -0.15 -0.05    +0.216 C  
DOCKED: BRANCH   8   9
DOCKED: ATOM      9  N   UNL     1     139.679  73.954 221.982 -0.16 +0.05    -0.342 N  
DOCKED: ATOM     10  C   UNL     1     140.047  72.605 221.736 -0.18 -0.04    +0.270 C  
DOCKED: ATOM     11  O   UNL     1     140.387  72.187 220.583 -0.07 +0.04    -0.268 OA 
DOCKED: ATOM     12  H   UNL     1     139.412  74.221 222.952 -0.49 -0.03    +0.164 HD 
DOCKED: BRANCH  10  13
DOCKED: ATOM     13  C   UNL     1     140.027  71.660 222.873 -0.28 -0.02    +0.128 A  
DOCKED: ATOM     14  C   UNL     1     139.480  70.394 222.684 -0.21 -0.01    +0.035 A  
DOCKED: ATOM     15  N   UNL     1     140.528  72.010 224.071 -0.22 +0.03    -0.243 NA 
DOCKED: ATOM     16  C   UNL     1     139.471  69.517 223.771 -0.26 -0.00    +0.013 A  
DOCKED: ATOM     17  C   UNL     1     140.531  71.191 225.124 -0.49 -0.01    +0.071 A  
DOCKED: ATOM     18  C   UNL     1     139.997  69.932 224.968 -0.41 -0.00    +0.002 A  
DOCKED: ATOM     19  C   UNL     1     141.069  71.656 226.299 -0.67 -0.00    +0.030 A  
DOCKED: ATOM     20  C   UNL     1     140.019  69.110 226.084 -0.49 -0.01    +0.030 A  
DOCKED: ATOM     21  C   UNL     1     141.072  70.803 227.388 -0.64 -0.00    +0.023 A  
DOCKED: ATOM     22  C   UNL     1     140.543  69.512 227.296 -0.56 -0.01    +0.041 A  
DOCKED: ATOM     23  Cl  UNL     1     140.589  68.515 228.714 -0.70 +0.02    -0.084 Cl 
DOCKED: ENDBRANCH  10  13
DOCKED: ENDBRANCH   8   9
DOCKED: ENDBRANCH   6   8
DOCKED: ENDBRANCH   1   6
DOCKED: BRANCH   5  24
DOCKED: ATOM     24  C   UNL     1     142.512  76.432 219.411 -0.22 -0.14    +0.254 C  
DOCKED: BRANCH  24  25
DOCKED: ATOM     25  O   UNL     1     142.526  75.385 220.332 -0.11 +0.24    -0.491 OA 
DOCKED: BRANCH  25  26
DOCKED: ATOM     26  C   UNL     1     143.519  74.416 220.301 -0.32 -0.04    +0.120 A  
DOCKED: ATOM     27  C   UNL     1     144.865  74.712 220.469 -0.40 -0.02    +0.046 A  
DOCKED: ATOM     28  C   UNL     1     143.207  73.090 220.099 -0.25 -0.01    +0.067 A  
DOCKED: ATOM     29  C   UNL     1     145.842  73.751 220.437 -0.64 -0.00    +0.005 A  
DOCKED: ATOM     30  C   UNL     1     144.125  72.076 220.055 -0.29 -0.00    +0.044 A  
DOCKED: ATOM     31  C   UNL     1     145.456  72.423 220.227 -0.44 +0.00    +0.021 A  
DOCKED: ATOM     32  Cl  UNL     1     143.714  70.413 219.800 -0.27 +0.00    -0.084 Cl 
DOCKED: ENDBRANCH  25  26
DOCKED: ENDBRANCH  24  25
DOCKED: ENDBRANCH   5  24
DOCKED: TORSDOF 7
DOCKED: TER
DOCKED: ENDMDL
________________________________________________________________________________


    FINAL DOCKED STATE:
    ________________________


Run:   19 / 20
Time taken for this run:   0.042s

DOCKED: MODEL        19
DOCKED: USER    Run = 19
DOCKED: USER
DOCKED: USER    Estimated Free Energy of Binding    =  -8.60 kcal/mol  [=(1)+(2)+(3)-(4)]
DOCKED: USER
DOCKED: USER    (1) Final Intermolecular Energy     = -10.69 kcal/mol
DOCKED: USER        vdW + Hbond + desolv Energy     = -10.62 kcal/mol
DOCKED: USER        Electrostatic Energy            =  -0.07 kcal/mol
DOCKED: USER        Moving Ligand-Fixed Receptor    = -10.69 kcal/mol
DOCKED: USER        Moving Ligand-Moving Receptor   =  +0.00 kcal/mol
DOCKED: USER    (2) Final Total Internal Energy     =  -2.13 kcal/mol
DOCKED: USER    (3) Torsional Free Energy           =  +2.09 kcal/mol
DOCKED: USER    (4) Unbound System's Energy         =  -2.13 kcal/mol
DOCKED: USER
DOCKED: USER
DOCKED: REMARK SMILES O=C(NCC(=O)N1CCC[C@H]1COc1cccc(Cl)c1)c1ccc2cc(Cl)ccc2n1
DOCKED: REMARK SMILES IDX 7 1 8 2 9 3 10 4 11 5 5 6 6 7 4 8 3 9 2 10 1 11 21 13 22 14
DOCKED: REMARK SMILES IDX 31 15 23 16 30 17 24 18 29 19 25 20 28 21 26 22 27 23 12 24
DOCKED: REMARK SMILES IDX 13 25 14 26 15 27 20 28 16 29 18 30 17 31 19 32
DOCKED: REMARK H PARENT 3 12
DOCKED: USER                              x       y       z     vdW  Elec       q    Type
DOCKED: USER                           _______ _______ _______ _____ _____    ______ ____
DOCKED: ROOT
DOCKED: ATOM      1  N   UNL     1     141.435  75.678 220.329 -0.10 +0.13    -0.335 N  
DOCKED: ATOM      2  C   UNL     1     141.824  74.752 219.284 -0.12 -0.04    +0.120 C  
DOCKED: ATOM      3  C   UNL     1     143.342  74.901 219.374 -0.32 -0.01    +0.024 C  
DOCKED: ATOM      4  C   UNL     1     143.464  76.409 219.333 -0.35 -0.02    +0.030 C  
DOCKED: ATOM      5  C   UNL     1     142.262  76.851 220.131 -0.23 -0.08    +0.123 C  
DOCKED: ENDROOT
DOCKED: BRANCH   1   6
DOCKED: ATOM      6  C   UNL     1     140.441  75.405 221.302 -0.22 -0.06    +0.242 C  
DOCKED: ATOM      7  O   UNL     1     140.551  76.041 222.401 -0.41 +0.06    -0.273 OA 
DOCKED: BRANCH   6   8
DOCKED: ATOM      8  C   UNL     1     139.326  74.458 221.114 -0.15 -0.04    +0.216 C  
DOCKED: BRANCH   8   9
DOCKED: ATOM      9  N   UNL     1     139.454  73.468 222.190 -0.13 +0.07    -0.342 N  
DOCKED: ATOM     10  C   UNL     1     139.476  72.071 221.931 -0.16 -0.05    +0.270 C  
DOCKED: ATOM     11  O   UNL     1     139.388  71.591 220.756 -0.05 +0.05    -0.268 OA 
DOCKED: ATOM     12  H   UNL     1     139.531  73.786 223.177 -0.50 -0.04    +0.164 HD 
DOCKED: BRANCH  10  13
DOCKED: ATOM     13  C   UNL     1     139.607  71.153 223.083 -0.26 -0.02    +0.128 A  
DOCKED: ATOM     14  C   UNL     1     139.124  69.854 222.964 -0.21 -0.01    +0.035 A  
DOCKED: ATOM     15  N   UNL     1     140.183  71.559 224.229 -0.28 +0.04    -0.243 NA 
DOCKED: ATOM     16  C   UNL     1     139.257  69.003 224.062 -0.29 -0.00    +0.013 A  
DOCKED: ATOM     17  C   UNL     1     140.322  70.767 225.292 -0.48 -0.01    +0.071 A  
DOCKED: ATOM     18  C   UNL     1     139.854  69.475 225.204 -0.42 -0.00    +0.002 A  
DOCKED: ATOM     19  C   UNL     1     140.926  71.289 226.409 -0.65 -0.00    +0.030 A  
DOCKED: ATOM     20  C   UNL     1     140.017  68.682 226.329 -0.55 -0.01    +0.030 A  
DOCKED: ATOM     21  C   UNL     1     141.070  70.463 227.509 -0.60 -0.00    +0.023 A  
DOCKED: ATOM     22  C   UNL     1     140.614  69.141 227.486 -0.59 -0.01    +0.041 A  
DOCKED: ATOM     23  Cl  UNL     1     140.837  68.181 228.912 -0.51 +0.02    -0.084 Cl 
DOCKED: ENDBRANCH  10  13
DOCKED: ENDBRANCH   8   9
DOCKED: ENDBRANCH   6   8
DOCKED: ENDBRANCH   1   6
DOCKED: BRANCH   5  24
DOCKED: ATOM     24  C   UNL     1     141.437  77.868 219.366 -0.14 -0.13    +0.254 C  
DOCKED: BRANCH  24  25
DOCKED: ATOM     25  O   UNL     1     140.261  78.211 220.033 +0.01 +0.17    -0.491 OA 
DOCKED: BRANCH  25  26
DOCKED: ATOM     26  C   UNL     1     140.291  78.742 221.314 -0.19 -0.04    +0.120 A  
DOCKED: ATOM     27  C   UNL     1     139.183  78.752 222.151 -0.23 -0.01    +0.046 A  
DOCKED: ATOM     28  C   UNL     1     141.445  79.294 221.824 -0.37 -0.03    +0.067 A  
DOCKED: ATOM     29  C   UNL     1     139.218  79.278 223.417 -0.38 -0.00    +0.005 A  
DOCKED: ATOM     30  C   UNL     1     141.557  79.837 223.075 -0.52 -0.01    +0.044 A  
DOCKED: ATOM     31  C   UNL     1     140.423  79.823 223.872 -0.44 -0.00    +0.021 A  
DOCKED: ATOM     32  Cl  UNL     1     143.017  80.527 223.700 -0.77 +0.02    -0.084 Cl 
DOCKED: ENDBRANCH  25  26
DOCKED: ENDBRANCH  24  25
DOCKED: ENDBRANCH   5  24
DOCKED: TORSDOF 7
DOCKED: TER
DOCKED: ENDMDL
________________________________________________________________________________


    FINAL DOCKED STATE:
    ________________________


Run:   20 / 20
Time taken for this run:   0.042s

DOCKED: MODEL        20
DOCKED: USER    Run = 20
DOCKED: USER
DOCKED: USER    Estimated Free Energy of Binding    =  -7.79 kcal/mol  [=(1)+(2)+(3)-(4)]
DOCKED: USER
DOCKED: USER    (1) Final Intermolecular Energy     =  -9.87 kcal/mol
DOCKED: USER        vdW + Hbond + desolv Energy     =  -9.79 kcal/mol
DOCKED: USER        Electrostatic Energy            =  -0.09 kcal/mol
DOCKED: USER        Moving Ligand-Fixed Receptor    =  -9.87 kcal/mol
DOCKED: USER        Moving Ligand-Moving Receptor   =  +0.00 kcal/mol
DOCKED: USER    (2) Final Total Internal Energy     =  -2.80 kcal/mol
DOCKED: USER    (3) Torsional Free Energy           =  +2.09 kcal/mol
DOCKED: USER    (4) Unbound System's Energy         =  -2.80 kcal/mol
DOCKED: USER
DOCKED: USER
DOCKED: REMARK SMILES O=C(NCC(=O)N1CCC[C@H]1COc1cccc(Cl)c1)c1ccc2cc(Cl)ccc2n1
DOCKED: REMARK SMILES IDX 7 1 8 2 9 3 10 4 11 5 5 6 6 7 4 8 3 9 2 10 1 11 21 13 22 14
DOCKED: REMARK SMILES IDX 31 15 23 16 30 17 24 18 29 19 25 20 28 21 26 22 27 23 12 24
DOCKED: REMARK SMILES IDX 13 25 14 26 15 27 20 28 16 29 18 30 17 31 19 32
DOCKED: REMARK H PARENT 3 12
DOCKED: USER                              x       y       z     vdW  Elec       q    Type
DOCKED: USER                           _______ _______ _______ _____ _____    ______ ____
DOCKED: ROOT
DOCKED: ATOM      1  N   UNL     1     139.952  74.266 219.670 -0.01 +0.07    -0.335 N  
DOCKED: ATOM      2  C   UNL     1     139.796  75.601 219.128 -0.04 -0.03    +0.120 C  
DOCKED: ATOM      3  C   UNL     1     141.064  75.673 218.279 -0.07 -0.01    +0.024 C  
DOCKED: ATOM      4  C   UNL     1     142.091  75.228 219.298 -0.20 -0.01    +0.030 C  
DOCKED: ATOM      5  C   UNL     1     141.339  74.174 220.074 -0.15 -0.03    +0.123 C  
DOCKED: ENDROOT
DOCKED: BRANCH   1   6
DOCKED: ATOM      6  C   UNL     1     138.904  73.314 219.748 -0.03 -0.05    +0.242 C  
DOCKED: ATOM      7  O   UNL     1     138.912  72.406 218.854 -0.01 +0.05    -0.273 OA 
DOCKED: BRANCH   6   8
DOCKED: ATOM      8  C   UNL     1     137.844  73.320 220.774 -0.06 -0.05    +0.216 C  
DOCKED: BRANCH   8   9
DOCKED: ATOM      9  N   UNL     1     138.473  72.829 222.006 -0.08 +0.09    -0.342 N  
DOCKED: ATOM     10  C   UNL     1     138.769  71.455 222.207 -0.12 -0.06    +0.270 C  
DOCKED: ATOM     11  O   UNL     1     138.510  70.564 221.337 -0.05 +0.05    -0.268 OA 
DOCKED: ATOM     12  H   UNL     1     138.715  73.500 222.764 -0.52 -0.08    +0.164 HD 
DOCKED: BRANCH  10  13
DOCKED: ATOM     13  C   UNL     1     139.403  71.060 223.484 -0.28 -0.03    +0.128 A  
DOCKED: ATOM     14  C   UNL     1     140.337  71.915 224.061 -0.35 -0.01    +0.035 A  
DOCKED: ATOM     15  N   UNL     1     139.087  69.898 224.082 -0.17 +0.04    -0.243 NA 
DOCKED: ATOM     16  C   UNL     1     140.924  71.525 225.267 -0.52 -0.00    +0.013 A  
DOCKED: ATOM     17  C   UNL     1     139.633  69.502 225.233 -0.37 -0.01    +0.071 A  
DOCKED: ATOM     18  C   UNL     1     140.560  70.327 225.829 -0.54 -0.00    +0.002 A  
DOCKED: ATOM     19  C   UNL     1     139.234  68.295 225.752 -0.50 -0.00    +0.030 A  
DOCKED: ATOM     20  C   UNL     1     141.105  69.882 227.023 -0.53 -0.01    +0.030 A  
DOCKED: ATOM     21  C   UNL     1     139.802  67.889 226.947 -0.63 -0.00    +0.023 A  
DOCKED: ATOM     22  C   UNL     1     140.751  68.680 227.602 -0.62 -0.01    +0.041 A  
DOCKED: ATOM     23  Cl  UNL     1     141.408  68.088 229.093 -0.45 +0.02    -0.084 Cl 
DOCKED: ENDBRANCH  10  13
DOCKED: ENDBRANCH   8   9
DOCKED: ENDBRANCH   6   8
DOCKED: ENDBRANCH   1   6
DOCKED: BRANCH   5  24
DOCKED: ATOM     24  C   UNL     1     141.400  74.440 221.566 -0.06 -0.04    +0.254 C  
DOCKED: BRANCH  24  25
DOCKED: ATOM     25  O   UNL     1     140.184  74.890 222.078 -0.62 +0.04    -0.491 OA 
DOCKED: BRANCH  25  26
DOCKED: ATOM     26  C   UNL     1     139.974  76.232 222.356 -0.31 -0.02    +0.120 A  
DOCKED: ATOM     27  C   UNL     1     138.708  76.795 222.442 -0.29 -0.01    +0.046 A  
DOCKED: ATOM     28  C   UNL     1     141.036  77.085 222.565 -0.36 -0.03    +0.067 A  
DOCKED: ATOM     29  C   UNL     1     138.507  78.123 222.716 -0.29 -0.00    +0.005 A  
DOCKED: ATOM     30  C   UNL     1     140.914  78.419 222.844 -0.46 -0.01    +0.044 A  
DOCKED: ATOM     31  C   UNL     1     139.629  78.933 222.918 -0.35 -0.00    +0.021 A  
DOCKED: ATOM     32  Cl  UNL     1     142.261  79.476 223.104 -0.76 +0.03    -0.084 Cl 
DOCKED: ENDBRANCH  25  26
DOCKED: ENDBRANCH  24  25
DOCKED: ENDBRANCH   5  24
DOCKED: TORSDOF 7
DOCKED: TER
DOCKED: ENDMDL
________________________________________________________________________________


    CLUSTERING HISTOGRAM
    ____________________


________________________________________________________________________________
     |           |     |           |     |
Clus | Lowest    | Run | Mean      | Num | Histogram
-ter | Binding   |     | Binding   | in  |
Rank | Energy    |     | Energy    | Clus|    5    10   15   20   25   30   35
_____|___________|_____|___________|_____|____:____|____:____|____:____|____:___
   1 |     -8.76 |  15 |     -8.24 |   6 |######
   2 |     -8.61 |  11 |     -8.30 |   3 |###
   3 |     -8.57 |  18 |     -8.23 |   7 |#######
   4 |     -7.61 |  10 |     -7.45 |   2 |##
   5 |     -6.92 |  14 |     -6.92 |   1 |#
   6 |     -6.40 |   5 |     -6.40 |   1 |#
_____|___________|_____|___________|_____|______________________________________


    RMSD TABLE
    __________


_______________________________________________________________________
     |      |      |           |         |                 |
Rank | Sub- | Run  | Binding   | Cluster | Reference       | Grep
     | Rank |      | Energy    | RMSD    | RMSD            | Pattern
_____|______|______|___________|_________|_________________|___________
   1      1     15       -8.76      0.00    270.83           RANKING
   1      2      3       -8.63      0.46    270.82           RANKING
   1      3     19       -8.60      0.51    270.80           RANKING
   1      4      9       -8.23      0.60    270.72           RANKING
   1      5     20       -7.79      1.65    270.18           RANKING
   1      6     13       -7.43      1.68    269.94           RANKING
   2      1     11       -8.61      0.00    270.39           RANKING
   2      2      2       -8.15      1.96    270.37           RANKING
   2      3      1       -8.14      1.83    270.30           RANKING
   3      1     18       -8.57      0.00    270.54           RANKING
   3      2     16       -8.47      1.04    270.54           RANKING
   3      3      8       -8.45      0.30    270.59           RANKING
   3      4      7       -8.40      1.03    270.48           RANKING
   3      5      4       -8.40      1.00    270.53           RANKING
   3      6      6       -7.70      0.95    270.20           RANKING
   3      7     12       -7.65      1.21    270.14           RANKING
   4      1     10       -7.61      0.00    270.22           RANKING
   4      2     17       -7.30      0.98    270.17           RANKING
   5      1     14       -6.92      0.00    269.79           RANKING
   6      1      5       -6.40      0.00    270.36           RANKING

Run time 0.810 sec
Idle time 0.000 sec
