AutoDock-GPU version: v1.6

**********************************************************
**    AutoDock-GPU AUTODOCKTOOLS-COMPATIBLE DLG FILE    **
**********************************************************


    DOCKING PARAMETERS
    ________________________


Ligand file:                               /home/a/REINVENT4/ReinventStudies/pleaseWork/justmol2mol_4_Compounds_ontop/graph-dock/graph-DockGPU/node-autodockgpu/inputs/QFBYLCYUGQRGNG-ARSKLOKFNA-N.pdbqt
Grid fld file:                             /home/a/REINVENT4/ReinventStudies/mols/Rad51/maps/rad51_receptor.maps.fld

Random seed:                               42
Number of runs:                            20
Number of energy evaluations:              1132076
Number of generations:                     42000
Size of population:                        150
Rate of crossover:                         80.000000%
Tournament selection probability limit:    60.000000%
Rate of mutation:                          2.000000%
Maximal allowed delta movement:            +/- 6.000000A
Maximal allowed delta angle:               +/- 90.000000

Rate of local search:                      100.000000%
Maximal number of local search iterations: 300
Rho lower bound:                           0.010000
Spread of local search delta movement:     2.000000A
Spread of local search delta angle:        74.999999
Limit of consecutive successes/failures:   4

Handle symmetry during clustering:         YES
RMSD tolerance:                            2.000000A

Program call in command line was:          /home/a/REINVENT4/ReinventStudies/adgpu-v1.6_linux_x64_cuda12_128wi --filelist batch.txt --heuristics 1 --nrun 20 --psize 150 --lsit 300 --seed 42 --heurmax 12000000 


    GRID PARAMETERS
    ________________________


Receptor name:                             rad51_receptor
Number of grid points (x, y, z):           53, 53, 53
Grid center (x, y, z):                     139.950000, 75.640000, 221.970000A
Grid size (x, y, z):                       19.500000, 19.500000, 19.500000A
Grid spacing:                              0.375000A


    LIGAND PARAMETERS
    ________________________


Ligand name:                               /home/a/REINVENT4/ReinventStudies/pleaseWork/justmol2mol_4_Compounds_ontop/graph-dock/graph-DockGPU/node-autodockgpu/inputs/QFBYLCYUGQRGNG-ARSKLOKFNA-N
Number of atoms:                           29
Number of rotatable bonds:                 5
Number of atom types:                      7


    DUMMY DATA (only for ADT-compatibility)
    ________________________


DPF> outlev 1
DPF> ga_run 20
DPF> fld /home/a/REINVENT4/ReinventStudies/mols/Rad51/maps/rad51_receptor.maps.fld
DPF> move /home/a/REINVENT4/ReinventStudies/pleaseWork/justmol2mol_4_Compounds_ontop/graph-dock/graph-DockGPU/node-autodockgpu/inputs/QFBYLCYUGQRGNG-ARSKLOKFNA-N.pdbqt


    COUNTER STATES
    ________________________


Number of energy evaluations performed:    784528
Number of generations used:                45


    INPUT LIGAND PDBQT FILE:
    ________________________


INPUT-LIGAND-PDBQT: REMARK SMILES O=C(NCC(=O)N1CC[C@H](c2ccccc2)C1)c1ccc2cc(Cl)ccc2n1
INPUT-LIGAND-PDBQT: REMARK SMILES IDX 4 1 3 2 2 3 1 4 18 6 19 7 28 8 20 9 27 10 21 11 26 12 22 13
INPUT-LIGAND-PDBQT: REMARK SMILES IDX 25 14 23 15 24 16 5 17 6 18 7 19 8 20 17 21 9 22 10 23 11 24
INPUT-LIGAND-PDBQT: REMARK SMILES IDX 12 25 16 26 13 27 15 28 14 29
INPUT-LIGAND-PDBQT: REMARK H PARENT 3 5
INPUT-LIGAND-PDBQT: ROOT
INPUT-LIGAND-PDBQT: ATOM      1  C   UNL     1       0.128  -0.403  -0.422  1.00  0.00     0.216 C 
INPUT-LIGAND-PDBQT: ENDROOT
INPUT-LIGAND-PDBQT: BRANCH   1   2
INPUT-LIGAND-PDBQT: ATOM      2  N   UNL     1       1.589  -0.350  -0.275  1.00  0.00    -0.342 N 
INPUT-LIGAND-PDBQT: ATOM      3  C   UNL     1       2.447  -1.156  -1.088  1.00  0.00     0.270 C 
INPUT-LIGAND-PDBQT: ATOM      4  O   UNL     1       1.915  -1.916  -1.937  1.00  0.00    -0.268 OA
INPUT-LIGAND-PDBQT: ATOM      5  H   UNL     1       2.048   0.281   0.430  1.00  0.00     0.164 HD
INPUT-LIGAND-PDBQT: BRANCH   3   6
INPUT-LIGAND-PDBQT: ATOM      6  C   UNL     1       3.890  -1.062  -0.899  1.00  0.00     0.128 A 
INPUT-LIGAND-PDBQT: ATOM      7  C   UNL     1       4.707  -1.858  -1.704  1.00  0.00     0.035 A 
INPUT-LIGAND-PDBQT: ATOM      8  N   UNL     1       4.415  -0.233   0.023  1.00  0.00    -0.243 NA
INPUT-LIGAND-PDBQT: ATOM      9  C   UNL     1       6.064  -1.736  -1.490  1.00  0.00     0.013 A 
INPUT-LIGAND-PDBQT: ATOM     10  C   UNL     1       5.736  -0.103   0.243  1.00  0.00     0.071 A 
INPUT-LIGAND-PDBQT: ATOM     11  C   UNL     1       6.584  -0.883  -0.542  1.00  0.00     0.002 A 
INPUT-LIGAND-PDBQT: ATOM     12  C   UNL     1       6.201   0.763   1.202  1.00  0.00     0.030 A 
INPUT-LIGAND-PDBQT: ATOM     13  C   UNL     1       7.938  -0.742  -0.307  1.00  0.00     0.030 A 
INPUT-LIGAND-PDBQT: ATOM     14  C   UNL     1       7.556   0.894   1.425  1.00  0.00     0.023 A 
INPUT-LIGAND-PDBQT: ATOM     15  C   UNL     1       8.410   0.134   0.662  1.00  0.00     0.041 A 
INPUT-LIGAND-PDBQT: ATOM     16  Cl  UNL     1      10.125   0.305   0.950  1.00  0.00    -0.084 Cl
INPUT-LIGAND-PDBQT: ENDBRANCH   3   6
INPUT-LIGAND-PDBQT: ENDBRANCH   1   2
INPUT-LIGAND-PDBQT: BRANCH   1  17
INPUT-LIGAND-PDBQT: ATOM     17  C   UNL     1      -0.453   0.538   0.553  1.00  0.00     0.241 C 
INPUT-LIGAND-PDBQT: ATOM     18  O   UNL     1       0.230   1.233   1.342  1.00  0.00    -0.273 OA
INPUT-LIGAND-PDBQT: BRANCH  17  19
INPUT-LIGAND-PDBQT: ATOM     19  N   UNL     1      -1.867   0.686   0.626  1.00  0.00    -0.341 N 
INPUT-LIGAND-PDBQT: ATOM     20  C   UNL     1      -2.638   1.547   1.503  1.00  0.00     0.120 C 
INPUT-LIGAND-PDBQT: ATOM     21  C   UNL     1      -2.884  -0.007  -0.180  1.00  0.00     0.128 C 
INPUT-LIGAND-PDBQT: ATOM     22  C   UNL     1      -3.681   2.119   0.575  1.00  0.00     0.032 C 
INPUT-LIGAND-PDBQT: ATOM     23  C   UNL     1      -4.000   0.985  -0.337  1.00  0.00     0.040 C 
INPUT-LIGAND-PDBQT: BRANCH  23  24
INPUT-LIGAND-PDBQT: ATOM     24  C   UNL     1      -5.320   0.364  -0.128  1.00  0.00    -0.043 A 
INPUT-LIGAND-PDBQT: ATOM     25  C   UNL     1      -6.220   0.420  -1.189  1.00  0.00     0.004 A 
INPUT-LIGAND-PDBQT: ATOM     26  C   UNL     1      -5.668  -0.245   1.045  1.00  0.00     0.004 A 
INPUT-LIGAND-PDBQT: ATOM     27  C   UNL     1      -7.494  -0.144  -1.079  1.00  0.00     0.000 A 
INPUT-LIGAND-PDBQT: ATOM     28  C   UNL     1      -6.936  -0.805   1.153  1.00  0.00     0.000 A 
INPUT-LIGAND-PDBQT: ATOM     29  C   UNL     1      -7.841  -0.760   0.113  1.00  0.00     0.000 A 
INPUT-LIGAND-PDBQT: ENDBRANCH  23  24
INPUT-LIGAND-PDBQT: ENDBRANCH  17  19
INPUT-LIGAND-PDBQT: ENDBRANCH   1  17
INPUT-LIGAND-PDBQT: TORSDOF 5


    FINAL DOCKED STATE:
    ________________________


Run:   1 / 20
Time taken for this run:   0.035s

DOCKED: MODEL        1
DOCKED: USER    Run = 1
DOCKED: USER
DOCKED: USER    Estimated Free Energy of Binding    =  -8.59 kcal/mol  [=(1)+(2)+(3)-(4)]
DOCKED: USER
DOCKED: USER    (1) Final Intermolecular Energy     = -10.08 kcal/mol
DOCKED: USER        vdW + Hbond + desolv Energy     = -10.05 kcal/mol
DOCKED: USER        Electrostatic Energy            =  -0.03 kcal/mol
DOCKED: USER        Moving Ligand-Fixed Receptor    = -10.08 kcal/mol
DOCKED: USER        Moving Ligand-Moving Receptor   =  +0.00 kcal/mol
DOCKED: USER    (2) Final Total Internal Energy     =  -1.27 kcal/mol
DOCKED: USER    (3) Torsional Free Energy           =  +1.49 kcal/mol
DOCKED: USER    (4) Unbound System's Energy         =  -1.27 kcal/mol
DOCKED: USER
DOCKED: USER
DOCKED: REMARK SMILES O=C(NCC(=O)N1CC[C@H](c2ccccc2)C1)c1ccc2cc(Cl)ccc2n1
DOCKED: REMARK SMILES IDX 4 1 3 2 2 3 1 4 18 6 19 7 28 8 20 9 27 10 21 11 26 12 22 13
DOCKED: REMARK SMILES IDX 25 14 23 15 24 16 5 17 6 18 7 19 8 20 17 21 9 22 10 23 11 24
DOCKED: REMARK SMILES IDX 12 25 16 26 13 27 15 28 14 29
DOCKED: REMARK H PARENT 3 5
DOCKED: USER                              x       y       z     vdW  Elec       q    Type
DOCKED: USER                           _______ _______ _______ _____ _____    ______ ____
DOCKED: ROOT
DOCKED: ATOM      1  C   UNL     1     136.832  72.842 221.863 -0.08 -0.05    +0.216 C  
DOCKED: ENDROOT
DOCKED: BRANCH   1   2
DOCKED: ATOM      2  N   UNL     1     137.521  74.088 222.227 -0.03 +0.12    -0.342 N  
DOCKED: ATOM      3  C   UNL     1     136.955  75.366 221.922 -0.11 -0.06    +0.270 C  
DOCKED: ATOM      4  O   UNL     1     135.846  75.396 221.331 -0.03 +0.05    -0.268 OA 
DOCKED: ATOM      5  H   UNL     1     138.449  74.078 222.722 -0.55 -0.08    +0.164 HD 
DOCKED: BRANCH   3   6
DOCKED: ATOM      6  C   UNL     1     137.683  76.569 222.308 -0.22 -0.03    +0.128 A  
DOCKED: ATOM      7  C   UNL     1     136.939  77.696 222.664 -0.20 -0.01    +0.035 A  
DOCKED: ATOM      8  N   UNL     1     139.029  76.590 222.320 -0.21 +0.05    -0.243 NA 
DOCKED: ATOM      9  C   UNL     1     137.669  78.810 223.021 -0.21 -0.00    +0.013 A  
DOCKED: ATOM     10  C   UNL     1     139.755  77.669 222.666 -0.30 -0.01    +0.071 A  
DOCKED: ATOM     11  C   UNL     1     139.047  78.814 223.027 -0.33 -0.00    +0.002 A  
DOCKED: ATOM     12  C   UNL     1     141.127  77.619 222.654 -0.42 -0.01    +0.030 A  
DOCKED: ATOM     13  C   UNL     1     139.802  79.916 223.380 -0.41 -0.00    +0.030 A  
DOCKED: ATOM     14  C   UNL     1     141.869  78.726 223.010 -0.53 -0.01    +0.023 A  
DOCKED: ATOM     15  C   UNL     1     141.190  79.866 223.370 -0.51 -0.01    +0.041 A  
DOCKED: ATOM     16  Cl  UNL     1     142.135  81.265 223.819 -0.74 +0.01    -0.084 Cl 
DOCKED: ENDBRANCH   3   6
DOCKED: ENDBRANCH   1   2
DOCKED: BRANCH   1  17
DOCKED: ATOM     17  C   UNL     1     137.818  71.748 221.937 -0.08 -0.05    +0.241 C  
DOCKED: ATOM     18  O   UNL     1     138.298  71.174 220.932 -0.03 +0.05    -0.273 OA 
DOCKED: BRANCH  17  19
DOCKED: ATOM     19  N   UNL     1     138.268  71.298 223.211 -0.10 +0.09    -0.341 N  
DOCKED: ATOM     20  C   UNL     1     137.542  70.525 224.200 -0.20 -0.02    +0.120 C  
DOCKED: ATOM     21  C   UNL     1     139.588  71.513 223.823 -0.30 -0.03    +0.128 C  
DOCKED: ATOM     22  C   UNL     1     138.567  69.514 224.652 -0.34 -0.00    +0.032 C  
DOCKED: ATOM     23  C   UNL     1     139.844  70.281 224.642 -0.40 -0.01    +0.040 C  
DOCKED: BRANCH  23  24
DOCKED: ATOM     24  C   UNL     1     140.389  70.609 225.971 -0.53 +0.01    -0.043 A  
DOCKED: ATOM     25  C   UNL     1     140.930  71.881 226.136 -0.62 -0.00    +0.004 A  
DOCKED: ATOM     26  C   UNL     1     140.375  69.721 227.011 -0.57 -0.00    +0.004 A  
DOCKED: ATOM     27  C   UNL     1     141.468  72.278 227.364 -0.81 -0.00    +0.000 A  
DOCKED: ATOM     28  C   UNL     1     140.912  70.117 228.231 -0.58 -0.00    +0.000 A  
DOCKED: ATOM     29  C   UNL     1     141.452  71.373 228.413 -0.59 -0.00    +0.000 A  
DOCKED: ENDBRANCH  23  24
DOCKED: ENDBRANCH  17  19
DOCKED: ENDBRANCH   1  17
DOCKED: TORSDOF 5
DOCKED: TER
DOCKED: ENDMDL
________________________________________________________________________________


    FINAL DOCKED STATE:
    ________________________


Run:   2 / 20
Time taken for this run:   0.035s

DOCKED: MODEL        2
DOCKED: USER    Run = 2
DOCKED: USER
DOCKED: USER    Estimated Free Energy of Binding    =  -9.03 kcal/mol  [=(1)+(2)+(3)-(4)]
DOCKED: USER
DOCKED: USER    (1) Final Intermolecular Energy     = -10.52 kcal/mol
DOCKED: USER        vdW + Hbond + desolv Energy     = -10.49 kcal/mol
DOCKED: USER        Electrostatic Energy            =  -0.03 kcal/mol
DOCKED: USER        Moving Ligand-Fixed Receptor    = -10.52 kcal/mol
DOCKED: USER        Moving Ligand-Moving Receptor   =  +0.00 kcal/mol
DOCKED: USER    (2) Final Total Internal Energy     =  -1.20 kcal/mol
DOCKED: USER    (3) Torsional Free Energy           =  +1.49 kcal/mol
DOCKED: USER    (4) Unbound System's Energy         =  -1.20 kcal/mol
DOCKED: USER
DOCKED: USER
DOCKED: REMARK SMILES O=C(NCC(=O)N1CC[C@H](c2ccccc2)C1)c1ccc2cc(Cl)ccc2n1
DOCKED: REMARK SMILES IDX 4 1 3 2 2 3 1 4 18 6 19 7 28 8 20 9 27 10 21 11 26 12 22 13
DOCKED: REMARK SMILES IDX 25 14 23 15 24 16 5 17 6 18 7 19 8 20 17 21 9 22 10 23 11 24
DOCKED: REMARK SMILES IDX 12 25 16 26 13 27 15 28 14 29
DOCKED: REMARK H PARENT 3 5
DOCKED: USER                              x       y       z     vdW  Elec       q    Type
DOCKED: USER                           _______ _______ _______ _____ _____    ______ ____
DOCKED: ROOT
DOCKED: ATOM      1  C   UNL     1     140.604  73.552 219.810 -0.06 -0.04    +0.216 C  
DOCKED: ENDROOT
DOCKED: BRANCH   1   2
DOCKED: ATOM      2  N   UNL     1     140.591  72.561 220.895 -0.07 +0.05    -0.342 N  
DOCKED: ATOM      3  C   UNL     1     140.018  72.864 222.170 -0.19 -0.04    +0.270 C  
DOCKED: ATOM      4  O   UNL     1     139.522  74.007 222.340 -0.78 +0.04    -0.268 OA 
DOCKED: ATOM      5  H   UNL     1     141.002  71.601 220.768 +0.04 -0.02    +0.164 HD 
DOCKED: BRANCH   3   6
DOCKED: ATOM      6  C   UNL     1     140.033  71.842 223.210 -0.30 -0.02    +0.128 A  
DOCKED: ATOM      7  C   UNL     1     139.545  70.574 222.887 -0.24 -0.01    +0.035 A  
DOCKED: ATOM      8  N   UNL     1     140.503  72.114 224.442 -0.10 +0.03    -0.243 NA 
DOCKED: ATOM      9  C   UNL     1     139.578  69.641 223.902 -0.28 -0.00    +0.013 A  
DOCKED: ATOM     10  C   UNL     1     140.543  71.214 225.442 -0.52 -0.01    +0.071 A  
DOCKED: ATOM     11  C   UNL     1     140.063  69.937 225.157 -0.43 -0.00    +0.002 A  
DOCKED: ATOM     12  C   UNL     1     141.036  71.563 226.675 -0.70 -0.00    +0.030 A  
DOCKED: ATOM     13  C   UNL     1     140.107  69.021 226.190 -0.51 -0.01    +0.030 A  
DOCKED: ATOM     14  C   UNL     1     141.075  70.638 227.697 -0.63 -0.00    +0.023 A  
DOCKED: ATOM     15  C   UNL     1     140.606  69.372 227.438 -0.58 -0.01    +0.041 A  
DOCKED: ATOM     16  Cl  UNL     1     140.659  68.205 228.737 -0.61 +0.02    -0.084 Cl 
DOCKED: ENDBRANCH   3   6
DOCKED: ENDBRANCH   1   2
DOCKED: BRANCH   1  17
DOCKED: ATOM     17  C   UNL     1     141.950  74.152 219.769 -0.12 -0.06    +0.241 C  
DOCKED: ATOM     18  O   UNL     1     142.980  73.528 219.420 -0.10 +0.06    -0.273 OA 
DOCKED: BRANCH  17  19
DOCKED: ATOM     19  N   UNL     1     142.120  75.515 220.142 -0.12 +0.15    -0.341 N  
DOCKED: ATOM     20  C   UNL     1     143.001  76.506 219.554 -0.31 -0.08    +0.120 C  
DOCKED: ATOM     21  C   UNL     1     141.434  76.241 221.222 -0.20 -0.06    +0.128 C  
DOCKED: ATOM     22  C   UNL     1     142.122  77.730 219.481 -0.28 -0.02    +0.032 C  
DOCKED: ATOM     23  C   UNL     1     141.304  77.651 220.723 -0.29 -0.02    +0.040 C  
DOCKED: BRANCH  23  24
DOCKED: ATOM     24  C   UNL     1     141.647  78.636 221.764 -0.39 +0.02    -0.043 A  
DOCKED: ATOM     25  C   UNL     1     141.409  78.268 223.086 -0.54 -0.00    +0.004 A  
DOCKED: ATOM     26  C   UNL     1     142.176  79.861 221.470 -0.40 -0.00    +0.004 A  
DOCKED: ATOM     27  C   UNL     1     141.705  79.139 224.137 -0.57 -0.00    +0.000 A  
DOCKED: ATOM     28  C   UNL     1     142.470  80.727 222.518 -0.56 -0.00    +0.000 A  
DOCKED: ATOM     29  C   UNL     1     142.242  80.381 223.833 -0.65 -0.00    +0.000 A  
DOCKED: ENDBRANCH  23  24
DOCKED: ENDBRANCH  17  19
DOCKED: ENDBRANCH   1  17
DOCKED: TORSDOF 5
DOCKED: TER
DOCKED: ENDMDL
________________________________________________________________________________


    FINAL DOCKED STATE:
    ________________________


Run:   3 / 20
Time taken for this run:   0.035s

DOCKED: MODEL        3
DOCKED: USER    Run = 3
DOCKED: USER
DOCKED: USER    Estimated Free Energy of Binding    =  -8.66 kcal/mol  [=(1)+(2)+(3)-(4)]
DOCKED: USER
DOCKED: USER    (1) Final Intermolecular Energy     = -10.15 kcal/mol
DOCKED: USER        vdW + Hbond + desolv Energy     = -10.11 kcal/mol
DOCKED: USER        Electrostatic Energy            =  -0.04 kcal/mol
DOCKED: USER        Moving Ligand-Fixed Receptor    = -10.15 kcal/mol
DOCKED: USER        Moving Ligand-Moving Receptor   =  +0.00 kcal/mol
DOCKED: USER    (2) Final Total Internal Energy     =  -1.20 kcal/mol
DOCKED: USER    (3) Torsional Free Energy           =  +1.49 kcal/mol
DOCKED: USER    (4) Unbound System's Energy         =  -1.20 kcal/mol
DOCKED: USER
DOCKED: USER
DOCKED: REMARK SMILES O=C(NCC(=O)N1CC[C@H](c2ccccc2)C1)c1ccc2cc(Cl)ccc2n1
DOCKED: REMARK SMILES IDX 4 1 3 2 2 3 1 4 18 6 19 7 28 8 20 9 27 10 21 11 26 12 22 13
DOCKED: REMARK SMILES IDX 25 14 23 15 24 16 5 17 6 18 7 19 8 20 17 21 9 22 10 23 11 24
DOCKED: REMARK SMILES IDX 12 25 16 26 13 27 15 28 14 29
DOCKED: REMARK H PARENT 3 5
DOCKED: USER                              x       y       z     vdW  Elec       q    Type
DOCKED: USER                           _______ _______ _______ _____ _____    ______ ____
DOCKED: ROOT
DOCKED: ATOM      1  C   UNL     1     138.811  74.643 220.897 -0.11 -0.05    +0.216 C  
DOCKED: ENDROOT
DOCKED: BRANCH   1   2
DOCKED: ATOM      2  N   UNL     1     138.992  73.699 222.008 -0.11 +0.09    -0.342 N  
DOCKED: ATOM      3  C   UNL     1     139.362  72.337 221.773 -0.14 -0.05    +0.270 C  
DOCKED: ATOM      4  O   UNL     1     139.530  71.967 220.583 -0.05 +0.05    -0.268 OA 
DOCKED: ATOM      5  H   UNL     1     138.855  73.994 223.008 -0.55 -0.09    +0.164 HD 
DOCKED: BRANCH   3   6
DOCKED: ATOM      6  C   UNL     1     139.528  71.445 222.914 -0.26 -0.03    +0.128 A  
DOCKED: ATOM      7  C   UNL     1     139.085  70.127 222.782 -0.20 -0.01    +0.035 A  
DOCKED: ATOM      8  N   UNL     1     140.090  71.880 224.057 -0.26 +0.05    -0.243 NA 
DOCKED: ATOM      9  C   UNL     1     139.262  69.320 223.886 -0.28 -0.00    +0.013 A  
DOCKED: ATOM     10  C   UNL     1     140.270  71.104 225.142 -0.48 -0.01    +0.071 A  
DOCKED: ATOM     11  C   UNL     1     139.840  69.782 225.048 -0.41 -0.00    +0.002 A  
DOCKED: ATOM     12  C   UNL     1     140.851  71.616 226.276 -0.64 -0.00    +0.030 A  
DOCKED: ATOM     13  C   UNL     1     140.028  68.995 226.168 -0.51 -0.01    +0.030 A  
DOCKED: ATOM     14  C   UNL     1     141.034  70.819 227.387 -0.65 -0.00    +0.023 A  
DOCKED: ATOM     15  C   UNL     1     140.617  69.511 227.315 -0.56 -0.01    +0.041 A  
DOCKED: ATOM     16  Cl  UNL     1     140.851  68.507 228.726 -0.70 +0.02    -0.084 Cl 
DOCKED: ENDBRANCH   3   6
DOCKED: ENDBRANCH   1   2
DOCKED: BRANCH   1  17
DOCKED: ATOM     17  C   UNL     1     137.987  75.762 221.391 -0.12 -0.05    +0.241 C  
DOCKED: ATOM     18  O   UNL     1     136.751  75.682 221.587 -0.07 +0.06    -0.273 OA 
DOCKED: BRANCH  17  19
DOCKED: ATOM     19  N   UNL     1     138.603  77.015 221.668 -0.08 +0.07    -0.341 N  
DOCKED: ATOM     20  C   UNL     1     138.380  78.291 221.015 -0.09 -0.03    +0.120 C  
DOCKED: ATOM     21  C   UNL     1     139.617  77.309 222.692 -0.19 -0.03    +0.128 C  
DOCKED: ATOM     22  C   UNL     1     138.321  79.253 222.176 -0.20 -0.01    +0.032 C  
DOCKED: ATOM     23  C   UNL     1     139.335  78.718 223.128 -0.32 -0.01    +0.040 C  
DOCKED: BRANCH  23  24
DOCKED: ATOM     24  C   UNL     1     140.570  79.514 223.243 -0.44 +0.01    -0.043 A  
DOCKED: ATOM     25  C   UNL     1     141.772  78.856 222.996 -0.56 -0.00    +0.004 A  
DOCKED: ATOM     26  C   UNL     1     140.561  80.840 223.575 -0.44 -0.00    +0.004 A  
DOCKED: ATOM     27  C   UNL     1     142.991  79.534 223.082 -0.54 -0.00    +0.000 A  
DOCKED: ATOM     28  C   UNL     1     141.774  81.513 223.660 -0.54 -0.00    +0.000 A  
DOCKED: ATOM     29  C   UNL     1     142.975  80.878 223.419 -0.60 -0.00    +0.000 A  
DOCKED: ENDBRANCH  23  24
DOCKED: ENDBRANCH  17  19
DOCKED: ENDBRANCH   1  17
DOCKED: TORSDOF 5
DOCKED: TER
DOCKED: ENDMDL
________________________________________________________________________________


    FINAL DOCKED STATE:
    ________________________


Run:   4 / 20
Time taken for this run:   0.035s

DOCKED: MODEL        4
DOCKED: USER    Run = 4
DOCKED: USER
DOCKED: USER    Estimated Free Energy of Binding    =  -8.58 kcal/mol  [=(1)+(2)+(3)-(4)]
DOCKED: USER
DOCKED: USER    (1) Final Intermolecular Energy     = -10.07 kcal/mol
DOCKED: USER        vdW + Hbond + desolv Energy     = -10.06 kcal/mol
DOCKED: USER        Electrostatic Energy            =  -0.01 kcal/mol
DOCKED: USER        Moving Ligand-Fixed Receptor    = -10.07 kcal/mol
DOCKED: USER        Moving Ligand-Moving Receptor   =  +0.00 kcal/mol
DOCKED: USER    (2) Final Total Internal Energy     =  -1.29 kcal/mol
DOCKED: USER    (3) Torsional Free Energy           =  +1.49 kcal/mol
DOCKED: USER    (4) Unbound System's Energy         =  -1.29 kcal/mol
DOCKED: USER
DOCKED: USER
DOCKED: REMARK SMILES O=C(NCC(=O)N1CC[C@H](c2ccccc2)C1)c1ccc2cc(Cl)ccc2n1
DOCKED: REMARK SMILES IDX 4 1 3 2 2 3 1 4 18 6 19 7 28 8 20 9 27 10 21 11 26 12 22 13
DOCKED: REMARK SMILES IDX 25 14 23 15 24 16 5 17 6 18 7 19 8 20 17 21 9 22 10 23 11 24
DOCKED: REMARK SMILES IDX 12 25 16 26 13 27 15 28 14 29
DOCKED: REMARK H PARENT 3 5
DOCKED: USER                              x       y       z     vdW  Elec       q    Type
DOCKED: USER                           _______ _______ _______ _____ _____    ______ ____
DOCKED: ROOT
DOCKED: ATOM      1  C   UNL     1     138.819  74.535 220.894 -0.11 -0.05    +0.216 C  
DOCKED: ENDROOT
DOCKED: BRANCH   1   2
DOCKED: ATOM      2  N   UNL     1     139.060  73.608 222.008 -0.12 +0.08    -0.342 N  
DOCKED: ATOM      3  C   UNL     1     139.115  72.193 221.798 -0.13 -0.06    +0.270 C  
DOCKED: ATOM      4  O   UNL     1     138.950  71.762 220.628 -0.03 +0.05    -0.268 OA 
DOCKED: ATOM      5  H   UNL     1     139.200  73.954 222.991 -0.53 -0.06    +0.164 HD 
DOCKED: BRANCH   3   6
DOCKED: ATOM      6  C   UNL     1     139.359  71.320 222.940 -0.24 -0.03    +0.128 A  
DOCKED: ATOM      7  C   UNL     1     138.967  69.984 222.836 -0.20 -0.01    +0.035 A  
DOCKED: ATOM      8  N   UNL     1     139.943  71.790 224.059 -0.25 +0.05    -0.243 NA 
DOCKED: ATOM      9  C   UNL     1     139.216  69.197 223.941 -0.29 -0.00    +0.013 A  
DOCKED: ATOM     10  C   UNL     1     140.193  71.034 225.143 -0.47 -0.01    +0.071 A  
DOCKED: ATOM     11  C   UNL     1     139.815  69.694 225.077 -0.41 -0.00    +0.002 A  
DOCKED: ATOM     12  C   UNL     1     140.793  71.581 226.251 -0.63 -0.00    +0.030 A  
DOCKED: ATOM     13  C   UNL     1     140.076  68.928 226.196 -0.51 -0.01    +0.030 A  
DOCKED: ATOM     14  C   UNL     1     141.048  70.804 227.361 -0.64 -0.00    +0.023 A  
DOCKED: ATOM     15  C   UNL     1     140.683  69.479 227.317 -0.57 -0.01    +0.041 A  
DOCKED: ATOM     16  Cl  UNL     1     141.010  68.500 228.727 -0.70 +0.02    -0.084 Cl 
DOCKED: ENDBRANCH   3   6
DOCKED: ENDBRANCH   1   2
DOCKED: BRANCH   1  17
DOCKED: ATOM     17  C   UNL     1     138.005  75.650 221.410 -0.12 -0.05    +0.241 C  
DOCKED: ATOM     18  O   UNL     1     136.775  75.566 221.640 -0.07 +0.06    -0.273 OA 
DOCKED: BRANCH  17  19
DOCKED: ATOM     19  N   UNL     1     138.623  76.906 221.671 -0.09 +0.07    -0.341 N  
DOCKED: ATOM     20  C   UNL     1     138.426  78.167 220.980 -0.09 -0.03    +0.120 C  
DOCKED: ATOM     21  C   UNL     1     139.614  77.219 222.712 -0.17 -0.02    +0.128 C  
DOCKED: ATOM     22  C   UNL     1     138.347  79.158 222.114 -0.20 -0.01    +0.032 C  
DOCKED: ATOM     23  C   UNL     1     139.332  78.640 223.104 -0.32 -0.01    +0.040 C  
DOCKED: BRANCH  23  24
DOCKED: ATOM     24  C   UNL     1     140.570  79.431 223.229 -0.44 +0.01    -0.043 A  
DOCKED: ATOM     25  C   UNL     1     141.749  78.831 222.795 -0.53 -0.00    +0.004 A  
DOCKED: ATOM     26  C   UNL     1     140.585  80.696 223.746 -0.43 -0.00    +0.004 A  
DOCKED: ATOM     27  C   UNL     1     142.969  79.508 222.875 -0.55 -0.00    +0.000 A  
DOCKED: ATOM     28  C   UNL     1     141.799  81.368 223.826 -0.58 -0.00    +0.000 A  
DOCKED: ATOM     29  C   UNL     1     142.978  80.791 223.400 -0.61 -0.00    +0.000 A  
DOCKED: ENDBRANCH  23  24
DOCKED: ENDBRANCH  17  19
DOCKED: ENDBRANCH   1  17
DOCKED: TORSDOF 5
DOCKED: TER
DOCKED: ENDMDL
________________________________________________________________________________


    FINAL DOCKED STATE:
    ________________________


Run:   5 / 20
Time taken for this run:   0.035s

DOCKED: MODEL        5
DOCKED: USER    Run = 5
DOCKED: USER
DOCKED: USER    Estimated Free Energy of Binding    =  -8.96 kcal/mol  [=(1)+(2)+(3)-(4)]
DOCKED: USER
DOCKED: USER    (1) Final Intermolecular Energy     = -10.45 kcal/mol
DOCKED: USER        vdW + Hbond + desolv Energy     = -10.46 kcal/mol
DOCKED: USER        Electrostatic Energy            =  +0.00 kcal/mol
DOCKED: USER        Moving Ligand-Fixed Receptor    = -10.45 kcal/mol
DOCKED: USER        Moving Ligand-Moving Receptor   =  +0.00 kcal/mol
DOCKED: USER    (2) Final Total Internal Energy     =  -1.34 kcal/mol
DOCKED: USER    (3) Torsional Free Energy           =  +1.49 kcal/mol
DOCKED: USER    (4) Unbound System's Energy         =  -1.34 kcal/mol
DOCKED: USER
DOCKED: USER
DOCKED: REMARK SMILES O=C(NCC(=O)N1CC[C@H](c2ccccc2)C1)c1ccc2cc(Cl)ccc2n1
DOCKED: REMARK SMILES IDX 4 1 3 2 2 3 1 4 18 6 19 7 28 8 20 9 27 10 21 11 26 12 22 13
DOCKED: REMARK SMILES IDX 25 14 23 15 24 16 5 17 6 18 7 19 8 20 17 21 9 22 10 23 11 24
DOCKED: REMARK SMILES IDX 12 25 16 26 13 27 15 28 14 29
DOCKED: REMARK H PARENT 3 5
DOCKED: USER                              x       y       z     vdW  Elec       q    Type
DOCKED: USER                           _______ _______ _______ _____ _____    ______ ____
DOCKED: ROOT
DOCKED: ATOM      1  C   UNL     1     138.666  74.074 221.240 -0.13 -0.05    +0.216 C  
DOCKED: ENDROOT
DOCKED: BRANCH   1   2
DOCKED: ATOM      2  N   UNL     1     139.038  73.162 222.330 -0.09 +0.09    -0.342 N  
DOCKED: ATOM      3  C   UNL     1     138.689  71.775 222.290 -0.13 -0.06    +0.270 C  
DOCKED: ATOM      4  O   UNL     1     138.051  71.355 221.292 -0.04 +0.05    -0.268 OA 
DOCKED: ATOM      5  H   UNL     1     139.573  73.500 223.170 -0.47 -0.04    +0.164 HD 
DOCKED: BRANCH   3   6
DOCKED: ATOM      6  C   UNL     1     139.086  70.916 223.400 -0.25 -0.03    +0.128 A  
DOCKED: ATOM      7  C   UNL     1     138.813  69.551 223.298 -0.23 -0.01    +0.035 A  
DOCKED: ATOM      8  N   UNL     1     139.696  71.426 224.486 -0.26 +0.05    -0.243 NA 
DOCKED: ATOM      9  C   UNL     1     139.206  68.778 224.370 -0.34 -0.00    +0.013 A  
DOCKED: ATOM     10  C   UNL     1     140.084  70.685 225.540 -0.47 -0.01    +0.071 A  
DOCKED: ATOM     11  C   UNL     1     139.828  69.316 225.475 -0.44 -0.00    +0.002 A  
DOCKED: ATOM     12  C   UNL     1     140.701  71.274 226.616 -0.66 -0.00    +0.030 A  
DOCKED: ATOM     13  C   UNL     1     140.231  68.565 226.562 -0.58 -0.01    +0.030 A  
DOCKED: ATOM     14  C   UNL     1     141.099  70.511 227.695 -0.60 -0.00    +0.023 A  
DOCKED: ATOM     15  C   UNL     1     140.856  69.159 227.651 -0.58 -0.01    +0.041 A  
DOCKED: ATOM     16  Cl  UNL     1     141.362  68.199 229.021 -0.47 +0.02    -0.084 Cl 
DOCKED: ENDBRANCH   3   6
DOCKED: ENDBRANCH   1   2
DOCKED: BRANCH   1  17
DOCKED: ATOM     17  C   UNL     1     138.392  75.395 221.837 -0.17 -0.06    +0.241 C  
DOCKED: ATOM     18  O   UNL     1     137.263  75.754 222.245 -0.15 +0.07    -0.273 OA 
DOCKED: BRANCH  17  19
DOCKED: ATOM     19  N   UNL     1     139.452  76.336 221.969 -0.16 +0.07    -0.341 N  
DOCKED: ATOM     20  C   UNL     1     140.880  76.106 221.852 -0.31 -0.04    +0.120 C  
DOCKED: ATOM     21  C   UNL     1     139.343  77.774 222.257 -0.26 -0.03    +0.128 C  
DOCKED: ATOM     22  C   UNL     1     141.341  77.287 221.034 -0.29 -0.02    +0.032 C  
DOCKED: ATOM     23  C   UNL     1     140.489  78.407 221.522 -0.28 -0.01    +0.040 C  
DOCKED: BRANCH  23  24
DOCKED: ATOM     24  C   UNL     1     141.185  79.410 222.349 -0.41 +0.01    -0.043 A  
DOCKED: ATOM     25  C   UNL     1     142.576  79.364 222.361 -0.52 -0.00    +0.004 A  
DOCKED: ATOM     26  C   UNL     1     140.516  80.352 223.079 -0.44 -0.00    +0.004 A  
DOCKED: ATOM     27  C   UNL     1     143.317  80.277 223.116 -0.64 -0.00    +0.000 A  
DOCKED: ATOM     28  C   UNL     1     141.254  81.259 223.830 -0.47 -0.00    +0.000 A  
DOCKED: ATOM     29  C   UNL     1     142.633  81.230 223.854 -0.62 -0.00    +0.000 A  
DOCKED: ENDBRANCH  23  24
DOCKED: ENDBRANCH  17  19
DOCKED: ENDBRANCH   1  17
DOCKED: TORSDOF 5
DOCKED: TER
DOCKED: ENDMDL
________________________________________________________________________________


    FINAL DOCKED STATE:
    ________________________


Run:   6 / 20
Time taken for this run:   0.035s

DOCKED: MODEL        6
DOCKED: USER    Run = 6
DOCKED: USER
DOCKED: USER    Estimated Free Energy of Binding    =  -8.55 kcal/mol  [=(1)+(2)+(3)-(4)]
DOCKED: USER
DOCKED: USER    (1) Final Intermolecular Energy     = -10.04 kcal/mol
DOCKED: USER        vdW + Hbond + desolv Energy     =  -9.99 kcal/mol
DOCKED: USER        Electrostatic Energy            =  -0.05 kcal/mol
DOCKED: USER        Moving Ligand-Fixed Receptor    = -10.04 kcal/mol
DOCKED: USER        Moving Ligand-Moving Receptor   =  +0.00 kcal/mol
DOCKED: USER    (2) Final Total Internal Energy     =  -1.37 kcal/mol
DOCKED: USER    (3) Torsional Free Energy           =  +1.49 kcal/mol
DOCKED: USER    (4) Unbound System's Energy         =  -1.37 kcal/mol
DOCKED: USER
DOCKED: USER
DOCKED: REMARK SMILES O=C(NCC(=O)N1CC[C@H](c2ccccc2)C1)c1ccc2cc(Cl)ccc2n1
DOCKED: REMARK SMILES IDX 4 1 3 2 2 3 1 4 18 6 19 7 28 8 20 9 27 10 21 11 26 12 22 13
DOCKED: REMARK SMILES IDX 25 14 23 15 24 16 5 17 6 18 7 19 8 20 17 21 9 22 10 23 11 24
DOCKED: REMARK SMILES IDX 12 25 16 26 13 27 15 28 14 29
DOCKED: REMARK H PARENT 3 5
DOCKED: USER                              x       y       z     vdW  Elec       q    Type
DOCKED: USER                           _______ _______ _______ _____ _____    ______ ____
DOCKED: ROOT
DOCKED: ATOM      1  C   UNL     1     138.278  74.182 221.053 -0.10 -0.05    +0.216 C  
DOCKED: ENDROOT
DOCKED: BRANCH   1   2
DOCKED: ATOM      2  N   UNL     1     138.638  73.268 222.146 -0.06 +0.10    -0.342 N  
DOCKED: ATOM      3  C   UNL     1     138.556  71.849 221.984 -0.10 -0.06    +0.270 C  
DOCKED: ATOM      4  O   UNL     1     138.165  71.401 220.875 -0.03 +0.05    -0.268 OA 
DOCKED: ATOM      5  H   UNL     1     138.968  73.627 223.077 -0.53 -0.09    +0.164 HD 
DOCKED: BRANCH   3   6
DOCKED: ATOM      6  C   UNL     1     138.927  70.989 223.102 -0.22 -0.03    +0.128 A  
DOCKED: ATOM      7  C   UNL     1     138.583  69.638 223.028 -0.21 -0.01    +0.035 A  
DOCKED: ATOM      8  N   UNL     1     139.581  71.485 224.169 -0.25 +0.06    -0.243 NA 
DOCKED: ATOM      9  C   UNL     1     138.953  68.864 224.108 -0.32 -0.00    +0.013 A  
DOCKED: ATOM     10  C   UNL     1     139.949  70.742 225.229 -0.45 -0.01    +0.071 A  
DOCKED: ATOM     11  C   UNL     1     139.622  69.387 225.192 -0.41 -0.00    +0.002 A  
DOCKED: ATOM     12  C   UNL     1     140.613  71.316 226.285 -0.62 -0.00    +0.030 A  
DOCKED: ATOM     13  C   UNL     1     140.004  68.635 226.286 -0.55 -0.01    +0.030 A  
DOCKED: ATOM     14  C   UNL     1     140.990  70.552 227.370 -0.61 -0.00    +0.023 A  
DOCKED: ATOM     15  C   UNL     1     140.677  69.214 227.354 -0.58 -0.01    +0.041 A  
DOCKED: ATOM     16  Cl  UNL     1     141.156  68.252 228.732 -0.67 +0.02    -0.084 Cl 
DOCKED: ENDBRANCH   3   6
DOCKED: ENDBRANCH   1   2
DOCKED: BRANCH   1  17
DOCKED: ATOM     17  C   UNL     1     139.506  74.470 220.289 -0.07 -0.05    +0.241 C  
DOCKED: ATOM     18  O   UNL     1     139.840  73.854 219.250 -0.02 +0.06    -0.273 OA 
DOCKED: BRANCH  17  19
DOCKED: ATOM     19  N   UNL     1     140.381  75.501 220.734 -0.09 +0.09    -0.341 N  
DOCKED: ATOM     20  C   UNL     1     141.832  75.504 220.754 -0.23 -0.05    +0.120 C  
DOCKED: ATOM     21  C   UNL     1     140.013  76.816 221.282 -0.22 -0.04    +0.128 C  
DOCKED: ATOM     22  C   UNL     1     142.169  76.884 220.246 -0.25 -0.02    +0.032 C  
DOCKED: ATOM     23  C   UNL     1     141.105  77.745 220.833 -0.28 -0.02    +0.040 C  
DOCKED: BRANCH  23  24
DOCKED: ATOM     24  C   UNL     1     141.548  78.636 221.920 -0.40 +0.02    -0.043 A  
DOCKED: ATOM     25  C   UNL     1     142.120  79.850 221.548 -0.42 -0.00    +0.004 A  
DOCKED: ATOM     26  C   UNL     1     141.413  78.308 223.240 -0.54 -0.00    +0.004 A  
DOCKED: ATOM     27  C   UNL     1     142.567  80.757 222.513 -0.56 -0.00    +0.000 A  
DOCKED: ATOM     28  C   UNL     1     141.859  79.212 224.198 -0.55 -0.00    +0.000 A  
DOCKED: ATOM     29  C   UNL     1     142.428  80.419 223.850 -0.66 -0.00    +0.000 A  
DOCKED: ENDBRANCH  23  24
DOCKED: ENDBRANCH  17  19
DOCKED: ENDBRANCH   1  17
DOCKED: TORSDOF 5
DOCKED: TER
DOCKED: ENDMDL
________________________________________________________________________________


    FINAL DOCKED STATE:
    ________________________


Run:   7 / 20
Time taken for this run:   0.035s

DOCKED: MODEL        7
DOCKED: USER    Run = 7
DOCKED: USER
DOCKED: USER    Estimated Free Energy of Binding    =  -8.60 kcal/mol  [=(1)+(2)+(3)-(4)]
DOCKED: USER
DOCKED: USER    (1) Final Intermolecular Energy     = -10.09 kcal/mol
DOCKED: USER        vdW + Hbond + desolv Energy     = -10.08 kcal/mol
DOCKED: USER        Electrostatic Energy            =  -0.01 kcal/mol
DOCKED: USER        Moving Ligand-Fixed Receptor    = -10.09 kcal/mol
DOCKED: USER        Moving Ligand-Moving Receptor   =  +0.00 kcal/mol
DOCKED: USER    (2) Final Total Internal Energy     =  -1.27 kcal/mol
DOCKED: USER    (3) Torsional Free Energy           =  +1.49 kcal/mol
DOCKED: USER    (4) Unbound System's Energy         =  -1.27 kcal/mol
DOCKED: USER
DOCKED: USER
DOCKED: REMARK SMILES O=C(NCC(=O)N1CC[C@H](c2ccccc2)C1)c1ccc2cc(Cl)ccc2n1
DOCKED: REMARK SMILES IDX 4 1 3 2 2 3 1 4 18 6 19 7 28 8 20 9 27 10 21 11 26 12 22 13
DOCKED: REMARK SMILES IDX 25 14 23 15 24 16 5 17 6 18 7 19 8 20 17 21 9 22 10 23 11 24
DOCKED: REMARK SMILES IDX 12 25 16 26 13 27 15 28 14 29
DOCKED: REMARK H PARENT 3 5
DOCKED: USER                              x       y       z     vdW  Elec       q    Type
DOCKED: USER                           _______ _______ _______ _____ _____    ______ ____
DOCKED: ROOT
DOCKED: ATOM      1  C   UNL     1     138.859  74.590 220.893 -0.11 -0.05    +0.216 C  
DOCKED: ENDROOT
DOCKED: BRANCH   1   2
DOCKED: ATOM      2  N   UNL     1     139.085  73.656 222.005 -0.12 +0.08    -0.342 N  
DOCKED: ATOM      3  C   UNL     1     139.172  72.245 221.783 -0.13 -0.06    +0.270 C  
DOCKED: ATOM      4  O   UNL     1     139.049  71.822 220.605 -0.04 +0.05    -0.268 OA 
DOCKED: ATOM      5  H   UNL     1     139.189  73.994 222.995 -0.54 -0.06    +0.164 HD 
DOCKED: BRANCH   3   6
DOCKED: ATOM      6  C   UNL     1     139.397  71.365 222.924 -0.25 -0.03    +0.128 A  
DOCKED: ATOM      7  C   UNL     1     138.981  70.037 222.816 -0.20 -0.01    +0.035 A  
DOCKED: ATOM      8  N   UNL     1     139.988  71.821 224.044 -0.26 +0.05    -0.243 NA 
DOCKED: ATOM      9  C   UNL     1     139.214  69.242 223.919 -0.29 -0.00    +0.013 A  
DOCKED: ATOM     10  C   UNL     1     140.223  71.058 225.128 -0.47 -0.01    +0.071 A  
DOCKED: ATOM     11  C   UNL     1     139.820  69.725 225.057 -0.41 -0.00    +0.002 A  
DOCKED: ATOM     12  C   UNL     1     140.831  71.592 226.237 -0.64 -0.00    +0.030 A  
DOCKED: ATOM     13  C   UNL     1     140.065  68.952 226.175 -0.51 -0.01    +0.030 A  
DOCKED: ATOM     14  C   UNL     1     141.070  70.807 227.346 -0.64 -0.00    +0.023 A  
DOCKED: ATOM     15  C   UNL     1     140.681  69.489 227.298 -0.56 -0.01    +0.041 A  
DOCKED: ATOM     16  Cl  UNL     1     140.987  68.501 228.706 -0.71 +0.02    -0.084 Cl 
DOCKED: ENDBRANCH   3   6
DOCKED: ENDBRANCH   1   2
DOCKED: BRANCH   1  17
DOCKED: ATOM     17  C   UNL     1     138.032  75.699 221.403 -0.12 -0.05    +0.241 C  
DOCKED: ATOM     18  O   UNL     1     136.800  75.607 221.618 -0.07 +0.06    -0.273 OA 
DOCKED: BRANCH  17  19
DOCKED: ATOM     19  N   UNL     1     138.639  76.957 221.675 -0.09 +0.07    -0.341 N  
DOCKED: ATOM     20  C   UNL     1     138.425  78.224 221.001 -0.09 -0.03    +0.120 C  
DOCKED: ATOM     21  C   UNL     1     139.635  77.268 222.713 -0.18 -0.02    +0.128 C  
DOCKED: ATOM     22  C   UNL     1     138.344  79.201 222.148 -0.20 -0.01    +0.032 C  
DOCKED: ATOM     23  C   UNL     1     139.341  78.681 223.124 -0.32 -0.01    +0.040 C  
DOCKED: BRANCH  23  24
DOCKED: ATOM     24  C   UNL     1     140.572  79.483 223.251 -0.45 +0.01    -0.043 A  
DOCKED: ATOM     25  C   UNL     1     141.759  78.890 222.828 -0.54 -0.00    +0.004 A  
DOCKED: ATOM     26  C   UNL     1     140.573  80.752 223.757 -0.42 -0.00    +0.004 A  
DOCKED: ATOM     27  C   UNL     1     142.973  79.577 222.910 -0.57 -0.00    +0.000 A  
DOCKED: ATOM     28  C   UNL     1     141.782  81.434 223.839 -0.55 -0.00    +0.000 A  
DOCKED: ATOM     29  C   UNL     1     142.967  80.864 223.425 -0.61 -0.00    +0.000 A  
DOCKED: ENDBRANCH  23  24
DOCKED: ENDBRANCH  17  19
DOCKED: ENDBRANCH   1  17
DOCKED: TORSDOF 5
DOCKED: TER
DOCKED: ENDMDL
________________________________________________________________________________


    FINAL DOCKED STATE:
    ________________________


Run:   8 / 20
Time taken for this run:   0.035s

DOCKED: MODEL        8
DOCKED: USER    Run = 8
DOCKED: USER
DOCKED: USER    Estimated Free Energy of Binding    =  -8.50 kcal/mol  [=(1)+(2)+(3)-(4)]
DOCKED: USER
DOCKED: USER    (1) Final Intermolecular Energy     =  -9.99 kcal/mol
DOCKED: USER        vdW + Hbond + desolv Energy     =  -9.95 kcal/mol
DOCKED: USER        Electrostatic Energy            =  -0.04 kcal/mol
DOCKED: USER        Moving Ligand-Fixed Receptor    =  -9.99 kcal/mol
DOCKED: USER        Moving Ligand-Moving Receptor   =  +0.00 kcal/mol
DOCKED: USER    (2) Final Total Internal Energy     =  -1.45 kcal/mol
DOCKED: USER    (3) Torsional Free Energy           =  +1.49 kcal/mol
DOCKED: USER    (4) Unbound System's Energy         =  -1.45 kcal/mol
DOCKED: USER
DOCKED: USER
DOCKED: REMARK SMILES O=C(NCC(=O)N1CC[C@H](c2ccccc2)C1)c1ccc2cc(Cl)ccc2n1
DOCKED: REMARK SMILES IDX 4 1 3 2 2 3 1 4 18 6 19 7 28 8 20 9 27 10 21 11 26 12 22 13
DOCKED: REMARK SMILES IDX 25 14 23 15 24 16 5 17 6 18 7 19 8 20 17 21 9 22 10 23 11 24
DOCKED: REMARK SMILES IDX 12 25 16 26 13 27 15 28 14 29
DOCKED: REMARK H PARENT 3 5
DOCKED: USER                              x       y       z     vdW  Elec       q    Type
DOCKED: USER                           _______ _______ _______ _____ _____    ______ ____
DOCKED: ROOT
DOCKED: ATOM      1  C   UNL     1     136.501  72.242 222.068 -0.07 -0.05    +0.216 C  
DOCKED: ENDROOT
DOCKED: BRANCH   1   2
DOCKED: ATOM      2  N   UNL     1     137.369  73.401 222.315 -0.05 +0.12    -0.342 N  
DOCKED: ATOM      3  C   UNL     1     138.377  73.788 221.376 -0.11 -0.07    +0.270 C  
DOCKED: ATOM      4  O   UNL     1     138.502  73.105 220.328 -0.03 +0.05    -0.268 OA 
DOCKED: ATOM      5  H   UNL     1     137.275  73.982 223.186 -0.47 -0.10    +0.164 HD 
DOCKED: BRANCH   3   6
DOCKED: ATOM      6  C   UNL     1     139.209  74.948 221.673 -0.23 -0.03    +0.128 A  
DOCKED: ATOM      7  C   UNL     1     140.569  74.872 221.365 -0.30 -0.01    +0.035 A  
DOCKED: ATOM      8  N   UNL     1     138.681  76.056 222.226 -0.21 +0.05    -0.243 NA 
DOCKED: ATOM      9  C   UNL     1     141.316  75.992 221.663 -0.26 -0.01    +0.013 A  
DOCKED: ATOM     10  C   UNL     1     139.397  77.156 222.522 -0.28 -0.01    +0.071 A  
DOCKED: ATOM     11  C   UNL     1     140.759  77.117 222.229 -0.42 -0.00    +0.002 A  
DOCKED: ATOM     12  C   UNL     1     138.790  78.251 223.086 -0.27 -0.00    +0.030 A  
DOCKED: ATOM     13  C   UNL     1     141.485  78.251 222.538 -0.44 -0.01    +0.030 A  
DOCKED: ATOM     14  C   UNL     1     139.527  79.377 223.389 -0.40 -0.00    +0.023 A  
DOCKED: ATOM     15  C   UNL     1     140.873  79.360 223.108 -0.46 -0.01    +0.041 A  
DOCKED: ATOM     16  Cl  UNL     1     141.800  80.790 223.494 -0.74 +0.02    -0.084 Cl 
DOCKED: ENDBRANCH   3   6
DOCKED: ENDBRANCH   1   2
DOCKED: BRANCH   1  17
DOCKED: ATOM     17  C   UNL     1     137.339  71.032 222.147 -0.07 -0.05    +0.241 C  
DOCKED: ATOM     18  O   UNL     1     137.544  70.262 221.178 -0.02 +0.05    -0.273 OA 
DOCKED: BRANCH  17  19
DOCKED: ATOM     19  N   UNL     1     137.965  70.693 223.380 -0.09 +0.07    -0.341 N  
DOCKED: ATOM     20  C   UNL     1     137.495  69.781 224.407 -0.23 -0.01    +0.120 C  
DOCKED: ATOM     21  C   UNL     1     139.246  71.193 223.903 -0.29 -0.03    +0.128 C  
DOCKED: ATOM     22  C   UNL     1     138.745  69.020 224.773 -0.37 -0.00    +0.032 C  
DOCKED: ATOM     23  C   UNL     1     139.821  70.048 224.686 -0.38 -0.01    +0.040 C  
DOCKED: BRANCH  23  24
DOCKED: ATOM     24  C   UNL     1     140.373  70.489 225.979 -0.52 +0.01    -0.043 A  
DOCKED: ATOM     25  C   UNL     1     140.899  71.777 226.035 -0.61 -0.00    +0.004 A  
DOCKED: ATOM     26  C   UNL     1     140.379  69.689 227.087 -0.58 -0.00    +0.004 A  
DOCKED: ATOM     27  C   UNL     1     141.442  72.279 227.221 -0.82 -0.00    +0.000 A  
DOCKED: ATOM     28  C   UNL     1     140.920  70.190 228.266 -0.58 -0.00    +0.000 A  
DOCKED: ATOM     29  C   UNL     1     141.445  71.463 228.341 -0.66 -0.00    +0.000 A  
DOCKED: ENDBRANCH  23  24
DOCKED: ENDBRANCH  17  19
DOCKED: ENDBRANCH   1  17
DOCKED: TORSDOF 5
DOCKED: TER
DOCKED: ENDMDL
________________________________________________________________________________


    FINAL DOCKED STATE:
    ________________________


Run:   9 / 20
Time taken for this run:   0.035s

DOCKED: MODEL        9
DOCKED: USER    Run = 9
DOCKED: USER
DOCKED: USER    Estimated Free Energy of Binding    =  -8.85 kcal/mol  [=(1)+(2)+(3)-(4)]
DOCKED: USER
DOCKED: USER    (1) Final Intermolecular Energy     = -10.34 kcal/mol
DOCKED: USER        vdW + Hbond + desolv Energy     = -10.34 kcal/mol
DOCKED: USER        Electrostatic Energy            =  -0.00 kcal/mol
DOCKED: USER        Moving Ligand-Fixed Receptor    = -10.34 kcal/mol
DOCKED: USER        Moving Ligand-Moving Receptor   =  +0.00 kcal/mol
DOCKED: USER    (2) Final Total Internal Energy     =  -1.27 kcal/mol
DOCKED: USER    (3) Torsional Free Energy           =  +1.49 kcal/mol
DOCKED: USER    (4) Unbound System's Energy         =  -1.27 kcal/mol
DOCKED: USER
DOCKED: USER
DOCKED: REMARK SMILES O=C(NCC(=O)N1CC[C@H](c2ccccc2)C1)c1ccc2cc(Cl)ccc2n1
DOCKED: REMARK SMILES IDX 4 1 3 2 2 3 1 4 18 6 19 7 28 8 20 9 27 10 21 11 26 12 22 13
DOCKED: REMARK SMILES IDX 25 14 23 15 24 16 5 17 6 18 7 19 8 20 17 21 9 22 10 23 11 24
DOCKED: REMARK SMILES IDX 12 25 16 26 13 27 15 28 14 29
DOCKED: REMARK H PARENT 3 5
DOCKED: USER                              x       y       z     vdW  Elec       q    Type
DOCKED: USER                           _______ _______ _______ _____ _____    ______ ____
DOCKED: ROOT
DOCKED: ATOM      1  C   UNL     1     139.363  74.704 221.000 -0.14 -0.05    +0.216 C  
DOCKED: ENDROOT
DOCKED: BRANCH   1   2
DOCKED: ATOM      2  N   UNL     1     139.496  73.729 222.091 -0.14 +0.06    -0.342 N  
DOCKED: ATOM      3  C   UNL     1     139.550  72.323 221.830 -0.16 -0.05    +0.270 C  
DOCKED: ATOM      4  O   UNL     1     139.481  71.942 220.633 -0.05 +0.05    -0.268 OA 
DOCKED: ATOM      5  H   UNL     1     139.555  74.033 223.096 -0.52 -0.02    +0.164 HD 
DOCKED: BRANCH   3   6
DOCKED: ATOM      6  C   UNL     1     139.683  71.402 222.952 -0.26 -0.02    +0.128 A  
DOCKED: ATOM      7  C   UNL     1     139.235  70.091 222.776 -0.20 -0.01    +0.035 A  
DOCKED: ATOM      8  N   UNL     1     140.220  71.804 224.119 -0.27 +0.04    -0.243 NA 
DOCKED: ATOM      9  C   UNL     1     139.381  69.255 223.864 -0.26 -0.00    +0.013 A  
DOCKED: ATOM     10  C   UNL     1     140.368  71.001 225.188 -0.48 -0.01    +0.071 A  
DOCKED: ATOM     11  C   UNL     1     139.932  69.684 225.051 -0.41 -0.00    +0.002 A  
DOCKED: ATOM     12  C   UNL     1     140.925  71.481 226.348 -0.66 -0.00    +0.030 A  
DOCKED: ATOM     13  C   UNL     1     140.089  68.869 226.155 -0.52 -0.01    +0.030 A  
DOCKED: ATOM     14  C   UNL     1     141.076  70.655 227.443 -0.62 -0.00    +0.023 A  
DOCKED: ATOM     15  C   UNL     1     140.652  69.352 227.329 -0.57 -0.01    +0.041 A  
DOCKED: ATOM     16  Cl  UNL     1     140.846  68.312 228.719 -0.68 +0.02    -0.084 Cl 
DOCKED: ENDBRANCH   3   6
DOCKED: ENDBRANCH   1   2
DOCKED: BRANCH   1  17
DOCKED: ATOM     17  C   UNL     1     140.722  75.103 220.591 -0.15 -0.06    +0.241 C  
DOCKED: ATOM     18  O   UNL     1     141.545  74.324 220.054 -0.10 +0.07    -0.273 OA 
DOCKED: BRANCH  17  19
DOCKED: ATOM     19  N   UNL     1     141.153  76.442 220.807 -0.12 +0.14    -0.341 N  
DOCKED: ATOM     20  C   UNL     1     142.176  77.185 220.094 -0.27 -0.08    +0.120 C  
DOCKED: ATOM     21  C   UNL     1     140.655  77.394 221.812 -0.31 -0.05    +0.128 C  
DOCKED: ATOM     22  C   UNL     1     141.533  78.536 219.902 -0.26 -0.02    +0.032 C  
DOCKED: ATOM     23  C   UNL     1     140.765  78.742 221.162 -0.27 -0.02    +0.040 C  
DOCKED: BRANCH  23  24
DOCKED: ATOM     24  C   UNL     1     141.323  79.751 222.080 -0.40 +0.01    -0.043 A  
DOCKED: ATOM     25  C   UNL     1     142.028  79.279 223.184 -0.60 -0.00    +0.004 A  
DOCKED: ATOM     26  C   UNL     1     141.170  81.094 221.877 -0.40 -0.00    +0.004 A  
DOCKED: ATOM     27  C   UNL     1     142.593  80.165 224.106 -0.56 -0.00    +0.000 A  
DOCKED: ATOM     28  C   UNL     1     141.732  81.974 222.795 -0.38 -0.00    +0.000 A  
DOCKED: ATOM     29  C   UNL     1     142.433  81.525 223.895 -0.56 -0.00    +0.000 A  
DOCKED: ENDBRANCH  23  24
DOCKED: ENDBRANCH  17  19
DOCKED: ENDBRANCH   1  17
DOCKED: TORSDOF 5
DOCKED: TER
DOCKED: ENDMDL
________________________________________________________________________________


    FINAL DOCKED STATE:
    ________________________


Run:   10 / 20
Time taken for this run:   0.035s

DOCKED: MODEL        10
DOCKED: USER    Run = 10
DOCKED: USER
DOCKED: USER    Estimated Free Energy of Binding    =  -9.04 kcal/mol  [=(1)+(2)+(3)-(4)]
DOCKED: USER
DOCKED: USER    (1) Final Intermolecular Energy     = -10.53 kcal/mol
DOCKED: USER        vdW + Hbond + desolv Energy     = -10.49 kcal/mol
DOCKED: USER        Electrostatic Energy            =  -0.04 kcal/mol
DOCKED: USER        Moving Ligand-Fixed Receptor    = -10.53 kcal/mol
DOCKED: USER        Moving Ligand-Moving Receptor   =  +0.00 kcal/mol
DOCKED: USER    (2) Final Total Internal Energy     =  -1.20 kcal/mol
DOCKED: USER    (3) Torsional Free Energy           =  +1.49 kcal/mol
DOCKED: USER    (4) Unbound System's Energy         =  -1.20 kcal/mol
DOCKED: USER
DOCKED: USER
DOCKED: REMARK SMILES O=C(NCC(=O)N1CC[C@H](c2ccccc2)C1)c1ccc2cc(Cl)ccc2n1
DOCKED: REMARK SMILES IDX 4 1 3 2 2 3 1 4 18 6 19 7 28 8 20 9 27 10 21 11 26 12 22 13
DOCKED: REMARK SMILES IDX 25 14 23 15 24 16 5 17 6 18 7 19 8 20 17 21 9 22 10 23 11 24
DOCKED: REMARK SMILES IDX 12 25 16 26 13 27 15 28 14 29
DOCKED: REMARK H PARENT 3 5
DOCKED: USER                              x       y       z     vdW  Elec       q    Type
DOCKED: USER                           _______ _______ _______ _____ _____    ______ ____
DOCKED: ROOT
DOCKED: ATOM      1  C   UNL     1     140.606  73.575 219.767 -0.06 -0.04    +0.216 C  
DOCKED: ENDROOT
DOCKED: BRANCH   1   2
DOCKED: ATOM      2  N   UNL     1     140.573  72.585 220.852 -0.07 +0.05    -0.342 N  
DOCKED: ATOM      3  C   UNL     1     140.081  72.923 222.152 -0.19 -0.03    +0.270 C  
DOCKED: ATOM      4  O   UNL     1     139.674  74.098 222.343 -0.82 +0.03    -0.268 OA 
DOCKED: ATOM      5  H   UNL     1     140.909  71.599 220.707 +0.04 -0.02    +0.164 HD 
DOCKED: BRANCH   3   6
DOCKED: ATOM      6  C   UNL     1     140.071  71.900 223.191 -0.30 -0.02    +0.128 A  
DOCKED: ATOM      7  C   UNL     1     139.557  70.644 222.865 -0.25 -0.01    +0.035 A  
DOCKED: ATOM      8  N   UNL     1     140.544  72.161 224.424 -0.07 +0.03    -0.243 NA 
DOCKED: ATOM      9  C   UNL     1     139.568  69.708 223.878 -0.28 -0.00    +0.013 A  
DOCKED: ATOM     10  C   UNL     1     140.562  71.259 225.422 -0.52 -0.01    +0.071 A  
DOCKED: ATOM     11  C   UNL     1     140.055  69.992 225.134 -0.43 -0.00    +0.002 A  
DOCKED: ATOM     12  C   UNL     1     141.059  71.595 226.657 -0.71 -0.00    +0.030 A  
DOCKED: ATOM     13  C   UNL     1     140.078  69.074 226.166 -0.50 -0.01    +0.030 A  
DOCKED: ATOM     14  C   UNL     1     141.076  70.668 227.678 -0.63 -0.00    +0.023 A  
DOCKED: ATOM     15  C   UNL     1     140.581  69.413 227.416 -0.57 -0.01    +0.041 A  
DOCKED: ATOM     16  Cl  UNL     1     140.605  68.243 228.714 -0.61 +0.02    -0.084 Cl 
DOCKED: ENDBRANCH   3   6
DOCKED: ENDBRANCH   1   2
DOCKED: BRANCH   1  17
DOCKED: ATOM     17  C   UNL     1     141.952  74.175 219.750 -0.11 -0.06    +0.241 C  
DOCKED: ATOM     18  O   UNL     1     142.989  73.549 219.426 -0.10 +0.06    -0.273 OA 
DOCKED: BRANCH  17  19
DOCKED: ATOM     19  N   UNL     1     142.116  75.540 220.120 -0.12 +0.15    -0.341 N  
DOCKED: ATOM     20  C   UNL     1     143.007  76.528 219.543 -0.31 -0.08    +0.120 C  
DOCKED: ATOM     21  C   UNL     1     141.410  76.271 221.183 -0.20 -0.06    +0.128 C  
DOCKED: ATOM     22  C   UNL     1     142.130  77.752 219.447 -0.28 -0.02    +0.032 C  
DOCKED: ATOM     23  C   UNL     1     141.289  77.679 220.675 -0.28 -0.02    +0.040 C  
DOCKED: BRANCH  23  24
DOCKED: ATOM     24  C   UNL     1     141.613  78.669 221.717 -0.39 +0.02    -0.043 A  
DOCKED: ATOM     25  C   UNL     1     141.445  78.271 223.041 -0.54 -0.00    +0.004 A  
DOCKED: ATOM     26  C   UNL     1     142.059  79.927 221.422 -0.40 -0.00    +0.004 A  
DOCKED: ATOM     27  C   UNL     1     141.729  79.146 224.093 -0.58 -0.00    +0.000 A  
DOCKED: ATOM     28  C   UNL     1     142.341  80.795 222.470 -0.55 -0.00    +0.000 A  
DOCKED: ATOM     29  C   UNL     1     142.181  80.420 223.788 -0.64 -0.00    +0.000 A  
DOCKED: ENDBRANCH  23  24
DOCKED: ENDBRANCH  17  19
DOCKED: ENDBRANCH   1  17
DOCKED: TORSDOF 5
DOCKED: TER
DOCKED: ENDMDL
________________________________________________________________________________


    FINAL DOCKED STATE:
    ________________________


Run:   11 / 20
Time taken for this run:   0.035s

DOCKED: MODEL        11
DOCKED: USER    Run = 11
DOCKED: USER
DOCKED: USER    Estimated Free Energy of Binding    =  -8.52 kcal/mol  [=(1)+(2)+(3)-(4)]
DOCKED: USER
DOCKED: USER    (1) Final Intermolecular Energy     = -10.01 kcal/mol
DOCKED: USER        vdW + Hbond + desolv Energy     =  -9.97 kcal/mol
DOCKED: USER        Electrostatic Energy            =  -0.05 kcal/mol
DOCKED: USER        Moving Ligand-Fixed Receptor    = -10.01 kcal/mol
DOCKED: USER        Moving Ligand-Moving Receptor   =  +0.00 kcal/mol
DOCKED: USER    (2) Final Total Internal Energy     =  -1.43 kcal/mol
DOCKED: USER    (3) Torsional Free Energy           =  +1.49 kcal/mol
DOCKED: USER    (4) Unbound System's Energy         =  -1.43 kcal/mol
DOCKED: USER
DOCKED: USER
DOCKED: REMARK SMILES O=C(NCC(=O)N1CC[C@H](c2ccccc2)C1)c1ccc2cc(Cl)ccc2n1
DOCKED: REMARK SMILES IDX 4 1 3 2 2 3 1 4 18 6 19 7 28 8 20 9 27 10 21 11 26 12 22 13
DOCKED: REMARK SMILES IDX 25 14 23 15 24 16 5 17 6 18 7 19 8 20 17 21 9 22 10 23 11 24
DOCKED: REMARK SMILES IDX 12 25 16 26 13 27 15 28 14 29
DOCKED: REMARK H PARENT 3 5
DOCKED: USER                              x       y       z     vdW  Elec       q    Type
DOCKED: USER                           _______ _______ _______ _____ _____    ______ ____
DOCKED: ROOT
DOCKED: ATOM      1  C   UNL     1     136.474  72.136 222.092 -0.07 -0.05    +0.216 C  
DOCKED: ENDROOT
DOCKED: BRANCH   1   2
DOCKED: ATOM      2  N   UNL     1     137.345  73.289 222.356 -0.05 +0.12    -0.342 N  
DOCKED: ATOM      3  C   UNL     1     138.304  73.732 221.391 -0.10 -0.07    +0.270 C  
DOCKED: ATOM      4  O   UNL     1     138.382  73.105 220.304 -0.03 +0.05    -0.268 OA 
DOCKED: ATOM      5  H   UNL     1     137.291  73.824 223.260 -0.49 -0.11    +0.164 HD 
DOCKED: BRANCH   3   6
DOCKED: ATOM      6  C   UNL     1     139.142  74.883 221.707 -0.22 -0.03    +0.128 A  
DOCKED: ATOM      7  C   UNL     1     140.513  74.780 221.459 -0.30 -0.01    +0.035 A  
DOCKED: ATOM      8  N   UNL     1     138.610  76.008 222.220 -0.20 +0.05    -0.243 NA 
DOCKED: ATOM      9  C   UNL     1     141.265  75.892 221.773 -0.27 -0.00    +0.013 A  
DOCKED: ATOM     10  C   UNL     1     139.331  77.100 222.531 -0.27 -0.01    +0.071 A  
DOCKED: ATOM     11  C   UNL     1     140.704  77.034 222.298 -0.43 -0.00    +0.002 A  
DOCKED: ATOM     12  C   UNL     1     138.719  78.213 223.053 -0.26 -0.00    +0.030 A  
DOCKED: ATOM     13  C   UNL     1     141.434  78.161 222.622 -0.45 -0.01    +0.030 A  
DOCKED: ATOM     14  C   UNL     1     139.462  79.332 223.371 -0.39 -0.00    +0.023 A  
DOCKED: ATOM     15  C   UNL     1     140.818  79.289 223.149 -0.46 -0.01    +0.041 A  
DOCKED: ATOM     16  Cl  UNL     1     141.752  80.709 223.554 -0.73 +0.02    -0.084 Cl 
DOCKED: ENDBRANCH   3   6
DOCKED: ENDBRANCH   1   2
DOCKED: BRANCH   1  17
DOCKED: ATOM     17  C   UNL     1     137.302  70.920 222.186 -0.07 -0.05    +0.241 C  
DOCKED: ATOM     18  O   UNL     1     137.483  70.126 221.232 -0.02 +0.05    -0.273 OA 
DOCKED: BRANCH  17  19
DOCKED: ATOM     19  N   UNL     1     137.943  70.603 223.416 -0.09 +0.07    -0.341 N  
DOCKED: ATOM     20  C   UNL     1     137.504  69.685 224.450 -0.24 -0.01    +0.120 C  
DOCKED: ATOM     21  C   UNL     1     139.213  71.139 223.930 -0.30 -0.03    +0.128 C  
DOCKED: ATOM     22  C   UNL     1     138.776  68.959 224.813 -0.37 -0.00    +0.032 C  
DOCKED: ATOM     23  C   UNL     1     139.823  70.014 224.714 -0.38 -0.01    +0.040 C  
DOCKED: BRANCH  23  24
DOCKED: ATOM     24  C   UNL     1     140.371  70.476 226.002 -0.52 +0.01    -0.043 A  
DOCKED: ATOM     25  C   UNL     1     140.906  71.761 226.037 -0.61 -0.00    +0.004 A  
DOCKED: ATOM     26  C   UNL     1     140.365  69.697 227.125 -0.58 -0.00    +0.004 A  
DOCKED: ATOM     27  C   UNL     1     141.446  72.281 227.216 -0.82 -0.00    +0.000 A  
DOCKED: ATOM     28  C   UNL     1     140.903  70.215 228.297 -0.57 -0.00    +0.000 A  
DOCKED: ATOM     29  C   UNL     1     141.438  71.486 228.351 -0.67 -0.00    +0.000 A  
DOCKED: ENDBRANCH  23  24
DOCKED: ENDBRANCH  17  19
DOCKED: ENDBRANCH   1  17
DOCKED: TORSDOF 5
DOCKED: TER
DOCKED: ENDMDL
________________________________________________________________________________


    FINAL DOCKED STATE:
    ________________________


Run:   12 / 20
Time taken for this run:   0.035s

DOCKED: MODEL        12
DOCKED: USER    Run = 12
DOCKED: USER
DOCKED: USER    Estimated Free Energy of Binding    =  -8.52 kcal/mol  [=(1)+(2)+(3)-(4)]
DOCKED: USER
DOCKED: USER    (1) Final Intermolecular Energy     = -10.01 kcal/mol
DOCKED: USER        vdW + Hbond + desolv Energy     =  -9.96 kcal/mol
DOCKED: USER        Electrostatic Energy            =  -0.05 kcal/mol
DOCKED: USER        Moving Ligand-Fixed Receptor    = -10.01 kcal/mol
DOCKED: USER        Moving Ligand-Moving Receptor   =  +0.00 kcal/mol
DOCKED: USER    (2) Final Total Internal Energy     =  -1.37 kcal/mol
DOCKED: USER    (3) Torsional Free Energy           =  +1.49 kcal/mol
DOCKED: USER    (4) Unbound System's Energy         =  -1.37 kcal/mol
DOCKED: USER
DOCKED: USER
DOCKED: REMARK SMILES O=C(NCC(=O)N1CC[C@H](c2ccccc2)C1)c1ccc2cc(Cl)ccc2n1
DOCKED: REMARK SMILES IDX 4 1 3 2 2 3 1 4 18 6 19 7 28 8 20 9 27 10 21 11 26 12 22 13
DOCKED: REMARK SMILES IDX 25 14 23 15 24 16 5 17 6 18 7 19 8 20 17 21 9 22 10 23 11 24
DOCKED: REMARK SMILES IDX 12 25 16 26 13 27 15 28 14 29
DOCKED: REMARK H PARENT 3 5
DOCKED: USER                              x       y       z     vdW  Elec       q    Type
DOCKED: USER                           _______ _______ _______ _____ _____    ______ ____
DOCKED: ROOT
DOCKED: ATOM      1  C   UNL     1     136.836  72.819 221.814 -0.08 -0.05    +0.216 C  
DOCKED: ENDROOT
DOCKED: BRANCH   1   2
DOCKED: ATOM      2  N   UNL     1     137.710  73.968 222.090 -0.05 +0.11    -0.342 N  
DOCKED: ATOM      3  C   UNL     1     138.562  74.513 221.079 -0.10 -0.06    +0.270 C  
DOCKED: ATOM      4  O   UNL     1     138.544  73.980 219.940 -0.02 +0.05    -0.268 OA 
DOCKED: ATOM      5  H   UNL     1     137.735  74.424 223.038 -0.48 -0.10    +0.164 HD 
DOCKED: BRANCH   3   6
DOCKED: ATOM      6  C   UNL     1     139.407  75.654 221.409 -0.22 -0.03    +0.128 A  
DOCKED: ATOM      7  C   UNL     1     140.685  75.704 220.848 -0.25 -0.01    +0.035 A  
DOCKED: ATOM      8  N   UNL     1     138.968  76.627 222.229 -0.20 +0.05    -0.243 NA 
DOCKED: ATOM      9  C   UNL     1     141.448  76.801 221.189 -0.27 -0.01    +0.013 A  
DOCKED: ATOM     10  C   UNL     1     139.700  77.703 222.570 -0.30 -0.02    +0.071 A  
DOCKED: ATOM     11  C   UNL     1     140.982  77.788 222.030 -0.41 -0.00    +0.002 A  
DOCKED: ATOM     12  C   UNL     1     139.186  78.657 223.414 -0.25 -0.00    +0.030 A  
DOCKED: ATOM     13  C   UNL     1     141.726  78.896 222.387 -0.47 -0.01    +0.030 A  
DOCKED: ATOM     14  C   UNL     1     139.940  79.759 223.761 -0.44 -0.00    +0.023 A  
DOCKED: ATOM     15  C   UNL     1     141.207  79.862 223.239 -0.50 -0.01    +0.041 A  
DOCKED: ATOM     16  Cl  UNL     1     142.157  81.260 223.684 -0.73 +0.01    -0.084 Cl 
DOCKED: ENDBRANCH   3   6
DOCKED: ENDBRANCH   1   2
DOCKED: BRANCH   1  17
DOCKED: ATOM     17  C   UNL     1     137.659  71.599 221.912 -0.07 -0.05    +0.241 C  
DOCKED: ATOM     18  O   UNL     1     137.966  70.885 220.928 -0.02 +0.05    -0.273 OA 
DOCKED: BRANCH  17  19
DOCKED: ATOM     19  N   UNL     1     138.145  71.183 223.184 -0.10 +0.08    -0.341 N  
DOCKED: ATOM     20  C   UNL     1     137.471  70.381 224.187 -0.21 -0.02    +0.120 C  
DOCKED: ATOM     21  C   UNL     1     139.458  71.473 223.781 -0.28 -0.03    +0.128 C  
DOCKED: ATOM     22  C   UNL     1     138.553  69.430 224.636 -0.34 -0.00    +0.032 C  
DOCKED: ATOM     23  C   UNL     1     139.787  70.264 224.606 -0.39 -0.01    +0.040 C  
DOCKED: BRANCH  23  24
DOCKED: ATOM     24  C   UNL     1     140.328  70.631 225.927 -0.53 +0.01    -0.043 A  
DOCKED: ATOM     25  C   UNL     1     140.947  71.874 226.034 -0.60 -0.00    +0.004 A  
DOCKED: ATOM     26  C   UNL     1     140.238  69.806 227.013 -0.57 -0.00    +0.004 A  
DOCKED: ATOM     27  C   UNL     1     141.486  72.304 227.249 -0.80 -0.00    +0.000 A  
DOCKED: ATOM     28  C   UNL     1     140.776  70.235 228.221 -0.59 -0.00    +0.000 A  
DOCKED: ATOM     29  C   UNL     1     141.392  71.463 228.346 -0.67 -0.00    +0.000 A  
DOCKED: ENDBRANCH  23  24
DOCKED: ENDBRANCH  17  19
DOCKED: ENDBRANCH   1  17
DOCKED: TORSDOF 5
DOCKED: TER
DOCKED: ENDMDL
________________________________________________________________________________


    FINAL DOCKED STATE:
    ________________________


Run:   13 / 20
Time taken for this run:   0.035s

DOCKED: MODEL        13
DOCKED: USER    Run = 13
DOCKED: USER
DOCKED: USER    Estimated Free Energy of Binding    =  -9.02 kcal/mol  [=(1)+(2)+(3)-(4)]
DOCKED: USER
DOCKED: USER    (1) Final Intermolecular Energy     = -10.52 kcal/mol
DOCKED: USER        vdW + Hbond + desolv Energy     = -10.47 kcal/mol
DOCKED: USER        Electrostatic Energy            =  -0.04 kcal/mol
DOCKED: USER        Moving Ligand-Fixed Receptor    = -10.52 kcal/mol
DOCKED: USER        Moving Ligand-Moving Receptor   =  +0.00 kcal/mol
DOCKED: USER    (2) Final Total Internal Energy     =  -1.19 kcal/mol
DOCKED: USER    (3) Torsional Free Energy           =  +1.49 kcal/mol
DOCKED: USER    (4) Unbound System's Energy         =  -1.19 kcal/mol
DOCKED: USER
DOCKED: USER
DOCKED: REMARK SMILES O=C(NCC(=O)N1CC[C@H](c2ccccc2)C1)c1ccc2cc(Cl)ccc2n1
DOCKED: REMARK SMILES IDX 4 1 3 2 2 3 1 4 18 6 19 7 28 8 20 9 27 10 21 11 26 12 22 13
DOCKED: REMARK SMILES IDX 25 14 23 15 24 16 5 17 6 18 7 19 8 20 17 21 9 22 10 23 11 24
DOCKED: REMARK SMILES IDX 12 25 16 26 13 27 15 28 14 29
DOCKED: REMARK H PARENT 3 5
DOCKED: USER                              x       y       z     vdW  Elec       q    Type
DOCKED: USER                           _______ _______ _______ _____ _____    ______ ____
DOCKED: ROOT
DOCKED: ATOM      1  C   UNL     1     140.722  73.529 219.699 -0.06 -0.04    +0.216 C  
DOCKED: ENDROOT
DOCKED: BRANCH   1   2
DOCKED: ATOM      2  N   UNL     1     140.658  72.548 220.791 -0.07 +0.05    -0.342 N  
DOCKED: ATOM      3  C   UNL     1     140.174  72.911 222.087 -0.19 -0.03    +0.270 C  
DOCKED: ATOM      4  O   UNL     1     139.803  74.099 222.269 -0.82 +0.02    -0.268 OA 
DOCKED: ATOM      5  H   UNL     1     140.964  71.552 220.653 +0.04 -0.02    +0.164 HD 
DOCKED: BRANCH   3   6
DOCKED: ATOM      6  C   UNL     1     140.133  71.896 223.134 -0.30 -0.02    +0.128 A  
DOCKED: ATOM      7  C   UNL     1     139.596  70.648 222.812 -0.24 -0.01    +0.035 A  
DOCKED: ATOM      8  N   UNL     1     140.599  72.157 224.370 -0.08 +0.03    -0.243 NA 
DOCKED: ATOM      9  C   UNL     1     139.577  69.721 223.832 -0.28 -0.00    +0.013 A  
DOCKED: ATOM     10  C   UNL     1     140.587  71.262 225.375 -0.51 -0.01    +0.071 A  
DOCKED: ATOM     11  C   UNL     1     140.057  70.004 225.091 -0.43 -0.00    +0.002 A  
DOCKED: ATOM     12  C   UNL     1     141.079  71.598 226.612 -0.70 -0.00    +0.030 A  
DOCKED: ATOM     13  C   UNL     1     140.050  69.094 226.131 -0.50 -0.01    +0.030 A  
DOCKED: ATOM     14  C   UNL     1     141.066  70.678 227.641 -0.63 -0.00    +0.023 A  
DOCKED: ATOM     15  C   UNL     1     140.548  69.432 227.382 -0.57 -0.01    +0.041 A  
DOCKED: ATOM     16  Cl  UNL     1     140.535  68.272 228.690 -0.60 +0.02    -0.084 Cl 
DOCKED: ENDBRANCH   3   6
DOCKED: ENDBRANCH   1   2
DOCKED: BRANCH   1  17
DOCKED: ATOM     17  C   UNL     1     142.052  74.164 219.746 -0.12 -0.06    +0.241 C  
DOCKED: ATOM     18  O   UNL     1     143.119  73.565 219.471 -0.11 +0.06    -0.273 OA 
DOCKED: BRANCH  17  19
DOCKED: ATOM     19  N   UNL     1     142.161  75.533 220.121 -0.12 +0.15    -0.341 N  
DOCKED: ATOM     20  C   UNL     1     142.995  76.563 219.532 -0.31 -0.08    +0.120 C  
DOCKED: ATOM     21  C   UNL     1     141.446  76.225 221.204 -0.20 -0.06    +0.128 C  
DOCKED: ATOM     22  C   UNL     1     142.062  77.747 219.463 -0.28 -0.02    +0.032 C  
DOCKED: ATOM     23  C   UNL     1     141.251  77.629 220.708 -0.28 -0.02    +0.040 C  
DOCKED: BRANCH  23  24
DOCKED: ATOM     24  C   UNL     1     141.552  78.627 221.750 -0.38 +0.02    -0.043 A  
DOCKED: ATOM     25  C   UNL     1     141.444  78.210 223.074 -0.53 -0.00    +0.004 A  
DOCKED: ATOM     26  C   UNL     1     141.924  79.908 221.454 -0.42 -0.00    +0.004 A  
DOCKED: ATOM     27  C   UNL     1     141.711  79.089 224.126 -0.58 -0.00    +0.000 A  
DOCKED: ATOM     28  C   UNL     1     142.189  80.782 222.503 -0.56 -0.00    +0.000 A  
DOCKED: ATOM     29  C   UNL     1     142.087  80.388 223.820 -0.63 -0.00    +0.000 A  
DOCKED: ENDBRANCH  23  24
DOCKED: ENDBRANCH  17  19
DOCKED: ENDBRANCH   1  17
DOCKED: TORSDOF 5
DOCKED: TER
DOCKED: ENDMDL
________________________________________________________________________________


    FINAL DOCKED STATE:
    ________________________


Run:   14 / 20
Time taken for this run:   0.035s

DOCKED: MODEL        14
DOCKED: USER    Run = 14
DOCKED: USER
DOCKED: USER    Estimated Free Energy of Binding    =  -8.91 kcal/mol  [=(1)+(2)+(3)-(4)]
DOCKED: USER
DOCKED: USER    (1) Final Intermolecular Energy     = -10.41 kcal/mol
DOCKED: USER        vdW + Hbond + desolv Energy     = -10.39 kcal/mol
DOCKED: USER        Electrostatic Energy            =  -0.01 kcal/mol
DOCKED: USER        Moving Ligand-Fixed Receptor    = -10.41 kcal/mol
DOCKED: USER        Moving Ligand-Moving Receptor   =  +0.00 kcal/mol
DOCKED: USER    (2) Final Total Internal Energy     =  -1.23 kcal/mol
DOCKED: USER    (3) Torsional Free Energy           =  +1.49 kcal/mol
DOCKED: USER    (4) Unbound System's Energy         =  -1.23 kcal/mol
DOCKED: USER
DOCKED: USER
DOCKED: REMARK SMILES O=C(NCC(=O)N1CC[C@H](c2ccccc2)C1)c1ccc2cc(Cl)ccc2n1
DOCKED: REMARK SMILES IDX 4 1 3 2 2 3 1 4 18 6 19 7 28 8 20 9 27 10 21 11 26 12 22 13
DOCKED: REMARK SMILES IDX 25 14 23 15 24 16 5 17 6 18 7 19 8 20 17 21 9 22 10 23 11 24
DOCKED: REMARK SMILES IDX 12 25 16 26 13 27 15 28 14 29
DOCKED: REMARK H PARENT 3 5
DOCKED: USER                              x       y       z     vdW  Elec       q    Type
DOCKED: USER                           _______ _______ _______ _____ _____    ______ ____
DOCKED: ROOT
DOCKED: ATOM      1  C   UNL     1     139.487  74.345 221.108 -0.16 -0.04    +0.216 C  
DOCKED: ENDROOT
DOCKED: BRANCH   1   2
DOCKED: ATOM      2  N   UNL     1     139.577  73.406 222.235 -0.14 +0.06    -0.342 N  
DOCKED: ATOM      3  C   UNL     1     139.643  71.993 222.021 -0.17 -0.05    +0.270 C  
DOCKED: ATOM      4  O   UNL     1     139.622  71.572 220.836 -0.06 +0.05    -0.268 OA 
DOCKED: ATOM      5  H   UNL     1     139.596  73.743 223.231 -0.48 -0.03    +0.164 HD 
DOCKED: BRANCH   3   6
DOCKED: ATOM      6  C   UNL     1     139.732  71.108 223.177 -0.27 -0.02    +0.128 A  
DOCKED: ATOM      7  C   UNL     1     139.225  69.814 223.049 -0.22 -0.01    +0.035 A  
DOCKED: ATOM      8  N   UNL     1     140.285  71.529 224.330 -0.29 +0.04    -0.243 NA 
DOCKED: ATOM      9  C   UNL     1     139.330  69.014 224.167 -0.28 -0.00    +0.013 A  
DOCKED: ATOM     10  C   UNL     1     140.395  70.761 225.429 -0.49 -0.01    +0.071 A  
DOCKED: ATOM     11  C   UNL     1     139.899  69.461 225.339 -0.43 -0.00    +0.002 A  
DOCKED: ATOM     12  C   UNL     1     140.972  71.257 226.572 -0.66 -0.00    +0.030 A  
DOCKED: ATOM     13  C   UNL     1     140.017  68.681 226.473 -0.56 -0.01    +0.030 A  
DOCKED: ATOM     14  C   UNL     1     141.083  70.466 227.697 -0.60 -0.00    +0.023 A  
DOCKED: ATOM     15  C   UNL     1     140.600  69.181 227.630 -0.59 -0.01    +0.041 A  
DOCKED: ATOM     16  Cl  UNL     1     140.745  68.185 229.059 -0.36 +0.02    -0.084 Cl 
DOCKED: ENDBRANCH   3   6
DOCKED: ENDBRANCH   1   2
DOCKED: BRANCH   1  17
DOCKED: ATOM     17  C   UNL     1     140.857  74.779 220.778 -0.18 -0.06    +0.241 C  
DOCKED: ATOM     18  O   UNL     1     141.735  74.017 220.307 -0.13 +0.06    -0.273 OA 
DOCKED: BRANCH  17  19
DOCKED: ATOM     19  N   UNL     1     141.234  76.134 220.998 -0.14 +0.14    -0.341 N  
DOCKED: ATOM     20  C   UNL     1     142.049  76.989 220.155 -0.25 -0.07    +0.120 C  
DOCKED: ATOM     21  C   UNL     1     140.880  76.989 222.141 -0.32 -0.05    +0.128 C  
DOCKED: ATOM     22  C   UNL     1     141.294  78.296 220.180 -0.26 -0.02    +0.032 C  
DOCKED: ATOM     23  C   UNL     1     140.773  78.375 221.573 -0.32 -0.01    +0.040 C  
DOCKED: BRANCH  23  24
DOCKED: ATOM     24  C   UNL     1     141.433  79.373 222.434 -0.45 +0.02    -0.043 A  
DOCKED: ATOM     25  C   UNL     1     140.614  80.315 223.051 -0.44 -0.00    +0.004 A  
DOCKED: ATOM     26  C   UNL     1     142.785  79.393 222.633 -0.53 -0.00    +0.004 A  
DOCKED: ATOM     27  C   UNL     1     141.154  81.298 223.885 -0.37 -0.00    +0.000 A  
DOCKED: ATOM     28  C   UNL     1     143.320  80.372 223.462 -0.62 -0.00    +0.000 A  
DOCKED: ATOM     29  C   UNL     1     142.526  81.313 224.082 -0.62 -0.00    +0.000 A  
DOCKED: ENDBRANCH  23  24
DOCKED: ENDBRANCH  17  19
DOCKED: ENDBRANCH   1  17
DOCKED: TORSDOF 5
DOCKED: TER
DOCKED: ENDMDL
________________________________________________________________________________


    FINAL DOCKED STATE:
    ________________________


Run:   15 / 20
Time taken for this run:   0.035s

DOCKED: MODEL        15
DOCKED: USER    Run = 15
DOCKED: USER
DOCKED: USER    Estimated Free Energy of Binding    =  -8.42 kcal/mol  [=(1)+(2)+(3)-(4)]
DOCKED: USER
DOCKED: USER    (1) Final Intermolecular Energy     =  -9.91 kcal/mol
DOCKED: USER        vdW + Hbond + desolv Energy     =  -9.88 kcal/mol
DOCKED: USER        Electrostatic Energy            =  -0.03 kcal/mol
DOCKED: USER        Moving Ligand-Fixed Receptor    =  -9.91 kcal/mol
DOCKED: USER        Moving Ligand-Moving Receptor   =  +0.00 kcal/mol
DOCKED: USER    (2) Final Total Internal Energy     =  -1.50 kcal/mol
DOCKED: USER    (3) Torsional Free Energy           =  +1.49 kcal/mol
DOCKED: USER    (4) Unbound System's Energy         =  -1.50 kcal/mol
DOCKED: USER
DOCKED: USER
DOCKED: REMARK SMILES O=C(NCC(=O)N1CC[C@H](c2ccccc2)C1)c1ccc2cc(Cl)ccc2n1
DOCKED: REMARK SMILES IDX 4 1 3 2 2 3 1 4 18 6 19 7 28 8 20 9 27 10 21 11 26 12 22 13
DOCKED: REMARK SMILES IDX 25 14 23 15 24 16 5 17 6 18 7 19 8 20 17 21 9 22 10 23 11 24
DOCKED: REMARK SMILES IDX 12 25 16 26 13 27 15 28 14 29
DOCKED: REMARK H PARENT 3 5
DOCKED: USER                              x       y       z     vdW  Elec       q    Type
DOCKED: USER                           _______ _______ _______ _____ _____    ______ ____
DOCKED: ROOT
DOCKED: ATOM      1  C   UNL     1     136.387  72.060 222.093 -0.07 -0.04    +0.216 C  
DOCKED: ENDROOT
DOCKED: BRANCH   1   2
DOCKED: ATOM      2  N   UNL     1     137.258  73.218 222.340 -0.06 +0.11    -0.342 N  
DOCKED: ATOM      3  C   UNL     1     138.313  73.560 221.437 -0.10 -0.07    +0.270 C  
DOCKED: ATOM      4  O   UNL     1     138.477  72.839 220.419 -0.03 +0.05    -0.268 OA 
DOCKED: ATOM      5  H   UNL     1     137.132  73.829 223.186 -0.47 -0.10    +0.164 HD 
DOCKED: BRANCH   3   6
DOCKED: ATOM      6  C   UNL     1     139.146  74.720 221.732 -0.22 -0.03    +0.128 A  
DOCKED: ATOM      7  C   UNL     1     140.515  74.622 221.478 -0.30 -0.01    +0.035 A  
DOCKED: ATOM      8  N   UNL     1     138.609  75.848 222.234 -0.21 +0.06    -0.243 NA 
DOCKED: ATOM      9  C   UNL     1     141.263  75.742 221.773 -0.28 -0.00    +0.013 A  
DOCKED: ATOM     10  C   UNL     1     139.325  76.949 222.526 -0.27 -0.01    +0.071 A  
DOCKED: ATOM     11  C   UNL     1     140.697  76.888 222.287 -0.43 -0.00    +0.002 A  
DOCKED: ATOM     12  C   UNL     1     138.710  78.065 223.037 -0.24 -0.00    +0.030 A  
DOCKED: ATOM     13  C   UNL     1     141.422  78.024 222.591 -0.42 -0.01    +0.030 A  
DOCKED: ATOM     14  C   UNL     1     139.447  79.192 223.336 -0.38 -0.00    +0.023 A  
DOCKED: ATOM     15  C   UNL     1     140.801  79.154 223.107 -0.46 -0.01    +0.041 A  
DOCKED: ATOM     16  Cl  UNL     1     141.729  80.586 223.487 -0.74 +0.02    -0.084 Cl 
DOCKED: ENDBRANCH   3   6
DOCKED: ENDBRANCH   1   2
DOCKED: BRANCH   1  17
DOCKED: ATOM     17  C   UNL     1     137.213  70.845 222.216 -0.07 -0.05    +0.241 C  
DOCKED: ATOM     18  O   UNL     1     137.354  70.003 221.298 -0.02 +0.05    -0.273 OA 
DOCKED: BRANCH  17  19
DOCKED: ATOM     19  N   UNL     1     137.901  70.588 223.435 -0.09 +0.07    -0.341 N  
DOCKED: ATOM     20  C   UNL     1     137.542  69.662 224.494 -0.24 -0.01    +0.120 C  
DOCKED: ATOM     21  C   UNL     1     139.149  71.207 223.909 -0.28 -0.03    +0.128 C  
DOCKED: ATOM     22  C   UNL     1     138.864  69.019 224.835 -0.37 -0.00    +0.032 C  
DOCKED: ATOM     23  C   UNL     1     139.843  70.133 224.696 -0.39 -0.01    +0.040 C  
DOCKED: BRANCH  23  24
DOCKED: ATOM     24  C   UNL     1     140.393  70.648 225.962 -0.54 +0.01    -0.043 A  
DOCKED: ATOM     25  C   UNL     1     140.306  69.815 227.074 -0.58 -0.00    +0.004 A  
DOCKED: ATOM     26  C   UNL     1     140.966  71.885 226.065 -0.61 -0.00    +0.004 A  
DOCKED: ATOM     27  C   UNL     1     140.802  70.222 228.316 -0.57 -0.00    +0.000 A  
DOCKED: ATOM     28  C   UNL     1     141.459  72.288 227.301 -0.81 -0.00    +0.000 A  
DOCKED: ATOM     29  C   UNL     1     141.382  71.477 228.414 -0.64 -0.00    +0.000 A  
DOCKED: ENDBRANCH  23  24
DOCKED: ENDBRANCH  17  19
DOCKED: ENDBRANCH   1  17
DOCKED: TORSDOF 5
DOCKED: TER
DOCKED: ENDMDL
________________________________________________________________________________


    FINAL DOCKED STATE:
    ________________________


Run:   16 / 20
Time taken for this run:   0.035s

DOCKED: MODEL        16
DOCKED: USER    Run = 16
DOCKED: USER
DOCKED: USER    Estimated Free Energy of Binding    =  -8.44 kcal/mol  [=(1)+(2)+(3)-(4)]
DOCKED: USER
DOCKED: USER    (1) Final Intermolecular Energy     =  -9.93 kcal/mol
DOCKED: USER        vdW + Hbond + desolv Energy     =  -9.89 kcal/mol
DOCKED: USER        Electrostatic Energy            =  -0.04 kcal/mol
DOCKED: USER        Moving Ligand-Fixed Receptor    =  -9.93 kcal/mol
DOCKED: USER        Moving Ligand-Moving Receptor   =  +0.00 kcal/mol
DOCKED: USER    (2) Final Total Internal Energy     =  -1.47 kcal/mol
DOCKED: USER    (3) Torsional Free Energy           =  +1.49 kcal/mol
DOCKED: USER    (4) Unbound System's Energy         =  -1.47 kcal/mol
DOCKED: USER
DOCKED: USER
DOCKED: REMARK SMILES O=C(NCC(=O)N1CC[C@H](c2ccccc2)C1)c1ccc2cc(Cl)ccc2n1
DOCKED: REMARK SMILES IDX 4 1 3 2 2 3 1 4 18 6 19 7 28 8 20 9 27 10 21 11 26 12 22 13
DOCKED: REMARK SMILES IDX 25 14 23 15 24 16 5 17 6 18 7 19 8 20 17 21 9 22 10 23 11 24
DOCKED: REMARK SMILES IDX 12 25 16 26 13 27 15 28 14 29
DOCKED: REMARK H PARENT 3 5
DOCKED: USER                              x       y       z     vdW  Elec       q    Type
DOCKED: USER                           _______ _______ _______ _____ _____    ______ ____
DOCKED: ROOT
DOCKED: ATOM      1  C   UNL     1     136.427  72.293 222.048 -0.07 -0.05    +0.216 C  
DOCKED: ENDROOT
DOCKED: BRANCH   1   2
DOCKED: ATOM      2  N   UNL     1     137.299  73.449 222.294 -0.05 +0.12    -0.342 N  
DOCKED: ATOM      3  C   UNL     1     138.331  73.811 221.372 -0.10 -0.07    +0.270 C  
DOCKED: ATOM      4  O   UNL     1     138.473  73.110 220.338 -0.03 +0.05    -0.268 OA 
DOCKED: ATOM      5  H   UNL     1     137.192  74.046 223.154 -0.46 -0.10    +0.164 HD 
DOCKED: BRANCH   3   6
DOCKED: ATOM      6  C   UNL     1     139.167  74.969 221.667 -0.22 -0.03    +0.128 A  
DOCKED: ATOM      7  C   UNL     1     140.531  74.880 221.382 -0.30 -0.01    +0.035 A  
DOCKED: ATOM      8  N   UNL     1     138.638  76.088 222.198 -0.20 +0.05    -0.243 NA 
DOCKED: ATOM      9  C   UNL     1     141.281  75.998 221.678 -0.27 -0.01    +0.013 A  
DOCKED: ATOM     10  C   UNL     1     139.357  77.186 222.492 -0.28 -0.01    +0.071 A  
DOCKED: ATOM     11  C   UNL     1     140.724  77.134 222.222 -0.42 -0.00    +0.002 A  
DOCKED: ATOM     12  C   UNL     1     138.750  78.293 223.034 -0.27 -0.00    +0.030 A  
DOCKED: ATOM     13  C   UNL     1     141.452  78.267 222.528 -0.46 -0.01    +0.030 A  
DOCKED: ATOM     14  C   UNL     1     139.490  79.417 223.334 -0.39 -0.00    +0.023 A  
DOCKED: ATOM     15  C   UNL     1     140.840  79.387 223.075 -0.45 -0.01    +0.041 A  
DOCKED: ATOM     16  Cl  UNL     1     141.771  80.815 223.458 -0.74 +0.02    -0.084 Cl 
DOCKED: ENDBRANCH   3   6
DOCKED: ENDBRANCH   1   2
DOCKED: BRANCH   1  17
DOCKED: ATOM     17  C   UNL     1     137.254  71.078 222.161 -0.07 -0.05    +0.241 C  
DOCKED: ATOM     18  O   UNL     1     137.432  70.267 221.222 -0.02 +0.05    -0.273 OA 
DOCKED: BRANCH  17  19
DOCKED: ATOM     19  N   UNL     1     137.898  70.782 223.396 -0.09 +0.07    -0.341 N  
DOCKED: ATOM     20  C   UNL     1     137.431  69.932 224.474 -0.22 -0.01    +0.120 C  
DOCKED: ATOM     21  C   UNL     1     139.200  71.276 223.869 -0.27 -0.03    +0.128 C  
DOCKED: ATOM     22  C   UNL     1     138.671  69.160 224.850 -0.36 -0.00    +0.032 C  
DOCKED: ATOM     23  C   UNL     1     139.767  70.157 224.693 -0.39 -0.01    +0.040 C  
DOCKED: BRANCH  23  24
DOCKED: ATOM     24  C   UNL     1     140.356  70.645 225.952 -0.53 +0.01    -0.043 A  
DOCKED: ATOM     25  C   UNL     1     140.317  69.783 227.045 -0.57 -0.00    +0.004 A  
DOCKED: ATOM     26  C   UNL     1     140.921  71.885 226.066 -0.60 -0.00    +0.004 A  
DOCKED: ATOM     27  C   UNL     1     140.854  70.164 228.278 -0.58 -0.00    +0.000 A  
DOCKED: ATOM     28  C   UNL     1     141.454  72.262 227.294 -0.82 -0.00    +0.000 A  
DOCKED: ATOM     29  C   UNL     1     141.425  71.422 228.387 -0.63 -0.00    +0.000 A  
DOCKED: ENDBRANCH  23  24
DOCKED: ENDBRANCH  17  19
DOCKED: ENDBRANCH   1  17
DOCKED: TORSDOF 5
DOCKED: TER
DOCKED: ENDMDL
________________________________________________________________________________


    FINAL DOCKED STATE:
    ________________________


Run:   17 / 20
Time taken for this run:   0.035s

DOCKED: MODEL        17
DOCKED: USER    Run = 17
DOCKED: USER
DOCKED: USER    Estimated Free Energy of Binding    =  -8.84 kcal/mol  [=(1)+(2)+(3)-(4)]
DOCKED: USER
DOCKED: USER    (1) Final Intermolecular Energy     = -10.33 kcal/mol
DOCKED: USER        vdW + Hbond + desolv Energy     = -10.31 kcal/mol
DOCKED: USER        Electrostatic Energy            =  -0.03 kcal/mol
DOCKED: USER        Moving Ligand-Fixed Receptor    = -10.33 kcal/mol
DOCKED: USER        Moving Ligand-Moving Receptor   =  +0.00 kcal/mol
DOCKED: USER    (2) Final Total Internal Energy     =  -1.10 kcal/mol
DOCKED: USER    (3) Torsional Free Energy           =  +1.49 kcal/mol
DOCKED: USER    (4) Unbound System's Energy         =  -1.10 kcal/mol
DOCKED: USER
DOCKED: USER
DOCKED: REMARK SMILES O=C(NCC(=O)N1CC[C@H](c2ccccc2)C1)c1ccc2cc(Cl)ccc2n1
DOCKED: REMARK SMILES IDX 4 1 3 2 2 3 1 4 18 6 19 7 28 8 20 9 27 10 21 11 26 12 22 13
DOCKED: REMARK SMILES IDX 25 14 23 15 24 16 5 17 6 18 7 19 8 20 17 21 9 22 10 23 11 24
DOCKED: REMARK SMILES IDX 12 25 16 26 13 27 15 28 14 29
DOCKED: REMARK H PARENT 3 5
DOCKED: USER                              x       y       z     vdW  Elec       q    Type
DOCKED: USER                           _______ _______ _______ _____ _____    ______ ____
DOCKED: ROOT
DOCKED: ATOM      1  C   UNL     1     136.952  72.546 221.808 -0.07 -0.05    +0.216 C  
DOCKED: ENDROOT
DOCKED: BRANCH   1   2
DOCKED: ATOM      2  N   UNL     1     137.925  73.600 222.126 -0.03 +0.12    -0.342 N  
DOCKED: ATOM      3  C   UNL     1     137.819  74.906 221.553 -0.11 -0.07    +0.270 C  
DOCKED: ATOM      4  O   UNL     1     136.866  75.130 220.764 -0.03 +0.05    -0.268 OA 
DOCKED: ATOM      5  H   UNL     1     138.727  73.427 222.785 -0.51 -0.08    +0.164 HD 
DOCKED: BRANCH   3   6
DOCKED: ATOM      6  C   UNL     1     138.813  75.913 221.905 -0.24 -0.03    +0.128 A  
DOCKED: ATOM      7  C   UNL     1     140.159  75.601 221.706 -0.32 -0.01    +0.035 A  
DOCKED: ATOM      8  N   UNL     1     138.442  77.107 222.407 -0.18 +0.05    -0.243 NA 
DOCKED: ATOM      9  C   UNL     1     141.063  76.583 222.053 -0.37 -0.01    +0.013 A  
DOCKED: ATOM     10  C   UNL     1     139.311  78.074 222.750 -0.28 -0.01    +0.071 A  
DOCKED: ATOM     11  C   UNL     1     140.665  77.798 222.565 -0.44 -0.00    +0.002 A  
DOCKED: ATOM     12  C   UNL     1     138.861  79.268 223.257 -0.33 -0.00    +0.030 A  
DOCKED: ATOM     13  C   UNL     1     141.549  78.798 222.922 -0.52 -0.01    +0.030 A  
DOCKED: ATOM     14  C   UNL     1     139.755  80.259 223.608 -0.42 -0.00    +0.023 A  
DOCKED: ATOM     15  C   UNL     1     141.095  80.007 223.434 -0.50 -0.01    +0.041 A  
DOCKED: ATOM     16  Cl  UNL     1     142.221  81.266 223.881 -0.73 +0.01    -0.084 Cl 
DOCKED: ENDBRANCH   3   6
DOCKED: ENDBRANCH   1   2
DOCKED: BRANCH   1  17
DOCKED: ATOM     17  C   UNL     1     137.632  71.247 221.970 -0.07 -0.05    +0.241 C  
DOCKED: ATOM     18  O   UNL     1     137.783  70.419 221.041 -0.02 +0.05    -0.273 OA 
DOCKED: BRANCH  17  19
DOCKED: ATOM     19  N   UNL     1     138.155  70.886 223.244 -0.09 +0.07    -0.341 N  
DOCKED: ATOM     20  C   UNL     1     137.553  70.041 224.258 -0.23 -0.02    +0.120 C  
DOCKED: ATOM     21  C   UNL     1     139.442  71.289 223.832 -0.30 -0.03    +0.128 C  
DOCKED: ATOM     22  C   UNL     1     138.711  69.187 224.711 -0.35 -0.00    +0.032 C  
DOCKED: ATOM     23  C   UNL     1     139.873  70.119 224.668 -0.39 -0.01    +0.040 C  
DOCKED: BRANCH  23  24
DOCKED: ATOM     24  C   UNL     1     140.386  70.543 225.983 -0.53 +0.01    -0.043 A  
DOCKED: ATOM     25  C   UNL     1     140.900  71.834 226.074 -0.61 -0.00    +0.004 A  
DOCKED: ATOM     26  C   UNL     1     140.368  69.724 227.077 -0.58 -0.00    +0.004 A  
DOCKED: ATOM     27  C   UNL     1     141.407  72.320 227.283 -0.81 -0.00    +0.000 A  
DOCKED: ATOM     28  C   UNL     1     140.873  70.209 228.278 -0.58 -0.00    +0.000 A  
DOCKED: ATOM     29  C   UNL     1     141.386  71.485 228.389 -0.66 -0.00    +0.000 A  
DOCKED: ENDBRANCH  23  24
DOCKED: ENDBRANCH  17  19
DOCKED: ENDBRANCH   1  17
DOCKED: TORSDOF 5
DOCKED: TER
DOCKED: ENDMDL
________________________________________________________________________________


    FINAL DOCKED STATE:
    ________________________


Run:   18 / 20
Time taken for this run:   0.035s

DOCKED: MODEL        18
DOCKED: USER    Run = 18
DOCKED: USER
DOCKED: USER    Estimated Free Energy of Binding    =  -8.46 kcal/mol  [=(1)+(2)+(3)-(4)]
DOCKED: USER
DOCKED: USER    (1) Final Intermolecular Energy     =  -9.95 kcal/mol
DOCKED: USER        vdW + Hbond + desolv Energy     =  -9.96 kcal/mol
DOCKED: USER        Electrostatic Energy            =  +0.00 kcal/mol
DOCKED: USER        Moving Ligand-Fixed Receptor    =  -9.95 kcal/mol
DOCKED: USER        Moving Ligand-Moving Receptor   =  +0.00 kcal/mol
DOCKED: USER    (2) Final Total Internal Energy     =  -1.32 kcal/mol
DOCKED: USER    (3) Torsional Free Energy           =  +1.49 kcal/mol
DOCKED: USER    (4) Unbound System's Energy         =  -1.32 kcal/mol
DOCKED: USER
DOCKED: USER
DOCKED: REMARK SMILES O=C(NCC(=O)N1CC[C@H](c2ccccc2)C1)c1ccc2cc(Cl)ccc2n1
DOCKED: REMARK SMILES IDX 4 1 3 2 2 3 1 4 18 6 19 7 28 8 20 9 27 10 21 11 26 12 22 13
DOCKED: REMARK SMILES IDX 25 14 23 15 24 16 5 17 6 18 7 19 8 20 17 21 9 22 10 23 11 24
DOCKED: REMARK SMILES IDX 12 25 16 26 13 27 15 28 14 29
DOCKED: REMARK H PARENT 3 5
DOCKED: USER                              x       y       z     vdW  Elec       q    Type
DOCKED: USER                           _______ _______ _______ _____ _____    ______ ____
DOCKED: ROOT
DOCKED: ATOM      1  C   UNL     1     138.647  74.345 220.925 -0.10 -0.05    +0.216 C  
DOCKED: ENDROOT
DOCKED: BRANCH   1   2
DOCKED: ATOM      2  N   UNL     1     138.944  73.428 222.033 -0.10 +0.09    -0.342 N  
DOCKED: ATOM      3  C   UNL     1     138.869  72.009 221.864 -0.11 -0.06    +0.270 C  
DOCKED: ATOM      4  O   UNL     1     138.540  71.565 220.735 -0.03 +0.05    -0.268 OA 
DOCKED: ATOM      5  H   UNL     1     139.222  73.785 222.983 -0.52 -0.06    +0.164 HD 
DOCKED: BRANCH   3   6
DOCKED: ATOM      6  C   UNL     1     139.176  71.146 222.999 -0.23 -0.03    +0.128 A  
DOCKED: ATOM      7  C   UNL     1     138.821  69.799 222.910 -0.20 -0.01    +0.035 A  
DOCKED: ATOM      8  N   UNL     1     139.782  71.636 224.097 -0.24 +0.05    -0.243 NA 
DOCKED: ATOM      9  C   UNL     1     139.130  69.022 224.006 -0.30 -0.00    +0.013 A  
DOCKED: ATOM     10  C   UNL     1     140.090  70.891 225.174 -0.46 -0.01    +0.071 A  
DOCKED: ATOM     11  C   UNL     1     139.750  69.539 225.122 -0.41 -0.00    +0.002 A  
DOCKED: ATOM     12  C   UNL     1     140.708  71.458 226.261 -0.63 -0.00    +0.030 A  
DOCKED: ATOM     13  C   UNL     1     140.070  68.784 226.233 -0.53 -0.01    +0.030 A  
DOCKED: ATOM     14  C   UNL     1     141.023  70.691 227.364 -0.63 -0.00    +0.023 A  
DOCKED: ATOM     15  C   UNL     1     140.697  69.356 227.333 -0.57 -0.01    +0.041 A  
DOCKED: ATOM     16  Cl  UNL     1     141.098  68.391 228.733 -0.68 +0.02    -0.084 Cl 
DOCKED: ENDBRANCH   3   6
DOCKED: ENDBRANCH   1   2
DOCKED: BRANCH   1  17
DOCKED: ATOM     17  C   UNL     1     137.896  75.486 221.479 -0.12 -0.06    +0.241 C  
DOCKED: ATOM     18  O   UNL     1     136.680  75.440 221.779 -0.08 +0.06    -0.273 OA 
DOCKED: BRANCH  17  19
DOCKED: ATOM     19  N   UNL     1     138.564  76.725 221.696 -0.09 +0.07    -0.341 N  
DOCKED: ATOM     20  C   UNL     1     138.410  77.970 220.968 -0.09 -0.03    +0.120 C  
DOCKED: ATOM     21  C   UNL     1     139.576  77.031 222.719 -0.14 -0.02    +0.128 C  
DOCKED: ATOM     22  C   UNL     1     138.379  78.999 222.071 -0.20 -0.01    +0.032 C  
DOCKED: ATOM     23  C   UNL     1     139.353  78.474 223.069 -0.29 -0.01    +0.040 C  
DOCKED: BRANCH  23  24
DOCKED: ATOM     24  C   UNL     1     140.621  79.219 223.160 -0.45 +0.01    -0.043 A  
DOCKED: ATOM     25  C   UNL     1     140.567  80.491 223.724 -0.44 -0.00    +0.004 A  
DOCKED: ATOM     26  C   UNL     1     141.808  78.707 222.717 -0.51 -0.00    +0.004 A  
DOCKED: ATOM     27  C   UNL     1     141.722  81.268 223.851 -0.58 -0.00    +0.000 A  
DOCKED: ATOM     28  C   UNL     1     142.955  79.481 222.844 -0.55 -0.00    +0.000 A  
DOCKED: ATOM     29  C   UNL     1     142.922  80.743 223.401 -0.64 -0.00    +0.000 A  
DOCKED: ENDBRANCH  23  24
DOCKED: ENDBRANCH  17  19
DOCKED: ENDBRANCH   1  17
DOCKED: TORSDOF 5
DOCKED: TER
DOCKED: ENDMDL
________________________________________________________________________________


    FINAL DOCKED STATE:
    ________________________


Run:   19 / 20
Time taken for this run:   0.035s

DOCKED: MODEL        19
DOCKED: USER    Run = 19
DOCKED: USER
DOCKED: USER    Estimated Free Energy of Binding    =  -8.68 kcal/mol  [=(1)+(2)+(3)-(4)]
DOCKED: USER
DOCKED: USER    (1) Final Intermolecular Energy     = -10.17 kcal/mol
DOCKED: USER        vdW + Hbond + desolv Energy     = -10.15 kcal/mol
DOCKED: USER        Electrostatic Energy            =  -0.02 kcal/mol
DOCKED: USER        Moving Ligand-Fixed Receptor    = -10.17 kcal/mol
DOCKED: USER        Moving Ligand-Moving Receptor   =  +0.00 kcal/mol
DOCKED: USER    (2) Final Total Internal Energy     =  -1.35 kcal/mol
DOCKED: USER    (3) Torsional Free Energy           =  +1.49 kcal/mol
DOCKED: USER    (4) Unbound System's Energy         =  -1.35 kcal/mol
DOCKED: USER
DOCKED: USER
DOCKED: REMARK SMILES O=C(NCC(=O)N1CC[C@H](c2ccccc2)C1)c1ccc2cc(Cl)ccc2n1
DOCKED: REMARK SMILES IDX 4 1 3 2 2 3 1 4 18 6 19 7 28 8 20 9 27 10 21 11 26 12 22 13
DOCKED: REMARK SMILES IDX 25 14 23 15 24 16 5 17 6 18 7 19 8 20 17 21 9 22 10 23 11 24
DOCKED: REMARK SMILES IDX 12 25 16 26 13 27 15 28 14 29
DOCKED: REMARK H PARENT 3 5
DOCKED: USER                              x       y       z     vdW  Elec       q    Type
DOCKED: USER                           _______ _______ _______ _____ _____    ______ ____
DOCKED: ROOT
DOCKED: ATOM      1  C   UNL     1     138.807  73.948 221.148 -0.12 -0.05    +0.216 C  
DOCKED: ENDROOT
DOCKED: BRANCH   1   2
DOCKED: ATOM      2  N   UNL     1     139.117  73.044 222.264 -0.11 +0.09    -0.342 N  
DOCKED: ATOM      3  C   UNL     1     138.846  71.642 222.182 -0.13 -0.06    +0.270 C  
DOCKED: ATOM      4  O   UNL     1     138.334  71.199 221.122 -0.04 +0.05    -0.268 OA 
DOCKED: ATOM      5  H   UNL     1     139.546  73.399 223.156 -0.47 -0.04    +0.164 HD 
DOCKED: BRANCH   3   6
DOCKED: ATOM      6  C   UNL     1     139.175  70.792 223.321 -0.24 -0.03    +0.128 A  
DOCKED: ATOM      7  C   UNL     1     138.849  69.437 223.240 -0.23 -0.01    +0.035 A  
DOCKED: ATOM      8  N   UNL     1     139.774  71.301 224.414 -0.27 +0.05    -0.243 NA 
DOCKED: ATOM      9  C   UNL     1     139.178  68.673 224.340 -0.33 -0.00    +0.013 A  
DOCKED: ATOM     10  C   UNL     1     140.101  70.568 225.494 -0.46 -0.01    +0.071 A  
DOCKED: ATOM     11  C   UNL     1     139.790  69.210 225.450 -0.44 -0.00    +0.002 A  
DOCKED: ATOM     12  C   UNL     1     140.711  71.155 226.576 -0.65 -0.00    +0.030 A  
DOCKED: ATOM     13  C   UNL     1     140.130  68.468 226.565 -0.59 -0.01    +0.030 A  
DOCKED: ATOM     14  C   UNL     1     141.045  70.401 227.682 -0.60 -0.00    +0.023 A  
DOCKED: ATOM     15  C   UNL     1     140.747  69.060 227.659 -0.60 -0.01    +0.041 A  
DOCKED: ATOM     16  Cl  UNL     1     141.173  68.111 229.064 -0.46 +0.02    -0.084 Cl 
DOCKED: ENDBRANCH   3   6
DOCKED: ENDBRANCH   1   2
DOCKED: BRANCH   1  17
DOCKED: ATOM     17  C   UNL     1     140.072  74.248 220.453 -0.10 -0.05    +0.241 C  
DOCKED: ATOM     18  O   UNL     1     140.585  73.500 219.586 -0.03 +0.06    -0.273 OA 
DOCKED: BRANCH  17  19
DOCKED: ATOM     19  N   UNL     1     140.774  75.447 220.763 -0.11 +0.10    -0.341 N  
DOCKED: ATOM     20  C   UNL     1     142.110  75.839 220.356 -0.22 -0.06    +0.120 C  
DOCKED: ATOM     21  C   UNL     1     140.302  76.577 221.577 -0.28 -0.04    +0.128 C  
DOCKED: ATOM     22  C   UNL     1     141.930  77.287 219.974 -0.30 -0.02    +0.032 C  
DOCKED: ATOM     23  C   UNL     1     140.939  77.791 220.966 -0.28 -0.02    +0.040 C  
DOCKED: BRANCH  23  24
DOCKED: ATOM     24  C   UNL     1     141.483  78.700 221.990 -0.41 +0.02    -0.043 A  
DOCKED: ATOM     25  C   UNL     1     142.040  79.896 221.543 -0.43 -0.00    +0.004 A  
DOCKED: ATOM     26  C   UNL     1     141.454  78.405 223.324 -0.56 -0.00    +0.004 A  
DOCKED: ATOM     27  C   UNL     1     142.579  80.817 222.445 -0.53 -0.00    +0.000 A  
DOCKED: ATOM     28  C   UNL     1     141.991  79.323 224.220 -0.50 -0.00    +0.000 A  
DOCKED: ATOM     29  C   UNL     1     142.547  80.512 223.796 -0.68 -0.00    +0.000 A  
DOCKED: ENDBRANCH  23  24
DOCKED: ENDBRANCH  17  19
DOCKED: ENDBRANCH   1  17
DOCKED: TORSDOF 5
DOCKED: TER
DOCKED: ENDMDL
________________________________________________________________________________


    FINAL DOCKED STATE:
    ________________________


Run:   20 / 20
Time taken for this run:   0.035s

DOCKED: MODEL        20
DOCKED: USER    Run = 20
DOCKED: USER
DOCKED: USER    Estimated Free Energy of Binding    =  -8.47 kcal/mol  [=(1)+(2)+(3)-(4)]
DOCKED: USER
DOCKED: USER    (1) Final Intermolecular Energy     =  -9.96 kcal/mol
DOCKED: USER        vdW + Hbond + desolv Energy     =  -9.94 kcal/mol
DOCKED: USER        Electrostatic Energy            =  -0.02 kcal/mol
DOCKED: USER        Moving Ligand-Fixed Receptor    =  -9.96 kcal/mol
DOCKED: USER        Moving Ligand-Moving Receptor   =  +0.00 kcal/mol
DOCKED: USER    (2) Final Total Internal Energy     =  -1.15 kcal/mol
DOCKED: USER    (3) Torsional Free Energy           =  +1.49 kcal/mol
DOCKED: USER    (4) Unbound System's Energy         =  -1.15 kcal/mol
DOCKED: USER
DOCKED: USER
DOCKED: REMARK SMILES O=C(NCC(=O)N1CC[C@H](c2ccccc2)C1)c1ccc2cc(Cl)ccc2n1
DOCKED: REMARK SMILES IDX 4 1 3 2 2 3 1 4 18 6 19 7 28 8 20 9 27 10 21 11 26 12 22 13
DOCKED: REMARK SMILES IDX 25 14 23 15 24 16 5 17 6 18 7 19 8 20 17 21 9 22 10 23 11 24
DOCKED: REMARK SMILES IDX 12 25 16 26 13 27 15 28 14 29
DOCKED: REMARK H PARENT 3 5
DOCKED: USER                              x       y       z     vdW  Elec       q    Type
DOCKED: USER                           _______ _______ _______ _____ _____    ______ ____
DOCKED: ROOT
DOCKED: ATOM      1  C   UNL     1     138.292  74.383 221.114 -0.10 -0.05    +0.216 C  
DOCKED: ENDROOT
DOCKED: BRANCH   1   2
DOCKED: ATOM      2  N   UNL     1     138.492  73.367 222.156 -0.04 +0.11    -0.342 N  
DOCKED: ATOM      3  C   UNL     1     139.686  72.579 222.206 -0.19 -0.05    +0.270 C  
DOCKED: ATOM      4  O   UNL     1     140.564  72.780 221.328 -0.18 +0.04    -0.268 OA 
DOCKED: ATOM      5  H   UNL     1     137.768  73.188 222.897 -0.43 -0.09    +0.164 HD 
DOCKED: BRANCH   3   6
DOCKED: ATOM      6  C   UNL     1     139.832  71.586 223.263 -0.30 -0.02    +0.128 A  
DOCKED: ATOM      7  C   UNL     1     139.434  70.276 222.987 -0.23 -0.01    +0.035 A  
DOCKED: ATOM      8  N   UNL     1     140.334  71.923 224.466 -0.25 +0.04    -0.243 NA 
DOCKED: ATOM      9  C   UNL     1     139.590  69.371 224.017 -0.25 -0.00    +0.013 A  
DOCKED: ATOM     10  C   UNL     1     140.492  71.052 225.479 -0.51 -0.01    +0.071 A  
DOCKED: ATOM     11  C   UNL     1     140.105  69.734 225.241 -0.43 -0.00    +0.002 A  
DOCKED: ATOM     12  C   UNL     1     141.011  71.468 226.681 -0.70 -0.00    +0.030 A  
DOCKED: ATOM     13  C   UNL     1     140.272  68.849 226.289 -0.53 -0.01    +0.030 A  
DOCKED: ATOM     14  C   UNL     1     141.172  70.572 227.718 -0.55 -0.00    +0.023 A  
DOCKED: ATOM     15  C   UNL     1     140.797  69.267 227.505 -0.58 -0.01    +0.041 A  
DOCKED: ATOM     16  Cl  UNL     1     141.004  68.138 228.822 -0.62 +0.02    -0.084 Cl 
DOCKED: ENDBRANCH   3   6
DOCKED: ENDBRANCH   1   2
DOCKED: BRANCH   1  17
DOCKED: ATOM     17  C   UNL     1     137.624  75.539 221.740 -0.14 -0.06    +0.241 C  
DOCKED: ATOM     18  O   UNL     1     136.457  75.505 222.197 -0.11 +0.06    -0.273 OA 
DOCKED: BRANCH  17  19
DOCKED: ATOM     19  N   UNL     1     138.320  76.776 221.845 -0.10 +0.07    -0.341 N  
DOCKED: ATOM     20  C   UNL     1     138.062  78.017 221.138 -0.09 -0.02    +0.120 C  
DOCKED: ATOM     21  C   UNL     1     139.472  77.087 222.705 -0.16 -0.02    +0.128 C  
DOCKED: ATOM     22  C   UNL     1     138.197  79.054 222.225 -0.20 -0.01    +0.032 C  
DOCKED: ATOM     23  C   UNL     1     139.307  78.534 223.072 -0.30 -0.01    +0.040 C  
DOCKED: BRANCH  23  24
DOCKED: ATOM     24  C   UNL     1     140.576  79.275 222.968 -0.42 +0.01    -0.043 A  
DOCKED: ATOM     25  C   UNL     1     140.495  80.622 222.623 -0.38 -0.00    +0.004 A  
DOCKED: ATOM     26  C   UNL     1     141.790  78.690 223.195 -0.58 -0.00    +0.004 A  
DOCKED: ATOM     27  C   UNL     1     141.648  81.402 222.503 -0.49 -0.00    +0.000 A  
DOCKED: ATOM     28  C   UNL     1     142.936  79.467 223.075 -0.55 -0.00    +0.000 A  
DOCKED: ATOM     29  C   UNL     1     142.876  80.802 222.734 -0.51 -0.00    +0.000 A  
DOCKED: ENDBRANCH  23  24
DOCKED: ENDBRANCH  17  19
DOCKED: ENDBRANCH   1  17
DOCKED: TORSDOF 5
DOCKED: TER
DOCKED: ENDMDL
________________________________________________________________________________


    CLUSTERING HISTOGRAM
    ____________________


________________________________________________________________________________
     |           |     |           |     |
Clus | Lowest    | Run | Mean      | Num | Histogram
-ter | Binding   |     | Binding   | in  |
Rank | Energy    |     | Energy    | Clus|    5    10   15   20   25   30   35
_____|___________|_____|___________|_____|____:____|____:____|____:____|____:___
   1 |     -9.04 |  10 |     -8.88 |   8 |########
   2 |     -8.84 |  17 |     -8.55 |   7 |#######
   3 |     -8.66 |   3 |     -8.55 |   5 |#####
_____|___________|_____|___________|_____|______________________________________


    RMSD TABLE
    __________


_______________________________________________________________________
     |      |      |           |         |                 |
Rank | Sub- | Run  | Binding   | Cluster | Reference       | Grep
     | Rank |      | Energy    | RMSD    | RMSD            | Pattern
_____|______|______|___________|_________|_________________|___________
   1      1     10       -9.04      0.00    270.79           RANKING
   1      2      2       -9.03      0.08    270.81           RANKING
   1      3     13       -9.02      0.09    270.78           RANKING
   1      4      5       -8.96      1.76    270.94           RANKING
   1      5     14       -8.91      1.38    271.03           RANKING
   1      6      9       -8.85      1.34    270.89           RANKING
   1      7     19       -8.68      1.37    270.69           RANKING
   1      8      6       -8.55      1.53    270.50           RANKING
   2      1     17       -8.84      0.00    270.60           RANKING
   2      2      1       -8.59      0.76    270.61           RANKING
   2      3     11       -8.52      0.84    270.39           RANKING
   2      4     12       -8.52      0.70    270.52           RANKING
   2      5      8       -8.50      0.83    270.39           RANKING
   2      6     16       -8.44      0.83    270.38           RANKING
   2      7     15       -8.42      0.91    270.36           RANKING
   3      1      3       -8.66      0.00    270.80           RANKING
   3      2      7       -8.60      0.16    270.79           RANKING
   3      3      4       -8.58      0.19    270.77           RANKING
   3      4     20       -8.47      0.63    270.84           RANKING
   3      5     18       -8.46      0.38    270.71           RANKING

Run time 0.619 sec
Idle time 0.000 sec
