AutoDock-GPU version: v1.6

**********************************************************
**    AutoDock-GPU AUTODOCKTOOLS-COMPATIBLE DLG FILE    **
**********************************************************


    DOCKING PARAMETERS
    ________________________


Ligand file:                               /home/a/REINVENT4/ReinventStudies/pleaseWork/justmol2mol_4_Compounds_ontop/graph-dock/graph-DockGPU/node-autodockgpu/inputs/RDJMTJPLVLCFGN-BBVMTRQKNA-N.pdbqt
Grid fld file:                             /home/a/REINVENT4/ReinventStudies/mols/Rad51/maps/rad51_receptor.maps.fld

Random seed:                               42
Number of runs:                            20
Number of energy evaluations:              1259779
Number of generations:                     42000
Size of population:                        150
Rate of crossover:                         80.000000%
Tournament selection probability limit:    60.000000%
Rate of mutation:                          2.000000%
Maximal allowed delta movement:            +/- 6.000000A
Maximal allowed delta angle:               +/- 90.000000

Rate of local search:                      100.000000%
Maximal number of local search iterations: 300
Rho lower bound:                           0.010000
Spread of local search delta movement:     2.000000A
Spread of local search delta angle:        74.999999
Limit of consecutive successes/failures:   4

Handle symmetry during clustering:         YES
RMSD tolerance:                            2.000000A

Program call in command line was:          /home/a/REINVENT4/ReinventStudies/adgpu-v1.6_linux_x64_cuda12_128wi --filelist batch.txt --heuristics 1 --nrun 20 --psize 150 --lsit 300 --seed 42 --heurmax 12000000 


    GRID PARAMETERS
    ________________________


Receptor name:                             rad51_receptor
Number of grid points (x, y, z):           53, 53, 53
Grid center (x, y, z):                     139.950000, 75.640000, 221.970000A
Grid size (x, y, z):                       19.500000, 19.500000, 19.500000A
Grid spacing:                              0.375000A


    LIGAND PARAMETERS
    ________________________


Ligand name:                               /home/a/REINVENT4/ReinventStudies/pleaseWork/justmol2mol_4_Compounds_ontop/graph-dock/graph-DockGPU/node-autodockgpu/inputs/RDJMTJPLVLCFGN-BBVMTRQKNA-N
Number of atoms:                           31
Number of rotatable bonds:                 7
Number of atom types:                      6


    DUMMY DATA (only for ADT-compatibility)
    ________________________


DPF> outlev 1
DPF> ga_run 20
DPF> fld /home/a/REINVENT4/ReinventStudies/mols/Rad51/maps/rad51_receptor.maps.fld
DPF> move /home/a/REINVENT4/ReinventStudies/pleaseWork/justmol2mol_4_Compounds_ontop/graph-dock/graph-DockGPU/node-autodockgpu/inputs/RDJMTJPLVLCFGN-BBVMTRQKNA-N.pdbqt


    COUNTER STATES
    ________________________


Number of energy evaluations performed:    642903
Number of generations used:                40


    INPUT LIGAND PDBQT FILE:
    ________________________


INPUT-LIGAND-PDBQT: REMARK SMILES O=C(NCC(=O)N1C[C@H](c2ccccc2)C[C@@H]1CO)c1ccc2ccccc2n1
INPUT-LIGAND-PDBQT: REMARK SMILES IDX 7 1 8 2 9 3 16 4 17 5 5 6 6 7 4 8 3 9 2 10 1 11 20 13 21 14
INPUT-LIGAND-PDBQT: REMARK SMILES IDX 29 15 22 16 28 17 23 18 27 19 24 20 26 21 25 22 18 23 19 24
INPUT-LIGAND-PDBQT: REMARK SMILES IDX 10 26 11 27 15 28 12 29 14 30 13 31
INPUT-LIGAND-PDBQT: REMARK H PARENT 3 12 19 25
INPUT-LIGAND-PDBQT: ROOT
INPUT-LIGAND-PDBQT: ATOM      1  N   UNL     1      -1.665   0.708  -0.099  1.00  0.00    -0.335 N 
INPUT-LIGAND-PDBQT: ATOM      2  C   UNL     1      -2.661  -0.329  -0.307  1.00  0.00     0.128 C 
INPUT-LIGAND-PDBQT: ATOM      3  C   UNL     1      -3.660   0.093   0.766  1.00  0.00     0.041 C 
INPUT-LIGAND-PDBQT: ATOM      4  C   UNL     1      -3.797   1.554   0.492  1.00  0.00     0.037 C 
INPUT-LIGAND-PDBQT: ATOM      5  C   UNL     1      -2.422   1.944  -0.007  1.00  0.00     0.111 C 
INPUT-LIGAND-PDBQT: ENDROOT
INPUT-LIGAND-PDBQT: BRANCH   1   6
INPUT-LIGAND-PDBQT: ATOM      6  C   UNL     1      -0.265   0.491  -0.011  1.00  0.00     0.242 C 
INPUT-LIGAND-PDBQT: ATOM      7  O   UNL     1       0.136  -0.696  -0.126  1.00  0.00    -0.273 OA
INPUT-LIGAND-PDBQT: BRANCH   6   8
INPUT-LIGAND-PDBQT: ATOM      8  C   UNL     1       0.691   1.607   0.205  1.00  0.00     0.216 C 
INPUT-LIGAND-PDBQT: BRANCH   8   9
INPUT-LIGAND-PDBQT: ATOM      9  N   UNL     1       2.039   1.082   0.251  1.00  0.00    -0.342 N 
INPUT-LIGAND-PDBQT: ATOM     10  C   UNL     1       2.628   0.379  -0.830  1.00  0.00     0.270 C 
INPUT-LIGAND-PDBQT: ATOM     11  O   UNL     1       1.954   0.200  -1.880  1.00  0.00    -0.268 OA
INPUT-LIGAND-PDBQT: ATOM     12  H   UNL     1       2.653   1.203   1.110  1.00  0.00     0.164 HD
INPUT-LIGAND-PDBQT: BRANCH  10  13
INPUT-LIGAND-PDBQT: ATOM     13  C   UNL     1       3.995  -0.130  -0.727  1.00  0.00     0.128 A 
INPUT-LIGAND-PDBQT: ATOM     14  C   UNL     1       4.541  -0.812  -1.801  1.00  0.00     0.035 A 
INPUT-LIGAND-PDBQT: ATOM     15  N   UNL     1       4.739   0.051   0.393  1.00  0.00    -0.243 NA
INPUT-LIGAND-PDBQT: ATOM     16  C   UNL     1       5.847  -1.306  -1.721  1.00  0.00     0.013 A 
INPUT-LIGAND-PDBQT: ATOM     17  C   UNL     1       6.008  -0.426   0.477  1.00  0.00     0.071 A 
INPUT-LIGAND-PDBQT: ATOM     18  C   UNL     1       6.595  -1.114  -0.570  1.00  0.00     0.000 A 
INPUT-LIGAND-PDBQT: ATOM     19  C   UNL     1       6.740  -0.219   1.648  1.00  0.00     0.029 A 
INPUT-LIGAND-PDBQT: ATOM     20  C   UNL     1       7.888  -1.578  -0.433  1.00  0.00     0.010 A 
INPUT-LIGAND-PDBQT: ATOM     21  C   UNL     1       8.040  -0.698   1.757  1.00  0.00     0.002 A 
INPUT-LIGAND-PDBQT: ATOM     22  C   UNL     1       8.626  -1.379   0.723  1.00  0.00     0.001 A 
INPUT-LIGAND-PDBQT: ENDBRANCH  10  13
INPUT-LIGAND-PDBQT: ENDBRANCH   8   9
INPUT-LIGAND-PDBQT: ENDBRANCH   6   8
INPUT-LIGAND-PDBQT: ENDBRANCH   1   6
INPUT-LIGAND-PDBQT: BRANCH   5  23
INPUT-LIGAND-PDBQT: ATOM     23  C   UNL     1      -2.485   2.570  -1.383  1.00  0.00     0.181 C 
INPUT-LIGAND-PDBQT: BRANCH  23  24
INPUT-LIGAND-PDBQT: ATOM     24  O   UNL     1      -3.087   1.787  -2.335  1.00  0.00    -0.394 OA
INPUT-LIGAND-PDBQT: ATOM     25  H   UNL     1      -3.969   2.122  -2.638  1.00  0.00     0.210 HD
INPUT-LIGAND-PDBQT: ENDBRANCH  23  24
INPUT-LIGAND-PDBQT: ENDBRANCH   5  23
INPUT-LIGAND-PDBQT: BRANCH   3  26
INPUT-LIGAND-PDBQT: ATOM     26  C   UNL     1      -4.936  -0.647   0.687  1.00  0.00    -0.043 A 
INPUT-LIGAND-PDBQT: ATOM     27  C   UNL     1      -5.440  -1.363   1.754  1.00  0.00     0.004 A 
INPUT-LIGAND-PDBQT: ATOM     28  C   UNL     1      -5.644  -0.625  -0.479  1.00  0.00     0.004 A 
INPUT-LIGAND-PDBQT: ATOM     29  C   UNL     1      -6.638  -2.037   1.625  1.00  0.00     0.000 A 
INPUT-LIGAND-PDBQT: ATOM     30  C   UNL     1      -6.849  -1.297  -0.623  1.00  0.00     0.000 A 
INPUT-LIGAND-PDBQT: ATOM     31  C   UNL     1      -7.365  -2.020   0.443  1.00  0.00     0.000 A 
INPUT-LIGAND-PDBQT: ENDBRANCH   3  26
INPUT-LIGAND-PDBQT: TORSDOF 7


    FINAL DOCKED STATE:
    ________________________


Run:   1 / 20
Time taken for this run:   0.031s

DOCKED: MODEL        1
DOCKED: USER    Run = 1
DOCKED: USER
DOCKED: USER    Estimated Free Energy of Binding    =  -7.17 kcal/mol  [=(1)+(2)+(3)-(4)]
DOCKED: USER
DOCKED: USER    (1) Final Intermolecular Energy     =  -9.26 kcal/mol
DOCKED: USER        vdW + Hbond + desolv Energy     =  -9.14 kcal/mol
DOCKED: USER        Electrostatic Energy            =  -0.13 kcal/mol
DOCKED: USER        Moving Ligand-Fixed Receptor    =  -9.26 kcal/mol
DOCKED: USER        Moving Ligand-Moving Receptor   =  +0.00 kcal/mol
DOCKED: USER    (2) Final Total Internal Energy     =  -3.23 kcal/mol
DOCKED: USER    (3) Torsional Free Energy           =  +2.09 kcal/mol
DOCKED: USER    (4) Unbound System's Energy         =  -3.23 kcal/mol
DOCKED: USER
DOCKED: USER
DOCKED: REMARK SMILES O=C(NCC(=O)N1C[C@H](c2ccccc2)C[C@@H]1CO)c1ccc2ccccc2n1
DOCKED: REMARK SMILES IDX 7 1 8 2 9 3 16 4 17 5 5 6 6 7 4 8 3 9 2 10 1 11 20 13 21 14
DOCKED: REMARK SMILES IDX 29 15 22 16 28 17 23 18 27 19 24 20 26 21 25 22 18 23 19 24
DOCKED: REMARK SMILES IDX 10 26 11 27 15 28 12 29 14 30 13 31
DOCKED: REMARK H PARENT 3 12 19 25
DOCKED: USER                              x       y       z     vdW  Elec       q    Type
DOCKED: USER                           _______ _______ _______ _____ _____    ______ ____
DOCKED: ROOT
DOCKED: ATOM      1  N   UNL     1     138.155  71.467 222.385 -0.06 +0.08    -0.335 N  
DOCKED: ATOM      2  C   UNL     1     138.266  71.517 223.833 -0.07 -0.04    +0.128 C  
DOCKED: ATOM      3  C   UNL     1     139.325  70.435 224.019 -0.34 -0.01    +0.041 C  
DOCKED: ATOM      4  C   UNL     1     140.351  70.840 223.013 -0.10 -0.01    +0.037 C  
DOCKED: ATOM      5  C   UNL     1     139.524  71.452 221.902 -0.18 -0.02    +0.111 C  
DOCKED: ENDROOT
DOCKED: BRANCH   1   6
DOCKED: ATOM      6  C   UNL     1     136.935  71.439 221.660 -0.04 -0.05    +0.242 C  
DOCKED: ATOM      7  O   UNL     1     136.575  70.327 221.193 -0.01 +0.05    -0.273 OA 
DOCKED: BRANCH   6   8
DOCKED: ATOM      8  C   UNL     1     136.112  72.659 221.457 -0.04 -0.04    +0.216 C  
DOCKED: BRANCH   8   9
DOCKED: ATOM      9  N   UNL     1     136.892  73.827 221.807 -0.05 +0.09    -0.342 N  
DOCKED: ATOM     10  C   UNL     1     136.310  75.096 222.050 -0.09 -0.06    +0.270 C  
DOCKED: ATOM     11  O   UNL     1     135.059  75.220 221.961 -0.03 +0.05    -0.268 OA 
DOCKED: ATOM     12  H   UNL     1     137.951  73.781 221.896 -0.03 -0.05    +0.164 HD 
DOCKED: BRANCH  10  13
DOCKED: ATOM     13  C   UNL     1     137.148  76.242 222.399 -0.20 -0.03    +0.128 A  
DOCKED: ATOM     14  C   UNL     1     136.542  77.438 222.744 -0.19 -0.01    +0.035 A  
DOCKED: ATOM     15  N   UNL     1     138.503  76.161 222.394 -0.21 +0.05    -0.243 NA 
DOCKED: ATOM     16  C   UNL     1     137.328  78.545 223.081 -0.17 -0.00    +0.013 A  
DOCKED: ATOM     17  C   UNL     1     139.271  77.232 222.720 -0.25 -0.01    +0.071 A  
DOCKED: ATOM     18  C   UNL     1     138.710  78.447 223.071 -0.29 -0.00    +0.000 A  
DOCKED: ATOM     19  C   UNL     1     140.662  77.107 222.701 -0.38 -0.01    +0.029 A  
DOCKED: ATOM     20  C   UNL     1     139.537  79.505 223.394 -0.41 -0.00    +0.010 A  
DOCKED: ATOM     21  C   UNL     1     141.469  78.190 223.031 -0.51 -0.00    +0.002 A  
DOCKED: ATOM     22  C   UNL     1     140.918  79.395 223.380 -0.52 -0.00    +0.001 A  
DOCKED: ENDBRANCH  10  13
DOCKED: ENDBRANCH   8   9
DOCKED: ENDBRANCH   6   8
DOCKED: ENDBRANCH   1   6
DOCKED: BRANCH   5  23
DOCKED: ATOM     23  C   UNL     1     139.945  72.876 221.614 -0.20 -0.03    +0.181 C  
DOCKED: BRANCH  23  24
DOCKED: ATOM     24  O   UNL     1     139.948  73.700 222.710 -0.68 -0.00    -0.394 OA 
DOCKED: ATOM     25  H   UNL     1     139.080  74.143 222.888 -0.53 -0.08    +0.210 HD 
DOCKED: ENDBRANCH  23  24
DOCKED: ENDBRANCH   5  23
DOCKED: BRANCH   3  26
DOCKED: ATOM     26  C   UNL     1     139.844  70.369 225.401 -0.44 +0.01    -0.043 A  
DOCKED: ATOM     27  C   UNL     1     139.689  69.250 226.194 -0.49 -0.00    +0.004 A  
DOCKED: ATOM     28  C   UNL     1     140.500  71.449 225.915 -0.59 -0.00    +0.004 A  
DOCKED: ATOM     29  C   UNL     1     140.193  69.243 227.479 -0.62 -0.00    +0.000 A  
DOCKED: ATOM     30  C   UNL     1     141.012  71.456 227.204 -0.76 -0.00    +0.000 A  
DOCKED: ATOM     31  C   UNL     1     140.862  70.337 228.010 -0.63 -0.00    +0.000 A  
DOCKED: ENDBRANCH   3  26
DOCKED: TORSDOF 7
DOCKED: TER
DOCKED: ENDMDL
________________________________________________________________________________


    FINAL DOCKED STATE:
    ________________________


Run:   2 / 20
Time taken for this run:   0.031s

DOCKED: MODEL        2
DOCKED: USER    Run = 2
DOCKED: USER
DOCKED: USER    Estimated Free Energy of Binding    =  -8.15 kcal/mol  [=(1)+(2)+(3)-(4)]
DOCKED: USER
DOCKED: USER    (1) Final Intermolecular Energy     = -10.24 kcal/mol
DOCKED: USER        vdW + Hbond + desolv Energy     = -10.23 kcal/mol
DOCKED: USER        Electrostatic Energy            =  -0.01 kcal/mol
DOCKED: USER        Moving Ligand-Fixed Receptor    = -10.24 kcal/mol
DOCKED: USER        Moving Ligand-Moving Receptor   =  +0.00 kcal/mol
DOCKED: USER    (2) Final Total Internal Energy     =  -2.43 kcal/mol
DOCKED: USER    (3) Torsional Free Energy           =  +2.09 kcal/mol
DOCKED: USER    (4) Unbound System's Energy         =  -2.43 kcal/mol
DOCKED: USER
DOCKED: USER
DOCKED: REMARK SMILES O=C(NCC(=O)N1C[C@H](c2ccccc2)C[C@@H]1CO)c1ccc2ccccc2n1
DOCKED: REMARK SMILES IDX 7 1 8 2 9 3 16 4 17 5 5 6 6 7 4 8 3 9 2 10 1 11 20 13 21 14
DOCKED: REMARK SMILES IDX 29 15 22 16 28 17 23 18 27 19 24 20 26 21 25 22 18 23 19 24
DOCKED: REMARK SMILES IDX 10 26 11 27 15 28 12 29 14 30 13 31
DOCKED: REMARK H PARENT 3 12 19 25
DOCKED: USER                              x       y       z     vdW  Elec       q    Type
DOCKED: USER                           _______ _______ _______ _____ _____    ______ ____
DOCKED: ROOT
DOCKED: ATOM      1  N   UNL     1     139.929  71.621 222.867 -0.17 +0.06    -0.335 N  
DOCKED: ATOM      2  C   UNL     1     140.692  71.144 224.007 -0.28 -0.01    +0.128 C  
DOCKED: ATOM      3  C   UNL     1     139.529  70.718 224.899 -0.42 -0.01    +0.041 C  
DOCKED: ATOM      4  C   UNL     1     138.705  69.909 223.953 -0.30 -0.01    +0.037 C  
DOCKED: ATOM      5  C   UNL     1     138.934  70.592 222.622 -0.18 -0.02    +0.111 C  
DOCKED: ENDROOT
DOCKED: BRANCH   1   6
DOCKED: ATOM      6  C   UNL     1     140.158  72.844 222.184 -0.20 -0.03    +0.242 C  
DOCKED: ATOM      7  O   UNL     1     141.330  73.061 221.781 -0.30 +0.01    -0.273 OA 
DOCKED: BRANCH   6   8
DOCKED: ATOM      8  C   UNL     1     139.071  73.829 221.950 -0.15 -0.05    +0.216 C  
DOCKED: BRANCH   8   9
DOCKED: ATOM      9  N   UNL     1     139.568  75.163 222.209 -0.16 +0.05    -0.342 N  
DOCKED: ATOM     10  C   UNL     1     138.715  76.266 222.467 -0.19 -0.06    +0.270 C  
DOCKED: ATOM     11  O   UNL     1     137.468  76.082 222.474 -0.19 +0.06    -0.268 OA 
DOCKED: ATOM     12  H   UNL     1     140.610  75.376 222.216 +0.04 -0.02    +0.164 HD 
DOCKED: BRANCH  10  13
DOCKED: ATOM     13  C   UNL     1     139.274  77.593 222.722 -0.24 -0.02    +0.128 A  
DOCKED: ATOM     14  C   UNL     1     138.413  78.661 222.902 -0.26 -0.01    +0.035 A  
DOCKED: ATOM     15  N   UNL     1     140.613  77.800 222.786 -0.25 +0.07    -0.243 NA 
DOCKED: ATOM     16  C   UNL     1     138.929  79.938 223.147 -0.34 -0.00    +0.013 A  
DOCKED: ATOM     17  C   UNL     1     141.121  79.038 223.023 -0.47 -0.02    +0.071 A  
DOCKED: ATOM     18  C   UNL     1     140.299  80.135 223.209 -0.44 -0.00    +0.000 A  
DOCKED: ATOM     19  C   UNL     1     142.505  79.209 223.081 -0.55 -0.01    +0.029 A  
DOCKED: ATOM     20  C   UNL     1     140.866  81.371 223.447 -0.35 -0.00    +0.010 A  
DOCKED: ATOM     21  C   UNL     1     143.048  80.465 223.323 -0.67 -0.00    +0.002 A  
DOCKED: ATOM     22  C   UNL     1     142.239  81.555 223.508 -0.52 -0.00    +0.001 A  
DOCKED: ENDBRANCH  10  13
DOCKED: ENDBRANCH   8   9
DOCKED: ENDBRANCH   6   8
DOCKED: ENDBRANCH   1   6
DOCKED: BRANCH   5  23
DOCKED: ATOM     23  C   UNL     1     139.483  69.631 221.590 -0.10 -0.03    +0.181 C  
DOCKED: BRANCH  23  24
DOCKED: ATOM     24  O   UNL     1     140.516  70.134 220.841 -0.05 +0.06    -0.394 OA 
DOCKED: ATOM     25  H   UNL     1     140.810  71.041 221.110 +0.06 -0.03    +0.210 HD 
DOCKED: ENDBRANCH  23  24
DOCKED: ENDBRANCH   5  23
DOCKED: BRANCH   3  26
DOCKED: ATOM     26  C   UNL     1     139.966  69.968 226.095 -0.47 +0.01    -0.043 A  
DOCKED: ATOM     27  C   UNL     1     140.440  70.599 227.227 -0.63 -0.00    +0.004 A  
DOCKED: ATOM     28  C   UNL     1     139.901  68.606 226.083 -0.55 -0.00    +0.004 A  
DOCKED: ATOM     29  C   UNL     1     140.836  69.849 228.317 -0.58 -0.00    +0.000 A  
DOCKED: ATOM     30  C   UNL     1     140.294  67.839 227.171 -0.65 -0.00    +0.000 A  
DOCKED: ATOM     31  C   UNL     1     140.772  68.462 228.314 -0.67 -0.00    +0.000 A  
DOCKED: ENDBRANCH   3  26
DOCKED: TORSDOF 7
DOCKED: TER
DOCKED: ENDMDL
________________________________________________________________________________


    FINAL DOCKED STATE:
    ________________________


Run:   3 / 20
Time taken for this run:   0.031s

DOCKED: MODEL        3
DOCKED: USER    Run = 3
DOCKED: USER
DOCKED: USER    Estimated Free Energy of Binding    =  -7.80 kcal/mol  [=(1)+(2)+(3)-(4)]
DOCKED: USER
DOCKED: USER    (1) Final Intermolecular Energy     =  -9.89 kcal/mol
DOCKED: USER        vdW + Hbond + desolv Energy     =  -9.86 kcal/mol
DOCKED: USER        Electrostatic Energy            =  -0.03 kcal/mol
DOCKED: USER        Moving Ligand-Fixed Receptor    =  -9.89 kcal/mol
DOCKED: USER        Moving Ligand-Moving Receptor   =  +0.00 kcal/mol
DOCKED: USER    (2) Final Total Internal Energy     =  -2.48 kcal/mol
DOCKED: USER    (3) Torsional Free Energy           =  +2.09 kcal/mol
DOCKED: USER    (4) Unbound System's Energy         =  -2.48 kcal/mol
DOCKED: USER
DOCKED: USER
DOCKED: REMARK SMILES O=C(NCC(=O)N1C[C@H](c2ccccc2)C[C@@H]1CO)c1ccc2ccccc2n1
DOCKED: REMARK SMILES IDX 7 1 8 2 9 3 16 4 17 5 5 6 6 7 4 8 3 9 2 10 1 11 20 13 21 14
DOCKED: REMARK SMILES IDX 29 15 22 16 28 17 23 18 27 19 24 20 26 21 25 22 18 23 19 24
DOCKED: REMARK SMILES IDX 10 26 11 27 15 28 12 29 14 30 13 31
DOCKED: REMARK H PARENT 3 12 19 25
DOCKED: USER                              x       y       z     vdW  Elec       q    Type
DOCKED: USER                           _______ _______ _______ _____ _____    ______ ____
DOCKED: ROOT
DOCKED: ATOM      1  N   UNL     1     140.276  75.438 220.852 -0.10 +0.08    -0.335 N  
DOCKED: ATOM      2  C   UNL     1     141.039  76.179 221.842 -0.28 -0.04    +0.128 C  
DOCKED: ATOM      3  C   UNL     1     140.971  77.561 221.198 -0.31 -0.02    +0.041 C  
DOCKED: ATOM      4  C   UNL     1     139.514  77.681 220.895 -0.15 -0.01    +0.037 C  
DOCKED: ATOM      5  C   UNL     1     139.104  76.256 220.590 -0.11 -0.03    +0.111 C  
DOCKED: ENDROOT
DOCKED: BRANCH   1   6
DOCKED: ATOM      6  C   UNL     1     140.654  74.188 220.297 -0.11 -0.05    +0.242 C  
DOCKED: ATOM      7  O   UNL     1     139.882  73.689 219.438 -0.02 +0.06    -0.273 OA 
DOCKED: BRANCH   6   8
DOCKED: ATOM      8  C   UNL     1     141.902  73.493 220.704 -0.18 -0.04    +0.216 C  
DOCKED: BRANCH   8   9
DOCKED: ATOM      9  N   UNL     1     141.576  72.413 221.611 -0.10 +0.03    -0.342 N  
DOCKED: ATOM     10  C   UNL     1     140.577  72.523 222.611 -0.14 -0.02    +0.270 C  
DOCKED: ATOM     11  O   UNL     1     139.942  73.606 222.721 -0.73 +0.00    -0.268 OA 
DOCKED: ATOM     12  H   UNL     1     142.079  71.478 221.565 +0.06 -0.01    +0.164 HD 
DOCKED: BRANCH  10  13
DOCKED: ATOM     13  C   UNL     1     140.291  71.398 223.501 -0.32 -0.02    +0.128 A  
DOCKED: ATOM     14  C   UNL     1     139.498  70.361 223.039 -0.24 -0.01    +0.035 A  
DOCKED: ATOM     15  N   UNL     1     140.783  71.347 224.764 -0.30 +0.03    -0.243 NA 
DOCKED: ATOM     16  C   UNL     1     139.213  69.277 223.875 -0.29 -0.00    +0.013 A  
DOCKED: ATOM     17  C   UNL     1     140.510  70.296 225.581 -0.47 -0.01    +0.071 A  
DOCKED: ATOM     18  C   UNL     1     139.723  69.238 225.164 -0.41 -0.00    +0.000 A  
DOCKED: ATOM     19  C   UNL     1     141.036  70.282 226.875 -0.57 -0.00    +0.029 A  
DOCKED: ATOM     20  C   UNL     1     139.476  68.195 226.034 -0.56 -0.00    +0.010 A  
DOCKED: ATOM     21  C   UNL     1     140.770  69.218 227.728 -0.63 -0.00    +0.002 A  
DOCKED: ATOM     22  C   UNL     1     139.992  68.168 227.320 -0.66 -0.00    +0.001 A  
DOCKED: ENDBRANCH  10  13
DOCKED: ENDBRANCH   8   9
DOCKED: ENDBRANCH   6   8
DOCKED: ENDBRANCH   1   6
DOCKED: BRANCH   5  23
DOCKED: ATOM     23  C   UNL     1     137.985  75.792 221.497 -0.14 -0.04    +0.181 C  
DOCKED: BRANCH  23  24
DOCKED: ATOM     24  O   UNL     1     137.757  74.439 221.469 -0.07 +0.10    -0.394 OA 
DOCKED: ATOM     25  H   UNL     1     138.516  73.907 221.118 +0.04 -0.05    +0.210 HD 
DOCKED: ENDBRANCH  23  24
DOCKED: ENDBRANCH   5  23
DOCKED: BRANCH   3  26
DOCKED: ATOM     26  C   UNL     1     141.484  78.631 222.077 -0.42 +0.02    -0.043 A  
DOCKED: ATOM     27  C   UNL     1     141.610  78.467 223.442 -0.57 -0.00    +0.004 A  
DOCKED: ATOM     28  C   UNL     1     141.847  79.825 221.525 -0.43 -0.00    +0.004 A  
DOCKED: ATOM     29  C   UNL     1     142.095  79.502 224.217 -0.48 -0.00    +0.000 A  
DOCKED: ATOM     30  C   UNL     1     142.336  80.873 222.291 -0.52 -0.00    +0.000 A  
DOCKED: ATOM     31  C   UNL     1     142.467  80.719 223.664 -0.67 -0.00    +0.000 A  
DOCKED: ENDBRANCH   3  26
DOCKED: TORSDOF 7
DOCKED: TER
DOCKED: ENDMDL
________________________________________________________________________________


    FINAL DOCKED STATE:
    ________________________


Run:   4 / 20
Time taken for this run:   0.031s

DOCKED: MODEL        4
DOCKED: USER    Run = 4
DOCKED: USER
DOCKED: USER    Estimated Free Energy of Binding    =  -7.70 kcal/mol  [=(1)+(2)+(3)-(4)]
DOCKED: USER
DOCKED: USER    (1) Final Intermolecular Energy     =  -9.79 kcal/mol
DOCKED: USER        vdW + Hbond + desolv Energy     =  -9.74 kcal/mol
DOCKED: USER        Electrostatic Energy            =  -0.05 kcal/mol
DOCKED: USER        Moving Ligand-Fixed Receptor    =  -9.79 kcal/mol
DOCKED: USER        Moving Ligand-Moving Receptor   =  +0.00 kcal/mol
DOCKED: USER    (2) Final Total Internal Energy     =  -3.20 kcal/mol
DOCKED: USER    (3) Torsional Free Energy           =  +2.09 kcal/mol
DOCKED: USER    (4) Unbound System's Energy         =  -3.20 kcal/mol
DOCKED: USER
DOCKED: USER
DOCKED: REMARK SMILES O=C(NCC(=O)N1C[C@H](c2ccccc2)C[C@@H]1CO)c1ccc2ccccc2n1
DOCKED: REMARK SMILES IDX 7 1 8 2 9 3 16 4 17 5 5 6 6 7 4 8 3 9 2 10 1 11 20 13 21 14
DOCKED: REMARK SMILES IDX 29 15 22 16 28 17 23 18 27 19 24 20 26 21 25 22 18 23 19 24
DOCKED: REMARK SMILES IDX 10 26 11 27 15 28 12 29 14 30 13 31
DOCKED: REMARK H PARENT 3 12 19 25
DOCKED: USER                              x       y       z     vdW  Elec       q    Type
DOCKED: USER                           _______ _______ _______ _____ _____    ______ ____
DOCKED: ROOT
DOCKED: ATOM      1  N   UNL     1     138.435  70.045 223.020 -0.07 +0.06    -0.335 N  
DOCKED: ATOM      2  C   UNL     1     138.533  70.110 224.468 -0.28 -0.02    +0.128 C  
DOCKED: ATOM      3  C   UNL     1     140.014  70.459 224.582 -0.41 -0.01    +0.041 C  
DOCKED: ATOM      4  C   UNL     1     140.133  71.586 223.610 -0.37 -0.01    +0.037 C  
DOCKED: ATOM      5  C   UNL     1     139.121  71.232 222.542 -0.20 -0.02    +0.111 C  
DOCKED: ENDROOT
DOCKED: BRANCH   1   6
DOCKED: ATOM      6  C   UNL     1     137.792  69.011 222.290 -0.10 -0.04    +0.242 C  
DOCKED: ATOM      7  O   UNL     1     138.529  68.251 221.609 -0.09 +0.05    -0.273 OA 
DOCKED: BRANCH   6   8
DOCKED: ATOM      8  C   UNL     1     136.319  68.824 222.322 -0.08 -0.03    +0.216 C  
DOCKED: BRANCH   8   9
DOCKED: ATOM      9  N   UNL     1     135.717  69.894 223.089 -0.03 +0.04    -0.342 N  
DOCKED: ATOM     10  C   UNL     1     135.110  69.687 224.353 -0.12 -0.02    +0.270 C  
DOCKED: ATOM     11  O   UNL     1     135.091  68.523 224.837 -0.61 -0.01    -0.268 OA 
DOCKED: ATOM     12  H   UNL     1     135.704  70.895 222.731 +0.03 -0.03    +0.164 HD 
DOCKED: BRANCH  10  13
DOCKED: ATOM     13  C   UNL     1     134.516  70.807 225.083 -0.17 -0.01    +0.128 A  
DOCKED: ATOM     14  C   UNL     1     133.559  70.547 226.049 -0.28 -0.00    +0.035 A  
DOCKED: ATOM     15  N   UNL     1     134.881  72.090 224.837 -0.11 +0.02    -0.243 NA 
DOCKED: ATOM     16  C   UNL     1     132.980  71.605 226.757 -0.38 -0.00    +0.013 A  
DOCKED: ATOM     17  C   UNL     1     134.323  73.122 225.522 -0.26 -0.00    +0.071 A  
DOCKED: ATOM     18  C   UNL     1     133.362  72.911 226.495 -0.37 -0.00    +0.000 A  
DOCKED: ATOM     19  C   UNL     1     134.726  74.428 225.238 -0.34 -0.00    +0.029 A  
DOCKED: ATOM     20  C   UNL     1     132.826  73.995 227.161 -0.37 +0.00    +0.010 A  
DOCKED: ATOM     21  C   UNL     1     134.168  75.500 225.925 -0.39 -0.00    +0.002 A  
DOCKED: ATOM     22  C   UNL     1     133.218  75.296 226.890 -0.39 +0.00    +0.001 A  
DOCKED: ENDBRANCH  10  13
DOCKED: ENDBRANCH   8   9
DOCKED: ENDBRANCH   6   8
DOCKED: ENDBRANCH   1   6
DOCKED: BRANCH   5  23
DOCKED: ATOM     23  C   UNL     1     138.100  72.332 222.354 -0.12 -0.05    +0.181 C  
DOCKED: BRANCH  23  24
DOCKED: ATOM     24  O   UNL     1     136.950  72.169 223.085 -0.10 +0.12    -0.394 OA 
DOCKED: ATOM     25  H   UNL     1     136.951  72.643 223.955 -0.51 -0.10    +0.210 HD 
DOCKED: ENDBRANCH  23  24
DOCKED: ENDBRANCH   5  23
DOCKED: BRANCH   3  26
DOCKED: ATOM     26  C   UNL     1     140.416  70.818 225.957 -0.55 +0.01    -0.043 A  
DOCKED: ATOM     27  C   UNL     1     141.160  71.946 226.237 -0.61 -0.00    +0.004 A  
DOCKED: ATOM     28  C   UNL     1     140.041  70.008 226.990 -0.56 -0.00    +0.004 A  
DOCKED: ATOM     29  C   UNL     1     141.509  72.233 227.542 -0.78 -0.00    +0.000 A  
DOCKED: ATOM     30  C   UNL     1     140.383  70.284 228.305 -0.59 -0.00    +0.000 A  
DOCKED: ATOM     31  C   UNL     1     141.132  71.415 228.598 -0.49 -0.00    +0.000 A  
DOCKED: ENDBRANCH   3  26
DOCKED: TORSDOF 7
DOCKED: TER
DOCKED: ENDMDL
________________________________________________________________________________


    FINAL DOCKED STATE:
    ________________________


Run:   5 / 20
Time taken for this run:   0.031s

DOCKED: MODEL        5
DOCKED: USER    Run = 5
DOCKED: USER
DOCKED: USER    Estimated Free Energy of Binding    =  -7.79 kcal/mol  [=(1)+(2)+(3)-(4)]
DOCKED: USER
DOCKED: USER    (1) Final Intermolecular Energy     =  -9.87 kcal/mol
DOCKED: USER        vdW + Hbond + desolv Energy     =  -9.83 kcal/mol
DOCKED: USER        Electrostatic Energy            =  -0.05 kcal/mol
DOCKED: USER        Moving Ligand-Fixed Receptor    =  -9.87 kcal/mol
DOCKED: USER        Moving Ligand-Moving Receptor   =  +0.00 kcal/mol
DOCKED: USER    (2) Final Total Internal Energy     =  -3.15 kcal/mol
DOCKED: USER    (3) Torsional Free Energy           =  +2.09 kcal/mol
DOCKED: USER    (4) Unbound System's Energy         =  -3.15 kcal/mol
DOCKED: USER
DOCKED: USER
DOCKED: REMARK SMILES O=C(NCC(=O)N1C[C@H](c2ccccc2)C[C@@H]1CO)c1ccc2ccccc2n1
DOCKED: REMARK SMILES IDX 7 1 8 2 9 3 16 4 17 5 5 6 6 7 4 8 3 9 2 10 1 11 20 13 21 14
DOCKED: REMARK SMILES IDX 29 15 22 16 28 17 23 18 27 19 24 20 26 21 25 22 18 23 19 24
DOCKED: REMARK SMILES IDX 10 26 11 27 15 28 12 29 14 30 13 31
DOCKED: REMARK H PARENT 3 12 19 25
DOCKED: USER                              x       y       z     vdW  Elec       q    Type
DOCKED: USER                           _______ _______ _______ _____ _____    ______ ____
DOCKED: ROOT
DOCKED: ATOM      1  N   UNL     1     138.176  69.854 223.097 -0.07 +0.06    -0.335 N  
DOCKED: ATOM      2  C   UNL     1     138.327  70.011 224.533 -0.27 -0.02    +0.128 C  
DOCKED: ATOM      3  C   UNL     1     139.813  70.356 224.572 -0.40 -0.01    +0.041 C  
DOCKED: ATOM      4  C   UNL     1     139.903  71.418 223.527 -0.37 -0.01    +0.037 C  
DOCKED: ATOM      5  C   UNL     1     138.851  71.003 222.520 -0.18 -0.02    +0.111 C  
DOCKED: ENDROOT
DOCKED: BRANCH   1   6
DOCKED: ATOM      6  C   UNL     1     137.503  68.780 222.458 -0.11 -0.03    +0.242 C  
DOCKED: ATOM      7  O   UNL     1     138.216  67.942 221.848 -0.11 +0.05    -0.273 OA 
DOCKED: BRANCH   6   8
DOCKED: ATOM      8  C   UNL     1     136.024  68.642 222.503 -0.09 -0.03    +0.216 C  
DOCKED: BRANCH   8   9
DOCKED: ATOM      9  N   UNL     1     135.458  69.771 223.210 -0.03 +0.04    -0.342 N  
DOCKED: ATOM     10  C   UNL     1     134.974  69.682 224.539 -0.12 -0.02    +0.270 C  
DOCKED: ATOM     11  O   UNL     1     135.036  68.574 225.137 -0.56 -0.00    -0.268 OA 
DOCKED: ATOM     12  H   UNL     1     135.380  70.729 222.755 +0.03 -0.02    +0.164 HD 
DOCKED: BRANCH  10  13
DOCKED: ATOM     13  C   UNL     1     134.411  70.856 225.204 -0.18 -0.01    +0.128 A  
DOCKED: ATOM     14  C   UNL     1     133.415  70.680 226.149 -0.29 -0.00    +0.035 A  
DOCKED: ATOM     15  N   UNL     1     134.842  72.110 224.918 -0.12 +0.02    -0.243 NA 
DOCKED: ATOM     16  C   UNL     1     132.864  71.792 226.796 -0.39 -0.00    +0.013 A  
DOCKED: ATOM     17  C   UNL     1     134.311  73.194 225.542 -0.27 -0.00    +0.071 A  
DOCKED: ATOM     18  C   UNL     1     133.314  73.067 226.493 -0.37 -0.00    +0.000 A  
DOCKED: ATOM     19  C   UNL     1     134.782  74.468 225.218 -0.33 -0.00    +0.029 A  
DOCKED: ATOM     20  C   UNL     1     132.809  74.201 227.098 -0.38 +0.00    +0.010 A  
DOCKED: ATOM     21  C   UNL     1     134.255  75.591 225.844 -0.39 -0.00    +0.002 A  
DOCKED: ATOM     22  C   UNL     1     133.268  75.471 226.786 -0.39 +0.00    +0.001 A  
DOCKED: ENDBRANCH  10  13
DOCKED: ENDBRANCH   8   9
DOCKED: ENDBRANCH   6   8
DOCKED: ENDBRANCH   1   6
DOCKED: BRANCH   5  23
DOCKED: ATOM     23  C   UNL     1     137.829  72.097 222.299 -0.12 -0.05    +0.181 C  
DOCKED: BRANCH  23  24
DOCKED: ATOM     24  O   UNL     1     136.774  72.073 223.176 -0.09 +0.11    -0.394 OA 
DOCKED: ATOM     25  H   UNL     1     136.896  72.648 223.973 -0.48 -0.10    +0.210 HD 
DOCKED: ENDBRANCH  23  24
DOCKED: ENDBRANCH   5  23
DOCKED: BRANCH   3  26
DOCKED: ATOM     26  C   UNL     1     140.266  70.798 225.906 -0.53 +0.01    -0.043 A  
DOCKED: ATOM     27  C   UNL     1     141.063  71.911 226.083 -0.61 -0.00    +0.004 A  
DOCKED: ATOM     28  C   UNL     1     139.886  70.085 227.006 -0.54 -0.00    +0.004 A  
DOCKED: ATOM     29  C   UNL     1     141.458  72.279 227.353 -0.82 -0.00    +0.000 A  
DOCKED: ATOM     30  C   UNL     1     140.275  70.443 228.288 -0.61 -0.00    +0.000 A  
DOCKED: ATOM     31  C   UNL     1     141.076  71.560 228.477 -0.65 -0.00    +0.000 A  
DOCKED: ENDBRANCH   3  26
DOCKED: TORSDOF 7
DOCKED: TER
DOCKED: ENDMDL
________________________________________________________________________________


    FINAL DOCKED STATE:
    ________________________


Run:   6 / 20
Time taken for this run:   0.031s

DOCKED: MODEL        6
DOCKED: USER    Run = 6
DOCKED: USER
DOCKED: USER    Estimated Free Energy of Binding    =  -8.78 kcal/mol  [=(1)+(2)+(3)-(4)]
DOCKED: USER
DOCKED: USER    (1) Final Intermolecular Energy     = -10.87 kcal/mol
DOCKED: USER        vdW + Hbond + desolv Energy     = -10.88 kcal/mol
DOCKED: USER        Electrostatic Energy            =  +0.01 kcal/mol
DOCKED: USER        Moving Ligand-Fixed Receptor    = -10.87 kcal/mol
DOCKED: USER        Moving Ligand-Moving Receptor   =  +0.00 kcal/mol
DOCKED: USER    (2) Final Total Internal Energy     =  -1.83 kcal/mol
DOCKED: USER    (3) Torsional Free Energy           =  +2.09 kcal/mol
DOCKED: USER    (4) Unbound System's Energy         =  -1.83 kcal/mol
DOCKED: USER
DOCKED: USER
DOCKED: REMARK SMILES O=C(NCC(=O)N1C[C@H](c2ccccc2)C[C@@H]1CO)c1ccc2ccccc2n1
DOCKED: REMARK SMILES IDX 7 1 8 2 9 3 16 4 17 5 5 6 6 7 4 8 3 9 2 10 1 11 20 13 21 14
DOCKED: REMARK SMILES IDX 29 15 22 16 28 17 23 18 27 19 24 20 26 21 25 22 18 23 19 24
DOCKED: REMARK SMILES IDX 10 26 11 27 15 28 12 29 14 30 13 31
DOCKED: REMARK H PARENT 3 12 19 25
DOCKED: USER                              x       y       z     vdW  Elec       q    Type
DOCKED: USER                           _______ _______ _______ _____ _____    ______ ____
DOCKED: ROOT
DOCKED: ATOM      1  N   UNL     1     139.818  71.702 222.894 -0.17 +0.06    -0.335 N  
DOCKED: ATOM      2  C   UNL     1     140.624  71.313 224.038 -0.30 -0.02    +0.128 C  
DOCKED: ATOM      3  C   UNL     1     139.508  70.798 224.941 -0.41 -0.01    +0.041 C  
DOCKED: ATOM      4  C   UNL     1     138.757  69.903 224.012 -0.30 -0.01    +0.037 C  
DOCKED: ATOM      5  C   UNL     1     138.919  70.583 222.669 -0.19 -0.02    +0.111 C  
DOCKED: ENDROOT
DOCKED: BRANCH   1   6
DOCKED: ATOM      6  C   UNL     1     139.933  72.930 222.192 -0.20 -0.03    +0.242 C  
DOCKED: ATOM      7  O   UNL     1     141.079  73.246 221.781 -0.41 +0.02    -0.273 OA 
DOCKED: BRANCH   6   8
DOCKED: ATOM      8  C   UNL     1     138.760  73.808 221.947 -0.12 -0.06    +0.216 C  
DOCKED: BRANCH   8   9
DOCKED: ATOM      9  N   UNL     1     139.047  75.139 222.438 -0.08 +0.08    -0.342 N  
DOCKED: ATOM     10  C   UNL     1     139.884  76.050 221.747 -0.23 -0.06    +0.270 C  
DOCKED: ATOM     11  O   UNL     1     140.405  75.693 220.657 -0.12 +0.07    -0.268 OA 
DOCKED: ATOM     12  H   UNL     1     138.636  75.494 223.352 -0.41 -0.06    +0.164 HD 
DOCKED: BRANCH  10  13
DOCKED: ATOM     13  C   UNL     1     140.139  77.383 222.292 -0.32 -0.03    +0.128 A  
DOCKED: ATOM     14  C   UNL     1     139.066  78.174 222.665 -0.30 -0.01    +0.035 A  
DOCKED: ATOM     15  N   UNL     1     141.400  77.862 222.441 -0.25 +0.12    -0.243 NA 
DOCKED: ATOM     16  C   UNL     1     139.290  79.451 223.188 -0.36 -0.00    +0.013 A  
DOCKED: ATOM     17  C   UNL     1     141.625  79.101 222.949 -0.50 -0.03    +0.071 A  
DOCKED: ATOM     18  C   UNL     1     140.583  79.927 223.334 -0.47 -0.00    +0.000 A  
DOCKED: ATOM     19  C   UNL     1     142.938  79.557 223.085 -0.55 -0.01    +0.029 A  
DOCKED: ATOM     20  C   UNL     1     140.866  81.178 223.844 -0.36 -0.00    +0.010 A  
DOCKED: ATOM     21  C   UNL     1     143.192  80.821 223.602 -0.58 -0.00    +0.002 A  
DOCKED: ATOM     22  C   UNL     1     142.164  81.642 223.986 -0.57 -0.00    +0.001 A  
DOCKED: ENDBRANCH  10  13
DOCKED: ENDBRANCH   8   9
DOCKED: ENDBRANCH   6   8
DOCKED: ENDBRANCH   1   6
DOCKED: BRANCH   5  23
DOCKED: ATOM     23  C   UNL     1     139.549  69.660 221.649 -0.09 -0.03    +0.181 C  
DOCKED: BRANCH  23  24
DOCKED: ATOM     24  O   UNL     1     140.474  70.263 220.835 -0.05 +0.06    -0.394 OA 
DOCKED: ATOM     25  H   UNL     1     140.774  71.153 221.150 +0.06 -0.03    +0.210 HD 
DOCKED: ENDBRANCH  23  24
DOCKED: ENDBRANCH   5  23
DOCKED: BRANCH   3  26
DOCKED: ATOM     26  C   UNL     1     140.014  70.109 226.146 -0.48 +0.01    -0.043 A  
DOCKED: ATOM     27  C   UNL     1     140.556  70.795 227.214 -0.66 -0.00    +0.004 A  
DOCKED: ATOM     28  C   UNL     1     139.946  68.748 226.210 -0.55 -0.00    +0.004 A  
DOCKED: ATOM     29  C   UNL     1     141.015  70.101 228.316 -0.57 -0.00    +0.000 A  
DOCKED: ATOM     30  C   UNL     1     140.403  68.037 227.310 -0.66 -0.00    +0.000 A  
DOCKED: ATOM     31  C   UNL     1     140.950  68.717 228.389 -0.65 -0.00    +0.000 A  
DOCKED: ENDBRANCH   3  26
DOCKED: TORSDOF 7
DOCKED: TER
DOCKED: ENDMDL
________________________________________________________________________________


    FINAL DOCKED STATE:
    ________________________


Run:   7 / 20
Time taken for this run:   0.031s

DOCKED: MODEL        7
DOCKED: USER    Run = 7
DOCKED: USER
DOCKED: USER    Estimated Free Energy of Binding    =  -8.45 kcal/mol  [=(1)+(2)+(3)-(4)]
DOCKED: USER
DOCKED: USER    (1) Final Intermolecular Energy     = -10.54 kcal/mol
DOCKED: USER        vdW + Hbond + desolv Energy     = -10.55 kcal/mol
DOCKED: USER        Electrostatic Energy            =  +0.01 kcal/mol
DOCKED: USER        Moving Ligand-Fixed Receptor    = -10.54 kcal/mol
DOCKED: USER        Moving Ligand-Moving Receptor   =  +0.00 kcal/mol
DOCKED: USER    (2) Final Total Internal Energy     =  -2.10 kcal/mol
DOCKED: USER    (3) Torsional Free Energy           =  +2.09 kcal/mol
DOCKED: USER    (4) Unbound System's Energy         =  -2.10 kcal/mol
DOCKED: USER
DOCKED: USER
DOCKED: REMARK SMILES O=C(NCC(=O)N1C[C@H](c2ccccc2)C[C@@H]1CO)c1ccc2ccccc2n1
DOCKED: REMARK SMILES IDX 7 1 8 2 9 3 16 4 17 5 5 6 6 7 4 8 3 9 2 10 1 11 20 13 21 14
DOCKED: REMARK SMILES IDX 29 15 22 16 28 17 23 18 27 19 24 20 26 21 25 22 18 23 19 24
DOCKED: REMARK SMILES IDX 10 26 11 27 15 28 12 29 14 30 13 31
DOCKED: REMARK H PARENT 3 12 19 25
DOCKED: USER                              x       y       z     vdW  Elec       q    Type
DOCKED: USER                           _______ _______ _______ _____ _____    ______ ____
DOCKED: ROOT
DOCKED: ATOM      1  N   UNL     1     138.771  75.914 221.873 -0.14 +0.07    -0.335 N  
DOCKED: ATOM      2  C   UNL     1     139.953  76.491 222.492 -0.22 -0.03    +0.128 C  
DOCKED: ATOM      3  C   UNL     1     140.008  77.798 221.708 -0.28 -0.01    +0.041 C  
DOCKED: ATOM      4  C   UNL     1     138.598  78.276 221.819 -0.19 -0.01    +0.037 C  
DOCKED: ATOM      5  C   UNL     1     137.798  76.991 221.845 -0.18 -0.02    +0.111 C  
DOCKED: ENDROOT
DOCKED: BRANCH   1   6
DOCKED: ATOM      6  C   UNL     1     138.660  74.576 221.414 -0.14 -0.06    +0.242 C  
DOCKED: ATOM      7  O   UNL     1     137.517  74.190 221.055 -0.06 +0.06    -0.273 OA 
DOCKED: BRANCH   6   8
DOCKED: ATOM      8  C   UNL     1     139.832  73.665 221.354 -0.18 -0.04    +0.216 C  
DOCKED: BRANCH   8   9
DOCKED: ATOM      9  N   UNL     1     139.862  72.843 222.544 -0.15 +0.05    -0.342 N  
DOCKED: ATOM     10  C   UNL     1     139.753  71.430 222.506 -0.19 -0.05    +0.270 C  
DOCKED: ATOM     11  O   UNL     1     139.623  70.859 221.390 -0.08 +0.05    -0.268 OA 
DOCKED: ATOM     12  H   UNL     1     139.968  73.270 223.512 -0.35 -0.01    +0.164 HD 
DOCKED: BRANCH  10  13
DOCKED: ATOM     13  C   UNL     1     139.789  70.650 223.742 -0.28 -0.02    +0.128 A  
DOCKED: ATOM     14  C   UNL     1     139.233  69.381 223.753 -0.27 -0.01    +0.035 A  
DOCKED: ATOM     15  N   UNL     1     140.353  71.137 224.875 -0.31 +0.04    -0.243 NA 
DOCKED: ATOM     16  C   UNL     1     139.258  68.620 224.926 -0.40 -0.00    +0.013 A  
DOCKED: ATOM     17  C   UNL     1     140.381  70.403 226.018 -0.50 -0.01    +0.071 A  
DOCKED: ATOM     18  C   UNL     1     139.838  69.132 226.076 -0.50 -0.00    +0.000 A  
DOCKED: ATOM     19  C   UNL     1     140.972  70.942 227.163 -0.66 -0.00    +0.029 A  
DOCKED: ATOM     20  C   UNL     1     139.893  68.428 227.262 -0.63 -0.00    +0.010 A  
DOCKED: ATOM     21  C   UNL     1     141.012  70.209 228.343 -0.56 -0.00    +0.002 A  
DOCKED: ATOM     22  C   UNL     1     140.476  68.950 228.406 -0.64 -0.00    +0.001 A  
DOCKED: ENDBRANCH  10  13
DOCKED: ENDBRANCH   8   9
DOCKED: ENDBRANCH   6   8
DOCKED: ENDBRANCH   1   6
DOCKED: BRANCH   5  23
DOCKED: ATOM     23  C   UNL     1     136.940  76.894 223.088 -0.11 -0.03    +0.181 C  
DOCKED: BRANCH  23  24
DOCKED: ATOM     24  O   UNL     1     136.652  75.611 223.479 -0.17 +0.12    -0.394 OA 
DOCKED: ATOM     25  H   UNL     1     137.279  74.929 223.127 -0.34 -0.10    +0.210 HD 
DOCKED: ENDBRANCH  23  24
DOCKED: ENDBRANCH   5  23
DOCKED: BRANCH   3  26
DOCKED: ATOM     26  C   UNL     1     141.001  78.750 222.247 -0.39 +0.02    -0.043 A  
DOCKED: ATOM     27  C   UNL     1     141.658  79.662 221.446 -0.40 -0.00    +0.004 A  
DOCKED: ATOM     28  C   UNL     1     141.281  78.731 223.582 -0.55 -0.00    +0.004 A  
DOCKED: ATOM     29  C   UNL     1     142.577  80.530 222.002 -0.50 -0.00    +0.000 A  
DOCKED: ATOM     30  C   UNL     1     142.202  79.596 224.155 -0.50 -0.00    +0.000 A  
DOCKED: ATOM     31  C   UNL     1     142.868  80.517 223.359 -0.68 -0.00    +0.000 A  
DOCKED: ENDBRANCH   3  26
DOCKED: TORSDOF 7
DOCKED: TER
DOCKED: ENDMDL
________________________________________________________________________________


    FINAL DOCKED STATE:
    ________________________


Run:   8 / 20
Time taken for this run:   0.031s

DOCKED: MODEL        8
DOCKED: USER    Run = 8
DOCKED: USER
DOCKED: USER    Estimated Free Energy of Binding    =  -7.91 kcal/mol  [=(1)+(2)+(3)-(4)]
DOCKED: USER
DOCKED: USER    (1) Final Intermolecular Energy     = -10.00 kcal/mol
DOCKED: USER        vdW + Hbond + desolv Energy     =  -9.96 kcal/mol
DOCKED: USER        Electrostatic Energy            =  -0.05 kcal/mol
DOCKED: USER        Moving Ligand-Fixed Receptor    = -10.00 kcal/mol
DOCKED: USER        Moving Ligand-Moving Receptor   =  +0.00 kcal/mol
DOCKED: USER    (2) Final Total Internal Energy     =  -3.09 kcal/mol
DOCKED: USER    (3) Torsional Free Energy           =  +2.09 kcal/mol
DOCKED: USER    (4) Unbound System's Energy         =  -3.09 kcal/mol
DOCKED: USER
DOCKED: USER
DOCKED: REMARK SMILES O=C(NCC(=O)N1C[C@H](c2ccccc2)C[C@@H]1CO)c1ccc2ccccc2n1
DOCKED: REMARK SMILES IDX 7 1 8 2 9 3 16 4 17 5 5 6 6 7 4 8 3 9 2 10 1 11 20 13 21 14
DOCKED: REMARK SMILES IDX 29 15 22 16 28 17 23 18 27 19 24 20 26 21 25 22 18 23 19 24
DOCKED: REMARK SMILES IDX 10 26 11 27 15 28 12 29 14 30 13 31
DOCKED: REMARK H PARENT 3 12 19 25
DOCKED: USER                              x       y       z     vdW  Elec       q    Type
DOCKED: USER                           _______ _______ _______ _____ _____    ______ ____
DOCKED: ROOT
DOCKED: ATOM      1  N   UNL     1     138.289  69.736 223.255 -0.08 +0.05    -0.335 N  
DOCKED: ATOM      2  C   UNL     1     138.492  69.850 224.689 -0.29 -0.02    +0.128 C  
DOCKED: ATOM      3  C   UNL     1     139.974  70.214 224.683 -0.39 -0.01    +0.041 C  
DOCKED: ATOM      4  C   UNL     1     140.011  71.309 223.669 -0.38 -0.01    +0.037 C  
DOCKED: ATOM      5  C   UNL     1     138.927  70.912 222.689 -0.20 -0.02    +0.111 C  
DOCKED: ENDROOT
DOCKED: BRANCH   1   6
DOCKED: ATOM      6  C   UNL     1     137.605  68.674 222.607 -0.12 -0.03    +0.242 C  
DOCKED: ATOM      7  O   UNL     1     138.313  67.814 222.021 -0.13 +0.05    -0.273 OA 
DOCKED: BRANCH   6   8
DOCKED: ATOM      8  C   UNL     1     136.124  68.571 222.618 -0.09 -0.02    +0.216 C  
DOCKED: BRANCH   8   9
DOCKED: ATOM      9  N   UNL     1     135.569  69.700 223.334 -0.04 +0.04    -0.342 N  
DOCKED: ATOM     10  C   UNL     1     134.910  69.571 224.582 -0.12 -0.02    +0.270 C  
DOCKED: ATOM     11  O   UNL     1     134.799  68.426 225.097 -0.62 -0.00    -0.268 OA 
DOCKED: ATOM     12  H   UNL     1     135.634  70.688 222.947 +0.03 -0.02    +0.164 HD 
DOCKED: BRANCH  10  13
DOCKED: ATOM     13  C   UNL     1     134.369  70.749 225.260 -0.18 -0.01    +0.128 A  
DOCKED: ATOM     14  C   UNL     1     133.402  70.577 226.236 -0.30 -0.00    +0.035 A  
DOCKED: ATOM     15  N   UNL     1     134.791  72.002 224.956 -0.12 +0.02    -0.243 NA 
DOCKED: ATOM     16  C   UNL     1     132.873  71.691 226.896 -0.39 -0.00    +0.013 A  
DOCKED: ATOM     17  C   UNL     1     134.281  73.087 225.593 -0.26 -0.00    +0.071 A  
DOCKED: ATOM     18  C   UNL     1     133.313  72.965 226.574 -0.38 -0.00    +0.000 A  
DOCKED: ATOM     19  C   UNL     1     134.742  74.360 225.250 -0.33 -0.00    +0.029 A  
DOCKED: ATOM     20  C   UNL     1     132.828  74.101 227.190 -0.37 +0.00    +0.010 A  
DOCKED: ATOM     21  C   UNL     1     134.235  75.486 225.888 -0.40 -0.00    +0.002 A  
DOCKED: ATOM     22  C   UNL     1     133.277  75.370 226.861 -0.39 +0.00    +0.001 A  
DOCKED: ENDBRANCH  10  13
DOCKED: ENDBRANCH   8   9
DOCKED: ENDBRANCH   6   8
DOCKED: ENDBRANCH   1   6
DOCKED: BRANCH   5  23
DOCKED: ATOM     23  C   UNL     1     137.884  71.998 222.542 -0.12 -0.05    +0.181 C  
DOCKED: BRANCH  23  24
DOCKED: ATOM     24  O   UNL     1     136.863  71.931 223.455 -0.10 +0.11    -0.394 OA 
DOCKED: ATOM     25  H   UNL     1     136.869  72.661 224.125 -0.48 -0.10    +0.210 HD 
DOCKED: ENDBRANCH  23  24
DOCKED: ENDBRANCH   5  23
DOCKED: BRANCH   3  26
DOCKED: ATOM     26  C   UNL     1     140.471  70.620 226.013 -0.54 +0.01    -0.043 A  
DOCKED: ATOM     27  C   UNL     1     140.423  69.779 227.106 -0.58 -0.00    +0.004 A  
DOCKED: ATOM     28  C   UNL     1     140.997  71.869 226.171 -0.64 -0.00    +0.004 A  
DOCKED: ATOM     29  C   UNL     1     140.902  70.211 228.327 -0.57 -0.00    +0.000 A  
DOCKED: ATOM     30  C   UNL     1     141.483  72.316 227.391 -0.79 -0.00    +0.000 A  
DOCKED: ATOM     31  C   UNL     1     141.439  71.480 228.497 -0.58 -0.00    +0.000 A  
DOCKED: ENDBRANCH   3  26
DOCKED: TORSDOF 7
DOCKED: TER
DOCKED: ENDMDL
________________________________________________________________________________


    FINAL DOCKED STATE:
    ________________________


Run:   9 / 20
Time taken for this run:   0.031s

DOCKED: MODEL        9
DOCKED: USER    Run = 9
DOCKED: USER
DOCKED: USER    Estimated Free Energy of Binding    =  -8.40 kcal/mol  [=(1)+(2)+(3)-(4)]
DOCKED: USER
DOCKED: USER    (1) Final Intermolecular Energy     = -10.49 kcal/mol
DOCKED: USER        vdW + Hbond + desolv Energy     = -10.45 kcal/mol
DOCKED: USER        Electrostatic Energy            =  -0.04 kcal/mol
DOCKED: USER        Moving Ligand-Fixed Receptor    = -10.49 kcal/mol
DOCKED: USER        Moving Ligand-Moving Receptor   =  +0.00 kcal/mol
DOCKED: USER    (2) Final Total Internal Energy     =  -2.08 kcal/mol
DOCKED: USER    (3) Torsional Free Energy           =  +2.09 kcal/mol
DOCKED: USER    (4) Unbound System's Energy         =  -2.08 kcal/mol
DOCKED: USER
DOCKED: USER
DOCKED: REMARK SMILES O=C(NCC(=O)N1C[C@H](c2ccccc2)C[C@@H]1CO)c1ccc2ccccc2n1
DOCKED: REMARK SMILES IDX 7 1 8 2 9 3 16 4 17 5 5 6 6 7 4 8 3 9 2 10 1 11 20 13 21 14
DOCKED: REMARK SMILES IDX 29 15 22 16 28 17 23 18 27 19 24 20 26 21 25 22 18 23 19 24
DOCKED: REMARK SMILES IDX 10 26 11 27 15 28 12 29 14 30 13 31
DOCKED: REMARK H PARENT 3 12 19 25
DOCKED: USER                              x       y       z     vdW  Elec       q    Type
DOCKED: USER                           _______ _______ _______ _____ _____    ______ ____
DOCKED: ROOT
DOCKED: ATOM      1  N   UNL     1     139.562  76.609 221.171 -0.08 +0.09    -0.335 N  
DOCKED: ATOM      2  C   UNL     1     139.700  77.669 222.155 -0.28 -0.03    +0.128 C  
DOCKED: ATOM      3  C   UNL     1     141.184  77.967 221.965 -0.38 -0.02    +0.041 C  
DOCKED: ATOM      4  C   UNL     1     141.280  78.086 220.481 -0.27 -0.02    +0.037 C  
DOCKED: ATOM      5  C   UNL     1     140.239  77.105 219.985 -0.11 -0.04    +0.111 C  
DOCKED: ENDROOT
DOCKED: BRANCH   1   6
DOCKED: ATOM      6  C   UNL     1     138.898  75.373 221.388 -0.16 -0.05    +0.242 C  
DOCKED: ATOM      7  O   UNL     1     137.721  75.429 221.830 -0.13 +0.07    -0.273 OA 
DOCKED: BRANCH   6   8
DOCKED: ATOM      8  C   UNL     1     139.552  74.069 221.107 -0.15 -0.04    +0.216 C  
DOCKED: BRANCH   8   9
DOCKED: ATOM      9  N   UNL     1     139.635  73.301 222.331 -0.15 +0.06    -0.342 N  
DOCKED: ATOM     10  C   UNL     1     139.908  71.910 222.348 -0.20 -0.04    +0.270 C  
DOCKED: ATOM     11  O   UNL     1     140.087  71.310 221.254 -0.09 +0.04    -0.268 OA 
DOCKED: ATOM     12  H   UNL     1     139.492  73.754 223.281 -0.48 -0.05    +0.164 HD 
DOCKED: BRANCH  10  13
DOCKED: ATOM     13  C   UNL     1     139.979  71.184 223.616 -0.32 -0.02    +0.128 A  
DOCKED: ATOM     14  C   UNL     1     139.572  69.861 223.656 -0.26 -0.01    +0.035 A  
DOCKED: ATOM     15  N   UNL     1     140.435  71.774 224.749 -0.28 +0.04    -0.243 NA 
DOCKED: ATOM     16  C   UNL     1     139.633  69.151 224.859 -0.37 -0.00    +0.013 A  
DOCKED: ATOM     17  C   UNL     1     140.497  71.090 225.920 -0.54 -0.01    +0.071 A  
DOCKED: ATOM     18  C   UNL     1     140.100  69.767 226.010 -0.50 -0.00    +0.000 A  
DOCKED: ATOM     19  C   UNL     1     140.971  71.734 227.065 -0.75 -0.01    +0.029 A  
DOCKED: ATOM     20  C   UNL     1     140.183  69.117 227.225 -0.60 -0.00    +0.010 A  
DOCKED: ATOM     21  C   UNL     1     141.044  71.054 228.274 -0.67 -0.00    +0.002 A  
DOCKED: ATOM     22  C   UNL     1     140.653  69.745 228.368 -0.57 -0.00    +0.001 A  
DOCKED: ENDBRANCH  10  13
DOCKED: ENDBRANCH   8   9
DOCKED: ENDBRANCH   6   8
DOCKED: ENDBRANCH   1   6
DOCKED: BRANCH   5  23
DOCKED: ATOM     23  C   UNL     1     139.215  77.779 219.098 -0.02 -0.05    +0.181 C  
DOCKED: BRANCH  23  24
DOCKED: ATOM     24  O   UNL     1     137.912  77.502 219.424 +0.00 +0.09    -0.394 OA 
DOCKED: ATOM     25  H   UNL     1     137.807  76.905 220.207 +0.03 -0.04    +0.210 HD 
DOCKED: ENDBRANCH  23  24
DOCKED: ENDBRANCH   5  23
DOCKED: BRANCH   3  26
DOCKED: ATOM     26  C   UNL     1     141.623  79.179 222.687 -0.50 +0.02    -0.043 A  
DOCKED: ATOM     27  C   UNL     1     140.729  80.091 223.209 -0.47 -0.00    +0.004 A  
DOCKED: ATOM     28  C   UNL     1     142.959  79.408 222.845 -0.53 -0.00    +0.004 A  
DOCKED: ATOM     29  C   UNL     1     141.195  81.207 223.875 -0.43 -0.00    +0.000 A  
DOCKED: ATOM     30  C   UNL     1     143.442  80.525 223.511 -0.61 -0.00    +0.000 A  
DOCKED: ATOM     31  C   UNL     1     142.551  81.449 224.040 -0.59 -0.00    +0.000 A  
DOCKED: ENDBRANCH   3  26
DOCKED: TORSDOF 7
DOCKED: TER
DOCKED: ENDMDL
________________________________________________________________________________


    FINAL DOCKED STATE:
    ________________________


Run:   10 / 20
Time taken for this run:   0.031s

DOCKED: MODEL        10
DOCKED: USER    Run = 10
DOCKED: USER
DOCKED: USER    Estimated Free Energy of Binding    =  -7.86 kcal/mol  [=(1)+(2)+(3)-(4)]
DOCKED: USER
DOCKED: USER    (1) Final Intermolecular Energy     =  -9.94 kcal/mol
DOCKED: USER        vdW + Hbond + desolv Energy     =  -9.83 kcal/mol
DOCKED: USER        Electrostatic Energy            =  -0.12 kcal/mol
DOCKED: USER        Moving Ligand-Fixed Receptor    =  -9.94 kcal/mol
DOCKED: USER        Moving Ligand-Moving Receptor   =  +0.00 kcal/mol
DOCKED: USER    (2) Final Total Internal Energy     =  -3.04 kcal/mol
DOCKED: USER    (3) Torsional Free Energy           =  +2.09 kcal/mol
DOCKED: USER    (4) Unbound System's Energy         =  -3.04 kcal/mol
DOCKED: USER
DOCKED: USER
DOCKED: REMARK SMILES O=C(NCC(=O)N1C[C@H](c2ccccc2)C[C@@H]1CO)c1ccc2ccccc2n1
DOCKED: REMARK SMILES IDX 7 1 8 2 9 3 16 4 17 5 5 6 6 7 4 8 3 9 2 10 1 11 20 13 21 14
DOCKED: REMARK SMILES IDX 29 15 22 16 28 17 23 18 27 19 24 20 26 21 25 22 18 23 19 24
DOCKED: REMARK SMILES IDX 10 26 11 27 15 28 12 29 14 30 13 31
DOCKED: REMARK H PARENT 3 12 19 25
DOCKED: USER                              x       y       z     vdW  Elec       q    Type
DOCKED: USER                           _______ _______ _______ _____ _____    ______ ____
DOCKED: ROOT
DOCKED: ATOM      1  N   UNL     1     140.453  75.184 220.647 -0.08 +0.08    -0.335 N  
DOCKED: ATOM      2  C   UNL     1     141.406  75.981 221.400 -0.18 -0.05    +0.128 C  
DOCKED: ATOM      3  C   UNL     1     140.744  77.346 221.237 -0.29 -0.02    +0.041 C  
DOCKED: ATOM      4  C   UNL     1     139.328  77.039 221.598 -0.25 -0.01    +0.037 C  
DOCKED: ATOM      5  C   UNL     1     139.148  75.615 221.115 -0.18 -0.03    +0.111 C  
DOCKED: ENDROOT
DOCKED: BRANCH   1   6
DOCKED: ATOM      6  C   UNL     1     140.793  74.209 219.672 -0.06 -0.06    +0.242 C  
DOCKED: ATOM      7  O   UNL     1     140.335  74.380 218.513 -0.01 +0.07    -0.273 OA 
DOCKED: BRANCH   6   8
DOCKED: ATOM      8  C   UNL     1     141.649  73.040 219.996 -0.10 -0.04    +0.216 C  
DOCKED: BRANCH   8   9
DOCKED: ATOM      9  N   UNL     1     141.335  72.569 221.328 -0.12 +0.04    -0.342 N  
DOCKED: ATOM     10  C   UNL     1     140.572  71.399 221.570 -0.12 -0.04    +0.270 C  
DOCKED: ATOM     11  O   UNL     1     140.145  70.735 220.588 -0.07 +0.04    -0.268 OA 
DOCKED: ATOM     12  H   UNL     1     141.668  73.088 222.194 +0.06 +0.01    +0.164 HD 
DOCKED: BRANCH  10  13
DOCKED: ATOM     13  C   UNL     1     140.284  70.971 222.939 -0.18 -0.02    +0.128 A  
DOCKED: ATOM     14  C   UNL     1     139.470  69.870 223.142 -0.21 -0.01    +0.035 A  
DOCKED: ATOM     15  N   UNL     1     140.797  71.625 224.011 -0.21 +0.02    -0.243 NA 
DOCKED: ATOM     16  C   UNL     1     139.184  69.446 224.443 -0.34 -0.00    +0.013 A  
DOCKED: ATOM     17  C   UNL     1     140.523  71.218 225.278 -0.50 -0.01    +0.071 A  
DOCKED: ATOM     18  C   UNL     1     139.714  70.124 225.529 -0.46 -0.00    +0.000 A  
DOCKED: ATOM     19  C   UNL     1     141.070  71.919 226.355 -0.65 -0.00    +0.029 A  
DOCKED: ATOM     20  C   UNL     1     139.467  69.753 226.836 -0.47 -0.00    +0.010 A  
DOCKED: ATOM     21  C   UNL     1     140.804  71.521 227.659 -0.79 -0.00    +0.002 A  
DOCKED: ATOM     22  C   UNL     1     140.004  70.439 227.914 -0.64 -0.00    +0.001 A  
DOCKED: ENDBRANCH  10  13
DOCKED: ENDBRANCH   8   9
DOCKED: ENDBRANCH   6   8
DOCKED: ENDBRANCH   1   6
DOCKED: BRANCH   5  23
DOCKED: ATOM     23  C   UNL     1     138.714  74.697 222.237 +0.04 -0.05    +0.181 C  
DOCKED: BRANCH  23  24
DOCKED: ATOM     24  O   UNL     1     139.705  73.875 222.711 -0.55 +0.03    -0.394 OA 
DOCKED: ATOM     25  H   UNL     1     139.419  73.279 223.450 -0.40 -0.09    +0.210 HD 
DOCKED: ENDBRANCH  23  24
DOCKED: ENDBRANCH   5  23
DOCKED: BRANCH   3  26
DOCKED: ATOM     26  C   UNL     1     141.358  78.388 222.084 -0.40 +0.02    -0.043 A  
DOCKED: ATOM     27  C   UNL     1     141.433  78.273 223.458 -0.54 -0.00    +0.004 A  
DOCKED: ATOM     28  C   UNL     1     141.871  79.506 221.493 -0.41 -0.00    +0.004 A  
DOCKED: ATOM     29  C   UNL     1     142.018  79.279 224.201 -0.50 -0.00    +0.000 A  
DOCKED: ATOM     30  C   UNL     1     142.462  80.524 222.227 -0.55 -0.00    +0.000 A  
DOCKED: ATOM     31  C   UNL     1     142.542  80.418 223.608 -0.67 -0.00    +0.000 A  
DOCKED: ENDBRANCH   3  26
DOCKED: TORSDOF 7
DOCKED: TER
DOCKED: ENDMDL
________________________________________________________________________________


    FINAL DOCKED STATE:
    ________________________


Run:   11 / 20
Time taken for this run:   0.031s

DOCKED: MODEL        11
DOCKED: USER    Run = 11
DOCKED: USER
DOCKED: USER    Estimated Free Energy of Binding    =  -7.78 kcal/mol  [=(1)+(2)+(3)-(4)]
DOCKED: USER
DOCKED: USER    (1) Final Intermolecular Energy     =  -9.87 kcal/mol
DOCKED: USER        vdW + Hbond + desolv Energy     =  -9.77 kcal/mol
DOCKED: USER        Electrostatic Energy            =  -0.10 kcal/mol
DOCKED: USER        Moving Ligand-Fixed Receptor    =  -9.87 kcal/mol
DOCKED: USER        Moving Ligand-Moving Receptor   =  +0.00 kcal/mol
DOCKED: USER    (2) Final Total Internal Energy     =  -3.16 kcal/mol
DOCKED: USER    (3) Torsional Free Energy           =  +2.09 kcal/mol
DOCKED: USER    (4) Unbound System's Energy         =  -3.16 kcal/mol
DOCKED: USER
DOCKED: USER
DOCKED: REMARK SMILES O=C(NCC(=O)N1C[C@H](c2ccccc2)C[C@@H]1CO)c1ccc2ccccc2n1
DOCKED: REMARK SMILES IDX 7 1 8 2 9 3 16 4 17 5 5 6 6 7 4 8 3 9 2 10 1 11 20 13 21 14
DOCKED: REMARK SMILES IDX 29 15 22 16 28 17 23 18 27 19 24 20 26 21 25 22 18 23 19 24
DOCKED: REMARK SMILES IDX 10 26 11 27 15 28 12 29 14 30 13 31
DOCKED: REMARK H PARENT 3 12 19 25
DOCKED: USER                              x       y       z     vdW  Elec       q    Type
DOCKED: USER                           _______ _______ _______ _____ _____    ______ ____
DOCKED: ROOT
DOCKED: ATOM      1  N   UNL     1     140.488  74.890 220.456 -0.06 +0.08    -0.335 N  
DOCKED: ATOM      2  C   UNL     1     141.414  75.725 221.203 -0.24 -0.05    +0.128 C  
DOCKED: ATOM      3  C   UNL     1     140.710  77.066 221.023 -0.27 -0.02    +0.041 C  
DOCKED: ATOM      4  C   UNL     1     139.304  76.720 221.384 -0.23 -0.01    +0.037 C  
DOCKED: ATOM      5  C   UNL     1     139.169  75.286 220.917 -0.15 -0.02    +0.111 C  
DOCKED: ENDROOT
DOCKED: BRANCH   1   6
DOCKED: ATOM      6  C   UNL     1     140.860  73.916 219.494 -0.05 -0.05    +0.242 C  
DOCKED: ATOM      7  O   UNL     1     140.484  74.112 218.309 -0.01 +0.06    -0.273 OA 
DOCKED: BRANCH   6   8
DOCKED: ATOM      8  C   UNL     1     141.657  72.716 219.857 -0.09 -0.04    +0.216 C  
DOCKED: BRANCH   8   9
DOCKED: ATOM      9  N   UNL     1     141.353  72.333 221.219 -0.10 +0.04    -0.342 N  
DOCKED: ATOM     10  C   UNL     1     140.580  71.189 221.542 -0.08 -0.04    +0.270 C  
DOCKED: ATOM     11  O   UNL     1     140.135  70.470 220.607 -0.07 +0.04    -0.268 OA 
DOCKED: ATOM     12  H   UNL     1     141.702  72.901 222.047 +0.06 +0.00    +0.164 HD 
DOCKED: BRANCH  10  13
DOCKED: ATOM     13  C   UNL     1     140.304  70.850 222.938 -0.13 -0.02    +0.128 A  
DOCKED: ATOM     14  C   UNL     1     139.431  69.813 223.217 -0.22 -0.01    +0.035 A  
DOCKED: ATOM     15  N   UNL     1     140.882  71.526 223.962 -0.19 +0.02    -0.243 NA 
DOCKED: ATOM     16  C   UNL     1     139.154  69.474 224.546 -0.35 -0.00    +0.013 A  
DOCKED: ATOM     17  C   UNL     1     140.618  71.202 225.254 -0.51 -0.01    +0.071 A  
DOCKED: ATOM     18  C   UNL     1     139.753  70.174 225.582 -0.47 -0.00    +0.000 A  
DOCKED: ATOM     19  C   UNL     1     141.234  71.923 226.279 -0.62 -0.00    +0.029 A  
DOCKED: ATOM     20  C   UNL     1     139.519  69.886 226.912 -0.46 -0.00    +0.010 A  
DOCKED: ATOM     21  C   UNL     1     140.979  71.610 227.609 -0.81 -0.00    +0.002 A  
DOCKED: ATOM     22  C   UNL     1     140.123  70.593 227.939 -0.66 -0.00    +0.001 A  
DOCKED: ENDBRANCH  10  13
DOCKED: ENDBRANCH   8   9
DOCKED: ENDBRANCH   6   8
DOCKED: ENDBRANCH   1   6
DOCKED: BRANCH   5  23
DOCKED: ATOM     23  C   UNL     1     138.761  74.368 222.048 -0.07 -0.05    +0.181 C  
DOCKED: BRANCH  23  24
DOCKED: ATOM     24  O   UNL     1     139.810  73.771 222.700 -0.64 +0.02    -0.394 OA 
DOCKED: ATOM     25  H   UNL     1     139.538  73.155 223.427 -0.38 -0.07    +0.210 HD 
DOCKED: ENDBRANCH  23  24
DOCKED: ENDBRANCH   5  23
DOCKED: BRANCH   3  26
DOCKED: ATOM     26  C   UNL     1     141.290  78.137 221.859 -0.37 +0.02    -0.043 A  
DOCKED: ATOM     27  C   UNL     1     141.819  79.291 221.317 -0.39 -0.00    +0.004 A  
DOCKED: ATOM     28  C   UNL     1     141.307  77.983 223.215 -0.44 -0.00    +0.004 A  
DOCKED: ATOM     29  C   UNL     1     142.349  80.260 222.146 -0.53 -0.00    +0.000 A  
DOCKED: ATOM     30  C   UNL     1     141.836  78.948 224.060 -0.59 -0.00    +0.000 A  
DOCKED: ATOM     31  C   UNL     1     142.370  80.112 223.526 -0.66 -0.00    +0.000 A  
DOCKED: ENDBRANCH   3  26
DOCKED: TORSDOF 7
DOCKED: TER
DOCKED: ENDMDL
________________________________________________________________________________


    FINAL DOCKED STATE:
    ________________________


Run:   12 / 20
Time taken for this run:   0.031s

DOCKED: MODEL        12
DOCKED: USER    Run = 12
DOCKED: USER
DOCKED: USER    Estimated Free Energy of Binding    =  -8.27 kcal/mol  [=(1)+(2)+(3)-(4)]
DOCKED: USER
DOCKED: USER    (1) Final Intermolecular Energy     = -10.36 kcal/mol
DOCKED: USER        vdW + Hbond + desolv Energy     = -10.37 kcal/mol
DOCKED: USER        Electrostatic Energy            =  +0.01 kcal/mol
DOCKED: USER        Moving Ligand-Fixed Receptor    = -10.36 kcal/mol
DOCKED: USER        Moving Ligand-Moving Receptor   =  +0.00 kcal/mol
DOCKED: USER    (2) Final Total Internal Energy     =  -2.34 kcal/mol
DOCKED: USER    (3) Torsional Free Energy           =  +2.09 kcal/mol
DOCKED: USER    (4) Unbound System's Energy         =  -2.34 kcal/mol
DOCKED: USER
DOCKED: USER
DOCKED: REMARK SMILES O=C(NCC(=O)N1C[C@H](c2ccccc2)C[C@@H]1CO)c1ccc2ccccc2n1
DOCKED: REMARK SMILES IDX 7 1 8 2 9 3 16 4 17 5 5 6 6 7 4 8 3 9 2 10 1 11 20 13 21 14
DOCKED: REMARK SMILES IDX 29 15 22 16 28 17 23 18 27 19 24 20 26 21 25 22 18 23 19 24
DOCKED: REMARK SMILES IDX 10 26 11 27 15 28 12 29 14 30 13 31
DOCKED: REMARK H PARENT 3 12 19 25
DOCKED: USER                              x       y       z     vdW  Elec       q    Type
DOCKED: USER                           _______ _______ _______ _____ _____    ______ ____
DOCKED: ROOT
DOCKED: ATOM      1  N   UNL     1     139.876  71.749 222.732 -0.17 +0.06    -0.335 N  
DOCKED: ATOM      2  C   UNL     1     140.716  71.339 223.844 -0.24 -0.01    +0.128 C  
DOCKED: ATOM      3  C   UNL     1     139.622  71.099 224.881 -0.42 -0.01    +0.041 C  
DOCKED: ATOM      4  C   UNL     1     138.657  70.260 224.112 -0.31 -0.01    +0.037 C  
DOCKED: ATOM      5  C   UNL     1     138.797  70.778 222.697 -0.19 -0.02    +0.111 C  
DOCKED: ENDROOT
DOCKED: BRANCH   1   6
DOCKED: ATOM      6  C   UNL     1     140.116  72.872 221.898 -0.20 -0.03    +0.242 C  
DOCKED: ATOM      7  O   UNL     1     141.253  72.955 221.365 -0.21 +0.03    -0.273 OA 
DOCKED: BRANCH   6   8
DOCKED: ATOM      8  C   UNL     1     139.078  73.907 221.656 -0.17 -0.05    +0.216 C  
DOCKED: BRANCH   8   9
DOCKED: ATOM      9  N   UNL     1     139.596  75.204 222.038 -0.17 +0.06    -0.342 N  
DOCKED: ATOM     10  C   UNL     1     138.760  76.304 222.353 -0.21 -0.06    +0.270 C  
DOCKED: ATOM     11  O   UNL     1     137.509  76.153 222.301 -0.17 +0.06    -0.268 OA 
DOCKED: ATOM     12  H   UNL     1     140.641  75.389 222.099 +0.04 -0.02    +0.164 HD 
DOCKED: BRANCH  10  13
DOCKED: ATOM     13  C   UNL     1     139.339  77.592 222.732 -0.23 -0.02    +0.128 A  
DOCKED: ATOM     14  C   UNL     1     138.495  78.631 223.087 -0.27 -0.01    +0.035 A  
DOCKED: ATOM     15  N   UNL     1     140.681  77.792 222.746 -0.27 +0.07    -0.243 NA 
DOCKED: ATOM     16  C   UNL     1     139.031  79.870 223.452 -0.38 -0.00    +0.013 A  
DOCKED: ATOM     17  C   UNL     1     141.208  78.993 223.100 -0.48 -0.02    +0.071 A  
DOCKED: ATOM     18  C   UNL     1     140.404  80.060 223.461 -0.47 -0.00    +0.000 A  
DOCKED: ATOM     19  C   UNL     1     142.594  79.158 223.100 -0.51 -0.01    +0.029 A  
DOCKED: ATOM     20  C   UNL     1     140.990  81.259 223.812 -0.39 -0.00    +0.010 A  
DOCKED: ATOM     21  C   UNL     1     143.156  80.378 223.458 -0.65 -0.00    +0.002 A  
DOCKED: ATOM     22  C   UNL     1     142.364  81.436 223.817 -0.59 -0.00    +0.001 A  
DOCKED: ENDBRANCH  10  13
DOCKED: ENDBRANCH   8   9
DOCKED: ENDBRANCH   6   8
DOCKED: ENDBRANCH   1   6
DOCKED: BRANCH   5  23
DOCKED: ATOM     23  C   UNL     1     139.177  69.675 221.734 -0.11 -0.03    +0.181 C  
DOCKED: BRANCH  23  24
DOCKED: ATOM     24  O   UNL     1     140.285  69.944 220.971 -0.05 +0.06    -0.394 OA 
DOCKED: ATOM     25  H   UNL     1     140.574  70.892 220.996 +0.05 -0.03    +0.210 HD 
DOCKED: ENDBRANCH  23  24
DOCKED: ENDBRANCH   5  23
DOCKED: BRANCH   3  26
DOCKED: ATOM     26  C   UNL     1     140.126  70.450 226.109 -0.50 +0.01    -0.043 A  
DOCKED: ATOM     27  C   UNL     1     140.616  71.173 227.177 -0.70 -0.00    +0.004 A  
DOCKED: ATOM     28  C   UNL     1     140.108  69.088 226.193 -0.52 -0.00    +0.004 A  
DOCKED: ATOM     29  C   UNL     1     141.074  70.515 228.301 -0.58 -0.00    +0.000 A  
DOCKED: ATOM     30  C   UNL     1     140.565  68.413 227.316 -0.67 -0.00    +0.000 A  
DOCKED: ATOM     31  C   UNL     1     141.060  69.130 228.396 -0.60 -0.00    +0.000 A  
DOCKED: ENDBRANCH   3  26
DOCKED: TORSDOF 7
DOCKED: TER
DOCKED: ENDMDL
________________________________________________________________________________


    FINAL DOCKED STATE:
    ________________________


Run:   13 / 20
Time taken for this run:   0.031s

DOCKED: MODEL        13
DOCKED: USER    Run = 13
DOCKED: USER
DOCKED: USER    Estimated Free Energy of Binding    =  -8.76 kcal/mol  [=(1)+(2)+(3)-(4)]
DOCKED: USER
DOCKED: USER    (1) Final Intermolecular Energy     = -10.84 kcal/mol
DOCKED: USER        vdW + Hbond + desolv Energy     = -10.85 kcal/mol
DOCKED: USER        Electrostatic Energy            =  +0.01 kcal/mol
DOCKED: USER        Moving Ligand-Fixed Receptor    = -10.84 kcal/mol
DOCKED: USER        Moving Ligand-Moving Receptor   =  +0.00 kcal/mol
DOCKED: USER    (2) Final Total Internal Energy     =  -1.84 kcal/mol
DOCKED: USER    (3) Torsional Free Energy           =  +2.09 kcal/mol
DOCKED: USER    (4) Unbound System's Energy         =  -1.84 kcal/mol
DOCKED: USER
DOCKED: USER
DOCKED: REMARK SMILES O=C(NCC(=O)N1C[C@H](c2ccccc2)C[C@@H]1CO)c1ccc2ccccc2n1
DOCKED: REMARK SMILES IDX 7 1 8 2 9 3 16 4 17 5 5 6 6 7 4 8 3 9 2 10 1 11 20 13 21 14
DOCKED: REMARK SMILES IDX 29 15 22 16 28 17 23 18 27 19 24 20 26 21 25 22 18 23 19 24
DOCKED: REMARK SMILES IDX 10 26 11 27 15 28 12 29 14 30 13 31
DOCKED: REMARK H PARENT 3 12 19 25
DOCKED: USER                              x       y       z     vdW  Elec       q    Type
DOCKED: USER                           _______ _______ _______ _____ _____    ______ ____
DOCKED: ROOT
DOCKED: ATOM      1  N   UNL     1     139.835  71.694 222.895 -0.17 +0.06    -0.335 N  
DOCKED: ATOM      2  C   UNL     1     140.627  71.310 224.051 -0.31 -0.02    +0.128 C  
DOCKED: ATOM      3  C   UNL     1     139.504  70.770 224.931 -0.41 -0.01    +0.041 C  
DOCKED: ATOM      4  C   UNL     1     138.785  69.870 223.981 -0.30 -0.01    +0.037 C  
DOCKED: ATOM      5  C   UNL     1     138.959  70.562 222.647 -0.18 -0.02    +0.111 C  
DOCKED: ENDROOT
DOCKED: BRANCH   1   6
DOCKED: ATOM      6  C   UNL     1     139.942  72.929 222.204 -0.20 -0.03    +0.242 C  
DOCKED: ATOM      7  O   UNL     1     141.085  73.254 221.791 -0.42 +0.02    -0.273 OA 
DOCKED: BRANCH   6   8
DOCKED: ATOM      8  C   UNL     1     138.764  73.804 221.973 -0.12 -0.06    +0.216 C  
DOCKED: BRANCH   8   9
DOCKED: ATOM      9  N   UNL     1     139.052  75.136 222.461 -0.07 +0.08    -0.342 N  
DOCKED: ATOM     10  C   UNL     1     139.891  76.044 221.768 -0.23 -0.06    +0.270 C  
DOCKED: ATOM     11  O   UNL     1     140.412  75.683 220.678 -0.12 +0.07    -0.268 OA 
DOCKED: ATOM     12  H   UNL     1     138.641  75.494 223.373 -0.41 -0.06    +0.164 HD 
DOCKED: BRANCH  10  13
DOCKED: ATOM     13  C   UNL     1     140.148  77.378 222.310 -0.32 -0.03    +0.128 A  
DOCKED: ATOM     14  C   UNL     1     139.075  78.171 222.680 -0.30 -0.01    +0.035 A  
DOCKED: ATOM     15  N   UNL     1     141.410  77.855 222.459 -0.25 +0.12    -0.243 NA 
DOCKED: ATOM     16  C   UNL     1     139.301  79.450 223.200 -0.37 -0.00    +0.013 A  
DOCKED: ATOM     17  C   UNL     1     141.636  79.095 222.963 -0.50 -0.03    +0.071 A  
DOCKED: ATOM     18  C   UNL     1     140.595  79.924 223.346 -0.48 -0.00    +0.000 A  
DOCKED: ATOM     19  C   UNL     1     142.949  79.549 223.100 -0.54 -0.01    +0.029 A  
DOCKED: ATOM     20  C   UNL     1     140.880  81.176 223.853 -0.35 -0.00    +0.010 A  
DOCKED: ATOM     21  C   UNL     1     143.205  80.814 223.614 -0.58 -0.00    +0.002 A  
DOCKED: ATOM     22  C   UNL     1     142.179  81.638 223.995 -0.58 -0.00    +0.001 A  
DOCKED: ENDBRANCH  10  13
DOCKED: ENDBRANCH   8   9
DOCKED: ENDBRANCH   6   8
DOCKED: ENDBRANCH   1   6
DOCKED: BRANCH   5  23
DOCKED: ATOM     23  C   UNL     1     139.623  69.658 221.632 -0.08 -0.03    +0.181 C  
DOCKED: BRANCH  23  24
DOCKED: ATOM     24  O   UNL     1     140.558  70.280 220.843 -0.05 +0.06    -0.394 OA 
DOCKED: ATOM     25  H   UNL     1     140.824  71.179 221.162 +0.06 -0.03    +0.210 HD 
DOCKED: ENDBRANCH  23  24
DOCKED: ENDBRANCH   5  23
DOCKED: BRANCH   3  26
DOCKED: ATOM     26  C   UNL     1     140.001  70.081 226.139 -0.48 +0.01    -0.043 A  
DOCKED: ATOM     27  C   UNL     1     139.892  68.715 226.306 -0.56 -0.00    +0.004 A  
DOCKED: ATOM     28  C   UNL     1     140.587  70.817 227.127 -0.66 -0.00    +0.004 A  
DOCKED: ATOM     29  C   UNL     1     140.374  68.123 227.457 -0.67 -0.00    +0.000 A  
DOCKED: ATOM     30  C   UNL     1     141.076  70.235 228.288 -0.57 -0.00    +0.000 A  
DOCKED: ATOM     31  C   UNL     1     140.972  68.863 228.467 -0.62 -0.00    +0.000 A  
DOCKED: ENDBRANCH   3  26
DOCKED: TORSDOF 7
DOCKED: TER
DOCKED: ENDMDL
________________________________________________________________________________


    FINAL DOCKED STATE:
    ________________________


Run:   14 / 20
Time taken for this run:   0.031s

DOCKED: MODEL        14
DOCKED: USER    Run = 14
DOCKED: USER
DOCKED: USER    Estimated Free Energy of Binding    =  -7.75 kcal/mol  [=(1)+(2)+(3)-(4)]
DOCKED: USER
DOCKED: USER    (1) Final Intermolecular Energy     =  -9.84 kcal/mol
DOCKED: USER        vdW + Hbond + desolv Energy     =  -9.79 kcal/mol
DOCKED: USER        Electrostatic Energy            =  -0.05 kcal/mol
DOCKED: USER        Moving Ligand-Fixed Receptor    =  -9.84 kcal/mol
DOCKED: USER        Moving Ligand-Moving Receptor   =  +0.00 kcal/mol
DOCKED: USER    (2) Final Total Internal Energy     =  -3.09 kcal/mol
DOCKED: USER    (3) Torsional Free Energy           =  +2.09 kcal/mol
DOCKED: USER    (4) Unbound System's Energy         =  -3.09 kcal/mol
DOCKED: USER
DOCKED: USER
DOCKED: REMARK SMILES O=C(NCC(=O)N1C[C@H](c2ccccc2)C[C@@H]1CO)c1ccc2ccccc2n1
DOCKED: REMARK SMILES IDX 7 1 8 2 9 3 16 4 17 5 5 6 6 7 4 8 3 9 2 10 1 11 20 13 21 14
DOCKED: REMARK SMILES IDX 29 15 22 16 28 17 23 18 27 19 24 20 26 21 25 22 18 23 19 24
DOCKED: REMARK SMILES IDX 10 26 11 27 15 28 12 29 14 30 13 31
DOCKED: REMARK H PARENT 3 12 19 25
DOCKED: USER                              x       y       z     vdW  Elec       q    Type
DOCKED: USER                           _______ _______ _______ _____ _____    ______ ____
DOCKED: ROOT
DOCKED: ATOM      1  N   UNL     1     138.438  70.017 223.052 -0.08 +0.06    -0.335 N  
DOCKED: ATOM      2  C   UNL     1     138.531  70.109 224.499 -0.28 -0.02    +0.128 C  
DOCKED: ATOM      3  C   UNL     1     140.012  70.456 224.612 -0.41 -0.01    +0.041 C  
DOCKED: ATOM      4  C   UNL     1     140.138  71.564 223.621 -0.37 -0.01    +0.037 C  
DOCKED: ATOM      5  C   UNL     1     139.129  71.194 222.555 -0.20 -0.02    +0.111 C  
DOCKED: ENDROOT
DOCKED: BRANCH   1   6
DOCKED: ATOM      6  C   UNL     1     137.795  68.972 222.338 -0.11 -0.04    +0.242 C  
DOCKED: ATOM      7  O   UNL     1     138.534  68.184 221.693 -0.10 +0.05    -0.273 OA 
DOCKED: BRANCH   6   8
DOCKED: ATOM      8  C   UNL     1     136.319  68.805 222.348 -0.08 -0.03    +0.216 C  
DOCKED: BRANCH   8   9
DOCKED: ATOM      9  N   UNL     1     135.721  69.871 223.123 -0.03 +0.04    -0.342 N  
DOCKED: ATOM     10  C   UNL     1     134.976  69.638 224.307 -0.11 -0.02    +0.270 C  
DOCKED: ATOM     11  O   UNL     1     134.825  68.452 224.707 -0.67 -0.00    -0.268 OA 
DOCKED: ATOM     12  H   UNL     1     135.816  70.890 222.834 +0.03 -0.03    +0.164 HD 
DOCKED: BRANCH  10  13
DOCKED: ATOM     13  C   UNL     1     134.394  70.754 225.050 -0.16 -0.01    +0.128 A  
DOCKED: ATOM     14  C   UNL     1     133.451  70.492 226.029 -0.28 -0.00    +0.035 A  
DOCKED: ATOM     15  N   UNL     1     134.756  72.039 224.803 -0.11 +0.02    -0.243 NA 
DOCKED: ATOM     16  C   UNL     1     132.883  71.547 226.750 -0.38 -0.00    +0.013 A  
DOCKED: ATOM     17  C   UNL     1     134.209  73.068 225.500 -0.26 -0.00    +0.071 A  
DOCKED: ATOM     18  C   UNL     1     133.262  72.854 226.487 -0.38 -0.00    +0.000 A  
DOCKED: ATOM     19  C   UNL     1     134.608  74.375 225.215 -0.33 -0.00    +0.029 A  
DOCKED: ATOM     20  C   UNL     1     132.737  73.935 227.165 -0.39 -0.00    +0.010 A  
DOCKED: ATOM     21  C   UNL     1     134.061  75.444 225.915 -0.38 -0.00    +0.002 A  
DOCKED: ATOM     22  C   UNL     1     133.125  75.238 226.893 -0.39 +0.00    +0.001 A  
DOCKED: ENDBRANCH  10  13
DOCKED: ENDBRANCH   8   9
DOCKED: ENDBRANCH   6   8
DOCKED: ENDBRANCH   1   6
DOCKED: BRANCH   5  23
DOCKED: ATOM     23  C   UNL     1     138.112  72.293 222.343 -0.12 -0.05    +0.181 C  
DOCKED: BRANCH  23  24
DOCKED: ATOM     24  O   UNL     1     136.964  72.153 223.081 -0.10 +0.12    -0.394 OA 
DOCKED: ATOM     25  H   UNL     1     136.956  72.677 223.922 -0.51 -0.10    +0.210 HD 
DOCKED: ENDBRANCH  23  24
DOCKED: ENDBRANCH   5  23
DOCKED: BRANCH   3  26
DOCKED: ATOM     26  C   UNL     1     140.409  70.838 225.983 -0.55 +0.01    -0.043 A  
DOCKED: ATOM     27  C   UNL     1     141.102  72.001 226.252 -0.58 -0.00    +0.004 A  
DOCKED: ATOM     28  C   UNL     1     140.083  70.016 227.021 -0.57 -0.00    +0.004 A  
DOCKED: ATOM     29  C   UNL     1     141.449  72.310 227.552 -0.81 -0.00    +0.000 A  
DOCKED: ATOM     30  C   UNL     1     140.425  70.313 228.333 -0.58 -0.00    +0.000 A  
DOCKED: ATOM     31  C   UNL     1     141.121  71.480 228.614 -0.50 -0.00    +0.000 A  
DOCKED: ENDBRANCH   3  26
DOCKED: TORSDOF 7
DOCKED: TER
DOCKED: ENDMDL
________________________________________________________________________________


    FINAL DOCKED STATE:
    ________________________


Run:   15 / 20
Time taken for this run:   0.031s

DOCKED: MODEL        15
DOCKED: USER    Run = 15
DOCKED: USER
DOCKED: USER    Estimated Free Energy of Binding    =  -7.48 kcal/mol  [=(1)+(2)+(3)-(4)]
DOCKED: USER
DOCKED: USER    (1) Final Intermolecular Energy     =  -9.57 kcal/mol
DOCKED: USER        vdW + Hbond + desolv Energy     =  -9.51 kcal/mol
DOCKED: USER        Electrostatic Energy            =  -0.06 kcal/mol
DOCKED: USER        Moving Ligand-Fixed Receptor    =  -9.57 kcal/mol
DOCKED: USER        Moving Ligand-Moving Receptor   =  +0.00 kcal/mol
DOCKED: USER    (2) Final Total Internal Energy     =  -3.26 kcal/mol
DOCKED: USER    (3) Torsional Free Energy           =  +2.09 kcal/mol
DOCKED: USER    (4) Unbound System's Energy         =  -3.26 kcal/mol
DOCKED: USER
DOCKED: USER
DOCKED: REMARK SMILES O=C(NCC(=O)N1C[C@H](c2ccccc2)C[C@@H]1CO)c1ccc2ccccc2n1
DOCKED: REMARK SMILES IDX 7 1 8 2 9 3 16 4 17 5 5 6 6 7 4 8 3 9 2 10 1 11 20 13 21 14
DOCKED: REMARK SMILES IDX 29 15 22 16 28 17 23 18 27 19 24 20 26 21 25 22 18 23 19 24
DOCKED: REMARK SMILES IDX 10 26 11 27 15 28 12 29 14 30 13 31
DOCKED: REMARK H PARENT 3 12 19 25
DOCKED: USER                              x       y       z     vdW  Elec       q    Type
DOCKED: USER                           _______ _______ _______ _____ _____    ______ ____
DOCKED: ROOT
DOCKED: ATOM      1  N   UNL     1     140.245  71.672 220.282 -0.03 +0.06    -0.335 N  
DOCKED: ATOM      2  C   UNL     1     141.662  71.520 220.563 -0.14 -0.02    +0.128 C  
DOCKED: ATOM      3  C   UNL     1     142.174  72.768 219.851 -0.16 -0.01    +0.041 C  
DOCKED: ATOM      4  C   UNL     1     141.249  73.815 220.376 -0.20 -0.01    +0.037 C  
DOCKED: ATOM      5  C   UNL     1     139.950  73.064 220.575 -0.12 -0.02    +0.111 C  
DOCKED: ENDROOT
DOCKED: BRANCH   1   6
DOCKED: ATOM      6  C   UNL     1     139.388  70.640 219.817 -0.03 -0.04    +0.242 C  
DOCKED: ATOM      7  O   UNL     1     139.079  70.662 218.598 -0.01 +0.05    -0.273 OA 
DOCKED: BRANCH   6   8
DOCKED: ATOM      8  C   UNL     1     138.876  69.579 220.721 -0.06 -0.04    +0.216 C  
DOCKED: BRANCH   8   9
DOCKED: ATOM      9  N   UNL     1     139.334  69.834 222.070 -0.05 +0.06    -0.342 N  
DOCKED: ATOM     10  C   UNL     1     138.996  69.003 223.168 -0.13 -0.05    +0.270 C  
DOCKED: ATOM     11  O   UNL     1     138.266  67.996 222.967 -0.18 +0.03    -0.268 OA 
DOCKED: ATOM     12  H   UNL     1     139.951  70.669 222.298 +0.05 -0.03    +0.164 HD 
DOCKED: BRANCH  10  13
DOCKED: ATOM     13  C   UNL     1     139.487  69.311 224.510 -0.27 -0.02    +0.128 A  
DOCKED: ATOM     14  C   UNL     1     139.382  68.350 225.501 -0.47 -0.00    +0.035 A  
DOCKED: ATOM     15  N   UNL     1     140.043  70.513 224.806 -0.25 +0.04    -0.243 NA 
DOCKED: ATOM     16  C   UNL     1     139.846  68.627 226.791 -0.59 -0.00    +0.013 A  
DOCKED: ATOM     17  C   UNL     1     140.496  70.788 226.057 -0.54 -0.01    +0.071 A  
DOCKED: ATOM     18  C   UNL     1     140.411  69.859 227.079 -0.58 -0.00    +0.000 A  
DOCKED: ATOM     19  C   UNL     1     141.061  72.037 226.320 -0.56 -0.00    +0.029 A  
DOCKED: ATOM     20  C   UNL     1     140.886  70.189 228.332 -0.56 -0.00    +0.010 A  
DOCKED: ATOM     21  C   UNL     1     141.531  72.341 227.592 -0.76 -0.00    +0.002 A  
DOCKED: ATOM     22  C   UNL     1     141.450  71.425 228.607 -0.50 -0.00    +0.001 A  
DOCKED: ENDBRANCH  10  13
DOCKED: ENDBRANCH   8   9
DOCKED: ENDBRANCH   6   8
DOCKED: ENDBRANCH   1   6
DOCKED: BRANCH   5  23
DOCKED: ATOM     23  C   UNL     1     139.465  73.159 222.005 -0.20 -0.04    +0.181 C  
DOCKED: BRANCH  23  24
DOCKED: ATOM     24  O   UNL     1     140.350  72.679 222.937 -0.50 +0.02    -0.394 OA 
DOCKED: ATOM     25  H   UNL     1     139.936  72.444 223.806 -0.10 -0.05    +0.210 HD 
DOCKED: ENDBRANCH  23  24
DOCKED: ENDBRANCH   5  23
DOCKED: BRANCH   3  26
DOCKED: ATOM     26  C   UNL     1     143.599  73.043 220.125 -0.29 +0.01    -0.043 A  
DOCKED: ATOM     27  C   UNL     1     144.035  74.261 220.606 -0.40 -0.00    +0.004 A  
DOCKED: ATOM     28  C   UNL     1     144.520  72.063 219.896 -0.33 -0.00    +0.004 A  
DOCKED: ATOM     29  C   UNL     1     145.379  74.465 220.844 -0.48 -0.00    +0.000 A  
DOCKED: ATOM     30  C   UNL     1     145.873  72.253 220.131 -0.42 +0.00    +0.000 A  
DOCKED: ATOM     31  C   UNL     1     146.323  73.473 220.615 -0.66 +0.00    +0.000 A  
DOCKED: ENDBRANCH   3  26
DOCKED: TORSDOF 7
DOCKED: TER
DOCKED: ENDMDL
________________________________________________________________________________


    FINAL DOCKED STATE:
    ________________________


Run:   16 / 20
Time taken for this run:   0.031s

DOCKED: MODEL        16
DOCKED: USER    Run = 16
DOCKED: USER
DOCKED: USER    Estimated Free Energy of Binding    =  -7.16 kcal/mol  [=(1)+(2)+(3)-(4)]
DOCKED: USER
DOCKED: USER    (1) Final Intermolecular Energy     =  -9.25 kcal/mol
DOCKED: USER        vdW + Hbond + desolv Energy     =  -9.14 kcal/mol
DOCKED: USER        Electrostatic Energy            =  -0.11 kcal/mol
DOCKED: USER        Moving Ligand-Fixed Receptor    =  -9.25 kcal/mol
DOCKED: USER        Moving Ligand-Moving Receptor   =  +0.00 kcal/mol
DOCKED: USER    (2) Final Total Internal Energy     =  -3.24 kcal/mol
DOCKED: USER    (3) Torsional Free Energy           =  +2.09 kcal/mol
DOCKED: USER    (4) Unbound System's Energy         =  -3.24 kcal/mol
DOCKED: USER
DOCKED: USER
DOCKED: REMARK SMILES O=C(NCC(=O)N1C[C@H](c2ccccc2)C[C@@H]1CO)c1ccc2ccccc2n1
DOCKED: REMARK SMILES IDX 7 1 8 2 9 3 16 4 17 5 5 6 6 7 4 8 3 9 2 10 1 11 20 13 21 14
DOCKED: REMARK SMILES IDX 29 15 22 16 28 17 23 18 27 19 24 20 26 21 25 22 18 23 19 24
DOCKED: REMARK SMILES IDX 10 26 11 27 15 28 12 29 14 30 13 31
DOCKED: REMARK H PARENT 3 12 19 25
DOCKED: USER                              x       y       z     vdW  Elec       q    Type
DOCKED: USER                           _______ _______ _______ _____ _____    ______ ____
DOCKED: ROOT
DOCKED: ATOM      1  N   UNL     1     139.817  73.251 219.965 -0.01 +0.07    -0.335 N  
DOCKED: ATOM      2  C   UNL     1     141.091  72.589 220.188 -0.11 -0.02    +0.128 C  
DOCKED: ATOM      3  C   UNL     1     142.017  73.719 219.749 -0.17 -0.01    +0.041 C  
DOCKED: ATOM      4  C   UNL     1     141.451  74.880 220.498 -0.25 -0.01    +0.037 C  
DOCKED: ATOM      5  C   UNL     1     139.970  74.571 220.551 -0.15 -0.02    +0.111 C  
DOCKED: ENDROOT
DOCKED: BRANCH   1   6
DOCKED: ATOM      6  C   UNL     1     138.701  72.674 219.304 -0.01 -0.05    +0.242 C  
DOCKED: ATOM      7  O   UNL     1     138.577  72.919 218.076 -0.00 +0.05    -0.273 OA 
DOCKED: BRANCH   6   8
DOCKED: ATOM      8  C   UNL     1     137.721  71.817 220.019 -0.01 -0.04    +0.216 C  
DOCKED: BRANCH   8   9
DOCKED: ATOM      9  N   UNL     1     138.193  71.569 221.365 -0.02 +0.07    -0.342 N  
DOCKED: ATOM     10  C   UNL     1     138.511  70.272 221.841 -0.07 -0.05    +0.270 C  
DOCKED: ATOM     11  O   UNL     1     138.379  69.288 221.065 -0.05 +0.05    -0.268 OA 
DOCKED: ATOM     12  H   UNL     1     138.323  72.360 222.062 +0.02 -0.04    +0.164 HD 
DOCKED: BRANCH  10  13
DOCKED: ATOM     13  C   UNL     1     138.983  70.081 223.212 -0.20 -0.02    +0.128 A  
DOCKED: ATOM     14  C   UNL     1     138.750  68.869 223.840 -0.29 -0.00    +0.035 A  
DOCKED: ATOM     15  N   UNL     1     139.644  71.059 223.880 -0.23 +0.05    -0.243 NA 
DOCKED: ATOM     16  C   UNL     1     139.194  68.668 225.151 -0.42 -0.00    +0.013 A  
DOCKED: ATOM     17  C   UNL     1     140.079  70.870 225.153 -0.46 -0.01    +0.071 A  
DOCKED: ATOM     18  C   UNL     1     139.867  69.677 225.821 -0.47 -0.00    +0.000 A  
DOCKED: ATOM     19  C   UNL     1     140.754  71.903 225.805 -0.47 -0.00    +0.029 A  
DOCKED: ATOM     20  C   UNL     1     140.329  69.537 227.115 -0.58 -0.00    +0.010 A  
DOCKED: ATOM     21  C   UNL     1     141.208  71.732 227.108 -0.76 -0.00    +0.002 A  
DOCKED: ATOM     22  C   UNL     1     141.002  70.553 227.774 -0.65 -0.00    +0.001 A  
DOCKED: ENDBRANCH  10  13
DOCKED: ENDBRANCH   8   9
DOCKED: ENDBRANCH   6   8
DOCKED: ENDBRANCH   1   6
DOCKED: BRANCH   5  23
DOCKED: ATOM     23  C   UNL     1     139.461  74.524 221.974 -0.20 -0.03    +0.181 C  
DOCKED: BRANCH  23  24
DOCKED: ATOM     24  O   UNL     1     139.890  73.438 222.695 -0.67 +0.03    -0.394 OA 
DOCKED: ATOM     25  H   UNL     1     139.233  73.106 223.359 -0.40 -0.11    +0.210 HD 
DOCKED: ENDBRANCH  23  24
DOCKED: ENDBRANCH   5  23
DOCKED: BRANCH   3  26
DOCKED: ATOM     26  C   UNL     1     143.437  73.452 220.056 -0.29 +0.01    -0.043 A  
DOCKED: ATOM     27  C   UNL     1     144.271  74.416 220.585 -0.41 -0.00    +0.004 A  
DOCKED: ATOM     28  C   UNL     1     143.946  72.210 219.810 -0.27 -0.00    +0.004 A  
DOCKED: ATOM     29  C   UNL     1     145.591  74.111 220.853 -0.63 -0.00    +0.000 A  
DOCKED: ATOM     30  C   UNL     1     145.269  71.889 220.075 -0.31 +0.00    +0.000 A  
DOCKED: ATOM     31  C   UNL     1     146.117  72.851 220.606 -0.57 +0.00    +0.000 A  
DOCKED: ENDBRANCH   3  26
DOCKED: TORSDOF 7
DOCKED: TER
DOCKED: ENDMDL
________________________________________________________________________________


    FINAL DOCKED STATE:
    ________________________


Run:   17 / 20
Time taken for this run:   0.031s

DOCKED: MODEL        17
DOCKED: USER    Run = 17
DOCKED: USER
DOCKED: USER    Estimated Free Energy of Binding    =  -8.47 kcal/mol  [=(1)+(2)+(3)-(4)]
DOCKED: USER
DOCKED: USER    (1) Final Intermolecular Energy     = -10.56 kcal/mol
DOCKED: USER        vdW + Hbond + desolv Energy     = -10.55 kcal/mol
DOCKED: USER        Electrostatic Energy            =  -0.02 kcal/mol
DOCKED: USER        Moving Ligand-Fixed Receptor    = -10.56 kcal/mol
DOCKED: USER        Moving Ligand-Moving Receptor   =  +0.00 kcal/mol
DOCKED: USER    (2) Final Total Internal Energy     =  -2.04 kcal/mol
DOCKED: USER    (3) Torsional Free Energy           =  +2.09 kcal/mol
DOCKED: USER    (4) Unbound System's Energy         =  -2.04 kcal/mol
DOCKED: USER
DOCKED: USER
DOCKED: REMARK SMILES O=C(NCC(=O)N1C[C@H](c2ccccc2)C[C@@H]1CO)c1ccc2ccccc2n1
DOCKED: REMARK SMILES IDX 7 1 8 2 9 3 16 4 17 5 5 6 6 7 4 8 3 9 2 10 1 11 20 13 21 14
DOCKED: REMARK SMILES IDX 29 15 22 16 28 17 23 18 27 19 24 20 26 21 25 22 18 23 19 24
DOCKED: REMARK SMILES IDX 10 26 11 27 15 28 12 29 14 30 13 31
DOCKED: REMARK H PARENT 3 12 19 25
DOCKED: USER                              x       y       z     vdW  Elec       q    Type
DOCKED: USER                           _______ _______ _______ _____ _____    ______ ____
DOCKED: ROOT
DOCKED: ATOM      1  N   UNL     1     138.866  76.415 221.651 -0.11 +0.07    -0.335 N  
DOCKED: ATOM      2  C   UNL     1     139.990  76.963 222.390 -0.30 -0.03    +0.128 C  
DOCKED: ATOM      3  C   UNL     1     140.017  78.356 221.768 -0.27 -0.01    +0.041 C  
DOCKED: ATOM      4  C   UNL     1     138.582  78.756 221.864 -0.19 -0.01    +0.037 C  
DOCKED: ATOM      5  C   UNL     1     137.844  77.445 221.700 -0.15 -0.02    +0.111 C  
DOCKED: ENDROOT
DOCKED: BRANCH   1   6
DOCKED: ATOM      6  C   UNL     1     138.840  75.137 221.033 -0.12 -0.05    +0.242 C  
DOCKED: ATOM      7  O   UNL     1     137.784  74.818 220.428 -0.03 +0.06    -0.273 OA 
DOCKED: BRANCH   6   8
DOCKED: ATOM      8  C   UNL     1     140.001  74.212 221.090 -0.17 -0.04    +0.216 C  
DOCKED: BRANCH   8   9
DOCKED: ATOM      9  N   UNL     1     139.925  73.421 222.300 -0.14 +0.04    -0.342 N  
DOCKED: ATOM     10  C   UNL     1     140.321  72.061 222.355 -0.21 -0.03    +0.270 C  
DOCKED: ATOM     11  O   UNL     1     140.759  71.511 221.309 -0.13 +0.04    -0.268 OA 
DOCKED: ATOM     12  H   UNL     1     139.564  73.832 223.211 -0.50 -0.03    +0.164 HD 
DOCKED: BRANCH  10  13
DOCKED: ATOM     13  C   UNL     1     140.221  71.310 223.606 -0.32 -0.02    +0.128 A  
DOCKED: ATOM     14  C   UNL     1     139.646  70.051 223.590 -0.26 -0.01    +0.035 A  
DOCKED: ATOM     15  N   UNL     1     140.679  71.816 224.778 -0.28 +0.03    -0.243 NA 
DOCKED: ATOM     16  C   UNL     1     139.542  69.317 224.776 -0.37 -0.00    +0.013 A  
DOCKED: ATOM     17  C   UNL     1     140.582  71.109 225.934 -0.55 -0.01    +0.071 A  
DOCKED: ATOM     18  C   UNL     1     140.014  69.848 225.967 -0.49 -0.00    +0.000 A  
DOCKED: ATOM     19  C   UNL     1     141.065  71.667 227.120 -0.75 -0.01    +0.029 A  
DOCKED: ATOM     20  C   UNL     1     139.940  69.172 227.168 -0.58 -0.00    +0.010 A  
DOCKED: ATOM     21  C   UNL     1     140.976  70.962 228.314 -0.65 -0.00    +0.002 A  
DOCKED: ATOM     22  C   UNL     1     140.416  69.713 228.352 -0.60 -0.00    +0.001 A  
DOCKED: ENDBRANCH  10  13
DOCKED: ENDBRANCH   8   9
DOCKED: ENDBRANCH   6   8
DOCKED: ENDBRANCH   1   6
DOCKED: BRANCH   5  23
DOCKED: ATOM     23  C   UNL     1     136.938  77.164 222.879 -0.13 -0.03    +0.181 C  
DOCKED: BRANCH  23  24
DOCKED: ATOM     24  O   UNL     1     136.788  75.832 223.174 -0.17 +0.10    -0.394 OA 
DOCKED: ATOM     25  H   UNL     1     137.104  75.220 222.462 -0.00 -0.06    +0.210 HD 
DOCKED: ENDBRANCH  23  24
DOCKED: ENDBRANCH   5  23
DOCKED: BRANCH   3  26
DOCKED: ATOM     26  C   UNL     1     140.937  79.279 222.463 -0.39 +0.01    -0.043 A  
DOCKED: ATOM     27  C   UNL     1     142.308  79.116 222.430 -0.50 -0.00    +0.004 A  
DOCKED: ATOM     28  C   UNL     1     140.420  80.330 223.162 -0.44 -0.00    +0.004 A  
DOCKED: ATOM     29  C   UNL     1     143.122  80.009 223.098 -0.63 -0.00    +0.000 A  
DOCKED: ATOM     30  C   UNL     1     141.226  81.234 223.838 -0.47 -0.00    +0.000 A  
DOCKED: ATOM     31  C   UNL     1     142.604  81.081 223.812 -0.65 -0.00    +0.000 A  
DOCKED: ENDBRANCH   3  26
DOCKED: TORSDOF 7
DOCKED: TER
DOCKED: ENDMDL
________________________________________________________________________________


    FINAL DOCKED STATE:
    ________________________


Run:   18 / 20
Time taken for this run:   0.031s

DOCKED: MODEL        18
DOCKED: USER    Run = 18
DOCKED: USER
DOCKED: USER    Estimated Free Energy of Binding    =  -7.91 kcal/mol  [=(1)+(2)+(3)-(4)]
DOCKED: USER
DOCKED: USER    (1) Final Intermolecular Energy     = -10.00 kcal/mol
DOCKED: USER        vdW + Hbond + desolv Energy     =  -9.96 kcal/mol
DOCKED: USER        Electrostatic Energy            =  -0.04 kcal/mol
DOCKED: USER        Moving Ligand-Fixed Receptor    = -10.00 kcal/mol
DOCKED: USER        Moving Ligand-Moving Receptor   =  +0.00 kcal/mol
DOCKED: USER    (2) Final Total Internal Energy     =  -3.07 kcal/mol
DOCKED: USER    (3) Torsional Free Energy           =  +2.09 kcal/mol
DOCKED: USER    (4) Unbound System's Energy         =  -3.07 kcal/mol
DOCKED: USER
DOCKED: USER
DOCKED: REMARK SMILES O=C(NCC(=O)N1C[C@H](c2ccccc2)C[C@@H]1CO)c1ccc2ccccc2n1
DOCKED: REMARK SMILES IDX 7 1 8 2 9 3 16 4 17 5 5 6 6 7 4 8 3 9 2 10 1 11 20 13 21 14
DOCKED: REMARK SMILES IDX 29 15 22 16 28 17 23 18 27 19 24 20 26 21 25 22 18 23 19 24
DOCKED: REMARK SMILES IDX 10 26 11 27 15 28 12 29 14 30 13 31
DOCKED: REMARK H PARENT 3 12 19 25
DOCKED: USER                              x       y       z     vdW  Elec       q    Type
DOCKED: USER                           _______ _______ _______ _____ _____    ______ ____
DOCKED: ROOT
DOCKED: ATOM      1  N   UNL     1     138.243  69.805 223.186 -0.08 +0.06    -0.335 N  
DOCKED: ATOM      2  C   UNL     1     138.415  69.949 224.622 -0.28 -0.02    +0.128 C  
DOCKED: ATOM      3  C   UNL     1     139.904  70.281 224.643 -0.40 -0.01    +0.041 C  
DOCKED: ATOM      4  C   UNL     1     139.989  71.350 223.604 -0.37 -0.01    +0.037 C  
DOCKED: ATOM      5  C   UNL     1     138.920  70.952 222.609 -0.19 -0.02    +0.111 C  
DOCKED: ENDROOT
DOCKED: BRANCH   1   6
DOCKED: ATOM      6  C   UNL     1     137.551  68.742 222.548 -0.12 -0.03    +0.242 C  
DOCKED: ATOM      7  O   UNL     1     138.251  67.890 221.942 -0.12 +0.05    -0.273 OA 
DOCKED: BRANCH   6   8
DOCKED: ATOM      8  C   UNL     1     136.071  68.630 222.591 -0.09 -0.02    +0.216 C  
DOCKED: BRANCH   8   9
DOCKED: ATOM      9  N   UNL     1     135.525  69.762 223.310 -0.04 +0.04    -0.342 N  
DOCKED: ATOM     10  C   UNL     1     134.884  69.637 224.568 -0.12 -0.02    +0.270 C  
DOCKED: ATOM     11  O   UNL     1     134.781  68.494 225.089 -0.63 +0.00    -0.268 OA 
DOCKED: ATOM     12  H   UNL     1     135.583  70.748 222.919 +0.03 -0.02    +0.164 HD 
DOCKED: BRANCH  10  13
DOCKED: ATOM     13  C   UNL     1     134.350  70.816 225.249 -0.18 -0.01    +0.128 A  
DOCKED: ATOM     14  C   UNL     1     133.378  70.648 226.221 -0.30 -0.00    +0.035 A  
DOCKED: ATOM     15  N   UNL     1     134.784  72.066 224.952 -0.12 +0.02    -0.243 NA 
DOCKED: ATOM     16  C   UNL     1     132.856  71.764 226.883 -0.39 -0.00    +0.013 A  
DOCKED: ATOM     17  C   UNL     1     134.281  73.154 225.592 -0.27 -0.00    +0.071 A  
DOCKED: ATOM     18  C   UNL     1     133.309  73.036 226.569 -0.37 -0.00    +0.000 A  
DOCKED: ATOM     19  C   UNL     1     134.755  74.424 225.256 -0.33 -0.00    +0.029 A  
DOCKED: ATOM     20  C   UNL     1     132.831  74.173 227.188 -0.36 +0.00    +0.010 A  
DOCKED: ATOM     21  C   UNL     1     134.255  75.551 225.897 -0.40 -0.00    +0.002 A  
DOCKED: ATOM     22  C   UNL     1     133.293  75.439 226.865 -0.39 +0.00    +0.001 A  
DOCKED: ENDBRANCH  10  13
DOCKED: ENDBRANCH   8   9
DOCKED: ENDBRANCH   6   8
DOCKED: ENDBRANCH   1   6
DOCKED: BRANCH   5  23
DOCKED: ATOM     23  C   UNL     1     137.905  72.057 222.410 -0.12 -0.05    +0.181 C  
DOCKED: BRANCH  23  24
DOCKED: ATOM     24  O   UNL     1     136.855  72.027 223.292 -0.10 +0.11    -0.394 OA 
DOCKED: ATOM     25  H   UNL     1     136.930  72.678 224.035 -0.51 -0.10    +0.210 HD 
DOCKED: ENDBRANCH  23  24
DOCKED: ENDBRANCH   5  23
DOCKED: BRANCH   3  26
DOCKED: ATOM     26  C   UNL     1     140.379  70.709 225.975 -0.54 +0.01    -0.043 A  
DOCKED: ATOM     27  C   UNL     1     140.144  69.967 227.114 -0.57 -0.00    +0.004 A  
DOCKED: ATOM     28  C   UNL     1     141.073  71.878 226.086 -0.63 -0.00    +0.004 A  
DOCKED: ATOM     29  C   UNL     1     140.611  70.415 228.334 -0.58 -0.00    +0.000 A  
DOCKED: ATOM     30  C   UNL     1     141.548  72.340 227.305 -0.76 -0.00    +0.000 A  
DOCKED: ATOM     31  C   UNL     1     141.318  71.602 228.457 -0.63 -0.00    +0.000 A  
DOCKED: ENDBRANCH   3  26
DOCKED: TORSDOF 7
DOCKED: TER
DOCKED: ENDMDL
________________________________________________________________________________


    FINAL DOCKED STATE:
    ________________________


Run:   19 / 20
Time taken for this run:   0.031s

DOCKED: MODEL        19
DOCKED: USER    Run = 19
DOCKED: USER
DOCKED: USER    Estimated Free Energy of Binding    =  -7.45 kcal/mol  [=(1)+(2)+(3)-(4)]
DOCKED: USER
DOCKED: USER    (1) Final Intermolecular Energy     =  -9.54 kcal/mol
DOCKED: USER        vdW + Hbond + desolv Energy     =  -9.46 kcal/mol
DOCKED: USER        Electrostatic Energy            =  -0.08 kcal/mol
DOCKED: USER        Moving Ligand-Fixed Receptor    =  -9.54 kcal/mol
DOCKED: USER        Moving Ligand-Moving Receptor   =  +0.00 kcal/mol
DOCKED: USER    (2) Final Total Internal Energy     =  -3.19 kcal/mol
DOCKED: USER    (3) Torsional Free Energy           =  +2.09 kcal/mol
DOCKED: USER    (4) Unbound System's Energy         =  -3.19 kcal/mol
DOCKED: USER
DOCKED: USER
DOCKED: REMARK SMILES O=C(NCC(=O)N1C[C@H](c2ccccc2)C[C@@H]1CO)c1ccc2ccccc2n1
DOCKED: REMARK SMILES IDX 7 1 8 2 9 3 16 4 17 5 5 6 6 7 4 8 3 9 2 10 1 11 20 13 21 14
DOCKED: REMARK SMILES IDX 29 15 22 16 28 17 23 18 27 19 24 20 26 21 25 22 18 23 19 24
DOCKED: REMARK SMILES IDX 10 26 11 27 15 28 12 29 14 30 13 31
DOCKED: REMARK H PARENT 3 12 19 25
DOCKED: USER                              x       y       z     vdW  Elec       q    Type
DOCKED: USER                           _______ _______ _______ _____ _____    ______ ____
DOCKED: ROOT
DOCKED: ATOM      1  N   UNL     1     139.999  72.525 220.173 -0.02 +0.06    -0.335 N  
DOCKED: ATOM      2  C   UNL     1     141.343  72.030 220.419 -0.13 -0.02    +0.128 C  
DOCKED: ATOM      3  C   UNL     1     142.128  73.169 219.777 -0.16 -0.01    +0.041 C  
DOCKED: ATOM      4  C   UNL     1     141.474  74.366 220.385 -0.23 -0.01    +0.037 C  
DOCKED: ATOM      5  C   UNL     1     140.037  73.924 220.560 -0.14 -0.02    +0.111 C  
DOCKED: ENDROOT
DOCKED: BRANCH   1   6
DOCKED: ATOM      6  C   UNL     1     138.924  71.752 219.661 -0.02 -0.04    +0.242 C  
DOCKED: ATOM      7  O   UNL     1     138.871  71.607 218.412 -0.00 +0.05    -0.273 OA 
DOCKED: BRANCH   6   8
DOCKED: ATOM      8  C   UNL     1     137.905  71.138 220.549 -0.03 -0.04    +0.216 C  
DOCKED: BRANCH   8   9
DOCKED: ATOM      9  N   UNL     1     138.440  71.026 221.889 -0.04 +0.07    -0.342 N  
DOCKED: ATOM     10  C   UNL     1     138.490  69.799 222.597 -0.11 -0.05    +0.270 C  
DOCKED: ATOM     11  O   UNL     1     138.050  68.756 222.042 -0.08 +0.04    -0.268 OA 
DOCKED: ATOM     12  H   UNL     1     138.824  71.871 222.406 +0.03 -0.04    +0.164 HD 
DOCKED: BRANCH  10  13
DOCKED: ATOM     13  C   UNL     1     139.042  69.746 223.951 -0.24 -0.02    +0.128 A  
DOCKED: ATOM     14  C   UNL     1     138.944  68.567 224.671 -0.37 -0.00    +0.035 A  
DOCKED: ATOM     15  N   UNL     1     139.648  70.821 224.515 -0.25 +0.05    -0.243 NA 
DOCKED: ATOM     16  C   UNL     1     139.466  68.497 225.966 -0.52 -0.00    +0.013 A  
DOCKED: ATOM     17  C   UNL     1     140.157  70.759 225.772 -0.49 -0.01    +0.071 A  
DOCKED: ATOM     18  C   UNL     1     140.081  69.604 226.530 -0.53 -0.00    +0.000 A  
DOCKED: ATOM     19  C   UNL     1     140.772  71.889 226.317 -0.61 -0.00    +0.029 A  
DOCKED: ATOM     20  C   UNL     1     140.615  69.595 227.803 -0.61 -0.00    +0.010 A  
DOCKED: ATOM     21  C   UNL     1     141.300  71.849 227.601 -0.79 -0.00    +0.002 A  
DOCKED: ATOM     22  C   UNL     1     141.229  70.708 228.355 -0.52 -0.00    +0.001 A  
DOCKED: ENDBRANCH  10  13
DOCKED: ENDBRANCH   8   9
DOCKED: ENDBRANCH   6   8
DOCKED: ENDBRANCH   1   6
DOCKED: BRANCH   5  23
DOCKED: ATOM     23  C   UNL     1     139.591  74.034 222.002 -0.17 -0.03    +0.181 C  
DOCKED: BRANCH  23  24
DOCKED: ATOM     24  O   UNL     1     140.061  73.037 222.818 -0.59 +0.03    -0.394 OA 
DOCKED: ATOM     25  H   UNL     1     139.425  72.758 223.525 -0.30 -0.08    +0.210 HD 
DOCKED: ENDBRANCH  23  24
DOCKED: ENDBRANCH   5  23
DOCKED: BRANCH   3  26
DOCKED: ATOM     26  C   UNL     1     143.579  73.088 220.042 -0.28 +0.01    -0.043 A  
DOCKED: ATOM     27  C   UNL     1     144.323  71.966 219.737 -0.29 -0.00    +0.004 A  
DOCKED: ATOM     28  C   UNL     1     144.211  74.158 220.607 -0.44 -0.00    +0.004 A  
DOCKED: ATOM     29  C   UNL     1     145.676  71.944 220.007 -0.32 +0.00    +0.000 A  
DOCKED: ATOM     30  C   UNL     1     145.570  74.150 220.883 -0.61 -0.00    +0.000 A  
DOCKED: ATOM     31  C   UNL     1     146.327  73.027 220.581 -0.58 +0.00    +0.000 A  
DOCKED: ENDBRANCH   3  26
DOCKED: TORSDOF 7
DOCKED: TER
DOCKED: ENDMDL
________________________________________________________________________________


    FINAL DOCKED STATE:
    ________________________


Run:   20 / 20
Time taken for this run:   0.031s

DOCKED: MODEL        20
DOCKED: USER    Run = 20
DOCKED: USER
DOCKED: USER    Estimated Free Energy of Binding    =  -8.43 kcal/mol  [=(1)+(2)+(3)-(4)]
DOCKED: USER
DOCKED: USER    (1) Final Intermolecular Energy     = -10.52 kcal/mol
DOCKED: USER        vdW + Hbond + desolv Energy     = -10.45 kcal/mol
DOCKED: USER        Electrostatic Energy            =  -0.07 kcal/mol
DOCKED: USER        Moving Ligand-Fixed Receptor    = -10.52 kcal/mol
DOCKED: USER        Moving Ligand-Moving Receptor   =  +0.00 kcal/mol
DOCKED: USER    (2) Final Total Internal Energy     =  -2.17 kcal/mol
DOCKED: USER    (3) Torsional Free Energy           =  +2.09 kcal/mol
DOCKED: USER    (4) Unbound System's Energy         =  -2.17 kcal/mol
DOCKED: USER
DOCKED: USER
DOCKED: REMARK SMILES O=C(NCC(=O)N1C[C@H](c2ccccc2)C[C@@H]1CO)c1ccc2ccccc2n1
DOCKED: REMARK SMILES IDX 7 1 8 2 9 3 16 4 17 5 5 6 6 7 4 8 3 9 2 10 1 11 20 13 21 14
DOCKED: REMARK SMILES IDX 29 15 22 16 28 17 23 18 27 19 24 20 26 21 25 22 18 23 19 24
DOCKED: REMARK SMILES IDX 10 26 11 27 15 28 12 29 14 30 13 31
DOCKED: REMARK H PARENT 3 12 19 25
DOCKED: USER                              x       y       z     vdW  Elec       q    Type
DOCKED: USER                           _______ _______ _______ _____ _____    ______ ____
DOCKED: ROOT
DOCKED: ATOM      1  N   UNL     1     139.417  76.624 221.339 -0.09 +0.08    -0.335 N  
DOCKED: ATOM      2  C   UNL     1     139.696  77.628 222.351 -0.29 -0.03    +0.128 C  
DOCKED: ATOM      3  C   UNL     1     141.111  78.003 221.919 -0.38 -0.02    +0.041 C  
DOCKED: ATOM      4  C   UNL     1     140.931  78.215 220.452 -0.23 -0.02    +0.037 C  
DOCKED: ATOM      5  C   UNL     1     139.850  77.220 220.087 -0.09 -0.03    +0.111 C  
DOCKED: ENDROOT
DOCKED: BRANCH   1   6
DOCKED: ATOM      6  C   UNL     1     138.843  75.350 221.588 -0.18 -0.05    +0.242 C  
DOCKED: ATOM      7  O   UNL     1     137.699  75.332 222.111 -0.16 +0.07    -0.273 OA 
DOCKED: BRANCH   6   8
DOCKED: ATOM      8  C   UNL     1     139.552  74.089 221.250 -0.17 -0.04    +0.216 C  
DOCKED: BRANCH   8   9
DOCKED: ATOM      9  N   UNL     1     139.427  73.158 222.351 -0.13 +0.07    -0.342 N  
DOCKED: ATOM     10  C   UNL     1     140.395  72.160 222.627 -0.21 -0.03    +0.270 C  
DOCKED: ATOM     11  O   UNL     1     141.411  72.074 221.886 -0.20 +0.02    -0.268 OA 
DOCKED: ATOM     12  H   UNL     1     138.593  73.184 223.008 -0.48 -0.09    +0.164 HD 
DOCKED: BRANCH  10  13
DOCKED: ATOM     13  C   UNL     1     140.216  71.245 223.754 -0.33 -0.02    +0.128 A  
DOCKED: ATOM     14  C   UNL     1     139.539  70.054 223.552 -0.27 -0.01    +0.035 A  
DOCKED: ATOM     15  N   UNL     1     140.698  71.534 224.989 -0.33 +0.03    -0.243 NA 
DOCKED: ATOM     16  C   UNL     1     139.358  69.167 224.618 -0.35 -0.00    +0.013 A  
DOCKED: ATOM     17  C   UNL     1     140.525  70.677 226.028 -0.53 -0.01    +0.071 A  
DOCKED: ATOM     18  C   UNL     1     139.855  69.476 225.874 -0.48 -0.00    +0.000 A  
DOCKED: ATOM     19  C   UNL     1     141.036  71.013 227.284 -0.67 -0.00    +0.029 A  
DOCKED: ATOM     20  C   UNL     1     139.707  68.640 226.963 -0.59 -0.00    +0.010 A  
DOCKED: ATOM     21  C   UNL     1     140.872  70.151 228.362 -0.54 -0.00    +0.002 A  
DOCKED: ATOM     22  C   UNL     1     140.210  68.961 228.214 -0.65 -0.00    +0.001 A  
DOCKED: ENDBRANCH  10  13
DOCKED: ENDBRANCH   8   9
DOCKED: ENDBRANCH   6   8
DOCKED: ENDBRANCH   1   6
DOCKED: BRANCH   5  23
DOCKED: ATOM     23  C   UNL     1     138.661  77.900 219.444 -0.02 -0.05    +0.181 C  
DOCKED: BRANCH  23  24
DOCKED: ATOM     24  O   UNL     1     137.484  77.758 220.136 -0.00 +0.08    -0.394 OA 
DOCKED: ATOM     25  H   UNL     1     137.421  76.921 220.662 +0.03 -0.04    +0.210 HD 
DOCKED: ENDBRANCH  23  24
DOCKED: ENDBRANCH   5  23
DOCKED: BRANCH   3  26
DOCKED: ATOM     26  C   UNL     1     141.635  79.187 222.629 -0.49 +0.02    -0.043 A  
DOCKED: ATOM     27  C   UNL     1     142.986  79.394 222.819 -0.51 -0.00    +0.004 A  
DOCKED: ATOM     28  C   UNL     1     140.756  80.111 223.116 -0.46 -0.00    +0.004 A  
DOCKED: ATOM     29  C   UNL     1     143.421  80.519 223.491 -0.63 -0.00    +0.000 A  
DOCKED: ATOM     30  C   UNL     1     141.179  81.246 223.792 -0.46 -0.00    +0.000 A  
DOCKED: ATOM     31  C   UNL     1     142.535  81.464 223.989 -0.58 -0.00    +0.000 A  
DOCKED: ENDBRANCH   3  26
DOCKED: TORSDOF 7
DOCKED: TER
DOCKED: ENDMDL
________________________________________________________________________________


    CLUSTERING HISTOGRAM
    ____________________


________________________________________________________________________________
     |           |     |           |     |
Clus | Lowest    | Run | Mean      | Num | Histogram
-ter | Binding   |     | Binding   | in  |
Rank | Energy    |     | Energy    | Clus|    5    10   15   20   25   30   35
_____|___________|_____|___________|_____|____:____|____:____|____:____|____:___
   1 |     -8.78 |   6 |     -8.49 |   4 |####
   2 |     -8.47 |  17 |     -8.17 |   7 |#######
   3 |     -7.91 |   8 |     -7.81 |   5 |#####
   4 |     -7.48 |  15 |     -7.36 |   3 |###
   5 |     -7.17 |   1 |     -7.17 |   1 |#
_____|___________|_____|___________|_____|______________________________________


    RMSD TABLE
    __________


_______________________________________________________________________
     |      |      |           |         |                 |
Rank | Sub- | Run  | Binding   | Cluster | Reference       | Grep
     | Rank |      | Energy    | RMSD    | RMSD            | Pattern
_____|______|______|___________|_________|_________________|___________
   1      1      6       -8.78      0.00    271.11           RANKING
   1      2     13       -8.76      0.07    271.14           RANKING
   1      3     12       -8.27      0.89    271.10           RANKING
   1      4      2       -8.15      0.88    271.03           RANKING
   2      1     17       -8.47      0.00    270.95           RANKING
   2      2      7       -8.45      0.82    270.81           RANKING
   2      3     20       -8.43      1.14    270.91           RANKING
   2      4      9       -8.40      1.16    270.90           RANKING
   2      5     10       -7.86      1.48    270.62           RANKING
   2      6      3       -7.80      1.55    270.56           RANKING
   2      7     11       -7.78      1.58    270.51           RANKING
   3      1      8       -7.91      0.00    269.83           RANKING
   3      2     18       -7.91      0.13    269.80           RANKING
   3      3      5       -7.79      0.26    269.73           RANKING
   3      4     14       -7.75      0.31    269.76           RANKING
   3      5      4       -7.70      0.33    269.78           RANKING
   4      1     15       -7.48      0.00    270.09           RANKING
   4      2     19       -7.45      0.84    269.83           RANKING
   4      3     16       -7.16      1.32    269.55           RANKING
   5      1      1       -7.17      0.00    270.03           RANKING

Run time 0.550 sec
Idle time 0.000 sec
