AutoDock-GPU version: v1.6

**********************************************************
**    AutoDock-GPU AUTODOCKTOOLS-COMPATIBLE DLG FILE    **
**********************************************************


    DOCKING PARAMETERS
    ________________________


Ligand file:                               /home/a/REINVENT4/ReinventStudies/pleaseWork/justmol2mol_4_Compounds_ontop/graph-dock/graph-DockGPU/node-autodockgpu/inputs/TUFAPWAXIHJPMI-VICYGNOKNA-N.pdbqt
Grid fld file:                             /home/a/REINVENT4/ReinventStudies/mols/Rad51/maps/rad51_receptor.maps.fld

Random seed:                               42
Number of runs:                            20
Number of energy evaluations:              1259779
Number of generations:                     42000
Size of population:                        150
Rate of crossover:                         80.000000%
Tournament selection probability limit:    60.000000%
Rate of mutation:                          2.000000%
Maximal allowed delta movement:            +/- 6.000000A
Maximal allowed delta angle:               +/- 90.000000

Rate of local search:                      100.000000%
Maximal number of local search iterations: 300
Rho lower bound:                           0.010000
Spread of local search delta movement:     2.000000A
Spread of local search delta angle:        74.999999
Limit of consecutive successes/failures:   4

Handle symmetry during clustering:         YES
RMSD tolerance:                            2.000000A

Program call in command line was:          /home/a/REINVENT4/ReinventStudies/adgpu-v1.6_linux_x64_cuda12_128wi --filelist batch.txt --heuristics 1 --nrun 20 --psize 150 --lsit 300 --seed 42 --heurmax 12000000 


    GRID PARAMETERS
    ________________________


Receptor name:                             rad51_receptor
Number of grid points (x, y, z):           53, 53, 53
Grid center (x, y, z):                     139.950000, 75.640000, 221.970000A
Grid size (x, y, z):                       19.500000, 19.500000, 19.500000A
Grid spacing:                              0.375000A


    LIGAND PARAMETERS
    ________________________


Ligand name:                               /home/a/REINVENT4/ReinventStudies/pleaseWork/justmol2mol_4_Compounds_ontop/graph-dock/graph-DockGPU/node-autodockgpu/inputs/TUFAPWAXIHJPMI-VICYGNOKNA-N
Number of atoms:                           27
Number of rotatable bonds:                 7
Number of atom types:                      6


    DUMMY DATA (only for ADT-compatibility)
    ________________________


DPF> outlev 1
DPF> ga_run 20
DPF> fld /home/a/REINVENT4/ReinventStudies/mols/Rad51/maps/rad51_receptor.maps.fld
DPF> move /home/a/REINVENT4/ReinventStudies/pleaseWork/justmol2mol_4_Compounds_ontop/graph-dock/graph-DockGPU/node-autodockgpu/inputs/TUFAPWAXIHJPMI-VICYGNOKNA-N.pdbqt


    COUNTER STATES
    ________________________


Number of energy evaluations performed:    883597
Number of generations used:                50


    INPUT LIGAND PDBQT FILE:
    ________________________


INPUT-LIGAND-PDBQT: REMARK SMILES O=C(NCC(=O)N1C[C@H](O)C[C@H]1CO)c1ccc2ccccc2n1
INPUT-LIGAND-PDBQT: REMARK SMILES IDX 7 1 8 2 9 3 11 4 12 5 5 6 6 7 4 8 3 9 2 10 1 11 15 13 16 14
INPUT-LIGAND-PDBQT: REMARK SMILES IDX 24 15 17 16 23 17 18 18 22 19 19 20 21 21 20 22 13 23 14 24
INPUT-LIGAND-PDBQT: REMARK SMILES IDX 10 26
INPUT-LIGAND-PDBQT: REMARK H PARENT 3 12 14 25 10 27
INPUT-LIGAND-PDBQT: ROOT
INPUT-LIGAND-PDBQT: ATOM      1  N   UNL     1      -3.185   0.230  -0.324  1.00  0.00    -0.333 N 
INPUT-LIGAND-PDBQT: ATOM      2  C   UNL     1      -3.977  -0.947  -0.012  1.00  0.00     0.151 C 
INPUT-LIGAND-PDBQT: ATOM      3  C   UNL     1      -5.285  -0.342   0.452  1.00  0.00     0.136 C 
INPUT-LIGAND-PDBQT: ATOM      4  C   UNL     1      -5.461   0.781  -0.545  1.00  0.00     0.061 C 
INPUT-LIGAND-PDBQT: ATOM      5  C   UNL     1      -4.073   1.338  -0.691  1.00  0.00     0.113 C 
INPUT-LIGAND-PDBQT: ENDROOT
INPUT-LIGAND-PDBQT: BRANCH   1   6
INPUT-LIGAND-PDBQT: ATOM      6  C   UNL     1      -1.770   0.369  -0.303  1.00  0.00     0.242 C 
INPUT-LIGAND-PDBQT: ATOM      7  O   UNL     1      -1.172   1.438  -0.592  1.00  0.00    -0.273 OA
INPUT-LIGAND-PDBQT: BRANCH   6   8
INPUT-LIGAND-PDBQT: ATOM      8  C   UNL     1      -0.962  -0.828   0.086  1.00  0.00     0.216 C 
INPUT-LIGAND-PDBQT: BRANCH   8   9
INPUT-LIGAND-PDBQT: ATOM      9  N   UNL     1       0.443  -0.564   0.070  1.00  0.00    -0.342 N 
INPUT-LIGAND-PDBQT: ATOM     10  C   UNL     1       1.360  -1.586   0.413  1.00  0.00     0.270 C 
INPUT-LIGAND-PDBQT: ATOM     11  O   UNL     1       0.915  -2.737   0.733  1.00  0.00    -0.268 OA
INPUT-LIGAND-PDBQT: ATOM     12  H   UNL     1       0.764   0.393  -0.198  1.00  0.00     0.164 HD
INPUT-LIGAND-PDBQT: BRANCH  10  13
INPUT-LIGAND-PDBQT: ATOM     13  C   UNL     1       2.802  -1.333   0.402  1.00  0.00     0.128 A 
INPUT-LIGAND-PDBQT: ATOM     14  C   UNL     1       3.668  -2.355   0.742  1.00  0.00     0.035 A 
INPUT-LIGAND-PDBQT: ATOM     15  N   UNL     1       3.251  -0.124   0.064  1.00  0.00    -0.243 NA
INPUT-LIGAND-PDBQT: ATOM     16  C   UNL     1       5.034  -2.139   0.739  1.00  0.00     0.013 A 
INPUT-LIGAND-PDBQT: ATOM     17  C   UNL     1       4.579   0.089   0.060  1.00  0.00     0.071 A 
INPUT-LIGAND-PDBQT: ATOM     18  C   UNL     1       5.501  -0.883   0.388  1.00  0.00     0.000 A 
INPUT-LIGAND-PDBQT: ATOM     19  C   UNL     1       5.043   1.358  -0.294  1.00  0.00     0.029 A 
INPUT-LIGAND-PDBQT: ATOM     20  C   UNL     1       6.866  -0.664   0.384  1.00  0.00     0.010 A 
INPUT-LIGAND-PDBQT: ATOM     21  C   UNL     1       6.412   1.582  -0.300  1.00  0.00     0.002 A 
INPUT-LIGAND-PDBQT: ATOM     22  C   UNL     1       7.316   0.592   0.033  1.00  0.00     0.001 A 
INPUT-LIGAND-PDBQT: ENDBRANCH  10  13
INPUT-LIGAND-PDBQT: ENDBRANCH   8   9
INPUT-LIGAND-PDBQT: ENDBRANCH   6   8
INPUT-LIGAND-PDBQT: ENDBRANCH   1   6
INPUT-LIGAND-PDBQT: BRANCH   5  23
INPUT-LIGAND-PDBQT: ATOM     23  C   UNL     1      -3.939   2.454   0.340  1.00  0.00     0.181 C 
INPUT-LIGAND-PDBQT: BRANCH  23  24
INPUT-LIGAND-PDBQT: ATOM     24  O   UNL     1      -4.798   3.472  -0.054  1.00  0.00    -0.394 OA
INPUT-LIGAND-PDBQT: ATOM     25  H   UNL     1      -4.870   3.586  -1.030  1.00  0.00     0.210 HD
INPUT-LIGAND-PDBQT: ENDBRANCH  23  24
INPUT-LIGAND-PDBQT: ENDBRANCH   5  23
INPUT-LIGAND-PDBQT: BRANCH   3  26
INPUT-LIGAND-PDBQT: ATOM     26  O   UNL     1      -6.278  -1.309   0.317  1.00  0.00    -0.391 OA
INPUT-LIGAND-PDBQT: ATOM     27  H   UNL     1      -5.889  -2.144   0.715  1.00  0.00     0.211 HD
INPUT-LIGAND-PDBQT: ENDBRANCH   3  26
INPUT-LIGAND-PDBQT: TORSDOF 7


    FINAL DOCKED STATE:
    ________________________


Run:   1 / 20
Time taken for this run:   0.037s

DOCKED: MODEL        1
DOCKED: USER    Run = 1
DOCKED: USER
DOCKED: USER    Estimated Free Energy of Binding    =  -7.00 kcal/mol  [=(1)+(2)+(3)-(4)]
DOCKED: USER
DOCKED: USER    (1) Final Intermolecular Energy     =  -9.08 kcal/mol
DOCKED: USER        vdW + Hbond + desolv Energy     =  -8.69 kcal/mol
DOCKED: USER        Electrostatic Energy            =  -0.39 kcal/mol
DOCKED: USER        Moving Ligand-Fixed Receptor    =  -9.08 kcal/mol
DOCKED: USER        Moving Ligand-Moving Receptor   =  +0.00 kcal/mol
DOCKED: USER    (2) Final Total Internal Energy     =  -2.60 kcal/mol
DOCKED: USER    (3) Torsional Free Energy           =  +2.09 kcal/mol
DOCKED: USER    (4) Unbound System's Energy         =  -2.60 kcal/mol
DOCKED: USER
DOCKED: USER
DOCKED: REMARK SMILES O=C(NCC(=O)N1C[C@H](O)C[C@H]1CO)c1ccc2ccccc2n1
DOCKED: REMARK SMILES IDX 7 1 8 2 9 3 11 4 12 5 5 6 6 7 4 8 3 9 2 10 1 11 15 13 16 14
DOCKED: REMARK SMILES IDX 24 15 17 16 23 17 18 18 22 19 19 20 21 21 20 22 13 23 14 24
DOCKED: REMARK SMILES IDX 10 26
DOCKED: REMARK H PARENT 3 12 14 25 10 27
DOCKED: USER                              x       y       z     vdW  Elec       q    Type
DOCKED: USER                           _______ _______ _______ _____ _____    ______ ____
DOCKED: ROOT
DOCKED: ATOM      1  N   UNL     1     143.069  73.275 220.174 -0.10 +0.07    -0.333 N  
DOCKED: ATOM      2  C   UNL     1     143.988  72.191 219.871 -0.22 -0.01    +0.151 C  
DOCKED: ATOM      3  C   UNL     1     145.252  72.935 219.496 -0.33 +0.02    +0.136 C  
DOCKED: ATOM      4  C   UNL     1     145.266  74.035 220.534 -0.52 -0.02    +0.061 C  
DOCKED: ATOM      5  C   UNL     1     143.824  74.450 220.621 -0.23 -0.04    +0.113 C  
DOCKED: ENDROOT
DOCKED: BRANCH   1   6
DOCKED: ATOM      6  C   UNL     1     141.650  73.277 220.081 -0.11 -0.05    +0.242 C  
DOCKED: ATOM      7  O   UNL     1     141.023  73.012 219.023 -0.02 +0.05    -0.273 OA 
DOCKED: BRANCH   6   8
DOCKED: ATOM      8  C   UNL     1     140.876  73.615 221.315 -0.20 -0.03    +0.216 C  
DOCKED: BRANCH   8   9
DOCKED: ATOM      9  N   UNL     1     141.098  74.960 221.746 -0.16 +0.06    -0.342 N  
DOCKED: ATOM     10  C   UNL     1     140.000  75.829 221.950 -0.24 -0.05    +0.270 C  
DOCKED: ATOM     11  O   UNL     1     138.819  75.394 221.747 -0.20 +0.06    -0.268 OA 
DOCKED: ATOM     12  H   UNL     1     142.082  75.274 221.900 -0.38 -0.07    +0.164 HD 
DOCKED: BRANCH  10  13
DOCKED: ATOM     13  C   UNL     1     140.209  77.209 222.391 -0.33 -0.03    +0.128 A  
DOCKED: ATOM     14  C   UNL     1     139.112  77.999 222.676 -0.30 -0.01    +0.035 A  
DOCKED: ATOM     15  N   UNL     1     141.452  77.676 222.509 -0.21 +0.12    -0.243 NA 
DOCKED: ATOM     16  C   UNL     1     139.285  79.306 223.094 -0.35 -0.00    +0.013 A  
DOCKED: ATOM     17  C   UNL     1     141.624  78.947 222.915 -0.50 -0.03    +0.071 A  
DOCKED: ATOM     18  C   UNL     1     140.577  79.792 223.216 -0.46 -0.00    +0.000 A  
DOCKED: ATOM     19  C   UNL     1     142.929  79.430 223.036 -0.52 -0.01    +0.029 A  
DOCKED: ATOM     20  C   UNL     1     140.753  81.098 223.633 -0.40 -0.00    +0.010 A  
DOCKED: ATOM     21  C   UNL     1     143.111  80.740 223.455 -0.60 -0.00    +0.002 A  
DOCKED: ATOM     22  C   UNL     1     142.045  81.568 223.750 -0.56 -0.00    +0.001 A  
DOCKED: ENDBRANCH  10  13
DOCKED: ENDBRANCH   8   9
DOCKED: ENDBRANCH   6   8
DOCKED: ENDBRANCH   1   6
DOCKED: BRANCH   5  23
DOCKED: ATOM     23  C   UNL     1     143.634  75.583 219.618 -0.30 -0.10    +0.181 C  
DOCKED: BRANCH  23  24
DOCKED: ATOM     24  O   UNL     1     142.591  76.368 220.091 -0.18 +0.25    -0.394 OA 
DOCKED: ATOM     25  H   UNL     1     142.683  76.639 221.033 -0.40 -0.21    +0.210 HD 
DOCKED: ENDBRANCH  23  24
DOCKED: ENDBRANCH   5  23
DOCKED: BRANCH   3  26
DOCKED: ATOM     26  O   UNL     1     146.327  72.064 219.656 -0.49 -0.37    -0.391 OA 
DOCKED: ATOM     27  H   UNL     1     146.128  71.551 220.495 -0.38 +0.02    +0.211 HD 
DOCKED: ENDBRANCH   3  26
DOCKED: TORSDOF 7
DOCKED: TER
DOCKED: ENDMDL
________________________________________________________________________________


    FINAL DOCKED STATE:
    ________________________


Run:   2 / 20
Time taken for this run:   0.037s

DOCKED: MODEL        2
DOCKED: USER    Run = 2
DOCKED: USER
DOCKED: USER    Estimated Free Energy of Binding    =  -6.23 kcal/mol  [=(1)+(2)+(3)-(4)]
DOCKED: USER
DOCKED: USER    (1) Final Intermolecular Energy     =  -8.32 kcal/mol
DOCKED: USER        vdW + Hbond + desolv Energy     =  -8.03 kcal/mol
DOCKED: USER        Electrostatic Energy            =  -0.29 kcal/mol
DOCKED: USER        Moving Ligand-Fixed Receptor    =  -8.32 kcal/mol
DOCKED: USER        Moving Ligand-Moving Receptor   =  +0.00 kcal/mol
DOCKED: USER    (2) Final Total Internal Energy     =  -2.23 kcal/mol
DOCKED: USER    (3) Torsional Free Energy           =  +2.09 kcal/mol
DOCKED: USER    (4) Unbound System's Energy         =  -2.23 kcal/mol
DOCKED: USER
DOCKED: USER
DOCKED: REMARK SMILES O=C(NCC(=O)N1C[C@H](O)C[C@H]1CO)c1ccc2ccccc2n1
DOCKED: REMARK SMILES IDX 7 1 8 2 9 3 11 4 12 5 5 6 6 7 4 8 3 9 2 10 1 11 15 13 16 14
DOCKED: REMARK SMILES IDX 24 15 17 16 23 17 18 18 22 19 19 20 21 21 20 22 13 23 14 24
DOCKED: REMARK SMILES IDX 10 26
DOCKED: REMARK H PARENT 3 12 14 25 10 27
DOCKED: USER                              x       y       z     vdW  Elec       q    Type
DOCKED: USER                           _______ _______ _______ _____ _____    ______ ____
DOCKED: ROOT
DOCKED: ATOM      1  N   UNL     1     143.080  72.213 218.948 -0.01 +0.04    -0.333 N  
DOCKED: ATOM      2  C   UNL     1     144.069  73.260 219.140 -0.19 -0.02    +0.151 C  
DOCKED: ATOM      3  C   UNL     1     145.288  72.475 219.578 -0.31 +0.03    +0.136 C  
DOCKED: ATOM      4  C   UNL     1     145.220  71.283 218.650 -0.23 +0.03    +0.061 C  
DOCKED: ATOM      5  C   UNL     1     143.754  70.955 218.612 -0.10 -0.00    +0.113 C  
DOCKED: ENDROOT
DOCKED: BRANCH   1   6
DOCKED: ATOM      6  C   UNL     1     141.665  72.311 219.049 -0.03 -0.04    +0.242 C  
DOCKED: ATOM      7  O   UNL     1     140.874  71.888 218.166 -0.01 +0.05    -0.273 OA 
DOCKED: BRANCH   6   8
DOCKED: ATOM      8  C   UNL     1     141.100  72.952 220.276 -0.11 -0.04    +0.216 C  
DOCKED: BRANCH   8   9
DOCKED: ATOM      9  N   UNL     1     140.986  72.034 221.366 -0.10 +0.04    -0.342 N  
DOCKED: ATOM     10  C   UNL     1     140.384  72.445 222.579 -0.19 -0.02    +0.270 C  
DOCKED: ATOM     11  O   UNL     1     139.948  73.638 222.682 -0.75 +0.00    -0.268 OA 
DOCKED: ATOM     12  H   UNL     1     141.356  71.065 221.238 +0.05 -0.02    +0.164 HD 
DOCKED: BRANCH  10  13
DOCKED: ATOM     13  C   UNL     1     140.258  71.517 223.704 -0.34 -0.02    +0.128 A  
DOCKED: ATOM     14  C   UNL     1     139.667  70.285 223.499 -0.27 -0.01    +0.035 A  
DOCKED: ATOM     15  N   UNL     1     140.716  71.879 224.903 -0.28 +0.03    -0.243 NA 
DOCKED: ATOM     16  C   UNL     1     139.537  69.393 224.548 -0.34 -0.00    +0.013 A  
DOCKED: ATOM     17  C   UNL     1     140.591  71.013 225.925 -0.55 -0.01    +0.071 A  
DOCKED: ATOM     18  C   UNL     1     140.013  69.768 225.794 -0.48 -0.00    +0.000 A  
DOCKED: ATOM     19  C   UNL     1     141.072  71.398 227.179 -0.72 -0.00    +0.029 A  
DOCKED: ATOM     20  C   UNL     1     139.885  68.878 226.844 -0.58 -0.00    +0.010 A  
DOCKED: ATOM     21  C   UNL     1     140.946  70.508 228.236 -0.60 -0.00    +0.002 A  
DOCKED: ATOM     22  C   UNL     1     140.362  69.266 228.079 -0.64 -0.00    +0.001 A  
DOCKED: ENDBRANCH  10  13
DOCKED: ENDBRANCH   8   9
DOCKED: ENDBRANCH   6   8
DOCKED: ENDBRANCH   1   6
DOCKED: BRANCH   5  23
DOCKED: ATOM     23  C   UNL     1     143.504  69.937 219.720 -0.14 -0.01    +0.181 C  
DOCKED: BRANCH  23  24
DOCKED: ATOM     24  O   UNL     1     142.136  69.695 219.745 -0.06 +0.05    -0.394 OA 
DOCKED: ATOM     25  H   UNL     1     141.652  70.027 218.953 +0.04 -0.03    +0.210 HD 
DOCKED: ENDBRANCH  23  24
DOCKED: ENDBRANCH   5  23
DOCKED: BRANCH   3  26
DOCKED: ATOM     26  O   UNL     1     146.413  73.256 219.329 -0.66 -0.28    -0.391 OA 
DOCKED: ATOM     27  H   UNL     1     146.061  74.177 219.146 -0.44 -0.05    +0.211 HD 
DOCKED: ENDBRANCH   3  26
DOCKED: TORSDOF 7
DOCKED: TER
DOCKED: ENDMDL
________________________________________________________________________________


    FINAL DOCKED STATE:
    ________________________


Run:   3 / 20
Time taken for this run:   0.037s

DOCKED: MODEL        3
DOCKED: USER    Run = 3
DOCKED: USER
DOCKED: USER    Estimated Free Energy of Binding    =  -6.40 kcal/mol  [=(1)+(2)+(3)-(4)]
DOCKED: USER
DOCKED: USER    (1) Final Intermolecular Energy     =  -8.49 kcal/mol
DOCKED: USER        vdW + Hbond + desolv Energy     =  -8.33 kcal/mol
DOCKED: USER        Electrostatic Energy            =  -0.16 kcal/mol
DOCKED: USER        Moving Ligand-Fixed Receptor    =  -8.49 kcal/mol
DOCKED: USER        Moving Ligand-Moving Receptor   =  +0.00 kcal/mol
DOCKED: USER    (2) Final Total Internal Energy     =  -1.83 kcal/mol
DOCKED: USER    (3) Torsional Free Energy           =  +2.09 kcal/mol
DOCKED: USER    (4) Unbound System's Energy         =  -1.83 kcal/mol
DOCKED: USER
DOCKED: USER
DOCKED: REMARK SMILES O=C(NCC(=O)N1C[C@H](O)C[C@H]1CO)c1ccc2ccccc2n1
DOCKED: REMARK SMILES IDX 7 1 8 2 9 3 11 4 12 5 5 6 6 7 4 8 3 9 2 10 1 11 15 13 16 14
DOCKED: REMARK SMILES IDX 24 15 17 16 23 17 18 18 22 19 19 20 21 21 20 22 13 23 14 24
DOCKED: REMARK SMILES IDX 10 26
DOCKED: REMARK H PARENT 3 12 14 25 10 27
DOCKED: USER                              x       y       z     vdW  Elec       q    Type
DOCKED: USER                           _______ _______ _______ _____ _____    ______ ____
DOCKED: ROOT
DOCKED: ATOM      1  N   UNL     1     139.958  70.337 225.577 -0.21 +0.05    -0.333 N  
DOCKED: ATOM      2  C   UNL     1     140.301  71.516 226.353 -0.43 -0.03    +0.151 C  
DOCKED: ATOM      3  C   UNL     1     140.584  70.931 227.720 -0.60 -0.02    +0.136 C  
DOCKED: ATOM      4  C   UNL     1     141.354  69.682 227.353 -0.30 -0.01    +0.061 C  
DOCKED: ATOM      5  C   UNL     1     140.618  69.160 226.151 -0.46 -0.02    +0.113 C  
DOCKED: ENDROOT
DOCKED: BRANCH   1   6
DOCKED: ATOM      6  C   UNL     1     139.124  70.252 224.429 -0.24 -0.04    +0.242 C  
DOCKED: ATOM      7  O   UNL     1     137.900  69.963 224.478 -0.17 +0.04    -0.273 OA 
DOCKED: BRANCH   6   8
DOCKED: ATOM      8  C   UNL     1     139.748  70.524 223.097 -0.16 -0.04    +0.216 C  
DOCKED: BRANCH   8   9
DOCKED: ATOM      9  N   UNL     1     139.929  71.922 222.857 -0.18 +0.06    -0.342 N  
DOCKED: ATOM     10  C   UNL     1     140.828  72.358 221.855 -0.18 -0.03    +0.270 C  
DOCKED: ATOM     11  O   UNL     1     141.469  71.490 221.175 -0.13 +0.03    -0.268 OA 
DOCKED: ATOM     12  H   UNL     1     139.385  72.599 223.437 -0.29 -0.06    +0.164 HD 
DOCKED: BRANCH  10  13
DOCKED: ATOM     13  C   UNL     1     141.026  73.785 221.595 -0.25 -0.01    +0.128 A  
DOCKED: ATOM     14  C   UNL     1     142.006  74.179 220.703 -0.27 -0.01    +0.035 A  
DOCKED: ATOM     15  N   UNL     1     140.258  74.676 222.223 -0.66 +0.00    -0.243 NA 
DOCKED: ATOM     16  C   UNL     1     142.210  75.521 220.443 -0.29 -0.01    +0.013 A  
DOCKED: ATOM     17  C   UNL     1     140.455  75.983 221.972 -0.35 -0.02    +0.071 A  
DOCKED: ATOM     18  C   UNL     1     141.413  76.447 221.095 -0.29 -0.00    +0.000 A  
DOCKED: ATOM     19  C   UNL     1     139.648  76.911 222.633 -0.27 -0.01    +0.029 A  
DOCKED: ATOM     20  C   UNL     1     141.615  77.790 220.837 -0.32 -0.01    +0.010 A  
DOCKED: ATOM     21  C   UNL     1     139.847  78.260 222.376 -0.34 -0.00    +0.002 A  
DOCKED: ATOM     22  C   UNL     1     140.814  78.701 221.494 -0.31 -0.00    +0.001 A  
DOCKED: ENDBRANCH  10  13
DOCKED: ENDBRANCH   8   9
DOCKED: ENDBRANCH   6   8
DOCKED: ENDBRANCH   1   6
DOCKED: BRANCH   5  23
DOCKED: ATOM     23  C   UNL     1     139.560  68.193 226.673 -0.47 -0.03    +0.181 C  
DOCKED: BRANCH  23  24
DOCKED: ATOM     24  O   UNL     1     139.120  67.452 225.584 -0.81 -0.02    -0.394 OA 
DOCKED: ATOM     25  H   UNL     1     138.591  67.966 224.931 +0.10 +0.02    +0.210 HD 
DOCKED: ENDBRANCH  23  24
DOCKED: ENDBRANCH   5  23
DOCKED: BRANCH   3  26
DOCKED: ATOM     26  O   UNL     1     141.379  71.836 228.420 -0.44 +0.09    -0.391 OA 
DOCKED: ATOM     27  H   UNL     1     140.753  72.565 228.712 -0.00 -0.09    +0.211 HD 
DOCKED: ENDBRANCH   3  26
DOCKED: TORSDOF 7
DOCKED: TER
DOCKED: ENDMDL
________________________________________________________________________________


    FINAL DOCKED STATE:
    ________________________


Run:   4 / 20
Time taken for this run:   0.037s

DOCKED: MODEL        4
DOCKED: USER    Run = 4
DOCKED: USER
DOCKED: USER    Estimated Free Energy of Binding    =  -6.66 kcal/mol  [=(1)+(2)+(3)-(4)]
DOCKED: USER
DOCKED: USER    (1) Final Intermolecular Energy     =  -8.75 kcal/mol
DOCKED: USER        vdW + Hbond + desolv Energy     =  -8.67 kcal/mol
DOCKED: USER        Electrostatic Energy            =  -0.08 kcal/mol
DOCKED: USER        Moving Ligand-Fixed Receptor    =  -8.75 kcal/mol
DOCKED: USER        Moving Ligand-Moving Receptor   =  +0.00 kcal/mol
DOCKED: USER    (2) Final Total Internal Energy     =  -1.80 kcal/mol
DOCKED: USER    (3) Torsional Free Energy           =  +2.09 kcal/mol
DOCKED: USER    (4) Unbound System's Energy         =  -1.80 kcal/mol
DOCKED: USER
DOCKED: USER
DOCKED: REMARK SMILES O=C(NCC(=O)N1C[C@H](O)C[C@H]1CO)c1ccc2ccccc2n1
DOCKED: REMARK SMILES IDX 7 1 8 2 9 3 11 4 12 5 5 6 6 7 4 8 3 9 2 10 1 11 15 13 16 14
DOCKED: REMARK SMILES IDX 24 15 17 16 23 17 18 18 22 19 19 20 21 21 20 22 13 23 14 24
DOCKED: REMARK SMILES IDX 10 26
DOCKED: REMARK H PARENT 3 12 14 25 10 27
DOCKED: USER                              x       y       z     vdW  Elec       q    Type
DOCKED: USER                           _______ _______ _______ _____ _____    ______ ____
DOCKED: ROOT
DOCKED: ATOM      1  N   UNL     1     141.581  75.999 219.960 -0.09 +0.14    -0.333 N  
DOCKED: ATOM      2  C   UNL     1     141.662  77.397 219.575 -0.21 -0.08    +0.151 C  
DOCKED: ATOM      3  C   UNL     1     142.851  77.405 218.638 -0.26 -0.10    +0.136 C  
DOCKED: ATOM      4  C   UNL     1     142.617  76.134 217.853 -0.20 -0.03    +0.061 C  
DOCKED: ATOM      5  C   UNL     1     142.146  75.162 218.897 -0.14 -0.04    +0.113 C  
DOCKED: ENDROOT
DOCKED: BRANCH   1   6
DOCKED: ATOM      6  C   UNL     1     141.052  75.445 221.158 -0.22 -0.07    +0.242 C  
DOCKED: ATOM      7  O   UNL     1     141.358  75.855 222.308 -0.30 +0.09    -0.273 OA 
DOCKED: BRANCH   6   8
DOCKED: ATOM      8  C   UNL     1     140.080  74.316 221.030 -0.17 -0.04    +0.216 C  
DOCKED: BRANCH   8   9
DOCKED: ATOM      9  N   UNL     1     139.945  73.574 222.244 -0.13 +0.03    -0.342 N  
DOCKED: ATOM     10  C   UNL     1     140.315  72.208 222.285 -0.21 -0.03    +0.270 C  
DOCKED: ATOM     11  O   UNL     1     140.768  71.656 221.229 -0.12 +0.04    -0.268 OA 
DOCKED: ATOM     12  H   UNL     1     139.570  74.065 223.086 -0.52 -0.02    +0.164 HD 
DOCKED: BRANCH  10  13
DOCKED: ATOM     13  C   UNL     1     140.183  71.433 223.520 -0.32 -0.02    +0.128 A  
DOCKED: ATOM     14  C   UNL     1     139.534  70.214 223.484 -0.27 -0.01    +0.035 A  
DOCKED: ATOM     15  N   UNL     1     140.692  71.918 224.653 -0.24 +0.03    -0.243 NA 
DOCKED: ATOM     16  C   UNL     1     139.398  69.464 224.639 -0.36 -0.00    +0.013 A  
DOCKED: ATOM     17  C   UNL     1     140.561  71.191 225.777 -0.54 -0.01    +0.071 A  
DOCKED: ATOM     18  C   UNL     1     139.926  69.967 225.816 -0.48 -0.00    +0.000 A  
DOCKED: ATOM     19  C   UNL     1     141.096  71.704 226.961 -0.74 -0.00    +0.029 A  
DOCKED: ATOM     20  C   UNL     1     139.791  69.221 226.972 -0.56 -0.00    +0.010 A  
DOCKED: ATOM     21  C   UNL     1     140.963  70.958 228.123 -0.69 -0.00    +0.002 A  
DOCKED: ATOM     22  C   UNL     1     140.322  69.735 228.137 -0.62 -0.00    +0.001 A  
DOCKED: ENDBRANCH  10  13
DOCKED: ENDBRANCH   8   9
DOCKED: ENDBRANCH   6   8
DOCKED: ENDBRANCH   1   6
DOCKED: BRANCH   5  23
DOCKED: ATOM     23  C   UNL     1     143.388  74.449 219.422 -0.23 -0.06    +0.181 C  
DOCKED: BRANCH  23  24
DOCKED: ATOM     24  O   UNL     1     143.879  75.215 220.472 -0.21 +0.23    -0.394 OA 
DOCKED: ATOM     25  H   UNL     1     143.215  75.413 221.173 -0.29 -0.16    +0.210 HD 
DOCKED: ENDBRANCH  23  24
DOCKED: ENDBRANCH   5  23
DOCKED: BRANCH   3  26
DOCKED: ATOM     26  O   UNL     1     142.753  78.534 217.829 -0.20 +0.36    -0.391 OA 
DOCKED: ATOM     27  H   UNL     1     143.675  78.674 217.458 -0.36 -0.32    +0.211 HD 
DOCKED: ENDBRANCH   3  26
DOCKED: TORSDOF 7
DOCKED: TER
DOCKED: ENDMDL
________________________________________________________________________________


    FINAL DOCKED STATE:
    ________________________


Run:   5 / 20
Time taken for this run:   0.037s

DOCKED: MODEL        5
DOCKED: USER    Run = 5
DOCKED: USER
DOCKED: USER    Estimated Free Energy of Binding    =  -6.02 kcal/mol  [=(1)+(2)+(3)-(4)]
DOCKED: USER
DOCKED: USER    (1) Final Intermolecular Energy     =  -8.11 kcal/mol
DOCKED: USER        vdW + Hbond + desolv Energy     =  -7.92 kcal/mol
DOCKED: USER        Electrostatic Energy            =  -0.18 kcal/mol
DOCKED: USER        Moving Ligand-Fixed Receptor    =  -8.11 kcal/mol
DOCKED: USER        Moving Ligand-Moving Receptor   =  +0.00 kcal/mol
DOCKED: USER    (2) Final Total Internal Energy     =  -2.20 kcal/mol
DOCKED: USER    (3) Torsional Free Energy           =  +2.09 kcal/mol
DOCKED: USER    (4) Unbound System's Energy         =  -2.20 kcal/mol
DOCKED: USER
DOCKED: USER
DOCKED: REMARK SMILES O=C(NCC(=O)N1C[C@H](O)C[C@H]1CO)c1ccc2ccccc2n1
DOCKED: REMARK SMILES IDX 7 1 8 2 9 3 11 4 12 5 5 6 6 7 4 8 3 9 2 10 1 11 15 13 16 14
DOCKED: REMARK SMILES IDX 24 15 17 16 23 17 18 18 22 19 19 20 21 21 20 22 13 23 14 24
DOCKED: REMARK SMILES IDX 10 26
DOCKED: REMARK H PARENT 3 12 14 25 10 27
DOCKED: USER                              x       y       z     vdW  Elec       q    Type
DOCKED: USER                           _______ _______ _______ _____ _____    ______ ____
DOCKED: ROOT
DOCKED: ATOM      1  N   UNL     1     143.542  72.110 220.050 -0.10 +0.04    -0.333 N  
DOCKED: ATOM      2  C   UNL     1     142.598  71.007 220.087 -0.13 -0.02    +0.151 C  
DOCKED: ATOM      3  C   UNL     1     143.189  70.043 219.079 -0.12 -0.01    +0.136 C  
DOCKED: ATOM      4  C   UNL     1     144.663  70.147 219.400 -0.22 +0.01    +0.061 C  
DOCKED: ATOM      5  C   UNL     1     144.863  71.616 219.648 -0.25 +0.01    +0.113 C  
DOCKED: ENDROOT
DOCKED: BRANCH   1   6
DOCKED: ATOM      6  C   UNL     1     143.304  73.481 220.344 -0.21 -0.05    +0.242 C  
DOCKED: ATOM      7  O   UNL     1     144.212  74.353 220.376 -0.33 +0.10    -0.273 OA 
DOCKED: BRANCH   6   8
DOCKED: ATOM      8  C   UNL     1     141.895  73.895 220.628 -0.18 -0.05    +0.216 C  
DOCKED: BRANCH   8   9
DOCKED: ATOM      9  N   UNL     1     141.810  75.236 221.114 -0.15 +0.13    -0.342 N  
DOCKED: ATOM     10  C   UNL     1     140.655  75.665 221.811 -0.23 -0.06    +0.270 C  
DOCKED: ATOM     11  O   UNL     1     139.701  74.841 221.997 -0.65 +0.04    -0.268 OA 
DOCKED: ATOM     12  H   UNL     1     142.615  75.878 220.940 -0.39 -0.12    +0.164 HD 
DOCKED: BRANCH  10  13
DOCKED: ATOM     13  C   UNL     1     140.551  77.036 222.316 -0.36 -0.04    +0.128 A  
DOCKED: ATOM     14  C   UNL     1     139.308  77.537 222.654 -0.29 -0.01    +0.035 A  
DOCKED: ATOM     15  N   UNL     1     141.656  77.772 222.441 +0.05 +0.14    -0.243 NA 
DOCKED: ATOM     16  C   UNL     1     139.186  78.829 223.133 -0.34 -0.00    +0.013 A  
DOCKED: ATOM     17  C   UNL     1     141.540  79.029 222.906 -0.49 -0.03    +0.071 A  
DOCKED: ATOM     18  C   UNL     1     140.333  79.594 223.262 -0.45 -0.00    +0.000 A  
DOCKED: ATOM     19  C   UNL     1     142.700  79.796 223.033 -0.62 -0.01    +0.029 A  
DOCKED: ATOM     20  C   UNL     1     140.214  80.886 223.740 -0.38 -0.00    +0.010 A  
DOCKED: ATOM     21  C   UNL     1     142.585  81.092 223.513 -0.60 -0.00    +0.002 A  
DOCKED: ATOM     22  C   UNL     1     141.365  81.636 223.863 -0.25 -0.00    +0.001 A  
DOCKED: ENDBRANCH  10  13
DOCKED: ENDBRANCH   8   9
DOCKED: ENDBRANCH   6   8
DOCKED: ENDBRANCH   1   6
DOCKED: BRANCH   5  23
DOCKED: ATOM     23  C   UNL     1     145.247  72.237 218.309 -0.14 +0.09    +0.181 C  
DOCKED: BRANCH  23  24
DOCKED: ATOM     24  O   UNL     1     146.180  73.230 218.579 -0.68 -0.33    -0.394 OA 
DOCKED: ATOM     25  H   UNL     1     145.791  74.069 218.919 -0.40 -0.05    +0.210 HD 
DOCKED: ENDBRANCH  23  24
DOCKED: ENDBRANCH   5  23
DOCKED: BRANCH   3  26
DOCKED: ATOM     26  O   UNL     1     142.691  68.773 219.356 -0.08 +0.06    -0.391 OA 
DOCKED: ATOM     27  H   UNL     1     141.733  68.916 219.619 +0.05 -0.04    +0.211 HD 
DOCKED: ENDBRANCH   3  26
DOCKED: TORSDOF 7
DOCKED: TER
DOCKED: ENDMDL
________________________________________________________________________________


    FINAL DOCKED STATE:
    ________________________


Run:   6 / 20
Time taken for this run:   0.037s

DOCKED: MODEL        6
DOCKED: USER    Run = 6
DOCKED: USER
DOCKED: USER    Estimated Free Energy of Binding    =  -6.21 kcal/mol  [=(1)+(2)+(3)-(4)]
DOCKED: USER
DOCKED: USER    (1) Final Intermolecular Energy     =  -8.30 kcal/mol
DOCKED: USER        vdW + Hbond + desolv Energy     =  -8.07 kcal/mol
DOCKED: USER        Electrostatic Energy            =  -0.23 kcal/mol
DOCKED: USER        Moving Ligand-Fixed Receptor    =  -8.30 kcal/mol
DOCKED: USER        Moving Ligand-Moving Receptor   =  +0.00 kcal/mol
DOCKED: USER    (2) Final Total Internal Energy     =  -2.24 kcal/mol
DOCKED: USER    (3) Torsional Free Energy           =  +2.09 kcal/mol
DOCKED: USER    (4) Unbound System's Energy         =  -2.24 kcal/mol
DOCKED: USER
DOCKED: USER
DOCKED: REMARK SMILES O=C(NCC(=O)N1C[C@H](O)C[C@H]1CO)c1ccc2ccccc2n1
DOCKED: REMARK SMILES IDX 7 1 8 2 9 3 11 4 12 5 5 6 6 7 4 8 3 9 2 10 1 11 15 13 16 14
DOCKED: REMARK SMILES IDX 24 15 17 16 23 17 18 18 22 19 19 20 21 21 20 22 13 23 14 24
DOCKED: REMARK SMILES IDX 10 26
DOCKED: REMARK H PARENT 3 12 14 25 10 27
DOCKED: USER                              x       y       z     vdW  Elec       q    Type
DOCKED: USER                           _______ _______ _______ _____ _____    ______ ____
DOCKED: ROOT
DOCKED: ATOM      1  N   UNL     1     143.397  72.348 219.100 -0.03 +0.03    -0.333 N  
DOCKED: ATOM      2  C   UNL     1     144.369  73.397 219.355 -0.25 -0.02    +0.151 C  
DOCKED: ATOM      3  C   UNL     1     145.550  72.618 219.896 -0.38 +0.03    +0.136 C  
DOCKED: ATOM      4  C   UNL     1     145.553  71.414 218.981 -0.24 +0.04    +0.061 C  
DOCKED: ATOM      5  C   UNL     1     144.094  71.085 218.833 -0.14 +0.01    +0.113 C  
DOCKED: ENDROOT
DOCKED: BRANCH   1   6
DOCKED: ATOM      6  C   UNL     1     141.979  72.447 219.089 -0.04 -0.04    +0.242 C  
DOCKED: ATOM      7  O   UNL     1     141.261  72.043 218.138 -0.01 +0.05    -0.273 OA 
DOCKED: BRANCH   6   8
DOCKED: ATOM      8  C   UNL     1     141.319  73.066 220.280 -0.11 -0.04    +0.216 C  
DOCKED: BRANCH   8   9
DOCKED: ATOM      9  N   UNL     1     141.149  72.135 221.352 -0.10 +0.04    -0.342 N  
DOCKED: ATOM     10  C   UNL     1     140.432  72.514 222.512 -0.18 -0.02    +0.270 C  
DOCKED: ATOM     11  O   UNL     1     139.943  73.689 222.583 -0.77 +0.01    -0.268 OA 
DOCKED: ATOM     12  H   UNL     1     141.566  71.183 221.252 +0.05 -0.02    +0.164 HD 
DOCKED: BRANCH  10  13
DOCKED: ATOM     13  C   UNL     1     140.248  71.574 223.619 -0.33 -0.02    +0.128 A  
DOCKED: ATOM     14  C   UNL     1     139.579  70.386 223.391 -0.28 -0.01    +0.035 A  
DOCKED: ATOM     15  N   UNL     1     140.730  71.880 224.824 -0.26 +0.03    -0.243 NA 
DOCKED: ATOM     16  C   UNL     1     139.393  69.483 224.422 -0.34 -0.00    +0.013 A  
DOCKED: ATOM     17  C   UNL     1     140.552  71.004 225.828 -0.54 -0.01    +0.071 A  
DOCKED: ATOM     18  C   UNL     1     139.894  69.802 225.674 -0.46 -0.00    +0.000 A  
DOCKED: ATOM     19  C   UNL     1     141.058  71.332 227.088 -0.71 -0.00    +0.029 A  
DOCKED: ATOM     20  C   UNL     1     139.710  68.901 226.706 -0.55 -0.00    +0.010 A  
DOCKED: ATOM     21  C   UNL     1     140.877  70.430 228.127 -0.61 -0.00    +0.002 A  
DOCKED: ATOM     22  C   UNL     1     140.214  69.232 227.947 -0.64 -0.00    +0.001 A  
DOCKED: ENDBRANCH  10  13
DOCKED: ENDBRANCH   8   9
DOCKED: ENDBRANCH   6   8
DOCKED: ENDBRANCH   1   6
DOCKED: BRANCH   5  23
DOCKED: ATOM     23  C   UNL     1     143.758  70.083 219.932 -0.11 -0.00    +0.181 C  
DOCKED: BRANCH  23  24
DOCKED: ATOM     24  O   UNL     1     142.405  69.793 219.813 -0.05 +0.04    -0.394 OA 
DOCKED: ATOM     25  H   UNL     1     141.973  70.192 219.022 +0.04 -0.03    +0.210 HD 
DOCKED: ENDBRANCH  23  24
DOCKED: ENDBRANCH   5  23
DOCKED: BRANCH   3  26
DOCKED: ATOM     26  O   UNL     1     146.692  73.396 219.725 -0.57 -0.23    -0.391 OA 
DOCKED: ATOM     27  H   UNL     1     146.363  74.274 219.368 -0.45 -0.05    +0.211 HD 
DOCKED: ENDBRANCH   3  26
DOCKED: TORSDOF 7
DOCKED: TER
DOCKED: ENDMDL
________________________________________________________________________________


    FINAL DOCKED STATE:
    ________________________


Run:   7 / 20
Time taken for this run:   0.037s

DOCKED: MODEL        7
DOCKED: USER    Run = 7
DOCKED: USER
DOCKED: USER    Estimated Free Energy of Binding    =  -6.67 kcal/mol  [=(1)+(2)+(3)-(4)]
DOCKED: USER
DOCKED: USER    (1) Final Intermolecular Energy     =  -8.76 kcal/mol
DOCKED: USER        vdW + Hbond + desolv Energy     =  -8.44 kcal/mol
DOCKED: USER        Electrostatic Energy            =  -0.32 kcal/mol
DOCKED: USER        Moving Ligand-Fixed Receptor    =  -8.76 kcal/mol
DOCKED: USER        Moving Ligand-Moving Receptor   =  +0.00 kcal/mol
DOCKED: USER    (2) Final Total Internal Energy     =  -2.60 kcal/mol
DOCKED: USER    (3) Torsional Free Energy           =  +2.09 kcal/mol
DOCKED: USER    (4) Unbound System's Energy         =  -2.60 kcal/mol
DOCKED: USER
DOCKED: USER
DOCKED: REMARK SMILES O=C(NCC(=O)N1C[C@H](O)C[C@H]1CO)c1ccc2ccccc2n1
DOCKED: REMARK SMILES IDX 7 1 8 2 9 3 11 4 12 5 5 6 6 7 4 8 3 9 2 10 1 11 15 13 16 14
DOCKED: REMARK SMILES IDX 24 15 17 16 23 17 18 18 22 19 19 20 21 21 20 22 13 23 14 24
DOCKED: REMARK SMILES IDX 10 26
DOCKED: REMARK H PARENT 3 12 14 25 10 27
DOCKED: USER                              x       y       z     vdW  Elec       q    Type
DOCKED: USER                           _______ _______ _______ _____ _____    ______ ____
DOCKED: ROOT
DOCKED: ATOM      1  N   UNL     1     143.058  73.495 219.465 -0.06 +0.07    -0.333 N  
DOCKED: ATOM      2  C   UNL     1     144.058  72.445 219.373 -0.19 -0.01    +0.151 C  
DOCKED: ATOM      3  C   UNL     1     145.346  73.206 219.606 -0.36 +0.01    +0.136 C  
DOCKED: ATOM      4  C   UNL     1     144.938  74.142 220.721 -0.46 -0.02    +0.061 C  
DOCKED: ATOM      5  C   UNL     1     143.555  74.574 220.325 -0.31 -0.05    +0.113 C  
DOCKED: ENDROOT
DOCKED: BRANCH   1   6
DOCKED: ATOM      6  C   UNL     1     141.776  73.544 218.853 -0.03 -0.05    +0.242 C  
DOCKED: ATOM      7  O   UNL     1     141.586  73.369 217.621 -0.00 +0.06    -0.273 OA 
DOCKED: BRANCH   6   8
DOCKED: ATOM      8  C   UNL     1     140.598  73.820 219.732 -0.06 -0.05    +0.216 C  
DOCKED: BRANCH   8   9
DOCKED: ATOM      9  N   UNL     1     140.605  75.153 220.248 -0.05 +0.09    -0.342 N  
DOCKED: ATOM     10  C   UNL     1     140.239  75.394 221.594 -0.23 -0.05    +0.270 C  
DOCKED: ATOM     11  O   UNL     1     139.907  74.409 222.332 -0.81 +0.01    -0.268 OA 
DOCKED: ATOM     12  H   UNL     1     140.883  75.930 219.608 +0.05 -0.06    +0.164 HD 
DOCKED: BRANCH  10  13
DOCKED: ATOM     13  C   UNL     1     140.240  76.753 222.139 -0.33 -0.03    +0.128 A  
DOCKED: ATOM     14  C   UNL     1     139.045  77.320 222.537 -0.29 -0.01    +0.035 A  
DOCKED: ATOM     15  N   UNL     1     141.393  77.415 222.241 -0.16 +0.12    -0.243 NA 
DOCKED: ATOM     16  C   UNL     1     139.022  78.603 223.054 -0.32 -0.00    +0.013 A  
DOCKED: ATOM     17  C   UNL     1     141.374  78.662 222.743 -0.47 -0.03    +0.071 A  
DOCKED: ATOM     18  C   UNL     1     140.219  79.291 223.160 -0.44 -0.00    +0.000 A  
DOCKED: ATOM     19  C   UNL     1     142.584  79.351 222.847 -0.57 -0.01    +0.029 A  
DOCKED: ATOM     20  C   UNL     1     140.199  80.573 223.677 -0.42 -0.00    +0.010 A  
DOCKED: ATOM     21  C   UNL     1     142.569  80.638 223.365 -0.66 -0.00    +0.002 A  
DOCKED: ATOM     22  C   UNL     1     141.399  81.247 223.776 -0.52 -0.00    +0.001 A  
DOCKED: ENDBRANCH  10  13
DOCKED: ENDBRANCH   8   9
DOCKED: ENDBRANCH   6   8
DOCKED: ENDBRANCH   1   6
DOCKED: BRANCH   5  23
DOCKED: ATOM     23  C   UNL     1     143.714  75.845 219.497 -0.26 -0.11    +0.181 C  
DOCKED: BRANCH  23  24
DOCKED: ATOM     24  O   UNL     1     142.805  76.768 219.998 -0.21 +0.29    -0.394 OA 
DOCKED: ATOM     25  H   UNL     1     142.700  76.744 220.977 -0.40 -0.21    +0.210 HD 
DOCKED: ENDBRANCH  23  24
DOCKED: ENDBRANCH   5  23
DOCKED: BRANCH   3  26
DOCKED: ATOM     26  O   UNL     1     146.313  72.296 220.027 -0.48 -0.24    -0.391 OA 
DOCKED: ATOM     27  H   UNL     1     145.942  71.885 220.864 -0.43 -0.05    +0.211 HD 
DOCKED: ENDBRANCH   3  26
DOCKED: TORSDOF 7
DOCKED: TER
DOCKED: ENDMDL
________________________________________________________________________________


    FINAL DOCKED STATE:
    ________________________


Run:   8 / 20
Time taken for this run:   0.037s

DOCKED: MODEL        8
DOCKED: USER    Run = 8
DOCKED: USER
DOCKED: USER    Estimated Free Energy of Binding    =  -6.22 kcal/mol  [=(1)+(2)+(3)-(4)]
DOCKED: USER
DOCKED: USER    (1) Final Intermolecular Energy     =  -8.30 kcal/mol
DOCKED: USER        vdW + Hbond + desolv Energy     =  -8.04 kcal/mol
DOCKED: USER        Electrostatic Energy            =  -0.26 kcal/mol
DOCKED: USER        Moving Ligand-Fixed Receptor    =  -8.30 kcal/mol
DOCKED: USER        Moving Ligand-Moving Receptor   =  +0.00 kcal/mol
DOCKED: USER    (2) Final Total Internal Energy     =  -2.23 kcal/mol
DOCKED: USER    (3) Torsional Free Energy           =  +2.09 kcal/mol
DOCKED: USER    (4) Unbound System's Energy         =  -2.23 kcal/mol
DOCKED: USER
DOCKED: USER
DOCKED: REMARK SMILES O=C(NCC(=O)N1C[C@H](O)C[C@H]1CO)c1ccc2ccccc2n1
DOCKED: REMARK SMILES IDX 7 1 8 2 9 3 11 4 12 5 5 6 6 7 4 8 3 9 2 10 1 11 15 13 16 14
DOCKED: REMARK SMILES IDX 24 15 17 16 23 17 18 18 22 19 19 20 21 21 20 22 13 23 14 24
DOCKED: REMARK SMILES IDX 10 26
DOCKED: REMARK H PARENT 3 12 14 25 10 27
DOCKED: USER                              x       y       z     vdW  Elec       q    Type
DOCKED: USER                           _______ _______ _______ _____ _____    ______ ____
DOCKED: ROOT
DOCKED: ATOM      1  N   UNL     1     143.111  72.134 218.872 -0.01 +0.04    -0.333 N  
DOCKED: ATOM      2  C   UNL     1     144.059  73.219 219.055 -0.18 -0.02    +0.151 C  
DOCKED: ATOM      3  C   UNL     1     145.294  72.489 219.541 -0.31 +0.03    +0.136 C  
DOCKED: ATOM      4  C   UNL     1     145.286  71.270 218.647 -0.22 +0.03    +0.061 C  
DOCKED: ATOM      5  C   UNL     1     143.833  70.891 218.586 -0.11 +0.00    +0.113 C  
DOCKED: ENDROOT
DOCKED: BRANCH   1   6
DOCKED: ATOM      6  C   UNL     1     141.691  72.187 218.940 -0.03 -0.04    +0.242 C  
DOCKED: ATOM      7  O   UNL     1     140.934  71.710 218.054 -0.00 +0.05    -0.273 OA 
DOCKED: BRANCH   6   8
DOCKED: ATOM      8  C   UNL     1     141.079  72.845 220.135 -0.09 -0.04    +0.216 C  
DOCKED: BRANCH   8   9
DOCKED: ATOM      9  N   UNL     1     140.960  71.953 221.246 -0.09 +0.04    -0.342 N  
DOCKED: ATOM     10  C   UNL     1     140.370  72.399 222.453 -0.20 -0.03    +0.270 C  
DOCKED: ATOM     11  O   UNL     1     139.950  73.600 222.531 -0.78 +0.01    -0.268 OA 
DOCKED: ATOM     12  H   UNL     1     141.318  70.978 221.139 +0.05 -0.02    +0.164 HD 
DOCKED: BRANCH  10  13
DOCKED: ATOM     13  C   UNL     1     140.241  71.499 223.601 -0.33 -0.02    +0.128 A  
DOCKED: ATOM     14  C   UNL     1     139.643  70.265 223.425 -0.26 -0.01    +0.035 A  
DOCKED: ATOM     15  N   UNL     1     140.701  71.886 224.790 -0.27 +0.03    -0.243 NA 
DOCKED: ATOM     16  C   UNL     1     139.510  69.399 224.495 -0.34 -0.00    +0.013 A  
DOCKED: ATOM     17  C   UNL     1     140.572  71.046 225.832 -0.54 -0.01    +0.071 A  
DOCKED: ATOM     18  C   UNL     1     139.988  69.801 225.731 -0.47 -0.00    +0.000 A  
DOCKED: ATOM     19  C   UNL     1     141.056  71.458 227.076 -0.73 -0.00    +0.029 A  
DOCKED: ATOM     20  C   UNL     1     139.856  68.937 226.802 -0.57 -0.00    +0.010 A  
DOCKED: ATOM     21  C   UNL     1     140.926  70.594 228.154 -0.63 -0.00    +0.002 A  
DOCKED: ATOM     22  C   UNL     1     140.336  69.351 228.027 -0.64 -0.00    +0.001 A  
DOCKED: ENDBRANCH  10  13
DOCKED: ENDBRANCH   8   9
DOCKED: ENDBRANCH   6   8
DOCKED: ENDBRANCH   1   6
DOCKED: BRANCH   5  23
DOCKED: ATOM     23  C   UNL     1     143.593  69.897 219.718 -0.15 -0.00    +0.181 C  
DOCKED: BRANCH  23  24
DOCKED: ATOM     24  O   UNL     1     142.235  69.608 219.719 -0.06 +0.05    -0.394 OA 
DOCKED: ATOM     25  H   UNL     1     141.759  69.896 218.906 +0.04 -0.03    +0.210 HD 
DOCKED: ENDBRANCH  23  24
DOCKED: ENDBRANCH   5  23
DOCKED: BRANCH   3  26
DOCKED: ATOM     26  O   UNL     1     146.398  73.300 219.293 -0.67 -0.27    -0.391 OA 
DOCKED: ATOM     27  H   UNL     1     146.020  74.161 218.943 -0.44 -0.05    +0.211 HD 
DOCKED: ENDBRANCH   3  26
DOCKED: TORSDOF 7
DOCKED: TER
DOCKED: ENDMDL
________________________________________________________________________________


    FINAL DOCKED STATE:
    ________________________


Run:   9 / 20
Time taken for this run:   0.037s

DOCKED: MODEL        9
DOCKED: USER    Run = 9
DOCKED: USER
DOCKED: USER    Estimated Free Energy of Binding    =  -6.48 kcal/mol  [=(1)+(2)+(3)-(4)]
DOCKED: USER
DOCKED: USER    (1) Final Intermolecular Energy     =  -8.57 kcal/mol
DOCKED: USER        vdW + Hbond + desolv Energy     =  -8.42 kcal/mol
DOCKED: USER        Electrostatic Energy            =  -0.15 kcal/mol
DOCKED: USER        Moving Ligand-Fixed Receptor    =  -8.57 kcal/mol
DOCKED: USER        Moving Ligand-Moving Receptor   =  +0.00 kcal/mol
DOCKED: USER    (2) Final Total Internal Energy     =  -1.88 kcal/mol
DOCKED: USER    (3) Torsional Free Energy           =  +2.09 kcal/mol
DOCKED: USER    (4) Unbound System's Energy         =  -1.88 kcal/mol
DOCKED: USER
DOCKED: USER
DOCKED: REMARK SMILES O=C(NCC(=O)N1C[C@H](O)C[C@H]1CO)c1ccc2ccccc2n1
DOCKED: REMARK SMILES IDX 7 1 8 2 9 3 11 4 12 5 5 6 6 7 4 8 3 9 2 10 1 11 15 13 16 14
DOCKED: REMARK SMILES IDX 24 15 17 16 23 17 18 18 22 19 19 20 21 21 20 22 13 23 14 24
DOCKED: REMARK SMILES IDX 10 26
DOCKED: REMARK H PARENT 3 12 14 25 10 27
DOCKED: USER                              x       y       z     vdW  Elec       q    Type
DOCKED: USER                           _______ _______ _______ _____ _____    ______ ____
DOCKED: ROOT
DOCKED: ATOM      1  N   UNL     1     140.774  76.393 221.385 -0.16 +0.11    -0.333 N  
DOCKED: ATOM      2  C   UNL     1     141.670  76.260 220.250 -0.22 -0.07    +0.151 C  
DOCKED: ATOM      3  C   UNL     1     141.740  77.678 219.726 -0.23 -0.08    +0.136 C  
DOCKED: ATOM      4  C   UNL     1     141.822  78.466 221.014 -0.31 -0.04    +0.061 C  
DOCKED: ATOM      5  C   UNL     1     140.853  77.757 221.918 -0.33 -0.04    +0.113 C  
DOCKED: ENDROOT
DOCKED: BRANCH   1   6
DOCKED: ATOM      6  C   UNL     1     139.923  75.406 221.954 -0.22 -0.04    +0.242 C  
DOCKED: ATOM      7  O   UNL     1     138.976  75.674 222.739 -0.36 +0.06    -0.273 OA 
DOCKED: BRANCH   6   8
DOCKED: ATOM      8  C   UNL     1     140.178  73.978 221.591 -0.22 -0.03    +0.216 C  
DOCKED: BRANCH   8   9
DOCKED: ATOM      9  N   UNL     1     139.925  73.086 222.679 -0.08 +0.04    -0.342 N  
DOCKED: ATOM     10  C   UNL     1     140.548  71.816 222.715 -0.20 -0.03    +0.270 C  
DOCKED: ATOM     11  O   UNL     1     141.334  71.484 221.767 -0.13 +0.02    -0.268 OA 
DOCKED: ATOM     12  H   UNL     1     139.274  73.399 223.434 -0.45 -0.09    +0.164 HD 
DOCKED: BRANCH  10  13
DOCKED: ATOM     13  C   UNL     1     140.300  70.891 223.822 -0.29 -0.02    +0.128 A  
DOCKED: ATOM     14  C   UNL     1     139.576  69.738 223.586 -0.24 -0.01    +0.035 A  
DOCKED: ATOM     15  N   UNL     1     140.778  71.178 225.033 -0.33 +0.03    -0.243 NA 
DOCKED: ATOM     16  C   UNL     1     139.329  68.849 224.617 -0.35 -0.00    +0.013 A  
DOCKED: ATOM     17  C   UNL     1     140.540  70.315 226.037 -0.50 -0.01    +0.071 A  
DOCKED: ATOM     18  C   UNL     1     139.825  69.147 225.876 -0.49 -0.00    +0.000 A  
DOCKED: ATOM     19  C   UNL     1     141.042  70.622 227.304 -0.61 -0.00    +0.029 A  
DOCKED: ATOM     20  C   UNL     1     139.580  68.260 226.908 -0.60 -0.00    +0.010 A  
DOCKED: ATOM     21  C   UNL     1     140.799  69.735 228.343 -0.59 -0.00    +0.002 A  
DOCKED: ATOM     22  C   UNL     1     140.080  68.571 228.156 -0.64 -0.00    +0.001 A  
DOCKED: ENDBRANCH  10  13
DOCKED: ENDBRANCH   8   9
DOCKED: ENDBRANCH   6   8
DOCKED: ENDBRANCH   1   6
DOCKED: BRANCH   5  23
DOCKED: ATOM     23  C   UNL     1     139.504  78.447 221.739 -0.17 -0.04    +0.181 C  
DOCKED: BRANCH  23  24
DOCKED: ATOM     24  O   UNL     1     138.811  78.292 222.933 -0.14 +0.06    -0.394 OA 
DOCKED: ATOM     25  H   UNL     1     138.573  77.360 223.145 +0.07 -0.03    +0.210 HD 
DOCKED: ENDBRANCH  23  24
DOCKED: ENDBRANCH   5  23
DOCKED: BRANCH   3  26
DOCKED: ATOM     26  O   UNL     1     142.905  77.802 218.973 -0.18 +0.31    -0.391 OA 
DOCKED: ATOM     27  H   UNL     1     143.651  77.828 219.643 -0.44 -0.26    +0.211 HD 
DOCKED: ENDBRANCH   3  26
DOCKED: TORSDOF 7
DOCKED: TER
DOCKED: ENDMDL
________________________________________________________________________________


    FINAL DOCKED STATE:
    ________________________


Run:   10 / 20
Time taken for this run:   0.037s

DOCKED: MODEL        10
DOCKED: USER    Run = 10
DOCKED: USER
DOCKED: USER    Estimated Free Energy of Binding    =  -6.70 kcal/mol  [=(1)+(2)+(3)-(4)]
DOCKED: USER
DOCKED: USER    (1) Final Intermolecular Energy     =  -8.79 kcal/mol
DOCKED: USER        vdW + Hbond + desolv Energy     =  -8.48 kcal/mol
DOCKED: USER        Electrostatic Energy            =  -0.30 kcal/mol
DOCKED: USER        Moving Ligand-Fixed Receptor    =  -8.79 kcal/mol
DOCKED: USER        Moving Ligand-Moving Receptor   =  +0.00 kcal/mol
DOCKED: USER    (2) Final Total Internal Energy     =  -2.55 kcal/mol
DOCKED: USER    (3) Torsional Free Energy           =  +2.09 kcal/mol
DOCKED: USER    (4) Unbound System's Energy         =  -2.55 kcal/mol
DOCKED: USER
DOCKED: USER
DOCKED: REMARK SMILES O=C(NCC(=O)N1C[C@H](O)C[C@H]1CO)c1ccc2ccccc2n1
DOCKED: REMARK SMILES IDX 7 1 8 2 9 3 11 4 12 5 5 6 6 7 4 8 3 9 2 10 1 11 15 13 16 14
DOCKED: REMARK SMILES IDX 24 15 17 16 23 17 18 18 22 19 19 20 21 21 20 22 13 23 14 24
DOCKED: REMARK SMILES IDX 10 26
DOCKED: REMARK H PARENT 3 12 14 25 10 27
DOCKED: USER                              x       y       z     vdW  Elec       q    Type
DOCKED: USER                           _______ _______ _______ _____ _____    ______ ____
DOCKED: ROOT
DOCKED: ATOM      1  N   UNL     1     143.069  73.375 219.778 -0.08 +0.07    -0.333 N  
DOCKED: ATOM      2  C   UNL     1     144.046  72.310 219.632 -0.21 -0.01    +0.151 C  
DOCKED: ATOM      3  C   UNL     1     145.353  73.073 219.591 -0.35 +0.02    +0.136 C  
DOCKED: ATOM      4  C   UNL     1     145.120  74.115 220.662 -0.50 -0.02    +0.061 C  
DOCKED: ATOM      5  C   UNL     1     143.691  74.524 220.445 -0.32 -0.05    +0.113 C  
DOCKED: ENDROOT
DOCKED: BRANCH   1   6
DOCKED: ATOM      6  C   UNL     1     141.708  73.383 219.369 -0.05 -0.05    +0.242 C  
DOCKED: ATOM      7  O   UNL     1     141.329  73.078 218.208 -0.01 +0.06    -0.273 OA 
DOCKED: BRANCH   6   8
DOCKED: ATOM      8  C   UNL     1     140.681  73.777 220.383 -0.12 -0.04    +0.216 C  
DOCKED: BRANCH   8   9
DOCKED: ATOM      9  N   UNL     1     140.839  75.129 220.819 -0.11 +0.09    -0.342 N  
DOCKED: ATOM     10  C   UNL     1     140.048  75.628 221.881 -0.22 -0.05    +0.270 C  
DOCKED: ATOM     11  O   UNL     1     139.199  74.856 222.438 -0.56 +0.06    -0.268 OA 
DOCKED: ATOM     12  H   UNL     1     141.546  75.726 220.335 +0.04 -0.06    +0.164 HD 
DOCKED: BRANCH  10  13
DOCKED: ATOM     13  C   UNL     1     140.196  77.010 222.341 -0.34 -0.03    +0.128 A  
DOCKED: ATOM     14  C   UNL     1     139.070  77.722 222.708 -0.29 -0.01    +0.035 A  
DOCKED: ATOM     15  N   UNL     1     141.412  77.553 222.397 -0.19 +0.12    -0.243 NA 
DOCKED: ATOM     16  C   UNL     1     139.186  79.029 223.145 -0.35 -0.00    +0.013 A  
DOCKED: ATOM     17  C   UNL     1     141.528  78.824 222.821 -0.48 -0.03    +0.071 A  
DOCKED: ATOM     18  C   UNL     1     140.449  79.594 223.203 -0.46 -0.00    +0.000 A  
DOCKED: ATOM     19  C   UNL     1     142.804  79.388 222.877 -0.54 -0.01    +0.029 A  
DOCKED: ATOM     20  C   UNL     1     140.568  80.901 223.639 -0.42 -0.00    +0.010 A  
DOCKED: ATOM     21  C   UNL     1     142.928  80.698 223.315 -0.63 -0.00    +0.002 A  
DOCKED: ATOM     22  C   UNL     1     141.832  81.450 223.691 -0.57 -0.00    +0.001 A  
DOCKED: ENDBRANCH  10  13
DOCKED: ENDBRANCH   8   9
DOCKED: ENDBRANCH   6   8
DOCKED: ENDBRANCH   1   6
DOCKED: BRANCH   5  23
DOCKED: ATOM     23  C   UNL     1     143.716  75.710 219.486 -0.26 -0.11    +0.181 C  
DOCKED: BRANCH  23  24
DOCKED: ATOM     24  O   UNL     1     142.917  76.699 220.046 -0.21 +0.30    -0.394 OA 
DOCKED: ATOM     25  H   UNL     1     142.783  76.609 221.018 -0.38 -0.22    +0.210 HD 
DOCKED: ENDBRANCH  23  24
DOCKED: ENDBRANCH   5  23
DOCKED: BRANCH   3  26
DOCKED: ATOM     26  O   UNL     1     146.375  72.195 219.942 -0.44 -0.29    -0.391 OA 
DOCKED: ATOM     27  H   UNL     1     146.130  71.856 220.854 -0.43 -0.03    +0.211 HD 
DOCKED: ENDBRANCH   3  26
DOCKED: TORSDOF 7
DOCKED: TER
DOCKED: ENDMDL
________________________________________________________________________________


    FINAL DOCKED STATE:
    ________________________


Run:   11 / 20
Time taken for this run:   0.037s

DOCKED: MODEL        11
DOCKED: USER    Run = 11
DOCKED: USER
DOCKED: USER    Estimated Free Energy of Binding    =  -6.03 kcal/mol  [=(1)+(2)+(3)-(4)]
DOCKED: USER
DOCKED: USER    (1) Final Intermolecular Energy     =  -8.12 kcal/mol
DOCKED: USER        vdW + Hbond + desolv Energy     =  -7.94 kcal/mol
DOCKED: USER        Electrostatic Energy            =  -0.18 kcal/mol
DOCKED: USER        Moving Ligand-Fixed Receptor    =  -8.12 kcal/mol
DOCKED: USER        Moving Ligand-Moving Receptor   =  +0.00 kcal/mol
DOCKED: USER    (2) Final Total Internal Energy     =  -2.72 kcal/mol
DOCKED: USER    (3) Torsional Free Energy           =  +2.09 kcal/mol
DOCKED: USER    (4) Unbound System's Energy         =  -2.72 kcal/mol
DOCKED: USER
DOCKED: USER
DOCKED: REMARK SMILES O=C(NCC(=O)N1C[C@H](O)C[C@H]1CO)c1ccc2ccccc2n1
DOCKED: REMARK SMILES IDX 7 1 8 2 9 3 11 4 12 5 5 6 6 7 4 8 3 9 2 10 1 11 15 13 16 14
DOCKED: REMARK SMILES IDX 24 15 17 16 23 17 18 18 22 19 19 20 21 21 20 22 13 23 14 24
DOCKED: REMARK SMILES IDX 10 26
DOCKED: REMARK H PARENT 3 12 14 25 10 27
DOCKED: USER                              x       y       z     vdW  Elec       q    Type
DOCKED: USER                           _______ _______ _______ _____ _____    ______ ____
DOCKED: ROOT
DOCKED: ATOM      1  N   UNL     1     139.306  73.897 220.691 -0.05 +0.07    -0.333 N  
DOCKED: ATOM      2  C   UNL     1     139.299  75.322 220.970 -0.16 -0.03    +0.151 C  
DOCKED: ATOM      3  C   UNL     1     140.564  75.498 221.782 -0.27 -0.03    +0.136 C  
DOCKED: ATOM      4  C   UNL     1     141.524  74.603 221.031 -0.27 -0.01    +0.061 C  
DOCKED: ATOM      5  C   UNL     1     140.687  73.402 220.693 -0.17 -0.02    +0.113 C  
DOCKED: ENDROOT
DOCKED: BRANCH   1   6
DOCKED: ATOM      6  C   UNL     1     138.196  73.043 220.442 -0.04 -0.05    +0.242 C  
DOCKED: ATOM      7  O   UNL     1     137.995  72.467 219.341 -0.01 +0.05    -0.273 OA 
DOCKED: BRANCH   6   8
DOCKED: ATOM      8  C   UNL     1     137.224  72.827 221.558 -0.07 -0.05    +0.216 C  
DOCKED: BRANCH   8   9
DOCKED: ATOM      9  N   UNL     1     137.852  72.304 222.731 -0.05 +0.11    -0.342 N  
DOCKED: ATOM     10  C   UNL     1     137.960  70.904 222.912 -0.12 -0.06    +0.270 C  
DOCKED: ATOM     11  O   UNL     1     137.493  70.125 222.018 -0.04 +0.05    -0.268 OA 
DOCKED: ATOM     12  H   UNL     1     138.220  72.978 223.439 -0.45 -0.13    +0.164 HD 
DOCKED: BRANCH  10  13
DOCKED: ATOM     13  C   UNL     1     138.599  70.351 224.107 -0.26 -0.02    +0.128 A  
DOCKED: ATOM     14  C   UNL     1     138.527  68.991 224.342 -0.32 -0.00    +0.035 A  
DOCKED: ATOM     15  N   UNL     1     139.238  71.168 224.945 -0.21 +0.05    -0.243 NA 
DOCKED: ATOM     16  C   UNL     1     139.123  68.445 225.464 -0.46 -0.00    +0.013 A  
DOCKED: ATOM     17  C   UNL     1     139.819  70.641 226.037 -0.41 -0.01    +0.071 A  
DOCKED: ATOM     18  C   UNL     1     139.787  69.294 226.335 -0.51 -0.00    +0.000 A  
DOCKED: ATOM     19  C   UNL     1     140.486  71.502 226.911 -0.66 -0.01    +0.029 A  
DOCKED: ATOM     20  C   UNL     1     140.383  68.752 227.458 -0.64 -0.00    +0.010 A  
DOCKED: ATOM     21  C   UNL     1     141.087  70.962 228.039 -0.70 -0.00    +0.002 A  
DOCKED: ATOM     22  C   UNL     1     141.041  69.610 228.316 -0.59 -0.00    +0.001 A  
DOCKED: ENDBRANCH  10  13
DOCKED: ENDBRANCH   8   9
DOCKED: ENDBRANCH   6   8
DOCKED: ENDBRANCH   1   6
DOCKED: BRANCH   5  23
DOCKED: ATOM     23  C   UNL     1     140.864  72.408 221.836 -0.21 -0.02    +0.181 C  
DOCKED: BRANCH  23  24
DOCKED: ATOM     24  O   UNL     1     140.350  73.011 222.977 -0.51 -0.00    -0.394 OA 
DOCKED: ATOM     25  H   UNL     1     139.774  72.425 223.520 -0.11 -0.05    +0.210 HD 
DOCKED: ENDBRANCH  23  24
DOCKED: ENDBRANCH   5  23
DOCKED: BRANCH   3  26
DOCKED: ATOM     26  O   UNL     1     140.943  76.836 221.704 -0.19 +0.16    -0.391 OA 
DOCKED: ATOM     27  H   UNL     1     141.913  76.852 221.960 -0.47 -0.17    +0.211 HD 
DOCKED: ENDBRANCH   3  26
DOCKED: TORSDOF 7
DOCKED: TER
DOCKED: ENDMDL
________________________________________________________________________________


    FINAL DOCKED STATE:
    ________________________


Run:   12 / 20
Time taken for this run:   0.037s

DOCKED: MODEL        12
DOCKED: USER    Run = 12
DOCKED: USER
DOCKED: USER    Estimated Free Energy of Binding    =  -7.00 kcal/mol  [=(1)+(2)+(3)-(4)]
DOCKED: USER
DOCKED: USER    (1) Final Intermolecular Energy     =  -9.09 kcal/mol
DOCKED: USER        vdW + Hbond + desolv Energy     =  -8.69 kcal/mol
DOCKED: USER        Electrostatic Energy            =  -0.40 kcal/mol
DOCKED: USER        Moving Ligand-Fixed Receptor    =  -9.09 kcal/mol
DOCKED: USER        Moving Ligand-Moving Receptor   =  +0.00 kcal/mol
DOCKED: USER    (2) Final Total Internal Energy     =  -2.60 kcal/mol
DOCKED: USER    (3) Torsional Free Energy           =  +2.09 kcal/mol
DOCKED: USER    (4) Unbound System's Energy         =  -2.60 kcal/mol
DOCKED: USER
DOCKED: USER
DOCKED: REMARK SMILES O=C(NCC(=O)N1C[C@H](O)C[C@H]1CO)c1ccc2ccccc2n1
DOCKED: REMARK SMILES IDX 7 1 8 2 9 3 11 4 12 5 5 6 6 7 4 8 3 9 2 10 1 11 15 13 16 14
DOCKED: REMARK SMILES IDX 24 15 17 16 23 17 18 18 22 19 19 20 21 21 20 22 13 23 14 24
DOCKED: REMARK SMILES IDX 10 26
DOCKED: REMARK H PARENT 3 12 14 25 10 27
DOCKED: USER                              x       y       z     vdW  Elec       q    Type
DOCKED: USER                           _______ _______ _______ _____ _____    ______ ____
DOCKED: ROOT
DOCKED: ATOM      1  N   UNL     1     143.082  73.283 220.121 -0.10 +0.07    -0.333 N  
DOCKED: ATOM      2  C   UNL     1     143.986  72.190 219.807 -0.22 -0.01    +0.151 C  
DOCKED: ATOM      3  C   UNL     1     145.271  72.919 219.475 -0.33 +0.02    +0.136 C  
DOCKED: ATOM      4  C   UNL     1     145.286  73.992 220.541 -0.53 -0.01    +0.061 C  
DOCKED: ATOM      5  C   UNL     1     143.850  74.432 220.612 -0.24 -0.04    +0.113 C  
DOCKED: ENDROOT
DOCKED: BRANCH   1   6
DOCKED: ATOM      6  C   UNL     1     141.666  73.315 220.001 -0.10 -0.05    +0.242 C  
DOCKED: ATOM      7  O   UNL     1     141.054  73.094 218.924 -0.02 +0.06    -0.273 OA 
DOCKED: BRANCH   6   8
DOCKED: ATOM      8  C   UNL     1     140.874  73.628 221.231 -0.20 -0.03    +0.216 C  
DOCKED: BRANCH   8   9
DOCKED: ATOM      9  N   UNL     1     141.095  74.962 221.695 -0.17 +0.06    -0.342 N  
DOCKED: ATOM     10  C   UNL     1     139.998  75.832 221.901 -0.23 -0.06    +0.270 C  
DOCKED: ATOM     11  O   UNL     1     138.819  75.409 221.669 -0.19 +0.06    -0.268 OA 
DOCKED: ATOM     12  H   UNL     1     142.078  75.268 221.872 -0.37 -0.07    +0.164 HD 
DOCKED: BRANCH  10  13
DOCKED: ATOM     13  C   UNL     1     140.207  77.201 222.376 -0.33 -0.03    +0.128 A  
DOCKED: ATOM     14  C   UNL     1     139.111  77.974 222.709 -0.30 -0.01    +0.035 A  
DOCKED: ATOM     15  N   UNL     1     141.449  77.676 222.478 -0.21 +0.12    -0.243 NA 
DOCKED: ATOM     16  C   UNL     1     139.284  79.270 223.160 -0.36 -0.00    +0.013 A  
DOCKED: ATOM     17  C   UNL     1     141.621  78.936 222.916 -0.50 -0.03    +0.071 A  
DOCKED: ATOM     18  C   UNL     1     140.574  79.763 223.266 -0.47 -0.00    +0.000 A  
DOCKED: ATOM     19  C   UNL     1     142.924  79.427 223.019 -0.52 -0.01    +0.029 A  
DOCKED: ATOM     20  C   UNL     1     140.750  81.058 223.715 -0.39 -0.00    +0.010 A  
DOCKED: ATOM     21  C   UNL     1     143.106  80.726 223.471 -0.61 -0.00    +0.002 A  
DOCKED: ATOM     22  C   UNL     1     142.041  81.536 223.815 -0.57 -0.00    +0.001 A  
DOCKED: ENDBRANCH  10  13
DOCKED: ENDBRANCH   8   9
DOCKED: ENDBRANCH   6   8
DOCKED: ENDBRANCH   1   6
DOCKED: BRANCH   5  23
DOCKED: ATOM     23  C   UNL     1     143.700  75.593 219.635 -0.30 -0.11    +0.181 C  
DOCKED: BRANCH  23  24
DOCKED: ATOM     24  O   UNL     1     142.632  76.360 220.081 -0.19 +0.25    -0.394 OA 
DOCKED: ATOM     25  H   UNL     1     142.706  76.651 221.019 -0.40 -0.21    +0.210 HD 
DOCKED: ENDBRANCH  23  24
DOCKED: ENDBRANCH   5  23
DOCKED: BRANCH   3  26
DOCKED: ATOM     26  O   UNL     1     146.326  72.024 219.632 -0.48 -0.38    -0.391 OA 
DOCKED: ATOM     27  H   UNL     1     146.143  71.550 220.498 -0.38 +0.02    +0.211 HD 
DOCKED: ENDBRANCH   3  26
DOCKED: TORSDOF 7
DOCKED: TER
DOCKED: ENDMDL
________________________________________________________________________________


    FINAL DOCKED STATE:
    ________________________


Run:   13 / 20
Time taken for this run:   0.037s

DOCKED: MODEL        13
DOCKED: USER    Run = 13
DOCKED: USER
DOCKED: USER    Estimated Free Energy of Binding    =  -6.99 kcal/mol  [=(1)+(2)+(3)-(4)]
DOCKED: USER
DOCKED: USER    (1) Final Intermolecular Energy     =  -9.08 kcal/mol
DOCKED: USER        vdW + Hbond + desolv Energy     =  -8.69 kcal/mol
DOCKED: USER        Electrostatic Energy            =  -0.39 kcal/mol
DOCKED: USER        Moving Ligand-Fixed Receptor    =  -9.08 kcal/mol
DOCKED: USER        Moving Ligand-Moving Receptor   =  +0.00 kcal/mol
DOCKED: USER    (2) Final Total Internal Energy     =  -2.60 kcal/mol
DOCKED: USER    (3) Torsional Free Energy           =  +2.09 kcal/mol
DOCKED: USER    (4) Unbound System's Energy         =  -2.60 kcal/mol
DOCKED: USER
DOCKED: USER
DOCKED: REMARK SMILES O=C(NCC(=O)N1C[C@H](O)C[C@H]1CO)c1ccc2ccccc2n1
DOCKED: REMARK SMILES IDX 7 1 8 2 9 3 11 4 12 5 5 6 6 7 4 8 3 9 2 10 1 11 15 13 16 14
DOCKED: REMARK SMILES IDX 24 15 17 16 23 17 18 18 22 19 19 20 21 21 20 22 13 23 14 24
DOCKED: REMARK SMILES IDX 10 26
DOCKED: REMARK H PARENT 3 12 14 25 10 27
DOCKED: USER                              x       y       z     vdW  Elec       q    Type
DOCKED: USER                           _______ _______ _______ _____ _____    ______ ____
DOCKED: ROOT
DOCKED: ATOM      1  N   UNL     1     143.061  73.252 220.203 -0.10 +0.07    -0.333 N  
DOCKED: ATOM      2  C   UNL     1     143.990  72.176 219.906 -0.22 -0.01    +0.151 C  
DOCKED: ATOM      3  C   UNL     1     145.243  72.931 219.515 -0.33 +0.02    +0.136 C  
DOCKED: ATOM      4  C   UNL     1     145.250  74.042 220.541 -0.52 -0.02    +0.061 C  
DOCKED: ATOM      5  C   UNL     1     143.805  74.441 220.633 -0.22 -0.04    +0.113 C  
DOCKED: ENDROOT
DOCKED: BRANCH   1   6
DOCKED: ATOM      6  C   UNL     1     141.641  73.237 220.119 -0.11 -0.05    +0.242 C  
DOCKED: ATOM      7  O   UNL     1     141.010  72.952 219.068 -0.02 +0.05    -0.273 OA 
DOCKED: BRANCH   6   8
DOCKED: ATOM      8  C   UNL     1     140.870  73.580 221.353 -0.20 -0.03    +0.216 C  
DOCKED: BRANCH   8   9
DOCKED: ATOM      9  N   UNL     1     141.095  74.927 221.778 -0.15 +0.05    -0.342 N  
DOCKED: ATOM     10  C   UNL     1     139.997  75.792 221.999 -0.23 -0.05    +0.270 C  
DOCKED: ATOM     11  O   UNL     1     138.814  75.354 221.816 -0.21 +0.06    -0.268 OA 
DOCKED: ATOM     12  H   UNL     1     142.080  75.245 221.916 -0.37 -0.06    +0.164 HD 
DOCKED: BRANCH  10  13
DOCKED: ATOM     13  C   UNL     1     140.209  77.174 222.434 -0.32 -0.03    +0.128 A  
DOCKED: ATOM     14  C   UNL     1     139.113  77.966 222.719 -0.30 -0.01    +0.035 A  
DOCKED: ATOM     15  N   UNL     1     141.452  77.640 222.548 -0.20 +0.12    -0.243 NA 
DOCKED: ATOM     16  C   UNL     1     139.288  79.275 223.131 -0.36 -0.00    +0.013 A  
DOCKED: ATOM     17  C   UNL     1     141.627  78.912 222.949 -0.50 -0.03    +0.071 A  
DOCKED: ATOM     18  C   UNL     1     140.580  79.760 223.249 -0.47 -0.00    +0.000 A  
DOCKED: ATOM     19  C   UNL     1     142.932  79.395 223.065 -0.51 -0.01    +0.029 A  
DOCKED: ATOM     20  C   UNL     1     140.759  81.067 223.661 -0.40 -0.00    +0.010 A  
DOCKED: ATOM     21  C   UNL     1     143.116  80.706 223.479 -0.62 -0.00    +0.002 A  
DOCKED: ATOM     22  C   UNL     1     142.052  81.536 223.773 -0.57 -0.00    +0.001 A  
DOCKED: ENDBRANCH  10  13
DOCKED: ENDBRANCH   8   9
DOCKED: ENDBRANCH   6   8
DOCKED: ENDBRANCH   1   6
DOCKED: BRANCH   5  23
DOCKED: ATOM     23  C   UNL     1     143.595  75.561 219.619 -0.30 -0.10    +0.181 C  
DOCKED: BRANCH  23  24
DOCKED: ATOM     24  O   UNL     1     142.582  76.371 220.116 -0.18 +0.25    -0.394 OA 
DOCKED: ATOM     25  H   UNL     1     142.679  76.601 221.069 -0.41 -0.21    +0.210 HD 
DOCKED: ENDBRANCH  23  24
DOCKED: ENDBRANCH   5  23
DOCKED: BRANCH   3  26
DOCKED: ATOM     26  O   UNL     1     146.329  72.075 219.678 -0.49 -0.36    -0.391 OA 
DOCKED: ATOM     27  H   UNL     1     146.131  71.552 220.511 -0.38 +0.01    +0.211 HD 
DOCKED: ENDBRANCH   3  26
DOCKED: TORSDOF 7
DOCKED: TER
DOCKED: ENDMDL
________________________________________________________________________________


    FINAL DOCKED STATE:
    ________________________


Run:   14 / 20
Time taken for this run:   0.037s

DOCKED: MODEL        14
DOCKED: USER    Run = 14
DOCKED: USER
DOCKED: USER    Estimated Free Energy of Binding    =  -6.66 kcal/mol  [=(1)+(2)+(3)-(4)]
DOCKED: USER
DOCKED: USER    (1) Final Intermolecular Energy     =  -8.75 kcal/mol
DOCKED: USER        vdW + Hbond + desolv Energy     =  -8.40 kcal/mol
DOCKED: USER        Electrostatic Energy            =  -0.35 kcal/mol
DOCKED: USER        Moving Ligand-Fixed Receptor    =  -8.75 kcal/mol
DOCKED: USER        Moving Ligand-Moving Receptor   =  +0.00 kcal/mol
DOCKED: USER    (2) Final Total Internal Energy     =  -2.57 kcal/mol
DOCKED: USER    (3) Torsional Free Energy           =  +2.09 kcal/mol
DOCKED: USER    (4) Unbound System's Energy         =  -2.57 kcal/mol
DOCKED: USER
DOCKED: USER
DOCKED: REMARK SMILES O=C(NCC(=O)N1C[C@H](O)C[C@H]1CO)c1ccc2ccccc2n1
DOCKED: REMARK SMILES IDX 7 1 8 2 9 3 11 4 12 5 5 6 6 7 4 8 3 9 2 10 1 11 15 13 16 14
DOCKED: REMARK SMILES IDX 24 15 17 16 23 17 18 18 22 19 19 20 21 21 20 22 13 23 14 24
DOCKED: REMARK SMILES IDX 10 26
DOCKED: REMARK H PARENT 3 12 14 25 10 27
DOCKED: USER                              x       y       z     vdW  Elec       q    Type
DOCKED: USER                           _______ _______ _______ _____ _____    ______ ____
DOCKED: ROOT
DOCKED: ATOM      1  N   UNL     1     143.103  73.501 219.435 -0.06 +0.07    -0.333 N  
DOCKED: ATOM      2  C   UNL     1     144.090  72.445 219.286 -0.18 -0.01    +0.151 C  
DOCKED: ATOM      3  C   UNL     1     145.384  73.166 219.600 -0.36 +0.01    +0.136 C  
DOCKED: ATOM      4  C   UNL     1     144.966  74.025 220.772 -0.48 -0.02    +0.061 C  
DOCKED: ATOM      5  C   UNL     1     143.598  74.507 220.381 -0.32 -0.04    +0.113 C  
DOCKED: ENDROOT
DOCKED: BRANCH   1   6
DOCKED: ATOM      6  C   UNL     1     141.835  73.616 218.802 -0.03 -0.06    +0.242 C  
DOCKED: ATOM      7  O   UNL     1     141.669  73.530 217.557 -0.01 +0.06    -0.273 OA 
DOCKED: BRANCH   6   8
DOCKED: ATOM      8  C   UNL     1     140.644  73.851 219.675 -0.05 -0.05    +0.216 C  
DOCKED: BRANCH   8   9
DOCKED: ATOM      9  N   UNL     1     140.609  75.180 220.201 -0.05 +0.09    -0.342 N  
DOCKED: ATOM     10  C   UNL     1     140.343  75.391 221.575 -0.23 -0.06    +0.270 C  
DOCKED: ATOM     11  O   UNL     1     140.137  74.384 222.329 -0.80 -0.00    -0.268 OA 
DOCKED: ATOM     12  H   UNL     1     140.784  75.976 219.547 +0.05 -0.05    +0.164 HD 
DOCKED: BRANCH  10  13
DOCKED: ATOM     13  C   UNL     1     140.304  76.745 222.130 -0.33 -0.03    +0.128 A  
DOCKED: ATOM     14  C   UNL     1     139.088  77.285 222.505 -0.29 -0.01    +0.035 A  
DOCKED: ATOM     15  N   UNL     1     141.440  77.430 222.264 -0.15 +0.13    -0.243 NA 
DOCKED: ATOM     16  C   UNL     1     139.027  78.562 223.032 -0.32 -0.00    +0.013 A  
DOCKED: ATOM     17  C   UNL     1     141.383  78.673 222.776 -0.47 -0.03    +0.071 A  
DOCKED: ATOM     18  C   UNL     1     140.207  79.274 223.171 -0.44 -0.00    +0.000 A  
DOCKED: ATOM     19  C   UNL     1     142.577  79.385 222.913 -0.59 -0.01    +0.029 A  
DOCKED: ATOM     20  C   UNL     1     140.149  80.551 223.697 -0.42 -0.00    +0.010 A  
DOCKED: ATOM     21  C   UNL     1     142.524  80.667 223.441 -0.66 -0.00    +0.002 A  
DOCKED: ATOM     22  C   UNL     1     141.332  81.248 223.829 -0.49 -0.00    +0.001 A  
DOCKED: ENDBRANCH  10  13
DOCKED: ENDBRANCH   8   9
DOCKED: ENDBRANCH   6   8
DOCKED: ENDBRANCH   1   6
DOCKED: BRANCH   5  23
DOCKED: ATOM     23  C   UNL     1     143.793  75.832 219.651 -0.22 -0.12    +0.181 C  
DOCKED: BRANCH  23  24
DOCKED: ATOM     24  O   UNL     1     142.759  76.669 220.050 -0.20 +0.28    -0.394 OA 
DOCKED: ATOM     25  H   UNL     1     142.653  76.743 221.027 -0.41 -0.21    +0.210 HD 
DOCKED: ENDBRANCH  23  24
DOCKED: ENDBRANCH   5  23
DOCKED: BRANCH   3  26
DOCKED: ATOM     26  O   UNL     1     146.327  72.212 219.973 -0.48 -0.26    -0.391 OA 
DOCKED: ATOM     27  H   UNL     1     146.023  71.875 220.868 -0.43 -0.04    +0.211 HD 
DOCKED: ENDBRANCH   3  26
DOCKED: TORSDOF 7
DOCKED: TER
DOCKED: ENDMDL
________________________________________________________________________________


    FINAL DOCKED STATE:
    ________________________


Run:   15 / 20
Time taken for this run:   0.037s

DOCKED: MODEL        15
DOCKED: USER    Run = 15
DOCKED: USER
DOCKED: USER    Estimated Free Energy of Binding    =  -7.01 kcal/mol  [=(1)+(2)+(3)-(4)]
DOCKED: USER
DOCKED: USER    (1) Final Intermolecular Energy     =  -9.10 kcal/mol
DOCKED: USER        vdW + Hbond + desolv Energy     =  -8.71 kcal/mol
DOCKED: USER        Electrostatic Energy            =  -0.39 kcal/mol
DOCKED: USER        Moving Ligand-Fixed Receptor    =  -9.10 kcal/mol
DOCKED: USER        Moving Ligand-Moving Receptor   =  +0.00 kcal/mol
DOCKED: USER    (2) Final Total Internal Energy     =  -2.59 kcal/mol
DOCKED: USER    (3) Torsional Free Energy           =  +2.09 kcal/mol
DOCKED: USER    (4) Unbound System's Energy         =  -2.59 kcal/mol
DOCKED: USER
DOCKED: USER
DOCKED: REMARK SMILES O=C(NCC(=O)N1C[C@H](O)C[C@H]1CO)c1ccc2ccccc2n1
DOCKED: REMARK SMILES IDX 7 1 8 2 9 3 11 4 12 5 5 6 6 7 4 8 3 9 2 10 1 11 15 13 16 14
DOCKED: REMARK SMILES IDX 24 15 17 16 23 17 18 18 22 19 19 20 21 21 20 22 13 23 14 24
DOCKED: REMARK SMILES IDX 10 26
DOCKED: REMARK H PARENT 3 12 14 25 10 27
DOCKED: USER                              x       y       z     vdW  Elec       q    Type
DOCKED: USER                           _______ _______ _______ _____ _____    ______ ____
DOCKED: ROOT
DOCKED: ATOM      1  N   UNL     1     143.059  73.260 220.189 -0.10 +0.07    -0.333 N  
DOCKED: ATOM      2  C   UNL     1     143.971  72.175 219.874 -0.22 -0.01    +0.151 C  
DOCKED: ATOM      3  C   UNL     1     145.235  72.916 219.493 -0.33 +0.02    +0.136 C  
DOCKED: ATOM      4  C   UNL     1     145.261  74.012 220.534 -0.53 -0.02    +0.061 C  
DOCKED: ATOM      5  C   UNL     1     143.821  74.431 220.634 -0.22 -0.04    +0.113 C  
DOCKED: ENDROOT
DOCKED: BRANCH   1   6
DOCKED: ATOM      6  C   UNL     1     141.639  73.267 220.107 -0.11 -0.05    +0.242 C  
DOCKED: ATOM      7  O   UNL     1     141.002  73.010 219.052 -0.02 +0.05    -0.273 OA 
DOCKED: BRANCH   6   8
DOCKED: ATOM      8  C   UNL     1     140.875  73.600 221.349 -0.20 -0.03    +0.216 C  
DOCKED: BRANCH   8   9
DOCKED: ATOM      9  N   UNL     1     141.096  74.946 221.779 -0.15 +0.05    -0.342 N  
DOCKED: ATOM     10  C   UNL     1     139.997  75.813 221.987 -0.23 -0.05    +0.270 C  
DOCKED: ATOM     11  O   UNL     1     138.816  75.376 221.787 -0.21 +0.06    -0.268 OA 
DOCKED: ATOM     12  H   UNL     1     142.080  75.262 221.930 -0.38 -0.06    +0.164 HD 
DOCKED: BRANCH  10  13
DOCKED: ATOM     13  C   UNL     1     140.205  77.193 222.427 -0.32 -0.03    +0.128 A  
DOCKED: ATOM     14  C   UNL     1     139.107  77.984 222.709 -0.30 -0.01    +0.035 A  
DOCKED: ATOM     15  N   UNL     1     141.448  77.660 222.549 -0.21 +0.12    -0.243 NA 
DOCKED: ATOM     16  C   UNL     1     139.279  79.291 223.126 -0.36 -0.00    +0.013 A  
DOCKED: ATOM     17  C   UNL     1     141.619  78.931 222.955 -0.50 -0.03    +0.071 A  
DOCKED: ATOM     18  C   UNL     1     140.570  79.777 223.252 -0.47 -0.00    +0.000 A  
DOCKED: ATOM     19  C   UNL     1     142.923  79.415 223.079 -0.51 -0.01    +0.029 A  
DOCKED: ATOM     20  C   UNL     1     140.746  81.083 223.669 -0.39 -0.00    +0.010 A  
DOCKED: ATOM     21  C   UNL     1     143.104  80.725 223.498 -0.61 -0.00    +0.002 A  
DOCKED: ATOM     22  C   UNL     1     142.037  81.553 223.789 -0.57 -0.00    +0.001 A  
DOCKED: ENDBRANCH  10  13
DOCKED: ENDBRANCH   8   9
DOCKED: ENDBRANCH   6   8
DOCKED: ENDBRANCH   1   6
DOCKED: BRANCH   5  23
DOCKED: ATOM     23  C   UNL     1     143.627  75.568 219.637 -0.30 -0.10    +0.181 C  
DOCKED: BRANCH  23  24
DOCKED: ATOM     24  O   UNL     1     142.580  76.348 220.113 -0.18 +0.25    -0.394 OA 
DOCKED: ATOM     25  H   UNL     1     142.663  76.601 221.061 -0.41 -0.21    +0.210 HD 
DOCKED: ENDBRANCH  23  24
DOCKED: ENDBRANCH   5  23
DOCKED: BRANCH   3  26
DOCKED: ATOM     26  O   UNL     1     146.308  72.041 219.641 -0.49 -0.37    -0.391 OA 
DOCKED: ATOM     27  H   UNL     1     146.128  71.545 220.494 -0.38 +0.02    +0.211 HD 
DOCKED: ENDBRANCH   3  26
DOCKED: TORSDOF 7
DOCKED: TER
DOCKED: ENDMDL
________________________________________________________________________________


    FINAL DOCKED STATE:
    ________________________


Run:   16 / 20
Time taken for this run:   0.037s

DOCKED: MODEL        16
DOCKED: USER    Run = 16
DOCKED: USER
DOCKED: USER    Estimated Free Energy of Binding    =  -5.63 kcal/mol  [=(1)+(2)+(3)-(4)]
DOCKED: USER
DOCKED: USER    (1) Final Intermolecular Energy     =  -7.72 kcal/mol
DOCKED: USER        vdW + Hbond + desolv Energy     =  -7.59 kcal/mol
DOCKED: USER        Electrostatic Energy            =  -0.13 kcal/mol
DOCKED: USER        Moving Ligand-Fixed Receptor    =  -7.72 kcal/mol
DOCKED: USER        Moving Ligand-Moving Receptor   =  +0.00 kcal/mol
DOCKED: USER    (2) Final Total Internal Energy     =  -2.72 kcal/mol
DOCKED: USER    (3) Torsional Free Energy           =  +2.09 kcal/mol
DOCKED: USER    (4) Unbound System's Energy         =  -2.72 kcal/mol
DOCKED: USER
DOCKED: USER
DOCKED: REMARK SMILES O=C(NCC(=O)N1C[C@H](O)C[C@H]1CO)c1ccc2ccccc2n1
DOCKED: REMARK SMILES IDX 7 1 8 2 9 3 11 4 12 5 5 6 6 7 4 8 3 9 2 10 1 11 15 13 16 14
DOCKED: REMARK SMILES IDX 24 15 17 16 23 17 18 18 22 19 19 20 21 21 20 22 13 23 14 24
DOCKED: REMARK SMILES IDX 10 26
DOCKED: REMARK H PARENT 3 12 14 25 10 27
DOCKED: USER                              x       y       z     vdW  Elec       q    Type
DOCKED: USER                           _______ _______ _______ _____ _____    ______ ____
DOCKED: ROOT
DOCKED: ATOM      1  N   UNL     1     140.139  70.369 224.960 -0.19 +0.05    -0.333 N  
DOCKED: ATOM      2  C   UNL     1     140.598  71.653 225.461 -0.36 -0.02    +0.151 C  
DOCKED: ATOM      3  C   UNL     1     140.532  71.456 226.961 -0.58 -0.02    +0.136 C  
DOCKED: ATOM      4  C   UNL     1     141.067  70.048 227.097 -0.53 -0.01    +0.061 C  
DOCKED: ATOM      5  C   UNL     1     140.435  69.322 225.943 -0.43 -0.02    +0.113 C  
DOCKED: ENDROOT
DOCKED: BRANCH   1   6
DOCKED: ATOM      6  C   UNL     1     139.497  70.087 223.723 -0.19 -0.04    +0.242 C  
DOCKED: ATOM      7  O   UNL     1     139.572  68.975 223.138 -0.09 +0.06    -0.273 OA 
DOCKED: BRANCH   6   8
DOCKED: ATOM      8  C   UNL     1     138.690  71.179 223.096 -0.19 -0.05    +0.216 C  
DOCKED: BRANCH   8   9
DOCKED: ATOM      9  N   UNL     1     137.533  71.512 223.866 -0.09 +0.10    -0.342 N  
DOCKED: ATOM     10  C   UNL     1     136.589  70.510 224.195 -0.12 -0.04    +0.270 C  
DOCKED: ATOM     11  O   UNL     1     136.787  69.315 223.797 -0.14 +0.02    -0.268 OA 
DOCKED: ATOM     12  H   UNL     1     137.410  72.503 224.172 -0.50 -0.10    +0.164 HD 
DOCKED: BRANCH  10  13
DOCKED: ATOM     13  C   UNL     1     135.398  70.833 224.983 -0.09 -0.01    +0.128 A  
DOCKED: ATOM     14  C   UNL     1     134.660  69.806 225.541 -0.26 -0.00    +0.035 A  
DOCKED: ATOM     15  N   UNL     1     135.050  72.109 225.148 -0.06 +0.02    -0.243 NA 
DOCKED: ATOM     16  C   UNL     1     133.531  70.087 226.289 -0.29 -0.00    +0.013 A  
DOCKED: ATOM     17  C   UNL     1     133.952  72.386 225.875 -0.28 -0.00    +0.071 A  
DOCKED: ATOM     18  C   UNL     1     133.169  71.413 226.460 -0.36 -0.00    +0.000 A  
DOCKED: ATOM     19  C   UNL     1     133.592  73.725 226.043 -0.33 +0.00    +0.029 A  
DOCKED: ATOM     20  C   UNL     1     132.041  71.698 227.207 -0.33 -0.00    +0.010 A  
DOCKED: ATOM     21  C   UNL     1     132.461  74.015 226.792 -0.38 -0.00    +0.002 A  
DOCKED: ATOM     22  C   UNL     1     131.692  73.023 227.369 -0.41 -0.00    +0.001 A  
DOCKED: ENDBRANCH  10  13
DOCKED: ENDBRANCH   8   9
DOCKED: ENDBRANCH   6   8
DOCKED: ENDBRANCH   1   6
DOCKED: BRANCH   5  23
DOCKED: ATOM     23  C   UNL     1     139.127  68.732 226.461 -0.32 -0.02    +0.181 C  
DOCKED: BRANCH  23  24
DOCKED: ATOM     24  O   UNL     1     138.724  67.774 225.539 -0.64 -0.03    -0.394 OA 
DOCKED: ATOM     25  H   UNL     1     138.358  68.145 224.703 +0.09 +0.01    +0.210 HD 
DOCKED: ENDBRANCH  23  24
DOCKED: ENDBRANCH   5  23
DOCKED: BRANCH   3  26
DOCKED: ATOM     26  O   UNL     1     141.381  72.387 227.555 -0.53 +0.09    -0.391 OA 
DOCKED: ATOM     27  H   UNL     1     140.774  73.042 228.013 +0.01 -0.09    +0.211 HD 
DOCKED: ENDBRANCH   3  26
DOCKED: TORSDOF 7
DOCKED: TER
DOCKED: ENDMDL
________________________________________________________________________________


    FINAL DOCKED STATE:
    ________________________


Run:   17 / 20
Time taken for this run:   0.037s

DOCKED: MODEL        17
DOCKED: USER    Run = 17
DOCKED: USER
DOCKED: USER    Estimated Free Energy of Binding    =  -5.97 kcal/mol  [=(1)+(2)+(3)-(4)]
DOCKED: USER
DOCKED: USER    (1) Final Intermolecular Energy     =  -8.05 kcal/mol
DOCKED: USER        vdW + Hbond + desolv Energy     =  -7.88 kcal/mol
DOCKED: USER        Electrostatic Energy            =  -0.17 kcal/mol
DOCKED: USER        Moving Ligand-Fixed Receptor    =  -8.05 kcal/mol
DOCKED: USER        Moving Ligand-Moving Receptor   =  +0.00 kcal/mol
DOCKED: USER    (2) Final Total Internal Energy     =  -2.77 kcal/mol
DOCKED: USER    (3) Torsional Free Energy           =  +2.09 kcal/mol
DOCKED: USER    (4) Unbound System's Energy         =  -2.77 kcal/mol
DOCKED: USER
DOCKED: USER
DOCKED: REMARK SMILES O=C(NCC(=O)N1C[C@H](O)C[C@H]1CO)c1ccc2ccccc2n1
DOCKED: REMARK SMILES IDX 7 1 8 2 9 3 11 4 12 5 5 6 6 7 4 8 3 9 2 10 1 11 15 13 16 14
DOCKED: REMARK SMILES IDX 24 15 17 16 23 17 18 18 22 19 19 20 21 21 20 22 13 23 14 24
DOCKED: REMARK SMILES IDX 10 26
DOCKED: REMARK H PARENT 3 12 14 25 10 27
DOCKED: USER                              x       y       z     vdW  Elec       q    Type
DOCKED: USER                           _______ _______ _______ _____ _____    ______ ____
DOCKED: ROOT
DOCKED: ATOM      1  N   UNL     1     139.373  74.002 220.740 -0.05 +0.07    -0.333 N  
DOCKED: ATOM      2  C   UNL     1     139.317  75.406 221.108 -0.18 -0.03    +0.151 C  
DOCKED: ATOM      3  C   UNL     1     140.571  75.571 221.940 -0.27 -0.03    +0.136 C  
DOCKED: ATOM      4  C   UNL     1     141.564  74.756 221.143 -0.26 -0.02    +0.061 C  
DOCKED: ATOM      5  C   UNL     1     140.768  73.553 220.722 -0.18 -0.02    +0.113 C  
DOCKED: ENDROOT
DOCKED: BRANCH   1   6
DOCKED: ATOM      6  C   UNL     1     138.293  73.131 220.429 -0.04 -0.05    +0.242 C  
DOCKED: ATOM      7  O   UNL     1     138.126  72.606 219.297 -0.01 +0.05    -0.273 OA 
DOCKED: BRANCH   6   8
DOCKED: ATOM      8  C   UNL     1     137.310  72.830 221.516 -0.07 -0.05    +0.216 C  
DOCKED: BRANCH   8   9
DOCKED: ATOM      9  N   UNL     1     137.938  72.294 222.683 -0.06 +0.11    -0.342 N  
DOCKED: ATOM     10  C   UNL     1     138.061  70.893 222.842 -0.12 -0.06    +0.270 C  
DOCKED: ATOM     11  O   UNL     1     137.606  70.123 221.933 -0.04 +0.05    -0.268 OA 
DOCKED: ATOM     12  H   UNL     1     138.297  72.960 223.403 -0.44 -0.13    +0.164 HD 
DOCKED: BRANCH  10  13
DOCKED: ATOM     13  C   UNL     1     138.701  70.327 224.031 -0.26 -0.02    +0.128 A  
DOCKED: ATOM     14  C   UNL     1     138.672  68.959 224.225 -0.32 -0.00    +0.035 A  
DOCKED: ATOM     15  N   UNL     1     139.299  71.141 224.901 -0.23 +0.05    -0.243 NA 
DOCKED: ATOM     16  C   UNL     1     139.270  68.402 225.341 -0.46 -0.00    +0.013 A  
DOCKED: ATOM     17  C   UNL     1     139.881  70.602 225.988 -0.44 -0.01    +0.071 A  
DOCKED: ATOM     18  C   UNL     1     139.891  69.248 226.246 -0.51 -0.00    +0.000 A  
DOCKED: ATOM     19  C   UNL     1     140.505  71.461 226.896 -0.66 -0.01    +0.029 A  
DOCKED: ATOM     20  C   UNL     1     140.489  68.694 227.363 -0.64 -0.00    +0.010 A  
DOCKED: ATOM     21  C   UNL     1     141.107  70.909 228.018 -0.68 -0.00    +0.002 A  
DOCKED: ATOM     22  C   UNL     1     141.103  69.549 228.255 -0.58 -0.00    +0.001 A  
DOCKED: ENDBRANCH  10  13
DOCKED: ENDBRANCH   8   9
DOCKED: ENDBRANCH   6   8
DOCKED: ENDBRANCH   1   6
DOCKED: BRANCH   5  23
DOCKED: ATOM     23  C   UNL     1     140.971  72.495 221.803 -0.21 -0.02    +0.181 C  
DOCKED: BRANCH  23  24
DOCKED: ATOM     24  O   UNL     1     140.410  72.998 222.969 -0.49 -0.01    -0.394 OA 
DOCKED: ATOM     25  H   UNL     1     140.045  72.310 223.573 -0.01 -0.04    +0.210 HD 
DOCKED: ENDBRANCH  23  24
DOCKED: ENDBRANCH   5  23
DOCKED: BRANCH   3  26
DOCKED: ATOM     26  O   UNL     1     140.906  76.923 221.949 -0.21 +0.15    -0.391 OA 
DOCKED: ATOM     27  H   UNL     1     141.909  76.946 221.968 -0.46 -0.16    +0.211 HD 
DOCKED: ENDBRANCH   3  26
DOCKED: TORSDOF 7
DOCKED: TER
DOCKED: ENDMDL
________________________________________________________________________________


    FINAL DOCKED STATE:
    ________________________


Run:   18 / 20
Time taken for this run:   0.037s

DOCKED: MODEL        18
DOCKED: USER    Run = 18
DOCKED: USER
DOCKED: USER    Estimated Free Energy of Binding    =  -6.83 kcal/mol  [=(1)+(2)+(3)-(4)]
DOCKED: USER
DOCKED: USER    (1) Final Intermolecular Energy     =  -8.91 kcal/mol
DOCKED: USER        vdW + Hbond + desolv Energy     =  -8.80 kcal/mol
DOCKED: USER        Electrostatic Energy            =  -0.11 kcal/mol
DOCKED: USER        Moving Ligand-Fixed Receptor    =  -8.91 kcal/mol
DOCKED: USER        Moving Ligand-Moving Receptor   =  +0.00 kcal/mol
DOCKED: USER    (2) Final Total Internal Energy     =  -1.77 kcal/mol
DOCKED: USER    (3) Torsional Free Energy           =  +2.09 kcal/mol
DOCKED: USER    (4) Unbound System's Energy         =  -1.77 kcal/mol
DOCKED: USER
DOCKED: USER
DOCKED: REMARK SMILES O=C(NCC(=O)N1C[C@H](O)C[C@H]1CO)c1ccc2ccccc2n1
DOCKED: REMARK SMILES IDX 7 1 8 2 9 3 11 4 12 5 5 6 6 7 4 8 3 9 2 10 1 11 15 13 16 14
DOCKED: REMARK SMILES IDX 24 15 17 16 23 17 18 18 22 19 19 20 21 21 20 22 13 23 14 24
DOCKED: REMARK SMILES IDX 10 26
DOCKED: REMARK H PARENT 3 12 14 25 10 27
DOCKED: USER                              x       y       z     vdW  Elec       q    Type
DOCKED: USER                           _______ _______ _______ _____ _____    ______ ____
DOCKED: ROOT
DOCKED: ATOM      1  N   UNL     1     142.677  74.046 220.744 -0.13 +0.09    -0.333 N  
DOCKED: ATOM      2  C   UNL     1     142.988  72.629 220.668 -0.21 -0.02    +0.151 C  
DOCKED: ATOM      3  C   UNL     1     144.155  72.606 219.705 -0.24 -0.01    +0.136 C  
DOCKED: ATOM      4  C   UNL     1     144.946  73.808 220.170 -0.48 -0.01    +0.061 C  
DOCKED: ATOM      5  C   UNL     1     143.884  74.831 220.463 -0.24 -0.05    +0.113 C  
DOCKED: ENDROOT
DOCKED: BRANCH   1   6
DOCKED: ATOM      6  C   UNL     1     141.428  74.658 221.039 -0.20 -0.06    +0.242 C  
DOCKED: ATOM      7  O   UNL     1     141.297  75.884 221.292 -0.25 +0.10    -0.273 OA 
DOCKED: BRANCH   6   8
DOCKED: ATOM      8  C   UNL     1     140.213  73.786 221.044 -0.17 -0.04    +0.216 C  
DOCKED: BRANCH   8   9
DOCKED: ATOM      9  N   UNL     1     140.031  73.114 222.293 -0.16 +0.04    -0.342 N  
DOCKED: ATOM     10  C   UNL     1     140.275  71.724 222.391 -0.20 -0.04    +0.270 C  
DOCKED: ATOM     11  O   UNL     1     140.657  71.086 221.355 -0.11 +0.04    -0.268 OA 
DOCKED: ATOM     12  H   UNL     1     139.717  73.675 223.116 -0.43 -0.01    +0.164 HD 
DOCKED: BRANCH  10  13
DOCKED: ATOM     13  C   UNL     1     140.094  71.020 223.662 -0.30 -0.02    +0.128 A  
DOCKED: ATOM     14  C   UNL     1     139.471  69.786 223.666 -0.26 -0.01    +0.035 A  
DOCKED: ATOM     15  N   UNL     1     140.535  71.581 224.789 -0.31 +0.04    -0.243 NA 
DOCKED: ATOM     16  C   UNL     1     139.289  69.103 224.855 -0.38 -0.00    +0.013 A  
DOCKED: ATOM     17  C   UNL     1     140.359  70.919 225.946 -0.53 -0.01    +0.071 A  
DOCKED: ATOM     18  C   UNL     1     139.746  69.686 226.026 -0.48 -0.00    +0.000 A  
DOCKED: ATOM     19  C   UNL     1     140.821  71.512 227.123 -0.73 -0.01    +0.029 A  
DOCKED: ATOM     20  C   UNL     1     139.565  69.006 227.216 -0.56 -0.00    +0.010 A  
DOCKED: ATOM     21  C   UNL     1     140.643  70.833 228.319 -0.63 -0.00    +0.002 A  
DOCKED: ATOM     22  C   UNL     1     140.025  69.599 228.373 -0.61 -0.00    +0.001 A  
DOCKED: ENDBRANCH  10  13
DOCKED: ENDBRANCH   8   9
DOCKED: ENDBRANCH   6   8
DOCKED: ENDBRANCH   1   6
DOCKED: BRANCH   5  23
DOCKED: ATOM     23  C   UNL     1     143.679  75.629 219.180 -0.23 -0.10    +0.181 C  
DOCKED: BRANCH  23  24
DOCKED: ATOM     24  O   UNL     1     143.170  76.866 219.552 -0.23 +0.30    -0.394 OA 
DOCKED: ATOM     25  H   UNL     1     143.007  76.963 220.519 -0.29 -0.20    +0.210 HD 
DOCKED: ENDBRANCH  23  24
DOCKED: ENDBRANCH   5  23
DOCKED: BRANCH   3  26
DOCKED: ATOM     26  O   UNL     1     144.857  71.420 219.909 -0.12 -0.03    -0.391 OA 
DOCKED: ATOM     27  H   UNL     1     145.184  71.466 220.856 -0.34 -0.09    +0.211 HD 
DOCKED: ENDBRANCH   3  26
DOCKED: TORSDOF 7
DOCKED: TER
DOCKED: ENDMDL
________________________________________________________________________________


    FINAL DOCKED STATE:
    ________________________


Run:   19 / 20
Time taken for this run:   0.037s

DOCKED: MODEL        19
DOCKED: USER    Run = 19
DOCKED: USER
DOCKED: USER    Estimated Free Energy of Binding    =  -6.69 kcal/mol  [=(1)+(2)+(3)-(4)]
DOCKED: USER
DOCKED: USER    (1) Final Intermolecular Energy     =  -8.78 kcal/mol
DOCKED: USER        vdW + Hbond + desolv Energy     =  -8.67 kcal/mol
DOCKED: USER        Electrostatic Energy            =  -0.11 kcal/mol
DOCKED: USER        Moving Ligand-Fixed Receptor    =  -8.78 kcal/mol
DOCKED: USER        Moving Ligand-Moving Receptor   =  +0.00 kcal/mol
DOCKED: USER    (2) Final Total Internal Energy     =  -1.75 kcal/mol
DOCKED: USER    (3) Torsional Free Energy           =  +2.09 kcal/mol
DOCKED: USER    (4) Unbound System's Energy         =  -1.75 kcal/mol
DOCKED: USER
DOCKED: USER
DOCKED: REMARK SMILES O=C(NCC(=O)N1C[C@H](O)C[C@H]1CO)c1ccc2ccccc2n1
DOCKED: REMARK SMILES IDX 7 1 8 2 9 3 11 4 12 5 5 6 6 7 4 8 3 9 2 10 1 11 15 13 16 14
DOCKED: REMARK SMILES IDX 24 15 17 16 23 17 18 18 22 19 19 20 21 21 20 22 13 23 14 24
DOCKED: REMARK SMILES IDX 10 26
DOCKED: REMARK H PARENT 3 12 14 25 10 27
DOCKED: USER                              x       y       z     vdW  Elec       q    Type
DOCKED: USER                           _______ _______ _______ _____ _____    ______ ____
DOCKED: ROOT
DOCKED: ATOM      1  N   UNL     1     141.658  75.947 219.897 -0.09 +0.14    -0.333 N  
DOCKED: ATOM      2  C   UNL     1     141.702  77.355 219.544 -0.21 -0.08    +0.151 C  
DOCKED: ATOM      3  C   UNL     1     142.929  77.427 218.660 -0.25 -0.10    +0.136 C  
DOCKED: ATOM      4  C   UNL     1     142.778  76.166 217.841 -0.21 -0.03    +0.061 C  
DOCKED: ATOM      5  C   UNL     1     142.300  75.154 218.844 -0.15 -0.04    +0.113 C  
DOCKED: ENDROOT
DOCKED: BRANCH   1   6
DOCKED: ATOM      6  C   UNL     1     141.099  75.349 221.060 -0.21 -0.07    +0.242 C  
DOCKED: ATOM      7  O   UNL     1     141.423  75.672 222.233 -0.30 +0.08    -0.273 OA 
DOCKED: BRANCH   6   8
DOCKED: ATOM      8  C   UNL     1     140.071  74.280 220.864 -0.15 -0.04    +0.216 C  
DOCKED: BRANCH   8   9
DOCKED: ATOM      9  N   UNL     1     139.835  73.528 222.056 -0.15 +0.05    -0.342 N  
DOCKED: ATOM     10  C   UNL     1     140.451  72.266 222.232 -0.20 -0.03    +0.270 C  
DOCKED: ATOM     11  O   UNL     1     141.216  71.816 221.317 -0.15 +0.03    -0.268 OA 
DOCKED: ATOM     12  H   UNL     1     139.201  73.934 222.780 -0.52 -0.05    +0.164 HD 
DOCKED: BRANCH  10  13
DOCKED: ATOM     13  C   UNL     1     140.220  71.482 223.447 -0.32 -0.02    +0.128 A  
DOCKED: ATOM     14  C   UNL     1     139.477  70.319 223.367 -0.27 -0.01    +0.035 A  
DOCKED: ATOM     15  N   UNL     1     140.729  71.904 224.604 -0.23 +0.03    -0.243 NA 
DOCKED: ATOM     16  C   UNL     1     139.245  69.563 224.502 -0.34 -0.00    +0.013 A  
DOCKED: ATOM     17  C   UNL     1     140.506  71.171 225.709 -0.53 -0.01    +0.071 A  
DOCKED: ATOM     18  C   UNL     1     139.775  70.001 225.704 -0.47 -0.00    +0.000 A  
DOCKED: ATOM     19  C   UNL     1     141.041  71.619 226.919 -0.73 -0.00    +0.029 A  
DOCKED: ATOM     20  C   UNL     1     139.545  69.247 226.840 -0.53 -0.00    +0.010 A  
DOCKED: ATOM     21  C   UNL     1     140.814  70.865 228.061 -0.69 -0.00    +0.002 A  
DOCKED: ATOM     22  C   UNL     1     140.077  69.697 228.031 -0.63 -0.00    +0.001 A  
DOCKED: ENDBRANCH  10  13
DOCKED: ENDBRANCH   8   9
DOCKED: ENDBRANCH   6   8
DOCKED: ENDBRANCH   1   6
DOCKED: BRANCH   5  23
DOCKED: ATOM     23  C   UNL     1     143.545  74.477 219.409 -0.24 -0.07    +0.181 C  
DOCKED: BRANCH  23  24
DOCKED: ATOM     24  O   UNL     1     143.983  75.261 220.469 -0.21 +0.24    -0.394 OA 
DOCKED: ATOM     25  H   UNL     1     143.309  75.403 221.173 -0.27 -0.17    +0.210 HD 
DOCKED: ENDBRANCH  23  24
DOCKED: ENDBRANCH   5  23
DOCKED: BRANCH   3  26
DOCKED: ATOM     26  O   UNL     1     142.823  78.569 217.870 -0.21 +0.37    -0.391 OA 
DOCKED: ATOM     27  H   UNL     1     143.735  78.700 217.471 -0.38 -0.32    +0.211 HD 
DOCKED: ENDBRANCH   3  26
DOCKED: TORSDOF 7
DOCKED: TER
DOCKED: ENDMDL
________________________________________________________________________________


    FINAL DOCKED STATE:
    ________________________


Run:   20 / 20
Time taken for this run:   0.037s

DOCKED: MODEL        20
DOCKED: USER    Run = 20
DOCKED: USER
DOCKED: USER    Estimated Free Energy of Binding    =  -7.04 kcal/mol  [=(1)+(2)+(3)-(4)]
DOCKED: USER
DOCKED: USER    (1) Final Intermolecular Energy     =  -9.12 kcal/mol
DOCKED: USER        vdW + Hbond + desolv Energy     =  -8.85 kcal/mol
DOCKED: USER        Electrostatic Energy            =  -0.27 kcal/mol
DOCKED: USER        Moving Ligand-Fixed Receptor    =  -9.12 kcal/mol
DOCKED: USER        Moving Ligand-Moving Receptor   =  +0.00 kcal/mol
DOCKED: USER    (2) Final Total Internal Energy     =  -1.68 kcal/mol
DOCKED: USER    (3) Torsional Free Energy           =  +2.09 kcal/mol
DOCKED: USER    (4) Unbound System's Energy         =  -1.68 kcal/mol
DOCKED: USER
DOCKED: USER
DOCKED: REMARK SMILES O=C(NCC(=O)N1C[C@H](O)C[C@H]1CO)c1ccc2ccccc2n1
DOCKED: REMARK SMILES IDX 7 1 8 2 9 3 11 4 12 5 5 6 6 7 4 8 3 9 2 10 1 11 15 13 16 14
DOCKED: REMARK SMILES IDX 24 15 17 16 23 17 18 18 22 19 19 20 21 21 20 22 13 23 14 24
DOCKED: REMARK SMILES IDX 10 26
DOCKED: REMARK H PARENT 3 12 14 25 10 27
DOCKED: USER                              x       y       z     vdW  Elec       q    Type
DOCKED: USER                           _______ _______ _______ _____ _____    ______ ____
DOCKED: ROOT
DOCKED: ATOM      1  N   UNL     1     143.141  73.212 220.350 -0.12 +0.06    -0.333 N  
DOCKED: ATOM      2  C   UNL     1     143.926  72.019 220.085 -0.23 -0.01    +0.151 C  
DOCKED: ATOM      3  C   UNL     1     145.210  72.596 219.526 -0.31 +0.03    +0.136 C  
DOCKED: ATOM      4  C   UNL     1     145.420  73.784 220.436 -0.56 -0.01    +0.061 C  
DOCKED: ATOM      5  C   UNL     1     144.036  74.345 220.603 -0.27 -0.04    +0.113 C  
DOCKED: ENDROOT
DOCKED: BRANCH   1   6
DOCKED: ATOM      6  C   UNL     1     141.725  73.344 220.380 -0.13 -0.04    +0.242 C  
DOCKED: ATOM      7  O   UNL     1     141.131  74.452 220.430 -0.13 +0.07    -0.273 OA 
DOCKED: BRANCH   6   8
DOCKED: ATOM      8  C   UNL     1     140.911  72.089 220.348 -0.09 -0.03    +0.216 C  
DOCKED: BRANCH   8   9
DOCKED: ATOM      9  N   UNL     1     140.962  71.377 221.587 -0.07 +0.04    -0.342 N  
DOCKED: ATOM     10  C   UNL     1     140.436  71.963 222.763 -0.21 -0.03    +0.270 C  
DOCKED: ATOM     11  O   UNL     1     139.920  73.127 222.699 -0.71 +0.03    -0.268 OA 
DOCKED: ATOM     12  H   UNL     1     141.394  70.426 221.594 +0.10 -0.01    +0.164 HD 
DOCKED: BRANCH  10  13
DOCKED: ATOM     13  C   UNL     1     140.480  71.248 224.040 -0.34 -0.02    +0.128 A  
DOCKED: ATOM     14  C   UNL     1     141.039  71.869 225.141 -0.25 -0.00    +0.035 A  
DOCKED: ATOM     15  N   UNL     1     139.979  70.015 224.116 -0.15 +0.04    -0.243 NA 
DOCKED: ATOM     16  C   UNL     1     141.091  71.213 226.357 -0.66 -0.00    +0.013 A  
DOCKED: ATOM     17  C   UNL     1     140.029  69.374 225.297 -0.38 -0.01    +0.071 A  
DOCKED: ATOM     18  C   UNL     1     140.572  69.931 226.437 -0.55 -0.00    +0.000 A  
DOCKED: ATOM     19  C   UNL     1     139.504  68.082 225.370 -0.47 -0.00    +0.029 A  
DOCKED: ATOM     20  C   UNL     1     140.622  69.272 227.651 -0.62 -0.00    +0.010 A  
DOCKED: ATOM     21  C   UNL     1     139.552  67.417 226.587 -0.63 -0.00    +0.002 A  
DOCKED: ATOM     22  C   UNL     1     140.102  67.997 227.714 -0.55 -0.00    +0.001 A  
DOCKED: ENDBRANCH  10  13
DOCKED: ENDBRANCH   8   9
DOCKED: ENDBRANCH   6   8
DOCKED: ENDBRANCH   1   6
DOCKED: BRANCH   5  23
DOCKED: ATOM     23  C   UNL     1     143.852  75.388 219.505 -0.19 -0.10    +0.181 C  
DOCKED: BRANCH  23  24
DOCKED: ATOM     24  O   UNL     1     143.042  76.387 220.031 -0.21 +0.28    -0.394 OA 
DOCKED: ATOM     25  H   UNL     1     142.496  76.103 220.800 -0.32 -0.15    +0.210 HD 
DOCKED: ENDBRANCH  23  24
DOCKED: ENDBRANCH   5  23
DOCKED: BRANCH   3  26
DOCKED: ATOM     26  O   UNL     1     146.214  71.644 219.684 -0.40 -0.32    -0.391 OA 
DOCKED: ATOM     27  H   UNL     1     146.252  71.462 220.670 -0.40 -0.02    +0.211 HD 
DOCKED: ENDBRANCH   3  26
DOCKED: TORSDOF 7
DOCKED: TER
DOCKED: ENDMDL
________________________________________________________________________________


    CLUSTERING HISTOGRAM
    ____________________


________________________________________________________________________________
     |           |     |           |     |
Clus | Lowest    | Run | Mean      | Num | Histogram
-ter | Binding   |     | Binding   | in  |
Rank | Energy    |     | Energy    | Clus|    5    10   15   20   25   30   35
_____|___________|_____|___________|_____|____:____|____:____|____:____|____:___
   1 |     -7.04 |  20 |     -6.50 |   5 |#####
   2 |     -7.01 |  15 |     -6.76 |   8 |########
   3 |     -6.69 |  19 |     -6.37 |   5 |#####
   4 |     -6.40 |   3 |     -6.40 |   1 |#
   5 |     -5.63 |  16 |     -5.63 |   1 |#
_____|___________|_____|___________|_____|______________________________________


    RMSD TABLE
    __________


_______________________________________________________________________
     |      |      |           |         |                 |
Rank | Sub- | Run  | Binding   | Cluster | Reference       | Grep
     | Rank |      | Energy    | RMSD    | RMSD            | Pattern
_____|______|______|___________|_________|_________________|___________
   1      1     20       -7.04      0.00    272.03           RANKING
   1      2     18       -6.83      1.47    272.13           RANKING
   1      3      2       -6.23      1.77    271.42           RANKING
   1      4      8       -6.22      1.80    271.35           RANKING
   1      5      6       -6.21      1.71    271.54           RANKING
   2      1     15       -7.01      0.00    272.39           RANKING
   2      2     12       -7.00      0.07    272.37           RANKING
   2      3      1       -7.00      0.04    272.38           RANKING
   2      4     13       -6.99      0.03    272.39           RANKING
   2      5     10       -6.70      0.56    272.21           RANKING
   2      6      7       -6.67      0.91    272.01           RANKING
   2      7     14       -6.66      0.95    272.02           RANKING
   2      8      5       -6.02      1.85    271.94           RANKING
   3      1     19       -6.69      0.00    271.85           RANKING
   3      2      4       -6.66      0.20    271.91           RANKING
   3      3      9       -6.48      1.70    272.27           RANKING
   3      4     11       -6.03      1.89    271.53           RANKING
   3      5     17       -5.97      1.87    271.56           RANKING
   4      1      3       -6.40      0.00    272.42           RANKING
   5      1     16       -5.63      0.00    271.82           RANKING

Run time 0.661 sec
Idle time 0.000 sec
