AutoDock-GPU version: v1.6

**********************************************************
**    AutoDock-GPU AUTODOCKTOOLS-COMPATIBLE DLG FILE    **
**********************************************************


    DOCKING PARAMETERS
    ________________________


Ligand file:                               /home/a/REINVENT4/ReinventStudies/pleaseWork/justmol2mol_4_Compounds_ontop/graph-dock/graph-DockGPU/node-autodockgpu/inputs/TVKMKWQMYXXDAG-AZZOHTOPNA-N.pdbqt
Grid fld file:                             /home/a/REINVENT4/ReinventStudies/mols/Rad51/maps/rad51_receptor.maps.fld

Random seed:                               42
Number of runs:                            20
Number of energy evaluations:              1259779
Number of generations:                     42000
Size of population:                        150
Rate of crossover:                         80.000000%
Tournament selection probability limit:    60.000000%
Rate of mutation:                          2.000000%
Maximal allowed delta movement:            +/- 6.000000A
Maximal allowed delta angle:               +/- 90.000000

Rate of local search:                      100.000000%
Maximal number of local search iterations: 300
Rho lower bound:                           0.010000
Spread of local search delta movement:     2.000000A
Spread of local search delta angle:        74.999999
Limit of consecutive successes/failures:   4

Handle symmetry during clustering:         YES
RMSD tolerance:                            2.000000A

Program call in command line was:          /home/a/REINVENT4/ReinventStudies/adgpu-v1.6_linux_x64_cuda12_128wi --filelist batch.txt --heuristics 1 --nrun 20 --psize 150 --lsit 300 --seed 42 --heurmax 12000000 


    GRID PARAMETERS
    ________________________


Receptor name:                             rad51_receptor
Number of grid points (x, y, z):           53, 53, 53
Grid center (x, y, z):                     139.950000, 75.640000, 221.970000A
Grid size (x, y, z):                       19.500000, 19.500000, 19.500000A
Grid spacing:                              0.375000A


    LIGAND PARAMETERS
    ________________________


Ligand name:                               /home/a/REINVENT4/ReinventStudies/pleaseWork/justmol2mol_4_Compounds_ontop/graph-dock/graph-DockGPU/node-autodockgpu/inputs/TVKMKWQMYXXDAG-AZZOHTOPNA-N
Number of atoms:                           32
Number of rotatable bonds:                 7
Number of atom types:                      8


    DUMMY DATA (only for ADT-compatibility)
    ________________________


DPF> outlev 1
DPF> ga_run 20
DPF> fld /home/a/REINVENT4/ReinventStudies/mols/Rad51/maps/rad51_receptor.maps.fld
DPF> move /home/a/REINVENT4/ReinventStudies/pleaseWork/justmol2mol_4_Compounds_ontop/graph-dock/graph-DockGPU/node-autodockgpu/inputs/TVKMKWQMYXXDAG-AZZOHTOPNA-N.pdbqt


    COUNTER STATES
    ________________________


Number of energy evaluations performed:    607469
Number of generations used:                45


    INPUT LIGAND PDBQT FILE:
    ________________________


INPUT-LIGAND-PDBQT: REMARK SMILES O=C(NCC(=O)N1CCC[C@H]1COc1ccc(Cl)cc1)c1ccc2cc(F)ccc2n1
INPUT-LIGAND-PDBQT: REMARK SMILES IDX 7 1 8 2 9 3 10 4 11 5 5 6 6 7 4 8 3 9 2 10 1 11 21 13 22 14
INPUT-LIGAND-PDBQT: REMARK SMILES IDX 31 15 23 16 30 17 24 18 29 19 25 20 28 21 26 22 27 23 12 24
INPUT-LIGAND-PDBQT: REMARK SMILES IDX 13 25 14 26 15 27 20 28 16 29 19 30 17 31 18 32
INPUT-LIGAND-PDBQT: REMARK H PARENT 3 12
INPUT-LIGAND-PDBQT: ROOT
INPUT-LIGAND-PDBQT: ATOM      1  N   UNL     1      -1.573  -2.085  -0.194  1.00  0.00    -0.335 N 
INPUT-LIGAND-PDBQT: ATOM      2  C   UNL     1      -2.095  -3.411   0.086  1.00  0.00     0.120 C 
INPUT-LIGAND-PDBQT: ATOM      3  C   UNL     1      -3.182  -3.572  -0.957  1.00  0.00     0.024 C 
INPUT-LIGAND-PDBQT: ATOM      4  C   UNL     1      -3.383  -2.206  -1.577  1.00  0.00     0.030 C 
INPUT-LIGAND-PDBQT: ATOM      5  C   UNL     1      -2.737  -1.257  -0.549  1.00  0.00     0.123 C 
INPUT-LIGAND-PDBQT: ENDROOT
INPUT-LIGAND-PDBQT: BRANCH   1   6
INPUT-LIGAND-PDBQT: ATOM      6  C   UNL     1      -0.217  -1.661  -0.141  1.00  0.00     0.242 C 
INPUT-LIGAND-PDBQT: ATOM      7  O   UNL     1       0.648  -2.515   0.185  1.00  0.00    -0.273 OA
INPUT-LIGAND-PDBQT: BRANCH   6   8
INPUT-LIGAND-PDBQT: ATOM      8  C   UNL     1       0.107  -0.249  -0.468  1.00  0.00     0.216 C 
INPUT-LIGAND-PDBQT: BRANCH   8   9
INPUT-LIGAND-PDBQT: ATOM      9  N   UNL     1       1.504   0.036  -0.374  1.00  0.00    -0.342 N 
INPUT-LIGAND-PDBQT: ATOM     10  C   UNL     1       2.222  -0.126   0.845  1.00  0.00     0.270 C 
INPUT-LIGAND-PDBQT: ATOM     11  O   UNL     1       1.598  -0.533   1.860  1.00  0.00    -0.268 OA
INPUT-LIGAND-PDBQT: ATOM     12  H   UNL     1       2.070   0.381  -1.203  1.00  0.00     0.164 HD
INPUT-LIGAND-PDBQT: BRANCH  10  13
INPUT-LIGAND-PDBQT: ATOM     13  C   UNL     1       3.649   0.176   0.901  1.00  0.00     0.128 A 
INPUT-LIGAND-PDBQT: ATOM     14  C   UNL     1       4.316   0.006   2.104  1.00  0.00     0.035 A 
INPUT-LIGAND-PDBQT: ATOM     15  N   UNL     1       4.316   0.611  -0.185  1.00  0.00    -0.243 NA
INPUT-LIGAND-PDBQT: ATOM     16  C   UNL     1       5.668   0.291   2.163  1.00  0.00     0.013 A 
INPUT-LIGAND-PDBQT: ATOM     17  C   UNL     1       5.635   0.897  -0.159  1.00  0.00     0.071 A 
INPUT-LIGAND-PDBQT: ATOM     18  C   UNL     1       6.324   0.739   1.016  1.00  0.00     0.003 A 
INPUT-LIGAND-PDBQT: ATOM     19  C   UNL     1       6.297   1.342  -1.288  1.00  0.00     0.032 A 
INPUT-LIGAND-PDBQT: ATOM     20  C   UNL     1       7.674   1.025   1.068  1.00  0.00     0.049 A 
INPUT-LIGAND-PDBQT: ATOM     21  C   UNL     1       7.660   1.641  -1.275  1.00  0.00     0.041 A 
INPUT-LIGAND-PDBQT: ATOM     22  C   UNL     1       8.323   1.469  -0.067  1.00  0.00     0.123 A 
INPUT-LIGAND-PDBQT: ATOM     23  F   UNL     1       9.639   1.758  -0.054  1.00  0.00    -0.207 F 
INPUT-LIGAND-PDBQT: ENDBRANCH  10  13
INPUT-LIGAND-PDBQT: ENDBRANCH   8   9
INPUT-LIGAND-PDBQT: ENDBRANCH   6   8
INPUT-LIGAND-PDBQT: ENDBRANCH   1   6
INPUT-LIGAND-PDBQT: BRANCH   5  24
INPUT-LIGAND-PDBQT: ATOM     24  C   UNL     1      -3.699  -1.186   0.607  1.00  0.00     0.254 C 
INPUT-LIGAND-PDBQT: BRANCH  24  25
INPUT-LIGAND-PDBQT: ATOM     25  O   UNL     1      -4.838  -0.434   0.412  1.00  0.00    -0.491 OA
INPUT-LIGAND-PDBQT: BRANCH  25  26
INPUT-LIGAND-PDBQT: ATOM     26  C   UNL     1      -5.032   0.880   0.157  1.00  0.00     0.119 A 
INPUT-LIGAND-PDBQT: ATOM     27  C   UNL     1      -4.068   1.852   0.035  1.00  0.00     0.048 A 
INPUT-LIGAND-PDBQT: ATOM     28  C   UNL     1      -6.350   1.317  -0.006  1.00  0.00     0.048 A 
INPUT-LIGAND-PDBQT: ATOM     29  C   UNL     1      -4.360   3.182  -0.231  1.00  0.00     0.024 A 
INPUT-LIGAND-PDBQT: ATOM     30  C   UNL     1      -6.646   2.625  -0.269  1.00  0.00     0.024 A 
INPUT-LIGAND-PDBQT: ATOM     31  C   UNL     1      -5.663   3.586  -0.388  1.00  0.00     0.041 A 
INPUT-LIGAND-PDBQT: ATOM     32  Cl  UNL     1      -6.021   5.257  -0.722  1.00  0.00    -0.084 Cl
INPUT-LIGAND-PDBQT: ENDBRANCH  25  26
INPUT-LIGAND-PDBQT: ENDBRANCH  24  25
INPUT-LIGAND-PDBQT: ENDBRANCH   5  24
INPUT-LIGAND-PDBQT: TORSDOF 7


    FINAL DOCKED STATE:
    ________________________


Run:   1 / 20
Time taken for this run:   0.030s

DOCKED: MODEL        1
DOCKED: USER    Run = 1
DOCKED: USER
DOCKED: USER    Estimated Free Energy of Binding    =  -5.89 kcal/mol  [=(1)+(2)+(3)-(4)]
DOCKED: USER
DOCKED: USER    (1) Final Intermolecular Energy     =  -7.97 kcal/mol
DOCKED: USER        vdW + Hbond + desolv Energy     =  -7.84 kcal/mol
DOCKED: USER        Electrostatic Energy            =  -0.13 kcal/mol
DOCKED: USER        Moving Ligand-Fixed Receptor    =  -7.97 kcal/mol
DOCKED: USER        Moving Ligand-Moving Receptor   =  +0.00 kcal/mol
DOCKED: USER    (2) Final Total Internal Energy     =  -3.83 kcal/mol
DOCKED: USER    (3) Torsional Free Energy           =  +2.09 kcal/mol
DOCKED: USER    (4) Unbound System's Energy         =  -3.83 kcal/mol
DOCKED: USER
DOCKED: USER
DOCKED: REMARK SMILES O=C(NCC(=O)N1CCC[C@H]1COc1ccc(Cl)cc1)c1ccc2cc(F)ccc2n1
DOCKED: REMARK SMILES IDX 7 1 8 2 9 3 10 4 11 5 5 6 6 7 4 8 3 9 2 10 1 11 21 13 22 14
DOCKED: REMARK SMILES IDX 31 15 23 16 30 17 24 18 29 19 25 20 28 21 26 22 27 23 12 24
DOCKED: REMARK SMILES IDX 13 25 14 26 15 27 20 28 16 29 19 30 17 31 18 32
DOCKED: REMARK H PARENT 3 12
DOCKED: USER                              x       y       z     vdW  Elec       q    Type
DOCKED: USER                           _______ _______ _______ _____ _____    ______ ____
DOCKED: ROOT
DOCKED: ATOM      1  N   UNL     1     140.535  79.183 222.749 -0.16 +0.08    -0.335 N  
DOCKED: ATOM      2  C   UNL     1     141.782  78.816 223.396 -0.51 -0.04    +0.120 C  
DOCKED: ATOM      3  C   UNL     1     142.551  80.122 223.410 -0.66 -0.01    +0.024 C  
DOCKED: ATOM      4  C   UNL     1     141.788  81.074 222.514 -0.51 -0.01    +0.030 C  
DOCKED: ATOM      5  C   UNL     1     140.894  80.133 221.684 -0.29 -0.04    +0.123 C  
DOCKED: ENDROOT
DOCKED: BRANCH   1   6
DOCKED: ATOM      6  C   UNL     1     139.227  78.726 223.070 -0.22 -0.04    +0.242 C  
DOCKED: ATOM      7  O   UNL     1     138.545  79.423 223.865 -0.23 +0.03    -0.273 OA 
DOCKED: BRANCH   6   8
DOCKED: ATOM      8  C   UNL     1     138.738  77.463 222.461 -0.21 -0.04    +0.216 C  
DOCKED: BRANCH   8   9
DOCKED: ATOM      9  N   UNL     1     139.799  76.589 222.069 -0.18 +0.08    -0.342 N  
DOCKED: ATOM     10  C   UNL     1     139.617  75.178 221.989 -0.19 -0.05    +0.270 C  
DOCKED: ATOM     11  O   UNL     1     138.487  74.701 222.274 -0.22 +0.09    -0.268 OA 
DOCKED: ATOM     12  H   UNL     1     140.766  76.946 221.820 +0.04 -0.06    +0.164 HD 
DOCKED: BRANCH  10  13
DOCKED: ATOM     13  C   UNL     1     140.725  74.319 221.585 -0.27 -0.02    +0.128 A  
DOCKED: ATOM     14  C   UNL     1     140.531  72.946 221.576 -0.27 -0.00    +0.035 A  
DOCKED: ATOM     15  N   UNL     1     141.917  74.834 221.226 -0.19 +0.07    -0.243 NA 
DOCKED: ATOM     16  C   UNL     1     141.577  72.127 221.194 -0.24 -0.00    +0.013 A  
DOCKED: ATOM     17  C   UNL     1     142.957  74.060 220.848 -0.23 -0.02    +0.071 A  
DOCKED: ATOM     18  C   UNL     1     142.796  72.698 220.828 -0.28 -0.00    +0.003 A  
DOCKED: ATOM     19  C   UNL     1     144.170  74.613 220.484 -0.40 -0.01    +0.032 A  
DOCKED: ATOM     20  C   UNL     1     143.845  71.886 220.446 -0.29 -0.01    +0.049 A  
DOCKED: ATOM     21  C   UNL     1     145.253  73.825 220.092 -0.49 -0.01    +0.041 A  
DOCKED: ATOM     22  C   UNL     1     145.052  72.451 220.085 -0.35 +0.00    +0.123 A  
DOCKED: ATOM     23  F   UNL     1     146.097  71.690 219.706 -0.09 -0.15    -0.207 F  
DOCKED: ENDBRANCH  10  13
DOCKED: ENDBRANCH   8   9
DOCKED: ENDBRANCH   6   8
DOCKED: ENDBRANCH   1   6
DOCKED: BRANCH   5  24
DOCKED: ATOM     24  C   UNL     1     141.806  79.474 220.683 -0.19 -0.13    +0.254 C  
DOCKED: BRANCH  24  25
DOCKED: ATOM     25  O   UNL     1     141.601  78.130 220.457 -0.08 +0.28    -0.491 OA 
DOCKED: BRANCH  25  26
DOCKED: ATOM     26  C   UNL     1     141.805  77.344 219.376 -0.22 -0.06    +0.119 A  
DOCKED: ATOM     27  C   UNL     1     140.938  76.416 218.850 -0.10 -0.02    +0.048 A  
DOCKED: ATOM     28  C   UNL     1     143.023  77.476 218.704 -0.27 -0.04    +0.048 A  
DOCKED: ATOM     29  C   UNL     1     141.231  75.652 217.730 -0.06 -0.01    +0.024 A  
DOCKED: ATOM     30  C   UNL     1     143.320  76.728 217.599 -0.27 -0.02    +0.024 A  
DOCKED: ATOM     31  C   UNL     1     142.435  75.801 217.086 -0.12 -0.02    +0.041 A  
DOCKED: ATOM     32  Cl  UNL     1     142.796  74.839 215.681 -0.07 +0.03    -0.084 Cl 
DOCKED: ENDBRANCH  25  26
DOCKED: ENDBRANCH  24  25
DOCKED: ENDBRANCH   5  24
DOCKED: TORSDOF 7
DOCKED: TER
DOCKED: ENDMDL
________________________________________________________________________________


    FINAL DOCKED STATE:
    ________________________


Run:   2 / 20
Time taken for this run:   0.030s

DOCKED: MODEL        2
DOCKED: USER    Run = 2
DOCKED: USER
DOCKED: USER    Estimated Free Energy of Binding    =  -8.07 kcal/mol  [=(1)+(2)+(3)-(4)]
DOCKED: USER
DOCKED: USER    (1) Final Intermolecular Energy     = -10.15 kcal/mol
DOCKED: USER        vdW + Hbond + desolv Energy     = -10.10 kcal/mol
DOCKED: USER        Electrostatic Energy            =  -0.05 kcal/mol
DOCKED: USER        Moving Ligand-Fixed Receptor    = -10.15 kcal/mol
DOCKED: USER        Moving Ligand-Moving Receptor   =  +0.00 kcal/mol
DOCKED: USER    (2) Final Total Internal Energy     =  -1.65 kcal/mol
DOCKED: USER    (3) Torsional Free Energy           =  +2.09 kcal/mol
DOCKED: USER    (4) Unbound System's Energy         =  -1.65 kcal/mol
DOCKED: USER
DOCKED: USER
DOCKED: REMARK SMILES O=C(NCC(=O)N1CCC[C@H]1COc1ccc(Cl)cc1)c1ccc2cc(F)ccc2n1
DOCKED: REMARK SMILES IDX 7 1 8 2 9 3 10 4 11 5 5 6 6 7 4 8 3 9 2 10 1 11 21 13 22 14
DOCKED: REMARK SMILES IDX 31 15 23 16 30 17 24 18 29 19 25 20 28 21 26 22 27 23 12 24
DOCKED: REMARK SMILES IDX 13 25 14 26 15 27 20 28 16 29 19 30 17 31 18 32
DOCKED: REMARK H PARENT 3 12
DOCKED: USER                              x       y       z     vdW  Elec       q    Type
DOCKED: USER                           _______ _______ _______ _____ _____    ______ ____
DOCKED: ROOT
DOCKED: ATOM      1  N   UNL     1     143.486  73.007 219.434 -0.06 +0.05    -0.335 N  
DOCKED: ATOM      2  C   UNL     1     144.678  73.090 218.608 -0.19 +0.00    +0.120 C  
DOCKED: ATOM      3  C   UNL     1     145.767  73.393 219.617 -0.43 +0.00    +0.024 C  
DOCKED: ATOM      4  C   UNL     1     145.063  73.736 220.913 -0.53 -0.01    +0.030 C  
DOCKED: ATOM      5  C   UNL     1     143.627  74.057 220.457 -0.32 -0.04    +0.123 C  
DOCKED: ENDROOT
DOCKED: BRANCH   1   6
DOCKED: ATOM      6  C   UNL     1     142.400  72.100 219.295 -0.06 -0.04    +0.242 C  
DOCKED: ATOM      7  O   UNL     1     142.597  71.054 218.624 -0.03 +0.03    -0.273 OA 
DOCKED: BRANCH   6   8
DOCKED: ATOM      8  C   UNL     1     141.103  72.429 219.940 -0.07 -0.04    +0.216 C  
DOCKED: BRANCH   8   9
DOCKED: ATOM      9  N   UNL     1     140.866  71.671 221.128 -0.08 +0.05    -0.342 N  
DOCKED: ATOM     10  C   UNL     1     140.436  72.287 222.337 -0.21 -0.03    +0.270 C  
DOCKED: ATOM     11  O   UNL     1     140.263  73.534 222.348 -0.81 +0.00    -0.268 OA 
DOCKED: ATOM     12  H   UNL     1     140.999  70.619 221.165 +0.05 -0.02    +0.164 HD 
DOCKED: BRANCH  10  13
DOCKED: ATOM     13  C   UNL     1     140.204  71.478 223.530 -0.33 -0.02    +0.128 A  
DOCKED: ATOM     14  C   UNL     1     139.490  70.297 223.402 -0.27 -0.01    +0.035 A  
DOCKED: ATOM     15  N   UNL     1     140.668  71.859 224.736 -0.27 +0.03    -0.243 NA 
DOCKED: ATOM     16  C   UNL     1     139.267  69.527 224.528 -0.35 -0.00    +0.013 A  
DOCKED: ATOM     17  C   UNL     1     140.467  71.128 225.853 -0.54 -0.01    +0.071 A  
DOCKED: ATOM     18  C   UNL     1     139.764  69.955 225.760 -0.47 -0.00    +0.003 A  
DOCKED: ATOM     19  C   UNL     1     140.954  71.541 227.079 -0.73 -0.01    +0.032 A  
DOCKED: ATOM     20  C   UNL     1     139.545  69.190 226.889 -0.50 -0.01    +0.049 A  
DOCKED: ATOM     21  C   UNL     1     140.754  70.796 228.242 -0.60 -0.01    +0.041 A  
DOCKED: ATOM     22  C   UNL     1     140.037  69.613 228.107 -0.52 -0.02    +0.123 A  
DOCKED: ATOM     23  F   UNL     1     139.843  68.894 229.230 -0.06 +0.03    -0.207 F  
DOCKED: ENDBRANCH  10  13
DOCKED: ENDBRANCH   8   9
DOCKED: ENDBRANCH   6   8
DOCKED: ENDBRANCH   1   6
DOCKED: BRANCH   5  24
DOCKED: ATOM     24  C   UNL     1     143.695  75.413 219.806 -0.25 -0.14    +0.254 C  
DOCKED: BRANCH  24  25
DOCKED: ATOM     25  O   UNL     1     142.505  76.101 219.697 -0.11 +0.26    -0.491 OA 
DOCKED: BRANCH  25  26
DOCKED: ATOM     26  C   UNL     1     141.778  76.814 220.587 -0.21 -0.07    +0.119 A  
DOCKED: ATOM     27  C   UNL     1     140.931  76.320 221.550 -0.33 -0.02    +0.048 A  
DOCKED: ATOM     28  C   UNL     1     141.888  78.207 220.540 -0.27 -0.03    +0.048 A  
DOCKED: ATOM     29  C   UNL     1     140.222  77.130 222.426 -0.38 -0.01    +0.024 A  
DOCKED: ATOM     30  C   UNL     1     141.194  79.011 221.400 -0.33 -0.01    +0.024 A  
DOCKED: ATOM     31  C   UNL     1     140.348  78.496 222.361 -0.35 -0.01    +0.041 A  
DOCKED: ATOM     32  Cl  UNL     1     139.456  79.505 223.464 -0.50 +0.01    -0.084 Cl 
DOCKED: ENDBRANCH  25  26
DOCKED: ENDBRANCH  24  25
DOCKED: ENDBRANCH   5  24
DOCKED: TORSDOF 7
DOCKED: TER
DOCKED: ENDMDL
________________________________________________________________________________


    FINAL DOCKED STATE:
    ________________________


Run:   3 / 20
Time taken for this run:   0.030s

DOCKED: MODEL        3
DOCKED: USER    Run = 3
DOCKED: USER
DOCKED: USER    Estimated Free Energy of Binding    =  -6.87 kcal/mol  [=(1)+(2)+(3)-(4)]
DOCKED: USER
DOCKED: USER    (1) Final Intermolecular Energy     =  -8.96 kcal/mol
DOCKED: USER        vdW + Hbond + desolv Energy     =  -8.86 kcal/mol
DOCKED: USER        Electrostatic Energy            =  -0.10 kcal/mol
DOCKED: USER        Moving Ligand-Fixed Receptor    =  -8.96 kcal/mol
DOCKED: USER        Moving Ligand-Moving Receptor   =  +0.00 kcal/mol
DOCKED: USER    (2) Final Total Internal Energy     =  -2.77 kcal/mol
DOCKED: USER    (3) Torsional Free Energy           =  +2.09 kcal/mol
DOCKED: USER    (4) Unbound System's Energy         =  -2.77 kcal/mol
DOCKED: USER
DOCKED: USER
DOCKED: REMARK SMILES O=C(NCC(=O)N1CCC[C@H]1COc1ccc(Cl)cc1)c1ccc2cc(F)ccc2n1
DOCKED: REMARK SMILES IDX 7 1 8 2 9 3 10 4 11 5 5 6 6 7 4 8 3 9 2 10 1 11 21 13 22 14
DOCKED: REMARK SMILES IDX 31 15 23 16 30 17 24 18 29 19 25 20 28 21 26 22 27 23 12 24
DOCKED: REMARK SMILES IDX 13 25 14 26 15 27 20 28 16 29 19 30 17 31 18 32
DOCKED: REMARK H PARENT 3 12
DOCKED: USER                              x       y       z     vdW  Elec       q    Type
DOCKED: USER                           _______ _______ _______ _____ _____    ______ ____
DOCKED: ROOT
DOCKED: ATOM      1  N   UNL     1     139.466  73.711 219.808 -0.01 +0.07    -0.335 N  
DOCKED: ATOM      2  C   UNL     1     139.929  75.003 219.333 -0.05 -0.03    +0.120 C  
DOCKED: ATOM      3  C   UNL     1     141.326  74.697 218.832 -0.09 -0.01    +0.024 C  
DOCKED: ATOM      4  C   UNL     1     141.656  73.302 219.318 -0.10 -0.01    +0.030 C  
DOCKED: ATOM      5  C   UNL     1     140.629  73.072 220.444 -0.13 -0.02    +0.123 C  
DOCKED: ENDROOT
DOCKED: BRANCH   1   6
DOCKED: ATOM      6  C   UNL     1     138.159  73.163 219.688 -0.02 -0.05    +0.242 C  
DOCKED: ATOM      7  O   UNL     1     137.786  72.792 218.545 -0.00 +0.05    -0.273 OA 
DOCKED: BRANCH   6   8
DOCKED: ATOM      8  C   UNL     1     137.311  73.059 220.902 -0.05 -0.05    +0.216 C  
DOCKED: BRANCH   8   9
DOCKED: ATOM      9  N   UNL     1     138.049  72.676 222.064 -0.07 +0.10    -0.342 N  
DOCKED: ATOM     10  C   UNL     1     138.252  71.309 222.407 -0.11 -0.06    +0.270 C  
DOCKED: ATOM     11  O   UNL     1     137.765  70.423 221.657 -0.04 +0.05    -0.268 OA 
DOCKED: ATOM     12  H   UNL     1     138.477  73.388 222.724 -0.52 -0.08    +0.164 HD 
DOCKED: BRANCH  10  13
DOCKED: ATOM     13  C   UNL     1     139.012  70.958 223.603 -0.26 -0.03    +0.128 A  
DOCKED: ATOM     14  C   UNL     1     139.986  71.837 224.051 -0.32 -0.01    +0.035 A  
DOCKED: ATOM     15  N   UNL     1     138.782  69.810 224.267 -0.17 +0.04    -0.243 NA 
DOCKED: ATOM     16  C   UNL     1     140.710  71.509 225.183 -0.54 -0.00    +0.013 A  
DOCKED: ATOM     17  C   UNL     1     139.471  69.463 225.375 -0.38 -0.01    +0.071 A  
DOCKED: ATOM     18  C   UNL     1     140.442  70.310 225.844 -0.53 -0.00    +0.003 A  
DOCKED: ATOM     19  C   UNL     1     139.216  68.277 226.039 -0.52 -0.00    +0.032 A  
DOCKED: ATOM     20  C   UNL     1     141.160  69.978 226.975 -0.49 -0.01    +0.049 A  
DOCKED: ATOM     21  C   UNL     1     139.920  67.907 227.185 -0.61 -0.01    +0.041 A  
DOCKED: ATOM     22  C   UNL     1     140.895  68.790 227.629 -0.53 -0.03    +0.123 A  
DOCKED: ATOM     23  F   UNL     1     141.576  68.433 228.735 -0.16 +0.06    -0.207 F  
DOCKED: ENDBRANCH  10  13
DOCKED: ENDBRANCH   8   9
DOCKED: ENDBRANCH   6   8
DOCKED: ENDBRANCH   1   6
DOCKED: BRANCH   5  24
DOCKED: ATOM     24  C   UNL     1     141.105  73.897 221.610 -0.15 -0.02    +0.254 C  
DOCKED: BRANCH  24  25
DOCKED: ATOM     25  O   UNL     1     140.158  74.682 222.233 -0.65 +0.01    -0.491 OA 
DOCKED: BRANCH  25  26
DOCKED: ATOM     26  C   UNL     1     140.056  76.019 222.413 -0.24 -0.02    +0.119 A  
DOCKED: ATOM     27  C   UNL     1     141.086  76.926 222.488 -0.34 -0.02    +0.048 A  
DOCKED: ATOM     28  C   UNL     1     138.771  76.556 222.536 -0.29 -0.01    +0.048 A  
DOCKED: ATOM     29  C   UNL     1     140.887  78.287 222.673 -0.46 -0.01    +0.024 A  
DOCKED: ATOM     30  C   UNL     1     138.567  77.895 222.718 -0.29 -0.00    +0.024 A  
DOCKED: ATOM     31  C   UNL     1     139.614  78.790 222.791 -0.33 -0.01    +0.041 A  
DOCKED: ATOM     32  Cl  UNL     1     139.373  80.499 223.023 -0.43 +0.01    -0.084 Cl 
DOCKED: ENDBRANCH  25  26
DOCKED: ENDBRANCH  24  25
DOCKED: ENDBRANCH   5  24
DOCKED: TORSDOF 7
DOCKED: TER
DOCKED: ENDMDL
________________________________________________________________________________


    FINAL DOCKED STATE:
    ________________________


Run:   4 / 20
Time taken for this run:   0.030s

DOCKED: MODEL        4
DOCKED: USER    Run = 4
DOCKED: USER
DOCKED: USER    Estimated Free Energy of Binding    =  -7.39 kcal/mol  [=(1)+(2)+(3)-(4)]
DOCKED: USER
DOCKED: USER    (1) Final Intermolecular Energy     =  -9.47 kcal/mol
DOCKED: USER        vdW + Hbond + desolv Energy     =  -9.45 kcal/mol
DOCKED: USER        Electrostatic Energy            =  -0.02 kcal/mol
DOCKED: USER        Moving Ligand-Fixed Receptor    =  -9.47 kcal/mol
DOCKED: USER        Moving Ligand-Moving Receptor   =  +0.00 kcal/mol
DOCKED: USER    (2) Final Total Internal Energy     =  -2.08 kcal/mol
DOCKED: USER    (3) Torsional Free Energy           =  +2.09 kcal/mol
DOCKED: USER    (4) Unbound System's Energy         =  -2.08 kcal/mol
DOCKED: USER
DOCKED: USER
DOCKED: REMARK SMILES O=C(NCC(=O)N1CCC[C@H]1COc1ccc(Cl)cc1)c1ccc2cc(F)ccc2n1
DOCKED: REMARK SMILES IDX 7 1 8 2 9 3 10 4 11 5 5 6 6 7 4 8 3 9 2 10 1 11 21 13 22 14
DOCKED: REMARK SMILES IDX 31 15 23 16 30 17 24 18 29 19 25 20 28 21 26 22 27 23 12 24
DOCKED: REMARK SMILES IDX 13 25 14 26 15 27 20 28 16 29 19 30 17 31 18 32
DOCKED: REMARK H PARENT 3 12
DOCKED: USER                              x       y       z     vdW  Elec       q    Type
DOCKED: USER                           _______ _______ _______ _____ _____    ______ ____
DOCKED: ROOT
DOCKED: ATOM      1  N   UNL     1     138.947  72.784 221.043 -0.04 +0.07    -0.335 N  
DOCKED: ATOM      2  C   UNL     1     139.943  72.091 220.244 -0.08 -0.02    +0.120 C  
DOCKED: ATOM      3  C   UNL     1     141.029  71.782 221.255 -0.21 -0.00    +0.024 C  
DOCKED: ATOM      4  C   UNL     1     140.689  72.572 222.500 -0.25 -0.00    +0.030 C  
DOCKED: ATOM      5  C   UNL     1     139.699  73.632 221.982 -0.22 -0.02    +0.123 C  
DOCKED: ENDROOT
DOCKED: BRANCH   1   6
DOCKED: ATOM      6  C   UNL     1     137.533  72.673 220.947 -0.05 -0.05    +0.242 C  
DOCKED: ATOM      7  O   UNL     1     137.026  72.663 219.796 -0.01 +0.05    -0.273 OA 
DOCKED: BRANCH   6   8
DOCKED: ATOM      8  C   UNL     1     136.735  72.577 222.196 -0.09 -0.05    +0.216 C  
DOCKED: BRANCH   8   9
DOCKED: ATOM      9  N   UNL     1     137.429  71.904 223.248 -0.07 +0.11    -0.342 N  
DOCKED: ATOM     10  C   UNL     1     137.860  70.553 223.119 -0.13 -0.05    +0.270 C  
DOCKED: ATOM     11  O   UNL     1     137.618  69.946 222.043 -0.05 +0.05    -0.268 OA 
DOCKED: ATOM     12  H   UNL     1     137.654  72.376 224.172 -0.46 -0.10    +0.164 HD 
DOCKED: BRANCH  10  13
DOCKED: ATOM     13  C   UNL     1     138.566  69.901 224.217 -0.26 -0.02    +0.128 A  
DOCKED: ATOM     14  C   UNL     1     138.661  68.518 224.215 -0.33 -0.00    +0.035 A  
DOCKED: ATOM     15  N   UNL     1     139.119  70.614 225.216 -0.18 +0.04    -0.243 NA 
DOCKED: ATOM     16  C   UNL     1     139.329  67.894 225.253 -0.44 -0.00    +0.013 A  
DOCKED: ATOM     17  C   UNL     1     139.777  70.034 226.243 -0.44 -0.01    +0.071 A  
DOCKED: ATOM     18  C   UNL     1     139.889  68.668 226.270 -0.56 -0.00    +0.003 A  
DOCKED: ATOM     19  C   UNL     1     140.335  70.789 227.257 -0.62 -0.01    +0.032 A  
DOCKED: ATOM     20  C   UNL     1     140.557  68.051 227.310 -0.63 -0.01    +0.049 A  
DOCKED: ATOM     21  C   UNL     1     141.018  70.203 228.324 -0.53 -0.01    +0.041 A  
DOCKED: ATOM     22  C   UNL     1     141.110  68.817 228.317 -0.51 -0.03    +0.123 A  
DOCKED: ATOM     23  F   UNL     1     141.769  68.251 229.347 -0.13 +0.05    -0.207 F  
DOCKED: ENDBRANCH  10  13
DOCKED: ENDBRANCH   8   9
DOCKED: ENDBRANCH   6   8
DOCKED: ENDBRANCH   1   6
DOCKED: BRANCH   5  24
DOCKED: ATOM     24  C   UNL     1     140.529  74.637 221.229 -0.20 -0.05    +0.254 C  
DOCKED: BRANCH  24  25
DOCKED: ATOM     25  O   UNL     1     141.089  75.652 221.974 -0.32 +0.13    -0.491 OA 
DOCKED: BRANCH  25  26
DOCKED: ATOM     26  C   UNL     1     140.599  76.826 222.434 -0.34 -0.03    +0.119 A  
DOCKED: ATOM     27  C   UNL     1     141.313  77.867 222.977 -0.42 -0.02    +0.048 A  
DOCKED: ATOM     28  C   UNL     1     139.217  77.021 222.355 -0.31 -0.01    +0.048 A  
DOCKED: ATOM     29  C   UNL     1     140.723  79.041 223.424 -0.49 -0.01    +0.024 A  
DOCKED: ATOM     30  C   UNL     1     138.628  78.175 222.792 -0.28 -0.00    +0.024 A  
DOCKED: ATOM     31  C   UNL     1     139.363  79.209 223.334 -0.36 -0.01    +0.041 A  
DOCKED: ATOM     32  Cl  UNL     1     138.631  80.686 223.897 -0.46 +0.01    -0.084 Cl 
DOCKED: ENDBRANCH  25  26
DOCKED: ENDBRANCH  24  25
DOCKED: ENDBRANCH   5  24
DOCKED: TORSDOF 7
DOCKED: TER
DOCKED: ENDMDL
________________________________________________________________________________


    FINAL DOCKED STATE:
    ________________________


Run:   5 / 20
Time taken for this run:   0.030s

DOCKED: MODEL        5
DOCKED: USER    Run = 5
DOCKED: USER
DOCKED: USER    Estimated Free Energy of Binding    =  -5.85 kcal/mol  [=(1)+(2)+(3)-(4)]
DOCKED: USER
DOCKED: USER    (1) Final Intermolecular Energy     =  -7.94 kcal/mol
DOCKED: USER        vdW + Hbond + desolv Energy     =  -7.76 kcal/mol
DOCKED: USER        Electrostatic Energy            =  -0.18 kcal/mol
DOCKED: USER        Moving Ligand-Fixed Receptor    =  -7.94 kcal/mol
DOCKED: USER        Moving Ligand-Moving Receptor   =  +0.00 kcal/mol
DOCKED: USER    (2) Final Total Internal Energy     =  -3.99 kcal/mol
DOCKED: USER    (3) Torsional Free Energy           =  +2.09 kcal/mol
DOCKED: USER    (4) Unbound System's Energy         =  -3.99 kcal/mol
DOCKED: USER
DOCKED: USER
DOCKED: REMARK SMILES O=C(NCC(=O)N1CCC[C@H]1COc1ccc(Cl)cc1)c1ccc2cc(F)ccc2n1
DOCKED: REMARK SMILES IDX 7 1 8 2 9 3 10 4 11 5 5 6 6 7 4 8 3 9 2 10 1 11 21 13 22 14
DOCKED: REMARK SMILES IDX 31 15 23 16 30 17 24 18 29 19 25 20 28 21 26 22 27 23 12 24
DOCKED: REMARK SMILES IDX 13 25 14 26 15 27 20 28 16 29 19 30 17 31 18 32
DOCKED: REMARK H PARENT 3 12
DOCKED: USER                              x       y       z     vdW  Elec       q    Type
DOCKED: USER                           _______ _______ _______ _____ _____    ______ ____
DOCKED: ROOT
DOCKED: ATOM      1  N   UNL     1     140.927  79.363 222.525 -0.17 +0.10    -0.335 N  
DOCKED: ATOM      2  C   UNL     1     142.302  79.259 222.983 -0.49 -0.05    +0.120 C  
DOCKED: ATOM      3  C   UNL     1     142.848  80.649 222.727 -0.53 -0.01    +0.024 C  
DOCKED: ATOM      4  C   UNL     1     141.815  81.363 221.882 -0.43 -0.01    +0.030 C  
DOCKED: ATOM      5  C   UNL     1     140.963  80.209 221.321 -0.27 -0.04    +0.123 C  
DOCKED: ENDROOT
DOCKED: BRANCH   1   6
DOCKED: ATOM      6  C   UNL     1     139.774  78.775 223.113 -0.24 -0.04    +0.242 C  
DOCKED: ATOM      7  O   UNL     1     139.284  79.339 224.125 -0.28 +0.03    -0.273 OA 
DOCKED: BRANCH   6   8
DOCKED: ATOM      8  C   UNL     1     139.213  77.539 222.510 -0.21 -0.04    +0.216 C  
DOCKED: BRANCH   8   9
DOCKED: ATOM      9  N   UNL     1     140.222  76.637 222.051 -0.19 +0.09    -0.342 N  
DOCKED: ATOM     10  C   UNL     1     139.993  75.234 221.970 -0.18 -0.04    +0.270 C  
DOCKED: ATOM     11  O   UNL     1     138.868  74.788 222.315 -0.38 +0.07    -0.268 OA 
DOCKED: ATOM     12  H   UNL     1     141.185  76.968 221.751 -0.04 -0.08    +0.164 HD 
DOCKED: BRANCH  10  13
DOCKED: ATOM     13  C   UNL     1     141.050  74.346 221.496 -0.25 -0.02    +0.128 A  
DOCKED: ATOM     14  C   UNL     1     140.763  72.999 221.341 -0.25 -0.00    +0.035 A  
DOCKED: ATOM     15  N   UNL     1     142.281  74.811 221.212 -0.11 +0.08    -0.243 NA 
DOCKED: ATOM     16  C   UNL     1     141.761  72.152 220.892 -0.22 -0.00    +0.013 A  
DOCKED: ATOM     17  C   UNL     1     143.275  74.010 220.772 -0.26 -0.02    +0.071 A  
DOCKED: ATOM     18  C   UNL     1     143.023  72.672 220.607 -0.29 -0.00    +0.003 A  
DOCKED: ATOM     19  C   UNL     1     144.531  74.512 220.486 -0.46 -0.01    +0.032 A  
DOCKED: ATOM     20  C   UNL     1     144.024  71.832 220.159 -0.28 -0.00    +0.049 A  
DOCKED: ATOM     21  C   UNL     1     145.567  73.696 220.031 -0.49 -0.00    +0.041 A  
DOCKED: ATOM     22  C   UNL     1     145.274  72.347 219.877 -0.34 +0.02    +0.123 A  
DOCKED: ATOM     23  F   UNL     1     146.274  71.558 219.438 -0.04 -0.22    -0.207 F  
DOCKED: ENDBRANCH  10  13
DOCKED: ENDBRANCH   8   9
DOCKED: ENDBRANCH   6   8
DOCKED: ENDBRANCH   1   6
DOCKED: BRANCH   5  24
DOCKED: ATOM     24  C   UNL     1     141.802  79.559 220.252 -0.18 -0.14    +0.254 C  
DOCKED: BRANCH  24  25
DOCKED: ATOM     25  O   UNL     1     141.780  78.181 220.207 -0.09 +0.29    -0.491 OA 
DOCKED: BRANCH  25  26
DOCKED: ATOM     26  C   UNL     1     142.101  77.294 219.239 -0.24 -0.07    +0.119 A  
DOCKED: ATOM     27  C   UNL     1     143.316  77.155 218.612 -0.27 -0.04    +0.048 A  
DOCKED: ATOM     28  C   UNL     1     141.102  76.412 218.816 -0.11 -0.02    +0.048 A  
DOCKED: ATOM     29  C   UNL     1     143.557  76.211 217.624 -0.23 -0.01    +0.024 A  
DOCKED: ATOM     30  C   UNL     1     141.332  75.478 217.845 -0.06 -0.01    +0.024 A  
DOCKED: ATOM     31  C   UNL     1     142.560  75.354 217.228 -0.11 -0.02    +0.041 A  
DOCKED: ATOM     32  Cl  UNL     1     142.871  74.171 215.988 -0.06 +0.02    -0.084 Cl 
DOCKED: ENDBRANCH  25  26
DOCKED: ENDBRANCH  24  25
DOCKED: ENDBRANCH   5  24
DOCKED: TORSDOF 7
DOCKED: TER
DOCKED: ENDMDL
________________________________________________________________________________


    FINAL DOCKED STATE:
    ________________________


Run:   6 / 20
Time taken for this run:   0.030s

DOCKED: MODEL        6
DOCKED: USER    Run = 6
DOCKED: USER
DOCKED: USER    Estimated Free Energy of Binding    =  -5.83 kcal/mol  [=(1)+(2)+(3)-(4)]
DOCKED: USER
DOCKED: USER    (1) Final Intermolecular Energy     =  -7.92 kcal/mol
DOCKED: USER        vdW + Hbond + desolv Energy     =  -7.73 kcal/mol
DOCKED: USER        Electrostatic Energy            =  -0.19 kcal/mol
DOCKED: USER        Moving Ligand-Fixed Receptor    =  -7.92 kcal/mol
DOCKED: USER        Moving Ligand-Moving Receptor   =  +0.00 kcal/mol
DOCKED: USER    (2) Final Total Internal Energy     =  -3.99 kcal/mol
DOCKED: USER    (3) Torsional Free Energy           =  +2.09 kcal/mol
DOCKED: USER    (4) Unbound System's Energy         =  -3.99 kcal/mol
DOCKED: USER
DOCKED: USER
DOCKED: REMARK SMILES O=C(NCC(=O)N1CCC[C@H]1COc1ccc(Cl)cc1)c1ccc2cc(F)ccc2n1
DOCKED: REMARK SMILES IDX 7 1 8 2 9 3 10 4 11 5 5 6 6 7 4 8 3 9 2 10 1 11 21 13 22 14
DOCKED: REMARK SMILES IDX 31 15 23 16 30 17 24 18 29 19 25 20 28 21 26 22 27 23 12 24
DOCKED: REMARK SMILES IDX 13 25 14 26 15 27 20 28 16 29 19 30 17 31 18 32
DOCKED: REMARK H PARENT 3 12
DOCKED: USER                              x       y       z     vdW  Elec       q    Type
DOCKED: USER                           _______ _______ _______ _____ _____    ______ ____
DOCKED: ROOT
DOCKED: ATOM      1  N   UNL     1     140.760  79.273 222.508 -0.15 +0.09    -0.335 N  
DOCKED: ATOM      2  C   UNL     1     142.079  79.120 223.096 -0.50 -0.05    +0.120 C  
DOCKED: ATOM      3  C   UNL     1     142.698  80.488 222.892 -0.62 -0.01    +0.024 C  
DOCKED: ATOM      4  C   UNL     1     141.779  81.235 221.950 -0.45 -0.01    +0.030 C  
DOCKED: ATOM      5  C   UNL     1     140.943  80.110 221.311 -0.26 -0.04    +0.123 C  
DOCKED: ENDROOT
DOCKED: BRANCH   1   6
DOCKED: ATOM      6  C   UNL     1     139.534  78.730 222.983 -0.23 -0.04    +0.242 C  
DOCKED: ATOM      7  O   UNL     1     138.949  79.341 223.914 -0.26 +0.03    -0.273 OA 
DOCKED: BRANCH   6   8
DOCKED: ATOM      8  C   UNL     1     139.013  77.485 222.364 -0.22 -0.04    +0.216 C  
DOCKED: BRANCH   8   9
DOCKED: ATOM      9  N   UNL     1     140.051  76.599 221.940 -0.18 +0.09    -0.342 N  
DOCKED: ATOM     10  C   UNL     1     139.878  75.185 221.942 -0.19 -0.04    +0.270 C  
DOCKED: ATOM     11  O   UNL     1     138.775  74.716 222.329 -0.33 +0.08    -0.268 OA 
DOCKED: ATOM     12  H   UNL     1     140.996  76.950 221.607 +0.02 -0.07    +0.164 HD 
DOCKED: BRANCH  10  13
DOCKED: ATOM     13  C   UNL     1     140.963  74.313 221.503 -0.26 -0.02    +0.128 A  
DOCKED: ATOM     14  C   UNL     1     140.716  72.954 221.387 -0.26 -0.00    +0.035 A  
DOCKED: ATOM     15  N   UNL     1     142.182  74.805 221.212 -0.14 +0.08    -0.243 NA 
DOCKED: ATOM     16  C   UNL     1     141.740  72.123 220.971 -0.23 -0.00    +0.013 A  
DOCKED: ATOM     17  C   UNL     1     143.202  74.019 220.803 -0.25 -0.02    +0.071 A  
DOCKED: ATOM     18  C   UNL     1     142.989  72.670 220.678 -0.28 -0.00    +0.003 A  
DOCKED: ATOM     19  C   UNL     1     144.445  74.548 220.511 -0.43 -0.01    +0.032 A  
DOCKED: ATOM     20  C   UNL     1     144.016  71.846 220.262 -0.29 -0.01    +0.049 A  
DOCKED: ATOM     21  C   UNL     1     145.507  73.748 220.087 -0.51 -0.00    +0.041 A  
DOCKED: ATOM     22  C   UNL     1     145.253  72.387 219.973 -0.35 +0.01    +0.123 A  
DOCKED: ATOM     23  F   UNL     1     146.278  71.614 219.565 -0.06 -0.20    -0.207 F  
DOCKED: ENDBRANCH  10  13
DOCKED: ENDBRANCH   8   9
DOCKED: ENDBRANCH   6   8
DOCKED: ENDBRANCH   1   6
DOCKED: BRANCH   5  24
DOCKED: ATOM     24  C   UNL     1     141.856  79.425 220.330 -0.14 -0.14    +0.254 C  
DOCKED: BRANCH  24  25
DOCKED: ATOM     25  O   UNL     1     141.652  78.074 220.142 -0.08 +0.28    -0.491 OA 
DOCKED: BRANCH  25  26
DOCKED: ATOM     26  C   UNL     1     142.081  77.209 219.195 -0.24 -0.07    +0.119 A  
DOCKED: ATOM     27  C   UNL     1     143.327  77.163 218.617 -0.26 -0.04    +0.048 A  
DOCKED: ATOM     28  C   UNL     1     141.173  76.246 218.744 -0.10 -0.02    +0.048 A  
DOCKED: ATOM     29  C   UNL     1     143.681  76.234 217.649 -0.22 -0.01    +0.024 A  
DOCKED: ATOM     30  C   UNL     1     141.514  75.328 217.791 -0.07 -0.01    +0.024 A  
DOCKED: ATOM     31  C   UNL     1     142.771  75.298 217.223 -0.13 -0.02    +0.041 A  
DOCKED: ATOM     32  Cl  UNL     1     143.224  74.136 216.008 -0.07 +0.02    -0.084 Cl 
DOCKED: ENDBRANCH  25  26
DOCKED: ENDBRANCH  24  25
DOCKED: ENDBRANCH   5  24
DOCKED: TORSDOF 7
DOCKED: TER
DOCKED: ENDMDL
________________________________________________________________________________


    FINAL DOCKED STATE:
    ________________________


Run:   7 / 20
Time taken for this run:   0.030s

DOCKED: MODEL        7
DOCKED: USER    Run = 7
DOCKED: USER
DOCKED: USER    Estimated Free Energy of Binding    =  -5.82 kcal/mol  [=(1)+(2)+(3)-(4)]
DOCKED: USER
DOCKED: USER    (1) Final Intermolecular Energy     =  -7.91 kcal/mol
DOCKED: USER        vdW + Hbond + desolv Energy     =  -7.83 kcal/mol
DOCKED: USER        Electrostatic Energy            =  -0.08 kcal/mol
DOCKED: USER        Moving Ligand-Fixed Receptor    =  -7.91 kcal/mol
DOCKED: USER        Moving Ligand-Moving Receptor   =  +0.00 kcal/mol
DOCKED: USER    (2) Final Total Internal Energy     =  -3.59 kcal/mol
DOCKED: USER    (3) Torsional Free Energy           =  +2.09 kcal/mol
DOCKED: USER    (4) Unbound System's Energy         =  -3.59 kcal/mol
DOCKED: USER
DOCKED: USER
DOCKED: REMARK SMILES O=C(NCC(=O)N1CCC[C@H]1COc1ccc(Cl)cc1)c1ccc2cc(F)ccc2n1
DOCKED: REMARK SMILES IDX 7 1 8 2 9 3 10 4 11 5 5 6 6 7 4 8 3 9 2 10 1 11 21 13 22 14
DOCKED: REMARK SMILES IDX 31 15 23 16 30 17 24 18 29 19 25 20 28 21 26 22 27 23 12 24
DOCKED: REMARK SMILES IDX 13 25 14 26 15 27 20 28 16 29 19 30 17 31 18 32
DOCKED: REMARK H PARENT 3 12
DOCKED: USER                              x       y       z     vdW  Elec       q    Type
DOCKED: USER                           _______ _______ _______ _____ _____    ______ ____
DOCKED: ROOT
DOCKED: ATOM      1  N   UNL     1     142.188  73.993 219.314 -0.03 +0.09    -0.335 N  
DOCKED: ATOM      2  C   UNL     1     143.278  73.673 218.409 -0.11 -0.03    +0.120 C  
DOCKED: ATOM      3  C   UNL     1     144.500  73.800 219.296 -0.31 -0.01    +0.024 C  
DOCKED: ATOM      4  C   UNL     1     144.031  74.457 220.576 -0.32 -0.01    +0.030 C  
DOCKED: ATOM      5  C   UNL     1     142.680  75.082 220.174 -0.26 -0.05    +0.123 C  
DOCKED: ENDROOT
DOCKED: BRANCH   1   6
DOCKED: ATOM      6  C   UNL     1     140.904  73.386 219.368 -0.04 -0.05    +0.242 C  
DOCKED: ATOM      7  O   UNL     1     140.853  72.129 219.351 -0.03 +0.05    -0.273 OA 
DOCKED: BRANCH   6   8
DOCKED: ATOM      8  C   UNL     1     139.701  74.255 219.441 -0.03 -0.05    +0.216 C  
DOCKED: BRANCH   8   9
DOCKED: ATOM      9  N   UNL     1     139.960  75.508 220.078 -0.02 +0.09    -0.342 N  
DOCKED: ATOM     10  C   UNL     1     139.898  75.657 221.493 -0.21 -0.06    +0.270 C  
DOCKED: ATOM     11  O   UNL     1     139.608  74.650 222.191 -0.71 +0.04    -0.268 OA 
DOCKED: ATOM     12  H   UNL     1     140.207  76.382 219.530 +0.04 -0.05    +0.164 HD 
DOCKED: BRANCH  10  13
DOCKED: ATOM     13  C   UNL     1     140.168  76.954 222.106 -0.32 -0.03    +0.128 A  
DOCKED: ATOM     14  C   UNL     1     139.111  77.657 222.662 -0.29 -0.01    +0.035 A  
DOCKED: ATOM     15  N   UNL     1     141.412  77.468 222.137 -0.17 +0.13    -0.243 NA 
DOCKED: ATOM     16  C   UNL     1     139.362  78.887 223.244 -0.34 -0.00    +0.013 A  
DOCKED: ATOM     17  C   UNL     1     141.688  78.665 222.697 -0.46 -0.03    +0.071 A  
DOCKED: ATOM     18  C   UNL     1     140.664  79.386 223.257 -0.48 -0.00    +0.003 A  
DOCKED: ATOM     19  C   UNL     1     142.974  79.171 222.717 -0.29 -0.02    +0.032 A  
DOCKED: ATOM     20  C   UNL     1     140.921  80.612 223.837 -0.43 -0.01    +0.049 A  
DOCKED: ATOM     21  C   UNL     1     143.273  80.406 223.293 -0.60 -0.01    +0.041 A  
DOCKED: ATOM     22  C   UNL     1     142.210  81.106 223.849 -0.54 -0.02    +0.123 A  
DOCKED: ATOM     23  F   UNL     1     142.498  82.299 224.405 -0.09 +0.00    -0.207 F  
DOCKED: ENDBRANCH  10  13
DOCKED: ENDBRANCH   8   9
DOCKED: ENDBRANCH   6   8
DOCKED: ENDBRANCH   1   6
DOCKED: BRANCH   5  24
DOCKED: ATOM     24  C   UNL     1     143.018  76.291 219.343 -0.25 -0.15    +0.254 C  
DOCKED: BRANCH  24  25
DOCKED: ATOM     25  O   UNL     1     141.960  77.093 218.970 -0.06 +0.26    -0.491 OA 
DOCKED: BRANCH  25  26
DOCKED: ATOM     26  C   UNL     1     141.760  78.429 219.034 -0.21 -0.07    +0.119 A  
DOCKED: ATOM     27  C   UNL     1     142.608  79.417 218.592 -0.24 -0.04    +0.048 A  
DOCKED: ATOM     28  C   UNL     1     140.565  78.875 219.607 -0.14 -0.02    +0.048 A  
DOCKED: ATOM     29  C   UNL     1     142.318  80.769 218.698 -0.29 -0.02    +0.024 A  
DOCKED: ATOM     30  C   UNL     1     140.272  80.206 219.714 -0.13 -0.01    +0.024 A  
DOCKED: ATOM     31  C   UNL     1     141.137  81.182 219.264 -0.21 -0.02    +0.041 A  
DOCKED: ATOM     32  Cl  UNL     1     140.782  82.882 219.392 -0.24 +0.02    -0.084 Cl 
DOCKED: ENDBRANCH  25  26
DOCKED: ENDBRANCH  24  25
DOCKED: ENDBRANCH   5  24
DOCKED: TORSDOF 7
DOCKED: TER
DOCKED: ENDMDL
________________________________________________________________________________


    FINAL DOCKED STATE:
    ________________________


Run:   8 / 20
Time taken for this run:   0.030s

DOCKED: MODEL        8
DOCKED: USER    Run = 8
DOCKED: USER
DOCKED: USER    Estimated Free Energy of Binding    =  -7.84 kcal/mol  [=(1)+(2)+(3)-(4)]
DOCKED: USER
DOCKED: USER    (1) Final Intermolecular Energy     =  -9.93 kcal/mol
DOCKED: USER        vdW + Hbond + desolv Energy     =  -9.87 kcal/mol
DOCKED: USER        Electrostatic Energy            =  -0.06 kcal/mol
DOCKED: USER        Moving Ligand-Fixed Receptor    =  -9.93 kcal/mol
DOCKED: USER        Moving Ligand-Moving Receptor   =  +0.00 kcal/mol
DOCKED: USER    (2) Final Total Internal Energy     =  -1.78 kcal/mol
DOCKED: USER    (3) Torsional Free Energy           =  +2.09 kcal/mol
DOCKED: USER    (4) Unbound System's Energy         =  -1.78 kcal/mol
DOCKED: USER
DOCKED: USER
DOCKED: REMARK SMILES O=C(NCC(=O)N1CCC[C@H]1COc1ccc(Cl)cc1)c1ccc2cc(F)ccc2n1
DOCKED: REMARK SMILES IDX 7 1 8 2 9 3 10 4 11 5 5 6 6 7 4 8 3 9 2 10 1 11 21 13 22 14
DOCKED: REMARK SMILES IDX 31 15 23 16 30 17 24 18 29 19 25 20 28 21 26 22 27 23 12 24
DOCKED: REMARK SMILES IDX 13 25 14 26 15 27 20 28 16 29 19 30 17 31 18 32
DOCKED: REMARK H PARENT 3 12
DOCKED: USER                              x       y       z     vdW  Elec       q    Type
DOCKED: USER                           _______ _______ _______ _____ _____    ______ ____
DOCKED: ROOT
DOCKED: ATOM      1  N   UNL     1     138.033  75.267 221.029 -0.05 +0.07    -0.335 N  
DOCKED: ATOM      2  C   UNL     1     136.660  75.178 220.565 -0.04 -0.02    +0.120 C  
DOCKED: ATOM      3  C   UNL     1     136.669  76.039 219.319 -0.02 -0.00    +0.024 C  
DOCKED: ATOM      4  C   UNL     1     137.988  76.780 219.323 -0.03 -0.01    +0.030 C  
DOCKED: ATOM      5  C   UNL     1     138.454  76.656 220.786 -0.09 -0.03    +0.123 C  
DOCKED: ENDROOT
DOCKED: BRANCH   1   6
DOCKED: ATOM      6  C   UNL     1     138.821  74.231 221.601 -0.16 -0.06    +0.242 C  
DOCKED: ATOM      7  O   UNL     1     139.954  74.543 222.051 -0.79 +0.02    -0.273 OA 
DOCKED: BRANCH   6   8
DOCKED: ATOM      8  C   UNL     1     138.275  72.851 221.638 -0.11 -0.05    +0.216 C  
DOCKED: BRANCH   8   9
DOCKED: ATOM      9  N   UNL     1     138.749  72.096 222.755 -0.09 +0.10    -0.342 N  
DOCKED: ATOM     10  C   UNL     1     138.484  70.703 222.885 -0.14 -0.05    +0.270 C  
DOCKED: ATOM     11  O   UNL     1     137.814  70.132 221.984 -0.05 +0.05    -0.268 OA 
DOCKED: ATOM     12  H   UNL     1     139.316  72.535 223.537 -0.28 -0.07    +0.164 HD 
DOCKED: BRANCH  10  13
DOCKED: ATOM     13  C   UNL     1     138.985  69.966 224.041 -0.25 -0.02    +0.128 A  
DOCKED: ATOM     14  C   UNL     1     138.838  68.588 224.064 -0.32 -0.00    +0.035 A  
DOCKED: ATOM     15  N   UNL     1     139.579  70.599 225.071 -0.25 +0.04    -0.243 NA 
DOCKED: ATOM     16  C   UNL     1     139.310  67.885 225.157 -0.42 -0.00    +0.013 A  
DOCKED: ATOM     17  C   UNL     1     140.050  69.941 226.151 -0.46 -0.01    +0.071 A  
DOCKED: ATOM     18  C   UNL     1     139.921  68.577 226.204 -0.56 -0.00    +0.003 A  
DOCKED: ATOM     19  C   UNL     1     140.657  70.613 227.195 -0.62 -0.01    +0.032 A  
DOCKED: ATOM     20  C   UNL     1     140.395  67.881 227.299 -0.60 -0.01    +0.049 A  
DOCKED: ATOM     21  C   UNL     1     141.149  69.945 228.317 -0.50 -0.01    +0.041 A  
DOCKED: ATOM     22  C   UNL     1     140.998  68.565 228.335 -0.55 -0.03    +0.123 A  
DOCKED: ATOM     23  F   UNL     1     141.473  67.920 229.419 -0.16 +0.05    -0.207 F  
DOCKED: ENDBRANCH  10  13
DOCKED: ENDBRANCH   8   9
DOCKED: ENDBRANCH   6   8
DOCKED: ENDBRANCH   1   6
DOCKED: BRANCH   5  24
DOCKED: ATOM     24  C   UNL     1     137.593  77.608 221.574 -0.09 -0.05    +0.254 C  
DOCKED: BRANCH  24  25
DOCKED: ATOM     25  O   UNL     1     138.159  78.151 222.709 -0.09 +0.08    -0.491 OA 
DOCKED: BRANCH  25  26
DOCKED: ATOM     26  C   UNL     1     139.368  78.707 222.949 -0.28 -0.02    +0.119 A  
DOCKED: ATOM     27  C   UNL     1     140.598  78.111 222.809 -0.40 -0.01    +0.048 A  
DOCKED: ATOM     28  C   UNL     1     139.390  80.035 223.387 -0.38 -0.01    +0.048 A  
DOCKED: ATOM     29  C   UNL     1     141.793  78.762 223.078 -0.55 -0.01    +0.024 A  
DOCKED: ATOM     30  C   UNL     1     140.563  80.684 223.654 -0.43 -0.00    +0.024 A  
DOCKED: ATOM     31  C   UNL     1     141.788  80.067 223.507 -0.57 -0.01    +0.041 A  
DOCKED: ATOM     32  Cl  UNL     1     143.292  80.878 223.842 -0.56 +0.02    -0.084 Cl 
DOCKED: ENDBRANCH  25  26
DOCKED: ENDBRANCH  24  25
DOCKED: ENDBRANCH   5  24
DOCKED: TORSDOF 7
DOCKED: TER
DOCKED: ENDMDL
________________________________________________________________________________


    FINAL DOCKED STATE:
    ________________________


Run:   9 / 20
Time taken for this run:   0.030s

DOCKED: MODEL        9
DOCKED: USER    Run = 9
DOCKED: USER
DOCKED: USER    Estimated Free Energy of Binding    =  -7.92 kcal/mol  [=(1)+(2)+(3)-(4)]
DOCKED: USER
DOCKED: USER    (1) Final Intermolecular Energy     = -10.00 kcal/mol
DOCKED: USER        vdW + Hbond + desolv Energy     =  -9.99 kcal/mol
DOCKED: USER        Electrostatic Energy            =  -0.02 kcal/mol
DOCKED: USER        Moving Ligand-Fixed Receptor    = -10.00 kcal/mol
DOCKED: USER        Moving Ligand-Moving Receptor   =  +0.00 kcal/mol
DOCKED: USER    (2) Final Total Internal Energy     =  -1.52 kcal/mol
DOCKED: USER    (3) Torsional Free Energy           =  +2.09 kcal/mol
DOCKED: USER    (4) Unbound System's Energy         =  -1.52 kcal/mol
DOCKED: USER
DOCKED: USER
DOCKED: REMARK SMILES O=C(NCC(=O)N1CCC[C@H]1COc1ccc(Cl)cc1)c1ccc2cc(F)ccc2n1
DOCKED: REMARK SMILES IDX 7 1 8 2 9 3 10 4 11 5 5 6 6 7 4 8 3 9 2 10 1 11 21 13 22 14
DOCKED: REMARK SMILES IDX 31 15 23 16 30 17 24 18 29 19 25 20 28 21 26 22 27 23 12 24
DOCKED: REMARK SMILES IDX 13 25 14 26 15 27 20 28 16 29 19 30 17 31 18 32
DOCKED: REMARK H PARENT 3 12
DOCKED: USER                              x       y       z     vdW  Elec       q    Type
DOCKED: USER                           _______ _______ _______ _____ _____    ______ ____
DOCKED: ROOT
DOCKED: ATOM      1  N   UNL     1     137.825  75.436 221.967 -0.11 +0.09    -0.335 N  
DOCKED: ATOM      2  C   UNL     1     137.865  76.774 222.528 -0.24 -0.02    +0.120 C  
DOCKED: ATOM      3  C   UNL     1     138.120  77.642 221.313 -0.14 -0.00    +0.024 C  
DOCKED: ATOM      4  C   UNL     1     138.485  76.700 220.186 -0.07 -0.01    +0.030 C  
DOCKED: ATOM      5  C   UNL     1     138.864  75.402 220.925 -0.14 -0.03    +0.123 C  
DOCKED: ENDROOT
DOCKED: BRANCH   1   6
DOCKED: ATOM      6  C   UNL     1     136.963  74.368 222.338 -0.08 -0.08    +0.242 C  
DOCKED: ATOM      7  O   UNL     1     135.926  74.657 222.990 -0.13 +0.07    -0.273 OA 
DOCKED: BRANCH   6   8
DOCKED: ATOM      8  C   UNL     1     137.324  72.983 221.942 -0.10 -0.06    +0.216 C  
DOCKED: BRANCH   8   9
DOCKED: ATOM      9  N   UNL     1     137.806  72.201 223.037 +0.00 +0.12    -0.342 N  
DOCKED: ATOM     10  C   UNL     1     138.492  70.970 222.834 -0.14 -0.06    +0.270 C  
DOCKED: ATOM     11  O   UNL     1     138.673  70.570 221.654 -0.06 +0.05    -0.268 OA 
DOCKED: ATOM     12  H   UNL     1     137.677  72.499 224.047 -0.47 -0.11    +0.164 HD 
DOCKED: BRANCH  10  13
DOCKED: ATOM     13  C   UNL     1     138.970  70.200 223.978 -0.26 -0.02    +0.128 A  
DOCKED: ATOM     14  C   UNL     1     138.811  68.823 223.964 -0.30 -0.00    +0.035 A  
DOCKED: ATOM     15  N   UNL     1     139.555  70.801 225.032 -0.25 +0.04    -0.243 NA 
DOCKED: ATOM     16  C   UNL     1     139.261  68.088 225.045 -0.42 -0.00    +0.013 A  
DOCKED: ATOM     17  C   UNL     1     140.005  70.111 226.101 -0.46 -0.01    +0.071 A  
DOCKED: ATOM     18  C   UNL     1     139.863  68.747 226.118 -0.54 -0.00    +0.003 A  
DOCKED: ATOM     19  C   UNL     1     140.603  70.751 227.171 -0.63 -0.01    +0.032 A  
DOCKED: ATOM     20  C   UNL     1     140.315  68.020 227.201 -0.63 -0.01    +0.049 A  
DOCKED: ATOM     21  C   UNL     1     141.073  70.051 228.282 -0.53 -0.01    +0.041 A  
DOCKED: ATOM     22  C   UNL     1     140.910  68.672 228.263 -0.54 -0.03    +0.123 A  
DOCKED: ATOM     23  F   UNL     1     141.363  67.995 229.336 -0.15 +0.05    -0.207 F  
DOCKED: ENDBRANCH  10  13
DOCKED: ENDBRANCH   8   9
DOCKED: ENDBRANCH   6   8
DOCKED: ENDBRANCH   1   6
DOCKED: BRANCH   5  24
DOCKED: ATOM     24  C   UNL     1     140.219  75.654 221.531 -0.23 -0.06    +0.254 C  
DOCKED: BRANCH  24  25
DOCKED: ATOM     25  O   UNL     1     140.881  76.785 221.103 -0.08 +0.19    -0.491 OA 
DOCKED: BRANCH  25  26
DOCKED: ATOM     26  C   UNL     1     141.288  77.903 221.748 -0.30 -0.06    +0.119 A  
DOCKED: ATOM     27  C   UNL     1     141.803  79.045 221.182 -0.35 -0.03    +0.048 A  
DOCKED: ATOM     28  C   UNL     1     141.180  77.919 223.141 -0.41 -0.02    +0.048 A  
DOCKED: ATOM     29  C   UNL     1     142.195  80.149 221.924 -0.49 -0.01    +0.024 A  
DOCKED: ATOM     30  C   UNL     1     141.563  79.003 223.879 -0.59 -0.01    +0.024 A  
DOCKED: ATOM     31  C   UNL     1     142.077  80.141 223.292 -0.59 -0.01    +0.041 A  
DOCKED: ATOM     32  Cl  UNL     1     142.571  81.532 224.216 -0.56 +0.01    -0.084 Cl 
DOCKED: ENDBRANCH  25  26
DOCKED: ENDBRANCH  24  25
DOCKED: ENDBRANCH   5  24
DOCKED: TORSDOF 7
DOCKED: TER
DOCKED: ENDMDL
________________________________________________________________________________


    FINAL DOCKED STATE:
    ________________________


Run:   10 / 20
Time taken for this run:   0.030s

DOCKED: MODEL        10
DOCKED: USER    Run = 10
DOCKED: USER
DOCKED: USER    Estimated Free Energy of Binding    =  -6.29 kcal/mol  [=(1)+(2)+(3)-(4)]
DOCKED: USER
DOCKED: USER    (1) Final Intermolecular Energy     =  -8.38 kcal/mol
DOCKED: USER        vdW + Hbond + desolv Energy     =  -8.33 kcal/mol
DOCKED: USER        Electrostatic Energy            =  -0.05 kcal/mol
DOCKED: USER        Moving Ligand-Fixed Receptor    =  -8.38 kcal/mol
DOCKED: USER        Moving Ligand-Moving Receptor   =  +0.00 kcal/mol
DOCKED: USER    (2) Final Total Internal Energy     =  -3.17 kcal/mol
DOCKED: USER    (3) Torsional Free Energy           =  +2.09 kcal/mol
DOCKED: USER    (4) Unbound System's Energy         =  -3.17 kcal/mol
DOCKED: USER
DOCKED: USER
DOCKED: REMARK SMILES O=C(NCC(=O)N1CCC[C@H]1COc1ccc(Cl)cc1)c1ccc2cc(F)ccc2n1
DOCKED: REMARK SMILES IDX 7 1 8 2 9 3 10 4 11 5 5 6 6 7 4 8 3 9 2 10 1 11 21 13 22 14
DOCKED: REMARK SMILES IDX 31 15 23 16 30 17 24 18 29 19 25 20 28 21 26 22 27 23 12 24
DOCKED: REMARK SMILES IDX 13 25 14 26 15 27 20 28 16 29 19 30 17 31 18 32
DOCKED: REMARK H PARENT 3 12
DOCKED: USER                              x       y       z     vdW  Elec       q    Type
DOCKED: USER                           _______ _______ _______ _____ _____    ______ ____
DOCKED: ROOT
DOCKED: ATOM      1  N   UNL     1     141.633  80.621 221.962 -0.20 +0.10    -0.335 N  
DOCKED: ATOM      2  C   UNL     1     141.090  81.256 223.150 -0.41 -0.02    +0.120 C  
DOCKED: ATOM      3  C   UNL     1     142.280  81.293 224.086 -0.56 -0.00    +0.024 C  
DOCKED: ATOM      4  C   UNL     1     143.344  80.420 223.457 -0.56 -0.01    +0.030 C  
DOCKED: ATOM      5  C   UNL     1     142.549  79.574 222.444 -0.46 -0.06    +0.123 C  
DOCKED: ENDROOT
DOCKED: BRANCH   1   6
DOCKED: ATOM      6  C   UNL     1     141.348  80.938 220.606 -0.22 -0.08    +0.242 C  
DOCKED: ATOM      7  O   UNL     1     141.716  82.065 220.181 -0.19 +0.08    -0.273 OA 
DOCKED: BRANCH   6   8
DOCKED: ATOM      8  C   UNL     1     140.640  79.938 219.768 -0.12 -0.08    +0.216 C  
DOCKED: BRANCH   8   9
DOCKED: ATOM      9  N   UNL     1     141.327  78.687 219.696 -0.08 +0.17    -0.342 N  
DOCKED: ATOM     10  C   UNL     1     142.078  78.309 218.547 -0.18 -0.18    +0.270 C  
DOCKED: ATOM     11  O   UNL     1     142.130  79.107 217.575 -0.19 +0.22    -0.268 OA 
DOCKED: ATOM     12  H   UNL     1     141.311  77.984 220.491 +0.07 -0.08    +0.164 HD 
DOCKED: BRANCH  10  13
DOCKED: ATOM     13  C   UNL     1     142.766  77.022 218.512 -0.27 -0.08    +0.128 A  
DOCKED: ATOM     14  C   UNL     1     143.111  76.488 217.280 -0.24 -0.02    +0.035 A  
DOCKED: ATOM     15  N   UNL     1     143.067  76.357 219.644 -0.25 +0.16    -0.243 NA 
DOCKED: ATOM     16  C   UNL     1     143.764  75.269 217.241 -0.19 -0.01    +0.013 A  
DOCKED: ATOM     17  C   UNL     1     143.702  75.167 219.638 -0.37 -0.04    +0.071 A  
DOCKED: ATOM     18  C   UNL     1     144.058  74.611 218.435 -0.17 -0.00    +0.003 A  
DOCKED: ATOM     19  C   UNL     1     144.000  74.504 220.814 -0.23 -0.01    +0.032 A  
DOCKED: ATOM     20  C   UNL     1     144.709  73.394 218.403 -0.21 -0.00    +0.049 A  
DOCKED: ATOM     21  C   UNL     1     144.657  73.273 220.822 -0.48 -0.01    +0.041 A  
DOCKED: ATOM     22  C   UNL     1     145.000  72.743 219.585 -0.31 +0.01    +0.123 A  
DOCKED: ATOM     23  F   UNL     1     145.634  71.554 219.593 -0.09 -0.10    -0.207 F  
DOCKED: ENDBRANCH  10  13
DOCKED: ENDBRANCH   8   9
DOCKED: ENDBRANCH   6   8
DOCKED: ENDBRANCH   1   6
DOCKED: BRANCH   5  24
DOCKED: ATOM     24  C   UNL     1     141.796  78.557 223.259 -0.34 -0.10    +0.254 C  
DOCKED: BRANCH  24  25
DOCKED: ATOM     25  O   UNL     1     140.598  78.117 222.735 -0.15 +0.14    -0.491 OA 
DOCKED: BRANCH  25  26
DOCKED: ATOM     26  C   UNL     1     140.157  76.892 222.369 -0.33 -0.03    +0.119 A  
DOCKED: ATOM     27  C   UNL     1     138.855  76.454 222.338 -0.30 -0.01    +0.048 A  
DOCKED: ATOM     28  C   UNL     1     141.116  75.954 221.974 -0.31 -0.02    +0.048 A  
DOCKED: ATOM     29  C   UNL     1     138.493  75.174 221.944 -0.25 -0.01    +0.024 A  
DOCKED: ATOM     30  C   UNL     1     140.767  74.691 221.584 -0.33 -0.00    +0.024 A  
DOCKED: ATOM     31  C   UNL     1     139.453  74.271 221.559 -0.25 -0.01    +0.041 A  
DOCKED: ATOM     32  Cl  UNL     1     138.990  72.667 221.066 -0.17 +0.02    -0.084 Cl 
DOCKED: ENDBRANCH  25  26
DOCKED: ENDBRANCH  24  25
DOCKED: ENDBRANCH   5  24
DOCKED: TORSDOF 7
DOCKED: TER
DOCKED: ENDMDL
________________________________________________________________________________


    FINAL DOCKED STATE:
    ________________________


Run:   11 / 20
Time taken for this run:   0.030s

DOCKED: MODEL        11
DOCKED: USER    Run = 11
DOCKED: USER
DOCKED: USER    Estimated Free Energy of Binding    =  -6.02 kcal/mol  [=(1)+(2)+(3)-(4)]
DOCKED: USER
DOCKED: USER    (1) Final Intermolecular Energy     =  -8.11 kcal/mol
DOCKED: USER        vdW + Hbond + desolv Energy     =  -8.19 kcal/mol
DOCKED: USER        Electrostatic Energy            =  +0.08 kcal/mol
DOCKED: USER        Moving Ligand-Fixed Receptor    =  -8.11 kcal/mol
DOCKED: USER        Moving Ligand-Moving Receptor   =  +0.00 kcal/mol
DOCKED: USER    (2) Final Total Internal Energy     =  -3.54 kcal/mol
DOCKED: USER    (3) Torsional Free Energy           =  +2.09 kcal/mol
DOCKED: USER    (4) Unbound System's Energy         =  -3.54 kcal/mol
DOCKED: USER
DOCKED: USER
DOCKED: REMARK SMILES O=C(NCC(=O)N1CCC[C@H]1COc1ccc(Cl)cc1)c1ccc2cc(F)ccc2n1
DOCKED: REMARK SMILES IDX 7 1 8 2 9 3 10 4 11 5 5 6 6 7 4 8 3 9 2 10 1 11 21 13 22 14
DOCKED: REMARK SMILES IDX 31 15 23 16 30 17 24 18 29 19 25 20 28 21 26 22 27 23 12 24
DOCKED: REMARK SMILES IDX 13 25 14 26 15 27 20 28 16 29 19 30 17 31 18 32
DOCKED: REMARK H PARENT 3 12
DOCKED: USER                              x       y       z     vdW  Elec       q    Type
DOCKED: USER                           _______ _______ _______ _____ _____    ______ ____
DOCKED: ROOT
DOCKED: ATOM      1  N   UNL     1     141.489  80.648 221.787 -0.18 +0.10    -0.335 N  
DOCKED: ATOM      2  C   UNL     1     141.030  81.368 222.961 -0.37 -0.02    +0.120 C  
DOCKED: ATOM      3  C   UNL     1     142.204  81.248 223.911 -0.61 -0.00    +0.024 C  
DOCKED: ATOM      4  C   UNL     1     143.140  80.224 223.303 -0.59 -0.01    +0.030 C  
DOCKED: ATOM      5  C   UNL     1     142.242  79.488 222.290 -0.45 -0.06    +0.123 C  
DOCKED: ENDROOT
DOCKED: BRANCH   1   6
DOCKED: ATOM      6  C   UNL     1     141.265  80.985 220.424 -0.21 -0.08    +0.242 C  
DOCKED: ATOM      7  O   UNL     1     141.802  82.036 219.988 -0.18 +0.09    -0.273 OA 
DOCKED: BRANCH   6   8
DOCKED: ATOM      8  C   UNL     1     140.419  80.091 219.593 -0.10 -0.08    +0.216 C  
DOCKED: BRANCH   8   9
DOCKED: ATOM      9  N   UNL     1     140.848  78.729 219.629 -0.05 +0.15    -0.342 N  
DOCKED: ATOM     10  C   UNL     1     141.932  78.262 218.831 -0.17 -0.17    +0.270 C  
DOCKED: ATOM     11  O   UNL     1     142.520  79.082 218.079 -0.25 +0.24    -0.268 OA 
DOCKED: ATOM     12  H   UNL     1     140.382  78.003 220.248 +0.06 -0.06    +0.164 HD 
DOCKED: BRANCH  10  13
DOCKED: ATOM     13  C   UNL     1     142.340  76.862 218.896 -0.24 -0.07    +0.128 A  
DOCKED: ATOM     14  C   UNL     1     141.616  75.926 218.175 -0.10 -0.01    +0.035 A  
DOCKED: ATOM     15  N   UNL     1     143.396  76.475 219.637 -0.27 +0.17    -0.243 NA 
DOCKED: ATOM     16  C   UNL     1     141.998  74.598 218.234 -0.09 -0.00    +0.013 A  
DOCKED: ATOM     17  C   UNL     1     143.794  75.187 219.713 -0.37 -0.04    +0.071 A  
DOCKED: ATOM     18  C   UNL     1     143.099  74.236 219.011 -0.21 -0.00    +0.003 A  
DOCKED: ATOM     19  C   UNL     1     144.882  74.814 220.480 -0.35 -0.02    +0.032 A  
DOCKED: ATOM     20  C   UNL     1     143.486  72.912 219.074 -0.16 -0.01    +0.049 A  
DOCKED: ATOM     21  C   UNL     1     145.304  73.487 220.568 -0.57 -0.01    +0.041 A  
DOCKED: ATOM     22  C   UNL     1     144.574  72.553 219.844 -0.29 -0.00    +0.123 A  
DOCKED: ATOM     23  F   UNL     1     144.981  71.272 219.929 -0.05 -0.02    -0.207 F  
DOCKED: ENDBRANCH  10  13
DOCKED: ENDBRANCH   8   9
DOCKED: ENDBRANCH   6   8
DOCKED: ENDBRANCH   1   6
DOCKED: BRANCH   5  24
DOCKED: ATOM     24  C   UNL     1     141.344  78.598 223.108 -0.38 -0.09    +0.254 C  
DOCKED: BRANCH  24  25
DOCKED: ATOM     25  O   UNL     1     140.319  77.972 222.430 -0.12 +0.14    -0.491 OA 
DOCKED: BRANCH  25  26
DOCKED: ATOM     26  C   UNL     1     140.061  76.671 222.164 -0.32 -0.03    +0.119 A  
DOCKED: ATOM     27  C   UNL     1     138.831  76.058 222.140 -0.29 -0.01    +0.048 A  
DOCKED: ATOM     28  C   UNL     1     141.151  75.843 221.878 -0.30 -0.02    +0.048 A  
DOCKED: ATOM     29  C   UNL     1     138.659  74.711 221.854 -0.23 -0.01    +0.024 A  
DOCKED: ATOM     30  C   UNL     1     140.990  74.516 221.595 -0.31 -0.00    +0.024 A  
DOCKED: ATOM     31  C   UNL     1     139.746  73.920 221.575 -0.25 -0.01    +0.041 A  
DOCKED: ATOM     32  Cl  UNL     1     139.522  72.230 221.216 -0.21 +0.02    -0.084 Cl 
DOCKED: ENDBRANCH  25  26
DOCKED: ENDBRANCH  24  25
DOCKED: ENDBRANCH   5  24
DOCKED: TORSDOF 7
DOCKED: TER
DOCKED: ENDMDL
________________________________________________________________________________


    FINAL DOCKED STATE:
    ________________________


Run:   12 / 20
Time taken for this run:   0.030s

DOCKED: MODEL        12
DOCKED: USER    Run = 12
DOCKED: USER
DOCKED: USER    Estimated Free Energy of Binding    =  -7.51 kcal/mol  [=(1)+(2)+(3)-(4)]
DOCKED: USER
DOCKED: USER    (1) Final Intermolecular Energy     =  -9.59 kcal/mol
DOCKED: USER        vdW + Hbond + desolv Energy     =  -9.47 kcal/mol
DOCKED: USER        Electrostatic Energy            =  -0.12 kcal/mol
DOCKED: USER        Moving Ligand-Fixed Receptor    =  -9.59 kcal/mol
DOCKED: USER        Moving Ligand-Moving Receptor   =  +0.00 kcal/mol
DOCKED: USER    (2) Final Total Internal Energy     =  -2.19 kcal/mol
DOCKED: USER    (3) Torsional Free Energy           =  +2.09 kcal/mol
DOCKED: USER    (4) Unbound System's Energy         =  -2.19 kcal/mol
DOCKED: USER
DOCKED: USER
DOCKED: REMARK SMILES O=C(NCC(=O)N1CCC[C@H]1COc1ccc(Cl)cc1)c1ccc2cc(F)ccc2n1
DOCKED: REMARK SMILES IDX 7 1 8 2 9 3 10 4 11 5 5 6 6 7 4 8 3 9 2 10 1 11 21 13 22 14
DOCKED: REMARK SMILES IDX 31 15 23 16 30 17 24 18 29 19 25 20 28 21 26 22 27 23 12 24
DOCKED: REMARK SMILES IDX 13 25 14 26 15 27 20 28 16 29 19 30 17 31 18 32
DOCKED: REMARK H PARENT 3 12
DOCKED: USER                              x       y       z     vdW  Elec       q    Type
DOCKED: USER                           _______ _______ _______ _____ _____    ______ ____
DOCKED: ROOT
DOCKED: ATOM      1  N   UNL     1     138.211  68.988 222.187 -0.06 +0.06    -0.335 N  
DOCKED: ATOM      2  C   UNL     1     139.334  68.903 221.270 -0.11 -0.02    +0.120 C  
DOCKED: ATOM      3  C   UNL     1     139.088  67.590 220.556 -0.14 -0.01    +0.024 C  
DOCKED: ATOM      4  C   UNL     1     137.986  66.890 221.321 -0.18 -0.01    +0.030 C  
DOCKED: ATOM      5  C   UNL     1     137.984  67.619 222.679 -0.13 -0.02    +0.123 C  
DOCKED: ENDROOT
DOCKED: BRANCH   1   6
DOCKED: ATOM      6  C   UNL     1     137.472  70.149 222.544 -0.08 -0.04    +0.242 C  
DOCKED: ATOM      7  O   UNL     1     136.382  70.352 221.948 -0.02 +0.04    -0.273 OA 
DOCKED: BRANCH   6   8
DOCKED: ATOM      8  C   UNL     1     138.017  71.054 223.588 -0.17 -0.05    +0.216 C  
DOCKED: BRANCH   8   9
DOCKED: ATOM      9  N   UNL     1     138.586  72.247 223.047 +0.05 +0.12    -0.342 N  
DOCKED: ATOM     10  C   UNL     1     139.900  72.269 222.499 -0.21 -0.04    +0.270 C  
DOCKED: ATOM     11  O   UNL     1     140.568  71.202 222.496 -0.17 +0.03    -0.268 OA 
DOCKED: ATOM     12  H   UNL     1     138.061  73.169 223.028 -0.48 -0.10    +0.164 HD 
DOCKED: BRANCH  10  13
DOCKED: ATOM     13  C   UNL     1     140.447  73.509 221.955 -0.24 -0.01    +0.128 A  
DOCKED: ATOM     14  C   UNL     1     141.472  73.430 221.026 -0.26 -0.01    +0.035 A  
DOCKED: ATOM     15  N   UNL     1     139.976  74.710 222.340 -0.68 +0.01    -0.243 NA 
DOCKED: ATOM     16  C   UNL     1     141.994  74.601 220.508 -0.28 -0.00    +0.013 A  
DOCKED: ATOM     17  C   UNL     1     140.464  75.870 221.852 -0.34 -0.02    +0.071 A  
DOCKED: ATOM     18  C   UNL     1     141.478  75.826 220.931 -0.30 -0.00    +0.003 A  
DOCKED: ATOM     19  C   UNL     1     139.963  77.091 222.263 -0.36 -0.01    +0.032 A  
DOCKED: ATOM     20  C   UNL     1     141.995  77.000 220.417 -0.25 -0.03    +0.049 A  
DOCKED: ATOM     21  C   UNL     1     140.459  78.298 221.767 -0.29 -0.01    +0.041 A  
DOCKED: ATOM     22  C   UNL     1     141.485  78.212 220.836 -0.26 -0.07    +0.123 A  
DOCKED: ATOM     23  F   UNL     1     141.965  79.377 220.358 -0.07 +0.12    -0.207 F  
DOCKED: ENDBRANCH  10  13
DOCKED: ENDBRANCH   8   9
DOCKED: ENDBRANCH   6   8
DOCKED: ENDBRANCH   1   6
DOCKED: BRANCH   5  24
DOCKED: ATOM     24  C   UNL     1     139.199  67.121 223.415 +0.16 -0.03    +0.254 C  
DOCKED: BRANCH  24  25
DOCKED: ATOM     25  O   UNL     1     139.249  67.388 224.767 -0.68 -0.01    -0.491 OA 
DOCKED: BRANCH  25  26
DOCKED: ATOM     26  C   UNL     1     139.697  68.452 225.472 -0.39 -0.02    +0.119 A  
DOCKED: ATOM     27  C   UNL     1     140.322  69.571 224.976 -0.33 -0.01    +0.048 A  
DOCKED: ATOM     28  C   UNL     1     139.511  68.432 226.857 -0.54 -0.01    +0.048 A  
DOCKED: ATOM     29  C   UNL     1     140.748  70.621 225.777 -0.56 -0.00    +0.024 A  
DOCKED: ATOM     30  C   UNL     1     139.927  69.462 227.653 -0.59 -0.00    +0.024 A  
DOCKED: ATOM     31  C   UNL     1     140.553  70.577 227.135 -0.60 -0.01    +0.041 A  
DOCKED: ATOM     32  Cl  UNL     1     141.090  71.899 228.134 -0.89 +0.02    -0.084 Cl 
DOCKED: ENDBRANCH  25  26
DOCKED: ENDBRANCH  24  25
DOCKED: ENDBRANCH   5  24
DOCKED: TORSDOF 7
DOCKED: TER
DOCKED: ENDMDL
________________________________________________________________________________


    FINAL DOCKED STATE:
    ________________________


Run:   13 / 20
Time taken for this run:   0.030s

DOCKED: MODEL        13
DOCKED: USER    Run = 13
DOCKED: USER
DOCKED: USER    Estimated Free Energy of Binding    =  -7.62 kcal/mol  [=(1)+(2)+(3)-(4)]
DOCKED: USER
DOCKED: USER    (1) Final Intermolecular Energy     =  -9.71 kcal/mol
DOCKED: USER        vdW + Hbond + desolv Energy     =  -9.61 kcal/mol
DOCKED: USER        Electrostatic Energy            =  -0.10 kcal/mol
DOCKED: USER        Moving Ligand-Fixed Receptor    =  -9.71 kcal/mol
DOCKED: USER        Moving Ligand-Moving Receptor   =  +0.00 kcal/mol
DOCKED: USER    (2) Final Total Internal Energy     =  -2.26 kcal/mol
DOCKED: USER    (3) Torsional Free Energy           =  +2.09 kcal/mol
DOCKED: USER    (4) Unbound System's Energy         =  -2.26 kcal/mol
DOCKED: USER
DOCKED: USER
DOCKED: REMARK SMILES O=C(NCC(=O)N1CCC[C@H]1COc1ccc(Cl)cc1)c1ccc2cc(F)ccc2n1
DOCKED: REMARK SMILES IDX 7 1 8 2 9 3 10 4 11 5 5 6 6 7 4 8 3 9 2 10 1 11 21 13 22 14
DOCKED: REMARK SMILES IDX 31 15 23 16 30 17 24 18 29 19 25 20 28 21 26 22 27 23 12 24
DOCKED: REMARK SMILES IDX 13 25 14 26 15 27 20 28 16 29 19 30 17 31 18 32
DOCKED: REMARK H PARENT 3 12
DOCKED: USER                              x       y       z     vdW  Elec       q    Type
DOCKED: USER                           _______ _______ _______ _____ _____    ______ ____
DOCKED: ROOT
DOCKED: ATOM      1  N   UNL     1     140.492  76.552 220.565 -0.07 +0.11    -0.335 N  
DOCKED: ATOM      2  C   UNL     1     141.498  77.590 220.708 -0.26 -0.06    +0.120 C  
DOCKED: ATOM      3  C   UNL     1     140.913  78.737 219.910 -0.21 -0.01    +0.024 C  
DOCKED: ATOM      4  C   UNL     1     139.742  78.167 219.139 -0.07 -0.01    +0.030 C  
DOCKED: ATOM      5  C   UNL     1     140.003  76.649 219.181 -0.05 -0.04    +0.123 C  
DOCKED: ENDROOT
DOCKED: BRANCH   1   6
DOCKED: ATOM      6  C   UNL     1     140.058  75.627 221.554 -0.23 -0.05    +0.242 C  
DOCKED: ATOM      7  O   UNL     1     139.752  76.084 222.686 -0.38 +0.04    -0.273 OA 
DOCKED: BRANCH   6   8
DOCKED: ATOM      8  C   UNL     1     139.990  74.185 221.206 -0.19 -0.04    +0.216 C  
DOCKED: BRANCH   8   9
DOCKED: ATOM      9  N   UNL     1     139.873  73.342 222.354 -0.14 +0.04    -0.342 N  
DOCKED: ATOM     10  C   UNL     1     140.287  71.980 222.329 -0.21 -0.03    +0.270 C  
DOCKED: ATOM     11  O   UNL     1     140.768  71.517 221.262 -0.12 +0.04    -0.268 OA 
DOCKED: ATOM     12  H   UNL     1     139.474  73.688 223.274 -0.48 -0.05    +0.164 HD 
DOCKED: BRANCH  10  13
DOCKED: ATOM     13  C   UNL     1     140.151  71.150 223.523 -0.31 -0.02    +0.128 A  
DOCKED: ATOM     14  C   UNL     1     139.552  69.907 223.402 -0.24 -0.01    +0.035 A  
DOCKED: ATOM     15  N   UNL     1     140.595  71.572 224.723 -0.30 +0.03    -0.243 NA 
DOCKED: ATOM     16  C   UNL     1     139.420  69.117 224.529 -0.34 -0.00    +0.013 A  
DOCKED: ATOM     17  C   UNL     1     140.481  70.824 225.841 -0.53 -0.01    +0.071 A  
DOCKED: ATOM     18  C   UNL     1     139.892  69.589 225.755 -0.46 -0.00    +0.003 A  
DOCKED: ATOM     19  C   UNL     1     140.944  71.280 227.061 -0.70 -0.01    +0.032 A  
DOCKED: ATOM     20  C   UNL     1     139.764  68.805 226.884 -0.55 -0.01    +0.049 A  
DOCKED: ATOM     21  C   UNL     1     140.833  70.517 228.224 -0.57 -0.01    +0.041 A  
DOCKED: ATOM     22  C   UNL     1     140.232  69.272 228.097 -0.53 -0.02    +0.123 A  
DOCKED: ATOM     23  F   UNL     1     140.124  68.536 229.220 -0.10 +0.04    -0.207 F  
DOCKED: ENDBRANCH  10  13
DOCKED: ENDBRANCH   8   9
DOCKED: ENDBRANCH   6   8
DOCKED: ENDBRANCH   1   6
DOCKED: BRANCH   5  24
DOCKED: ATOM     24  C   UNL     1     141.127  76.398 218.211 -0.04 -0.10    +0.254 C  
DOCKED: BRANCH  24  25
DOCKED: ATOM     25  O   UNL     1     141.772  75.184 218.321 +0.01 +0.17    -0.491 OA 
DOCKED: BRANCH  25  26
DOCKED: ATOM     26  C   UNL     1     142.820  74.771 219.070 -0.19 -0.04    +0.119 A  
DOCKED: ATOM     27  C   UNL     1     143.743  75.562 219.711 -0.39 -0.03    +0.048 A  
DOCKED: ATOM     28  C   UNL     1     142.999  73.393 219.223 -0.16 -0.01    +0.048 A  
DOCKED: ATOM     29  C   UNL     1     144.790  75.049 220.464 -0.24 -0.01    +0.024 A  
DOCKED: ATOM     30  C   UNL     1     144.027  72.880 219.963 -0.32 -0.00    +0.024 A  
DOCKED: ATOM     31  C   UNL     1     144.944  73.691 220.600 -0.53 -0.01    +0.041 A  
DOCKED: ATOM     32  Cl  UNL     1     146.260  73.056 221.547 -0.75 +0.01    -0.084 Cl 
DOCKED: ENDBRANCH  25  26
DOCKED: ENDBRANCH  24  25
DOCKED: ENDBRANCH   5  24
DOCKED: TORSDOF 7
DOCKED: TER
DOCKED: ENDMDL
________________________________________________________________________________


    FINAL DOCKED STATE:
    ________________________


Run:   14 / 20
Time taken for this run:   0.030s

DOCKED: MODEL        14
DOCKED: USER    Run = 14
DOCKED: USER
DOCKED: USER    Estimated Free Energy of Binding    =  -7.58 kcal/mol  [=(1)+(2)+(3)-(4)]
DOCKED: USER
DOCKED: USER    (1) Final Intermolecular Energy     =  -9.67 kcal/mol
DOCKED: USER        vdW + Hbond + desolv Energy     =  -9.64 kcal/mol
DOCKED: USER        Electrostatic Energy            =  -0.03 kcal/mol
DOCKED: USER        Moving Ligand-Fixed Receptor    =  -9.67 kcal/mol
DOCKED: USER        Moving Ligand-Moving Receptor   =  +0.00 kcal/mol
DOCKED: USER    (2) Final Total Internal Energy     =  -2.09 kcal/mol
DOCKED: USER    (3) Torsional Free Energy           =  +2.09 kcal/mol
DOCKED: USER    (4) Unbound System's Energy         =  -2.09 kcal/mol
DOCKED: USER
DOCKED: USER
DOCKED: REMARK SMILES O=C(NCC(=O)N1CCC[C@H]1COc1ccc(Cl)cc1)c1ccc2cc(F)ccc2n1
DOCKED: REMARK SMILES IDX 7 1 8 2 9 3 10 4 11 5 5 6 6 7 4 8 3 9 2 10 1 11 21 13 22 14
DOCKED: REMARK SMILES IDX 31 15 23 16 30 17 24 18 29 19 25 20 28 21 26 22 27 23 12 24
DOCKED: REMARK SMILES IDX 13 25 14 26 15 27 20 28 16 29 19 30 17 31 18 32
DOCKED: REMARK H PARENT 3 12
DOCKED: USER                              x       y       z     vdW  Elec       q    Type
DOCKED: USER                           _______ _______ _______ _____ _____    ______ ____
DOCKED: ROOT
DOCKED: ATOM      1  N   UNL     1     138.950  73.208 221.142 -0.06 +0.07    -0.335 N  
DOCKED: ATOM      2  C   UNL     1     139.504  72.379 220.086 -0.06 -0.02    +0.120 C  
DOCKED: ATOM      3  C   UNL     1     140.596  71.609 220.801 -0.16 -0.00    +0.024 C  
DOCKED: ATOM      4  C   UNL     1     140.764  72.265 222.154 -0.29 -0.00    +0.030 C  
DOCKED: ATOM      5  C   UNL     1     140.094  73.639 221.963 -0.22 -0.01    +0.123 C  
DOCKED: ENDROOT
DOCKED: BRANCH   1   6
DOCKED: ATOM      6  C   UNL     1     137.584  73.541 221.353 -0.08 -0.06    +0.242 C  
DOCKED: ATOM      7  O   UNL     1     137.178  74.643 220.902 -0.04 +0.06    -0.273 OA 
DOCKED: BRANCH   6   8
DOCKED: ATOM      8  C   UNL     1     136.716  72.584 222.085 -0.08 -0.05    +0.216 C  
DOCKED: BRANCH   8   9
DOCKED: ATOM      9  N   UNL     1     137.409  71.891 223.125 -0.08 +0.10    -0.342 N  
DOCKED: ATOM     10  C   UNL     1     137.918  70.574 222.939 -0.12 -0.05    +0.270 C  
DOCKED: ATOM     11  O   UNL     1     137.748  70.017 221.822 -0.04 +0.05    -0.268 OA 
DOCKED: ATOM     12  H   UNL     1     137.576  72.321 224.081 -0.46 -0.09    +0.164 HD 
DOCKED: BRANCH  10  13
DOCKED: ATOM     13  C   UNL     1     138.620  69.898 224.026 -0.25 -0.02    +0.128 A  
DOCKED: ATOM     14  C   UNL     1     138.709  68.516 223.999 -0.31 -0.00    +0.035 A  
DOCKED: ATOM     15  N   UNL     1     139.174  70.591 225.039 -0.21 +0.04    -0.243 NA 
DOCKED: ATOM     16  C   UNL     1     139.373  67.870 225.026 -0.39 -0.00    +0.013 A  
DOCKED: ATOM     17  C   UNL     1     139.828  69.990 226.055 -0.44 -0.01    +0.071 A  
DOCKED: ATOM     18  C   UNL     1     139.934  68.623 226.058 -0.55 -0.00    +0.003 A  
DOCKED: ATOM     19  C   UNL     1     140.389  70.724 227.084 -0.60 -0.01    +0.032 A  
DOCKED: ATOM     20  C   UNL     1     140.599  67.985 227.087 -0.63 -0.01    +0.049 A  
DOCKED: ATOM     21  C   UNL     1     141.067  70.115 228.140 -0.55 -0.01    +0.041 A  
DOCKED: ATOM     22  C   UNL     1     141.153  68.730 228.109 -0.49 -0.03    +0.123 A  
DOCKED: ATOM     23  F   UNL     1     141.809  68.142 229.129 -0.17 +0.06    -0.207 F  
DOCKED: ENDBRANCH  10  13
DOCKED: ENDBRANCH   8   9
DOCKED: ENDBRANCH   6   8
DOCKED: ENDBRANCH   1   6
DOCKED: BRANCH   5  24
DOCKED: ATOM     24  C   UNL     1     141.053  74.452 221.135 -0.20 -0.05    +0.254 C  
DOCKED: BRANCH  24  25
DOCKED: ATOM     25  O   UNL     1     140.677  75.750 220.859 -0.08 +0.15    -0.491 OA 
DOCKED: BRANCH  25  26
DOCKED: ATOM     26  C   UNL     1     141.074  76.942 221.359 -0.29 -0.05    +0.119 A  
DOCKED: ATOM     27  C   UNL     1     141.518  78.033 220.651 -0.29 -0.03    +0.048 A  
DOCKED: ATOM     28  C   UNL     1     141.035  77.103 222.748 -0.35 -0.02    +0.048 A  
DOCKED: ATOM     29  C   UNL     1     141.905  79.222 221.251 -0.34 -0.01    +0.024 A  
DOCKED: ATOM     30  C   UNL     1     141.413  78.271 223.347 -0.52 -0.01    +0.024 A  
DOCKED: ATOM     31  C   UNL     1     141.856  79.355 222.617 -0.52 -0.02    +0.041 A  
DOCKED: ATOM     32  Cl  UNL     1     142.343  80.852 223.362 -0.77 +0.02    -0.084 Cl 
DOCKED: ENDBRANCH  25  26
DOCKED: ENDBRANCH  24  25
DOCKED: ENDBRANCH   5  24
DOCKED: TORSDOF 7
DOCKED: TER
DOCKED: ENDMDL
________________________________________________________________________________


    FINAL DOCKED STATE:
    ________________________


Run:   15 / 20
Time taken for this run:   0.030s

DOCKED: MODEL        15
DOCKED: USER    Run = 15
DOCKED: USER
DOCKED: USER    Estimated Free Energy of Binding    =  -6.45 kcal/mol  [=(1)+(2)+(3)-(4)]
DOCKED: USER
DOCKED: USER    (1) Final Intermolecular Energy     =  -8.54 kcal/mol
DOCKED: USER        vdW + Hbond + desolv Energy     =  -8.34 kcal/mol
DOCKED: USER        Electrostatic Energy            =  -0.20 kcal/mol
DOCKED: USER        Moving Ligand-Fixed Receptor    =  -8.54 kcal/mol
DOCKED: USER        Moving Ligand-Moving Receptor   =  +0.00 kcal/mol
DOCKED: USER    (2) Final Total Internal Energy     =  -3.17 kcal/mol
DOCKED: USER    (3) Torsional Free Energy           =  +2.09 kcal/mol
DOCKED: USER    (4) Unbound System's Energy         =  -3.17 kcal/mol
DOCKED: USER
DOCKED: USER
DOCKED: REMARK SMILES O=C(NCC(=O)N1CCC[C@H]1COc1ccc(Cl)cc1)c1ccc2cc(F)ccc2n1
DOCKED: REMARK SMILES IDX 7 1 8 2 9 3 10 4 11 5 5 6 6 7 4 8 3 9 2 10 1 11 21 13 22 14
DOCKED: REMARK SMILES IDX 31 15 23 16 30 17 24 18 29 19 25 20 28 21 26 22 27 23 12 24
DOCKED: REMARK SMILES IDX 13 25 14 26 15 27 20 28 16 29 19 30 17 31 18 32
DOCKED: REMARK H PARENT 3 12
DOCKED: USER                              x       y       z     vdW  Elec       q    Type
DOCKED: USER                           _______ _______ _______ _____ _____    ______ ____
DOCKED: ROOT
DOCKED: ATOM      1  N   UNL     1     141.692  80.437 221.874 -0.20 +0.11    -0.335 N  
DOCKED: ATOM      2  C   UNL     1     141.096  81.250 222.919 -0.40 -0.02    +0.120 C  
DOCKED: ATOM      3  C   UNL     1     142.230  81.408 223.912 -0.57 -0.00    +0.024 C  
DOCKED: ATOM      4  C   UNL     1     143.307  80.434 223.485 -0.57 -0.01    +0.030 C  
DOCKED: ATOM      5  C   UNL     1     142.552  79.459 222.561 -0.47 -0.06    +0.123 C  
DOCKED: ENDROOT
DOCKED: BRANCH   1   6
DOCKED: ATOM      6  C   UNL     1     141.495  80.552 220.471 -0.21 -0.09    +0.242 C  
DOCKED: ATOM      7  O   UNL     1     141.851  81.626 219.919 -0.19 +0.10    -0.273 OA 
DOCKED: BRANCH   6   8
DOCKED: ATOM      8  C   UNL     1     140.887  79.414 219.736 -0.13 -0.09    +0.216 C  
DOCKED: BRANCH   8   9
DOCKED: ATOM      9  N   UNL     1     141.730  78.262 219.699 -0.11 +0.20    -0.342 N  
DOCKED: ATOM     10  C   UNL     1     141.383  77.101 218.951 -0.10 -0.12    +0.270 C  
DOCKED: ATOM     11  O   UNL     1     140.300  77.103 218.308 -0.02 +0.09    -0.268 OA 
DOCKED: ATOM     12  H   UNL     1     142.651  78.216 220.226 -0.32 -0.15    +0.164 HD 
DOCKED: BRANCH  10  13
DOCKED: ATOM     13  C   UNL     1     142.271  75.943 218.940 -0.19 -0.06    +0.128 A  
DOCKED: ATOM     14  C   UNL     1     142.094  74.982 217.957 -0.09 -0.01    +0.035 A  
DOCKED: ATOM     15  N   UNL     1     143.246  75.799 219.857 -0.24 +0.15    -0.243 NA 
DOCKED: ATOM     16  C   UNL     1     142.933  73.882 217.941 -0.10 -0.00    +0.013 A  
DOCKED: ATOM     17  C   UNL     1     144.080  74.738 219.868 -0.38 -0.03    +0.071 A  
DOCKED: ATOM     18  C   UNL     1     143.932  73.769 218.909 -0.24 -0.00    +0.003 A  
DOCKED: ATOM     19  C   UNL     1     145.074  74.613 220.821 -0.29 -0.01    +0.032 A  
DOCKED: ATOM     20  C   UNL     1     144.773  72.674 218.898 -0.25 +0.01    +0.049 A  
DOCKED: ATOM     21  C   UNL     1     145.943  73.521 220.843 -0.67 -0.00    +0.041 A  
DOCKED: ATOM     22  C   UNL     1     145.761  72.561 219.856 -0.37 +0.04    +0.123 A  
DOCKED: ATOM     23  F   UNL     1     146.600  71.507 219.877 -0.01 -0.20    -0.207 F  
DOCKED: ENDBRANCH  10  13
DOCKED: ENDBRANCH   8   9
DOCKED: ENDBRANCH   6   8
DOCKED: ENDBRANCH   1   6
DOCKED: BRANCH   5  24
DOCKED: ATOM     24  C   UNL     1     141.727  78.587 223.470 -0.38 -0.09    +0.254 C  
DOCKED: BRANCH  24  25
DOCKED: ATOM     25  O   UNL     1     140.508  78.170 222.980 -0.15 +0.12    -0.491 OA 
DOCKED: BRANCH  25  26
DOCKED: ATOM     26  C   UNL     1     140.112  77.035 222.361 -0.33 -0.03    +0.119 A  
DOCKED: ATOM     27  C   UNL     1     138.866  76.760 221.850 -0.25 -0.01    +0.048 A  
DOCKED: ATOM     28  C   UNL     1     141.060  76.018 222.213 -0.27 -0.01    +0.048 A  
DOCKED: ATOM     29  C   UNL     1     138.548  75.562 221.226 -0.18 -0.01    +0.024 A  
DOCKED: ATOM     30  C   UNL     1     140.755  74.836 221.599 -0.33 -0.00    +0.024 A  
DOCKED: ATOM     31  C   UNL     1     139.498  74.579 221.092 -0.20 -0.01    +0.041 A  
DOCKED: ATOM     32  Cl  UNL     1     139.091  73.079 220.307 -0.11 +0.02    -0.084 Cl 
DOCKED: ENDBRANCH  25  26
DOCKED: ENDBRANCH  24  25
DOCKED: ENDBRANCH   5  24
DOCKED: TORSDOF 7
DOCKED: TER
DOCKED: ENDMDL
________________________________________________________________________________


    FINAL DOCKED STATE:
    ________________________


Run:   16 / 20
Time taken for this run:   0.030s

DOCKED: MODEL        16
DOCKED: USER    Run = 16
DOCKED: USER
DOCKED: USER    Estimated Free Energy of Binding    =  -5.94 kcal/mol  [=(1)+(2)+(3)-(4)]
DOCKED: USER
DOCKED: USER    (1) Final Intermolecular Energy     =  -8.02 kcal/mol
DOCKED: USER        vdW + Hbond + desolv Energy     =  -7.94 kcal/mol
DOCKED: USER        Electrostatic Energy            =  -0.09 kcal/mol
DOCKED: USER        Moving Ligand-Fixed Receptor    =  -8.02 kcal/mol
DOCKED: USER        Moving Ligand-Moving Receptor   =  +0.00 kcal/mol
DOCKED: USER    (2) Final Total Internal Energy     =  -3.74 kcal/mol
DOCKED: USER    (3) Torsional Free Energy           =  +2.09 kcal/mol
DOCKED: USER    (4) Unbound System's Energy         =  -3.74 kcal/mol
DOCKED: USER
DOCKED: USER
DOCKED: REMARK SMILES O=C(NCC(=O)N1CCC[C@H]1COc1ccc(Cl)cc1)c1ccc2cc(F)ccc2n1
DOCKED: REMARK SMILES IDX 7 1 8 2 9 3 10 4 11 5 5 6 6 7 4 8 3 9 2 10 1 11 21 13 22 14
DOCKED: REMARK SMILES IDX 31 15 23 16 30 17 24 18 29 19 25 20 28 21 26 22 27 23 12 24
DOCKED: REMARK SMILES IDX 13 25 14 26 15 27 20 28 16 29 19 30 17 31 18 32
DOCKED: REMARK H PARENT 3 12
DOCKED: USER                              x       y       z     vdW  Elec       q    Type
DOCKED: USER                           _______ _______ _______ _____ _____    ______ ____
DOCKED: ROOT
DOCKED: ATOM      1  N   UNL     1     140.614  79.489 223.059 -0.19 +0.08    -0.335 N  
DOCKED: ATOM      2  C   UNL     1     141.836  79.045 223.705 -0.53 -0.04    +0.120 C  
DOCKED: ATOM      3  C   UNL     1     142.634  80.327 223.834 -0.64 -0.01    +0.024 C  
DOCKED: ATOM      4  C   UNL     1     141.915  81.362 222.995 -0.52 -0.01    +0.030 C  
DOCKED: ATOM      5  C   UNL     1     141.021  80.507 222.076 -0.34 -0.03    +0.123 C  
DOCKED: ENDROOT
DOCKED: BRANCH   1   6
DOCKED: ATOM      6  C   UNL     1     139.289  79.041 223.315 -0.23 -0.04    +0.242 C  
DOCKED: ATOM      7  O   UNL     1     138.600  79.700 224.137 -0.26 +0.03    -0.273 OA 
DOCKED: BRANCH   6   8
DOCKED: ATOM      8  C   UNL     1     138.790  77.834 222.609 -0.20 -0.04    +0.216 C  
DOCKED: BRANCH   8   9
DOCKED: ATOM      9  N   UNL     1     139.836  76.926 222.257 -0.18 +0.08    -0.342 N  
DOCKED: ATOM     10  C   UNL     1     139.569  75.565 221.931 -0.22 -0.05    +0.270 C  
DOCKED: ATOM     11  O   UNL     1     138.376  75.164 221.958 -0.19 +0.07    -0.268 OA 
DOCKED: ATOM     12  H   UNL     1     140.855  77.220 222.221 +0.03 -0.06    +0.164 HD 
DOCKED: BRANCH  10  13
DOCKED: ATOM     13  C   UNL     1     140.665  74.668 221.576 -0.28 -0.02    +0.128 A  
DOCKED: ATOM     14  C   UNL     1     140.456  73.301 221.660 -0.28 -0.00    +0.035 A  
DOCKED: ATOM     15  N   UNL     1     141.858  75.145 221.174 -0.19 +0.09    -0.243 NA 
DOCKED: ATOM     16  C   UNL     1     141.491  72.446 221.326 -0.26 -0.00    +0.013 A  
DOCKED: ATOM     17  C   UNL     1     142.887  74.337 220.840 -0.24 -0.02    +0.071 A  
DOCKED: ATOM     18  C   UNL     1     142.712  72.979 220.913 -0.24 -0.00    +0.003 A  
DOCKED: ATOM     19  C   UNL     1     144.102  74.852 220.430 -0.37 -0.02    +0.032 A  
DOCKED: ATOM     20  C   UNL     1     143.749  72.131 220.576 -0.30 -0.01    +0.049 A  
DOCKED: ATOM     21  C   UNL     1     145.173  74.027 220.082 -0.45 -0.01    +0.041 A  
DOCKED: ATOM     22  C   UNL     1     144.958  72.658 220.168 -0.37 -0.00    +0.123 A  
DOCKED: ATOM     23  F   UNL     1     145.992  71.862 219.833 -0.10 -0.11    -0.207 F  
DOCKED: ENDBRANCH  10  13
DOCKED: ENDBRANCH   8   9
DOCKED: ENDBRANCH   6   8
DOCKED: ENDBRANCH   1   6
DOCKED: BRANCH   5  24
DOCKED: ATOM     24  C   UNL     1     141.942  79.902 221.050 -0.19 -0.12    +0.254 C  
DOCKED: BRANCH  24  25
DOCKED: ATOM     25  O   UNL     1     141.797  78.552 220.815 -0.10 +0.29    -0.491 OA 
DOCKED: BRANCH  25  26
DOCKED: ATOM     26  C   UNL     1     141.837  77.813 219.683 -0.24 -0.07    +0.119 A  
DOCKED: ATOM     27  C   UNL     1     142.950  77.489 218.944 -0.28 -0.04    +0.048 A  
DOCKED: ATOM     28  C   UNL     1     140.626  77.313 219.196 -0.11 -0.02    +0.048 A  
DOCKED: ATOM     29  C   UNL     1     142.898  76.719 217.790 -0.27 -0.01    +0.024 A  
DOCKED: ATOM     30  C   UNL     1     140.566  76.554 218.061 -0.06 -0.01    +0.024 A  
DOCKED: ATOM     31  C   UNL     1     141.695  76.239 217.333 -0.09 -0.02    +0.041 A  
DOCKED: ATOM     32  Cl  UNL     1     141.638  75.274 215.885 -0.04 +0.03    -0.084 Cl 
DOCKED: ENDBRANCH  25  26
DOCKED: ENDBRANCH  24  25
DOCKED: ENDBRANCH   5  24
DOCKED: TORSDOF 7
DOCKED: TER
DOCKED: ENDMDL
________________________________________________________________________________


    FINAL DOCKED STATE:
    ________________________


Run:   17 / 20
Time taken for this run:   0.030s

DOCKED: MODEL        17
DOCKED: USER    Run = 17
DOCKED: USER
DOCKED: USER    Estimated Free Energy of Binding    =  -7.70 kcal/mol  [=(1)+(2)+(3)-(4)]
DOCKED: USER
DOCKED: USER    (1) Final Intermolecular Energy     =  -9.78 kcal/mol
DOCKED: USER        vdW + Hbond + desolv Energy     =  -9.80 kcal/mol
DOCKED: USER        Electrostatic Energy            =  +0.02 kcal/mol
DOCKED: USER        Moving Ligand-Fixed Receptor    =  -9.78 kcal/mol
DOCKED: USER        Moving Ligand-Moving Receptor   =  +0.00 kcal/mol
DOCKED: USER    (2) Final Total Internal Energy     =  -2.29 kcal/mol
DOCKED: USER    (3) Torsional Free Energy           =  +2.09 kcal/mol
DOCKED: USER    (4) Unbound System's Energy         =  -2.29 kcal/mol
DOCKED: USER
DOCKED: USER
DOCKED: REMARK SMILES O=C(NCC(=O)N1CCC[C@H]1COc1ccc(Cl)cc1)c1ccc2cc(F)ccc2n1
DOCKED: REMARK SMILES IDX 7 1 8 2 9 3 10 4 11 5 5 6 6 7 4 8 3 9 2 10 1 11 21 13 22 14
DOCKED: REMARK SMILES IDX 31 15 23 16 30 17 24 18 29 19 25 20 28 21 26 22 27 23 12 24
DOCKED: REMARK SMILES IDX 13 25 14 26 15 27 20 28 16 29 19 30 17 31 18 32
DOCKED: REMARK H PARENT 3 12
DOCKED: USER                              x       y       z     vdW  Elec       q    Type
DOCKED: USER                           _______ _______ _______ _____ _____    ______ ____
DOCKED: ROOT
DOCKED: ATOM      1  N   UNL     1     141.130  76.924 220.731 -0.11 +0.15    -0.335 N  
DOCKED: ATOM      2  C   UNL     1     141.562  78.280 221.021 -0.28 -0.07    +0.120 C  
DOCKED: ATOM      3  C   UNL     1     141.362  78.988 219.697 -0.25 -0.01    +0.024 C  
DOCKED: ATOM      4  C   UNL     1     141.092  77.907 218.672 -0.15 -0.01    +0.030 C  
DOCKED: ATOM      5  C   UNL     1     141.604  76.630 219.368 -0.18 -0.06    +0.123 C  
DOCKED: ENDROOT
DOCKED: BRANCH   1   6
DOCKED: ATOM      6  C   UNL     1     140.398  76.049 221.580 -0.25 -0.06    +0.242 C  
DOCKED: ATOM      7  O   UNL     1     139.939  76.526 222.650 -0.31 +0.05    -0.273 OA 
DOCKED: BRANCH   6   8
DOCKED: ATOM      8  C   UNL     1     140.215  74.634 221.166 -0.20 -0.04    +0.216 C  
DOCKED: BRANCH   8   9
DOCKED: ATOM      9  N   UNL     1     140.033  73.752 222.275 -0.07 +0.02    -0.342 N  
DOCKED: ATOM     10  C   UNL     1     140.490  72.403 222.243 -0.20 -0.03    +0.270 C  
DOCKED: ATOM     11  O   UNL     1     141.069  71.990 221.204 -0.14 +0.03    -0.268 OA 
DOCKED: ATOM     12  H   UNL     1     139.551  74.056 223.170 -0.51 -0.02    +0.164 HD 
DOCKED: BRANCH  10  13
DOCKED: ATOM     13  C   UNL     1     140.285  71.532 223.396 -0.32 -0.02    +0.128 A  
DOCKED: ATOM     14  C   UNL     1     139.653  70.314 223.202 -0.24 -0.01    +0.035 A  
DOCKED: ATOM     15  N   UNL     1     140.696  71.891 224.627 -0.26 +0.03    -0.243 NA 
DOCKED: ATOM     16  C   UNL     1     139.455  69.484 224.291 -0.32 -0.00    +0.013 A  
DOCKED: ATOM     17  C   UNL     1     140.518  71.103 225.708 -0.53 -0.01    +0.071 A  
DOCKED: ATOM     18  C   UNL     1     139.896  69.891 225.550 -0.46 -0.00    +0.003 A  
DOCKED: ATOM     19  C   UNL     1     140.949  71.495 226.962 -0.72 -0.01    +0.032 A  
DOCKED: ATOM     20  C   UNL     1     139.702  69.068 226.642 -0.51 -0.01    +0.049 A  
DOCKED: ATOM     21  C   UNL     1     140.772  70.690 228.089 -0.62 -0.01    +0.041 A  
DOCKED: ATOM     22  C   UNL     1     140.138  69.471 227.889 -0.52 -0.02    +0.123 A  
DOCKED: ATOM     23  F   UNL     1     139.966  68.694 228.976 -0.15 +0.04    -0.207 F  
DOCKED: ENDBRANCH  10  13
DOCKED: ENDBRANCH   8   9
DOCKED: ENDBRANCH   6   8
DOCKED: ENDBRANCH   1   6
DOCKED: BRANCH   5  24
DOCKED: ATOM     24  C   UNL     1     143.106  76.704 219.311 -0.24 -0.17    +0.254 C  
DOCKED: BRANCH  24  25
DOCKED: ATOM     25  O   UNL     1     143.795  75.803 220.095 -0.20 +0.34    -0.491 OA 
DOCKED: BRANCH  25  26
DOCKED: ATOM     26  C   UNL     1     143.911  74.456 220.051 -0.35 -0.05    +0.119 A  
DOCKED: ATOM     27  C   UNL     1     144.740  73.670 220.815 -0.50 -0.01    +0.048 A  
DOCKED: ATOM     28  C   UNL     1     143.105  73.769 219.137 -0.18 -0.01    +0.048 A  
DOCKED: ATOM     29  C   UNL     1     144.791  72.288 220.703 -0.35 -0.00    +0.024 A  
DOCKED: ATOM     30  C   UNL     1     143.149  72.408 219.022 -0.13 -0.00    +0.024 A  
DOCKED: ATOM     31  C   UNL     1     143.989  71.637 219.798 -0.24 -0.00    +0.041 A  
DOCKED: ATOM     32  Cl  UNL     1     144.059  69.902 219.665 -0.30 -0.00    -0.084 Cl 
DOCKED: ENDBRANCH  25  26
DOCKED: ENDBRANCH  24  25
DOCKED: ENDBRANCH   5  24
DOCKED: TORSDOF 7
DOCKED: TER
DOCKED: ENDMDL
________________________________________________________________________________


    FINAL DOCKED STATE:
    ________________________


Run:   18 / 20
Time taken for this run:   0.030s

DOCKED: MODEL        18
DOCKED: USER    Run = 18
DOCKED: USER
DOCKED: USER    Estimated Free Energy of Binding    =  -5.68 kcal/mol  [=(1)+(2)+(3)-(4)]
DOCKED: USER
DOCKED: USER    (1) Final Intermolecular Energy     =  -7.77 kcal/mol
DOCKED: USER        vdW + Hbond + desolv Energy     =  -7.57 kcal/mol
DOCKED: USER        Electrostatic Energy            =  -0.20 kcal/mol
DOCKED: USER        Moving Ligand-Fixed Receptor    =  -7.77 kcal/mol
DOCKED: USER        Moving Ligand-Moving Receptor   =  +0.00 kcal/mol
DOCKED: USER    (2) Final Total Internal Energy     =  -4.09 kcal/mol
DOCKED: USER    (3) Torsional Free Energy           =  +2.09 kcal/mol
DOCKED: USER    (4) Unbound System's Energy         =  -4.09 kcal/mol
DOCKED: USER
DOCKED: USER
DOCKED: REMARK SMILES O=C(NCC(=O)N1CCC[C@H]1COc1ccc(Cl)cc1)c1ccc2cc(F)ccc2n1
DOCKED: REMARK SMILES IDX 7 1 8 2 9 3 10 4 11 5 5 6 6 7 4 8 3 9 2 10 1 11 21 13 22 14
DOCKED: REMARK SMILES IDX 31 15 23 16 30 17 24 18 29 19 25 20 28 21 26 22 27 23 12 24
DOCKED: REMARK SMILES IDX 13 25 14 26 15 27 20 28 16 29 19 30 17 31 18 32
DOCKED: REMARK H PARENT 3 12
DOCKED: USER                              x       y       z     vdW  Elec       q    Type
DOCKED: USER                           _______ _______ _______ _____ _____    ______ ____
DOCKED: ROOT
DOCKED: ATOM      1  N   UNL     1     140.806  79.300 222.520 -0.16 +0.10    -0.335 N  
DOCKED: ATOM      2  C   UNL     1     142.145  79.111 223.050 -0.50 -0.05    +0.120 C  
DOCKED: ATOM      3  C   UNL     1     142.786  80.467 222.837 -0.61 -0.01    +0.024 C  
DOCKED: ATOM      4  C   UNL     1     141.845  81.247 221.944 -0.45 -0.01    +0.030 C  
DOCKED: ATOM      5  C   UNL     1     140.957  80.149 221.327 -0.27 -0.04    +0.123 C  
DOCKED: ENDROOT
DOCKED: BRANCH   1   6
DOCKED: ATOM      6  C   UNL     1     139.590  78.779 223.040 -0.23 -0.04    +0.242 C  
DOCKED: ATOM      7  O   UNL     1     139.039  79.411 223.978 -0.28 +0.03    -0.273 OA 
DOCKED: BRANCH   6   8
DOCKED: ATOM      8  C   UNL     1     139.037  77.530 222.456 -0.21 -0.04    +0.216 C  
DOCKED: BRANCH   8   9
DOCKED: ATOM      9  N   UNL     1     140.051  76.649 221.968 -0.18 +0.09    -0.342 N  
DOCKED: ATOM     10  C   UNL     1     139.862  75.239 221.926 -0.19 -0.04    +0.270 C  
DOCKED: ATOM     11  O   UNL     1     138.767  74.767 222.332 -0.33 +0.08    -0.268 OA 
DOCKED: ATOM     12  H   UNL     1     140.988  77.002 221.616 +0.02 -0.07    +0.164 HD 
DOCKED: BRANCH  10  13
DOCKED: ATOM     13  C   UNL     1     140.922  74.372 221.420 -0.26 -0.02    +0.128 A  
DOCKED: ATOM     14  C   UNL     1     140.615  73.053 221.123 -0.22 -0.01    +0.035 A  
DOCKED: ATOM     15  N   UNL     1     142.175  74.830 221.241 -0.12 +0.08    -0.243 NA 
DOCKED: ATOM     16  C   UNL     1     141.615  72.227 220.644 -0.20 -0.00    +0.013 A  
DOCKED: ATOM     17  C   UNL     1     143.173  74.049 220.775 -0.26 -0.02    +0.071 A  
DOCKED: ATOM     18  C   UNL     1     142.902  72.739 220.472 -0.28 -0.00    +0.003 A  
DOCKED: ATOM     19  C   UNL     1     144.452  74.543 220.600 -0.37 -0.01    +0.032 A  
DOCKED: ATOM     20  C   UNL     1     143.905  71.920 219.993 -0.26 -0.00    +0.049 A  
DOCKED: ATOM     21  C   UNL     1     145.492  73.747 220.119 -0.52 -0.00    +0.041 A  
DOCKED: ATOM     22  C   UNL     1     145.178  72.426 219.823 -0.33 +0.02    +0.123 A  
DOCKED: ATOM     23  F   UNL     1     146.182  71.657 219.359 -0.04 -0.22    -0.207 F  
DOCKED: ENDBRANCH  10  13
DOCKED: ENDBRANCH   8   9
DOCKED: ENDBRANCH   6   8
DOCKED: ENDBRANCH   1   6
DOCKED: BRANCH   5  24
DOCKED: ATOM     24  C   UNL     1     141.812  79.457 220.299 -0.17 -0.14    +0.254 C  
DOCKED: BRANCH  24  25
DOCKED: ATOM     25  O   UNL     1     141.660  78.091 220.194 -0.08 +0.28    -0.491 OA 
DOCKED: BRANCH  25  26
DOCKED: ATOM     26  C   UNL     1     142.035  77.201 219.247 -0.23 -0.07    +0.119 A  
DOCKED: ATOM     27  C   UNL     1     143.292  77.034 218.717 -0.29 -0.03    +0.048 A  
DOCKED: ATOM     28  C   UNL     1     141.051  76.346 218.741 -0.10 -0.02    +0.048 A  
DOCKED: ATOM     29  C   UNL     1     143.587  76.089 217.745 -0.23 -0.01    +0.024 A  
DOCKED: ATOM     30  C   UNL     1     141.334  75.412 217.785 -0.06 -0.01    +0.024 A  
DOCKED: ATOM     31  C   UNL     1     142.603  75.260 217.265 -0.11 -0.02    +0.041 A  
DOCKED: ATOM     32  Cl  UNL     1     142.982  74.076 216.046 -0.06 +0.02    -0.084 Cl 
DOCKED: ENDBRANCH  25  26
DOCKED: ENDBRANCH  24  25
DOCKED: ENDBRANCH   5  24
DOCKED: TORSDOF 7
DOCKED: TER
DOCKED: ENDMDL
________________________________________________________________________________


    FINAL DOCKED STATE:
    ________________________


Run:   19 / 20
Time taken for this run:   0.030s

DOCKED: MODEL        19
DOCKED: USER    Run = 19
DOCKED: USER
DOCKED: USER    Estimated Free Energy of Binding    =  -7.82 kcal/mol  [=(1)+(2)+(3)-(4)]
DOCKED: USER
DOCKED: USER    (1) Final Intermolecular Energy     =  -9.91 kcal/mol
DOCKED: USER        vdW + Hbond + desolv Energy     =  -9.89 kcal/mol
DOCKED: USER        Electrostatic Energy            =  -0.01 kcal/mol
DOCKED: USER        Moving Ligand-Fixed Receptor    =  -9.91 kcal/mol
DOCKED: USER        Moving Ligand-Moving Receptor   =  +0.00 kcal/mol
DOCKED: USER    (2) Final Total Internal Energy     =  -1.85 kcal/mol
DOCKED: USER    (3) Torsional Free Energy           =  +2.09 kcal/mol
DOCKED: USER    (4) Unbound System's Energy         =  -1.85 kcal/mol
DOCKED: USER
DOCKED: USER
DOCKED: REMARK SMILES O=C(NCC(=O)N1CCC[C@H]1COc1ccc(Cl)cc1)c1ccc2cc(F)ccc2n1
DOCKED: REMARK SMILES IDX 7 1 8 2 9 3 10 4 11 5 5 6 6 7 4 8 3 9 2 10 1 11 21 13 22 14
DOCKED: REMARK SMILES IDX 31 15 23 16 30 17 24 18 29 19 25 20 28 21 26 22 27 23 12 24
DOCKED: REMARK SMILES IDX 13 25 14 26 15 27 20 28 16 29 19 30 17 31 18 32
DOCKED: REMARK H PARENT 3 12
DOCKED: USER                              x       y       z     vdW  Elec       q    Type
DOCKED: USER                           _______ _______ _______ _____ _____    ______ ____
DOCKED: ROOT
DOCKED: ATOM      1  N   UNL     1     137.986  75.616 221.843 -0.11 +0.08    -0.335 N  
DOCKED: ATOM      2  C   UNL     1     136.921  75.632 222.830 -0.19 -0.03    +0.120 C  
DOCKED: ATOM      3  C   UNL     1     135.671  75.563 221.977 -0.11 -0.00    +0.024 C  
DOCKED: ATOM      4  C   UNL     1     136.116  75.795 220.549 -0.04 -0.01    +0.030 C  
DOCKED: ATOM      5  C   UNL     1     137.508  76.434 220.717 -0.06 -0.02    +0.123 C  
DOCKED: ENDROOT
DOCKED: BRANCH   1   6
DOCKED: ATOM      6  C   UNL     1     139.239  74.950 221.934 -0.20 -0.05    +0.242 C  
DOCKED: ATOM      7  O   UNL     1     140.230  75.623 222.320 -0.53 +0.04    -0.273 OA 
DOCKED: BRANCH   6   8
DOCKED: ATOM      8  C   UNL     1     139.315  73.511 221.572 -0.17 -0.04    +0.216 C  
DOCKED: BRANCH   8   9
DOCKED: ATOM      9  N   UNL     1     139.511  72.664 222.706 -0.13 +0.08    -0.342 N  
DOCKED: ATOM     10  C   UNL     1     139.257  71.264 222.648 -0.17 -0.05    +0.270 C  
DOCKED: ATOM     11  O   UNL     1     138.851  70.771 221.562 -0.06 +0.05    -0.268 OA 
DOCKED: ATOM     12  H   UNL     1     139.852  73.035 223.640 -0.32 -0.04    +0.164 HD 
DOCKED: BRANCH  10  13
DOCKED: ATOM     13  C   UNL     1     139.470  70.431 223.828 -0.27 -0.02    +0.128 A  
DOCKED: ATOM     14  C   UNL     1     139.050  69.111 223.791 -0.27 -0.01    +0.035 A  
DOCKED: ATOM     15  N   UNL     1     140.060  70.922 224.934 -0.29 +0.04    -0.243 NA 
DOCKED: ATOM     16  C   UNL     1     139.248  68.317 224.907 -0.40 -0.00    +0.013 A  
DOCKED: ATOM     17  C   UNL     1     140.267  70.172 226.038 -0.47 -0.01    +0.071 A  
DOCKED: ATOM     18  C   UNL     1     139.863  68.862 226.034 -0.52 -0.00    +0.003 A  
DOCKED: ATOM     19  C   UNL     1     140.875  70.699 227.161 -0.62 -0.01    +0.032 A  
DOCKED: ATOM     20  C   UNL     1     140.064  68.075 227.151 -0.62 -0.01    +0.049 A  
DOCKED: ATOM     21  C   UNL     1     141.096  69.936 228.309 -0.52 -0.01    +0.041 A  
DOCKED: ATOM     22  C   UNL     1     140.673  68.614 228.267 -0.56 -0.03    +0.123 A  
DOCKED: ATOM     23  F   UNL     1     140.886  67.877 229.374 -0.14 +0.06    -0.207 F  
DOCKED: ENDBRANCH  10  13
DOCKED: ENDBRANCH   8   9
DOCKED: ENDBRANCH   6   8
DOCKED: ENDBRANCH   1   6
DOCKED: BRANCH   5  24
DOCKED: ATOM     24  C   UNL     1     137.260  77.849 221.167 -0.05 -0.05    +0.254 C  
DOCKED: BRANCH  24  25
DOCKED: ATOM     25  O   UNL     1     137.937  78.261 222.296 -0.06 +0.08    -0.491 OA 
DOCKED: BRANCH  25  26
DOCKED: ATOM     26  C   UNL     1     139.190  78.731 222.488 -0.24 -0.02    +0.119 A  
DOCKED: ATOM     27  C   UNL     1     140.303  78.459 221.728 -0.27 -0.01    +0.048 A  
DOCKED: ATOM     28  C   UNL     1     139.398  79.591 223.571 -0.39 -0.01    +0.048 A  
DOCKED: ATOM     29  C   UNL     1     141.556  78.990 221.999 -0.43 -0.01    +0.024 A  
DOCKED: ATOM     30  C   UNL     1     140.628  80.118 223.844 -0.44 -0.00    +0.024 A  
DOCKED: ATOM     31  C   UNL     1     141.733  79.833 223.069 -0.54 -0.01    +0.041 A  
DOCKED: ATOM     32  Cl  UNL     1     143.309  80.495 223.402 -0.69 +0.02    -0.084 Cl 
DOCKED: ENDBRANCH  25  26
DOCKED: ENDBRANCH  24  25
DOCKED: ENDBRANCH   5  24
DOCKED: TORSDOF 7
DOCKED: TER
DOCKED: ENDMDL
________________________________________________________________________________


    FINAL DOCKED STATE:
    ________________________


Run:   20 / 20
Time taken for this run:   0.030s

DOCKED: MODEL        20
DOCKED: USER    Run = 20
DOCKED: USER
DOCKED: USER    Estimated Free Energy of Binding    =  -7.93 kcal/mol  [=(1)+(2)+(3)-(4)]
DOCKED: USER
DOCKED: USER    (1) Final Intermolecular Energy     = -10.02 kcal/mol
DOCKED: USER        vdW + Hbond + desolv Energy     = -10.02 kcal/mol
DOCKED: USER        Electrostatic Energy            =  +0.00 kcal/mol
DOCKED: USER        Moving Ligand-Fixed Receptor    = -10.02 kcal/mol
DOCKED: USER        Moving Ligand-Moving Receptor   =  +0.00 kcal/mol
DOCKED: USER    (2) Final Total Internal Energy     =  -1.77 kcal/mol
DOCKED: USER    (3) Torsional Free Energy           =  +2.09 kcal/mol
DOCKED: USER    (4) Unbound System's Energy         =  -1.77 kcal/mol
DOCKED: USER
DOCKED: USER
DOCKED: REMARK SMILES O=C(NCC(=O)N1CCC[C@H]1COc1ccc(Cl)cc1)c1ccc2cc(F)ccc2n1
DOCKED: REMARK SMILES IDX 7 1 8 2 9 3 10 4 11 5 5 6 6 7 4 8 3 9 2 10 1 11 21 13 22 14
DOCKED: REMARK SMILES IDX 31 15 23 16 30 17 24 18 29 19 25 20 28 21 26 22 27 23 12 24
DOCKED: REMARK SMILES IDX 13 25 14 26 15 27 20 28 16 29 19 30 17 31 18 32
DOCKED: REMARK H PARENT 3 12
DOCKED: USER                              x       y       z     vdW  Elec       q    Type
DOCKED: USER                           _______ _______ _______ _____ _____    ______ ____
DOCKED: ROOT
DOCKED: ATOM      1  N   UNL     1     142.194  75.228 220.340 -0.13 +0.14    -0.335 N  
DOCKED: ATOM      2  C   UNL     1     142.995  76.242 219.677 -0.32 -0.08    +0.120 C  
DOCKED: ATOM      3  C   UNL     1     143.298  75.608 218.335 -0.26 -0.01    +0.024 C  
DOCKED: ATOM      4  C   UNL     1     142.875  74.158 218.444 -0.14 -0.01    +0.030 C  
DOCKED: ATOM      5  C   UNL     1     142.786  73.933 219.966 -0.22 -0.03    +0.123 C  
DOCKED: ENDROOT
DOCKED: BRANCH   1   6
DOCKED: ATOM      6  C   UNL     1     141.065  75.431 221.179 -0.23 -0.07    +0.242 C  
DOCKED: ATOM      7  O   UNL     1     141.102  76.400 221.982 -0.30 +0.11    -0.273 OA 
DOCKED: BRANCH   6   8
DOCKED: ATOM      8  C   UNL     1     139.912  74.501 221.070 -0.17 -0.04    +0.216 C  
DOCKED: BRANCH   8   9
DOCKED: ATOM      9  N   UNL     1     139.790  73.633 222.199 -0.13 +0.04    -0.342 N  
DOCKED: ATOM     10  C   UNL     1     140.308  72.307 222.185 -0.20 -0.03    +0.270 C  
DOCKED: ATOM     11  O   UNL     1     140.889  71.901 221.144 -0.13 +0.04    -0.268 OA 
DOCKED: ATOM     12  H   UNL     1     139.308  73.934 223.096 -0.53 -0.06    +0.164 HD 
DOCKED: BRANCH  10  13
DOCKED: ATOM     13  C   UNL     1     140.163  71.451 223.358 -0.31 -0.02    +0.128 A  
DOCKED: ATOM     14  C   UNL     1     139.583  70.202 223.200 -0.24 -0.01    +0.035 A  
DOCKED: ATOM     15  N   UNL     1     140.580  71.853 224.574 -0.27 +0.03    -0.243 NA 
DOCKED: ATOM     16  C   UNL     1     139.443  69.387 224.308 -0.32 -0.00    +0.013 A  
DOCKED: ATOM     17  C   UNL     1     140.457  71.080 225.674 -0.53 -0.01    +0.071 A  
DOCKED: ATOM     18  C   UNL     1     139.887  69.839 225.551 -0.45 -0.00    +0.003 A  
DOCKED: ATOM     19  C   UNL     1     140.893  71.515 226.911 -0.71 -0.01    +0.032 A  
DOCKED: ATOM     20  C   UNL     1     139.751  69.029 226.662 -0.51 -0.01    +0.049 A  
DOCKED: ATOM     21  C   UNL     1     140.772  70.726 228.056 -0.64 -0.01    +0.041 A  
DOCKED: ATOM     22  C   UNL     1     140.190  69.477 227.892 -0.52 -0.02    +0.123 A  
DOCKED: ATOM     23  F   UNL     1     140.073  68.715 228.997 -0.15 +0.04    -0.207 F  
DOCKED: ENDBRANCH  10  13
DOCKED: ENDBRANCH   8   9
DOCKED: ENDBRANCH   6   8
DOCKED: ENDBRANCH   1   6
DOCKED: BRANCH   5  24
DOCKED: ATOM     24  C   UNL     1     144.208  73.850 220.454 -0.30 -0.07    +0.254 C  
DOCKED: BRANCH  24  25
DOCKED: ATOM     25  O   UNL     1     145.013  72.913 219.841 -0.15 -0.01    -0.491 OA 
DOCKED: BRANCH  25  26
DOCKED: ATOM     26  C   UNL     1     144.892  71.577 219.671 -0.25 +0.02    +0.119 A  
DOCKED: ATOM     27  C   UNL     1     143.786  70.804 219.933 -0.22 -0.00    +0.048 A  
DOCKED: ATOM     28  C   UNL     1     146.002  70.887 219.173 -0.20 +0.04    +0.048 A  
DOCKED: ATOM     29  C   UNL     1     143.750  69.433 219.725 -0.24 +0.00    +0.024 A  
DOCKED: ATOM     30  C   UNL     1     145.975  69.537 218.965 -0.37 +0.01    +0.024 A  
DOCKED: ATOM     31  C   UNL     1     144.854  68.779 219.234 -0.33 +0.00    +0.041 A  
DOCKED: ATOM     32  Cl  UNL     1     144.801  67.058 218.976 -0.56 +0.03    -0.084 Cl 
DOCKED: ENDBRANCH  25  26
DOCKED: ENDBRANCH  24  25
DOCKED: ENDBRANCH   5  24
DOCKED: TORSDOF 7
DOCKED: TER
DOCKED: ENDMDL
________________________________________________________________________________


    CLUSTERING HISTOGRAM
    ____________________


________________________________________________________________________________
     |           |     |           |     |
Clus | Lowest    | Run | Mean      | Num | Histogram
-ter | Binding   |     | Binding   | in  |
Rank | Energy    |     | Energy    | Clus|    5    10   15   20   25   30   35
_____|___________|_____|___________|_____|____:____|____:____|____:____|____:___
   1 |     -8.07 |   2 |     -8.07 |   1 |#
   2 |     -7.93 |  20 |     -7.81 |   2 |##
   3 |     -7.92 |   9 |     -7.71 |   5 |#####
   4 |     -7.62 |  13 |     -7.62 |   1 |#
   5 |     -7.51 |  12 |     -7.51 |   1 |#
   6 |     -6.87 |   3 |     -6.87 |   1 |#
   7 |     -6.45 |  15 |     -6.25 |   3 |###
   8 |     -5.94 |  16 |     -5.84 |   5 |#####
   9 |     -5.82 |   7 |     -5.82 |   1 |#
_____|___________|_____|___________|_____|______________________________________


    RMSD TABLE
    __________


_______________________________________________________________________
     |      |      |           |         |                 |
Rank | Sub- | Run  | Binding   | Cluster | Reference       | Grep
     | Rank |      | Energy    | RMSD    | RMSD            | Pattern
_____|______|______|___________|_________|_________________|___________
   1      1      2       -8.07      0.00    270.51           RANKING
   2      1     20       -7.93      0.00    270.13           RANKING
   2      2     17       -7.70      1.62    270.39           RANKING
   3      1      9       -7.92      0.00    270.69           RANKING
   3      2      8       -7.84      1.29    270.55           RANKING
   3      3     19       -7.82      1.39    270.64           RANKING
   3      4     14       -7.58      1.31    270.31           RANKING
   3      5      4       -7.39      1.71    270.31           RANKING
   4      1     13       -7.62      0.00    270.30           RANKING
   5      1     12       -7.51      0.00    269.68           RANKING
   6      1      3       -6.87      0.00    269.85           RANKING
   7      1     15       -6.45      0.00    270.29           RANKING
   7      2     10       -6.29      0.98    270.29           RANKING
   7      3     11       -6.02      1.01    270.19           RANKING
   8      1     16       -5.94      0.00    270.20           RANKING
   8      2      1       -5.89      0.52    270.01           RANKING
   8      3      5       -5.85      0.78    270.04           RANKING
   8      4      6       -5.83      0.78    270.00           RANKING
   8      5     18       -5.68      0.77    269.97           RANKING
   9      1      7       -5.82      0.00    270.26           RANKING

Run time 0.539 sec
Idle time 0.000 sec
