AutoDock-GPU version: v1.6

**********************************************************
**    AutoDock-GPU AUTODOCKTOOLS-COMPATIBLE DLG FILE    **
**********************************************************


    DOCKING PARAMETERS
    ________________________


Ligand file:                               /home/a/REINVENT4/ReinventStudies/pleaseWork/justmol2mol_4_Compounds_ontop/graph-dock/graph-DockGPU/node-autodockgpu/inputs/UPYGGEGPIFQECF-WBADGWMWNA-N.pdbqt
Grid fld file:                             /home/a/REINVENT4/ReinventStudies/mols/Rad51/maps/rad51_receptor.maps.fld

Random seed:                               42
Number of runs:                            20
Number of energy evaluations:              1259779
Number of generations:                     42000
Size of population:                        150
Rate of crossover:                         80.000000%
Tournament selection probability limit:    60.000000%
Rate of mutation:                          2.000000%
Maximal allowed delta movement:            +/- 6.000000A
Maximal allowed delta angle:               +/- 90.000000

Rate of local search:                      100.000000%
Maximal number of local search iterations: 300
Rho lower bound:                           0.010000
Spread of local search delta movement:     2.000000A
Spread of local search delta angle:        74.999999
Limit of consecutive successes/failures:   4

Handle symmetry during clustering:         YES
RMSD tolerance:                            2.000000A

Program call in command line was:          /home/a/REINVENT4/ReinventStudies/adgpu-v1.6_linux_x64_cuda12_128wi --filelist batch.txt --heuristics 1 --nrun 20 --psize 150 --lsit 300 --seed 42 --heurmax 12000000 


    GRID PARAMETERS
    ________________________


Receptor name:                             rad51_receptor
Number of grid points (x, y, z):           53, 53, 53
Grid center (x, y, z):                     139.950000, 75.640000, 221.970000A
Grid size (x, y, z):                       19.500000, 19.500000, 19.500000A
Grid spacing:                              0.375000A


    LIGAND PARAMETERS
    ________________________


Ligand name:                               /home/a/REINVENT4/ReinventStudies/pleaseWork/justmol2mol_4_Compounds_ontop/graph-dock/graph-DockGPU/node-autodockgpu/inputs/UPYGGEGPIFQECF-WBADGWMWNA-N
Number of atoms:                           32
Number of rotatable bonds:                 7
Number of atom types:                      7


    DUMMY DATA (only for ADT-compatibility)
    ________________________


DPF> outlev 1
DPF> ga_run 20
DPF> fld /home/a/REINVENT4/ReinventStudies/mols/Rad51/maps/rad51_receptor.maps.fld
DPF> move /home/a/REINVENT4/ReinventStudies/pleaseWork/justmol2mol_4_Compounds_ontop/graph-dock/graph-DockGPU/node-autodockgpu/inputs/UPYGGEGPIFQECF-WBADGWMWNA-N.pdbqt


    COUNTER STATES
    ________________________


Number of energy evaluations performed:    953804
Number of generations used:                55


    INPUT LIGAND PDBQT FILE:
    ________________________


INPUT-LIGAND-PDBQT: REMARK SMILES O=C(NCC(=O)N1C[C@H](O)C[C@H]1Cc1cccc(Cl)c1)c1ccc2ccccc2n1
INPUT-LIGAND-PDBQT: REMARK SMILES IDX 7 1 8 2 9 3 11 4 12 5 5 6 6 7 4 8 3 9 2 10 1 11 21 13 22 14
INPUT-LIGAND-PDBQT: REMARK SMILES IDX 30 15 23 16 29 17 24 18 28 19 25 20 27 21 26 22 13 23 14 24
INPUT-LIGAND-PDBQT: REMARK SMILES IDX 15 25 20 26 16 27 18 28 17 29 19 30 10 31
INPUT-LIGAND-PDBQT: REMARK H PARENT 3 12 10 32
INPUT-LIGAND-PDBQT: ROOT
INPUT-LIGAND-PDBQT: ATOM      1  N   UNL     1       2.182  -1.350   1.233  1.00  0.00    -0.335 N 
INPUT-LIGAND-PDBQT: ATOM      2  C   UNL     1       2.590  -2.746   1.130  1.00  0.00     0.151 C 
INPUT-LIGAND-PDBQT: ATOM      3  C   UNL     1       3.846  -2.886   1.927  1.00  0.00     0.136 C 
INPUT-LIGAND-PDBQT: ATOM      4  C   UNL     1       3.961  -1.561   2.651  1.00  0.00     0.059 C 
INPUT-LIGAND-PDBQT: ATOM      5  C   UNL     1       3.352  -0.610   1.649  1.00  0.00     0.092 C 
INPUT-LIGAND-PDBQT: ENDROOT
INPUT-LIGAND-PDBQT: BRANCH   1   6
INPUT-LIGAND-PDBQT: ATOM      6  C   UNL     1       0.901  -0.803   0.982  1.00  0.00     0.242 C 
INPUT-LIGAND-PDBQT: ATOM      7  O   UNL     1       0.696   0.439   1.115  1.00  0.00    -0.273 OA
INPUT-LIGAND-PDBQT: BRANCH   6   8
INPUT-LIGAND-PDBQT: ATOM      8  C   UNL     1      -0.185  -1.701   0.565  1.00  0.00     0.216 C 
INPUT-LIGAND-PDBQT: BRANCH   8   9
INPUT-LIGAND-PDBQT: ATOM      9  N   UNL     1      -1.428  -0.984   0.350  1.00  0.00    -0.342 N 
INPUT-LIGAND-PDBQT: ATOM     10  C   UNL     1      -1.504   0.051  -0.623  1.00  0.00     0.270 C 
INPUT-LIGAND-PDBQT: ATOM     11  O   UNL     1      -0.514   0.385  -1.330  1.00  0.00    -0.268 OA
INPUT-LIGAND-PDBQT: ATOM     12  H   UNL     1      -2.262  -1.240   0.920  1.00  0.00     0.164 HD
INPUT-LIGAND-PDBQT: BRANCH  10  13
INPUT-LIGAND-PDBQT: ATOM     13  C   UNL     1      -2.799   0.729  -0.781  1.00  0.00     0.128 A 
INPUT-LIGAND-PDBQT: ATOM     14  C   UNL     1      -2.969   1.748  -1.703  1.00  0.00     0.035 A 
INPUT-LIGAND-PDBQT: ATOM     15  N   UNL     1      -3.878   0.401  -0.047  1.00  0.00    -0.243 NA
INPUT-LIGAND-PDBQT: ATOM     16  C   UNL     1      -4.194   2.399  -1.861  1.00  0.00     0.013 A 
INPUT-LIGAND-PDBQT: ATOM     17  C   UNL     1      -5.076   1.001  -0.166  1.00  0.00     0.071 A 
INPUT-LIGAND-PDBQT: ATOM     18  C   UNL     1      -5.269   2.021  -1.080  1.00  0.00     0.000 A 
INPUT-LIGAND-PDBQT: ATOM     19  C   UNL     1      -6.109   0.572   0.648  1.00  0.00     0.029 A 
INPUT-LIGAND-PDBQT: ATOM     20  C   UNL     1      -6.513   2.606  -1.168  1.00  0.00     0.010 A 
INPUT-LIGAND-PDBQT: ATOM     21  C   UNL     1      -7.366   1.161   0.561  1.00  0.00     0.002 A 
INPUT-LIGAND-PDBQT: ATOM     22  C   UNL     1      -7.557   2.178  -0.350  1.00  0.00     0.001 A 
INPUT-LIGAND-PDBQT: ENDBRANCH  10  13
INPUT-LIGAND-PDBQT: ENDBRANCH   8   9
INPUT-LIGAND-PDBQT: ENDBRANCH   6   8
INPUT-LIGAND-PDBQT: ENDBRANCH   1   6
INPUT-LIGAND-PDBQT: BRANCH   5  23
INPUT-LIGAND-PDBQT: ATOM     23  C   UNL     1       4.332  -0.422   0.525  1.00  0.00     0.060 C 
INPUT-LIGAND-PDBQT: BRANCH  23  24
INPUT-LIGAND-PDBQT: ATOM     24  C   UNL     1       3.727   0.326  -0.614  1.00  0.00    -0.044 A 
INPUT-LIGAND-PDBQT: ATOM     25  C   UNL     1       3.854   1.707  -0.575  1.00  0.00     0.004 A 
INPUT-LIGAND-PDBQT: ATOM     26  C   UNL     1       3.076  -0.299  -1.656  1.00  0.00     0.024 A 
INPUT-LIGAND-PDBQT: ATOM     27  C   UNL     1       3.344   2.508  -1.559  1.00  0.00     0.002 A 
INPUT-LIGAND-PDBQT: ATOM     28  C   UNL     1       2.564   0.521  -2.646  1.00  0.00     0.041 A 
INPUT-LIGAND-PDBQT: ATOM     29  C   UNL     1       2.685   1.897  -2.615  1.00  0.00     0.020 A 
INPUT-LIGAND-PDBQT: ATOM     30  Cl  UNL     1       1.729  -0.248  -3.985  1.00  0.00    -0.084 Cl
INPUT-LIGAND-PDBQT: ENDBRANCH  23  24
INPUT-LIGAND-PDBQT: ENDBRANCH   5  23
INPUT-LIGAND-PDBQT: BRANCH   3  31
INPUT-LIGAND-PDBQT: ATOM     31  O   UNL     1       3.772  -3.935   2.848  1.00  0.00    -0.391 OA
INPUT-LIGAND-PDBQT: ATOM     32  H   UNL     1       3.225  -4.644   2.422  1.00  0.00     0.211 HD
INPUT-LIGAND-PDBQT: ENDBRANCH   3  31
INPUT-LIGAND-PDBQT: TORSDOF 7


    FINAL DOCKED STATE:
    ________________________


Run:   1 / 20
Time taken for this run:   0.042s

DOCKED: MODEL        1
DOCKED: USER    Run = 1
DOCKED: USER
DOCKED: USER    Estimated Free Energy of Binding    =  -7.38 kcal/mol  [=(1)+(2)+(3)-(4)]
DOCKED: USER
DOCKED: USER    (1) Final Intermolecular Energy     =  -9.47 kcal/mol
DOCKED: USER        vdW + Hbond + desolv Energy     =  -9.42 kcal/mol
DOCKED: USER        Electrostatic Energy            =  -0.05 kcal/mol
DOCKED: USER        Moving Ligand-Fixed Receptor    =  -9.47 kcal/mol
DOCKED: USER        Moving Ligand-Moving Receptor   =  +0.00 kcal/mol
DOCKED: USER    (2) Final Total Internal Energy     =  -2.62 kcal/mol
DOCKED: USER    (3) Torsional Free Energy           =  +2.09 kcal/mol
DOCKED: USER    (4) Unbound System's Energy         =  -2.62 kcal/mol
DOCKED: USER
DOCKED: USER
DOCKED: REMARK SMILES O=C(NCC(=O)N1C[C@H](O)C[C@H]1Cc1cccc(Cl)c1)c1ccc2ccccc2n1
DOCKED: REMARK SMILES IDX 7 1 8 2 9 3 11 4 12 5 5 6 6 7 4 8 3 9 2 10 1 11 21 13 22 14
DOCKED: REMARK SMILES IDX 30 15 23 16 29 17 24 18 28 19 25 20 27 21 26 22 13 23 14 24
DOCKED: REMARK SMILES IDX 15 25 20 26 16 27 18 28 17 29 19 30 10 31
DOCKED: REMARK H PARENT 3 12 10 32
DOCKED: USER                              x       y       z     vdW  Elec       q    Type
DOCKED: USER                           _______ _______ _______ _____ _____    ______ ____
DOCKED: ROOT
DOCKED: ATOM      1  N   UNL     1     139.282  70.114 221.713 -0.05 +0.06    -0.335 N  
DOCKED: ATOM      2  C   UNL     1     138.051  70.886 221.593 -0.08 -0.03    +0.151 C  
DOCKED: ATOM      3  C   UNL     1     138.024  71.835 222.747 -0.15 -0.04    +0.136 C  
DOCKED: ATOM      4  C   UNL     1     139.405  71.699 223.354 -0.26 -0.01    +0.059 C  
DOCKED: ATOM      5  C   UNL     1     139.718  70.247 223.085 -0.16 -0.02    +0.092 C  
DOCKED: ENDROOT
DOCKED: BRANCH   1   6
DOCKED: ATOM      6  C   UNL     1     139.941  69.375 220.702 -0.07 -0.04    +0.242 C  
DOCKED: ATOM      7  O   UNL     1     139.824  68.116 220.648 -0.10 +0.06    -0.273 OA 
DOCKED: BRANCH   6   8
DOCKED: ATOM      8  C   UNL     1     140.762  70.094 219.718 -0.06 -0.04    +0.216 C  
DOCKED: BRANCH   8   9
DOCKED: ATOM      9  N   UNL     1     140.683  71.532 219.894 -0.02 +0.06    -0.342 N  
DOCKED: ATOM     10  C   UNL     1     141.496  72.185 220.862 -0.12 -0.04    +0.270 C  
DOCKED: ATOM     11  O   UNL     1     142.306  71.556 221.596 -0.07 +0.02    -0.268 OA 
DOCKED: ATOM     12  H   UNL     1     140.023  72.077 219.300 +0.02 -0.03    +0.164 HD 
DOCKED: BRANCH  10  13
DOCKED: ATOM     13  C   UNL     1     141.357  73.644 220.979 -0.22 -0.02    +0.128 A  
DOCKED: ATOM     14  C   UNL     1     142.255  74.502 220.366 -0.27 -0.01    +0.035 A  
DOCKED: ATOM     15  N   UNL     1     140.364  74.219 221.681 -0.57 +0.03    -0.243 NA 
DOCKED: ATOM     16  C   UNL     1     142.133  75.889 220.471 -0.27 -0.01    +0.013 A  
DOCKED: ATOM     17  C   UNL     1     140.209  75.550 221.808 -0.31 -0.01    +0.071 A  
DOCKED: ATOM     18  C   UNL     1     141.093  76.426 221.205 -0.33 -0.00    +0.000 A  
DOCKED: ATOM     19  C   UNL     1     139.145  76.018 222.557 -0.29 -0.01    +0.029 A  
DOCKED: ATOM     20  C   UNL     1     140.895  77.780 221.361 -0.32 -0.00    +0.010 A  
DOCKED: ATOM     21  C   UNL     1     138.943  77.385 222.717 -0.30 -0.00    +0.002 A  
DOCKED: ATOM     22  C   UNL     1     139.825  78.257 222.115 -0.31 -0.00    +0.001 A  
DOCKED: ENDBRANCH  10  13
DOCKED: ENDBRANCH   8   9
DOCKED: ENDBRANCH   6   8
DOCKED: ENDBRANCH   1   6
DOCKED: BRANCH   5  23
DOCKED: ATOM     23  C   UNL     1     138.896  69.409 224.023 -0.29 -0.01    +0.060 C  
DOCKED: BRANCH  23  24
DOCKED: ATOM     24  C   UNL     1     139.537  69.294 225.365 -0.40 +0.01    -0.044 A  
DOCKED: ATOM     25  C   UNL     1     139.696  68.007 225.858 -0.57 -0.00    +0.004 A  
DOCKED: ATOM     26  C   UNL     1     139.955  70.390 226.088 -0.50 -0.00    +0.024 A  
DOCKED: ATOM     27  C   UNL     1     140.270  67.765 227.075 -0.66 -0.00    +0.002 A  
DOCKED: ATOM     28  C   UNL     1     140.535  70.133 227.319 -0.57 -0.01    +0.041 A  
DOCKED: ATOM     29  C   UNL     1     140.697  68.856 227.818 -0.63 -0.00    +0.020 A  
DOCKED: ATOM     30  Cl  UNL     1     141.077  71.511 228.263 -0.87 +0.02    -0.084 Cl 
DOCKED: ENDBRANCH  23  24
DOCKED: ENDBRANCH   5  23
DOCKED: BRANCH   3  31
DOCKED: ATOM     31  O   UNL     1     137.802  73.153 222.340 -0.08 +0.14    -0.391 OA 
DOCKED: ATOM     32  H   UNL     1     138.537  73.694 222.729 -0.53 -0.10    +0.211 HD 
DOCKED: ENDBRANCH   3  31
DOCKED: TORSDOF 7
DOCKED: TER
DOCKED: ENDMDL
________________________________________________________________________________


    FINAL DOCKED STATE:
    ________________________


Run:   2 / 20
Time taken for this run:   0.042s

DOCKED: MODEL        2
DOCKED: USER    Run = 2
DOCKED: USER
DOCKED: USER    Estimated Free Energy of Binding    =  -9.24 kcal/mol  [=(1)+(2)+(3)-(4)]
DOCKED: USER
DOCKED: USER    (1) Final Intermolecular Energy     = -11.33 kcal/mol
DOCKED: USER        vdW + Hbond + desolv Energy     = -11.34 kcal/mol
DOCKED: USER        Electrostatic Energy            =  +0.01 kcal/mol
DOCKED: USER        Moving Ligand-Fixed Receptor    = -11.33 kcal/mol
DOCKED: USER        Moving Ligand-Moving Receptor   =  +0.00 kcal/mol
DOCKED: USER    (2) Final Total Internal Energy     =  -1.33 kcal/mol
DOCKED: USER    (3) Torsional Free Energy           =  +2.09 kcal/mol
DOCKED: USER    (4) Unbound System's Energy         =  -1.33 kcal/mol
DOCKED: USER
DOCKED: USER
DOCKED: REMARK SMILES O=C(NCC(=O)N1C[C@H](O)C[C@H]1Cc1cccc(Cl)c1)c1ccc2ccccc2n1
DOCKED: REMARK SMILES IDX 7 1 8 2 9 3 11 4 12 5 5 6 6 7 4 8 3 9 2 10 1 11 21 13 22 14
DOCKED: REMARK SMILES IDX 30 15 23 16 29 17 24 18 28 19 25 20 27 21 26 22 13 23 14 24
DOCKED: REMARK SMILES IDX 15 25 20 26 16 27 18 28 17 29 19 30 10 31
DOCKED: REMARK H PARENT 3 12 10 32
DOCKED: USER                              x       y       z     vdW  Elec       q    Type
DOCKED: USER                           _______ _______ _______ _____ _____    ______ ____
DOCKED: ROOT
DOCKED: ATOM      1  N   UNL     1     138.879  70.764 222.760 -0.09 +0.07    -0.335 N  
DOCKED: ATOM      2  C   UNL     1     138.588  69.982 221.564 -0.09 -0.03    +0.151 C  
DOCKED: ATOM      3  C   UNL     1     137.410  69.123 221.888 -0.09 -0.02    +0.136 C  
DOCKED: ATOM      4  C   UNL     1     136.940  69.650 223.228 -0.17 -0.01    +0.059 C  
DOCKED: ATOM      5  C   UNL     1     138.240  70.080 223.862 -0.25 -0.02    +0.092 C  
DOCKED: ENDROOT
DOCKED: BRANCH   1   6
DOCKED: ATOM      6  C   UNL     1     139.632  71.959 222.850 -0.21 -0.05    +0.242 C  
DOCKED: ATOM      7  O   UNL     1     140.363  72.182 223.859 -0.36 +0.04    -0.273 OA 
DOCKED: BRANCH   6   8
DOCKED: ATOM      8  C   UNL     1     139.552  72.933 221.753 -0.18 -0.04    +0.216 C  
DOCKED: BRANCH   8   9
DOCKED: ATOM      9  N   UNL     1     139.552  74.299 222.242 -0.11 +0.05    -0.342 N  
DOCKED: ATOM     10  C   UNL     1     140.337  75.295 221.598 -0.23 -0.05    +0.270 C  
DOCKED: ATOM     11  O   UNL     1     141.055  75.041 220.592 -0.15 +0.07    -0.268 OA 
DOCKED: ATOM     12  H   UNL     1     138.967  74.538 223.071 -0.55 -0.07    +0.164 HD 
DOCKED: BRANCH  10  13
DOCKED: ATOM     13  C   UNL     1     140.283  76.655 222.154 -0.33 -0.03    +0.128 A  
DOCKED: ATOM     14  C   UNL     1     139.081  77.229 222.534 -0.29 -0.01    +0.035 A  
DOCKED: ATOM     15  N   UNL     1     141.384  77.410 222.321 -0.16 +0.12    -0.243 NA 
DOCKED: ATOM     16  C   UNL     1     139.017  78.520 223.062 -0.31 -0.00    +0.013 A  
DOCKED: ATOM     17  C   UNL     1     141.369  78.657 222.825 -0.48 -0.03    +0.071 A  
DOCKED: ATOM     18  C   UNL     1     140.180  79.250 223.211 -0.44 -0.00    +0.000 A  
DOCKED: ATOM     19  C   UNL     1     142.571  79.331 222.947 -0.57 -0.01    +0.029 A  
DOCKED: ATOM     20  C   UNL     1     140.213  80.528 223.723 -0.42 -0.00    +0.010 A  
DOCKED: ATOM     21  C   UNL     1     142.606  80.622 223.464 -0.67 -0.00    +0.002 A  
DOCKED: ATOM     22  C   UNL     1     141.421  81.212 223.848 -0.52 -0.00    +0.001 A  
DOCKED: ENDBRANCH  10  13
DOCKED: ENDBRANCH   8   9
DOCKED: ENDBRANCH   6   8
DOCKED: ENDBRANCH   1   6
DOCKED: BRANCH   5  23
DOCKED: ATOM     23  C   UNL     1     138.992  68.846 224.275 -0.31 -0.01    +0.060 C  
DOCKED: BRANCH  23  24
DOCKED: ATOM     24  C   UNL     1     139.702  69.041 225.571 -0.43 +0.01    -0.044 A  
DOCKED: ATOM     25  C   UNL     1     140.056  67.886 226.254 -0.64 -0.00    +0.004 A  
DOCKED: ATOM     26  C   UNL     1     140.001  70.287 226.079 -0.50 -0.00    +0.024 A  
DOCKED: ATOM     27  C   UNL     1     140.711  67.928 227.454 -0.65 -0.00    +0.002 A  
DOCKED: ATOM     28  C   UNL     1     140.664  70.318 227.293 -0.58 -0.01    +0.041 A  
DOCKED: ATOM     29  C   UNL     1     141.019  69.173 227.981 -0.60 -0.00    +0.020 A  
DOCKED: ATOM     30  Cl  UNL     1     141.056  71.892 227.964 -1.00 +0.02    -0.084 Cl 
DOCKED: ENDBRANCH  23  24
DOCKED: ENDBRANCH   5  23
DOCKED: BRANCH   3  31
DOCKED: ATOM     31  O   UNL     1     136.392  69.242 220.938 -0.00 +0.06    -0.391 OA 
DOCKED: ATOM     32  H   UNL     1     135.625  69.668 221.400 +0.02 -0.03    +0.211 HD 
DOCKED: ENDBRANCH   3  31
DOCKED: TORSDOF 7
DOCKED: TER
DOCKED: ENDMDL
________________________________________________________________________________


    FINAL DOCKED STATE:
    ________________________


Run:   3 / 20
Time taken for this run:   0.042s

DOCKED: MODEL        3
DOCKED: USER    Run = 3
DOCKED: USER
DOCKED: USER    Estimated Free Energy of Binding    =  -8.42 kcal/mol  [=(1)+(2)+(3)-(4)]
DOCKED: USER
DOCKED: USER    (1) Final Intermolecular Energy     = -10.51 kcal/mol
DOCKED: USER        vdW + Hbond + desolv Energy     = -10.39 kcal/mol
DOCKED: USER        Electrostatic Energy            =  -0.11 kcal/mol
DOCKED: USER        Moving Ligand-Fixed Receptor    = -10.51 kcal/mol
DOCKED: USER        Moving Ligand-Moving Receptor   =  +0.00 kcal/mol
DOCKED: USER    (2) Final Total Internal Energy     =  -2.14 kcal/mol
DOCKED: USER    (3) Torsional Free Energy           =  +2.09 kcal/mol
DOCKED: USER    (4) Unbound System's Energy         =  -2.14 kcal/mol
DOCKED: USER
DOCKED: USER
DOCKED: REMARK SMILES O=C(NCC(=O)N1C[C@H](O)C[C@H]1Cc1cccc(Cl)c1)c1ccc2ccccc2n1
DOCKED: REMARK SMILES IDX 7 1 8 2 9 3 11 4 12 5 5 6 6 7 4 8 3 9 2 10 1 11 21 13 22 14
DOCKED: REMARK SMILES IDX 30 15 23 16 29 17 24 18 28 19 25 20 27 21 26 22 13 23 14 24
DOCKED: REMARK SMILES IDX 15 25 20 26 16 27 18 28 17 29 19 30 10 31
DOCKED: REMARK H PARENT 3 12 10 32
DOCKED: USER                              x       y       z     vdW  Elec       q    Type
DOCKED: USER                           _______ _______ _______ _____ _____    ______ ____
DOCKED: ROOT
DOCKED: ATOM      1  N   UNL     1     141.271  76.525 220.608 -0.11 +0.15    -0.335 N  
DOCKED: ATOM      2  C   UNL     1     141.441  77.970 220.716 -0.25 -0.08    +0.151 C  
DOCKED: ATOM      3  C   UNL     1     141.910  78.448 219.380 -0.22 -0.09    +0.136 C  
DOCKED: ATOM      4  C   UNL     1     141.756  77.232 218.490 -0.19 -0.03    +0.059 C  
DOCKED: ATOM      5  C   UNL     1     142.038  76.107 219.456 -0.23 -0.04    +0.092 C  
DOCKED: ENDROOT
DOCKED: BRANCH   1   6
DOCKED: ATOM      6  C   UNL     1     140.511  75.679 221.450 -0.24 -0.06    +0.242 C  
DOCKED: ATOM      7  O   UNL     1     139.924  76.147 222.469 -0.38 +0.05    -0.273 OA 
DOCKED: BRANCH   6   8
DOCKED: ATOM      8  C   UNL     1     140.416  74.250 221.121 -0.19 -0.04    +0.216 C  
DOCKED: BRANCH   8   9
DOCKED: ATOM      9  N   UNL     1     140.164  73.439 222.297 -0.12 +0.02    -0.342 N  
DOCKED: ATOM     10  C   UNL     1     140.616  72.092 222.354 -0.20 -0.03    +0.270 C  
DOCKED: ATOM     11  O   UNL     1     141.246  71.552 221.404 -0.14 +0.03    -0.268 OA 
DOCKED: ATOM     12  H   UNL     1     139.646  73.860 223.098 -0.48 -0.01    +0.164 HD 
DOCKED: BRANCH  10  13
DOCKED: ATOM     13  C   UNL     1     140.322  71.337 223.581 -0.32 -0.02    +0.128 A  
DOCKED: ATOM     14  C   UNL     1     139.639  70.133 223.538 -0.26 -0.01    +0.035 A  
DOCKED: ATOM     15  N   UNL     1     140.695  71.769 224.800 -0.29 +0.03    -0.243 NA 
DOCKED: ATOM     16  C   UNL     1     139.354  69.408 224.697 -0.36 -0.00    +0.013 A  
DOCKED: ATOM     17  C   UNL     1     140.441  71.104 225.941 -0.54 -0.01    +0.071 A  
DOCKED: ATOM     18  C   UNL     1     139.761  69.900 225.922 -0.48 -0.00    +0.000 A  
DOCKED: ATOM     19  C   UNL     1     140.877  71.654 227.133 -0.74 -0.01    +0.029 A  
DOCKED: ATOM     20  C   UNL     1     139.524  69.253 227.115 -0.54 -0.00    +0.010 A  
DOCKED: ATOM     21  C   UNL     1     140.639  71.003 228.339 -0.65 -0.00    +0.002 A  
DOCKED: ATOM     22  C   UNL     1     139.961  69.803 228.318 -0.62 -0.00    +0.001 A  
DOCKED: ENDBRANCH  10  13
DOCKED: ENDBRANCH   8   9
DOCKED: ENDBRANCH   6   8
DOCKED: ENDBRANCH   1   6
DOCKED: BRANCH   5  23
DOCKED: ATOM     23  C   UNL     1     143.514  76.087 219.736 -0.35 -0.04    +0.060 C  
DOCKED: BRANCH  23  24
DOCKED: ATOM     24  C   UNL     1     144.020  74.698 219.932 -0.40 +0.02    -0.044 A  
DOCKED: ATOM     25  C   UNL     1     145.194  74.572 220.660 -0.41 -0.00    +0.004 A  
DOCKED: ATOM     26  C   UNL     1     143.372  73.590 219.428 -0.23 -0.01    +0.024 A  
DOCKED: ATOM     27  C   UNL     1     145.761  73.353 220.910 -0.68 -0.00    +0.002 A  
DOCKED: ATOM     28  C   UNL     1     143.955  72.362 219.688 -0.25 -0.00    +0.041 A  
DOCKED: ATOM     29  C   UNL     1     145.124  72.227 220.411 -0.35 -0.00    +0.020 A  
DOCKED: ATOM     30  Cl  UNL     1     143.152  70.934 219.057 -0.17 +0.01    -0.084 Cl 
DOCKED: ENDBRANCH  23  24
DOCKED: ENDBRANCH   5  23
DOCKED: BRANCH   3  31
DOCKED: ATOM     31  O   UNL     1     141.132  79.503 218.895 -0.07 +0.19    -0.391 OA 
DOCKED: ATOM     32  H   UNL     1     141.720  80.034 218.299 +0.07 -0.13    +0.211 HD 
DOCKED: ENDBRANCH   3  31
DOCKED: TORSDOF 7
DOCKED: TER
DOCKED: ENDMDL
________________________________________________________________________________


    FINAL DOCKED STATE:
    ________________________


Run:   4 / 20
Time taken for this run:   0.042s

DOCKED: MODEL        4
DOCKED: USER    Run = 4
DOCKED: USER
DOCKED: USER    Estimated Free Energy of Binding    =  -7.41 kcal/mol  [=(1)+(2)+(3)-(4)]
DOCKED: USER
DOCKED: USER    (1) Final Intermolecular Energy     =  -9.50 kcal/mol
DOCKED: USER        vdW + Hbond + desolv Energy     =  -9.21 kcal/mol
DOCKED: USER        Electrostatic Energy            =  -0.29 kcal/mol
DOCKED: USER        Moving Ligand-Fixed Receptor    =  -9.50 kcal/mol
DOCKED: USER        Moving Ligand-Moving Receptor   =  +0.00 kcal/mol
DOCKED: USER    (2) Final Total Internal Energy     =  -3.44 kcal/mol
DOCKED: USER    (3) Torsional Free Energy           =  +2.09 kcal/mol
DOCKED: USER    (4) Unbound System's Energy         =  -3.44 kcal/mol
DOCKED: USER
DOCKED: USER
DOCKED: REMARK SMILES O=C(NCC(=O)N1C[C@H](O)C[C@H]1Cc1cccc(Cl)c1)c1ccc2ccccc2n1
DOCKED: REMARK SMILES IDX 7 1 8 2 9 3 11 4 12 5 5 6 6 7 4 8 3 9 2 10 1 11 21 13 22 14
DOCKED: REMARK SMILES IDX 30 15 23 16 29 17 24 18 28 19 25 20 27 21 26 22 13 23 14 24
DOCKED: REMARK SMILES IDX 15 25 20 26 16 27 18 28 17 29 19 30 10 31
DOCKED: REMARK H PARENT 3 12 10 32
DOCKED: USER                              x       y       z     vdW  Elec       q    Type
DOCKED: USER                           _______ _______ _______ _____ _____    ______ ____
DOCKED: ROOT
DOCKED: ATOM      1  N   UNL     1     142.912  73.485 219.849 -0.08 +0.07    -0.335 N  
DOCKED: ATOM      2  C   UNL     1     143.865  72.731 219.043 -0.15 -0.01    +0.151 C  
DOCKED: ATOM      3  C   UNL     1     145.220  73.275 219.358 -0.31 +0.01    +0.136 C  
DOCKED: ATOM      4  C   UNL     1     144.973  74.190 220.540 -0.48 -0.02    +0.059 C  
DOCKED: ATOM      5  C   UNL     1     143.584  74.702 220.246 -0.32 -0.04    +0.092 C  
DOCKED: ENDROOT
DOCKED: BRANCH   1   6
DOCKED: ATOM      6  C   UNL     1     141.588  73.119 220.191 -0.11 -0.04    +0.242 C  
DOCKED: ATOM      7  O   UNL     1     140.837  72.561 219.339 -0.03 +0.05    -0.273 OA 
DOCKED: BRANCH   6   8
DOCKED: ATOM      8  C   UNL     1     141.103  73.399 221.549 -0.19 -0.02    +0.216 C  
DOCKED: BRANCH   8   9
DOCKED: ATOM      9  N   UNL     1     141.149  74.816 221.860 -0.11 +0.04    -0.342 N  
DOCKED: ATOM     10  C   UNL     1     139.946  75.559 222.015 -0.20 -0.05    +0.270 C  
DOCKED: ATOM     11  O   UNL     1     138.807  75.031 221.893 -0.24 +0.06    -0.268 OA 
DOCKED: ATOM     12  H   UNL     1     142.077  75.278 221.967 -0.40 -0.07    +0.164 HD 
DOCKED: BRANCH  10  13
DOCKED: ATOM     13  C   UNL     1     140.077  76.990 222.329 -0.33 -0.03    +0.128 A  
DOCKED: ATOM     14  C   UNL     1     138.964  77.807 222.437 -0.28 -0.01    +0.035 A  
DOCKED: ATOM     15  N   UNL     1     141.271  77.577 222.527 -0.24 +0.11    -0.243 NA 
DOCKED: ATOM     16  C   UNL     1     139.077  79.166 222.734 -0.30 -0.00    +0.013 A  
DOCKED: ATOM     17  C   UNL     1     141.426  78.882 222.815 -0.48 -0.03    +0.071 A  
DOCKED: ATOM     18  C   UNL     1     140.330  79.717 222.928 -0.41 -0.00    +0.000 A  
DOCKED: ATOM     19  C   UNL     1     142.709  79.366 222.997 -0.55 -0.01    +0.029 A  
DOCKED: ATOM     20  C   UNL     1     140.536  81.046 223.225 -0.42 -0.00    +0.010 A  
DOCKED: ATOM     21  C   UNL     1     142.920  80.707 223.297 -0.63 -0.00    +0.002 A  
DOCKED: ATOM     22  C   UNL     1     141.826  81.539 223.409 -0.55 -0.00    +0.001 A  
DOCKED: ENDBRANCH  10  13
DOCKED: ENDBRANCH   8   9
DOCKED: ENDBRANCH   6   8
DOCKED: ENDBRANCH   1   6
DOCKED: BRANCH   5  23
DOCKED: ATOM     23  C   UNL     1     143.677  75.691 219.118 -0.28 -0.03    +0.060 C  
DOCKED: BRANCH  23  24
DOCKED: ATOM     24  C   UNL     1     142.491  76.593 219.076 -0.29 +0.02    -0.044 A  
DOCKED: ATOM     25  C   UNL     1     141.279  75.996 218.761 -0.12 -0.00    +0.004 A  
DOCKED: ATOM     26  C   UNL     1     142.572  77.945 219.334 -0.17 -0.02    +0.024 A  
DOCKED: ATOM     27  C   UNL     1     140.117  76.712 218.691 -0.06 -0.00    +0.002 A  
DOCKED: ATOM     28  C   UNL     1     141.390  78.660 219.261 -0.21 -0.02    +0.041 A  
DOCKED: ATOM     29  C   UNL     1     140.178  78.074 218.946 -0.08 -0.01    +0.020 A  
DOCKED: ATOM     30  Cl  UNL     1     141.463  80.384 219.584 -0.34 +0.04    -0.084 Cl 
DOCKED: ENDBRANCH  23  24
DOCKED: ENDBRANCH   5  23
DOCKED: BRANCH   3  31
DOCKED: ATOM     31  O   UNL     1     146.124  72.268 219.708 -0.56 -0.28    -0.391 OA 
DOCKED: ATOM     32  H   UNL     1     145.809  71.895 220.570 -0.30 -0.01    +0.211 HD 
DOCKED: ENDBRANCH   3  31
DOCKED: TORSDOF 7
DOCKED: TER
DOCKED: ENDMDL
________________________________________________________________________________


    FINAL DOCKED STATE:
    ________________________


Run:   5 / 20
Time taken for this run:   0.042s

DOCKED: MODEL        5
DOCKED: USER    Run = 5
DOCKED: USER
DOCKED: USER    Estimated Free Energy of Binding    =  -7.32 kcal/mol  [=(1)+(2)+(3)-(4)]
DOCKED: USER
DOCKED: USER    (1) Final Intermolecular Energy     =  -9.41 kcal/mol
DOCKED: USER        vdW + Hbond + desolv Energy     =  -9.12 kcal/mol
DOCKED: USER        Electrostatic Energy            =  -0.28 kcal/mol
DOCKED: USER        Moving Ligand-Fixed Receptor    =  -9.41 kcal/mol
DOCKED: USER        Moving Ligand-Moving Receptor   =  +0.00 kcal/mol
DOCKED: USER    (2) Final Total Internal Energy     =  -3.44 kcal/mol
DOCKED: USER    (3) Torsional Free Energy           =  +2.09 kcal/mol
DOCKED: USER    (4) Unbound System's Energy         =  -3.44 kcal/mol
DOCKED: USER
DOCKED: USER
DOCKED: REMARK SMILES O=C(NCC(=O)N1C[C@H](O)C[C@H]1Cc1cccc(Cl)c1)c1ccc2ccccc2n1
DOCKED: REMARK SMILES IDX 7 1 8 2 9 3 11 4 12 5 5 6 6 7 4 8 3 9 2 10 1 11 21 13 22 14
DOCKED: REMARK SMILES IDX 30 15 23 16 29 17 24 18 28 19 25 20 27 21 26 22 13 23 14 24
DOCKED: REMARK SMILES IDX 15 25 20 26 16 27 18 28 17 29 19 30 10 31
DOCKED: REMARK H PARENT 3 12 10 32
DOCKED: USER                              x       y       z     vdW  Elec       q    Type
DOCKED: USER                           _______ _______ _______ _____ _____    ______ ____
DOCKED: ROOT
DOCKED: ATOM      1  N   UNL     1     142.966  73.389 219.907 -0.08 +0.07    -0.335 N  
DOCKED: ATOM      2  C   UNL     1     143.945  72.638 219.130 -0.16 -0.01    +0.151 C  
DOCKED: ATOM      3  C   UNL     1     145.277  73.256 219.406 -0.32 +0.01    +0.136 C  
DOCKED: ATOM      4  C   UNL     1     144.998  74.217 220.543 -0.47 -0.02    +0.059 C  
DOCKED: ATOM      5  C   UNL     1     143.585  74.653 220.237 -0.33 -0.04    +0.092 C  
DOCKED: ENDROOT
DOCKED: BRANCH   1   6
DOCKED: ATOM      6  C   UNL     1     141.662  72.983 220.278 -0.11 -0.04    +0.242 C  
DOCKED: ATOM      7  O   UNL     1     140.923  72.366 219.456 -0.03 +0.05    -0.273 OA 
DOCKED: BRANCH   6   8
DOCKED: ATOM      8  C   UNL     1     141.181  73.291 221.632 -0.15 -0.02    +0.216 C  
DOCKED: BRANCH   8   9
DOCKED: ATOM      9  N   UNL     1     141.220  74.714 221.911 -0.05 +0.03    -0.342 N  
DOCKED: ATOM     10  C   UNL     1     140.014  75.451 222.073 -0.13 -0.04    +0.270 C  
DOCKED: ATOM     11  O   UNL     1     138.878  74.910 221.984 -0.29 +0.06    -0.268 OA 
DOCKED: ATOM     12  H   UNL     1     142.146  75.186 221.990 -0.39 -0.06    +0.164 HD 
DOCKED: BRANCH  10  13
DOCKED: ATOM     13  C   UNL     1     140.139  76.889 222.353 -0.33 -0.03    +0.128 A  
DOCKED: ATOM     14  C   UNL     1     139.028  77.715 222.379 -0.29 -0.01    +0.035 A  
DOCKED: ATOM     15  N   UNL     1     141.325  77.474 222.597 -0.21 +0.11    -0.243 NA 
DOCKED: ATOM     16  C   UNL     1     139.135  79.081 222.644 -0.30 -0.00    +0.013 A  
DOCKED: ATOM     17  C   UNL     1     141.474  78.786 222.857 -0.48 -0.03    +0.071 A  
DOCKED: ATOM     18  C   UNL     1     140.379  79.630 222.888 -0.41 -0.00    +0.000 A  
DOCKED: ATOM     19  C   UNL     1     142.749  79.268 223.092 -0.48 -0.01    +0.029 A  
DOCKED: ATOM     20  C   UNL     1     140.579  80.966 223.159 -0.43 -0.00    +0.010 A  
DOCKED: ATOM     21  C   UNL     1     142.954  80.616 223.366 -0.66 -0.00    +0.002 A  
DOCKED: ATOM     22  C   UNL     1     141.861  81.457 223.396 -0.56 -0.00    +0.001 A  
DOCKED: ENDBRANCH  10  13
DOCKED: ENDBRANCH   8   9
DOCKED: ENDBRANCH   6   8
DOCKED: ENDBRANCH   1   6
DOCKED: BRANCH   5  23
DOCKED: ATOM     23  C   UNL     1     143.627  75.587 219.060 -0.28 -0.03    +0.060 C  
DOCKED: BRANCH  23  24
DOCKED: ATOM     24  C   UNL     1     142.460  76.515 219.052 -0.28 +0.02    -0.044 A  
DOCKED: ATOM     25  C   UNL     1     141.226  75.943 218.782 -0.11 -0.00    +0.004 A  
DOCKED: ATOM     26  C   UNL     1     142.579  77.867 219.296 -0.21 -0.02    +0.024 A  
DOCKED: ATOM     27  C   UNL     1     140.077  76.685 218.746 -0.06 -0.00    +0.002 A  
DOCKED: ATOM     28  C   UNL     1     141.411  78.607 219.257 -0.21 -0.02    +0.041 A  
DOCKED: ATOM     29  C   UNL     1     140.178  78.046 218.989 -0.08 -0.01    +0.020 A  
DOCKED: ATOM     30  Cl  UNL     1     141.534  80.331 219.565 -0.34 +0.04    -0.084 Cl 
DOCKED: ENDBRANCH  23  24
DOCKED: ENDBRANCH   5  23
DOCKED: BRANCH   3  31
DOCKED: ATOM     31  O   UNL     1     146.227  72.309 219.797 -0.53 -0.28    -0.391 OA 
DOCKED: ATOM     32  H   UNL     1     145.878  71.885 220.622 -0.34 -0.01    +0.211 HD 
DOCKED: ENDBRANCH   3  31
DOCKED: TORSDOF 7
DOCKED: TER
DOCKED: ENDMDL
________________________________________________________________________________


    FINAL DOCKED STATE:
    ________________________


Run:   6 / 20
Time taken for this run:   0.042s

DOCKED: MODEL        6
DOCKED: USER    Run = 6
DOCKED: USER
DOCKED: USER    Estimated Free Energy of Binding    =  -8.62 kcal/mol  [=(1)+(2)+(3)-(4)]
DOCKED: USER
DOCKED: USER    (1) Final Intermolecular Energy     = -10.71 kcal/mol
DOCKED: USER        vdW + Hbond + desolv Energy     = -10.64 kcal/mol
DOCKED: USER        Electrostatic Energy            =  -0.06 kcal/mol
DOCKED: USER        Moving Ligand-Fixed Receptor    = -10.71 kcal/mol
DOCKED: USER        Moving Ligand-Moving Receptor   =  +0.00 kcal/mol
DOCKED: USER    (2) Final Total Internal Energy     =  -2.14 kcal/mol
DOCKED: USER    (3) Torsional Free Energy           =  +2.09 kcal/mol
DOCKED: USER    (4) Unbound System's Energy         =  -2.14 kcal/mol
DOCKED: USER
DOCKED: USER
DOCKED: REMARK SMILES O=C(NCC(=O)N1C[C@H](O)C[C@H]1Cc1cccc(Cl)c1)c1ccc2ccccc2n1
DOCKED: REMARK SMILES IDX 7 1 8 2 9 3 11 4 12 5 5 6 6 7 4 8 3 9 2 10 1 11 21 13 22 14
DOCKED: REMARK SMILES IDX 30 15 23 16 29 17 24 18 28 19 25 20 27 21 26 22 13 23 14 24
DOCKED: REMARK SMILES IDX 15 25 20 26 16 27 18 28 17 29 19 30 10 31
DOCKED: REMARK H PARENT 3 12 10 32
DOCKED: USER                              x       y       z     vdW  Elec       q    Type
DOCKED: USER                           _______ _______ _______ _____ _____    ______ ____
DOCKED: ROOT
DOCKED: ATOM      1  N   UNL     1     141.192  76.680 220.524 -0.10 +0.15    -0.335 N  
DOCKED: ATOM      2  C   UNL     1     141.407  78.118 220.635 -0.24 -0.08    +0.151 C  
DOCKED: ATOM      3  C   UNL     1     141.590  78.633 219.244 -0.21 -0.08    +0.136 C  
DOCKED: ATOM      4  C   UNL     1     141.228  77.449 218.373 -0.13 -0.03    +0.059 C  
DOCKED: ATOM      5  C   UNL     1     141.688  76.290 219.224 -0.18 -0.04    +0.092 C  
DOCKED: ENDROOT
DOCKED: BRANCH   1   6
DOCKED: ATOM      6  C   UNL     1     140.613  75.816 221.484 -0.24 -0.07    +0.242 C  
DOCKED: ATOM      7  O   UNL     1     140.310  76.247 222.635 -0.36 +0.05    -0.273 OA 
DOCKED: BRANCH   6   8
DOCKED: ATOM      8  C   UNL     1     140.369  74.413 221.121 -0.20 -0.04    +0.216 C  
DOCKED: BRANCH   8   9
DOCKED: ATOM      9  N   UNL     1     140.138  73.584 222.289 -0.08 +0.02    -0.342 N  
DOCKED: ATOM     10  C   UNL     1     140.588  72.235 222.315 -0.20 -0.03    +0.270 C  
DOCKED: ATOM     11  O   UNL     1     141.197  71.709 221.344 -0.15 +0.03    -0.268 OA 
DOCKED: ATOM     12  H   UNL     1     139.637  73.994 223.106 -0.48 -0.01    +0.164 HD 
DOCKED: BRANCH  10  13
DOCKED: ATOM     13  C   UNL     1     140.315  71.461 223.535 -0.33 -0.02    +0.128 A  
DOCKED: ATOM     14  C   UNL     1     139.631  70.258 223.486 -0.27 -0.01    +0.035 A  
DOCKED: ATOM     15  N   UNL     1     140.711  71.874 224.753 -0.27 +0.03    -0.243 NA 
DOCKED: ATOM     16  C   UNL     1     139.366  69.515 224.638 -0.36 -0.00    +0.013 A  
DOCKED: ATOM     17  C   UNL     1     140.478  71.191 225.888 -0.54 -0.01    +0.071 A  
DOCKED: ATOM     18  C   UNL     1     139.796  69.987 225.863 -0.48 -0.00    +0.000 A  
DOCKED: ATOM     19  C   UNL     1     140.937  71.722 227.080 -0.75 -0.01    +0.029 A  
DOCKED: ATOM     20  C   UNL     1     139.581  69.322 227.050 -0.55 -0.00    +0.010 A  
DOCKED: ATOM     21  C   UNL     1     140.720  71.052 228.280 -0.67 -0.00    +0.002 A  
DOCKED: ATOM     22  C   UNL     1     140.040  69.853 228.254 -0.62 -0.00    +0.001 A  
DOCKED: ENDBRANCH  10  13
DOCKED: ENDBRANCH   8   9
DOCKED: ENDBRANCH   6   8
DOCKED: ENDBRANCH   1   6
DOCKED: BRANCH   5  23
DOCKED: ATOM     23  C   UNL     1     143.190  76.244 219.182 -0.35 -0.04    +0.060 C  
DOCKED: BRANCH  23  24
DOCKED: ATOM     24  C   UNL     1     143.715  74.936 219.667 -0.37 +0.02    -0.044 A  
DOCKED: ATOM     25  C   UNL     1     143.013  73.808 219.265 -0.21 -0.00    +0.004 A  
DOCKED: ATOM     26  C   UNL     1     144.832  74.830 220.467 -0.38 -0.01    +0.024 A  
DOCKED: ATOM     27  C   UNL     1     143.392  72.549 219.641 -0.22 -0.00    +0.002 A  
DOCKED: ATOM     28  C   UNL     1     145.206  73.551 220.841 -0.58 -0.01    +0.041 A  
DOCKED: ATOM     29  C   UNL     1     144.513  72.423 220.447 -0.39 -0.00    +0.020 A  
DOCKED: ATOM     30  Cl  UNL     1     146.625  73.387 221.862 -0.77 +0.01    -0.084 Cl 
DOCKED: ENDBRANCH  23  24
DOCKED: ENDBRANCH   5  23
DOCKED: BRANCH   3  31
DOCKED: ATOM     31  O   UNL     1     140.746  79.713 218.967 -0.04 +0.17    -0.391 OA 
DOCKED: ATOM     32  H   UNL     1     139.822  79.398 219.142 +0.05 -0.07    +0.211 HD 
DOCKED: ENDBRANCH   3  31
DOCKED: TORSDOF 7
DOCKED: TER
DOCKED: ENDMDL
________________________________________________________________________________


    FINAL DOCKED STATE:
    ________________________


Run:   7 / 20
Time taken for this run:   0.042s

DOCKED: MODEL        7
DOCKED: USER    Run = 7
DOCKED: USER
DOCKED: USER    Estimated Free Energy of Binding    =  -8.12 kcal/mol  [=(1)+(2)+(3)-(4)]
DOCKED: USER
DOCKED: USER    (1) Final Intermolecular Energy     = -10.21 kcal/mol
DOCKED: USER        vdW + Hbond + desolv Energy     =  -9.99 kcal/mol
DOCKED: USER        Electrostatic Energy            =  -0.23 kcal/mol
DOCKED: USER        Moving Ligand-Fixed Receptor    = -10.21 kcal/mol
DOCKED: USER        Moving Ligand-Moving Receptor   =  +0.00 kcal/mol
DOCKED: USER    (2) Final Total Internal Energy     =  -2.45 kcal/mol
DOCKED: USER    (3) Torsional Free Energy           =  +2.09 kcal/mol
DOCKED: USER    (4) Unbound System's Energy         =  -2.45 kcal/mol
DOCKED: USER
DOCKED: USER
DOCKED: REMARK SMILES O=C(NCC(=O)N1C[C@H](O)C[C@H]1Cc1cccc(Cl)c1)c1ccc2ccccc2n1
DOCKED: REMARK SMILES IDX 7 1 8 2 9 3 11 4 12 5 5 6 6 7 4 8 3 9 2 10 1 11 21 13 22 14
DOCKED: REMARK SMILES IDX 30 15 23 16 29 17 24 18 28 19 25 20 27 21 26 22 13 23 14 24
DOCKED: REMARK SMILES IDX 15 25 20 26 16 27 18 28 17 29 19 30 10 31
DOCKED: REMARK H PARENT 3 12 10 32
DOCKED: USER                              x       y       z     vdW  Elec       q    Type
DOCKED: USER                           _______ _______ _______ _____ _____    ______ ____
DOCKED: ROOT
DOCKED: ATOM      1  N   UNL     1     142.978  73.369 220.507 -0.12 +0.07    -0.335 N  
DOCKED: ATOM      2  C   UNL     1     143.998  72.385 220.163 -0.26 -0.02    +0.151 C  
DOCKED: ATOM      3  C   UNL     1     145.279  73.136 219.995 -0.42 +0.00    +0.136 C  
DOCKED: ATOM      4  C   UNL     1     144.948  74.527 220.494 -0.39 -0.02    +0.059 C  
DOCKED: ATOM      5  C   UNL     1     143.496  74.656 220.101 -0.34 -0.04    +0.092 C  
DOCKED: ENDROOT
DOCKED: BRANCH   1   6
DOCKED: ATOM      6  C   UNL     1     141.723  73.136 221.118 -0.15 -0.03    +0.242 C  
DOCKED: ATOM      7  O   UNL     1     141.571  72.174 221.926 -0.18 +0.01    -0.273 OA 
DOCKED: BRANCH   6   8
DOCKED: ATOM      8  C   UNL     1     140.601  74.030 220.799 -0.16 -0.04    +0.216 C  
DOCKED: BRANCH   8   9
DOCKED: ATOM      9  N   UNL     1     140.813  75.370 221.312 -0.16 +0.09    -0.342 N  
DOCKED: ATOM     10  C   UNL     1     139.755  76.071 221.956 -0.24 -0.06    +0.270 C  
DOCKED: ATOM     11  O   UNL     1     138.608  75.569 222.107 -0.23 +0.06    -0.268 OA 
DOCKED: ATOM     12  H   UNL     1     141.751  75.809 221.201 -0.13 -0.08    +0.164 HD 
DOCKED: BRANCH  10  13
DOCKED: ATOM     13  C   UNL     1     140.050  77.425 222.449 -0.31 -0.03    +0.128 A  
DOCKED: ATOM     14  C   UNL     1     139.035  78.301 222.795 -0.30 -0.01    +0.035 A  
DOCKED: ATOM     15  N   UNL     1     141.308  77.882 222.589 -0.27 +0.11    -0.243 NA 
DOCKED: ATOM     16  C   UNL     1     139.304  79.588 223.264 -0.38 -0.00    +0.013 A  
DOCKED: ATOM     17  C   UNL     1     141.613  79.113 223.036 -0.51 -0.02    +0.071 A  
DOCKED: ATOM     18  C   UNL     1     140.615  80.005 223.388 -0.48 -0.00    +0.000 A  
DOCKED: ATOM     19  C   UNL     1     142.947  79.464 223.136 -0.50 -0.01    +0.029 A  
DOCKED: ATOM     20  C   UNL     1     140.974  81.255 223.842 -0.38 -0.00    +0.010 A  
DOCKED: ATOM     21  C   UNL     1     143.311  80.726 223.594 -0.58 -0.00    +0.002 A  
DOCKED: ATOM     22  C   UNL     1     142.316  81.614 223.944 -0.56 -0.00    +0.001 A  
DOCKED: ENDBRANCH  10  13
DOCKED: ENDBRANCH   8   9
DOCKED: ENDBRANCH   6   8
DOCKED: ENDBRANCH   1   6
DOCKED: BRANCH   5  23
DOCKED: ATOM     23  C   UNL     1     143.428  74.849 218.612 -0.22 -0.02    +0.060 C  
DOCKED: BRANCH  23  24
DOCKED: ATOM     24  C   UNL     1     143.073  76.252 218.254 -0.27 +0.02    -0.044 A  
DOCKED: ATOM     25  C   UNL     1     143.241  76.605 216.923 -0.25 -0.00    +0.004 A  
DOCKED: ATOM     26  C   UNL     1     142.601  77.162 219.176 -0.33 -0.02    +0.024 A  
DOCKED: ATOM     27  C   UNL     1     142.950  77.860 216.465 -0.22 -0.00    +0.002 A  
DOCKED: ATOM     28  C   UNL     1     142.310  78.429 218.702 -0.28 -0.03    +0.041 A  
DOCKED: ATOM     29  C   UNL     1     142.476  78.789 217.379 -0.27 -0.02    +0.020 A  
DOCKED: ATOM     30  Cl  UNL     1     141.709  79.608 219.855 -0.34 +0.05    -0.084 Cl 
DOCKED: ENDBRANCH  23  24
DOCKED: ENDBRANCH   5  23
DOCKED: BRANCH   3  31
DOCKED: ATOM     31  O   UNL     1     146.316  72.585 220.753 -0.32 -0.05    -0.391 OA 
DOCKED: ATOM     32  H   UNL     1     145.889  71.997 221.428 -0.44 -0.13    +0.211 HD 
DOCKED: ENDBRANCH   3  31
DOCKED: TORSDOF 7
DOCKED: TER
DOCKED: ENDMDL
________________________________________________________________________________


    FINAL DOCKED STATE:
    ________________________


Run:   8 / 20
Time taken for this run:   0.042s

DOCKED: MODEL        8
DOCKED: USER    Run = 8
DOCKED: USER
DOCKED: USER    Estimated Free Energy of Binding    =  -8.49 kcal/mol  [=(1)+(2)+(3)-(4)]
DOCKED: USER
DOCKED: USER    (1) Final Intermolecular Energy     = -10.57 kcal/mol
DOCKED: USER        vdW + Hbond + desolv Energy     = -10.46 kcal/mol
DOCKED: USER        Electrostatic Energy            =  -0.11 kcal/mol
DOCKED: USER        Moving Ligand-Fixed Receptor    = -10.57 kcal/mol
DOCKED: USER        Moving Ligand-Moving Receptor   =  +0.00 kcal/mol
DOCKED: USER    (2) Final Total Internal Energy     =  -2.11 kcal/mol
DOCKED: USER    (3) Torsional Free Energy           =  +2.09 kcal/mol
DOCKED: USER    (4) Unbound System's Energy         =  -2.11 kcal/mol
DOCKED: USER
DOCKED: USER
DOCKED: REMARK SMILES O=C(NCC(=O)N1C[C@H](O)C[C@H]1Cc1cccc(Cl)c1)c1ccc2ccccc2n1
DOCKED: REMARK SMILES IDX 7 1 8 2 9 3 11 4 12 5 5 6 6 7 4 8 3 9 2 10 1 11 21 13 22 14
DOCKED: REMARK SMILES IDX 30 15 23 16 29 17 24 18 28 19 25 20 27 21 26 22 13 23 14 24
DOCKED: REMARK SMILES IDX 15 25 20 26 16 27 18 28 17 29 19 30 10 31
DOCKED: REMARK H PARENT 3 12 10 32
DOCKED: USER                              x       y       z     vdW  Elec       q    Type
DOCKED: USER                           _______ _______ _______ _____ _____    ______ ____
DOCKED: ROOT
DOCKED: ATOM      1  N   UNL     1     141.277  76.508 220.566 -0.11 +0.15    -0.335 N  
DOCKED: ATOM      2  C   UNL     1     141.434  77.958 220.599 -0.24 -0.08    +0.151 C  
DOCKED: ATOM      3  C   UNL     1     141.898  78.371 219.241 -0.22 -0.08    +0.136 C  
DOCKED: ATOM      4  C   UNL     1     141.756  77.110 218.414 -0.18 -0.03    +0.059 C  
DOCKED: ATOM      5  C   UNL     1     142.048  76.038 219.437 -0.22 -0.04    +0.092 C  
DOCKED: ENDROOT
DOCKED: BRANCH   1   6
DOCKED: ATOM      6  C   UNL     1     140.525  75.700 221.451 -0.24 -0.06    +0.242 C  
DOCKED: ATOM      7  O   UNL     1     140.035  76.191 222.510 -0.37 +0.05    -0.273 OA 
DOCKED: BRANCH   6   8
DOCKED: ATOM      8  C   UNL     1     140.324  74.282 221.120 -0.19 -0.04    +0.216 C  
DOCKED: BRANCH   8   9
DOCKED: ATOM      9  N   UNL     1     140.099  73.476 222.305 -0.11 +0.02    -0.342 N  
DOCKED: ATOM     10  C   UNL     1     140.552  72.128 222.356 -0.20 -0.03    +0.270 C  
DOCKED: ATOM     11  O   UNL     1     141.160  71.585 221.394 -0.14 +0.03    -0.268 OA 
DOCKED: ATOM     12  H   UNL     1     139.600  73.900 223.115 -0.50 -0.02    +0.164 HD 
DOCKED: BRANCH  10  13
DOCKED: ATOM     13  C   UNL     1     140.286  71.378 223.593 -0.32 -0.02    +0.128 A  
DOCKED: ATOM     14  C   UNL     1     139.622  70.164 223.567 -0.27 -0.01    +0.035 A  
DOCKED: ATOM     15  N   UNL     1     140.668  71.825 224.803 -0.28 +0.03    -0.243 NA 
DOCKED: ATOM     16  C   UNL     1     139.363  69.443 224.735 -0.37 -0.00    +0.013 A  
DOCKED: ATOM     17  C   UNL     1     140.440  71.164 225.952 -0.54 -0.01    +0.071 A  
DOCKED: ATOM     18  C   UNL     1     139.779  69.950 225.951 -0.48 -0.00    +0.000 A  
DOCKED: ATOM     19  C   UNL     1     140.884  71.730 227.134 -0.75 -0.01    +0.029 A  
DOCKED: ATOM     20  C   UNL     1     139.568  69.308 227.152 -0.55 -0.00    +0.010 A  
DOCKED: ATOM     21  C   UNL     1     140.673  71.084 228.347 -0.66 -0.00    +0.002 A  
DOCKED: ATOM     22  C   UNL     1     140.012  69.874 228.345 -0.61 -0.00    +0.001 A  
DOCKED: ENDBRANCH  10  13
DOCKED: ENDBRANCH   8   9
DOCKED: ENDBRANCH   6   8
DOCKED: ENDBRANCH   1   6
DOCKED: BRANCH   5  23
DOCKED: ATOM     23  C   UNL     1     143.525  76.047 219.717 -0.36 -0.04    +0.060 C  
DOCKED: BRANCH  23  24
DOCKED: ATOM     24  C   UNL     1     144.051  74.671 219.944 -0.40 +0.02    -0.044 A  
DOCKED: ATOM     25  C   UNL     1     145.239  74.579 220.654 -0.40 -0.00    +0.004 A  
DOCKED: ATOM     26  C   UNL     1     143.408  73.541 219.485 -0.24 -0.01    +0.024 A  
DOCKED: ATOM     27  C   UNL     1     145.826  73.376 220.930 -0.69 -0.00    +0.002 A  
DOCKED: ATOM     28  C   UNL     1     144.010  72.328 219.770 -0.26 -0.00    +0.041 A  
DOCKED: ATOM     29  C   UNL     1     145.194  72.228 220.475 -0.34 -0.00    +0.020 A  
DOCKED: ATOM     30  Cl  UNL     1     143.214  70.872 219.197 -0.19 +0.01    -0.084 Cl 
DOCKED: ENDBRANCH  23  24
DOCKED: ENDBRANCH   5  23
DOCKED: BRANCH   3  31
DOCKED: ATOM     31  O   UNL     1     141.110  79.392 218.702 -0.06 +0.19    -0.391 OA 
DOCKED: ATOM     32  H   UNL     1     141.539  79.657 217.848 +0.06 -0.13    +0.211 HD 
DOCKED: ENDBRANCH   3  31
DOCKED: TORSDOF 7
DOCKED: TER
DOCKED: ENDMDL
________________________________________________________________________________


    FINAL DOCKED STATE:
    ________________________


Run:   9 / 20
Time taken for this run:   0.042s

DOCKED: MODEL        9
DOCKED: USER    Run = 9
DOCKED: USER
DOCKED: USER    Estimated Free Energy of Binding    =  -7.41 kcal/mol  [=(1)+(2)+(3)-(4)]
DOCKED: USER
DOCKED: USER    (1) Final Intermolecular Energy     =  -9.50 kcal/mol
DOCKED: USER        vdW + Hbond + desolv Energy     =  -9.22 kcal/mol
DOCKED: USER        Electrostatic Energy            =  -0.28 kcal/mol
DOCKED: USER        Moving Ligand-Fixed Receptor    =  -9.50 kcal/mol
DOCKED: USER        Moving Ligand-Moving Receptor   =  +0.00 kcal/mol
DOCKED: USER    (2) Final Total Internal Energy     =  -3.45 kcal/mol
DOCKED: USER    (3) Torsional Free Energy           =  +2.09 kcal/mol
DOCKED: USER    (4) Unbound System's Energy         =  -3.45 kcal/mol
DOCKED: USER
DOCKED: USER
DOCKED: REMARK SMILES O=C(NCC(=O)N1C[C@H](O)C[C@H]1Cc1cccc(Cl)c1)c1ccc2ccccc2n1
DOCKED: REMARK SMILES IDX 7 1 8 2 9 3 11 4 12 5 5 6 6 7 4 8 3 9 2 10 1 11 21 13 22 14
DOCKED: REMARK SMILES IDX 30 15 23 16 29 17 24 18 28 19 25 20 27 21 26 22 13 23 14 24
DOCKED: REMARK SMILES IDX 15 25 20 26 16 27 18 28 17 29 19 30 10 31
DOCKED: REMARK H PARENT 3 12 10 32
DOCKED: USER                              x       y       z     vdW  Elec       q    Type
DOCKED: USER                           _______ _______ _______ _____ _____    ______ ____
DOCKED: ROOT
DOCKED: ATOM      1  N   UNL     1     142.901  73.495 219.864 -0.08 +0.07    -0.335 N  
DOCKED: ATOM      2  C   UNL     1     143.829  72.718 219.052 -0.15 -0.01    +0.151 C  
DOCKED: ATOM      3  C   UNL     1     145.198  73.242 219.344 -0.31 +0.01    +0.136 C  
DOCKED: ATOM      4  C   UNL     1     144.982  74.171 220.520 -0.49 -0.02    +0.059 C  
DOCKED: ATOM      5  C   UNL     1     143.598  74.704 220.241 -0.33 -0.04    +0.092 C  
DOCKED: ENDROOT
DOCKED: BRANCH   1   6
DOCKED: ATOM      6  C   UNL     1     141.576  73.154 220.227 -0.11 -0.04    +0.242 C  
DOCKED: ATOM      7  O   UNL     1     140.794  72.627 219.382 -0.03 +0.05    -0.273 OA 
DOCKED: BRANCH   6   8
DOCKED: ATOM      8  C   UNL     1     141.124  73.423 221.599 -0.18 -0.02    +0.216 C  
DOCKED: BRANCH   8   9
DOCKED: ATOM      9  N   UNL     1     141.174  74.838 221.918 -0.09 +0.04    -0.342 N  
DOCKED: ATOM     10  C   UNL     1     139.975  75.598 222.013 -0.20 -0.05    +0.270 C  
DOCKED: ATOM     11  O   UNL     1     138.837  75.086 221.829 -0.23 +0.06    -0.268 OA 
DOCKED: ATOM     12  H   UNL     1     142.102  75.286 222.076 -0.42 -0.06    +0.164 HD 
DOCKED: BRANCH  10  13
DOCKED: ATOM     13  C   UNL     1     140.110  77.025 222.341 -0.33 -0.03    +0.128 A  
DOCKED: ATOM     14  C   UNL     1     139.002  77.849 222.433 -0.28 -0.01    +0.035 A  
DOCKED: ATOM     15  N   UNL     1     141.305  77.602 222.566 -0.23 +0.11    -0.243 NA 
DOCKED: ATOM     16  C   UNL     1     139.118  79.205 222.743 -0.30 -0.00    +0.013 A  
DOCKED: ATOM     17  C   UNL     1     141.463  78.903 222.868 -0.48 -0.03    +0.071 A  
DOCKED: ATOM     18  C   UNL     1     140.370  79.745 222.965 -0.42 -0.00    +0.000 A  
DOCKED: ATOM     19  C   UNL     1     142.746  79.377 223.078 -0.54 -0.01    +0.029 A  
DOCKED: ATOM     20  C   UNL     1     140.580  81.071 223.277 -0.42 -0.00    +0.010 A  
DOCKED: ATOM     21  C   UNL     1     142.960  80.715 223.393 -0.63 -0.00    +0.002 A  
DOCKED: ATOM     22  C   UNL     1     141.870  81.553 223.489 -0.55 -0.00    +0.001 A  
DOCKED: ENDBRANCH  10  13
DOCKED: ENDBRANCH   8   9
DOCKED: ENDBRANCH   6   8
DOCKED: ENDBRANCH   1   6
DOCKED: BRANCH   5  23
DOCKED: ATOM     23  C   UNL     1     143.692  75.681 219.102 -0.27 -0.03    +0.060 C  
DOCKED: BRANCH  23  24
DOCKED: ATOM     24  C   UNL     1     142.506  76.583 219.051 -0.29 +0.02    -0.044 A  
DOCKED: ATOM     25  C   UNL     1     141.304  75.992 218.689 -0.12 -0.00    +0.004 A  
DOCKED: ATOM     26  C   UNL     1     142.577  77.928 219.343 -0.17 -0.02    +0.024 A  
DOCKED: ATOM     27  C   UNL     1     140.142  76.709 218.605 -0.06 -0.00    +0.002 A  
DOCKED: ATOM     28  C   UNL     1     141.396  78.644 219.255 -0.21 -0.02    +0.041 A  
DOCKED: ATOM     29  C   UNL     1     140.195  78.064 218.895 -0.08 -0.01    +0.020 A  
DOCKED: ATOM     30  Cl  UNL     1     141.458  80.359 219.622 -0.34 +0.04    -0.084 Cl 
DOCKED: ENDBRANCH  23  24
DOCKED: ENDBRANCH   5  23
DOCKED: BRANCH   3  31
DOCKED: ATOM     31  O   UNL     1     146.090  72.223 219.690 -0.55 -0.28    -0.391 OA 
DOCKED: ATOM     32  H   UNL     1     145.805  71.891 220.580 -0.31 -0.01    +0.211 HD 
DOCKED: ENDBRANCH   3  31
DOCKED: TORSDOF 7
DOCKED: TER
DOCKED: ENDMDL
________________________________________________________________________________


    FINAL DOCKED STATE:
    ________________________


Run:   10 / 20
Time taken for this run:   0.042s

DOCKED: MODEL        10
DOCKED: USER    Run = 10
DOCKED: USER
DOCKED: USER    Estimated Free Energy of Binding    =  -8.47 kcal/mol  [=(1)+(2)+(3)-(4)]
DOCKED: USER
DOCKED: USER    (1) Final Intermolecular Energy     = -10.56 kcal/mol
DOCKED: USER        vdW + Hbond + desolv Energy     = -10.48 kcal/mol
DOCKED: USER        Electrostatic Energy            =  -0.07 kcal/mol
DOCKED: USER        Moving Ligand-Fixed Receptor    = -10.56 kcal/mol
DOCKED: USER        Moving Ligand-Moving Receptor   =  +0.00 kcal/mol
DOCKED: USER    (2) Final Total Internal Energy     =  -2.22 kcal/mol
DOCKED: USER    (3) Torsional Free Energy           =  +2.09 kcal/mol
DOCKED: USER    (4) Unbound System's Energy         =  -2.22 kcal/mol
DOCKED: USER
DOCKED: USER
DOCKED: REMARK SMILES O=C(NCC(=O)N1C[C@H](O)C[C@H]1Cc1cccc(Cl)c1)c1ccc2ccccc2n1
DOCKED: REMARK SMILES IDX 7 1 8 2 9 3 11 4 12 5 5 6 6 7 4 8 3 9 2 10 1 11 21 13 22 14
DOCKED: REMARK SMILES IDX 30 15 23 16 29 17 24 18 28 19 25 20 27 21 26 22 13 23 14 24
DOCKED: REMARK SMILES IDX 15 25 20 26 16 27 18 28 17 29 19 30 10 31
DOCKED: REMARK H PARENT 3 12 10 32
DOCKED: USER                              x       y       z     vdW  Elec       q    Type
DOCKED: USER                           _______ _______ _______ _____ _____    ______ ____
DOCKED: ROOT
DOCKED: ATOM      1  N   UNL     1     141.295  76.566 220.449 -0.10 +0.15    -0.335 N  
DOCKED: ATOM      2  C   UNL     1     141.545  77.996 220.580 -0.24 -0.08    +0.151 C  
DOCKED: ATOM      3  C   UNL     1     141.701  78.533 219.194 -0.21 -0.08    +0.136 C  
DOCKED: ATOM      4  C   UNL     1     141.290  77.373 218.312 -0.13 -0.03    +0.059 C  
DOCKED: ATOM      5  C   UNL     1     141.747  76.188 219.129 -0.17 -0.04    +0.092 C  
DOCKED: ENDROOT
DOCKED: BRANCH   1   6
DOCKED: ATOM      6  C   UNL     1     140.723  75.697 221.409 -0.24 -0.07    +0.242 C  
DOCKED: ATOM      7  O   UNL     1     140.321  76.145 222.523 -0.38 +0.05    -0.273 OA 
DOCKED: BRANCH   6   8
DOCKED: ATOM      8  C   UNL     1     140.604  74.267 221.091 -0.20 -0.04    +0.216 C  
DOCKED: BRANCH   8   9
DOCKED: ATOM      9  N   UNL     1     140.327  73.471 222.272 -0.09 +0.01    -0.342 N  
DOCKED: ATOM     10  C   UNL     1     140.681  72.094 222.312 -0.20 -0.02    +0.270 C  
DOCKED: ATOM     11  O   UNL     1     141.242  71.514 221.342 -0.14 +0.03    -0.268 OA 
DOCKED: ATOM     12  H   UNL     1     139.864  73.924 223.088 -0.37 +0.02    +0.164 HD 
DOCKED: BRANCH  10  13
DOCKED: ATOM     13  C   UNL     1     140.368  71.356 223.544 -0.31 -0.02    +0.128 A  
DOCKED: ATOM     14  C   UNL     1     139.681  70.154 223.508 -0.25 -0.01    +0.035 A  
DOCKED: ATOM     15  N   UNL     1     140.726  71.803 224.762 -0.27 +0.03    -0.243 NA 
DOCKED: ATOM     16  C   UNL     1     139.378  69.445 224.672 -0.36 -0.00    +0.013 A  
DOCKED: ATOM     17  C   UNL     1     140.455  71.153 225.908 -0.54 -0.01    +0.071 A  
DOCKED: ATOM     18  C   UNL     1     139.770  69.951 225.896 -0.48 -0.00    +0.000 A  
DOCKED: ATOM     19  C   UNL     1     140.878  71.717 227.098 -0.74 -0.01    +0.029 A  
DOCKED: ATOM     20  C   UNL     1     139.515  69.321 227.094 -0.54 -0.00    +0.010 A  
DOCKED: ATOM     21  C   UNL     1     140.621  71.083 228.309 -0.67 -0.00    +0.002 A  
DOCKED: ATOM     22  C   UNL     1     139.939  69.885 228.296 -0.62 -0.00    +0.001 A  
DOCKED: ENDBRANCH  10  13
DOCKED: ENDBRANCH   8   9
DOCKED: ENDBRANCH   6   8
DOCKED: ENDBRANCH   1   6
DOCKED: BRANCH   5  23
DOCKED: ATOM     23  C   UNL     1     143.246  76.111 219.045 -0.34 -0.04    +0.060 C  
DOCKED: BRANCH  23  24
DOCKED: ATOM     24  C   UNL     1     143.762  74.823 219.589 -0.35 +0.02    -0.044 A  
DOCKED: ATOM     25  C   UNL     1     143.101  73.675 219.175 -0.20 -0.00    +0.004 A  
DOCKED: ATOM     26  C   UNL     1     144.834  74.753 220.453 -0.40 -0.01    +0.024 A  
DOCKED: ATOM     27  C   UNL     1     143.477  72.431 219.600 -0.22 -0.00    +0.002 A  
DOCKED: ATOM     28  C   UNL     1     145.206  73.489 220.877 -0.58 -0.01    +0.041 A  
DOCKED: ATOM     29  C   UNL     1     144.552  72.341 220.471 -0.39 -0.00    +0.020 A  
DOCKED: ATOM     30  Cl  UNL     1     146.567  73.370 221.978 -0.76 +0.01    -0.084 Cl 
DOCKED: ENDBRANCH  23  24
DOCKED: ENDBRANCH   5  23
DOCKED: BRANCH   3  31
DOCKED: ATOM     31  O   UNL     1     140.874  79.635 218.959 -0.05 +0.17    -0.391 OA 
DOCKED: ATOM     32  H   UNL     1     141.051  79.925 218.027 +0.05 -0.11    +0.211 HD 
DOCKED: ENDBRANCH   3  31
DOCKED: TORSDOF 7
DOCKED: TER
DOCKED: ENDMDL
________________________________________________________________________________


    FINAL DOCKED STATE:
    ________________________


Run:   11 / 20
Time taken for this run:   0.042s

DOCKED: MODEL        11
DOCKED: USER    Run = 11
DOCKED: USER
DOCKED: USER    Estimated Free Energy of Binding    =  -7.37 kcal/mol  [=(1)+(2)+(3)-(4)]
DOCKED: USER
DOCKED: USER    (1) Final Intermolecular Energy     =  -9.46 kcal/mol
DOCKED: USER        vdW + Hbond + desolv Energy     =  -9.17 kcal/mol
DOCKED: USER        Electrostatic Energy            =  -0.29 kcal/mol
DOCKED: USER        Moving Ligand-Fixed Receptor    =  -9.46 kcal/mol
DOCKED: USER        Moving Ligand-Moving Receptor   =  +0.00 kcal/mol
DOCKED: USER    (2) Final Total Internal Energy     =  -3.43 kcal/mol
DOCKED: USER    (3) Torsional Free Energy           =  +2.09 kcal/mol
DOCKED: USER    (4) Unbound System's Energy         =  -3.43 kcal/mol
DOCKED: USER
DOCKED: USER
DOCKED: REMARK SMILES O=C(NCC(=O)N1C[C@H](O)C[C@H]1Cc1cccc(Cl)c1)c1ccc2ccccc2n1
DOCKED: REMARK SMILES IDX 7 1 8 2 9 3 11 4 12 5 5 6 6 7 4 8 3 9 2 10 1 11 21 13 22 14
DOCKED: REMARK SMILES IDX 30 15 23 16 29 17 24 18 28 19 25 20 27 21 26 22 13 23 14 24
DOCKED: REMARK SMILES IDX 15 25 20 26 16 27 18 28 17 29 19 30 10 31
DOCKED: REMARK H PARENT 3 12 10 32
DOCKED: USER                              x       y       z     vdW  Elec       q    Type
DOCKED: USER                           _______ _______ _______ _____ _____    ______ ____
DOCKED: ROOT
DOCKED: ATOM      1  N   UNL     1     142.943  73.481 219.856 -0.08 +0.07    -0.335 N  
DOCKED: ATOM      2  C   UNL     1     143.915  72.749 219.052 -0.15 -0.01    +0.151 C  
DOCKED: ATOM      3  C   UNL     1     145.258  73.312 219.385 -0.32 +0.01    +0.136 C  
DOCKED: ATOM      4  C   UNL     1     144.986  74.212 220.571 -0.46 -0.02    +0.059 C  
DOCKED: ATOM      5  C   UNL     1     143.591  74.705 220.269 -0.32 -0.04    +0.092 C  
DOCKED: ENDROOT
DOCKED: BRANCH   1   6
DOCKED: ATOM      6  C   UNL     1     141.622  73.092 220.182 -0.11 -0.04    +0.242 C  
DOCKED: ATOM      7  O   UNL     1     140.894  72.509 219.325 -0.03 +0.05    -0.273 OA 
DOCKED: BRANCH   6   8
DOCKED: ATOM      8  C   UNL     1     141.111  73.375 221.530 -0.19 -0.02    +0.216 C  
DOCKED: BRANCH   8   9
DOCKED: ATOM      9  N   UNL     1     141.153  74.792 221.839 -0.11 +0.04    -0.342 N  
DOCKED: ATOM     10  C   UNL     1     139.949  75.526 222.022 -0.19 -0.05    +0.270 C  
DOCKED: ATOM     11  O   UNL     1     138.811  74.988 221.927 -0.25 +0.07    -0.268 OA 
DOCKED: ATOM     12  H   UNL     1     142.080  75.261 221.924 -0.38 -0.06    +0.164 HD 
DOCKED: BRANCH  10  13
DOCKED: ATOM     13  C   UNL     1     140.076  76.957 222.332 -0.33 -0.03    +0.128 A  
DOCKED: ATOM     14  C   UNL     1     138.961  77.772 222.439 -0.28 -0.01    +0.035 A  
DOCKED: ATOM     15  N   UNL     1     141.269  77.549 222.527 -0.23 +0.11    -0.243 NA 
DOCKED: ATOM     16  C   UNL     1     139.071  79.132 222.733 -0.30 -0.00    +0.013 A  
DOCKED: ATOM     17  C   UNL     1     141.421  78.854 222.812 -0.48 -0.03    +0.071 A  
DOCKED: ATOM     18  C   UNL     1     140.322  79.687 222.924 -0.41 -0.00    +0.000 A  
DOCKED: ATOM     19  C   UNL     1     142.703  79.343 222.991 -0.54 -0.01    +0.029 A  
DOCKED: ATOM     20  C   UNL     1     140.525  81.017 223.218 -0.42 -0.00    +0.010 A  
DOCKED: ATOM     21  C   UNL     1     142.910  80.686 223.288 -0.63 -0.00    +0.002 A  
DOCKED: ATOM     22  C   UNL     1     141.814  81.515 223.398 -0.55 -0.00    +0.001 A  
DOCKED: ENDBRANCH  10  13
DOCKED: ENDBRANCH   8   9
DOCKED: ENDBRANCH   6   8
DOCKED: ENDBRANCH   1   6
DOCKED: BRANCH   5  23
DOCKED: ATOM     23  C   UNL     1     143.680  75.704 219.149 -0.29 -0.04    +0.060 C  
DOCKED: BRANCH  23  24
DOCKED: ATOM     24  C   UNL     1     142.477  76.584 219.100 -0.29 +0.02    -0.044 A  
DOCKED: ATOM     25  C   UNL     1     141.278  75.964 218.780 -0.12 -0.00    +0.004 A  
DOCKED: ATOM     26  C   UNL     1     142.531  77.938 219.356 -0.18 -0.02    +0.024 A  
DOCKED: ATOM     27  C   UNL     1     140.102  76.658 218.703 -0.06 -0.00    +0.002 A  
DOCKED: ATOM     28  C   UNL     1     141.336  78.630 219.275 -0.21 -0.02    +0.041 A  
DOCKED: ATOM     29  C   UNL     1     140.138  78.021 218.957 -0.08 -0.01    +0.020 A  
DOCKED: ATOM     30  Cl  UNL     1     141.375  80.356 219.595 -0.33 +0.04    -0.084 Cl 
DOCKED: ENDBRANCH  23  24
DOCKED: ENDBRANCH   5  23
DOCKED: BRANCH   3  31
DOCKED: ATOM     31  O   UNL     1     146.175  72.316 219.734 -0.55 -0.28    -0.391 OA 
DOCKED: ATOM     32  H   UNL     1     145.832  71.898 220.566 -0.30 -0.00    +0.211 HD 
DOCKED: ENDBRANCH   3  31
DOCKED: TORSDOF 7
DOCKED: TER
DOCKED: ENDMDL
________________________________________________________________________________


    FINAL DOCKED STATE:
    ________________________


Run:   12 / 20
Time taken for this run:   0.042s

DOCKED: MODEL        12
DOCKED: USER    Run = 12
DOCKED: USER
DOCKED: USER    Estimated Free Energy of Binding    =  -9.18 kcal/mol  [=(1)+(2)+(3)-(4)]
DOCKED: USER
DOCKED: USER    (1) Final Intermolecular Energy     = -11.27 kcal/mol
DOCKED: USER        vdW + Hbond + desolv Energy     = -11.13 kcal/mol
DOCKED: USER        Electrostatic Energy            =  -0.13 kcal/mol
DOCKED: USER        Moving Ligand-Fixed Receptor    = -11.27 kcal/mol
DOCKED: USER        Moving Ligand-Moving Receptor   =  +0.00 kcal/mol
DOCKED: USER    (2) Final Total Internal Energy     =  -1.62 kcal/mol
DOCKED: USER    (3) Torsional Free Energy           =  +2.09 kcal/mol
DOCKED: USER    (4) Unbound System's Energy         =  -1.62 kcal/mol
DOCKED: USER
DOCKED: USER
DOCKED: REMARK SMILES O=C(NCC(=O)N1C[C@H](O)C[C@H]1Cc1cccc(Cl)c1)c1ccc2ccccc2n1
DOCKED: REMARK SMILES IDX 7 1 8 2 9 3 11 4 12 5 5 6 6 7 4 8 3 9 2 10 1 11 21 13 22 14
DOCKED: REMARK SMILES IDX 30 15 23 16 29 17 24 18 28 19 25 20 27 21 26 22 13 23 14 24
DOCKED: REMARK SMILES IDX 15 25 20 26 16 27 18 28 17 29 19 30 10 31
DOCKED: REMARK H PARENT 3 12 10 32
DOCKED: USER                              x       y       z     vdW  Elec       q    Type
DOCKED: USER                           _______ _______ _______ _____ _____    ______ ____
DOCKED: ROOT
DOCKED: ATOM      1  N   UNL     1     141.284  75.930 220.220 -0.08 +0.13    -0.335 N  
DOCKED: ATOM      2  C   UNL     1     141.440  75.473 218.844 -0.09 -0.05    +0.151 C  
DOCKED: ATOM      3  C   UNL     1     142.692  76.101 218.323 -0.20 -0.07    +0.136 C  
DOCKED: ATOM      4  C   UNL     1     143.321  76.721 219.553 -0.29 -0.04    +0.059 C  
DOCKED: ATOM      5  C   UNL     1     142.104  77.113 220.356 -0.21 -0.06    +0.092 C  
DOCKED: ENDROOT
DOCKED: BRANCH   1   6
DOCKED: ATOM      6  C   UNL     1     140.495  75.347 221.240 -0.22 -0.06    +0.242 C  
DOCKED: ATOM      7  O   UNL     1     140.290  75.964 222.326 -0.45 +0.05    -0.273 OA 
DOCKED: BRANCH   6   8
DOCKED: ATOM      8  C   UNL     1     139.917  74.014 221.016 -0.16 -0.04    +0.216 C  
DOCKED: BRANCH   8   9
DOCKED: ATOM      9  N   UNL     1     139.841  73.244 222.243 -0.15 +0.05    -0.342 N  
DOCKED: ATOM     10  C   UNL     1     140.109  71.847 222.236 -0.19 -0.04    +0.270 C  
DOCKED: ATOM     11  O   UNL     1     140.420  71.227 221.182 -0.10 +0.04    -0.268 OA 
DOCKED: ATOM     12  H   UNL     1     139.586  73.732 223.129 -0.50 -0.03    +0.164 HD 
DOCKED: BRANCH  10  13
DOCKED: ATOM     13  C   UNL     1     140.011  71.138 223.520 -0.31 -0.02    +0.128 A  
DOCKED: ATOM     14  C   UNL     1     139.418  69.890 223.609 -0.26 -0.01    +0.035 A  
DOCKED: ATOM     15  N   UNL     1     140.485  71.658 224.667 -0.29 +0.04    -0.243 NA 
DOCKED: ATOM     16  C   UNL     1     139.319  69.208 224.824 -0.38 -0.00    +0.013 A  
DOCKED: ATOM     17  C   UNL     1     140.412  71.037 225.858 -0.53 -0.01    +0.071 A  
DOCKED: ATOM     18  C   UNL     1     139.824  69.789 225.971 -0.48 -0.00    +0.000 A  
DOCKED: ATOM     19  C   UNL     1     140.938  71.676 226.966 -0.73 -0.01    +0.029 A  
DOCKED: ATOM     20  C   UNL     1     139.772  69.191 227.210 -0.57 -0.00    +0.010 A  
DOCKED: ATOM     21  C   UNL     1     140.886  71.074 228.219 -0.69 -0.00    +0.002 A  
DOCKED: ATOM     22  C   UNL     1     140.300  69.831 228.330 -0.60 -0.00    +0.001 A  
DOCKED: ENDBRANCH  10  13
DOCKED: ENDBRANCH   8   9
DOCKED: ENDBRANCH   6   8
DOCKED: ENDBRANCH   1   6
DOCKED: BRANCH   5  23
DOCKED: ATOM     23  C   UNL     1     141.477  78.313 219.703 -0.24 -0.03    +0.060 C  
DOCKED: BRANCH  23  24
DOCKED: ATOM     24  C   UNL     1     141.530  79.512 220.588 -0.29 +0.02    -0.044 A  
DOCKED: ATOM     25  C   UNL     1     140.894  80.650 220.114 -0.24 -0.00    +0.004 A  
DOCKED: ATOM     26  C   UNL     1     142.167  79.510 221.810 -0.44 -0.01    +0.024 A  
DOCKED: ATOM     27  C   UNL     1     140.869  81.815 220.830 -0.30 -0.00    +0.002 A  
DOCKED: ATOM     28  C   UNL     1     142.135  80.694 222.526 -0.53 -0.01    +0.041 A  
DOCKED: ATOM     29  C   UNL     1     141.505  81.832 222.062 -0.41 -0.00    +0.020 A  
DOCKED: ATOM     30  Cl  UNL     1     142.940  80.720 224.086 -0.66 +0.02    -0.084 Cl 
DOCKED: ENDBRANCH  23  24
DOCKED: ENDBRANCH   5  23
DOCKED: BRANCH   3  31
DOCKED: ATOM     31  O   UNL     1     143.559  75.160 217.760 -0.09 +0.18    -0.391 OA 
DOCKED: ATOM     32  H   UNL     1     144.476  75.518 217.876 -0.45 -0.15    +0.211 HD 
DOCKED: ENDBRANCH   3  31
DOCKED: TORSDOF 7
DOCKED: TER
DOCKED: ENDMDL
________________________________________________________________________________


    FINAL DOCKED STATE:
    ________________________


Run:   13 / 20
Time taken for this run:   0.042s

DOCKED: MODEL        13
DOCKED: USER    Run = 13
DOCKED: USER
DOCKED: USER    Estimated Free Energy of Binding    =  -7.40 kcal/mol  [=(1)+(2)+(3)-(4)]
DOCKED: USER
DOCKED: USER    (1) Final Intermolecular Energy     =  -9.49 kcal/mol
DOCKED: USER        vdW + Hbond + desolv Energy     =  -9.21 kcal/mol
DOCKED: USER        Electrostatic Energy            =  -0.28 kcal/mol
DOCKED: USER        Moving Ligand-Fixed Receptor    =  -9.49 kcal/mol
DOCKED: USER        Moving Ligand-Moving Receptor   =  +0.00 kcal/mol
DOCKED: USER    (2) Final Total Internal Energy     =  -3.45 kcal/mol
DOCKED: USER    (3) Torsional Free Energy           =  +2.09 kcal/mol
DOCKED: USER    (4) Unbound System's Energy         =  -3.45 kcal/mol
DOCKED: USER
DOCKED: USER
DOCKED: REMARK SMILES O=C(NCC(=O)N1C[C@H](O)C[C@H]1Cc1cccc(Cl)c1)c1ccc2ccccc2n1
DOCKED: REMARK SMILES IDX 7 1 8 2 9 3 11 4 12 5 5 6 6 7 4 8 3 9 2 10 1 11 21 13 22 14
DOCKED: REMARK SMILES IDX 30 15 23 16 29 17 24 18 28 19 25 20 27 21 26 22 13 23 14 24
DOCKED: REMARK SMILES IDX 15 25 20 26 16 27 18 28 17 29 19 30 10 31
DOCKED: REMARK H PARENT 3 12 10 32
DOCKED: USER                              x       y       z     vdW  Elec       q    Type
DOCKED: USER                           _______ _______ _______ _____ _____    ______ ____
DOCKED: ROOT
DOCKED: ATOM      1  N   UNL     1     142.889  73.505 219.864 -0.08 +0.07    -0.335 N  
DOCKED: ATOM      2  C   UNL     1     143.812  72.723 219.050 -0.14 -0.01    +0.151 C  
DOCKED: ATOM      3  C   UNL     1     145.184  73.243 219.337 -0.31 +0.01    +0.136 C  
DOCKED: ATOM      4  C   UNL     1     144.975  74.174 220.512 -0.49 -0.02    +0.059 C  
DOCKED: ATOM      5  C   UNL     1     143.592  74.712 220.236 -0.33 -0.04    +0.092 C  
DOCKED: ENDROOT
DOCKED: BRANCH   1   6
DOCKED: ATOM      6  C   UNL     1     141.564  73.171 220.231 -0.11 -0.04    +0.242 C  
DOCKED: ATOM      7  O   UNL     1     140.777  72.648 219.389 -0.03 +0.05    -0.273 OA 
DOCKED: BRANCH   6   8
DOCKED: ATOM      8  C   UNL     1     141.119  73.440 221.605 -0.18 -0.02    +0.216 C  
DOCKED: BRANCH   8   9
DOCKED: ATOM      9  N   UNL     1     141.172  74.855 221.924 -0.09 +0.04    -0.342 N  
DOCKED: ATOM     10  C   UNL     1     139.975  75.619 222.014 -0.21 -0.05    +0.270 C  
DOCKED: ATOM     11  O   UNL     1     138.836  75.111 221.827 -0.23 +0.06    -0.268 OA 
DOCKED: ATOM     12  H   UNL     1     142.100  75.300 222.084 -0.42 -0.06    +0.164 HD 
DOCKED: BRANCH  10  13
DOCKED: ATOM     13  C   UNL     1     140.113  77.045 222.342 -0.33 -0.03    +0.128 A  
DOCKED: ATOM     14  C   UNL     1     139.006  77.872 222.435 -0.28 -0.01    +0.035 A  
DOCKED: ATOM     15  N   UNL     1     141.309  77.620 222.566 -0.24 +0.11    -0.243 NA 
DOCKED: ATOM     16  C   UNL     1     139.126  79.228 222.745 -0.30 -0.00    +0.013 A  
DOCKED: ATOM     17  C   UNL     1     141.471  78.921 222.867 -0.48 -0.03    +0.071 A  
DOCKED: ATOM     18  C   UNL     1     140.380  79.766 222.966 -0.42 -0.00    +0.000 A  
DOCKED: ATOM     19  C   UNL     1     142.754  79.393 223.075 -0.55 -0.01    +0.029 A  
DOCKED: ATOM     20  C   UNL     1     140.592  81.090 223.277 -0.42 -0.00    +0.010 A  
DOCKED: ATOM     21  C   UNL     1     142.972  80.730 223.390 -0.63 -0.00    +0.002 A  
DOCKED: ATOM     22  C   UNL     1     141.883  81.571 223.487 -0.54 -0.00    +0.001 A  
DOCKED: ENDBRANCH  10  13
DOCKED: ENDBRANCH   8   9
DOCKED: ENDBRANCH   6   8
DOCKED: ENDBRANCH   1   6
DOCKED: BRANCH   5  23
DOCKED: ATOM     23  C   UNL     1     143.687  75.687 219.096 -0.27 -0.03    +0.060 C  
DOCKED: BRANCH  23  24
DOCKED: ATOM     24  C   UNL     1     142.501  76.590 219.043 -0.29 +0.02    -0.044 A  
DOCKED: ATOM     25  C   UNL     1     141.298  76.000 218.684 -0.12 -0.00    +0.004 A  
DOCKED: ATOM     26  C   UNL     1     142.575  77.936 219.332 -0.18 -0.02    +0.024 A  
DOCKED: ATOM     27  C   UNL     1     140.138  76.717 218.600 -0.06 -0.00    +0.002 A  
DOCKED: ATOM     28  C   UNL     1     141.395  78.653 219.243 -0.21 -0.02    +0.041 A  
DOCKED: ATOM     29  C   UNL     1     140.192  78.073 218.886 -0.08 -0.01    +0.020 A  
DOCKED: ATOM     30  Cl  UNL     1     141.459  80.369 219.604 -0.34 +0.04    -0.084 Cl 
DOCKED: ENDBRANCH  23  24
DOCKED: ENDBRANCH   5  23
DOCKED: BRANCH   3  31
DOCKED: ATOM     31  O   UNL     1     146.073  72.221 219.682 -0.55 -0.27    -0.391 OA 
DOCKED: ATOM     32  H   UNL     1     145.804  71.908 220.584 -0.30 -0.01    +0.211 HD 
DOCKED: ENDBRANCH   3  31
DOCKED: TORSDOF 7
DOCKED: TER
DOCKED: ENDMDL
________________________________________________________________________________


    FINAL DOCKED STATE:
    ________________________


Run:   14 / 20
Time taken for this run:   0.042s

DOCKED: MODEL        14
DOCKED: USER    Run = 14
DOCKED: USER
DOCKED: USER    Estimated Free Energy of Binding    =  -8.87 kcal/mol  [=(1)+(2)+(3)-(4)]
DOCKED: USER
DOCKED: USER    (1) Final Intermolecular Energy     = -10.96 kcal/mol
DOCKED: USER        vdW + Hbond + desolv Energy     = -10.93 kcal/mol
DOCKED: USER        Electrostatic Energy            =  -0.03 kcal/mol
DOCKED: USER        Moving Ligand-Fixed Receptor    = -10.96 kcal/mol
DOCKED: USER        Moving Ligand-Moving Receptor   =  +0.00 kcal/mol
DOCKED: USER    (2) Final Total Internal Energy     =  -1.90 kcal/mol
DOCKED: USER    (3) Torsional Free Energy           =  +2.09 kcal/mol
DOCKED: USER    (4) Unbound System's Energy         =  -1.90 kcal/mol
DOCKED: USER
DOCKED: USER
DOCKED: REMARK SMILES O=C(NCC(=O)N1C[C@H](O)C[C@H]1Cc1cccc(Cl)c1)c1ccc2ccccc2n1
DOCKED: REMARK SMILES IDX 7 1 8 2 9 3 11 4 12 5 5 6 6 7 4 8 3 9 2 10 1 11 21 13 22 14
DOCKED: REMARK SMILES IDX 30 15 23 16 29 17 24 18 28 19 25 20 27 21 26 22 13 23 14 24
DOCKED: REMARK SMILES IDX 15 25 20 26 16 27 18 28 17 29 19 30 10 31
DOCKED: REMARK H PARENT 3 12 10 32
DOCKED: USER                              x       y       z     vdW  Elec       q    Type
DOCKED: USER                           _______ _______ _______ _____ _____    ______ ____
DOCKED: ROOT
DOCKED: ATOM      1  N   UNL     1     138.995  71.672 222.381 -0.10 +0.07    -0.335 N  
DOCKED: ATOM      2  C   UNL     1     138.580  70.706 221.372 -0.08 -0.03    +0.151 C  
DOCKED: ATOM      3  C   UNL     1     137.594  69.795 222.029 -0.09 -0.02    +0.136 C  
DOCKED: ATOM      4  C   UNL     1     137.325  70.461 223.362 -0.19 -0.01    +0.059 C  
DOCKED: ATOM      5  C   UNL     1     138.661  71.095 223.664 -0.26 -0.02    +0.092 C  
DOCKED: ENDROOT
DOCKED: BRANCH   1   6
DOCKED: ATOM      6  C   UNL     1     139.605  72.932 222.172 -0.18 -0.04    +0.242 C  
DOCKED: ATOM      7  O   UNL     1     140.852  73.077 222.336 -0.63 -0.00    -0.273 OA 
DOCKED: BRANCH   6   8
DOCKED: ATOM      8  C   UNL     1     138.767  74.068 221.763 -0.14 -0.05    +0.216 C  
DOCKED: BRANCH   8   9
DOCKED: ATOM      9  N   UNL     1     139.351  75.339 222.148 -0.17 +0.07    -0.342 N  
DOCKED: ATOM     10  C   UNL     1     138.531  76.489 222.312 -0.20 -0.06    +0.270 C  
DOCKED: ATOM     11  O   UNL     1     137.282  76.456 222.135 -0.14 +0.06    -0.268 OA 
DOCKED: ATOM     12  H   UNL     1     140.381  75.394 222.301 +0.04 -0.01    +0.164 HD 
DOCKED: BRANCH  10  13
DOCKED: ATOM     13  C   UNL     1     139.198  77.739 222.704 -0.25 -0.02    +0.128 A  
DOCKED: ATOM     14  C   UNL     1     138.472  78.843 223.115 -0.27 -0.01    +0.035 A  
DOCKED: ATOM     15  N   UNL     1     140.537  77.877 222.685 -0.26 +0.07    -0.243 NA 
DOCKED: ATOM     16  C   UNL     1     139.095  80.035 223.489 -0.39 -0.00    +0.013 A  
DOCKED: ATOM     17  C   UNL     1     141.179  79.005 223.037 -0.47 -0.02    +0.071 A  
DOCKED: ATOM     18  C   UNL     1     140.474  80.121 223.450 -0.47 -0.00    +0.000 A  
DOCKED: ATOM     19  C   UNL     1     142.561  79.021 222.974 -0.48 -0.01    +0.029 A  
DOCKED: ATOM     20  C   UNL     1     141.173  81.255 223.802 -0.45 -0.00    +0.010 A  
DOCKED: ATOM     21  C   UNL     1     143.269  80.165 223.329 -0.60 -0.00    +0.002 A  
DOCKED: ATOM     22  C   UNL     1     142.565  81.276 223.740 -0.61 -0.00    +0.001 A  
DOCKED: ENDBRANCH  10  13
DOCKED: ENDBRANCH   8   9
DOCKED: ENDBRANCH   6   8
DOCKED: ENDBRANCH   1   6
DOCKED: BRANCH   5  23
DOCKED: ATOM     23  C   UNL     1     139.618  70.007 224.062 -0.30 -0.01    +0.060 C  
DOCKED: BRANCH  23  24
DOCKED: ATOM     24  C   UNL     1     140.130  70.203 225.448 -0.45 +0.01    -0.044 A  
DOCKED: ATOM     25  C   UNL     1     140.400  71.512 225.821 -0.57 -0.00    +0.004 A  
DOCKED: ATOM     26  C   UNL     1     140.329  69.158 226.325 -0.52 -0.00    +0.024 A  
DOCKED: ATOM     27  C   UNL     1     140.873  71.826 227.065 -0.77 -0.00    +0.002 A  
DOCKED: ATOM     28  C   UNL     1     140.807  69.488 227.581 -0.57 -0.01    +0.041 A  
DOCKED: ATOM     29  C   UNL     1     141.080  70.788 227.961 -0.67 -0.00    +0.020 A  
DOCKED: ATOM     30  Cl  UNL     1     141.071  68.177 228.719 -0.70 +0.02    -0.084 Cl 
DOCKED: ENDBRANCH  23  24
DOCKED: ENDBRANCH   5  23
DOCKED: BRANCH   3  31
DOCKED: ATOM     31  O   UNL     1     136.409  69.684 221.296 -0.00 +0.06    -0.391 OA 
DOCKED: ATOM     32  H   UNL     1     136.346  70.502 220.739 +0.02 -0.04    +0.211 HD 
DOCKED: ENDBRANCH   3  31
DOCKED: TORSDOF 7
DOCKED: TER
DOCKED: ENDMDL
________________________________________________________________________________


    FINAL DOCKED STATE:
    ________________________


Run:   15 / 20
Time taken for this run:   0.042s

DOCKED: MODEL        15
DOCKED: USER    Run = 15
DOCKED: USER
DOCKED: USER    Estimated Free Energy of Binding    =  -9.13 kcal/mol  [=(1)+(2)+(3)-(4)]
DOCKED: USER
DOCKED: USER    (1) Final Intermolecular Energy     = -11.22 kcal/mol
DOCKED: USER        vdW + Hbond + desolv Energy     = -11.09 kcal/mol
DOCKED: USER        Electrostatic Energy            =  -0.13 kcal/mol
DOCKED: USER        Moving Ligand-Fixed Receptor    = -11.22 kcal/mol
DOCKED: USER        Moving Ligand-Moving Receptor   =  +0.00 kcal/mol
DOCKED: USER    (2) Final Total Internal Energy     =  -1.66 kcal/mol
DOCKED: USER    (3) Torsional Free Energy           =  +2.09 kcal/mol
DOCKED: USER    (4) Unbound System's Energy         =  -1.66 kcal/mol
DOCKED: USER
DOCKED: USER
DOCKED: REMARK SMILES O=C(NCC(=O)N1C[C@H](O)C[C@H]1Cc1cccc(Cl)c1)c1ccc2ccccc2n1
DOCKED: REMARK SMILES IDX 7 1 8 2 9 3 11 4 12 5 5 6 6 7 4 8 3 9 2 10 1 11 21 13 22 14
DOCKED: REMARK SMILES IDX 30 15 23 16 29 17 24 18 28 19 25 20 27 21 26 22 13 23 14 24
DOCKED: REMARK SMILES IDX 15 25 20 26 16 27 18 28 17 29 19 30 10 31
DOCKED: REMARK H PARENT 3 12 10 32
DOCKED: USER                              x       y       z     vdW  Elec       q    Type
DOCKED: USER                           _______ _______ _______ _____ _____    ______ ____
DOCKED: ROOT
DOCKED: ATOM      1  N   UNL     1     141.286  75.846 220.249 -0.09 +0.13    -0.335 N  
DOCKED: ATOM      2  C   UNL     1     141.417  75.486 218.842 -0.08 -0.05    +0.151 C  
DOCKED: ATOM      3  C   UNL     1     142.673  76.128 218.350 -0.21 -0.07    +0.136 C  
DOCKED: ATOM      4  C   UNL     1     143.328  76.649 219.611 -0.29 -0.04    +0.059 C  
DOCKED: ATOM      5  C   UNL     1     142.128  77.003 220.457 -0.16 -0.06    +0.092 C  
DOCKED: ENDROOT
DOCKED: BRANCH   1   6
DOCKED: ATOM      6  C   UNL     1     140.500  75.205 221.236 -0.21 -0.05    +0.242 C  
DOCKED: ATOM      7  O   UNL     1     140.197  75.808 222.307 -0.48 +0.04    -0.273 OA 
DOCKED: BRANCH   6   8
DOCKED: ATOM      8  C   UNL     1     140.041  73.830 220.996 -0.16 -0.04    +0.216 C  
DOCKED: BRANCH   8   9
DOCKED: ATOM      9  N   UNL     1     139.903  73.081 222.231 -0.16 +0.05    -0.342 N  
DOCKED: ATOM     10  C   UNL     1     140.145  71.679 222.255 -0.19 -0.04    +0.270 C  
DOCKED: ATOM     11  O   UNL     1     140.485  71.036 221.225 -0.10 +0.04    -0.268 OA 
DOCKED: ATOM     12  H   UNL     1     139.624  73.588 223.098 -0.47 -0.03    +0.164 HD 
DOCKED: BRANCH  10  13
DOCKED: ATOM     13  C   UNL     1     139.984  70.994 223.546 -0.30 -0.02    +0.128 A  
DOCKED: ATOM     14  C   UNL     1     139.373  69.754 223.630 -0.26 -0.01    +0.035 A  
DOCKED: ATOM     15  N   UNL     1     140.417  71.526 224.703 -0.31 +0.04    -0.243 NA 
DOCKED: ATOM     16  C   UNL     1     139.214  69.094 224.850 -0.38 -0.00    +0.013 A  
DOCKED: ATOM     17  C   UNL     1     140.286  70.926 225.900 -0.52 -0.01    +0.071 A  
DOCKED: ATOM     18  C   UNL     1     139.678  69.688 226.008 -0.47 -0.00    +0.000 A  
DOCKED: ATOM     19  C   UNL     1     140.773  71.578 227.018 -0.72 -0.01    +0.029 A  
DOCKED: ATOM     20  C   UNL     1     139.566  69.111 227.254 -0.56 -0.00    +0.010 A  
DOCKED: ATOM     21  C   UNL     1     140.661  70.997 228.277 -0.66 -0.00    +0.002 A  
DOCKED: ATOM     22  C   UNL     1     140.055  69.763 228.384 -0.59 -0.00    +0.001 A  
DOCKED: ENDBRANCH  10  13
DOCKED: ENDBRANCH   8   9
DOCKED: ENDBRANCH   6   8
DOCKED: ENDBRANCH   1   6
DOCKED: BRANCH   5  23
DOCKED: ATOM     23  C   UNL     1     141.514  78.256 219.899 -0.25 -0.03    +0.060 C  
DOCKED: BRANCH  23  24
DOCKED: ATOM     24  C   UNL     1     141.579  79.382 220.874 -0.32 +0.02    -0.044 A  
DOCKED: ATOM     25  C   UNL     1     142.102  79.080 222.124 -0.48 -0.00    +0.004 A  
DOCKED: ATOM     26  C   UNL     1     141.152  80.657 220.572 -0.28 -0.01    +0.024 A  
DOCKED: ATOM     27  C   UNL     1     142.217  80.023 223.107 -0.63 -0.00    +0.002 A  
DOCKED: ATOM     28  C   UNL     1     141.273  81.604 221.574 -0.37 -0.01    +0.041 A  
DOCKED: ATOM     29  C   UNL     1     141.791  81.312 222.821 -0.52 -0.00    +0.020 A  
DOCKED: ATOM     30  Cl  UNL     1     140.735  83.236 221.217 -0.33 +0.01    -0.084 Cl 
DOCKED: ENDBRANCH  23  24
DOCKED: ENDBRANCH   5  23
DOCKED: BRANCH   3  31
DOCKED: ATOM     31  O   UNL     1     143.516  75.215 217.709 -0.09 +0.18    -0.391 OA 
DOCKED: ATOM     32  H   UNL     1     144.441  75.544 217.847 -0.44 -0.14    +0.211 HD 
DOCKED: ENDBRANCH   3  31
DOCKED: TORSDOF 7
DOCKED: TER
DOCKED: ENDMDL
________________________________________________________________________________


    FINAL DOCKED STATE:
    ________________________


Run:   16 / 20
Time taken for this run:   0.042s

DOCKED: MODEL        16
DOCKED: USER    Run = 16
DOCKED: USER
DOCKED: USER    Estimated Free Energy of Binding    =  -7.30 kcal/mol  [=(1)+(2)+(3)-(4)]
DOCKED: USER
DOCKED: USER    (1) Final Intermolecular Energy     =  -9.38 kcal/mol
DOCKED: USER        vdW + Hbond + desolv Energy     =  -9.11 kcal/mol
DOCKED: USER        Electrostatic Energy            =  -0.27 kcal/mol
DOCKED: USER        Moving Ligand-Fixed Receptor    =  -9.38 kcal/mol
DOCKED: USER        Moving Ligand-Moving Receptor   =  +0.00 kcal/mol
DOCKED: USER    (2) Final Total Internal Energy     =  -3.47 kcal/mol
DOCKED: USER    (3) Torsional Free Energy           =  +2.09 kcal/mol
DOCKED: USER    (4) Unbound System's Energy         =  -3.47 kcal/mol
DOCKED: USER
DOCKED: USER
DOCKED: REMARK SMILES O=C(NCC(=O)N1C[C@H](O)C[C@H]1Cc1cccc(Cl)c1)c1ccc2ccccc2n1
DOCKED: REMARK SMILES IDX 7 1 8 2 9 3 11 4 12 5 5 6 6 7 4 8 3 9 2 10 1 11 21 13 22 14
DOCKED: REMARK SMILES IDX 30 15 23 16 29 17 24 18 28 19 25 20 27 21 26 22 13 23 14 24
DOCKED: REMARK SMILES IDX 15 25 20 26 16 27 18 28 17 29 19 30 10 31
DOCKED: REMARK H PARENT 3 12 10 32
DOCKED: USER                              x       y       z     vdW  Elec       q    Type
DOCKED: USER                           _______ _______ _______ _____ _____    ______ ____
DOCKED: ROOT
DOCKED: ATOM      1  N   UNL     1     142.945  73.421 219.895 -0.08 +0.07    -0.335 N  
DOCKED: ATOM      2  C   UNL     1     143.936  72.662 219.142 -0.16 -0.01    +0.151 C  
DOCKED: ATOM      3  C   UNL     1     145.261  73.297 219.413 -0.32 +0.01    +0.136 C  
DOCKED: ATOM      4  C   UNL     1     144.966  74.281 220.526 -0.45 -0.02    +0.059 C  
DOCKED: ATOM      5  C   UNL     1     143.552  74.697 220.201 -0.33 -0.04    +0.092 C  
DOCKED: ENDROOT
DOCKED: BRANCH   1   6
DOCKED: ATOM      6  C   UNL     1     141.642  73.013 220.267 -0.11 -0.04    +0.242 C  
DOCKED: ATOM      7  O   UNL     1     140.903  72.397 219.444 -0.03 +0.05    -0.273 OA 
DOCKED: BRANCH   6   8
DOCKED: ATOM      8  C   UNL     1     141.163  73.315 221.623 -0.16 -0.02    +0.216 C  
DOCKED: BRANCH   8   9
DOCKED: ATOM      9  N   UNL     1     141.198  74.738 221.905 -0.06 +0.04    -0.342 N  
DOCKED: ATOM     10  C   UNL     1     139.990  75.480 222.023 -0.17 -0.04    +0.270 C  
DOCKED: ATOM     11  O   UNL     1     138.855  74.945 221.891 -0.26 +0.06    -0.268 OA 
DOCKED: ATOM     12  H   UNL     1     142.123  75.206 222.019 -0.39 -0.06    +0.164 HD 
DOCKED: BRANCH  10  13
DOCKED: ATOM     13  C   UNL     1     140.111  76.917 222.310 -0.33 -0.03    +0.128 A  
DOCKED: ATOM     14  C   UNL     1     138.997  77.739 222.345 -0.28 -0.01    +0.035 A  
DOCKED: ATOM     15  N   UNL     1     141.296  77.506 222.551 -0.22 +0.11    -0.243 NA 
DOCKED: ATOM     16  C   UNL     1     139.100  79.104 222.616 -0.29 -0.00    +0.013 A  
DOCKED: ATOM     17  C   UNL     1     141.441  78.817 222.817 -0.48 -0.03    +0.071 A  
DOCKED: ATOM     18  C   UNL     1     140.343  79.657 222.857 -0.40 -0.00    +0.000 A  
DOCKED: ATOM     19  C   UNL     1     142.716  79.303 223.048 -0.51 -0.01    +0.029 A  
DOCKED: ATOM     20  C   UNL     1     140.539  80.992 223.133 -0.42 -0.00    +0.010 A  
DOCKED: ATOM     21  C   UNL     1     142.916  80.650 223.327 -0.64 -0.00    +0.002 A  
DOCKED: ATOM     22  C   UNL     1     141.821  81.487 223.367 -0.56 -0.00    +0.001 A  
DOCKED: ENDBRANCH  10  13
DOCKED: ENDBRANCH   8   9
DOCKED: ENDBRANCH   6   8
DOCKED: ENDBRANCH   1   6
DOCKED: BRANCH   5  23
DOCKED: ATOM     23  C   UNL     1     143.594  75.605 219.004 -0.27 -0.03    +0.060 C  
DOCKED: BRANCH  23  24
DOCKED: ATOM     24  C   UNL     1     142.441  76.550 218.989 -0.28 +0.02    -0.044 A  
DOCKED: ATOM     25  C   UNL     1     141.204  76.001 218.685 -0.11 -0.00    +0.004 A  
DOCKED: ATOM     26  C   UNL     1     142.574  77.895 219.260 -0.22 -0.02    +0.024 A  
DOCKED: ATOM     27  C   UNL     1     140.067  76.759 218.639 -0.06 -0.00    +0.002 A  
DOCKED: ATOM     28  C   UNL     1     141.417  78.653 219.210 -0.21 -0.02    +0.041 A  
DOCKED: ATOM     29  C   UNL     1     140.182  78.115 218.908 -0.08 -0.01    +0.020 A  
DOCKED: ATOM     30  Cl  UNL     1     141.558  80.370 219.550 -0.35 +0.04    -0.084 Cl 
DOCKED: ENDBRANCH  23  24
DOCKED: ENDBRANCH   5  23
DOCKED: BRANCH   3  31
DOCKED: ATOM     31  O   UNL     1     146.217  72.367 219.831 -0.53 -0.26    -0.391 OA 
DOCKED: ATOM     32  H   UNL     1     145.821  71.885 220.602 -0.32 -0.01    +0.211 HD 
DOCKED: ENDBRANCH   3  31
DOCKED: TORSDOF 7
DOCKED: TER
DOCKED: ENDMDL
________________________________________________________________________________


    FINAL DOCKED STATE:
    ________________________


Run:   17 / 20
Time taken for this run:   0.042s

DOCKED: MODEL        17
DOCKED: USER    Run = 17
DOCKED: USER
DOCKED: USER    Estimated Free Energy of Binding    =  -7.40 kcal/mol  [=(1)+(2)+(3)-(4)]
DOCKED: USER
DOCKED: USER    (1) Final Intermolecular Energy     =  -9.48 kcal/mol
DOCKED: USER        vdW + Hbond + desolv Energy     =  -9.20 kcal/mol
DOCKED: USER        Electrostatic Energy            =  -0.28 kcal/mol
DOCKED: USER        Moving Ligand-Fixed Receptor    =  -9.48 kcal/mol
DOCKED: USER        Moving Ligand-Moving Receptor   =  +0.00 kcal/mol
DOCKED: USER    (2) Final Total Internal Energy     =  -3.46 kcal/mol
DOCKED: USER    (3) Torsional Free Energy           =  +2.09 kcal/mol
DOCKED: USER    (4) Unbound System's Energy         =  -3.46 kcal/mol
DOCKED: USER
DOCKED: USER
DOCKED: REMARK SMILES O=C(NCC(=O)N1C[C@H](O)C[C@H]1Cc1cccc(Cl)c1)c1ccc2ccccc2n1
DOCKED: REMARK SMILES IDX 7 1 8 2 9 3 11 4 12 5 5 6 6 7 4 8 3 9 2 10 1 11 21 13 22 14
DOCKED: REMARK SMILES IDX 30 15 23 16 29 17 24 18 28 19 25 20 27 21 26 22 13 23 14 24
DOCKED: REMARK SMILES IDX 15 25 20 26 16 27 18 28 17 29 19 30 10 31
DOCKED: REMARK H PARENT 3 12 10 32
DOCKED: USER                              x       y       z     vdW  Elec       q    Type
DOCKED: USER                           _______ _______ _______ _____ _____    ______ ____
DOCKED: ROOT
DOCKED: ATOM      1  N   UNL     1     142.895  73.504 219.862 -0.08 +0.07    -0.335 N  
DOCKED: ATOM      2  C   UNL     1     143.827  72.723 219.057 -0.15 -0.01    +0.151 C  
DOCKED: ATOM      3  C   UNL     1     145.193  73.258 219.342 -0.31 +0.01    +0.136 C  
DOCKED: ATOM      4  C   UNL     1     144.974  74.198 220.509 -0.48 -0.02    +0.059 C  
DOCKED: ATOM      5  C   UNL     1     143.586  74.720 220.225 -0.33 -0.04    +0.092 C  
DOCKED: ENDROOT
DOCKED: BRANCH   1   6
DOCKED: ATOM      6  C   UNL     1     141.572  73.160 220.229 -0.11 -0.04    +0.242 C  
DOCKED: ATOM      7  O   UNL     1     140.788  72.634 219.386 -0.03 +0.05    -0.273 OA 
DOCKED: BRANCH   6   8
DOCKED: ATOM      8  C   UNL     1     141.126  73.424 221.604 -0.18 -0.02    +0.216 C  
DOCKED: BRANCH   8   9
DOCKED: ATOM      9  N   UNL     1     141.175  74.838 221.927 -0.08 +0.04    -0.342 N  
DOCKED: ATOM     10  C   UNL     1     139.976  75.599 222.014 -0.20 -0.05    +0.270 C  
DOCKED: ATOM     11  O   UNL     1     138.839  75.090 221.819 -0.23 +0.06    -0.268 OA 
DOCKED: ATOM     12  H   UNL     1     142.102  75.285 222.093 -0.41 -0.06    +0.164 HD 
DOCKED: BRANCH  10  13
DOCKED: ATOM     13  C   UNL     1     140.110  77.025 222.346 -0.33 -0.03    +0.128 A  
DOCKED: ATOM     14  C   UNL     1     139.000  77.847 222.447 -0.28 -0.01    +0.035 A  
DOCKED: ATOM     15  N   UNL     1     141.305  77.604 222.567 -0.24 +0.11    -0.243 NA 
DOCKED: ATOM     16  C   UNL     1     139.116  79.202 222.762 -0.31 -0.00    +0.013 A  
DOCKED: ATOM     17  C   UNL     1     141.462  78.905 222.873 -0.49 -0.03    +0.071 A  
DOCKED: ATOM     18  C   UNL     1     140.368  79.744 222.979 -0.42 -0.00    +0.000 A  
DOCKED: ATOM     19  C   UNL     1     142.745  79.381 223.077 -0.55 -0.01    +0.029 A  
DOCKED: ATOM     20  C   UNL     1     140.577  81.069 223.294 -0.42 -0.00    +0.010 A  
DOCKED: ATOM     21  C   UNL     1     142.958  80.718 223.396 -0.63 -0.00    +0.002 A  
DOCKED: ATOM     22  C   UNL     1     141.867  81.554 223.501 -0.55 -0.00    +0.001 A  
DOCKED: ENDBRANCH  10  13
DOCKED: ENDBRANCH   8   9
DOCKED: ENDBRANCH   6   8
DOCKED: ENDBRANCH   1   6
DOCKED: BRANCH   5  23
DOCKED: ATOM     23  C   UNL     1     143.674  75.686 219.076 -0.27 -0.03    +0.060 C  
DOCKED: BRANCH  23  24
DOCKED: ATOM     24  C   UNL     1     142.492  76.593 219.027 -0.29 +0.02    -0.044 A  
DOCKED: ATOM     25  C   UNL     1     141.290  76.010 218.653 -0.11 -0.00    +0.004 A  
DOCKED: ATOM     26  C   UNL     1     142.568  77.935 219.333 -0.18 -0.02    +0.024 A  
DOCKED: ATOM     27  C   UNL     1     140.132  76.733 218.570 -0.06 -0.00    +0.002 A  
DOCKED: ATOM     28  C   UNL     1     141.390  78.656 219.245 -0.21 -0.02    +0.041 A  
DOCKED: ATOM     29  C   UNL     1     140.188  78.085 218.873 -0.08 -0.01    +0.020 A  
DOCKED: ATOM     30  Cl  UNL     1     141.456  80.368 219.628 -0.34 +0.04    -0.084 Cl 
DOCKED: ENDBRANCH  23  24
DOCKED: ENDBRANCH   5  23
DOCKED: BRANCH   3  31
DOCKED: ATOM     31  O   UNL     1     146.091  72.247 219.698 -0.55 -0.27    -0.391 OA 
DOCKED: ATOM     32  H   UNL     1     145.797  71.910 220.583 -0.30 -0.01    +0.211 HD 
DOCKED: ENDBRANCH   3  31
DOCKED: TORSDOF 7
DOCKED: TER
DOCKED: ENDMDL
________________________________________________________________________________


    FINAL DOCKED STATE:
    ________________________


Run:   18 / 20
Time taken for this run:   0.042s

DOCKED: MODEL        18
DOCKED: USER    Run = 18
DOCKED: USER
DOCKED: USER    Estimated Free Energy of Binding    =  -8.53 kcal/mol  [=(1)+(2)+(3)-(4)]
DOCKED: USER
DOCKED: USER    (1) Final Intermolecular Energy     = -10.62 kcal/mol
DOCKED: USER        vdW + Hbond + desolv Energy     = -10.53 kcal/mol
DOCKED: USER        Electrostatic Energy            =  -0.10 kcal/mol
DOCKED: USER        Moving Ligand-Fixed Receptor    = -10.62 kcal/mol
DOCKED: USER        Moving Ligand-Moving Receptor   =  +0.00 kcal/mol
DOCKED: USER    (2) Final Total Internal Energy     =  -1.92 kcal/mol
DOCKED: USER    (3) Torsional Free Energy           =  +2.09 kcal/mol
DOCKED: USER    (4) Unbound System's Energy         =  -1.92 kcal/mol
DOCKED: USER
DOCKED: USER
DOCKED: REMARK SMILES O=C(NCC(=O)N1C[C@H](O)C[C@H]1Cc1cccc(Cl)c1)c1ccc2ccccc2n1
DOCKED: REMARK SMILES IDX 7 1 8 2 9 3 11 4 12 5 5 6 6 7 4 8 3 9 2 10 1 11 21 13 22 14
DOCKED: REMARK SMILES IDX 30 15 23 16 29 17 24 18 28 19 25 20 27 21 26 22 13 23 14 24
DOCKED: REMARK SMILES IDX 15 25 20 26 16 27 18 28 17 29 19 30 10 31
DOCKED: REMARK H PARENT 3 12 10 32
DOCKED: USER                              x       y       z     vdW  Elec       q    Type
DOCKED: USER                           _______ _______ _______ _____ _____    ______ ____
DOCKED: ROOT
DOCKED: ATOM      1  N   UNL     1     141.318  76.662 220.474 -0.11 +0.15    -0.335 N  
DOCKED: ATOM      2  C   UNL     1     141.580  78.091 220.603 -0.24 -0.08    +0.151 C  
DOCKED: ATOM      3  C   UNL     1     141.710  78.631 219.216 -0.22 -0.08    +0.136 C  
DOCKED: ATOM      4  C   UNL     1     141.272  77.477 218.339 -0.14 -0.03    +0.059 C  
DOCKED: ATOM      5  C   UNL     1     141.740  76.287 219.143 -0.18 -0.04    +0.092 C  
DOCKED: ENDROOT
DOCKED: BRANCH   1   6
DOCKED: ATOM      6  C   UNL     1     140.762  75.794 221.443 -0.24 -0.07    +0.242 C  
DOCKED: ATOM      7  O   UNL     1     140.743  76.124 222.665 -0.31 +0.06    -0.273 OA 
DOCKED: BRANCH   6   8
DOCKED: ATOM      8  C   UNL     1     140.209  74.504 221.007 -0.18 -0.04    +0.216 C  
DOCKED: BRANCH   8   9
DOCKED: ATOM      9  N   UNL     1     139.913  73.634 222.129 -0.14 +0.04    -0.342 N  
DOCKED: ATOM     10  C   UNL     1     140.662  72.442 222.333 -0.19 -0.02    +0.270 C  
DOCKED: ATOM     11  O   UNL     1     141.599  72.094 221.563 -0.18 +0.02    -0.268 OA 
DOCKED: ATOM     12  H   UNL     1     139.145  73.897 222.782 -0.52 -0.06    +0.164 HD 
DOCKED: BRANCH  10  13
DOCKED: ATOM     13  C   UNL     1     140.302  71.614 223.494 -0.32 -0.02    +0.128 A  
DOCKED: ATOM     14  C   UNL     1     139.505  70.490 223.356 -0.28 -0.01    +0.035 A  
DOCKED: ATOM     15  N   UNL     1     140.721  71.900 224.740 -0.25 +0.03    -0.243 NA 
DOCKED: ATOM     16  C   UNL     1     139.157  69.697 224.451 -0.34 -0.00    +0.013 A  
DOCKED: ATOM     17  C   UNL     1     140.410  71.165 225.823 -0.53 -0.01    +0.071 A  
DOCKED: ATOM     18  C   UNL     1     139.616  70.038 225.708 -0.46 -0.00    +0.000 A  
DOCKED: ATOM     19  C   UNL     1     140.904  71.564 227.052 -0.73 -0.01    +0.029 A  
DOCKED: ATOM     20  C   UNL     1     139.323  69.315 226.844 -0.49 -0.00    +0.010 A  
DOCKED: ATOM     21  C   UNL     1     140.610  70.835 228.200 -0.66 -0.00    +0.002 A  
DOCKED: ATOM     22  C   UNL     1     139.818  69.713 228.085 -0.62 -0.00    +0.001 A  
DOCKED: ENDBRANCH  10  13
DOCKED: ENDBRANCH   8   9
DOCKED: ENDBRANCH   6   8
DOCKED: ENDBRANCH   1   6
DOCKED: BRANCH   5  23
DOCKED: ATOM     23  C   UNL     1     143.236  76.201 219.026 -0.34 -0.04    +0.060 C  
DOCKED: BRANCH  23  24
DOCKED: ATOM     24  C   UNL     1     143.754  74.898 219.533 -0.35 +0.02    -0.044 A  
DOCKED: ATOM     25  C   UNL     1     143.147  73.759 219.024 -0.19 -0.00    +0.004 A  
DOCKED: ATOM     26  C   UNL     1     144.776  74.807 220.454 -0.38 -0.01    +0.024 A  
DOCKED: ATOM     27  C   UNL     1     143.530  72.503 219.406 -0.20 -0.00    +0.002 A  
DOCKED: ATOM     28  C   UNL     1     145.155  73.532 220.834 -0.57 -0.01    +0.041 A  
DOCKED: ATOM     29  C   UNL     1     144.556  72.392 220.332 -0.39 -0.00    +0.020 A  
DOCKED: ATOM     30  Cl  UNL     1     146.454  73.388 222.006 -0.76 +0.02    -0.084 Cl 
DOCKED: ENDBRANCH  23  24
DOCKED: ENDBRANCH   5  23
DOCKED: BRANCH   3  31
DOCKED: ATOM     31  O   UNL     1     140.885  79.739 219.003 -0.05 +0.17    -0.391 OA 
DOCKED: ATOM     32  H   UNL     1     140.203  79.458 218.339 +0.04 -0.08    +0.211 HD 
DOCKED: ENDBRANCH   3  31
DOCKED: TORSDOF 7
DOCKED: TER
DOCKED: ENDMDL
________________________________________________________________________________


    FINAL DOCKED STATE:
    ________________________


Run:   19 / 20
Time taken for this run:   0.042s

DOCKED: MODEL        19
DOCKED: USER    Run = 19
DOCKED: USER
DOCKED: USER    Estimated Free Energy of Binding    =  -7.42 kcal/mol  [=(1)+(2)+(3)-(4)]
DOCKED: USER
DOCKED: USER    (1) Final Intermolecular Energy     =  -9.51 kcal/mol
DOCKED: USER        vdW + Hbond + desolv Energy     =  -9.25 kcal/mol
DOCKED: USER        Electrostatic Energy            =  -0.26 kcal/mol
DOCKED: USER        Moving Ligand-Fixed Receptor    =  -9.51 kcal/mol
DOCKED: USER        Moving Ligand-Moving Receptor   =  +0.00 kcal/mol
DOCKED: USER    (2) Final Total Internal Energy     =  -3.05 kcal/mol
DOCKED: USER    (3) Torsional Free Energy           =  +2.09 kcal/mol
DOCKED: USER    (4) Unbound System's Energy         =  -3.05 kcal/mol
DOCKED: USER
DOCKED: USER
DOCKED: REMARK SMILES O=C(NCC(=O)N1C[C@H](O)C[C@H]1Cc1cccc(Cl)c1)c1ccc2ccccc2n1
DOCKED: REMARK SMILES IDX 7 1 8 2 9 3 11 4 12 5 5 6 6 7 4 8 3 9 2 10 1 11 21 13 22 14
DOCKED: REMARK SMILES IDX 30 15 23 16 29 17 24 18 28 19 25 20 27 21 26 22 13 23 14 24
DOCKED: REMARK SMILES IDX 15 25 20 26 16 27 18 28 17 29 19 30 10 31
DOCKED: REMARK H PARENT 3 12 10 32
DOCKED: USER                              x       y       z     vdW  Elec       q    Type
DOCKED: USER                           _______ _______ _______ _____ _____    ______ ____
DOCKED: ROOT
DOCKED: ATOM      1  N   UNL     1     142.986  73.279 220.522 -0.12 +0.06    -0.335 N  
DOCKED: ATOM      2  C   UNL     1     143.955  72.406 219.870 -0.23 -0.01    +0.151 C  
DOCKED: ATOM      3  C   UNL     1     145.199  73.211 219.682 -0.37 +0.00    +0.136 C  
DOCKED: ATOM      4  C   UNL     1     144.931  74.475 220.472 -0.42 -0.02    +0.059 C  
DOCKED: ATOM      5  C   UNL     1     143.440  74.633 220.302 -0.32 -0.04    +0.092 C  
DOCKED: ENDROOT
DOCKED: BRANCH   1   6
DOCKED: ATOM      6  C   UNL     1     141.824  72.900 221.236 -0.14 -0.03    +0.242 C  
DOCKED: ATOM      7  O   UNL     1     141.829  71.867 221.969 -0.12 +0.01    -0.273 OA 
DOCKED: BRANCH   6   8
DOCKED: ATOM      8  C   UNL     1     140.614  73.724 221.112 -0.19 -0.03    +0.216 C  
DOCKED: BRANCH   8   9
DOCKED: ATOM      9  N   UNL     1     140.824  75.072 221.606 -0.19 +0.06    -0.342 N  
DOCKED: ATOM     10  C   UNL     1     139.715  75.917 221.891 -0.23 -0.06    +0.270 C  
DOCKED: ATOM     11  O   UNL     1     138.522  75.539 221.731 -0.17 +0.06    -0.268 OA 
DOCKED: ATOM     12  H   UNL     1     141.800  75.410 221.748 -0.22 -0.06    +0.164 HD 
DOCKED: BRANCH  10  13
DOCKED: ATOM     13  C   UNL     1     140.012  77.268 222.389 -0.31 -0.03    +0.128 A  
DOCKED: ATOM     14  C   UNL     1     139.000  78.127 222.782 -0.29 -0.01    +0.035 A  
DOCKED: ATOM     15  N   UNL     1     141.268  77.739 222.488 -0.25 +0.11    -0.243 NA 
DOCKED: ATOM     16  C   UNL     1     139.270  79.413 223.256 -0.37 -0.00    +0.013 A  
DOCKED: ATOM     17  C   UNL     1     141.574  78.969 222.939 -0.50 -0.03    +0.071 A  
DOCKED: ATOM     18  C   UNL     1     140.580  79.844 223.337 -0.48 -0.00    +0.000 A  
DOCKED: ATOM     19  C   UNL     1     142.907  79.336 222.994 -0.47 -0.01    +0.029 A  
DOCKED: ATOM     20  C   UNL     1     140.939  81.094 223.792 -0.41 -0.00    +0.010 A  
DOCKED: ATOM     21  C   UNL     1     143.273  80.597 223.453 -0.62 -0.00    +0.002 A  
DOCKED: ATOM     22  C   UNL     1     142.281  81.469 223.849 -0.60 -0.00    +0.001 A  
DOCKED: ENDBRANCH  10  13
DOCKED: ENDBRANCH   8   9
DOCKED: ENDBRANCH   6   8
DOCKED: ENDBRANCH   1   6
DOCKED: BRANCH   5  23
DOCKED: ATOM     23  C   UNL     1     143.174  75.098 218.897 -0.26 -0.03    +0.060 C  
DOCKED: BRANCH  23  24
DOCKED: ATOM     24  C   UNL     1     142.295  76.302 218.872 -0.24 +0.02    -0.044 A  
DOCKED: ATOM     25  C   UNL     1     142.934  77.528 218.988 -0.29 -0.00    +0.004 A  
DOCKED: ATOM     26  C   UNL     1     140.925  76.223 218.740 -0.09 -0.01    +0.024 A  
DOCKED: ATOM     27  C   UNL     1     142.242  78.707 218.978 -0.28 -0.00    +0.002 A  
DOCKED: ATOM     28  C   UNL     1     140.235  77.423 218.731 -0.07 -0.01    +0.041 A  
DOCKED: ATOM     29  C   UNL     1     140.863  78.648 218.847 -0.14 -0.01    +0.020 A  
DOCKED: ATOM     30  Cl  UNL     1     138.489  77.353 218.566 -0.02 +0.02    -0.084 Cl 
DOCKED: ENDBRANCH  23  24
DOCKED: ENDBRANCH   5  23
DOCKED: BRANCH   3  31
DOCKED: ATOM     31  O   UNL     1     146.330  72.560 220.181 -0.46 -0.18    -0.391 OA 
DOCKED: ATOM     32  H   UNL     1     146.005  71.919 220.865 -0.42 -0.04    +0.211 HD 
DOCKED: ENDBRANCH   3  31
DOCKED: TORSDOF 7
DOCKED: TER
DOCKED: ENDMDL
________________________________________________________________________________


    FINAL DOCKED STATE:
    ________________________


Run:   20 / 20
Time taken for this run:   0.042s

DOCKED: MODEL        20
DOCKED: USER    Run = 20
DOCKED: USER
DOCKED: USER    Estimated Free Energy of Binding    =  -9.04 kcal/mol  [=(1)+(2)+(3)-(4)]
DOCKED: USER
DOCKED: USER    (1) Final Intermolecular Energy     = -11.13 kcal/mol
DOCKED: USER        vdW + Hbond + desolv Energy     = -11.05 kcal/mol
DOCKED: USER        Electrostatic Energy            =  -0.07 kcal/mol
DOCKED: USER        Moving Ligand-Fixed Receptor    = -11.13 kcal/mol
DOCKED: USER        Moving Ligand-Moving Receptor   =  +0.00 kcal/mol
DOCKED: USER    (2) Final Total Internal Energy     =  -1.45 kcal/mol
DOCKED: USER    (3) Torsional Free Energy           =  +2.09 kcal/mol
DOCKED: USER    (4) Unbound System's Energy         =  -1.45 kcal/mol
DOCKED: USER
DOCKED: USER
DOCKED: REMARK SMILES O=C(NCC(=O)N1C[C@H](O)C[C@H]1Cc1cccc(Cl)c1)c1ccc2ccccc2n1
DOCKED: REMARK SMILES IDX 7 1 8 2 9 3 11 4 12 5 5 6 6 7 4 8 3 9 2 10 1 11 21 13 22 14
DOCKED: REMARK SMILES IDX 30 15 23 16 29 17 24 18 28 19 25 20 27 21 26 22 13 23 14 24
DOCKED: REMARK SMILES IDX 15 25 20 26 16 27 18 28 17 29 19 30 10 31
DOCKED: REMARK H PARENT 3 12 10 32
DOCKED: USER                              x       y       z     vdW  Elec       q    Type
DOCKED: USER                           _______ _______ _______ _____ _____    ______ ____
DOCKED: ROOT
DOCKED: ATOM      1  N   UNL     1     142.385  74.676 219.512 -0.07 +0.11    -0.335 N  
DOCKED: ATOM      2  C   UNL     1     142.379  74.899 218.071 -0.09 -0.05    +0.151 C  
DOCKED: ATOM      3  C   UNL     1     142.882  76.288 217.850 -0.21 -0.07    +0.136 C  
DOCKED: ATOM      4  C   UNL     1     143.378  76.712 219.217 -0.30 -0.04    +0.059 C  
DOCKED: ATOM      5  C   UNL     1     142.422  75.982 220.130 -0.24 -0.05    +0.092 C  
DOCKED: ENDROOT
DOCKED: BRANCH   1   6
DOCKED: ATOM      6  C   UNL     1     142.360  73.436 220.195 -0.15 -0.05    +0.242 C  
DOCKED: ATOM      7  O   UNL     1     143.373  73.039 220.842 -0.22 +0.05    -0.273 OA 
DOCKED: BRANCH   6   8
DOCKED: ATOM      8  C   UNL     1     141.139  72.620 220.140 -0.09 -0.04    +0.216 C  
DOCKED: BRANCH   8   9
DOCKED: ATOM      9  N   UNL     1     140.956  71.837 221.348 -0.09 +0.04    -0.342 N  
DOCKED: ATOM     10  C   UNL     1     140.338  72.412 222.493 -0.20 -0.03    +0.270 C  
DOCKED: ATOM     11  O   UNL     1     139.928  73.605 222.510 -0.79 +0.02    -0.268 OA 
DOCKED: ATOM     12  H   UNL     1     141.286  70.848 221.362 +0.06 -0.02    +0.164 HD 
DOCKED: BRANCH  10  13
DOCKED: ATOM     13  C   UNL     1     140.190  71.554 223.678 -0.34 -0.02    +0.128 A  
DOCKED: ATOM     14  C   UNL     1     139.539  70.333 223.604 -0.29 -0.01    +0.035 A  
DOCKED: ATOM     15  N   UNL     1     140.672  71.902 224.885 -0.27 +0.03    -0.243 NA 
DOCKED: ATOM     16  C   UNL     1     139.391  69.510 224.722 -0.36 -0.00    +0.013 A  
DOCKED: ATOM     17  C   UNL     1     140.552  71.140 225.987 -0.55 -0.01    +0.071 A  
DOCKED: ATOM     18  C   UNL     1     139.906  69.918 225.937 -0.49 -0.00    +0.000 A  
DOCKED: ATOM     19  C   UNL     1     141.092  71.610 227.171 -0.75 -0.00    +0.029 A  
DOCKED: ATOM     20  C   UNL     1     139.809  69.172 227.091 -0.57 -0.00    +0.010 A  
DOCKED: ATOM     21  C   UNL     1     140.994  70.858 228.337 -0.62 -0.00    +0.002 A  
DOCKED: ATOM     22  C   UNL     1     140.350  69.641 228.286 -0.61 -0.00    +0.001 A  
DOCKED: ENDBRANCH  10  13
DOCKED: ENDBRANCH   8   9
DOCKED: ENDBRANCH   6   8
DOCKED: ENDBRANCH   1   6
DOCKED: BRANCH   5  23
DOCKED: ATOM     23  C   UNL     1     141.090  76.676 220.067 -0.20 -0.02    +0.060 C  
DOCKED: BRANCH  23  24
DOCKED: ATOM     24  C   UNL     1     140.885  77.580 221.235 -0.29 +0.02    -0.044 A  
DOCKED: ATOM     25  C   UNL     1     139.678  77.446 221.907 -0.30 -0.00    +0.004 A  
DOCKED: ATOM     26  C   UNL     1     141.826  78.502 221.641 -0.37 -0.01    +0.024 A  
DOCKED: ATOM     27  C   UNL     1     139.367  78.214 222.994 -0.29 -0.00    +0.002 A  
DOCKED: ATOM     28  C   UNL     1     141.501  79.274 222.742 -0.49 -0.01    +0.041 A  
DOCKED: ATOM     29  C   UNL     1     140.302  79.148 223.417 -0.44 -0.00    +0.020 A  
DOCKED: ATOM     30  Cl  UNL     1     142.681  80.457 223.280 -0.81 +0.02    -0.084 Cl 
DOCKED: ENDBRANCH  23  24
DOCKED: ENDBRANCH   5  23
DOCKED: BRANCH   3  31
DOCKED: ATOM     31  O   UNL     1     143.927  76.329 216.923 -0.15 +0.26    -0.391 OA 
DOCKED: ATOM     32  H   UNL     1     144.753  76.100 217.422 -0.46 -0.17    +0.211 HD 
DOCKED: ENDBRANCH   3  31
DOCKED: TORSDOF 7
DOCKED: TER
DOCKED: ENDMDL
________________________________________________________________________________


    CLUSTERING HISTOGRAM
    ____________________


________________________________________________________________________________
     |           |     |           |     |
Clus | Lowest    | Run | Mean      | Num | Histogram
-ter | Binding   |     | Binding   | in  |
Rank | Energy    |     | Energy    | Clus|    5    10   15   20   25   30   35
_____|___________|_____|___________|_____|____:____|____:____|____:____|____:___
   1 |     -9.24 |   2 |     -9.06 |   2 |##
   2 |     -9.18 |  12 |     -9.11 |   3 |###
   3 |     -8.62 |   6 |     -8.51 |   5 |#####
   4 |     -8.12 |   7 |     -7.46 |   9 |#########
   5 |     -7.38 |   1 |     -7.38 |   1 |#
_____|___________|_____|___________|_____|______________________________________


    RMSD TABLE
    __________


_______________________________________________________________________
     |      |      |           |         |                 |
Rank | Sub- | Run  | Binding   | Cluster | Reference       | Grep
     | Rank |      | Energy    | RMSD    | RMSD            | Pattern
_____|______|______|___________|_________|_________________|___________
   1      1      2       -9.24      0.00    271.49           RANKING
   1      2     14       -8.87      1.46    271.71           RANKING
   2      1     12       -9.18      0.00    271.61           RANKING
   2      2     15       -9.13      0.84    271.58           RANKING
   2      3     20       -9.04      1.71    271.46           RANKING
   3      1      6       -8.62      0.00    271.35           RANKING
   3      2     18       -8.53      0.30    271.28           RANKING
   3      3      8       -8.49      1.03    271.29           RANKING
   3      4     10       -8.47      0.34    271.34           RANKING
   3      5      3       -8.42      1.04    271.30           RANKING
   4      1      7       -8.12      0.00    271.45           RANKING
   4      2     19       -7.42      1.01    271.32           RANKING
   4      3      9       -7.41      1.07    271.22           RANKING
   4      4      4       -7.41      1.08    271.20           RANKING
   4      5     13       -7.40      1.07    271.22           RANKING
   4      6     17       -7.40      1.07    271.22           RANKING
   4      7     11       -7.37      1.09    271.20           RANKING
   4      8      5       -7.32      1.08    271.22           RANKING
   4      9     16       -7.30      1.08    271.19           RANKING
   5      1      1       -7.38      0.00    270.63           RANKING

Run time 0.824 sec
Idle time 0.000 sec
