AutoDock-GPU version: v1.6

**********************************************************
**    AutoDock-GPU AUTODOCKTOOLS-COMPATIBLE DLG FILE    **
**********************************************************


    DOCKING PARAMETERS
    ________________________


Ligand file:                               /home/a/REINVENT4/ReinventStudies/pleaseWork/justmol2mol_4_Compounds_ontop/graph-dock/graph-DockGPU/node-autodockgpu/inputs/UTHCGYQDWZMPBJ-ZRLIBOMZNA-N.pdbqt
Grid fld file:                             /home/a/REINVENT4/ReinventStudies/mols/Rad51/maps/rad51_receptor.maps.fld

Random seed:                               42
Number of runs:                            20
Number of energy evaluations:              1132076
Number of generations:                     42000
Size of population:                        150
Rate of crossover:                         80.000000%
Tournament selection probability limit:    60.000000%
Rate of mutation:                          2.000000%
Maximal allowed delta movement:            +/- 6.000000A
Maximal allowed delta angle:               +/- 90.000000

Rate of local search:                      100.000000%
Maximal number of local search iterations: 300
Rho lower bound:                           0.010000
Spread of local search delta movement:     2.000000A
Spread of local search delta angle:        74.999999
Limit of consecutive successes/failures:   4

Handle symmetry during clustering:         YES
RMSD tolerance:                            2.000000A

Program call in command line was:          /home/a/REINVENT4/ReinventStudies/adgpu-v1.6_linux_x64_cuda12_128wi --filelist batch.txt --heuristics 1 --nrun 20 --psize 150 --lsit 300 --seed 42 --heurmax 12000000 


    GRID PARAMETERS
    ________________________


Receptor name:                             rad51_receptor
Number of grid points (x, y, z):           53, 53, 53
Grid center (x, y, z):                     139.950000, 75.640000, 221.970000A
Grid size (x, y, z):                       19.500000, 19.500000, 19.500000A
Grid spacing:                              0.375000A


    LIGAND PARAMETERS
    ________________________


Ligand name:                               /home/a/REINVENT4/ReinventStudies/pleaseWork/justmol2mol_4_Compounds_ontop/graph-dock/graph-DockGPU/node-autodockgpu/inputs/UTHCGYQDWZMPBJ-ZRLIBOMZNA-N
Number of atoms:                           29
Number of rotatable bonds:                 5
Number of atom types:                      7


    DUMMY DATA (only for ADT-compatibility)
    ________________________


DPF> outlev 1
DPF> ga_run 20
DPF> fld /home/a/REINVENT4/ReinventStudies/mols/Rad51/maps/rad51_receptor.maps.fld
DPF> move /home/a/REINVENT4/ReinventStudies/pleaseWork/justmol2mol_4_Compounds_ontop/graph-dock/graph-DockGPU/node-autodockgpu/inputs/UTHCGYQDWZMPBJ-ZRLIBOMZNA-N.pdbqt


    COUNTER STATES
    ________________________


Number of energy evaluations performed:    928064
Number of generations used:                45


    INPUT LIGAND PDBQT FILE:
    ________________________


INPUT-LIGAND-PDBQT: REMARK SMILES O=C(NCC(=O)N1CCC[C@@H]1C1CCOCC1)c1ccc2cc(F)ccc2n1
INPUT-LIGAND-PDBQT: REMARK SMILES IDX 4 1 3 2 2 3 1 4 18 6 19 7 28 8 20 9 27 10 21 11 26 12 22 13
INPUT-LIGAND-PDBQT: REMARK SMILES IDX 25 14 23 15 24 16 5 17 6 18 7 19 8 20 11 21 9 22 10 23 12 24
INPUT-LIGAND-PDBQT: REMARK SMILES IDX 13 25 17 26 14 27 16 28 15 29
INPUT-LIGAND-PDBQT: REMARK H PARENT 3 5
INPUT-LIGAND-PDBQT: ROOT
INPUT-LIGAND-PDBQT: ATOM      1  C   UNL     1      -0.212  -0.358  -0.482  1.00  0.00     0.216 C 
INPUT-LIGAND-PDBQT: ENDROOT
INPUT-LIGAND-PDBQT: BRANCH   1   2
INPUT-LIGAND-PDBQT: ATOM      2  N   UNL     1       1.261  -0.431  -0.522  1.00  0.00    -0.342 N 
INPUT-LIGAND-PDBQT: ATOM      3  C   UNL     1       1.988  -0.332   0.706  1.00  0.00     0.270 C 
INPUT-LIGAND-PDBQT: ATOM      4  O   UNL     1       1.418  -0.183   1.822  1.00  0.00    -0.268 OA
INPUT-LIGAND-PDBQT: ATOM      5  H   UNL     1       1.792  -0.552  -1.402  1.00  0.00     0.164 HD
INPUT-LIGAND-PDBQT: BRANCH   3   6
INPUT-LIGAND-PDBQT: ATOM      6  C   UNL     1       3.446  -0.406   0.654  1.00  0.00     0.128 A 
INPUT-LIGAND-PDBQT: ATOM      7  C   UNL     1       4.194  -0.314   1.811  1.00  0.00     0.035 A 
INPUT-LIGAND-PDBQT: ATOM      8  N   UNL     1       4.124  -0.562  -0.494  1.00  0.00    -0.243 NA
INPUT-LIGAND-PDBQT: ATOM      9  C   UNL     1       5.568  -0.376   1.835  1.00  0.00     0.013 A 
INPUT-LIGAND-PDBQT: ATOM     10  C   UNL     1       5.464  -0.629  -0.532  1.00  0.00     0.071 A 
INPUT-LIGAND-PDBQT: ATOM     11  C   UNL     1       6.218  -0.539   0.624  1.00  0.00     0.003 A 
INPUT-LIGAND-PDBQT: ATOM     12  C   UNL     1       6.139  -0.791  -1.725  1.00  0.00     0.032 A 
INPUT-LIGAND-PDBQT: ATOM     13  C   UNL     1       7.601  -0.605   0.610  1.00  0.00     0.049 A 
INPUT-LIGAND-PDBQT: ATOM     14  C   UNL     1       7.530  -0.863  -1.785  1.00  0.00     0.041 A 
INPUT-LIGAND-PDBQT: ATOM     15  C   UNL     1       8.261  -0.768  -0.606  1.00  0.00     0.123 A 
INPUT-LIGAND-PDBQT: ATOM     16  F   UNL     1       9.629  -0.835  -0.628  1.00  0.00    -0.207 F 
INPUT-LIGAND-PDBQT: ENDBRANCH   3   6
INPUT-LIGAND-PDBQT: ENDBRANCH   1   2
INPUT-LIGAND-PDBQT: BRANCH   1  17
INPUT-LIGAND-PDBQT: ATOM     17  C   UNL     1      -0.653   0.912   0.081  1.00  0.00     0.242 C 
INPUT-LIGAND-PDBQT: ATOM     18  O   UNL     1       0.310   1.732   0.392  1.00  0.00    -0.273 OA
INPUT-LIGAND-PDBQT: BRANCH  17  19
INPUT-LIGAND-PDBQT: ATOM     19  N   UNL     1      -1.931   1.387   0.343  1.00  0.00    -0.338 N 
INPUT-LIGAND-PDBQT: ATOM     20  C   UNL     1      -2.091   2.772   0.921  1.00  0.00     0.120 C 
INPUT-LIGAND-PDBQT: ATOM     21  C   UNL     1      -3.283   0.946   0.268  1.00  0.00     0.088 C 
INPUT-LIGAND-PDBQT: ATOM     22  C   UNL     1      -3.292   2.644   1.846  1.00  0.00     0.024 C 
INPUT-LIGAND-PDBQT: ATOM     23  C   UNL     1      -3.697   1.166   1.739  1.00  0.00     0.027 C 
INPUT-LIGAND-PDBQT: BRANCH  21  24
INPUT-LIGAND-PDBQT: ATOM     24  C   UNL     1      -3.605  -0.399  -0.220  1.00  0.00     0.016 C 
INPUT-LIGAND-PDBQT: ATOM     25  C   UNL     1      -3.273  -0.571  -1.660  1.00  0.00     0.034 C 
INPUT-LIGAND-PDBQT: ATOM     26  C   UNL     1      -5.124  -0.584  -0.070  1.00  0.00     0.034 C 
INPUT-LIGAND-PDBQT: ATOM     27  C   UNL     1      -4.539  -0.806  -2.479  1.00  0.00     0.160 C 
INPUT-LIGAND-PDBQT: ATOM     28  C   UNL     1      -5.549  -1.876  -0.725  1.00  0.00     0.160 C 
INPUT-LIGAND-PDBQT: ATOM     29  O   UNL     1      -5.201  -1.942  -2.054  1.00  0.00    -0.381 OA
INPUT-LIGAND-PDBQT: ENDBRANCH  21  24
INPUT-LIGAND-PDBQT: ENDBRANCH  17  19
INPUT-LIGAND-PDBQT: ENDBRANCH   1  17
INPUT-LIGAND-PDBQT: TORSDOF 5


    FINAL DOCKED STATE:
    ________________________


Run:   1 / 20
Time taken for this run:   0.039s

DOCKED: MODEL        1
DOCKED: USER    Run = 1
DOCKED: USER
DOCKED: USER    Estimated Free Energy of Binding    =  -8.82 kcal/mol  [=(1)+(2)+(3)-(4)]
DOCKED: USER
DOCKED: USER    (1) Final Intermolecular Energy     = -10.31 kcal/mol
DOCKED: USER        vdW + Hbond + desolv Energy     = -10.02 kcal/mol
DOCKED: USER        Electrostatic Energy            =  -0.29 kcal/mol
DOCKED: USER        Moving Ligand-Fixed Receptor    = -10.31 kcal/mol
DOCKED: USER        Moving Ligand-Moving Receptor   =  +0.00 kcal/mol
DOCKED: USER    (2) Final Total Internal Energy     =  -1.47 kcal/mol
DOCKED: USER    (3) Torsional Free Energy           =  +1.49 kcal/mol
DOCKED: USER    (4) Unbound System's Energy         =  -1.47 kcal/mol
DOCKED: USER
DOCKED: USER
DOCKED: REMARK SMILES O=C(NCC(=O)N1CCC[C@@H]1C1CCOCC1)c1ccc2cc(F)ccc2n1
DOCKED: REMARK SMILES IDX 4 1 3 2 2 3 1 4 18 6 19 7 28 8 20 9 27 10 21 11 26 12 22 13
DOCKED: REMARK SMILES IDX 25 14 23 15 24 16 5 17 6 18 7 19 8 20 11 21 9 22 10 23 12 24
DOCKED: REMARK SMILES IDX 13 25 17 26 14 27 16 28 15 29
DOCKED: REMARK H PARENT 3 5
DOCKED: USER                              x       y       z     vdW  Elec       q    Type
DOCKED: USER                           _______ _______ _______ _____ _____    ______ ____
DOCKED: ROOT
DOCKED: ATOM      1  C   UNL     1     140.171  74.303 220.867 -0.16 -0.04    +0.216 C  
DOCKED: ENDROOT
DOCKED: BRANCH   1   2
DOCKED: ATOM      2  N   UNL     1     139.892  73.504 222.076 -0.15 +0.04    -0.342 N  
DOCKED: ATOM      3  C   UNL     1     140.609  72.282 222.273 -0.20 -0.02    +0.270 C  
DOCKED: ATOM      4  O   UNL     1     141.470  71.860 221.453 -0.16 +0.03    -0.268 OA 
DOCKED: ATOM      5  H   UNL     1     139.199  73.791 222.789 -0.51 -0.05    +0.164 HD 
DOCKED: BRANCH   3   6
DOCKED: ATOM      6  C   UNL     1     140.325  71.500 223.474 -0.32 -0.02    +0.128 A  
DOCKED: ATOM      7  C   UNL     1     139.613  70.320 223.389 -0.27 -0.01    +0.035 A  
DOCKED: ATOM      8  N   UNL     1     140.728  71.877 224.698 -0.25 +0.03    -0.243 NA 
DOCKED: ATOM      9  C   UNL     1     139.310  69.534 224.477 -0.34 -0.00    +0.013 A  
DOCKED: ATOM     10  C   UNL     1     140.462  71.152 225.795 -0.54 -0.01    +0.071 A  
DOCKED: ATOM     11  C   UNL     1     139.751  69.968 225.716 -0.46 -0.00    +0.003 A  
DOCKED: ATOM     12  C   UNL     1     140.888  71.559 227.043 -0.73 -0.01    +0.032 A  
DOCKED: ATOM     13  C   UNL     1     139.464  69.203 226.833 -0.49 -0.01    +0.049 A  
DOCKED: ATOM     14  C   UNL     1     140.622  70.820 228.195 -0.62 -0.01    +0.041 A  
DOCKED: ATOM     15  C   UNL     1     139.903  69.634 228.083 -0.52 -0.02    +0.123 A  
DOCKED: ATOM     16  F   UNL     1     139.624  68.883 229.194 -0.08 +0.03    -0.207 F  
DOCKED: ENDBRANCH   3   6
DOCKED: ENDBRANCH   1   2
DOCKED: BRANCH   1  17
DOCKED: ATOM     17  C   UNL     1     141.103  75.383 221.164 -0.22 -0.07    +0.242 C  
DOCKED: ATOM     18  O   UNL     1     140.943  75.932 222.334 -0.41 +0.07    -0.273 OA 
DOCKED: BRANCH  17  19
DOCKED: ATOM     19  N   UNL     1     142.128  75.925 220.400 -0.13 +0.17    -0.338 N  
DOCKED: ATOM     20  C   UNL     1     142.076  77.390 220.042 -0.26 -0.08    +0.120 C  
DOCKED: ATOM     21  C   UNL     1     143.324  75.510 219.749 -0.35 -0.05    +0.088 C  
DOCKED: ATOM     22  C   UNL     1     142.682  77.446 218.648 -0.32 -0.02    +0.024 C  
DOCKED: ATOM     23  C   UNL     1     143.001  75.981 218.314 -0.26 -0.01    +0.027 C  
DOCKED: BRANCH  21  24
DOCKED: ATOM     24  C   UNL     1     143.759  74.110 219.805 -0.35 -0.00    +0.016 C  
DOCKED: ATOM     25  C   UNL     1     144.839  73.895 220.805 -0.49 -0.01    +0.034 C  
DOCKED: ATOM     26  C   UNL     1     144.332  73.758 218.422 -0.20 -0.01    +0.034 C  
DOCKED: ATOM     27  C   UNL     1     146.132  73.466 220.117 -0.43 +0.02    +0.160 C  
DOCKED: ATOM     28  C   UNL     1     144.967  72.389 218.466 -0.17 +0.05    +0.160 C  
DOCKED: ATOM     29  O   UNL     1     145.954  72.287 219.418 -0.63 -0.28    -0.381 OA 
DOCKED: ENDBRANCH  21  24
DOCKED: ENDBRANCH  17  19
DOCKED: ENDBRANCH   1  17
DOCKED: TORSDOF 5
DOCKED: TER
DOCKED: ENDMDL
________________________________________________________________________________


    FINAL DOCKED STATE:
    ________________________


Run:   2 / 20
Time taken for this run:   0.039s

DOCKED: MODEL        2
DOCKED: USER    Run = 2
DOCKED: USER
DOCKED: USER    Estimated Free Energy of Binding    =  -7.81 kcal/mol  [=(1)+(2)+(3)-(4)]
DOCKED: USER
DOCKED: USER    (1) Final Intermolecular Energy     =  -9.30 kcal/mol
DOCKED: USER        vdW + Hbond + desolv Energy     =  -9.15 kcal/mol
DOCKED: USER        Electrostatic Energy            =  -0.15 kcal/mol
DOCKED: USER        Moving Ligand-Fixed Receptor    =  -9.30 kcal/mol
DOCKED: USER        Moving Ligand-Moving Receptor   =  +0.00 kcal/mol
DOCKED: USER    (2) Final Total Internal Energy     =  -1.63 kcal/mol
DOCKED: USER    (3) Torsional Free Energy           =  +1.49 kcal/mol
DOCKED: USER    (4) Unbound System's Energy         =  -1.63 kcal/mol
DOCKED: USER
DOCKED: USER
DOCKED: REMARK SMILES O=C(NCC(=O)N1CCC[C@@H]1C1CCOCC1)c1ccc2cc(F)ccc2n1
DOCKED: REMARK SMILES IDX 4 1 3 2 2 3 1 4 18 6 19 7 28 8 20 9 27 10 21 11 26 12 22 13
DOCKED: REMARK SMILES IDX 25 14 23 15 24 16 5 17 6 18 7 19 8 20 11 21 9 22 10 23 12 24
DOCKED: REMARK SMILES IDX 13 25 17 26 14 27 16 28 15 29
DOCKED: REMARK H PARENT 3 5
DOCKED: USER                              x       y       z     vdW  Elec       q    Type
DOCKED: USER                           _______ _______ _______ _____ _____    ______ ____
DOCKED: ROOT
DOCKED: ATOM      1  C   UNL     1     139.829  74.255 221.180 -0.18 -0.04    +0.216 C  
DOCKED: ENDROOT
DOCKED: BRANCH   1   2
DOCKED: ATOM      2  N   UNL     1     139.833  73.397 222.380 -0.12 +0.04    -0.342 N  
DOCKED: ATOM      3  C   UNL     1     139.948  71.981 222.213 -0.19 -0.04    +0.270 C  
DOCKED: ATOM      4  O   UNL     1     140.044  71.437 221.078 -0.08 +0.04    -0.268 OA 
DOCKED: ATOM      5  H   UNL     1     139.758  73.777 223.340 -0.38 +0.00    +0.164 HD 
DOCKED: BRANCH   3   6
DOCKED: ATOM      6  C   UNL     1     139.951  71.142 223.409 -0.30 -0.02    +0.128 A  
DOCKED: ATOM      7  C   UNL     1     139.533  69.827 223.344 -0.23 -0.01    +0.035 A  
DOCKED: ATOM      8  N   UNL     1     140.350  71.591 224.609 -0.30 +0.04    -0.243 NA 
DOCKED: ATOM      9  C   UNL     1     139.511  68.982 224.429 -0.30 -0.00    +0.013 A  
DOCKED: ATOM     10  C   UNL     1     140.350  70.813 225.703 -0.51 -0.01    +0.071 A  
DOCKED: ATOM     11  C   UNL     1     139.934  69.495 225.643 -0.46 -0.00    +0.003 A  
DOCKED: ATOM     12  C   UNL     1     140.765  71.297 226.926 -0.69 -0.01    +0.032 A  
DOCKED: ATOM     13  C   UNL     1     139.924  68.673 226.757 -0.56 -0.01    +0.049 A  
DOCKED: ATOM     14  C   UNL     1     140.773  70.504 228.073 -0.60 -0.01    +0.041 A  
DOCKED: ATOM     15  C   UNL     1     140.347  69.184 227.982 -0.53 -0.02    +0.123 A  
DOCKED: ATOM     16  F   UNL     1     140.341  68.376 229.088 -0.17 +0.04    -0.207 F  
DOCKED: ENDBRANCH   3   6
DOCKED: ENDBRANCH   1   2
DOCKED: BRANCH   1  17
DOCKED: ATOM     17  C   UNL     1     140.972  75.160 221.185 -0.22 -0.06    +0.242 C  
DOCKED: ATOM     18  O   UNL     1     141.227  75.705 222.340 -0.35 +0.07    -0.273 OA 
DOCKED: BRANCH  17  19
DOCKED: ATOM     19  N   UNL     1     141.828  75.537 220.160 -0.11 +0.14    -0.338 N  
DOCKED: ATOM     20  C   UNL     1     141.510  76.779 219.363 -0.18 -0.05    +0.120 C  
DOCKED: ATOM     21  C   UNL     1     143.016  75.079 219.522 -0.29 -0.04    +0.088 C  
DOCKED: ATOM     22  C   UNL     1     141.980  76.439 217.956 -0.16 -0.01    +0.024 C  
DOCKED: ATOM     23  C   UNL     1     142.501  74.998 218.068 -0.14 -0.01    +0.027 C  
DOCKED: BRANCH  21  24
DOCKED: ATOM     24  C   UNL     1     143.674  73.845 219.963 -0.35 -0.00    +0.016 C  
DOCKED: ATOM     25  C   UNL     1     144.875  74.114 220.798 -0.46 -0.01    +0.034 C  
DOCKED: ATOM     26  C   UNL     1     144.145  73.105 218.700 -0.20 -0.00    +0.034 C  
DOCKED: ATOM     27  C   UNL     1     146.139  73.626 220.096 -0.39 +0.02    +0.160 C  
DOCKED: ATOM     28  C   UNL     1     144.993  71.919 219.088 -0.21 +0.04    +0.160 C  
DOCKED: ATOM     29  O   UNL     1     146.080  72.266 219.857 -0.51 -0.22    -0.381 OA 
DOCKED: ENDBRANCH  21  24
DOCKED: ENDBRANCH  17  19
DOCKED: ENDBRANCH   1  17
DOCKED: TORSDOF 5
DOCKED: TER
DOCKED: ENDMDL
________________________________________________________________________________


    FINAL DOCKED STATE:
    ________________________


Run:   3 / 20
Time taken for this run:   0.039s

DOCKED: MODEL        3
DOCKED: USER    Run = 3
DOCKED: USER
DOCKED: USER    Estimated Free Energy of Binding    =  -8.82 kcal/mol  [=(1)+(2)+(3)-(4)]
DOCKED: USER
DOCKED: USER    (1) Final Intermolecular Energy     = -10.32 kcal/mol
DOCKED: USER        vdW + Hbond + desolv Energy     = -10.03 kcal/mol
DOCKED: USER        Electrostatic Energy            =  -0.29 kcal/mol
DOCKED: USER        Moving Ligand-Fixed Receptor    = -10.32 kcal/mol
DOCKED: USER        Moving Ligand-Moving Receptor   =  +0.00 kcal/mol
DOCKED: USER    (2) Final Total Internal Energy     =  -1.47 kcal/mol
DOCKED: USER    (3) Torsional Free Energy           =  +1.49 kcal/mol
DOCKED: USER    (4) Unbound System's Energy         =  -1.47 kcal/mol
DOCKED: USER
DOCKED: USER
DOCKED: REMARK SMILES O=C(NCC(=O)N1CCC[C@@H]1C1CCOCC1)c1ccc2cc(F)ccc2n1
DOCKED: REMARK SMILES IDX 4 1 3 2 2 3 1 4 18 6 19 7 28 8 20 9 27 10 21 11 26 12 22 13
DOCKED: REMARK SMILES IDX 25 14 23 15 24 16 5 17 6 18 7 19 8 20 11 21 9 22 10 23 12 24
DOCKED: REMARK SMILES IDX 13 25 17 26 14 27 16 28 15 29
DOCKED: REMARK H PARENT 3 5
DOCKED: USER                              x       y       z     vdW  Elec       q    Type
DOCKED: USER                           _______ _______ _______ _____ _____    ______ ____
DOCKED: ROOT
DOCKED: ATOM      1  C   UNL     1     140.164  74.297 220.875 -0.16 -0.04    +0.216 C  
DOCKED: ENDROOT
DOCKED: BRANCH   1   2
DOCKED: ATOM      2  N   UNL     1     139.885  73.502 222.085 -0.15 +0.04    -0.342 N  
DOCKED: ATOM      3  C   UNL     1     140.595  72.276 222.283 -0.20 -0.03    +0.270 C  
DOCKED: ATOM      4  O   UNL     1     141.451  71.847 221.460 -0.16 +0.03    -0.268 OA 
DOCKED: ATOM      5  H   UNL     1     139.196  73.794 222.800 -0.51 -0.06    +0.164 HD 
DOCKED: BRANCH   3   6
DOCKED: ATOM      6  C   UNL     1     140.310  71.498 223.486 -0.32 -0.02    +0.128 A  
DOCKED: ATOM      7  C   UNL     1     139.599  70.316 223.404 -0.27 -0.01    +0.035 A  
DOCKED: ATOM      8  N   UNL     1     140.711  71.879 224.709 -0.26 +0.03    -0.243 NA 
DOCKED: ATOM      9  C   UNL     1     139.296  69.534 224.494 -0.34 -0.00    +0.013 A  
DOCKED: ATOM     10  C   UNL     1     140.444  71.157 225.808 -0.53 -0.01    +0.071 A  
DOCKED: ATOM     11  C   UNL     1     139.734  69.972 225.732 -0.46 -0.00    +0.003 A  
DOCKED: ATOM     12  C   UNL     1     140.868  71.569 227.055 -0.73 -0.01    +0.032 A  
DOCKED: ATOM     13  C   UNL     1     139.446  69.211 226.852 -0.49 -0.01    +0.049 A  
DOCKED: ATOM     14  C   UNL     1     140.601  70.834 228.209 -0.62 -0.01    +0.041 A  
DOCKED: ATOM     15  C   UNL     1     139.884  69.647 228.100 -0.51 -0.02    +0.123 A  
DOCKED: ATOM     16  F   UNL     1     139.604  68.899 229.213 -0.08 +0.03    -0.207 F  
DOCKED: ENDBRANCH   3   6
DOCKED: ENDBRANCH   1   2
DOCKED: BRANCH   1  17
DOCKED: ATOM     17  C   UNL     1     141.093  75.381 221.169 -0.22 -0.07    +0.242 C  
DOCKED: ATOM     18  O   UNL     1     140.930  75.933 222.338 -0.41 +0.07    -0.273 OA 
DOCKED: BRANCH  17  19
DOCKED: ATOM     19  N   UNL     1     142.118  75.924 220.406 -0.13 +0.17    -0.338 N  
DOCKED: ATOM     20  C   UNL     1     142.062  77.388 220.044 -0.26 -0.08    +0.120 C  
DOCKED: ATOM     21  C   UNL     1     143.316  75.509 219.757 -0.34 -0.05    +0.088 C  
DOCKED: ATOM     22  C   UNL     1     142.671  77.441 218.651 -0.32 -0.02    +0.024 C  
DOCKED: ATOM     23  C   UNL     1     142.993  75.976 218.321 -0.26 -0.01    +0.027 C  
DOCKED: BRANCH  21  24
DOCKED: ATOM     24  C   UNL     1     143.754  74.111 219.818 -0.35 -0.00    +0.016 C  
DOCKED: ATOM     25  C   UNL     1     144.815  73.896 220.838 -0.49 -0.01    +0.034 C  
DOCKED: ATOM     26  C   UNL     1     144.355  73.765 218.445 -0.20 -0.01    +0.034 C  
DOCKED: ATOM     27  C   UNL     1     146.122  73.474 220.174 -0.44 +0.02    +0.160 C  
DOCKED: ATOM     28  C   UNL     1     144.994  72.398 218.497 -0.17 +0.05    +0.160 C  
DOCKED: ATOM     29  O   UNL     1     145.962  72.297 219.469 -0.62 -0.27    -0.381 OA 
DOCKED: ENDBRANCH  21  24
DOCKED: ENDBRANCH  17  19
DOCKED: ENDBRANCH   1  17
DOCKED: TORSDOF 5
DOCKED: TER
DOCKED: ENDMDL
________________________________________________________________________________


    FINAL DOCKED STATE:
    ________________________


Run:   4 / 20
Time taken for this run:   0.039s

DOCKED: MODEL        4
DOCKED: USER    Run = 4
DOCKED: USER
DOCKED: USER    Estimated Free Energy of Binding    =  -8.72 kcal/mol  [=(1)+(2)+(3)-(4)]
DOCKED: USER
DOCKED: USER    (1) Final Intermolecular Energy     = -10.21 kcal/mol
DOCKED: USER        vdW + Hbond + desolv Energy     =  -9.92 kcal/mol
DOCKED: USER        Electrostatic Energy            =  -0.29 kcal/mol
DOCKED: USER        Moving Ligand-Fixed Receptor    = -10.21 kcal/mol
DOCKED: USER        Moving Ligand-Moving Receptor   =  +0.00 kcal/mol
DOCKED: USER    (2) Final Total Internal Energy     =  -1.56 kcal/mol
DOCKED: USER    (3) Torsional Free Energy           =  +1.49 kcal/mol
DOCKED: USER    (4) Unbound System's Energy         =  -1.56 kcal/mol
DOCKED: USER
DOCKED: USER
DOCKED: REMARK SMILES O=C(NCC(=O)N1CCC[C@@H]1C1CCOCC1)c1ccc2cc(F)ccc2n1
DOCKED: REMARK SMILES IDX 4 1 3 2 2 3 1 4 18 6 19 7 28 8 20 9 27 10 21 11 26 12 22 13
DOCKED: REMARK SMILES IDX 25 14 23 15 24 16 5 17 6 18 7 19 8 20 11 21 9 22 10 23 12 24
DOCKED: REMARK SMILES IDX 13 25 17 26 14 27 16 28 15 29
DOCKED: REMARK H PARENT 3 5
DOCKED: USER                              x       y       z     vdW  Elec       q    Type
DOCKED: USER                           _______ _______ _______ _____ _____    ______ ____
DOCKED: ROOT
DOCKED: ATOM      1  C   UNL     1     140.275  74.036 220.987 -0.17 -0.04    +0.216 C  
DOCKED: ENDROOT
DOCKED: BRANCH   1   2
DOCKED: ATOM      2  N   UNL     1     140.030  73.297 222.240 -0.15 +0.03    -0.342 N  
DOCKED: ATOM      3  C   UNL     1     140.447  71.931 222.325 -0.20 -0.03    +0.270 C  
DOCKED: ATOM      4  O   UNL     1     141.013  71.333 221.369 -0.13 +0.03    -0.268 OA 
DOCKED: ATOM      5  H   UNL     1     139.571  73.725 223.063 -0.49 -0.03    +0.164 HD 
DOCKED: BRANCH   3   6
DOCKED: ATOM      6  C   UNL     1     140.200  71.209 223.571 -0.31 -0.02    +0.128 A  
DOCKED: ATOM      7  C   UNL     1     139.557  69.987 223.558 -0.26 -0.01    +0.035 A  
DOCKED: ATOM      8  N   UNL     1     140.574  71.683 224.770 -0.29 +0.04    -0.243 NA 
DOCKED: ATOM      9  C   UNL     1     139.293  69.255 224.692 -0.36 -0.00    +0.013 A  
DOCKED: ATOM     10  C   UNL     1     140.343  71.013 225.910 -0.53 -0.01    +0.071 A  
DOCKED: ATOM     11  C   UNL     1     139.701  69.788 225.902 -0.47 -0.00    +0.003 A  
DOCKED: ATOM     12  C   UNL     1     140.737  71.521 227.132 -0.73 -0.01    +0.032 A  
DOCKED: ATOM     13  C   UNL     1     139.451  69.078 227.065 -0.49 -0.01    +0.049 A  
DOCKED: ATOM     14  C   UNL     1     140.507  70.840 228.326 -0.59 -0.01    +0.041 A  
DOCKED: ATOM     15  C   UNL     1     139.858  69.611 228.286 -0.51 -0.02    +0.123 A  
DOCKED: ATOM     16  F   UNL     1     139.615  68.914 229.441 +0.01 +0.03    -0.207 F  
DOCKED: ENDBRANCH   3   6
DOCKED: ENDBRANCH   1   2
DOCKED: BRANCH   1  17
DOCKED: ATOM     17  C   UNL     1     141.067  75.233 221.237 -0.23 -0.06    +0.242 C  
DOCKED: ATOM     18  O   UNL     1     140.769  75.862 222.339 -0.44 +0.05    -0.273 OA 
DOCKED: BRANCH  17  19
DOCKED: ATOM     19  N   UNL     1     142.084  75.814 220.492 -0.13 +0.17    -0.338 N  
DOCKED: ATOM     20  C   UNL     1     142.010  77.289 220.181 -0.25 -0.07    +0.120 C  
DOCKED: ATOM     21  C   UNL     1     143.285  75.437 219.826 -0.33 -0.05    +0.088 C  
DOCKED: ATOM     22  C   UNL     1     142.615  77.399 218.789 -0.32 -0.02    +0.024 C  
DOCKED: ATOM     23  C   UNL     1     142.954  75.950 218.408 -0.26 -0.01    +0.027 C  
DOCKED: BRANCH  21  24
DOCKED: ATOM     24  C   UNL     1     143.740  74.043 219.837 -0.35 -0.00    +0.016 C  
DOCKED: ATOM     25  C   UNL     1     144.829  73.812 220.824 -0.51 -0.01    +0.034 C  
DOCKED: ATOM     26  C   UNL     1     144.309  73.741 218.441 -0.20 -0.01    +0.034 C  
DOCKED: ATOM     27  C   UNL     1     146.123  73.423 220.115 -0.43 +0.03    +0.160 C  
DOCKED: ATOM     28  C   UNL     1     144.964  72.381 218.438 -0.17 +0.05    +0.160 C  
DOCKED: ATOM     29  O   UNL     1     145.958  72.264 219.381 -0.64 -0.30    -0.381 OA 
DOCKED: ENDBRANCH  21  24
DOCKED: ENDBRANCH  17  19
DOCKED: ENDBRANCH   1  17
DOCKED: TORSDOF 5
DOCKED: TER
DOCKED: ENDMDL
________________________________________________________________________________


    FINAL DOCKED STATE:
    ________________________


Run:   5 / 20
Time taken for this run:   0.039s

DOCKED: MODEL        5
DOCKED: USER    Run = 5
DOCKED: USER
DOCKED: USER    Estimated Free Energy of Binding    =  -8.82 kcal/mol  [=(1)+(2)+(3)-(4)]
DOCKED: USER
DOCKED: USER    (1) Final Intermolecular Energy     = -10.31 kcal/mol
DOCKED: USER        vdW + Hbond + desolv Energy     = -10.02 kcal/mol
DOCKED: USER        Electrostatic Energy            =  -0.29 kcal/mol
DOCKED: USER        Moving Ligand-Fixed Receptor    = -10.31 kcal/mol
DOCKED: USER        Moving Ligand-Moving Receptor   =  +0.00 kcal/mol
DOCKED: USER    (2) Final Total Internal Energy     =  -1.47 kcal/mol
DOCKED: USER    (3) Torsional Free Energy           =  +1.49 kcal/mol
DOCKED: USER    (4) Unbound System's Energy         =  -1.47 kcal/mol
DOCKED: USER
DOCKED: USER
DOCKED: REMARK SMILES O=C(NCC(=O)N1CCC[C@@H]1C1CCOCC1)c1ccc2cc(F)ccc2n1
DOCKED: REMARK SMILES IDX 4 1 3 2 2 3 1 4 18 6 19 7 28 8 20 9 27 10 21 11 26 12 22 13
DOCKED: REMARK SMILES IDX 25 14 23 15 24 16 5 17 6 18 7 19 8 20 11 21 9 22 10 23 12 24
DOCKED: REMARK SMILES IDX 13 25 17 26 14 27 16 28 15 29
DOCKED: REMARK H PARENT 3 5
DOCKED: USER                              x       y       z     vdW  Elec       q    Type
DOCKED: USER                           _______ _______ _______ _____ _____    ______ ____
DOCKED: ROOT
DOCKED: ATOM      1  C   UNL     1     140.182  74.265 220.880 -0.16 -0.04    +0.216 C  
DOCKED: ENDROOT
DOCKED: BRANCH   1   2
DOCKED: ATOM      2  N   UNL     1     139.894  73.477 222.094 -0.15 +0.04    -0.342 N  
DOCKED: ATOM      3  C   UNL     1     140.607  72.255 222.306 -0.20 -0.02    +0.270 C  
DOCKED: ATOM      4  O   UNL     1     141.472  71.825 221.493 -0.16 +0.03    -0.268 OA 
DOCKED: ATOM      5  H   UNL     1     139.198  73.772 222.801 -0.51 -0.06    +0.164 HD 
DOCKED: BRANCH   3   6
DOCKED: ATOM      6  C   UNL     1     140.314  71.484 223.511 -0.32 -0.02    +0.128 A  
DOCKED: ATOM      7  C   UNL     1     139.612  70.298 223.430 -0.27 -0.01    +0.035 A  
DOCKED: ATOM      8  N   UNL     1     140.701  71.876 224.735 -0.27 +0.03    -0.243 NA 
DOCKED: ATOM      9  C   UNL     1     139.302  69.522 224.523 -0.35 -0.00    +0.013 A  
DOCKED: ATOM     10  C   UNL     1     140.427  71.160 225.837 -0.53 -0.01    +0.071 A  
DOCKED: ATOM     11  C   UNL     1     139.725  69.971 225.762 -0.47 -0.00    +0.003 A  
DOCKED: ATOM     12  C   UNL     1     140.836  71.584 227.085 -0.73 -0.01    +0.032 A  
DOCKED: ATOM     13  C   UNL     1     139.430  69.216 226.884 -0.48 -0.01    +0.049 A  
DOCKED: ATOM     14  C   UNL     1     140.561  70.855 228.242 -0.61 -0.01    +0.041 A  
DOCKED: ATOM     15  C   UNL     1     139.852  69.663 228.134 -0.51 -0.02    +0.123 A  
DOCKED: ATOM     16  F   UNL     1     139.565  68.921 229.249 -0.06 +0.03    -0.207 F  
DOCKED: ENDBRANCH   3   6
DOCKED: ENDBRANCH   1   2
DOCKED: BRANCH   1  17
DOCKED: ATOM     17  C   UNL     1     141.078  75.375 221.183 -0.23 -0.07    +0.242 C  
DOCKED: ATOM     18  O   UNL     1     140.870  75.942 222.337 -0.42 +0.06    -0.273 OA 
DOCKED: BRANCH  17  19
DOCKED: ATOM     19  N   UNL     1     142.112  75.927 220.440 -0.13 +0.17    -0.338 N  
DOCKED: ATOM     20  C   UNL     1     142.062  77.397 220.099 -0.26 -0.08    +0.120 C  
DOCKED: ATOM     21  C   UNL     1     143.317  75.521 219.798 -0.33 -0.05    +0.088 C  
DOCKED: ATOM     22  C   UNL     1     142.687  77.471 218.714 -0.32 -0.02    +0.024 C  
DOCKED: ATOM     23  C   UNL     1     143.012  76.010 218.366 -0.27 -0.01    +0.027 C  
DOCKED: BRANCH  21  24
DOCKED: ATOM     24  C   UNL     1     143.753  74.122 219.842 -0.36 -0.00    +0.016 C  
DOCKED: ATOM     25  C   UNL     1     144.832  73.899 220.842 -0.49 -0.01    +0.034 C  
DOCKED: ATOM     26  C   UNL     1     144.328  73.782 218.457 -0.20 -0.01    +0.034 C  
DOCKED: ATOM     27  C   UNL     1     146.126  73.477 220.151 -0.43 +0.02    +0.160 C  
DOCKED: ATOM     28  C   UNL     1     144.964  72.414 218.489 -0.17 +0.04    +0.160 C  
DOCKED: ATOM     29  O   UNL     1     145.950  72.304 219.442 -0.63 -0.27    -0.381 OA 
DOCKED: ENDBRANCH  21  24
DOCKED: ENDBRANCH  17  19
DOCKED: ENDBRANCH   1  17
DOCKED: TORSDOF 5
DOCKED: TER
DOCKED: ENDMDL
________________________________________________________________________________


    FINAL DOCKED STATE:
    ________________________


Run:   6 / 20
Time taken for this run:   0.039s

DOCKED: MODEL        6
DOCKED: USER    Run = 6
DOCKED: USER
DOCKED: USER    Estimated Free Energy of Binding    =  -8.72 kcal/mol  [=(1)+(2)+(3)-(4)]
DOCKED: USER
DOCKED: USER    (1) Final Intermolecular Energy     = -10.21 kcal/mol
DOCKED: USER        vdW + Hbond + desolv Energy     =  -9.95 kcal/mol
DOCKED: USER        Electrostatic Energy            =  -0.26 kcal/mol
DOCKED: USER        Moving Ligand-Fixed Receptor    = -10.21 kcal/mol
DOCKED: USER        Moving Ligand-Moving Receptor   =  +0.00 kcal/mol
DOCKED: USER    (2) Final Total Internal Energy     =  -1.54 kcal/mol
DOCKED: USER    (3) Torsional Free Energy           =  +1.49 kcal/mol
DOCKED: USER    (4) Unbound System's Energy         =  -1.54 kcal/mol
DOCKED: USER
DOCKED: USER
DOCKED: REMARK SMILES O=C(NCC(=O)N1CCC[C@@H]1C1CCOCC1)c1ccc2cc(F)ccc2n1
DOCKED: REMARK SMILES IDX 4 1 3 2 2 3 1 4 18 6 19 7 28 8 20 9 27 10 21 11 26 12 22 13
DOCKED: REMARK SMILES IDX 25 14 23 15 24 16 5 17 6 18 7 19 8 20 11 21 9 22 10 23 12 24
DOCKED: REMARK SMILES IDX 13 25 17 26 14 27 16 28 15 29
DOCKED: REMARK H PARENT 3 5
DOCKED: USER                              x       y       z     vdW  Elec       q    Type
DOCKED: USER                           _______ _______ _______ _____ _____    ______ ____
DOCKED: ROOT
DOCKED: ATOM      1  C   UNL     1     140.230  74.358 220.970 -0.17 -0.04    +0.216 C  
DOCKED: ENDROOT
DOCKED: BRANCH   1   2
DOCKED: ATOM      2  N   UNL     1     140.022  73.557 222.192 -0.13 +0.03    -0.342 N  
DOCKED: ATOM      3  C   UNL     1     140.471  72.200 222.209 -0.20 -0.03    +0.270 C  
DOCKED: ATOM      4  O   UNL     1     141.037  71.659 221.219 -0.13 +0.03    -0.268 OA 
DOCKED: ATOM      5  H   UNL     1     139.565  73.937 223.039 -0.49 -0.02    +0.164 HD 
DOCKED: BRANCH   3   6
DOCKED: ATOM      6  C   UNL     1     140.261  71.417 223.425 -0.31 -0.02    +0.128 A  
DOCKED: ATOM      7  C   UNL     1     139.609  70.201 223.371 -0.25 -0.01    +0.035 A  
DOCKED: ATOM      8  N   UNL     1     140.677  71.828 224.633 -0.27 +0.03    -0.243 NA 
DOCKED: ATOM      9  C   UNL     1     139.378  69.413 224.475 -0.34 -0.00    +0.013 A  
DOCKED: ATOM     10  C   UNL     1     140.479  71.102 225.745 -0.53 -0.01    +0.071 A  
DOCKED: ATOM     11  C   UNL     1     139.829  69.883 225.696 -0.46 -0.00    +0.003 A  
DOCKED: ATOM     12  C   UNL     1     140.918  71.545 226.976 -0.72 -0.01    +0.032 A  
DOCKED: ATOM     13  C   UNL     1     139.613  69.117 226.829 -0.51 -0.01    +0.049 A  
DOCKED: ATOM     14  C   UNL     1     140.722  70.806 228.142 -0.63 -0.01    +0.041 A  
DOCKED: ATOM     15  C   UNL     1     140.063  69.584 228.062 -0.52 -0.02    +0.123 A  
DOCKED: ATOM     16  F   UNL     1     139.854  68.832 229.187 -0.08 +0.03    -0.207 F  
DOCKED: ENDBRANCH   3   6
DOCKED: ENDBRANCH   1   2
DOCKED: BRANCH   1  17
DOCKED: ATOM     17  C   UNL     1     141.163  75.449 221.217 -0.22 -0.07    +0.242 C  
DOCKED: ATOM     18  O   UNL     1     141.024  76.031 222.373 -0.38 +0.08    -0.273 OA 
DOCKED: BRANCH  17  19
DOCKED: ATOM     19  N   UNL     1     142.173  75.970 220.419 -0.13 +0.18    -0.338 N  
DOCKED: ATOM     20  C   UNL     1     142.123  77.430 220.039 -0.26 -0.08    +0.120 C  
DOCKED: ATOM     21  C   UNL     1     143.349  75.534 219.743 -0.35 -0.05    +0.088 C  
DOCKED: ATOM     22  C   UNL     1     142.694  77.459 218.629 -0.32 -0.02    +0.024 C  
DOCKED: ATOM     23  C   UNL     1     142.993  75.986 218.311 -0.26 -0.01    +0.027 C  
DOCKED: BRANCH  21  24
DOCKED: ATOM     24  C   UNL     1     143.774  74.132 219.811 -0.36 -0.00    +0.016 C  
DOCKED: ATOM     25  C   UNL     1     144.856  73.918 220.808 -0.49 -0.01    +0.034 C  
DOCKED: ATOM     26  C   UNL     1     144.338  73.763 218.429 -0.20 -0.01    +0.034 C  
DOCKED: ATOM     27  C   UNL     1     146.143  73.474 220.118 -0.42 +0.02    +0.160 C  
DOCKED: ATOM     28  C   UNL     1     144.963  72.390 218.482 -0.17 +0.04    +0.160 C  
DOCKED: ATOM     29  O   UNL     1     145.954  72.290 219.431 -0.63 -0.28    -0.381 OA 
DOCKED: ENDBRANCH  21  24
DOCKED: ENDBRANCH  17  19
DOCKED: ENDBRANCH   1  17
DOCKED: TORSDOF 5
DOCKED: TER
DOCKED: ENDMDL
________________________________________________________________________________


    FINAL DOCKED STATE:
    ________________________


Run:   7 / 20
Time taken for this run:   0.039s

DOCKED: MODEL        7
DOCKED: USER    Run = 7
DOCKED: USER
DOCKED: USER    Estimated Free Energy of Binding    =  -8.82 kcal/mol  [=(1)+(2)+(3)-(4)]
DOCKED: USER
DOCKED: USER    (1) Final Intermolecular Energy     = -10.31 kcal/mol
DOCKED: USER        vdW + Hbond + desolv Energy     = -10.01 kcal/mol
DOCKED: USER        Electrostatic Energy            =  -0.30 kcal/mol
DOCKED: USER        Moving Ligand-Fixed Receptor    = -10.31 kcal/mol
DOCKED: USER        Moving Ligand-Moving Receptor   =  +0.00 kcal/mol
DOCKED: USER    (2) Final Total Internal Energy     =  -1.46 kcal/mol
DOCKED: USER    (3) Torsional Free Energy           =  +1.49 kcal/mol
DOCKED: USER    (4) Unbound System's Energy         =  -1.46 kcal/mol
DOCKED: USER
DOCKED: USER
DOCKED: REMARK SMILES O=C(NCC(=O)N1CCC[C@@H]1C1CCOCC1)c1ccc2cc(F)ccc2n1
DOCKED: REMARK SMILES IDX 4 1 3 2 2 3 1 4 18 6 19 7 28 8 20 9 27 10 21 11 26 12 22 13
DOCKED: REMARK SMILES IDX 25 14 23 15 24 16 5 17 6 18 7 19 8 20 11 21 9 22 10 23 12 24
DOCKED: REMARK SMILES IDX 13 25 17 26 14 27 16 28 15 29
DOCKED: REMARK H PARENT 3 5
DOCKED: USER                              x       y       z     vdW  Elec       q    Type
DOCKED: USER                           _______ _______ _______ _____ _____    ______ ____
DOCKED: ROOT
DOCKED: ATOM      1  C   UNL     1     140.163  74.295 220.886 -0.16 -0.04    +0.216 C  
DOCKED: ENDROOT
DOCKED: BRANCH   1   2
DOCKED: ATOM      2  N   UNL     1     139.872  73.498 222.093 -0.15 +0.04    -0.342 N  
DOCKED: ATOM      3  C   UNL     1     140.611  72.293 222.316 -0.20 -0.02    +0.270 C  
DOCKED: ATOM      4  O   UNL     1     141.501  71.885 221.519 -0.17 +0.02    -0.268 OA 
DOCKED: ATOM      5  H   UNL     1     139.156  73.774 222.786 -0.51 -0.06    +0.164 HD 
DOCKED: BRANCH   3   6
DOCKED: ATOM      6  C   UNL     1     140.314  71.512 223.514 -0.33 -0.02    +0.128 A  
DOCKED: ATOM      7  C   UNL     1     139.585  70.343 223.426 -0.28 -0.01    +0.035 A  
DOCKED: ATOM      8  N   UNL     1     140.722  71.880 224.739 -0.26 +0.03    -0.243 NA 
DOCKED: ATOM      9  C   UNL     1     139.270  69.560 224.512 -0.35 -0.00    +0.013 A  
DOCKED: ATOM     10  C   UNL     1     140.445  71.156 225.835 -0.54 -0.01    +0.071 A  
DOCKED: ATOM     11  C   UNL     1     139.716  69.984 225.752 -0.47 -0.00    +0.003 A  
DOCKED: ATOM     12  C   UNL     1     140.877  71.554 227.084 -0.73 -0.01    +0.032 A  
DOCKED: ATOM     13  C   UNL     1     139.417  69.220 226.868 -0.48 -0.01    +0.049 A  
DOCKED: ATOM     14  C   UNL     1     140.599  70.816 228.233 -0.61 -0.01    +0.041 A  
DOCKED: ATOM     15  C   UNL     1     139.863  69.642 228.119 -0.51 -0.02    +0.123 A  
DOCKED: ATOM     16  F   UNL     1     139.572  68.892 229.227 -0.07 +0.03    -0.207 F  
DOCKED: ENDBRANCH   3   6
DOCKED: ENDBRANCH   1   2
DOCKED: BRANCH   1  17
DOCKED: ATOM     17  C   UNL     1     141.114  75.359 221.184 -0.22 -0.07    +0.242 C  
DOCKED: ATOM     18  O   UNL     1     140.988  75.883 222.370 -0.39 +0.06    -0.273 OA 
DOCKED: BRANCH  17  19
DOCKED: ATOM     19  N   UNL     1     142.127  75.906 220.409 -0.13 +0.17    -0.338 N  
DOCKED: ATOM     20  C   UNL     1     142.058  77.369 220.044 -0.26 -0.08    +0.120 C  
DOCKED: ATOM     21  C   UNL     1     143.321  75.499 219.748 -0.35 -0.05    +0.088 C  
DOCKED: ATOM     22  C   UNL     1     142.651  77.424 218.645 -0.32 -0.02    +0.024 C  
DOCKED: ATOM     23  C   UNL     1     142.980  75.961 218.315 -0.26 -0.01    +0.027 C  
DOCKED: BRANCH  21  24
DOCKED: ATOM     24  C   UNL     1     143.769  74.104 219.806 -0.35 -0.00    +0.016 C  
DOCKED: ATOM     25  C   UNL     1     144.834  73.896 220.824 -0.49 -0.01    +0.034 C  
DOCKED: ATOM     26  C   UNL     1     144.369  73.762 218.432 -0.20 -0.01    +0.034 C  
DOCKED: ATOM     27  C   UNL     1     146.143  73.483 220.156 -0.43 +0.02    +0.160 C  
DOCKED: ATOM     28  C   UNL     1     145.017  72.400 218.482 -0.17 +0.05    +0.160 C  
DOCKED: ATOM     29  O   UNL     1     145.989  72.305 219.450 -0.62 -0.29    -0.381 OA 
DOCKED: ENDBRANCH  21  24
DOCKED: ENDBRANCH  17  19
DOCKED: ENDBRANCH   1  17
DOCKED: TORSDOF 5
DOCKED: TER
DOCKED: ENDMDL
________________________________________________________________________________


    FINAL DOCKED STATE:
    ________________________


Run:   8 / 20
Time taken for this run:   0.039s

DOCKED: MODEL        8
DOCKED: USER    Run = 8
DOCKED: USER
DOCKED: USER    Estimated Free Energy of Binding    =  -8.25 kcal/mol  [=(1)+(2)+(3)-(4)]
DOCKED: USER
DOCKED: USER    (1) Final Intermolecular Energy     =  -9.74 kcal/mol
DOCKED: USER        vdW + Hbond + desolv Energy     =  -9.66 kcal/mol
DOCKED: USER        Electrostatic Energy            =  -0.09 kcal/mol
DOCKED: USER        Moving Ligand-Fixed Receptor    =  -9.74 kcal/mol
DOCKED: USER        Moving Ligand-Moving Receptor   =  +0.00 kcal/mol
DOCKED: USER    (2) Final Total Internal Energy     =  -1.78 kcal/mol
DOCKED: USER    (3) Torsional Free Energy           =  +1.49 kcal/mol
DOCKED: USER    (4) Unbound System's Energy         =  -1.78 kcal/mol
DOCKED: USER
DOCKED: USER
DOCKED: REMARK SMILES O=C(NCC(=O)N1CCC[C@@H]1C1CCOCC1)c1ccc2cc(F)ccc2n1
DOCKED: REMARK SMILES IDX 4 1 3 2 2 3 1 4 18 6 19 7 28 8 20 9 27 10 21 11 26 12 22 13
DOCKED: REMARK SMILES IDX 25 14 23 15 24 16 5 17 6 18 7 19 8 20 11 21 9 22 10 23 12 24
DOCKED: REMARK SMILES IDX 13 25 17 26 14 27 16 28 15 29
DOCKED: REMARK H PARENT 3 5
DOCKED: USER                              x       y       z     vdW  Elec       q    Type
DOCKED: USER                           _______ _______ _______ _____ _____    ______ ____
DOCKED: ROOT
DOCKED: ATOM      1  C   UNL     1     139.833  74.249 221.142 -0.17 -0.04    +0.216 C  
DOCKED: ENDROOT
DOCKED: BRANCH   1   2
DOCKED: ATOM      2  N   UNL     1     139.799  73.403 222.350 -0.14 +0.04    -0.342 N  
DOCKED: ATOM      3  C   UNL     1     140.088  72.008 222.222 -0.20 -0.04    +0.270 C  
DOCKED: ATOM      4  O   UNL     1     140.371  71.473 221.114 -0.10 +0.04    -0.268 OA 
DOCKED: ATOM      5  H   UNL     1     139.574  73.776 223.289 -0.49 -0.03    +0.164 HD 
DOCKED: BRANCH   3   6
DOCKED: ATOM      6  C   UNL     1     140.051  71.181 223.425 -0.30 -0.02    +0.128 A  
DOCKED: ATOM      7  C   UNL     1     139.542  69.898 223.378 -0.24 -0.01    +0.035 A  
DOCKED: ATOM      8  N   UNL     1     140.497  71.611 224.616 -0.29 +0.04    -0.243 NA 
DOCKED: ATOM      9  C   UNL     1     139.477  69.065 224.470 -0.32 -0.00    +0.013 A  
DOCKED: ATOM     10  C   UNL     1     140.458  70.844 225.716 -0.52 -0.01    +0.071 A  
DOCKED: ATOM     11  C   UNL     1     139.951  69.557 225.674 -0.46 -0.00    +0.003 A  
DOCKED: ATOM     12  C   UNL     1     140.924  71.308 226.929 -0.69 -0.01    +0.032 A  
DOCKED: ATOM     13  C   UNL     1     139.901  68.747 226.795 -0.55 -0.01    +0.049 A  
DOCKED: ATOM     14  C   UNL     1     140.893  70.526 228.083 -0.60 -0.01    +0.041 A  
DOCKED: ATOM     15  C   UNL     1     140.376  69.238 228.010 -0.53 -0.02    +0.123 A  
DOCKED: ATOM     16  F   UNL     1     140.330  68.442 229.124 -0.15 +0.04    -0.207 F  
DOCKED: ENDBRANCH   3   6
DOCKED: ENDBRANCH   1   2
DOCKED: BRANCH   1  17
DOCKED: ATOM     17  C   UNL     1     139.932  75.659 221.499 -0.22 -0.05    +0.242 C  
DOCKED: ATOM     18  O   UNL     1     139.565  75.938 222.717 -0.41 +0.04    -0.273 OA 
DOCKED: BRANCH  17  19
DOCKED: ATOM     19  N   UNL     1     140.349  76.751 220.751 -0.07 +0.11    -0.338 N  
DOCKED: ATOM     20  C   UNL     1     140.204  76.706 219.249 -0.07 -0.04    +0.120 C  
DOCKED: ATOM     21  C   UNL     1     140.960  78.023 220.945 -0.25 -0.04    +0.088 C  
DOCKED: ATOM     22  C   UNL     1     141.421  77.466 218.743 -0.18 -0.01    +0.024 C  
DOCKED: ATOM     23  C   UNL     1     142.183  77.854 220.019 -0.25 -0.02    +0.027 C  
DOCKED: BRANCH  21  24
DOCKED: ATOM     24  C   UNL     1     141.322  78.481 222.290 -0.45 -0.01    +0.016 C  
DOCKED: ATOM     25  C   UNL     1     140.152  79.013 223.039 -0.41 -0.01    +0.034 C  
DOCKED: ATOM     26  C   UNL     1     142.327  79.633 222.122 -0.46 -0.02    +0.034 C  
DOCKED: ATOM     27  C   UNL     1     140.327  80.503 223.320 -0.35 -0.03    +0.160 C  
DOCKED: ATOM     28  C   UNL     1     142.600  80.273 223.461 -0.55 -0.04    +0.160 C  
DOCKED: ATOM     29  O   UNL     1     141.460  80.736 224.076 -0.24 +0.06    -0.381 OA 
DOCKED: ENDBRANCH  21  24
DOCKED: ENDBRANCH  17  19
DOCKED: ENDBRANCH   1  17
DOCKED: TORSDOF 5
DOCKED: TER
DOCKED: ENDMDL
________________________________________________________________________________


    FINAL DOCKED STATE:
    ________________________


Run:   9 / 20
Time taken for this run:   0.039s

DOCKED: MODEL        9
DOCKED: USER    Run = 9
DOCKED: USER
DOCKED: USER    Estimated Free Energy of Binding    =  -8.72 kcal/mol  [=(1)+(2)+(3)-(4)]
DOCKED: USER
DOCKED: USER    (1) Final Intermolecular Energy     = -10.21 kcal/mol
DOCKED: USER        vdW + Hbond + desolv Energy     =  -9.94 kcal/mol
DOCKED: USER        Electrostatic Energy            =  -0.27 kcal/mol
DOCKED: USER        Moving Ligand-Fixed Receptor    = -10.21 kcal/mol
DOCKED: USER        Moving Ligand-Moving Receptor   =  +0.00 kcal/mol
DOCKED: USER    (2) Final Total Internal Energy     =  -1.56 kcal/mol
DOCKED: USER    (3) Torsional Free Energy           =  +1.49 kcal/mol
DOCKED: USER    (4) Unbound System's Energy         =  -1.56 kcal/mol
DOCKED: USER
DOCKED: USER
DOCKED: REMARK SMILES O=C(NCC(=O)N1CCC[C@@H]1C1CCOCC1)c1ccc2cc(F)ccc2n1
DOCKED: REMARK SMILES IDX 4 1 3 2 2 3 1 4 18 6 19 7 28 8 20 9 27 10 21 11 26 12 22 13
DOCKED: REMARK SMILES IDX 25 14 23 15 24 16 5 17 6 18 7 19 8 20 11 21 9 22 10 23 12 24
DOCKED: REMARK SMILES IDX 13 25 17 26 14 27 16 28 15 29
DOCKED: REMARK H PARENT 3 5
DOCKED: USER                              x       y       z     vdW  Elec       q    Type
DOCKED: USER                           _______ _______ _______ _____ _____    ______ ____
DOCKED: ROOT
DOCKED: ATOM      1  C   UNL     1     140.256  74.084 220.982 -0.17 -0.04    +0.216 C  
DOCKED: ENDROOT
DOCKED: BRANCH   1   2
DOCKED: ATOM      2  N   UNL     1     140.022  73.335 222.231 -0.15 +0.03    -0.342 N  
DOCKED: ATOM      3  C   UNL     1     140.427  71.965 222.298 -0.20 -0.03    +0.270 C  
DOCKED: ATOM      4  O   UNL     1     140.976  71.371 221.329 -0.13 +0.03    -0.268 OA 
DOCKED: ATOM      5  H   UNL     1     139.577  73.760 223.063 -0.49 -0.03    +0.164 HD 
DOCKED: BRANCH   3   6
DOCKED: ATOM      6  C   UNL     1     140.190  71.234 223.540 -0.31 -0.02    +0.128 A  
DOCKED: ATOM      7  C   UNL     1     139.562  70.004 223.521 -0.26 -0.01    +0.035 A  
DOCKED: ATOM      8  N   UNL     1     140.559  71.706 224.741 -0.29 +0.04    -0.243 NA 
DOCKED: ATOM      9  C   UNL     1     139.307  69.262 224.651 -0.36 -0.00    +0.013 A  
DOCKED: ATOM     10  C   UNL     1     140.337  71.026 225.878 -0.53 -0.01    +0.071 A  
DOCKED: ATOM     11  C   UNL     1     139.710  69.794 225.864 -0.47 -0.00    +0.003 A  
DOCKED: ATOM     12  C   UNL     1     140.727  71.532 227.101 -0.72 -0.01    +0.032 A  
DOCKED: ATOM     13  C   UNL     1     139.469  69.075 227.023 -0.50 -0.01    +0.049 A  
DOCKED: ATOM     14  C   UNL     1     140.505  70.842 228.292 -0.60 -0.01    +0.041 A  
DOCKED: ATOM     15  C   UNL     1     139.871  69.605 228.247 -0.51 -0.02    +0.123 A  
DOCKED: ATOM     16  F   UNL     1     139.638  68.900 229.397 -0.00 +0.03    -0.207 F  
DOCKED: ENDBRANCH   3   6
DOCKED: ENDBRANCH   1   2
DOCKED: BRANCH   1  17
DOCKED: ATOM     17  C   UNL     1     141.071  75.266 221.231 -0.23 -0.07    +0.242 C  
DOCKED: ATOM     18  O   UNL     1     140.798  75.890 222.341 -0.43 +0.06    -0.273 OA 
DOCKED: BRANCH  17  19
DOCKED: ATOM     19  N   UNL     1     142.088  75.836 220.477 -0.13 +0.17    -0.338 N  
DOCKED: ATOM     20  C   UNL     1     142.019  77.309 220.154 -0.25 -0.07    +0.120 C  
DOCKED: ATOM     21  C   UNL     1     143.285  75.449 219.810 -0.33 -0.05    +0.088 C  
DOCKED: ATOM     22  C   UNL     1     142.619  77.404 218.759 -0.32 -0.02    +0.024 C  
DOCKED: ATOM     23  C   UNL     1     142.951  75.951 218.389 -0.26 -0.01    +0.027 C  
DOCKED: BRANCH  21  24
DOCKED: ATOM     24  C   UNL     1     143.734  74.053 219.831 -0.35 -0.00    +0.016 C  
DOCKED: ATOM     25  C   UNL     1     144.806  73.820 220.836 -0.50 -0.01    +0.034 C  
DOCKED: ATOM     26  C   UNL     1     144.325  73.746 218.445 -0.20 -0.01    +0.034 C  
DOCKED: ATOM     27  C   UNL     1     146.110  73.425 220.149 -0.44 +0.02    +0.160 C  
DOCKED: ATOM     28  C   UNL     1     144.975  72.384 218.456 -0.17 +0.05    +0.160 C  
DOCKED: ATOM     29  O   UNL     1     145.953  72.265 219.416 -0.63 -0.29    -0.381 OA 
DOCKED: ENDBRANCH  21  24
DOCKED: ENDBRANCH  17  19
DOCKED: ENDBRANCH   1  17
DOCKED: TORSDOF 5
DOCKED: TER
DOCKED: ENDMDL
________________________________________________________________________________


    FINAL DOCKED STATE:
    ________________________


Run:   10 / 20
Time taken for this run:   0.039s

DOCKED: MODEL        10
DOCKED: USER    Run = 10
DOCKED: USER
DOCKED: USER    Estimated Free Energy of Binding    =  -8.51 kcal/mol  [=(1)+(2)+(3)-(4)]
DOCKED: USER
DOCKED: USER    (1) Final Intermolecular Energy     = -10.01 kcal/mol
DOCKED: USER        vdW + Hbond + desolv Energy     =  -9.97 kcal/mol
DOCKED: USER        Electrostatic Energy            =  -0.03 kcal/mol
DOCKED: USER        Moving Ligand-Fixed Receptor    = -10.01 kcal/mol
DOCKED: USER        Moving Ligand-Moving Receptor   =  +0.00 kcal/mol
DOCKED: USER    (2) Final Total Internal Energy     =  -1.18 kcal/mol
DOCKED: USER    (3) Torsional Free Energy           =  +1.49 kcal/mol
DOCKED: USER    (4) Unbound System's Energy         =  -1.18 kcal/mol
DOCKED: USER
DOCKED: USER
DOCKED: REMARK SMILES O=C(NCC(=O)N1CCC[C@@H]1C1CCOCC1)c1ccc2cc(F)ccc2n1
DOCKED: REMARK SMILES IDX 4 1 3 2 2 3 1 4 18 6 19 7 28 8 20 9 27 10 21 11 26 12 22 13
DOCKED: REMARK SMILES IDX 25 14 23 15 24 16 5 17 6 18 7 19 8 20 11 21 9 22 10 23 12 24
DOCKED: REMARK SMILES IDX 13 25 17 26 14 27 16 28 15 29
DOCKED: REMARK H PARENT 3 5
DOCKED: USER                              x       y       z     vdW  Elec       q    Type
DOCKED: USER                           _______ _______ _______ _____ _____    ______ ____
DOCKED: ROOT
DOCKED: ATOM      1  C   UNL     1     139.771  74.337 221.000 -0.16 -0.04    +0.216 C  
DOCKED: ENDROOT
DOCKED: BRANCH   1   2
DOCKED: ATOM      2  N   UNL     1     139.594  73.490 222.196 -0.14 +0.06    -0.342 N  
DOCKED: ATOM      3  C   UNL     1     140.422  72.333 222.347 -0.21 -0.03    +0.270 C  
DOCKED: ATOM      4  O   UNL     1     141.295  72.007 221.497 -0.17 +0.03    -0.268 OA 
DOCKED: ATOM      5  H   UNL     1     138.897  73.699 222.932 -0.53 -0.08    +0.164 HD 
DOCKED: BRANCH   3   6
DOCKED: ATOM      6  C   UNL     1     140.238  71.502 223.535 -0.33 -0.02    +0.128 A  
DOCKED: ATOM      7  C   UNL     1     139.574  70.295 223.450 -0.28 -0.01    +0.035 A  
DOCKED: ATOM      8  N   UNL     1     140.693  71.859 224.747 -0.27 +0.03    -0.243 NA 
DOCKED: ATOM      9  C   UNL     1     139.366  69.464 224.527 -0.35 -0.00    +0.013 A  
DOCKED: ATOM     10  C   UNL     1     140.520  71.089 225.833 -0.54 -0.01    +0.071 A  
DOCKED: ATOM     11  C   UNL     1     139.856  69.879 225.753 -0.47 -0.00    +0.003 A  
DOCKED: ATOM     12  C   UNL     1     140.997  71.477 227.068 -0.72 -0.01    +0.032 A  
DOCKED: ATOM     13  C   UNL     1     139.665  69.068 226.859 -0.52 -0.01    +0.049 A  
DOCKED: ATOM     14  C   UNL     1     140.828  70.692 228.207 -0.59 -0.01    +0.041 A  
DOCKED: ATOM     15  C   UNL     1     140.155  69.480 228.096 -0.52 -0.02    +0.123 A  
DOCKED: ATOM     16  F   UNL     1     139.971  68.683 229.195 -0.10 +0.03    -0.207 F  
DOCKED: ENDBRANCH   3   6
DOCKED: ENDBRANCH   1   2
DOCKED: BRANCH   1  17
DOCKED: ATOM     17  C   UNL     1     140.203  75.678 221.374 -0.22 -0.06    +0.242 C  
DOCKED: ATOM     18  O   UNL     1     141.344  76.043 220.863 -0.19 +0.11    -0.273 OA 
DOCKED: BRANCH  17  19
DOCKED: ATOM     19  N   UNL     1     139.598  76.626 222.188 -0.18 +0.07    -0.338 N  
DOCKED: ATOM     20  C   UNL     1     138.181  76.393 222.652 -0.25 -0.03    +0.120 C  
DOCKED: ATOM     21  C   UNL     1     139.889  77.893 222.770 -0.26 -0.02    +0.088 C  
DOCKED: ATOM     22  C   UNL     1     137.575  77.788 222.685 -0.22 -0.00    +0.024 C  
DOCKED: ATOM     23  C   UNL     1     138.707  78.705 222.198 -0.23 -0.01    +0.027 C  
DOCKED: BRANCH  21  24
DOCKED: ATOM     24  C   UNL     1     141.187  78.538 222.545 -0.48 -0.01    +0.016 C  
DOCKED: ATOM     25  C   UNL     1     141.814  79.000 223.813 -0.60 -0.01    +0.034 C  
DOCKED: ATOM     26  C   UNL     1     140.930  79.781 221.676 -0.33 -0.01    +0.034 C  
DOCKED: ATOM     27  C   UNL     1     141.926  80.522 223.833 -0.48 -0.03    +0.160 C  
DOCKED: ATOM     28  C   UNL     1     142.197  80.594 221.561 -0.33 -0.06    +0.160 C  
DOCKED: ATOM     29  O   UNL     1     142.700  80.977 222.783 -0.29 +0.09    -0.381 OA 
DOCKED: ENDBRANCH  21  24
DOCKED: ENDBRANCH  17  19
DOCKED: ENDBRANCH   1  17
DOCKED: TORSDOF 5
DOCKED: TER
DOCKED: ENDMDL
________________________________________________________________________________


    FINAL DOCKED STATE:
    ________________________


Run:   11 / 20
Time taken for this run:   0.039s

DOCKED: MODEL        11
DOCKED: USER    Run = 11
DOCKED: USER
DOCKED: USER    Estimated Free Energy of Binding    =  -8.64 kcal/mol  [=(1)+(2)+(3)-(4)]
DOCKED: USER
DOCKED: USER    (1) Final Intermolecular Energy     = -10.13 kcal/mol
DOCKED: USER        vdW + Hbond + desolv Energy     = -10.09 kcal/mol
DOCKED: USER        Electrostatic Energy            =  -0.04 kcal/mol
DOCKED: USER        Moving Ligand-Fixed Receptor    = -10.13 kcal/mol
DOCKED: USER        Moving Ligand-Moving Receptor   =  +0.00 kcal/mol
DOCKED: USER    (2) Final Total Internal Energy     =  -1.16 kcal/mol
DOCKED: USER    (3) Torsional Free Energy           =  +1.49 kcal/mol
DOCKED: USER    (4) Unbound System's Energy         =  -1.16 kcal/mol
DOCKED: USER
DOCKED: USER
DOCKED: REMARK SMILES O=C(NCC(=O)N1CCC[C@@H]1C1CCOCC1)c1ccc2cc(F)ccc2n1
DOCKED: REMARK SMILES IDX 4 1 3 2 2 3 1 4 18 6 19 7 28 8 20 9 27 10 21 11 26 12 22 13
DOCKED: REMARK SMILES IDX 25 14 23 15 24 16 5 17 6 18 7 19 8 20 11 21 9 22 10 23 12 24
DOCKED: REMARK SMILES IDX 13 25 17 26 14 27 16 28 15 29
DOCKED: REMARK H PARENT 3 5
DOCKED: USER                              x       y       z     vdW  Elec       q    Type
DOCKED: USER                           _______ _______ _______ _____ _____    ______ ____
DOCKED: ROOT
DOCKED: ATOM      1  C   UNL     1     139.387  74.370 221.209 -0.16 -0.04    +0.216 C  
DOCKED: ENDROOT
DOCKED: BRANCH   1   2
DOCKED: ATOM      2  N   UNL     1     139.283  73.429 222.340 -0.10 +0.08    -0.342 N  
DOCKED: ATOM      3  C   UNL     1     140.366  72.529 222.588 -0.18 -0.02    +0.270 C  
DOCKED: ATOM      4  O   UNL     1     141.408  72.508 221.875 -0.23 +0.01    -0.268 OA 
DOCKED: ATOM      5  H   UNL     1     138.458  73.392 222.964 -0.52 -0.10    +0.164 HD 
DOCKED: BRANCH   3   6
DOCKED: ATOM      6  C   UNL     1     140.252  71.602 223.711 -0.34 -0.02    +0.128 A  
DOCKED: ATOM      7  C   UNL     1     139.653  70.369 223.544 -0.28 -0.01    +0.035 A  
DOCKED: ATOM      8  N   UNL     1     140.710  71.890 224.939 -0.28 +0.03    -0.243 NA 
DOCKED: ATOM      9  C   UNL     1     139.512  69.448 224.556 -0.35 -0.00    +0.013 A  
DOCKED: ATOM     10  C   UNL     1     140.601  71.032 225.965 -0.55 -0.01    +0.071 A  
DOCKED: ATOM     11  C   UNL     1     140.003  69.795 225.803 -0.48 -0.00    +0.003 A  
DOCKED: ATOM     12  C   UNL     1     141.081  71.351 227.219 -0.71 -0.01    +0.032 A  
DOCKED: ATOM     13  C   UNL     1     139.879  68.893 226.846 -0.54 -0.01    +0.049 A  
DOCKED: ATOM     14  C   UNL     1     140.977  70.473 228.297 -0.54 -0.01    +0.041 A  
DOCKED: ATOM     15  C   UNL     1     140.370  69.237 228.104 -0.53 -0.02    +0.123 A  
DOCKED: ATOM     16  F   UNL     1     140.251  68.350 229.141 -0.14 +0.04    -0.207 F  
DOCKED: ENDBRANCH   3   6
DOCKED: ENDBRANCH   1   2
DOCKED: BRANCH   1  17
DOCKED: ATOM     17  C   UNL     1     139.971  75.634 221.638 -0.23 -0.05    +0.242 C  
DOCKED: ATOM     18  O   UNL     1     141.236  75.770 221.360 -0.26 +0.10    -0.273 OA 
DOCKED: BRANCH  17  19
DOCKED: ATOM     19  N   UNL     1     139.400  76.714 222.298 -0.18 +0.07    -0.338 N  
DOCKED: ATOM     20  C   UNL     1     137.954  76.628 222.723 -0.25 -0.02    +0.120 C  
DOCKED: ATOM     21  C   UNL     1     139.751  78.025 222.728 -0.30 -0.02    +0.088 C  
DOCKED: ATOM     22  C   UNL     1     137.440  78.050 222.553 -0.21 -0.00    +0.024 C  
DOCKED: ATOM     23  C   UNL     1     138.647  78.827 222.006 -0.21 -0.01    +0.027 C  
DOCKED: BRANCH  21  24
DOCKED: ATOM     24  C   UNL     1     141.096  78.557 222.483 -0.47 -0.01    +0.016 C  
DOCKED: ATOM     25  C   UNL     1     141.820  78.862 223.746 -0.59 -0.01    +0.034 C  
DOCKED: ATOM     26  C   UNL     1     140.927  79.879 221.716 -0.34 -0.01    +0.034 C  
DOCKED: ATOM     27  C   UNL     1     142.085  80.361 223.866 -0.49 -0.03    +0.160 C  
DOCKED: ATOM     28  C   UNL     1     142.262  80.573 221.593 -0.30 -0.06    +0.160 C  
DOCKED: ATOM     29  O   UNL     1     142.853  80.815 222.811 -0.32 +0.10    -0.381 OA 
DOCKED: ENDBRANCH  21  24
DOCKED: ENDBRANCH  17  19
DOCKED: ENDBRANCH   1  17
DOCKED: TORSDOF 5
DOCKED: TER
DOCKED: ENDMDL
________________________________________________________________________________


    FINAL DOCKED STATE:
    ________________________


Run:   12 / 20
Time taken for this run:   0.039s

DOCKED: MODEL        12
DOCKED: USER    Run = 12
DOCKED: USER
DOCKED: USER    Estimated Free Energy of Binding    =  -8.72 kcal/mol  [=(1)+(2)+(3)-(4)]
DOCKED: USER
DOCKED: USER    (1) Final Intermolecular Energy     = -10.21 kcal/mol
DOCKED: USER        vdW + Hbond + desolv Energy     =  -9.92 kcal/mol
DOCKED: USER        Electrostatic Energy            =  -0.28 kcal/mol
DOCKED: USER        Moving Ligand-Fixed Receptor    = -10.21 kcal/mol
DOCKED: USER        Moving Ligand-Moving Receptor   =  +0.00 kcal/mol
DOCKED: USER    (2) Final Total Internal Energy     =  -1.55 kcal/mol
DOCKED: USER    (3) Torsional Free Energy           =  +1.49 kcal/mol
DOCKED: USER    (4) Unbound System's Energy         =  -1.55 kcal/mol
DOCKED: USER
DOCKED: USER
DOCKED: REMARK SMILES O=C(NCC(=O)N1CCC[C@@H]1C1CCOCC1)c1ccc2cc(F)ccc2n1
DOCKED: REMARK SMILES IDX 4 1 3 2 2 3 1 4 18 6 19 7 28 8 20 9 27 10 21 11 26 12 22 13
DOCKED: REMARK SMILES IDX 25 14 23 15 24 16 5 17 6 18 7 19 8 20 11 21 9 22 10 23 12 24
DOCKED: REMARK SMILES IDX 13 25 17 26 14 27 16 28 15 29
DOCKED: REMARK H PARENT 3 5
DOCKED: USER                              x       y       z     vdW  Elec       q    Type
DOCKED: USER                           _______ _______ _______ _____ _____    ______ ____
DOCKED: ROOT
DOCKED: ATOM      1  C   UNL     1     140.265  74.094 220.974 -0.17 -0.04    +0.216 C  
DOCKED: ENDROOT
DOCKED: BRANCH   1   2
DOCKED: ATOM      2  N   UNL     1     140.014  73.348 222.222 -0.15 +0.03    -0.342 N  
DOCKED: ATOM      3  C   UNL     1     140.456  71.991 222.314 -0.20 -0.03    +0.270 C  
DOCKED: ATOM      4  O   UNL     1     141.051  71.406 221.367 -0.13 +0.03    -0.268 OA 
DOCKED: ATOM      5  H   UNL     1     139.531  73.767 223.037 -0.49 -0.03    +0.164 HD 
DOCKED: BRANCH   3   6
DOCKED: ATOM      6  C   UNL     1     140.202  71.263 223.555 -0.31 -0.02    +0.128 A  
DOCKED: ATOM      7  C   UNL     1     139.550  70.046 223.533 -0.27 -0.01    +0.035 A  
DOCKED: ATOM      8  N   UNL     1     140.578  71.727 224.757 -0.29 +0.03    -0.243 NA 
DOCKED: ATOM      9  C   UNL     1     139.279  69.309 224.661 -0.36 -0.00    +0.013 A  
DOCKED: ATOM     10  C   UNL     1     140.340  71.051 225.892 -0.53 -0.01    +0.071 A  
DOCKED: ATOM     11  C   UNL     1     139.689  69.831 225.876 -0.47 -0.00    +0.003 A  
DOCKED: ATOM     12  C   UNL     1     140.738  71.547 227.117 -0.73 -0.01    +0.032 A  
DOCKED: ATOM     13  C   UNL     1     139.432  69.116 227.033 -0.49 -0.01    +0.049 A  
DOCKED: ATOM     14  C   UNL     1     140.500  70.860 228.307 -0.60 -0.01    +0.041 A  
DOCKED: ATOM     15  C   UNL     1     139.842  69.637 228.259 -0.51 -0.02    +0.123 A  
DOCKED: ATOM     16  F   UNL     1     139.593  68.935 229.408 +0.00 +0.03    -0.207 F  
DOCKED: ENDBRANCH   3   6
DOCKED: ENDBRANCH   1   2
DOCKED: BRANCH   1  17
DOCKED: ATOM     17  C   UNL     1     141.088  75.269 221.229 -0.23 -0.07    +0.242 C  
DOCKED: ATOM     18  O   UNL     1     140.832  75.879 222.350 -0.43 +0.06    -0.273 OA 
DOCKED: BRANCH  17  19
DOCKED: ATOM     19  N   UNL     1     142.097  75.845 220.469 -0.13 +0.17    -0.338 N  
DOCKED: ATOM     20  C   UNL     1     142.023  77.319 220.154 -0.25 -0.08    +0.120 C  
DOCKED: ATOM     21  C   UNL     1     143.289  75.463 219.790 -0.33 -0.05    +0.088 C  
DOCKED: ATOM     22  C   UNL     1     142.611  77.423 218.755 -0.32 -0.02    +0.024 C  
DOCKED: ATOM     23  C   UNL     1     142.942  75.972 218.374 -0.26 -0.01    +0.027 C  
DOCKED: BRANCH  21  24
DOCKED: ATOM     24  C   UNL     1     143.741  74.068 219.799 -0.35 -0.00    +0.016 C  
DOCKED: ATOM     25  C   UNL     1     144.778  73.817 220.836 -0.50 -0.01    +0.034 C  
DOCKED: ATOM     26  C   UNL     1     144.380  73.789 218.429 -0.20 -0.01    +0.034 C  
DOCKED: ATOM     27  C   UNL     1     146.106  73.438 220.188 -0.45 +0.02    +0.160 C  
DOCKED: ATOM     28  C   UNL     1     145.032  72.427 218.436 -0.17 +0.05    +0.160 C  
DOCKED: ATOM     29  O   UNL     1     145.977  72.291 219.427 -0.63 -0.29    -0.381 OA 
DOCKED: ENDBRANCH  21  24
DOCKED: ENDBRANCH  17  19
DOCKED: ENDBRANCH   1  17
DOCKED: TORSDOF 5
DOCKED: TER
DOCKED: ENDMDL
________________________________________________________________________________


    FINAL DOCKED STATE:
    ________________________


Run:   13 / 20
Time taken for this run:   0.039s

DOCKED: MODEL        13
DOCKED: USER    Run = 13
DOCKED: USER
DOCKED: USER    Estimated Free Energy of Binding    =  -8.26 kcal/mol  [=(1)+(2)+(3)-(4)]
DOCKED: USER
DOCKED: USER    (1) Final Intermolecular Energy     =  -9.75 kcal/mol
DOCKED: USER        vdW + Hbond + desolv Energy     =  -9.36 kcal/mol
DOCKED: USER        Electrostatic Energy            =  -0.39 kcal/mol
DOCKED: USER        Moving Ligand-Fixed Receptor    =  -9.75 kcal/mol
DOCKED: USER        Moving Ligand-Moving Receptor   =  +0.00 kcal/mol
DOCKED: USER    (2) Final Total Internal Energy     =  -1.47 kcal/mol
DOCKED: USER    (3) Torsional Free Energy           =  +1.49 kcal/mol
DOCKED: USER    (4) Unbound System's Energy         =  -1.47 kcal/mol
DOCKED: USER
DOCKED: USER
DOCKED: REMARK SMILES O=C(NCC(=O)N1CCC[C@@H]1C1CCOCC1)c1ccc2cc(F)ccc2n1
DOCKED: REMARK SMILES IDX 4 1 3 2 2 3 1 4 18 6 19 7 28 8 20 9 27 10 21 11 26 12 22 13
DOCKED: REMARK SMILES IDX 25 14 23 15 24 16 5 17 6 18 7 19 8 20 11 21 9 22 10 23 12 24
DOCKED: REMARK SMILES IDX 13 25 17 26 14 27 16 28 15 29
DOCKED: REMARK H PARENT 3 5
DOCKED: USER                              x       y       z     vdW  Elec       q    Type
DOCKED: USER                           _______ _______ _______ _____ _____    ______ ____
DOCKED: ROOT
DOCKED: ATOM      1  C   UNL     1     139.358  74.037 221.123 -0.15 -0.04    +0.216 C  
DOCKED: ENDROOT
DOCKED: BRANCH   1   2
DOCKED: ATOM      2  N   UNL     1     139.504  73.226 222.347 -0.14 +0.07    -0.342 N  
DOCKED: ATOM      3  C   UNL     1     139.527  71.801 222.229 -0.17 -0.05    +0.270 C  
DOCKED: ATOM      4  O   UNL     1     139.426  71.210 221.119 -0.06 +0.05    -0.268 OA 
DOCKED: ATOM      5  H   UNL     1     139.591  73.645 223.289 -0.47 -0.03    +0.164 HD 
DOCKED: BRANCH   3   6
DOCKED: ATOM      6  C   UNL     1     139.672  71.008 223.448 -0.29 -0.02    +0.128 A  
DOCKED: ATOM      7  C   UNL     1     139.245  69.696 223.485 -0.25 -0.01    +0.035 A  
DOCKED: ATOM      8  N   UNL     1     140.213  71.501 224.573 -0.30 +0.04    -0.243 NA 
DOCKED: ATOM      9  C   UNL     1     139.351  68.893 224.597 -0.35 -0.00    +0.013 A  
DOCKED: ATOM     10  C   UNL     1     140.343  70.765 225.688 -0.51 -0.01    +0.071 A  
DOCKED: ATOM     11  C   UNL     1     139.918  69.449 225.731 -0.47 -0.00    +0.003 A  
DOCKED: ATOM     12  C   UNL     1     140.904  71.293 226.833 -0.68 -0.01    +0.032 A  
DOCKED: ATOM     13  C   UNL     1     140.041  68.671 226.869 -0.57 -0.01    +0.049 A  
DOCKED: ATOM     14  C   UNL     1     141.047  70.545 228.001 -0.61 -0.01    +0.041 A  
DOCKED: ATOM     15  C   UNL     1     140.610  69.226 228.013 -0.53 -0.02    +0.123 A  
DOCKED: ATOM     16  F   UNL     1     140.735  68.462 229.143 -0.13 +0.05    -0.207 F  
DOCKED: ENDBRANCH   3   6
DOCKED: ENDBRANCH   1   2
DOCKED: BRANCH   1  17
DOCKED: ATOM     17  C   UNL     1     140.614  74.093 220.386 -0.11 -0.05    +0.242 C  
DOCKED: ATOM     18  O   UNL     1     140.740  73.189 219.457 -0.03 +0.05    -0.273 OA 
DOCKED: BRANCH  17  19
DOCKED: ATOM     19  N   UNL     1     141.698  74.950 220.517 -0.12 +0.11    -0.338 N  
DOCKED: ATOM     20  C   UNL     1     141.444  76.415 220.780 -0.24 -0.06    +0.120 C  
DOCKED: ATOM     21  C   UNL     1     143.120  74.911 220.449 -0.26 -0.04    +0.088 C  
DOCKED: ATOM     22  C   UNL     1     142.561  77.120 220.024 -0.26 -0.02    +0.024 C  
DOCKED: ATOM     23  C   UNL     1     143.346  75.980 219.358 -0.38 -0.02    +0.027 C  
DOCKED: BRANCH  21  24
DOCKED: ATOM     24  C   UNL     1     143.821  73.653 220.168 -0.37 -0.00    +0.016 C  
DOCKED: ATOM     25  C   UNL     1     144.980  73.439 221.075 -0.47 -0.01    +0.034 C  
DOCKED: ATOM     26  C   UNL     1     144.366  73.748 218.734 -0.23 -0.01    +0.034 C  
DOCKED: ATOM     27  C   UNL     1     146.287  73.449 220.288 -0.45 +0.03    +0.160 C  
DOCKED: ATOM     28  C   UNL     1     145.256  72.564 218.446 -0.17 +0.06    +0.160 C  
DOCKED: ATOM     29  O   UNL     1     146.300  72.449 219.334 -0.60 -0.43    -0.381 OA 
DOCKED: ENDBRANCH  21  24
DOCKED: ENDBRANCH  17  19
DOCKED: ENDBRANCH   1  17
DOCKED: TORSDOF 5
DOCKED: TER
DOCKED: ENDMDL
________________________________________________________________________________


    FINAL DOCKED STATE:
    ________________________


Run:   14 / 20
Time taken for this run:   0.039s

DOCKED: MODEL        14
DOCKED: USER    Run = 14
DOCKED: USER
DOCKED: USER    Estimated Free Energy of Binding    =  -8.18 kcal/mol  [=(1)+(2)+(3)-(4)]
DOCKED: USER
DOCKED: USER    (1) Final Intermolecular Energy     =  -9.67 kcal/mol
DOCKED: USER        vdW + Hbond + desolv Energy     =  -9.55 kcal/mol
DOCKED: USER        Electrostatic Energy            =  -0.12 kcal/mol
DOCKED: USER        Moving Ligand-Fixed Receptor    =  -9.67 kcal/mol
DOCKED: USER        Moving Ligand-Moving Receptor   =  +0.00 kcal/mol
DOCKED: USER    (2) Final Total Internal Energy     =  -1.49 kcal/mol
DOCKED: USER    (3) Torsional Free Energy           =  +1.49 kcal/mol
DOCKED: USER    (4) Unbound System's Energy         =  -1.49 kcal/mol
DOCKED: USER
DOCKED: USER
DOCKED: REMARK SMILES O=C(NCC(=O)N1CCC[C@@H]1C1CCOCC1)c1ccc2cc(F)ccc2n1
DOCKED: REMARK SMILES IDX 4 1 3 2 2 3 1 4 18 6 19 7 28 8 20 9 27 10 21 11 26 12 22 13
DOCKED: REMARK SMILES IDX 25 14 23 15 24 16 5 17 6 18 7 19 8 20 11 21 9 22 10 23 12 24
DOCKED: REMARK SMILES IDX 13 25 17 26 14 27 16 28 15 29
DOCKED: REMARK H PARENT 3 5
DOCKED: USER                              x       y       z     vdW  Elec       q    Type
DOCKED: USER                           _______ _______ _______ _____ _____    ______ ____
DOCKED: ROOT
DOCKED: ATOM      1  C   UNL     1     139.018  72.525 222.111 -0.15 -0.05    +0.216 C  
DOCKED: ENDROOT
DOCKED: BRANCH   1   2
DOCKED: ATOM      2  N   UNL     1     139.458  73.931 222.190 -0.12 +0.06    -0.342 N  
DOCKED: ATOM      3  C   UNL     1     140.450  74.394 221.270 -0.19 -0.05    +0.270 C  
DOCKED: ATOM      4  O   UNL     1     140.965  73.646 220.394 -0.10 +0.05    -0.268 OA 
DOCKED: ATOM      5  H   UNL     1     139.078  74.599 222.884 -0.51 -0.05    +0.164 HD 
DOCKED: BRANCH   3   6
DOCKED: ATOM      6  C   UNL     1     140.878  75.788 221.358 -0.28 -0.04    +0.128 A  
DOCKED: ATOM      7  C   UNL     1     141.708  76.329 220.396 -0.27 -0.02    +0.035 A  
DOCKED: ATOM      8  N   UNL     1     140.498  76.602 222.356 -0.29 +0.07    -0.243 NA 
DOCKED: ATOM      9  C   UNL     1     142.148  77.632 220.416 -0.28 -0.01    +0.013 A  
DOCKED: ATOM     10  C   UNL     1     140.896  77.882 222.428 -0.41 -0.03    +0.071 A  
DOCKED: ATOM     11  C   UNL     1     141.726  78.429 221.467 -0.37 -0.00    +0.003 A  
DOCKED: ATOM     12  C   UNL     1     140.492  78.700 223.464 -0.38 -0.01    +0.032 A  
DOCKED: ATOM     13  C   UNL     1     142.150  79.746 221.520 -0.38 -0.02    +0.049 A  
DOCKED: ATOM     14  C   UNL     1     140.894  80.031 223.556 -0.48 -0.01    +0.041 A  
DOCKED: ATOM     15  C   UNL     1     141.730  80.552 222.575 -0.44 -0.03    +0.123 A  
DOCKED: ATOM     16  F   UNL     1     142.144  81.857 222.634 -0.10 +0.03    -0.207 F  
DOCKED: ENDBRANCH   3   6
DOCKED: ENDBRANCH   1   2
DOCKED: BRANCH   1  17
DOCKED: ATOM     17  C   UNL     1     139.820  71.681 222.987 -0.23 -0.04    +0.242 C  
DOCKED: ATOM     18  O   UNL     1     140.999  72.156 223.269 -0.23 +0.00    -0.273 OA 
DOCKED: BRANCH  17  19
DOCKED: ATOM     19  N   UNL     1     139.532  70.452 223.566 -0.13 +0.06    -0.338 N  
DOCKED: ATOM     20  C   UNL     1     138.497  69.565 222.919 -0.18 -0.02    +0.120 C  
DOCKED: ATOM     21  C   UNL     1     139.907  69.680 224.703 -0.31 -0.02    +0.088 C  
DOCKED: ATOM     22  C   UNL     1     137.817  68.881 224.096 -0.27 -0.00    +0.024 C  
DOCKED: ATOM     23  C   UNL     1     138.512  69.473 225.332 -0.37 -0.00    +0.027 C  
DOCKED: BRANCH  21  24
DOCKED: ATOM     24  C   UNL     1     140.894  70.190 225.661 -0.53 -0.00    +0.016 C  
DOCKED: ATOM     25  C   UNL     1     141.070  69.282 226.826 -0.55 -0.01    +0.034 C  
DOCKED: ATOM     26  C   UNL     1     140.359  71.529 226.194 -0.53 -0.01    +0.034 C  
DOCKED: ATOM     27  C   UNL     1     140.609  69.962 228.112 -0.47 -0.03    +0.160 C  
DOCKED: ATOM     28  C   UNL     1     141.236  72.017 227.322 -0.63 -0.03    +0.160 C  
DOCKED: ATOM     29  O   UNL     1     141.336  71.112 228.352 -0.37 +0.07    -0.381 OA 
DOCKED: ENDBRANCH  21  24
DOCKED: ENDBRANCH  17  19
DOCKED: ENDBRANCH   1  17
DOCKED: TORSDOF 5
DOCKED: TER
DOCKED: ENDMDL
________________________________________________________________________________


    FINAL DOCKED STATE:
    ________________________


Run:   15 / 20
Time taken for this run:   0.039s

DOCKED: MODEL        15
DOCKED: USER    Run = 15
DOCKED: USER
DOCKED: USER    Estimated Free Energy of Binding    =  -8.82 kcal/mol  [=(1)+(2)+(3)-(4)]
DOCKED: USER
DOCKED: USER    (1) Final Intermolecular Energy     = -10.31 kcal/mol
DOCKED: USER        vdW + Hbond + desolv Energy     = -10.02 kcal/mol
DOCKED: USER        Electrostatic Energy            =  -0.29 kcal/mol
DOCKED: USER        Moving Ligand-Fixed Receptor    = -10.31 kcal/mol
DOCKED: USER        Moving Ligand-Moving Receptor   =  +0.00 kcal/mol
DOCKED: USER    (2) Final Total Internal Energy     =  -1.47 kcal/mol
DOCKED: USER    (3) Torsional Free Energy           =  +1.49 kcal/mol
DOCKED: USER    (4) Unbound System's Energy         =  -1.47 kcal/mol
DOCKED: USER
DOCKED: USER
DOCKED: REMARK SMILES O=C(NCC(=O)N1CCC[C@@H]1C1CCOCC1)c1ccc2cc(F)ccc2n1
DOCKED: REMARK SMILES IDX 4 1 3 2 2 3 1 4 18 6 19 7 28 8 20 9 27 10 21 11 26 12 22 13
DOCKED: REMARK SMILES IDX 25 14 23 15 24 16 5 17 6 18 7 19 8 20 11 21 9 22 10 23 12 24
DOCKED: REMARK SMILES IDX 13 25 17 26 14 27 16 28 15 29
DOCKED: REMARK H PARENT 3 5
DOCKED: USER                              x       y       z     vdW  Elec       q    Type
DOCKED: USER                           _______ _______ _______ _____ _____    ______ ____
DOCKED: ROOT
DOCKED: ATOM      1  C   UNL     1     140.166  74.339 220.881 -0.16 -0.04    +0.216 C  
DOCKED: ENDROOT
DOCKED: BRANCH   1   2
DOCKED: ATOM      2  N   UNL     1     139.888  73.537 222.088 -0.15 +0.04    -0.342 N  
DOCKED: ATOM      3  C   UNL     1     140.599  72.310 222.277 -0.20 -0.02    +0.270 C  
DOCKED: ATOM      4  O   UNL     1     141.453  71.887 221.450 -0.17 +0.03    -0.268 OA 
DOCKED: ATOM      5  H   UNL     1     139.200  73.825 222.805 -0.51 -0.05    +0.164 HD 
DOCKED: BRANCH   3   6
DOCKED: ATOM      6  C   UNL     1     140.315  71.525 223.476 -0.32 -0.02    +0.128 A  
DOCKED: ATOM      7  C   UNL     1     139.595  70.350 223.390 -0.27 -0.01    +0.035 A  
DOCKED: ATOM      8  N   UNL     1     140.727  71.894 224.699 -0.25 +0.03    -0.243 NA 
DOCKED: ATOM      9  C   UNL     1     139.293  69.562 224.476 -0.34 -0.00    +0.013 A  
DOCKED: ATOM     10  C   UNL     1     140.462  71.166 225.795 -0.53 -0.01    +0.071 A  
DOCKED: ATOM     11  C   UNL     1     139.743  69.987 225.714 -0.46 -0.00    +0.003 A  
DOCKED: ATOM     12  C   UNL     1     140.898  71.565 227.042 -0.73 -0.01    +0.032 A  
DOCKED: ATOM     13  C   UNL     1     139.457  69.219 226.830 -0.49 -0.01    +0.049 A  
DOCKED: ATOM     14  C   UNL     1     140.633  70.823 228.192 -0.62 -0.01    +0.041 A  
DOCKED: ATOM     15  C   UNL     1     139.906  69.643 228.079 -0.52 -0.02    +0.123 A  
DOCKED: ATOM     16  F   UNL     1     139.627  68.888 229.188 -0.09 +0.03    -0.207 F  
DOCKED: ENDBRANCH   3   6
DOCKED: ENDBRANCH   1   2
DOCKED: BRANCH   1  17
DOCKED: ATOM     17  C   UNL     1     141.118  75.403 221.174 -0.22 -0.07    +0.242 C  
DOCKED: ATOM     18  O   UNL     1     140.984  75.943 222.351 -0.40 +0.07    -0.273 OA 
DOCKED: BRANCH  17  19
DOCKED: ATOM     19  N   UNL     1     142.140  75.937 220.400 -0.13 +0.18    -0.338 N  
DOCKED: ATOM     20  C   UNL     1     142.087  77.399 220.029 -0.26 -0.08    +0.120 C  
DOCKED: ATOM     21  C   UNL     1     143.332  75.515 219.746 -0.35 -0.05    +0.088 C  
DOCKED: ATOM     22  C   UNL     1     142.687  77.442 218.631 -0.32 -0.02    +0.024 C  
DOCKED: ATOM     23  C   UNL     1     143.002  75.973 218.310 -0.26 -0.01    +0.027 C  
DOCKED: BRANCH  21  24
DOCKED: ATOM     24  C   UNL     1     143.766  74.115 219.813 -0.36 -0.00    +0.016 C  
DOCKED: ATOM     25  C   UNL     1     144.842  73.905 220.819 -0.49 -0.01    +0.034 C  
DOCKED: ATOM     26  C   UNL     1     144.343  73.754 218.435 -0.20 -0.01    +0.034 C  
DOCKED: ATOM     27  C   UNL     1     146.137  73.472 220.138 -0.43 +0.02    +0.160 C  
DOCKED: ATOM     28  C   UNL     1     144.978  72.385 218.489 -0.17 +0.05    +0.160 C  
DOCKED: ATOM     29  O   UNL     1     145.961  72.288 219.446 -0.63 -0.28    -0.381 OA 
DOCKED: ENDBRANCH  21  24
DOCKED: ENDBRANCH  17  19
DOCKED: ENDBRANCH   1  17
DOCKED: TORSDOF 5
DOCKED: TER
DOCKED: ENDMDL
________________________________________________________________________________


    FINAL DOCKED STATE:
    ________________________


Run:   16 / 20
Time taken for this run:   0.039s

DOCKED: MODEL        16
DOCKED: USER    Run = 16
DOCKED: USER
DOCKED: USER    Estimated Free Energy of Binding    =  -8.82 kcal/mol  [=(1)+(2)+(3)-(4)]
DOCKED: USER
DOCKED: USER    (1) Final Intermolecular Energy     = -10.31 kcal/mol
DOCKED: USER        vdW + Hbond + desolv Energy     = -10.02 kcal/mol
DOCKED: USER        Electrostatic Energy            =  -0.29 kcal/mol
DOCKED: USER        Moving Ligand-Fixed Receptor    = -10.31 kcal/mol
DOCKED: USER        Moving Ligand-Moving Receptor   =  +0.00 kcal/mol
DOCKED: USER    (2) Final Total Internal Energy     =  -1.48 kcal/mol
DOCKED: USER    (3) Torsional Free Energy           =  +1.49 kcal/mol
DOCKED: USER    (4) Unbound System's Energy         =  -1.48 kcal/mol
DOCKED: USER
DOCKED: USER
DOCKED: REMARK SMILES O=C(NCC(=O)N1CCC[C@@H]1C1CCOCC1)c1ccc2cc(F)ccc2n1
DOCKED: REMARK SMILES IDX 4 1 3 2 2 3 1 4 18 6 19 7 28 8 20 9 27 10 21 11 26 12 22 13
DOCKED: REMARK SMILES IDX 25 14 23 15 24 16 5 17 6 18 7 19 8 20 11 21 9 22 10 23 12 24
DOCKED: REMARK SMILES IDX 13 25 17 26 14 27 16 28 15 29
DOCKED: REMARK H PARENT 3 5
DOCKED: USER                              x       y       z     vdW  Elec       q    Type
DOCKED: USER                           _______ _______ _______ _____ _____    ______ ____
DOCKED: ROOT
DOCKED: ATOM      1  C   UNL     1     140.188  74.256 220.891 -0.16 -0.04    +0.216 C  
DOCKED: ENDROOT
DOCKED: BRANCH   1   2
DOCKED: ATOM      2  N   UNL     1     139.907  73.469 222.107 -0.15 +0.04    -0.342 N  
DOCKED: ATOM      3  C   UNL     1     140.593  72.228 222.297 -0.20 -0.03    +0.270 C  
DOCKED: ATOM      4  O   UNL     1     141.428  71.780 221.463 -0.16 +0.03    -0.268 OA 
DOCKED: ATOM      5  H   UNL     1     139.234  73.777 222.830 -0.50 -0.05    +0.164 HD 
DOCKED: BRANCH   3   6
DOCKED: ATOM      6  C   UNL     1     140.307  71.458 223.504 -0.32 -0.02    +0.128 A  
DOCKED: ATOM      7  C   UNL     1     139.607  70.270 223.428 -0.27 -0.01    +0.035 A  
DOCKED: ATOM      8  N   UNL     1     140.697  71.853 224.726 -0.27 +0.03    -0.243 NA 
DOCKED: ATOM      9  C   UNL     1     139.303  69.495 224.523 -0.35 -0.00    +0.013 A  
DOCKED: ATOM     10  C   UNL     1     140.430  71.138 225.831 -0.54 -0.01    +0.071 A  
DOCKED: ATOM     11  C   UNL     1     139.730  69.947 225.760 -0.47 -0.00    +0.003 A  
DOCKED: ATOM     12  C   UNL     1     140.843  71.564 227.077 -0.73 -0.01    +0.032 A  
DOCKED: ATOM     13  C   UNL     1     139.442  69.193 226.885 -0.49 -0.01    +0.049 A  
DOCKED: ATOM     14  C   UNL     1     140.575  70.836 228.235 -0.61 -0.01    +0.041 A  
DOCKED: ATOM     15  C   UNL     1     139.869  69.643 228.132 -0.51 -0.02    +0.123 A  
DOCKED: ATOM     16  F   UNL     1     139.588  68.902 229.250 -0.06 +0.03    -0.207 F  
DOCKED: ENDBRANCH   3   6
DOCKED: ENDBRANCH   1   2
DOCKED: BRANCH   1  17
DOCKED: ATOM     17  C   UNL     1     141.091  75.361 221.186 -0.23 -0.07    +0.242 C  
DOCKED: ATOM     18  O   UNL     1     140.899  75.926 222.344 -0.42 +0.06    -0.273 OA 
DOCKED: BRANCH  17  19
DOCKED: ATOM     19  N   UNL     1     142.120  75.911 220.433 -0.13 +0.17    -0.338 N  
DOCKED: ATOM     20  C   UNL     1     142.072  77.381 220.095 -0.26 -0.08    +0.120 C  
DOCKED: ATOM     21  C   UNL     1     143.316  75.501 219.778 -0.34 -0.05    +0.088 C  
DOCKED: ATOM     22  C   UNL     1     142.682  77.454 218.703 -0.32 -0.02    +0.024 C  
DOCKED: ATOM     23  C   UNL     1     142.998  75.993 218.350 -0.26 -0.01    +0.027 C  
DOCKED: BRANCH  21  24
DOCKED: ATOM     24  C   UNL     1     143.747  74.100 219.816 -0.35 -0.00    +0.016 C  
DOCKED: ATOM     25  C   UNL     1     144.801  73.861 220.839 -0.49 -0.01    +0.034 C  
DOCKED: ATOM     26  C   UNL     1     144.356  73.776 218.441 -0.20 -0.01    +0.034 C  
DOCKED: ATOM     27  C   UNL     1     146.110  73.444 220.175 -0.44 +0.02    +0.160 C  
DOCKED: ATOM     28  C   UNL     1     144.987  72.405 218.472 -0.17 +0.05    +0.160 C  
DOCKED: ATOM     29  O   UNL     1     145.949  72.281 219.447 -0.63 -0.28    -0.381 OA 
DOCKED: ENDBRANCH  21  24
DOCKED: ENDBRANCH  17  19
DOCKED: ENDBRANCH   1  17
DOCKED: TORSDOF 5
DOCKED: TER
DOCKED: ENDMDL
________________________________________________________________________________


    FINAL DOCKED STATE:
    ________________________


Run:   17 / 20
Time taken for this run:   0.039s

DOCKED: MODEL        17
DOCKED: USER    Run = 17
DOCKED: USER
DOCKED: USER    Estimated Free Energy of Binding    =  -8.23 kcal/mol  [=(1)+(2)+(3)-(4)]
DOCKED: USER
DOCKED: USER    (1) Final Intermolecular Energy     =  -9.72 kcal/mol
DOCKED: USER        vdW + Hbond + desolv Energy     =  -9.36 kcal/mol
DOCKED: USER        Electrostatic Energy            =  -0.36 kcal/mol
DOCKED: USER        Moving Ligand-Fixed Receptor    =  -9.72 kcal/mol
DOCKED: USER        Moving Ligand-Moving Receptor   =  +0.00 kcal/mol
DOCKED: USER    (2) Final Total Internal Energy     =  -1.49 kcal/mol
DOCKED: USER    (3) Torsional Free Energy           =  +1.49 kcal/mol
DOCKED: USER    (4) Unbound System's Energy         =  -1.49 kcal/mol
DOCKED: USER
DOCKED: USER
DOCKED: REMARK SMILES O=C(NCC(=O)N1CCC[C@@H]1C1CCOCC1)c1ccc2cc(F)ccc2n1
DOCKED: REMARK SMILES IDX 4 1 3 2 2 3 1 4 18 6 19 7 28 8 20 9 27 10 21 11 26 12 22 13
DOCKED: REMARK SMILES IDX 25 14 23 15 24 16 5 17 6 18 7 19 8 20 11 21 9 22 10 23 12 24
DOCKED: REMARK SMILES IDX 13 25 17 26 14 27 16 28 15 29
DOCKED: REMARK H PARENT 3 5
DOCKED: USER                              x       y       z     vdW  Elec       q    Type
DOCKED: USER                           _______ _______ _______ _____ _____    ______ ____
DOCKED: ROOT
DOCKED: ATOM      1  C   UNL     1     139.430  73.801 221.394 -0.17 -0.04    +0.216 C  
DOCKED: ENDROOT
DOCKED: BRANCH   1   2
DOCKED: ATOM      2  N   UNL     1     139.630  72.970 222.596 -0.11 +0.07    -0.342 N  
DOCKED: ATOM      3  C   UNL     1     139.389  71.563 222.507 -0.18 -0.05    +0.270 C  
DOCKED: ATOM      4  O   UNL     1     139.009  71.005 221.440 -0.06 +0.05    -0.268 OA 
DOCKED: ATOM      5  H   UNL     1     139.940  73.361 223.502 -0.38 -0.00    +0.164 HD 
DOCKED: BRANCH   3   6
DOCKED: ATOM      6  C   UNL     1     139.591  70.750 223.704 -0.29 -0.02    +0.128 A  
DOCKED: ATOM      7  C   UNL     1     139.218  69.420 223.719 -0.27 -0.01    +0.035 A  
DOCKED: ATOM      8  N   UNL     1     140.136  71.238 224.829 -0.30 +0.04    -0.243 NA 
DOCKED: ATOM      9  C   UNL     1     139.380  68.598 224.810 -0.37 -0.00    +0.013 A  
DOCKED: ATOM     10  C   UNL     1     140.319  70.483 225.924 -0.49 -0.01    +0.071 A  
DOCKED: ATOM     11  C   UNL     1     139.948  69.151 225.944 -0.49 -0.00    +0.003 A  
DOCKED: ATOM     12  C   UNL     1     140.883  71.007 227.069 -0.66 -0.01    +0.032 A  
DOCKED: ATOM     13  C   UNL     1     140.126  68.352 227.061 -0.61 -0.01    +0.049 A  
DOCKED: ATOM     14  C   UNL     1     141.081  70.240 228.216 -0.54 -0.01    +0.041 A  
DOCKED: ATOM     15  C   UNL     1     140.697  68.903 228.206 -0.54 -0.03    +0.123 A  
DOCKED: ATOM     16  F   UNL     1     140.876  68.120 229.315 -0.12 +0.05    -0.207 F  
DOCKED: ENDBRANCH   3   6
DOCKED: ENDBRANCH   1   2
DOCKED: BRANCH   1  17
DOCKED: ATOM     17  C   UNL     1     140.643  73.848 220.587 -0.13 -0.05    +0.242 C  
DOCKED: ATOM     18  O   UNL     1     140.752  72.888 219.714 -0.04 +0.05    -0.273 OA 
DOCKED: BRANCH  17  19
DOCKED: ATOM     19  N   UNL     1     141.702  74.746 220.602 -0.13 +0.10    -0.338 N  
DOCKED: ATOM     20  C   UNL     1     141.408  76.218 220.758 -0.24 -0.05    +0.120 C  
DOCKED: ATOM     21  C   UNL     1     143.120  74.744 220.476 -0.28 -0.04    +0.088 C  
DOCKED: ATOM     22  C   UNL     1     142.468  76.893 219.901 -0.31 -0.02    +0.024 C  
DOCKED: ATOM     23  C   UNL     1     143.264  75.728 219.294 -0.36 -0.01    +0.027 C  
DOCKED: BRANCH  21  24
DOCKED: ATOM     24  C   UNL     1     143.851  73.490 220.266 -0.38 -0.00    +0.016 C  
DOCKED: ATOM     25  C   UNL     1     145.089  73.415 221.088 -0.51 -0.01    +0.034 C  
DOCKED: ATOM     26  C   UNL     1     144.274  73.453 218.789 -0.23 -0.00    +0.034 C  
DOCKED: ATOM     27  C   UNL     1     146.326  73.390 220.196 -0.43 +0.04    +0.160 C  
DOCKED: ATOM     28  C   UNL     1     145.190  72.278 218.548 -0.19 +0.07    +0.160 C  
DOCKED: ATOM     29  O   UNL     1     146.306  72.296 219.351 -0.56 -0.45    -0.381 OA 
DOCKED: ENDBRANCH  21  24
DOCKED: ENDBRANCH  17  19
DOCKED: ENDBRANCH   1  17
DOCKED: TORSDOF 5
DOCKED: TER
DOCKED: ENDMDL
________________________________________________________________________________


    FINAL DOCKED STATE:
    ________________________


Run:   18 / 20
Time taken for this run:   0.039s

DOCKED: MODEL        18
DOCKED: USER    Run = 18
DOCKED: USER
DOCKED: USER    Estimated Free Energy of Binding    =  -7.90 kcal/mol  [=(1)+(2)+(3)-(4)]
DOCKED: USER
DOCKED: USER    (1) Final Intermolecular Energy     =  -9.40 kcal/mol
DOCKED: USER        vdW + Hbond + desolv Energy     =  -9.37 kcal/mol
DOCKED: USER        Electrostatic Energy            =  -0.03 kcal/mol
DOCKED: USER        Moving Ligand-Fixed Receptor    =  -9.40 kcal/mol
DOCKED: USER        Moving Ligand-Moving Receptor   =  +0.00 kcal/mol
DOCKED: USER    (2) Final Total Internal Energy     =  -1.23 kcal/mol
DOCKED: USER    (3) Torsional Free Energy           =  +1.49 kcal/mol
DOCKED: USER    (4) Unbound System's Energy         =  -1.23 kcal/mol
DOCKED: USER
DOCKED: USER
DOCKED: REMARK SMILES O=C(NCC(=O)N1CCC[C@@H]1C1CCOCC1)c1ccc2cc(F)ccc2n1
DOCKED: REMARK SMILES IDX 4 1 3 2 2 3 1 4 18 6 19 7 28 8 20 9 27 10 21 11 26 12 22 13
DOCKED: REMARK SMILES IDX 25 14 23 15 24 16 5 17 6 18 7 19 8 20 11 21 9 22 10 23 12 24
DOCKED: REMARK SMILES IDX 13 25 17 26 14 27 16 28 15 29
DOCKED: REMARK H PARENT 3 5
DOCKED: USER                              x       y       z     vdW  Elec       q    Type
DOCKED: USER                           _______ _______ _______ _____ _____    ______ ____
DOCKED: ROOT
DOCKED: ATOM      1  C   UNL     1     140.223  74.588 221.110 -0.19 -0.04    +0.216 C  
DOCKED: ENDROOT
DOCKED: BRANCH   1   2
DOCKED: ATOM      2  N   UNL     1     140.020  73.742 222.302 -0.07 +0.02    -0.342 N  
DOCKED: ATOM      3  C   UNL     1     140.456  72.380 222.260 -0.20 -0.03    +0.270 C  
DOCKED: ATOM      4  O   UNL     1     141.006  71.875 221.243 -0.14 +0.03    -0.268 OA 
DOCKED: ATOM      5  H   UNL     1     139.576  74.092 223.168 -0.51 -0.02    +0.164 HD 
DOCKED: BRANCH   3   6
DOCKED: ATOM      6  C   UNL     1     140.250  71.552 223.445 -0.32 -0.02    +0.128 A  
DOCKED: ATOM      7  C   UNL     1     139.563  70.357 223.355 -0.27 -0.01    +0.035 A  
DOCKED: ATOM      8  N   UNL     1     140.705  71.898 224.660 -0.25 +0.03    -0.243 NA 
DOCKED: ATOM      9  C   UNL     1     139.334  69.529 224.429 -0.34 -0.00    +0.013 A  
DOCKED: ATOM     10  C   UNL     1     140.511  71.130 225.744 -0.54 -0.01    +0.071 A  
DOCKED: ATOM     11  C   UNL     1     139.825  69.932 225.659 -0.46 -0.00    +0.003 A  
DOCKED: ATOM     12  C   UNL     1     140.989  71.507 226.982 -0.72 -0.01    +0.032 A  
DOCKED: ATOM     13  C   UNL     1     139.612  69.124 226.762 -0.51 -0.01    +0.049 A  
DOCKED: ATOM     14  C   UNL     1     140.798  70.723 228.120 -0.62 -0.01    +0.041 A  
DOCKED: ATOM     15  C   UNL     1     140.103  69.524 228.003 -0.52 -0.02    +0.123 A  
DOCKED: ATOM     16  F   UNL     1     139.898  68.730 229.099 -0.13 +0.03    -0.207 F  
DOCKED: ENDBRANCH   3   6
DOCKED: ENDBRANCH   1   2
DOCKED: BRANCH   1  17
DOCKED: ATOM     17  C   UNL     1     139.256  75.679 221.079 -0.14 -0.06    +0.242 C  
DOCKED: ATOM     18  O   UNL     1     138.602  75.793 219.958 -0.02 +0.06    -0.273 OA 
DOCKED: BRANCH  17  19
DOCKED: ATOM     19  N   UNL     1     138.923  76.617 222.047 -0.15 +0.07    -0.338 N  
DOCKED: ATOM     20  C   UNL     1     137.535  76.596 222.638 -0.24 -0.02    +0.120 C  
DOCKED: ATOM     21  C   UNL     1     139.507  77.729 222.718 -0.26 -0.02    +0.088 C  
DOCKED: ATOM     22  C   UNL     1     137.219  78.064 222.879 -0.15 -0.00    +0.024 C  
DOCKED: ATOM     23  C   UNL     1     138.461  78.808 222.365 -0.24 -0.00    +0.027 C  
DOCKED: BRANCH  21  24
DOCKED: ATOM     24  C   UNL     1     140.880  78.147 222.418 -0.45 -0.01    +0.016 C  
DOCKED: ATOM     25  C   UNL     1     141.707  78.293 223.646 -0.44 -0.01    +0.034 C  
DOCKED: ATOM     26  C   UNL     1     140.798  79.530 221.749 -0.32 -0.01    +0.034 C  
DOCKED: ATOM     27  C   UNL     1     142.125  79.747 223.844 -0.49 -0.04    +0.160 C  
DOCKED: ATOM     28  C   UNL     1     142.185  80.101 221.582 -0.34 -0.07    +0.160 C  
DOCKED: ATOM     29  O   UNL     1     142.870  80.199 222.771 -0.35 +0.13    -0.381 OA 
DOCKED: ENDBRANCH  21  24
DOCKED: ENDBRANCH  17  19
DOCKED: ENDBRANCH   1  17
DOCKED: TORSDOF 5
DOCKED: TER
DOCKED: ENDMDL
________________________________________________________________________________


    FINAL DOCKED STATE:
    ________________________


Run:   19 / 20
Time taken for this run:   0.039s

DOCKED: MODEL        19
DOCKED: USER    Run = 19
DOCKED: USER
DOCKED: USER    Estimated Free Energy of Binding    =  -8.08 kcal/mol  [=(1)+(2)+(3)-(4)]
DOCKED: USER
DOCKED: USER    (1) Final Intermolecular Energy     =  -9.57 kcal/mol
DOCKED: USER        vdW + Hbond + desolv Energy     =  -9.48 kcal/mol
DOCKED: USER        Electrostatic Energy            =  -0.09 kcal/mol
DOCKED: USER        Moving Ligand-Fixed Receptor    =  -9.57 kcal/mol
DOCKED: USER        Moving Ligand-Moving Receptor   =  +0.00 kcal/mol
DOCKED: USER    (2) Final Total Internal Energy     =  -1.81 kcal/mol
DOCKED: USER    (3) Torsional Free Energy           =  +1.49 kcal/mol
DOCKED: USER    (4) Unbound System's Energy         =  -1.81 kcal/mol
DOCKED: USER
DOCKED: USER
DOCKED: REMARK SMILES O=C(NCC(=O)N1CCC[C@@H]1C1CCOCC1)c1ccc2cc(F)ccc2n1
DOCKED: REMARK SMILES IDX 4 1 3 2 2 3 1 4 18 6 19 7 28 8 20 9 27 10 21 11 26 12 22 13
DOCKED: REMARK SMILES IDX 25 14 23 15 24 16 5 17 6 18 7 19 8 20 11 21 9 22 10 23 12 24
DOCKED: REMARK SMILES IDX 13 25 17 26 14 27 16 28 15 29
DOCKED: REMARK H PARENT 3 5
DOCKED: USER                              x       y       z     vdW  Elec       q    Type
DOCKED: USER                           _______ _______ _______ _____ _____    ______ ____
DOCKED: ROOT
DOCKED: ATOM      1  C   UNL     1     139.854  74.469 221.144 -0.18 -0.04    +0.216 C  
DOCKED: ENDROOT
DOCKED: BRANCH   1   2
DOCKED: ATOM      2  N   UNL     1     139.807  73.615 222.346 -0.11 +0.04    -0.342 N  
DOCKED: ATOM      3  C   UNL     1     140.114  72.224 222.215 -0.20 -0.04    +0.270 C  
DOCKED: ATOM      4  O   UNL     1     140.422  71.699 221.109 -0.10 +0.04    -0.268 OA 
DOCKED: ATOM      5  H   UNL     1     139.562  73.981 223.283 -0.49 -0.03    +0.164 HD 
DOCKED: BRANCH   3   6
DOCKED: ATOM      6  C   UNL     1     140.065  71.389 223.412 -0.31 -0.02    +0.128 A  
DOCKED: ATOM      7  C   UNL     1     139.573  70.101 223.348 -0.25 -0.01    +0.035 A  
DOCKED: ATOM      8  N   UNL     1     140.483  71.818 224.613 -0.27 +0.04    -0.243 NA 
DOCKED: ATOM      9  C   UNL     1     139.499  69.261 224.435 -0.33 -0.00    +0.013 A  
DOCKED: ATOM     10  C   UNL     1     140.434  71.044 225.708 -0.53 -0.01    +0.071 A  
DOCKED: ATOM     11  C   UNL     1     139.944  69.752 225.650 -0.46 -0.00    +0.003 A  
DOCKED: ATOM     12  C   UNL     1     140.871  71.507 226.933 -0.71 -0.01    +0.032 A  
DOCKED: ATOM     13  C   UNL     1     139.883  68.934 226.765 -0.54 -0.01    +0.049 A  
DOCKED: ATOM     14  C   UNL     1     140.829  70.718 228.081 -0.63 -0.01    +0.041 A  
DOCKED: ATOM     15  C   UNL     1     140.329  69.423 227.991 -0.53 -0.02    +0.123 A  
DOCKED: ATOM     16  F   UNL     1     140.273  68.620 229.099 -0.15 +0.04    -0.207 F  
DOCKED: ENDBRANCH   3   6
DOCKED: ENDBRANCH   1   2
DOCKED: BRANCH   1  17
DOCKED: ATOM     17  C   UNL     1     139.917  75.878 221.510 -0.22 -0.06    +0.242 C  
DOCKED: ATOM     18  O   UNL     1     139.660  76.126 222.763 -0.33 +0.04    -0.273 OA 
DOCKED: BRANCH  17  19
DOCKED: ATOM     19  N   UNL     1     140.202  76.998 220.741 -0.06 +0.11    -0.338 N  
DOCKED: ATOM     20  C   UNL     1     140.132  76.888 219.238 -0.06 -0.04    +0.120 C  
DOCKED: ATOM     21  C   UNL     1     140.610  78.352 220.915 -0.22 -0.03    +0.088 C  
DOCKED: ATOM     22  C   UNL     1     141.246  77.805 218.754 -0.17 -0.01    +0.024 C  
DOCKED: ATOM     23  C   UNL     1     141.885  78.340 220.044 -0.25 -0.02    +0.027 C  
DOCKED: BRANCH  21  24
DOCKED: ATOM     24  C   UNL     1     140.840  78.897 222.256 -0.40 -0.01    +0.016 C  
DOCKED: ATOM     25  C   UNL     1     139.983  80.081 222.539 -0.33 -0.01    +0.034 C  
DOCKED: ATOM     26  C   UNL     1     142.304  79.363 222.311 -0.50 -0.02    +0.034 C  
DOCKED: ATOM     27  C   UNL     1     140.838  81.332 222.720 -0.34 -0.03    +0.160 C  
DOCKED: ATOM     28  C   UNL     1     142.558  80.104 223.602 -0.53 -0.04    +0.160 C  
DOCKED: ATOM     29  O   UNL     1     141.720  81.181 223.773 -0.30 +0.05    -0.381 OA 
DOCKED: ENDBRANCH  21  24
DOCKED: ENDBRANCH  17  19
DOCKED: ENDBRANCH   1  17
DOCKED: TORSDOF 5
DOCKED: TER
DOCKED: ENDMDL
________________________________________________________________________________


    FINAL DOCKED STATE:
    ________________________


Run:   20 / 20
Time taken for this run:   0.039s

DOCKED: MODEL        20
DOCKED: USER    Run = 20
DOCKED: USER
DOCKED: USER    Estimated Free Energy of Binding    =  -8.72 kcal/mol  [=(1)+(2)+(3)-(4)]
DOCKED: USER
DOCKED: USER    (1) Final Intermolecular Energy     = -10.21 kcal/mol
DOCKED: USER        vdW + Hbond + desolv Energy     =  -9.92 kcal/mol
DOCKED: USER        Electrostatic Energy            =  -0.29 kcal/mol
DOCKED: USER        Moving Ligand-Fixed Receptor    = -10.21 kcal/mol
DOCKED: USER        Moving Ligand-Moving Receptor   =  +0.00 kcal/mol
DOCKED: USER    (2) Final Total Internal Energy     =  -1.55 kcal/mol
DOCKED: USER    (3) Torsional Free Energy           =  +1.49 kcal/mol
DOCKED: USER    (4) Unbound System's Energy         =  -1.55 kcal/mol
DOCKED: USER
DOCKED: USER
DOCKED: REMARK SMILES O=C(NCC(=O)N1CCC[C@@H]1C1CCOCC1)c1ccc2cc(F)ccc2n1
DOCKED: REMARK SMILES IDX 4 1 3 2 2 3 1 4 18 6 19 7 28 8 20 9 27 10 21 11 26 12 22 13
DOCKED: REMARK SMILES IDX 25 14 23 15 24 16 5 17 6 18 7 19 8 20 11 21 9 22 10 23 12 24
DOCKED: REMARK SMILES IDX 13 25 17 26 14 27 16 28 15 29
DOCKED: REMARK H PARENT 3 5
DOCKED: USER                              x       y       z     vdW  Elec       q    Type
DOCKED: USER                           _______ _______ _______ _____ _____    ______ ____
DOCKED: ROOT
DOCKED: ATOM      1  C   UNL     1     140.282  74.022 220.982 -0.17 -0.04    +0.216 C  
DOCKED: ENDROOT
DOCKED: BRANCH   1   2
DOCKED: ATOM      2  N   UNL     1     140.034  73.281 222.234 -0.15 +0.03    -0.342 N  
DOCKED: ATOM      3  C   UNL     1     140.467  71.921 222.325 -0.20 -0.03    +0.270 C  
DOCKED: ATOM      4  O   UNL     1     141.053  71.330 221.376 -0.13 +0.03    -0.268 OA 
DOCKED: ATOM      5  H   UNL     1     139.559  73.704 223.050 -0.48 -0.03    +0.164 HD 
DOCKED: BRANCH   3   6
DOCKED: ATOM      6  C   UNL     1     140.216  71.197 223.569 -0.31 -0.02    +0.128 A  
DOCKED: ATOM      7  C   UNL     1     139.562  69.981 223.552 -0.26 -0.01    +0.035 A  
DOCKED: ATOM      8  N   UNL     1     140.596  71.664 224.769 -0.30 +0.03    -0.243 NA 
DOCKED: ATOM      9  C   UNL     1     139.293  69.247 224.684 -0.36 -0.00    +0.013 A  
DOCKED: ATOM     10  C   UNL     1     140.361  70.992 225.907 -0.53 -0.01    +0.071 A  
DOCKED: ATOM     11  C   UNL     1     139.708  69.772 225.896 -0.47 -0.00    +0.003 A  
DOCKED: ATOM     12  C   UNL     1     140.763  71.491 227.129 -0.72 -0.01    +0.032 A  
DOCKED: ATOM     13  C   UNL     1     139.453  69.061 227.056 -0.49 -0.01    +0.049 A  
DOCKED: ATOM     14  C   UNL     1     140.528  70.808 228.321 -0.59 -0.01    +0.041 A  
DOCKED: ATOM     15  C   UNL     1     139.867  69.585 228.278 -0.51 -0.02    +0.123 A  
DOCKED: ATOM     16  F   UNL     1     139.620  68.887 229.431 +0.01 +0.03    -0.207 F  
DOCKED: ENDBRANCH   3   6
DOCKED: ENDBRANCH   1   2
DOCKED: BRANCH   1  17
DOCKED: ATOM     17  C   UNL     1     141.075  75.218 221.237 -0.23 -0.06    +0.242 C  
DOCKED: ATOM     18  O   UNL     1     140.783  75.838 222.345 -0.44 +0.05    -0.273 OA 
DOCKED: BRANCH  17  19
DOCKED: ATOM     19  N   UNL     1     142.087  75.806 220.489 -0.13 +0.17    -0.338 N  
DOCKED: ATOM     20  C   UNL     1     142.013  77.284 220.195 -0.24 -0.07    +0.120 C  
DOCKED: ATOM     21  C   UNL     1     143.282  75.434 219.811 -0.33 -0.05    +0.088 C  
DOCKED: ATOM     22  C   UNL     1     142.607  77.408 218.800 -0.32 -0.02    +0.024 C  
DOCKED: ATOM     23  C   UNL     1     142.941  75.963 218.401 -0.26 -0.01    +0.027 C  
DOCKED: BRANCH  21  24
DOCKED: ATOM     24  C   UNL     1     143.735  74.039 219.803 -0.35 -0.00    +0.016 C  
DOCKED: ATOM     25  C   UNL     1     144.795  73.785 220.815 -0.51 -0.01    +0.034 C  
DOCKED: ATOM     26  C   UNL     1     144.344  73.768 218.417 -0.20 -0.01    +0.034 C  
DOCKED: ATOM     27  C   UNL     1     146.109  73.410 220.134 -0.44 +0.03    +0.160 C  
DOCKED: ATOM     28  C   UNL     1     144.997  72.407 218.402 -0.17 +0.05    +0.160 C  
DOCKED: ATOM     29  O   UNL     1     145.963  72.267 219.370 -0.64 -0.30    -0.381 OA 
DOCKED: ENDBRANCH  21  24
DOCKED: ENDBRANCH  17  19
DOCKED: ENDBRANCH   1  17
DOCKED: TORSDOF 5
DOCKED: TER
DOCKED: ENDMDL
________________________________________________________________________________


    CLUSTERING HISTOGRAM
    ____________________


________________________________________________________________________________
     |           |     |           |     |
Clus | Lowest    | Run | Mean      | Num | Histogram
-ter | Binding   |     | Binding   | in  |
Rank | Energy    |     | Energy    | Clus|    5    10   15   20   25   30   35
_____|___________|_____|___________|_____|____:____|____:____|____:____|____:___
   1 |     -8.82 |   3 |     -8.63 |  14 |##############
   2 |     -8.64 |  11 |     -8.28 |   5 |#####
   3 |     -8.18 |  14 |     -8.18 |   1 |#
_____|___________|_____|___________|_____|______________________________________


    RMSD TABLE
    __________


_______________________________________________________________________
     |      |      |           |         |                 |
Rank | Sub- | Run  | Binding   | Cluster | Reference       | Grep
     | Rank |      | Energy    | RMSD    | RMSD            | Pattern
_____|______|______|___________|_________|_________________|___________
   1      1      3       -8.82      0.00    271.38           RANKING
   1      2      1       -8.82      0.03    271.37           RANKING
   1      3      5       -8.82      0.04    271.39           RANKING
   1      4     15       -8.82      0.03    271.38           RANKING
   1      5      7       -8.82      0.04    271.39           RANKING
   1      6     16       -8.82      0.04    271.39           RANKING
   1      7     20       -8.72      0.26    271.39           RANKING
   1      8      9       -8.72      0.24    271.38           RANKING
   1      9      4       -8.72      0.26    271.39           RANKING
   1     10      6       -8.72      0.17    271.38           RANKING
   1     11     12       -8.72      0.22    271.39           RANKING
   1     12     13       -8.26      0.93    271.22           RANKING
   1     13     17       -8.23      1.05    271.28           RANKING
   1     14      2       -7.81      0.68    271.20           RANKING
   2      1     11       -8.64      0.00    272.12           RANKING
   2      2     10       -8.51      0.31    272.06           RANKING
   2      3      8       -8.25      1.38    271.86           RANKING
   2      4     19       -8.08      1.35    271.88           RANKING
   2      5     18       -7.90      0.78    271.89           RANKING
   3      1     14       -8.18      0.00    271.87           RANKING

Run time 0.703 sec
Idle time 0.000 sec
