AutoDock-GPU version: v1.6

**********************************************************
**    AutoDock-GPU AUTODOCKTOOLS-COMPATIBLE DLG FILE    **
**********************************************************


    DOCKING PARAMETERS
    ________________________


Ligand file:                               /home/a/REINVENT4/ReinventStudies/pleaseWork/justmol2mol_4_Compounds_ontop/graph-dock/graph-DockGPU/node-autodockgpu/inputs/UTHCGYQDWZMPBJ-VUGPQIQDNA-N.pdbqt
Grid fld file:                             /home/a/REINVENT4/ReinventStudies/mols/Rad51/maps/rad51_receptor.maps.fld

Random seed:                               42
Number of runs:                            20
Number of energy evaluations:              1132076
Number of generations:                     42000
Size of population:                        150
Rate of crossover:                         80.000000%
Tournament selection probability limit:    60.000000%
Rate of mutation:                          2.000000%
Maximal allowed delta movement:            +/- 6.000000A
Maximal allowed delta angle:               +/- 90.000000

Rate of local search:                      100.000000%
Maximal number of local search iterations: 300
Rho lower bound:                           0.010000
Spread of local search delta movement:     2.000000A
Spread of local search delta angle:        74.999999
Limit of consecutive successes/failures:   4

Handle symmetry during clustering:         YES
RMSD tolerance:                            2.000000A

Program call in command line was:          /home/a/REINVENT4/ReinventStudies/adgpu-v1.6_linux_x64_cuda12_128wi --filelist batch.txt --heuristics 1 --nrun 20 --psize 150 --lsit 300 --seed 42 --heurmax 12000000 


    GRID PARAMETERS
    ________________________


Receptor name:                             rad51_receptor
Number of grid points (x, y, z):           53, 53, 53
Grid center (x, y, z):                     139.950000, 75.640000, 221.970000A
Grid size (x, y, z):                       19.500000, 19.500000, 19.500000A
Grid spacing:                              0.375000A


    LIGAND PARAMETERS
    ________________________


Ligand name:                               /home/a/REINVENT4/ReinventStudies/pleaseWork/justmol2mol_4_Compounds_ontop/graph-dock/graph-DockGPU/node-autodockgpu/inputs/UTHCGYQDWZMPBJ-VUGPQIQDNA-N
Number of atoms:                           29
Number of rotatable bonds:                 5
Number of atom types:                      7


    DUMMY DATA (only for ADT-compatibility)
    ________________________


DPF> outlev 1
DPF> ga_run 20
DPF> fld /home/a/REINVENT4/ReinventStudies/mols/Rad51/maps/rad51_receptor.maps.fld
DPF> move /home/a/REINVENT4/ReinventStudies/pleaseWork/justmol2mol_4_Compounds_ontop/graph-dock/graph-DockGPU/node-autodockgpu/inputs/UTHCGYQDWZMPBJ-VUGPQIQDNA-N.pdbqt


    COUNTER STATES
    ________________________


Number of energy evaluations performed:    603562
Number of generations used:                30


    INPUT LIGAND PDBQT FILE:
    ________________________


INPUT-LIGAND-PDBQT: REMARK SMILES O=C(NCC(=O)N1CCC[C@H]1C1CCOCC1)c1ccc2cc(F)ccc2n1
INPUT-LIGAND-PDBQT: REMARK SMILES IDX 4 1 3 2 2 3 1 4 18 6 19 7 28 8 20 9 27 10 21 11 26 12 22 13
INPUT-LIGAND-PDBQT: REMARK SMILES IDX 25 14 23 15 24 16 5 17 6 18 7 19 8 20 11 21 9 22 10 23 12 24
INPUT-LIGAND-PDBQT: REMARK SMILES IDX 13 25 17 26 14 27 16 28 15 29
INPUT-LIGAND-PDBQT: REMARK H PARENT 3 5
INPUT-LIGAND-PDBQT: ROOT
INPUT-LIGAND-PDBQT: ATOM      1  C   UNL     1       0.121   1.803   0.532  1.00  0.00     0.216 C 
INPUT-LIGAND-PDBQT: ENDROOT
INPUT-LIGAND-PDBQT: BRANCH   1   2
INPUT-LIGAND-PDBQT: ATOM      2  N   UNL     1       1.386   1.123   0.362  1.00  0.00    -0.342 N 
INPUT-LIGAND-PDBQT: ATOM      3  C   UNL     1       2.571   1.826   0.653  1.00  0.00     0.270 C 
INPUT-LIGAND-PDBQT: ATOM      4  O   UNL     1       2.481   3.010   1.045  1.00  0.00    -0.268 OA
INPUT-LIGAND-PDBQT: ATOM      5  H   UNL     1       1.456   0.125   0.032  1.00  0.00     0.164 HD
INPUT-LIGAND-PDBQT: BRANCH   3   6
INPUT-LIGAND-PDBQT: ATOM      6  C   UNL     1       3.873   1.179   0.496  1.00  0.00     0.128 A 
INPUT-LIGAND-PDBQT: ATOM      7  C   UNL     1       5.025   1.911   0.795  1.00  0.00     0.035 A 
INPUT-LIGAND-PDBQT: ATOM      8  N   UNL     1       3.974  -0.088   0.077  1.00  0.00    -0.243 NA
INPUT-LIGAND-PDBQT: ATOM      9  C   UNL     1       6.246   1.310   0.650  1.00  0.00     0.013 A 
INPUT-LIGAND-PDBQT: ATOM     10  C   UNL     1       5.163  -0.722  -0.081  1.00  0.00     0.071 A 
INPUT-LIGAND-PDBQT: ATOM     11  C   UNL     1       6.316   0.003   0.216  1.00  0.00     0.003 A 
INPUT-LIGAND-PDBQT: ATOM     12  C   UNL     1       5.218  -2.032  -0.517  1.00  0.00     0.032 A 
INPUT-LIGAND-PDBQT: ATOM     13  C   UNL     1       7.553  -0.611   0.067  1.00  0.00     0.049 A 
INPUT-LIGAND-PDBQT: ATOM     14  C   UNL     1       6.460  -2.636  -0.662  1.00  0.00     0.041 A 
INPUT-LIGAND-PDBQT: ATOM     15  C   UNL     1       7.618  -1.926  -0.370  1.00  0.00     0.123 A 
INPUT-LIGAND-PDBQT: ATOM     16  F   UNL     1       8.832  -2.483  -0.500  1.00  0.00    -0.207 F 
INPUT-LIGAND-PDBQT: ENDBRANCH   3   6
INPUT-LIGAND-PDBQT: ENDBRANCH   1   2
INPUT-LIGAND-PDBQT: BRANCH   1  17
INPUT-LIGAND-PDBQT: ATOM     17  C   UNL     1      -0.968   0.826   0.154  1.00  0.00     0.242 C 
INPUT-LIGAND-PDBQT: ATOM     18  O   UNL     1      -0.559  -0.304  -0.206  1.00  0.00    -0.273 OA
INPUT-LIGAND-PDBQT: BRANCH  17  19
INPUT-LIGAND-PDBQT: ATOM     19  N   UNL     1      -2.317   1.224   0.225  1.00  0.00    -0.338 N 
INPUT-LIGAND-PDBQT: ATOM     20  C   UNL     1      -2.745   2.585   0.643  1.00  0.00     0.120 C 
INPUT-LIGAND-PDBQT: ATOM     21  C   UNL     1      -3.562   0.570  -0.050  1.00  0.00     0.088 C 
INPUT-LIGAND-PDBQT: ATOM     22  C   UNL     1      -3.661   2.942  -0.503  1.00  0.00     0.024 C 
INPUT-LIGAND-PDBQT: ATOM     23  C   UNL     1      -4.222   1.597  -0.947  1.00  0.00     0.027 C 
INPUT-LIGAND-PDBQT: BRANCH  21  24
INPUT-LIGAND-PDBQT: ATOM     24  C   UNL     1      -3.527  -0.808  -0.582  1.00  0.00     0.016 C 
INPUT-LIGAND-PDBQT: ATOM     25  C   UNL     1      -4.955  -1.307  -0.919  1.00  0.00     0.034 C 
INPUT-LIGAND-PDBQT: ATOM     26  C   UNL     1      -2.981  -1.816   0.413  1.00  0.00     0.034 C 
INPUT-LIGAND-PDBQT: ATOM     27  C   UNL     1      -4.765  -2.789  -1.260  1.00  0.00     0.160 C 
INPUT-LIGAND-PDBQT: ATOM     28  C   UNL     1      -4.069  -2.720   0.944  1.00  0.00     0.160 C 
INPUT-LIGAND-PDBQT: ATOM     29  O   UNL     1      -4.724  -3.448  -0.038  1.00  0.00    -0.381 OA
INPUT-LIGAND-PDBQT: ENDBRANCH  21  24
INPUT-LIGAND-PDBQT: ENDBRANCH  17  19
INPUT-LIGAND-PDBQT: ENDBRANCH   1  17
INPUT-LIGAND-PDBQT: TORSDOF 5


    FINAL DOCKED STATE:
    ________________________


Run:   1 / 20
Time taken for this run:   0.025s

DOCKED: MODEL        1
DOCKED: USER    Run = 1
DOCKED: USER
DOCKED: USER    Estimated Free Energy of Binding    =  -8.55 kcal/mol  [=(1)+(2)+(3)-(4)]
DOCKED: USER
DOCKED: USER    (1) Final Intermolecular Energy     = -10.04 kcal/mol
DOCKED: USER        vdW + Hbond + desolv Energy     =  -9.76 kcal/mol
DOCKED: USER        Electrostatic Energy            =  -0.29 kcal/mol
DOCKED: USER        Moving Ligand-Fixed Receptor    = -10.04 kcal/mol
DOCKED: USER        Moving Ligand-Moving Receptor   =  +0.00 kcal/mol
DOCKED: USER    (2) Final Total Internal Energy     =  -1.90 kcal/mol
DOCKED: USER    (3) Torsional Free Energy           =  +1.49 kcal/mol
DOCKED: USER    (4) Unbound System's Energy         =  -1.90 kcal/mol
DOCKED: USER
DOCKED: USER
DOCKED: REMARK SMILES O=C(NCC(=O)N1CCC[C@H]1C1CCOCC1)c1ccc2cc(F)ccc2n1
DOCKED: REMARK SMILES IDX 4 1 3 2 2 3 1 4 18 6 19 7 28 8 20 9 27 10 21 11 26 12 22 13
DOCKED: REMARK SMILES IDX 25 14 23 15 24 16 5 17 6 18 7 19 8 20 11 21 9 22 10 23 12 24
DOCKED: REMARK SMILES IDX 13 25 17 26 14 27 16 28 15 29
DOCKED: REMARK H PARENT 3 5
DOCKED: USER                              x       y       z     vdW  Elec       q    Type
DOCKED: USER                           _______ _______ _______ _____ _____    ______ ____
DOCKED: ROOT
DOCKED: ATOM      1  C   UNL     1     139.890  73.580 220.944 -0.14 -0.04    +0.216 C  
DOCKED: ENDROOT
DOCKED: BRANCH   1   2
DOCKED: ATOM      2  N   UNL     1     139.789  72.903 222.218 -0.16 +0.05    -0.342 N  
DOCKED: ATOM      3  C   UNL     1     139.965  71.506 222.253 -0.18 -0.04    +0.270 C  
DOCKED: ATOM      4  O   UNL     1     140.200  70.908 221.180 -0.09 +0.04    -0.268 OA 
DOCKED: ATOM      5  H   UNL     1     139.592  73.412 223.119 -0.46 -0.04    +0.164 HD 
DOCKED: BRANCH   3   6
DOCKED: ATOM      6  C   UNL     1     139.872  70.780 223.518 -0.28 -0.02    +0.128 A  
DOCKED: ATOM      7  C   UNL     1     139.260  69.524 223.526 -0.24 -0.01    +0.035 A  
DOCKED: ATOM      8  N   UNL     1     140.360  71.294 224.653 -0.30 +0.04    -0.243 NA 
DOCKED: ATOM      9  C   UNL     1     139.170  68.839 224.708 -0.38 -0.00    +0.013 A  
DOCKED: ATOM     10  C   UNL     1     140.292  70.651 225.846 -0.50 -0.01    +0.071 A  
DOCKED: ATOM     11  C   UNL     1     139.683  69.397 225.860 -0.47 -0.00    +0.003 A  
DOCKED: ATOM     12  C   UNL     1     140.810  71.222 226.992 -0.68 -0.01    +0.032 A  
DOCKED: ATOM     13  C   UNL     1     139.594  68.706 227.061 -0.54 -0.01    +0.049 A  
DOCKED: ATOM     14  C   UNL     1     140.716  70.523 228.188 -0.58 -0.01    +0.041 A  
DOCKED: ATOM     15  C   UNL     1     140.111  69.272 228.218 -0.53 -0.02    +0.123 A  
DOCKED: ATOM     16  F   UNL     1     140.006  68.572 229.358 -0.04 +0.03    -0.207 F  
DOCKED: ENDBRANCH   3   6
DOCKED: ENDBRANCH   1   2
DOCKED: BRANCH   1  17
DOCKED: ATOM     17  C   UNL     1     140.644  74.868 221.179 -0.21 -0.05    +0.242 C  
DOCKED: ATOM     18  O   UNL     1     140.531  75.341 222.335 -0.55 +0.02    -0.273 OA 
DOCKED: BRANCH  17  19
DOCKED: ATOM     19  N   UNL     1     141.396  75.436 220.132 -0.08 +0.12    -0.338 N  
DOCKED: ATOM     20  C   UNL     1     140.963  76.641 219.377 -0.12 -0.05    +0.120 C  
DOCKED: ATOM     21  C   UNL     1     142.655  75.117 219.526 -0.25 -0.04    +0.088 C  
DOCKED: ATOM     22  C   UNL     1     142.205  77.492 219.493 -0.31 -0.02    +0.024 C  
DOCKED: ATOM     23  C   UNL     1     143.334  76.471 219.568 -0.36 -0.02    +0.027 C  
DOCKED: BRANCH  21  24
DOCKED: ATOM     24  C   UNL     1     143.438  73.997 220.086 -0.34 -0.00    +0.016 C  
DOCKED: ATOM     25  C   UNL     1     144.868  74.458 220.467 -0.45 -0.01    +0.034 C  
DOCKED: ATOM     26  C   UNL     1     143.640  72.860 219.100 -0.19 -0.00    +0.034 C  
DOCKED: ATOM     27  C   UNL     1     145.597  73.161 220.835 -0.51 -0.02    +0.160 C  
DOCKED: ATOM     28  C   UNL     1     145.068  72.791 218.614 -0.20 +0.04    +0.160 C  
DOCKED: ATOM     29  O   UNL     1     145.998  72.606 219.626 -0.62 -0.22    -0.381 OA 
DOCKED: ENDBRANCH  21  24
DOCKED: ENDBRANCH  17  19
DOCKED: ENDBRANCH   1  17
DOCKED: TORSDOF 5
DOCKED: TER
DOCKED: ENDMDL
________________________________________________________________________________


    FINAL DOCKED STATE:
    ________________________


Run:   2 / 20
Time taken for this run:   0.025s

DOCKED: MODEL        2
DOCKED: USER    Run = 2
DOCKED: USER
DOCKED: USER    Estimated Free Energy of Binding    =  -8.54 kcal/mol  [=(1)+(2)+(3)-(4)]
DOCKED: USER
DOCKED: USER    (1) Final Intermolecular Energy     = -10.04 kcal/mol
DOCKED: USER        vdW + Hbond + desolv Energy     =  -9.74 kcal/mol
DOCKED: USER        Electrostatic Energy            =  -0.29 kcal/mol
DOCKED: USER        Moving Ligand-Fixed Receptor    = -10.04 kcal/mol
DOCKED: USER        Moving Ligand-Moving Receptor   =  +0.00 kcal/mol
DOCKED: USER    (2) Final Total Internal Energy     =  -1.90 kcal/mol
DOCKED: USER    (3) Torsional Free Energy           =  +1.49 kcal/mol
DOCKED: USER    (4) Unbound System's Energy         =  -1.90 kcal/mol
DOCKED: USER
DOCKED: USER
DOCKED: REMARK SMILES O=C(NCC(=O)N1CCC[C@H]1C1CCOCC1)c1ccc2cc(F)ccc2n1
DOCKED: REMARK SMILES IDX 4 1 3 2 2 3 1 4 18 6 19 7 28 8 20 9 27 10 21 11 26 12 22 13
DOCKED: REMARK SMILES IDX 25 14 23 15 24 16 5 17 6 18 7 19 8 20 11 21 9 22 10 23 12 24
DOCKED: REMARK SMILES IDX 13 25 17 26 14 27 16 28 15 29
DOCKED: REMARK H PARENT 3 5
DOCKED: USER                              x       y       z     vdW  Elec       q    Type
DOCKED: USER                           _______ _______ _______ _____ _____    ______ ____
DOCKED: ROOT
DOCKED: ATOM      1  C   UNL     1     139.866  73.624 220.944 -0.14 -0.04    +0.216 C  
DOCKED: ENDROOT
DOCKED: BRANCH   1   2
DOCKED: ATOM      2  N   UNL     1     139.773  72.941 222.215 -0.16 +0.06    -0.342 N  
DOCKED: ATOM      3  C   UNL     1     139.945  71.544 222.241 -0.18 -0.04    +0.270 C  
DOCKED: ATOM      4  O   UNL     1     140.170  70.950 221.164 -0.09 +0.04    -0.268 OA 
DOCKED: ATOM      5  H   UNL     1     139.583  73.446 223.120 -0.47 -0.04    +0.164 HD 
DOCKED: BRANCH   3   6
DOCKED: ATOM      6  C   UNL     1     139.860  70.811 223.504 -0.28 -0.02    +0.128 A  
DOCKED: ATOM      7  C   UNL     1     139.273  69.543 223.503 -0.24 -0.01    +0.035 A  
DOCKED: ATOM      8  N   UNL     1     140.332  71.331 224.643 -0.30 +0.04    -0.243 NA 
DOCKED: ATOM      9  C   UNL     1     139.191  68.852 224.682 -0.37 -0.00    +0.013 A  
DOCKED: ATOM     10  C   UNL     1     140.270  70.682 225.833 -0.50 -0.01    +0.071 A  
DOCKED: ATOM     11  C   UNL     1     139.686  69.416 225.839 -0.47 -0.00    +0.003 A  
DOCKED: ATOM     12  C   UNL     1     140.770  71.259 226.984 -0.69 -0.01    +0.032 A  
DOCKED: ATOM     13  C   UNL     1     139.605  68.719 227.038 -0.54 -0.01    +0.049 A  
DOCKED: ATOM     14  C   UNL     1     140.684  70.553 228.177 -0.59 -0.01    +0.041 A  
DOCKED: ATOM     15  C   UNL     1     140.104  69.291 228.199 -0.53 -0.02    +0.123 A  
DOCKED: ATOM     16  F   UNL     1     140.007  68.585 229.336 -0.04 +0.03    -0.207 F  
DOCKED: ENDBRANCH   3   6
DOCKED: ENDBRANCH   1   2
DOCKED: BRANCH   1  17
DOCKED: ATOM     17  C   UNL     1     140.655  74.892 221.173 -0.21 -0.05    +0.242 C  
DOCKED: ATOM     18  O   UNL     1     140.592  75.347 222.340 -0.53 +0.02    -0.273 OA 
DOCKED: BRANCH  17  19
DOCKED: ATOM     19  N   UNL     1     141.381  75.463 220.110 -0.08 +0.12    -0.338 N  
DOCKED: ATOM     20  C   UNL     1     140.938  76.680 219.379 -0.12 -0.05    +0.120 C  
DOCKED: ATOM     21  C   UNL     1     142.617  75.137 219.463 -0.24 -0.04    +0.088 C  
DOCKED: ATOM     22  C   UNL     1     142.192  77.516 219.466 -0.30 -0.02    +0.024 C  
DOCKED: ATOM     23  C   UNL     1     143.311  76.483 219.497 -0.37 -0.02    +0.027 C  
DOCKED: BRANCH  21  24
DOCKED: ATOM     24  C   UNL     1     143.406  74.003 219.989 -0.33 -0.00    +0.016 C  
DOCKED: ATOM     25  C   UNL     1     144.800  74.476 220.473 -0.45 -0.01    +0.034 C  
DOCKED: ATOM     26  C   UNL     1     143.690  72.941 218.943 -0.18 -0.00    +0.034 C  
DOCKED: ATOM     27  C   UNL     1     145.548  73.178 220.792 -0.51 -0.02    +0.160 C  
DOCKED: ATOM     28  C   UNL     1     145.143  72.942 218.528 -0.20 +0.04    +0.160 C  
DOCKED: ATOM     29  O   UNL     1     146.026  72.716 219.573 -0.64 -0.23    -0.381 OA 
DOCKED: ENDBRANCH  21  24
DOCKED: ENDBRANCH  17  19
DOCKED: ENDBRANCH   1  17
DOCKED: TORSDOF 5
DOCKED: TER
DOCKED: ENDMDL
________________________________________________________________________________


    FINAL DOCKED STATE:
    ________________________


Run:   3 / 20
Time taken for this run:   0.025s

DOCKED: MODEL        3
DOCKED: USER    Run = 3
DOCKED: USER
DOCKED: USER    Estimated Free Energy of Binding    =  -8.68 kcal/mol  [=(1)+(2)+(3)-(4)]
DOCKED: USER
DOCKED: USER    (1) Final Intermolecular Energy     = -10.17 kcal/mol
DOCKED: USER        vdW + Hbond + desolv Energy     = -10.10 kcal/mol
DOCKED: USER        Electrostatic Energy            =  -0.07 kcal/mol
DOCKED: USER        Moving Ligand-Fixed Receptor    = -10.17 kcal/mol
DOCKED: USER        Moving Ligand-Moving Receptor   =  +0.00 kcal/mol
DOCKED: USER    (2) Final Total Internal Energy     =  -1.20 kcal/mol
DOCKED: USER    (3) Torsional Free Energy           =  +1.49 kcal/mol
DOCKED: USER    (4) Unbound System's Energy         =  -1.20 kcal/mol
DOCKED: USER
DOCKED: USER
DOCKED: REMARK SMILES O=C(NCC(=O)N1CCC[C@H]1C1CCOCC1)c1ccc2cc(F)ccc2n1
DOCKED: REMARK SMILES IDX 4 1 3 2 2 3 1 4 18 6 19 7 28 8 20 9 27 10 21 11 26 12 22 13
DOCKED: REMARK SMILES IDX 25 14 23 15 24 16 5 17 6 18 7 19 8 20 11 21 9 22 10 23 12 24
DOCKED: REMARK SMILES IDX 13 25 17 26 14 27 16 28 15 29
DOCKED: REMARK H PARENT 3 5
DOCKED: USER                              x       y       z     vdW  Elec       q    Type
DOCKED: USER                           _______ _______ _______ _____ _____    ______ ____
DOCKED: ROOT
DOCKED: ATOM      1  C   UNL     1     139.644  74.401 221.176 -0.17 -0.04    +0.216 C  
DOCKED: ENDROOT
DOCKED: BRANCH   1   2
DOCKED: ATOM      2  N   UNL     1     139.471  73.535 222.322 -0.12 +0.07    -0.342 N  
DOCKED: ATOM      3  C   UNL     1     140.359  72.455 222.487 -0.20 -0.03    +0.270 C  
DOCKED: ATOM      4  O   UNL     1     141.260  72.288 221.637 -0.20 +0.02    -0.268 OA 
DOCKED: ATOM      5  H   UNL     1     138.710  73.681 223.036 -0.54 -0.10    +0.164 HD 
DOCKED: BRANCH   3   6
DOCKED: ATOM      6  C   UNL     1     140.222  71.553 223.630 -0.33 -0.02    +0.128 A  
DOCKED: ATOM      7  C   UNL     1     139.596  70.319 223.438 -0.28 -0.01    +0.035 A  
DOCKED: ATOM      8  N   UNL     1     140.685  71.889 224.840 -0.28 +0.03    -0.243 NA 
DOCKED: ATOM      9  C   UNL     1     139.466  69.471 224.505 -0.34 -0.00    +0.013 A  
DOCKED: ATOM     10  C   UNL     1     140.577  71.080 225.924 -0.55 -0.01    +0.071 A  
DOCKED: ATOM     11  C   UNL     1     139.953  69.847 225.739 -0.47 -0.00    +0.003 A  
DOCKED: ATOM     12  C   UNL     1     141.070  71.470 227.155 -0.73 -0.01    +0.032 A  
DOCKED: ATOM     13  C   UNL     1     139.823  68.990 226.824 -0.53 -0.01    +0.049 A  
DOCKED: ATOM     14  C   UNL     1     140.934  70.605 228.233 -0.57 -0.01    +0.041 A  
DOCKED: ATOM     15  C   UNL     1     140.315  69.373 228.064 -0.53 -0.02    +0.123 A  
DOCKED: ATOM     16  F   UNL     1     140.170  68.516 229.086 -0.15 +0.04    -0.207 F  
DOCKED: ENDBRANCH   3   6
DOCKED: ENDBRANCH   1   2
DOCKED: BRANCH   1  17
DOCKED: ATOM     17  C   UNL     1     140.231  75.699 221.680 -0.24 -0.05    +0.242 C  
DOCKED: ATOM     18  O   UNL     1     141.432  75.631 222.034 -0.34 +0.09    -0.273 OA 
DOCKED: BRANCH  17  19
DOCKED: ATOM     19  N   UNL     1     139.430  76.857 221.721 -0.12 +0.08    -0.338 N  
DOCKED: ATOM     20  C   UNL     1     137.961  76.842 221.492 -0.15 -0.02    +0.120 C  
DOCKED: ATOM     21  C   UNL     1     139.698  78.242 221.971 -0.26 -0.02    +0.088 C  
DOCKED: ATOM     22  C   UNL     1     137.491  77.594 222.714 -0.23 -0.00    +0.024 C  
DOCKED: ATOM     23  C   UNL     1     138.643  78.543 223.016 -0.27 -0.00    +0.027 C  
DOCKED: BRANCH  21  24
DOCKED: ATOM     24  C   UNL     1     141.077  78.636 222.329 -0.44 -0.01    +0.016 C  
DOCKED: ATOM     25  C   UNL     1     141.108  79.351 223.704 -0.55 -0.01    +0.034 C  
DOCKED: ATOM     26  C   UNL     1     141.684  79.628 221.354 -0.38 -0.02    +0.034 C  
DOCKED: ATOM     27  C   UNL     1     142.548  79.861 223.830 -0.43 -0.04    +0.160 C  
DOCKED: ATOM     28  C   UNL     1     141.804  81.005 221.964 -0.38 -0.04    +0.160 C  
DOCKED: ATOM     29  O   UNL     1     142.584  81.048 223.109 -0.32 +0.08    -0.381 OA 
DOCKED: ENDBRANCH  21  24
DOCKED: ENDBRANCH  17  19
DOCKED: ENDBRANCH   1  17
DOCKED: TORSDOF 5
DOCKED: TER
DOCKED: ENDMDL
________________________________________________________________________________


    FINAL DOCKED STATE:
    ________________________


Run:   4 / 20
Time taken for this run:   0.025s

DOCKED: MODEL        4
DOCKED: USER    Run = 4
DOCKED: USER
DOCKED: USER    Estimated Free Energy of Binding    =  -8.71 kcal/mol  [=(1)+(2)+(3)-(4)]
DOCKED: USER
DOCKED: USER    (1) Final Intermolecular Energy     = -10.20 kcal/mol
DOCKED: USER        vdW + Hbond + desolv Energy     = -10.11 kcal/mol
DOCKED: USER        Electrostatic Energy            =  -0.09 kcal/mol
DOCKED: USER        Moving Ligand-Fixed Receptor    = -10.20 kcal/mol
DOCKED: USER        Moving Ligand-Moving Receptor   =  +0.00 kcal/mol
DOCKED: USER    (2) Final Total Internal Energy     =  -1.69 kcal/mol
DOCKED: USER    (3) Torsional Free Energy           =  +1.49 kcal/mol
DOCKED: USER    (4) Unbound System's Energy         =  -1.69 kcal/mol
DOCKED: USER
DOCKED: USER
DOCKED: REMARK SMILES O=C(NCC(=O)N1CCC[C@H]1C1CCOCC1)c1ccc2cc(F)ccc2n1
DOCKED: REMARK SMILES IDX 4 1 3 2 2 3 1 4 18 6 19 7 28 8 20 9 27 10 21 11 26 12 22 13
DOCKED: REMARK SMILES IDX 25 14 23 15 24 16 5 17 6 18 7 19 8 20 11 21 9 22 10 23 12 24
DOCKED: REMARK SMILES IDX 13 25 17 26 14 27 16 28 15 29
DOCKED: REMARK H PARENT 3 5
DOCKED: USER                              x       y       z     vdW  Elec       q    Type
DOCKED: USER                           _______ _______ _______ _____ _____    ______ ____
DOCKED: ROOT
DOCKED: ATOM      1  C   UNL     1     140.212  74.550 221.168 -0.20 -0.04    +0.216 C  
DOCKED: ENDROOT
DOCKED: BRANCH   1   2
DOCKED: ATOM      2  N   UNL     1     139.993  73.739 222.345 -0.07 +0.02    -0.342 N  
DOCKED: ATOM      3  C   UNL     1     140.429  72.400 222.329 -0.21 -0.03    +0.270 C  
DOCKED: ATOM      4  O   UNL     1     140.986  71.967 221.296 -0.15 +0.03    -0.268 OA 
DOCKED: ATOM      5  H   UNL     1     139.524  74.109 223.212 -0.50 -0.02    +0.164 HD 
DOCKED: BRANCH   3   6
DOCKED: ATOM      6  C   UNL     1     140.228  71.542 223.496 -0.33 -0.02    +0.128 A  
DOCKED: ATOM      7  C   UNL     1     139.567  70.323 223.326 -0.27 -0.01    +0.035 A  
DOCKED: ATOM      8  N   UNL     1     140.666  71.904 224.708 -0.25 +0.03    -0.243 NA 
DOCKED: ATOM      9  C   UNL     1     139.377  69.517 224.415 -0.34 -0.00    +0.013 A  
DOCKED: ATOM     10  C   UNL     1     140.499  71.135 225.814 -0.54 -0.01    +0.071 A  
DOCKED: ATOM     11  C   UNL     1     139.840  69.918 225.650 -0.46 -0.00    +0.003 A  
DOCKED: ATOM     12  C   UNL     1     140.968  71.551 227.045 -0.73 -0.01    +0.032 A  
DOCKED: ATOM     13  C   UNL     1     139.650  69.103 226.759 -0.51 -0.01    +0.049 A  
DOCKED: ATOM     14  C   UNL     1     140.772  70.728 228.146 -0.61 -0.01    +0.041 A  
DOCKED: ATOM     15  C   UNL     1     140.117  69.511 227.999 -0.52 -0.02    +0.123 A  
DOCKED: ATOM     16  F   UNL     1     139.914  68.695 229.044 -0.14 +0.03    -0.207 F  
DOCKED: ENDBRANCH   3   6
DOCKED: ENDBRANCH   1   2
DOCKED: BRANCH   1  17
DOCKED: ATOM     17  C   UNL     1     140.491  75.959 221.639 -0.25 -0.06    +0.242 C  
DOCKED: ATOM     18  O   UNL     1     139.857  76.305 222.665 -0.34 +0.05    -0.273 OA 
DOCKED: BRANCH  17  19
DOCKED: ATOM     19  N   UNL     1     141.404  76.763 220.931 -0.13 +0.17    -0.338 N  
DOCKED: ATOM     20  C   UNL     1     142.203  76.269 219.779 -0.26 -0.06    +0.120 C  
DOCKED: ATOM     21  C   UNL     1     141.816  78.131 221.040 -0.27 -0.05    +0.088 C  
DOCKED: ATOM     22  C   UNL     1     141.890  77.337 218.758 -0.24 -0.01    +0.024 C  
DOCKED: ATOM     23  C   UNL     1     141.656  78.584 219.603 -0.26 -0.02    +0.027 C  
DOCKED: BRANCH  21  24
DOCKED: ATOM     24  C   UNL     1     141.155  78.984 222.050 -0.41 -0.01    +0.016 C  
DOCKED: ATOM     25  C   UNL     1     141.260  80.481 221.664 -0.38 -0.01    +0.034 C  
DOCKED: ATOM     26  C   UNL     1     141.796  78.884 223.423 -0.59 -0.01    +0.034 C  
DOCKED: ATOM     27  C   UNL     1     140.716  81.224 222.889 -0.33 -0.02    +0.160 C  
DOCKED: ATOM     28  C   UNL     1     142.556  80.141 223.775 -0.52 -0.04    +0.160 C  
DOCKED: ATOM     29  O   UNL     1     141.775  81.286 223.786 -0.31 +0.05    -0.381 OA 
DOCKED: ENDBRANCH  21  24
DOCKED: ENDBRANCH  17  19
DOCKED: ENDBRANCH   1  17
DOCKED: TORSDOF 5
DOCKED: TER
DOCKED: ENDMDL
________________________________________________________________________________


    FINAL DOCKED STATE:
    ________________________


Run:   5 / 20
Time taken for this run:   0.025s

DOCKED: MODEL        5
DOCKED: USER    Run = 5
DOCKED: USER
DOCKED: USER    Estimated Free Energy of Binding    =  -8.48 kcal/mol  [=(1)+(2)+(3)-(4)]
DOCKED: USER
DOCKED: USER    (1) Final Intermolecular Energy     =  -9.97 kcal/mol
DOCKED: USER        vdW + Hbond + desolv Energy     =  -9.71 kcal/mol
DOCKED: USER        Electrostatic Energy            =  -0.27 kcal/mol
DOCKED: USER        Moving Ligand-Fixed Receptor    =  -9.97 kcal/mol
DOCKED: USER        Moving Ligand-Moving Receptor   =  +0.00 kcal/mol
DOCKED: USER    (2) Final Total Internal Energy     =  -1.94 kcal/mol
DOCKED: USER    (3) Torsional Free Energy           =  +1.49 kcal/mol
DOCKED: USER    (4) Unbound System's Energy         =  -1.94 kcal/mol
DOCKED: USER
DOCKED: USER
DOCKED: REMARK SMILES O=C(NCC(=O)N1CCC[C@H]1C1CCOCC1)c1ccc2cc(F)ccc2n1
DOCKED: REMARK SMILES IDX 4 1 3 2 2 3 1 4 18 6 19 7 28 8 20 9 27 10 21 11 26 12 22 13
DOCKED: REMARK SMILES IDX 25 14 23 15 24 16 5 17 6 18 7 19 8 20 11 21 9 22 10 23 12 24
DOCKED: REMARK SMILES IDX 13 25 17 26 14 27 16 28 15 29
DOCKED: REMARK H PARENT 3 5
DOCKED: USER                              x       y       z     vdW  Elec       q    Type
DOCKED: USER                           _______ _______ _______ _____ _____    ______ ____
DOCKED: ROOT
DOCKED: ATOM      1  C   UNL     1     139.934  73.552 220.963 -0.14 -0.04    +0.216 C  
DOCKED: ENDROOT
DOCKED: BRANCH   1   2
DOCKED: ATOM      2  N   UNL     1     139.832  72.882 222.241 -0.16 +0.05    -0.342 N  
DOCKED: ATOM      3  C   UNL     1     139.968  71.481 222.278 -0.18 -0.04    +0.270 C  
DOCKED: ATOM      4  O   UNL     1     140.171  70.873 221.205 -0.09 +0.04    -0.268 OA 
DOCKED: ATOM      5  H   UNL     1     139.661  73.400 223.143 -0.43 -0.03    +0.164 HD 
DOCKED: BRANCH   3   6
DOCKED: ATOM      6  C   UNL     1     139.872  70.762 223.548 -0.28 -0.02    +0.128 A  
DOCKED: ATOM      7  C   UNL     1     139.296  69.489 223.554 -0.24 -0.01    +0.035 A  
DOCKED: ATOM      8  N   UNL     1     140.325  71.298 224.687 -0.30 +0.04    -0.243 NA 
DOCKED: ATOM      9  C   UNL     1     139.204  68.811 224.739 -0.38 -0.00    +0.013 A  
DOCKED: ATOM     10  C   UNL     1     140.253  70.662 225.883 -0.50 -0.01    +0.071 A  
DOCKED: ATOM     11  C   UNL     1     139.679  69.392 225.896 -0.47 -0.00    +0.003 A  
DOCKED: ATOM     12  C   UNL     1     140.733  71.257 227.035 -0.69 -0.01    +0.032 A  
DOCKED: ATOM     13  C   UNL     1     139.588  68.708 227.102 -0.54 -0.01    +0.049 A  
DOCKED: ATOM     14  C   UNL     1     140.637  70.564 228.234 -0.58 -0.01    +0.041 A  
DOCKED: ATOM     15  C   UNL     1     140.067  69.297 228.263 -0.52 -0.02    +0.123 A  
DOCKED: ATOM     16  F   UNL     1     139.961  68.603 229.406 -0.02 +0.03    -0.207 F  
DOCKED: ENDBRANCH   3   6
DOCKED: ENDBRANCH   1   2
DOCKED: BRANCH   1  17
DOCKED: ATOM     17  C   UNL     1     140.627  74.873 221.203 -0.21 -0.05    +0.242 C  
DOCKED: ATOM     18  O   UNL     1     140.449  75.360 222.345 -0.56 +0.02    -0.273 OA 
DOCKED: BRANCH  17  19
DOCKED: ATOM     19  N   UNL     1     141.396  75.454 220.176 -0.08 +0.12    -0.338 N  
DOCKED: ATOM     20  C   UNL     1     140.957  76.645 219.402 -0.12 -0.05    +0.120 C  
DOCKED: ATOM     21  C   UNL     1     142.679  75.161 219.609 -0.26 -0.04    +0.088 C  
DOCKED: ATOM     22  C   UNL     1     142.176  77.524 219.550 -0.30 -0.02    +0.024 C  
DOCKED: ATOM     23  C   UNL     1     143.325  76.530 219.663 -0.34 -0.02    +0.027 C  
DOCKED: BRANCH  21  24
DOCKED: ATOM     24  C   UNL     1     143.471  74.062 220.198 -0.35 -0.00    +0.016 C  
DOCKED: ATOM     25  C   UNL     1     144.932  74.511 220.458 -0.43 -0.01    +0.034 C  
DOCKED: ATOM     26  C   UNL     1     143.586  72.855 219.284 -0.20 -0.00    +0.034 C  
DOCKED: ATOM     27  C   UNL     1     145.653  73.223 220.872 -0.52 -0.02    +0.160 C  
DOCKED: ATOM     28  C   UNL     1     144.980  72.715 218.719 -0.20 +0.03    +0.160 C  
DOCKED: ATOM     29  O   UNL     1     145.967  72.576 219.683 -0.60 -0.20    -0.381 OA 
DOCKED: ENDBRANCH  21  24
DOCKED: ENDBRANCH  17  19
DOCKED: ENDBRANCH   1  17
DOCKED: TORSDOF 5
DOCKED: TER
DOCKED: ENDMDL
________________________________________________________________________________


    FINAL DOCKED STATE:
    ________________________


Run:   6 / 20
Time taken for this run:   0.025s

DOCKED: MODEL        6
DOCKED: USER    Run = 6
DOCKED: USER
DOCKED: USER    Estimated Free Energy of Binding    =  -8.55 kcal/mol  [=(1)+(2)+(3)-(4)]
DOCKED: USER
DOCKED: USER    (1) Final Intermolecular Energy     = -10.04 kcal/mol
DOCKED: USER        vdW + Hbond + desolv Energy     =  -9.72 kcal/mol
DOCKED: USER        Electrostatic Energy            =  -0.32 kcal/mol
DOCKED: USER        Moving Ligand-Fixed Receptor    = -10.04 kcal/mol
DOCKED: USER        Moving Ligand-Moving Receptor   =  +0.00 kcal/mol
DOCKED: USER    (2) Final Total Internal Energy     =  -1.89 kcal/mol
DOCKED: USER    (3) Torsional Free Energy           =  +1.49 kcal/mol
DOCKED: USER    (4) Unbound System's Energy         =  -1.89 kcal/mol
DOCKED: USER
DOCKED: USER
DOCKED: REMARK SMILES O=C(NCC(=O)N1CCC[C@H]1C1CCOCC1)c1ccc2cc(F)ccc2n1
DOCKED: REMARK SMILES IDX 4 1 3 2 2 3 1 4 18 6 19 7 28 8 20 9 27 10 21 11 26 12 22 13
DOCKED: REMARK SMILES IDX 25 14 23 15 24 16 5 17 6 18 7 19 8 20 11 21 9 22 10 23 12 24
DOCKED: REMARK SMILES IDX 13 25 17 26 14 27 16 28 15 29
DOCKED: REMARK H PARENT 3 5
DOCKED: USER                              x       y       z     vdW  Elec       q    Type
DOCKED: USER                           _______ _______ _______ _____ _____    ______ ____
DOCKED: ROOT
DOCKED: ATOM      1  C   UNL     1     139.924  73.585 220.945 -0.14 -0.04    +0.216 C  
DOCKED: ENDROOT
DOCKED: BRANCH   1   2
DOCKED: ATOM      2  N   UNL     1     139.815  72.907 222.217 -0.16 +0.05    -0.342 N  
DOCKED: ATOM      3  C   UNL     1     139.989  71.510 222.251 -0.18 -0.04    +0.270 C  
DOCKED: ATOM      4  O   UNL     1     140.229  70.913 221.179 -0.09 +0.04    -0.268 OA 
DOCKED: ATOM      5  H   UNL     1     139.613  73.415 223.118 -0.45 -0.03    +0.164 HD 
DOCKED: BRANCH   3   6
DOCKED: ATOM      6  C   UNL     1     139.888  70.782 223.515 -0.28 -0.02    +0.128 A  
DOCKED: ATOM      7  C   UNL     1     139.276  69.526 223.518 -0.24 -0.01    +0.035 A  
DOCKED: ATOM      8  N   UNL     1     140.370  71.295 224.654 -0.30 +0.04    -0.243 NA 
DOCKED: ATOM      9  C   UNL     1     139.179  68.840 224.698 -0.37 -0.00    +0.013 A  
DOCKED: ATOM     10  C   UNL     1     140.295  70.650 225.845 -0.50 -0.01    +0.071 A  
DOCKED: ATOM     11  C   UNL     1     139.685  69.397 225.854 -0.47 -0.00    +0.003 A  
DOCKED: ATOM     12  C   UNL     1     140.806  71.220 226.995 -0.68 -0.01    +0.032 A  
DOCKED: ATOM     13  C   UNL     1     139.588  68.705 227.054 -0.54 -0.01    +0.049 A  
DOCKED: ATOM     14  C   UNL     1     140.704  70.519 228.190 -0.58 -0.01    +0.041 A  
DOCKED: ATOM     15  C   UNL     1     140.099  69.269 228.214 -0.53 -0.02    +0.123 A  
DOCKED: ATOM     16  F   UNL     1     139.987  68.568 229.353 -0.04 +0.03    -0.207 F  
DOCKED: ENDBRANCH   3   6
DOCKED: ENDBRANCH   1   2
DOCKED: BRANCH   1  17
DOCKED: ATOM     17  C   UNL     1     140.711  74.854 221.178 -0.21 -0.05    +0.242 C  
DOCKED: ATOM     18  O   UNL     1     140.647  75.305 222.347 -0.53 +0.02    -0.273 OA 
DOCKED: BRANCH  17  19
DOCKED: ATOM     19  N   UNL     1     141.436  75.430 220.117 -0.08 +0.12    -0.338 N  
DOCKED: ATOM     20  C   UNL     1     141.009  76.669 219.415 -0.13 -0.05    +0.120 C  
DOCKED: ATOM     21  C   UNL     1     142.658  75.092 219.450 -0.25 -0.04    +0.088 C  
DOCKED: ATOM     22  C   UNL     1     142.280  77.478 219.502 -0.30 -0.02    +0.024 C  
DOCKED: ATOM     23  C   UNL     1     143.379  76.423 219.501 -0.36 -0.02    +0.027 C  
DOCKED: BRANCH  21  24
DOCKED: ATOM     24  C   UNL     1     143.430  73.933 219.945 -0.33 -0.00    +0.016 C  
DOCKED: ATOM     25  C   UNL     1     144.819  74.377 220.469 -0.47 -0.01    +0.034 C  
DOCKED: ATOM     26  C   UNL     1     143.724  72.909 218.865 -0.17 -0.00    +0.034 C  
DOCKED: ATOM     27  C   UNL     1     145.552  73.062 220.752 -0.50 -0.01    +0.160 C  
DOCKED: ATOM     28  C   UNL     1     145.184  72.915 218.474 -0.20 +0.04    +0.160 C  
DOCKED: ATOM     29  O   UNL     1     146.048  72.642 219.524 -0.65 -0.26    -0.381 OA 
DOCKED: ENDBRANCH  21  24
DOCKED: ENDBRANCH  17  19
DOCKED: ENDBRANCH   1  17
DOCKED: TORSDOF 5
DOCKED: TER
DOCKED: ENDMDL
________________________________________________________________________________


    FINAL DOCKED STATE:
    ________________________


Run:   7 / 20
Time taken for this run:   0.025s

DOCKED: MODEL        7
DOCKED: USER    Run = 7
DOCKED: USER
DOCKED: USER    Estimated Free Energy of Binding    =  -8.61 kcal/mol  [=(1)+(2)+(3)-(4)]
DOCKED: USER
DOCKED: USER    (1) Final Intermolecular Energy     = -10.10 kcal/mol
DOCKED: USER        vdW + Hbond + desolv Energy     =  -9.76 kcal/mol
DOCKED: USER        Electrostatic Energy            =  -0.34 kcal/mol
DOCKED: USER        Moving Ligand-Fixed Receptor    = -10.10 kcal/mol
DOCKED: USER        Moving Ligand-Moving Receptor   =  +0.00 kcal/mol
DOCKED: USER    (2) Final Total Internal Energy     =  -1.53 kcal/mol
DOCKED: USER    (3) Torsional Free Energy           =  +1.49 kcal/mol
DOCKED: USER    (4) Unbound System's Energy         =  -1.53 kcal/mol
DOCKED: USER
DOCKED: USER
DOCKED: REMARK SMILES O=C(NCC(=O)N1CCC[C@H]1C1CCOCC1)c1ccc2cc(F)ccc2n1
DOCKED: REMARK SMILES IDX 4 1 3 2 2 3 1 4 18 6 19 7 28 8 20 9 27 10 21 11 26 12 22 13
DOCKED: REMARK SMILES IDX 25 14 23 15 24 16 5 17 6 18 7 19 8 20 11 21 9 22 10 23 12 24
DOCKED: REMARK SMILES IDX 13 25 17 26 14 27 16 28 15 29
DOCKED: REMARK H PARENT 3 5
DOCKED: USER                              x       y       z     vdW  Elec       q    Type
DOCKED: USER                           _______ _______ _______ _____ _____    ______ ____
DOCKED: ROOT
DOCKED: ATOM      1  C   UNL     1     139.697  73.763 220.787 -0.12 -0.04    +0.216 C  
DOCKED: ENDROOT
DOCKED: BRANCH   1   2
DOCKED: ATOM      2  N   UNL     1     139.463  73.030 222.012 -0.13 +0.07    -0.342 N  
DOCKED: ATOM      3  C   UNL     1     140.374  72.019 222.373 -0.21 -0.03    +0.270 C  
DOCKED: ATOM      4  O   UNL     1     141.346  71.795 221.620 -0.17 +0.03    -0.268 OA 
DOCKED: ATOM      5  H   UNL     1     138.642  73.224 222.643 -0.39 -0.07    +0.164 HD 
DOCKED: BRANCH   3   6
DOCKED: ATOM      6  C   UNL     1     140.178  71.252 223.603 -0.32 -0.02    +0.128 A  
DOCKED: ATOM      7  C   UNL     1     139.453  70.059 223.539 -0.27 -0.01    +0.035 A  
DOCKED: ATOM      8  N   UNL     1     140.678  71.670 224.771 -0.30 +0.03    -0.243 NA 
DOCKED: ATOM      9  C   UNL     1     139.267  69.337 224.687 -0.36 -0.00    +0.013 A  
DOCKED: ATOM     10  C   UNL     1     140.518  70.987 225.932 -0.54 -0.01    +0.071 A  
DOCKED: ATOM     11  C   UNL     1     139.796  69.796 225.875 -0.47 -0.00    +0.003 A  
DOCKED: ATOM     12  C   UNL     1     141.053  71.459 227.115 -0.73 -0.01    +0.032 A  
DOCKED: ATOM     13  C   UNL     1     139.609  69.067 227.043 -0.53 -0.01    +0.049 A  
DOCKED: ATOM     14  C   UNL     1     140.861  70.722 228.276 -0.58 -0.01    +0.041 A  
DOCKED: ATOM     15  C   UNL     1     140.143  69.533 228.235 -0.51 -0.02    +0.123 A  
DOCKED: ATOM     16  F   UNL     1     139.941  68.799 229.340 -0.01 +0.03    -0.207 F  
DOCKED: ENDBRANCH   3   6
DOCKED: ENDBRANCH   1   2
DOCKED: BRANCH   1  17
DOCKED: ATOM     17  C   UNL     1     140.632  74.904 221.118 -0.20 -0.05    +0.242 C  
DOCKED: ATOM     18  O   UNL     1     140.647  75.237 222.327 -0.54 +0.01    -0.273 OA 
DOCKED: BRANCH  17  19
DOCKED: ATOM     19  N   UNL     1     141.396  75.498 220.095 -0.08 +0.12    -0.338 N  
DOCKED: ATOM     20  C   UNL     1     140.990  76.743 219.392 -0.12 -0.05    +0.120 C  
DOCKED: ATOM     21  C   UNL     1     142.647  75.176 219.475 -0.25 -0.04    +0.088 C  
DOCKED: ATOM     22  C   UNL     1     142.251  77.559 219.541 -0.29 -0.02    +0.024 C  
DOCKED: ATOM     23  C   UNL     1     143.356  76.511 219.572 -0.34 -0.02    +0.027 C  
DOCKED: BRANCH  21  24
DOCKED: ATOM     24  C   UNL     1     143.405  74.016 219.987 -0.33 -0.00    +0.016 C  
DOCKED: ATOM     25  C   UNL     1     144.819  74.443 220.457 -0.46 -0.01    +0.034 C  
DOCKED: ATOM     26  C   UNL     1     143.645  72.950 218.933 -0.17 -0.00    +0.034 C  
DOCKED: ATOM     27  C   UNL     1     145.529  73.120 220.763 -0.50 -0.01    +0.160 C  
DOCKED: ATOM     28  C   UNL     1     145.093  72.908 218.502 -0.19 +0.03    +0.160 C  
DOCKED: ATOM     29  O   UNL     1     145.980  72.649 219.536 -0.65 -0.23    -0.381 OA 
DOCKED: ENDBRANCH  21  24
DOCKED: ENDBRANCH  17  19
DOCKED: ENDBRANCH   1  17
DOCKED: TORSDOF 5
DOCKED: TER
DOCKED: ENDMDL
________________________________________________________________________________


    FINAL DOCKED STATE:
    ________________________


Run:   8 / 20
Time taken for this run:   0.025s

DOCKED: MODEL        8
DOCKED: USER    Run = 8
DOCKED: USER
DOCKED: USER    Estimated Free Energy of Binding    =  -8.75 kcal/mol  [=(1)+(2)+(3)-(4)]
DOCKED: USER
DOCKED: USER    (1) Final Intermolecular Energy     = -10.24 kcal/mol
DOCKED: USER        vdW + Hbond + desolv Energy     = -10.13 kcal/mol
DOCKED: USER        Electrostatic Energy            =  -0.11 kcal/mol
DOCKED: USER        Moving Ligand-Fixed Receptor    = -10.24 kcal/mol
DOCKED: USER        Moving Ligand-Moving Receptor   =  +0.00 kcal/mol
DOCKED: USER    (2) Final Total Internal Energy     =  -1.63 kcal/mol
DOCKED: USER    (3) Torsional Free Energy           =  +1.49 kcal/mol
DOCKED: USER    (4) Unbound System's Energy         =  -1.63 kcal/mol
DOCKED: USER
DOCKED: USER
DOCKED: REMARK SMILES O=C(NCC(=O)N1CCC[C@H]1C1CCOCC1)c1ccc2cc(F)ccc2n1
DOCKED: REMARK SMILES IDX 4 1 3 2 2 3 1 4 18 6 19 7 28 8 20 9 27 10 21 11 26 12 22 13
DOCKED: REMARK SMILES IDX 25 14 23 15 24 16 5 17 6 18 7 19 8 20 11 21 9 22 10 23 12 24
DOCKED: REMARK SMILES IDX 13 25 17 26 14 27 16 28 15 29
DOCKED: REMARK H PARENT 3 5
DOCKED: USER                              x       y       z     vdW  Elec       q    Type
DOCKED: USER                           _______ _______ _______ _____ _____    ______ ____
DOCKED: ROOT
DOCKED: ATOM      1  C   UNL     1     140.208  74.500 221.130 -0.19 -0.04    +0.216 C  
DOCKED: ENDROOT
DOCKED: BRANCH   1   2
DOCKED: ATOM      2  N   UNL     1     139.954  73.691 222.302 -0.10 +0.03    -0.342 N  
DOCKED: ATOM      3  C   UNL     1     140.505  72.396 222.356 -0.20 -0.02    +0.270 C  
DOCKED: ATOM      4  O   UNL     1     141.191  71.999 221.389 -0.16 +0.03    -0.268 OA 
DOCKED: ATOM      5  H   UNL     1     139.376  74.031 223.114 -0.53 -0.05    +0.164 HD 
DOCKED: BRANCH   3   6
DOCKED: ATOM      6  C   UNL     1     140.275  71.542 223.521 -0.33 -0.02    +0.128 A  
DOCKED: ATOM      7  C   UNL     1     139.571  70.348 223.346 -0.27 -0.01    +0.035 A  
DOCKED: ATOM      8  N   UNL     1     140.724  71.884 224.734 -0.26 +0.03    -0.243 NA 
DOCKED: ATOM      9  C   UNL     1     139.353  69.545 224.433 -0.34 -0.00    +0.013 A  
DOCKED: ATOM     10  C   UNL     1     140.530  71.119 225.837 -0.54 -0.01    +0.071 A  
DOCKED: ATOM     11  C   UNL     1     139.829  69.926 225.670 -0.46 -0.00    +0.003 A  
DOCKED: ATOM     12  C   UNL     1     141.013  71.513 227.070 -0.73 -0.01    +0.032 A  
DOCKED: ATOM     13  C   UNL     1     139.610  69.114 226.775 -0.51 -0.01    +0.049 A  
DOCKED: ATOM     14  C   UNL     1     140.789  70.694 228.169 -0.60 -0.01    +0.041 A  
DOCKED: ATOM     15  C   UNL     1     140.091  69.502 228.017 -0.52 -0.02    +0.123 A  
DOCKED: ATOM     16  F   UNL     1     139.859  68.690 229.060 -0.12 +0.03    -0.207 F  
DOCKED: ENDBRANCH   3   6
DOCKED: ENDBRANCH   1   2
DOCKED: BRANCH   1  17
DOCKED: ATOM     17  C   UNL     1     140.424  75.919 221.603 -0.25 -0.06    +0.242 C  
DOCKED: ATOM     18  O   UNL     1     139.720  76.259 222.585 -0.34 +0.05    -0.273 OA 
DOCKED: BRANCH  17  19
DOCKED: ATOM     19  N   UNL     1     141.359  76.740 220.944 -0.13 +0.16    -0.338 N  
DOCKED: ATOM     20  C   UNL     1     142.162  76.287 219.777 -0.25 -0.06    +0.120 C  
DOCKED: ATOM     21  C   UNL     1     141.793  78.093 221.122 -0.26 -0.05    +0.088 C  
DOCKED: ATOM     22  C   UNL     1     141.879  77.408 218.806 -0.24 -0.01    +0.024 C  
DOCKED: ATOM     23  C   UNL     1     141.657  78.616 219.706 -0.27 -0.02    +0.027 C  
DOCKED: BRANCH  21  24
DOCKED: ATOM     24  C   UNL     1     141.137  78.909 222.165 -0.42 -0.01    +0.016 C  
DOCKED: ATOM     25  C   UNL     1     141.097  80.403 221.755 -0.37 -0.01    +0.034 C  
DOCKED: ATOM     26  C   UNL     1     141.874  78.882 223.491 -0.58 -0.01    +0.034 C  
DOCKED: ATOM     27  C   UNL     1     140.579  81.122 223.005 -0.32 -0.02    +0.160 C  
DOCKED: ATOM     28  C   UNL     1     142.554  80.201 223.777 -0.52 -0.04    +0.160 C  
DOCKED: ATOM     29  O   UNL     1     141.687  81.282 223.827 -0.30 +0.05    -0.381 OA 
DOCKED: ENDBRANCH  21  24
DOCKED: ENDBRANCH  17  19
DOCKED: ENDBRANCH   1  17
DOCKED: TORSDOF 5
DOCKED: TER
DOCKED: ENDMDL
________________________________________________________________________________


    FINAL DOCKED STATE:
    ________________________


Run:   9 / 20
Time taken for this run:   0.025s

DOCKED: MODEL        9
DOCKED: USER    Run = 9
DOCKED: USER
DOCKED: USER    Estimated Free Energy of Binding    =  -8.11 kcal/mol  [=(1)+(2)+(3)-(4)]
DOCKED: USER
DOCKED: USER    (1) Final Intermolecular Energy     =  -9.60 kcal/mol
DOCKED: USER        vdW + Hbond + desolv Energy     =  -9.37 kcal/mol
DOCKED: USER        Electrostatic Energy            =  -0.23 kcal/mol
DOCKED: USER        Moving Ligand-Fixed Receptor    =  -9.60 kcal/mol
DOCKED: USER        Moving Ligand-Moving Receptor   =  +0.00 kcal/mol
DOCKED: USER    (2) Final Total Internal Energy     =  -1.87 kcal/mol
DOCKED: USER    (3) Torsional Free Energy           =  +1.49 kcal/mol
DOCKED: USER    (4) Unbound System's Energy         =  -1.87 kcal/mol
DOCKED: USER
DOCKED: USER
DOCKED: REMARK SMILES O=C(NCC(=O)N1CCC[C@H]1C1CCOCC1)c1ccc2cc(F)ccc2n1
DOCKED: REMARK SMILES IDX 4 1 3 2 2 3 1 4 18 6 19 7 28 8 20 9 27 10 21 11 26 12 22 13
DOCKED: REMARK SMILES IDX 25 14 23 15 24 16 5 17 6 18 7 19 8 20 11 21 9 22 10 23 12 24
DOCKED: REMARK SMILES IDX 13 25 17 26 14 27 16 28 15 29
DOCKED: REMARK H PARENT 3 5
DOCKED: USER                              x       y       z     vdW  Elec       q    Type
DOCKED: USER                           _______ _______ _______ _____ _____    ______ ____
DOCKED: ROOT
DOCKED: ATOM      1  C   UNL     1     139.570  73.741 221.228 -0.16 -0.04    +0.216 C  
DOCKED: ENDROOT
DOCKED: BRANCH   1   2
DOCKED: ATOM      2  N   UNL     1     139.697  72.964 222.441 -0.14 +0.06    -0.342 N  
DOCKED: ATOM      3  C   UNL     1     139.506  71.571 222.370 -0.17 -0.05    +0.270 C  
DOCKED: ATOM      4  O   UNL     1     139.233  71.062 221.260 -0.06 +0.05    -0.268 OA 
DOCKED: ATOM      5  H   UNL     1     139.927  73.398 223.373 -0.37 -0.00    +0.164 HD 
DOCKED: BRANCH   3   6
DOCKED: ATOM      6  C   UNL     1     139.624  70.745 223.571 -0.28 -0.02    +0.128 A  
DOCKED: ATOM      7  C   UNL     1     139.122  69.441 223.539 -0.25 -0.01    +0.035 A  
DOCKED: ATOM      8  N   UNL     1     140.200  71.215 224.683 -0.30 +0.04    -0.243 NA 
DOCKED: ATOM      9  C   UNL     1     139.231  68.664 224.660 -0.37 -0.00    +0.013 A  
DOCKED: ATOM     10  C   UNL     1     140.328  70.480 225.817 -0.49 -0.01    +0.071 A  
DOCKED: ATOM     11  C   UNL     1     139.830  69.178 225.791 -0.48 -0.00    +0.003 A  
DOCKED: ATOM     12  C   UNL     1     140.931  71.007 226.943 -0.65 -0.01    +0.032 A  
DOCKED: ATOM     13  C   UNL     1     139.942  68.393 226.932 -0.60 -0.01    +0.049 A  
DOCKED: ATOM     14  C   UNL     1     141.038  70.214 228.077 -0.57 -0.01    +0.041 A  
DOCKED: ATOM     15  C   UNL     1     140.545  68.915 228.067 -0.54 -0.03    +0.123 A  
DOCKED: ATOM     16  F   UNL     1     140.635  68.124 229.147 -0.17 +0.05    -0.207 F  
DOCKED: ENDBRANCH   3   6
DOCKED: ENDBRANCH   1   2
DOCKED: BRANCH   1  17
DOCKED: ATOM     17  C   UNL     1     140.730  74.708 221.191 -0.21 -0.05    +0.242 C  
DOCKED: ATOM     18  O   UNL     1     141.076  75.157 222.310 -0.41 +0.02    -0.273 OA 
DOCKED: BRANCH  17  19
DOCKED: ATOM     19  N   UNL     1     141.327  75.034 219.958 -0.06 +0.10    -0.338 N  
DOCKED: ATOM     20  C   UNL     1     140.721  75.977 218.982 -0.07 -0.04    +0.120 C  
DOCKED: ATOM     21  C   UNL     1     142.546  74.646 219.310 -0.19 -0.03    +0.088 C  
DOCKED: ATOM     22  C   UNL     1     141.891  76.902 218.741 -0.22 -0.01    +0.024 C  
DOCKED: ATOM     23  C   UNL     1     143.105  76.004 218.938 -0.32 -0.01    +0.027 C  
DOCKED: BRANCH  21  24
DOCKED: ATOM     24  C   UNL     1     143.473  73.756 220.038 -0.33 -0.00    +0.016 C  
DOCKED: ATOM     25  C   UNL     1     144.838  74.451 220.273 -0.40 -0.01    +0.034 C  
DOCKED: ATOM     26  C   UNL     1     143.803  72.487 219.273 -0.21 -0.00    +0.034 C  
DOCKED: ATOM     27  C   UNL     1     145.730  73.345 220.847 -0.54 -0.01    +0.160 C  
DOCKED: ATOM     28  C   UNL     1     145.222  72.502 218.754 -0.21 +0.06    +0.160 C  
DOCKED: ATOM     29  O   UNL     1     146.182  72.626 219.747 -0.60 -0.25    -0.381 OA 
DOCKED: ENDBRANCH  21  24
DOCKED: ENDBRANCH  17  19
DOCKED: ENDBRANCH   1  17
DOCKED: TORSDOF 5
DOCKED: TER
DOCKED: ENDMDL
________________________________________________________________________________


    FINAL DOCKED STATE:
    ________________________


Run:   10 / 20
Time taken for this run:   0.025s

DOCKED: MODEL        10
DOCKED: USER    Run = 10
DOCKED: USER
DOCKED: USER    Estimated Free Energy of Binding    =  -8.55 kcal/mol  [=(1)+(2)+(3)-(4)]
DOCKED: USER
DOCKED: USER    (1) Final Intermolecular Energy     = -10.04 kcal/mol
DOCKED: USER        vdW + Hbond + desolv Energy     =  -9.75 kcal/mol
DOCKED: USER        Electrostatic Energy            =  -0.30 kcal/mol
DOCKED: USER        Moving Ligand-Fixed Receptor    = -10.04 kcal/mol
DOCKED: USER        Moving Ligand-Moving Receptor   =  +0.00 kcal/mol
DOCKED: USER    (2) Final Total Internal Energy     =  -1.89 kcal/mol
DOCKED: USER    (3) Torsional Free Energy           =  +1.49 kcal/mol
DOCKED: USER    (4) Unbound System's Energy         =  -1.89 kcal/mol
DOCKED: USER
DOCKED: USER
DOCKED: REMARK SMILES O=C(NCC(=O)N1CCC[C@H]1C1CCOCC1)c1ccc2cc(F)ccc2n1
DOCKED: REMARK SMILES IDX 4 1 3 2 2 3 1 4 18 6 19 7 28 8 20 9 27 10 21 11 26 12 22 13
DOCKED: REMARK SMILES IDX 25 14 23 15 24 16 5 17 6 18 7 19 8 20 11 21 9 22 10 23 12 24
DOCKED: REMARK SMILES IDX 13 25 17 26 14 27 16 28 15 29
DOCKED: REMARK H PARENT 3 5
DOCKED: USER                              x       y       z     vdW  Elec       q    Type
DOCKED: USER                           _______ _______ _______ _____ _____    ______ ____
DOCKED: ROOT
DOCKED: ATOM      1  C   UNL     1     139.841  73.618 220.940 -0.14 -0.04    +0.216 C  
DOCKED: ENDROOT
DOCKED: BRANCH   1   2
DOCKED: ATOM      2  N   UNL     1     139.759  72.928 222.209 -0.16 +0.06    -0.342 N  
DOCKED: ATOM      3  C   UNL     1     139.927  71.530 222.226 -0.18 -0.04    +0.270 C  
DOCKED: ATOM      4  O   UNL     1     140.139  70.942 221.144 -0.09 +0.04    -0.268 OA 
DOCKED: ATOM      5  H   UNL     1     139.580  73.429 223.119 -0.47 -0.04    +0.164 HD 
DOCKED: BRANCH   3   6
DOCKED: ATOM      6  C   UNL     1     139.852  70.791 223.486 -0.27 -0.02    +0.128 A  
DOCKED: ATOM      7  C   UNL     1     139.267  69.522 223.484 -0.24 -0.01    +0.035 A  
DOCKED: ATOM      8  N   UNL     1     140.330  71.307 224.624 -0.30 +0.04    -0.243 NA 
DOCKED: ATOM      9  C   UNL     1     139.195  68.826 224.660 -0.37 -0.00    +0.013 A  
DOCKED: ATOM     10  C   UNL     1     140.278  70.652 225.812 -0.50 -0.01    +0.071 A  
DOCKED: ATOM     11  C   UNL     1     139.697  69.385 225.816 -0.46 -0.00    +0.003 A  
DOCKED: ATOM     12  C   UNL     1     140.785  71.226 226.962 -0.68 -0.01    +0.032 A  
DOCKED: ATOM     13  C   UNL     1     139.625  68.683 227.012 -0.55 -0.01    +0.049 A  
DOCKED: ATOM     14  C   UNL     1     140.708  70.514 228.153 -0.59 -0.01    +0.041 A  
DOCKED: ATOM     15  C   UNL     1     140.131  69.250 228.172 -0.53 -0.02    +0.123 A  
DOCKED: ATOM     16  F   UNL     1     140.043  68.539 229.307 -0.06 +0.04    -0.207 F  
DOCKED: ENDBRANCH   3   6
DOCKED: ENDBRANCH   1   2
DOCKED: BRANCH   1  17
DOCKED: ATOM     17  C   UNL     1     140.664  74.866 221.161 -0.21 -0.05    +0.242 C  
DOCKED: ATOM     18  O   UNL     1     140.628  75.319 222.330 -0.53 +0.02    -0.273 OA 
DOCKED: BRANCH  17  19
DOCKED: ATOM     19  N   UNL     1     141.388  75.422 220.089 -0.08 +0.12    -0.338 N  
DOCKED: ATOM     20  C   UNL     1     140.943  76.628 219.342 -0.11 -0.05    +0.120 C  
DOCKED: ATOM     21  C   UNL     1     142.624  75.088 219.445 -0.24 -0.04    +0.088 C  
DOCKED: ATOM     22  C   UNL     1     142.196  77.467 219.414 -0.30 -0.02    +0.024 C  
DOCKED: ATOM     23  C   UNL     1     143.316  76.435 219.459 -0.38 -0.02    +0.027 C  
DOCKED: BRANCH  21  24
DOCKED: ATOM     24  C   UNL     1     143.413  73.963 219.985 -0.33 -0.00    +0.016 C  
DOCKED: ATOM     25  C   UNL     1     144.813  74.441 220.447 -0.46 -0.01    +0.034 C  
DOCKED: ATOM     26  C   UNL     1     143.685  72.879 218.958 -0.18 -0.00    +0.034 C  
DOCKED: ATOM     27  C   UNL     1     145.561  73.147 220.785 -0.51 -0.02    +0.160 C  
DOCKED: ATOM     28  C   UNL     1     145.135  72.868 218.530 -0.20 +0.04    +0.160 C  
DOCKED: ATOM     29  O   UNL     1     146.027  72.660 219.571 -0.64 -0.24    -0.381 OA 
DOCKED: ENDBRANCH  21  24
DOCKED: ENDBRANCH  17  19
DOCKED: ENDBRANCH   1  17
DOCKED: TORSDOF 5
DOCKED: TER
DOCKED: ENDMDL
________________________________________________________________________________


    FINAL DOCKED STATE:
    ________________________


Run:   11 / 20
Time taken for this run:   0.025s

DOCKED: MODEL        11
DOCKED: USER    Run = 11
DOCKED: USER
DOCKED: USER    Estimated Free Energy of Binding    =  -8.56 kcal/mol  [=(1)+(2)+(3)-(4)]
DOCKED: USER
DOCKED: USER    (1) Final Intermolecular Energy     = -10.05 kcal/mol
DOCKED: USER        vdW + Hbond + desolv Energy     =  -9.74 kcal/mol
DOCKED: USER        Electrostatic Energy            =  -0.31 kcal/mol
DOCKED: USER        Moving Ligand-Fixed Receptor    = -10.05 kcal/mol
DOCKED: USER        Moving Ligand-Moving Receptor   =  +0.00 kcal/mol
DOCKED: USER    (2) Final Total Internal Energy     =  -1.90 kcal/mol
DOCKED: USER    (3) Torsional Free Energy           =  +1.49 kcal/mol
DOCKED: USER    (4) Unbound System's Energy         =  -1.90 kcal/mol
DOCKED: USER
DOCKED: USER
DOCKED: REMARK SMILES O=C(NCC(=O)N1CCC[C@H]1C1CCOCC1)c1ccc2cc(F)ccc2n1
DOCKED: REMARK SMILES IDX 4 1 3 2 2 3 1 4 18 6 19 7 28 8 20 9 27 10 21 11 26 12 22 13
DOCKED: REMARK SMILES IDX 25 14 23 15 24 16 5 17 6 18 7 19 8 20 11 21 9 22 10 23 12 24
DOCKED: REMARK SMILES IDX 13 25 17 26 14 27 16 28 15 29
DOCKED: REMARK H PARENT 3 5
DOCKED: USER                              x       y       z     vdW  Elec       q    Type
DOCKED: USER                           _______ _______ _______ _____ _____    ______ ____
DOCKED: ROOT
DOCKED: ATOM      1  C   UNL     1     139.919  73.564 220.943 -0.14 -0.04    +0.216 C  
DOCKED: ENDROOT
DOCKED: BRANCH   1   2
DOCKED: ATOM      2  N   UNL     1     139.813  72.888 222.217 -0.16 +0.05    -0.342 N  
DOCKED: ATOM      3  C   UNL     1     139.997  71.493 222.255 -0.18 -0.04    +0.270 C  
DOCKED: ATOM      4  O   UNL     1     140.242  70.895 221.184 -0.09 +0.04    -0.268 OA 
DOCKED: ATOM      5  H   UNL     1     139.606  73.397 223.116 -0.46 -0.04    +0.164 HD 
DOCKED: BRANCH   3   6
DOCKED: ATOM      6  C   UNL     1     139.899  70.767 223.520 -0.28 -0.02    +0.128 A  
DOCKED: ATOM      7  C   UNL     1     139.292  69.508 223.525 -0.24 -0.01    +0.035 A  
DOCKED: ATOM      8  N   UNL     1     140.377  71.285 224.658 -0.30 +0.04    -0.243 NA 
DOCKED: ATOM      9  C   UNL     1     139.198  68.825 224.707 -0.38 -0.00    +0.013 A  
DOCKED: ATOM     10  C   UNL     1     140.305  70.642 225.851 -0.50 -0.01    +0.071 A  
DOCKED: ATOM     11  C   UNL     1     139.701  69.386 225.862 -0.47 -0.00    +0.003 A  
DOCKED: ATOM     12  C   UNL     1     140.813  71.217 227.000 -0.68 -0.01    +0.032 A  
DOCKED: ATOM     13  C   UNL     1     139.608  68.696 227.064 -0.54 -0.01    +0.049 A  
DOCKED: ATOM     14  C   UNL     1     140.715  70.518 228.196 -0.58 -0.01    +0.041 A  
DOCKED: ATOM     15  C   UNL     1     140.115  69.265 228.223 -0.53 -0.02    +0.123 A  
DOCKED: ATOM     16  F   UNL     1     140.006  68.566 229.363 -0.04 +0.03    -0.207 F  
DOCKED: ENDBRANCH   3   6
DOCKED: ENDBRANCH   1   2
DOCKED: BRANCH   1  17
DOCKED: ATOM     17  C   UNL     1     140.677  74.850 221.179 -0.21 -0.05    +0.242 C  
DOCKED: ATOM     18  O   UNL     1     140.581  75.311 222.342 -0.54 +0.02    -0.273 OA 
DOCKED: BRANCH  17  19
DOCKED: ATOM     19  N   UNL     1     141.412  75.429 220.127 -0.08 +0.12    -0.338 N  
DOCKED: ATOM     20  C   UNL     1     140.981  76.658 219.410 -0.12 -0.05    +0.120 C  
DOCKED: ATOM     21  C   UNL     1     142.649  75.103 219.482 -0.25 -0.04    +0.088 C  
DOCKED: ATOM     22  C   UNL     1     142.241  77.485 219.514 -0.30 -0.02    +0.024 C  
DOCKED: ATOM     23  C   UNL     1     143.353  76.443 219.537 -0.36 -0.02    +0.027 C  
DOCKED: BRANCH  21  24
DOCKED: ATOM     24  C   UNL     1     143.427  73.957 219.997 -0.33 -0.00    +0.016 C  
DOCKED: ATOM     25  C   UNL     1     144.832  74.409 220.470 -0.47 -0.01    +0.034 C  
DOCKED: ATOM     26  C   UNL     1     143.688  72.894 218.945 -0.17 -0.00    +0.034 C  
DOCKED: ATOM     27  C   UNL     1     145.565  73.099 220.779 -0.50 -0.01    +0.160 C  
DOCKED: ATOM     28  C   UNL     1     145.137  72.878 218.518 -0.20 +0.04    +0.160 C  
DOCKED: ATOM     29  O   UNL     1     146.026  72.636 219.554 -0.64 -0.24    -0.381 OA 
DOCKED: ENDBRANCH  21  24
DOCKED: ENDBRANCH  17  19
DOCKED: ENDBRANCH   1  17
DOCKED: TORSDOF 5
DOCKED: TER
DOCKED: ENDMDL
________________________________________________________________________________


    FINAL DOCKED STATE:
    ________________________


Run:   12 / 20
Time taken for this run:   0.025s

DOCKED: MODEL        12
DOCKED: USER    Run = 12
DOCKED: USER
DOCKED: USER    Estimated Free Energy of Binding    =  -8.54 kcal/mol  [=(1)+(2)+(3)-(4)]
DOCKED: USER
DOCKED: USER    (1) Final Intermolecular Energy     = -10.04 kcal/mol
DOCKED: USER        vdW + Hbond + desolv Energy     =  -9.78 kcal/mol
DOCKED: USER        Electrostatic Energy            =  -0.26 kcal/mol
DOCKED: USER        Moving Ligand-Fixed Receptor    = -10.04 kcal/mol
DOCKED: USER        Moving Ligand-Moving Receptor   =  +0.00 kcal/mol
DOCKED: USER    (2) Final Total Internal Energy     =  -1.84 kcal/mol
DOCKED: USER    (3) Torsional Free Energy           =  +1.49 kcal/mol
DOCKED: USER    (4) Unbound System's Energy         =  -1.84 kcal/mol
DOCKED: USER
DOCKED: USER
DOCKED: REMARK SMILES O=C(NCC(=O)N1CCC[C@H]1C1CCOCC1)c1ccc2cc(F)ccc2n1
DOCKED: REMARK SMILES IDX 4 1 3 2 2 3 1 4 18 6 19 7 28 8 20 9 27 10 21 11 26 12 22 13
DOCKED: REMARK SMILES IDX 25 14 23 15 24 16 5 17 6 18 7 19 8 20 11 21 9 22 10 23 12 24
DOCKED: REMARK SMILES IDX 13 25 17 26 14 27 16 28 15 29
DOCKED: REMARK H PARENT 3 5
DOCKED: USER                              x       y       z     vdW  Elec       q    Type
DOCKED: USER                           _______ _______ _______ _____ _____    ______ ____
DOCKED: ROOT
DOCKED: ATOM      1  C   UNL     1     139.745  73.908 221.011 -0.15 -0.04    +0.216 C  
DOCKED: ENDROOT
DOCKED: BRANCH   1   2
DOCKED: ATOM      2  N   UNL     1     139.723  73.170 222.255 -0.15 +0.05    -0.342 N  
DOCKED: ATOM      3  C   UNL     1     139.865  71.769 222.207 -0.18 -0.04    +0.270 C  
DOCKED: ATOM      4  O   UNL     1     140.003  71.222 221.091 -0.08 +0.04    -0.268 OA 
DOCKED: ATOM      5  H   UNL     1     139.607  73.636 223.192 -0.47 -0.03    +0.164 HD 
DOCKED: BRANCH   3   6
DOCKED: ATOM      6  C   UNL     1     139.848  70.981 223.439 -0.29 -0.02    +0.128 A  
DOCKED: ATOM      7  C   UNL     1     139.282  69.704 223.409 -0.24 -0.01    +0.035 A  
DOCKED: ATOM      8  N   UNL     1     140.362  71.460 224.578 -0.30 +0.04    -0.243 NA 
DOCKED: ATOM      9  C   UNL     1     139.265  68.962 224.559 -0.35 -0.00    +0.013 A  
DOCKED: ATOM     10  C   UNL     1     140.365  70.760 225.740 -0.51 -0.01    +0.071 A  
DOCKED: ATOM     11  C   UNL     1     139.803  69.485 225.716 -0.46 -0.00    +0.003 A  
DOCKED: ATOM     12  C   UNL     1     140.908  71.296 226.892 -0.69 -0.01    +0.032 A  
DOCKED: ATOM     13  C   UNL     1     139.787  68.736 226.886 -0.55 -0.01    +0.049 A  
DOCKED: ATOM     14  C   UNL     1     140.887  70.539 228.055 -0.61 -0.01    +0.041 A  
DOCKED: ATOM     15  C   UNL     1     140.329  69.266 228.048 -0.53 -0.02    +0.123 A  
DOCKED: ATOM     16  F   UNL     1     140.295  68.510 229.156 -0.13 +0.04    -0.207 F  
DOCKED: ENDBRANCH   3   6
DOCKED: ENDBRANCH   1   2
DOCKED: BRANCH   1  17
DOCKED: ATOM     17  C   UNL     1     140.728  75.043 221.181 -0.21 -0.05    +0.242 C  
DOCKED: ATOM     18  O   UNL     1     140.824  75.485 222.351 -0.46 +0.03    -0.273 OA 
DOCKED: BRANCH  17  19
DOCKED: ATOM     19  N   UNL     1     141.446  75.516 220.066 -0.08 +0.12    -0.338 N  
DOCKED: ATOM     20  C   UNL     1     141.017  76.687 219.256 -0.12 -0.05    +0.120 C  
DOCKED: ATOM     21  C   UNL     1     142.661  75.113 219.422 -0.24 -0.04    +0.088 C  
DOCKED: ATOM     22  C   UNL     1     142.292  77.496 219.258 -0.30 -0.02    +0.024 C  
DOCKED: ATOM     23  C   UNL     1     143.387  76.440 219.345 -0.37 -0.02    +0.027 C  
DOCKED: BRANCH  21  24
DOCKED: ATOM     24  C   UNL     1     143.433  74.002 220.016 -0.33 -0.00    +0.016 C  
DOCKED: ATOM     25  C   UNL     1     144.837  74.481 220.465 -0.45 -0.01    +0.034 C  
DOCKED: ATOM     26  C   UNL     1     143.697  72.871 219.038 -0.18 -0.00    +0.034 C  
DOCKED: ATOM     27  C   UNL     1     145.565  73.193 220.864 -0.51 -0.02    +0.160 C  
DOCKED: ATOM     28  C   UNL     1     145.148  72.823 218.620 -0.20 +0.04    +0.160 C  
DOCKED: ATOM     29  O   UNL     1     146.031  72.648 219.674 -0.61 -0.22    -0.381 OA 
DOCKED: ENDBRANCH  21  24
DOCKED: ENDBRANCH  17  19
DOCKED: ENDBRANCH   1  17
DOCKED: TORSDOF 5
DOCKED: TER
DOCKED: ENDMDL
________________________________________________________________________________


    FINAL DOCKED STATE:
    ________________________


Run:   13 / 20
Time taken for this run:   0.025s

DOCKED: MODEL        13
DOCKED: USER    Run = 13
DOCKED: USER
DOCKED: USER    Estimated Free Energy of Binding    =  -8.72 kcal/mol  [=(1)+(2)+(3)-(4)]
DOCKED: USER
DOCKED: USER    (1) Final Intermolecular Energy     = -10.21 kcal/mol
DOCKED: USER        vdW + Hbond + desolv Energy     = -10.13 kcal/mol
DOCKED: USER        Electrostatic Energy            =  -0.08 kcal/mol
DOCKED: USER        Moving Ligand-Fixed Receptor    = -10.21 kcal/mol
DOCKED: USER        Moving Ligand-Moving Receptor   =  +0.00 kcal/mol
DOCKED: USER    (2) Final Total Internal Energy     =  -1.18 kcal/mol
DOCKED: USER    (3) Torsional Free Energy           =  +1.49 kcal/mol
DOCKED: USER    (4) Unbound System's Energy         =  -1.18 kcal/mol
DOCKED: USER
DOCKED: USER
DOCKED: REMARK SMILES O=C(NCC(=O)N1CCC[C@H]1C1CCOCC1)c1ccc2cc(F)ccc2n1
DOCKED: REMARK SMILES IDX 4 1 3 2 2 3 1 4 18 6 19 7 28 8 20 9 27 10 21 11 26 12 22 13
DOCKED: REMARK SMILES IDX 25 14 23 15 24 16 5 17 6 18 7 19 8 20 11 21 9 22 10 23 12 24
DOCKED: REMARK SMILES IDX 13 25 17 26 14 27 16 28 15 29
DOCKED: REMARK H PARENT 3 5
DOCKED: USER                              x       y       z     vdW  Elec       q    Type
DOCKED: USER                           _______ _______ _______ _____ _____    ______ ____
DOCKED: ROOT
DOCKED: ATOM      1  C   UNL     1     139.313  74.294 221.215 -0.16 -0.04    +0.216 C  
DOCKED: ENDROOT
DOCKED: BRANCH   1   2
DOCKED: ATOM      2  N   UNL     1     139.197  73.399 222.345 -0.09 +0.09    -0.342 N  
DOCKED: ATOM      3  C   UNL     1     140.235  72.476 222.580 -0.19 -0.03    +0.270 C  
DOCKED: ATOM      4  O   UNL     1     141.214  72.469 221.801 -0.24 +0.02    -0.268 OA 
DOCKED: ATOM      5  H   UNL     1     138.371  73.410 222.998 -0.52 -0.11    +0.164 HD 
DOCKED: BRANCH   3   6
DOCKED: ATOM      6  C   UNL     1     140.162  71.551 223.710 -0.34 -0.02    +0.128 A  
DOCKED: ATOM      7  C   UNL     1     139.593  70.291 223.508 -0.28 -0.01    +0.035 A  
DOCKED: ATOM      8  N   UNL     1     140.628  71.890 224.918 -0.28 +0.04    -0.243 NA 
DOCKED: ATOM      9  C   UNL     1     139.522  69.422 224.562 -0.35 -0.00    +0.013 A  
DOCKED: ATOM     10  C   UNL     1     140.577  71.060 225.990 -0.55 -0.01    +0.071 A  
DOCKED: ATOM     11  C   UNL     1     140.011  69.802 225.794 -0.48 -0.00    +0.003 A  
DOCKED: ATOM     12  C   UNL     1     141.071  71.455 227.218 -0.73 -0.01    +0.032 A  
DOCKED: ATOM     13  C   UNL     1     139.941  68.922 226.868 -0.55 -0.01    +0.049 A  
DOCKED: ATOM     14  C   UNL     1     140.996  70.567 228.284 -0.55 -0.01    +0.041 A  
DOCKED: ATOM     15  C   UNL     1     140.434  69.310 228.105 -0.53 -0.02    +0.123 A  
DOCKED: ATOM     16  F   UNL     1     140.348  68.431 229.116 -0.16 +0.04    -0.207 F  
DOCKED: ENDBRANCH   3   6
DOCKED: ENDBRANCH   1   2
DOCKED: BRANCH   1  17
DOCKED: ATOM     17  C   UNL     1     139.978  75.557 221.710 -0.23 -0.05    +0.242 C  
DOCKED: ATOM     18  O   UNL     1     141.180  75.422 222.046 -0.45 +0.06    -0.273 OA 
DOCKED: BRANCH  17  19
DOCKED: ATOM     19  N   UNL     1     139.244  76.758 221.763 -0.12 +0.08    -0.338 N  
DOCKED: ATOM     20  C   UNL     1     137.786  76.835 221.483 -0.14 -0.02    +0.120 C  
DOCKED: ATOM     21  C   UNL     1     139.581  78.116 222.071 -0.26 -0.02    +0.088 C  
DOCKED: ATOM     22  C   UNL     1     137.315  77.573 222.714 -0.22 -0.00    +0.024 C  
DOCKED: ATOM     23  C   UNL     1     138.507  78.444 223.088 -0.24 -0.00    +0.027 C  
DOCKED: BRANCH  21  24
DOCKED: ATOM     24  C   UNL     1     140.965  78.417 222.489 -0.46 -0.01    +0.016 C  
DOCKED: ATOM     25  C   UNL     1     140.981  79.449 223.646 -0.53 -0.01    +0.034 C  
DOCKED: ATOM     26  C   UNL     1     141.796  79.048 221.387 -0.38 -0.02    +0.034 C  
DOCKED: ATOM     27  C   UNL     1     142.464  79.796 223.820 -0.44 -0.04    +0.160 C  
DOCKED: ATOM     28  C   UNL     1     142.064  80.510 221.658 -0.35 -0.06    +0.160 C  
DOCKED: ATOM     29  O   UNL     1     142.739  80.747 222.846 -0.33 +0.10    -0.381 OA 
DOCKED: ENDBRANCH  21  24
DOCKED: ENDBRANCH  17  19
DOCKED: ENDBRANCH   1  17
DOCKED: TORSDOF 5
DOCKED: TER
DOCKED: ENDMDL
________________________________________________________________________________


    FINAL DOCKED STATE:
    ________________________


Run:   14 / 20
Time taken for this run:   0.025s

DOCKED: MODEL        14
DOCKED: USER    Run = 14
DOCKED: USER
DOCKED: USER    Estimated Free Energy of Binding    =  -8.56 kcal/mol  [=(1)+(2)+(3)-(4)]
DOCKED: USER
DOCKED: USER    (1) Final Intermolecular Energy     = -10.05 kcal/mol
DOCKED: USER        vdW + Hbond + desolv Energy     =  -9.75 kcal/mol
DOCKED: USER        Electrostatic Energy            =  -0.31 kcal/mol
DOCKED: USER        Moving Ligand-Fixed Receptor    = -10.05 kcal/mol
DOCKED: USER        Moving Ligand-Moving Receptor   =  +0.00 kcal/mol
DOCKED: USER    (2) Final Total Internal Energy     =  -1.90 kcal/mol
DOCKED: USER    (3) Torsional Free Energy           =  +1.49 kcal/mol
DOCKED: USER    (4) Unbound System's Energy         =  -1.90 kcal/mol
DOCKED: USER
DOCKED: USER
DOCKED: REMARK SMILES O=C(NCC(=O)N1CCC[C@H]1C1CCOCC1)c1ccc2cc(F)ccc2n1
DOCKED: REMARK SMILES IDX 4 1 3 2 2 3 1 4 18 6 19 7 28 8 20 9 27 10 21 11 26 12 22 13
DOCKED: REMARK SMILES IDX 25 14 23 15 24 16 5 17 6 18 7 19 8 20 11 21 9 22 10 23 12 24
DOCKED: REMARK SMILES IDX 13 25 17 26 14 27 16 28 15 29
DOCKED: REMARK H PARENT 3 5
DOCKED: USER                              x       y       z     vdW  Elec       q    Type
DOCKED: USER                           _______ _______ _______ _____ _____    ______ ____
DOCKED: ROOT
DOCKED: ATOM      1  C   UNL     1     139.949  73.506 220.942 -0.14 -0.04    +0.216 C  
DOCKED: ENDROOT
DOCKED: BRANCH   1   2
DOCKED: ATOM      2  N   UNL     1     139.821  72.841 222.219 -0.16 +0.05    -0.342 N  
DOCKED: ATOM      3  C   UNL     1     140.032  71.449 222.277 -0.18 -0.04    +0.270 C  
DOCKED: ATOM      4  O   UNL     1     140.320  70.846 221.220 -0.10 +0.04    -0.268 OA 
DOCKED: ATOM      5  H   UNL     1     139.579  73.354 223.107 -0.46 -0.04    +0.164 HD 
DOCKED: BRANCH   3   6
DOCKED: ATOM      6  C   UNL     1     139.913  70.734 223.546 -0.27 -0.02    +0.128 A  
DOCKED: ATOM      7  C   UNL     1     139.252  69.504 223.563 -0.25 -0.01    +0.035 A  
DOCKED: ATOM      8  N   UNL     1     140.425  71.235 224.677 -0.30 +0.04    -0.243 NA 
DOCKED: ATOM      9  C   UNL     1     139.138  68.830 224.749 -0.38 -0.00    +0.013 A  
DOCKED: ATOM     10  C   UNL     1     140.335  70.602 225.874 -0.50 -0.01    +0.071 A  
DOCKED: ATOM     11  C   UNL     1     139.676  69.374 225.896 -0.47 -0.00    +0.003 A  
DOCKED: ATOM     12  C   UNL     1     140.878  71.159 227.016 -0.68 -0.01    +0.032 A  
DOCKED: ATOM     13  C   UNL     1     139.563  68.694 227.102 -0.54 -0.01    +0.049 A  
DOCKED: ATOM     14  C   UNL     1     140.759  70.470 228.216 -0.57 -0.01    +0.041 A  
DOCKED: ATOM     15  C   UNL     1     140.105  69.245 228.254 -0.53 -0.02    +0.123 A  
DOCKED: ATOM     16  F   UNL     1     139.976  68.556 229.399 -0.03 +0.03    -0.207 F  
DOCKED: ENDBRANCH   3   6
DOCKED: ENDBRANCH   1   2
DOCKED: BRANCH   1  17
DOCKED: ATOM     17  C   UNL     1     140.632  74.830 221.192 -0.21 -0.05    +0.242 C  
DOCKED: ATOM     18  O   UNL     1     140.470  75.296 222.346 -0.56 +0.02    -0.273 OA 
DOCKED: BRANCH  17  19
DOCKED: ATOM     19  N   UNL     1     141.377  75.437 220.162 -0.08 +0.12    -0.338 N  
DOCKED: ATOM     20  C   UNL     1     140.946  76.678 219.467 -0.12 -0.05    +0.120 C  
DOCKED: ATOM     21  C   UNL     1     142.624  75.132 219.525 -0.25 -0.04    +0.088 C  
DOCKED: ATOM     22  C   UNL     1     142.199  77.510 219.603 -0.31 -0.02    +0.024 C  
DOCKED: ATOM     23  C   UNL     1     143.317  76.475 219.618 -0.36 -0.02    +0.027 C  
DOCKED: BRANCH  21  24
DOCKED: ATOM     24  C   UNL     1     143.402  73.980 220.025 -0.33 -0.00    +0.016 C  
DOCKED: ATOM     25  C   UNL     1     144.822  74.420 220.463 -0.46 -0.01    +0.034 C  
DOCKED: ATOM     26  C   UNL     1     143.628  72.912 218.971 -0.17 -0.00    +0.034 C  
DOCKED: ATOM     27  C   UNL     1     145.550  73.105 220.759 -0.50 -0.01    +0.160 C  
DOCKED: ATOM     28  C   UNL     1     145.066  72.880 218.509 -0.19 +0.03    +0.160 C  
DOCKED: ATOM     29  O   UNL     1     145.978  72.633 219.524 -0.65 -0.23    -0.381 OA 
DOCKED: ENDBRANCH  21  24
DOCKED: ENDBRANCH  17  19
DOCKED: ENDBRANCH   1  17
DOCKED: TORSDOF 5
DOCKED: TER
DOCKED: ENDMDL
________________________________________________________________________________


    FINAL DOCKED STATE:
    ________________________


Run:   15 / 20
Time taken for this run:   0.025s

DOCKED: MODEL        15
DOCKED: USER    Run = 15
DOCKED: USER
DOCKED: USER    Estimated Free Energy of Binding    =  -8.54 kcal/mol  [=(1)+(2)+(3)-(4)]
DOCKED: USER
DOCKED: USER    (1) Final Intermolecular Energy     = -10.03 kcal/mol
DOCKED: USER        vdW + Hbond + desolv Energy     =  -9.72 kcal/mol
DOCKED: USER        Electrostatic Energy            =  -0.31 kcal/mol
DOCKED: USER        Moving Ligand-Fixed Receptor    = -10.03 kcal/mol
DOCKED: USER        Moving Ligand-Moving Receptor   =  +0.00 kcal/mol
DOCKED: USER    (2) Final Total Internal Energy     =  -1.90 kcal/mol
DOCKED: USER    (3) Torsional Free Energy           =  +1.49 kcal/mol
DOCKED: USER    (4) Unbound System's Energy         =  -1.90 kcal/mol
DOCKED: USER
DOCKED: USER
DOCKED: REMARK SMILES O=C(NCC(=O)N1CCC[C@H]1C1CCOCC1)c1ccc2cc(F)ccc2n1
DOCKED: REMARK SMILES IDX 4 1 3 2 2 3 1 4 18 6 19 7 28 8 20 9 27 10 21 11 26 12 22 13
DOCKED: REMARK SMILES IDX 25 14 23 15 24 16 5 17 6 18 7 19 8 20 11 21 9 22 10 23 12 24
DOCKED: REMARK SMILES IDX 13 25 17 26 14 27 16 28 15 29
DOCKED: REMARK H PARENT 3 5
DOCKED: USER                              x       y       z     vdW  Elec       q    Type
DOCKED: USER                           _______ _______ _______ _____ _____    ______ ____
DOCKED: ROOT
DOCKED: ATOM      1  C   UNL     1     139.914  73.561 220.940 -0.14 -0.04    +0.216 C  
DOCKED: ENDROOT
DOCKED: BRANCH   1   2
DOCKED: ATOM      2  N   UNL     1     139.802  72.891 222.217 -0.16 +0.05    -0.342 N  
DOCKED: ATOM      3  C   UNL     1     139.993  71.497 222.262 -0.18 -0.04    +0.270 C  
DOCKED: ATOM      4  O   UNL     1     140.249  70.895 221.197 -0.09 +0.04    -0.268 OA 
DOCKED: ATOM      5  H   UNL     1     139.586  73.404 223.111 -0.47 -0.04    +0.164 HD 
DOCKED: BRANCH   3   6
DOCKED: ATOM      6  C   UNL     1     139.889  70.777 223.531 -0.28 -0.02    +0.128 A  
DOCKED: ATOM      7  C   UNL     1     139.280  69.520 223.540 -0.24 -0.01    +0.035 A  
DOCKED: ATOM      8  N   UNL     1     140.365  71.299 224.668 -0.30 +0.04    -0.243 NA 
DOCKED: ATOM      9  C   UNL     1     139.181  68.842 224.725 -0.38 -0.00    +0.013 A  
DOCKED: ATOM     10  C   UNL     1     140.288  70.662 225.863 -0.50 -0.01    +0.071 A  
DOCKED: ATOM     11  C   UNL     1     139.682  69.407 225.878 -0.47 -0.00    +0.003 A  
DOCKED: ATOM     12  C   UNL     1     140.794  71.242 227.011 -0.69 -0.01    +0.032 A  
DOCKED: ATOM     13  C   UNL     1     139.583  68.723 227.083 -0.54 -0.01    +0.049 A  
DOCKED: ATOM     14  C   UNL     1     140.690  70.548 228.210 -0.58 -0.01    +0.041 A  
DOCKED: ATOM     15  C   UNL     1     140.088  69.297 228.241 -0.53 -0.02    +0.123 A  
DOCKED: ATOM     16  F   UNL     1     139.974  68.603 229.384 -0.02 +0.03    -0.207 F  
DOCKED: ENDBRANCH   3   6
DOCKED: ENDBRANCH   1   2
DOCKED: BRANCH   1  17
DOCKED: ATOM     17  C   UNL     1     140.670  74.849 221.173 -0.21 -0.05    +0.242 C  
DOCKED: ATOM     18  O   UNL     1     140.591  75.301 222.341 -0.54 +0.02    -0.273 OA 
DOCKED: BRANCH  17  19
DOCKED: ATOM     19  N   UNL     1     141.385  75.439 220.114 -0.08 +0.12    -0.338 N  
DOCKED: ATOM     20  C   UNL     1     140.954  76.689 219.435 -0.12 -0.05    +0.120 C  
DOCKED: ATOM     21  C   UNL     1     142.600  75.108 219.429 -0.24 -0.04    +0.088 C  
DOCKED: ATOM     22  C   UNL     1     142.228  77.495 219.520 -0.30 -0.02    +0.024 C  
DOCKED: ATOM     23  C   UNL     1     143.324  76.437 219.492 -0.37 -0.02    +0.027 C  
DOCKED: BRANCH  21  24
DOCKED: ATOM     24  C   UNL     1     143.373  73.941 219.898 -0.32 -0.00    +0.016 C  
DOCKED: ATOM     25  C   UNL     1     144.745  74.380 220.472 -0.47 -0.01    +0.034 C  
DOCKED: ATOM     26  C   UNL     1     143.706  72.961 218.787 -0.16 -0.00    +0.034 C  
DOCKED: ATOM     27  C   UNL     1     145.487  73.063 220.722 -0.49 -0.01    +0.160 C  
DOCKED: ATOM     28  C   UNL     1     145.174  72.999 218.432 -0.19 +0.04    +0.160 C  
DOCKED: ATOM     29  O   UNL     1     146.016  72.697 219.492 -0.66 -0.24    -0.381 OA 
DOCKED: ENDBRANCH  21  24
DOCKED: ENDBRANCH  17  19
DOCKED: ENDBRANCH   1  17
DOCKED: TORSDOF 5
DOCKED: TER
DOCKED: ENDMDL
________________________________________________________________________________


    FINAL DOCKED STATE:
    ________________________


Run:   16 / 20
Time taken for this run:   0.025s

DOCKED: MODEL        16
DOCKED: USER    Run = 16
DOCKED: USER
DOCKED: USER    Estimated Free Energy of Binding    =  -7.88 kcal/mol  [=(1)+(2)+(3)-(4)]
DOCKED: USER
DOCKED: USER    (1) Final Intermolecular Energy     =  -9.37 kcal/mol
DOCKED: USER        vdW + Hbond + desolv Energy     =  -9.28 kcal/mol
DOCKED: USER        Electrostatic Energy            =  -0.09 kcal/mol
DOCKED: USER        Moving Ligand-Fixed Receptor    =  -9.37 kcal/mol
DOCKED: USER        Moving Ligand-Moving Receptor   =  +0.00 kcal/mol
DOCKED: USER    (2) Final Total Internal Energy     =  -1.42 kcal/mol
DOCKED: USER    (3) Torsional Free Energy           =  +1.49 kcal/mol
DOCKED: USER    (4) Unbound System's Energy         =  -1.42 kcal/mol
DOCKED: USER
DOCKED: USER
DOCKED: REMARK SMILES O=C(NCC(=O)N1CCC[C@H]1C1CCOCC1)c1ccc2cc(F)ccc2n1
DOCKED: REMARK SMILES IDX 4 1 3 2 2 3 1 4 18 6 19 7 28 8 20 9 27 10 21 11 26 12 22 13
DOCKED: REMARK SMILES IDX 25 14 23 15 24 16 5 17 6 18 7 19 8 20 11 21 9 22 10 23 12 24
DOCKED: REMARK SMILES IDX 13 25 17 26 14 27 16 28 15 29
DOCKED: REMARK H PARENT 3 5
DOCKED: USER                              x       y       z     vdW  Elec       q    Type
DOCKED: USER                           _______ _______ _______ _____ _____    ______ ____
DOCKED: ROOT
DOCKED: ATOM      1  C   UNL     1     139.278  72.457 221.981 -0.17 -0.05    +0.216 C  
DOCKED: ENDROOT
DOCKED: BRANCH   1   2
DOCKED: ATOM      2  N   UNL     1     139.644  73.851 222.099 -0.14 +0.05    -0.342 N  
DOCKED: ATOM      3  C   UNL     1     140.601  74.372 221.206 -0.19 -0.05    +0.270 C  
DOCKED: ATOM      4  O   UNL     1     141.096  73.608 220.350 -0.10 +0.05    -0.268 OA 
DOCKED: ATOM      5  H   UNL     1     139.223  74.491 222.822 -0.49 -0.04    +0.164 HD 
DOCKED: BRANCH   3   6
DOCKED: ATOM      6  C   UNL     1     141.001  75.777 221.288 -0.28 -0.04    +0.128 A  
DOCKED: ATOM      7  C   UNL     1     141.816  76.300 220.281 -0.27 -0.02    +0.035 A  
DOCKED: ATOM      8  N   UNL     1     140.601  76.556 222.299 -0.29 +0.07    -0.243 NA 
DOCKED: ATOM      9  C   UNL     1     142.194  77.613 220.352 -0.28 -0.01    +0.013 A  
DOCKED: ATOM     10  C   UNL     1     140.951  77.863 222.409 -0.41 -0.03    +0.071 A  
DOCKED: ATOM     11  C   UNL     1     141.764  78.390 221.407 -0.37 -0.00    +0.003 A  
DOCKED: ATOM     12  C   UNL     1     140.514  78.629 223.472 -0.36 -0.01    +0.032 A  
DOCKED: ATOM     13  C   UNL     1     142.145  79.724 221.484 -0.36 -0.02    +0.049 A  
DOCKED: ATOM     14  C   UNL     1     140.900  79.961 223.538 -0.48 -0.01    +0.041 A  
DOCKED: ATOM     15  C   UNL     1     141.711  80.502 222.547 -0.44 -0.03    +0.123 A  
DOCKED: ATOM     16  F   UNL     1     142.100  81.785 222.584 -0.12 +0.03    -0.207 F  
DOCKED: ENDBRANCH   3   6
DOCKED: ENDBRANCH   1   2
DOCKED: BRANCH   1  17
DOCKED: ATOM     17  C   UNL     1     139.561  71.805 223.315 -0.19 -0.06    +0.242 C  
DOCKED: ATOM     18  O   UNL     1     140.704  72.034 223.780 -0.32 +0.02    -0.273 OA 
DOCKED: BRANCH  17  19
DOCKED: ATOM     19  N   UNL     1     138.570  71.015 223.929 -0.13 +0.08    -0.338 N  
DOCKED: ATOM     20  C   UNL     1     137.135  71.064 223.546 -0.18 -0.02    +0.120 C  
DOCKED: ATOM     21  C   UNL     1     138.589  70.027 224.966 -0.30 -0.01    +0.088 C  
DOCKED: ATOM     22  C   UNL     1     136.864  69.594 223.329 -0.18 -0.00    +0.024 C  
DOCKED: ATOM     23  C   UNL     1     137.820  68.907 224.296 -0.28 -0.00    +0.027 C  
DOCKED: BRANCH  21  24
DOCKED: ATOM     24  C   UNL     1     139.893  69.643 225.545 -0.46 -0.00    +0.016 C  
DOCKED: ATOM     25  C   UNL     1     139.779  68.311 226.330 -0.59 -0.01    +0.034 C  
DOCKED: ATOM     26  C   UNL     1     140.416  70.651 226.552 -0.59 -0.01    +0.034 C  
DOCKED: ATOM     27  C   UNL     1     141.139  68.164 227.020 -0.49 -0.04    +0.160 C  
DOCKED: ATOM     28  C   UNL     1     140.342  70.119 227.964 -0.51 -0.03    +0.160 C  
DOCKED: ATOM     29  O   UNL     1     141.062  68.950 228.163 -0.30 +0.09    -0.381 OA 
DOCKED: ENDBRANCH  21  24
DOCKED: ENDBRANCH  17  19
DOCKED: ENDBRANCH   1  17
DOCKED: TORSDOF 5
DOCKED: TER
DOCKED: ENDMDL
________________________________________________________________________________


    FINAL DOCKED STATE:
    ________________________


Run:   17 / 20
Time taken for this run:   0.025s

DOCKED: MODEL        17
DOCKED: USER    Run = 17
DOCKED: USER
DOCKED: USER    Estimated Free Energy of Binding    =  -8.31 kcal/mol  [=(1)+(2)+(3)-(4)]
DOCKED: USER
DOCKED: USER    (1) Final Intermolecular Energy     =  -9.80 kcal/mol
DOCKED: USER        vdW + Hbond + desolv Energy     =  -9.64 kcal/mol
DOCKED: USER        Electrostatic Energy            =  -0.16 kcal/mol
DOCKED: USER        Moving Ligand-Fixed Receptor    =  -9.80 kcal/mol
DOCKED: USER        Moving Ligand-Moving Receptor   =  +0.00 kcal/mol
DOCKED: USER    (2) Final Total Internal Energy     =  -1.91 kcal/mol
DOCKED: USER    (3) Torsional Free Energy           =  +1.49 kcal/mol
DOCKED: USER    (4) Unbound System's Energy         =  -1.91 kcal/mol
DOCKED: USER
DOCKED: USER
DOCKED: REMARK SMILES O=C(NCC(=O)N1CCC[C@H]1C1CCOCC1)c1ccc2cc(F)ccc2n1
DOCKED: REMARK SMILES IDX 4 1 3 2 2 3 1 4 18 6 19 7 28 8 20 9 27 10 21 11 26 12 22 13
DOCKED: REMARK SMILES IDX 25 14 23 15 24 16 5 17 6 18 7 19 8 20 11 21 9 22 10 23 12 24
DOCKED: REMARK SMILES IDX 13 25 17 26 14 27 16 28 15 29
DOCKED: REMARK H PARENT 3 5
DOCKED: USER                              x       y       z     vdW  Elec       q    Type
DOCKED: USER                           _______ _______ _______ _____ _____    ______ ____
DOCKED: ROOT
DOCKED: ATOM      1  C   UNL     1     139.798  73.728 221.058 -0.15 -0.04    +0.216 C  
DOCKED: ENDROOT
DOCKED: BRANCH   1   2
DOCKED: ATOM      2  N   UNL     1     139.828  72.989 222.301 -0.16 +0.05    -0.342 N  
DOCKED: ATOM      3  C   UNL     1     139.748  71.584 222.249 -0.17 -0.05    +0.270 C  
DOCKED: ATOM      4  O   UNL     1     139.654  71.033 221.131 -0.07 +0.05    -0.268 OA 
DOCKED: ATOM      5  H   UNL     1     139.908  73.459 223.240 -0.34 -0.00    +0.164 HD 
DOCKED: BRANCH   3   6
DOCKED: ATOM      6  C   UNL     1     139.775  70.796 223.480 -0.27 -0.02    +0.128 A  
DOCKED: ATOM      7  C   UNL     1     139.216  69.515 223.467 -0.24 -0.01    +0.035 A  
DOCKED: ATOM      8  N   UNL     1     140.321  71.277 224.603 -0.30 +0.04    -0.243 NA 
DOCKED: ATOM      9  C   UNL     1     139.238  68.773 224.617 -0.36 -0.00    +0.013 A  
DOCKED: ATOM     10  C   UNL     1     140.364  70.577 225.764 -0.50 -0.01    +0.071 A  
DOCKED: ATOM     11  C   UNL     1     139.808  69.298 225.757 -0.47 -0.00    +0.003 A  
DOCKED: ATOM     12  C   UNL     1     140.938  71.116 226.899 -0.66 -0.01    +0.032 A  
DOCKED: ATOM     13  C   UNL     1     139.833  68.549 226.926 -0.57 -0.01    +0.049 A  
DOCKED: ATOM     14  C   UNL     1     140.958  70.357 228.062 -0.58 -0.01    +0.041 A  
DOCKED: ATOM     15  C   UNL     1     140.408  69.081 228.071 -0.53 -0.02    +0.123 A  
DOCKED: ATOM     16  F   UNL     1     140.412  68.325 229.179 -0.14 +0.04    -0.207 F  
DOCKED: ENDBRANCH   3   6
DOCKED: ENDBRANCH   1   2
DOCKED: BRANCH   1  17
DOCKED: ATOM     17  C   UNL     1     140.787  74.864 221.187 -0.21 -0.05    +0.242 C  
DOCKED: ATOM     18  O   UNL     1     140.846  75.382 222.328 -0.47 +0.03    -0.273 OA 
DOCKED: BRANCH  17  19
DOCKED: ATOM     19  N   UNL     1     141.550  75.255 220.069 -0.08 +0.12    -0.338 N  
DOCKED: ATOM     20  C   UNL     1     141.068  76.227 219.053 -0.10 -0.04    +0.120 C  
DOCKED: ATOM     21  C   UNL     1     142.860  74.921 219.594 -0.27 -0.03    +0.088 C  
DOCKED: ATOM     22  C   UNL     1     142.235  77.185 219.024 -0.29 -0.01    +0.024 C  
DOCKED: ATOM     23  C   UNL     1     143.431  76.304 219.363 -0.37 -0.02    +0.027 C  
DOCKED: BRANCH  21  24
DOCKED: ATOM     24  C   UNL     1     143.694  74.019 220.415 -0.38 -0.00    +0.016 C  
DOCKED: ATOM     25  C   UNL     1     145.159  74.522 220.474 -0.39 -0.01    +0.034 C  
DOCKED: ATOM     26  C   UNL     1     143.782  72.612 219.850 -0.27 -0.00    +0.034 C  
DOCKED: ATOM     27  C   UNL     1     145.916  73.391 221.179 -0.58 -0.02    +0.160 C  
DOCKED: ATOM     28  C   UNL     1     145.149  72.328 219.274 -0.26 +0.04    +0.160 C  
DOCKED: ATOM     29  O   UNL     1     146.182  72.451 220.191 -0.42 -0.15    -0.381 OA 
DOCKED: ENDBRANCH  21  24
DOCKED: ENDBRANCH  17  19
DOCKED: ENDBRANCH   1  17
DOCKED: TORSDOF 5
DOCKED: TER
DOCKED: ENDMDL
________________________________________________________________________________


    FINAL DOCKED STATE:
    ________________________


Run:   18 / 20
Time taken for this run:   0.025s

DOCKED: MODEL        18
DOCKED: USER    Run = 18
DOCKED: USER
DOCKED: USER    Estimated Free Energy of Binding    =  -8.57 kcal/mol  [=(1)+(2)+(3)-(4)]
DOCKED: USER
DOCKED: USER    (1) Final Intermolecular Energy     = -10.06 kcal/mol
DOCKED: USER        vdW + Hbond + desolv Energy     =  -9.78 kcal/mol
DOCKED: USER        Electrostatic Energy            =  -0.28 kcal/mol
DOCKED: USER        Moving Ligand-Fixed Receptor    = -10.06 kcal/mol
DOCKED: USER        Moving Ligand-Moving Receptor   =  +0.00 kcal/mol
DOCKED: USER    (2) Final Total Internal Energy     =  -1.86 kcal/mol
DOCKED: USER    (3) Torsional Free Energy           =  +1.49 kcal/mol
DOCKED: USER    (4) Unbound System's Energy         =  -1.86 kcal/mol
DOCKED: USER
DOCKED: USER
DOCKED: REMARK SMILES O=C(NCC(=O)N1CCC[C@H]1C1CCOCC1)c1ccc2cc(F)ccc2n1
DOCKED: REMARK SMILES IDX 4 1 3 2 2 3 1 4 18 6 19 7 28 8 20 9 27 10 21 11 26 12 22 13
DOCKED: REMARK SMILES IDX 25 14 23 15 24 16 5 17 6 18 7 19 8 20 11 21 9 22 10 23 12 24
DOCKED: REMARK SMILES IDX 13 25 17 26 14 27 16 28 15 29
DOCKED: REMARK H PARENT 3 5
DOCKED: USER                              x       y       z     vdW  Elec       q    Type
DOCKED: USER                           _______ _______ _______ _____ _____    ______ ____
DOCKED: ROOT
DOCKED: ATOM      1  C   UNL     1     139.788  73.748 220.960 -0.14 -0.04    +0.216 C  
DOCKED: ENDROOT
DOCKED: BRANCH   1   2
DOCKED: ATOM      2  N   UNL     1     139.733  73.035 222.217 -0.15 +0.06    -0.342 N  
DOCKED: ATOM      3  C   UNL     1     139.904  71.637 222.205 -0.18 -0.04    +0.270 C  
DOCKED: ATOM      4  O   UNL     1     140.095  71.070 221.107 -0.09 +0.04    -0.268 OA 
DOCKED: ATOM      5  H   UNL     1     139.572  73.519 223.139 -0.48 -0.04    +0.164 HD 
DOCKED: BRANCH   3   6
DOCKED: ATOM      6  C   UNL     1     139.857  70.875 223.452 -0.28 -0.02    +0.128 A  
DOCKED: ATOM      7  C   UNL     1     139.259  69.612 223.442 -0.24 -0.01    +0.035 A  
DOCKED: ATOM      8  N   UNL     1     140.373  71.363 224.586 -0.30 +0.04    -0.243 NA 
DOCKED: ATOM      9  C   UNL     1     139.212  68.894 224.607 -0.36 -0.00    +0.013 A  
DOCKED: ATOM     10  C   UNL     1     140.348  70.687 225.761 -0.51 -0.01    +0.071 A  
DOCKED: ATOM     11  C   UNL     1     139.753  69.426 225.758 -0.46 -0.00    +0.003 A  
DOCKED: ATOM     12  C   UNL     1     140.894  71.232 226.908 -0.68 -0.01    +0.032 A  
DOCKED: ATOM     13  C   UNL     1     139.708  68.701 226.942 -0.55 -0.01    +0.049 A  
DOCKED: ATOM     14  C   UNL     1     140.843  70.498 228.086 -0.60 -0.01    +0.041 A  
DOCKED: ATOM     15  C   UNL     1     140.253  69.241 228.098 -0.53 -0.02    +0.123 A  
DOCKED: ATOM     16  F   UNL     1     140.190  68.508 229.221 -0.10 +0.04    -0.207 F  
DOCKED: ENDBRANCH   3   6
DOCKED: ENDBRANCH   1   2
DOCKED: BRANCH   1  17
DOCKED: ATOM     17  C   UNL     1     140.658  74.965 221.172 -0.21 -0.05    +0.242 C  
DOCKED: ATOM     18  O   UNL     1     140.653  75.418 222.342 -0.51 +0.02    -0.273 OA 
DOCKED: BRANCH  17  19
DOCKED: ATOM     19  N   UNL     1     141.389  75.495 220.092 -0.08 +0.12    -0.338 N  
DOCKED: ATOM     20  C   UNL     1     140.952  76.686 219.317 -0.12 -0.05    +0.120 C  
DOCKED: ATOM     21  C   UNL     1     142.627  75.143 219.462 -0.25 -0.04    +0.088 C  
DOCKED: ATOM     22  C   UNL     1     142.208  77.522 219.378 -0.30 -0.02    +0.024 C  
DOCKED: ATOM     23  C   UNL     1     143.325  76.488 219.451 -0.37 -0.02    +0.027 C  
DOCKED: BRANCH  21  24
DOCKED: ATOM     24  C   UNL     1     143.411  74.027 220.031 -0.34 -0.00    +0.016 C  
DOCKED: ATOM     25  C   UNL     1     144.827  74.500 220.445 -0.44 -0.01    +0.034 C  
DOCKED: ATOM     26  C   UNL     1     143.644  72.899 219.042 -0.18 -0.00    +0.034 C  
DOCKED: ATOM     27  C   UNL     1     145.561  73.208 220.819 -0.51 -0.02    +0.160 C  
DOCKED: ATOM     28  C   UNL     1     145.083  72.847 218.586 -0.20 +0.04    +0.160 C  
DOCKED: ATOM     29  O   UNL     1     145.993  72.665 219.616 -0.62 -0.22    -0.381 OA 
DOCKED: ENDBRANCH  21  24
DOCKED: ENDBRANCH  17  19
DOCKED: ENDBRANCH   1  17
DOCKED: TORSDOF 5
DOCKED: TER
DOCKED: ENDMDL
________________________________________________________________________________


    FINAL DOCKED STATE:
    ________________________


Run:   19 / 20
Time taken for this run:   0.025s

DOCKED: MODEL        19
DOCKED: USER    Run = 19
DOCKED: USER
DOCKED: USER    Estimated Free Energy of Binding    =  -8.72 kcal/mol  [=(1)+(2)+(3)-(4)]
DOCKED: USER
DOCKED: USER    (1) Final Intermolecular Energy     = -10.21 kcal/mol
DOCKED: USER        vdW + Hbond + desolv Energy     = -10.12 kcal/mol
DOCKED: USER        Electrostatic Energy            =  -0.09 kcal/mol
DOCKED: USER        Moving Ligand-Fixed Receptor    = -10.21 kcal/mol
DOCKED: USER        Moving Ligand-Moving Receptor   =  +0.00 kcal/mol
DOCKED: USER    (2) Final Total Internal Energy     =  -1.69 kcal/mol
DOCKED: USER    (3) Torsional Free Energy           =  +1.49 kcal/mol
DOCKED: USER    (4) Unbound System's Energy         =  -1.69 kcal/mol
DOCKED: USER
DOCKED: USER
DOCKED: REMARK SMILES O=C(NCC(=O)N1CCC[C@H]1C1CCOCC1)c1ccc2cc(F)ccc2n1
DOCKED: REMARK SMILES IDX 4 1 3 2 2 3 1 4 18 6 19 7 28 8 20 9 27 10 21 11 26 12 22 13
DOCKED: REMARK SMILES IDX 25 14 23 15 24 16 5 17 6 18 7 19 8 20 11 21 9 22 10 23 12 24
DOCKED: REMARK SMILES IDX 13 25 17 26 14 27 16 28 15 29
DOCKED: REMARK H PARENT 3 5
DOCKED: USER                              x       y       z     vdW  Elec       q    Type
DOCKED: USER                           _______ _______ _______ _____ _____    ______ ____
DOCKED: ROOT
DOCKED: ATOM      1  C   UNL     1     140.266  74.546 221.170 -0.20 -0.04    +0.216 C  
DOCKED: ENDROOT
DOCKED: BRANCH   1   2
DOCKED: ATOM      2  N   UNL     1     140.032  73.731 222.342 -0.05 +0.02    -0.342 N  
DOCKED: ATOM      3  C   UNL     1     140.495  72.401 222.339 -0.20 -0.03    +0.270 C  
DOCKED: ATOM      4  O   UNL     1     141.088  71.978 221.323 -0.15 +0.03    -0.268 OA 
DOCKED: ATOM      5  H   UNL     1     139.532  74.093 223.196 -0.50 -0.02    +0.164 HD 
DOCKED: BRANCH   3   6
DOCKED: ATOM      6  C   UNL     1     140.281  71.541 223.502 -0.33 -0.02    +0.128 A  
DOCKED: ATOM      7  C   UNL     1     139.598  70.335 223.326 -0.26 -0.01    +0.035 A  
DOCKED: ATOM      8  N   UNL     1     140.726  71.889 224.716 -0.26 +0.03    -0.243 NA 
DOCKED: ATOM      9  C   UNL     1     139.396  69.526 224.412 -0.34 -0.00    +0.013 A  
DOCKED: ATOM     10  C   UNL     1     140.547  71.118 225.818 -0.54 -0.01    +0.071 A  
DOCKED: ATOM     11  C   UNL     1     139.866  69.913 225.648 -0.46 -0.00    +0.003 A  
DOCKED: ATOM     12  C   UNL     1     141.024  71.518 227.051 -0.73 -0.01    +0.032 A  
DOCKED: ATOM     13  C   UNL     1     139.663  69.095 226.753 -0.51 -0.01    +0.049 A  
DOCKED: ATOM     14  C   UNL     1     140.815  70.693 228.148 -0.61 -0.01    +0.041 A  
DOCKED: ATOM     15  C   UNL     1     140.139  69.489 227.995 -0.52 -0.02    +0.123 A  
DOCKED: ATOM     16  F   UNL     1     139.922  68.670 229.036 -0.14 +0.03    -0.207 F  
DOCKED: ENDBRANCH   3   6
DOCKED: ENDBRANCH   1   2
DOCKED: BRANCH   1  17
DOCKED: ATOM     17  C   UNL     1     140.510  75.958 221.646 -0.25 -0.06    +0.242 C  
DOCKED: ATOM     18  O   UNL     1     139.868  76.286 222.673 -0.34 +0.05    -0.273 OA 
DOCKED: BRANCH  17  19
DOCKED: ATOM     19  N   UNL     1     141.405  76.787 220.942 -0.13 +0.17    -0.338 N  
DOCKED: ATOM     20  C   UNL     1     142.191  76.326 219.767 -0.26 -0.06    +0.120 C  
DOCKED: ATOM     21  C   UNL     1     141.805  78.157 221.073 -0.28 -0.05    +0.088 C  
DOCKED: ATOM     22  C   UNL     1     141.853  77.412 218.774 -0.24 -0.01    +0.024 C  
DOCKED: ATOM     23  C   UNL     1     141.619  78.637 219.649 -0.26 -0.02    +0.027 C  
DOCKED: BRANCH  21  24
DOCKED: ATOM     24  C   UNL     1     141.151  78.981 222.111 -0.42 -0.01    +0.016 C  
DOCKED: ATOM     25  C   UNL     1     141.211  80.485 221.742 -0.38 -0.01    +0.034 C  
DOCKED: ATOM     26  C   UNL     1     141.829  78.879 223.465 -0.59 -0.01    +0.034 C  
DOCKED: ATOM     27  C   UNL     1     140.682  81.200 222.990 -0.33 -0.02    +0.160 C  
DOCKED: ATOM     28  C   UNL     1     142.570  80.149 223.814 -0.51 -0.04    +0.160 C  
DOCKED: ATOM     29  O   UNL     1     141.762  81.276 223.859 -0.31 +0.05    -0.381 OA 
DOCKED: ENDBRANCH  21  24
DOCKED: ENDBRANCH  17  19
DOCKED: ENDBRANCH   1  17
DOCKED: TORSDOF 5
DOCKED: TER
DOCKED: ENDMDL
________________________________________________________________________________


    FINAL DOCKED STATE:
    ________________________


Run:   20 / 20
Time taken for this run:   0.025s

DOCKED: MODEL        20
DOCKED: USER    Run = 20
DOCKED: USER
DOCKED: USER    Estimated Free Energy of Binding    =  -8.19 kcal/mol  [=(1)+(2)+(3)-(4)]
DOCKED: USER
DOCKED: USER    (1) Final Intermolecular Energy     =  -9.68 kcal/mol
DOCKED: USER        vdW + Hbond + desolv Energy     =  -9.69 kcal/mol
DOCKED: USER        Electrostatic Energy            =  +0.01 kcal/mol
DOCKED: USER        Moving Ligand-Fixed Receptor    =  -9.68 kcal/mol
DOCKED: USER        Moving Ligand-Moving Receptor   =  +0.00 kcal/mol
DOCKED: USER    (2) Final Total Internal Energy     =  -1.60 kcal/mol
DOCKED: USER    (3) Torsional Free Energy           =  +1.49 kcal/mol
DOCKED: USER    (4) Unbound System's Energy         =  -1.60 kcal/mol
DOCKED: USER
DOCKED: USER
DOCKED: REMARK SMILES O=C(NCC(=O)N1CCC[C@H]1C1CCOCC1)c1ccc2cc(F)ccc2n1
DOCKED: REMARK SMILES IDX 4 1 3 2 2 3 1 4 18 6 19 7 28 8 20 9 27 10 21 11 26 12 22 13
DOCKED: REMARK SMILES IDX 25 14 23 15 24 16 5 17 6 18 7 19 8 20 11 21 9 22 10 23 12 24
DOCKED: REMARK SMILES IDX 13 25 17 26 14 27 16 28 15 29
DOCKED: REMARK H PARENT 3 5
DOCKED: USER                              x       y       z     vdW  Elec       q    Type
DOCKED: USER                           _______ _______ _______ _____ _____    ______ ____
DOCKED: ROOT
DOCKED: ATOM      1  C   UNL     1     139.175  73.721 221.516 -0.16 -0.05    +0.216 C  
DOCKED: ENDROOT
DOCKED: BRANCH   1   2
DOCKED: ATOM      2  N   UNL     1     139.464  72.900 222.670 -0.07 +0.08    -0.342 N  
DOCKED: ATOM      3  C   UNL     1     139.086  71.543 222.642 -0.17 -0.06    +0.270 C  
DOCKED: ATOM      4  O   UNL     1     138.514  71.105 221.620 -0.06 +0.05    -0.268 OA 
DOCKED: ATOM      5  H   UNL     1     139.947  73.274 223.529 -0.36 -0.01    +0.164 HD 
DOCKED: BRANCH   3   6
DOCKED: ATOM      6  C   UNL     1     139.359  70.675 223.786 -0.28 -0.02    +0.128 A  
DOCKED: ATOM      7  C   UNL     1     138.988  69.330 223.709 -0.27 -0.01    +0.035 A  
DOCKED: ATOM      8  N   UNL     1     139.952  71.144 224.890 -0.30 +0.04    -0.243 NA 
DOCKED: ATOM      9  C   UNL     1     139.241  68.512 224.777 -0.38 -0.00    +0.013 A  
DOCKED: ATOM     10  C   UNL     1     140.221  70.370 225.971 -0.48 -0.01    +0.071 A  
DOCKED: ATOM     11  C   UNL     1     139.853  69.027 225.900 -0.50 -0.00    +0.003 A  
DOCKED: ATOM     12  C   UNL     1     140.835  70.899 227.090 -0.65 -0.01    +0.032 A  
DOCKED: ATOM     13  C   UNL     1     140.112  68.201 226.987 -0.62 -0.01    +0.049 A  
DOCKED: ATOM     14  C   UNL     1     141.089  70.065 228.170 -0.54 -0.01    +0.041 A  
DOCKED: ATOM     15  C   UNL     1     140.728  68.724 228.115 -0.55 -0.03    +0.123 A  
DOCKED: ATOM     16  F   UNL     1     140.961  67.893 229.142 -0.18 +0.06    -0.207 F  
DOCKED: ENDBRANCH   3   6
DOCKED: ENDBRANCH   1   2
DOCKED: BRANCH   1  17
DOCKED: ATOM     17  C   UNL     1     139.876  75.044 221.719 -0.21 -0.04    +0.242 C  
DOCKED: ATOM     18  O   UNL     1     141.100  74.956 221.979 -0.58 +0.03    -0.273 OA 
DOCKED: BRANCH  17  19
DOCKED: ATOM     19  N   UNL     1     139.147  76.244 221.610 -0.12 +0.08    -0.338 N  
DOCKED: ATOM     20  C   UNL     1     137.721  76.296 221.192 -0.11 -0.03    +0.120 C  
DOCKED: ATOM     21  C   UNL     1     139.461  77.623 221.838 -0.24 -0.02    +0.088 C  
DOCKED: ATOM     22  C   UNL     1     137.144  77.128 222.312 -0.21 -0.00    +0.024 C  
DOCKED: ATOM     23  C   UNL     1     138.302  78.028 222.724 -0.27 -0.00    +0.027 C  
DOCKED: BRANCH  21  24
DOCKED: ATOM     24  C   UNL     1     140.804  77.958 222.357 -0.44 -0.01    +0.016 C  
DOCKED: ATOM     25  C   UNL     1     140.709  78.991 223.509 -0.47 -0.01    +0.034 C  
DOCKED: ATOM     26  C   UNL     1     141.698  78.608 221.317 -0.36 -0.02    +0.034 C  
DOCKED: ATOM     27  C   UNL     1     142.166  79.374 223.792 -0.46 -0.05    +0.160 C  
DOCKED: ATOM     28  C   UNL     1     141.910  80.076 221.603 -0.35 -0.07    +0.160 C  
DOCKED: ATOM     29  O   UNL     1     142.489  80.330 222.838 -0.33 +0.12    -0.381 OA 
DOCKED: ENDBRANCH  21  24
DOCKED: ENDBRANCH  17  19
DOCKED: ENDBRANCH   1  17
DOCKED: TORSDOF 5
DOCKED: TER
DOCKED: ENDMDL
________________________________________________________________________________


    CLUSTERING HISTOGRAM
    ____________________


________________________________________________________________________________
     |           |     |           |     |
Clus | Lowest    | Run | Mean      | Num | Histogram
-ter | Binding   |     | Binding   | in  |
Rank | Energy    |     | Energy    | Clus|    5    10   15   20   25   30   35
_____|___________|_____|___________|_____|____:____|____:____|____:____|____:___
   1 |     -8.75 |   8 |     -8.63 |   6 |######
   2 |     -8.61 |   7 |     -8.50 |  13 |#############
   3 |     -7.88 |  16 |     -7.88 |   1 |#
_____|___________|_____|___________|_____|______________________________________


    RMSD TABLE
    __________


_______________________________________________________________________
     |      |      |           |         |                 |
Rank | Sub- | Run  | Binding   | Cluster | Reference       | Grep
     | Rank |      | Energy    | RMSD    | RMSD            | Pattern
_____|______|______|___________|_________|_________________|___________
   1      1      8       -8.75      0.00    271.57           RANKING
   1      2     19       -8.72      0.08    271.59           RANKING
   1      3     13       -8.72      1.33    271.56           RANKING
   1      4      4       -8.71      0.11    271.57           RANKING
   1      5      3       -8.68      1.22    271.59           RANKING
   1      6     20       -8.19      1.60    271.28           RANKING
   2      1      7       -8.61      0.00    270.83           RANKING
   2      2     18       -8.57      0.46    270.73           RANKING
   2      3     14       -8.56      0.46    270.76           RANKING
   2      4     11       -8.56      0.46    270.76           RANKING
   2      5     10       -8.55      0.47    270.72           RANKING
   2      6      1       -8.55      0.47    270.76           RANKING
   2      7      6       -8.55      0.46    270.75           RANKING
   2      8     12       -8.54      0.47    270.75           RANKING
   2      9      2       -8.54      0.46    270.74           RANKING
   2     10     15       -8.54      0.46    270.74           RANKING
   2     11      5       -8.48      0.49    270.80           RANKING
   2     12     17       -8.31      0.70    270.82           RANKING
   2     13      9       -8.11      0.80    270.67           RANKING
   3      1     16       -7.88      0.00    271.16           RANKING

Run time 0.468 sec
Idle time 0.000 sec
