AutoDock-GPU version: v1.6

**********************************************************
**    AutoDock-GPU AUTODOCKTOOLS-COMPATIBLE DLG FILE    **
**********************************************************


    DOCKING PARAMETERS
    ________________________


Ligand file:                               /home/a/REINVENT4/ReinventStudies/pleaseWork/justmol2mol_4_Compounds_ontop/graph-dock/graph-DockGPU/node-autodockgpu/inputs/VSWJIFYCPACIQN-LWBVEPCBNA-N.pdbqt
Grid fld file:                             /home/a/REINVENT4/ReinventStudies/mols/Rad51/maps/rad51_receptor.maps.fld

Random seed:                               42
Number of runs:                            20
Number of energy evaluations:              1132076
Number of generations:                     42000
Size of population:                        150
Rate of crossover:                         80.000000%
Tournament selection probability limit:    60.000000%
Rate of mutation:                          2.000000%
Maximal allowed delta movement:            +/- 6.000000A
Maximal allowed delta angle:               +/- 90.000000

Rate of local search:                      100.000000%
Maximal number of local search iterations: 300
Rho lower bound:                           0.010000
Spread of local search delta movement:     2.000000A
Spread of local search delta angle:        74.999999
Limit of consecutive successes/failures:   4

Handle symmetry during clustering:         YES
RMSD tolerance:                            2.000000A

Program call in command line was:          /home/a/REINVENT4/ReinventStudies/adgpu-v1.6_linux_x64_cuda12_128wi --filelist batch.txt --heuristics 1 --nrun 20 --psize 150 --lsit 300 --seed 42 --heurmax 12000000 


    GRID PARAMETERS
    ________________________


Receptor name:                             rad51_receptor
Number of grid points (x, y, z):           53, 53, 53
Grid center (x, y, z):                     139.950000, 75.640000, 221.970000A
Grid size (x, y, z):                       19.500000, 19.500000, 19.500000A
Grid spacing:                              0.375000A


    LIGAND PARAMETERS
    ________________________


Ligand name:                               /home/a/REINVENT4/ReinventStudies/pleaseWork/justmol2mol_4_Compounds_ontop/graph-dock/graph-DockGPU/node-autodockgpu/inputs/VSWJIFYCPACIQN-LWBVEPCBNA-N
Number of atoms:                           27
Number of rotatable bonds:                 6
Number of atom types:                      7


    DUMMY DATA (only for ADT-compatibility)
    ________________________


DPF> outlev 1
DPF> ga_run 20
DPF> fld /home/a/REINVENT4/ReinventStudies/mols/Rad51/maps/rad51_receptor.maps.fld
DPF> move /home/a/REINVENT4/ReinventStudies/pleaseWork/justmol2mol_4_Compounds_ontop/graph-dock/graph-DockGPU/node-autodockgpu/inputs/VSWJIFYCPACIQN-LWBVEPCBNA-N.pdbqt


    COUNTER STATES
    ________________________


Number of energy evaluations performed:    681162
Number of generations used:                30


    INPUT LIGAND PDBQT FILE:
    ________________________


INPUT-LIGAND-PDBQT: REMARK SMILES O=C(NCC(=O)N1CC[C@H](O)[C@@H]1c1cccc(Cl)c1)c1ccncc1
INPUT-LIGAND-PDBQT: REMARK SMILES IDX 5 1 6 2 4 3 3 4 2 5 1 6 20 8 21 9 25 10 22 11 24 12 23 13
INPUT-LIGAND-PDBQT: REMARK SMILES IDX 7 14 8 15 12 16 9 17 10 18 13 19 14 20 19 21 15 22 17 23
INPUT-LIGAND-PDBQT: REMARK SMILES IDX 16 24 18 25 11 26
INPUT-LIGAND-PDBQT: REMARK H PARENT 3 7 11 27
INPUT-LIGAND-PDBQT: ROOT
INPUT-LIGAND-PDBQT: ATOM      1  C   UNL     1       0.148  -0.843   1.177  1.00  0.00     0.242 C 
INPUT-LIGAND-PDBQT: ATOM      2  O   UNL     1       1.041  -1.618   1.647  1.00  0.00    -0.273 OA
INPUT-LIGAND-PDBQT: ENDROOT
INPUT-LIGAND-PDBQT: BRANCH   1   3
INPUT-LIGAND-PDBQT: ATOM      3  C   UNL     1       0.509   0.309   0.363  1.00  0.00     0.216 C 
INPUT-LIGAND-PDBQT: BRANCH   3   4
INPUT-LIGAND-PDBQT: ATOM      4  N   UNL     1       1.976   0.331   0.252  1.00  0.00    -0.343 N 
INPUT-LIGAND-PDBQT: ATOM      5  C   UNL     1       2.593   1.350  -0.488  1.00  0.00     0.251 C 
INPUT-LIGAND-PDBQT: ATOM      6  O   UNL     1       1.887   2.244  -1.055  1.00  0.00    -0.269 OA
INPUT-LIGAND-PDBQT: ATOM      7  H   UNL     1       2.577  -0.390   0.706  1.00  0.00     0.164 HD
INPUT-LIGAND-PDBQT: BRANCH   5   8
INPUT-LIGAND-PDBQT: ATOM      8  C   UNL     1       4.033   1.463  -0.660  1.00  0.00     0.042 A 
INPUT-LIGAND-PDBQT: ATOM      9  C   UNL     1       4.539   2.506  -1.409  1.00  0.00     0.034 A 
INPUT-LIGAND-PDBQT: ATOM     10  C   UNL     1       4.937   0.585  -0.117  1.00  0.00     0.034 A 
INPUT-LIGAND-PDBQT: ATOM     11  C   UNL     1       5.907   2.651  -1.599  1.00  0.00     0.112 A 
INPUT-LIGAND-PDBQT: ATOM     12  C   UNL     1       6.307   0.750  -0.321  1.00  0.00     0.112 A 
INPUT-LIGAND-PDBQT: ATOM     13  N   UNL     1       6.780   1.771  -1.052  1.00  0.00    -0.265 NA
INPUT-LIGAND-PDBQT: ENDBRANCH   5   8
INPUT-LIGAND-PDBQT: ENDBRANCH   3   4
INPUT-LIGAND-PDBQT: ENDBRANCH   1   3
INPUT-LIGAND-PDBQT: BRANCH   1  14
INPUT-LIGAND-PDBQT: ATOM     14  N   UNL     1      -1.206  -1.205   1.519  1.00  0.00    -0.331 N 
INPUT-LIGAND-PDBQT: ATOM     15  C   UNL     1      -1.450  -2.386   2.356  1.00  0.00     0.123 C 
INPUT-LIGAND-PDBQT: ATOM     16  C   UNL     1      -2.382  -0.536   1.141  1.00  0.00     0.144 C 
INPUT-LIGAND-PDBQT: ATOM     17  C   UNL     1      -2.857  -2.040   2.884  1.00  0.00     0.056 C 
INPUT-LIGAND-PDBQT: ATOM     18  C   UNL     1      -3.510  -1.335   1.718  1.00  0.00     0.143 C 
INPUT-LIGAND-PDBQT: BRANCH  16  19
INPUT-LIGAND-PDBQT: ATOM     19  C   UNL     1      -2.558  -0.165  -0.253  1.00  0.00    -0.021 A 
INPUT-LIGAND-PDBQT: ATOM     20  C   UNL     1      -2.294  -1.105  -1.250  1.00  0.00     0.006 A 
INPUT-LIGAND-PDBQT: ATOM     21  C   UNL     1      -2.985   1.106  -0.665  1.00  0.00     0.026 A 
INPUT-LIGAND-PDBQT: ATOM     22  C   UNL     1      -2.448  -0.792  -2.596  1.00  0.00     0.002 A 
INPUT-LIGAND-PDBQT: ATOM     23  C   UNL     1      -3.127   1.379  -2.010  1.00  0.00     0.041 A 
INPUT-LIGAND-PDBQT: ATOM     24  C   UNL     1      -2.872   0.469  -2.987  1.00  0.00     0.020 A 
INPUT-LIGAND-PDBQT: ATOM     25  Cl  UNL     1      -3.665   2.982  -2.494  1.00  0.00    -0.084 Cl
INPUT-LIGAND-PDBQT: ENDBRANCH  16  19
INPUT-LIGAND-PDBQT: BRANCH  18  26
INPUT-LIGAND-PDBQT: ATOM     26  O   UNL     1      -3.955  -2.283   0.775  1.00  0.00    -0.391 OA
INPUT-LIGAND-PDBQT: ATOM     27  H   UNL     1      -4.598  -1.842   0.188  1.00  0.00     0.211 HD
INPUT-LIGAND-PDBQT: ENDBRANCH  18  26
INPUT-LIGAND-PDBQT: ENDBRANCH   1  14
INPUT-LIGAND-PDBQT: TORSDOF 6


    FINAL DOCKED STATE:
    ________________________


Run:   1 / 20
Time taken for this run:   0.028s

DOCKED: MODEL        1
DOCKED: USER    Run = 1
DOCKED: USER
DOCKED: USER    Estimated Free Energy of Binding    =  -6.77 kcal/mol  [=(1)+(2)+(3)-(4)]
DOCKED: USER
DOCKED: USER    (1) Final Intermolecular Energy     =  -8.56 kcal/mol
DOCKED: USER        vdW + Hbond + desolv Energy     =  -8.41 kcal/mol
DOCKED: USER        Electrostatic Energy            =  -0.16 kcal/mol
DOCKED: USER        Moving Ligand-Fixed Receptor    =  -8.56 kcal/mol
DOCKED: USER        Moving Ligand-Moving Receptor   =  +0.00 kcal/mol
DOCKED: USER    (2) Final Total Internal Energy     =  -1.72 kcal/mol
DOCKED: USER    (3) Torsional Free Energy           =  +1.79 kcal/mol
DOCKED: USER    (4) Unbound System's Energy         =  -1.72 kcal/mol
DOCKED: USER
DOCKED: USER
DOCKED: REMARK SMILES O=C(NCC(=O)N1CC[C@H](O)[C@@H]1c1cccc(Cl)c1)c1ccncc1
DOCKED: REMARK SMILES IDX 5 1 6 2 4 3 3 4 2 5 1 6 20 8 21 9 25 10 22 11 24 12 23 13
DOCKED: REMARK SMILES IDX 7 14 8 15 12 16 9 17 10 18 13 19 14 20 19 21 15 22 17 23
DOCKED: REMARK SMILES IDX 16 24 18 25 11 26
DOCKED: REMARK H PARENT 3 7 11 27
DOCKED: USER                              x       y       z     vdW  Elec       q    Type
DOCKED: USER                           _______ _______ _______ _____ _____    ______ ____
DOCKED: ROOT
DOCKED: ATOM      1  C   UNL     1     139.323  75.493 221.688 -0.20 -0.05    +0.242 C  
DOCKED: ATOM      2  O   UNL     1     139.584  74.436 222.346 -0.78 +0.04    -0.273 OA 
DOCKED: ENDROOT
DOCKED: BRANCH   1   3
DOCKED: ATOM      3  C   UNL     1     138.097  76.241 221.928 -0.18 -0.05    +0.216 C  
DOCKED: BRANCH   3   4
DOCKED: ATOM      4  N   UNL     1     137.316  75.501 222.932 -0.04 +0.11    -0.343 N  
DOCKED: ATOM      5  C   UNL     1     136.184  76.103 223.501 -0.16 -0.05    +0.251 C  
DOCKED: ATOM      6  O   UNL     1     135.840  77.276 223.149 -0.13 +0.04    -0.269 OA 
DOCKED: ATOM      7  H   UNL     1     137.577  74.539 223.238 -0.43 -0.12    +0.164 HD 
DOCKED: BRANCH   5   8
DOCKED: ATOM      8  C   UNL     1     135.345  75.459 224.499 -0.32 -0.01    +0.042 A  
DOCKED: ATOM      9  C   UNL     1     135.238  74.083 224.500 -0.28 -0.01    +0.034 A  
DOCKED: ATOM     10  C   UNL     1     134.639  76.142 225.457 -0.25 -0.00    +0.034 A  
DOCKED: ATOM     11  C   UNL     1     134.448  73.428 225.435 -0.23 -0.00    +0.112 A  
DOCKED: ATOM     12  C   UNL     1     133.850  75.463 226.387 -0.34 +0.00    +0.112 A  
DOCKED: ATOM     13  N   UNL     1     133.760  74.125 226.371 -0.74 -0.03    -0.265 NA 
DOCKED: ENDBRANCH   5   8
DOCKED: ENDBRANCH   3   4
DOCKED: ENDBRANCH   1   3
DOCKED: BRANCH   1  14
DOCKED: ATOM     14  N   UNL     1     140.324  75.863 220.717 -0.08 +0.09    -0.331 N  
DOCKED: ATOM     15  C   UNL     1     141.044  74.814 219.985 -0.14 -0.03    +0.123 C  
DOCKED: ATOM     16  C   UNL     1     140.715  77.163 220.357 -0.16 -0.06    +0.144 C  
DOCKED: ATOM     17  C   UNL     1     141.519  75.631 218.767 -0.12 -0.02    +0.056 C  
DOCKED: ATOM     18  C   UNL     1     141.806  76.997 219.345 -0.20 -0.07    +0.143 C  
DOCKED: BRANCH  16  19
DOCKED: ATOM     19  C   UNL     1     141.010  78.121 221.410 -0.32 +0.01    -0.021 A  
DOCKED: ATOM     20  C   UNL     1     141.244  77.662 222.707 -0.39 -0.00    +0.006 A  
DOCKED: ATOM     21  C   UNL     1     141.074  79.506 221.197 -0.30 -0.01    +0.026 A  
DOCKED: ATOM     22  C   UNL     1     141.529  78.543 223.744 -0.55 -0.00    +0.002 A  
DOCKED: ATOM     23  C   UNL     1     141.360  80.349 222.251 -0.42 -0.01    +0.041 A  
DOCKED: ATOM     24  C   UNL     1     141.590  79.910 223.517 -0.57 -0.00    +0.020 A  
DOCKED: ATOM     25  Cl  UNL     1     141.434  82.080 221.951 -0.46 +0.01    -0.084 Cl 
DOCKED: ENDBRANCH  16  19
DOCKED: BRANCH  18  26
DOCKED: ATOM     26  O   UNL     1     143.059  76.988 219.991 -0.18 +0.32    -0.391 OA 
DOCKED: ATOM     27  H   UNL     1     143.324  77.915 220.143 -0.42 -0.27    +0.211 HD 
DOCKED: ENDBRANCH  18  26
DOCKED: ENDBRANCH   1  14
DOCKED: TORSDOF 6
DOCKED: TER
DOCKED: ENDMDL
________________________________________________________________________________


    FINAL DOCKED STATE:
    ________________________


Run:   2 / 20
Time taken for this run:   0.028s

DOCKED: MODEL        2
DOCKED: USER    Run = 2
DOCKED: USER
DOCKED: USER    Estimated Free Energy of Binding    =  -6.74 kcal/mol  [=(1)+(2)+(3)-(4)]
DOCKED: USER
DOCKED: USER    (1) Final Intermolecular Energy     =  -8.53 kcal/mol
DOCKED: USER        vdW + Hbond + desolv Energy     =  -8.34 kcal/mol
DOCKED: USER        Electrostatic Energy            =  -0.19 kcal/mol
DOCKED: USER        Moving Ligand-Fixed Receptor    =  -8.53 kcal/mol
DOCKED: USER        Moving Ligand-Moving Receptor   =  +0.00 kcal/mol
DOCKED: USER    (2) Final Total Internal Energy     =  -1.69 kcal/mol
DOCKED: USER    (3) Torsional Free Energy           =  +1.79 kcal/mol
DOCKED: USER    (4) Unbound System's Energy         =  -1.69 kcal/mol
DOCKED: USER
DOCKED: USER
DOCKED: REMARK SMILES O=C(NCC(=O)N1CC[C@H](O)[C@@H]1c1cccc(Cl)c1)c1ccncc1
DOCKED: REMARK SMILES IDX 5 1 6 2 4 3 3 4 2 5 1 6 20 8 21 9 25 10 22 11 24 12 23 13
DOCKED: REMARK SMILES IDX 7 14 8 15 12 16 9 17 10 18 13 19 14 20 19 21 15 22 17 23
DOCKED: REMARK SMILES IDX 16 24 18 25 11 26
DOCKED: REMARK H PARENT 3 7 11 27
DOCKED: USER                              x       y       z     vdW  Elec       q    Type
DOCKED: USER                           _______ _______ _______ _____ _____    ______ ____
DOCKED: ROOT
DOCKED: ATOM      1  C   UNL     1     139.537  75.336 221.472 -0.20 -0.05    +0.242 C  
DOCKED: ATOM      2  O   UNL     1     139.921  74.495 222.348 -0.79 +0.01    -0.273 OA 
DOCKED: ENDROOT
DOCKED: BRANCH   1   3
DOCKED: ATOM      3  C   UNL     1     138.164  75.818 221.449 -0.14 -0.05    +0.216 C  
DOCKED: BRANCH   3   4
DOCKED: ATOM      4  N   UNL     1     137.459  75.203 222.585 -0.06 +0.11    -0.343 N  
DOCKED: ATOM      5  C   UNL     1     136.245  75.756 223.019 -0.17 -0.06    +0.251 C  
DOCKED: ATOM      6  O   UNL     1     135.763  76.777 222.434 -0.08 +0.04    -0.269 OA 
DOCKED: ATOM      7  H   UNL     1     137.833  74.367 223.082 -0.50 -0.11    +0.164 HD 
DOCKED: BRANCH   5   8
DOCKED: ATOM      8  C   UNL     1     135.470  75.226 224.131 -0.30 -0.01    +0.042 A  
DOCKED: ATOM      9  C   UNL     1     135.355  73.858 224.276 -0.26 -0.01    +0.034 A  
DOCKED: ATOM     10  C   UNL     1     134.834  76.011 225.059 -0.29 -0.00    +0.034 A  
DOCKED: ATOM     11  C   UNL     1     134.625  73.310 225.322 -0.22 -0.00    +0.112 A  
DOCKED: ATOM     12  C   UNL     1     134.105  75.438 226.102 -0.35 -0.00    +0.112 A  
DOCKED: ATOM     13  N   UNL     1     134.006  74.106 226.227 -0.71 -0.03    -0.265 NA 
DOCKED: ENDBRANCH   5   8
DOCKED: ENDBRANCH   3   4
DOCKED: ENDBRANCH   1   3
DOCKED: BRANCH   1  14
DOCKED: ATOM     14  N   UNL     1     140.559  75.746 220.541 -0.08 +0.10    -0.331 N  
DOCKED: ATOM     15  C   UNL     1     141.355  74.728 219.844 -0.14 -0.04    +0.123 C  
DOCKED: ATOM     16  C   UNL     1     140.906  77.061 220.190 -0.17 -0.06    +0.144 C  
DOCKED: ATOM     17  C   UNL     1     141.842  75.561 218.641 -0.13 -0.02    +0.056 C  
DOCKED: ATOM     18  C   UNL     1     142.045  76.940 219.224 -0.22 -0.08    +0.143 C  
DOCKED: BRANCH  16  19
DOCKED: ATOM     19  C   UNL     1     141.116  78.035 221.249 -0.32 +0.01    -0.021 A  
DOCKED: ATOM     20  C   UNL     1     141.267  77.594 222.564 -0.35 -0.00    +0.006 A  
DOCKED: ATOM     21  C   UNL     1     141.176  79.418 221.024 -0.30 -0.01    +0.026 A  
DOCKED: ATOM     22  C   UNL     1     141.468  78.491 223.607 -0.55 -0.00    +0.002 A  
DOCKED: ATOM     23  C   UNL     1     141.378  80.277 222.084 -0.41 -0.01    +0.041 A  
DOCKED: ATOM     24  C   UNL     1     141.526  79.856 223.368 -0.56 -0.00    +0.020 A  
DOCKED: ATOM     25  Cl  UNL     1     141.449  82.006 221.769 -0.46 +0.02    -0.084 Cl 
DOCKED: ENDBRANCH  16  19
DOCKED: BRANCH  18  26
DOCKED: ATOM     26  O   UNL     1     143.269  76.989 219.920 -0.15 +0.34    -0.391 OA 
DOCKED: ATOM     27  H   UNL     1     143.673  77.862 219.753 -0.42 -0.28    +0.211 HD 
DOCKED: ENDBRANCH  18  26
DOCKED: ENDBRANCH   1  14
DOCKED: TORSDOF 6
DOCKED: TER
DOCKED: ENDMDL
________________________________________________________________________________


    FINAL DOCKED STATE:
    ________________________


Run:   3 / 20
Time taken for this run:   0.028s

DOCKED: MODEL        3
DOCKED: USER    Run = 3
DOCKED: USER
DOCKED: USER    Estimated Free Energy of Binding    =  -6.40 kcal/mol  [=(1)+(2)+(3)-(4)]
DOCKED: USER
DOCKED: USER    (1) Final Intermolecular Energy     =  -8.19 kcal/mol
DOCKED: USER        vdW + Hbond + desolv Energy     =  -8.07 kcal/mol
DOCKED: USER        Electrostatic Energy            =  -0.12 kcal/mol
DOCKED: USER        Moving Ligand-Fixed Receptor    =  -8.19 kcal/mol
DOCKED: USER        Moving Ligand-Moving Receptor   =  +0.00 kcal/mol
DOCKED: USER    (2) Final Total Internal Energy     =  -1.85 kcal/mol
DOCKED: USER    (3) Torsional Free Energy           =  +1.79 kcal/mol
DOCKED: USER    (4) Unbound System's Energy         =  -1.85 kcal/mol
DOCKED: USER
DOCKED: USER
DOCKED: REMARK SMILES O=C(NCC(=O)N1CC[C@H](O)[C@@H]1c1cccc(Cl)c1)c1ccncc1
DOCKED: REMARK SMILES IDX 5 1 6 2 4 3 3 4 2 5 1 6 20 8 21 9 25 10 22 11 24 12 23 13
DOCKED: REMARK SMILES IDX 7 14 8 15 12 16 9 17 10 18 13 19 14 20 19 21 15 22 17 23
DOCKED: REMARK SMILES IDX 16 24 18 25 11 26
DOCKED: REMARK H PARENT 3 7 11 27
DOCKED: USER                              x       y       z     vdW  Elec       q    Type
DOCKED: USER                           _______ _______ _______ _____ _____    ______ ____
DOCKED: ROOT
DOCKED: ATOM      1  C   UNL     1     140.109  75.893 221.594 -0.24 -0.06    +0.242 C  
DOCKED: ATOM      2  O   UNL     1     140.004  74.702 222.029 -0.76 +0.03    -0.273 OA 
DOCKED: ENDROOT
DOCKED: BRANCH   1   3
DOCKED: ATOM      3  C   UNL     1     141.204  76.274 220.713 -0.20 -0.09    +0.216 C  
DOCKED: BRANCH   3   4
DOCKED: ATOM      4  N   UNL     1     142.150  75.148 220.668 -0.14 +0.14    -0.343 N  
DOCKED: ATOM      5  C   UNL     1     143.386  75.315 220.027 -0.23 -0.13    +0.251 C  
DOCKED: ATOM      6  O   UNL     1     143.682  76.431 219.492 -0.35 +0.20    -0.269 OA 
DOCKED: ATOM      7  H   UNL     1     141.931  74.223 221.098 +0.05 -0.03    +0.164 HD 
DOCKED: BRANCH   5   8
DOCKED: ATOM      8  C   UNL     1     144.390  74.267 219.926 -0.41 -0.01    +0.042 A  
DOCKED: ATOM      9  C   UNL     1     144.350  73.401 218.853 -0.23 -0.00    +0.034 A  
DOCKED: ATOM     10  C   UNL     1     145.392  74.081 220.845 -0.58 -0.01    +0.034 A  
DOCKED: ATOM     11  C   UNL     1     145.289  72.387 218.718 -0.22 +0.05    +0.112 A  
DOCKED: ATOM     12  C   UNL     1     146.324  73.055 220.690 -0.51 +0.02    +0.112 A  
DOCKED: ATOM     13  N   UNL     1     146.269  72.223 219.639 -0.51 -0.24    -0.265 NA 
DOCKED: ENDBRANCH   5   8
DOCKED: ENDBRANCH   3   4
DOCKED: ENDBRANCH   1   3
DOCKED: BRANCH   1  14
DOCKED: ATOM     14  N   UNL     1     139.076  76.793 222.043 -0.15 +0.07    -0.331 N  
DOCKED: ATOM     15  C   UNL     1     137.691  76.584 221.603 -0.15 -0.03    +0.123 C  
DOCKED: ATOM     16  C   UNL     1     139.229  77.898 222.897 -0.14 -0.02    +0.144 C  
DOCKED: ATOM     17  C   UNL     1     136.949  77.354 222.714 -0.21 -0.01    +0.056 C  
DOCKED: ATOM     18  C   UNL     1     137.869  78.515 223.016 -0.13 -0.02    +0.143 C  
DOCKED: BRANCH  16  19
DOCKED: ATOM     19  C   UNL     1     140.298  78.845 222.631 -0.38 +0.01    -0.021 A  
DOCKED: ATOM     20  C   UNL     1     141.159  79.215 223.665 -0.56 -0.00    +0.006 A  
DOCKED: ATOM     21  C   UNL     1     140.522  79.421 221.372 -0.25 -0.01    +0.026 A  
DOCKED: ATOM     22  C   UNL     1     142.194  80.119 223.454 -0.64 -0.00    +0.002 A  
DOCKED: ATOM     23  C   UNL     1     141.561  80.313 221.201 -0.35 -0.02    +0.041 A  
DOCKED: ATOM     24  C   UNL     1     142.403  80.679 222.203 -0.51 -0.01    +0.020 A  
DOCKED: ATOM     25  Cl  UNL     1     141.815  81.018 219.610 -0.31 +0.04    -0.084 Cl 
DOCKED: ENDBRANCH  16  19
DOCKED: BRANCH  18  26
DOCKED: ATOM     26  O   UNL     1     137.712  79.516 222.036 -0.04 +0.06    -0.391 OA 
DOCKED: ATOM     27  H   UNL     1     137.764  80.382 222.483 +0.07 -0.03    +0.211 HD 
DOCKED: ENDBRANCH  18  26
DOCKED: ENDBRANCH   1  14
DOCKED: TORSDOF 6
DOCKED: TER
DOCKED: ENDMDL
________________________________________________________________________________


    FINAL DOCKED STATE:
    ________________________


Run:   4 / 20
Time taken for this run:   0.028s

DOCKED: MODEL        4
DOCKED: USER    Run = 4
DOCKED: USER
DOCKED: USER    Estimated Free Energy of Binding    =  -6.83 kcal/mol  [=(1)+(2)+(3)-(4)]
DOCKED: USER
DOCKED: USER    (1) Final Intermolecular Energy     =  -8.62 kcal/mol
DOCKED: USER        vdW + Hbond + desolv Energy     =  -8.45 kcal/mol
DOCKED: USER        Electrostatic Energy            =  -0.16 kcal/mol
DOCKED: USER        Moving Ligand-Fixed Receptor    =  -8.62 kcal/mol
DOCKED: USER        Moving Ligand-Moving Receptor   =  +0.00 kcal/mol
DOCKED: USER    (2) Final Total Internal Energy     =  -1.70 kcal/mol
DOCKED: USER    (3) Torsional Free Energy           =  +1.79 kcal/mol
DOCKED: USER    (4) Unbound System's Energy         =  -1.70 kcal/mol
DOCKED: USER
DOCKED: USER
DOCKED: REMARK SMILES O=C(NCC(=O)N1CC[C@H](O)[C@@H]1c1cccc(Cl)c1)c1ccncc1
DOCKED: REMARK SMILES IDX 5 1 6 2 4 3 3 4 2 5 1 6 20 8 21 9 25 10 22 11 24 12 23 13
DOCKED: REMARK SMILES IDX 7 14 8 15 12 16 9 17 10 18 13 19 14 20 19 21 15 22 17 23
DOCKED: REMARK SMILES IDX 16 24 18 25 11 26
DOCKED: REMARK H PARENT 3 7 11 27
DOCKED: USER                              x       y       z     vdW  Elec       q    Type
DOCKED: USER                           _______ _______ _______ _____ _____    ______ ____
DOCKED: ROOT
DOCKED: ATOM      1  C   UNL     1     139.522  75.353 221.537 -0.20 -0.05    +0.242 C  
DOCKED: ATOM      2  O   UNL     1     139.837  74.393 222.310 -0.80 +0.02    -0.273 OA 
DOCKED: ENDROOT
DOCKED: BRANCH   1   3
DOCKED: ATOM      3  C   UNL     1     138.206  75.972 221.609 -0.16 -0.05    +0.216 C  
DOCKED: BRANCH   3   4
DOCKED: ATOM      4  N   UNL     1     137.453  75.289 222.673 -0.07 +0.11    -0.343 N  
DOCKED: ATOM      5  C   UNL     1     136.311  75.903 223.208 -0.18 -0.06    +0.251 C  
DOCKED: ATOM      6  O   UNL     1     135.934  77.038 222.773 -0.11 +0.04    -0.269 OA 
DOCKED: ATOM      7  H   UNL     1     137.741  74.359 223.047 -0.49 -0.11    +0.164 HD 
DOCKED: BRANCH   5   8
DOCKED: ATOM      8  C   UNL     1     135.497  75.314 224.260 -0.31 -0.01    +0.042 A  
DOCKED: ATOM      9  C   UNL     1     135.403  73.940 224.345 -0.26 -0.01    +0.034 A  
DOCKED: ATOM     10  C   UNL     1     134.804  76.049 225.189 -0.27 -0.00    +0.034 A  
DOCKED: ATOM     11  C   UNL     1     134.636  73.336 225.334 -0.22 -0.00    +0.112 A  
DOCKED: ATOM     12  C   UNL     1     134.040  75.421 226.173 -0.34 +0.00    +0.112 A  
DOCKED: ATOM     13  N   UNL     1     133.961  74.083 226.240 -0.72 -0.03    -0.265 NA 
DOCKED: ENDBRANCH   5   8
DOCKED: ENDBRANCH   3   4
DOCKED: ENDBRANCH   1   3
DOCKED: BRANCH   1  14
DOCKED: ATOM     14  N   UNL     1     140.559  75.751 220.616 -0.08 +0.10    -0.331 N  
DOCKED: ATOM     15  C   UNL     1     141.344  74.724 219.923 -0.15 -0.03    +0.123 C  
DOCKED: ATOM     16  C   UNL     1     140.929  77.063 220.274 -0.18 -0.06    +0.144 C  
DOCKED: ATOM     17  C   UNL     1     141.855  75.554 218.728 -0.14 -0.02    +0.056 C  
DOCKED: ATOM     18  C   UNL     1     142.074  76.928 219.318 -0.23 -0.08    +0.143 C  
DOCKED: BRANCH  16  19
DOCKED: ATOM     19  C   UNL     1     141.144  78.028 221.339 -0.33 +0.01    -0.021 A  
DOCKED: ATOM     20  C   UNL     1     141.323  77.577 222.647 -0.32 -0.00    +0.006 A  
DOCKED: ATOM     21  C   UNL     1     141.182  79.414 221.126 -0.31 -0.01    +0.026 A  
DOCKED: ATOM     22  C   UNL     1     141.530  78.466 223.695 -0.53 -0.00    +0.002 A  
DOCKED: ATOM     23  C   UNL     1     141.391  80.266 222.192 -0.42 -0.01    +0.041 A  
DOCKED: ATOM     24  C   UNL     1     141.566  79.834 223.469 -0.57 -0.00    +0.020 A  
DOCKED: ATOM     25  Cl  UNL     1     141.435  81.998 221.893 -0.47 +0.02    -0.084 Cl 
DOCKED: ENDBRANCH  16  19
DOCKED: BRANCH  18  26
DOCKED: ATOM     26  O   UNL     1     143.292  76.955 220.025 -0.13 +0.35    -0.391 OA 
DOCKED: ATOM     27  H   UNL     1     143.320  77.783 220.540 -0.44 -0.27    +0.211 HD 
DOCKED: ENDBRANCH  18  26
DOCKED: ENDBRANCH   1  14
DOCKED: TORSDOF 6
DOCKED: TER
DOCKED: ENDMDL
________________________________________________________________________________


    FINAL DOCKED STATE:
    ________________________


Run:   5 / 20
Time taken for this run:   0.028s

DOCKED: MODEL        5
DOCKED: USER    Run = 5
DOCKED: USER
DOCKED: USER    Estimated Free Energy of Binding    =  -6.85 kcal/mol  [=(1)+(2)+(3)-(4)]
DOCKED: USER
DOCKED: USER    (1) Final Intermolecular Energy     =  -8.64 kcal/mol
DOCKED: USER        vdW + Hbond + desolv Energy     =  -8.45 kcal/mol
DOCKED: USER        Electrostatic Energy            =  -0.19 kcal/mol
DOCKED: USER        Moving Ligand-Fixed Receptor    =  -8.64 kcal/mol
DOCKED: USER        Moving Ligand-Moving Receptor   =  +0.00 kcal/mol
DOCKED: USER    (2) Final Total Internal Energy     =  -1.16 kcal/mol
DOCKED: USER    (3) Torsional Free Energy           =  +1.79 kcal/mol
DOCKED: USER    (4) Unbound System's Energy         =  -1.16 kcal/mol
DOCKED: USER
DOCKED: USER
DOCKED: REMARK SMILES O=C(NCC(=O)N1CC[C@H](O)[C@@H]1c1cccc(Cl)c1)c1ccncc1
DOCKED: REMARK SMILES IDX 5 1 6 2 4 3 3 4 2 5 1 6 20 8 21 9 25 10 22 11 24 12 23 13
DOCKED: REMARK SMILES IDX 7 14 8 15 12 16 9 17 10 18 13 19 14 20 19 21 15 22 17 23
DOCKED: REMARK SMILES IDX 16 24 18 25 11 26
DOCKED: REMARK H PARENT 3 7 11 27
DOCKED: USER                              x       y       z     vdW  Elec       q    Type
DOCKED: USER                           _______ _______ _______ _____ _____    ______ ____
DOCKED: ROOT
DOCKED: ATOM      1  C   UNL     1     140.144  71.393 223.044 -0.23 -0.04    +0.242 C  
DOCKED: ATOM      2  O   UNL     1     141.082  71.149 223.868 -0.21 +0.02    -0.273 OA 
DOCKED: ENDROOT
DOCKED: BRANCH   1   3
DOCKED: ATOM      3  C   UNL     1     140.337  72.330 221.946 -0.21 -0.03    +0.216 C  
DOCKED: BRANCH   3   4
DOCKED: ATOM      4  N   UNL     1     141.712  72.157 221.452 -0.10 +0.03    -0.343 N  
DOCKED: ATOM      5  C   UNL     1     142.364  73.239 220.844 -0.15 -0.04    +0.251 C  
DOCKED: ATOM      6  O   UNL     1     141.769  74.357 220.724 -0.20 +0.07    -0.269 OA 
DOCKED: ATOM      7  H   UNL     1     142.221  71.251 221.537 +0.07 -0.01    +0.164 HD 
DOCKED: BRANCH   5   8
DOCKED: ATOM      8  C   UNL     1     143.720  73.174 220.323 -0.33 -0.01    +0.042 A  
DOCKED: ATOM      9  C   UNL     1     143.959  72.467 219.162 -0.20 -0.00    +0.034 A  
DOCKED: ATOM     10  C   UNL     1     144.797  73.780 220.920 -0.48 -0.01    +0.034 A  
DOCKED: ATOM     11  C   UNL     1     145.239  72.378 218.629 -0.21 +0.05    +0.112 A  
DOCKED: ATOM     12  C   UNL     1     146.074  73.678 220.367 -0.53 +0.00    +0.112 A  
DOCKED: ATOM     13  N   UNL     1     146.286  72.986 219.237 -0.68 -0.23    -0.265 NA 
DOCKED: ENDBRANCH   5   8
DOCKED: ENDBRANCH   3   4
DOCKED: ENDBRANCH   1   3
DOCKED: BRANCH   1  14
DOCKED: ATOM     14  N   UNL     1     138.917  70.677 223.296 -0.11 +0.07    -0.331 N  
DOCKED: ATOM     15  C   UNL     1     137.647  71.220 222.800 -0.15 -0.03    +0.123 C  
DOCKED: ATOM     16  C   UNL     1     138.773  69.460 223.984 -0.25 -0.02    +0.144 C  
DOCKED: ATOM     17  C   UNL     1     136.801  69.931 222.796 -0.13 -0.01    +0.056 C  
DOCKED: ATOM     18  C   UNL     1     137.304  69.172 224.002 -0.19 -0.01    +0.143 C  
DOCKED: BRANCH  16  19
DOCKED: ATOM     19  C   UNL     1     139.434  69.302 225.269 -0.41 +0.00    -0.021 A  
DOCKED: ATOM     20  C   UNL     1     139.767  68.022 225.714 -0.55 -0.00    +0.006 A  
DOCKED: ATOM     21  C   UNL     1     139.763  70.379 226.105 -0.45 -0.00    +0.026 A  
DOCKED: ATOM     22  C   UNL     1     140.398  67.824 226.937 -0.67 -0.00    +0.002 A  
DOCKED: ATOM     23  C   UNL     1     140.390  70.143 227.312 -0.57 -0.01    +0.041 A  
DOCKED: ATOM     24  C   UNL     1     140.718  68.900 227.752 -0.63 -0.00    +0.020 A  
DOCKED: ATOM     25  Cl  UNL     1     140.789  71.515 228.337 -0.86 +0.02    -0.084 Cl 
DOCKED: ENDBRANCH  16  19
DOCKED: BRANCH  18  26
DOCKED: ATOM     26  O   UNL     1     136.727  69.702 225.174 -0.10 +0.03    -0.391 OA 
DOCKED: ATOM     27  H   UNL     1     136.614  70.662 225.044 +0.09 -0.02    +0.211 HD 
DOCKED: ENDBRANCH  18  26
DOCKED: ENDBRANCH   1  14
DOCKED: TORSDOF 6
DOCKED: TER
DOCKED: ENDMDL
________________________________________________________________________________


    FINAL DOCKED STATE:
    ________________________


Run:   6 / 20
Time taken for this run:   0.028s

DOCKED: MODEL        6
DOCKED: USER    Run = 6
DOCKED: USER
DOCKED: USER    Estimated Free Energy of Binding    =  -6.86 kcal/mol  [=(1)+(2)+(3)-(4)]
DOCKED: USER
DOCKED: USER    (1) Final Intermolecular Energy     =  -8.65 kcal/mol
DOCKED: USER        vdW + Hbond + desolv Energy     =  -8.54 kcal/mol
DOCKED: USER        Electrostatic Energy            =  -0.11 kcal/mol
DOCKED: USER        Moving Ligand-Fixed Receptor    =  -8.65 kcal/mol
DOCKED: USER        Moving Ligand-Moving Receptor   =  +0.00 kcal/mol
DOCKED: USER    (2) Final Total Internal Energy     =  -1.69 kcal/mol
DOCKED: USER    (3) Torsional Free Energy           =  +1.79 kcal/mol
DOCKED: USER    (4) Unbound System's Energy         =  -1.69 kcal/mol
DOCKED: USER
DOCKED: USER
DOCKED: REMARK SMILES O=C(NCC(=O)N1CC[C@H](O)[C@@H]1c1cccc(Cl)c1)c1ccncc1
DOCKED: REMARK SMILES IDX 5 1 6 2 4 3 3 4 2 5 1 6 20 8 21 9 25 10 22 11 24 12 23 13
DOCKED: REMARK SMILES IDX 7 14 8 15 12 16 9 17 10 18 13 19 14 20 19 21 15 22 17 23
DOCKED: REMARK SMILES IDX 16 24 18 25 11 26
DOCKED: REMARK H PARENT 3 7 11 27
DOCKED: USER                              x       y       z     vdW  Elec       q    Type
DOCKED: USER                           _______ _______ _______ _____ _____    ______ ____
DOCKED: ROOT
DOCKED: ATOM      1  C   UNL     1     139.539  75.350 221.601 -0.21 -0.05    +0.242 C  
DOCKED: ATOM      2  O   UNL     1     139.841  74.362 222.344 -0.81 +0.02    -0.273 OA 
DOCKED: ENDROOT
DOCKED: BRANCH   1   3
DOCKED: ATOM      3  C   UNL     1     138.241  76.000 221.712 -0.17 -0.05    +0.216 C  
DOCKED: BRANCH   3   4
DOCKED: ATOM      4  N   UNL     1     137.464  75.270 222.726 -0.06 +0.12    -0.343 N  
DOCKED: ATOM      5  C   UNL     1     136.314  75.862 223.268 -0.17 -0.06    +0.251 C  
DOCKED: ATOM      6  O   UNL     1     135.950  77.019 222.882 -0.12 +0.04    -0.269 OA 
DOCKED: ATOM      7  H   UNL     1     137.741  74.322 223.060 -0.49 -0.11    +0.164 HD 
DOCKED: BRANCH   5   8
DOCKED: ATOM      8  C   UNL     1     135.477  75.227 224.274 -0.31 -0.01    +0.042 A  
DOCKED: ATOM      9  C   UNL     1     134.825  76.017 225.199 -0.28 -0.00    +0.034 A  
DOCKED: ATOM     10  C   UNL     1     135.291  73.871 224.366 -0.26 -0.01    +0.034 A  
DOCKED: ATOM     11  C   UNL     1     134.017  75.452 226.177 -0.34 -0.00    +0.112 A  
DOCKED: ATOM     12  C   UNL     1     134.475  73.325 225.357 -0.24 -0.00    +0.112 A  
DOCKED: ATOM     13  N   UNL     1     133.848  74.110 226.247 -0.70 -0.02    -0.265 NA 
DOCKED: ENDBRANCH   5   8
DOCKED: ENDBRANCH   3   4
DOCKED: ENDBRANCH   1   3
DOCKED: BRANCH   1  14
DOCKED: ATOM     14  N   UNL     1     140.570  75.745 220.673 -0.09 +0.10    -0.331 N  
DOCKED: ATOM     15  C   UNL     1     141.367  74.716 219.995 -0.16 -0.03    +0.123 C  
DOCKED: ATOM     16  C   UNL     1     140.925  77.055 220.311 -0.18 -0.06    +0.144 C  
DOCKED: ATOM     17  C   UNL     1     141.867  75.533 218.787 -0.14 -0.02    +0.056 C  
DOCKED: ATOM     18  C   UNL     1     142.071  76.918 219.355 -0.23 -0.08    +0.143 C  
DOCKED: BRANCH  16  19
DOCKED: ATOM     19  C   UNL     1     141.130  78.040 221.360 -0.33 +0.01    -0.021 A  
DOCKED: ATOM     20  C   UNL     1     141.288  77.612 222.678 -0.35 -0.00    +0.006 A  
DOCKED: ATOM     21  C   UNL     1     141.179  79.421 221.122 -0.31 -0.01    +0.026 A  
DOCKED: ATOM     22  C   UNL     1     141.485  78.520 223.713 -0.54 -0.00    +0.002 A  
DOCKED: ATOM     23  C   UNL     1     141.378  80.291 222.174 -0.42 -0.01    +0.041 A  
DOCKED: ATOM     24  C   UNL     1     141.532  79.883 223.461 -0.56 -0.00    +0.020 A  
DOCKED: ATOM     25  Cl  UNL     1     141.435  82.018 221.843 -0.47 +0.02    -0.084 Cl 
DOCKED: ENDBRANCH  16  19
DOCKED: BRANCH  18  26
DOCKED: ATOM     26  O   UNL     1     143.290  76.970 220.061 -0.12 +0.35    -0.391 OA 
DOCKED: ATOM     27  H   UNL     1     143.926  77.476 219.521 -0.46 -0.22    +0.211 HD 
DOCKED: ENDBRANCH  18  26
DOCKED: ENDBRANCH   1  14
DOCKED: TORSDOF 6
DOCKED: TER
DOCKED: ENDMDL
________________________________________________________________________________


    FINAL DOCKED STATE:
    ________________________


Run:   7 / 20
Time taken for this run:   0.028s

DOCKED: MODEL        7
DOCKED: USER    Run = 7
DOCKED: USER
DOCKED: USER    Estimated Free Energy of Binding    =  -6.89 kcal/mol  [=(1)+(2)+(3)-(4)]
DOCKED: USER
DOCKED: USER    (1) Final Intermolecular Energy     =  -8.68 kcal/mol
DOCKED: USER        vdW + Hbond + desolv Energy     =  -8.48 kcal/mol
DOCKED: USER        Electrostatic Energy            =  -0.20 kcal/mol
DOCKED: USER        Moving Ligand-Fixed Receptor    =  -8.68 kcal/mol
DOCKED: USER        Moving Ligand-Moving Receptor   =  +0.00 kcal/mol
DOCKED: USER    (2) Final Total Internal Energy     =  -1.52 kcal/mol
DOCKED: USER    (3) Torsional Free Energy           =  +1.79 kcal/mol
DOCKED: USER    (4) Unbound System's Energy         =  -1.52 kcal/mol
DOCKED: USER
DOCKED: USER
DOCKED: REMARK SMILES O=C(NCC(=O)N1CC[C@H](O)[C@@H]1c1cccc(Cl)c1)c1ccncc1
DOCKED: REMARK SMILES IDX 5 1 6 2 4 3 3 4 2 5 1 6 20 8 21 9 25 10 22 11 24 12 23 13
DOCKED: REMARK SMILES IDX 7 14 8 15 12 16 9 17 10 18 13 19 14 20 19 21 15 22 17 23
DOCKED: REMARK SMILES IDX 16 24 18 25 11 26
DOCKED: REMARK H PARENT 3 7 11 27
DOCKED: USER                              x       y       z     vdW  Elec       q    Type
DOCKED: USER                           _______ _______ _______ _____ _____    ______ ____
DOCKED: ROOT
DOCKED: ATOM      1  C   UNL     1     141.077  74.593 220.751 -0.18 -0.06    +0.242 C  
DOCKED: ATOM      2  O   UNL     1     141.065  73.335 220.558 -0.11 +0.05    -0.273 OA 
DOCKED: ENDROOT
DOCKED: BRANCH   1   3
DOCKED: ATOM      3  C   UNL     1     140.357  75.187 221.868 -0.18 -0.03    +0.216 C  
DOCKED: BRANCH   3   4
DOCKED: ATOM      4  N   UNL     1     141.074  76.411 222.257 -0.20 +0.12    -0.343 N  
DOCKED: ATOM      5  C   UNL     1     140.343  77.575 222.538 -0.25 -0.07    +0.251 C  
DOCKED: ATOM      6  O   UNL     1     139.073  77.566 222.457 -0.20 +0.05    -0.269 OA 
DOCKED: ATOM      7  H   UNL     1     142.113  76.445 222.330 -0.51 -0.15    +0.164 HD 
DOCKED: BRANCH   5   8
DOCKED: ATOM      8  C   UNL     1     140.953  78.836 222.931 -0.46 -0.01    +0.042 A  
DOCKED: ATOM      9  C   UNL     1     142.310  79.008 222.750 -0.50 -0.02    +0.034 A  
DOCKED: ATOM     10  C   UNL     1     140.255  79.882 223.479 -0.44 -0.01    +0.034 A  
DOCKED: ATOM     11  C   UNL     1     142.934  80.196 223.111 -0.57 -0.04    +0.112 A  
DOCKED: ATOM     12  C   UNL     1     140.902  81.066 223.834 -0.32 -0.01    +0.112 A  
DOCKED: ATOM     13  N   UNL     1     142.223  81.216 223.650 -0.37 +0.04    -0.265 NA 
DOCKED: ENDBRANCH   5   8
DOCKED: ENDBRANCH   3   4
DOCKED: ENDBRANCH   1   3
DOCKED: BRANCH   1  14
DOCKED: ATOM     14  N   UNL     1     141.846  75.343 219.788 -0.08 +0.12    -0.331 N  
DOCKED: ATOM     15  C   UNL     1     141.164  75.978 218.653 -0.08 -0.04    +0.123 C  
DOCKED: ATOM     16  C   UNL     1     143.233  75.563 219.799 -0.30 -0.08    +0.144 C  
DOCKED: ATOM     17  C   UNL     1     142.213  77.047 218.289 -0.23 -0.03    +0.056 C  
DOCKED: ATOM     18  C   UNL     1     143.530  76.362 218.567 -0.16 -0.09    +0.143 C  
DOCKED: BRANCH  16  19
DOCKED: ATOM     19  C   UNL     1     144.119  74.430 220.010 -0.42 +0.01    -0.021 A  
DOCKED: ATOM     20  C   UNL     1     145.233  74.577 220.836 -0.38 -0.00    +0.006 A  
DOCKED: ATOM     21  C   UNL     1     143.917  73.173 219.421 -0.25 -0.00    +0.026 A  
DOCKED: ATOM     22  C   UNL     1     146.107  73.519 221.065 -0.72 -0.00    +0.002 A  
DOCKED: ATOM     23  C   UNL     1     144.805  72.147 219.672 -0.32 +0.00    +0.041 A  
DOCKED: ATOM     24  C   UNL     1     145.893  72.282 220.476 -0.33 +0.00    +0.020 A  
DOCKED: ATOM     25  Cl  UNL     1     144.523  70.583 218.919 -0.29 -0.01    -0.084 Cl 
DOCKED: ENDBRANCH  16  19
DOCKED: BRANCH  18  26
DOCKED: ATOM     26  O   UNL     1     143.852  75.496 217.502 -0.10 +0.21    -0.391 OA 
DOCKED: ATOM     27  H   UNL     1     144.823  75.394 217.483 -0.51 -0.15    +0.211 HD 
DOCKED: ENDBRANCH  18  26
DOCKED: ENDBRANCH   1  14
DOCKED: TORSDOF 6
DOCKED: TER
DOCKED: ENDMDL
________________________________________________________________________________


    FINAL DOCKED STATE:
    ________________________


Run:   8 / 20
Time taken for this run:   0.028s

DOCKED: MODEL        8
DOCKED: USER    Run = 8
DOCKED: USER
DOCKED: USER    Estimated Free Energy of Binding    =  -6.86 kcal/mol  [=(1)+(2)+(3)-(4)]
DOCKED: USER
DOCKED: USER    (1) Final Intermolecular Energy     =  -8.65 kcal/mol
DOCKED: USER        vdW + Hbond + desolv Energy     =  -8.51 kcal/mol
DOCKED: USER        Electrostatic Energy            =  -0.15 kcal/mol
DOCKED: USER        Moving Ligand-Fixed Receptor    =  -8.65 kcal/mol
DOCKED: USER        Moving Ligand-Moving Receptor   =  +0.00 kcal/mol
DOCKED: USER    (2) Final Total Internal Energy     =  -1.69 kcal/mol
DOCKED: USER    (3) Torsional Free Energy           =  +1.79 kcal/mol
DOCKED: USER    (4) Unbound System's Energy         =  -1.69 kcal/mol
DOCKED: USER
DOCKED: USER
DOCKED: REMARK SMILES O=C(NCC(=O)N1CC[C@H](O)[C@@H]1c1cccc(Cl)c1)c1ccncc1
DOCKED: REMARK SMILES IDX 5 1 6 2 4 3 3 4 2 5 1 6 20 8 21 9 25 10 22 11 24 12 23 13
DOCKED: REMARK SMILES IDX 7 14 8 15 12 16 9 17 10 18 13 19 14 20 19 21 15 22 17 23
DOCKED: REMARK SMILES IDX 16 24 18 25 11 26
DOCKED: REMARK H PARENT 3 7 11 27
DOCKED: USER                              x       y       z     vdW  Elec       q    Type
DOCKED: USER                           _______ _______ _______ _____ _____    ______ ____
DOCKED: ROOT
DOCKED: ATOM      1  C   UNL     1     139.418  75.422 221.631 -0.21 -0.05    +0.242 C  
DOCKED: ATOM      2  O   UNL     1     139.725  74.412 222.342 -0.79 +0.02    -0.273 OA 
DOCKED: ENDROOT
DOCKED: BRANCH   1   3
DOCKED: ATOM      3  C   UNL     1     138.136  76.092 221.795 -0.17 -0.05    +0.216 C  
DOCKED: BRANCH   3   4
DOCKED: ATOM      4  N   UNL     1     137.368  75.340 222.800 -0.03 +0.12    -0.343 N  
DOCKED: ATOM      5  C   UNL     1     136.246  75.936 223.393 -0.18 -0.06    +0.251 C  
DOCKED: ATOM      6  O   UNL     1     135.900  77.114 223.062 -0.13 +0.04    -0.269 OA 
DOCKED: ATOM      7  H   UNL     1     137.632  74.373 223.089 -0.48 -0.11    +0.164 HD 
DOCKED: BRANCH   5   8
DOCKED: ATOM      8  C   UNL     1     135.420  75.280 224.395 -0.32 -0.01    +0.042 A  
DOCKED: ATOM      9  C   UNL     1     134.752  76.053 225.323 -0.28 -0.00    +0.034 A  
DOCKED: ATOM     10  C   UNL     1     135.260  73.920 224.480 -0.27 -0.01    +0.034 A  
DOCKED: ATOM     11  C   UNL     1     133.953  75.468 226.297 -0.34 +0.00    +0.112 A  
DOCKED: ATOM     12  C   UNL     1     134.453  73.354 225.467 -0.23 -0.00    +0.112 A  
DOCKED: ATOM     13  N   UNL     1     133.810  74.122 226.360 -0.74 -0.03    -0.265 NA 
DOCKED: ENDBRANCH   5   8
DOCKED: ENDBRANCH   3   4
DOCKED: ENDBRANCH   1   3
DOCKED: BRANCH   1  14
DOCKED: ATOM     14  N   UNL     1     140.429  75.821 220.681 -0.08 +0.10    -0.331 N  
DOCKED: ATOM     15  C   UNL     1     141.188  74.794 219.958 -0.15 -0.03    +0.123 C  
DOCKED: ATOM     16  C   UNL     1     140.795  77.132 220.336 -0.17 -0.06    +0.144 C  
DOCKED: ATOM     17  C   UNL     1     141.666  75.629 218.753 -0.13 -0.02    +0.056 C  
DOCKED: ATOM     18  C   UNL     1     141.910  76.998 219.345 -0.22 -0.08    +0.143 C  
DOCKED: BRANCH  16  19
DOCKED: ATOM     19  C   UNL     1     141.047  78.090 221.399 -0.33 +0.01    -0.021 A  
DOCKED: ATOM     20  C   UNL     1     141.238  77.632 222.703 -0.39 -0.00    +0.006 A  
DOCKED: ATOM     21  C   UNL     1     141.111  79.476 221.190 -0.30 -0.01    +0.026 A  
DOCKED: ATOM     22  C   UNL     1     141.481  78.513 223.750 -0.53 -0.00    +0.002 A  
DOCKED: ATOM     23  C   UNL     1     141.354  80.320 222.254 -0.42 -0.01    +0.041 A  
DOCKED: ATOM     24  C   UNL     1     141.542  79.881 223.527 -0.57 -0.00    +0.020 A  
DOCKED: ATOM     25  Cl  UNL     1     141.428  82.052 221.958 -0.47 +0.01    -0.084 Cl 
DOCKED: ENDBRANCH  16  19
DOCKED: BRANCH  18  26
DOCKED: ATOM     26  O   UNL     1     143.149  77.015 220.015 -0.15 +0.34    -0.391 OA 
DOCKED: ATOM     27  H   UNL     1     143.638  77.807 219.720 -0.45 -0.26    +0.211 HD 
DOCKED: ENDBRANCH  18  26
DOCKED: ENDBRANCH   1  14
DOCKED: TORSDOF 6
DOCKED: TER
DOCKED: ENDMDL
________________________________________________________________________________


    FINAL DOCKED STATE:
    ________________________


Run:   9 / 20
Time taken for this run:   0.028s

DOCKED: MODEL        9
DOCKED: USER    Run = 9
DOCKED: USER
DOCKED: USER    Estimated Free Energy of Binding    =  -6.69 kcal/mol  [=(1)+(2)+(3)-(4)]
DOCKED: USER
DOCKED: USER    (1) Final Intermolecular Energy     =  -8.48 kcal/mol
DOCKED: USER        vdW + Hbond + desolv Energy     =  -8.31 kcal/mol
DOCKED: USER        Electrostatic Energy            =  -0.17 kcal/mol
DOCKED: USER        Moving Ligand-Fixed Receptor    =  -8.48 kcal/mol
DOCKED: USER        Moving Ligand-Moving Receptor   =  +0.00 kcal/mol
DOCKED: USER    (2) Final Total Internal Energy     =  -1.72 kcal/mol
DOCKED: USER    (3) Torsional Free Energy           =  +1.79 kcal/mol
DOCKED: USER    (4) Unbound System's Energy         =  -1.72 kcal/mol
DOCKED: USER
DOCKED: USER
DOCKED: REMARK SMILES O=C(NCC(=O)N1CC[C@H](O)[C@@H]1c1cccc(Cl)c1)c1ccncc1
DOCKED: REMARK SMILES IDX 5 1 6 2 4 3 3 4 2 5 1 6 20 8 21 9 25 10 22 11 24 12 23 13
DOCKED: REMARK SMILES IDX 7 14 8 15 12 16 9 17 10 18 13 19 14 20 19 21 15 22 17 23
DOCKED: REMARK SMILES IDX 16 24 18 25 11 26
DOCKED: REMARK H PARENT 3 7 11 27
DOCKED: USER                              x       y       z     vdW  Elec       q    Type
DOCKED: USER                           _______ _______ _______ _____ _____    ______ ____
DOCKED: ROOT
DOCKED: ATOM      1  C   UNL     1     140.492  74.973 220.143 -0.09 -0.06    +0.242 C  
DOCKED: ATOM      2  O   UNL     1     139.780  74.168 219.461 -0.02 +0.06    -0.273 OA 
DOCKED: ENDROOT
DOCKED: BRANCH   1   3
DOCKED: ATOM      3  C   UNL     1     140.341  75.065 221.588 -0.25 -0.04    +0.216 C  
DOCKED: BRANCH   3   4
DOCKED: ATOM      4  N   UNL     1     141.150  76.205 222.047 -0.16 +0.13    -0.343 N  
DOCKED: ATOM      5  C   UNL     1     140.567  77.479 222.112 -0.27 -0.08    +0.251 C  
DOCKED: ATOM      6  O   UNL     1     139.350  77.641 221.777 -0.14 +0.06    -0.269 OA 
DOCKED: ATOM      7  H   UNL     1     142.150  76.099 222.325 -0.52 -0.13    +0.164 HD 
DOCKED: BRANCH   5   8
DOCKED: ATOM      8  C   UNL     1     141.278  78.670 222.550 -0.45 -0.02    +0.042 A  
DOCKED: ATOM      9  C   UNL     1     141.573  79.652 221.627 -0.39 -0.01    +0.034 A  
DOCKED: ATOM     10  C   UNL     1     141.681  78.884 223.844 -0.59 -0.01    +0.034 A  
DOCKED: ATOM     11  C   UNL     1     142.250  80.805 222.002 -0.41 -0.03    +0.112 A  
DOCKED: ATOM     12  C   UNL     1     142.361  80.050 224.198 -0.39 -0.02    +0.112 A  
DOCKED: ATOM     13  N   UNL     1     142.638  80.994 223.286 -0.35 +0.05    -0.265 NA 
DOCKED: ENDBRANCH   5   8
DOCKED: ENDBRANCH   3   4
DOCKED: ENDBRANCH   1   3
DOCKED: BRANCH   1  14
DOCKED: ATOM     14  N   UNL     1     141.425  75.757 219.371 -0.04 +0.12    -0.331 N  
DOCKED: ATOM     15  C   UNL     1     140.942  76.536 218.225 -0.06 -0.05    +0.123 C  
DOCKED: ATOM     16  C   UNL     1     142.808  75.882 219.589 -0.28 -0.08    +0.144 C  
DOCKED: ATOM     17  C   UNL     1     142.087  77.563 218.113 -0.23 -0.03    +0.056 C  
DOCKED: ATOM     18  C   UNL     1     143.315  76.769 218.494 -0.24 -0.10    +0.143 C  
DOCKED: BRANCH  16  19
DOCKED: ATOM     19  C   UNL     1     143.594  74.678 219.801 -0.37 +0.01    -0.021 A  
DOCKED: ATOM     20  C   UNL     1     143.285  73.523 219.082 -0.19 -0.00    +0.006 A  
DOCKED: ATOM     21  C   UNL     1     144.665  74.606 220.704 -0.28 -0.01    +0.026 A  
DOCKED: ATOM     22  C   UNL     1     144.010  72.349 219.255 -0.22 -0.00    +0.002 A  
DOCKED: ATOM     23  C   UNL     1     145.362  73.424 220.847 -0.60 -0.01    +0.041 A  
DOCKED: ATOM     24  C   UNL     1     145.067  72.294 220.151 -0.40 +0.00    +0.020 A  
DOCKED: ATOM     25  Cl  UNL     1     146.700  73.366 221.987 -0.74 +0.01    -0.084 Cl 
DOCKED: ENDBRANCH  16  19
DOCKED: BRANCH  18  26
DOCKED: ATOM     26  O   UNL     1     143.735  75.986 217.400 -0.14 +0.23    -0.391 OA 
DOCKED: ATOM     27  H   UNL     1     144.693  75.825 217.499 -0.46 -0.16    +0.211 HD 
DOCKED: ENDBRANCH  18  26
DOCKED: ENDBRANCH   1  14
DOCKED: TORSDOF 6
DOCKED: TER
DOCKED: ENDMDL
________________________________________________________________________________


    FINAL DOCKED STATE:
    ________________________


Run:   10 / 20
Time taken for this run:   0.028s

DOCKED: MODEL        10
DOCKED: USER    Run = 10
DOCKED: USER
DOCKED: USER    Estimated Free Energy of Binding    =  -6.49 kcal/mol  [=(1)+(2)+(3)-(4)]
DOCKED: USER
DOCKED: USER    (1) Final Intermolecular Energy     =  -8.28 kcal/mol
DOCKED: USER        vdW + Hbond + desolv Energy     =  -8.16 kcal/mol
DOCKED: USER        Electrostatic Energy            =  -0.12 kcal/mol
DOCKED: USER        Moving Ligand-Fixed Receptor    =  -8.28 kcal/mol
DOCKED: USER        Moving Ligand-Moving Receptor   =  +0.00 kcal/mol
DOCKED: USER    (2) Final Total Internal Energy     =  -1.84 kcal/mol
DOCKED: USER    (3) Torsional Free Energy           =  +1.79 kcal/mol
DOCKED: USER    (4) Unbound System's Energy         =  -1.84 kcal/mol
DOCKED: USER
DOCKED: USER
DOCKED: REMARK SMILES O=C(NCC(=O)N1CC[C@H](O)[C@@H]1c1cccc(Cl)c1)c1ccncc1
DOCKED: REMARK SMILES IDX 5 1 6 2 4 3 3 4 2 5 1 6 20 8 21 9 25 10 22 11 24 12 23 13
DOCKED: REMARK SMILES IDX 7 14 8 15 12 16 9 17 10 18 13 19 14 20 19 21 15 22 17 23
DOCKED: REMARK SMILES IDX 16 24 18 25 11 26
DOCKED: REMARK H PARENT 3 7 11 27
DOCKED: USER                              x       y       z     vdW  Elec       q    Type
DOCKED: USER                           _______ _______ _______ _____ _____    ______ ____
DOCKED: ROOT
DOCKED: ATOM      1  C   UNL     1     140.903  75.006 221.204 -0.22 -0.06    +0.242 C  
DOCKED: ATOM      2  O   UNL     1     140.794  75.621 222.313 -0.47 +0.04    -0.273 OA 
DOCKED: ENDROOT
DOCKED: BRANCH   1   3
DOCKED: ATOM      3  C   UNL     1     140.303  73.693 221.013 -0.17 -0.04    +0.216 C  
DOCKED: BRANCH   3   4
DOCKED: ATOM      4  N   UNL     1     139.992  73.151 222.345 -0.16 +0.04    -0.343 N  
DOCKED: ATOM      5  C   UNL     1     140.327  71.821 222.640 -0.22 -0.03    +0.251 C  
DOCKED: ATOM      6  O   UNL     1     140.896  71.097 221.761 -0.09 +0.03    -0.269 OA 
DOCKED: ATOM      7  H   UNL     1     139.526  73.723 223.082 -0.50 -0.03    +0.164 HD 
DOCKED: BRANCH   5   8
DOCKED: ATOM      8  C   UNL     1     140.064  71.188 223.923 -0.39 -0.01    +0.042 A  
DOCKED: ATOM      9  C   UNL     1     140.846  71.524 225.009 -0.46 -0.00    +0.034 A  
DOCKED: ATOM     10  C   UNL     1     139.072  70.263 224.127 -0.32 -0.01    +0.034 A  
DOCKED: ATOM     11  C   UNL     1     140.629  70.944 226.252 -0.53 -0.02    +0.112 A  
DOCKED: ATOM     12  C   UNL     1     138.872  69.693 225.384 -0.32 -0.01    +0.112 A  
DOCKED: ATOM     13  N   UNL     1     139.642  70.032 226.429 -0.23 +0.04    -0.265 NA 
DOCKED: ENDBRANCH   5   8
DOCKED: ENDBRANCH   3   4
DOCKED: ENDBRANCH   1   3
DOCKED: BRANCH   1  14
DOCKED: ATOM     14  N   UNL     1     141.653  75.713 220.194 -0.10 +0.13    -0.331 N  
DOCKED: ATOM     15  C   UNL     1     140.938  76.425 219.128 -0.10 -0.05    +0.123 C  
DOCKED: ATOM     16  C   UNL     1     143.050  75.818 220.097 -0.19 -0.09    +0.144 C  
DOCKED: ATOM     17  C   UNL     1     142.040  77.414 218.697 -0.25 -0.03    +0.056 C  
DOCKED: ATOM     18  C   UNL     1     143.314  76.617 218.857 -0.28 -0.09    +0.143 C  
DOCKED: BRANCH  16  19
DOCKED: ATOM     19  C   UNL     1     143.852  74.612 220.218 -0.41 +0.01    -0.021 A  
DOCKED: ATOM     20  C   UNL     1     145.181  74.712 220.634 -0.30 -0.00    +0.006 A  
DOCKED: ATOM     21  C   UNL     1     143.362  73.328 219.936 -0.27 -0.01    +0.026 A  
DOCKED: ATOM     22  C   UNL     1     145.984  73.585 220.762 -0.69 -0.00    +0.002 A  
DOCKED: ATOM     23  C   UNL     1     144.190  72.233 220.076 -0.31 -0.00    +0.041 A  
DOCKED: ATOM     24  C   UNL     1     145.484  72.322 220.481 -0.37 -0.00    +0.020 A  
DOCKED: ATOM     25  Cl  UNL     1     143.545  70.636 219.716 -0.27 +0.00    -0.084 Cl 
DOCKED: ENDBRANCH  16  19
DOCKED: BRANCH  18  26
DOCKED: ATOM     26  O   UNL     1     143.478  75.751 217.757 -0.12 +0.21    -0.391 OA 
DOCKED: ATOM     27  H   UNL     1     144.435  75.621 217.619 -0.41 -0.14    +0.211 HD 
DOCKED: ENDBRANCH  18  26
DOCKED: ENDBRANCH   1  14
DOCKED: TORSDOF 6
DOCKED: TER
DOCKED: ENDMDL
________________________________________________________________________________


    FINAL DOCKED STATE:
    ________________________


Run:   11 / 20
Time taken for this run:   0.028s

DOCKED: MODEL        11
DOCKED: USER    Run = 11
DOCKED: USER
DOCKED: USER    Estimated Free Energy of Binding    =  -6.79 kcal/mol  [=(1)+(2)+(3)-(4)]
DOCKED: USER
DOCKED: USER    (1) Final Intermolecular Energy     =  -8.58 kcal/mol
DOCKED: USER        vdW + Hbond + desolv Energy     =  -8.40 kcal/mol
DOCKED: USER        Electrostatic Energy            =  -0.19 kcal/mol
DOCKED: USER        Moving Ligand-Fixed Receptor    =  -8.58 kcal/mol
DOCKED: USER        Moving Ligand-Moving Receptor   =  +0.00 kcal/mol
DOCKED: USER    (2) Final Total Internal Energy     =  -1.60 kcal/mol
DOCKED: USER    (3) Torsional Free Energy           =  +1.79 kcal/mol
DOCKED: USER    (4) Unbound System's Energy         =  -1.60 kcal/mol
DOCKED: USER
DOCKED: USER
DOCKED: REMARK SMILES O=C(NCC(=O)N1CC[C@H](O)[C@@H]1c1cccc(Cl)c1)c1ccncc1
DOCKED: REMARK SMILES IDX 5 1 6 2 4 3 3 4 2 5 1 6 20 8 21 9 25 10 22 11 24 12 23 13
DOCKED: REMARK SMILES IDX 7 14 8 15 12 16 9 17 10 18 13 19 14 20 19 21 15 22 17 23
DOCKED: REMARK SMILES IDX 16 24 18 25 11 26
DOCKED: REMARK H PARENT 3 7 11 27
DOCKED: USER                              x       y       z     vdW  Elec       q    Type
DOCKED: USER                           _______ _______ _______ _____ _____    ______ ____
DOCKED: ROOT
DOCKED: ATOM      1  C   UNL     1     140.720  74.842 220.629 -0.15 -0.06    +0.242 C  
DOCKED: ATOM      2  O   UNL     1     140.428  73.681 220.198 -0.06 +0.05    -0.273 OA 
DOCKED: ENDROOT
DOCKED: BRANCH   1   3
DOCKED: ATOM      3  C   UNL     1     140.229  75.308 221.918 -0.20 -0.03    +0.216 C  
DOCKED: BRANCH   3   4
DOCKED: ATOM      4  N   UNL     1     141.059  76.454 222.321 -0.20 +0.12    -0.343 N  
DOCKED: ATOM      5  C   UNL     1     140.463  77.714 222.472 -0.27 -0.07    +0.251 C  
DOCKED: ATOM      6  O   UNL     1     139.216  77.859 222.262 -0.17 +0.06    -0.269 OA 
DOCKED: ATOM      7  H   UNL     1     142.082  76.361 222.498 -0.50 -0.14    +0.164 HD 
DOCKED: BRANCH   5   8
DOCKED: ATOM      8  C   UNL     1     141.192  78.909 222.866 -0.48 -0.01    +0.042 A  
DOCKED: ATOM      9  C   UNL     1     140.503  79.953 223.450 -0.46 -0.01    +0.034 A  
DOCKED: ATOM     10  C   UNL     1     142.544  79.070 222.691 -0.47 -0.02    +0.034 A  
DOCKED: ATOM     11  C   UNL     1     141.160  81.113 223.840 -0.38 -0.01    +0.112 A  
DOCKED: ATOM     12  C   UNL     1     143.183  80.244 223.091 -0.55 -0.04    +0.112 A  
DOCKED: ATOM     13  N   UNL     1     142.496  81.247 223.658 -0.37 +0.04    -0.265 NA 
DOCKED: ENDBRANCH   5   8
DOCKED: ENDBRANCH   3   4
DOCKED: ENDBRANCH   1   3
DOCKED: BRANCH   1  14
DOCKED: ATOM     14  N   UNL     1     141.553  75.622 219.746 -0.07 +0.12    -0.331 N  
DOCKED: ATOM     15  C   UNL     1     140.944  76.327 218.612 -0.07 -0.04    +0.123 C  
DOCKED: ATOM     16  C   UNL     1     142.942  75.809 219.839 -0.27 -0.08    +0.144 C  
DOCKED: ATOM     17  C   UNL     1     142.032  77.390 218.356 -0.23 -0.03    +0.056 C  
DOCKED: ATOM     18  C   UNL     1     143.319  76.662 218.667 -0.26 -0.09    +0.143 C  
DOCKED: BRANCH  16  19
DOCKED: ATOM     19  C   UNL     1     143.792  74.648 220.038 -0.41 +0.01    -0.021 A  
DOCKED: ATOM     20  C   UNL     1     145.097  74.825 220.500 -0.28 -0.00    +0.006 A  
DOCKED: ATOM     21  C   UNL     1     143.373  73.333 219.786 -0.26 -0.01    +0.026 A  
DOCKED: ATOM     22  C   UNL     1     145.944  73.742 220.703 -0.69 -0.00    +0.002 A  
DOCKED: ATOM     23  C   UNL     1     144.242  72.283 220.000 -0.31 -0.00    +0.041 A  
DOCKED: ATOM     24  C   UNL     1     145.514  72.448 220.451 -0.43 +0.00    +0.020 A  
DOCKED: ATOM     25  Cl  UNL     1     143.686  70.646 219.676 -0.28 +0.00    -0.084 Cl 
DOCKED: ENDBRANCH  16  19
DOCKED: BRANCH  18  26
DOCKED: ATOM     26  O   UNL     1     143.679  75.843 217.577 -0.13 +0.22    -0.391 OA 
DOCKED: ATOM     27  H   UNL     1     144.641  75.684 217.628 -0.46 -0.16    +0.211 HD 
DOCKED: ENDBRANCH  18  26
DOCKED: ENDBRANCH   1  14
DOCKED: TORSDOF 6
DOCKED: TER
DOCKED: ENDMDL
________________________________________________________________________________


    FINAL DOCKED STATE:
    ________________________


Run:   12 / 20
Time taken for this run:   0.028s

DOCKED: MODEL        12
DOCKED: USER    Run = 12
DOCKED: USER
DOCKED: USER    Estimated Free Energy of Binding    =  -6.48 kcal/mol  [=(1)+(2)+(3)-(4)]
DOCKED: USER
DOCKED: USER    (1) Final Intermolecular Energy     =  -8.27 kcal/mol
DOCKED: USER        vdW + Hbond + desolv Energy     =  -8.16 kcal/mol
DOCKED: USER        Electrostatic Energy            =  -0.11 kcal/mol
DOCKED: USER        Moving Ligand-Fixed Receptor    =  -8.27 kcal/mol
DOCKED: USER        Moving Ligand-Moving Receptor   =  +0.00 kcal/mol
DOCKED: USER    (2) Final Total Internal Energy     =  -1.84 kcal/mol
DOCKED: USER    (3) Torsional Free Energy           =  +1.79 kcal/mol
DOCKED: USER    (4) Unbound System's Energy         =  -1.84 kcal/mol
DOCKED: USER
DOCKED: USER
DOCKED: REMARK SMILES O=C(NCC(=O)N1CC[C@H](O)[C@@H]1c1cccc(Cl)c1)c1ccncc1
DOCKED: REMARK SMILES IDX 5 1 6 2 4 3 3 4 2 5 1 6 20 8 21 9 25 10 22 11 24 12 23 13
DOCKED: REMARK SMILES IDX 7 14 8 15 12 16 9 17 10 18 13 19 14 20 19 21 15 22 17 23
DOCKED: REMARK SMILES IDX 16 24 18 25 11 26
DOCKED: REMARK H PARENT 3 7 11 27
DOCKED: USER                              x       y       z     vdW  Elec       q    Type
DOCKED: USER                           _______ _______ _______ _____ _____    ______ ____
DOCKED: ROOT
DOCKED: ATOM      1  C   UNL     1     140.902  74.993 221.183 -0.22 -0.06    +0.242 C  
DOCKED: ATOM      2  O   UNL     1     140.745  75.633 222.272 -0.47 +0.04    -0.273 OA 
DOCKED: ENDROOT
DOCKED: BRANCH   1   3
DOCKED: ATOM      3  C   UNL     1     140.345  73.658 221.012 -0.17 -0.04    +0.216 C  
DOCKED: BRANCH   3   4
DOCKED: ATOM      4  N   UNL     1     140.050  73.126 222.352 -0.16 +0.03    -0.343 N  
DOCKED: ATOM      5  C   UNL     1     140.405  71.805 222.659 -0.22 -0.03    +0.251 C  
DOCKED: ATOM      6  O   UNL     1     140.978  71.078 221.786 -0.06 +0.03    -0.269 OA 
DOCKED: ATOM      7  H   UNL     1     139.581  73.700 223.085 -0.49 -0.03    +0.164 HD 
DOCKED: BRANCH   5   8
DOCKED: ATOM      8  C   UNL     1     140.159  71.183 223.951 -0.40 -0.01    +0.042 A  
DOCKED: ATOM      9  C   UNL     1     139.152  70.246 224.062 -0.32 -0.01    +0.034 A  
DOCKED: ATOM     10  C   UNL     1     140.874  71.473 225.086 -0.48 -0.00    +0.034 A  
DOCKED: ATOM     11  C   UNL     1     138.882  69.628 225.277 -0.33 -0.01    +0.112 A  
DOCKED: ATOM     12  C   UNL     1     140.585  70.840 226.295 -0.52 -0.02    +0.112 A  
DOCKED: ATOM     13  N   UNL     1     139.602  69.931 226.384 -0.23 +0.04    -0.265 NA 
DOCKED: ENDBRANCH   5   8
DOCKED: ENDBRANCH   3   4
DOCKED: ENDBRANCH   1   3
DOCKED: BRANCH   1  14
DOCKED: ATOM     14  N   UNL     1     141.658  75.694 220.175 -0.10 +0.13    -0.331 N  
DOCKED: ATOM     15  C   UNL     1     140.950  76.415 219.110 -0.10 -0.05    +0.123 C  
DOCKED: ATOM     16  C   UNL     1     143.056  75.787 220.077 -0.21 -0.09    +0.144 C  
DOCKED: ATOM     17  C   UNL     1     142.061  77.395 218.681 -0.25 -0.03    +0.056 C  
DOCKED: ATOM     18  C   UNL     1     143.327  76.586 218.839 -0.28 -0.09    +0.143 C  
DOCKED: BRANCH  16  19
DOCKED: ATOM     19  C   UNL     1     143.847  74.574 220.196 -0.41 +0.01    -0.021 A  
DOCKED: ATOM     20  C   UNL     1     145.177  74.662 220.609 -0.34 -0.00    +0.006 A  
DOCKED: ATOM     21  C   UNL     1     143.345  73.295 219.914 -0.27 -0.01    +0.026 A  
DOCKED: ATOM     22  C   UNL     1     145.971  73.527 220.735 -0.69 -0.00    +0.002 A  
DOCKED: ATOM     23  C   UNL     1     144.163  72.192 220.052 -0.30 -0.00    +0.041 A  
DOCKED: ATOM     24  C   UNL     1     145.459  72.269 220.454 -0.36 -0.00    +0.020 A  
DOCKED: ATOM     25  Cl  UNL     1     143.503  70.602 219.692 -0.26 +0.00    -0.084 Cl 
DOCKED: ENDBRANCH  16  19
DOCKED: BRANCH  18  26
DOCKED: ATOM     26  O   UNL     1     143.483  75.722 217.737 -0.12 +0.21    -0.391 OA 
DOCKED: ATOM     27  H   UNL     1     144.439  75.597 217.588 -0.40 -0.14    +0.211 HD 
DOCKED: ENDBRANCH  18  26
DOCKED: ENDBRANCH   1  14
DOCKED: TORSDOF 6
DOCKED: TER
DOCKED: ENDMDL
________________________________________________________________________________


    FINAL DOCKED STATE:
    ________________________


Run:   13 / 20
Time taken for this run:   0.028s

DOCKED: MODEL        13
DOCKED: USER    Run = 13
DOCKED: USER
DOCKED: USER    Estimated Free Energy of Binding    =  -6.86 kcal/mol  [=(1)+(2)+(3)-(4)]
DOCKED: USER
DOCKED: USER    (1) Final Intermolecular Energy     =  -8.65 kcal/mol
DOCKED: USER        vdW + Hbond + desolv Energy     =  -8.50 kcal/mol
DOCKED: USER        Electrostatic Energy            =  -0.14 kcal/mol
DOCKED: USER        Moving Ligand-Fixed Receptor    =  -8.65 kcal/mol
DOCKED: USER        Moving Ligand-Moving Receptor   =  +0.00 kcal/mol
DOCKED: USER    (2) Final Total Internal Energy     =  -1.69 kcal/mol
DOCKED: USER    (3) Torsional Free Energy           =  +1.79 kcal/mol
DOCKED: USER    (4) Unbound System's Energy         =  -1.69 kcal/mol
DOCKED: USER
DOCKED: USER
DOCKED: REMARK SMILES O=C(NCC(=O)N1CC[C@H](O)[C@@H]1c1cccc(Cl)c1)c1ccncc1
DOCKED: REMARK SMILES IDX 5 1 6 2 4 3 3 4 2 5 1 6 20 8 21 9 25 10 22 11 24 12 23 13
DOCKED: REMARK SMILES IDX 7 14 8 15 12 16 9 17 10 18 13 19 14 20 19 21 15 22 17 23
DOCKED: REMARK SMILES IDX 16 24 18 25 11 26
DOCKED: REMARK H PARENT 3 7 11 27
DOCKED: USER                              x       y       z     vdW  Elec       q    Type
DOCKED: USER                           _______ _______ _______ _____ _____    ______ ____
DOCKED: ROOT
DOCKED: ATOM      1  C   UNL     1     139.415  75.433 221.637 -0.21 -0.05    +0.242 C  
DOCKED: ATOM      2  O   UNL     1     139.710  74.416 222.343 -0.79 +0.03    -0.273 OA 
DOCKED: ENDROOT
DOCKED: BRANCH   1   3
DOCKED: ATOM      3  C   UNL     1     138.142  76.119 221.808 -0.17 -0.05    +0.216 C  
DOCKED: BRANCH   3   4
DOCKED: ATOM      4  N   UNL     1     137.367  75.372 222.811 -0.03 +0.12    -0.343 N  
DOCKED: ATOM      5  C   UNL     1     136.269  75.989 223.428 -0.17 -0.05    +0.251 C  
DOCKED: ATOM      6  O   UNL     1     135.949  77.181 223.118 -0.14 +0.04    -0.269 OA 
DOCKED: ATOM      7  H   UNL     1     137.609  74.395 223.083 -0.47 -0.10    +0.164 HD 
DOCKED: BRANCH   5   8
DOCKED: ATOM      8  C   UNL     1     135.438  75.340 224.430 -0.33 -0.01    +0.042 A  
DOCKED: ATOM      9  C   UNL     1     135.373  73.961 224.457 -0.27 -0.01    +0.034 A  
DOCKED: ATOM     10  C   UNL     1     134.702  76.021 225.367 -0.31 -0.00    +0.034 A  
DOCKED: ATOM     11  C   UNL     1     134.592  73.302 225.397 -0.21 -0.00    +0.112 A  
DOCKED: ATOM     12  C   UNL     1     133.924  75.337 226.302 -0.34 +0.00    +0.112 A  
DOCKED: ATOM     13  N   UNL     1     133.874  73.996 226.313 -0.72 -0.03    -0.265 NA 
DOCKED: ENDBRANCH   5   8
DOCKED: ENDBRANCH   3   4
DOCKED: ENDBRANCH   1   3
DOCKED: BRANCH   1  14
DOCKED: ATOM     14  N   UNL     1     140.428  75.822 220.686 -0.08 +0.10    -0.331 N  
DOCKED: ATOM     15  C   UNL     1     141.184  74.788 219.970 -0.15 -0.03    +0.123 C  
DOCKED: ATOM     16  C   UNL     1     140.799  77.130 220.334 -0.17 -0.06    +0.144 C  
DOCKED: ATOM     17  C   UNL     1     141.666  75.614 218.761 -0.13 -0.02    +0.056 C  
DOCKED: ATOM     18  C   UNL     1     141.914  76.986 219.344 -0.22 -0.08    +0.143 C  
DOCKED: BRANCH  16  19
DOCKED: ATOM     19  C   UNL     1     141.054  78.094 221.391 -0.33 +0.01    -0.021 A  
DOCKED: ATOM     20  C   UNL     1     141.255  77.641 222.696 -0.38 -0.00    +0.006 A  
DOCKED: ATOM     21  C   UNL     1     141.110  79.479 221.176 -0.30 -0.01    +0.026 A  
DOCKED: ATOM     22  C   UNL     1     141.500  78.529 223.738 -0.54 -0.00    +0.002 A  
DOCKED: ATOM     23  C   UNL     1     141.357  80.328 222.235 -0.42 -0.01    +0.041 A  
DOCKED: ATOM     24  C   UNL     1     141.554  79.895 223.508 -0.57 -0.00    +0.020 A  
DOCKED: ATOM     25  Cl  UNL     1     141.421  82.059 221.932 -0.46 +0.01    -0.084 Cl 
DOCKED: ENDBRANCH  16  19
DOCKED: BRANCH  18  26
DOCKED: ATOM     26  O   UNL     1     143.154  77.002 220.015 -0.15 +0.34    -0.391 OA 
DOCKED: ATOM     27  H   UNL     1     143.646  77.790 219.715 -0.45 -0.26    +0.211 HD 
DOCKED: ENDBRANCH  18  26
DOCKED: ENDBRANCH   1  14
DOCKED: TORSDOF 6
DOCKED: TER
DOCKED: ENDMDL
________________________________________________________________________________


    FINAL DOCKED STATE:
    ________________________


Run:   14 / 20
Time taken for this run:   0.028s

DOCKED: MODEL        14
DOCKED: USER    Run = 14
DOCKED: USER
DOCKED: USER    Estimated Free Energy of Binding    =  -6.41 kcal/mol  [=(1)+(2)+(3)-(4)]
DOCKED: USER
DOCKED: USER    (1) Final Intermolecular Energy     =  -8.20 kcal/mol
DOCKED: USER        vdW + Hbond + desolv Energy     =  -8.09 kcal/mol
DOCKED: USER        Electrostatic Energy            =  -0.11 kcal/mol
DOCKED: USER        Moving Ligand-Fixed Receptor    =  -8.20 kcal/mol
DOCKED: USER        Moving Ligand-Moving Receptor   =  +0.00 kcal/mol
DOCKED: USER    (2) Final Total Internal Energy     =  -1.85 kcal/mol
DOCKED: USER    (3) Torsional Free Energy           =  +1.79 kcal/mol
DOCKED: USER    (4) Unbound System's Energy         =  -1.85 kcal/mol
DOCKED: USER
DOCKED: USER
DOCKED: REMARK SMILES O=C(NCC(=O)N1CC[C@H](O)[C@@H]1c1cccc(Cl)c1)c1ccncc1
DOCKED: REMARK SMILES IDX 5 1 6 2 4 3 3 4 2 5 1 6 20 8 21 9 25 10 22 11 24 12 23 13
DOCKED: REMARK SMILES IDX 7 14 8 15 12 16 9 17 10 18 13 19 14 20 19 21 15 22 17 23
DOCKED: REMARK SMILES IDX 16 24 18 25 11 26
DOCKED: REMARK H PARENT 3 7 11 27
DOCKED: USER                              x       y       z     vdW  Elec       q    Type
DOCKED: USER                           _______ _______ _______ _____ _____    ______ ____
DOCKED: ROOT
DOCKED: ATOM      1  C   UNL     1     140.142  75.879 221.649 -0.24 -0.06    +0.242 C  
DOCKED: ATOM      2  O   UNL     1     140.032  74.686 222.077 -0.76 +0.02    -0.273 OA 
DOCKED: ENDROOT
DOCKED: BRANCH   1   3
DOCKED: ATOM      3  C   UNL     1     141.253  76.268 220.792 -0.20 -0.09    +0.216 C  
DOCKED: BRANCH   3   4
DOCKED: ATOM      4  N   UNL     1     142.161  75.115 220.693 -0.14 +0.14    -0.343 N  
DOCKED: ATOM      5  C   UNL     1     143.408  75.275 220.072 -0.23 -0.13    +0.251 C  
DOCKED: ATOM      6  O   UNL     1     143.746  76.408 219.600 -0.35 +0.20    -0.269 OA 
DOCKED: ATOM      7  H   UNL     1     141.908  74.176 221.070 +0.05 -0.03    +0.164 HD 
DOCKED: BRANCH   5   8
DOCKED: ATOM      8  C   UNL     1     144.378  74.202 219.922 -0.41 -0.01    +0.042 A  
DOCKED: ATOM      9  C   UNL     1     145.384  74.071 220.858 -0.58 -0.01    +0.034 A  
DOCKED: ATOM     10  C   UNL     1     144.359  73.294 218.893 -0.23 -0.00    +0.034 A  
DOCKED: ATOM     11  C   UNL     1     146.331  73.061 220.753 -0.51 +0.01    +0.112 A  
DOCKED: ATOM     12  C   UNL     1     145.321  72.288 218.807 -0.22 +0.05    +0.112 A  
DOCKED: ATOM     13  N   UNL     1     146.291  72.177 219.727 -0.50 -0.22    -0.265 NA 
DOCKED: ENDBRANCH   5   8
DOCKED: ENDBRANCH   3   4
DOCKED: ENDBRANCH   1   3
DOCKED: BRANCH   1  14
DOCKED: ATOM     14  N   UNL     1     139.096  76.774 222.081 -0.15 +0.07    -0.331 N  
DOCKED: ATOM     15  C   UNL     1     137.717  76.548 221.630 -0.16 -0.03    +0.123 C  
DOCKED: ATOM     16  C   UNL     1     139.231  77.887 222.927 -0.12 -0.02    +0.144 C  
DOCKED: ATOM     17  C   UNL     1     136.958  77.321 222.727 -0.21 -0.01    +0.056 C  
DOCKED: ATOM     18  C   UNL     1     137.864  78.492 223.027 -0.12 -0.02    +0.143 C  
DOCKED: BRANCH  16  19
DOCKED: ATOM     19  C   UNL     1     140.294  78.842 222.662 -0.38 +0.01    -0.021 A  
DOCKED: ATOM     20  C   UNL     1     141.142  79.227 223.701 -0.56 -0.00    +0.006 A  
DOCKED: ATOM     21  C   UNL     1     140.523  79.411 221.401 -0.25 -0.01    +0.026 A  
DOCKED: ATOM     22  C   UNL     1     142.172  80.138 223.492 -0.64 -0.00    +0.002 A  
DOCKED: ATOM     23  C   UNL     1     141.555  80.311 221.232 -0.36 -0.02    +0.041 A  
DOCKED: ATOM     24  C   UNL     1     142.386  80.691 222.238 -0.51 -0.01    +0.020 A  
DOCKED: ATOM     25  Cl  UNL     1     141.817  81.006 219.638 -0.31 +0.04    -0.084 Cl 
DOCKED: ENDBRANCH  16  19
DOCKED: BRANCH  18  26
DOCKED: ATOM     26  O   UNL     1     137.707  79.483 222.037 -0.04 +0.06    -0.391 OA 
DOCKED: ATOM     27  H   UNL     1     138.022  79.114 221.191 +0.05 -0.04    +0.211 HD 
DOCKED: ENDBRANCH  18  26
DOCKED: ENDBRANCH   1  14
DOCKED: TORSDOF 6
DOCKED: TER
DOCKED: ENDMDL
________________________________________________________________________________


    FINAL DOCKED STATE:
    ________________________


Run:   15 / 20
Time taken for this run:   0.028s

DOCKED: MODEL        15
DOCKED: USER    Run = 15
DOCKED: USER
DOCKED: USER    Estimated Free Energy of Binding    =  -6.44 kcal/mol  [=(1)+(2)+(3)-(4)]
DOCKED: USER
DOCKED: USER    (1) Final Intermolecular Energy     =  -8.23 kcal/mol
DOCKED: USER        vdW + Hbond + desolv Energy     =  -8.13 kcal/mol
DOCKED: USER        Electrostatic Energy            =  -0.10 kcal/mol
DOCKED: USER        Moving Ligand-Fixed Receptor    =  -8.23 kcal/mol
DOCKED: USER        Moving Ligand-Moving Receptor   =  +0.00 kcal/mol
DOCKED: USER    (2) Final Total Internal Energy     =  -1.88 kcal/mol
DOCKED: USER    (3) Torsional Free Energy           =  +1.79 kcal/mol
DOCKED: USER    (4) Unbound System's Energy         =  -1.88 kcal/mol
DOCKED: USER
DOCKED: USER
DOCKED: REMARK SMILES O=C(NCC(=O)N1CC[C@H](O)[C@@H]1c1cccc(Cl)c1)c1ccncc1
DOCKED: REMARK SMILES IDX 5 1 6 2 4 3 3 4 2 5 1 6 20 8 21 9 25 10 22 11 24 12 23 13
DOCKED: REMARK SMILES IDX 7 14 8 15 12 16 9 17 10 18 13 19 14 20 19 21 15 22 17 23
DOCKED: REMARK SMILES IDX 16 24 18 25 11 26
DOCKED: REMARK H PARENT 3 7 11 27
DOCKED: USER                              x       y       z     vdW  Elec       q    Type
DOCKED: USER                           _______ _______ _______ _____ _____    ______ ____
DOCKED: ROOT
DOCKED: ATOM      1  C   UNL     1     140.899  74.980 221.159 -0.22 -0.06    +0.242 C  
DOCKED: ATOM      2  O   UNL     1     140.692  75.639 222.227 -0.48 +0.04    -0.273 OA 
DOCKED: ENDROOT
DOCKED: BRANCH   1   3
DOCKED: ATOM      3  C   UNL     1     140.388  73.625 221.004 -0.17 -0.04    +0.216 C  
DOCKED: BRANCH   3   4
DOCKED: ATOM      4  N   UNL     1     140.084  73.110 222.348 -0.16 +0.03    -0.343 N  
DOCKED: ATOM      5  C   UNL     1     140.326  71.758 222.635 -0.22 -0.03    +0.251 C  
DOCKED: ATOM      6  O   UNL     1     140.803  70.991 221.739 -0.08 +0.03    -0.269 OA 
DOCKED: ATOM      7  H   UNL     1     139.692  73.717 223.099 -0.45 -0.01    +0.164 HD 
DOCKED: BRANCH   5   8
DOCKED: ATOM      8  C   UNL     1     140.061  71.149 223.929 -0.39 -0.01    +0.042 A  
DOCKED: ATOM      9  C   UNL     1     139.105  70.158 224.021 -0.31 -0.01    +0.034 A  
DOCKED: ATOM     10  C   UNL     1     140.711  71.502 225.085 -0.51 -0.00    +0.034 A  
DOCKED: ATOM     11  C   UNL     1     138.820  69.551 225.237 -0.33 -0.01    +0.112 A  
DOCKED: ATOM     12  C   UNL     1     140.408  70.878 226.296 -0.51 -0.02    +0.112 A  
DOCKED: ATOM     13  N   UNL     1     139.476  69.916 226.365 -0.21 +0.04    -0.265 NA 
DOCKED: ENDBRANCH   5   8
DOCKED: ENDBRANCH   3   4
DOCKED: ENDBRANCH   1   3
DOCKED: BRANCH   1  14
DOCKED: ATOM     14  N   UNL     1     141.662  75.681 220.155 -0.10 +0.13    -0.331 N  
DOCKED: ATOM     15  C   UNL     1     140.961  76.399 219.083 -0.10 -0.05    +0.123 C  
DOCKED: ATOM     16  C   UNL     1     143.061  75.778 220.070 -0.21 -0.09    +0.144 C  
DOCKED: ATOM     17  C   UNL     1     142.073  77.380 218.661 -0.25 -0.03    +0.056 C  
DOCKED: ATOM     18  C   UNL     1     143.340  76.575 218.833 -0.27 -0.09    +0.143 C  
DOCKED: BRANCH  16  19
DOCKED: ATOM     19  C   UNL     1     143.854  74.567 220.199 -0.41 +0.01    -0.021 A  
DOCKED: ATOM     20  C   UNL     1     145.184  74.661 220.610 -0.34 -0.00    +0.006 A  
DOCKED: ATOM     21  C   UNL     1     143.354  73.285 219.928 -0.27 -0.01    +0.026 A  
DOCKED: ATOM     22  C   UNL     1     145.979  73.528 220.745 -0.69 -0.00    +0.002 A  
DOCKED: ATOM     23  C   UNL     1     144.173  72.184 220.074 -0.31 -0.00    +0.041 A  
DOCKED: ATOM     24  C   UNL     1     145.470  72.267 220.475 -0.35 -0.00    +0.020 A  
DOCKED: ATOM     25  Cl  UNL     1     143.516  70.590 219.728 -0.26 +0.00    -0.084 Cl 
DOCKED: ENDBRANCH  16  19
DOCKED: BRANCH  18  26
DOCKED: ATOM     26  O   UNL     1     143.509  75.709 217.734 -0.12 +0.21    -0.391 OA 
DOCKED: ATOM     27  H   UNL     1     144.467  75.587 217.593 -0.41 -0.14    +0.211 HD 
DOCKED: ENDBRANCH  18  26
DOCKED: ENDBRANCH   1  14
DOCKED: TORSDOF 6
DOCKED: TER
DOCKED: ENDMDL
________________________________________________________________________________


    FINAL DOCKED STATE:
    ________________________


Run:   16 / 20
Time taken for this run:   0.028s

DOCKED: MODEL        16
DOCKED: USER    Run = 16
DOCKED: USER
DOCKED: USER    Estimated Free Energy of Binding    =  -6.72 kcal/mol  [=(1)+(2)+(3)-(4)]
DOCKED: USER
DOCKED: USER    (1) Final Intermolecular Energy     =  -8.51 kcal/mol
DOCKED: USER        vdW + Hbond + desolv Energy     =  -8.35 kcal/mol
DOCKED: USER        Electrostatic Energy            =  -0.16 kcal/mol
DOCKED: USER        Moving Ligand-Fixed Receptor    =  -8.51 kcal/mol
DOCKED: USER        Moving Ligand-Moving Receptor   =  +0.00 kcal/mol
DOCKED: USER    (2) Final Total Internal Energy     =  -1.70 kcal/mol
DOCKED: USER    (3) Torsional Free Energy           =  +1.79 kcal/mol
DOCKED: USER    (4) Unbound System's Energy         =  -1.70 kcal/mol
DOCKED: USER
DOCKED: USER
DOCKED: REMARK SMILES O=C(NCC(=O)N1CC[C@H](O)[C@@H]1c1cccc(Cl)c1)c1ccncc1
DOCKED: REMARK SMILES IDX 5 1 6 2 4 3 3 4 2 5 1 6 20 8 21 9 25 10 22 11 24 12 23 13
DOCKED: REMARK SMILES IDX 7 14 8 15 12 16 9 17 10 18 13 19 14 20 19 21 15 22 17 23
DOCKED: REMARK SMILES IDX 16 24 18 25 11 26
DOCKED: REMARK H PARENT 3 7 11 27
DOCKED: USER                              x       y       z     vdW  Elec       q    Type
DOCKED: USER                           _______ _______ _______ _____ _____    ______ ____
DOCKED: ROOT
DOCKED: ATOM      1  C   UNL     1     139.231  75.629 221.850 -0.21 -0.05    +0.242 C  
DOCKED: ATOM      2  O   UNL     1     139.575  74.677 222.621 -0.62 +0.03    -0.273 OA 
DOCKED: ENDROOT
DOCKED: BRANCH   1   3
DOCKED: ATOM      3  C   UNL     1     137.953  76.306 222.020 -0.18 -0.05    +0.216 C  
DOCKED: BRANCH   3   4
DOCKED: ATOM      4  N   UNL     1     137.181  75.551 223.019 -0.07 +0.11    -0.343 N  
DOCKED: ATOM      5  C   UNL     1     136.004  76.107 223.541 -0.16 -0.05    +0.251 C  
DOCKED: ATOM      6  O   UNL     1     135.612  77.253 223.150 -0.12 +0.04    -0.269 OA 
DOCKED: ATOM      7  H   UNL     1     137.481  74.611 223.357 -0.40 -0.12    +0.164 HD 
DOCKED: BRANCH   5   8
DOCKED: ATOM      8  C   UNL     1     135.169  75.445 224.531 -0.31 -0.01    +0.042 A  
DOCKED: ATOM      9  C   UNL     1     134.428  76.214 225.405 -0.27 -0.00    +0.034 A  
DOCKED: ATOM     10  C   UNL     1     135.069  74.082 224.656 -0.29 -0.00    +0.034 A  
DOCKED: ATOM     11  C   UNL     1     133.618  75.624 226.366 -0.33 -0.00    +0.112 A  
DOCKED: ATOM     12  C   UNL     1     134.250  73.511 225.629 -0.26 -0.00    +0.112 A  
DOCKED: ATOM     13  N   UNL     1     133.536  74.275 226.469 -0.78 -0.02    -0.265 NA 
DOCKED: ENDBRANCH   5   8
DOCKED: ENDBRANCH   3   4
DOCKED: ENDBRANCH   1   3
DOCKED: BRANCH   1  14
DOCKED: ATOM     14  N   UNL     1     140.196  75.957 220.828 -0.08 +0.09    -0.331 N  
DOCKED: ATOM     15  C   UNL     1     140.843  74.879 220.071 -0.14 -0.03    +0.123 C  
DOCKED: ATOM     16  C   UNL     1     140.613  77.241 220.440 -0.16 -0.05    +0.144 C  
DOCKED: ATOM     17  C   UNL     1     141.286  75.672 218.824 -0.11 -0.02    +0.056 C  
DOCKED: ATOM     18  C   UNL     1     141.648  77.030 219.378 -0.19 -0.07    +0.143 C  
DOCKED: BRANCH  16  19
DOCKED: ATOM     19  C   UNL     1     140.992  78.195 221.469 -0.33 +0.01    -0.021 A  
DOCKED: ATOM     20  C   UNL     1     141.337  77.730 222.739 -0.38 -0.00    +0.006 A  
DOCKED: ATOM     21  C   UNL     1     141.032  79.581 221.259 -0.30 -0.01    +0.026 A  
DOCKED: ATOM     22  C   UNL     1     141.704  78.607 223.753 -0.59 -0.00    +0.002 A  
DOCKED: ATOM     23  C   UNL     1     141.402  80.420 222.290 -0.43 -0.01    +0.041 A  
DOCKED: ATOM     24  C   UNL     1     141.740  79.975 223.529 -0.59 -0.00    +0.020 A  
DOCKED: ATOM     25  Cl  UNL     1     141.443  82.153 221.995 -0.43 +0.01    -0.084 Cl 
DOCKED: ENDBRANCH  16  19
DOCKED: BRANCH  18  26
DOCKED: ATOM     26  O   UNL     1     142.929  76.982 219.962 -0.21 +0.31    -0.391 OA 
DOCKED: ATOM     27  H   UNL     1     143.245  77.899 220.068 -0.42 -0.25    +0.211 HD 
DOCKED: ENDBRANCH  18  26
DOCKED: ENDBRANCH   1  14
DOCKED: TORSDOF 6
DOCKED: TER
DOCKED: ENDMDL
________________________________________________________________________________


    FINAL DOCKED STATE:
    ________________________


Run:   17 / 20
Time taken for this run:   0.028s

DOCKED: MODEL        17
DOCKED: USER    Run = 17
DOCKED: USER
DOCKED: USER    Estimated Free Energy of Binding    =  -6.75 kcal/mol  [=(1)+(2)+(3)-(4)]
DOCKED: USER
DOCKED: USER    (1) Final Intermolecular Energy     =  -8.54 kcal/mol
DOCKED: USER        vdW + Hbond + desolv Energy     =  -8.35 kcal/mol
DOCKED: USER        Electrostatic Energy            =  -0.19 kcal/mol
DOCKED: USER        Moving Ligand-Fixed Receptor    =  -8.54 kcal/mol
DOCKED: USER        Moving Ligand-Moving Receptor   =  +0.00 kcal/mol
DOCKED: USER    (2) Final Total Internal Energy     =  -1.70 kcal/mol
DOCKED: USER    (3) Torsional Free Energy           =  +1.79 kcal/mol
DOCKED: USER    (4) Unbound System's Energy         =  -1.70 kcal/mol
DOCKED: USER
DOCKED: USER
DOCKED: REMARK SMILES O=C(NCC(=O)N1CC[C@H](O)[C@@H]1c1cccc(Cl)c1)c1ccncc1
DOCKED: REMARK SMILES IDX 5 1 6 2 4 3 3 4 2 5 1 6 20 8 21 9 25 10 22 11 24 12 23 13
DOCKED: REMARK SMILES IDX 7 14 8 15 12 16 9 17 10 18 13 19 14 20 19 21 15 22 17 23
DOCKED: REMARK SMILES IDX 16 24 18 25 11 26
DOCKED: REMARK H PARENT 3 7 11 27
DOCKED: USER                              x       y       z     vdW  Elec       q    Type
DOCKED: USER                           _______ _______ _______ _____ _____    ______ ____
DOCKED: ROOT
DOCKED: ATOM      1  C   UNL     1     140.459  75.153 220.149 -0.09 -0.06    +0.242 C  
DOCKED: ATOM      2  O   UNL     1     139.641  74.471 219.453 -0.02 +0.06    -0.273 OA 
DOCKED: ENDROOT
DOCKED: BRANCH   1   3
DOCKED: ATOM      3  C   UNL     1     140.394  75.142 221.603 -0.25 -0.04    +0.216 C  
DOCKED: BRANCH   3   4
DOCKED: ATOM      4  N   UNL     1     141.102  76.338 222.087 -0.18 +0.13    -0.343 N  
DOCKED: ATOM      5  C   UNL     1     140.401  77.546 222.216 -0.27 -0.08    +0.251 C  
DOCKED: ATOM      6  O   UNL     1     139.165  77.601 221.918 -0.15 +0.06    -0.269 OA 
DOCKED: ATOM      7  H   UNL     1     142.114  76.320 222.337 -0.52 -0.14    +0.164 HD 
DOCKED: BRANCH   5   8
DOCKED: ATOM      8  C   UNL     1     141.005  78.783 222.684 -0.44 -0.01    +0.042 A  
DOCKED: ATOM      9  C   UNL     1     142.334  79.029 222.403 -0.46 -0.02    +0.034 A  
DOCKED: ATOM     10  C   UNL     1     140.329  79.740 223.399 -0.44 -0.01    +0.034 A  
DOCKED: ATOM     11  C   UNL     1     142.951  80.197 222.831 -0.55 -0.04    +0.112 A  
DOCKED: ATOM     12  C   UNL     1     140.968  80.906 223.818 -0.38 -0.01    +0.112 A  
DOCKED: ATOM     13  N   UNL     1     142.261  81.127 223.535 -0.37 +0.04    -0.265 NA 
DOCKED: ENDBRANCH   5   8
DOCKED: ENDBRANCH   3   4
DOCKED: ENDBRANCH   1   3
DOCKED: BRANCH   1  14
DOCKED: ATOM     14  N   UNL     1     141.419  75.909 219.382 -0.05 +0.13    -0.331 N  
DOCKED: ATOM     15  C   UNL     1     140.964  76.706 218.236 -0.07 -0.05    +0.123 C  
DOCKED: ATOM     16  C   UNL     1     142.803  75.992 219.606 -0.29 -0.08    +0.144 C  
DOCKED: ATOM     17  C   UNL     1     142.139  77.698 218.131 -0.24 -0.04    +0.056 C  
DOCKED: ATOM     18  C   UNL     1     143.341  76.866 218.515 -0.21 -0.10    +0.143 C  
DOCKED: BRANCH  16  19
DOCKED: ATOM     19  C   UNL     1     143.552  74.765 219.818 -0.37 +0.01    -0.021 A  
DOCKED: ATOM     20  C   UNL     1     143.171  73.605 219.143 -0.19 -0.00    +0.006 A  
DOCKED: ATOM     21  C   UNL     1     144.656  74.674 220.679 -0.24 -0.01    +0.026 A  
DOCKED: ATOM     22  C   UNL     1     143.858  72.409 219.318 -0.22 -0.00    +0.002 A  
DOCKED: ATOM     23  C   UNL     1     145.313  73.470 220.826 -0.59 -0.01    +0.041 A  
DOCKED: ATOM     24  C   UNL     1     144.948  72.336 220.172 -0.40 -0.00    +0.020 A  
DOCKED: ATOM     25  Cl  UNL     1     146.694  73.389 221.912 -0.77 +0.01    -0.084 Cl 
DOCKED: ENDBRANCH  16  19
DOCKED: BRANCH  18  26
DOCKED: ATOM     26  O   UNL     1     143.742  76.073 217.421 -0.14 +0.24    -0.391 OA 
DOCKED: ATOM     27  H   UNL     1     144.708  75.944 217.483 -0.47 -0.17    +0.211 HD 
DOCKED: ENDBRANCH  18  26
DOCKED: ENDBRANCH   1  14
DOCKED: TORSDOF 6
DOCKED: TER
DOCKED: ENDMDL
________________________________________________________________________________


    FINAL DOCKED STATE:
    ________________________


Run:   18 / 20
Time taken for this run:   0.028s

DOCKED: MODEL        18
DOCKED: USER    Run = 18
DOCKED: USER
DOCKED: USER    Estimated Free Energy of Binding    =  -6.82 kcal/mol  [=(1)+(2)+(3)-(4)]
DOCKED: USER
DOCKED: USER    (1) Final Intermolecular Energy     =  -8.61 kcal/mol
DOCKED: USER        vdW + Hbond + desolv Energy     =  -8.44 kcal/mol
DOCKED: USER        Electrostatic Energy            =  -0.17 kcal/mol
DOCKED: USER        Moving Ligand-Fixed Receptor    =  -8.61 kcal/mol
DOCKED: USER        Moving Ligand-Moving Receptor   =  +0.00 kcal/mol
DOCKED: USER    (2) Final Total Internal Energy     =  -1.70 kcal/mol
DOCKED: USER    (3) Torsional Free Energy           =  +1.79 kcal/mol
DOCKED: USER    (4) Unbound System's Energy         =  -1.70 kcal/mol
DOCKED: USER
DOCKED: USER
DOCKED: REMARK SMILES O=C(NCC(=O)N1CC[C@H](O)[C@@H]1c1cccc(Cl)c1)c1ccncc1
DOCKED: REMARK SMILES IDX 5 1 6 2 4 3 3 4 2 5 1 6 20 8 21 9 25 10 22 11 24 12 23 13
DOCKED: REMARK SMILES IDX 7 14 8 15 12 16 9 17 10 18 13 19 14 20 19 21 15 22 17 23
DOCKED: REMARK SMILES IDX 16 24 18 25 11 26
DOCKED: REMARK H PARENT 3 7 11 27
DOCKED: USER                              x       y       z     vdW  Elec       q    Type
DOCKED: USER                           _______ _______ _______ _____ _____    ______ ____
DOCKED: ROOT
DOCKED: ATOM      1  C   UNL     1     139.711  75.200 221.560 -0.21 -0.05    +0.242 C  
DOCKED: ATOM      2  O   UNL     1     139.943  74.149 222.239 -0.84 +0.01    -0.273 OA 
DOCKED: ENDROOT
DOCKED: BRANCH   1   3
DOCKED: ATOM      3  C   UNL     1     138.467  75.938 221.722 -0.18 -0.05    +0.216 C  
DOCKED: BRANCH   3   4
DOCKED: ATOM      4  N   UNL     1     137.655  75.224 222.721 +0.00 +0.12    -0.343 N  
DOCKED: ATOM      5  C   UNL     1     136.517  75.848 223.253 -0.16 -0.06    +0.251 C  
DOCKED: ATOM      6  O   UNL     1     136.194  77.018 222.871 -0.14 +0.04    -0.269 OA 
DOCKED: ATOM      7  H   UNL     1     137.899  74.266 223.051 -0.51 -0.11    +0.164 HD 
DOCKED: BRANCH   5   8
DOCKED: ATOM      8  C   UNL     1     135.649  75.231 224.243 -0.31 -0.01    +0.042 A  
DOCKED: ATOM      9  C   UNL     1     134.994  76.036 225.154 -0.24 -0.00    +0.034 A  
DOCKED: ATOM     10  C   UNL     1     135.434  73.879 224.333 -0.26 -0.01    +0.034 A  
DOCKED: ATOM     11  C   UNL     1     134.156  75.488 226.117 -0.35 -0.00    +0.112 A  
DOCKED: ATOM     12  C   UNL     1     134.588  73.351 225.309 -0.23 -0.00    +0.112 A  
DOCKED: ATOM     13  N   UNL     1     133.960  74.150 226.185 -0.71 -0.02    -0.265 NA 
DOCKED: ENDBRANCH   5   8
DOCKED: ENDBRANCH   3   4
DOCKED: ENDBRANCH   1   3
DOCKED: BRANCH   1  14
DOCKED: ATOM     14  N   UNL     1     140.765  75.572 220.647 -0.10 +0.10    -0.331 N  
DOCKED: ATOM     15  C   UNL     1     141.601  74.528 220.043 -0.17 -0.03    +0.123 C  
DOCKED: ATOM     16  C   UNL     1     141.107  76.870 220.234 -0.19 -0.06    +0.144 C  
DOCKED: ATOM     17  C   UNL     1     142.125  75.298 218.813 -0.16 -0.02    +0.056 C  
DOCKED: ATOM     18  C   UNL     1     142.285  76.711 219.322 -0.25 -0.08    +0.143 C  
DOCKED: BRANCH  16  19
DOCKED: ATOM     19  C   UNL     1     141.261  77.906 221.242 -0.33 +0.01    -0.021 A  
DOCKED: ATOM     20  C   UNL     1     141.392  77.543 222.583 -0.26 -0.00    +0.006 A  
DOCKED: ATOM     21  C   UNL     1     141.286  79.276 220.942 -0.31 -0.01    +0.026 A  
DOCKED: ATOM     22  C   UNL     1     141.540  78.501 223.579 -0.56 -0.00    +0.002 A  
DOCKED: ATOM     23  C   UNL     1     141.435  80.198 221.958 -0.41 -0.01    +0.041 A  
DOCKED: ATOM     24  C   UNL     1     141.563  79.852 223.266 -0.55 -0.01    +0.020 A  
DOCKED: ATOM     25  Cl  UNL     1     141.463  81.908 221.549 -0.45 +0.02    -0.084 Cl 
DOCKED: ENDBRANCH  16  19
DOCKED: BRANCH  18  26
DOCKED: ATOM     26  O   UNL     1     143.480  76.820 220.062 -0.13 +0.35    -0.391 OA 
DOCKED: ATOM     27  H   UNL     1     143.410  77.612 220.629 -0.44 -0.28    +0.211 HD 
DOCKED: ENDBRANCH  18  26
DOCKED: ENDBRANCH   1  14
DOCKED: TORSDOF 6
DOCKED: TER
DOCKED: ENDMDL
________________________________________________________________________________


    FINAL DOCKED STATE:
    ________________________


Run:   19 / 20
Time taken for this run:   0.028s

DOCKED: MODEL        19
DOCKED: USER    Run = 19
DOCKED: USER
DOCKED: USER    Estimated Free Energy of Binding    =  -6.78 kcal/mol  [=(1)+(2)+(3)-(4)]
DOCKED: USER
DOCKED: USER    (1) Final Intermolecular Energy     =  -8.57 kcal/mol
DOCKED: USER        vdW + Hbond + desolv Energy     =  -8.39 kcal/mol
DOCKED: USER        Electrostatic Energy            =  -0.18 kcal/mol
DOCKED: USER        Moving Ligand-Fixed Receptor    =  -8.57 kcal/mol
DOCKED: USER        Moving Ligand-Moving Receptor   =  +0.00 kcal/mol
DOCKED: USER    (2) Final Total Internal Energy     =  -1.61 kcal/mol
DOCKED: USER    (3) Torsional Free Energy           =  +1.79 kcal/mol
DOCKED: USER    (4) Unbound System's Energy         =  -1.61 kcal/mol
DOCKED: USER
DOCKED: USER
DOCKED: REMARK SMILES O=C(NCC(=O)N1CC[C@H](O)[C@@H]1c1cccc(Cl)c1)c1ccncc1
DOCKED: REMARK SMILES IDX 5 1 6 2 4 3 3 4 2 5 1 6 20 8 21 9 25 10 22 11 24 12 23 13
DOCKED: REMARK SMILES IDX 7 14 8 15 12 16 9 17 10 18 13 19 14 20 19 21 15 22 17 23
DOCKED: REMARK SMILES IDX 16 24 18 25 11 26
DOCKED: REMARK H PARENT 3 7 11 27
DOCKED: USER                              x       y       z     vdW  Elec       q    Type
DOCKED: USER                           _______ _______ _______ _____ _____    ______ ____
DOCKED: ROOT
DOCKED: ATOM      1  C   UNL     1     140.725  74.860 220.626 -0.15 -0.06    +0.242 C  
DOCKED: ATOM      2  O   UNL     1     140.468  73.689 220.201 -0.07 +0.05    -0.273 OA 
DOCKED: ENDROOT
DOCKED: BRANCH   1   3
DOCKED: ATOM      3  C   UNL     1     140.199  75.326 221.901 -0.21 -0.03    +0.216 C  
DOCKED: BRANCH   3   4
DOCKED: ATOM      4  N   UNL     1     141.033  76.457 222.339 -0.21 +0.12    -0.343 N  
DOCKED: ATOM      5  C   UNL     1     140.467  77.738 222.414 -0.28 -0.07    +0.251 C  
DOCKED: ATOM      6  O   UNL     1     139.245  77.915 222.107 -0.16 +0.06    -0.269 OA 
DOCKED: ATOM      7  H   UNL     1     142.037  76.338 222.595 -0.49 -0.13    +0.164 HD 
DOCKED: BRANCH   5   8
DOCKED: ATOM      8  C   UNL     1     141.203  78.921 222.833 -0.47 -0.01    +0.042 A  
DOCKED: ATOM      9  C   UNL     1     140.517  79.963 223.422 -0.45 -0.01    +0.034 A  
DOCKED: ATOM     10  C   UNL     1     142.558  79.070 222.679 -0.46 -0.02    +0.034 A  
DOCKED: ATOM     11  C   UNL     1     141.180  81.111 223.837 -0.38 -0.01    +0.112 A  
DOCKED: ATOM     12  C   UNL     1     143.204  80.232 223.103 -0.55 -0.04    +0.112 A  
DOCKED: ATOM     13  N   UNL     1     142.519  81.235 223.674 -0.37 +0.04    -0.265 NA 
DOCKED: ENDBRANCH   5   8
DOCKED: ENDBRANCH   3   4
DOCKED: ENDBRANCH   1   3
DOCKED: BRANCH   1  14
DOCKED: ATOM     14  N   UNL     1     141.558  75.651 219.752 -0.07 +0.13    -0.331 N  
DOCKED: ATOM     15  C   UNL     1     140.949  76.365 218.623 -0.07 -0.05    +0.123 C  
DOCKED: ATOM     16  C   UNL     1     142.946  75.841 219.850 -0.27 -0.08    +0.144 C  
DOCKED: ATOM     17  C   UNL     1     142.034  77.433 218.380 -0.23 -0.03    +0.056 C  
DOCKED: ATOM     18  C   UNL     1     143.323  76.706 218.686 -0.26 -0.10    +0.143 C  
DOCKED: BRANCH  16  19
DOCKED: ATOM     19  C   UNL     1     143.799  74.680 220.039 -0.41 +0.01    -0.021 A  
DOCKED: ATOM     20  C   UNL     1     145.109  74.859 220.485 -0.26 -0.00    +0.006 A  
DOCKED: ATOM     21  C   UNL     1     143.378  73.365 219.795 -0.26 -0.01    +0.026 A  
DOCKED: ATOM     22  C   UNL     1     145.960  73.777 220.679 -0.68 -0.00    +0.002 A  
DOCKED: ATOM     23  C   UNL     1     144.251  72.316 220.000 -0.31 -0.00    +0.041 A  
DOCKED: ATOM     24  C   UNL     1     145.528  72.482 220.434 -0.45 +0.00    +0.020 A  
DOCKED: ATOM     25  Cl  UNL     1     143.691  70.679 219.686 -0.28 +0.00    -0.084 Cl 
DOCKED: ENDBRANCH  16  19
DOCKED: BRANCH  18  26
DOCKED: ATOM     26  O   UNL     1     143.688  75.898 217.590 -0.13 +0.22    -0.391 OA 
DOCKED: ATOM     27  H   UNL     1     144.659  75.807 217.596 -0.46 -0.16    +0.211 HD 
DOCKED: ENDBRANCH  18  26
DOCKED: ENDBRANCH   1  14
DOCKED: TORSDOF 6
DOCKED: TER
DOCKED: ENDMDL
________________________________________________________________________________


    FINAL DOCKED STATE:
    ________________________


Run:   20 / 20
Time taken for this run:   0.028s

DOCKED: MODEL        20
DOCKED: USER    Run = 20
DOCKED: USER
DOCKED: USER    Estimated Free Energy of Binding    =  -6.84 kcal/mol  [=(1)+(2)+(3)-(4)]
DOCKED: USER
DOCKED: USER    (1) Final Intermolecular Energy     =  -8.63 kcal/mol
DOCKED: USER        vdW + Hbond + desolv Energy     =  -8.47 kcal/mol
DOCKED: USER        Electrostatic Energy            =  -0.16 kcal/mol
DOCKED: USER        Moving Ligand-Fixed Receptor    =  -8.63 kcal/mol
DOCKED: USER        Moving Ligand-Moving Receptor   =  +0.00 kcal/mol
DOCKED: USER    (2) Final Total Internal Energy     =  -1.70 kcal/mol
DOCKED: USER    (3) Torsional Free Energy           =  +1.79 kcal/mol
DOCKED: USER    (4) Unbound System's Energy         =  -1.70 kcal/mol
DOCKED: USER
DOCKED: USER
DOCKED: REMARK SMILES O=C(NCC(=O)N1CC[C@H](O)[C@@H]1c1cccc(Cl)c1)c1ccncc1
DOCKED: REMARK SMILES IDX 5 1 6 2 4 3 3 4 2 5 1 6 20 8 21 9 25 10 22 11 24 12 23 13
DOCKED: REMARK SMILES IDX 7 14 8 15 12 16 9 17 10 18 13 19 14 20 19 21 15 22 17 23
DOCKED: REMARK SMILES IDX 16 24 18 25 11 26
DOCKED: REMARK H PARENT 3 7 11 27
DOCKED: USER                              x       y       z     vdW  Elec       q    Type
DOCKED: USER                           _______ _______ _______ _____ _____    ______ ____
DOCKED: ROOT
DOCKED: ATOM      1  C   UNL     1     139.697  75.169 221.564 -0.21 -0.05    +0.242 C  
DOCKED: ATOM      2  O   UNL     1     139.928  74.125 222.254 -0.84 +0.02    -0.273 OA 
DOCKED: ENDROOT
DOCKED: BRANCH   1   3
DOCKED: ATOM      3  C   UNL     1     138.449  75.904 221.712 -0.18 -0.05    +0.216 C  
DOCKED: BRANCH   3   4
DOCKED: ATOM      4  N   UNL     1     137.635  75.198 222.715 +0.01 +0.12    -0.343 N  
DOCKED: ATOM      5  C   UNL     1     136.493  75.823 223.235 -0.17 -0.06    +0.251 C  
DOCKED: ATOM      6  O   UNL     1     136.167  76.988 222.840 -0.13 +0.04    -0.269 OA 
DOCKED: ATOM      7  H   UNL     1     137.881  74.244 223.056 -0.51 -0.11    +0.164 HD 
DOCKED: BRANCH   5   8
DOCKED: ATOM      8  C   UNL     1     135.622  75.214 224.228 -0.31 -0.01    +0.042 A  
DOCKED: ATOM      9  C   UNL     1     134.979  76.024 225.143 -0.25 -0.00    +0.034 A  
DOCKED: ATOM     10  C   UNL     1     135.393  73.864 224.317 -0.26 -0.01    +0.034 A  
DOCKED: ATOM     11  C   UNL     1     134.139  75.484 226.108 -0.35 -0.00    +0.112 A  
DOCKED: ATOM     12  C   UNL     1     134.546  73.344 225.295 -0.23 -0.00    +0.112 A  
DOCKED: ATOM     13  N   UNL     1     133.929  74.147 226.175 -0.71 -0.02    -0.265 NA 
DOCKED: ENDBRANCH   5   8
DOCKED: ENDBRANCH   3   4
DOCKED: ENDBRANCH   1   3
DOCKED: BRANCH   1  14
DOCKED: ATOM     14  N   UNL     1     140.754  75.537 220.654 -0.10 +0.10    -0.331 N  
DOCKED: ATOM     15  C   UNL     1     141.587  74.490 220.051 -0.17 -0.03    +0.123 C  
DOCKED: ATOM     16  C   UNL     1     141.105  76.834 220.245 -0.19 -0.06    +0.144 C  
DOCKED: ATOM     17  C   UNL     1     142.118  75.259 218.824 -0.16 -0.02    +0.056 C  
DOCKED: ATOM     18  C   UNL     1     142.284  76.671 219.336 -0.25 -0.08    +0.143 C  
DOCKED: BRANCH  16  19
DOCKED: ATOM     19  C   UNL     1     141.261  77.868 221.254 -0.33 +0.01    -0.021 A  
DOCKED: ATOM     20  C   UNL     1     141.392  77.502 222.594 -0.24 -0.00    +0.006 A  
DOCKED: ATOM     21  C   UNL     1     141.287  79.239 220.956 -0.31 -0.01    +0.026 A  
DOCKED: ATOM     22  C   UNL     1     141.542  78.459 223.592 -0.55 -0.00    +0.002 A  
DOCKED: ATOM     23  C   UNL     1     141.439  80.158 221.974 -0.41 -0.01    +0.041 A  
DOCKED: ATOM     24  C   UNL     1     141.567  79.810 223.282 -0.56 -0.01    +0.020 A  
DOCKED: ATOM     25  Cl  UNL     1     141.469  81.869 221.568 -0.45 +0.02    -0.084 Cl 
DOCKED: ENDBRANCH  16  19
DOCKED: BRANCH  18  26
DOCKED: ATOM     26  O   UNL     1     143.477  76.773 220.079 -0.18 +0.34    -0.391 OA 
DOCKED: ATOM     27  H   UNL     1     143.402  77.553 220.660 -0.45 -0.27    +0.211 HD 
DOCKED: ENDBRANCH  18  26
DOCKED: ENDBRANCH   1  14
DOCKED: TORSDOF 6
DOCKED: TER
DOCKED: ENDMDL
________________________________________________________________________________


    CLUSTERING HISTOGRAM
    ____________________


________________________________________________________________________________
     |           |     |           |     |
Clus | Lowest    | Run | Mean      | Num | Histogram
-ter | Binding   |     | Binding   | in  |
Rank | Energy    |     | Energy    | Clus|    5    10   15   20   25   30   35
_____|___________|_____|___________|_____|____:____|____:____|____:____|____:___
   1 |     -6.89 |   7 |     -6.78 |   5 |#####
   2 |     -6.86 |   8 |     -6.81 |   9 |#########
   3 |     -6.85 |   5 |     -6.85 |   1 |#
   4 |     -6.49 |  10 |     -6.47 |   3 |###
   5 |     -6.41 |  14 |     -6.41 |   2 |##
_____|___________|_____|___________|_____|______________________________________


    RMSD TABLE
    __________


_______________________________________________________________________
     |      |      |           |         |                 |
Rank | Sub- | Run  | Binding   | Cluster | Reference       | Grep
     | Rank |      | Energy    | RMSD    | RMSD            | Pattern
_____|______|______|___________|_________|_________________|___________
   1      1      7       -6.89      0.00    271.66           RANKING
   1      2     11       -6.79      0.45    271.65           RANKING
   1      3     19       -6.78      0.47    271.66           RANKING
   1      4     17       -6.75      1.13    271.53           RANKING
   1      5      9       -6.69      1.23    271.51           RANKING
   2      1      8       -6.86      0.00    271.34           RANKING
   2      2     13       -6.86      0.07    271.35           RANKING
   2      3      6       -6.86      0.17    271.32           RANKING
   2      4     20       -6.84      0.40    271.33           RANKING
   2      5      4       -6.83      0.23    271.32           RANKING
   2      6     18       -6.82      0.39    271.34           RANKING
   2      7      1       -6.77      0.17    271.37           RANKING
   2      8      2       -6.74      0.27    271.22           RANKING
   2      9     16       -6.72      0.31    271.39           RANKING
   3      1      5       -6.85      0.00    271.41           RANKING
   4      1     10       -6.49      0.00    271.13           RANKING
   4      2     12       -6.48      0.07    271.11           RANKING
   4      3     15       -6.44      0.11    271.09           RANKING
   5      1     14       -6.41      0.00    271.67           RANKING
   5      2      3       -6.40      0.36    271.69           RANKING

Run time 0.490 sec
Idle time 0.000 sec
