AutoDock-GPU version: v1.6

**********************************************************
**    AutoDock-GPU AUTODOCKTOOLS-COMPATIBLE DLG FILE    **
**********************************************************


    DOCKING PARAMETERS
    ________________________


Ligand file:                               /home/a/REINVENT4/ReinventStudies/pleaseWork/justmol2mol_4_Compounds_ontop/graph-dock/graph-DockGPU/node-autodockgpu/inputs/VSWJIFYCPACIQN-XPDOLSDMNA-N.pdbqt
Grid fld file:                             /home/a/REINVENT4/ReinventStudies/mols/Rad51/maps/rad51_receptor.maps.fld

Random seed:                               42
Number of runs:                            20
Number of energy evaluations:              1132076
Number of generations:                     42000
Size of population:                        150
Rate of crossover:                         80.000000%
Tournament selection probability limit:    60.000000%
Rate of mutation:                          2.000000%
Maximal allowed delta movement:            +/- 6.000000A
Maximal allowed delta angle:               +/- 90.000000

Rate of local search:                      100.000000%
Maximal number of local search iterations: 300
Rho lower bound:                           0.010000
Spread of local search delta movement:     2.000000A
Spread of local search delta angle:        74.999999
Limit of consecutive successes/failures:   4

Handle symmetry during clustering:         YES
RMSD tolerance:                            2.000000A

Program call in command line was:          /home/a/REINVENT4/ReinventStudies/adgpu-v1.6_linux_x64_cuda12_128wi --filelist batch.txt --heuristics 1 --nrun 20 --psize 150 --lsit 300 --seed 42 --heurmax 12000000 


    GRID PARAMETERS
    ________________________


Receptor name:                             rad51_receptor
Number of grid points (x, y, z):           53, 53, 53
Grid center (x, y, z):                     139.950000, 75.640000, 221.970000A
Grid size (x, y, z):                       19.500000, 19.500000, 19.500000A
Grid spacing:                              0.375000A


    LIGAND PARAMETERS
    ________________________


Ligand name:                               /home/a/REINVENT4/ReinventStudies/pleaseWork/justmol2mol_4_Compounds_ontop/graph-dock/graph-DockGPU/node-autodockgpu/inputs/VSWJIFYCPACIQN-XPDOLSDMNA-N
Number of atoms:                           27
Number of rotatable bonds:                 6
Number of atom types:                      7


    DUMMY DATA (only for ADT-compatibility)
    ________________________


DPF> outlev 1
DPF> ga_run 20
DPF> fld /home/a/REINVENT4/ReinventStudies/mols/Rad51/maps/rad51_receptor.maps.fld
DPF> move /home/a/REINVENT4/ReinventStudies/pleaseWork/justmol2mol_4_Compounds_ontop/graph-dock/graph-DockGPU/node-autodockgpu/inputs/VSWJIFYCPACIQN-XPDOLSDMNA-N.pdbqt


    COUNTER STATES
    ________________________


Number of energy evaluations performed:    652239
Number of generations used:                30


    INPUT LIGAND PDBQT FILE:
    ________________________


INPUT-LIGAND-PDBQT: REMARK SMILES O=C(NCC(=O)N1CC[C@H](O)[C@H]1c1cccc(Cl)c1)c1ccncc1
INPUT-LIGAND-PDBQT: REMARK SMILES IDX 5 1 6 2 4 3 3 4 2 5 1 6 20 8 21 9 25 10 22 11 24 12 23 13
INPUT-LIGAND-PDBQT: REMARK SMILES IDX 7 14 8 15 12 16 9 17 10 18 13 19 14 20 19 21 15 22 17 23
INPUT-LIGAND-PDBQT: REMARK SMILES IDX 16 24 18 25 11 26
INPUT-LIGAND-PDBQT: REMARK H PARENT 3 7 11 27
INPUT-LIGAND-PDBQT: ROOT
INPUT-LIGAND-PDBQT: ATOM      1  C   UNL     1       0.171  -0.996   0.527  1.00  0.00     0.242 C 
INPUT-LIGAND-PDBQT: ATOM      2  O   UNL     1       0.582  -1.595   1.554  1.00  0.00    -0.273 OA
INPUT-LIGAND-PDBQT: ENDROOT
INPUT-LIGAND-PDBQT: BRANCH   1   3
INPUT-LIGAND-PDBQT: ATOM      3  C   UNL     1       0.986  -0.090  -0.296  1.00  0.00     0.216 C 
INPUT-LIGAND-PDBQT: BRANCH   3   4
INPUT-LIGAND-PDBQT: ATOM      4  N   UNL     1       2.335   0.051   0.198  1.00  0.00    -0.343 N 
INPUT-LIGAND-PDBQT: ATOM      5  C   UNL     1       3.304   0.882  -0.444  1.00  0.00     0.251 C 
INPUT-LIGAND-PDBQT: ATOM      6  O   UNL     1       2.892   1.490  -1.484  1.00  0.00    -0.269 OA
INPUT-LIGAND-PDBQT: ATOM      7  H   UNL     1       2.581  -0.487   1.057  1.00  0.00     0.164 HD
INPUT-LIGAND-PDBQT: BRANCH   5   8
INPUT-LIGAND-PDBQT: ATOM      8  C   UNL     1       4.657   1.020   0.055  1.00  0.00     0.042 A 
INPUT-LIGAND-PDBQT: ATOM      9  C   UNL     1       5.136   0.377   1.176  1.00  0.00     0.034 A 
INPUT-LIGAND-PDBQT: ATOM     10  C   UNL     1       5.515   1.850  -0.642  1.00  0.00     0.034 A 
INPUT-LIGAND-PDBQT: ATOM     11  C   UNL     1       6.435   0.545   1.608  1.00  0.00     0.112 A 
INPUT-LIGAND-PDBQT: ATOM     12  C   UNL     1       6.813   1.993  -0.177  1.00  0.00     0.112 A 
INPUT-LIGAND-PDBQT: ATOM     13  N   UNL     1       7.253   1.353   0.921  1.00  0.00    -0.265 NA
INPUT-LIGAND-PDBQT: ENDBRANCH   5   8
INPUT-LIGAND-PDBQT: ENDBRANCH   3   4
INPUT-LIGAND-PDBQT: ENDBRANCH   1   3
INPUT-LIGAND-PDBQT: BRANCH   1  14
INPUT-LIGAND-PDBQT: ATOM     14  N   UNL     1      -1.179  -1.216   0.140  1.00  0.00    -0.331 N 
INPUT-LIGAND-PDBQT: ATOM     15  C   UNL     1      -2.138  -2.076   0.828  1.00  0.00     0.123 C 
INPUT-LIGAND-PDBQT: ATOM     16  C   UNL     1      -1.917  -0.667  -0.984  1.00  0.00     0.144 C 
INPUT-LIGAND-PDBQT: ATOM     17  C   UNL     1      -3.109  -2.536  -0.255  1.00  0.00     0.056 C 
INPUT-LIGAND-PDBQT: ATOM     18  C   UNL     1      -2.539  -1.939  -1.523  1.00  0.00     0.143 C 
INPUT-LIGAND-PDBQT: BRANCH  16  19
INPUT-LIGAND-PDBQT: ATOM     19  C   UNL     1      -2.918   0.278  -0.445  1.00  0.00    -0.021 A 
INPUT-LIGAND-PDBQT: ATOM     20  C   UNL     1      -2.537   1.185   0.537  1.00  0.00     0.006 A 
INPUT-LIGAND-PDBQT: ATOM     21  C   UNL     1      -4.222   0.324  -0.855  1.00  0.00     0.026 A 
INPUT-LIGAND-PDBQT: ATOM     22  C   UNL     1      -3.453   2.093   1.069  1.00  0.00     0.002 A 
INPUT-LIGAND-PDBQT: ATOM     23  C   UNL     1      -5.135   1.222  -0.330  1.00  0.00     0.041 A 
INPUT-LIGAND-PDBQT: ATOM     24  C   UNL     1      -4.766   2.116   0.635  1.00  0.00     0.020 A 
INPUT-LIGAND-PDBQT: ATOM     25  Cl  UNL     1      -6.811   1.264  -0.872  1.00  0.00    -0.084 Cl
INPUT-LIGAND-PDBQT: ENDBRANCH  16  19
INPUT-LIGAND-PDBQT: BRANCH  18  26
INPUT-LIGAND-PDBQT: ATOM     26  O   UNL     1      -1.499  -2.770  -1.923  1.00  0.00    -0.391 OA
INPUT-LIGAND-PDBQT: ATOM     27  H   UNL     1      -1.185  -3.356  -1.185  1.00  0.00     0.211 HD
INPUT-LIGAND-PDBQT: ENDBRANCH  18  26
INPUT-LIGAND-PDBQT: ENDBRANCH   1  14
INPUT-LIGAND-PDBQT: TORSDOF 6


    FINAL DOCKED STATE:
    ________________________


Run:   1 / 20
Time taken for this run:   0.025s

DOCKED: MODEL        1
DOCKED: USER    Run = 1
DOCKED: USER
DOCKED: USER    Estimated Free Energy of Binding    =  -6.68 kcal/mol  [=(1)+(2)+(3)-(4)]
DOCKED: USER
DOCKED: USER    (1) Final Intermolecular Energy     =  -8.47 kcal/mol
DOCKED: USER        vdW + Hbond + desolv Energy     =  -8.37 kcal/mol
DOCKED: USER        Electrostatic Energy            =  -0.11 kcal/mol
DOCKED: USER        Moving Ligand-Fixed Receptor    =  -8.47 kcal/mol
DOCKED: USER        Moving Ligand-Moving Receptor   =  +0.00 kcal/mol
DOCKED: USER    (2) Final Total Internal Energy     =  -1.94 kcal/mol
DOCKED: USER    (3) Torsional Free Energy           =  +1.79 kcal/mol
DOCKED: USER    (4) Unbound System's Energy         =  -1.94 kcal/mol
DOCKED: USER
DOCKED: USER
DOCKED: REMARK SMILES O=C(NCC(=O)N1CC[C@H](O)[C@H]1c1cccc(Cl)c1)c1ccncc1
DOCKED: REMARK SMILES IDX 5 1 6 2 4 3 3 4 2 5 1 6 20 8 21 9 25 10 22 11 24 12 23 13
DOCKED: REMARK SMILES IDX 7 14 8 15 12 16 9 17 10 18 13 19 14 20 19 21 15 22 17 23
DOCKED: REMARK SMILES IDX 16 24 18 25 11 26
DOCKED: REMARK H PARENT 3 7 11 27
DOCKED: USER                              x       y       z     vdW  Elec       q    Type
DOCKED: USER                           _______ _______ _______ _____ _____    ______ ____
DOCKED: ROOT
DOCKED: ATOM      1  C   UNL     1     135.465  69.176 224.011 -0.11 -0.01    +0.242 C  
DOCKED: ATOM      2  O   UNL     1     134.659  68.246 224.270 -0.71 -0.00    -0.273 OA 
DOCKED: ENDROOT
DOCKED: BRANCH   1   3
DOCKED: ATOM      3  C   UNL     1     136.888  68.987 223.690 -0.12 -0.02    +0.216 C  
DOCKED: BRANCH   3   4
DOCKED: ATOM      4  N   UNL     1     137.757  69.804 224.503 -0.12 +0.04    -0.343 N  
DOCKED: ATOM      5  C   UNL     1     138.758  69.246 225.355 -0.26 -0.03    +0.251 C  
DOCKED: ATOM      6  O   UNL     1     138.830  67.975 225.346 -0.74 -0.01    -0.269 OA 
DOCKED: ATOM      7  H   UNL     1     137.623  70.837 224.444 +0.05 -0.03    +0.164 HD 
DOCKED: BRANCH   5   8
DOCKED: ATOM      8  C   UNL     1     139.628  70.070 226.169 -0.43 -0.01    +0.042 A  
DOCKED: ATOM      9  C   UNL     1     140.352  71.139 225.688 -0.55 -0.01    +0.034 A  
DOCKED: ATOM     10  C   UNL     1     139.733  69.758 227.512 -0.55 -0.01    +0.034 A  
DOCKED: ATOM     11  C   UNL     1     141.166  71.891 226.509 -0.62 -0.02    +0.112 A  
DOCKED: ATOM     12  C   UNL     1     140.562  70.537 228.305 -0.49 -0.02    +0.112 A  
DOCKED: ATOM     13  N   UNL     1     141.257  71.575 227.807 -0.46 +0.05    -0.265 NA 
DOCKED: ENDBRANCH   5   8
DOCKED: ENDBRANCH   3   4
DOCKED: ENDBRANCH   1   3
DOCKED: BRANCH   1  14
DOCKED: ATOM     14  N   UNL     1     134.957  70.503 224.030 -0.04 +0.04    -0.331 N  
DOCKED: ATOM     15  C   UNL     1     134.021  71.077 223.067 -0.04 -0.02    +0.123 C  
DOCKED: ATOM     16  C   UNL     1     135.223  71.579 224.970 +0.03 -0.01    +0.144 C  
DOCKED: ATOM     17  C   UNL     1     134.323  72.572 223.059 -0.07 -0.01    +0.056 C  
DOCKED: ATOM     18  C   UNL     1     135.506  72.702 223.994 -0.17 -0.03    +0.143 C  
DOCKED: BRANCH  16  19
DOCKED: ATOM     19  C   UNL     1     133.992  71.800 225.758 -0.28 +0.00    -0.021 A  
DOCKED: ATOM     20  C   UNL     1     133.160  70.722 226.037 -0.28 -0.00    +0.006 A  
DOCKED: ATOM     21  C   UNL     1     133.607  73.019 226.245 -0.34 +0.00    +0.026 A  
DOCKED: ATOM     22  C   UNL     1     131.991  70.891 226.780 -0.21 -0.00    +0.002 A  
DOCKED: ATOM     23  C   UNL     1     132.448  73.193 226.981 -0.38 -0.00    +0.041 A  
DOCKED: ATOM     24  C   UNL     1     131.627  72.137 227.259 -0.38 -0.00    +0.020 A  
DOCKED: ATOM     25  Cl  UNL     1     131.969  74.772 227.598 -0.49 +0.00    -0.084 Cl 
DOCKED: ENDBRANCH  16  19
DOCKED: BRANCH  18  26
DOCKED: ATOM     26  O   UNL     1     136.633  72.341 223.264 -0.10 +0.12    -0.391 OA 
DOCKED: ATOM     27  H   UNL     1     137.416  72.911 223.481 -0.50 -0.13    +0.211 HD 
DOCKED: ENDBRANCH  18  26
DOCKED: ENDBRANCH   1  14
DOCKED: TORSDOF 6
DOCKED: TER
DOCKED: ENDMDL
________________________________________________________________________________


    FINAL DOCKED STATE:
    ________________________


Run:   2 / 20
Time taken for this run:   0.025s

DOCKED: MODEL        2
DOCKED: USER    Run = 2
DOCKED: USER
DOCKED: USER    Estimated Free Energy of Binding    =  -6.51 kcal/mol  [=(1)+(2)+(3)-(4)]
DOCKED: USER
DOCKED: USER    (1) Final Intermolecular Energy     =  -8.30 kcal/mol
DOCKED: USER        vdW + Hbond + desolv Energy     =  -7.98 kcal/mol
DOCKED: USER        Electrostatic Energy            =  -0.32 kcal/mol
DOCKED: USER        Moving Ligand-Fixed Receptor    =  -8.30 kcal/mol
DOCKED: USER        Moving Ligand-Moving Receptor   =  +0.00 kcal/mol
DOCKED: USER    (2) Final Total Internal Energy     =  -2.16 kcal/mol
DOCKED: USER    (3) Torsional Free Energy           =  +1.79 kcal/mol
DOCKED: USER    (4) Unbound System's Energy         =  -2.16 kcal/mol
DOCKED: USER
DOCKED: USER
DOCKED: REMARK SMILES O=C(NCC(=O)N1CC[C@H](O)[C@H]1c1cccc(Cl)c1)c1ccncc1
DOCKED: REMARK SMILES IDX 5 1 6 2 4 3 3 4 2 5 1 6 20 8 21 9 25 10 22 11 24 12 23 13
DOCKED: REMARK SMILES IDX 7 14 8 15 12 16 9 17 10 18 13 19 14 20 19 21 15 22 17 23
DOCKED: REMARK SMILES IDX 16 24 18 25 11 26
DOCKED: REMARK H PARENT 3 7 11 27
DOCKED: USER                              x       y       z     vdW  Elec       q    Type
DOCKED: USER                           _______ _______ _______ _____ _____    ______ ____
DOCKED: ROOT
DOCKED: ATOM      1  C   UNL     1     143.502  75.805 218.091 -0.13 -0.13    +0.242 C  
DOCKED: ATOM      2  O   UNL     1     144.200  75.756 217.046 -0.15 +0.16    -0.273 OA 
DOCKED: ENDROOT
DOCKED: BRANCH   1   3
DOCKED: ATOM      3  C   UNL     1     142.408  76.760 218.324 -0.19 -0.12    +0.216 C  
DOCKED: BRANCH   3   4
DOCKED: ATOM      4  N   UNL     1     142.591  77.536 219.527 -0.14 +0.25    -0.343 N  
DOCKED: ATOM      5  C   UNL     1     141.504  77.887 220.386 -0.19 -0.13    +0.251 C  
DOCKED: ATOM      6  O   UNL     1     140.362  77.465 220.014 -0.06 +0.10    -0.269 OA 
DOCKED: ATOM      7  H   UNL     1     143.564  77.838 219.750 -0.46 -0.20    +0.164 HD 
DOCKED: BRANCH   5   8
DOCKED: ATOM      8  C   UNL     1     141.693  78.667 221.592 -0.38 -0.02    +0.042 A  
DOCKED: ATOM      9  C   UNL     1     141.428  78.201 222.862 -0.48 -0.01    +0.034 A  
DOCKED: ATOM     10  C   UNL     1     142.168  79.958 221.453 -0.39 -0.02    +0.034 A  
DOCKED: ATOM     11  C   UNL     1     141.625  78.987 223.978 -0.50 -0.03    +0.112 A  
DOCKED: ATOM     12  C   UNL     1     142.353  80.717 222.598 -0.49 -0.03    +0.112 A  
DOCKED: ATOM     13  N   UNL     1     142.086  80.236 223.825 -0.36 +0.06    -0.265 NA 
DOCKED: ENDBRANCH   5   8
DOCKED: ENDBRANCH   3   4
DOCKED: ENDBRANCH   1   3
DOCKED: BRANCH   1  14
DOCKED: ATOM     14  N   UNL     1     143.797  74.866 219.117 -0.13 +0.15    -0.331 N  
DOCKED: ATOM     15  C   UNL     1     144.482  75.157 220.373 +0.01 -0.07    +0.123 C  
DOCKED: ATOM     16  C   UNL     1     143.505  73.445 219.177 -0.17 -0.03    +0.144 C  
DOCKED: ATOM     17  C   UNL     1     145.165  73.851 220.766 -0.54 -0.01    +0.056 C  
DOCKED: ATOM     18  C   UNL     1     144.862  72.926 219.607 -0.31 +0.00    +0.143 C  
DOCKED: BRANCH  16  19
DOCKED: ATOM     19  C   UNL     1     142.462  73.244 220.205 -0.23 +0.00    -0.021 A  
DOCKED: ATOM     20  C   UNL     1     142.386  72.025 220.869 -0.25 -0.00    +0.006 A  
DOCKED: ATOM     21  C   UNL     1     141.545  74.196 220.558 -0.24 -0.01    +0.026 A  
DOCKED: ATOM     22  C   UNL     1     141.416  71.798 221.846 -0.19 -0.00    +0.002 A  
DOCKED: ATOM     23  C   UNL     1     140.580  73.976 221.526 -0.29 -0.00    +0.041 A  
DOCKED: ATOM     24  C   UNL     1     140.502  72.780 222.181 -0.30 -0.00    +0.020 A  
DOCKED: ATOM     25  Cl  UNL     1     139.409  75.217 221.965 -0.37 +0.02    -0.084 Cl 
DOCKED: ENDBRANCH  16  19
DOCKED: BRANCH  18  26
DOCKED: ATOM     26  O   UNL     1     145.764  73.243 218.598 -0.62 -0.17    -0.391 OA 
DOCKED: ATOM     27  H   UNL     1     145.557  74.117 218.173 -0.43 -0.05    +0.211 HD 
DOCKED: ENDBRANCH  18  26
DOCKED: ENDBRANCH   1  14
DOCKED: TORSDOF 6
DOCKED: TER
DOCKED: ENDMDL
________________________________________________________________________________


    FINAL DOCKED STATE:
    ________________________


Run:   3 / 20
Time taken for this run:   0.025s

DOCKED: MODEL        3
DOCKED: USER    Run = 3
DOCKED: USER
DOCKED: USER    Estimated Free Energy of Binding    =  -7.44 kcal/mol  [=(1)+(2)+(3)-(4)]
DOCKED: USER
DOCKED: USER    (1) Final Intermolecular Energy     =  -9.23 kcal/mol
DOCKED: USER        vdW + Hbond + desolv Energy     =  -8.98 kcal/mol
DOCKED: USER        Electrostatic Energy            =  -0.25 kcal/mol
DOCKED: USER        Moving Ligand-Fixed Receptor    =  -9.23 kcal/mol
DOCKED: USER        Moving Ligand-Moving Receptor   =  +0.00 kcal/mol
DOCKED: USER    (2) Final Total Internal Energy     =  -1.20 kcal/mol
DOCKED: USER    (3) Torsional Free Energy           =  +1.79 kcal/mol
DOCKED: USER    (4) Unbound System's Energy         =  -1.20 kcal/mol
DOCKED: USER
DOCKED: USER
DOCKED: REMARK SMILES O=C(NCC(=O)N1CC[C@H](O)[C@H]1c1cccc(Cl)c1)c1ccncc1
DOCKED: REMARK SMILES IDX 5 1 6 2 4 3 3 4 2 5 1 6 20 8 21 9 25 10 22 11 24 12 23 13
DOCKED: REMARK SMILES IDX 7 14 8 15 12 16 9 17 10 18 13 19 14 20 19 21 15 22 17 23
DOCKED: REMARK SMILES IDX 16 24 18 25 11 26
DOCKED: REMARK H PARENT 3 7 11 27
DOCKED: USER                              x       y       z     vdW  Elec       q    Type
DOCKED: USER                           _______ _______ _______ _____ _____    ______ ____
DOCKED: ROOT
DOCKED: ATOM      1  C   UNL     1     141.848  78.810 220.197 -0.14 -0.15    +0.242 C  
DOCKED: ATOM      2  O   UNL     1     142.296  79.350 219.153 -0.21 +0.20    -0.273 OA 
DOCKED: ENDROOT
DOCKED: BRANCH   1   3
DOCKED: ATOM      3  C   UNL     1     141.649  77.363 220.370 -0.20 -0.12    +0.216 C  
DOCKED: BRANCH   3   4
DOCKED: ATOM      4  N   UNL     1     142.839  76.598 220.082 -0.15 +0.25    -0.343 N  
DOCKED: ATOM      5  C   UNL     1     142.883  75.174 220.201 -0.19 -0.12    +0.251 C  
DOCKED: ATOM      6  O   UNL     1     141.796  74.629 220.580 -0.19 +0.08    -0.269 OA 
DOCKED: ATOM      7  H   UNL     1     143.681  77.132 219.779 -0.46 -0.16    +0.164 HD 
DOCKED: BRANCH   5   8
DOCKED: ATOM      8  C   UNL     1     144.079  74.411 219.912 -0.39 -0.02    +0.042 A  
DOCKED: ATOM      9  C   UNL     1     145.076  74.160 220.830 -0.52 -0.01    +0.034 A  
DOCKED: ATOM     10  C   UNL     1     144.222  73.905 218.633 -0.21 -0.01    +0.034 A  
DOCKED: ATOM     11  C   UNL     1     146.196  73.426 220.500 -0.56 +0.01    +0.112 A  
DOCKED: ATOM     12  C   UNL     1     145.362  73.172 218.340 -0.20 +0.03    +0.112 A  
DOCKED: ATOM     13  N   UNL     1     146.319  72.944 219.257 -0.67 -0.24    -0.265 NA 
DOCKED: ENDBRANCH   5   8
DOCKED: ENDBRANCH   3   4
DOCKED: ENDBRANCH   1   3
DOCKED: BRANCH   1  14
DOCKED: ATOM     14  N   UNL     1     141.512  79.664 221.281 -0.15 +0.14    -0.331 N  
DOCKED: ATOM     15  C   UNL     1     141.303  81.108 221.202 -0.31 -0.03    +0.123 C  
DOCKED: ATOM     16  C   UNL     1     141.298  79.338 222.680 -0.41 -0.05    +0.144 C  
DOCKED: ATOM     17  C   UNL     1     141.669  81.640 222.584 -0.44 -0.01    +0.056 C  
DOCKED: ATOM     18  C   UNL     1     142.152  80.412 223.323 -0.54 -0.03    +0.143 C  
DOCKED: BRANCH  16  19
DOCKED: ATOM     19  C   UNL     1     139.856  79.504 222.964 -0.37 +0.00    -0.021 A  
DOCKED: ATOM     20  C   UNL     1     138.930  78.778 222.225 -0.25 -0.00    +0.006 A  
DOCKED: ATOM     21  C   UNL     1     139.360  80.340 223.927 -0.38 -0.00    +0.026 A  
DOCKED: ATOM     22  C   UNL     1     137.561  78.907 222.465 -0.20 -0.00    +0.002 A  
DOCKED: ATOM     23  C   UNL     1     138.003  80.472 224.168 -0.36 -0.00    +0.041 A  
DOCKED: ATOM     24  C   UNL     1     137.088  79.761 223.445 -0.23 -0.00    +0.020 A  
DOCKED: ATOM     25  Cl  UNL     1     137.385  81.556 225.412 -0.47 +0.01    -0.084 Cl 
DOCKED: ENDBRANCH  16  19
DOCKED: BRANCH  18  26
DOCKED: ATOM     26  O   UNL     1     143.464  80.193 222.920 -0.37 +0.14    -0.391 OA 
DOCKED: ATOM     27  H   UNL     1     143.512  79.780 222.017 -0.42 -0.14    +0.211 HD 
DOCKED: ENDBRANCH  18  26
DOCKED: ENDBRANCH   1  14
DOCKED: TORSDOF 6
DOCKED: TER
DOCKED: ENDMDL
________________________________________________________________________________


    FINAL DOCKED STATE:
    ________________________


Run:   4 / 20
Time taken for this run:   0.025s

DOCKED: MODEL        4
DOCKED: USER    Run = 4
DOCKED: USER
DOCKED: USER    Estimated Free Energy of Binding    =  -6.47 kcal/mol  [=(1)+(2)+(3)-(4)]
DOCKED: USER
DOCKED: USER    (1) Final Intermolecular Energy     =  -8.26 kcal/mol
DOCKED: USER        vdW + Hbond + desolv Energy     =  -8.19 kcal/mol
DOCKED: USER        Electrostatic Energy            =  -0.07 kcal/mol
DOCKED: USER        Moving Ligand-Fixed Receptor    =  -8.26 kcal/mol
DOCKED: USER        Moving Ligand-Moving Receptor   =  +0.00 kcal/mol
DOCKED: USER    (2) Final Total Internal Energy     =  -2.23 kcal/mol
DOCKED: USER    (3) Torsional Free Energy           =  +1.79 kcal/mol
DOCKED: USER    (4) Unbound System's Energy         =  -2.23 kcal/mol
DOCKED: USER
DOCKED: USER
DOCKED: REMARK SMILES O=C(NCC(=O)N1CC[C@H](O)[C@H]1c1cccc(Cl)c1)c1ccncc1
DOCKED: REMARK SMILES IDX 5 1 6 2 4 3 3 4 2 5 1 6 20 8 21 9 25 10 22 11 24 12 23 13
DOCKED: REMARK SMILES IDX 7 14 8 15 12 16 9 17 10 18 13 19 14 20 19 21 15 22 17 23
DOCKED: REMARK SMILES IDX 16 24 18 25 11 26
DOCKED: REMARK H PARENT 3 7 11 27
DOCKED: USER                              x       y       z     vdW  Elec       q    Type
DOCKED: USER                           _______ _______ _______ _____ _____    ______ ____
DOCKED: ROOT
DOCKED: ATOM      1  C   UNL     1     138.704  72.630 222.334 -0.10 -0.07    +0.242 C  
DOCKED: ATOM      2  O   UNL     1     139.732  73.355 222.345 -0.73 +0.04    -0.273 OA 
DOCKED: ENDROOT
DOCKED: BRANCH   1   3
DOCKED: ATOM      3  C   UNL     1     137.358  73.092 221.963 -0.10 -0.06    +0.216 C  
DOCKED: BRANCH   3   4
DOCKED: ATOM      4  N   UNL     1     136.575  73.501 223.104 +0.02 +0.13    -0.343 N  
DOCKED: ATOM      5  C   UNL     1     135.499  72.714 223.618 -0.12 -0.05    +0.251 C  
DOCKED: ATOM      6  O   UNL     1     135.281  71.624 222.997 -0.05 +0.04    -0.269 OA 
DOCKED: ATOM      7  H   UNL     1     136.827  74.411 223.548 -0.40 -0.09    +0.164 HD 
DOCKED: BRANCH   5   8
DOCKED: ATOM      8  C   UNL     1     134.715  73.129 224.763 -0.24 -0.00    +0.042 A  
DOCKED: ATOM      9  C   UNL     1     134.043  72.259 225.595 -0.26 -0.00    +0.034 A  
DOCKED: ATOM     10  C   UNL     1     134.640  74.483 225.031 -0.33 -0.00    +0.034 A  
DOCKED: ATOM     11  C   UNL     1     133.309  72.709 226.672 -0.33 -0.00    +0.112 A  
DOCKED: ATOM     12  C   UNL     1     133.893  74.896 226.124 -0.32 +0.00    +0.112 A  
DOCKED: ATOM     13  N   UNL     1     133.247  74.024 226.918 -0.79 -0.03    -0.265 NA 
DOCKED: ENDBRANCH   5   8
DOCKED: ENDBRANCH   3   4
DOCKED: ENDBRANCH   1   3
DOCKED: BRANCH   1  14
DOCKED: ATOM     14  N   UNL     1     138.863  71.268 222.707 -0.10 +0.07    -0.331 N  
DOCKED: ATOM     15  C   UNL     1     139.897  70.361 222.219 -0.09 -0.02    +0.123 C  
DOCKED: ATOM     16  C   UNL     1     138.076  70.467 223.628 -0.21 -0.03    +0.144 C  
DOCKED: ATOM     17  C   UNL     1     139.279  68.968 222.305 -0.12 -0.01    +0.056 C  
DOCKED: ATOM     18  C   UNL     1     137.865  69.234 222.774 -0.15 -0.02    +0.143 C  
DOCKED: BRANCH  16  19
DOCKED: ATOM     19  C   UNL     1     138.909  70.205 224.820 -0.36 +0.00    -0.021 A  
DOCKED: ATOM     20  C   UNL     1     138.926  68.928 225.371 -0.43 -0.00    +0.006 A  
DOCKED: ATOM     21  C   UNL     1     139.684  71.151 225.433 -0.40 -0.00    +0.026 A  
DOCKED: ATOM     22  C   UNL     1     139.702  68.642 226.495 -0.57 -0.00    +0.002 A  
DOCKED: ATOM     23  C   UNL     1     140.454  70.873 226.549 -0.58 -0.01    +0.041 A  
DOCKED: ATOM     24  C   UNL     1     140.475  69.620 227.094 -0.56 -0.00    +0.020 A  
DOCKED: ATOM     25  Cl  UNL     1     141.444  72.107 227.324 -0.89 +0.01    -0.084 Cl 
DOCKED: ENDBRANCH  16  19
DOCKED: BRANCH  18  26
DOCKED: ATOM     26  O   UNL     1     137.141  69.625 221.654 -0.01 +0.06    -0.391 OA 
DOCKED: ATOM     27  H   UNL     1     136.612  70.449 221.822 +0.04 -0.04    +0.211 HD 
DOCKED: ENDBRANCH  18  26
DOCKED: ENDBRANCH   1  14
DOCKED: TORSDOF 6
DOCKED: TER
DOCKED: ENDMDL
________________________________________________________________________________


    FINAL DOCKED STATE:
    ________________________


Run:   5 / 20
Time taken for this run:   0.025s

DOCKED: MODEL        5
DOCKED: USER    Run = 5
DOCKED: USER
DOCKED: USER    Estimated Free Energy of Binding    =  -6.57 kcal/mol  [=(1)+(2)+(3)-(4)]
DOCKED: USER
DOCKED: USER    (1) Final Intermolecular Energy     =  -8.36 kcal/mol
DOCKED: USER        vdW + Hbond + desolv Energy     =  -8.02 kcal/mol
DOCKED: USER        Electrostatic Energy            =  -0.34 kcal/mol
DOCKED: USER        Moving Ligand-Fixed Receptor    =  -8.36 kcal/mol
DOCKED: USER        Moving Ligand-Moving Receptor   =  +0.00 kcal/mol
DOCKED: USER    (2) Final Total Internal Energy     =  -2.14 kcal/mol
DOCKED: USER    (3) Torsional Free Energy           =  +1.79 kcal/mol
DOCKED: USER    (4) Unbound System's Energy         =  -2.14 kcal/mol
DOCKED: USER
DOCKED: USER
DOCKED: REMARK SMILES O=C(NCC(=O)N1CC[C@H](O)[C@H]1c1cccc(Cl)c1)c1ccncc1
DOCKED: REMARK SMILES IDX 5 1 6 2 4 3 3 4 2 5 1 6 20 8 21 9 25 10 22 11 24 12 23 13
DOCKED: REMARK SMILES IDX 7 14 8 15 12 16 9 17 10 18 13 19 14 20 19 21 15 22 17 23
DOCKED: REMARK SMILES IDX 16 24 18 25 11 26
DOCKED: REMARK H PARENT 3 7 11 27
DOCKED: USER                              x       y       z     vdW  Elec       q    Type
DOCKED: USER                           _______ _______ _______ _____ _____    ______ ____
DOCKED: ROOT
DOCKED: ATOM      1  C   UNL     1     143.692  75.635 218.128 -0.09 -0.13    +0.242 C  
DOCKED: ATOM      2  O   UNL     1     144.419  75.571 217.103 -0.10 +0.16    -0.273 OA 
DOCKED: ENDROOT
DOCKED: BRANCH   1   3
DOCKED: ATOM      3  C   UNL     1     142.604  76.604 218.324 -0.20 -0.12    +0.216 C  
DOCKED: BRANCH   3   4
DOCKED: ATOM      4  N   UNL     1     142.745  77.363 219.544 -0.12 +0.26    -0.343 N  
DOCKED: ATOM      5  C   UNL     1     141.622  77.891 220.253 -0.19 -0.14    +0.251 C  
DOCKED: ATOM      6  O   UNL     1     140.488  77.644 219.731 -0.06 +0.10    -0.269 OA 
DOCKED: ATOM      7  H   UNL     1     143.715  77.514 219.896 -0.51 -0.19    +0.164 HD 
DOCKED: BRANCH   5   8
DOCKED: ATOM      8  C   UNL     1     141.768  78.651 221.477 -0.37 -0.02    +0.042 A  
DOCKED: ATOM      9  C   UNL     1     142.203  79.958 221.527 -0.40 -0.02    +0.034 A  
DOCKED: ATOM     10  C   UNL     1     141.450  78.020 222.665 -0.42 -0.02    +0.034 A  
DOCKED: ATOM     11  C   UNL     1     142.324  80.636 222.722 -0.51 -0.03    +0.112 A  
DOCKED: ATOM     12  C   UNL     1     141.585  78.735 223.845 -0.50 -0.03    +0.112 A  
DOCKED: ATOM     13  N   UNL     1     142.012  80.010 223.863 -0.35 +0.06    -0.265 NA 
DOCKED: ENDBRANCH   5   8
DOCKED: ENDBRANCH   3   4
DOCKED: ENDBRANCH   1   3
DOCKED: BRANCH   1  14
DOCKED: ATOM     14  N   UNL     1     143.947  74.699 219.168 -0.13 +0.14    -0.331 N  
DOCKED: ATOM     15  C   UNL     1     144.613  74.988 220.435 -0.10 -0.06    +0.123 C  
DOCKED: ATOM     16  C   UNL     1     143.625  73.285 219.234 -0.17 -0.03    +0.144 C  
DOCKED: ATOM     17  C   UNL     1     145.261  73.672 220.854 -0.57 -0.01    +0.056 C  
DOCKED: ATOM     18  C   UNL     1     144.963  72.743 219.697 -0.32 +0.01    +0.143 C  
DOCKED: BRANCH  16  19
DOCKED: ATOM     19  C   UNL     1     142.557  73.115 220.242 -0.23 +0.00    -0.021 A  
DOCKED: ATOM     20  C   UNL     1     142.428  71.895 220.897 -0.24 -0.00    +0.006 A  
DOCKED: ATOM     21  C   UNL     1     141.668  74.096 220.585 -0.25 -0.01    +0.026 A  
DOCKED: ATOM     22  C   UNL     1     141.434  71.697 221.855 -0.15 -0.00    +0.002 A  
DOCKED: ATOM     23  C   UNL     1     140.679  73.904 221.534 -0.29 -0.00    +0.041 A  
DOCKED: ATOM     24  C   UNL     1     140.548  72.708 222.180 -0.31 -0.00    +0.020 A  
DOCKED: ATOM     25  Cl  UNL     1     139.543  75.182 221.960 -0.37 +0.02    -0.084 Cl 
DOCKED: ENDBRANCH  16  19
DOCKED: BRANCH  18  26
DOCKED: ATOM     26  O   UNL     1     145.891  73.032 218.703 -0.72 -0.26    -0.391 OA 
DOCKED: ATOM     27  H   UNL     1     145.711  73.907 218.268 -0.34 -0.01    +0.211 HD 
DOCKED: ENDBRANCH  18  26
DOCKED: ENDBRANCH   1  14
DOCKED: TORSDOF 6
DOCKED: TER
DOCKED: ENDMDL
________________________________________________________________________________


    FINAL DOCKED STATE:
    ________________________


Run:   6 / 20
Time taken for this run:   0.025s

DOCKED: MODEL        6
DOCKED: USER    Run = 6
DOCKED: USER
DOCKED: USER    Estimated Free Energy of Binding    =  -6.48 kcal/mol  [=(1)+(2)+(3)-(4)]
DOCKED: USER
DOCKED: USER    (1) Final Intermolecular Energy     =  -8.27 kcal/mol
DOCKED: USER        vdW + Hbond + desolv Energy     =  -8.18 kcal/mol
DOCKED: USER        Electrostatic Energy            =  -0.09 kcal/mol
DOCKED: USER        Moving Ligand-Fixed Receptor    =  -8.27 kcal/mol
DOCKED: USER        Moving Ligand-Moving Receptor   =  +0.00 kcal/mol
DOCKED: USER    (2) Final Total Internal Energy     =  -1.84 kcal/mol
DOCKED: USER    (3) Torsional Free Energy           =  +1.79 kcal/mol
DOCKED: USER    (4) Unbound System's Energy         =  -1.84 kcal/mol
DOCKED: USER
DOCKED: USER
DOCKED: REMARK SMILES O=C(NCC(=O)N1CC[C@H](O)[C@H]1c1cccc(Cl)c1)c1ccncc1
DOCKED: REMARK SMILES IDX 5 1 6 2 4 3 3 4 2 5 1 6 20 8 21 9 25 10 22 11 24 12 23 13
DOCKED: REMARK SMILES IDX 7 14 8 15 12 16 9 17 10 18 13 19 14 20 19 21 15 22 17 23
DOCKED: REMARK SMILES IDX 16 24 18 25 11 26
DOCKED: REMARK H PARENT 3 7 11 27
DOCKED: USER                              x       y       z     vdW  Elec       q    Type
DOCKED: USER                           _______ _______ _______ _____ _____    ______ ____
DOCKED: ROOT
DOCKED: ATOM      1  C   UNL     1     138.713  75.685 222.085 -0.20 -0.06    +0.242 C  
DOCKED: ATOM      2  O   UNL     1     139.083  74.512 222.348 -0.56 +0.07    -0.273 OA 
DOCKED: ENDROOT
DOCKED: BRANCH   1   3
DOCKED: ATOM      3  C   UNL     1     137.350  76.199 222.290 -0.18 -0.05    +0.216 C  
DOCKED: BRANCH   3   4
DOCKED: ATOM      4  N   UNL     1     136.618  75.457 223.289 -0.11 +0.10    -0.343 N  
DOCKED: ATOM      5  C   UNL     1     135.469  75.989 223.950 -0.18 -0.04    +0.251 C  
DOCKED: ATOM      6  O   UNL     1     135.135  77.165 223.595 -0.12 +0.04    -0.269 OA 
DOCKED: ATOM      7  H   UNL     1     136.967  74.500 223.515 -0.40 -0.10    +0.164 HD 
DOCKED: BRANCH   5   8
DOCKED: ATOM      8  C   UNL     1     134.738  75.241 224.953 -0.33 -0.00    +0.042 A  
DOCKED: ATOM      9  C   UNL     1     133.912  75.815 225.895 -0.34 -0.00    +0.034 A  
DOCKED: ATOM     10  C   UNL     1     134.883  73.866 224.958 -0.29 -0.00    +0.034 A  
DOCKED: ATOM     11  C   UNL     1     133.240  75.054 226.829 -0.31 +0.01    +0.112 A  
DOCKED: ATOM     12  C   UNL     1     134.190  73.136 225.912 -0.24 +0.00    +0.112 A  
DOCKED: ATOM     13  N   UNL     1     133.392  73.724 226.820 -0.79 -0.03    -0.265 NA 
DOCKED: ENDBRANCH   5   8
DOCKED: ENDBRANCH   3   4
DOCKED: ENDBRANCH   1   3
DOCKED: BRANCH   1  14
DOCKED: ATOM     14  N   UNL     1     139.687  76.573 221.553 -0.12 +0.08    -0.331 N  
DOCKED: ATOM     15  C   UNL     1     139.538  77.385 220.348 -0.09 -0.03    +0.123 C  
DOCKED: ATOM     16  C   UNL     1     141.016  76.886 222.047 -0.28 -0.06    +0.144 C  
DOCKED: ATOM     17  C   UNL     1     140.956  77.574 219.817 -0.18 -0.02    +0.056 C  
DOCKED: ATOM     18  C   UNL     1     141.803  76.747 220.760 -0.10 -0.08    +0.143 C  
DOCKED: BRANCH  16  19
DOCKED: ATOM     19  C   UNL     1     140.990  78.274 222.556 -0.46 +0.01    -0.021 A  
DOCKED: ATOM     20  C   UNL     1     142.149  79.040 222.502 -0.52 -0.00    +0.006 A  
DOCKED: ATOM     21  C   UNL     1     139.880  78.871 223.087 -0.38 -0.01    +0.026 A  
DOCKED: ATOM     22  C   UNL     1     142.163  80.354 222.972 -0.61 -0.00    +0.002 A  
DOCKED: ATOM     23  C   UNL     1     139.888  80.173 223.555 -0.41 -0.01    +0.041 A  
DOCKED: ATOM     24  C   UNL     1     141.024  80.931 223.505 -0.49 -0.00    +0.020 A  
DOCKED: ATOM     25  Cl  UNL     1     138.447  80.923 224.237 -0.43 +0.01    -0.084 Cl 
DOCKED: ENDBRANCH  16  19
DOCKED: BRANCH  18  26
DOCKED: ATOM     26  O   UNL     1     141.687  75.425 220.346 -0.12 +0.15    -0.391 OA 
DOCKED: ATOM     27  H   UNL     1     140.965  74.945 220.830 +0.07 -0.05    +0.211 HD 
DOCKED: ENDBRANCH  18  26
DOCKED: ENDBRANCH   1  14
DOCKED: TORSDOF 6
DOCKED: TER
DOCKED: ENDMDL
________________________________________________________________________________


    FINAL DOCKED STATE:
    ________________________


Run:   7 / 20
Time taken for this run:   0.025s

DOCKED: MODEL        7
DOCKED: USER    Run = 7
DOCKED: USER
DOCKED: USER    Estimated Free Energy of Binding    =  -6.46 kcal/mol  [=(1)+(2)+(3)-(4)]
DOCKED: USER
DOCKED: USER    (1) Final Intermolecular Energy     =  -8.25 kcal/mol
DOCKED: USER        vdW + Hbond + desolv Energy     =  -8.19 kcal/mol
DOCKED: USER        Electrostatic Energy            =  -0.07 kcal/mol
DOCKED: USER        Moving Ligand-Fixed Receptor    =  -8.25 kcal/mol
DOCKED: USER        Moving Ligand-Moving Receptor   =  +0.00 kcal/mol
DOCKED: USER    (2) Final Total Internal Energy     =  -2.22 kcal/mol
DOCKED: USER    (3) Torsional Free Energy           =  +1.79 kcal/mol
DOCKED: USER    (4) Unbound System's Energy         =  -2.22 kcal/mol
DOCKED: USER
DOCKED: USER
DOCKED: REMARK SMILES O=C(NCC(=O)N1CC[C@H](O)[C@H]1c1cccc(Cl)c1)c1ccncc1
DOCKED: REMARK SMILES IDX 5 1 6 2 4 3 3 4 2 5 1 6 20 8 21 9 25 10 22 11 24 12 23 13
DOCKED: REMARK SMILES IDX 7 14 8 15 12 16 9 17 10 18 13 19 14 20 19 21 15 22 17 23
DOCKED: REMARK SMILES IDX 16 24 18 25 11 26
DOCKED: REMARK H PARENT 3 7 11 27
DOCKED: USER                              x       y       z     vdW  Elec       q    Type
DOCKED: USER                           _______ _______ _______ _____ _____    ______ ____
DOCKED: ROOT
DOCKED: ATOM      1  C   UNL     1     138.700  72.677 222.322 -0.09 -0.07    +0.242 C  
DOCKED: ATOM      2  O   UNL     1     139.726  73.404 222.340 -0.74 +0.04    -0.273 OA 
DOCKED: ENDROOT
DOCKED: BRANCH   1   3
DOCKED: ATOM      3  C   UNL     1     137.354  73.138 221.950 -0.10 -0.06    +0.216 C  
DOCKED: BRANCH   3   4
DOCKED: ATOM      4  N   UNL     1     136.567  73.540 223.091 +0.02 +0.13    -0.343 N  
DOCKED: ATOM      5  C   UNL     1     135.517  72.730 223.623 -0.12 -0.05    +0.251 C  
DOCKED: ATOM      6  O   UNL     1     135.326  71.626 223.018 -0.05 +0.04    -0.269 OA 
DOCKED: ATOM      7  H   UNL     1     136.796  74.463 223.521 -0.38 -0.09    +0.164 HD 
DOCKED: BRANCH   5   8
DOCKED: ATOM      8  C   UNL     1     134.729  73.138 224.768 -0.24 -0.00    +0.042 A  
DOCKED: ATOM      9  C   UNL     1     134.055  72.263 225.593 -0.26 -0.00    +0.034 A  
DOCKED: ATOM     10  C   UNL     1     134.653  74.490 225.044 -0.33 -0.00    +0.034 A  
DOCKED: ATOM     11  C   UNL     1     133.318  72.706 226.671 -0.33 -0.00    +0.112 A  
DOCKED: ATOM     12  C   UNL     1     133.903  74.897 226.136 -0.32 +0.00    +0.112 A  
DOCKED: ATOM     13  N   UNL     1     133.255  74.020 226.924 -0.78 -0.03    -0.265 NA 
DOCKED: ENDBRANCH   5   8
DOCKED: ENDBRANCH   3   4
DOCKED: ENDBRANCH   1   3
DOCKED: BRANCH   1  14
DOCKED: ATOM     14  N   UNL     1     138.860  71.313 222.687 -0.10 +0.07    -0.331 N  
DOCKED: ATOM     15  C   UNL     1     139.890  70.407 222.187 -0.10 -0.02    +0.123 C  
DOCKED: ATOM     16  C   UNL     1     138.079  70.508 223.610 -0.21 -0.03    +0.144 C  
DOCKED: ATOM     17  C   UNL     1     139.272  69.015 222.271 -0.13 -0.01    +0.056 C  
DOCKED: ATOM     18  C   UNL     1     137.862  69.278 222.751 -0.15 -0.02    +0.143 C  
DOCKED: BRANCH  16  19
DOCKED: ATOM     19  C   UNL     1     138.921  70.239 224.795 -0.35 +0.00    -0.021 A  
DOCKED: ATOM     20  C   UNL     1     138.955  68.955 225.328 -0.42 -0.00    +0.006 A  
DOCKED: ATOM     21  C   UNL     1     139.687  71.186 225.417 -0.39 -0.00    +0.026 A  
DOCKED: ATOM     22  C   UNL     1     139.739  68.663 226.444 -0.57 -0.00    +0.002 A  
DOCKED: ATOM     23  C   UNL     1     140.466  70.901 226.525 -0.59 -0.01    +0.041 A  
DOCKED: ATOM     24  C   UNL     1     140.504  69.641 227.053 -0.56 -0.00    +0.020 A  
DOCKED: ATOM     25  Cl  UNL     1     141.445  72.136 227.312 -0.89 +0.02    -0.084 Cl 
DOCKED: ENDBRANCH  16  19
DOCKED: BRANCH  18  26
DOCKED: ATOM     26  O   UNL     1     137.129  69.676 221.639 -0.01 +0.06    -0.391 OA 
DOCKED: ATOM     27  H   UNL     1     136.386  70.289 221.881 +0.03 -0.03    +0.211 HD 
DOCKED: ENDBRANCH  18  26
DOCKED: ENDBRANCH   1  14
DOCKED: TORSDOF 6
DOCKED: TER
DOCKED: ENDMDL
________________________________________________________________________________


    FINAL DOCKED STATE:
    ________________________


Run:   8 / 20
Time taken for this run:   0.025s

DOCKED: MODEL        8
DOCKED: USER    Run = 8
DOCKED: USER
DOCKED: USER    Estimated Free Energy of Binding    =  -6.63 kcal/mol  [=(1)+(2)+(3)-(4)]
DOCKED: USER
DOCKED: USER    (1) Final Intermolecular Energy     =  -8.42 kcal/mol
DOCKED: USER        vdW + Hbond + desolv Energy     =  -8.31 kcal/mol
DOCKED: USER        Electrostatic Energy            =  -0.11 kcal/mol
DOCKED: USER        Moving Ligand-Fixed Receptor    =  -8.42 kcal/mol
DOCKED: USER        Moving Ligand-Moving Receptor   =  +0.00 kcal/mol
DOCKED: USER    (2) Final Total Internal Energy     =  -1.75 kcal/mol
DOCKED: USER    (3) Torsional Free Energy           =  +1.79 kcal/mol
DOCKED: USER    (4) Unbound System's Energy         =  -1.75 kcal/mol
DOCKED: USER
DOCKED: USER
DOCKED: REMARK SMILES O=C(NCC(=O)N1CC[C@H](O)[C@H]1c1cccc(Cl)c1)c1ccncc1
DOCKED: REMARK SMILES IDX 5 1 6 2 4 3 3 4 2 5 1 6 20 8 21 9 25 10 22 11 24 12 23 13
DOCKED: REMARK SMILES IDX 7 14 8 15 12 16 9 17 10 18 13 19 14 20 19 21 15 22 17 23
DOCKED: REMARK SMILES IDX 16 24 18 25 11 26
DOCKED: REMARK H PARENT 3 7 11 27
DOCKED: USER                              x       y       z     vdW  Elec       q    Type
DOCKED: USER                           _______ _______ _______ _____ _____    ______ ____
DOCKED: ROOT
DOCKED: ATOM      1  C   UNL     1     138.812  75.687 222.021 -0.20 -0.06    +0.242 C  
DOCKED: ATOM      2  O   UNL     1     139.245  74.551 222.347 -0.67 +0.06    -0.273 OA 
DOCKED: ENDROOT
DOCKED: BRANCH   1   3
DOCKED: ATOM      3  C   UNL     1     137.409  76.112 222.137 -0.17 -0.05    +0.216 C  
DOCKED: BRANCH   3   4
DOCKED: ATOM      4  N   UNL     1     136.693  75.399 223.167 -0.10 +0.11    -0.343 N  
DOCKED: ATOM      5  C   UNL     1     135.552  75.949 223.829 -0.18 -0.04    +0.251 C  
DOCKED: ATOM      6  O   UNL     1     135.213  77.114 223.445 -0.12 +0.04    -0.269 OA 
DOCKED: ATOM      7  H   UNL     1     137.046  74.449 223.415 -0.41 -0.10    +0.164 HD 
DOCKED: BRANCH   5   8
DOCKED: ATOM      8  C   UNL     1     134.836  75.229 224.863 -0.33 -0.00    +0.042 A  
DOCKED: ATOM      9  C   UNL     1     134.793  73.855 224.959 -0.29 -0.00    +0.034 A  
DOCKED: ATOM     10  C   UNL     1     134.157  75.975 225.809 -0.34 -0.00    +0.034 A  
DOCKED: ATOM     11  C   UNL     1     134.094  73.221 225.965 -0.26 +0.00    +0.112 A  
DOCKED: ATOM     12  C   UNL     1     133.467  75.301 226.804 -0.31 +0.01    +0.112 A  
DOCKED: ATOM     13  N   UNL     1     133.442  73.958 226.873 -0.77 -0.04    -0.265 NA 
DOCKED: ENDBRANCH   5   8
DOCKED: ENDBRANCH   3   4
DOCKED: ENDBRANCH   1   3
DOCKED: BRANCH   1  14
DOCKED: ATOM     14  N   UNL     1     139.753  76.620 221.507 -0.12 +0.08    -0.331 N  
DOCKED: ATOM     15  C   UNL     1     139.556  77.480 220.343 -0.09 -0.03    +0.123 C  
DOCKED: ATOM     16  C   UNL     1     141.085  76.944 221.984 -0.27 -0.06    +0.144 C  
DOCKED: ATOM     17  C   UNL     1     140.956  77.726 219.789 -0.18 -0.02    +0.056 C  
DOCKED: ATOM     18  C   UNL     1     141.845  76.880 220.674 -0.12 -0.08    +0.143 C  
DOCKED: BRANCH  16  19
DOCKED: ATOM     19  C   UNL     1     141.038  78.308 222.554 -0.46 +0.01    -0.021 A  
DOCKED: ATOM     20  C   UNL     1     142.201  79.068 222.595 -0.54 -0.00    +0.006 A  
DOCKED: ATOM     21  C   UNL     1     139.905  78.887 223.055 -0.38 -0.01    +0.026 A  
DOCKED: ATOM     22  C   UNL     1     142.196  80.359 223.124 -0.63 -0.00    +0.002 A  
DOCKED: ATOM     23  C   UNL     1     139.894  80.166 223.582 -0.41 -0.01    +0.041 A  
DOCKED: ATOM     24  C   UNL     1     141.034  80.918 223.624 -0.48 -0.00    +0.020 A  
DOCKED: ATOM     25  Cl  UNL     1     138.423  80.893 224.222 -0.45 +0.01    -0.084 Cl 
DOCKED: ENDBRANCH  16  19
DOCKED: BRANCH  18  26
DOCKED: ATOM     26  O   UNL     1     141.750  75.575 220.205 -0.11 +0.16    -0.391 OA 
DOCKED: ATOM     27  H   UNL     1     141.058  75.054 220.691 +0.07 -0.06    +0.211 HD 
DOCKED: ENDBRANCH  18  26
DOCKED: ENDBRANCH   1  14
DOCKED: TORSDOF 6
DOCKED: TER
DOCKED: ENDMDL
________________________________________________________________________________


    FINAL DOCKED STATE:
    ________________________


Run:   9 / 20
Time taken for this run:   0.025s

DOCKED: MODEL        9
DOCKED: USER    Run = 9
DOCKED: USER
DOCKED: USER    Estimated Free Energy of Binding    =  -6.58 kcal/mol  [=(1)+(2)+(3)-(4)]
DOCKED: USER
DOCKED: USER    (1) Final Intermolecular Energy     =  -8.37 kcal/mol
DOCKED: USER        vdW + Hbond + desolv Energy     =  -8.04 kcal/mol
DOCKED: USER        Electrostatic Energy            =  -0.33 kcal/mol
DOCKED: USER        Moving Ligand-Fixed Receptor    =  -8.37 kcal/mol
DOCKED: USER        Moving Ligand-Moving Receptor   =  +0.00 kcal/mol
DOCKED: USER    (2) Final Total Internal Energy     =  -2.10 kcal/mol
DOCKED: USER    (3) Torsional Free Energy           =  +1.79 kcal/mol
DOCKED: USER    (4) Unbound System's Energy         =  -2.10 kcal/mol
DOCKED: USER
DOCKED: USER
DOCKED: REMARK SMILES O=C(NCC(=O)N1CC[C@H](O)[C@H]1c1cccc(Cl)c1)c1ccncc1
DOCKED: REMARK SMILES IDX 5 1 6 2 4 3 3 4 2 5 1 6 20 8 21 9 25 10 22 11 24 12 23 13
DOCKED: REMARK SMILES IDX 7 14 8 15 12 16 9 17 10 18 13 19 14 20 19 21 15 22 17 23
DOCKED: REMARK SMILES IDX 16 24 18 25 11 26
DOCKED: REMARK H PARENT 3 7 11 27
DOCKED: USER                              x       y       z     vdW  Elec       q    Type
DOCKED: USER                           _______ _______ _______ _____ _____    ______ ____
DOCKED: ROOT
DOCKED: ATOM      1  C   UNL     1     143.695  75.657 218.133 -0.09 -0.13    +0.242 C  
DOCKED: ATOM      2  O   UNL     1     144.398  75.573 217.093 -0.11 +0.16    -0.273 OA 
DOCKED: ENDROOT
DOCKED: BRANCH   1   3
DOCKED: ATOM      3  C   UNL     1     142.630  76.649 218.346 -0.20 -0.12    +0.216 C  
DOCKED: BRANCH   3   4
DOCKED: ATOM      4  N   UNL     1     142.746  77.328 219.615 -0.12 +0.26    -0.343 N  
DOCKED: ATOM      5  C   UNL     1     141.655  78.034 220.209 -0.18 -0.14    +0.251 C  
DOCKED: ATOM      6  O   UNL     1     140.573  78.022 219.539 -0.06 +0.11    -0.269 OA 
DOCKED: ATOM      7  H   UNL     1     143.673  77.283 220.091 -0.51 -0.18    +0.164 HD 
DOCKED: BRANCH   5   8
DOCKED: ATOM      8  C   UNL     1     141.776  78.715 221.482 -0.38 -0.02    +0.042 A  
DOCKED: ATOM      9  C   UNL     1     142.196  80.019 221.623 -0.43 -0.02    +0.034 A  
DOCKED: ATOM     10  C   UNL     1     141.446  78.005 222.621 -0.41 -0.02    +0.034 A  
DOCKED: ATOM     11  C   UNL     1     142.294  80.619 222.861 -0.52 -0.03    +0.112 A  
DOCKED: ATOM     12  C   UNL     1     141.557  78.642 223.848 -0.49 -0.03    +0.112 A  
DOCKED: ATOM     13  N   UNL     1     141.971  79.917 223.955 -0.33 +0.06    -0.265 NA 
DOCKED: ENDBRANCH   5   8
DOCKED: ENDBRANCH   3   4
DOCKED: ENDBRANCH   1   3
DOCKED: BRANCH   1  14
DOCKED: ATOM     14  N   UNL     1     143.955  74.723 219.173 -0.13 +0.14    -0.331 N  
DOCKED: ATOM     15  C   UNL     1     144.610  75.017 220.444 -0.07 -0.07    +0.123 C  
DOCKED: ATOM     16  C   UNL     1     143.649  73.305 219.235 -0.18 -0.03    +0.144 C  
DOCKED: ATOM     17  C   UNL     1     145.271  73.708 220.864 -0.57 -0.01    +0.056 C  
DOCKED: ATOM     18  C   UNL     1     144.990  72.778 219.704 -0.32 +0.01    +0.143 C  
DOCKED: BRANCH  16  19
DOCKED: ATOM     19  C   UNL     1     142.578  73.121 220.237 -0.23 +0.00    -0.021 A  
DOCKED: ATOM     20  C   UNL     1     142.449  71.894 220.878 -0.25 -0.00    +0.006 A  
DOCKED: ATOM     21  C   UNL     1     141.684  74.096 220.587 -0.25 -0.01    +0.026 A  
DOCKED: ATOM     22  C   UNL     1     141.452  71.683 221.830 -0.15 -0.00    +0.002 A  
DOCKED: ATOM     23  C   UNL     1     140.692  73.891 221.530 -0.29 -0.00    +0.041 A  
DOCKED: ATOM     24  C   UNL     1     140.562  72.688 222.163 -0.31 -0.00    +0.020 A  
DOCKED: ATOM     25  Cl  UNL     1     139.551  75.161 221.964 -0.37 +0.01    -0.084 Cl 
DOCKED: ENDBRANCH  16  19
DOCKED: BRANCH  18  26
DOCKED: ATOM     26  O   UNL     1     145.920  73.079 218.716 -0.72 -0.25    -0.391 OA 
DOCKED: ATOM     27  H   UNL     1     145.728  73.948 218.275 -0.37 -0.02    +0.211 HD 
DOCKED: ENDBRANCH  18  26
DOCKED: ENDBRANCH   1  14
DOCKED: TORSDOF 6
DOCKED: TER
DOCKED: ENDMDL
________________________________________________________________________________


    FINAL DOCKED STATE:
    ________________________


Run:   10 / 20
Time taken for this run:   0.025s

DOCKED: MODEL        10
DOCKED: USER    Run = 10
DOCKED: USER
DOCKED: USER    Estimated Free Energy of Binding    =  -6.55 kcal/mol  [=(1)+(2)+(3)-(4)]
DOCKED: USER
DOCKED: USER    (1) Final Intermolecular Energy     =  -8.34 kcal/mol
DOCKED: USER        vdW + Hbond + desolv Energy     =  -8.01 kcal/mol
DOCKED: USER        Electrostatic Energy            =  -0.33 kcal/mol
DOCKED: USER        Moving Ligand-Fixed Receptor    =  -8.34 kcal/mol
DOCKED: USER        Moving Ligand-Moving Receptor   =  +0.00 kcal/mol
DOCKED: USER    (2) Final Total Internal Energy     =  -2.15 kcal/mol
DOCKED: USER    (3) Torsional Free Energy           =  +1.79 kcal/mol
DOCKED: USER    (4) Unbound System's Energy         =  -2.15 kcal/mol
DOCKED: USER
DOCKED: USER
DOCKED: REMARK SMILES O=C(NCC(=O)N1CC[C@H](O)[C@H]1c1cccc(Cl)c1)c1ccncc1
DOCKED: REMARK SMILES IDX 5 1 6 2 4 3 3 4 2 5 1 6 20 8 21 9 25 10 22 11 24 12 23 13
DOCKED: REMARK SMILES IDX 7 14 8 15 12 16 9 17 10 18 13 19 14 20 19 21 15 22 17 23
DOCKED: REMARK SMILES IDX 16 24 18 25 11 26
DOCKED: REMARK H PARENT 3 7 11 27
DOCKED: USER                              x       y       z     vdW  Elec       q    Type
DOCKED: USER                           _______ _______ _______ _____ _____    ______ ____
DOCKED: ROOT
DOCKED: ATOM      1  C   UNL     1     143.690  75.654 218.135 -0.09 -0.13    +0.242 C  
DOCKED: ATOM      2  O   UNL     1     144.409  75.576 217.106 -0.10 +0.16    -0.273 OA 
DOCKED: ENDROOT
DOCKED: BRANCH   1   3
DOCKED: ATOM      3  C   UNL     1     142.618  76.641 218.333 -0.20 -0.12    +0.216 C  
DOCKED: BRANCH   3   4
DOCKED: ATOM      4  N   UNL     1     142.736  77.348 219.586 -0.12 +0.26    -0.343 N  
DOCKED: ATOM      5  C   UNL     1     141.608  77.914 220.256 -0.19 -0.14    +0.251 C  
DOCKED: ATOM      6  O   UNL     1     140.490  77.750 219.669 -0.06 +0.10    -0.269 OA 
DOCKED: ATOM      7  H   UNL     1     143.693  77.433 219.991 -0.51 -0.19    +0.164 HD 
DOCKED: BRANCH   5   8
DOCKED: ATOM      8  C   UNL     1     141.731  78.624 221.513 -0.37 -0.02    +0.042 A  
DOCKED: ATOM      9  C   UNL     1     141.440  78.073 222.743 -0.44 -0.01    +0.034 A  
DOCKED: ATOM     10  C   UNL     1     142.168  79.934 221.468 -0.39 -0.02    +0.034 A  
DOCKED: ATOM     11  C   UNL     1     141.574  78.796 223.910 -0.49 -0.03    +0.112 A  
DOCKED: ATOM     12  C   UNL     1     142.291  80.627 222.663 -0.50 -0.03    +0.112 A  
DOCKED: ATOM     13  N   UNL     1     141.999  80.064 223.849 -0.35 +0.06    -0.265 NA 
DOCKED: ENDBRANCH   5   8
DOCKED: ENDBRANCH   3   4
DOCKED: ENDBRANCH   1   3
DOCKED: BRANCH   1  14
DOCKED: ATOM     14  N   UNL     1     143.936  74.718 219.176 -0.13 +0.14    -0.331 N  
DOCKED: ATOM     15  C   UNL     1     144.616  74.998 220.437 -0.09 -0.06    +0.123 C  
DOCKED: ATOM     16  C   UNL     1     143.588  73.309 219.250 -0.17 -0.03    +0.144 C  
DOCKED: ATOM     17  C   UNL     1     145.243  73.671 220.854 -0.57 -0.01    +0.056 C  
DOCKED: ATOM     18  C   UNL     1     144.918  72.744 219.703 -0.32 +0.01    +0.143 C  
DOCKED: BRANCH  16  19
DOCKED: ATOM     19  C   UNL     1     142.525  73.163 220.267 -0.24 +0.00    -0.021 A  
DOCKED: ATOM     20  C   UNL     1     142.393  71.955 220.943 -0.24 -0.00    +0.006 A  
DOCKED: ATOM     21  C   UNL     1     141.644  74.155 220.598 -0.25 -0.01    +0.026 A  
DOCKED: ATOM     22  C   UNL     1     141.403  71.779 221.910 -0.18 -0.00    +0.002 A  
DOCKED: ATOM     23  C   UNL     1     140.660  73.985 221.556 -0.29 -0.00    +0.041 A  
DOCKED: ATOM     24  C   UNL     1     140.525  72.801 222.224 -0.30 -0.00    +0.020 A  
DOCKED: ATOM     25  Cl  UNL     1     139.534  75.277 221.968 -0.38 +0.02    -0.084 Cl 
DOCKED: ENDBRANCH  16  19
DOCKED: BRANCH  18  26
DOCKED: ATOM     26  O   UNL     1     145.844  73.013 218.702 -0.70 -0.25    -0.391 OA 
DOCKED: ATOM     27  H   UNL     1     145.685  73.895 218.273 -0.33 -0.01    +0.211 HD 
DOCKED: ENDBRANCH  18  26
DOCKED: ENDBRANCH   1  14
DOCKED: TORSDOF 6
DOCKED: TER
DOCKED: ENDMDL
________________________________________________________________________________


    FINAL DOCKED STATE:
    ________________________


Run:   11 / 20
Time taken for this run:   0.025s

DOCKED: MODEL        11
DOCKED: USER    Run = 11
DOCKED: USER
DOCKED: USER    Estimated Free Energy of Binding    =  -7.11 kcal/mol  [=(1)+(2)+(3)-(4)]
DOCKED: USER
DOCKED: USER    (1) Final Intermolecular Energy     =  -8.90 kcal/mol
DOCKED: USER        vdW + Hbond + desolv Energy     =  -8.64 kcal/mol
DOCKED: USER        Electrostatic Energy            =  -0.26 kcal/mol
DOCKED: USER        Moving Ligand-Fixed Receptor    =  -8.90 kcal/mol
DOCKED: USER        Moving Ligand-Moving Receptor   =  +0.00 kcal/mol
DOCKED: USER    (2) Final Total Internal Energy     =  -1.15 kcal/mol
DOCKED: USER    (3) Torsional Free Energy           =  +1.79 kcal/mol
DOCKED: USER    (4) Unbound System's Energy         =  -1.15 kcal/mol
DOCKED: USER
DOCKED: USER
DOCKED: REMARK SMILES O=C(NCC(=O)N1CC[C@H](O)[C@H]1c1cccc(Cl)c1)c1ccncc1
DOCKED: REMARK SMILES IDX 5 1 6 2 4 3 3 4 2 5 1 6 20 8 21 9 25 10 22 11 24 12 23 13
DOCKED: REMARK SMILES IDX 7 14 8 15 12 16 9 17 10 18 13 19 14 20 19 21 15 22 17 23
DOCKED: REMARK SMILES IDX 16 24 18 25 11 26
DOCKED: REMARK H PARENT 3 7 11 27
DOCKED: USER                              x       y       z     vdW  Elec       q    Type
DOCKED: USER                           _______ _______ _______ _____ _____    ______ ____
DOCKED: ROOT
DOCKED: ATOM      1  C   UNL     1     141.831  78.794 220.154 -0.16 -0.15    +0.242 C  
DOCKED: ATOM      2  O   UNL     1     142.239  79.337 219.095 -0.22 +0.19    -0.273 OA 
DOCKED: ENDROOT
DOCKED: BRANCH   1   3
DOCKED: ATOM      3  C   UNL     1     141.635  77.348 220.332 -0.20 -0.12    +0.216 C  
DOCKED: BRANCH   3   4
DOCKED: ATOM      4  N   UNL     1     142.831  76.585 220.065 -0.15 +0.25    -0.343 N  
DOCKED: ATOM      5  C   UNL     1     142.867  75.160 220.152 -0.21 -0.12    +0.251 C  
DOCKED: ATOM      6  O   UNL     1     141.767  74.609 220.483 -0.17 +0.08    -0.269 OA 
DOCKED: ATOM      7  H   UNL     1     143.684  77.124 219.801 -0.46 -0.16    +0.164 HD 
DOCKED: BRANCH   5   8
DOCKED: ATOM      8  C   UNL     1     144.070  74.398 219.884 -0.39 -0.02    +0.042 A  
DOCKED: ATOM      9  C   UNL     1     145.074  74.191 220.804 -0.51 -0.01    +0.034 A  
DOCKED: ATOM     10  C   UNL     1     144.212  73.849 218.623 -0.21 -0.01    +0.034 A  
DOCKED: ATOM     11  C   UNL     1     146.201  73.458 220.495 -0.56 +0.01    +0.112 A  
DOCKED: ATOM     12  C   UNL     1     145.358  73.118 218.350 -0.20 +0.03    +0.112 A  
DOCKED: ATOM     13  N   UNL     1     146.322  72.932 219.269 -0.67 -0.24    -0.265 NA 
DOCKED: ENDBRANCH   5   8
DOCKED: ENDBRANCH   3   4
DOCKED: ENDBRANCH   1   3
DOCKED: BRANCH   1  14
DOCKED: ATOM     14  N   UNL     1     141.542  79.647 221.254 -0.15 +0.14    -0.331 N  
DOCKED: ATOM     15  C   UNL     1     141.361  81.095 221.191 -0.32 -0.04    +0.123 C  
DOCKED: ATOM     16  C   UNL     1     141.358  79.314 222.656 -0.42 -0.05    +0.144 C  
DOCKED: ATOM     17  C   UNL     1     141.774  81.609 222.566 -0.44 -0.01    +0.056 C  
DOCKED: ATOM     18  C   UNL     1     142.251  80.365 223.284 -0.54 -0.04    +0.143 C  
DOCKED: BRANCH  16  19
DOCKED: ATOM     19  C   UNL     1     139.928  79.508 222.979 -0.38 +0.00    -0.021 A  
DOCKED: ATOM     20  C   UNL     1     139.578  80.316 224.055 -0.30 -0.00    +0.006 A  
DOCKED: ATOM     21  C   UNL     1     138.903  78.935 222.278 -0.24 -0.00    +0.026 A  
DOCKED: ATOM     22  C   UNL     1     138.240  80.523 224.390 -0.40 -0.00    +0.002 A  
DOCKED: ATOM     23  C   UNL     1     137.574  79.137 222.607 -0.20 -0.01    +0.041 A  
DOCKED: ATOM     24  C   UNL     1     137.224  79.930 223.662 -0.24 -0.00    +0.020 A  
DOCKED: ATOM     25  Cl  UNL     1     136.268  78.389 221.690 -0.11 +0.01    -0.084 Cl 
DOCKED: ENDBRANCH  16  19
DOCKED: BRANCH  18  26
DOCKED: ATOM     26  O   UNL     1     143.547  80.122 222.844 -0.36 +0.15    -0.391 OA 
DOCKED: ATOM     27  H   UNL     1     143.562  79.628 221.982 -0.45 -0.16    +0.211 HD 
DOCKED: ENDBRANCH  18  26
DOCKED: ENDBRANCH   1  14
DOCKED: TORSDOF 6
DOCKED: TER
DOCKED: ENDMDL
________________________________________________________________________________


    FINAL DOCKED STATE:
    ________________________


Run:   12 / 20
Time taken for this run:   0.025s

DOCKED: MODEL        12
DOCKED: USER    Run = 12
DOCKED: USER
DOCKED: USER    Estimated Free Energy of Binding    =  -6.20 kcal/mol  [=(1)+(2)+(3)-(4)]
DOCKED: USER
DOCKED: USER    (1) Final Intermolecular Energy     =  -7.99 kcal/mol
DOCKED: USER        vdW + Hbond + desolv Energy     =  -7.91 kcal/mol
DOCKED: USER        Electrostatic Energy            =  -0.08 kcal/mol
DOCKED: USER        Moving Ligand-Fixed Receptor    =  -7.99 kcal/mol
DOCKED: USER        Moving Ligand-Moving Receptor   =  +0.00 kcal/mol
DOCKED: USER    (2) Final Total Internal Energy     =  -1.94 kcal/mol
DOCKED: USER    (3) Torsional Free Energy           =  +1.79 kcal/mol
DOCKED: USER    (4) Unbound System's Energy         =  -1.94 kcal/mol
DOCKED: USER
DOCKED: USER
DOCKED: REMARK SMILES O=C(NCC(=O)N1CC[C@H](O)[C@H]1c1cccc(Cl)c1)c1ccncc1
DOCKED: REMARK SMILES IDX 5 1 6 2 4 3 3 4 2 5 1 6 20 8 21 9 25 10 22 11 24 12 23 13
DOCKED: REMARK SMILES IDX 7 14 8 15 12 16 9 17 10 18 13 19 14 20 19 21 15 22 17 23
DOCKED: REMARK SMILES IDX 16 24 18 25 11 26
DOCKED: REMARK H PARENT 3 7 11 27
DOCKED: USER                              x       y       z     vdW  Elec       q    Type
DOCKED: USER                           _______ _______ _______ _____ _____    ______ ____
DOCKED: ROOT
DOCKED: ATOM      1  C   UNL     1     137.420  77.772 221.551 -0.08 -0.04    +0.242 C  
DOCKED: ATOM      2  O   UNL     1     136.980  78.896 221.905 -0.06 +0.04    -0.273 OA 
DOCKED: ENDROOT
DOCKED: BRANCH   1   3
DOCKED: ATOM      3  C   UNL     1     136.583  76.644 221.115 -0.05 -0.04    +0.216 C  
DOCKED: BRANCH   3   4
DOCKED: ATOM      4  N   UNL     1     135.717  76.154 222.161 -0.04 +0.06    -0.343 N  
DOCKED: ATOM      5  C   UNL     1     136.198  75.836 223.468 -0.18 -0.06    +0.251 C  
DOCKED: ATOM      6  O   UNL     1     137.446  76.016 223.645 -0.10 +0.08    -0.269 OA 
DOCKED: ATOM      7  H   UNL     1     134.709  76.039 221.922 +0.03 -0.03    +0.164 HD 
DOCKED: BRANCH   5   8
DOCKED: ATOM      8  C   UNL     1     135.326  75.344 224.515 -0.33 -0.01    +0.042 A  
DOCKED: ATOM      9  C   UNL     1     134.650  76.154 225.402 -0.25 -0.00    +0.034 A  
DOCKED: ATOM     10  C   UNL     1     135.166  73.975 224.624 -0.28 -0.01    +0.034 A  
DOCKED: ATOM     11  C   UNL     1     133.832  75.632 226.381 -0.35 -0.00    +0.112 A  
DOCKED: ATOM     12  C   UNL     1     134.334  73.488 225.621 -0.26 +0.00    +0.112 A  
DOCKED: ATOM     13  N   UNL     1     133.688  74.303 226.473 -0.78 -0.03    -0.265 NA 
DOCKED: ENDBRANCH   5   8
DOCKED: ENDBRANCH   3   4
DOCKED: ENDBRANCH   1   3
DOCKED: BRANCH   1  14
DOCKED: ATOM     14  N   UNL     1     138.829  77.585 221.578 -0.07 +0.07    -0.331 N  
DOCKED: ATOM     15  C   UNL     1     139.695  77.433 220.412 -0.10 -0.04    +0.123 C  
DOCKED: ATOM     16  C   UNL     1     139.727  77.504 222.716 -0.21 -0.03    +0.144 C  
DOCKED: ATOM     17  C   UNL     1     140.875  76.597 220.898 -0.27 -0.02    +0.056 C  
DOCKED: ATOM     18  C   UNL     1     140.514  76.268 222.330 -0.28 -0.03    +0.143 C  
DOCKED: BRANCH  16  19
DOCKED: ATOM     19  C   UNL     1     140.553  78.730 222.725 -0.42 +0.01    -0.021 A  
DOCKED: ATOM     20  C   UNL     1     141.815  78.695 223.306 -0.59 -0.00    +0.006 A  
DOCKED: ATOM     21  C   UNL     1     140.153  79.923 222.189 -0.29 -0.01    +0.026 A  
DOCKED: ATOM     22  C   UNL     1     142.624  79.832 223.332 -0.64 -0.00    +0.002 A  
DOCKED: ATOM     23  C   UNL     1     140.950  81.054 222.214 -0.38 -0.01    +0.041 A  
DOCKED: ATOM     24  C   UNL     1     142.192  81.025 222.782 -0.55 -0.00    +0.020 A  
DOCKED: ATOM     25  Cl  UNL     1     140.415  82.581 221.518 -0.35 +0.01    -0.084 Cl 
DOCKED: ENDBRANCH  16  19
DOCKED: BRANCH  18  26
DOCKED: ATOM     26  O   UNL     1     139.617  75.207 222.281 -0.56 +0.06    -0.391 OA 
DOCKED: ATOM     27  H   UNL     1     139.065  75.147 223.104 -0.47 -0.06    +0.211 HD 
DOCKED: ENDBRANCH  18  26
DOCKED: ENDBRANCH   1  14
DOCKED: TORSDOF 6
DOCKED: TER
DOCKED: ENDMDL
________________________________________________________________________________


    FINAL DOCKED STATE:
    ________________________


Run:   13 / 20
Time taken for this run:   0.025s

DOCKED: MODEL        13
DOCKED: USER    Run = 13
DOCKED: USER
DOCKED: USER    Estimated Free Energy of Binding    =  -6.43 kcal/mol  [=(1)+(2)+(3)-(4)]
DOCKED: USER
DOCKED: USER    (1) Final Intermolecular Energy     =  -8.22 kcal/mol
DOCKED: USER        vdW + Hbond + desolv Energy     =  -8.16 kcal/mol
DOCKED: USER        Electrostatic Energy            =  -0.06 kcal/mol
DOCKED: USER        Moving Ligand-Fixed Receptor    =  -8.22 kcal/mol
DOCKED: USER        Moving Ligand-Moving Receptor   =  +0.00 kcal/mol
DOCKED: USER    (2) Final Total Internal Energy     =  -2.22 kcal/mol
DOCKED: USER    (3) Torsional Free Energy           =  +1.79 kcal/mol
DOCKED: USER    (4) Unbound System's Energy         =  -2.22 kcal/mol
DOCKED: USER
DOCKED: USER
DOCKED: REMARK SMILES O=C(NCC(=O)N1CC[C@H](O)[C@H]1c1cccc(Cl)c1)c1ccncc1
DOCKED: REMARK SMILES IDX 5 1 6 2 4 3 3 4 2 5 1 6 20 8 21 9 25 10 22 11 24 12 23 13
DOCKED: REMARK SMILES IDX 7 14 8 15 12 16 9 17 10 18 13 19 14 20 19 21 15 22 17 23
DOCKED: REMARK SMILES IDX 16 24 18 25 11 26
DOCKED: REMARK H PARENT 3 7 11 27
DOCKED: USER                              x       y       z     vdW  Elec       q    Type
DOCKED: USER                           _______ _______ _______ _____ _____    ______ ____
DOCKED: ROOT
DOCKED: ATOM      1  C   UNL     1     138.711  72.662 222.349 -0.08 -0.07    +0.242 C  
DOCKED: ATOM      2  O   UNL     1     139.718  73.406 222.236 -0.67 +0.04    -0.273 OA 
DOCKED: ENDROOT
DOCKED: BRANCH   1   3
DOCKED: ATOM      3  C   UNL     1     137.343  73.040 221.963 -0.10 -0.06    +0.216 C  
DOCKED: BRANCH   3   4
DOCKED: ATOM      4  N   UNL     1     136.551  73.490 223.083 +0.00 +0.13    -0.343 N  
DOCKED: ATOM      5  C   UNL     1     135.493  72.708 223.638 -0.12 -0.05    +0.251 C  
DOCKED: ATOM      6  O   UNL     1     135.298  71.583 223.075 -0.05 +0.04    -0.269 OA 
DOCKED: ATOM      7  H   UNL     1     136.785  74.427 223.478 -0.38 -0.09    +0.164 HD 
DOCKED: BRANCH   5   8
DOCKED: ATOM      8  C   UNL     1     134.701  73.164 224.762 -0.25 -0.00    +0.042 A  
DOCKED: ATOM      9  C   UNL     1     133.977  72.330 225.587 -0.27 -0.00    +0.034 A  
DOCKED: ATOM     10  C   UNL     1     134.673  74.523 225.016 -0.33 -0.00    +0.034 A  
DOCKED: ATOM     11  C   UNL     1     133.238  72.819 226.644 -0.33 -0.00    +0.112 A  
DOCKED: ATOM     12  C   UNL     1     133.919  74.976 226.087 -0.33 +0.00    +0.112 A  
DOCKED: ATOM     13  N   UNL     1     133.223  74.138 226.875 -0.81 -0.02    -0.265 NA 
DOCKED: ENDBRANCH   5   8
DOCKED: ENDBRANCH   3   4
DOCKED: ENDBRANCH   1   3
DOCKED: BRANCH   1  14
DOCKED: ATOM     14  N   UNL     1     138.917  71.363 222.890 -0.12 +0.08    -0.331 N  
DOCKED: ATOM     15  C   UNL     1     139.817  70.345 222.354 -0.10 -0.02    +0.123 C  
DOCKED: ATOM     16  C   UNL     1     138.316  70.745 224.058 -0.23 -0.03    +0.144 C  
DOCKED: ATOM     17  C   UNL     1     139.204  69.012 222.773 -0.17 -0.01    +0.056 C  
DOCKED: ATOM     18  C   UNL     1     137.918  69.411 223.462 -0.20 -0.02    +0.143 C  
DOCKED: BRANCH  16  19
DOCKED: ATOM     19  C   UNL     1     139.366  70.622 225.091 -0.39 +0.00    -0.021 A  
DOCKED: ATOM     20  C   UNL     1     140.349  71.601 225.182 -0.48 -0.00    +0.006 A  
DOCKED: ATOM     21  C   UNL     1     139.441  69.589 225.984 -0.44 -0.00    +0.026 A  
DOCKED: ATOM     22  C   UNL     1     141.356  71.520 226.144 -0.66 -0.00    +0.002 A  
DOCKED: ATOM     23  C   UNL     1     140.438  69.503 226.940 -0.54 -0.01    +0.041 A  
DOCKED: ATOM     24  C   UNL     1     141.406  70.462 227.034 -0.42 -0.00    +0.020 A  
DOCKED: ATOM     25  Cl  UNL     1     140.516  68.162 228.081 -0.72 +0.02    -0.084 Cl 
DOCKED: ENDBRANCH  16  19
DOCKED: BRANCH  18  26
DOCKED: ATOM     26  O   UNL     1     136.990  69.667 222.458 -0.03 +0.06    -0.391 OA 
DOCKED: ATOM     27  H   UNL     1     136.446  70.475 222.651 +0.05 -0.03    +0.211 HD 
DOCKED: ENDBRANCH  18  26
DOCKED: ENDBRANCH   1  14
DOCKED: TORSDOF 6
DOCKED: TER
DOCKED: ENDMDL
________________________________________________________________________________


    FINAL DOCKED STATE:
    ________________________


Run:   14 / 20
Time taken for this run:   0.025s

DOCKED: MODEL        14
DOCKED: USER    Run = 14
DOCKED: USER
DOCKED: USER    Estimated Free Energy of Binding    =  -6.62 kcal/mol  [=(1)+(2)+(3)-(4)]
DOCKED: USER
DOCKED: USER    (1) Final Intermolecular Energy     =  -8.41 kcal/mol
DOCKED: USER        vdW + Hbond + desolv Energy     =  -8.31 kcal/mol
DOCKED: USER        Electrostatic Energy            =  -0.10 kcal/mol
DOCKED: USER        Moving Ligand-Fixed Receptor    =  -8.41 kcal/mol
DOCKED: USER        Moving Ligand-Moving Receptor   =  +0.00 kcal/mol
DOCKED: USER    (2) Final Total Internal Energy     =  -1.79 kcal/mol
DOCKED: USER    (3) Torsional Free Energy           =  +1.79 kcal/mol
DOCKED: USER    (4) Unbound System's Energy         =  -1.79 kcal/mol
DOCKED: USER
DOCKED: USER
DOCKED: REMARK SMILES O=C(NCC(=O)N1CC[C@H](O)[C@H]1c1cccc(Cl)c1)c1ccncc1
DOCKED: REMARK SMILES IDX 5 1 6 2 4 3 3 4 2 5 1 6 20 8 21 9 25 10 22 11 24 12 23 13
DOCKED: REMARK SMILES IDX 7 14 8 15 12 16 9 17 10 18 13 19 14 20 19 21 15 22 17 23
DOCKED: REMARK SMILES IDX 16 24 18 25 11 26
DOCKED: REMARK H PARENT 3 7 11 27
DOCKED: USER                              x       y       z     vdW  Elec       q    Type
DOCKED: USER                           _______ _______ _______ _____ _____    ______ ____
DOCKED: ROOT
DOCKED: ATOM      1  C   UNL     1     138.792  75.685 222.043 -0.20 -0.06    +0.242 C  
DOCKED: ATOM      2  O   UNL     1     139.206  74.536 222.344 -0.66 +0.06    -0.273 OA 
DOCKED: ENDROOT
DOCKED: BRANCH   1   3
DOCKED: ATOM      3  C   UNL     1     137.403  76.142 222.198 -0.17 -0.05    +0.216 C  
DOCKED: BRANCH   3   4
DOCKED: ATOM      4  N   UNL     1     136.682  75.403 223.206 -0.09 +0.11    -0.343 N  
DOCKED: ATOM      5  C   UNL     1     135.520  75.923 223.856 -0.18 -0.04    +0.251 C  
DOCKED: ATOM      6  O   UNL     1     135.166  77.087 223.480 -0.12 +0.04    -0.269 OA 
DOCKED: ATOM      7  H   UNL     1     137.047  74.456 223.449 -0.41 -0.10    +0.164 HD 
DOCKED: BRANCH   5   8
DOCKED: ATOM      8  C   UNL     1     134.800  75.178 224.868 -0.33 -0.00    +0.042 A  
DOCKED: ATOM      9  C   UNL     1     134.777  73.802 224.944 -0.29 -0.00    +0.034 A  
DOCKED: ATOM     10  C   UNL     1     134.094  75.899 225.813 -0.34 -0.00    +0.034 A  
DOCKED: ATOM     11  C   UNL     1     134.073  73.143 225.929 -0.26 +0.00    +0.112 A  
DOCKED: ATOM     12  C   UNL     1     133.399  75.200 226.788 -0.30 +0.01    +0.112 A  
DOCKED: ATOM     13  N   UNL     1     133.395  73.856 226.837 -0.80 -0.03    -0.265 NA 
DOCKED: ENDBRANCH   5   8
DOCKED: ENDBRANCH   3   4
DOCKED: ENDBRANCH   1   3
DOCKED: BRANCH   1  14
DOCKED: ATOM     14  N   UNL     1     139.741  76.603 221.516 -0.12 +0.08    -0.331 N  
DOCKED: ATOM     15  C   UNL     1     139.556  77.445 220.337 -0.09 -0.03    +0.123 C  
DOCKED: ATOM     16  C   UNL     1     141.074  76.926 221.993 -0.28 -0.06    +0.144 C  
DOCKED: ATOM     17  C   UNL     1     140.959  77.671 219.784 -0.18 -0.02    +0.056 C  
DOCKED: ATOM     18  C   UNL     1     141.838  76.834 220.687 -0.11 -0.08    +0.143 C  
DOCKED: BRANCH  16  19
DOCKED: ATOM     19  C   UNL     1     141.035  78.299 222.539 -0.46 +0.01    -0.021 A  
DOCKED: ATOM     20  C   UNL     1     142.196  79.064 222.541 -0.53 -0.00    +0.006 A  
DOCKED: ATOM     21  C   UNL     1     139.911  78.884 223.054 -0.38 -0.01    +0.026 A  
DOCKED: ATOM     22  C   UNL     1     142.198  80.364 223.047 -0.62 -0.00    +0.002 A  
DOCKED: ATOM     23  C   UNL     1     139.907  80.172 223.558 -0.41 -0.01    +0.041 A  
DOCKED: ATOM     24  C   UNL     1     141.045  80.929 223.562 -0.48 -0.00    +0.020 A  
DOCKED: ATOM     25  Cl  UNL     1     138.447  80.906 224.217 -0.44 +0.01    -0.084 Cl 
DOCKED: ENDBRANCH  16  19
DOCKED: BRANCH  18  26
DOCKED: ATOM     26  O   UNL     1     141.735  75.522 220.240 -0.11 +0.15    -0.391 OA 
DOCKED: ATOM     27  H   UNL     1     141.030  75.017 220.724 +0.07 -0.06    +0.211 HD 
DOCKED: ENDBRANCH  18  26
DOCKED: ENDBRANCH   1  14
DOCKED: TORSDOF 6
DOCKED: TER
DOCKED: ENDMDL
________________________________________________________________________________


    FINAL DOCKED STATE:
    ________________________


Run:   15 / 20
Time taken for this run:   0.025s

DOCKED: MODEL        15
DOCKED: USER    Run = 15
DOCKED: USER
DOCKED: USER    Estimated Free Energy of Binding    =  -7.48 kcal/mol  [=(1)+(2)+(3)-(4)]
DOCKED: USER
DOCKED: USER    (1) Final Intermolecular Energy     =  -9.27 kcal/mol
DOCKED: USER        vdW + Hbond + desolv Energy     =  -9.02 kcal/mol
DOCKED: USER        Electrostatic Energy            =  -0.25 kcal/mol
DOCKED: USER        Moving Ligand-Fixed Receptor    =  -9.27 kcal/mol
DOCKED: USER        Moving Ligand-Moving Receptor   =  +0.00 kcal/mol
DOCKED: USER    (2) Final Total Internal Energy     =  -1.17 kcal/mol
DOCKED: USER    (3) Torsional Free Energy           =  +1.79 kcal/mol
DOCKED: USER    (4) Unbound System's Energy         =  -1.17 kcal/mol
DOCKED: USER
DOCKED: USER
DOCKED: REMARK SMILES O=C(NCC(=O)N1CC[C@H](O)[C@H]1c1cccc(Cl)c1)c1ccncc1
DOCKED: REMARK SMILES IDX 5 1 6 2 4 3 3 4 2 5 1 6 20 8 21 9 25 10 22 11 24 12 23 13
DOCKED: REMARK SMILES IDX 7 14 8 15 12 16 9 17 10 18 13 19 14 20 19 21 15 22 17 23
DOCKED: REMARK SMILES IDX 16 24 18 25 11 26
DOCKED: REMARK H PARENT 3 7 11 27
DOCKED: USER                              x       y       z     vdW  Elec       q    Type
DOCKED: USER                           _______ _______ _______ _____ _____    ______ ____
DOCKED: ROOT
DOCKED: ATOM      1  C   UNL     1     141.832  78.822 220.189 -0.16 -0.15    +0.242 C  
DOCKED: ATOM      2  O   UNL     1     142.283  79.388 219.160 -0.21 +0.20    -0.273 OA 
DOCKED: ENDROOT
DOCKED: BRANCH   1   3
DOCKED: ATOM      3  C   UNL     1     141.627  77.373 220.326 -0.20 -0.12    +0.216 C  
DOCKED: BRANCH   3   4
DOCKED: ATOM      4  N   UNL     1     142.824  76.612 220.059 -0.15 +0.25    -0.343 N  
DOCKED: ATOM      5  C   UNL     1     142.866  75.187 220.158 -0.20 -0.12    +0.251 C  
DOCKED: ATOM      6  O   UNL     1     141.770  74.636 220.499 -0.17 +0.08    -0.269 OA 
DOCKED: ATOM      7  H   UNL     1     143.674  77.151 219.786 -0.47 -0.16    +0.164 HD 
DOCKED: BRANCH   5   8
DOCKED: ATOM      8  C   UNL     1     144.070  74.428 219.890 -0.39 -0.02    +0.042 A  
DOCKED: ATOM      9  C   UNL     1     145.045  74.169 220.829 -0.51 -0.01    +0.034 A  
DOCKED: ATOM     10  C   UNL     1     144.244  73.934 218.611 -0.20 -0.01    +0.034 A  
DOCKED: ATOM     11  C   UNL     1     146.174  73.440 220.519 -0.56 +0.01    +0.112 A  
DOCKED: ATOM     12  C   UNL     1     145.391  73.206 218.338 -0.19 +0.03    +0.112 A  
DOCKED: ATOM     13  N   UNL     1     146.327  72.970 219.274 -0.67 -0.24    -0.265 NA 
DOCKED: ENDBRANCH   5   8
DOCKED: ENDBRANCH   3   4
DOCKED: ENDBRANCH   1   3
DOCKED: BRANCH   1  14
DOCKED: ATOM     14  N   UNL     1     141.501  79.651 221.296 -0.15 +0.14    -0.331 N  
DOCKED: ATOM     15  C   UNL     1     141.298  81.096 221.253 -0.31 -0.03    +0.123 C  
DOCKED: ATOM     16  C   UNL     1     141.286  79.289 222.686 -0.41 -0.05    +0.144 C  
DOCKED: ATOM     17  C   UNL     1     141.668  81.591 222.648 -0.45 -0.01    +0.056 C  
DOCKED: ATOM     18  C   UNL     1     142.145  80.342 223.356 -0.54 -0.03    +0.143 C  
DOCKED: BRANCH  16  19
DOCKED: ATOM     19  C   UNL     1     139.846  79.454 222.975 -0.37 +0.00    -0.021 A  
DOCKED: ATOM     20  C   UNL     1     138.918  78.708 222.258 -0.25 -0.00    +0.006 A  
DOCKED: ATOM     21  C   UNL     1     139.351  80.309 223.921 -0.38 -0.00    +0.026 A  
DOCKED: ATOM     22  C   UNL     1     137.551  78.835 222.503 -0.20 -0.00    +0.002 A  
DOCKED: ATOM     23  C   UNL     1     137.995  80.440 224.168 -0.36 -0.00    +0.041 A  
DOCKED: ATOM     24  C   UNL     1     137.079  79.709 223.467 -0.22 -0.00    +0.020 A  
DOCKED: ATOM     25  Cl  UNL     1     137.379  81.548 225.392 -0.48 +0.01    -0.084 Cl 
DOCKED: ENDBRANCH  16  19
DOCKED: BRANCH  18  26
DOCKED: ATOM     26  O   UNL     1     143.456  80.127 222.946 -0.37 +0.14    -0.391 OA 
DOCKED: ATOM     27  H   UNL     1     143.502  79.718 222.042 -0.42 -0.15    +0.211 HD 
DOCKED: ENDBRANCH  18  26
DOCKED: ENDBRANCH   1  14
DOCKED: TORSDOF 6
DOCKED: TER
DOCKED: ENDMDL
________________________________________________________________________________


    FINAL DOCKED STATE:
    ________________________


Run:   16 / 20
Time taken for this run:   0.025s

DOCKED: MODEL        16
DOCKED: USER    Run = 16
DOCKED: USER
DOCKED: USER    Estimated Free Energy of Binding    =  -6.54 kcal/mol  [=(1)+(2)+(3)-(4)]
DOCKED: USER
DOCKED: USER    (1) Final Intermolecular Energy     =  -8.33 kcal/mol
DOCKED: USER        vdW + Hbond + desolv Energy     =  -7.98 kcal/mol
DOCKED: USER        Electrostatic Energy            =  -0.34 kcal/mol
DOCKED: USER        Moving Ligand-Fixed Receptor    =  -8.33 kcal/mol
DOCKED: USER        Moving Ligand-Moving Receptor   =  +0.00 kcal/mol
DOCKED: USER    (2) Final Total Internal Energy     =  -2.16 kcal/mol
DOCKED: USER    (3) Torsional Free Energy           =  +1.79 kcal/mol
DOCKED: USER    (4) Unbound System's Energy         =  -2.16 kcal/mol
DOCKED: USER
DOCKED: USER
DOCKED: REMARK SMILES O=C(NCC(=O)N1CC[C@H](O)[C@H]1c1cccc(Cl)c1)c1ccncc1
DOCKED: REMARK SMILES IDX 5 1 6 2 4 3 3 4 2 5 1 6 20 8 21 9 25 10 22 11 24 12 23 13
DOCKED: REMARK SMILES IDX 7 14 8 15 12 16 9 17 10 18 13 19 14 20 19 21 15 22 17 23
DOCKED: REMARK SMILES IDX 16 24 18 25 11 26
DOCKED: REMARK H PARENT 3 7 11 27
DOCKED: USER                              x       y       z     vdW  Elec       q    Type
DOCKED: USER                           _______ _______ _______ _____ _____    ______ ____
DOCKED: ROOT
DOCKED: ATOM      1  C   UNL     1     143.650  75.707 218.136 -0.10 -0.13    +0.242 C  
DOCKED: ATOM      2  O   UNL     1     144.389  75.676 217.118 -0.09 +0.17    -0.273 OA 
DOCKED: ENDROOT
DOCKED: BRANCH   1   3
DOCKED: ATOM      3  C   UNL     1     142.531  76.641 218.329 -0.19 -0.12    +0.216 C  
DOCKED: BRANCH   3   4
DOCKED: ATOM      4  N   UNL     1     142.687  77.462 219.506 -0.12 +0.26    -0.343 N  
DOCKED: ATOM      5  C   UNL     1     141.585  77.821 220.342 -0.19 -0.14    +0.251 C  
DOCKED: ATOM      6  O   UNL     1     140.455  77.364 219.974 -0.07 +0.10    -0.269 OA 
DOCKED: ATOM      7  H   UNL     1     143.652  77.791 219.728 -0.48 -0.20    +0.164 HD 
DOCKED: BRANCH   5   8
DOCKED: ATOM      8  C   UNL     1     141.746  78.646 221.522 -0.38 -0.02    +0.042 A  
DOCKED: ATOM      9  C   UNL     1     142.199  79.947 221.499 -0.40 -0.02    +0.034 A  
DOCKED: ATOM     10  C   UNL     1     141.422  78.086 222.744 -0.44 -0.01    +0.034 A  
DOCKED: ATOM     11  C   UNL     1     142.335  80.688 222.655 -0.50 -0.03    +0.112 A  
DOCKED: ATOM     12  C   UNL     1     141.571  78.862 223.883 -0.50 -0.03    +0.112 A  
DOCKED: ATOM     13  N   UNL     1     142.016  80.130 223.830 -0.35 +0.06    -0.265 NA 
DOCKED: ENDBRANCH   5   8
DOCKED: ENDBRANCH   3   4
DOCKED: ENDBRANCH   1   3
DOCKED: BRANCH   1  14
DOCKED: ATOM     14  N   UNL     1     143.922  74.768 219.168 -0.13 +0.15    -0.331 N  
DOCKED: ATOM     15  C   UNL     1     144.577  75.060 220.440 -0.04 -0.07    +0.123 C  
DOCKED: ATOM     16  C   UNL     1     143.630  73.347 219.222 -0.17 -0.03    +0.144 C  
DOCKED: ATOM     17  C   UNL     1     145.251  73.754 220.850 -0.57 -0.01    +0.056 C  
DOCKED: ATOM     18  C   UNL     1     144.977  72.830 219.684 -0.32 +0.01    +0.143 C  
DOCKED: BRANCH  16  19
DOCKED: ATOM     19  C   UNL     1     142.562  73.145 220.225 -0.23 +0.00    -0.021 A  
DOCKED: ATOM     20  C   UNL     1     142.449  71.913 220.859 -0.25 -0.00    +0.006 A  
DOCKED: ATOM     21  C   UNL     1     141.659  74.108 220.581 -0.25 -0.01    +0.026 A  
DOCKED: ATOM     22  C   UNL     1     141.456  71.686 221.811 -0.15 -0.00    +0.002 A  
DOCKED: ATOM     23  C   UNL     1     140.671  73.887 221.524 -0.29 -0.00    +0.041 A  
DOCKED: ATOM     24  C   UNL     1     140.555  72.679 222.151 -0.31 -0.00    +0.020 A  
DOCKED: ATOM     25  Cl  UNL     1     139.516  75.142 221.969 -0.36 +0.02    -0.084 Cl 
DOCKED: ENDBRANCH  16  19
DOCKED: BRANCH  18  26
DOCKED: ATOM     26  O   UNL     1     145.902  73.147 218.696 -0.70 -0.23    -0.391 OA 
DOCKED: ATOM     27  H   UNL     1     145.698  74.016 218.260 -0.39 -0.03    +0.211 HD 
DOCKED: ENDBRANCH  18  26
DOCKED: ENDBRANCH   1  14
DOCKED: TORSDOF 6
DOCKED: TER
DOCKED: ENDMDL
________________________________________________________________________________


    FINAL DOCKED STATE:
    ________________________


Run:   17 / 20
Time taken for this run:   0.025s

DOCKED: MODEL        17
DOCKED: USER    Run = 17
DOCKED: USER
DOCKED: USER    Estimated Free Energy of Binding    =  -6.64 kcal/mol  [=(1)+(2)+(3)-(4)]
DOCKED: USER
DOCKED: USER    (1) Final Intermolecular Energy     =  -8.43 kcal/mol
DOCKED: USER        vdW + Hbond + desolv Energy     =  -8.32 kcal/mol
DOCKED: USER        Electrostatic Energy            =  -0.11 kcal/mol
DOCKED: USER        Moving Ligand-Fixed Receptor    =  -8.43 kcal/mol
DOCKED: USER        Moving Ligand-Moving Receptor   =  +0.00 kcal/mol
DOCKED: USER    (2) Final Total Internal Energy     =  -1.75 kcal/mol
DOCKED: USER    (3) Torsional Free Energy           =  +1.79 kcal/mol
DOCKED: USER    (4) Unbound System's Energy         =  -1.75 kcal/mol
DOCKED: USER
DOCKED: USER
DOCKED: REMARK SMILES O=C(NCC(=O)N1CC[C@H](O)[C@H]1c1cccc(Cl)c1)c1ccncc1
DOCKED: REMARK SMILES IDX 5 1 6 2 4 3 3 4 2 5 1 6 20 8 21 9 25 10 22 11 24 12 23 13
DOCKED: REMARK SMILES IDX 7 14 8 15 12 16 9 17 10 18 13 19 14 20 19 21 15 22 17 23
DOCKED: REMARK SMILES IDX 16 24 18 25 11 26
DOCKED: REMARK H PARENT 3 7 11 27
DOCKED: USER                              x       y       z     vdW  Elec       q    Type
DOCKED: USER                           _______ _______ _______ _____ _____    ______ ____
DOCKED: ROOT
DOCKED: ATOM      1  C   UNL     1     138.822  75.649 222.007 -0.20 -0.06    +0.242 C  
DOCKED: ATOM      2  O   UNL     1     139.276  74.527 222.349 -0.68 +0.06    -0.273 OA 
DOCKED: ENDROOT
DOCKED: BRANCH   1   3
DOCKED: ATOM      3  C   UNL     1     137.409  76.043 222.101 -0.17 -0.05    +0.216 C  
DOCKED: BRANCH   3   4
DOCKED: ATOM      4  N   UNL     1     136.703  75.347 223.150 -0.09 +0.11    -0.343 N  
DOCKED: ATOM      5  C   UNL     1     135.517  75.868 223.754 -0.18 -0.04    +0.251 C  
DOCKED: ATOM      6  O   UNL     1     135.127  76.991 223.299 -0.11 +0.04    -0.269 OA 
DOCKED: ATOM      7  H   UNL     1     137.099  74.432 223.458 -0.41 -0.11    +0.164 HD 
DOCKED: BRANCH   5   8
DOCKED: ATOM      8  C   UNL     1     134.813  75.166 224.807 -0.32 -0.00    +0.042 A  
DOCKED: ATOM      9  C   UNL     1     134.738  73.793 224.904 -0.29 -0.00    +0.034 A  
DOCKED: ATOM     10  C   UNL     1     134.178  75.927 225.771 -0.34 -0.00    +0.034 A  
DOCKED: ATOM     11  C   UNL     1     134.052  73.175 225.929 -0.26 +0.00    +0.112 A  
DOCKED: ATOM     12  C   UNL     1     133.500  75.270 226.785 -0.30 +0.01    +0.112 A  
DOCKED: ATOM     13  N   UNL     1     133.443  73.928 226.855 -0.79 -0.04    -0.265 NA 
DOCKED: ENDBRANCH   5   8
DOCKED: ENDBRANCH   3   4
DOCKED: ENDBRANCH   1   3
DOCKED: BRANCH   1  14
DOCKED: ATOM     14  N   UNL     1     139.747  76.599 221.495 -0.12 +0.08    -0.331 N  
DOCKED: ATOM     15  C   UNL     1     139.534  77.464 220.339 -0.09 -0.03    +0.123 C  
DOCKED: ATOM     16  C   UNL     1     141.078  76.938 221.969 -0.28 -0.06    +0.144 C  
DOCKED: ATOM     17  C   UNL     1     140.929  77.733 219.780 -0.18 -0.02    +0.056 C  
DOCKED: ATOM     18  C   UNL     1     141.832  76.893 220.656 -0.14 -0.08    +0.143 C  
DOCKED: BRANCH  16  19
DOCKED: ATOM     19  C   UNL     1     141.015  78.296 222.549 -0.46 +0.01    -0.021 A  
DOCKED: ATOM     20  C   UNL     1     142.166  79.074 222.587 -0.54 -0.00    +0.006 A  
DOCKED: ATOM     21  C   UNL     1     139.876  78.855 223.062 -0.38 -0.01    +0.026 A  
DOCKED: ATOM     22  C   UNL     1     142.146  80.360 223.126 -0.62 -0.00    +0.002 A  
DOCKED: ATOM     23  C   UNL     1     139.851  80.130 223.598 -0.41 -0.01    +0.041 A  
DOCKED: ATOM     24  C   UNL     1     140.980  80.899 223.638 -0.47 -0.00    +0.020 A  
DOCKED: ATOM     25  Cl  UNL     1     138.373  80.831 224.255 -0.45 +0.01    -0.084 Cl 
DOCKED: ENDBRANCH  16  19
DOCKED: BRANCH  18  26
DOCKED: ATOM     26  O   UNL     1     141.753  75.591 220.178 -0.11 +0.16    -0.391 OA 
DOCKED: ATOM     27  H   UNL     1     141.085  75.051 220.677 +0.07 -0.06    +0.211 HD 
DOCKED: ENDBRANCH  18  26
DOCKED: ENDBRANCH   1  14
DOCKED: TORSDOF 6
DOCKED: TER
DOCKED: ENDMDL
________________________________________________________________________________


    FINAL DOCKED STATE:
    ________________________


Run:   18 / 20
Time taken for this run:   0.025s

DOCKED: MODEL        18
DOCKED: USER    Run = 18
DOCKED: USER
DOCKED: USER    Estimated Free Energy of Binding    =  -6.47 kcal/mol  [=(1)+(2)+(3)-(4)]
DOCKED: USER
DOCKED: USER    (1) Final Intermolecular Energy     =  -8.26 kcal/mol
DOCKED: USER        vdW + Hbond + desolv Energy     =  -8.19 kcal/mol
DOCKED: USER        Electrostatic Energy            =  -0.06 kcal/mol
DOCKED: USER        Moving Ligand-Fixed Receptor    =  -8.26 kcal/mol
DOCKED: USER        Moving Ligand-Moving Receptor   =  +0.00 kcal/mol
DOCKED: USER    (2) Final Total Internal Energy     =  -2.24 kcal/mol
DOCKED: USER    (3) Torsional Free Energy           =  +1.79 kcal/mol
DOCKED: USER    (4) Unbound System's Energy         =  -2.24 kcal/mol
DOCKED: USER
DOCKED: USER
DOCKED: REMARK SMILES O=C(NCC(=O)N1CC[C@H](O)[C@H]1c1cccc(Cl)c1)c1ccncc1
DOCKED: REMARK SMILES IDX 5 1 6 2 4 3 3 4 2 5 1 6 20 8 21 9 25 10 22 11 24 12 23 13
DOCKED: REMARK SMILES IDX 7 14 8 15 12 16 9 17 10 18 13 19 14 20 19 21 15 22 17 23
DOCKED: REMARK SMILES IDX 16 24 18 25 11 26
DOCKED: REMARK H PARENT 3 7 11 27
DOCKED: USER                              x       y       z     vdW  Elec       q    Type
DOCKED: USER                           _______ _______ _______ _____ _____    ______ ____
DOCKED: ROOT
DOCKED: ATOM      1  C   UNL     1     138.705  72.648 222.312 -0.10 -0.07    +0.242 C  
DOCKED: ATOM      2  O   UNL     1     139.724  73.384 222.331 -0.73 +0.04    -0.273 OA 
DOCKED: ENDROOT
DOCKED: BRANCH   1   3
DOCKED: ATOM      3  C   UNL     1     137.355  73.095 221.936 -0.10 -0.06    +0.216 C  
DOCKED: BRANCH   3   4
DOCKED: ATOM      4  N   UNL     1     136.565  73.501 223.074 +0.01 +0.13    -0.343 N  
DOCKED: ATOM      5  C   UNL     1     135.498  72.702 223.591 -0.12 -0.05    +0.251 C  
DOCKED: ATOM      6  O   UNL     1     135.295  71.606 222.975 -0.05 +0.04    -0.269 OA 
DOCKED: ATOM      7  H   UNL     1     136.805  74.416 223.513 -0.39 -0.09    +0.164 HD 
DOCKED: BRANCH   5   8
DOCKED: ATOM      8  C   UNL     1     134.707  73.113 224.732 -0.24 -0.00    +0.042 A  
DOCKED: ATOM      9  C   UNL     1     134.031  72.241 225.558 -0.26 -0.00    +0.034 A  
DOCKED: ATOM     10  C   UNL     1     134.631  74.466 225.005 -0.32 -0.00    +0.034 A  
DOCKED: ATOM     11  C   UNL     1     133.291  72.687 226.633 -0.33 -0.00    +0.112 A  
DOCKED: ATOM     12  C   UNL     1     133.877  74.876 226.094 -0.33 +0.00    +0.112 A  
DOCKED: ATOM     13  N   UNL     1     133.227  74.001 226.882 -0.80 -0.02    -0.265 NA 
DOCKED: ENDBRANCH   5   8
DOCKED: ENDBRANCH   3   4
DOCKED: ENDBRANCH   1   3
DOCKED: BRANCH   1  14
DOCKED: ATOM     14  N   UNL     1     138.877  71.286 222.681 -0.10 +0.07    -0.331 N  
DOCKED: ATOM     15  C   UNL     1     139.928  70.394 222.199 -0.10 -0.02    +0.123 C  
DOCKED: ATOM     16  C   UNL     1     138.091  70.470 223.591 -0.21 -0.03    +0.144 C  
DOCKED: ATOM     17  C   UNL     1     139.328  68.994 222.273 -0.11 -0.01    +0.056 C  
DOCKED: ATOM     18  C   UNL     1     137.906  69.238 222.729 -0.15 -0.02    +0.143 C  
DOCKED: BRANCH  16  19
DOCKED: ATOM     19  C   UNL     1     138.916  70.214 224.790 -0.36 +0.00    -0.021 A  
DOCKED: ATOM     20  C   UNL     1     138.933  68.939 225.344 -0.42 -0.00    +0.006 A  
DOCKED: ATOM     21  C   UNL     1     139.683  71.164 225.406 -0.40 -0.00    +0.026 A  
DOCKED: ATOM     22  C   UNL     1     139.700  68.658 226.475 -0.57 -0.00    +0.002 A  
DOCKED: ATOM     23  C   UNL     1     140.446  70.891 226.529 -0.58 -0.01    +0.041 A  
DOCKED: ATOM     24  C   UNL     1     140.466  69.639 227.077 -0.56 -0.00    +0.020 A  
DOCKED: ATOM     25  Cl  UNL     1     141.426  72.130 227.307 -0.90 +0.02    -0.084 Cl 
DOCKED: ENDBRANCH  16  19
DOCKED: BRANCH  18  26
DOCKED: ATOM     26  O   UNL     1     137.188  69.625 221.604 -0.01 +0.06    -0.391 OA 
DOCKED: ATOM     27  H   UNL     1     136.584  70.391 221.792 +0.04 -0.04    +0.211 HD 
DOCKED: ENDBRANCH  18  26
DOCKED: ENDBRANCH   1  14
DOCKED: TORSDOF 6
DOCKED: TER
DOCKED: ENDMDL
________________________________________________________________________________


    FINAL DOCKED STATE:
    ________________________


Run:   19 / 20
Time taken for this run:   0.025s

DOCKED: MODEL        19
DOCKED: USER    Run = 19
DOCKED: USER
DOCKED: USER    Estimated Free Energy of Binding    =  -6.57 kcal/mol  [=(1)+(2)+(3)-(4)]
DOCKED: USER
DOCKED: USER    (1) Final Intermolecular Energy     =  -8.36 kcal/mol
DOCKED: USER        vdW + Hbond + desolv Energy     =  -8.02 kcal/mol
DOCKED: USER        Electrostatic Energy            =  -0.34 kcal/mol
DOCKED: USER        Moving Ligand-Fixed Receptor    =  -8.36 kcal/mol
DOCKED: USER        Moving Ligand-Moving Receptor   =  +0.00 kcal/mol
DOCKED: USER    (2) Final Total Internal Energy     =  -2.14 kcal/mol
DOCKED: USER    (3) Torsional Free Energy           =  +1.79 kcal/mol
DOCKED: USER    (4) Unbound System's Energy         =  -2.14 kcal/mol
DOCKED: USER
DOCKED: USER
DOCKED: REMARK SMILES O=C(NCC(=O)N1CC[C@H](O)[C@H]1c1cccc(Cl)c1)c1ccncc1
DOCKED: REMARK SMILES IDX 5 1 6 2 4 3 3 4 2 5 1 6 20 8 21 9 25 10 22 11 24 12 23 13
DOCKED: REMARK SMILES IDX 7 14 8 15 12 16 9 17 10 18 13 19 14 20 19 21 15 22 17 23
DOCKED: REMARK SMILES IDX 16 24 18 25 11 26
DOCKED: REMARK H PARENT 3 7 11 27
DOCKED: USER                              x       y       z     vdW  Elec       q    Type
DOCKED: USER                           _______ _______ _______ _____ _____    ______ ____
DOCKED: ROOT
DOCKED: ATOM      1  C   UNL     1     143.687  75.631 218.127 -0.09 -0.13    +0.242 C  
DOCKED: ATOM      2  O   UNL     1     144.409  75.559 217.099 -0.10 +0.16    -0.273 OA 
DOCKED: ENDROOT
DOCKED: BRANCH   1   3
DOCKED: ATOM      3  C   UNL     1     142.603  76.606 218.322 -0.20 -0.12    +0.216 C  
DOCKED: BRANCH   3   4
DOCKED: ATOM      4  N   UNL     1     142.741  77.356 219.548 -0.12 +0.26    -0.343 N  
DOCKED: ATOM      5  C   UNL     1     141.618  77.892 220.250 -0.19 -0.14    +0.251 C  
DOCKED: ATOM      6  O   UNL     1     140.486  77.661 219.716 -0.06 +0.10    -0.269 OA 
DOCKED: ATOM      7  H   UNL     1     143.710  77.495 219.909 -0.51 -0.19    +0.164 HD 
DOCKED: BRANCH   5   8
DOCKED: ATOM      8  C   UNL     1     141.762  78.645 221.479 -0.37 -0.02    +0.042 A  
DOCKED: ATOM      9  C   UNL     1     142.195  79.952 221.539 -0.41 -0.02    +0.034 A  
DOCKED: ATOM     10  C   UNL     1     141.442  78.005 222.662 -0.41 -0.02    +0.034 A  
DOCKED: ATOM     11  C   UNL     1     142.315  80.621 222.738 -0.51 -0.03    +0.112 A  
DOCKED: ATOM     12  C   UNL     1     141.574  78.712 223.848 -0.50 -0.03    +0.112 A  
DOCKED: ATOM     13  N   UNL     1     142.000  79.987 223.875 -0.35 +0.06    -0.265 NA 
DOCKED: ENDBRANCH   5   8
DOCKED: ENDBRANCH   3   4
DOCKED: ENDBRANCH   1   3
DOCKED: BRANCH   1  14
DOCKED: ATOM     14  N   UNL     1     143.942  74.700 219.170 -0.13 +0.14    -0.331 N  
DOCKED: ATOM     15  C   UNL     1     144.611  74.992 220.435 -0.10 -0.06    +0.123 C  
DOCKED: ATOM     16  C   UNL     1     143.618  73.286 219.244 -0.17 -0.03    +0.144 C  
DOCKED: ATOM     17  C   UNL     1     145.257  73.677 220.858 -0.57 -0.01    +0.056 C  
DOCKED: ATOM     18  C   UNL     1     144.955  72.744 219.706 -0.32 +0.01    +0.143 C  
DOCKED: BRANCH  16  19
DOCKED: ATOM     19  C   UNL     1     142.552  73.122 220.255 -0.24 +0.00    -0.021 A  
DOCKED: ATOM     20  C   UNL     1     142.423  71.907 220.916 -0.24 -0.00    +0.006 A  
DOCKED: ATOM     21  C   UNL     1     141.664  74.106 220.593 -0.25 -0.01    +0.026 A  
DOCKED: ATOM     22  C   UNL     1     141.430  71.715 221.878 -0.16 -0.00    +0.002 A  
DOCKED: ATOM     23  C   UNL     1     140.676  73.921 221.545 -0.29 -0.00    +0.041 A  
DOCKED: ATOM     24  C   UNL     1     140.545  72.728 222.199 -0.31 -0.00    +0.020 A  
DOCKED: ATOM     25  Cl  UNL     1     139.542  75.202 221.966 -0.37 +0.02    -0.084 Cl 
DOCKED: ENDBRANCH  16  19
DOCKED: BRANCH  18  26
DOCKED: ATOM     26  O   UNL     1     145.882  73.027 218.709 -0.71 -0.26    -0.391 OA 
DOCKED: ATOM     27  H   UNL     1     145.705  73.902 218.273 -0.34 -0.01    +0.211 HD 
DOCKED: ENDBRANCH  18  26
DOCKED: ENDBRANCH   1  14
DOCKED: TORSDOF 6
DOCKED: TER
DOCKED: ENDMDL
________________________________________________________________________________


    FINAL DOCKED STATE:
    ________________________


Run:   20 / 20
Time taken for this run:   0.025s

DOCKED: MODEL        20
DOCKED: USER    Run = 20
DOCKED: USER
DOCKED: USER    Estimated Free Energy of Binding    =  -7.35 kcal/mol  [=(1)+(2)+(3)-(4)]
DOCKED: USER
DOCKED: USER    (1) Final Intermolecular Energy     =  -9.14 kcal/mol
DOCKED: USER        vdW + Hbond + desolv Energy     =  -8.89 kcal/mol
DOCKED: USER        Electrostatic Energy            =  -0.25 kcal/mol
DOCKED: USER        Moving Ligand-Fixed Receptor    =  -9.14 kcal/mol
DOCKED: USER        Moving Ligand-Moving Receptor   =  +0.00 kcal/mol
DOCKED: USER    (2) Final Total Internal Energy     =  -1.24 kcal/mol
DOCKED: USER    (3) Torsional Free Energy           =  +1.79 kcal/mol
DOCKED: USER    (4) Unbound System's Energy         =  -1.24 kcal/mol
DOCKED: USER
DOCKED: USER
DOCKED: REMARK SMILES O=C(NCC(=O)N1CC[C@H](O)[C@H]1c1cccc(Cl)c1)c1ccncc1
DOCKED: REMARK SMILES IDX 5 1 6 2 4 3 3 4 2 5 1 6 20 8 21 9 25 10 22 11 24 12 23 13
DOCKED: REMARK SMILES IDX 7 14 8 15 12 16 9 17 10 18 13 19 14 20 19 21 15 22 17 23
DOCKED: REMARK SMILES IDX 16 24 18 25 11 26
DOCKED: REMARK H PARENT 3 7 11 27
DOCKED: USER                              x       y       z     vdW  Elec       q    Type
DOCKED: USER                           _______ _______ _______ _____ _____    ______ ____
DOCKED: ROOT
DOCKED: ATOM      1  C   UNL     1     141.824  78.814 220.247 -0.17 -0.15    +0.242 C  
DOCKED: ATOM      2  O   UNL     1     142.262  79.330 219.186 -0.21 +0.19    -0.273 OA 
DOCKED: ENDROOT
DOCKED: BRANCH   1   3
DOCKED: ATOM      3  C   UNL     1     141.652  77.371 220.466 -0.21 -0.12    +0.216 C  
DOCKED: BRANCH   3   4
DOCKED: ATOM      4  N   UNL     1     142.817  76.606 220.091 -0.15 +0.25    -0.343 N  
DOCKED: ATOM      5  C   UNL     1     142.864  75.181 220.190 -0.19 -0.12    +0.251 C  
DOCKED: ATOM      6  O   UNL     1     141.803  74.634 220.633 -0.19 +0.08    -0.269 OA 
DOCKED: ATOM      7  H   UNL     1     143.639  77.142 219.738 -0.44 -0.15    +0.164 HD 
DOCKED: BRANCH   5   8
DOCKED: ATOM      8  C   UNL     1     144.036  74.418 219.812 -0.38 -0.02    +0.042 A  
DOCKED: ATOM      9  C   UNL     1     144.273  73.947 218.539 -0.19 -0.01    +0.034 A  
DOCKED: ATOM     10  C   UNL     1     144.969  74.149 220.796 -0.50 -0.01    +0.034 A  
DOCKED: ATOM     11  C   UNL     1     145.407  73.223 218.234 -0.18 +0.03    +0.112 A  
DOCKED: ATOM     12  C   UNL     1     146.096  73.419 220.450 -0.55 +0.01    +0.112 A  
DOCKED: ATOM     13  N   UNL     1     146.301  72.972 219.199 -0.68 -0.24    -0.265 NA 
DOCKED: ENDBRANCH   5   8
DOCKED: ENDBRANCH   3   4
DOCKED: ENDBRANCH   1   3
DOCKED: BRANCH   1  14
DOCKED: ATOM     14  N   UNL     1     141.474  79.697 221.304 -0.15 +0.14    -0.331 N  
DOCKED: ATOM     15  C   UNL     1     141.255  81.136 221.183 -0.31 -0.03    +0.123 C  
DOCKED: ATOM     16  C   UNL     1     141.252  79.408 222.710 -0.41 -0.04    +0.144 C  
DOCKED: ATOM     17  C   UNL     1     141.607  81.709 222.552 -0.42 -0.01    +0.056 C  
DOCKED: ATOM     18  C   UNL     1     142.093  80.506 223.329 -0.53 -0.03    +0.143 C  
DOCKED: BRANCH  16  19
DOCKED: ATOM     19  C   UNL     1     139.807  79.572 222.980 -0.37 +0.00    -0.021 A  
DOCKED: ATOM     20  C   UNL     1     138.890  78.842 222.233 -0.24 -0.00    +0.006 A  
DOCKED: ATOM     21  C   UNL     1     139.299  80.409 223.934 -0.38 -0.00    +0.026 A  
DOCKED: ATOM     22  C   UNL     1     137.519  78.968 222.458 -0.19 -0.00    +0.002 A  
DOCKED: ATOM     23  C   UNL     1     137.940  80.538 224.162 -0.36 -0.00    +0.041 A  
DOCKED: ATOM     24  C   UNL     1     137.034  79.823 223.431 -0.23 -0.00    +0.020 A  
DOCKED: ATOM     25  Cl  UNL     1     137.306  81.623 225.397 -0.50 +0.01    -0.084 Cl 
DOCKED: ENDBRANCH  16  19
DOCKED: BRANCH  18  26
DOCKED: ATOM     26  O   UNL     1     143.410  80.285 222.941 -0.36 +0.13    -0.391 OA 
DOCKED: ATOM     27  H   UNL     1     143.467  79.796 222.078 -0.39 -0.14    +0.211 HD 
DOCKED: ENDBRANCH  18  26
DOCKED: ENDBRANCH   1  14
DOCKED: TORSDOF 6
DOCKED: TER
DOCKED: ENDMDL
________________________________________________________________________________


    CLUSTERING HISTOGRAM
    ____________________


________________________________________________________________________________
     |           |     |           |     |
Clus | Lowest    | Run | Mean      | Num | Histogram
-ter | Binding   |     | Binding   | in  |
Rank | Energy    |     | Energy    | Clus|    5    10   15   20   25   30   35
_____|___________|_____|___________|_____|____:____|____:____|____:____|____:___
   1 |     -7.48 |  15 |     -7.34 |   4 |####
   2 |     -6.68 |   1 |     -6.68 |   1 |#
   3 |     -6.64 |  17 |     -6.51 |   5 |#####
   4 |     -6.58 |   9 |     -6.55 |   6 |######
   5 |     -6.47 |   4 |     -6.46 |   4 |####
_____|___________|_____|___________|_____|______________________________________


    RMSD TABLE
    __________


_______________________________________________________________________
     |      |      |           |         |                 |
Rank | Sub- | Run  | Binding   | Cluster | Reference       | Grep
     | Rank |      | Energy    | RMSD    | RMSD            | Pattern
_____|______|______|___________|_________|_________________|___________
   1      1     15       -7.48      0.00    271.56           RANKING
   1      2      3       -7.44      0.05    271.56           RANKING
   1      3     20       -7.35      0.11    271.55           RANKING
   1      4     11       -7.11      0.97    271.42           RANKING
   2      1      1       -6.68      0.00    270.17           RANKING
   3      1     17       -6.64      0.00    270.79           RANKING
   3      2      8       -6.63      0.07    270.82           RANKING
   3      3     14       -6.62      0.09    270.81           RANKING
   3      4      6       -6.48      0.19    270.81           RANKING
   3      5     12       -6.20      1.60    270.73           RANKING
   4      1      9       -6.58      0.00    270.66           RANKING
   4      2      5       -6.57      0.12    270.64           RANKING
   4      3     19       -6.57      0.12    270.64           RANKING
   4      4     10       -6.55      0.13    270.65           RANKING
   4      5     16       -6.54      0.23    270.65           RANKING
   4      6      2       -6.51      0.30    270.62           RANKING
   5      1      4       -6.47      0.00    269.96           RANKING
   5      2     18       -6.47      0.04    269.93           RANKING
   5      3      7       -6.46      0.07    269.95           RANKING
   5      4     13       -6.43      0.95    270.16           RANKING

Run time 0.471 sec
Idle time 0.000 sec
