AutoDock-GPU version: v1.6

**********************************************************
**    AutoDock-GPU AUTODOCKTOOLS-COMPATIBLE DLG FILE    **
**********************************************************


    DOCKING PARAMETERS
    ________________________


Ligand file:                               /home/a/REINVENT4/ReinventStudies/pleaseWork/justmol2mol_4_Compounds_ontop/graph-dock/graph-DockGPU/node-autodockgpu/inputs/WWJAUEPNRZGDPL-GGCRTILDNA-N.pdbqt
Grid fld file:                             /home/a/REINVENT4/ReinventStudies/mols/Rad51/maps/rad51_receptor.maps.fld

Random seed:                               42
Number of runs:                            20
Number of energy evaluations:              1132076
Number of generations:                     42000
Size of population:                        150
Rate of crossover:                         80.000000%
Tournament selection probability limit:    60.000000%
Rate of mutation:                          2.000000%
Maximal allowed delta movement:            +/- 6.000000A
Maximal allowed delta angle:               +/- 90.000000

Rate of local search:                      100.000000%
Maximal number of local search iterations: 300
Rho lower bound:                           0.010000
Spread of local search delta movement:     2.000000A
Spread of local search delta angle:        74.999999
Limit of consecutive successes/failures:   4

Handle symmetry during clustering:         YES
RMSD tolerance:                            2.000000A

Program call in command line was:          /home/a/REINVENT4/ReinventStudies/adgpu-v1.6_linux_x64_cuda12_128wi --filelist batch.txt --heuristics 1 --nrun 20 --psize 150 --lsit 300 --seed 42 --heurmax 12000000 


    GRID PARAMETERS
    ________________________


Receptor name:                             rad51_receptor
Number of grid points (x, y, z):           53, 53, 53
Grid center (x, y, z):                     139.950000, 75.640000, 221.970000A
Grid size (x, y, z):                       19.500000, 19.500000, 19.500000A
Grid spacing:                              0.375000A


    LIGAND PARAMETERS
    ________________________


Ligand name:                               /home/a/REINVENT4/ReinventStudies/pleaseWork/justmol2mol_4_Compounds_ontop/graph-dock/graph-DockGPU/node-autodockgpu/inputs/WWJAUEPNRZGDPL-GGCRTILDNA-N
Number of atoms:                           31
Number of rotatable bonds:                 6
Number of atom types:                      7


    DUMMY DATA (only for ADT-compatibility)
    ________________________


DPF> outlev 1
DPF> ga_run 20
DPF> fld /home/a/REINVENT4/ReinventStudies/mols/Rad51/maps/rad51_receptor.maps.fld
DPF> move /home/a/REINVENT4/ReinventStudies/pleaseWork/justmol2mol_4_Compounds_ontop/graph-dock/graph-DockGPU/node-autodockgpu/inputs/WWJAUEPNRZGDPL-GGCRTILDNA-N.pdbqt


    COUNTER STATES
    ________________________


Number of energy evaluations performed:    1146775
Number of generations used:                64


    INPUT LIGAND PDBQT FILE:
    ________________________


INPUT-LIGAND-PDBQT: REMARK SMILES O=C(NCC(=O)N1CCCC[C@H]1Cc1ccc(Cl)cc1)c1ccc2ccccc2n1
INPUT-LIGAND-PDBQT: REMARK SMILES IDX 7 1 8 2 9 3 10 4 11 5 12 6 5 7 6 8 4 9 3 10 2 11 1 12 21 14
INPUT-LIGAND-PDBQT: REMARK SMILES IDX 22 15 30 16 23 17 29 18 24 19 28 20 25 21 27 22 26 23 13 24
INPUT-LIGAND-PDBQT: REMARK SMILES IDX 14 25 15 26 20 27 16 28 19 29 17 30 18 31
INPUT-LIGAND-PDBQT: REMARK H PARENT 3 13
INPUT-LIGAND-PDBQT: ROOT
INPUT-LIGAND-PDBQT: ATOM      1  N   UNL     1      -1.706   0.821   0.009  1.00  0.00    -0.338 N 
INPUT-LIGAND-PDBQT: ATOM      2  C   UNL     1      -1.994   2.216  -0.243  1.00  0.00     0.120 C 
INPUT-LIGAND-PDBQT: ATOM      3  C   UNL     1      -2.993   2.804   0.694  1.00  0.00     0.022 C 
INPUT-LIGAND-PDBQT: ATOM      4  C   UNL     1      -3.843   1.880   1.449  1.00  0.00     0.004 C 
INPUT-LIGAND-PDBQT: ATOM      5  C   UNL     1      -3.552   0.432   1.409  1.00  0.00     0.025 C 
INPUT-LIGAND-PDBQT: ATOM      6  C   UNL     1      -2.834  -0.073   0.201  1.00  0.00     0.089 C 
INPUT-LIGAND-PDBQT: ENDROOT
INPUT-LIGAND-PDBQT: BRANCH   1   7
INPUT-LIGAND-PDBQT: ATOM      7  C   UNL     1      -0.383   0.301   0.073  1.00  0.00     0.242 C 
INPUT-LIGAND-PDBQT: ATOM      8  O   UNL     1      -0.153  -0.921   0.293  1.00  0.00    -0.273 OA
INPUT-LIGAND-PDBQT: BRANCH   7   9
INPUT-LIGAND-PDBQT: ATOM      9  C   UNL     1       0.732   1.262  -0.132  1.00  0.00     0.216 C 
INPUT-LIGAND-PDBQT: BRANCH   9  10
INPUT-LIGAND-PDBQT: ATOM     10  N   UNL     1       2.022   0.618  -0.044  1.00  0.00    -0.342 N 
INPUT-LIGAND-PDBQT: ATOM     11  C   UNL     1       3.172   1.443  -0.225  1.00  0.00     0.270 C 
INPUT-LIGAND-PDBQT: ATOM     12  O   UNL     1       2.944   2.671  -0.447  1.00  0.00    -0.268 OA
INPUT-LIGAND-PDBQT: ATOM     13  H   UNL     1       2.124  -0.397   0.141  1.00  0.00     0.164 HD
INPUT-LIGAND-PDBQT: BRANCH  11  14
INPUT-LIGAND-PDBQT: ATOM     14  C   UNL     1       4.526   0.898  -0.157  1.00  0.00     0.128 A 
INPUT-LIGAND-PDBQT: ATOM     15  C   UNL     1       5.574   1.778  -0.345  1.00  0.00     0.035 A 
INPUT-LIGAND-PDBQT: ATOM     16  N   UNL     1       4.778  -0.404   0.078  1.00  0.00    -0.243 NA
INPUT-LIGAND-PDBQT: ATOM     17  C   UNL     1       6.869   1.343  -0.297  1.00  0.00     0.013 A 
INPUT-LIGAND-PDBQT: ATOM     18  C   UNL     1       6.051  -0.881   0.135  1.00  0.00     0.071 A 
INPUT-LIGAND-PDBQT: ATOM     19  C   UNL     1       7.118  -0.010  -0.052  1.00  0.00     0.000 A 
INPUT-LIGAND-PDBQT: ATOM     20  C   UNL     1       6.243  -2.226   0.379  1.00  0.00     0.029 A 
INPUT-LIGAND-PDBQT: ATOM     21  C   UNL     1       8.412  -0.455  -0.001  1.00  0.00     0.010 A 
INPUT-LIGAND-PDBQT: ATOM     22  C   UNL     1       7.546  -2.668   0.429  1.00  0.00     0.002 A 
INPUT-LIGAND-PDBQT: ATOM     23  C   UNL     1       8.621  -1.813   0.245  1.00  0.00     0.001 A 
INPUT-LIGAND-PDBQT: ENDBRANCH  11  14
INPUT-LIGAND-PDBQT: ENDBRANCH   9  10
INPUT-LIGAND-PDBQT: ENDBRANCH   7   9
INPUT-LIGAND-PDBQT: ENDBRANCH   1   7
INPUT-LIGAND-PDBQT: BRANCH   6  24
INPUT-LIGAND-PDBQT: ATOM     24  C   UNL     1      -3.699  -0.144  -1.036  1.00  0.00     0.060 C 
INPUT-LIGAND-PDBQT: BRANCH  24  25
INPUT-LIGAND-PDBQT: ATOM     25  C   UNL     1      -4.835  -1.069  -0.785  1.00  0.00    -0.046 A 
INPUT-LIGAND-PDBQT: ATOM     26  C   UNL     1      -6.044  -0.663  -0.269  1.00  0.00     0.005 A 
INPUT-LIGAND-PDBQT: ATOM     27  C   UNL     1      -4.669  -2.408  -1.088  1.00  0.00     0.005 A 
INPUT-LIGAND-PDBQT: ATOM     28  C   UNL     1      -7.076  -1.556  -0.051  1.00  0.00     0.021 A 
INPUT-LIGAND-PDBQT: ATOM     29  C   UNL     1      -5.668  -3.348  -0.891  1.00  0.00     0.021 A 
INPUT-LIGAND-PDBQT: ATOM     30  C   UNL     1      -6.856  -2.881  -0.371  1.00  0.00     0.041 A 
INPUT-LIGAND-PDBQT: ATOM     31  Cl  UNL     1      -8.194  -3.997  -0.082  1.00  0.00    -0.084 Cl
INPUT-LIGAND-PDBQT: ENDBRANCH  24  25
INPUT-LIGAND-PDBQT: ENDBRANCH   6  24
INPUT-LIGAND-PDBQT: TORSDOF 6


    FINAL DOCKED STATE:
    ________________________


Run:   1 / 20
Time taken for this run:   0.051s

DOCKED: MODEL        1
DOCKED: USER    Run = 1
DOCKED: USER
DOCKED: USER    Estimated Free Energy of Binding    =  -8.43 kcal/mol  [=(1)+(2)+(3)-(4)]
DOCKED: USER
DOCKED: USER    (1) Final Intermolecular Energy     = -10.22 kcal/mol
DOCKED: USER        vdW + Hbond + desolv Energy     = -10.10 kcal/mol
DOCKED: USER        Electrostatic Energy            =  -0.11 kcal/mol
DOCKED: USER        Moving Ligand-Fixed Receptor    = -10.22 kcal/mol
DOCKED: USER        Moving Ligand-Moving Receptor   =  +0.00 kcal/mol
DOCKED: USER    (2) Final Total Internal Energy     =  -2.15 kcal/mol
DOCKED: USER    (3) Torsional Free Energy           =  +1.79 kcal/mol
DOCKED: USER    (4) Unbound System's Energy         =  -2.15 kcal/mol
DOCKED: USER
DOCKED: USER
DOCKED: REMARK SMILES O=C(NCC(=O)N1CCCC[C@H]1Cc1ccc(Cl)cc1)c1ccc2ccccc2n1
DOCKED: REMARK SMILES IDX 7 1 8 2 9 3 10 4 11 5 12 6 5 7 6 8 4 9 3 10 2 11 1 12 21 14
DOCKED: REMARK SMILES IDX 22 15 30 16 23 17 29 18 24 19 28 20 25 21 27 22 26 23 13 24
DOCKED: REMARK SMILES IDX 14 25 15 26 20 27 16 28 19 29 17 30 18 31
DOCKED: REMARK H PARENT 3 13
DOCKED: USER                              x       y       z     vdW  Elec       q    Type
DOCKED: USER                           _______ _______ _______ _____ _____    ______ ____
DOCKED: ROOT
DOCKED: ATOM      1  N   UNL     1     141.035  76.973 220.958 -0.12 +0.14    -0.338 N  
DOCKED: ATOM      2  C   UNL     1     141.469  78.173 221.638 -0.31 -0.06    +0.120 C  
DOCKED: ATOM      3  C   UNL     1     141.467  79.389 220.775 -0.33 -0.01    +0.022 C  
DOCKED: ATOM      4  C   UNL     1     141.440  79.192 219.324 -0.25 -0.00    +0.004 C  
DOCKED: ATOM      5  C   UNL     1     141.218  77.836 218.781 -0.17 -0.01    +0.025 C  
DOCKED: ATOM      6  C   UNL     1     141.613  76.692 219.656 -0.21 -0.04    +0.089 C  
DOCKED: ENDROOT
DOCKED: BRANCH   1   7
DOCKED: ATOM      7  C   UNL     1     140.081  76.071 221.508 -0.23 -0.06    +0.242 C  
DOCKED: ATOM      8  O   UNL     1     139.117  76.468 222.221 -0.24 +0.06    -0.273 OA 
DOCKED: BRANCH   7   9
DOCKED: ATOM      9  C   UNL     1     140.263  74.627 221.208 -0.21 -0.04    +0.216 C  
DOCKED: BRANCH   9  10
DOCKED: ATOM     10  N   UNL     1     139.915  73.794 222.335 -0.07 +0.02    -0.342 N  
DOCKED: ATOM     11  C   UNL     1     140.609  72.554 222.464 -0.16 -0.02    +0.270 C  
DOCKED: ATOM     12  O   UNL     1     141.471  72.306 221.566 -0.19 +0.02    -0.268 OA 
DOCKED: ATOM     13  H   UNL     1     139.195  74.070 223.028 -0.54 -0.06    +0.164 HD 
DOCKED: BRANCH  11  14
DOCKED: ATOM     14  C   UNL     1     140.338  71.633 223.565 -0.33 -0.02    +0.128 A  
DOCKED: ATOM     15  C   UNL     1     139.678  70.458 223.261 -0.26 -0.01    +0.035 A  
DOCKED: ATOM     16  N   UNL     1     140.703  71.887 224.836 -0.28 +0.03    -0.243 NA 
DOCKED: ATOM     17  C   UNL     1     139.387  69.547 224.238 -0.32 -0.00    +0.013 A  
DOCKED: ATOM     18  C   UNL     1     140.435  71.009 225.840 -0.53 -0.01    +0.071 A  
DOCKED: ATOM     19  C   UNL     1     139.771  69.822 225.553 -0.45 -0.00    +0.000 A  
DOCKED: ATOM     20  C   UNL     1     140.835  71.328 227.122 -0.71 -0.01    +0.029 A  
DOCKED: ATOM     21  C   UNL     1     139.486  68.914 226.538 -0.53 -0.00    +0.010 A  
DOCKED: ATOM     22  C   UNL     1     140.545  70.412 228.109 -0.63 -0.00    +0.002 A  
DOCKED: ATOM     23  C   UNL     1     139.884  69.224 227.839 -0.62 -0.00    +0.001 A  
DOCKED: ENDBRANCH  11  14
DOCKED: ENDBRANCH   9  10
DOCKED: ENDBRANCH   7   9
DOCKED: ENDBRANCH   1   7
DOCKED: BRANCH   6  24
DOCKED: ATOM     24  C   UNL     1     143.107  76.484 219.748 -0.32 -0.04    +0.060 C  
DOCKED: BRANCH  24  25
DOCKED: ATOM     25  C   UNL     1     143.401  75.028 219.695 -0.35 +0.02    -0.046 A  
DOCKED: ATOM     26  C   UNL     1     142.685  74.137 218.930 -0.16 -0.00    +0.005 A  
DOCKED: ATOM     27  C   UNL     1     144.451  74.544 220.453 -0.48 -0.00    +0.005 A  
DOCKED: ATOM     28  C   UNL     1     142.991  72.789 218.908 -0.12 -0.00    +0.021 A  
DOCKED: ATOM     29  C   UNL     1     144.805  73.204 220.470 -0.49 -0.00    +0.021 A  
DOCKED: ATOM     30  C   UNL     1     144.050  72.360 219.684 -0.26 -0.00    +0.041 A  
DOCKED: ATOM     31  Cl  UNL     1     144.417  70.633 219.634 -0.27 -0.01    -0.084 Cl 
DOCKED: ENDBRANCH  24  25
DOCKED: ENDBRANCH   6  24
DOCKED: TORSDOF 6
DOCKED: TER
DOCKED: ENDMDL
________________________________________________________________________________


    FINAL DOCKED STATE:
    ________________________


Run:   2 / 20
Time taken for this run:   0.051s

DOCKED: MODEL        2
DOCKED: USER    Run = 2
DOCKED: USER
DOCKED: USER    Estimated Free Energy of Binding    =  -9.02 kcal/mol  [=(1)+(2)+(3)-(4)]
DOCKED: USER
DOCKED: USER    (1) Final Intermolecular Energy     = -10.81 kcal/mol
DOCKED: USER        vdW + Hbond + desolv Energy     = -10.74 kcal/mol
DOCKED: USER        Electrostatic Energy            =  -0.07 kcal/mol
DOCKED: USER        Moving Ligand-Fixed Receptor    = -10.81 kcal/mol
DOCKED: USER        Moving Ligand-Moving Receptor   =  +0.00 kcal/mol
DOCKED: USER    (2) Final Total Internal Energy     =  -1.76 kcal/mol
DOCKED: USER    (3) Torsional Free Energy           =  +1.79 kcal/mol
DOCKED: USER    (4) Unbound System's Energy         =  -1.76 kcal/mol
DOCKED: USER
DOCKED: USER
DOCKED: REMARK SMILES O=C(NCC(=O)N1CCCC[C@H]1Cc1ccc(Cl)cc1)c1ccc2ccccc2n1
DOCKED: REMARK SMILES IDX 7 1 8 2 9 3 10 4 11 5 12 6 5 7 6 8 4 9 3 10 2 11 1 12 21 14
DOCKED: REMARK SMILES IDX 22 15 30 16 23 17 29 18 24 19 28 20 25 21 27 22 26 23 13 24
DOCKED: REMARK SMILES IDX 14 25 15 26 20 27 16 28 19 29 17 30 18 31
DOCKED: REMARK H PARENT 3 13
DOCKED: USER                              x       y       z     vdW  Elec       q    Type
DOCKED: USER                           _______ _______ _______ _____ _____    ______ ____
DOCKED: ROOT
DOCKED: ATOM      1  N   UNL     1     140.663  75.553 220.076 -0.04 +0.10    -0.338 N  
DOCKED: ATOM      2  C   UNL     1     140.119  75.282 218.763 -0.04 -0.03    +0.120 C  
DOCKED: ATOM      3  C   UNL     1     141.149  74.933 217.744 -0.04 -0.01    +0.022 C  
DOCKED: ATOM      4  C   UNL     1     142.540  75.289 218.035 -0.16 -0.00    +0.004 C  
DOCKED: ATOM      5  C   UNL     1     142.894  75.786 219.381 -0.33 -0.01    +0.025 C  
DOCKED: ATOM      6  C   UNL     1     141.804  76.447 220.158 -0.25 -0.04    +0.089 C  
DOCKED: ENDROOT
DOCKED: BRANCH   1   7
DOCKED: ATOM      7  C   UNL     1     140.130  74.988 221.269 -0.20 -0.05    +0.242 C  
DOCKED: ATOM      8  O   UNL     1     140.050  75.646 222.344 -0.54 +0.04    -0.273 OA 
DOCKED: BRANCH   7   9
DOCKED: ATOM      9  C   UNL     1     139.664  73.579 221.200 -0.16 -0.04    +0.216 C  
DOCKED: BRANCH   9  10
DOCKED: ATOM     10  N   UNL     1     139.667  72.946 222.499 -0.13 +0.06    -0.342 N  
DOCKED: ATOM     11  C   UNL     1     139.839  71.530 222.529 -0.20 -0.05    +0.270 C  
DOCKED: ATOM     12  O   UNL     1     139.974  70.963 221.402 -0.10 +0.04    -0.268 OA 
DOCKED: ATOM     13  H   UNL     1     139.549  73.483 223.378 -0.45 -0.05    +0.164 HD 
DOCKED: BRANCH  11  14
DOCKED: ATOM     14  C   UNL     1     139.858  70.786 223.787 -0.30 -0.02    +0.128 A  
DOCKED: ATOM     15  C   UNL     1     139.270  69.536 223.793 -0.27 -0.01    +0.035 A  
DOCKED: ATOM     16  N   UNL     1     140.417  71.270 224.913 -0.32 +0.04    -0.243 NA 
DOCKED: ATOM     17  C   UNL     1     139.247  68.780 224.932 -0.40 -0.00    +0.013 A  
DOCKED: ATOM     18  C   UNL     1     140.418  70.552 226.069 -0.51 -0.01    +0.071 A  
DOCKED: ATOM     19  C   UNL     1     139.831  69.292 226.094 -0.49 -0.00    +0.000 A  
DOCKED: ATOM     20  C   UNL     1     141.008  71.103 227.189 -0.68 -0.00    +0.029 A  
DOCKED: ATOM     21  C   UNL     1     139.814  68.542 227.239 -0.61 -0.00    +0.010 A  
DOCKED: ATOM     22  C   UNL     1     140.987  70.345 228.338 -0.56 -0.00    +0.002 A  
DOCKED: ATOM     23  C   UNL     1     140.407  69.087 228.379 -0.64 -0.00    +0.001 A  
DOCKED: ENDBRANCH  11  14
DOCKED: ENDBRANCH   9  10
DOCKED: ENDBRANCH   7   9
DOCKED: ENDBRANCH   1   7
DOCKED: BRANCH   6  24
DOCKED: ATOM     24  C   UNL     1     141.457  77.832 219.664 -0.23 -0.03    +0.060 C  
DOCKED: BRANCH  24  25
DOCKED: ATOM     25  C   UNL     1     141.644  78.806 220.771 -0.30 +0.03    -0.046 A  
DOCKED: ATOM     26  C   UNL     1     141.809  80.158 220.572 -0.35 -0.00    +0.005 A  
DOCKED: ATOM     27  C   UNL     1     141.649  78.330 222.069 -0.37 -0.00    +0.005 A  
DOCKED: ATOM     28  C   UNL     1     141.979  81.031 221.630 -0.41 -0.01    +0.021 A  
DOCKED: ATOM     29  C   UNL     1     141.815  79.158 223.168 -0.57 -0.01    +0.021 A  
DOCKED: ATOM     30  C   UNL     1     141.977  80.501 222.905 -0.55 -0.01    +0.041 A  
DOCKED: ATOM     31  Cl  UNL     1     142.195  81.643 224.235 -0.51 +0.01    -0.084 Cl 
DOCKED: ENDBRANCH  24  25
DOCKED: ENDBRANCH   6  24
DOCKED: TORSDOF 6
DOCKED: TER
DOCKED: ENDMDL
________________________________________________________________________________


    FINAL DOCKED STATE:
    ________________________


Run:   3 / 20
Time taken for this run:   0.051s

DOCKED: MODEL        3
DOCKED: USER    Run = 3
DOCKED: USER
DOCKED: USER    Estimated Free Energy of Binding    =  -8.92 kcal/mol  [=(1)+(2)+(3)-(4)]
DOCKED: USER
DOCKED: USER    (1) Final Intermolecular Energy     = -10.71 kcal/mol
DOCKED: USER        vdW + Hbond + desolv Energy     = -10.58 kcal/mol
DOCKED: USER        Electrostatic Energy            =  -0.13 kcal/mol
DOCKED: USER        Moving Ligand-Fixed Receptor    = -10.71 kcal/mol
DOCKED: USER        Moving Ligand-Moving Receptor   =  +0.00 kcal/mol
DOCKED: USER    (2) Final Total Internal Energy     =  -1.80 kcal/mol
DOCKED: USER    (3) Torsional Free Energy           =  +1.79 kcal/mol
DOCKED: USER    (4) Unbound System's Energy         =  -1.80 kcal/mol
DOCKED: USER
DOCKED: USER
DOCKED: REMARK SMILES O=C(NCC(=O)N1CCCC[C@H]1Cc1ccc(Cl)cc1)c1ccc2ccccc2n1
DOCKED: REMARK SMILES IDX 7 1 8 2 9 3 10 4 11 5 12 6 5 7 6 8 4 9 3 10 2 11 1 12 21 14
DOCKED: REMARK SMILES IDX 22 15 30 16 23 17 29 18 24 19 28 20 25 21 27 22 26 23 13 24
DOCKED: REMARK SMILES IDX 14 25 15 26 20 27 16 28 19 29 17 30 18 31
DOCKED: REMARK H PARENT 3 13
DOCKED: USER                              x       y       z     vdW  Elec       q    Type
DOCKED: USER                           _______ _______ _______ _____ _____    ______ ____
DOCKED: ROOT
DOCKED: ATOM      1  N   UNL     1     141.449  76.390 220.690 -0.13 +0.16    -0.338 N  
DOCKED: ATOM      2  C   UNL     1     141.725  77.805 220.813 -0.25 -0.07    +0.120 C  
DOCKED: ATOM      3  C   UNL     1     141.788  78.522 219.507 -0.28 -0.01    +0.022 C  
DOCKED: ATOM      4  C   UNL     1     141.978  77.717 218.298 -0.25 -0.00    +0.004 C  
DOCKED: ATOM      5  C   UNL     1     141.899  76.244 218.389 -0.17 -0.01    +0.025 C  
DOCKED: ATOM      6  C   UNL     1     142.219  75.638 219.716 -0.25 -0.04    +0.089 C  
DOCKED: ENDROOT
DOCKED: BRANCH   1   7
DOCKED: ATOM      7  C   UNL     1     140.470  75.720 221.476 -0.24 -0.06    +0.242 C  
DOCKED: ATOM      8  O   UNL     1     139.832  76.306 222.395 -0.33 +0.05    -0.273 OA 
DOCKED: BRANCH   7   9
DOCKED: ATOM      9  C   UNL     1     140.222  74.287 221.169 -0.19 -0.04    +0.216 C  
DOCKED: BRANCH   9  10
DOCKED: ATOM     10  N   UNL     1     139.890  73.532 222.355 -0.11 +0.03    -0.342 N  
DOCKED: ATOM     11  C   UNL     1     140.599  72.312 222.566 -0.18 -0.02    +0.270 C  
DOCKED: ATOM     12  O   UNL     1     141.458  72.010 221.684 -0.19 +0.02    -0.268 OA 
DOCKED: ATOM     13  H   UNL     1     139.170  73.848 223.031 -0.53 -0.07    +0.164 HD 
DOCKED: BRANCH  11  14
DOCKED: ATOM     14  C   UNL     1     140.344  71.468 223.731 -0.34 -0.02    +0.128 A  
DOCKED: ATOM     15  C   UNL     1     139.676  70.277 223.518 -0.27 -0.01    +0.035 A  
DOCKED: ATOM     16  N   UNL     1     140.730  71.806 224.976 -0.29 +0.03    -0.243 NA 
DOCKED: ATOM     17  C   UNL     1     139.400  69.435 224.559 -0.35 -0.00    +0.013 A  
DOCKED: ATOM     18  C   UNL     1     140.477  70.998 226.042 -0.54 -0.01    +0.071 A  
DOCKED: ATOM     19  C   UNL     1     139.806  69.796 225.846 -0.47 -0.00    +0.000 A  
DOCKED: ATOM     20  C   UNL     1     140.899  71.401 227.293 -0.73 -0.01    +0.029 A  
DOCKED: ATOM     21  C   UNL     1     139.535  68.958 226.894 -0.54 -0.00    +0.010 A  
DOCKED: ATOM     22  C   UNL     1     140.623  70.555 228.343 -0.59 -0.00    +0.002 A  
DOCKED: ATOM     23  C   UNL     1     139.956  69.353 228.165 -0.64 -0.00    +0.001 A  
DOCKED: ENDBRANCH  11  14
DOCKED: ENDBRANCH   9  10
DOCKED: ENDBRANCH   7   9
DOCKED: ENDBRANCH   1   7
DOCKED: BRANCH   6  24
DOCKED: ATOM     24  C   UNL     1     143.693  75.648 220.050 -0.25 -0.04    +0.060 C  
DOCKED: BRANCH  24  25
DOCKED: ATOM     25  C   UNL     1     144.255  74.292 219.818 -0.38 +0.02    -0.046 A  
DOCKED: ATOM     26  C   UNL     1     145.347  73.798 220.494 -0.60 -0.00    +0.005 A  
DOCKED: ATOM     27  C   UNL     1     143.648  73.483 218.875 -0.20 -0.00    +0.005 A  
DOCKED: ATOM     28  C   UNL     1     145.839  72.530 220.249 -0.47 +0.00    +0.021 A  
DOCKED: ATOM     29  C   UNL     1     144.097  72.204 218.587 -0.15 +0.00    +0.021 A  
DOCKED: ATOM     30  C   UNL     1     145.195  71.765 219.296 -0.30 +0.01    +0.041 A  
DOCKED: ATOM     31  Cl  UNL     1     145.846  70.149 219.006 -0.38 -0.05    -0.084 Cl 
DOCKED: ENDBRANCH  24  25
DOCKED: ENDBRANCH   6  24
DOCKED: TORSDOF 6
DOCKED: TER
DOCKED: ENDMDL
________________________________________________________________________________


    FINAL DOCKED STATE:
    ________________________


Run:   4 / 20
Time taken for this run:   0.051s

DOCKED: MODEL        4
DOCKED: USER    Run = 4
DOCKED: USER
DOCKED: USER    Estimated Free Energy of Binding    =  -8.63 kcal/mol  [=(1)+(2)+(3)-(4)]
DOCKED: USER
DOCKED: USER    (1) Final Intermolecular Energy     = -10.42 kcal/mol
DOCKED: USER        vdW + Hbond + desolv Energy     = -10.40 kcal/mol
DOCKED: USER        Electrostatic Energy            =  -0.02 kcal/mol
DOCKED: USER        Moving Ligand-Fixed Receptor    = -10.42 kcal/mol
DOCKED: USER        Moving Ligand-Moving Receptor   =  +0.00 kcal/mol
DOCKED: USER    (2) Final Total Internal Energy     =  -1.68 kcal/mol
DOCKED: USER    (3) Torsional Free Energy           =  +1.79 kcal/mol
DOCKED: USER    (4) Unbound System's Energy         =  -1.68 kcal/mol
DOCKED: USER
DOCKED: USER
DOCKED: REMARK SMILES O=C(NCC(=O)N1CCCC[C@H]1Cc1ccc(Cl)cc1)c1ccc2ccccc2n1
DOCKED: REMARK SMILES IDX 7 1 8 2 9 3 10 4 11 5 12 6 5 7 6 8 4 9 3 10 2 11 1 12 21 14
DOCKED: REMARK SMILES IDX 22 15 30 16 23 17 29 18 24 19 28 20 25 21 27 22 26 23 13 24
DOCKED: REMARK SMILES IDX 14 25 15 26 20 27 16 28 19 29 17 30 18 31
DOCKED: REMARK H PARENT 3 13
DOCKED: USER                              x       y       z     vdW  Elec       q    Type
DOCKED: USER                           _______ _______ _______ _____ _____    ______ ____
DOCKED: ROOT
DOCKED: ATOM      1  N   UNL     1     141.703  74.850 219.873 -0.07 +0.11    -0.338 N  
DOCKED: ATOM      2  C   UNL     1     141.228  74.834 218.506 -0.05 -0.03    +0.120 C  
DOCKED: ATOM      3  C   UNL     1     142.129  75.533 217.547 -0.11 -0.01    +0.022 C  
DOCKED: ATOM      4  C   UNL     1     143.113  76.468 218.097 -0.29 -0.00    +0.004 C  
DOCKED: ATOM      5  C   UNL     1     143.312  76.533 219.559 -0.35 -0.02    +0.025 C  
DOCKED: ATOM      6  C   UNL     1     142.156  76.120 220.410 -0.19 -0.05    +0.089 C  
DOCKED: ENDROOT
DOCKED: BRANCH   1   7
DOCKED: ATOM      7  C   UNL     1     141.740  73.690 220.695 -0.17 -0.05    +0.242 C  
DOCKED: ATOM      8  O   UNL     1     142.788  73.000 220.834 -0.19 +0.04    -0.273 OA 
DOCKED: BRANCH   7   9
DOCKED: ATOM      9  C   UNL     1     140.483  73.315 221.394 -0.20 -0.03    +0.216 C  
DOCKED: BRANCH   9  10
DOCKED: ATOM     10  N   UNL     1     140.714  72.344 222.437 -0.17 +0.02    -0.342 N  
DOCKED: ATOM     11  C   UNL     1     139.565  71.807 223.091 -0.21 -0.06    +0.270 C  
DOCKED: ATOM     12  O   UNL     1     138.444  72.242 222.686 -0.15 +0.08    -0.268 OA 
DOCKED: ATOM     13  H   UNL     1     141.667  72.040 222.711 +0.08 +0.00    +0.164 HD 
DOCKED: BRANCH  11  14
DOCKED: ATOM     14  C   UNL     1     139.681  70.819 224.160 -0.33 -0.02    +0.128 A  
DOCKED: ATOM     15  C   UNL     1     139.116  69.578 223.941 -0.29 -0.01    +0.035 A  
DOCKED: ATOM     16  N   UNL     1     140.308  71.073 225.325 -0.33 +0.04    -0.243 NA 
DOCKED: ATOM     17  C   UNL     1     139.182  68.601 224.894 -0.40 -0.00    +0.013 A  
DOCKED: ATOM     18  C   UNL     1     140.399  70.131 226.302 -0.49 -0.01    +0.071 A  
DOCKED: ATOM     19  C   UNL     1     139.835  68.876 226.099 -0.53 -0.00    +0.000 A  
DOCKED: ATOM     20  C   UNL     1     141.054  70.454 227.473 -0.59 -0.01    +0.029 A  
DOCKED: ATOM     21  C   UNL     1     139.908  67.903 227.060 -0.64 -0.00    +0.010 A  
DOCKED: ATOM     22  C   UNL     1     141.124  69.472 228.436 -0.52 -0.00    +0.002 A  
DOCKED: ATOM     23  C   UNL     1     140.568  68.216 228.249 -0.64 -0.00    +0.001 A  
DOCKED: ENDBRANCH  11  14
DOCKED: ENDBRANCH   9  10
DOCKED: ENDBRANCH   7   9
DOCKED: ENDBRANCH   1   7
DOCKED: BRANCH   6  24
DOCKED: ATOM     24  C   UNL     1     141.036  77.135 220.449 -0.23 -0.03    +0.060 C  
DOCKED: BRANCH  24  25
DOCKED: ATOM     25  C   UNL     1     141.421  78.252 221.351 -0.34 +0.02    -0.046 A  
DOCKED: ATOM     26  C   UNL     1     141.834  79.484 220.899 -0.35 -0.00    +0.005 A  
DOCKED: ATOM     27  C   UNL     1     141.358  78.043 222.717 -0.46 -0.00    +0.005 A  
DOCKED: ATOM     28  C   UNL     1     142.182  80.497 221.772 -0.46 -0.01    +0.021 A  
DOCKED: ATOM     29  C   UNL     1     141.695  79.021 223.638 -0.60 -0.01    +0.021 A  
DOCKED: ATOM     30  C   UNL     1     142.102  80.234 223.125 -0.59 -0.01    +0.041 A  
DOCKED: ATOM     31  Cl  UNL     1     142.553  81.549 224.214 -0.55 +0.01    -0.084 Cl 
DOCKED: ENDBRANCH  24  25
DOCKED: ENDBRANCH   6  24
DOCKED: TORSDOF 6
DOCKED: TER
DOCKED: ENDMDL
________________________________________________________________________________


    FINAL DOCKED STATE:
    ________________________


Run:   5 / 20
Time taken for this run:   0.051s

DOCKED: MODEL        5
DOCKED: USER    Run = 5
DOCKED: USER
DOCKED: USER    Estimated Free Energy of Binding    =  -8.98 kcal/mol  [=(1)+(2)+(3)-(4)]
DOCKED: USER
DOCKED: USER    (1) Final Intermolecular Energy     = -10.77 kcal/mol
DOCKED: USER        vdW + Hbond + desolv Energy     = -10.69 kcal/mol
DOCKED: USER        Electrostatic Energy            =  -0.08 kcal/mol
DOCKED: USER        Moving Ligand-Fixed Receptor    = -10.77 kcal/mol
DOCKED: USER        Moving Ligand-Moving Receptor   =  +0.00 kcal/mol
DOCKED: USER    (2) Final Total Internal Energy     =  -1.73 kcal/mol
DOCKED: USER    (3) Torsional Free Energy           =  +1.79 kcal/mol
DOCKED: USER    (4) Unbound System's Energy         =  -1.73 kcal/mol
DOCKED: USER
DOCKED: USER
DOCKED: REMARK SMILES O=C(NCC(=O)N1CCCC[C@H]1Cc1ccc(Cl)cc1)c1ccc2ccccc2n1
DOCKED: REMARK SMILES IDX 7 1 8 2 9 3 10 4 11 5 12 6 5 7 6 8 4 9 3 10 2 11 1 12 21 14
DOCKED: REMARK SMILES IDX 22 15 30 16 23 17 29 18 24 19 28 20 25 21 27 22 26 23 13 24
DOCKED: REMARK SMILES IDX 14 25 15 26 20 27 16 28 19 29 17 30 18 31
DOCKED: REMARK H PARENT 3 13
DOCKED: USER                              x       y       z     vdW  Elec       q    Type
DOCKED: USER                           _______ _______ _______ _____ _____    ______ ____
DOCKED: ROOT
DOCKED: ATOM      1  N   UNL     1     140.490  75.446 220.097 -0.04 +0.10    -0.338 N  
DOCKED: ATOM      2  C   UNL     1     139.928  75.241 218.780 -0.03 -0.03    +0.120 C  
DOCKED: ATOM      3  C   UNL     1     140.947  74.975 217.725 -0.04 -0.01    +0.022 C  
DOCKED: ATOM      4  C   UNL     1     142.336  75.344 218.013 -0.14 -0.00    +0.004 C  
DOCKED: ATOM      5  C   UNL     1     142.703  75.768 219.379 -0.31 -0.01    +0.025 C  
DOCKED: ATOM      6  C   UNL     1     141.614  76.357 220.213 -0.24 -0.04    +0.089 C  
DOCKED: ENDROOT
DOCKED: BRANCH   1   7
DOCKED: ATOM      7  C   UNL     1     139.990  74.800 221.262 -0.19 -0.05    +0.242 C  
DOCKED: ATOM      8  O   UNL     1     139.778  75.427 222.338 -0.58 +0.04    -0.273 OA 
DOCKED: BRANCH   7   9
DOCKED: ATOM      9  C   UNL     1     139.722  73.341 221.165 -0.15 -0.04    +0.216 C  
DOCKED: BRANCH   9  10
DOCKED: ATOM     10  N   UNL     1     139.667  72.716 222.466 -0.15 +0.06    -0.342 N  
DOCKED: ATOM     11  C   UNL     1     139.929  71.314 222.523 -0.19 -0.04    +0.270 C  
DOCKED: ATOM     12  O   UNL     1     140.187  70.753 221.415 -0.10 +0.04    -0.268 OA 
DOCKED: ATOM     13  H   UNL     1     139.447  73.247 223.329 -0.43 -0.06    +0.164 HD 
DOCKED: BRANCH  11  14
DOCKED: ATOM     14  C   UNL     1     139.900  70.578 223.785 -0.28 -0.02    +0.128 A  
DOCKED: ATOM     15  C   UNL     1     139.248  69.361 223.794 -0.27 -0.01    +0.035 A  
DOCKED: ATOM     16  N   UNL     1     140.475  71.039 224.912 -0.31 +0.04    -0.243 NA 
DOCKED: ATOM     17  C   UNL     1     139.177  68.614 224.937 -0.41 -0.00    +0.013 A  
DOCKED: ATOM     18  C   UNL     1     140.430  70.330 226.073 -0.50 -0.01    +0.071 A  
DOCKED: ATOM     19  C   UNL     1     139.778  69.103 226.101 -0.51 -0.00    +0.000 A  
DOCKED: ATOM     20  C   UNL     1     141.039  70.857 227.194 -0.64 -0.00    +0.029 A  
DOCKED: ATOM     21  C   UNL     1     139.714  68.362 227.250 -0.61 -0.00    +0.010 A  
DOCKED: ATOM     22  C   UNL     1     140.970  70.108 228.347 -0.56 -0.00    +0.002 A  
DOCKED: ATOM     23  C   UNL     1     140.325  68.883 228.392 -0.65 -0.00    +0.001 A  
DOCKED: ENDBRANCH  11  14
DOCKED: ENDBRANCH   9  10
DOCKED: ENDBRANCH   7   9
DOCKED: ENDBRANCH   1   7
DOCKED: BRANCH   6  24
DOCKED: ATOM     24  C   UNL     1     141.229  77.762 219.808 -0.21 -0.03    +0.060 C  
DOCKED: BRANCH  24  25
DOCKED: ATOM     25  C   UNL     1     141.529  78.692 220.928 -0.31 +0.02    -0.046 A  
DOCKED: ATOM     26  C   UNL     1     141.527  78.313 222.250 -0.42 -0.00    +0.005 A  
DOCKED: ATOM     27  C   UNL     1     141.827  80.008 220.624 -0.35 -0.00    +0.005 A  
DOCKED: ATOM     28  C   UNL     1     141.811  79.210 223.262 -0.58 -0.01    +0.021 A  
DOCKED: ATOM     29  C   UNL     1     142.121  80.950 221.597 -0.40 -0.01    +0.021 A  
DOCKED: ATOM     30  C   UNL     1     142.102  80.511 222.903 -0.57 -0.01    +0.041 A  
DOCKED: ATOM     31  Cl  UNL     1     142.462  81.633 224.219 -0.53 +0.01    -0.084 Cl 
DOCKED: ENDBRANCH  24  25
DOCKED: ENDBRANCH   6  24
DOCKED: TORSDOF 6
DOCKED: TER
DOCKED: ENDMDL
________________________________________________________________________________


    FINAL DOCKED STATE:
    ________________________


Run:   6 / 20
Time taken for this run:   0.051s

DOCKED: MODEL        6
DOCKED: USER    Run = 6
DOCKED: USER
DOCKED: USER    Estimated Free Energy of Binding    =  -8.98 kcal/mol  [=(1)+(2)+(3)-(4)]
DOCKED: USER
DOCKED: USER    (1) Final Intermolecular Energy     = -10.77 kcal/mol
DOCKED: USER        vdW + Hbond + desolv Energy     = -10.63 kcal/mol
DOCKED: USER        Electrostatic Energy            =  -0.14 kcal/mol
DOCKED: USER        Moving Ligand-Fixed Receptor    = -10.77 kcal/mol
DOCKED: USER        Moving Ligand-Moving Receptor   =  +0.00 kcal/mol
DOCKED: USER    (2) Final Total Internal Energy     =  -1.75 kcal/mol
DOCKED: USER    (3) Torsional Free Energy           =  +1.79 kcal/mol
DOCKED: USER    (4) Unbound System's Energy         =  -1.75 kcal/mol
DOCKED: USER
DOCKED: USER
DOCKED: REMARK SMILES O=C(NCC(=O)N1CCCC[C@H]1Cc1ccc(Cl)cc1)c1ccc2ccccc2n1
DOCKED: REMARK SMILES IDX 7 1 8 2 9 3 10 4 11 5 12 6 5 7 6 8 4 9 3 10 2 11 1 12 21 14
DOCKED: REMARK SMILES IDX 22 15 30 16 23 17 29 18 24 19 28 20 25 21 27 22 26 23 13 24
DOCKED: REMARK SMILES IDX 14 25 15 26 20 27 16 28 19 29 17 30 18 31
DOCKED: REMARK H PARENT 3 13
DOCKED: USER                              x       y       z     vdW  Elec       q    Type
DOCKED: USER                           _______ _______ _______ _____ _____    ______ ____
DOCKED: ROOT
DOCKED: ATOM      1  N   UNL     1     141.425  76.336 220.749 -0.13 +0.15    -0.338 N  
DOCKED: ATOM      2  C   UNL     1     141.752  77.743 220.827 -0.24 -0.07    +0.120 C  
DOCKED: ATOM      3  C   UNL     1     141.816  78.421 219.501 -0.28 -0.01    +0.022 C  
DOCKED: ATOM      4  C   UNL     1     141.956  77.577 218.312 -0.24 -0.00    +0.004 C  
DOCKED: ATOM      5  C   UNL     1     141.828  76.111 218.446 -0.16 -0.01    +0.025 C  
DOCKED: ATOM      6  C   UNL     1     142.150  75.531 219.783 -0.24 -0.04    +0.089 C  
DOCKED: ENDROOT
DOCKED: BRANCH   1   7
DOCKED: ATOM      7  C   UNL     1     140.437  75.723 221.570 -0.25 -0.06    +0.242 C  
DOCKED: ATOM      8  O   UNL     1     139.957  76.300 222.585 -0.35 +0.05    -0.273 OA 
DOCKED: BRANCH   7   9
DOCKED: ATOM      9  C   UNL     1     139.986  74.361 221.181 -0.19 -0.04    +0.216 C  
DOCKED: BRANCH   9  10
DOCKED: ATOM     10  N   UNL     1     139.672  73.548 222.333 -0.13 +0.05    -0.342 N  
DOCKED: ATOM     11  C   UNL     1     140.521  72.431 222.589 -0.17 -0.02    +0.270 C  
DOCKED: ATOM     12  O   UNL     1     141.476  72.261 221.772 -0.20 +0.02    -0.268 OA 
DOCKED: ATOM     13  H   UNL     1     138.868  73.754 222.955 -0.54 -0.09    +0.164 HD 
DOCKED: BRANCH  11  14
DOCKED: ATOM     14  C   UNL     1     140.296  71.541 223.726 -0.34 -0.02    +0.128 A  
DOCKED: ATOM     15  C   UNL     1     139.639  70.351 223.480 -0.28 -0.01    +0.035 A  
DOCKED: ATOM     16  N   UNL     1     140.701  71.837 224.976 -0.29 +0.03    -0.243 NA 
DOCKED: ATOM     17  C   UNL     1     139.391  69.467 224.493 -0.34 -0.00    +0.013 A  
DOCKED: ATOM     18  C   UNL     1     140.477  70.987 226.015 -0.54 -0.01    +0.071 A  
DOCKED: ATOM     19  C   UNL     1     139.816  69.785 225.786 -0.47 -0.00    +0.000 A  
DOCKED: ATOM     20  C   UNL     1     140.916  71.348 227.272 -0.72 -0.01    +0.029 A  
DOCKED: ATOM     21  C   UNL     1     139.574  68.906 226.807 -0.55 -0.00    +0.010 A  
DOCKED: ATOM     22  C   UNL     1     140.669  70.460 228.295 -0.59 -0.00    +0.002 A  
DOCKED: ATOM     23  C   UNL     1     140.013  69.258 228.084 -0.64 -0.00    +0.001 A  
DOCKED: ENDBRANCH  11  14
DOCKED: ENDBRANCH   9  10
DOCKED: ENDBRANCH   7   9
DOCKED: ENDBRANCH   1   7
DOCKED: BRANCH   6  24
DOCKED: ATOM     24  C   UNL     1     143.629  75.498 220.092 -0.28 -0.04    +0.060 C  
DOCKED: BRANCH  24  25
DOCKED: ATOM     25  C   UNL     1     144.160  74.142 219.794 -0.37 +0.01    -0.046 A  
DOCKED: ATOM     26  C   UNL     1     143.516  73.237 218.982 -0.18 -0.00    +0.005 A  
DOCKED: ATOM     27  C   UNL     1     145.366  73.771 220.361 -0.58 -0.00    +0.005 A  
DOCKED: ATOM     28  C   UNL     1     144.045  71.985 218.731 -0.16 +0.00    +0.021 A  
DOCKED: ATOM     29  C   UNL     1     145.943  72.530 220.144 -0.48 +0.01    +0.021 A  
DOCKED: ATOM     30  C   UNL     1     145.251  71.667 219.323 -0.30 +0.01    +0.041 A  
DOCKED: ATOM     31  Cl  UNL     1     145.900  70.060 218.980 -0.41 -0.05    -0.084 Cl 
DOCKED: ENDBRANCH  24  25
DOCKED: ENDBRANCH   6  24
DOCKED: TORSDOF 6
DOCKED: TER
DOCKED: ENDMDL
________________________________________________________________________________


    FINAL DOCKED STATE:
    ________________________


Run:   7 / 20
Time taken for this run:   0.051s

DOCKED: MODEL        7
DOCKED: USER    Run = 7
DOCKED: USER
DOCKED: USER    Estimated Free Energy of Binding    =  -8.05 kcal/mol  [=(1)+(2)+(3)-(4)]
DOCKED: USER
DOCKED: USER    (1) Final Intermolecular Energy     =  -9.84 kcal/mol
DOCKED: USER        vdW + Hbond + desolv Energy     =  -9.82 kcal/mol
DOCKED: USER        Electrostatic Energy            =  -0.01 kcal/mol
DOCKED: USER        Moving Ligand-Fixed Receptor    =  -9.84 kcal/mol
DOCKED: USER        Moving Ligand-Moving Receptor   =  +0.00 kcal/mol
DOCKED: USER    (2) Final Total Internal Energy     =  -2.45 kcal/mol
DOCKED: USER    (3) Torsional Free Energy           =  +1.79 kcal/mol
DOCKED: USER    (4) Unbound System's Energy         =  -2.45 kcal/mol
DOCKED: USER
DOCKED: USER
DOCKED: REMARK SMILES O=C(NCC(=O)N1CCCC[C@H]1Cc1ccc(Cl)cc1)c1ccc2ccccc2n1
DOCKED: REMARK SMILES IDX 7 1 8 2 9 3 10 4 11 5 12 6 5 7 6 8 4 9 3 10 2 11 1 12 21 14
DOCKED: REMARK SMILES IDX 22 15 30 16 23 17 29 18 24 19 28 20 25 21 27 22 26 23 13 24
DOCKED: REMARK SMILES IDX 14 25 15 26 20 27 16 28 19 29 17 30 18 31
DOCKED: REMARK H PARENT 3 13
DOCKED: USER                              x       y       z     vdW  Elec       q    Type
DOCKED: USER                           _______ _______ _______ _____ _____    ______ ____
DOCKED: ROOT
DOCKED: ATOM      1  N   UNL     1     142.967  73.009 220.320 -0.10 +0.06    -0.338 N  
DOCKED: ATOM      2  C   UNL     1     143.656  71.941 219.629 -0.18 -0.01    +0.120 C  
DOCKED: ATOM      3  C   UNL     1     145.141  72.011 219.741 -0.35 +0.00    +0.022 C  
DOCKED: ATOM      4  C   UNL     1     145.733  73.289 220.143 -0.57 +0.00    +0.004 C  
DOCKED: ATOM      5  C   UNL     1     144.852  74.381 220.608 -0.41 -0.01    +0.025 C  
DOCKED: ATOM      6  C   UNL     1     143.445  74.364 220.108 -0.33 -0.03    +0.089 C  
DOCKED: ENDROOT
DOCKED: BRANCH   1   7
DOCKED: ATOM      7  C   UNL     1     141.857  72.786 221.181 -0.14 -0.03    +0.242 C  
DOCKED: ATOM      8  O   UNL     1     141.826  71.826 222.001 -0.09 +0.01    -0.273 OA 
DOCKED: BRANCH   7   9
DOCKED: ATOM      9  C   UNL     1     140.720  73.738 221.080 -0.19 -0.03    +0.216 C  
DOCKED: BRANCH   9  10
DOCKED: ATOM     10  N   UNL     1     141.064  75.044 221.593 -0.19 +0.07    -0.342 N  
DOCKED: ATOM     11  C   UNL     1     139.987  75.947 221.842 -0.24 -0.06    +0.270 C  
DOCKED: ATOM     12  O   UNL     1     138.825  75.507 221.586 -0.17 +0.06    -0.268 OA 
DOCKED: ATOM     13  H   UNL     1     142.044  75.328 221.776 -0.34 -0.07    +0.164 HD 
DOCKED: BRANCH  11  14
DOCKED: ATOM     14  C   UNL     1     140.218  77.293 222.361 -0.33 -0.03    +0.128 A  
DOCKED: ATOM     15  C   UNL     1     139.108  78.039 222.707 -0.30 -0.01    +0.035 A  
DOCKED: ATOM     16  N   UNL     1     141.450  77.817 222.509 -0.24 +0.12    -0.243 NA 
DOCKED: ATOM     17  C   UNL     1     139.243  79.307 223.198 -0.36 -0.00    +0.013 A  
DOCKED: ATOM     18  C   UNL     1     141.632  79.075 222.994 -0.51 -0.03    +0.071 A  
DOCKED: ATOM     19  C   UNL     1     140.526  79.840 223.348 -0.47 -0.00    +0.000 A  
DOCKED: ATOM     20  C   UNL     1     142.920  79.555 223.122 -0.54 -0.01    +0.029 A  
DOCKED: ATOM     21  C   UNL     1     140.672  81.109 223.840 -0.33 -0.00    +0.010 A  
DOCKED: ATOM     22  C   UNL     1     143.061  80.831 223.617 -0.62 -0.00    +0.002 A  
DOCKED: ATOM     23  C   UNL     1     141.969  81.607 223.974 -0.53 -0.00    +0.001 A  
DOCKED: ENDBRANCH  11  14
DOCKED: ENDBRANCH   9  10
DOCKED: ENDBRANCH   7   9
DOCKED: ENDBRANCH   1   7
DOCKED: BRANCH   6  24
DOCKED: ATOM     24  C   UNL     1     143.308  74.778 218.661 -0.22 -0.02    +0.060 C  
DOCKED: BRANCH  24  25
DOCKED: ATOM     25  C   UNL     1     142.975  76.225 218.597 -0.29 +0.03    -0.046 A  
DOCKED: ATOM     26  C   UNL     1     142.495  76.941 219.670 -0.35 -0.00    +0.005 A  
DOCKED: ATOM     27  C   UNL     1     143.159  76.887 217.398 -0.27 -0.00    +0.005 A  
DOCKED: ATOM     28  C   UNL     1     142.198  78.287 219.568 -0.24 -0.01    +0.021 A  
DOCKED: ATOM     29  C   UNL     1     142.879  78.235 217.237 -0.25 -0.02    +0.021 A  
DOCKED: ATOM     30  C   UNL     1     142.400  78.898 218.347 -0.30 -0.03    +0.041 A  
DOCKED: ATOM     31  Cl  UNL     1     142.012  80.618 218.250 -0.38 +0.06    -0.084 Cl 
DOCKED: ENDBRANCH  24  25
DOCKED: ENDBRANCH   6  24
DOCKED: TORSDOF 6
DOCKED: TER
DOCKED: ENDMDL
________________________________________________________________________________


    FINAL DOCKED STATE:
    ________________________


Run:   8 / 20
Time taken for this run:   0.051s

DOCKED: MODEL        8
DOCKED: USER    Run = 8
DOCKED: USER
DOCKED: USER    Estimated Free Energy of Binding    =  -9.04 kcal/mol  [=(1)+(2)+(3)-(4)]
DOCKED: USER
DOCKED: USER    (1) Final Intermolecular Energy     = -10.83 kcal/mol
DOCKED: USER        vdW + Hbond + desolv Energy     = -10.75 kcal/mol
DOCKED: USER        Electrostatic Energy            =  -0.08 kcal/mol
DOCKED: USER        Moving Ligand-Fixed Receptor    = -10.83 kcal/mol
DOCKED: USER        Moving Ligand-Moving Receptor   =  +0.00 kcal/mol
DOCKED: USER    (2) Final Total Internal Energy     =  -1.75 kcal/mol
DOCKED: USER    (3) Torsional Free Energy           =  +1.79 kcal/mol
DOCKED: USER    (4) Unbound System's Energy         =  -1.75 kcal/mol
DOCKED: USER
DOCKED: USER
DOCKED: REMARK SMILES O=C(NCC(=O)N1CCCC[C@H]1Cc1ccc(Cl)cc1)c1ccc2ccccc2n1
DOCKED: REMARK SMILES IDX 7 1 8 2 9 3 10 4 11 5 12 6 5 7 6 8 4 9 3 10 2 11 1 12 21 14
DOCKED: REMARK SMILES IDX 22 15 30 16 23 17 29 18 24 19 28 20 25 21 27 22 26 23 13 24
DOCKED: REMARK SMILES IDX 14 25 15 26 20 27 16 28 19 29 17 30 18 31
DOCKED: REMARK H PARENT 3 13
DOCKED: USER                              x       y       z     vdW  Elec       q    Type
DOCKED: USER                           _______ _______ _______ _____ _____    ______ ____
DOCKED: ROOT
DOCKED: ATOM      1  N   UNL     1     140.696  75.474 220.071 -0.04 +0.10    -0.338 N  
DOCKED: ATOM      2  C   UNL     1     140.210  75.193 218.738 -0.04 -0.03    +0.120 C  
DOCKED: ATOM      3  C   UNL     1     141.286  74.870 217.759 -0.05 -0.01    +0.022 C  
DOCKED: ATOM      4  C   UNL     1     142.657  75.257 218.103 -0.17 -0.00    +0.004 C  
DOCKED: ATOM      5  C   UNL     1     142.947  75.760 219.462 -0.34 -0.01    +0.025 C  
DOCKED: ATOM      6  C   UNL     1     141.813  76.394 220.197 -0.25 -0.04    +0.089 C  
DOCKED: ENDROOT
DOCKED: BRANCH   1   7
DOCKED: ATOM      7  C   UNL     1     140.131  74.896 221.241 -0.20 -0.05    +0.242 C  
DOCKED: ATOM      8  O   UNL     1     139.973  75.555 222.306 -0.55 +0.04    -0.273 OA 
DOCKED: BRANCH   7   9
DOCKED: ATOM      9  C   UNL     1     139.726  73.468 221.162 -0.15 -0.04    +0.216 C  
DOCKED: BRANCH   9  10
DOCKED: ATOM     10  N   UNL     1     139.677  72.848 222.466 -0.14 +0.06    -0.342 N  
DOCKED: ATOM     11  C   UNL     1     139.887  71.438 222.522 -0.19 -0.04    +0.270 C  
DOCKED: ATOM     12  O   UNL     1     140.098  70.864 221.410 -0.10 +0.04    -0.268 OA 
DOCKED: ATOM     13  H   UNL     1     139.497  73.390 223.331 -0.45 -0.06    +0.164 HD 
DOCKED: BRANCH  11  14
DOCKED: ATOM     14  C   UNL     1     139.858  70.707 223.787 -0.29 -0.02    +0.128 A  
DOCKED: ATOM     15  C   UNL     1     139.219  69.483 223.798 -0.27 -0.01    +0.035 A  
DOCKED: ATOM     16  N   UNL     1     140.423  71.179 224.915 -0.31 +0.04    -0.243 NA 
DOCKED: ATOM     17  C   UNL     1     139.150  68.741 224.944 -0.40 -0.00    +0.013 A  
DOCKED: ATOM     18  C   UNL     1     140.380  70.474 226.078 -0.51 -0.01    +0.071 A  
DOCKED: ATOM     19  C   UNL     1     139.740  69.240 226.108 -0.49 -0.00    +0.000 A  
DOCKED: ATOM     20  C   UNL     1     140.977  71.012 227.200 -0.67 -0.00    +0.029 A  
DOCKED: ATOM     21  C   UNL     1     139.677  68.504 227.261 -0.60 -0.00    +0.010 A  
DOCKED: ATOM     22  C   UNL     1     140.911  70.267 228.356 -0.54 -0.00    +0.002 A  
DOCKED: ATOM     23  C   UNL     1     140.277  69.035 228.403 -0.64 -0.00    +0.001 A  
DOCKED: ENDBRANCH  11  14
DOCKED: ENDBRANCH   9  10
DOCKED: ENDBRANCH   7   9
DOCKED: ENDBRANCH   1   7
DOCKED: BRANCH   6  24
DOCKED: ATOM     24  C   UNL     1     141.454  77.772 219.691 -0.23 -0.03    +0.060 C  
DOCKED: BRANCH  24  25
DOCKED: ATOM     25  C   UNL     1     141.644  78.759 220.786 -0.30 +0.03    -0.046 A  
DOCKED: ATOM     26  C   UNL     1     141.862  80.100 220.569 -0.34 -0.00    +0.005 A  
DOCKED: ATOM     27  C   UNL     1     141.598  78.306 222.092 -0.38 -0.00    +0.005 A  
DOCKED: ATOM     28  C   UNL     1     142.034  80.985 221.616 -0.41 -0.01    +0.021 A  
DOCKED: ATOM     29  C   UNL     1     141.763  79.148 223.181 -0.57 -0.01    +0.021 A  
DOCKED: ATOM     30  C   UNL     1     141.978  80.480 222.899 -0.55 -0.01    +0.041 A  
DOCKED: ATOM     31  Cl  UNL     1     142.201  81.637 224.215 -0.54 +0.01    -0.084 Cl 
DOCKED: ENDBRANCH  24  25
DOCKED: ENDBRANCH   6  24
DOCKED: TORSDOF 6
DOCKED: TER
DOCKED: ENDMDL
________________________________________________________________________________


    FINAL DOCKED STATE:
    ________________________


Run:   9 / 20
Time taken for this run:   0.051s

DOCKED: MODEL        9
DOCKED: USER    Run = 9
DOCKED: USER
DOCKED: USER    Estimated Free Energy of Binding    =  -9.06 kcal/mol  [=(1)+(2)+(3)-(4)]
DOCKED: USER
DOCKED: USER    (1) Final Intermolecular Energy     = -10.85 kcal/mol
DOCKED: USER        vdW + Hbond + desolv Energy     = -10.78 kcal/mol
DOCKED: USER        Electrostatic Energy            =  -0.06 kcal/mol
DOCKED: USER        Moving Ligand-Fixed Receptor    = -10.85 kcal/mol
DOCKED: USER        Moving Ligand-Moving Receptor   =  +0.00 kcal/mol
DOCKED: USER    (2) Final Total Internal Energy     =  -1.75 kcal/mol
DOCKED: USER    (3) Torsional Free Energy           =  +1.79 kcal/mol
DOCKED: USER    (4) Unbound System's Energy         =  -1.75 kcal/mol
DOCKED: USER
DOCKED: USER
DOCKED: REMARK SMILES O=C(NCC(=O)N1CCCC[C@H]1Cc1ccc(Cl)cc1)c1ccc2ccccc2n1
DOCKED: REMARK SMILES IDX 7 1 8 2 9 3 10 4 11 5 12 6 5 7 6 8 4 9 3 10 2 11 1 12 21 14
DOCKED: REMARK SMILES IDX 22 15 30 16 23 17 29 18 24 19 28 20 25 21 27 22 26 23 13 24
DOCKED: REMARK SMILES IDX 14 25 15 26 20 27 16 28 19 29 17 30 18 31
DOCKED: REMARK H PARENT 3 13
DOCKED: USER                              x       y       z     vdW  Elec       q    Type
DOCKED: USER                           _______ _______ _______ _____ _____    ______ ____
DOCKED: ROOT
DOCKED: ATOM      1  N   UNL     1     140.451  75.305 220.260 -0.05 +0.09    -0.338 N  
DOCKED: ATOM      2  C   UNL     1     140.035  75.036 218.901 -0.04 -0.03    +0.120 C  
DOCKED: ATOM      3  C   UNL     1     141.167  74.795 217.961 -0.05 -0.01    +0.022 C  
DOCKED: ATOM      4  C   UNL     1     142.500  75.241 218.373 -0.18 -0.00    +0.004 C  
DOCKED: ATOM      5  C   UNL     1     142.707  75.720 219.755 -0.33 -0.01    +0.025 C  
DOCKED: ATOM      6  C   UNL     1     141.512  76.276 220.457 -0.25 -0.04    +0.089 C  
DOCKED: ENDROOT
DOCKED: BRANCH   1   7
DOCKED: ATOM      7  C   UNL     1     139.868  74.667 221.390 -0.20 -0.04    +0.242 C  
DOCKED: ATOM      8  O   UNL     1     139.582  75.301 222.445 -0.59 +0.04    -0.273 OA 
DOCKED: BRANCH   7   9
DOCKED: ATOM      9  C   UNL     1     139.604  73.209 221.282 -0.15 -0.04    +0.216 C  
DOCKED: BRANCH   9  10
DOCKED: ATOM     10  N   UNL     1     139.657  72.554 222.569 -0.16 +0.07    -0.342 N  
DOCKED: ATOM     11  C   UNL     1     139.733  71.129 222.568 -0.17 -0.05    +0.270 C  
DOCKED: ATOM     12  O   UNL     1     139.746  70.575 221.427 -0.09 +0.04    -0.268 OA 
DOCKED: ATOM     13  H   UNL     1     139.641  73.082 223.461 -0.38 -0.05    +0.164 HD 
DOCKED: BRANCH  11  14
DOCKED: ATOM     14  C   UNL     1     139.791  70.364 223.811 -0.26 -0.02    +0.128 A  
DOCKED: ATOM     15  C   UNL     1     139.199  69.116 223.816 -0.27 -0.01    +0.035 A  
DOCKED: ATOM     16  N   UNL     1     140.390  70.825 224.926 -0.29 +0.04    -0.243 NA 
DOCKED: ATOM     17  C   UNL     1     139.212  68.340 224.941 -0.41 -0.00    +0.013 A  
DOCKED: ATOM     18  C   UNL     1     140.428  70.088 226.069 -0.48 -0.01    +0.071 A  
DOCKED: ATOM     19  C   UNL     1     139.837  68.830 226.091 -0.53 -0.00    +0.000 A  
DOCKED: ATOM     20  C   UNL     1     141.056  70.617 227.177 -0.61 -0.00    +0.029 A  
DOCKED: ATOM     21  C   UNL     1     139.856  68.060 227.224 -0.63 -0.00    +0.010 A  
DOCKED: ATOM     22  C   UNL     1     141.072  69.839 228.313 -0.57 -0.00    +0.002 A  
DOCKED: ATOM     23  C   UNL     1     140.488  68.583 228.352 -0.67 -0.00    +0.001 A  
DOCKED: ENDBRANCH  11  14
DOCKED: ENDBRANCH   9  10
DOCKED: ENDBRANCH   7   9
DOCKED: ENDBRANCH   1   7
DOCKED: BRANCH   6  24
DOCKED: ATOM     24  C   UNL     1     141.104  77.647 219.971 -0.21 -0.03    +0.060 C  
DOCKED: BRANCH  24  25
DOCKED: ATOM     25  C   UNL     1     141.464  78.658 221.000 -0.32 +0.02    -0.046 A  
DOCKED: ATOM     26  C   UNL     1     141.822  79.952 220.700 -0.35 -0.00    +0.005 A  
DOCKED: ATOM     27  C   UNL     1     141.436  78.278 222.329 -0.45 -0.00    +0.005 A  
DOCKED: ATOM     28  C   UNL     1     142.149  80.861 221.687 -0.43 -0.01    +0.021 A  
DOCKED: ATOM     29  C   UNL     1     141.753  79.146 223.361 -0.59 -0.01    +0.021 A  
DOCKED: ATOM     30  C   UNL     1     142.105  80.429 222.998 -0.58 -0.01    +0.041 A  
DOCKED: ATOM     31  Cl  UNL     1     142.527  81.614 224.237 -0.52 +0.01    -0.084 Cl 
DOCKED: ENDBRANCH  24  25
DOCKED: ENDBRANCH   6  24
DOCKED: TORSDOF 6
DOCKED: TER
DOCKED: ENDMDL
________________________________________________________________________________


    FINAL DOCKED STATE:
    ________________________


Run:   10 / 20
Time taken for this run:   0.051s

DOCKED: MODEL        10
DOCKED: USER    Run = 10
DOCKED: USER
DOCKED: USER    Estimated Free Energy of Binding    =  -8.85 kcal/mol  [=(1)+(2)+(3)-(4)]
DOCKED: USER
DOCKED: USER    (1) Final Intermolecular Energy     = -10.64 kcal/mol
DOCKED: USER        vdW + Hbond + desolv Energy     = -10.52 kcal/mol
DOCKED: USER        Electrostatic Energy            =  -0.13 kcal/mol
DOCKED: USER        Moving Ligand-Fixed Receptor    = -10.64 kcal/mol
DOCKED: USER        Moving Ligand-Moving Receptor   =  +0.00 kcal/mol
DOCKED: USER    (2) Final Total Internal Energy     =  -1.83 kcal/mol
DOCKED: USER    (3) Torsional Free Energy           =  +1.79 kcal/mol
DOCKED: USER    (4) Unbound System's Energy         =  -1.83 kcal/mol
DOCKED: USER
DOCKED: USER
DOCKED: REMARK SMILES O=C(NCC(=O)N1CCCC[C@H]1Cc1ccc(Cl)cc1)c1ccc2ccccc2n1
DOCKED: REMARK SMILES IDX 7 1 8 2 9 3 10 4 11 5 12 6 5 7 6 8 4 9 3 10 2 11 1 12 21 14
DOCKED: REMARK SMILES IDX 22 15 30 16 23 17 29 18 24 19 28 20 25 21 27 22 26 23 13 24
DOCKED: REMARK SMILES IDX 14 25 15 26 20 27 16 28 19 29 17 30 18 31
DOCKED: REMARK H PARENT 3 13
DOCKED: USER                              x       y       z     vdW  Elec       q    Type
DOCKED: USER                           _______ _______ _______ _____ _____    ______ ____
DOCKED: ROOT
DOCKED: ATOM      1  N   UNL     1     141.439  76.498 220.675 -0.12 +0.16    -0.338 N  
DOCKED: ATOM      2  C   UNL     1     141.749  77.895 220.885 -0.26 -0.07    +0.120 C  
DOCKED: ATOM      3  C   UNL     1     141.774  78.702 219.632 -0.27 -0.01    +0.022 C  
DOCKED: ATOM      4  C   UNL     1     141.897  77.982 218.362 -0.25 -0.00    +0.004 C  
DOCKED: ATOM      5  C   UNL     1     141.792  76.508 218.353 -0.17 -0.01    +0.025 C  
DOCKED: ATOM      6  C   UNL     1     142.154  75.804 219.619 -0.24 -0.04    +0.089 C  
DOCKED: ENDROOT
DOCKED: BRANCH   1   7
DOCKED: ATOM      7  C   UNL     1     140.480  75.791 221.452 -0.24 -0.06    +0.242 C  
DOCKED: ATOM      8  O   UNL     1     139.797  76.357 222.351 -0.32 +0.06    -0.273 OA 
DOCKED: BRANCH   7   9
DOCKED: ATOM      9  C   UNL     1     140.309  74.343 221.162 -0.20 -0.04    +0.216 C  
DOCKED: BRANCH   9  10
DOCKED: ATOM     10  N   UNL     1     139.954  73.594 222.346 -0.11 +0.03    -0.342 N  
DOCKED: ATOM     11  C   UNL     1     140.616  72.346 222.546 -0.18 -0.02    +0.270 C  
DOCKED: ATOM     12  O   UNL     1     141.458  72.016 221.655 -0.18 +0.02    -0.268 OA 
DOCKED: ATOM     13  H   UNL     1     139.252  73.935 223.028 -0.53 -0.06    +0.164 HD 
DOCKED: BRANCH  11  14
DOCKED: ATOM     14  C   UNL     1     140.336  71.506 223.707 -0.34 -0.02    +0.128 A  
DOCKED: ATOM     15  C   UNL     1     139.666  70.318 223.484 -0.27 -0.01    +0.035 A  
DOCKED: ATOM     16  N   UNL     1     140.701  71.845 224.959 -0.29 +0.03    -0.243 NA 
DOCKED: ATOM     17  C   UNL     1     139.367  69.480 224.521 -0.35 -0.00    +0.013 A  
DOCKED: ATOM     18  C   UNL     1     140.424  71.040 226.021 -0.54 -0.01    +0.071 A  
DOCKED: ATOM     19  C   UNL     1     139.751  69.842 225.815 -0.47 -0.00    +0.000 A  
DOCKED: ATOM     20  C   UNL     1     140.825  71.444 227.278 -0.73 -0.01    +0.029 A  
DOCKED: ATOM     21  C   UNL     1     139.457  69.007 226.860 -0.53 -0.00    +0.010 A  
DOCKED: ATOM     22  C   UNL     1     140.526  70.602 228.325 -0.60 -0.00    +0.002 A  
DOCKED: ATOM     23  C   UNL     1     139.856  69.403 228.138 -0.63 -0.00    +0.001 A  
DOCKED: ENDBRANCH  11  14
DOCKED: ENDBRANCH   9  10
DOCKED: ENDBRANCH   7   9
DOCKED: ENDBRANCH   1   7
DOCKED: BRANCH   6  24
DOCKED: ATOM     24  C   UNL     1     143.640  75.764 219.891 -0.29 -0.04    +0.060 C  
DOCKED: BRANCH  24  25
DOCKED: ATOM     25  C   UNL     1     144.144  74.388 219.643 -0.35 +0.02    -0.046 A  
DOCKED: ATOM     26  C   UNL     1     143.689  73.585 218.623 -0.18 -0.00    +0.005 A  
DOCKED: ATOM     27  C   UNL     1     145.126  73.889 220.480 -0.57 -0.00    +0.005 A  
DOCKED: ATOM     28  C   UNL     1     144.185  72.310 218.426 -0.15 +0.00    +0.021 A  
DOCKED: ATOM     29  C   UNL     1     145.661  72.620 220.330 -0.50 +0.00    +0.021 A  
DOCKED: ATOM     30  C   UNL     1     145.164  71.863 219.291 -0.30 +0.01    +0.041 A  
DOCKED: ATOM     31  Cl  UNL     1     145.779  70.231 219.013 -0.37 -0.05    -0.084 Cl 
DOCKED: ENDBRANCH  24  25
DOCKED: ENDBRANCH   6  24
DOCKED: TORSDOF 6
DOCKED: TER
DOCKED: ENDMDL
________________________________________________________________________________


    FINAL DOCKED STATE:
    ________________________


Run:   11 / 20
Time taken for this run:   0.051s

DOCKED: MODEL        11
DOCKED: USER    Run = 11
DOCKED: USER
DOCKED: USER    Estimated Free Energy of Binding    =  -8.42 kcal/mol  [=(1)+(2)+(3)-(4)]
DOCKED: USER
DOCKED: USER    (1) Final Intermolecular Energy     = -10.21 kcal/mol
DOCKED: USER        vdW + Hbond + desolv Energy     = -10.09 kcal/mol
DOCKED: USER        Electrostatic Energy            =  -0.12 kcal/mol
DOCKED: USER        Moving Ligand-Fixed Receptor    = -10.21 kcal/mol
DOCKED: USER        Moving Ligand-Moving Receptor   =  +0.00 kcal/mol
DOCKED: USER    (2) Final Total Internal Energy     =  -2.16 kcal/mol
DOCKED: USER    (3) Torsional Free Energy           =  +1.79 kcal/mol
DOCKED: USER    (4) Unbound System's Energy         =  -2.16 kcal/mol
DOCKED: USER
DOCKED: USER
DOCKED: REMARK SMILES O=C(NCC(=O)N1CCCC[C@H]1Cc1ccc(Cl)cc1)c1ccc2ccccc2n1
DOCKED: REMARK SMILES IDX 7 1 8 2 9 3 10 4 11 5 12 6 5 7 6 8 4 9 3 10 2 11 1 12 21 14
DOCKED: REMARK SMILES IDX 22 15 30 16 23 17 29 18 24 19 28 20 25 21 27 22 26 23 13 24
DOCKED: REMARK SMILES IDX 14 25 15 26 20 27 16 28 19 29 17 30 18 31
DOCKED: REMARK H PARENT 3 13
DOCKED: USER                              x       y       z     vdW  Elec       q    Type
DOCKED: USER                           _______ _______ _______ _____ _____    ______ ____
DOCKED: ROOT
DOCKED: ATOM      1  N   UNL     1     141.261  77.042 221.019 -0.13 +0.16    -0.338 N  
DOCKED: ATOM      2  C   UNL     1     141.718  78.300 221.566 -0.27 -0.07    +0.120 C  
DOCKED: ATOM      3  C   UNL     1     141.619  79.443 220.614 -0.31 -0.01    +0.022 C  
DOCKED: ATOM      4  C   UNL     1     141.484  79.131 219.189 -0.25 -0.00    +0.004 C  
DOCKED: ATOM      5  C   UNL     1     141.254  77.732 218.773 -0.17 -0.01    +0.025 C  
DOCKED: ATOM      6  C   UNL     1     141.743  76.669 219.701 -0.23 -0.04    +0.089 C  
DOCKED: ENDROOT
DOCKED: BRANCH   1   7
DOCKED: ATOM      7  C   UNL     1     140.375  76.170 221.711 -0.25 -0.06    +0.242 C  
DOCKED: ATOM      8  O   UNL     1     139.642  76.573 222.657 -0.29 +0.05    -0.273 OA 
DOCKED: BRANCH   7   9
DOCKED: ATOM      9  C   UNL     1     140.343  74.750 221.273 -0.22 -0.04    +0.216 C  
DOCKED: BRANCH   9  10
DOCKED: ATOM     10  N   UNL     1     139.945  73.865 222.342 -0.05 +0.02    -0.342 N  
DOCKED: ATOM     11  C   UNL     1     140.662  72.638 222.469 -0.14 -0.01    +0.270 C  
DOCKED: ATOM     12  O   UNL     1     141.586  72.446 221.622 -0.20 +0.02    -0.268 OA 
DOCKED: ATOM     13  H   UNL     1     139.174  74.096 222.996 -0.54 -0.06    +0.164 HD 
DOCKED: BRANCH  11  14
DOCKED: ATOM     14  C   UNL     1     140.344  71.667 223.514 -0.32 -0.02    +0.128 A  
DOCKED: ATOM     15  C   UNL     1     139.634  70.543 223.141 -0.26 -0.01    +0.035 A  
DOCKED: ATOM     16  N   UNL     1     140.713  71.831 224.799 -0.28 +0.03    -0.243 NA 
DOCKED: ATOM     17  C   UNL     1     139.298  69.590 224.062 -0.31 -0.00    +0.013 A  
DOCKED: ATOM     18  C   UNL     1     140.401  70.908 225.750 -0.52 -0.01    +0.071 A  
DOCKED: ATOM     19  C   UNL     1     139.687  69.771 225.392 -0.44 -0.00    +0.000 A  
DOCKED: ATOM     20  C   UNL     1     140.808  71.134 227.049 -0.68 -0.00    +0.029 A  
DOCKED: ATOM     21  C   UNL     1     139.356  68.822 226.322 -0.51 -0.00    +0.010 A  
DOCKED: ATOM     22  C   UNL     1     140.472  70.177 227.980 -0.64 -0.00    +0.002 A  
DOCKED: ATOM     23  C   UNL     1     139.760  69.037 227.640 -0.61 -0.00    +0.001 A  
DOCKED: ENDBRANCH  11  14
DOCKED: ENDBRANCH   9  10
DOCKED: ENDBRANCH   7   9
DOCKED: ENDBRANCH   1   7
DOCKED: BRANCH   6  24
DOCKED: ATOM     24  C   UNL     1     143.245  76.496 219.690 -0.33 -0.04    +0.060 C  
DOCKED: BRANCH  24  25
DOCKED: ATOM     25  C   UNL     1     143.569  75.046 219.713 -0.37 +0.02    -0.046 A  
DOCKED: ATOM     26  C   UNL     1     144.582  74.507 220.473 -0.49 -0.00    +0.005 A  
DOCKED: ATOM     27  C   UNL     1     142.812  74.192 218.931 -0.18 -0.00    +0.005 A  
DOCKED: ATOM     28  C   UNL     1     144.851  73.151 220.466 -0.49 -0.00    +0.021 A  
DOCKED: ATOM     29  C   UNL     1     143.036  72.826 218.885 -0.12 -0.00    +0.021 A  
DOCKED: ATOM     30  C   UNL     1     144.064  72.345 219.667 -0.25 -0.00    +0.041 A  
DOCKED: ATOM     31  Cl  UNL     1     144.432  70.618 219.681 -0.26 -0.01    -0.084 Cl 
DOCKED: ENDBRANCH  24  25
DOCKED: ENDBRANCH   6  24
DOCKED: TORSDOF 6
DOCKED: TER
DOCKED: ENDMDL
________________________________________________________________________________


    FINAL DOCKED STATE:
    ________________________


Run:   12 / 20
Time taken for this run:   0.051s

DOCKED: MODEL        12
DOCKED: USER    Run = 12
DOCKED: USER
DOCKED: USER    Estimated Free Energy of Binding    =  -8.88 kcal/mol  [=(1)+(2)+(3)-(4)]
DOCKED: USER
DOCKED: USER    (1) Final Intermolecular Energy     = -10.67 kcal/mol
DOCKED: USER        vdW + Hbond + desolv Energy     = -10.55 kcal/mol
DOCKED: USER        Electrostatic Energy            =  -0.12 kcal/mol
DOCKED: USER        Moving Ligand-Fixed Receptor    = -10.67 kcal/mol
DOCKED: USER        Moving Ligand-Moving Receptor   =  +0.00 kcal/mol
DOCKED: USER    (2) Final Total Internal Energy     =  -1.81 kcal/mol
DOCKED: USER    (3) Torsional Free Energy           =  +1.79 kcal/mol
DOCKED: USER    (4) Unbound System's Energy         =  -1.81 kcal/mol
DOCKED: USER
DOCKED: USER
DOCKED: REMARK SMILES O=C(NCC(=O)N1CCCC[C@H]1Cc1ccc(Cl)cc1)c1ccc2ccccc2n1
DOCKED: REMARK SMILES IDX 7 1 8 2 9 3 10 4 11 5 12 6 5 7 6 8 4 9 3 10 2 11 1 12 21 14
DOCKED: REMARK SMILES IDX 22 15 30 16 23 17 29 18 24 19 28 20 25 21 27 22 26 23 13 24
DOCKED: REMARK SMILES IDX 14 25 15 26 20 27 16 28 19 29 17 30 18 31
DOCKED: REMARK H PARENT 3 13
DOCKED: USER                              x       y       z     vdW  Elec       q    Type
DOCKED: USER                           _______ _______ _______ _____ _____    ______ ____
DOCKED: ROOT
DOCKED: ATOM      1  N   UNL     1     141.361  76.449 220.648 -0.12 +0.15    -0.338 N  
DOCKED: ATOM      2  C   UNL     1     141.671  77.844 220.869 -0.26 -0.07    +0.120 C  
DOCKED: ATOM      3  C   UNL     1     141.825  78.634 219.615 -0.28 -0.01    +0.022 C  
DOCKED: ATOM      4  C   UNL     1     142.057  77.895 218.371 -0.27 -0.00    +0.004 C  
DOCKED: ATOM      5  C   UNL     1     141.931  76.423 218.369 -0.18 -0.01    +0.025 C  
DOCKED: ATOM      6  C   UNL     1     142.161  75.731 219.671 -0.24 -0.04    +0.089 C  
DOCKED: ENDROOT
DOCKED: BRANCH   1   7
DOCKED: ATOM      7  C   UNL     1     140.322  75.765 221.339 -0.22 -0.06    +0.242 C  
DOCKED: ATOM      8  O   UNL     1     139.524  76.365 222.111 -0.25 +0.06    -0.273 OA 
DOCKED: BRANCH   7   9
DOCKED: ATOM      9  C   UNL     1     140.211  74.300 221.114 -0.19 -0.04    +0.216 C  
DOCKED: BRANCH   9  10
DOCKED: ATOM     10  N   UNL     1     139.915  73.588 222.336 -0.11 +0.03    -0.342 N  
DOCKED: ATOM     11  C   UNL     1     140.532  72.314 222.509 -0.19 -0.02    +0.270 C  
DOCKED: ATOM     12  O   UNL     1     141.287  71.930 221.565 -0.17 +0.03    -0.268 OA 
DOCKED: ATOM     13  H   UNL     1     139.283  73.973 223.063 -0.53 -0.06    +0.164 HD 
DOCKED: BRANCH  11  14
DOCKED: ATOM     14  C   UNL     1     140.304  71.507 223.706 -0.34 -0.02    +0.128 A  
DOCKED: ATOM     15  C   UNL     1     139.636  70.309 223.545 -0.28 -0.01    +0.035 A  
DOCKED: ATOM     16  N   UNL     1     140.715  71.885 224.931 -0.28 +0.03    -0.243 NA 
DOCKED: ATOM     17  C   UNL     1     139.384  69.499 224.617 -0.36 -0.00    +0.013 A  
DOCKED: ATOM     18  C   UNL     1     140.487  71.111 226.027 -0.55 -0.01    +0.071 A  
DOCKED: ATOM     19  C   UNL     1     139.816  69.902 225.883 -0.48 -0.00    +0.000 A  
DOCKED: ATOM     20  C   UNL     1     140.933  71.555 227.255 -0.75 -0.01    +0.029 A  
DOCKED: ATOM     21  C   UNL     1     139.569  69.098 226.963 -0.55 -0.00    +0.010 A  
DOCKED: ATOM     22  C   UNL     1     140.682  70.742 228.338 -0.61 -0.00    +0.002 A  
DOCKED: ATOM     23  C   UNL     1     140.015  69.534 228.212 -0.63 -0.00    +0.001 A  
DOCKED: ENDBRANCH  11  14
DOCKED: ENDBRANCH   9  10
DOCKED: ENDBRANCH   7   9
DOCKED: ENDBRANCH   1   7
DOCKED: BRANCH   6  24
DOCKED: ATOM     24  C   UNL     1     143.614  75.674 220.083 -0.23 -0.04    +0.060 C  
DOCKED: BRANCH  24  25
DOCKED: ATOM     25  C   UNL     1     144.150  74.317 219.798 -0.37 +0.02    -0.046 A  
DOCKED: ATOM     26  C   UNL     1     143.592  73.459 218.879 -0.19 -0.00    +0.005 A  
DOCKED: ATOM     27  C   UNL     1     145.269  73.895 220.492 -0.59 -0.00    +0.005 A  
DOCKED: ATOM     28  C   UNL     1     144.121  72.204 218.644 -0.16 +0.00    +0.021 A  
DOCKED: ATOM     29  C   UNL     1     145.843  72.649 220.298 -0.52 +0.00    +0.021 A  
DOCKED: ATOM     30  C   UNL     1     145.239  71.834 219.365 -0.31 +0.01    +0.041 A  
DOCKED: ATOM     31  Cl  UNL     1     145.892  70.225 219.041 -0.35 -0.05    -0.084 Cl 
DOCKED: ENDBRANCH  24  25
DOCKED: ENDBRANCH   6  24
DOCKED: TORSDOF 6
DOCKED: TER
DOCKED: ENDMDL
________________________________________________________________________________


    FINAL DOCKED STATE:
    ________________________


Run:   13 / 20
Time taken for this run:   0.051s

DOCKED: MODEL        13
DOCKED: USER    Run = 13
DOCKED: USER
DOCKED: USER    Estimated Free Energy of Binding    =  -7.55 kcal/mol  [=(1)+(2)+(3)-(4)]
DOCKED: USER
DOCKED: USER    (1) Final Intermolecular Energy     =  -9.34 kcal/mol
DOCKED: USER        vdW + Hbond + desolv Energy     =  -9.33 kcal/mol
DOCKED: USER        Electrostatic Energy            =  -0.01 kcal/mol
DOCKED: USER        Moving Ligand-Fixed Receptor    =  -9.34 kcal/mol
DOCKED: USER        Moving Ligand-Moving Receptor   =  +0.00 kcal/mol
DOCKED: USER    (2) Final Total Internal Energy     =  -2.74 kcal/mol
DOCKED: USER    (3) Torsional Free Energy           =  +1.79 kcal/mol
DOCKED: USER    (4) Unbound System's Energy         =  -2.74 kcal/mol
DOCKED: USER
DOCKED: USER
DOCKED: REMARK SMILES O=C(NCC(=O)N1CCCC[C@H]1Cc1ccc(Cl)cc1)c1ccc2ccccc2n1
DOCKED: REMARK SMILES IDX 7 1 8 2 9 3 10 4 11 5 12 6 5 7 6 8 4 9 3 10 2 11 1 12 21 14
DOCKED: REMARK SMILES IDX 22 15 30 16 23 17 29 18 24 19 28 20 25 21 27 22 26 23 13 24
DOCKED: REMARK SMILES IDX 14 25 15 26 20 27 16 28 19 29 17 30 18 31
DOCKED: REMARK H PARENT 3 13
DOCKED: USER                              x       y       z     vdW  Elec       q    Type
DOCKED: USER                           _______ _______ _______ _____ _____    ______ ____
DOCKED: ROOT
DOCKED: ATOM      1  N   UNL     1     142.511  73.506 219.477 -0.04 +0.07    -0.338 N  
DOCKED: ATOM      2  C   UNL     1     143.241  72.528 218.701 -0.09 -0.01    +0.120 C  
DOCKED: ATOM      3  C   UNL     1     144.661  72.362 219.122 -0.27 +0.00    +0.022 C  
DOCKED: ATOM      4  C   UNL     1     145.258  73.427 219.933 -0.51 -0.00    +0.004 C  
DOCKED: ATOM      5  C   UNL     1     144.396  74.504 220.462 -0.44 -0.01    +0.025 C  
DOCKED: ATOM      6  C   UNL     1     143.144  74.793 219.701 -0.30 -0.04    +0.089 C  
DOCKED: ENDROOT
DOCKED: BRANCH   1   7
DOCKED: ATOM      7  C   UNL     1     141.218  73.260 220.018 -0.09 -0.05    +0.242 C  
DOCKED: ATOM      8  O   UNL     1     140.256  72.865 219.302 -0.02 +0.05    -0.273 OA 
DOCKED: BRANCH   7   9
DOCKED: ATOM      9  C   UNL     1     141.041  73.487 221.476 -0.20 -0.02    +0.216 C  
DOCKED: BRANCH   9  10
DOCKED: ATOM     10  N   UNL     1     141.256  74.869 221.837 -0.09 +0.05    -0.342 N  
DOCKED: ATOM     11  C   UNL     1     140.096  75.675 222.038 -0.19 -0.05    +0.270 C  
DOCKED: ATOM     12  O   UNL     1     138.981  75.091 221.878 -0.28 +0.06    -0.268 OA 
DOCKED: ATOM     13  H   UNL     1     142.205  75.272 221.948 -0.48 -0.07    +0.164 HD 
DOCKED: BRANCH  11  14
DOCKED: ATOM     14  C   UNL     1     140.196  77.086 222.405 -0.32 -0.03    +0.128 A  
DOCKED: ATOM     15  C   UNL     1     139.032  77.829 222.391 -0.28 -0.01    +0.035 A  
DOCKED: ATOM     16  N   UNL     1     141.360  77.670 222.749 -0.25 +0.11    -0.243 NA 
DOCKED: ATOM     17  C   UNL     1     139.045  79.155 222.721 -0.30 -0.00    +0.013 A  
DOCKED: ATOM     18  C   UNL     1     141.420  78.987 223.085 -0.50 -0.02    +0.071 A  
DOCKED: ATOM     19  C   UNL     1     140.258  79.750 223.076 -0.42 -0.00    +0.000 A  
DOCKED: ATOM     20  C   UNL     1     142.643  79.527 223.427 -0.54 -0.01    +0.029 A  
DOCKED: ATOM     21  C   UNL     1     140.281  81.078 223.410 -0.37 -0.00    +0.010 A  
DOCKED: ATOM     22  C   UNL     1     142.660  80.863 223.762 -0.67 -0.00    +0.002 A  
DOCKED: ATOM     23  C   UNL     1     141.511  81.638 223.758 -0.39 -0.00    +0.001 A  
DOCKED: ENDBRANCH  11  14
DOCKED: ENDBRANCH   9  10
DOCKED: ENDBRANCH   7   9
DOCKED: ENDBRANCH   1   7
DOCKED: BRANCH   6  24
DOCKED: ATOM     24  C   UNL     1     143.378  75.527 218.401 -0.24 -0.03    +0.060 C  
DOCKED: BRANCH  24  25
DOCKED: ATOM     25  C   UNL     1     142.902  76.928 218.538 -0.32 +0.03    -0.046 A  
DOCKED: ATOM     26  C   UNL     1     143.012  77.868 217.540 -0.26 -0.00    +0.005 A  
DOCKED: ATOM     27  C   UNL     1     142.316  77.307 219.732 -0.32 -0.00    +0.005 A  
DOCKED: ATOM     28  C   UNL     1     142.556  79.162 217.708 -0.30 -0.02    +0.021 A  
DOCKED: ATOM     29  C   UNL     1     141.840  78.589 219.957 -0.28 -0.01    +0.021 A  
DOCKED: ATOM     30  C   UNL     1     141.979  79.486 218.920 -0.28 -0.03    +0.041 A  
DOCKED: ATOM     31  Cl  UNL     1     141.405  81.146 219.104 -0.31 +0.04    -0.084 Cl 
DOCKED: ENDBRANCH  24  25
DOCKED: ENDBRANCH   6  24
DOCKED: TORSDOF 6
DOCKED: TER
DOCKED: ENDMDL
________________________________________________________________________________


    FINAL DOCKED STATE:
    ________________________


Run:   14 / 20
Time taken for this run:   0.051s

DOCKED: MODEL        14
DOCKED: USER    Run = 14
DOCKED: USER
DOCKED: USER    Estimated Free Energy of Binding    =  -8.85 kcal/mol  [=(1)+(2)+(3)-(4)]
DOCKED: USER
DOCKED: USER    (1) Final Intermolecular Energy     = -10.64 kcal/mol
DOCKED: USER        vdW + Hbond + desolv Energy     = -10.51 kcal/mol
DOCKED: USER        Electrostatic Energy            =  -0.13 kcal/mol
DOCKED: USER        Moving Ligand-Fixed Receptor    = -10.64 kcal/mol
DOCKED: USER        Moving Ligand-Moving Receptor   =  +0.00 kcal/mol
DOCKED: USER    (2) Final Total Internal Energy     =  -1.83 kcal/mol
DOCKED: USER    (3) Torsional Free Energy           =  +1.79 kcal/mol
DOCKED: USER    (4) Unbound System's Energy         =  -1.83 kcal/mol
DOCKED: USER
DOCKED: USER
DOCKED: REMARK SMILES O=C(NCC(=O)N1CCCC[C@H]1Cc1ccc(Cl)cc1)c1ccc2ccccc2n1
DOCKED: REMARK SMILES IDX 7 1 8 2 9 3 10 4 11 5 12 6 5 7 6 8 4 9 3 10 2 11 1 12 21 14
DOCKED: REMARK SMILES IDX 22 15 30 16 23 17 29 18 24 19 28 20 25 21 27 22 26 23 13 24
DOCKED: REMARK SMILES IDX 14 25 15 26 20 27 16 28 19 29 17 30 18 31
DOCKED: REMARK H PARENT 3 13
DOCKED: USER                              x       y       z     vdW  Elec       q    Type
DOCKED: USER                           _______ _______ _______ _____ _____    ______ ____
DOCKED: ROOT
DOCKED: ATOM      1  N   UNL     1     141.466  76.509 220.662 -0.12 +0.16    -0.338 N  
DOCKED: ATOM      2  C   UNL     1     141.766  77.912 220.842 -0.26 -0.07    +0.120 C  
DOCKED: ATOM      3  C   UNL     1     141.762  78.697 219.575 -0.27 -0.01    +0.022 C  
DOCKED: ATOM      4  C   UNL     1     141.871  77.955 218.316 -0.24 -0.00    +0.004 C  
DOCKED: ATOM      5  C   UNL     1     141.781  76.481 218.335 -0.16 -0.01    +0.025 C  
DOCKED: ATOM      6  C   UNL     1     142.170  75.802 219.607 -0.24 -0.04    +0.089 C  
DOCKED: ENDROOT
DOCKED: BRANCH   1   7
DOCKED: ATOM      7  C   UNL     1     140.526  75.807 221.468 -0.24 -0.06    +0.242 C  
DOCKED: ATOM      8  O   UNL     1     139.889  76.371 222.401 -0.32 +0.05    -0.273 OA 
DOCKED: BRANCH   7   9
DOCKED: ATOM      9  C   UNL     1     140.319  74.366 221.165 -0.20 -0.04    +0.216 C  
DOCKED: BRANCH   9  10
DOCKED: ATOM     10  N   UNL     1     139.962  73.614 222.345 -0.10 +0.03    -0.342 N  
DOCKED: ATOM     11  C   UNL     1     140.637  72.374 222.552 -0.17 -0.02    +0.270 C  
DOCKED: ATOM     12  O   UNL     1     141.492  72.054 221.672 -0.18 +0.02    -0.268 OA 
DOCKED: ATOM     13  H   UNL     1     139.248  73.945 223.019 -0.53 -0.06    +0.164 HD 
DOCKED: BRANCH  11  14
DOCKED: ATOM     14  C   UNL     1     140.354  71.531 223.712 -0.34 -0.02    +0.128 A  
DOCKED: ATOM     15  C   UNL     1     139.715  70.328 223.480 -0.27 -0.01    +0.035 A  
DOCKED: ATOM     16  N   UNL     1     140.691  71.880 224.968 -0.29 +0.03    -0.243 NA 
DOCKED: ATOM     17  C   UNL     1     139.415  69.486 224.514 -0.34 -0.00    +0.013 A  
DOCKED: ATOM     18  C   UNL     1     140.413  71.072 226.027 -0.54 -0.01    +0.071 A  
DOCKED: ATOM     19  C   UNL     1     139.769  69.859 225.813 -0.47 -0.00    +0.000 A  
DOCKED: ATOM     20  C   UNL     1     140.783  71.488 227.291 -0.74 -0.01    +0.029 A  
DOCKED: ATOM     21  C   UNL     1     139.475  69.021 226.856 -0.53 -0.00    +0.010 A  
DOCKED: ATOM     22  C   UNL     1     140.484  70.641 228.335 -0.60 -0.00    +0.002 A  
DOCKED: ATOM     23  C   UNL     1     139.843  69.428 228.139 -0.63 -0.00    +0.001 A  
DOCKED: ENDBRANCH  11  14
DOCKED: ENDBRANCH   9  10
DOCKED: ENDBRANCH   7   9
DOCKED: ENDBRANCH   1   7
DOCKED: BRANCH   6  24
DOCKED: ATOM     24  C   UNL     1     143.660  75.781 219.854 -0.30 -0.04    +0.060 C  
DOCKED: BRANCH  24  25
DOCKED: ATOM     25  C   UNL     1     144.174  74.405 219.627 -0.35 +0.02    -0.046 A  
DOCKED: ATOM     26  C   UNL     1     143.763  73.605 218.586 -0.18 -0.00    +0.005 A  
DOCKED: ATOM     27  C   UNL     1     145.115  73.903 220.506 -0.57 -0.00    +0.005 A  
DOCKED: ATOM     28  C   UNL     1     144.266  72.330 218.410 -0.16 +0.00    +0.021 A  
DOCKED: ATOM     29  C   UNL     1     145.655  72.633 220.379 -0.51 +0.00    +0.021 A  
DOCKED: ATOM     30  C   UNL     1     145.204  71.879 219.317 -0.30 +0.01    +0.041 A  
DOCKED: ATOM     31  Cl  UNL     1     145.828  70.246 219.064 -0.34 -0.05    -0.084 Cl 
DOCKED: ENDBRANCH  24  25
DOCKED: ENDBRANCH   6  24
DOCKED: TORSDOF 6
DOCKED: TER
DOCKED: ENDMDL
________________________________________________________________________________


    FINAL DOCKED STATE:
    ________________________


Run:   15 / 20
Time taken for this run:   0.051s

DOCKED: MODEL        15
DOCKED: USER    Run = 15
DOCKED: USER
DOCKED: USER    Estimated Free Energy of Binding    =  -8.06 kcal/mol  [=(1)+(2)+(3)-(4)]
DOCKED: USER
DOCKED: USER    (1) Final Intermolecular Energy     =  -9.85 kcal/mol
DOCKED: USER        vdW + Hbond + desolv Energy     =  -9.84 kcal/mol
DOCKED: USER        Electrostatic Energy            =  -0.02 kcal/mol
DOCKED: USER        Moving Ligand-Fixed Receptor    =  -9.85 kcal/mol
DOCKED: USER        Moving Ligand-Moving Receptor   =  +0.00 kcal/mol
DOCKED: USER    (2) Final Total Internal Energy     =  -2.41 kcal/mol
DOCKED: USER    (3) Torsional Free Energy           =  +1.79 kcal/mol
DOCKED: USER    (4) Unbound System's Energy         =  -2.41 kcal/mol
DOCKED: USER
DOCKED: USER
DOCKED: REMARK SMILES O=C(NCC(=O)N1CCCC[C@H]1Cc1ccc(Cl)cc1)c1ccc2ccccc2n1
DOCKED: REMARK SMILES IDX 7 1 8 2 9 3 10 4 11 5 12 6 5 7 6 8 4 9 3 10 2 11 1 12 21 14
DOCKED: REMARK SMILES IDX 22 15 30 16 23 17 29 18 24 19 28 20 25 21 27 22 26 23 13 24
DOCKED: REMARK SMILES IDX 14 25 15 26 20 27 16 28 19 29 17 30 18 31
DOCKED: REMARK H PARENT 3 13
DOCKED: USER                              x       y       z     vdW  Elec       q    Type
DOCKED: USER                           _______ _______ _______ _____ _____    ______ ____
DOCKED: ROOT
DOCKED: ATOM      1  N   UNL     1     142.975  73.034 220.299 -0.10 +0.06    -0.338 N  
DOCKED: ATOM      2  C   UNL     1     143.639  71.949 219.612 -0.18 -0.01    +0.120 C  
DOCKED: ATOM      3  C   UNL     1     145.125  71.986 219.722 -0.35 +0.00    +0.022 C  
DOCKED: ATOM      4  C   UNL     1     145.746  73.252 220.119 -0.57 +0.00    +0.004 C  
DOCKED: ATOM      5  C   UNL     1     144.890  74.364 220.581 -0.43 -0.01    +0.025 C  
DOCKED: ATOM      6  C   UNL     1     143.483  74.377 220.083 -0.33 -0.03    +0.089 C  
DOCKED: ENDROOT
DOCKED: BRANCH   1   7
DOCKED: ATOM      7  C   UNL     1     141.861  72.839 221.163 -0.14 -0.03    +0.242 C  
DOCKED: ATOM      8  O   UNL     1     141.822  71.899 222.005 -0.10 +0.01    -0.273 OA 
DOCKED: BRANCH   7   9
DOCKED: ATOM      9  C   UNL     1     140.730  73.796 221.035 -0.19 -0.03    +0.216 C  
DOCKED: BRANCH   9  10
DOCKED: ATOM     10  N   UNL     1     141.075  75.107 221.533 -0.19 +0.07    -0.342 N  
DOCKED: ATOM     11  C   UNL     1     139.996  75.979 221.865 -0.24 -0.06    +0.270 C  
DOCKED: ATOM     12  O   UNL     1     138.830  75.510 221.689 -0.19 +0.06    -0.268 OA 
DOCKED: ATOM     13  H   UNL     1     142.058  75.416 221.648 -0.34 -0.08    +0.164 HD 
DOCKED: BRANCH  11  14
DOCKED: ATOM     14  C   UNL     1     140.228  77.328 222.377 -0.33 -0.03    +0.128 A  
DOCKED: ATOM     15  C   UNL     1     139.118  78.082 222.705 -0.30 -0.01    +0.035 A  
DOCKED: ATOM     16  N   UNL     1     141.461  77.846 222.535 -0.24 +0.12    -0.243 NA 
DOCKED: ATOM     17  C   UNL     1     139.255  79.353 223.188 -0.36 -0.00    +0.013 A  
DOCKED: ATOM     18  C   UNL     1     141.644  79.107 223.014 -0.51 -0.02    +0.071 A  
DOCKED: ATOM     19  C   UNL     1     140.539  79.880 223.349 -0.47 -0.00    +0.000 A  
DOCKED: ATOM     20  C   UNL     1     142.933  79.581 223.153 -0.53 -0.01    +0.029 A  
DOCKED: ATOM     21  C   UNL     1     140.686  81.152 223.834 -0.32 -0.00    +0.010 A  
DOCKED: ATOM     22  C   UNL     1     143.075  80.860 223.640 -0.61 -0.00    +0.002 A  
DOCKED: ATOM     23  C   UNL     1     141.984  81.644 223.979 -0.52 -0.00    +0.001 A  
DOCKED: ENDBRANCH  11  14
DOCKED: ENDBRANCH   9  10
DOCKED: ENDBRANCH   7   9
DOCKED: ENDBRANCH   1   7
DOCKED: BRANCH   6  24
DOCKED: ATOM     24  C   UNL     1     143.353  74.789 218.635 -0.22 -0.02    +0.060 C  
DOCKED: BRANCH  24  25
DOCKED: ATOM     25  C   UNL     1     142.999  76.231 218.567 -0.29 +0.03    -0.046 A  
DOCKED: ATOM     26  C   UNL     1     143.087  76.981 217.417 -0.27 -0.00    +0.005 A  
DOCKED: ATOM     27  C   UNL     1     142.557  76.852 219.721 -0.36 -0.00    +0.005 A  
DOCKED: ATOM     28  C   UNL     1     142.747  78.320 217.397 -0.27 -0.02    +0.021 A  
DOCKED: ATOM     29  C   UNL     1     142.203  78.191 219.760 -0.23 -0.01    +0.021 A  
DOCKED: ATOM     30  C   UNL     1     142.312  78.890 218.577 -0.29 -0.03    +0.041 A  
DOCKED: ATOM     31  Cl  UNL     1     141.884  80.602 218.519 -0.36 +0.05    -0.084 Cl 
DOCKED: ENDBRANCH  24  25
DOCKED: ENDBRANCH   6  24
DOCKED: TORSDOF 6
DOCKED: TER
DOCKED: ENDMDL
________________________________________________________________________________


    FINAL DOCKED STATE:
    ________________________


Run:   16 / 20
Time taken for this run:   0.051s

DOCKED: MODEL        16
DOCKED: USER    Run = 16
DOCKED: USER
DOCKED: USER    Estimated Free Energy of Binding    =  -9.07 kcal/mol  [=(1)+(2)+(3)-(4)]
DOCKED: USER
DOCKED: USER    (1) Final Intermolecular Energy     = -10.86 kcal/mol
DOCKED: USER        vdW + Hbond + desolv Energy     = -10.79 kcal/mol
DOCKED: USER        Electrostatic Energy            =  -0.07 kcal/mol
DOCKED: USER        Moving Ligand-Fixed Receptor    = -10.86 kcal/mol
DOCKED: USER        Moving Ligand-Moving Receptor   =  +0.00 kcal/mol
DOCKED: USER    (2) Final Total Internal Energy     =  -1.74 kcal/mol
DOCKED: USER    (3) Torsional Free Energy           =  +1.79 kcal/mol
DOCKED: USER    (4) Unbound System's Energy         =  -1.74 kcal/mol
DOCKED: USER
DOCKED: USER
DOCKED: REMARK SMILES O=C(NCC(=O)N1CCCC[C@H]1Cc1ccc(Cl)cc1)c1ccc2ccccc2n1
DOCKED: REMARK SMILES IDX 7 1 8 2 9 3 10 4 11 5 12 6 5 7 6 8 4 9 3 10 2 11 1 12 21 14
DOCKED: REMARK SMILES IDX 22 15 30 16 23 17 29 18 24 19 28 20 25 21 27 22 26 23 13 24
DOCKED: REMARK SMILES IDX 14 25 15 26 20 27 16 28 19 29 17 30 18 31
DOCKED: REMARK H PARENT 3 13
DOCKED: USER                              x       y       z     vdW  Elec       q    Type
DOCKED: USER                           _______ _______ _______ _____ _____    ______ ____
DOCKED: ROOT
DOCKED: ATOM      1  N   UNL     1     140.503  75.307 220.207 -0.05 +0.09    -0.338 N  
DOCKED: ATOM      2  C   UNL     1     140.124  75.033 218.838 -0.04 -0.03    +0.120 C  
DOCKED: ATOM      3  C   UNL     1     141.280  74.788 217.931 -0.05 -0.01    +0.022 C  
DOCKED: ATOM      4  C   UNL     1     142.602  75.236 218.377 -0.19 -0.00    +0.004 C  
DOCKED: ATOM      5  C   UNL     1     142.772  75.720 219.763 -0.34 -0.01    +0.025 C  
DOCKED: ATOM      6  C   UNL     1     141.559  76.278 220.430 -0.25 -0.04    +0.089 C  
DOCKED: ENDROOT
DOCKED: BRANCH   1   7
DOCKED: ATOM      7  C   UNL     1     139.889  74.673 221.324 -0.19 -0.05    +0.242 C  
DOCKED: ATOM      8  O   UNL     1     139.567  75.312 222.364 -0.60 +0.04    -0.273 OA 
DOCKED: BRANCH   7   9
DOCKED: ATOM      9  C   UNL     1     139.638  73.212 221.218 -0.15 -0.04    +0.216 C  
DOCKED: BRANCH   9  10
DOCKED: ATOM     10  N   UNL     1     139.652  72.567 222.510 -0.15 +0.07    -0.342 N  
DOCKED: ATOM     11  C   UNL     1     139.814  71.149 222.526 -0.17 -0.04    +0.270 C  
DOCKED: ATOM     12  O   UNL     1     139.930  70.592 221.392 -0.09 +0.04    -0.268 OA 
DOCKED: ATOM     13  H   UNL     1     139.550  73.096 223.396 -0.39 -0.05    +0.164 HD 
DOCKED: BRANCH  11  14
DOCKED: ATOM     14  C   UNL     1     139.843  70.394 223.776 -0.26 -0.02    +0.128 A  
DOCKED: ATOM     15  C   UNL     1     139.229  69.157 223.783 -0.26 -0.01    +0.035 A  
DOCKED: ATOM     16  N   UNL     1     140.436  70.854 224.894 -0.30 +0.04    -0.243 NA 
DOCKED: ATOM     17  C   UNL     1     139.213  68.391 224.916 -0.41 -0.00    +0.013 A  
DOCKED: ATOM     18  C   UNL     1     140.446  70.126 226.043 -0.48 -0.01    +0.071 A  
DOCKED: ATOM     19  C   UNL     1     139.832  68.879 226.069 -0.52 -0.00    +0.000 A  
DOCKED: ATOM     20  C   UNL     1     141.070  70.654 227.155 -0.61 -0.00    +0.029 A  
DOCKED: ATOM     21  C   UNL     1     139.823  68.119 227.208 -0.63 -0.00    +0.010 A  
DOCKED: ATOM     22  C   UNL     1     141.057  69.886 228.298 -0.57 -0.00    +0.002 A  
DOCKED: ATOM     23  C   UNL     1     140.451  68.640 228.340 -0.66 -0.00    +0.001 A  
DOCKED: ENDBRANCH  11  14
DOCKED: ENDBRANCH   9  10
DOCKED: ENDBRANCH   7   9
DOCKED: ENDBRANCH   1   7
DOCKED: BRANCH   6  24
DOCKED: ATOM     24  C   UNL     1     141.164  77.648 219.928 -0.21 -0.03    +0.060 C  
DOCKED: BRANCH  24  25
DOCKED: ATOM     25  C   UNL     1     141.496  78.662 220.963 -0.31 +0.02    -0.046 A  
DOCKED: ATOM     26  C   UNL     1     141.822  79.966 220.670 -0.35 -0.00    +0.005 A  
DOCKED: ATOM     27  C   UNL     1     141.474  78.274 222.291 -0.44 -0.00    +0.005 A  
DOCKED: ATOM     28  C   UNL     1     142.124  80.878 221.664 -0.43 -0.01    +0.021 A  
DOCKED: ATOM     29  C   UNL     1     141.767  79.145 223.328 -0.58 -0.01    +0.021 A  
DOCKED: ATOM     30  C   UNL     1     142.087  80.438 222.972 -0.57 -0.01    +0.041 A  
DOCKED: ATOM     31  Cl  UNL     1     142.477  81.627 224.218 -0.53 +0.01    -0.084 Cl 
DOCKED: ENDBRANCH  24  25
DOCKED: ENDBRANCH   6  24
DOCKED: TORSDOF 6
DOCKED: TER
DOCKED: ENDMDL
________________________________________________________________________________


    FINAL DOCKED STATE:
    ________________________


Run:   17 / 20
Time taken for this run:   0.051s

DOCKED: MODEL        17
DOCKED: USER    Run = 17
DOCKED: USER
DOCKED: USER    Estimated Free Energy of Binding    =  -8.78 kcal/mol  [=(1)+(2)+(3)-(4)]
DOCKED: USER
DOCKED: USER    (1) Final Intermolecular Energy     = -10.57 kcal/mol
DOCKED: USER        vdW + Hbond + desolv Energy     = -10.45 kcal/mol
DOCKED: USER        Electrostatic Energy            =  -0.12 kcal/mol
DOCKED: USER        Moving Ligand-Fixed Receptor    = -10.57 kcal/mol
DOCKED: USER        Moving Ligand-Moving Receptor   =  +0.00 kcal/mol
DOCKED: USER    (2) Final Total Internal Energy     =  -1.87 kcal/mol
DOCKED: USER    (3) Torsional Free Energy           =  +1.79 kcal/mol
DOCKED: USER    (4) Unbound System's Energy         =  -1.87 kcal/mol
DOCKED: USER
DOCKED: USER
DOCKED: REMARK SMILES O=C(NCC(=O)N1CCCC[C@H]1Cc1ccc(Cl)cc1)c1ccc2ccccc2n1
DOCKED: REMARK SMILES IDX 7 1 8 2 9 3 10 4 11 5 12 6 5 7 6 8 4 9 3 10 2 11 1 12 21 14
DOCKED: REMARK SMILES IDX 22 15 30 16 23 17 29 18 24 19 28 20 25 21 27 22 26 23 13 24
DOCKED: REMARK SMILES IDX 14 25 15 26 20 27 16 28 19 29 17 30 18 31
DOCKED: REMARK H PARENT 3 13
DOCKED: USER                              x       y       z     vdW  Elec       q    Type
DOCKED: USER                           _______ _______ _______ _____ _____    ______ ____
DOCKED: ROOT
DOCKED: ATOM      1  N   UNL     1     141.461  76.574 220.668 -0.12 +0.16    -0.338 N  
DOCKED: ATOM      2  C   UNL     1     141.731  77.980 220.880 -0.26 -0.07    +0.120 C  
DOCKED: ATOM      3  C   UNL     1     141.700  78.794 219.632 -0.27 -0.01    +0.022 C  
DOCKED: ATOM      4  C   UNL     1     141.815  78.086 218.355 -0.24 -0.00    +0.004 C  
DOCKED: ATOM      5  C   UNL     1     141.756  76.610 218.338 -0.17 -0.01    +0.025 C  
DOCKED: ATOM      6  C   UNL     1     142.171  75.909 219.590 -0.24 -0.04    +0.089 C  
DOCKED: ENDROOT
DOCKED: BRANCH   1   7
DOCKED: ATOM      7  C   UNL     1     140.543  75.832 221.464 -0.24 -0.06    +0.242 C  
DOCKED: ATOM      8  O   UNL     1     139.862  76.372 222.380 -0.32 +0.06    -0.273 OA 
DOCKED: BRANCH   7   9
DOCKED: ATOM      9  C   UNL     1     140.415  74.381 221.171 -0.20 -0.04    +0.216 C  
DOCKED: BRANCH   9  10
DOCKED: ATOM     10  N   UNL     1     140.045  73.625 222.345 -0.08 +0.02    -0.342 N  
DOCKED: ATOM     11  C   UNL     1     140.690  72.366 222.535 -0.17 -0.02    +0.270 C  
DOCKED: ATOM     12  O   UNL     1     141.532  72.035 221.646 -0.18 +0.02    -0.268 OA 
DOCKED: ATOM     13  H   UNL     1     139.344  73.968 223.028 -0.52 -0.05    +0.164 HD 
DOCKED: BRANCH  11  14
DOCKED: ATOM     14  C   UNL     1     140.394  71.518 223.687 -0.33 -0.02    +0.128 A  
DOCKED: ATOM     15  C   UNL     1     139.753  70.319 223.444 -0.25 -0.01    +0.035 A  
DOCKED: ATOM     16  N   UNL     1     140.718  71.861 224.949 -0.28 +0.03    -0.243 NA 
DOCKED: ATOM     17  C   UNL     1     139.442  69.472 224.470 -0.34 -0.00    +0.013 A  
DOCKED: ATOM     18  C   UNL     1     140.428  71.049 226.001 -0.54 -0.01    +0.071 A  
DOCKED: ATOM     19  C   UNL     1     139.783  69.838 225.775 -0.47 -0.00    +0.000 A  
DOCKED: ATOM     20  C   UNL     1     140.786  71.457 227.270 -0.73 -0.01    +0.029 A  
DOCKED: ATOM     21  C   UNL     1     139.476  68.996 226.810 -0.53 -0.00    +0.010 A  
DOCKED: ATOM     22  C   UNL     1     140.474  70.606 228.307 -0.61 -0.00    +0.002 A  
DOCKED: ATOM     23  C   UNL     1     139.832  69.396 228.099 -0.63 -0.00    +0.001 A  
DOCKED: ENDBRANCH  11  14
DOCKED: ENDBRANCH   9  10
DOCKED: ENDBRANCH   7   9
DOCKED: ENDBRANCH   1   7
DOCKED: BRANCH   6  24
DOCKED: ATOM     24  C   UNL     1     143.663  75.915 219.826 -0.30 -0.04    +0.060 C  
DOCKED: BRANCH  24  25
DOCKED: ATOM     25  C   UNL     1     144.191  74.537 219.648 -0.34 +0.02    -0.046 A  
DOCKED: ATOM     26  C   UNL     1     145.014  73.917 220.558 -0.56 -0.00    +0.005 A  
DOCKED: ATOM     27  C   UNL     1     143.834  73.841 218.507 -0.19 -0.00    +0.005 A  
DOCKED: ATOM     28  C   UNL     1     145.483  72.633 220.355 -0.50 +0.00    +0.021 A  
DOCKED: ATOM     29  C   UNL     1     144.273  72.552 218.250 -0.15 +0.00    +0.021 A  
DOCKED: ATOM     30  C   UNL     1     145.096  71.984 219.199 -0.29 +0.01    +0.041 A  
DOCKED: ATOM     31  Cl  UNL     1     145.710  70.344 218.969 -0.39 -0.05    -0.084 Cl 
DOCKED: ENDBRANCH  24  25
DOCKED: ENDBRANCH   6  24
DOCKED: TORSDOF 6
DOCKED: TER
DOCKED: ENDMDL
________________________________________________________________________________


    FINAL DOCKED STATE:
    ________________________


Run:   18 / 20
Time taken for this run:   0.051s

DOCKED: MODEL        18
DOCKED: USER    Run = 18
DOCKED: USER
DOCKED: USER    Estimated Free Energy of Binding    =  -9.07 kcal/mol  [=(1)+(2)+(3)-(4)]
DOCKED: USER
DOCKED: USER    (1) Final Intermolecular Energy     = -10.86 kcal/mol
DOCKED: USER        vdW + Hbond + desolv Energy     = -10.78 kcal/mol
DOCKED: USER        Electrostatic Energy            =  -0.08 kcal/mol
DOCKED: USER        Moving Ligand-Fixed Receptor    = -10.86 kcal/mol
DOCKED: USER        Moving Ligand-Moving Receptor   =  +0.00 kcal/mol
DOCKED: USER    (2) Final Total Internal Energy     =  -1.59 kcal/mol
DOCKED: USER    (3) Torsional Free Energy           =  +1.79 kcal/mol
DOCKED: USER    (4) Unbound System's Energy         =  -1.59 kcal/mol
DOCKED: USER
DOCKED: USER
DOCKED: REMARK SMILES O=C(NCC(=O)N1CCCC[C@H]1Cc1ccc(Cl)cc1)c1ccc2ccccc2n1
DOCKED: REMARK SMILES IDX 7 1 8 2 9 3 10 4 11 5 12 6 5 7 6 8 4 9 3 10 2 11 1 12 21 14
DOCKED: REMARK SMILES IDX 22 15 30 16 23 17 29 18 24 19 28 20 25 21 27 22 26 23 13 24
DOCKED: REMARK SMILES IDX 14 25 15 26 20 27 16 28 19 29 17 30 18 31
DOCKED: REMARK H PARENT 3 13
DOCKED: USER                              x       y       z     vdW  Elec       q    Type
DOCKED: USER                           _______ _______ _______ _____ _____    ______ ____
DOCKED: ROOT
DOCKED: ATOM      1  N   UNL     1     140.267  75.118 220.567 -0.07 +0.08    -0.338 N  
DOCKED: ATOM      2  C   UNL     1     140.001  74.770 219.189 -0.04 -0.03    +0.120 C  
DOCKED: ATOM      3  C   UNL     1     141.184  74.220 218.467 -0.06 -0.01    +0.022 C  
DOCKED: ATOM      4  C   UNL     1     142.508  74.465 219.046 -0.18 -0.00    +0.004 C  
DOCKED: ATOM      5  C   UNL     1     142.609  75.059 220.395 -0.29 -0.01    +0.025 C  
DOCKED: ATOM      6  C   UNL     1     141.459  75.899 220.844 -0.26 -0.04    +0.089 C  
DOCKED: ENDROOT
DOCKED: BRANCH   1   7
DOCKED: ATOM      7  C   UNL     1     139.418  74.732 221.642 -0.19 -0.05    +0.242 C  
DOCKED: ATOM      8  O   UNL     1     139.383  75.372 222.731 -0.49 +0.04    -0.273 OA 
DOCKED: BRANCH   7   9
DOCKED: ATOM      9  C   UNL     1     138.564  73.534 221.433 -0.13 -0.05    +0.216 C  
DOCKED: BRANCH   9  10
DOCKED: ATOM     10  N   UNL     1     138.551  72.672 222.592 +0.01 +0.12    -0.342 N  
DOCKED: ATOM     11  C   UNL     1     139.699  71.852 222.803 -0.21 -0.05    +0.270 C  
DOCKED: ATOM     12  O   UNL     1     140.625  71.962 221.942 -0.20 +0.03    -0.268 OA 
DOCKED: ATOM     13  H   UNL     1     137.751  72.640 223.251 -0.43 -0.08    +0.164 HD 
DOCKED: BRANCH  11  14
DOCKED: ATOM     14  C   UNL     1     139.794  70.942 223.942 -0.33 -0.02    +0.128 A  
DOCKED: ATOM     15  C   UNL     1     139.269  69.674 223.786 -0.27 -0.01    +0.035 A  
DOCKED: ATOM     16  N   UNL     1     140.364  71.293 225.111 -0.32 +0.04    -0.243 NA 
DOCKED: ATOM     17  C   UNL     1     139.319  68.766 224.808 -0.38 -0.00    +0.013 A  
DOCKED: ATOM     18  C   UNL     1     140.436  70.422 226.154 -0.51 -0.01    +0.071 A  
DOCKED: ATOM     19  C   UNL     1     139.913  69.142 226.016 -0.50 -0.00    +0.000 A  
DOCKED: ATOM     20  C   UNL     1     141.032  70.843 227.326 -0.65 -0.00    +0.029 A  
DOCKED: ATOM     21  C   UNL     1     139.969  68.239 227.044 -0.65 -0.00    +0.010 A  
DOCKED: ATOM     22  C   UNL     1     141.086  69.931 228.357 -0.55 -0.00    +0.002 A  
DOCKED: ATOM     23  C   UNL     1     140.569  68.651 228.235 -0.67 -0.00    +0.001 A  
DOCKED: ENDBRANCH  11  14
DOCKED: ENDBRANCH   9  10
DOCKED: ENDBRANCH   7   9
DOCKED: ENDBRANCH   1   7
DOCKED: BRANCH   6  24
DOCKED: ATOM     24  C   UNL     1     141.398  77.254 220.179 -0.25 -0.03    +0.060 C  
DOCKED: BRANCH  24  25
DOCKED: ATOM     25  C   UNL     1     141.598  78.312 221.204 -0.33 +0.03    -0.046 A  
DOCKED: ATOM     26  C   UNL     1     141.451  78.095 222.555 -0.44 -0.00    +0.005 A  
DOCKED: ATOM     27  C   UNL     1     141.952  79.579 220.779 -0.27 -0.00    +0.005 A  
DOCKED: ATOM     28  C   UNL     1     141.646  79.107 223.476 -0.59 -0.01    +0.021 A  
DOCKED: ATOM     29  C   UNL     1     142.161  80.630 221.657 -0.44 -0.01    +0.021 A  
DOCKED: ATOM     30  C   UNL     1     141.998  80.352 222.997 -0.57 -0.01    +0.041 A  
DOCKED: ATOM     31  Cl  UNL     1     142.242  81.623 224.199 -0.54 +0.01    -0.084 Cl 
DOCKED: ENDBRANCH  24  25
DOCKED: ENDBRANCH   6  24
DOCKED: TORSDOF 6
DOCKED: TER
DOCKED: ENDMDL
________________________________________________________________________________


    FINAL DOCKED STATE:
    ________________________


Run:   19 / 20
Time taken for this run:   0.051s

DOCKED: MODEL        19
DOCKED: USER    Run = 19
DOCKED: USER
DOCKED: USER    Estimated Free Energy of Binding    =  -8.57 kcal/mol  [=(1)+(2)+(3)-(4)]
DOCKED: USER
DOCKED: USER    (1) Final Intermolecular Energy     = -10.36 kcal/mol
DOCKED: USER        vdW + Hbond + desolv Energy     = -10.23 kcal/mol
DOCKED: USER        Electrostatic Energy            =  -0.12 kcal/mol
DOCKED: USER        Moving Ligand-Fixed Receptor    = -10.36 kcal/mol
DOCKED: USER        Moving Ligand-Moving Receptor   =  +0.00 kcal/mol
DOCKED: USER    (2) Final Total Internal Energy     =  -2.04 kcal/mol
DOCKED: USER    (3) Torsional Free Energy           =  +1.79 kcal/mol
DOCKED: USER    (4) Unbound System's Energy         =  -2.04 kcal/mol
DOCKED: USER
DOCKED: USER
DOCKED: REMARK SMILES O=C(NCC(=O)N1CCCC[C@H]1Cc1ccc(Cl)cc1)c1ccc2ccccc2n1
DOCKED: REMARK SMILES IDX 7 1 8 2 9 3 10 4 11 5 12 6 5 7 6 8 4 9 3 10 2 11 1 12 21 14
DOCKED: REMARK SMILES IDX 22 15 30 16 23 17 29 18 24 19 28 20 25 21 27 22 26 23 13 24
DOCKED: REMARK SMILES IDX 14 25 15 26 20 27 16 28 19 29 17 30 18 31
DOCKED: REMARK H PARENT 3 13
DOCKED: USER                              x       y       z     vdW  Elec       q    Type
DOCKED: USER                           _______ _______ _______ _____ _____    ______ ____
DOCKED: ROOT
DOCKED: ATOM      1  N   UNL     1     141.206  76.954 220.909 -0.12 +0.16    -0.338 N  
DOCKED: ATOM      2  C   UNL     1     141.585  78.257 221.409 -0.29 -0.07    +0.120 C  
DOCKED: ATOM      3  C   UNL     1     141.526  79.337 220.383 -0.29 -0.01    +0.022 C  
DOCKED: ATOM      4  C   UNL     1     141.508  78.936 218.974 -0.24 -0.00    +0.004 C  
DOCKED: ATOM      5  C   UNL     1     141.348  77.508 218.630 -0.17 -0.01    +0.025 C  
DOCKED: ATOM      6  C   UNL     1     141.795  76.519 219.655 -0.23 -0.04    +0.089 C  
DOCKED: ENDROOT
DOCKED: BRANCH   1   7
DOCKED: ATOM      7  C   UNL     1     140.294  76.097 221.587 -0.24 -0.06    +0.242 C  
DOCKED: ATOM      8  O   UNL     1     139.490  76.530 222.459 -0.28 +0.05    -0.273 OA 
DOCKED: BRANCH   7   9
DOCKED: ATOM      9  C   UNL     1     140.325  74.656 221.226 -0.21 -0.04    +0.216 C  
DOCKED: BRANCH   9  10
DOCKED: ATOM     10  N   UNL     1     139.943  73.814 222.336 -0.06 +0.02    -0.342 N  
DOCKED: ATOM     11  C   UNL     1     140.634  72.574 222.477 -0.15 -0.02    +0.270 C  
DOCKED: ATOM     12  O   UNL     1     141.524  72.333 221.606 -0.20 +0.02    -0.268 OA 
DOCKED: ATOM     13  H   UNL     1     139.201  74.084 223.008 -0.54 -0.06    +0.164 HD 
DOCKED: BRANCH  11  14
DOCKED: ATOM     14  C   UNL     1     140.330  71.644 223.563 -0.33 -0.02    +0.128 A  
DOCKED: ATOM     15  C   UNL     1     139.635  70.495 223.238 -0.27 -0.01    +0.035 A  
DOCKED: ATOM     16  N   UNL     1     140.697  71.867 224.839 -0.28 +0.03    -0.243 NA 
DOCKED: ATOM     17  C   UNL     1     139.312  69.578 224.199 -0.32 -0.00    +0.013 A  
DOCKED: ATOM     18  C   UNL     1     140.397  70.981 225.828 -0.53 -0.01    +0.071 A  
DOCKED: ATOM     19  C   UNL     1     139.699  69.820 225.519 -0.45 -0.00    +0.000 A  
DOCKED: ATOM     20  C   UNL     1     140.801  71.268 227.117 -0.70 -0.01    +0.029 A  
DOCKED: ATOM     21  C   UNL     1     139.381  68.907 226.489 -0.52 -0.00    +0.010 A  
DOCKED: ATOM     22  C   UNL     1     140.479  70.346 228.087 -0.63 -0.00    +0.002 A  
DOCKED: ATOM     23  C   UNL     1     139.783  69.183 227.797 -0.61 -0.00    +0.001 A  
DOCKED: ENDBRANCH  11  14
DOCKED: ENDBRANCH   9  10
DOCKED: ENDBRANCH   7   9
DOCKED: ENDBRANCH   1   7
DOCKED: BRANCH   6  24
DOCKED: ATOM     24  C   UNL     1     143.297  76.394 219.766 -0.31 -0.04    +0.060 C  
DOCKED: BRANCH  24  25
DOCKED: ATOM     25  C   UNL     1     143.680  74.964 219.623 -0.36 +0.02    -0.046 A  
DOCKED: ATOM     26  C   UNL     1     143.101  74.111 218.713 -0.18 -0.00    +0.005 A  
DOCKED: ATOM     27  C   UNL     1     144.672  74.467 220.448 -0.50 -0.00    +0.005 A  
DOCKED: ATOM     28  C   UNL     1     143.486  72.788 218.612 -0.13 -0.00    +0.021 A  
DOCKED: ATOM     29  C   UNL     1     145.099  73.149 220.392 -0.51 -0.00    +0.021 A  
DOCKED: ATOM     30  C   UNL     1     144.481  72.343 219.460 -0.27 +0.00    +0.041 A  
DOCKED: ATOM     31  Cl  UNL     1     144.952  70.648 219.307 -0.33 -0.02    -0.084 Cl 
DOCKED: ENDBRANCH  24  25
DOCKED: ENDBRANCH   6  24
DOCKED: TORSDOF 6
DOCKED: TER
DOCKED: ENDMDL
________________________________________________________________________________


    FINAL DOCKED STATE:
    ________________________


Run:   20 / 20
Time taken for this run:   0.051s

DOCKED: MODEL        20
DOCKED: USER    Run = 20
DOCKED: USER
DOCKED: USER    Estimated Free Energy of Binding    =  -8.92 kcal/mol  [=(1)+(2)+(3)-(4)]
DOCKED: USER
DOCKED: USER    (1) Final Intermolecular Energy     = -10.71 kcal/mol
DOCKED: USER        vdW + Hbond + desolv Energy     = -10.58 kcal/mol
DOCKED: USER        Electrostatic Energy            =  -0.13 kcal/mol
DOCKED: USER        Moving Ligand-Fixed Receptor    = -10.71 kcal/mol
DOCKED: USER        Moving Ligand-Moving Receptor   =  +0.00 kcal/mol
DOCKED: USER    (2) Final Total Internal Energy     =  -1.80 kcal/mol
DOCKED: USER    (3) Torsional Free Energy           =  +1.79 kcal/mol
DOCKED: USER    (4) Unbound System's Energy         =  -1.80 kcal/mol
DOCKED: USER
DOCKED: USER
DOCKED: REMARK SMILES O=C(NCC(=O)N1CCCC[C@H]1Cc1ccc(Cl)cc1)c1ccc2ccccc2n1
DOCKED: REMARK SMILES IDX 7 1 8 2 9 3 10 4 11 5 12 6 5 7 6 8 4 9 3 10 2 11 1 12 21 14
DOCKED: REMARK SMILES IDX 22 15 30 16 23 17 29 18 24 19 28 20 25 21 27 22 26 23 13 24
DOCKED: REMARK SMILES IDX 14 25 15 26 20 27 16 28 19 29 17 30 18 31
DOCKED: REMARK H PARENT 3 13
DOCKED: USER                              x       y       z     vdW  Elec       q    Type
DOCKED: USER                           _______ _______ _______ _____ _____    ______ ____
DOCKED: ROOT
DOCKED: ATOM      1  N   UNL     1     141.428  76.478 220.716 -0.13 +0.16    -0.338 N  
DOCKED: ATOM      2  C   UNL     1     141.740  77.876 220.920 -0.25 -0.07    +0.120 C  
DOCKED: ATOM      3  C   UNL     1     141.825  78.665 219.657 -0.28 -0.01    +0.022 C  
DOCKED: ATOM      4  C   UNL     1     141.998  77.925 218.405 -0.26 -0.00    +0.004 C  
DOCKED: ATOM      5  C   UNL     1     141.882  76.453 218.411 -0.18 -0.01    +0.025 C  
DOCKED: ATOM      6  C   UNL     1     142.182  75.764 219.702 -0.25 -0.04    +0.089 C  
DOCKED: ENDROOT
DOCKED: BRANCH   1   7
DOCKED: ATOM      7  C   UNL     1     140.429  75.790 221.460 -0.24 -0.06    +0.242 C  
DOCKED: ATOM      8  O   UNL     1     139.733  76.366 222.342 -0.31 +0.06    -0.273 OA 
DOCKED: BRANCH   7   9
DOCKED: ATOM      9  C   UNL     1     140.233  74.348 221.156 -0.19 -0.04    +0.216 C  
DOCKED: BRANCH   9  10
DOCKED: ATOM     10  N   UNL     1     139.901  73.588 222.338 -0.11 +0.03    -0.342 N  
DOCKED: ATOM     11  C   UNL     1     140.627  72.380 222.557 -0.17 -0.02    +0.270 C  
DOCKED: ATOM     12  O   UNL     1     141.500  72.091 221.683 -0.19 +0.02    -0.268 OA 
DOCKED: ATOM     13  H   UNL     1     139.169  73.893 223.007 -0.53 -0.07    +0.164 HD 
DOCKED: BRANCH  11  14
DOCKED: ATOM     14  C   UNL     1     140.374  71.532 223.720 -0.34 -0.02    +0.128 A  
DOCKED: ATOM     15  C   UNL     1     139.719  70.335 223.502 -0.27 -0.01    +0.035 A  
DOCKED: ATOM     16  N   UNL     1     140.750  71.872 224.967 -0.27 +0.03    -0.243 NA 
DOCKED: ATOM     17  C   UNL     1     139.446  69.489 224.540 -0.35 -0.00    +0.013 A  
DOCKED: ATOM     18  C   UNL     1     140.499  71.061 226.030 -0.55 -0.01    +0.071 A  
DOCKED: ATOM     19  C   UNL     1     139.841  69.853 225.830 -0.47 -0.00    +0.000 A  
DOCKED: ATOM     20  C   UNL     1     140.910  71.467 227.284 -0.74 -0.01    +0.029 A  
DOCKED: ATOM     21  C   UNL     1     139.573  69.011 226.876 -0.55 -0.00    +0.010 A  
DOCKED: ATOM     22  C   UNL     1     140.637  70.617 228.332 -0.60 -0.00    +0.002 A  
DOCKED: ATOM     23  C   UNL     1     139.982  69.409 228.149 -0.63 -0.00    +0.001 A  
DOCKED: ENDBRANCH  11  14
DOCKED: ENDBRANCH   9  10
DOCKED: ENDBRANCH   7   9
DOCKED: ENDBRANCH   1   7
DOCKED: BRANCH   6  24
DOCKED: ATOM     24  C   UNL     1     143.654  75.716 220.039 -0.23 -0.04    +0.060 C  
DOCKED: BRANCH  24  25
DOCKED: ATOM     25  C   UNL     1     144.179  74.357 219.747 -0.37 +0.02    -0.046 A  
DOCKED: ATOM     26  C   UNL     1     143.639  73.524 218.793 -0.19 -0.00    +0.005 A  
DOCKED: ATOM     27  C   UNL     1     145.268  73.905 220.470 -0.59 -0.00    +0.005 A  
DOCKED: ATOM     28  C   UNL     1     144.158  72.266 218.552 -0.16 +0.00    +0.021 A  
DOCKED: ATOM     29  C   UNL     1     145.830  72.654 220.271 -0.51 +0.00    +0.021 A  
DOCKED: ATOM     30  C   UNL     1     145.245  71.866 219.303 -0.30 +0.01    +0.041 A  
DOCKED: ATOM     31  Cl  UNL     1     145.886  70.254 218.970 -0.39 -0.06    -0.084 Cl 
DOCKED: ENDBRANCH  24  25
DOCKED: ENDBRANCH   6  24
DOCKED: TORSDOF 6
DOCKED: TER
DOCKED: ENDMDL
________________________________________________________________________________


    CLUSTERING HISTOGRAM
    ____________________


________________________________________________________________________________
     |           |     |           |     |
Clus | Lowest    | Run | Mean      | Num | Histogram
-ter | Binding   |     | Binding   | in  |
Rank | Energy    |     | Energy    | Clus|    5    10   15   20   25   30   35
_____|___________|_____|___________|_____|____:____|____:____|____:____|____:___
   1 |     -9.07 |  16 |     -8.98 |   7 |#######
   2 |     -8.98 |   6 |     -8.76 |  10 |##########
   3 |     -8.06 |  15 |     -7.89 |   3 |###
_____|___________|_____|___________|_____|______________________________________


    RMSD TABLE
    __________


_______________________________________________________________________
     |      |      |           |         |                 |
Rank | Sub- | Run  | Binding   | Cluster | Reference       | Grep
     | Rank |      | Energy    | RMSD    | RMSD            | Pattern
_____|______|______|___________|_________|_________________|___________
   1      1     16       -9.07      0.00    271.14           RANKING
   1      2     18       -9.07      0.70    271.22           RANKING
   1      3      9       -9.06      0.08    271.15           RANKING
   1      4      8       -9.04      0.32    271.15           RANKING
   1      5      2       -9.02      0.37    271.17           RANKING
   1      6      5       -8.98      0.23    271.12           RANKING
   1      7      4       -8.63      1.19    271.34           RANKING
   2      1      6       -8.98      0.00    270.83           RANKING
   2      2     20       -8.92      0.22    270.88           RANKING
   2      3      3       -8.92      0.16    270.86           RANKING
   2      4     12       -8.88      0.26    270.86           RANKING
   2      5     10       -8.85      0.27    270.84           RANKING
   2      6     14       -8.85      0.28    270.85           RANKING
   2      7     17       -8.78      0.38    270.84           RANKING
   2      8     19       -8.57      0.66    270.82           RANKING
   2      9      1       -8.43      0.80    270.83           RANKING
   2     10     11       -8.42      0.79    270.84           RANKING
   3      1     15       -8.06      0.00    271.06           RANKING
   3      2      7       -8.05      0.11    271.04           RANKING
   3      3     13       -7.55      0.87    270.85           RANKING

Run time 0.951 sec
Idle time 0.000 sec
