AutoDock-GPU version: v1.6

**********************************************************
**    AutoDock-GPU AUTODOCKTOOLS-COMPATIBLE DLG FILE    **
**********************************************************


    DOCKING PARAMETERS
    ________________________


Ligand file:                               /home/a/REINVENT4/ReinventStudies/pleaseWork/justmol2mol_4_Compounds_ontop/graph-dock/graph-DockGPU/node-autodockgpu/inputs/WWMVZUZFWROBEU-AATXMJDANA-N.pdbqt
Grid fld file:                             /home/a/REINVENT4/ReinventStudies/mols/Rad51/maps/rad51_receptor.maps.fld

Random seed:                               42
Number of runs:                            20
Number of energy evaluations:              1132076
Number of generations:                     42000
Size of population:                        150
Rate of crossover:                         80.000000%
Tournament selection probability limit:    60.000000%
Rate of mutation:                          2.000000%
Maximal allowed delta movement:            +/- 6.000000A
Maximal allowed delta angle:               +/- 90.000000

Rate of local search:                      100.000000%
Maximal number of local search iterations: 300
Rho lower bound:                           0.010000
Spread of local search delta movement:     2.000000A
Spread of local search delta angle:        74.999999
Limit of consecutive successes/failures:   4

Handle symmetry during clustering:         YES
RMSD tolerance:                            2.000000A

Program call in command line was:          /home/a/REINVENT4/ReinventStudies/adgpu-v1.6_linux_x64_cuda12_128wi --filelist batch.txt --heuristics 1 --nrun 20 --psize 150 --lsit 300 --seed 42 --heurmax 12000000 


    GRID PARAMETERS
    ________________________


Receptor name:                             rad51_receptor
Number of grid points (x, y, z):           53, 53, 53
Grid center (x, y, z):                     139.950000, 75.640000, 221.970000A
Grid size (x, y, z):                       19.500000, 19.500000, 19.500000A
Grid spacing:                              0.375000A


    LIGAND PARAMETERS
    ________________________


Ligand name:                               /home/a/REINVENT4/ReinventStudies/pleaseWork/justmol2mol_4_Compounds_ontop/graph-dock/graph-DockGPU/node-autodockgpu/inputs/WWMVZUZFWROBEU-AATXMJDANA-N
Number of atoms:                           29
Number of rotatable bonds:                 5
Number of atom types:                      6


    DUMMY DATA (only for ADT-compatibility)
    ________________________


DPF> outlev 1
DPF> ga_run 20
DPF> fld /home/a/REINVENT4/ReinventStudies/mols/Rad51/maps/rad51_receptor.maps.fld
DPF> move /home/a/REINVENT4/ReinventStudies/pleaseWork/justmol2mol_4_Compounds_ontop/graph-dock/graph-DockGPU/node-autodockgpu/inputs/WWMVZUZFWROBEU-AATXMJDANA-N.pdbqt


    COUNTER STATES
    ________________________


Number of energy evaluations performed:    759714
Number of generations used:                35


    INPUT LIGAND PDBQT FILE:
    ________________________


INPUT-LIGAND-PDBQT: REMARK SMILES O=C(NCC(=O)N1CCCC[C@H]1c1ccccc1)c1ccc2ccccc2n1
INPUT-LIGAND-PDBQT: REMARK SMILES IDX 4 1 3 2 2 3 1 4 19 6 20 7 28 8 21 9 27 10 22 11 26 12 23 13
INPUT-LIGAND-PDBQT: REMARK SMILES IDX 25 14 24 15 5 16 6 17 7 18 8 19 12 20 9 21 11 22 10 23 13 24
INPUT-LIGAND-PDBQT: REMARK SMILES IDX 14 25 18 26 15 27 17 28 16 29
INPUT-LIGAND-PDBQT: REMARK H PARENT 3 5
INPUT-LIGAND-PDBQT: ROOT
INPUT-LIGAND-PDBQT: ATOM      1  C   UNL     1       0.161  -1.668  -1.280  1.00  0.00     0.216 C 
INPUT-LIGAND-PDBQT: ENDROOT
INPUT-LIGAND-PDBQT: BRANCH   1   2
INPUT-LIGAND-PDBQT: ATOM      2  N   UNL     1       1.296  -0.780  -1.388  1.00  0.00    -0.342 N 
INPUT-LIGAND-PDBQT: ATOM      3  C   UNL     1       1.799  -0.208  -0.173  1.00  0.00     0.270 C 
INPUT-LIGAND-PDBQT: ATOM      4  O   UNL     1       1.223  -0.512   0.919  1.00  0.00    -0.268 OA
INPUT-LIGAND-PDBQT: ATOM      5  H   UNL     1       1.758  -0.539  -2.297  1.00  0.00     0.164 HD
INPUT-LIGAND-PDBQT: BRANCH   3   6
INPUT-LIGAND-PDBQT: ATOM      6  C   UNL     1       2.939   0.696  -0.193  1.00  0.00     0.128 A 
INPUT-LIGAND-PDBQT: ATOM      7  C   UNL     1       3.391   1.221   0.995  1.00  0.00     0.035 A 
INPUT-LIGAND-PDBQT: ATOM      8  N   UNL     1       3.584   1.051  -1.319  1.00  0.00    -0.243 NA
INPUT-LIGAND-PDBQT: ATOM      9  C   UNL     1       4.457   2.082   1.092  1.00  0.00     0.013 A 
INPUT-LIGAND-PDBQT: ATOM     10  C   UNL     1       4.643   1.899  -1.279  1.00  0.00     0.071 A 
INPUT-LIGAND-PDBQT: ATOM     11  C   UNL     1       5.097   2.426  -0.084  1.00  0.00     0.000 A 
INPUT-LIGAND-PDBQT: ATOM     12  C   UNL     1       5.308   2.266  -2.433  1.00  0.00     0.029 A 
INPUT-LIGAND-PDBQT: ATOM     13  C   UNL     1       6.169   3.290   0.001  1.00  0.00     0.010 A 
INPUT-LIGAND-PDBQT: ATOM     14  C   UNL     1       6.392   3.137  -2.366  1.00  0.00     0.002 A 
INPUT-LIGAND-PDBQT: ATOM     15  C   UNL     1       6.825   3.651  -1.148  1.00  0.00     0.001 A 
INPUT-LIGAND-PDBQT: ENDBRANCH   3   6
INPUT-LIGAND-PDBQT: ENDBRANCH   1   2
INPUT-LIGAND-PDBQT: BRANCH   1  16
INPUT-LIGAND-PDBQT: ATOM     16  C   UNL     1      -1.026  -0.995  -0.691  1.00  0.00     0.242 C 
INPUT-LIGAND-PDBQT: ATOM     17  O   UNL     1      -0.959   0.221  -0.356  1.00  0.00    -0.273 OA
INPUT-LIGAND-PDBQT: BRANCH  16  18
INPUT-LIGAND-PDBQT: ATOM     18  N   UNL     1      -2.213  -1.765  -0.526  1.00  0.00    -0.334 N 
INPUT-LIGAND-PDBQT: ATOM     19  C   UNL     1      -2.288  -3.174  -0.911  1.00  0.00     0.120 C 
INPUT-LIGAND-PDBQT: ATOM     20  C   UNL     1      -3.416  -1.162   0.040  1.00  0.00     0.115 C 
INPUT-LIGAND-PDBQT: ATOM     21  C   UNL     1      -3.633  -3.434  -1.570  1.00  0.00     0.022 C 
INPUT-LIGAND-PDBQT: ATOM     22  C   UNL     1      -4.271  -2.279   0.560  1.00  0.00     0.030 C 
INPUT-LIGAND-PDBQT: ATOM     23  C   UNL     1      -4.777  -3.063  -0.654  1.00  0.00     0.004 C 
INPUT-LIGAND-PDBQT: BRANCH  20  24
INPUT-LIGAND-PDBQT: ATOM     24  C   UNL     1      -3.157  -0.110   1.034  1.00  0.00    -0.025 A 
INPUT-LIGAND-PDBQT: ATOM     25  C   UNL     1      -3.856   1.097   0.995  1.00  0.00     0.006 A 
INPUT-LIGAND-PDBQT: ATOM     26  C   UNL     1      -2.234  -0.238   2.048  1.00  0.00     0.006 A 
INPUT-LIGAND-PDBQT: ATOM     27  C   UNL     1      -3.639   2.104   1.912  1.00  0.00     0.000 A 
INPUT-LIGAND-PDBQT: ATOM     28  C   UNL     1      -1.986   0.743   2.984  1.00  0.00     0.000 A 
INPUT-LIGAND-PDBQT: ATOM     29  C   UNL     1      -2.705   1.938   2.914  1.00  0.00     0.000 A 
INPUT-LIGAND-PDBQT: ENDBRANCH  20  24
INPUT-LIGAND-PDBQT: ENDBRANCH  16  18
INPUT-LIGAND-PDBQT: ENDBRANCH   1  16
INPUT-LIGAND-PDBQT: TORSDOF 5


    FINAL DOCKED STATE:
    ________________________


Run:   1 / 20
Time taken for this run:   0.031s

DOCKED: MODEL        1
DOCKED: USER    Run = 1
DOCKED: USER
DOCKED: USER    Estimated Free Energy of Binding    =  -8.42 kcal/mol  [=(1)+(2)+(3)-(4)]
DOCKED: USER
DOCKED: USER    (1) Final Intermolecular Energy     =  -9.92 kcal/mol
DOCKED: USER        vdW + Hbond + desolv Energy     =  -9.90 kcal/mol
DOCKED: USER        Electrostatic Energy            =  -0.01 kcal/mol
DOCKED: USER        Moving Ligand-Fixed Receptor    =  -9.92 kcal/mol
DOCKED: USER        Moving Ligand-Moving Receptor   =  +0.00 kcal/mol
DOCKED: USER    (2) Final Total Internal Energy     =  -1.82 kcal/mol
DOCKED: USER    (3) Torsional Free Energy           =  +1.49 kcal/mol
DOCKED: USER    (4) Unbound System's Energy         =  -1.82 kcal/mol
DOCKED: USER
DOCKED: USER
DOCKED: REMARK SMILES O=C(NCC(=O)N1CCCC[C@H]1c1ccccc1)c1ccc2ccccc2n1
DOCKED: REMARK SMILES IDX 4 1 3 2 2 3 1 4 19 6 20 7 28 8 21 9 27 10 22 11 26 12 23 13
DOCKED: REMARK SMILES IDX 25 14 24 15 5 16 6 17 7 18 8 19 12 20 9 21 11 22 10 23 13 24
DOCKED: REMARK SMILES IDX 14 25 18 26 15 27 17 28 16 29
DOCKED: REMARK H PARENT 3 5
DOCKED: USER                              x       y       z     vdW  Elec       q    Type
DOCKED: USER                           _______ _______ _______ _____ _____    ______ ____
DOCKED: ROOT
DOCKED: ATOM      1  C   UNL     1     140.294  74.221 221.041 -0.18 -0.04    +0.216 C  
DOCKED: ENDROOT
DOCKED: BRANCH   1   2
DOCKED: ATOM      2  N   UNL     1     140.050  73.555 222.300 -0.10 +0.02    -0.342 N  
DOCKED: ATOM      3  C   UNL     1     140.491  72.196 222.419 -0.20 -0.03    +0.270 C  
DOCKED: ATOM      4  O   UNL     1     141.065  71.660 221.420 -0.15 +0.03    -0.268 OA 
DOCKED: ATOM      5  H   UNL     1     139.573  74.012 223.114 -0.52 -0.02    +0.164 HD 
DOCKED: BRANCH   3   6
DOCKED: ATOM      6  C   UNL     1     140.284  71.452 223.653 -0.33 -0.02    +0.128 A  
DOCKED: ATOM      7  C   UNL     1     139.614  70.253 223.601 -0.28 -0.01    +0.035 A  
DOCKED: ATOM      8  N   UNL     1     140.717  71.875 224.854 -0.27 +0.03    -0.243 NA 
DOCKED: ATOM      9  C   UNL     1     139.364  69.470 224.702 -0.36 -0.00    +0.013 A  
DOCKED: ATOM     10  C   UNL     1     140.497  71.140 225.974 -0.55 -0.01    +0.071 A  
DOCKED: ATOM     11  C   UNL     1     139.823  69.934 225.921 -0.48 -0.00    +0.000 A  
DOCKED: ATOM     12  C   UNL     1     140.940  71.570 227.210 -0.75 -0.01    +0.029 A  
DOCKED: ATOM     13  C   UNL     1     139.578  69.156 227.034 -0.55 -0.00    +0.010 A  
DOCKED: ATOM     14  C   UNL     1     140.702  70.798 228.344 -0.61 -0.00    +0.002 A  
DOCKED: ATOM     15  C   UNL     1     140.020  69.589 228.258 -0.62 -0.00    +0.001 A  
DOCKED: ENDBRANCH   3   6
DOCKED: ENDBRANCH   1   2
DOCKED: BRANCH   1  16
DOCKED: ATOM     16  C   UNL     1     141.147  75.428 221.199 -0.22 -0.07    +0.242 C  
DOCKED: ATOM     17  O   UNL     1     141.408  75.868 222.354 -0.27 +0.09    -0.273 OA 
DOCKED: BRANCH  16  18
DOCKED: ATOM     18  N   UNL     1     141.645  76.049 220.018 -0.10 +0.14    -0.334 N  
DOCKED: ATOM     19  C   UNL     1     141.245  77.398 219.619 -0.18 -0.06    +0.120 C  
DOCKED: ATOM     20  C   UNL     1     142.584  75.347 219.149 -0.22 -0.05    +0.115 C  
DOCKED: ATOM     21  C   UNL     1     141.031  77.425 218.115 -0.11 -0.01    +0.022 C  
DOCKED: ATOM     22  C   UNL     1     143.300  76.384 218.337 -0.30 -0.02    +0.030 C  
DOCKED: ATOM     23  C   UNL     1     142.275  76.989 217.373 -0.20 -0.00    +0.004 C  
DOCKED: BRANCH  20  24
DOCKED: ATOM     24  C   UNL     1     143.489  74.426 219.853 -0.34 +0.01    -0.025 A  
DOCKED: ATOM     25  C   UNL     1     144.668  74.891 220.438 -0.37 -0.00    +0.006 A  
DOCKED: ATOM     26  C   UNL     1     143.244  73.078 219.986 -0.26 -0.00    +0.006 A  
DOCKED: ATOM     27  C   UNL     1     145.538  74.056 221.106 -0.55 -0.00    +0.000 A  
DOCKED: ATOM     28  C   UNL     1     144.087  72.208 220.645 -0.36 -0.00    +0.000 A  
DOCKED: ATOM     29  C   UNL     1     145.257  72.710 221.217 -0.45 -0.00    +0.000 A  
DOCKED: ENDBRANCH  20  24
DOCKED: ENDBRANCH  16  18
DOCKED: ENDBRANCH   1  16
DOCKED: TORSDOF 5
DOCKED: TER
DOCKED: ENDMDL
________________________________________________________________________________


    FINAL DOCKED STATE:
    ________________________


Run:   2 / 20
Time taken for this run:   0.031s

DOCKED: MODEL        2
DOCKED: USER    Run = 2
DOCKED: USER
DOCKED: USER    Estimated Free Energy of Binding    =  -8.39 kcal/mol  [=(1)+(2)+(3)-(4)]
DOCKED: USER
DOCKED: USER    (1) Final Intermolecular Energy     =  -9.89 kcal/mol
DOCKED: USER        vdW + Hbond + desolv Energy     =  -9.87 kcal/mol
DOCKED: USER        Electrostatic Energy            =  -0.02 kcal/mol
DOCKED: USER        Moving Ligand-Fixed Receptor    =  -9.89 kcal/mol
DOCKED: USER        Moving Ligand-Moving Receptor   =  +0.00 kcal/mol
DOCKED: USER    (2) Final Total Internal Energy     =  -1.80 kcal/mol
DOCKED: USER    (3) Torsional Free Energy           =  +1.49 kcal/mol
DOCKED: USER    (4) Unbound System's Energy         =  -1.80 kcal/mol
DOCKED: USER
DOCKED: USER
DOCKED: REMARK SMILES O=C(NCC(=O)N1CCCC[C@H]1c1ccccc1)c1ccc2ccccc2n1
DOCKED: REMARK SMILES IDX 4 1 3 2 2 3 1 4 19 6 20 7 28 8 21 9 27 10 22 11 26 12 23 13
DOCKED: REMARK SMILES IDX 25 14 24 15 5 16 6 17 7 18 8 19 12 20 9 21 11 22 10 23 13 24
DOCKED: REMARK SMILES IDX 14 25 18 26 15 27 17 28 16 29
DOCKED: REMARK H PARENT 3 5
DOCKED: USER                              x       y       z     vdW  Elec       q    Type
DOCKED: USER                           _______ _______ _______ _____ _____    ______ ____
DOCKED: ROOT
DOCKED: ATOM      1  C   UNL     1     140.234  74.215 221.041 -0.18 -0.04    +0.216 C  
DOCKED: ENDROOT
DOCKED: BRANCH   1   2
DOCKED: ATOM      2  N   UNL     1     140.019  73.550 222.306 -0.11 +0.03    -0.342 N  
DOCKED: ATOM      3  C   UNL     1     140.436  72.182 222.407 -0.21 -0.03    +0.270 C  
DOCKED: ATOM      4  O   UNL     1     140.965  71.637 221.388 -0.14 +0.03    -0.268 OA 
DOCKED: ATOM      5  H   UNL     1     139.580  74.015 223.136 -0.51 -0.02    +0.164 HD 
DOCKED: BRANCH   3   6
DOCKED: ATOM      6  C   UNL     1     140.256  71.440 223.646 -0.33 -0.02    +0.128 A  
DOCKED: ATOM      7  C   UNL     1     139.593  70.236 223.608 -0.29 -0.01    +0.035 A  
DOCKED: ATOM      8  N   UNL     1     140.708  71.868 224.839 -0.28 +0.03    -0.243 NA 
DOCKED: ATOM      9  C   UNL     1     139.368  69.454 224.715 -0.36 -0.00    +0.013 A  
DOCKED: ATOM     10  C   UNL     1     140.512  71.134 225.963 -0.55 -0.01    +0.071 A  
DOCKED: ATOM     11  C   UNL     1     139.845  69.923 225.925 -0.48 -0.00    +0.000 A  
DOCKED: ATOM     12  C   UNL     1     140.974  71.570 227.190 -0.75 -0.01    +0.029 A  
DOCKED: ATOM     13  C   UNL     1     139.625  69.146 227.043 -0.56 -0.00    +0.010 A  
DOCKED: ATOM     14  C   UNL     1     140.762  70.799 228.330 -0.62 -0.00    +0.002 A  
DOCKED: ATOM     15  C   UNL     1     140.086  69.584 228.258 -0.62 -0.00    +0.001 A  
DOCKED: ENDBRANCH   3   6
DOCKED: ENDBRANCH   1   2
DOCKED: BRANCH   1  16
DOCKED: ATOM     16  C   UNL     1     140.991  75.485 221.193 -0.23 -0.07    +0.242 C  
DOCKED: ATOM     17  O   UNL     1     141.216  75.949 222.346 -0.34 +0.08    -0.273 OA 
DOCKED: BRANCH  16  18
DOCKED: ATOM     18  N   UNL     1     141.440  76.137 220.009 -0.08 +0.14    -0.334 N  
DOCKED: ATOM     19  C   UNL     1     141.029  77.498 219.666 -0.16 -0.05    +0.120 C  
DOCKED: ATOM     20  C   UNL     1     142.338  75.456 219.081 -0.19 -0.05    +0.115 C  
DOCKED: ATOM     21  C   UNL     1     140.751  77.567 218.173 -0.09 -0.01    +0.022 C  
DOCKED: ATOM     22  C   UNL     1     143.022  76.513 218.268 -0.29 -0.02    +0.030 C  
DOCKED: ATOM     23  C   UNL     1     141.959  77.148 217.367 -0.17 -0.00    +0.004 C  
DOCKED: BRANCH  20  24
DOCKED: ATOM     24  C   UNL     1     143.268  74.513 219.720 -0.32 +0.01    -0.025 A  
DOCKED: ATOM     25  C   UNL     1     142.966  73.153 219.797 -0.22 -0.00    +0.006 A  
DOCKED: ATOM     26  C   UNL     1     144.472  74.894 220.269 -0.40 -0.00    +0.006 A  
DOCKED: ATOM     27  C   UNL     1     143.816  72.242 220.388 -0.33 -0.00    +0.000 A  
DOCKED: ATOM     28  C   UNL     1     145.350  74.016 220.868 -0.60 -0.00    +0.000 A  
DOCKED: ATOM     29  C   UNL     1     145.014  72.662 220.927 -0.48 -0.00    +0.000 A  
DOCKED: ENDBRANCH  20  24
DOCKED: ENDBRANCH  16  18
DOCKED: ENDBRANCH   1  16
DOCKED: TORSDOF 5
DOCKED: TER
DOCKED: ENDMDL
________________________________________________________________________________


    FINAL DOCKED STATE:
    ________________________


Run:   3 / 20
Time taken for this run:   0.031s

DOCKED: MODEL        3
DOCKED: USER    Run = 3
DOCKED: USER
DOCKED: USER    Estimated Free Energy of Binding    =  -7.14 kcal/mol  [=(1)+(2)+(3)-(4)]
DOCKED: USER
DOCKED: USER    (1) Final Intermolecular Energy     =  -8.63 kcal/mol
DOCKED: USER        vdW + Hbond + desolv Energy     =  -8.59 kcal/mol
DOCKED: USER        Electrostatic Energy            =  -0.05 kcal/mol
DOCKED: USER        Moving Ligand-Fixed Receptor    =  -8.63 kcal/mol
DOCKED: USER        Moving Ligand-Moving Receptor   =  +0.00 kcal/mol
DOCKED: USER    (2) Final Total Internal Energy     =  -2.47 kcal/mol
DOCKED: USER    (3) Torsional Free Energy           =  +1.49 kcal/mol
DOCKED: USER    (4) Unbound System's Energy         =  -2.47 kcal/mol
DOCKED: USER
DOCKED: USER
DOCKED: REMARK SMILES O=C(NCC(=O)N1CCCC[C@H]1c1ccccc1)c1ccc2ccccc2n1
DOCKED: REMARK SMILES IDX 4 1 3 2 2 3 1 4 19 6 20 7 28 8 21 9 27 10 22 11 26 12 23 13
DOCKED: REMARK SMILES IDX 25 14 24 15 5 16 6 17 7 18 8 19 12 20 9 21 11 22 10 23 13 24
DOCKED: REMARK SMILES IDX 14 25 18 26 15 27 17 28 16 29
DOCKED: REMARK H PARENT 3 5
DOCKED: USER                              x       y       z     vdW  Elec       q    Type
DOCKED: USER                           _______ _______ _______ _____ _____    ______ ____
DOCKED: ROOT
DOCKED: ATOM      1  C   UNL     1     141.329  79.274 219.169 -0.16 -0.11    +0.216 C  
DOCKED: ENDROOT
DOCKED: BRANCH   1   2
DOCKED: ATOM      2  N   UNL     1     142.226  78.158 219.365 -0.13 +0.24    -0.342 N  
DOCKED: ATOM      3  C   UNL     1     141.826  76.892 218.824 -0.13 -0.13    +0.270 C  
DOCKED: ATOM      4  O   UNL     1     140.715  76.824 218.207 -0.03 +0.10    -0.268 OA 
DOCKED: ATOM      5  H   UNL     1     143.137  78.231 219.877 -0.37 -0.19    +0.164 HD 
DOCKED: BRANCH   3   6
DOCKED: ATOM      6  C   UNL     1     142.671  75.717 218.977 -0.22 -0.06    +0.128 A  
DOCKED: ATOM      7  C   UNL     1     142.417  74.611 218.200 -0.11 -0.01    +0.035 A  
DOCKED: ATOM      8  N   UNL     1     143.698  75.651 219.843 -0.27 +0.15    -0.243 NA 
DOCKED: ATOM      9  C   UNL     1     143.150  73.451 218.262 -0.11 -0.00    +0.013 A  
DOCKED: ATOM     10  C   UNL     1     144.454  74.528 219.944 -0.38 -0.03    +0.071 A  
DOCKED: ATOM     11  C   UNL     1     144.198  73.417 219.163 -0.27 -0.00    +0.000 A  
DOCKED: ATOM     12  C   UNL     1     145.510  74.456 220.832 -0.47 -0.01    +0.029 A  
DOCKED: ATOM     13  C   UNL     1     144.942  72.257 219.234 -0.30 +0.00    +0.010 A  
DOCKED: ATOM     14  C   UNL     1     146.271  73.294 220.917 -0.68 +0.00    +0.002 A  
DOCKED: ATOM     15  C   UNL     1     145.989  72.191 220.118 -0.38 +0.00    +0.001 A  
DOCKED: ENDBRANCH   3   6
DOCKED: ENDBRANCH   1   2
DOCKED: BRANCH   1  16
DOCKED: ATOM     16  C   UNL     1     140.390  79.449 220.308 -0.10 -0.08    +0.242 C  
DOCKED: ATOM     17  O   UNL     1     139.144  79.394 220.111 -0.03 +0.07    -0.273 OA 
DOCKED: BRANCH  16  18
DOCKED: ATOM     18  N   UNL     1     140.947  79.676 221.599 -0.11 +0.11    -0.334 N  
DOCKED: ATOM     19  C   UNL     1     141.135  81.021 222.142 -0.36 -0.03    +0.120 C  
DOCKED: ATOM     20  C   UNL     1     141.359  78.554 222.437 -0.41 -0.05    +0.115 C  
DOCKED: ATOM     21  C   UNL     1     142.472  81.080 222.862 -0.46 -0.00    +0.022 C  
DOCKED: ATOM     22  C   UNL     1     141.396  79.046 223.853 -0.58 -0.01    +0.030 C  
DOCKED: ATOM     23  C   UNL     1     142.556  80.040 223.956 -0.55 -0.00    +0.004 C  
DOCKED: BRANCH  20  24
DOCKED: ATOM     24  C   UNL     1     140.553  77.336 222.260 -0.40 +0.01    -0.025 A  
DOCKED: ATOM     25  C   UNL     1     139.175  77.354 222.478 -0.31 -0.00    +0.006 A  
DOCKED: ATOM     26  C   UNL     1     141.085  76.126 221.874 -0.36 -0.00    +0.006 A  
DOCKED: ATOM     27  C   UNL     1     138.390  76.232 222.320 -0.30 -0.00    +0.000 A  
DOCKED: ATOM     28  C   UNL     1     140.337  74.981 221.705 -0.31 -0.00    +0.000 A  
DOCKED: ATOM     29  C   UNL     1     138.960  75.037 221.932 -0.28 -0.00    +0.000 A  
DOCKED: ENDBRANCH  20  24
DOCKED: ENDBRANCH  16  18
DOCKED: ENDBRANCH   1  16
DOCKED: TORSDOF 5
DOCKED: TER
DOCKED: ENDMDL
________________________________________________________________________________


    FINAL DOCKED STATE:
    ________________________


Run:   4 / 20
Time taken for this run:   0.031s

DOCKED: MODEL        4
DOCKED: USER    Run = 4
DOCKED: USER
DOCKED: USER    Estimated Free Energy of Binding    =  -7.13 kcal/mol  [=(1)+(2)+(3)-(4)]
DOCKED: USER
DOCKED: USER    (1) Final Intermolecular Energy     =  -8.63 kcal/mol
DOCKED: USER        vdW + Hbond + desolv Energy     =  -8.58 kcal/mol
DOCKED: USER        Electrostatic Energy            =  -0.05 kcal/mol
DOCKED: USER        Moving Ligand-Fixed Receptor    =  -8.63 kcal/mol
DOCKED: USER        Moving Ligand-Moving Receptor   =  +0.00 kcal/mol
DOCKED: USER    (2) Final Total Internal Energy     =  -2.47 kcal/mol
DOCKED: USER    (3) Torsional Free Energy           =  +1.49 kcal/mol
DOCKED: USER    (4) Unbound System's Energy         =  -2.47 kcal/mol
DOCKED: USER
DOCKED: USER
DOCKED: REMARK SMILES O=C(NCC(=O)N1CCCC[C@H]1c1ccccc1)c1ccc2ccccc2n1
DOCKED: REMARK SMILES IDX 4 1 3 2 2 3 1 4 19 6 20 7 28 8 21 9 27 10 22 11 26 12 23 13
DOCKED: REMARK SMILES IDX 25 14 24 15 5 16 6 17 7 18 8 19 12 20 9 21 11 22 10 23 13 24
DOCKED: REMARK SMILES IDX 14 25 18 26 15 27 17 28 16 29
DOCKED: REMARK H PARENT 3 5
DOCKED: USER                              x       y       z     vdW  Elec       q    Type
DOCKED: USER                           _______ _______ _______ _____ _____    ______ ____
DOCKED: ROOT
DOCKED: ATOM      1  C   UNL     1     141.353  79.297 219.148 -0.16 -0.11    +0.216 C  
DOCKED: ENDROOT
DOCKED: BRANCH   1   2
DOCKED: ATOM      2  N   UNL     1     142.255  78.183 219.335 -0.12 +0.24    -0.342 N  
DOCKED: ATOM      3  C   UNL     1     141.831  76.906 218.839 -0.14 -0.13    +0.270 C  
DOCKED: ATOM      4  O   UNL     1     140.698  76.828 218.269 -0.03 +0.10    -0.268 OA 
DOCKED: ATOM      5  H   UNL     1     143.185  78.265 219.810 -0.36 -0.20    +0.164 HD 
DOCKED: BRANCH   3   6
DOCKED: ATOM      6  C   UNL     1     142.679  75.733 218.986 -0.23 -0.06    +0.128 A  
DOCKED: ATOM      7  C   UNL     1     142.429  74.630 218.204 -0.11 -0.01    +0.035 A  
DOCKED: ATOM      8  N   UNL     1     143.707  75.665 219.852 -0.27 +0.15    -0.243 NA 
DOCKED: ATOM      9  C   UNL     1     143.165  73.472 218.260 -0.11 -0.00    +0.013 A  
DOCKED: ATOM     10  C   UNL     1     144.466  74.544 219.948 -0.37 -0.03    +0.071 A  
DOCKED: ATOM     11  C   UNL     1     144.213  73.435 219.160 -0.27 -0.00    +0.000 A  
DOCKED: ATOM     12  C   UNL     1     145.521  74.469 220.836 -0.47 -0.01    +0.029 A  
DOCKED: ATOM     13  C   UNL     1     144.960  72.277 219.225 -0.30 +0.00    +0.010 A  
DOCKED: ATOM     14  C   UNL     1     146.285  73.308 220.915 -0.69 +0.00    +0.002 A  
DOCKED: ATOM     15  C   UNL     1     146.006  72.209 220.109 -0.39 +0.00    +0.001 A  
DOCKED: ENDBRANCH   3   6
DOCKED: ENDBRANCH   1   2
DOCKED: BRANCH   1  16
DOCKED: ATOM     16  C   UNL     1     140.406  79.451 220.284 -0.10 -0.08    +0.242 C  
DOCKED: ATOM     17  O   UNL     1     139.162  79.373 220.081 -0.03 +0.07    -0.273 OA 
DOCKED: BRANCH  16  18
DOCKED: ATOM     18  N   UNL     1     140.953  79.685 221.578 -0.11 +0.11    -0.334 N  
DOCKED: ATOM     19  C   UNL     1     141.155  81.034 222.107 -0.36 -0.03    +0.120 C  
DOCKED: ATOM     20  C   UNL     1     141.339  78.567 222.433 -0.41 -0.05    +0.115 C  
DOCKED: ATOM     21  C   UNL     1     142.485  81.082 222.840 -0.45 -0.00    +0.022 C  
DOCKED: ATOM     22  C   UNL     1     141.369  79.076 223.844 -0.58 -0.01    +0.030 C  
DOCKED: ATOM     23  C   UNL     1     142.542  80.053 223.947 -0.56 -0.00    +0.004 C  
DOCKED: BRANCH  20  24
DOCKED: ATOM     24  C   UNL     1     140.518  77.360 222.262 -0.40 +0.01    -0.025 A  
DOCKED: ATOM     25  C   UNL     1     141.097  76.151 221.876 -0.35 -0.00    +0.006 A  
DOCKED: ATOM     26  C   UNL     1     139.156  77.336 222.468 -0.31 -0.00    +0.006 A  
DOCKED: ATOM     27  C   UNL     1     140.356  75.000 221.707 -0.31 -0.00    +0.000 A  
DOCKED: ATOM     28  C   UNL     1     138.379  76.209 222.310 -0.30 -0.00    +0.000 A  
DOCKED: ATOM     29  C   UNL     1     138.993  75.016 221.923 -0.28 -0.00    +0.000 A  
DOCKED: ENDBRANCH  20  24
DOCKED: ENDBRANCH  16  18
DOCKED: ENDBRANCH   1  16
DOCKED: TORSDOF 5
DOCKED: TER
DOCKED: ENDMDL
________________________________________________________________________________


    FINAL DOCKED STATE:
    ________________________


Run:   5 / 20
Time taken for this run:   0.031s

DOCKED: MODEL        5
DOCKED: USER    Run = 5
DOCKED: USER
DOCKED: USER    Estimated Free Energy of Binding    =  -8.41 kcal/mol  [=(1)+(2)+(3)-(4)]
DOCKED: USER
DOCKED: USER    (1) Final Intermolecular Energy     =  -9.90 kcal/mol
DOCKED: USER        vdW + Hbond + desolv Energy     =  -9.89 kcal/mol
DOCKED: USER        Electrostatic Energy            =  -0.02 kcal/mol
DOCKED: USER        Moving Ligand-Fixed Receptor    =  -9.90 kcal/mol
DOCKED: USER        Moving Ligand-Moving Receptor   =  +0.00 kcal/mol
DOCKED: USER    (2) Final Total Internal Energy     =  -1.81 kcal/mol
DOCKED: USER    (3) Torsional Free Energy           =  +1.49 kcal/mol
DOCKED: USER    (4) Unbound System's Energy         =  -1.81 kcal/mol
DOCKED: USER
DOCKED: USER
DOCKED: REMARK SMILES O=C(NCC(=O)N1CCCC[C@H]1c1ccccc1)c1ccc2ccccc2n1
DOCKED: REMARK SMILES IDX 4 1 3 2 2 3 1 4 19 6 20 7 28 8 21 9 27 10 22 11 26 12 23 13
DOCKED: REMARK SMILES IDX 25 14 24 15 5 16 6 17 7 18 8 19 12 20 9 21 11 22 10 23 13 24
DOCKED: REMARK SMILES IDX 14 25 18 26 15 27 17 28 16 29
DOCKED: REMARK H PARENT 3 5
DOCKED: USER                              x       y       z     vdW  Elec       q    Type
DOCKED: USER                           _______ _______ _______ _____ _____    ______ ____
DOCKED: ROOT
DOCKED: ATOM      1  C   UNL     1     140.318  74.197 221.025 -0.18 -0.04    +0.216 C  
DOCKED: ENDROOT
DOCKED: BRANCH   1   2
DOCKED: ATOM      2  N   UNL     1     140.061  73.530 222.281 -0.11 +0.02    -0.342 N  
DOCKED: ATOM      3  C   UNL     1     140.511  72.175 222.408 -0.20 -0.03    +0.270 C  
DOCKED: ATOM      4  O   UNL     1     141.104  71.642 221.418 -0.15 +0.03    -0.268 OA 
DOCKED: ATOM      5  H   UNL     1     139.568  73.984 223.087 -0.52 -0.02    +0.164 HD 
DOCKED: BRANCH   3   6
DOCKED: ATOM      6  C   UNL     1     140.292  71.431 223.639 -0.33 -0.02    +0.128 A  
DOCKED: ATOM      7  C   UNL     1     139.619  70.233 223.581 -0.28 -0.01    +0.035 A  
DOCKED: ATOM      8  N   UNL     1     140.716  71.852 224.845 -0.27 +0.03    -0.243 NA 
DOCKED: ATOM      9  C   UNL     1     139.359  69.450 224.680 -0.36 -0.00    +0.013 A  
DOCKED: ATOM     10  C   UNL     1     140.485  71.117 225.962 -0.55 -0.01    +0.071 A  
DOCKED: ATOM     11  C   UNL     1     139.808  69.912 225.903 -0.48 -0.00    +0.000 A  
DOCKED: ATOM     12  C   UNL     1     140.919  71.546 227.202 -0.74 -0.01    +0.029 A  
DOCKED: ATOM     13  C   UNL     1     139.553  69.135 227.013 -0.55 -0.00    +0.010 A  
DOCKED: ATOM     14  C   UNL     1     140.669  70.774 228.333 -0.61 -0.00    +0.002 A  
DOCKED: ATOM     15  C   UNL     1     139.986  69.566 228.241 -0.63 -0.00    +0.001 A  
DOCKED: ENDBRANCH   3   6
DOCKED: ENDBRANCH   1   2
DOCKED: BRANCH   1  16
DOCKED: ATOM     16  C   UNL     1     141.148  75.417 221.195 -0.22 -0.07    +0.242 C  
DOCKED: ATOM     17  O   UNL     1     141.399  75.852 222.354 -0.27 +0.09    -0.273 OA 
DOCKED: BRANCH  16  18
DOCKED: ATOM     18  N   UNL     1     141.637  76.058 220.021 -0.09 +0.14    -0.334 N  
DOCKED: ATOM     19  C   UNL     1     141.224  77.409 219.641 -0.18 -0.06    +0.120 C  
DOCKED: ATOM     20  C   UNL     1     142.580  75.375 219.140 -0.22 -0.05    +0.115 C  
DOCKED: ATOM     21  C   UNL     1     141.006  77.453 218.137 -0.11 -0.01    +0.022 C  
DOCKED: ATOM     22  C   UNL     1     143.284  76.429 218.339 -0.30 -0.02    +0.030 C  
DOCKED: ATOM     23  C   UNL     1     142.251  77.038 217.386 -0.20 -0.00    +0.004 C  
DOCKED: BRANCH  20  24
DOCKED: ATOM     24  C   UNL     1     143.495  74.453 219.829 -0.34 +0.01    -0.025 A  
DOCKED: ATOM     25  C   UNL     1     143.227  73.085 219.878 -0.25 -0.00    +0.006 A  
DOCKED: ATOM     26  C   UNL     1     144.650  74.863 220.456 -0.39 -0.00    +0.006 A  
DOCKED: ATOM     27  C   UNL     1     144.064  72.193 220.514 -0.35 -0.00    +0.000 A  
DOCKED: ATOM     28  C   UNL     1     145.514  74.005 221.103 -0.56 -0.00    +0.000 A  
DOCKED: ATOM     29  C   UNL     1     145.213  72.642 221.131 -0.45 -0.00    +0.000 A  
DOCKED: ENDBRANCH  20  24
DOCKED: ENDBRANCH  16  18
DOCKED: ENDBRANCH   1  16
DOCKED: TORSDOF 5
DOCKED: TER
DOCKED: ENDMDL
________________________________________________________________________________


    FINAL DOCKED STATE:
    ________________________


Run:   6 / 20
Time taken for this run:   0.031s

DOCKED: MODEL        6
DOCKED: USER    Run = 6
DOCKED: USER
DOCKED: USER    Estimated Free Energy of Binding    =  -8.42 kcal/mol  [=(1)+(2)+(3)-(4)]
DOCKED: USER
DOCKED: USER    (1) Final Intermolecular Energy     =  -9.91 kcal/mol
DOCKED: USER        vdW + Hbond + desolv Energy     =  -9.91 kcal/mol
DOCKED: USER        Electrostatic Energy            =  -0.01 kcal/mol
DOCKED: USER        Moving Ligand-Fixed Receptor    =  -9.91 kcal/mol
DOCKED: USER        Moving Ligand-Moving Receptor   =  +0.00 kcal/mol
DOCKED: USER    (2) Final Total Internal Energy     =  -1.81 kcal/mol
DOCKED: USER    (3) Torsional Free Energy           =  +1.49 kcal/mol
DOCKED: USER    (4) Unbound System's Energy         =  -1.81 kcal/mol
DOCKED: USER
DOCKED: USER
DOCKED: REMARK SMILES O=C(NCC(=O)N1CCCC[C@H]1c1ccccc1)c1ccc2ccccc2n1
DOCKED: REMARK SMILES IDX 4 1 3 2 2 3 1 4 19 6 20 7 28 8 21 9 27 10 22 11 26 12 23 13
DOCKED: REMARK SMILES IDX 25 14 24 15 5 16 6 17 7 18 8 19 12 20 9 21 11 22 10 23 13 24
DOCKED: REMARK SMILES IDX 14 25 18 26 15 27 17 28 16 29
DOCKED: REMARK H PARENT 3 5
DOCKED: USER                              x       y       z     vdW  Elec       q    Type
DOCKED: USER                           _______ _______ _______ _____ _____    ______ ____
DOCKED: ROOT
DOCKED: ATOM      1  C   UNL     1     140.353  74.203 221.015 -0.18 -0.04    +0.216 C  
DOCKED: ENDROOT
DOCKED: BRANCH   1   2
DOCKED: ATOM      2  N   UNL     1     140.095  73.545 222.275 -0.10 +0.02    -0.342 N  
DOCKED: ATOM      3  C   UNL     1     140.525  72.183 222.404 -0.20 -0.03    +0.270 C  
DOCKED: ATOM      4  O   UNL     1     141.103  71.638 221.411 -0.15 +0.03    -0.268 OA 
DOCKED: ATOM      5  H   UNL     1     139.615  74.008 223.083 -0.49 -0.01    +0.164 HD 
DOCKED: BRANCH   3   6
DOCKED: ATOM      6  C   UNL     1     140.304  71.447 223.639 -0.33 -0.02    +0.128 A  
DOCKED: ATOM      7  C   UNL     1     139.655  70.235 223.584 -0.27 -0.01    +0.035 A  
DOCKED: ATOM      8  N   UNL     1     140.704  71.887 224.846 -0.28 +0.03    -0.243 NA 
DOCKED: ATOM      9  C   UNL     1     139.395  69.458 224.686 -0.36 -0.00    +0.013 A  
DOCKED: ATOM     10  C   UNL     1     140.471  71.158 225.967 -0.55 -0.01    +0.071 A  
DOCKED: ATOM     11  C   UNL     1     139.819  69.941 225.910 -0.48 -0.00    +0.000 A  
DOCKED: ATOM     12  C   UNL     1     140.880  71.607 227.208 -0.75 -0.01    +0.029 A  
DOCKED: ATOM     13  C   UNL     1     139.563  69.169 227.025 -0.55 -0.00    +0.010 A  
DOCKED: ATOM     14  C   UNL     1     140.630  70.841 228.344 -0.62 -0.00    +0.002 A  
DOCKED: ATOM     15  C   UNL     1     139.971  69.620 228.254 -0.62 -0.00    +0.001 A  
DOCKED: ENDBRANCH   3   6
DOCKED: ENDBRANCH   1   2
DOCKED: BRANCH   1  16
DOCKED: ATOM     16  C   UNL     1     141.141  75.452 221.183 -0.22 -0.07    +0.242 C  
DOCKED: ATOM     17  O   UNL     1     141.345  75.917 222.340 -0.30 +0.09    -0.273 OA 
DOCKED: BRANCH  16  18
DOCKED: ATOM     18  N   UNL     1     141.644  76.083 220.010 -0.10 +0.15    -0.334 N  
DOCKED: ATOM     19  C   UNL     1     141.235  77.431 219.614 -0.18 -0.06    +0.120 C  
DOCKED: ATOM     20  C   UNL     1     142.598  75.394 219.147 -0.22 -0.05    +0.115 C  
DOCKED: ATOM     21  C   UNL     1     141.036  77.463 218.107 -0.11 -0.01    +0.022 C  
DOCKED: ATOM     22  C   UNL     1     143.312  76.443 218.346 -0.30 -0.02    +0.030 C  
DOCKED: ATOM     23  C   UNL     1     142.290  77.042 217.376 -0.21 -0.00    +0.004 C  
DOCKED: BRANCH  20  24
DOCKED: ATOM     24  C   UNL     1     143.505  74.479 219.855 -0.35 +0.01    -0.025 A  
DOCKED: ATOM     25  C   UNL     1     143.214  73.118 219.951 -0.26 -0.00    +0.006 A  
DOCKED: ATOM     26  C   UNL     1     144.676  74.888 220.455 -0.38 -0.00    +0.006 A  
DOCKED: ATOM     27  C   UNL     1     144.043  72.232 220.607 -0.36 -0.00    +0.000 A  
DOCKED: ATOM     28  C   UNL     1     145.531  74.036 221.120 -0.55 -0.00    +0.000 A  
DOCKED: ATOM     29  C   UNL     1     145.208  72.680 221.196 -0.45 -0.00    +0.000 A  
DOCKED: ENDBRANCH  20  24
DOCKED: ENDBRANCH  16  18
DOCKED: ENDBRANCH   1  16
DOCKED: TORSDOF 5
DOCKED: TER
DOCKED: ENDMDL
________________________________________________________________________________


    FINAL DOCKED STATE:
    ________________________


Run:   7 / 20
Time taken for this run:   0.031s

DOCKED: MODEL        7
DOCKED: USER    Run = 7
DOCKED: USER
DOCKED: USER    Estimated Free Energy of Binding    =  -8.83 kcal/mol  [=(1)+(2)+(3)-(4)]
DOCKED: USER
DOCKED: USER    (1) Final Intermolecular Energy     = -10.32 kcal/mol
DOCKED: USER        vdW + Hbond + desolv Energy     = -10.22 kcal/mol
DOCKED: USER        Electrostatic Energy            =  -0.11 kcal/mol
DOCKED: USER        Moving Ligand-Fixed Receptor    = -10.32 kcal/mol
DOCKED: USER        Moving Ligand-Moving Receptor   =  +0.00 kcal/mol
DOCKED: USER    (2) Final Total Internal Energy     =  -1.26 kcal/mol
DOCKED: USER    (3) Torsional Free Energy           =  +1.49 kcal/mol
DOCKED: USER    (4) Unbound System's Energy         =  -1.26 kcal/mol
DOCKED: USER
DOCKED: USER
DOCKED: REMARK SMILES O=C(NCC(=O)N1CCCC[C@H]1c1ccccc1)c1ccc2ccccc2n1
DOCKED: REMARK SMILES IDX 4 1 3 2 2 3 1 4 19 6 20 7 28 8 21 9 27 10 22 11 26 12 23 13
DOCKED: REMARK SMILES IDX 25 14 24 15 5 16 6 17 7 18 8 19 12 20 9 21 11 22 10 23 13 24
DOCKED: REMARK SMILES IDX 14 25 18 26 15 27 17 28 16 29
DOCKED: REMARK H PARENT 3 5
DOCKED: USER                              x       y       z     vdW  Elec       q    Type
DOCKED: USER                           _______ _______ _______ _____ _____    ______ ____
DOCKED: ROOT
DOCKED: ATOM      1  C   UNL     1     139.802  74.539 221.192 -0.18 -0.04    +0.216 C  
DOCKED: ENDROOT
DOCKED: BRANCH   1   2
DOCKED: ATOM      2  N   UNL     1     139.576  73.706 222.351 -0.11 +0.06    -0.342 N  
DOCKED: ATOM      3  C   UNL     1     140.401  72.542 222.493 -0.19 -0.02    +0.270 C  
DOCKED: ATOM      4  O   UNL     1     141.275  72.311 221.599 -0.20 +0.02    -0.268 OA 
DOCKED: ATOM      5  H   UNL     1     138.850  73.911 223.078 -0.55 -0.10    +0.164 HD 
DOCKED: BRANCH   3   6
DOCKED: ATOM      6  C   UNL     1     140.239  71.650 223.631 -0.33 -0.02    +0.128 A  
DOCKED: ATOM      7  C   UNL     1     139.542  70.477 223.462 -0.29 -0.01    +0.035 A  
DOCKED: ATOM      8  N   UNL     1     140.738  71.910 224.853 -0.24 +0.03    -0.243 NA 
DOCKED: ATOM      9  C   UNL     1     139.329  69.564 224.466 -0.34 -0.00    +0.013 A  
DOCKED: ATOM     10  C   UNL     1     140.556  71.042 225.880 -0.54 -0.01    +0.071 A  
DOCKED: ATOM     11  C   UNL     1     139.856  69.862 225.709 -0.47 -0.00    +0.000 A  
DOCKED: ATOM     12  C   UNL     1     141.067  71.305 227.137 -0.71 -0.00    +0.029 A  
DOCKED: ATOM     13  C   UNL     1     139.649  68.952 226.725 -0.55 -0.00    +0.010 A  
DOCKED: ATOM     14  C   UNL     1     140.868  70.398 228.174 -0.60 -0.00    +0.002 A  
DOCKED: ATOM     15  C   UNL     1     140.158  69.219 227.970 -0.64 -0.00    +0.001 A  
DOCKED: ENDBRANCH   3   6
DOCKED: ENDBRANCH   1   2
DOCKED: BRANCH   1  16
DOCKED: ATOM     16  C   UNL     1     140.671  75.705 221.497 -0.25 -0.06    +0.242 C  
DOCKED: ATOM     17  O   UNL     1     140.891  76.030 222.698 -0.26 +0.06    -0.273 OA 
DOCKED: BRANCH  16  18
DOCKED: ATOM     18  N   UNL     1     141.231  76.422 220.401 -0.10 +0.14    -0.334 N  
DOCKED: ATOM     19  C   UNL     1     141.206  75.901 219.034 -0.10 -0.04    +0.120 C  
DOCKED: ATOM     20  C   UNL     1     141.863  77.722 220.609 -0.24 -0.07    +0.115 C  
DOCKED: ATOM     21  C   UNL     1     142.541  76.197 218.370 -0.24 -0.01    +0.022 C  
DOCKED: ATOM     22  C   UNL     1     141.870  78.430 219.287 -0.27 -0.02    +0.030 C  
DOCKED: ATOM     23  C   UNL     1     142.846  77.677 218.378 -0.30 -0.00    +0.004 C  
DOCKED: BRANCH  20  24
DOCKED: ATOM     24  C   UNL     1     141.271  78.516 221.696 -0.37 +0.01    -0.025 A  
DOCKED: ATOM     25  C   UNL     1     142.067  79.022 222.725 -0.54 -0.00    +0.006 A  
DOCKED: ATOM     26  C   UNL     1     139.929  78.812 221.773 -0.25 -0.00    +0.006 A  
DOCKED: ATOM     27  C   UNL     1     141.546  79.771 223.759 -0.59 -0.00    +0.000 A  
DOCKED: ATOM     28  C   UNL     1     139.367  79.556 222.788 -0.33 -0.00    +0.000 A  
DOCKED: ATOM     29  C   UNL     1     140.194  80.046 223.801 -0.44 -0.00    +0.000 A  
DOCKED: ENDBRANCH  20  24
DOCKED: ENDBRANCH  16  18
DOCKED: ENDBRANCH   1  16
DOCKED: TORSDOF 5
DOCKED: TER
DOCKED: ENDMDL
________________________________________________________________________________


    FINAL DOCKED STATE:
    ________________________


Run:   8 / 20
Time taken for this run:   0.031s

DOCKED: MODEL        8
DOCKED: USER    Run = 8
DOCKED: USER
DOCKED: USER    Estimated Free Energy of Binding    =  -8.42 kcal/mol  [=(1)+(2)+(3)-(4)]
DOCKED: USER
DOCKED: USER    (1) Final Intermolecular Energy     =  -9.92 kcal/mol
DOCKED: USER        vdW + Hbond + desolv Energy     =  -9.90 kcal/mol
DOCKED: USER        Electrostatic Energy            =  -0.02 kcal/mol
DOCKED: USER        Moving Ligand-Fixed Receptor    =  -9.92 kcal/mol
DOCKED: USER        Moving Ligand-Moving Receptor   =  +0.00 kcal/mol
DOCKED: USER    (2) Final Total Internal Energy     =  -1.80 kcal/mol
DOCKED: USER    (3) Torsional Free Energy           =  +1.49 kcal/mol
DOCKED: USER    (4) Unbound System's Energy         =  -1.80 kcal/mol
DOCKED: USER
DOCKED: USER
DOCKED: REMARK SMILES O=C(NCC(=O)N1CCCC[C@H]1c1ccccc1)c1ccc2ccccc2n1
DOCKED: REMARK SMILES IDX 4 1 3 2 2 3 1 4 19 6 20 7 28 8 21 9 27 10 22 11 26 12 23 13
DOCKED: REMARK SMILES IDX 25 14 24 15 5 16 6 17 7 18 8 19 12 20 9 21 11 22 10 23 13 24
DOCKED: REMARK SMILES IDX 14 25 18 26 15 27 17 28 16 29
DOCKED: REMARK H PARENT 3 5
DOCKED: USER                              x       y       z     vdW  Elec       q    Type
DOCKED: USER                           _______ _______ _______ _____ _____    ______ ____
DOCKED: ROOT
DOCKED: ATOM      1  C   UNL     1     140.310  74.203 221.019 -0.18 -0.04    +0.216 C  
DOCKED: ENDROOT
DOCKED: BRANCH   1   2
DOCKED: ATOM      2  N   UNL     1     140.047  73.541 222.276 -0.11 +0.02    -0.342 N  
DOCKED: ATOM      3  C   UNL     1     140.489  72.183 222.407 -0.20 -0.03    +0.270 C  
DOCKED: ATOM      4  O   UNL     1     141.081  71.645 221.418 -0.15 +0.03    -0.268 OA 
DOCKED: ATOM      5  H   UNL     1     139.557  74.000 223.081 -0.51 -0.02    +0.164 HD 
DOCKED: BRANCH   3   6
DOCKED: ATOM      6  C   UNL     1     140.265  71.443 223.640 -0.33 -0.02    +0.128 A  
DOCKED: ATOM      7  C   UNL     1     139.574  70.255 223.585 -0.29 -0.01    +0.035 A  
DOCKED: ATOM      8  N   UNL     1     140.699  71.859 224.843 -0.28 +0.03    -0.243 NA 
DOCKED: ATOM      9  C   UNL     1     139.307  69.477 224.685 -0.36 -0.00    +0.013 A  
DOCKED: ATOM     10  C   UNL     1     140.461  71.128 225.962 -0.54 -0.01    +0.071 A  
DOCKED: ATOM     11  C   UNL     1     139.767  69.934 225.906 -0.48 -0.00    +0.000 A  
DOCKED: ATOM     12  C   UNL     1     140.906  71.552 227.199 -0.74 -0.01    +0.029 A  
DOCKED: ATOM     13  C   UNL     1     139.505  69.161 227.017 -0.54 -0.00    +0.010 A  
DOCKED: ATOM     14  C   UNL     1     140.650  70.784 228.332 -0.61 -0.00    +0.002 A  
DOCKED: ATOM     15  C   UNL     1     139.948  69.586 228.243 -0.63 -0.00    +0.001 A  
DOCKED: ENDBRANCH   3   6
DOCKED: ENDBRANCH   1   2
DOCKED: BRANCH   1  16
DOCKED: ATOM     16  C   UNL     1     141.105  75.447 221.193 -0.23 -0.07    +0.242 C  
DOCKED: ATOM     17  O   UNL     1     141.315  75.903 222.352 -0.30 +0.09    -0.273 OA 
DOCKED: BRANCH  16  18
DOCKED: ATOM     18  N   UNL     1     141.605  76.086 220.022 -0.09 +0.14    -0.334 N  
DOCKED: ATOM     19  C   UNL     1     141.223  77.448 219.653 -0.18 -0.06    +0.120 C  
DOCKED: ATOM     20  C   UNL     1     142.531  75.388 219.135 -0.21 -0.05    +0.115 C  
DOCKED: ATOM     21  C   UNL     1     141.003  77.508 218.150 -0.11 -0.01    +0.022 C  
DOCKED: ATOM     22  C   UNL     1     143.258  76.432 218.340 -0.30 -0.02    +0.030 C  
DOCKED: ATOM     23  C   UNL     1     142.237  77.071 217.394 -0.21 -0.00    +0.004 C  
DOCKED: BRANCH  20  24
DOCKED: ATOM     24  C   UNL     1     143.426  74.441 219.816 -0.34 +0.01    -0.025 A  
DOCKED: ATOM     25  C   UNL     1     144.607  74.880 220.416 -0.38 -0.00    +0.006 A  
DOCKED: ATOM     26  C   UNL     1     143.169  73.091 219.910 -0.25 -0.00    +0.006 A  
DOCKED: ATOM     27  C   UNL     1     145.469  74.019 221.064 -0.55 -0.00    +0.000 A  
DOCKED: ATOM     28  C   UNL     1     144.003  72.197 220.547 -0.35 -0.00    +0.000 A  
DOCKED: ATOM     29  C   UNL     1     145.176  72.673 221.137 -0.45 -0.00    +0.000 A  
DOCKED: ENDBRANCH  20  24
DOCKED: ENDBRANCH  16  18
DOCKED: ENDBRANCH   1  16
DOCKED: TORSDOF 5
DOCKED: TER
DOCKED: ENDMDL
________________________________________________________________________________


    FINAL DOCKED STATE:
    ________________________


Run:   9 / 20
Time taken for this run:   0.031s

DOCKED: MODEL        9
DOCKED: USER    Run = 9
DOCKED: USER
DOCKED: USER    Estimated Free Energy of Binding    =  -8.24 kcal/mol  [=(1)+(2)+(3)-(4)]
DOCKED: USER
DOCKED: USER    (1) Final Intermolecular Energy     =  -9.73 kcal/mol
DOCKED: USER        vdW + Hbond + desolv Energy     =  -9.70 kcal/mol
DOCKED: USER        Electrostatic Energy            =  -0.04 kcal/mol
DOCKED: USER        Moving Ligand-Fixed Receptor    =  -9.73 kcal/mol
DOCKED: USER        Moving Ligand-Moving Receptor   =  +0.00 kcal/mol
DOCKED: USER    (2) Final Total Internal Energy     =  -1.53 kcal/mol
DOCKED: USER    (3) Torsional Free Energy           =  +1.49 kcal/mol
DOCKED: USER    (4) Unbound System's Energy         =  -1.53 kcal/mol
DOCKED: USER
DOCKED: USER
DOCKED: REMARK SMILES O=C(NCC(=O)N1CCCC[C@H]1c1ccccc1)c1ccc2ccccc2n1
DOCKED: REMARK SMILES IDX 4 1 3 2 2 3 1 4 19 6 20 7 28 8 21 9 27 10 22 11 26 12 23 13
DOCKED: REMARK SMILES IDX 25 14 24 15 5 16 6 17 7 18 8 19 12 20 9 21 11 22 10 23 13 24
DOCKED: REMARK SMILES IDX 14 25 18 26 15 27 17 28 16 29
DOCKED: REMARK H PARENT 3 5
DOCKED: USER                              x       y       z     vdW  Elec       q    Type
DOCKED: USER                           _______ _______ _______ _____ _____    ______ ____
DOCKED: ROOT
DOCKED: ATOM      1  C   UNL     1     136.795  68.892 223.995 -0.08 -0.01    +0.216 C  
DOCKED: ENDROOT
DOCKED: BRANCH   1   2
DOCKED: ATOM      2  N   UNL     1     136.174  70.087 224.520 -0.09 +0.03    -0.342 N  
DOCKED: ATOM      3  C   UNL     1     134.975  69.919 225.289 -0.15 -0.02    +0.270 C  
DOCKED: ATOM      4  O   UNL     1     134.532  68.740 225.463 -0.39 +0.01    -0.268 OA 
DOCKED: ATOM      5  H   UNL     1     136.553  71.051 224.366 +0.04 -0.03    +0.164 HD 
DOCKED: BRANCH   3   6
DOCKED: ATOM      6  C   UNL     1     134.287  71.070 225.854 -0.23 -0.01    +0.128 A  
DOCKED: ATOM      7  C   UNL     1     133.240  70.858 226.720 -0.34 -0.00    +0.035 A  
DOCKED: ATOM      8  N   UNL     1     134.621  72.343 225.577 -0.12 +0.01    -0.243 NA 
DOCKED: ATOM      9  C   UNL     1     132.522  71.869 227.311 -0.38 -0.00    +0.013 A  
DOCKED: ATOM     10  C   UNL     1     133.944  73.379 226.133 -0.30 +0.00    +0.071 A  
DOCKED: ATOM     11  C   UNL     1     132.891  73.165 227.004 -0.40 -0.00    +0.000 A  
DOCKED: ATOM     12  C   UNL     1     134.284  74.688 225.850 -0.36 +0.00    +0.029 A  
DOCKED: ATOM     13  C   UNL     1     132.178  74.189 227.591 -0.43 -0.00    +0.010 A  
DOCKED: ATOM     14  C   UNL     1     133.574  75.734 226.434 -0.39 -0.00    +0.002 A  
DOCKED: ATOM     15  C   UNL     1     132.519  75.487 227.306 -0.38 +0.00    +0.001 A  
DOCKED: ENDBRANCH   3   6
DOCKED: ENDBRANCH   1   2
DOCKED: BRANCH   1  16
DOCKED: ATOM     16  C   UNL     1     138.268  68.891 224.191 -0.21 -0.02    +0.242 C  
DOCKED: ATOM     17  O   UNL     1     138.852  67.838 224.573 -0.64 -0.01    -0.273 OA 
DOCKED: BRANCH  16  18
DOCKED: ATOM     18  N   UNL     1     138.974  70.101 223.935 -0.12 +0.06    -0.334 N  
DOCKED: ATOM     19  C   UNL     1     138.469  71.118 223.014 -0.20 -0.03    +0.120 C  
DOCKED: ATOM     20  C   UNL     1     140.249  70.370 224.594 -0.34 -0.02    +0.115 C  
DOCKED: ATOM     21  C   UNL     1     139.629  71.663 222.197 -0.25 -0.00    +0.022 C  
DOCKED: ATOM     22  C   UNL     1     140.468  71.853 224.550 -0.29 -0.00    +0.030 C  
DOCKED: ATOM     23  C   UNL     1     140.712  72.231 223.087 -0.21 -0.00    +0.004 C  
DOCKED: BRANCH  20  24
DOCKED: ATOM     24  C   UNL     1     140.367  69.799 225.943 -0.49 +0.00    -0.025 A  
DOCKED: ATOM     25  C   UNL     1     141.036  68.592 226.152 -0.55 -0.00    +0.006 A  
DOCKED: ATOM     26  C   UNL     1     139.844  70.399 227.067 -0.49 -0.00    +0.006 A  
DOCKED: ATOM     27  C   UNL     1     141.166  68.029 227.405 -0.62 -0.00    +0.000 A  
DOCKED: ATOM     28  C   UNL     1     139.951  69.870 228.336 -0.62 -0.00    +0.000 A  
DOCKED: ATOM     29  C   UNL     1     140.627  68.661 228.507 -0.65 -0.00    +0.000 A  
DOCKED: ENDBRANCH  20  24
DOCKED: ENDBRANCH  16  18
DOCKED: ENDBRANCH   1  16
DOCKED: TORSDOF 5
DOCKED: TER
DOCKED: ENDMDL
________________________________________________________________________________


    FINAL DOCKED STATE:
    ________________________


Run:   10 / 20
Time taken for this run:   0.031s

DOCKED: MODEL        10
DOCKED: USER    Run = 10
DOCKED: USER
DOCKED: USER    Estimated Free Energy of Binding    =  -8.43 kcal/mol  [=(1)+(2)+(3)-(4)]
DOCKED: USER
DOCKED: USER    (1) Final Intermolecular Energy     =  -9.92 kcal/mol
DOCKED: USER        vdW + Hbond + desolv Energy     =  -9.91 kcal/mol
DOCKED: USER        Electrostatic Energy            =  -0.01 kcal/mol
DOCKED: USER        Moving Ligand-Fixed Receptor    =  -9.92 kcal/mol
DOCKED: USER        Moving Ligand-Moving Receptor   =  +0.00 kcal/mol
DOCKED: USER    (2) Final Total Internal Energy     =  -1.81 kcal/mol
DOCKED: USER    (3) Torsional Free Energy           =  +1.49 kcal/mol
DOCKED: USER    (4) Unbound System's Energy         =  -1.81 kcal/mol
DOCKED: USER
DOCKED: USER
DOCKED: REMARK SMILES O=C(NCC(=O)N1CCCC[C@H]1c1ccccc1)c1ccc2ccccc2n1
DOCKED: REMARK SMILES IDX 4 1 3 2 2 3 1 4 19 6 20 7 28 8 21 9 27 10 22 11 26 12 23 13
DOCKED: REMARK SMILES IDX 25 14 24 15 5 16 6 17 7 18 8 19 12 20 9 21 11 22 10 23 13 24
DOCKED: REMARK SMILES IDX 14 25 18 26 15 27 17 28 16 29
DOCKED: REMARK H PARENT 3 5
DOCKED: USER                              x       y       z     vdW  Elec       q    Type
DOCKED: USER                           _______ _______ _______ _____ _____    ______ ____
DOCKED: ROOT
DOCKED: ATOM      1  C   UNL     1     140.279  74.239 221.025 -0.18 -0.04    +0.216 C  
DOCKED: ENDROOT
DOCKED: BRANCH   1   2
DOCKED: ATOM      2  N   UNL     1     140.035  73.566 222.280 -0.11 +0.02    -0.342 N  
DOCKED: ATOM      3  C   UNL     1     140.479  72.207 222.393 -0.21 -0.03    +0.270 C  
DOCKED: ATOM      4  O   UNL     1     141.057  71.678 221.391 -0.15 +0.03    -0.268 OA 
DOCKED: ATOM      5  H   UNL     1     139.556  74.018 223.095 -0.52 -0.02    +0.164 HD 
DOCKED: BRANCH   3   6
DOCKED: ATOM      6  C   UNL     1     140.273  71.457 223.622 -0.33 -0.02    +0.128 A  
DOCKED: ATOM      7  C   UNL     1     139.601  70.259 223.564 -0.28 -0.01    +0.035 A  
DOCKED: ATOM      8  N   UNL     1     140.707  71.873 224.826 -0.27 +0.03    -0.243 NA 
DOCKED: ATOM      9  C   UNL     1     139.352  69.470 224.661 -0.36 -0.00    +0.013 A  
DOCKED: ATOM     10  C   UNL     1     140.487  71.132 225.941 -0.55 -0.01    +0.071 A  
DOCKED: ATOM     11  C   UNL     1     139.812  69.927 225.882 -0.48 -0.00    +0.000 A  
DOCKED: ATOM     12  C   UNL     1     140.931  71.555 227.179 -0.74 -0.01    +0.029 A  
DOCKED: ATOM     13  C   UNL     1     139.567  69.143 226.991 -0.55 -0.00    +0.010 A  
DOCKED: ATOM     14  C   UNL     1     140.693  70.777 228.309 -0.62 -0.00    +0.002 A  
DOCKED: ATOM     15  C   UNL     1     140.010  69.569 228.217 -0.63 -0.00    +0.001 A  
DOCKED: ENDBRANCH   3   6
DOCKED: ENDBRANCH   1   2
DOCKED: BRANCH   1  16
DOCKED: ATOM     16  C   UNL     1     141.144  75.437 221.187 -0.22 -0.07    +0.242 C  
DOCKED: ATOM     17  O   UNL     1     141.411  75.869 222.344 -0.27 +0.09    -0.273 OA 
DOCKED: BRANCH  16  18
DOCKED: ATOM     18  N   UNL     1     141.646  76.059 220.008 -0.09 +0.14    -0.334 N  
DOCKED: ATOM     19  C   UNL     1     141.252  77.411 219.612 -0.18 -0.06    +0.120 C  
DOCKED: ATOM     20  C   UNL     1     142.584  75.355 219.139 -0.22 -0.05    +0.115 C  
DOCKED: ATOM     21  C   UNL     1     141.041  77.443 218.107 -0.11 -0.01    +0.022 C  
DOCKED: ATOM     22  C   UNL     1     143.305  76.392 218.330 -0.30 -0.02    +0.030 C  
DOCKED: ATOM     23  C   UNL     1     142.284  77.004 217.367 -0.21 -0.00    +0.004 C  
DOCKED: BRANCH  20  24
DOCKED: ATOM     24  C   UNL     1     143.484  74.429 219.842 -0.34 +0.01    -0.025 A  
DOCKED: ATOM     25  C   UNL     1     144.667  74.887 220.424 -0.37 -0.00    +0.006 A  
DOCKED: ATOM     26  C   UNL     1     143.230  73.082 219.975 -0.26 -0.00    +0.006 A  
DOCKED: ATOM     27  C   UNL     1     145.533  74.046 221.091 -0.56 -0.00    +0.000 A  
DOCKED: ATOM     28  C   UNL     1     144.068  72.208 220.633 -0.36 -0.00    +0.000 A  
DOCKED: ATOM     29  C   UNL     1     145.243  72.702 221.204 -0.45 -0.00    +0.000 A  
DOCKED: ENDBRANCH  20  24
DOCKED: ENDBRANCH  16  18
DOCKED: ENDBRANCH   1  16
DOCKED: TORSDOF 5
DOCKED: TER
DOCKED: ENDMDL
________________________________________________________________________________


    FINAL DOCKED STATE:
    ________________________


Run:   11 / 20
Time taken for this run:   0.031s

DOCKED: MODEL        11
DOCKED: USER    Run = 11
DOCKED: USER
DOCKED: USER    Estimated Free Energy of Binding    =  -8.42 kcal/mol  [=(1)+(2)+(3)-(4)]
DOCKED: USER
DOCKED: USER    (1) Final Intermolecular Energy     =  -9.91 kcal/mol
DOCKED: USER        vdW + Hbond + desolv Energy     =  -9.90 kcal/mol
DOCKED: USER        Electrostatic Energy            =  -0.01 kcal/mol
DOCKED: USER        Moving Ligand-Fixed Receptor    =  -9.91 kcal/mol
DOCKED: USER        Moving Ligand-Moving Receptor   =  +0.00 kcal/mol
DOCKED: USER    (2) Final Total Internal Energy     =  -1.81 kcal/mol
DOCKED: USER    (3) Torsional Free Energy           =  +1.49 kcal/mol
DOCKED: USER    (4) Unbound System's Energy         =  -1.81 kcal/mol
DOCKED: USER
DOCKED: USER
DOCKED: REMARK SMILES O=C(NCC(=O)N1CCCC[C@H]1c1ccccc1)c1ccc2ccccc2n1
DOCKED: REMARK SMILES IDX 4 1 3 2 2 3 1 4 19 6 20 7 28 8 21 9 27 10 22 11 26 12 23 13
DOCKED: REMARK SMILES IDX 25 14 24 15 5 16 6 17 7 18 8 19 12 20 9 21 11 22 10 23 13 24
DOCKED: REMARK SMILES IDX 14 25 18 26 15 27 17 28 16 29
DOCKED: REMARK H PARENT 3 5
DOCKED: USER                              x       y       z     vdW  Elec       q    Type
DOCKED: USER                           _______ _______ _______ _____ _____    ______ ____
DOCKED: ROOT
DOCKED: ATOM      1  C   UNL     1     140.296  74.248 221.023 -0.18 -0.04    +0.216 C  
DOCKED: ENDROOT
DOCKED: BRANCH   1   2
DOCKED: ATOM      2  N   UNL     1     140.053  73.573 222.277 -0.10 +0.02    -0.342 N  
DOCKED: ATOM      3  C   UNL     1     140.485  72.209 222.382 -0.21 -0.03    +0.270 C  
DOCKED: ATOM      4  O   UNL     1     141.051  71.678 221.375 -0.14 +0.03    -0.268 OA 
DOCKED: ATOM      5  H   UNL     1     139.584  74.026 223.097 -0.52 -0.02    +0.164 HD 
DOCKED: BRANCH   3   6
DOCKED: ATOM      6  C   UNL     1     140.279  71.457 223.610 -0.33 -0.02    +0.128 A  
DOCKED: ATOM      7  C   UNL     1     139.629  70.247 223.547 -0.27 -0.01    +0.035 A  
DOCKED: ATOM      8  N   UNL     1     140.693  71.881 224.818 -0.28 +0.03    -0.243 NA 
DOCKED: ATOM      9  C   UNL     1     139.381  69.455 224.642 -0.36 -0.00    +0.013 A  
DOCKED: ATOM     10  C   UNL     1     140.474  71.138 225.932 -0.54 -0.01    +0.071 A  
DOCKED: ATOM     11  C   UNL     1     139.820  69.921 225.867 -0.48 -0.00    +0.000 A  
DOCKED: ATOM     12  C   UNL     1     140.897  71.570 227.174 -0.74 -0.01    +0.029 A  
DOCKED: ATOM     13  C   UNL     1     139.578  69.134 226.974 -0.55 -0.00    +0.010 A  
DOCKED: ATOM     14  C   UNL     1     140.661  70.789 228.302 -0.62 -0.00    +0.002 A  
DOCKED: ATOM     15  C   UNL     1     140.000  69.568 228.204 -0.63 -0.00    +0.001 A  
DOCKED: ENDBRANCH   3   6
DOCKED: ENDBRANCH   1   2
DOCKED: BRANCH   1  16
DOCKED: ATOM     16  C   UNL     1     141.148  75.455 221.189 -0.22 -0.07    +0.242 C  
DOCKED: ATOM     17  O   UNL     1     141.404  75.890 222.346 -0.27 +0.09    -0.273 OA 
DOCKED: BRANCH  16  18
DOCKED: ATOM     18  N   UNL     1     141.649  76.082 220.012 -0.10 +0.15    -0.334 N  
DOCKED: ATOM     19  C   UNL     1     141.265  77.440 219.628 -0.18 -0.06    +0.120 C  
DOCKED: ATOM     20  C   UNL     1     142.577  75.376 219.133 -0.22 -0.05    +0.115 C  
DOCKED: ATOM     21  C   UNL     1     141.047  77.484 218.125 -0.11 -0.01    +0.022 C  
DOCKED: ATOM     22  C   UNL     1     143.303  76.413 218.329 -0.30 -0.02    +0.030 C  
DOCKED: ATOM     23  C   UNL     1     142.283  77.040 217.375 -0.21 -0.00    +0.004 C  
DOCKED: BRANCH  20  24
DOCKED: ATOM     24  C   UNL     1     143.473  74.437 219.825 -0.34 +0.01    -0.025 A  
DOCKED: ATOM     25  C   UNL     1     144.663  74.880 220.403 -0.36 -0.00    +0.006 A  
DOCKED: ATOM     26  C   UNL     1     143.207  73.092 219.951 -0.26 -0.00    +0.006 A  
DOCKED: ATOM     27  C   UNL     1     145.525  74.028 221.060 -0.57 -0.00    +0.000 A  
DOCKED: ATOM     28  C   UNL     1     144.041  72.206 220.599 -0.35 -0.00    +0.000 A  
DOCKED: ATOM     29  C   UNL     1     145.224  72.685 221.165 -0.45 -0.00    +0.000 A  
DOCKED: ENDBRANCH  20  24
DOCKED: ENDBRANCH  16  18
DOCKED: ENDBRANCH   1  16
DOCKED: TORSDOF 5
DOCKED: TER
DOCKED: ENDMDL
________________________________________________________________________________


    FINAL DOCKED STATE:
    ________________________


Run:   12 / 20
Time taken for this run:   0.031s

DOCKED: MODEL        12
DOCKED: USER    Run = 12
DOCKED: USER
DOCKED: USER    Estimated Free Energy of Binding    =  -7.15 kcal/mol  [=(1)+(2)+(3)-(4)]
DOCKED: USER
DOCKED: USER    (1) Final Intermolecular Energy     =  -8.64 kcal/mol
DOCKED: USER        vdW + Hbond + desolv Energy     =  -8.59 kcal/mol
DOCKED: USER        Electrostatic Energy            =  -0.05 kcal/mol
DOCKED: USER        Moving Ligand-Fixed Receptor    =  -8.64 kcal/mol
DOCKED: USER        Moving Ligand-Moving Receptor   =  +0.00 kcal/mol
DOCKED: USER    (2) Final Total Internal Energy     =  -2.46 kcal/mol
DOCKED: USER    (3) Torsional Free Energy           =  +1.49 kcal/mol
DOCKED: USER    (4) Unbound System's Energy         =  -2.46 kcal/mol
DOCKED: USER
DOCKED: USER
DOCKED: REMARK SMILES O=C(NCC(=O)N1CCCC[C@H]1c1ccccc1)c1ccc2ccccc2n1
DOCKED: REMARK SMILES IDX 4 1 3 2 2 3 1 4 19 6 20 7 28 8 21 9 27 10 22 11 26 12 23 13
DOCKED: REMARK SMILES IDX 25 14 24 15 5 16 6 17 7 18 8 19 12 20 9 21 11 22 10 23 13 24
DOCKED: REMARK SMILES IDX 14 25 18 26 15 27 17 28 16 29
DOCKED: REMARK H PARENT 3 5
DOCKED: USER                              x       y       z     vdW  Elec       q    Type
DOCKED: USER                           _______ _______ _______ _____ _____    ______ ____
DOCKED: ROOT
DOCKED: ATOM      1  C   UNL     1     141.371  79.319 219.156 -0.16 -0.11    +0.216 C  
DOCKED: ENDROOT
DOCKED: BRANCH   1   2
DOCKED: ATOM      2  N   UNL     1     142.274  78.203 219.322 -0.12 +0.24    -0.342 N  
DOCKED: ATOM      3  C   UNL     1     141.797  76.910 218.926 -0.14 -0.13    +0.270 C  
DOCKED: ATOM      4  O   UNL     1     140.620  76.820 218.455 -0.03 +0.10    -0.268 OA 
DOCKED: ATOM      5  H   UNL     1     143.241  78.295 219.713 -0.36 -0.20    +0.164 HD 
DOCKED: BRANCH   3   6
DOCKED: ATOM      6  C   UNL     1     142.643  75.733 219.059 -0.23 -0.06    +0.128 A  
DOCKED: ATOM      7  C   UNL     1     142.369  74.628 218.288 -0.11 -0.01    +0.035 A  
DOCKED: ATOM      8  N   UNL     1     143.689  75.664 219.902 -0.27 +0.15    -0.243 NA 
DOCKED: ATOM      9  C   UNL     1     143.101  73.466 218.333 -0.11 -0.00    +0.013 A  
DOCKED: ATOM     10  C   UNL     1     144.445  74.539 219.986 -0.39 -0.03    +0.071 A  
DOCKED: ATOM     11  C   UNL     1     144.169  73.429 219.210 -0.27 -0.00    +0.000 A  
DOCKED: ATOM     12  C   UNL     1     145.519  74.464 220.851 -0.47 -0.01    +0.029 A  
DOCKED: ATOM     13  C   UNL     1     144.911  72.267 219.264 -0.30 +0.00    +0.010 A  
DOCKED: ATOM     14  C   UNL     1     146.280  73.300 220.918 -0.69 +0.00    +0.002 A  
DOCKED: ATOM     15  C   UNL     1     145.977  72.198 220.124 -0.38 +0.00    +0.001 A  
DOCKED: ENDBRANCH   3   6
DOCKED: ENDBRANCH   1   2
DOCKED: BRANCH   1  16
DOCKED: ATOM     16  C   UNL     1     140.414  79.442 220.287 -0.10 -0.08    +0.242 C  
DOCKED: ATOM     17  O   UNL     1     139.174  79.329 220.078 -0.03 +0.07    -0.273 OA 
DOCKED: BRANCH  16  18
DOCKED: ATOM     18  N   UNL     1     140.947  79.687 221.585 -0.11 +0.11    -0.334 N  
DOCKED: ATOM     19  C   UNL     1     141.128  81.040 222.111 -0.36 -0.03    +0.120 C  
DOCKED: ATOM     20  C   UNL     1     141.340  78.577 222.447 -0.41 -0.05    +0.115 C  
DOCKED: ATOM     21  C   UNL     1     142.452  81.106 222.856 -0.45 -0.00    +0.022 C  
DOCKED: ATOM     22  C   UNL     1     141.351  79.090 223.857 -0.57 -0.01    +0.030 C  
DOCKED: ATOM     23  C   UNL     1     142.512  80.082 223.966 -0.56 -0.00    +0.004 C  
DOCKED: BRANCH  20  24
DOCKED: ATOM     24  C   UNL     1     140.535  77.359 222.273 -0.40 +0.01    -0.025 A  
DOCKED: ATOM     25  C   UNL     1     139.149  77.390 222.435 -0.31 -0.00    +0.006 A  
DOCKED: ATOM     26  C   UNL     1     141.075  76.135 221.944 -0.37 -0.00    +0.006 A  
DOCKED: ATOM     27  C   UNL     1     138.364  76.267 222.278 -0.30 -0.00    +0.000 A  
DOCKED: ATOM     28  C   UNL     1     140.327  74.990 221.779 -0.30 -0.00    +0.000 A  
DOCKED: ATOM     29  C   UNL     1     138.942  75.059 221.948 -0.28 -0.00    +0.000 A  
DOCKED: ENDBRANCH  20  24
DOCKED: ENDBRANCH  16  18
DOCKED: ENDBRANCH   1  16
DOCKED: TORSDOF 5
DOCKED: TER
DOCKED: ENDMDL
________________________________________________________________________________


    FINAL DOCKED STATE:
    ________________________


Run:   13 / 20
Time taken for this run:   0.031s

DOCKED: MODEL        13
DOCKED: USER    Run = 13
DOCKED: USER
DOCKED: USER    Estimated Free Energy of Binding    =  -8.41 kcal/mol  [=(1)+(2)+(3)-(4)]
DOCKED: USER
DOCKED: USER    (1) Final Intermolecular Energy     =  -9.90 kcal/mol
DOCKED: USER        vdW + Hbond + desolv Energy     =  -9.89 kcal/mol
DOCKED: USER        Electrostatic Energy            =  -0.01 kcal/mol
DOCKED: USER        Moving Ligand-Fixed Receptor    =  -9.90 kcal/mol
DOCKED: USER        Moving Ligand-Moving Receptor   =  +0.00 kcal/mol
DOCKED: USER    (2) Final Total Internal Energy     =  -1.80 kcal/mol
DOCKED: USER    (3) Torsional Free Energy           =  +1.49 kcal/mol
DOCKED: USER    (4) Unbound System's Energy         =  -1.80 kcal/mol
DOCKED: USER
DOCKED: USER
DOCKED: REMARK SMILES O=C(NCC(=O)N1CCCC[C@H]1c1ccccc1)c1ccc2ccccc2n1
DOCKED: REMARK SMILES IDX 4 1 3 2 2 3 1 4 19 6 20 7 28 8 21 9 27 10 22 11 26 12 23 13
DOCKED: REMARK SMILES IDX 25 14 24 15 5 16 6 17 7 18 8 19 12 20 9 21 11 22 10 23 13 24
DOCKED: REMARK SMILES IDX 14 25 18 26 15 27 17 28 16 29
DOCKED: REMARK H PARENT 3 5
DOCKED: USER                              x       y       z     vdW  Elec       q    Type
DOCKED: USER                           _______ _______ _______ _____ _____    ______ ____
DOCKED: ROOT
DOCKED: ATOM      1  C   UNL     1     140.299  74.210 221.023 -0.18 -0.04    +0.216 C  
DOCKED: ENDROOT
DOCKED: BRANCH   1   2
DOCKED: ATOM      2  N   UNL     1     140.061  73.544 222.283 -0.11 +0.02    -0.342 N  
DOCKED: ATOM      3  C   UNL     1     140.497  72.183 222.398 -0.20 -0.03    +0.270 C  
DOCKED: ATOM      4  O   UNL     1     141.063  71.645 221.394 -0.14 +0.03    -0.268 OA 
DOCKED: ATOM      5  H   UNL     1     139.592  74.002 223.101 -0.51 -0.02    +0.164 HD 
DOCKED: BRANCH   3   6
DOCKED: ATOM      6  C   UNL     1     140.297  71.440 223.633 -0.33 -0.02    +0.128 A  
DOCKED: ATOM      7  C   UNL     1     139.655  70.225 223.580 -0.27 -0.01    +0.035 A  
DOCKED: ATOM      8  N   UNL     1     140.708  71.877 224.837 -0.27 +0.03    -0.243 NA 
DOCKED: ATOM      9  C   UNL     1     139.413  69.440 224.681 -0.36 -0.00    +0.013 A  
DOCKED: ATOM     10  C   UNL     1     140.495  71.141 225.957 -0.55 -0.01    +0.071 A  
DOCKED: ATOM     11  C   UNL     1     139.849  69.919 225.903 -0.48 -0.00    +0.000 A  
DOCKED: ATOM     12  C   UNL     1     140.916  71.587 227.195 -0.75 -0.01    +0.029 A  
DOCKED: ATOM     13  C   UNL     1     139.612  69.141 227.016 -0.55 -0.00    +0.010 A  
DOCKED: ATOM     14  C   UNL     1     140.685  70.814 228.330 -0.62 -0.00    +0.002 A  
DOCKED: ATOM     15  C   UNL     1     140.033  69.588 228.242 -0.63 -0.00    +0.001 A  
DOCKED: ENDBRANCH   3   6
DOCKED: ENDBRANCH   1   2
DOCKED: BRANCH   1  16
DOCKED: ATOM     16  C   UNL     1     141.138  75.427 221.179 -0.22 -0.07    +0.242 C  
DOCKED: ATOM     17  O   UNL     1     141.390  75.875 222.333 -0.28 +0.09    -0.273 OA 
DOCKED: BRANCH  16  18
DOCKED: ATOM     18  N   UNL     1     141.633  76.049 219.997 -0.09 +0.14    -0.334 N  
DOCKED: ATOM     19  C   UNL     1     141.215  77.389 219.588 -0.17 -0.05    +0.120 C  
DOCKED: ATOM     20  C   UNL     1     142.589  75.356 219.138 -0.22 -0.05    +0.115 C  
DOCKED: ATOM     21  C   UNL     1     141.011  77.403 218.082 -0.11 -0.01    +0.022 C  
DOCKED: ATOM     22  C   UNL     1     143.293  76.399 218.324 -0.30 -0.02    +0.030 C  
DOCKED: ATOM     23  C   UNL     1     142.265  76.983 217.351 -0.20 -0.00    +0.004 C  
DOCKED: BRANCH  20  24
DOCKED: ATOM     24  C   UNL     1     143.504  74.454 219.854 -0.35 +0.01    -0.025 A  
DOCKED: ATOM     25  C   UNL     1     143.205  73.098 219.993 -0.26 -0.00    +0.006 A  
DOCKED: ATOM     26  C   UNL     1     144.689  74.870 220.418 -0.37 -0.00    +0.006 A  
DOCKED: ATOM     27  C   UNL     1     144.041  72.224 220.657 -0.35 -0.00    +0.000 A  
DOCKED: ATOM     28  C   UNL     1     145.552  74.031 221.090 -0.57 -0.00    +0.000 A  
DOCKED: ATOM     29  C   UNL     1     145.220  72.679 221.209 -0.44 -0.00    +0.000 A  
DOCKED: ENDBRANCH  20  24
DOCKED: ENDBRANCH  16  18
DOCKED: ENDBRANCH   1  16
DOCKED: TORSDOF 5
DOCKED: TER
DOCKED: ENDMDL
________________________________________________________________________________


    FINAL DOCKED STATE:
    ________________________


Run:   14 / 20
Time taken for this run:   0.031s

DOCKED: MODEL        14
DOCKED: USER    Run = 14
DOCKED: USER
DOCKED: USER    Estimated Free Energy of Binding    =  -8.43 kcal/mol  [=(1)+(2)+(3)-(4)]
DOCKED: USER
DOCKED: USER    (1) Final Intermolecular Energy     =  -9.92 kcal/mol
DOCKED: USER        vdW + Hbond + desolv Energy     =  -9.91 kcal/mol
DOCKED: USER        Electrostatic Energy            =  -0.01 kcal/mol
DOCKED: USER        Moving Ligand-Fixed Receptor    =  -9.92 kcal/mol
DOCKED: USER        Moving Ligand-Moving Receptor   =  +0.00 kcal/mol
DOCKED: USER    (2) Final Total Internal Energy     =  -1.81 kcal/mol
DOCKED: USER    (3) Torsional Free Energy           =  +1.49 kcal/mol
DOCKED: USER    (4) Unbound System's Energy         =  -1.81 kcal/mol
DOCKED: USER
DOCKED: USER
DOCKED: REMARK SMILES O=C(NCC(=O)N1CCCC[C@H]1c1ccccc1)c1ccc2ccccc2n1
DOCKED: REMARK SMILES IDX 4 1 3 2 2 3 1 4 19 6 20 7 28 8 21 9 27 10 22 11 26 12 23 13
DOCKED: REMARK SMILES IDX 25 14 24 15 5 16 6 17 7 18 8 19 12 20 9 21 11 22 10 23 13 24
DOCKED: REMARK SMILES IDX 14 25 18 26 15 27 17 28 16 29
DOCKED: REMARK H PARENT 3 5
DOCKED: USER                              x       y       z     vdW  Elec       q    Type
DOCKED: USER                           _______ _______ _______ _____ _____    ______ ____
DOCKED: ROOT
DOCKED: ATOM      1  C   UNL     1     140.284  74.231 221.040 -0.18 -0.04    +0.216 C  
DOCKED: ENDROOT
DOCKED: BRANCH   1   2
DOCKED: ATOM      2  N   UNL     1     140.040  73.562 222.297 -0.10 +0.02    -0.342 N  
DOCKED: ATOM      3  C   UNL     1     140.484  72.203 222.414 -0.21 -0.03    +0.270 C  
DOCKED: ATOM      4  O   UNL     1     141.061  71.671 221.414 -0.15 +0.03    -0.268 OA 
DOCKED: ATOM      5  H   UNL     1     139.561  74.015 223.111 -0.52 -0.02    +0.164 HD 
DOCKED: BRANCH   3   6
DOCKED: ATOM      6  C   UNL     1     140.277  71.457 223.646 -0.33 -0.02    +0.128 A  
DOCKED: ATOM      7  C   UNL     1     139.629  70.246 223.587 -0.28 -0.01    +0.035 A  
DOCKED: ATOM      8  N   UNL     1     140.690  71.887 224.851 -0.28 +0.03    -0.243 NA 
DOCKED: ATOM      9  C   UNL     1     139.381  69.459 224.686 -0.36 -0.00    +0.013 A  
DOCKED: ATOM     10  C   UNL     1     140.471  71.149 225.969 -0.55 -0.01    +0.071 A  
DOCKED: ATOM     11  C   UNL     1     139.819  69.931 225.909 -0.48 -0.00    +0.000 A  
DOCKED: ATOM     12  C   UNL     1     140.894  71.588 227.209 -0.75 -0.01    +0.029 A  
DOCKED: ATOM     13  C   UNL     1     139.576  69.150 227.020 -0.55 -0.00    +0.010 A  
DOCKED: ATOM     14  C   UNL     1     140.657  70.812 228.341 -0.62 -0.00    +0.002 A  
DOCKED: ATOM     15  C   UNL     1     139.998  69.591 228.248 -0.63 -0.00    +0.001 A  
DOCKED: ENDBRANCH   3   6
DOCKED: ENDBRANCH   1   2
DOCKED: BRANCH   1  16
DOCKED: ATOM     16  C   UNL     1     141.156  75.424 221.197 -0.22 -0.07    +0.242 C  
DOCKED: ATOM     17  O   UNL     1     141.434  75.853 222.353 -0.26 +0.09    -0.273 OA 
DOCKED: BRANCH  16  18
DOCKED: ATOM     18  N   UNL     1     141.651  76.046 220.016 -0.10 +0.14    -0.334 N  
DOCKED: ATOM     19  C   UNL     1     141.233  77.387 219.607 -0.17 -0.06    +0.120 C  
DOCKED: ATOM     20  C   UNL     1     142.606  75.353 219.157 -0.22 -0.05    +0.115 C  
DOCKED: ATOM     21  C   UNL     1     141.028  77.402 218.101 -0.11 -0.01    +0.022 C  
DOCKED: ATOM     22  C   UNL     1     143.311  76.397 218.342 -0.30 -0.02    +0.030 C  
DOCKED: ATOM     23  C   UNL     1     142.283  76.981 217.369 -0.20 -0.00    +0.004 C  
DOCKED: BRANCH  20  24
DOCKED: ATOM     24  C   UNL     1     143.521  74.451 219.871 -0.35 +0.01    -0.025 A  
DOCKED: ATOM     25  C   UNL     1     143.231  73.091 219.994 -0.26 -0.00    +0.006 A  
DOCKED: ATOM     26  C   UNL     1     144.697  74.870 220.452 -0.38 -0.00    +0.006 A  
DOCKED: ATOM     27  C   UNL     1     144.067  72.217 220.656 -0.36 -0.00    +0.000 A  
DOCKED: ATOM     28  C   UNL     1     145.560  74.030 221.123 -0.56 -0.00    +0.000 A  
DOCKED: ATOM     29  C   UNL     1     145.238  72.676 221.226 -0.44 -0.00    +0.000 A  
DOCKED: ENDBRANCH  20  24
DOCKED: ENDBRANCH  16  18
DOCKED: ENDBRANCH   1  16
DOCKED: TORSDOF 5
DOCKED: TER
DOCKED: ENDMDL
________________________________________________________________________________


    FINAL DOCKED STATE:
    ________________________


Run:   15 / 20
Time taken for this run:   0.031s

DOCKED: MODEL        15
DOCKED: USER    Run = 15
DOCKED: USER
DOCKED: USER    Estimated Free Energy of Binding    =  -8.39 kcal/mol  [=(1)+(2)+(3)-(4)]
DOCKED: USER
DOCKED: USER    (1) Final Intermolecular Energy     =  -9.88 kcal/mol
DOCKED: USER        vdW + Hbond + desolv Energy     =  -9.84 kcal/mol
DOCKED: USER        Electrostatic Energy            =  -0.05 kcal/mol
DOCKED: USER        Moving Ligand-Fixed Receptor    =  -9.88 kcal/mol
DOCKED: USER        Moving Ligand-Moving Receptor   =  +0.00 kcal/mol
DOCKED: USER    (2) Final Total Internal Energy     =  -1.75 kcal/mol
DOCKED: USER    (3) Torsional Free Energy           =  +1.49 kcal/mol
DOCKED: USER    (4) Unbound System's Energy         =  -1.75 kcal/mol
DOCKED: USER
DOCKED: USER
DOCKED: REMARK SMILES O=C(NCC(=O)N1CCCC[C@H]1c1ccccc1)c1ccc2ccccc2n1
DOCKED: REMARK SMILES IDX 4 1 3 2 2 3 1 4 19 6 20 7 28 8 21 9 27 10 22 11 26 12 23 13
DOCKED: REMARK SMILES IDX 25 14 24 15 5 16 6 17 7 18 8 19 12 20 9 21 11 22 10 23 13 24
DOCKED: REMARK SMILES IDX 14 25 18 26 15 27 17 28 16 29
DOCKED: REMARK H PARENT 3 5
DOCKED: USER                              x       y       z     vdW  Elec       q    Type
DOCKED: USER                           _______ _______ _______ _____ _____    ______ ____
DOCKED: ROOT
DOCKED: ATOM      1  C   UNL     1     140.038  74.225 221.050 -0.17 -0.04    +0.216 C  
DOCKED: ENDROOT
DOCKED: BRANCH   1   2
DOCKED: ATOM      2  N   UNL     1     139.828  73.531 222.300 -0.13 +0.04    -0.342 N  
DOCKED: ATOM      3  C   UNL     1     140.405  72.224 222.429 -0.21 -0.03    +0.270 C  
DOCKED: ATOM      4  O   UNL     1     141.061  71.756 221.446 -0.15 +0.03    -0.268 OA 
DOCKED: ATOM      5  H   UNL     1     139.283  73.931 223.100 -0.53 -0.06    +0.164 HD 
DOCKED: BRANCH   3   6
DOCKED: ATOM      6  C   UNL     1     140.241  71.457 223.655 -0.33 -0.02    +0.128 A  
DOCKED: ATOM      7  C   UNL     1     139.581  70.251 223.600 -0.29 -0.01    +0.035 A  
DOCKED: ATOM      8  N   UNL     1     140.704  71.863 224.851 -0.28 +0.03    -0.243 NA 
DOCKED: ATOM      9  C   UNL     1     139.371  69.447 224.694 -0.36 -0.00    +0.013 A  
DOCKED: ATOM     10  C   UNL     1     140.523  71.106 225.963 -0.55 -0.01    +0.071 A  
DOCKED: ATOM     11  C   UNL     1     139.860  69.894 225.907 -0.48 -0.00    +0.000 A  
DOCKED: ATOM     12  C   UNL     1     140.997  71.519 227.193 -0.74 -0.01    +0.029 A  
DOCKED: ATOM     13  C   UNL     1     139.655  69.094 227.012 -0.56 -0.00    +0.010 A  
DOCKED: ATOM     14  C   UNL     1     140.799  70.725 228.319 -0.61 -0.00    +0.002 A  
DOCKED: ATOM     15  C   UNL     1     140.127  69.510 228.231 -0.63 -0.00    +0.001 A  
DOCKED: ENDBRANCH   3   6
DOCKED: ENDBRANCH   1   2
DOCKED: BRANCH   1  16
DOCKED: ATOM     16  C   UNL     1     141.014  75.338 221.182 -0.22 -0.07    +0.242 C  
DOCKED: ATOM     17  O   UNL     1     141.430  75.679 222.325 -0.28 +0.08    -0.273 OA 
DOCKED: BRANCH  16  18
DOCKED: ATOM     18  N   UNL     1     141.448  75.986 219.990 -0.08 +0.13    -0.334 N  
DOCKED: ATOM     19  C   UNL     1     140.997  77.329 219.624 -0.15 -0.05    +0.120 C  
DOCKED: ATOM     20  C   UNL     1     142.371  75.320 219.077 -0.19 -0.05    +0.115 C  
DOCKED: ATOM     21  C   UNL     1     140.723  77.367 218.129 -0.08 -0.01    +0.022 C  
DOCKED: ATOM     22  C   UNL     1     143.026  76.386 218.250 -0.28 -0.02    +0.030 C  
DOCKED: ATOM     23  C   UNL     1     141.948  76.973 217.335 -0.16 -0.00    +0.004 C  
DOCKED: BRANCH  20  24
DOCKED: ATOM     24  C   UNL     1     143.327  74.416 219.733 -0.32 +0.01    -0.025 A  
DOCKED: ATOM     25  C   UNL     1     144.523  74.904 220.262 -0.37 -0.00    +0.006 A  
DOCKED: ATOM     26  C   UNL     1     143.116  73.063 219.872 -0.24 -0.00    +0.006 A  
DOCKED: ATOM     27  C   UNL     1     145.441  74.085 220.885 -0.60 -0.00    +0.000 A  
DOCKED: ATOM     28  C   UNL     1     144.007  72.209 220.487 -0.35 -0.00    +0.000 A  
DOCKED: ATOM     29  C   UNL     1     145.194  72.733 221.005 -0.49 -0.00    +0.000 A  
DOCKED: ENDBRANCH  20  24
DOCKED: ENDBRANCH  16  18
DOCKED: ENDBRANCH   1  16
DOCKED: TORSDOF 5
DOCKED: TER
DOCKED: ENDMDL
________________________________________________________________________________


    FINAL DOCKED STATE:
    ________________________


Run:   16 / 20
Time taken for this run:   0.031s

DOCKED: MODEL        16
DOCKED: USER    Run = 16
DOCKED: USER
DOCKED: USER    Estimated Free Energy of Binding    =  -8.42 kcal/mol  [=(1)+(2)+(3)-(4)]
DOCKED: USER
DOCKED: USER    (1) Final Intermolecular Energy     =  -9.91 kcal/mol
DOCKED: USER        vdW + Hbond + desolv Energy     =  -9.90 kcal/mol
DOCKED: USER        Electrostatic Energy            =  -0.01 kcal/mol
DOCKED: USER        Moving Ligand-Fixed Receptor    =  -9.91 kcal/mol
DOCKED: USER        Moving Ligand-Moving Receptor   =  +0.00 kcal/mol
DOCKED: USER    (2) Final Total Internal Energy     =  -1.81 kcal/mol
DOCKED: USER    (3) Torsional Free Energy           =  +1.49 kcal/mol
DOCKED: USER    (4) Unbound System's Energy         =  -1.81 kcal/mol
DOCKED: USER
DOCKED: USER
DOCKED: REMARK SMILES O=C(NCC(=O)N1CCCC[C@H]1c1ccccc1)c1ccc2ccccc2n1
DOCKED: REMARK SMILES IDX 4 1 3 2 2 3 1 4 19 6 20 7 28 8 21 9 27 10 22 11 26 12 23 13
DOCKED: REMARK SMILES IDX 25 14 24 15 5 16 6 17 7 18 8 19 12 20 9 21 11 22 10 23 13 24
DOCKED: REMARK SMILES IDX 14 25 18 26 15 27 17 28 16 29
DOCKED: REMARK H PARENT 3 5
DOCKED: USER                              x       y       z     vdW  Elec       q    Type
DOCKED: USER                           _______ _______ _______ _____ _____    ______ ____
DOCKED: ROOT
DOCKED: ATOM      1  C   UNL     1     140.328  74.210 221.025 -0.18 -0.04    +0.216 C  
DOCKED: ENDROOT
DOCKED: BRANCH   1   2
DOCKED: ATOM      2  N   UNL     1     140.080  73.543 222.283 -0.10 +0.02    -0.342 N  
DOCKED: ATOM      3  C   UNL     1     140.524  72.185 222.403 -0.20 -0.03    +0.270 C  
DOCKED: ATOM      4  O   UNL     1     141.104  71.651 221.405 -0.15 +0.03    -0.268 OA 
DOCKED: ATOM      5  H   UNL     1     139.599  73.998 223.095 -0.51 -0.02    +0.164 HD 
DOCKED: BRANCH   3   6
DOCKED: ATOM      6  C   UNL     1     140.315  71.440 223.635 -0.33 -0.02    +0.128 A  
DOCKED: ATOM      7  C   UNL     1     139.657  70.234 223.579 -0.27 -0.01    +0.035 A  
DOCKED: ATOM      8  N   UNL     1     140.733  71.868 224.840 -0.27 +0.03    -0.243 NA 
DOCKED: ATOM      9  C   UNL     1     139.405  69.449 224.678 -0.36 -0.00    +0.013 A  
DOCKED: ATOM     10  C   UNL     1     140.510  71.131 225.958 -0.55 -0.01    +0.071 A  
DOCKED: ATOM     11  C   UNL     1     139.849  69.919 225.900 -0.48 -0.00    +0.000 A  
DOCKED: ATOM     12  C   UNL     1     140.938  71.567 227.198 -0.75 -0.01    +0.029 A  
DOCKED: ATOM     13  C   UNL     1     139.602  69.139 227.012 -0.55 -0.00    +0.010 A  
DOCKED: ATOM     14  C   UNL     1     140.698  70.794 228.330 -0.62 -0.00    +0.002 A  
DOCKED: ATOM     15  C   UNL     1     140.029  69.577 228.239 -0.63 -0.00    +0.001 A  
DOCKED: ENDBRANCH   3   6
DOCKED: ENDBRANCH   1   2
DOCKED: BRANCH   1  16
DOCKED: ATOM     16  C   UNL     1     141.171  75.423 221.188 -0.22 -0.07    +0.242 C  
DOCKED: ATOM     17  O   UNL     1     141.427  75.862 222.345 -0.27 +0.09    -0.273 OA 
DOCKED: BRANCH  16  18
DOCKED: ATOM     18  N   UNL     1     141.666  76.052 220.010 -0.10 +0.15    -0.334 N  
DOCKED: ATOM     19  C   UNL     1     141.244  77.393 219.606 -0.17 -0.06    +0.120 C  
DOCKED: ATOM     20  C   UNL     1     142.626  75.365 219.150 -0.22 -0.05    +0.115 C  
DOCKED: ATOM     21  C   UNL     1     141.042  77.413 218.099 -0.11 -0.01    +0.022 C  
DOCKED: ATOM     22  C   UNL     1     143.328  76.415 218.341 -0.30 -0.02    +0.030 C  
DOCKED: ATOM     23  C   UNL     1     142.299  76.999 217.368 -0.21 -0.00    +0.004 C  
DOCKED: BRANCH  20  24
DOCKED: ATOM     24  C   UNL     1     143.542  74.463 219.862 -0.35 +0.01    -0.025 A  
DOCKED: ATOM     25  C   UNL     1     143.264  73.100 219.968 -0.26 -0.00    +0.006 A  
DOCKED: ATOM     26  C   UNL     1     144.710  74.886 220.457 -0.37 -0.00    +0.006 A  
DOCKED: ATOM     27  C   UNL     1     144.102  72.226 220.628 -0.36 -0.00    +0.000 A  
DOCKED: ATOM     28  C   UNL     1     145.575  74.047 221.126 -0.56 -0.00    +0.000 A  
DOCKED: ATOM     29  C   UNL     1     145.263  72.688 221.211 -0.45 -0.00    +0.000 A  
DOCKED: ENDBRANCH  20  24
DOCKED: ENDBRANCH  16  18
DOCKED: ENDBRANCH   1  16
DOCKED: TORSDOF 5
DOCKED: TER
DOCKED: ENDMDL
________________________________________________________________________________


    FINAL DOCKED STATE:
    ________________________


Run:   17 / 20
Time taken for this run:   0.031s

DOCKED: MODEL        17
DOCKED: USER    Run = 17
DOCKED: USER
DOCKED: USER    Estimated Free Energy of Binding    =  -8.40 kcal/mol  [=(1)+(2)+(3)-(4)]
DOCKED: USER
DOCKED: USER    (1) Final Intermolecular Energy     =  -9.89 kcal/mol
DOCKED: USER        vdW + Hbond + desolv Energy     =  -9.86 kcal/mol
DOCKED: USER        Electrostatic Energy            =  -0.04 kcal/mol
DOCKED: USER        Moving Ligand-Fixed Receptor    =  -9.89 kcal/mol
DOCKED: USER        Moving Ligand-Moving Receptor   =  +0.00 kcal/mol
DOCKED: USER    (2) Final Total Internal Energy     =  -1.77 kcal/mol
DOCKED: USER    (3) Torsional Free Energy           =  +1.49 kcal/mol
DOCKED: USER    (4) Unbound System's Energy         =  -1.77 kcal/mol
DOCKED: USER
DOCKED: USER
DOCKED: REMARK SMILES O=C(NCC(=O)N1CCCC[C@H]1c1ccccc1)c1ccc2ccccc2n1
DOCKED: REMARK SMILES IDX 4 1 3 2 2 3 1 4 19 6 20 7 28 8 21 9 27 10 22 11 26 12 23 13
DOCKED: REMARK SMILES IDX 25 14 24 15 5 16 6 17 7 18 8 19 12 20 9 21 11 22 10 23 13 24
DOCKED: REMARK SMILES IDX 14 25 18 26 15 27 17 28 16 29
DOCKED: REMARK H PARENT 3 5
DOCKED: USER                              x       y       z     vdW  Elec       q    Type
DOCKED: USER                           _______ _______ _______ _____ _____    ______ ____
DOCKED: ROOT
DOCKED: ATOM      1  C   UNL     1     140.220  74.185 221.003 -0.17 -0.04    +0.216 C  
DOCKED: ENDROOT
DOCKED: BRANCH   1   2
DOCKED: ATOM      2  N   UNL     1     139.949  73.512 222.253 -0.13 +0.03    -0.342 N  
DOCKED: ATOM      3  C   UNL     1     140.496  72.197 222.422 -0.20 -0.03    +0.270 C  
DOCKED: ATOM      4  O   UNL     1     141.182  71.704 221.472 -0.15 +0.03    -0.268 OA 
DOCKED: ATOM      5  H   UNL     1     139.380  73.933 223.025 -0.51 -0.04    +0.164 HD 
DOCKED: BRANCH   3   6
DOCKED: ATOM      6  C   UNL     1     140.270  71.450 223.650 -0.33 -0.02    +0.128 A  
DOCKED: ATOM      7  C   UNL     1     139.591  70.256 223.586 -0.28 -0.01    +0.035 A  
DOCKED: ATOM      8  N   UNL     1     140.693  71.864 224.858 -0.28 +0.03    -0.243 NA 
DOCKED: ATOM      9  C   UNL     1     139.323  69.471 224.681 -0.36 -0.00    +0.013 A  
DOCKED: ATOM     10  C   UNL     1     140.455  71.127 225.972 -0.54 -0.01    +0.071 A  
DOCKED: ATOM     11  C   UNL     1     139.772  69.926 225.906 -0.48 -0.00    +0.000 A  
DOCKED: ATOM     12  C   UNL     1     140.887  71.548 227.215 -0.74 -0.01    +0.029 A  
DOCKED: ATOM     13  C   UNL     1     139.509  69.146 227.013 -0.54 -0.00    +0.010 A  
DOCKED: ATOM     14  C   UNL     1     140.631  70.774 228.342 -0.61 -0.00    +0.002 A  
DOCKED: ATOM     15  C   UNL     1     139.941  69.570 228.244 -0.63 -0.00    +0.001 A  
DOCKED: ENDBRANCH   3   6
DOCKED: ENDBRANCH   1   2
DOCKED: BRANCH   1  16
DOCKED: ATOM     16  C   UNL     1     141.086  75.379 221.184 -0.23 -0.07    +0.242 C  
DOCKED: ATOM     17  O   UNL     1     141.383  75.772 222.347 -0.28 +0.08    -0.273 OA 
DOCKED: BRANCH  16  18
DOCKED: ATOM     18  N   UNL     1     141.554  76.044 220.014 -0.09 +0.14    -0.334 N  
DOCKED: ATOM     19  C   UNL     1     141.124  77.397 219.662 -0.17 -0.05    +0.120 C  
DOCKED: ATOM     20  C   UNL     1     142.493  75.385 219.111 -0.21 -0.05    +0.115 C  
DOCKED: ATOM     21  C   UNL     1     140.887  77.464 218.162 -0.10 -0.01    +0.022 C  
DOCKED: ATOM     22  C   UNL     1     143.177  76.460 218.319 -0.29 -0.02    +0.030 C  
DOCKED: ATOM     23  C   UNL     1     142.126  77.073 217.390 -0.19 -0.00    +0.004 C  
DOCKED: BRANCH  20  24
DOCKED: ATOM     24  C   UNL     1     143.425  74.462 219.774 -0.33 +0.01    -0.025 A  
DOCKED: ATOM     25  C   UNL     1     143.180  73.088 219.789 -0.24 -0.00    +0.006 A  
DOCKED: ATOM     26  C   UNL     1     144.577  74.874 220.407 -0.38 -0.00    +0.006 A  
DOCKED: ATOM     27  C   UNL     1     144.034  72.194 220.401 -0.35 -0.00    +0.000 A  
DOCKED: ATOM     28  C   UNL     1     145.456  74.014 221.030 -0.56 -0.00    +0.000 A  
DOCKED: ATOM     29  C   UNL     1     145.178  72.646 221.025 -0.47 -0.00    +0.000 A  
DOCKED: ENDBRANCH  20  24
DOCKED: ENDBRANCH  16  18
DOCKED: ENDBRANCH   1  16
DOCKED: TORSDOF 5
DOCKED: TER
DOCKED: ENDMDL
________________________________________________________________________________


    FINAL DOCKED STATE:
    ________________________


Run:   18 / 20
Time taken for this run:   0.031s

DOCKED: MODEL        18
DOCKED: USER    Run = 18
DOCKED: USER
DOCKED: USER    Estimated Free Energy of Binding    =  -8.85 kcal/mol  [=(1)+(2)+(3)-(4)]
DOCKED: USER
DOCKED: USER    (1) Final Intermolecular Energy     = -10.34 kcal/mol
DOCKED: USER        vdW + Hbond + desolv Energy     = -10.24 kcal/mol
DOCKED: USER        Electrostatic Energy            =  -0.10 kcal/mol
DOCKED: USER        Moving Ligand-Fixed Receptor    = -10.34 kcal/mol
DOCKED: USER        Moving Ligand-Moving Receptor   =  +0.00 kcal/mol
DOCKED: USER    (2) Final Total Internal Energy     =  -1.25 kcal/mol
DOCKED: USER    (3) Torsional Free Energy           =  +1.49 kcal/mol
DOCKED: USER    (4) Unbound System's Energy         =  -1.25 kcal/mol
DOCKED: USER
DOCKED: USER
DOCKED: REMARK SMILES O=C(NCC(=O)N1CCCC[C@H]1c1ccccc1)c1ccc2ccccc2n1
DOCKED: REMARK SMILES IDX 4 1 3 2 2 3 1 4 19 6 20 7 28 8 21 9 27 10 22 11 26 12 23 13
DOCKED: REMARK SMILES IDX 25 14 24 15 5 16 6 17 7 18 8 19 12 20 9 21 11 22 10 23 13 24
DOCKED: REMARK SMILES IDX 14 25 18 26 15 27 17 28 16 29
DOCKED: REMARK H PARENT 3 5
DOCKED: USER                              x       y       z     vdW  Elec       q    Type
DOCKED: USER                           _______ _______ _______ _____ _____    ______ ____
DOCKED: ROOT
DOCKED: ATOM      1  C   UNL     1     139.872  74.480 221.171 -0.18 -0.04    +0.216 C  
DOCKED: ENDROOT
DOCKED: BRANCH   1   2
DOCKED: ATOM      2  N   UNL     1     139.637  73.668 222.344 -0.12 +0.05    -0.342 N  
DOCKED: ATOM      3  C   UNL     1     140.394  72.457 222.466 -0.20 -0.03    +0.270 C  
DOCKED: ATOM      4  O   UNL     1     141.222  72.169 221.544 -0.18 +0.03    -0.268 OA 
DOCKED: ATOM      5  H   UNL     1     138.950  73.920 223.094 -0.55 -0.09    +0.164 HD 
DOCKED: BRANCH   3   6
DOCKED: ATOM      6  C   UNL     1     140.219  71.583 223.616 -0.33 -0.02    +0.128 A  
DOCKED: ATOM      7  C   UNL     1     139.542  70.397 223.451 -0.29 -0.01    +0.035 A  
DOCKED: ATOM      8  N   UNL     1     140.687  71.870 224.844 -0.28 +0.03    -0.243 NA 
DOCKED: ATOM      9  C   UNL     1     139.320  69.498 224.466 -0.34 -0.00    +0.013 A  
DOCKED: ATOM     10  C   UNL     1     140.494  71.017 225.882 -0.54 -0.01    +0.071 A  
DOCKED: ATOM     11  C   UNL     1     139.814  69.825 225.715 -0.47 -0.00    +0.000 A  
DOCKED: ATOM     12  C   UNL     1     140.973  71.309 227.144 -0.71 -0.00    +0.029 A  
DOCKED: ATOM     13  C   UNL     1     139.597  68.930 226.742 -0.55 -0.00    +0.010 A  
DOCKED: ATOM     14  C   UNL     1     140.763  70.417 228.193 -0.60 -0.00    +0.002 A  
DOCKED: ATOM     15  C   UNL     1     140.074  69.225 227.994 -0.64 -0.00    +0.001 A  
DOCKED: ENDBRANCH   3   6
DOCKED: ENDBRANCH   1   2
DOCKED: BRANCH   1  16
DOCKED: ATOM     16  C   UNL     1     140.681  75.688 221.476 -0.24 -0.06    +0.242 C  
DOCKED: ATOM     17  O   UNL     1     140.879  76.027 222.677 -0.27 +0.06    -0.273 OA 
DOCKED: BRANCH  16  18
DOCKED: ATOM     18  N   UNL     1     141.211  76.428 220.380 -0.09 +0.14    -0.334 N  
DOCKED: ATOM     19  C   UNL     1     141.171  75.923 219.008 -0.10 -0.04    +0.120 C  
DOCKED: ATOM     20  C   UNL     1     141.823  77.735 220.593 -0.26 -0.07    +0.115 C  
DOCKED: ATOM     21  C   UNL     1     142.489  76.249 218.324 -0.23 -0.01    +0.022 C  
DOCKED: ATOM     22  C   UNL     1     141.797  78.459 219.280 -0.27 -0.02    +0.030 C  
DOCKED: ATOM     23  C   UNL     1     142.769  77.735 218.345 -0.31 -0.00    +0.004 C  
DOCKED: BRANCH  20  24
DOCKED: ATOM     24  C   UNL     1     141.238  78.506 221.700 -0.37 +0.01    -0.025 A  
DOCKED: ATOM     25  C   UNL     1     142.034  78.965 222.750 -0.53 -0.00    +0.006 A  
DOCKED: ATOM     26  C   UNL     1     139.900  78.823 221.776 -0.25 -0.00    +0.006 A  
DOCKED: ATOM     27  C   UNL     1     141.517  79.691 223.803 -0.59 -0.00    +0.000 A  
DOCKED: ATOM     28  C   UNL     1     139.343  79.546 222.810 -0.33 -0.00    +0.000 A  
DOCKED: ATOM     29  C   UNL     1     140.171  79.990 223.843 -0.45 -0.00    +0.000 A  
DOCKED: ENDBRANCH  20  24
DOCKED: ENDBRANCH  16  18
DOCKED: ENDBRANCH   1  16
DOCKED: TORSDOF 5
DOCKED: TER
DOCKED: ENDMDL
________________________________________________________________________________


    FINAL DOCKED STATE:
    ________________________


Run:   19 / 20
Time taken for this run:   0.031s

DOCKED: MODEL        19
DOCKED: USER    Run = 19
DOCKED: USER
DOCKED: USER    Estimated Free Energy of Binding    =  -8.42 kcal/mol  [=(1)+(2)+(3)-(4)]
DOCKED: USER
DOCKED: USER    (1) Final Intermolecular Energy     =  -9.92 kcal/mol
DOCKED: USER        vdW + Hbond + desolv Energy     =  -9.91 kcal/mol
DOCKED: USER        Electrostatic Energy            =  -0.01 kcal/mol
DOCKED: USER        Moving Ligand-Fixed Receptor    =  -9.92 kcal/mol
DOCKED: USER        Moving Ligand-Moving Receptor   =  +0.00 kcal/mol
DOCKED: USER    (2) Final Total Internal Energy     =  -1.80 kcal/mol
DOCKED: USER    (3) Torsional Free Energy           =  +1.49 kcal/mol
DOCKED: USER    (4) Unbound System's Energy         =  -1.80 kcal/mol
DOCKED: USER
DOCKED: USER
DOCKED: REMARK SMILES O=C(NCC(=O)N1CCCC[C@H]1c1ccccc1)c1ccc2ccccc2n1
DOCKED: REMARK SMILES IDX 4 1 3 2 2 3 1 4 19 6 20 7 28 8 21 9 27 10 22 11 26 12 23 13
DOCKED: REMARK SMILES IDX 25 14 24 15 5 16 6 17 7 18 8 19 12 20 9 21 11 22 10 23 13 24
DOCKED: REMARK SMILES IDX 14 25 18 26 15 27 17 28 16 29
DOCKED: REMARK H PARENT 3 5
DOCKED: USER                              x       y       z     vdW  Elec       q    Type
DOCKED: USER                           _______ _______ _______ _____ _____    ______ ____
DOCKED: ROOT
DOCKED: ATOM      1  C   UNL     1     140.301  74.226 221.029 -0.18 -0.04    +0.216 C  
DOCKED: ENDROOT
DOCKED: BRANCH   1   2
DOCKED: ATOM      2  N   UNL     1     140.059  73.560 222.289 -0.10 +0.02    -0.342 N  
DOCKED: ATOM      3  C   UNL     1     140.492  72.198 222.404 -0.20 -0.03    +0.270 C  
DOCKED: ATOM      4  O   UNL     1     141.059  71.660 221.401 -0.15 +0.03    -0.268 OA 
DOCKED: ATOM      5  H   UNL     1     139.589  74.019 223.105 -0.51 -0.02    +0.164 HD 
DOCKED: BRANCH   3   6
DOCKED: ATOM      6  C   UNL     1     140.287  71.454 223.638 -0.33 -0.02    +0.128 A  
DOCKED: ATOM      7  C   UNL     1     139.638  70.243 223.583 -0.28 -0.01    +0.035 A  
DOCKED: ATOM      8  N   UNL     1     140.701  71.888 224.842 -0.28 +0.03    -0.243 NA 
DOCKED: ATOM      9  C   UNL     1     139.391  69.459 224.684 -0.36 -0.00    +0.013 A  
DOCKED: ATOM     10  C   UNL     1     140.483  71.152 225.962 -0.55 -0.01    +0.071 A  
DOCKED: ATOM     11  C   UNL     1     139.830  69.935 225.906 -0.48 -0.00    +0.000 A  
DOCKED: ATOM     12  C   UNL     1     140.906  71.594 227.200 -0.75 -0.01    +0.029 A  
DOCKED: ATOM     13  C   UNL     1     139.588  69.156 227.018 -0.55 -0.00    +0.010 A  
DOCKED: ATOM     14  C   UNL     1     140.671  70.821 228.334 -0.62 -0.00    +0.002 A  
DOCKED: ATOM     15  C   UNL     1     140.011  69.600 228.245 -0.62 -0.00    +0.001 A  
DOCKED: ENDBRANCH   3   6
DOCKED: ENDBRANCH   1   2
DOCKED: BRANCH   1  16
DOCKED: ATOM     16  C   UNL     1     141.124  75.453 221.191 -0.22 -0.07    +0.242 C  
DOCKED: ATOM     17  O   UNL     1     141.358  75.907 222.346 -0.29 +0.09    -0.273 OA 
DOCKED: BRANCH  16  18
DOCKED: ATOM     18  N   UNL     1     141.623  76.079 220.013 -0.09 +0.14    -0.334 N  
DOCKED: ATOM     19  C   UNL     1     141.235  77.435 219.626 -0.18 -0.06    +0.120 C  
DOCKED: ATOM     20  C   UNL     1     142.553  75.374 219.135 -0.21 -0.05    +0.115 C  
DOCKED: ATOM     21  C   UNL     1     141.016  77.475 218.122 -0.11 -0.01    +0.022 C  
DOCKED: ATOM     22  C   UNL     1     143.275  76.411 218.328 -0.30 -0.02    +0.030 C  
DOCKED: ATOM     23  C   UNL     1     142.252  77.033 217.373 -0.20 -0.00    +0.004 C  
DOCKED: BRANCH  20  24
DOCKED: ATOM     24  C   UNL     1     143.451  74.440 219.828 -0.34 +0.01    -0.025 A  
DOCKED: ATOM     25  C   UNL     1     144.645  74.886 220.397 -0.36 -0.00    +0.006 A  
DOCKED: ATOM     26  C   UNL     1     143.185  73.096 219.966 -0.26 -0.00    +0.006 A  
DOCKED: ATOM     27  C   UNL     1     145.510  74.037 221.055 -0.56 -0.00    +0.000 A  
DOCKED: ATOM     28  C   UNL     1     144.022  72.213 220.615 -0.35 -0.00    +0.000 A  
DOCKED: ATOM     29  C   UNL     1     145.208  72.696 221.172 -0.46 -0.00    +0.000 A  
DOCKED: ENDBRANCH  20  24
DOCKED: ENDBRANCH  16  18
DOCKED: ENDBRANCH   1  16
DOCKED: TORSDOF 5
DOCKED: TER
DOCKED: ENDMDL
________________________________________________________________________________


    FINAL DOCKED STATE:
    ________________________


Run:   20 / 20
Time taken for this run:   0.031s

DOCKED: MODEL        20
DOCKED: USER    Run = 20
DOCKED: USER
DOCKED: USER    Estimated Free Energy of Binding    =  -7.14 kcal/mol  [=(1)+(2)+(3)-(4)]
DOCKED: USER
DOCKED: USER    (1) Final Intermolecular Energy     =  -8.63 kcal/mol
DOCKED: USER        vdW + Hbond + desolv Energy     =  -8.58 kcal/mol
DOCKED: USER        Electrostatic Energy            =  -0.05 kcal/mol
DOCKED: USER        Moving Ligand-Fixed Receptor    =  -8.63 kcal/mol
DOCKED: USER        Moving Ligand-Moving Receptor   =  +0.00 kcal/mol
DOCKED: USER    (2) Final Total Internal Energy     =  -2.46 kcal/mol
DOCKED: USER    (3) Torsional Free Energy           =  +1.49 kcal/mol
DOCKED: USER    (4) Unbound System's Energy         =  -2.46 kcal/mol
DOCKED: USER
DOCKED: USER
DOCKED: REMARK SMILES O=C(NCC(=O)N1CCCC[C@H]1c1ccccc1)c1ccc2ccccc2n1
DOCKED: REMARK SMILES IDX 4 1 3 2 2 3 1 4 19 6 20 7 28 8 21 9 27 10 22 11 26 12 23 13
DOCKED: REMARK SMILES IDX 25 14 24 15 5 16 6 17 7 18 8 19 12 20 9 21 11 22 10 23 13 24
DOCKED: REMARK SMILES IDX 14 25 18 26 15 27 17 28 16 29
DOCKED: REMARK H PARENT 3 5
DOCKED: USER                              x       y       z     vdW  Elec       q    Type
DOCKED: USER                           _______ _______ _______ _____ _____    ______ ____
DOCKED: ROOT
DOCKED: ATOM      1  C   UNL     1     141.396  79.266 219.136 -0.16 -0.11    +0.216 C  
DOCKED: ENDROOT
DOCKED: BRANCH   1   2
DOCKED: ATOM      2  N   UNL     1     142.289  78.143 219.310 -0.12 +0.24    -0.342 N  
DOCKED: ATOM      3  C   UNL     1     141.827  76.862 218.860 -0.13 -0.13    +0.270 C  
DOCKED: ATOM      4  O   UNL     1     140.670  76.789 218.338 -0.03 +0.10    -0.268 OA 
DOCKED: ATOM      5  H   UNL     1     143.240  78.221 219.743 -0.38 -0.20    +0.164 HD 
DOCKED: BRANCH   3   6
DOCKED: ATOM      6  C   UNL     1     142.664  75.680 218.997 -0.22 -0.06    +0.128 A  
DOCKED: ATOM      7  C   UNL     1     142.401  74.585 218.208 -0.11 -0.01    +0.035 A  
DOCKED: ATOM      8  N   UNL     1     143.693  75.596 219.860 -0.27 +0.15    -0.243 NA 
DOCKED: ATOM      9  C   UNL     1     143.126  73.419 218.255 -0.11 -0.00    +0.013 A  
DOCKED: ATOM     10  C   UNL     1     144.441  74.467 219.947 -0.39 -0.03    +0.071 A  
DOCKED: ATOM     11  C   UNL     1     144.175  73.366 219.153 -0.26 -0.00    +0.000 A  
DOCKED: ATOM     12  C   UNL     1     145.498  74.376 220.832 -0.50 -0.01    +0.029 A  
DOCKED: ATOM     13  C   UNL     1     144.911  72.200 219.208 -0.30 +0.00    +0.010 A  
DOCKED: ATOM     14  C   UNL     1     146.251  73.207 220.901 -0.67 +0.00    +0.002 A  
DOCKED: ATOM     15  C   UNL     1     145.958  72.116 220.089 -0.37 +0.00    +0.001 A  
DOCKED: ENDBRANCH   3   6
DOCKED: ENDBRANCH   1   2
DOCKED: BRANCH   1  16
DOCKED: ATOM     16  C   UNL     1     140.445  79.409 220.269 -0.10 -0.09    +0.242 C  
DOCKED: ATOM     17  O   UNL     1     139.202  79.328 220.061 -0.03 +0.07    -0.273 OA 
DOCKED: BRANCH  16  18
DOCKED: ATOM     18  N   UNL     1     140.986  79.636 221.567 -0.11 +0.11    -0.334 N  
DOCKED: ATOM     19  C   UNL     1     141.207  80.982 222.095 -0.37 -0.03    +0.120 C  
DOCKED: ATOM     20  C   UNL     1     141.347  78.513 222.427 -0.40 -0.05    +0.115 C  
DOCKED: ATOM     21  C   UNL     1     142.533  81.008 222.838 -0.48 -0.01    +0.022 C  
DOCKED: ATOM     22  C   UNL     1     141.375  79.023 223.837 -0.58 -0.01    +0.030 C  
DOCKED: ATOM     23  C   UNL     1     142.564  79.981 223.947 -0.54 -0.00    +0.004 C  
DOCKED: BRANCH  20  24
DOCKED: ATOM     24  C   UNL     1     140.506  77.320 222.251 -0.40 +0.01    -0.025 A  
DOCKED: ATOM     25  C   UNL     1     141.069  76.098 221.879 -0.37 -0.00    +0.006 A  
DOCKED: ATOM     26  C   UNL     1     139.142  77.321 222.439 -0.31 -0.00    +0.006 A  
DOCKED: ATOM     27  C   UNL     1     140.310  74.959 221.707 -0.31 -0.00    +0.000 A  
DOCKED: ATOM     28  C   UNL     1     138.347  76.207 222.277 -0.29 -0.00    +0.000 A  
DOCKED: ATOM     29  C   UNL     1     138.945  75.001 221.904 -0.27 -0.00    +0.000 A  
DOCKED: ENDBRANCH  20  24
DOCKED: ENDBRANCH  16  18
DOCKED: ENDBRANCH   1  16
DOCKED: TORSDOF 5
DOCKED: TER
DOCKED: ENDMDL
________________________________________________________________________________


    CLUSTERING HISTOGRAM
    ____________________


________________________________________________________________________________
     |           |     |           |     |
Clus | Lowest    | Run | Mean      | Num | Histogram
-ter | Binding   |     | Binding   | in  |
Rank | Energy    |     | Energy    | Clus|    5    10   15   20   25   30   35
_____|___________|_____|___________|_____|____:____|____:____|____:____|____:___
   1 |     -8.85 |  18 |     -8.84 |   2 |##
   2 |     -8.43 |  10 |     -8.41 |  13 |#############
   3 |     -8.24 |   9 |     -8.24 |   1 |#
   4 |     -7.15 |  12 |     -7.14 |   4 |####
_____|___________|_____|___________|_____|______________________________________


    RMSD TABLE
    __________


_______________________________________________________________________
     |      |      |           |         |                 |
Rank | Sub- | Run  | Binding   | Cluster | Reference       | Grep
     | Rank |      | Energy    | RMSD    | RMSD            | Pattern
_____|______|______|___________|_________|_________________|___________
   1      1     18       -8.85      0.00    271.67           RANKING
   1      2      7       -8.83      0.08    271.70           RANKING
   2      1     10       -8.43      0.00    271.29           RANKING
   2      2     14       -8.43      0.03    271.31           RANKING
   2      3     19       -8.42      0.04    271.29           RANKING
   2      4      8       -8.42      0.06    271.28           RANKING
   2      5      1       -8.42      0.03    271.31           RANKING
   2      6      6       -8.42      0.05    271.30           RANKING
   2      7     16       -8.42      0.04    271.31           RANKING
   2      8     11       -8.42      0.03    271.28           RANKING
   2      9     13       -8.41      0.04    271.29           RANKING
   2     10      5       -8.41      0.05    271.29           RANKING
   2     11     17       -8.40      0.12    271.25           RANKING
   2     12      2       -8.39      0.20    271.22           RANKING
   2     13     15       -8.39      0.19    271.21           RANKING
   3      1      9       -8.24      0.00    271.14           RANKING
   4      1     12       -7.15      0.00    271.18           RANKING
   4      2      3       -7.14      0.09    271.17           RANKING
   4      3     20       -7.14      0.08    271.15           RANKING
   4      4      4       -7.13      0.07    271.17           RANKING

Run time 0.581 sec
Idle time 0.000 sec
