AutoDock-GPU version: v1.6

**********************************************************
**    AutoDock-GPU AUTODOCKTOOLS-COMPATIBLE DLG FILE    **
**********************************************************


    DOCKING PARAMETERS
    ________________________


Ligand file:                               /home/a/REINVENT4/ReinventStudies/pleaseWork/justmol2mol_4_Compounds_ontop/graph-dock/graph-DockGPU/node-autodockgpu/inputs/XFBBZXLLKYEVEV-IAEBWRAQNA-N.pdbqt
Grid fld file:                             /home/a/REINVENT4/ReinventStudies/mols/Rad51/maps/rad51_receptor.maps.fld

Random seed:                               42
Number of runs:                            20
Number of energy evaluations:              1132076
Number of generations:                     42000
Size of population:                        150
Rate of crossover:                         80.000000%
Tournament selection probability limit:    60.000000%
Rate of mutation:                          2.000000%
Maximal allowed delta movement:            +/- 6.000000A
Maximal allowed delta angle:               +/- 90.000000

Rate of local search:                      100.000000%
Maximal number of local search iterations: 300
Rho lower bound:                           0.010000
Spread of local search delta movement:     2.000000A
Spread of local search delta angle:        74.999999
Limit of consecutive successes/failures:   4

Handle symmetry during clustering:         YES
RMSD tolerance:                            2.000000A

Program call in command line was:          /home/a/REINVENT4/ReinventStudies/adgpu-v1.6_linux_x64_cuda12_128wi --filelist batch.txt --heuristics 1 --nrun 20 --psize 150 --lsit 300 --seed 42 --heurmax 12000000 


    GRID PARAMETERS
    ________________________


Receptor name:                             rad51_receptor
Number of grid points (x, y, z):           53, 53, 53
Grid center (x, y, z):                     139.950000, 75.640000, 221.970000A
Grid size (x, y, z):                       19.500000, 19.500000, 19.500000A
Grid spacing:                              0.375000A


    LIGAND PARAMETERS
    ________________________


Ligand name:                               /home/a/REINVENT4/ReinventStudies/pleaseWork/justmol2mol_4_Compounds_ontop/graph-dock/graph-DockGPU/node-autodockgpu/inputs/XFBBZXLLKYEVEV-IAEBWRAQNA-N
Number of atoms:                           30
Number of rotatable bonds:                 5
Number of atom types:                      7


    DUMMY DATA (only for ADT-compatibility)
    ________________________


DPF> outlev 1
DPF> ga_run 20
DPF> fld /home/a/REINVENT4/ReinventStudies/mols/Rad51/maps/rad51_receptor.maps.fld
DPF> move /home/a/REINVENT4/ReinventStudies/pleaseWork/justmol2mol_4_Compounds_ontop/graph-dock/graph-DockGPU/node-autodockgpu/inputs/XFBBZXLLKYEVEV-IAEBWRAQNA-N.pdbqt


    COUNTER STATES
    ________________________


Number of energy evaluations performed:    839666
Number of generations used:                45


    INPUT LIGAND PDBQT FILE:
    ________________________


INPUT-LIGAND-PDBQT: REMARK SMILES O=C(NCC(=O)N1CCC[C@H]1c1ccc(Cl)c(Cl)c1)c1ccc2ccccc2n1
INPUT-LIGAND-PDBQT: REMARK SMILES IDX 5 1 6 2 4 3 3 4 2 5 1 6 20 8 21 9 29 10 22 11 28 12 23 13
INPUT-LIGAND-PDBQT: REMARK SMILES IDX 27 14 24 15 26 16 25 17 7 18 8 19 11 20 9 21 10 22 12 23
INPUT-LIGAND-PDBQT: REMARK SMILES IDX 13 24 19 25 14 26 17 27 15 28 18 29 16 30
INPUT-LIGAND-PDBQT: REMARK H PARENT 3 7
INPUT-LIGAND-PDBQT: ROOT
INPUT-LIGAND-PDBQT: ATOM      1  C   UNL     1      -1.512   1.090   0.846  1.00  0.00     0.242 C 
INPUT-LIGAND-PDBQT: ATOM      2  O   UNL     1      -2.493   1.603   1.553  1.00  0.00    -0.273 OA
INPUT-LIGAND-PDBQT: ENDROOT
INPUT-LIGAND-PDBQT: BRANCH   1   3
INPUT-LIGAND-PDBQT: ATOM      3  C   UNL     1      -0.302   0.896   1.600  1.00  0.00     0.216 C 
INPUT-LIGAND-PDBQT: BRANCH   3   4
INPUT-LIGAND-PDBQT: ATOM      4  N   UNL     1       0.844   0.343   0.964  1.00  0.00    -0.342 N 
INPUT-LIGAND-PDBQT: ATOM      5  C   UNL     1       2.016   0.194   1.828  1.00  0.00     0.270 C 
INPUT-LIGAND-PDBQT: ATOM      6  O   UNL     1       1.900   0.563   3.031  1.00  0.00    -0.268 OA
INPUT-LIGAND-PDBQT: ATOM      7  H   UNL     1       0.993   0.032   0.014  1.00  0.00     0.164 HD
INPUT-LIGAND-PDBQT: BRANCH   5   8
INPUT-LIGAND-PDBQT: ATOM      8  C   UNL     1       3.246  -0.361   1.285  1.00  0.00     0.128 A 
INPUT-LIGAND-PDBQT: ATOM      9  C   UNL     1       4.317  -0.480   2.138  1.00  0.00     0.035 A 
INPUT-LIGAND-PDBQT: ATOM     10  N   UNL     1       3.377  -0.757   0.002  1.00  0.00    -0.243 NA
INPUT-LIGAND-PDBQT: ATOM     11  C   UNL     1       5.528  -0.993   1.726  1.00  0.00     0.013 A 
INPUT-LIGAND-PDBQT: ATOM     12  C   UNL     1       4.539  -1.266  -0.455  1.00  0.00     0.071 A 
INPUT-LIGAND-PDBQT: ATOM     13  C   UNL     1       5.618  -1.388   0.396  1.00  0.00     0.000 A 
INPUT-LIGAND-PDBQT: ATOM     14  C   UNL     1       4.645  -1.663  -1.771  1.00  0.00     0.029 A 
INPUT-LIGAND-PDBQT: ATOM     15  C   UNL     1       6.816  -1.909  -0.059  1.00  0.00     0.010 A 
INPUT-LIGAND-PDBQT: ATOM     16  C   UNL     1       5.823  -2.184  -2.252  1.00  0.00     0.002 A 
INPUT-LIGAND-PDBQT: ATOM     17  C   UNL     1       6.896  -2.297  -1.376  1.00  0.00     0.001 A 
INPUT-LIGAND-PDBQT: ENDBRANCH   5   8
INPUT-LIGAND-PDBQT: ENDBRANCH   3   4
INPUT-LIGAND-PDBQT: ENDBRANCH   1   3
INPUT-LIGAND-PDBQT: BRANCH   1  18
INPUT-LIGAND-PDBQT: ATOM     18  N   UNL     1      -1.823   0.825  -0.517  1.00  0.00    -0.334 N 
INPUT-LIGAND-PDBQT: ATOM     19  C   UNL     1      -0.962   0.289  -1.567  1.00  0.00     0.120 C 
INPUT-LIGAND-PDBQT: ATOM     20  C   UNL     1      -3.160   1.097  -1.045  1.00  0.00     0.115 C 
INPUT-LIGAND-PDBQT: ATOM     21  C   UNL     1      -1.897   0.346  -2.807  1.00  0.00     0.024 C 
INPUT-LIGAND-PDBQT: ATOM     22  C   UNL     1      -3.265   0.144  -2.183  1.00  0.00     0.032 C 
INPUT-LIGAND-PDBQT: BRANCH  20  23
INPUT-LIGAND-PDBQT: ATOM     23  C   UNL     1      -4.257   1.009  -0.088  1.00  0.00    -0.024 A 
INPUT-LIGAND-PDBQT: ATOM     24  C   UNL     1      -4.461  -0.070   0.774  1.00  0.00     0.007 A 
INPUT-LIGAND-PDBQT: ATOM     25  C   UNL     1      -5.194   2.035   0.020  1.00  0.00     0.028 A 
INPUT-LIGAND-PDBQT: ATOM     26  C   UNL     1      -5.513  -0.112   1.664  1.00  0.00     0.022 A 
INPUT-LIGAND-PDBQT: ATOM     27  C   UNL     1      -6.244   1.990   0.910  1.00  0.00     0.060 A 
INPUT-LIGAND-PDBQT: ATOM     28  C   UNL     1      -6.430   0.919   1.752  1.00  0.00     0.059 A 
INPUT-LIGAND-PDBQT: ATOM     29  Cl  UNL     1      -7.391   3.326   0.991  1.00  0.00    -0.083 Cl
INPUT-LIGAND-PDBQT: ATOM     30  Cl  UNL     1      -7.734   0.819   2.886  1.00  0.00    -0.083 Cl
INPUT-LIGAND-PDBQT: ENDBRANCH  20  23
INPUT-LIGAND-PDBQT: ENDBRANCH   1  18
INPUT-LIGAND-PDBQT: TORSDOF 5


    FINAL DOCKED STATE:
    ________________________


Run:   1 / 20
Time taken for this run:   0.034s

DOCKED: MODEL        1
DOCKED: USER    Run = 1
DOCKED: USER
DOCKED: USER    Estimated Free Energy of Binding    =  -8.74 kcal/mol  [=(1)+(2)+(3)-(4)]
DOCKED: USER
DOCKED: USER    (1) Final Intermolecular Energy     = -10.23 kcal/mol
DOCKED: USER        vdW + Hbond + desolv Energy     = -10.11 kcal/mol
DOCKED: USER        Electrostatic Energy            =  -0.12 kcal/mol
DOCKED: USER        Moving Ligand-Fixed Receptor    = -10.23 kcal/mol
DOCKED: USER        Moving Ligand-Moving Receptor   =  +0.00 kcal/mol
DOCKED: USER    (2) Final Total Internal Energy     =  -1.80 kcal/mol
DOCKED: USER    (3) Torsional Free Energy           =  +1.49 kcal/mol
DOCKED: USER    (4) Unbound System's Energy         =  -1.80 kcal/mol
DOCKED: USER
DOCKED: USER
DOCKED: REMARK SMILES O=C(NCC(=O)N1CCC[C@H]1c1ccc(Cl)c(Cl)c1)c1ccc2ccccc2n1
DOCKED: REMARK SMILES IDX 5 1 6 2 4 3 3 4 2 5 1 6 20 8 21 9 29 10 22 11 28 12 23 13
DOCKED: REMARK SMILES IDX 27 14 24 15 26 16 25 17 7 18 8 19 11 20 9 21 10 22 12 23
DOCKED: REMARK SMILES IDX 13 24 19 25 14 26 17 27 15 28 18 29 16 30
DOCKED: REMARK H PARENT 3 7
DOCKED: USER                              x       y       z     vdW  Elec       q    Type
DOCKED: USER                           _______ _______ _______ _____ _____    ______ ____
DOCKED: ROOT
DOCKED: ATOM      1  C   UNL     1     140.719  75.842 221.421 -0.24 -0.07    +0.242 C  
DOCKED: ATOM      2  O   UNL     1     140.829  76.180 222.686 -0.30 +0.06    -0.273 OA 
DOCKED: ENDROOT
DOCKED: BRANCH   1   3
DOCKED: ATOM      3  C   UNL     1     140.096  74.560 221.222 -0.20 -0.04    +0.216 C  
DOCKED: BRANCH   3   4
DOCKED: ATOM      4  N   UNL     1     139.775  73.750 222.347 -0.09 +0.04    -0.342 N  
DOCKED: ATOM      5  C   UNL     1     140.586  72.539 222.484 -0.16 -0.02    +0.270 C  
DOCKED: ATOM      6  O   UNL     1     141.474  72.334 221.609 -0.20 +0.02    -0.268 OA 
DOCKED: ATOM      7  H   UNL     1     139.082  73.863 223.073 -0.54 -0.08    +0.164 HD 
DOCKED: BRANCH   5   8
DOCKED: ATOM      8  C   UNL     1     140.347  71.634 223.597 -0.33 -0.02    +0.128 A  
DOCKED: ATOM      9  C   UNL     1     139.689  70.458 223.327 -0.27 -0.01    +0.035 A  
DOCKED: ATOM     10  N   UNL     1     140.738  71.896 224.862 -0.26 +0.03    -0.243 NA 
DOCKED: ATOM     11  C   UNL     1     139.412  69.531 224.308 -0.33 -0.00    +0.013 A  
DOCKED: ATOM     12  C   UNL     1     140.493  71.024 225.861 -0.54 -0.01    +0.071 A  
DOCKED: ATOM     13  C   UNL     1     139.833  69.842 225.596 -0.46 -0.00    +0.000 A  
DOCKED: ATOM     14  C   UNL     1     140.904  71.317 227.144 -0.71 -0.00    +0.029 A  
DOCKED: ATOM     15  C   UNL     1     139.576  68.938 226.612 -0.54 -0.00    +0.010 A  
DOCKED: ATOM     16  C   UNL     1     140.662  70.439 228.174 -0.61 -0.00    +0.002 A  
DOCKED: ATOM     17  C   UNL     1     139.995  69.255 227.883 -0.63 -0.00    +0.001 A  
DOCKED: ENDBRANCH   5   8
DOCKED: ENDBRANCH   3   4
DOCKED: ENDBRANCH   1   3
DOCKED: BRANCH   1  18
DOCKED: ATOM     18  N   UNL     1     141.230  76.792 220.494 -0.10 +0.15    -0.334 N  
DOCKED: ATOM     19  C   UNL     1     141.182  78.250 220.555 -0.23 -0.06    +0.120 C  
DOCKED: ATOM     20  C   UNL     1     141.911  76.356 219.275 -0.20 -0.05    +0.115 C  
DOCKED: ATOM     21  C   UNL     1     141.831  78.648 219.200 -0.27 -0.01    +0.024 C  
DOCKED: ATOM     22  C   UNL     1     142.803  77.507 218.966 -0.27 -0.02    +0.032 C  
DOCKED: BRANCH  20  23
DOCKED: ATOM     23  C   UNL     1     142.596  75.071 219.349 -0.25 +0.01    -0.024 A  
DOCKED: ATOM     24  C   UNL     1     142.149  73.907 218.721 -0.10 -0.00    +0.007 A  
DOCKED: ATOM     25  C   UNL     1     143.777  74.932 220.076 -0.41 -0.01    +0.028 A  
DOCKED: ATOM     26  C   UNL     1     142.829  72.711 218.818 -0.10 -0.00    +0.022 A  
DOCKED: ATOM     27  C   UNL     1     144.454  73.737 220.171 -0.42 -0.01    +0.060 A  
DOCKED: ATOM     28  C   UNL     1     143.999  72.599 219.547 -0.24 -0.00    +0.059 A  
DOCKED: ATOM     29  Cl  UNL     1     145.942  73.637 221.110 -0.86 +0.01    -0.083 Cl 
DOCKED: ATOM     30  Cl  UNL     1     144.816  71.076 219.638 -0.26 -0.01    -0.083 Cl 
DOCKED: ENDBRANCH  20  23
DOCKED: ENDBRANCH   1  18
DOCKED: TORSDOF 5
DOCKED: TER
DOCKED: ENDMDL
________________________________________________________________________________


    FINAL DOCKED STATE:
    ________________________


Run:   2 / 20
Time taken for this run:   0.034s

DOCKED: MODEL        2
DOCKED: USER    Run = 2
DOCKED: USER
DOCKED: USER    Estimated Free Energy of Binding    =  -7.55 kcal/mol  [=(1)+(2)+(3)-(4)]
DOCKED: USER
DOCKED: USER    (1) Final Intermolecular Energy     =  -9.04 kcal/mol
DOCKED: USER        vdW + Hbond + desolv Energy     =  -9.05 kcal/mol
DOCKED: USER        Electrostatic Energy            =  +0.00 kcal/mol
DOCKED: USER        Moving Ligand-Fixed Receptor    =  -9.04 kcal/mol
DOCKED: USER        Moving Ligand-Moving Receptor   =  +0.00 kcal/mol
DOCKED: USER    (2) Final Total Internal Energy     =  -2.42 kcal/mol
DOCKED: USER    (3) Torsional Free Energy           =  +1.49 kcal/mol
DOCKED: USER    (4) Unbound System's Energy         =  -2.42 kcal/mol
DOCKED: USER
DOCKED: USER
DOCKED: REMARK SMILES O=C(NCC(=O)N1CCC[C@H]1c1ccc(Cl)c(Cl)c1)c1ccc2ccccc2n1
DOCKED: REMARK SMILES IDX 5 1 6 2 4 3 3 4 2 5 1 6 20 8 21 9 29 10 22 11 28 12 23 13
DOCKED: REMARK SMILES IDX 27 14 24 15 26 16 25 17 7 18 8 19 11 20 9 21 10 22 12 23
DOCKED: REMARK SMILES IDX 13 24 19 25 14 26 17 27 15 28 18 29 16 30
DOCKED: REMARK H PARENT 3 7
DOCKED: USER                              x       y       z     vdW  Elec       q    Type
DOCKED: USER                           _______ _______ _______ _____ _____    ______ ____
DOCKED: ROOT
DOCKED: ATOM      1  C   UNL     1     141.901  73.040 220.343 -0.13 -0.04    +0.242 C  
DOCKED: ATOM      2  O   UNL     1     141.433  72.137 219.512 -0.04 +0.05    -0.273 OA 
DOCKED: ENDROOT
DOCKED: BRANCH   1   3
DOCKED: ATOM      3  C   UNL     1     140.877  73.846 220.951 -0.18 -0.04    +0.216 C  
DOCKED: BRANCH   3   4
DOCKED: ATOM      4  N   UNL     1     141.205  75.130 221.470 -0.18 +0.08    -0.342 N  
DOCKED: ATOM      5  C   UNL     1     140.058  76.000 221.731 -0.23 -0.06    +0.270 C  
DOCKED: ATOM      6  O   UNL     1     138.910  75.538 221.475 -0.16 +0.06    -0.268 OA 
DOCKED: ATOM      7  H   UNL     1     142.097  75.549 221.693 -0.43 -0.09    +0.164 HD 
DOCKED: BRANCH   5   8
DOCKED: ATOM      8  C   UNL     1     140.273  77.337 222.263 -0.33 -0.04    +0.128 A  
DOCKED: ATOM      9  C   UNL     1     139.161  78.088 222.556 -0.29 -0.01    +0.035 A  
DOCKED: ATOM     10  N   UNL     1     141.498  77.860 222.477 -0.20 +0.12    -0.243 NA 
DOCKED: ATOM     11  C   UNL     1     139.253  79.366 223.064 -0.35 -0.00    +0.013 A  
DOCKED: ATOM     12  C   UNL     1     141.647  79.105 222.973 -0.51 -0.03    +0.071 A  
DOCKED: ATOM     13  C   UNL     1     140.534  79.865 223.269 -0.47 -0.00    +0.000 A  
DOCKED: ATOM     14  C   UNL     1     142.911  79.615 223.183 -0.54 -0.01    +0.029 A  
DOCKED: ATOM     15  C   UNL     1     140.672  81.144 223.778 -0.33 -0.00    +0.010 A  
DOCKED: ATOM     16  C   UNL     1     143.079  80.883 223.687 -0.61 -0.00    +0.002 A  
DOCKED: ATOM     17  C   UNL     1     141.943  81.629 223.978 -0.52 -0.00    +0.001 A  
DOCKED: ENDBRANCH   5   8
DOCKED: ENDBRANCH   3   4
DOCKED: ENDBRANCH   1   3
DOCKED: BRANCH   1  18
DOCKED: ATOM     18  N   UNL     1     143.317  73.053 220.486 -0.13 +0.06    -0.334 N  
DOCKED: ATOM     19  C   UNL     1     144.210  71.966 220.875 -0.15 -0.02    +0.120 C  
DOCKED: ATOM     20  C   UNL     1     144.082  74.276 220.240 -0.37 -0.04    +0.115 C  
DOCKED: ATOM     21  C   UNL     1     145.587  72.684 220.920 -0.45 -0.00    +0.024 C  
DOCKED: ATOM     22  C   UNL     1     145.422  73.755 219.859 -0.40 -0.00    +0.032 C  
DOCKED: BRANCH  20  23
DOCKED: ATOM     23  C   UNL     1     143.506  75.209 219.278 -0.33 +0.01    -0.024 A  
DOCKED: ATOM     24  C   UNL     1     143.395  74.955 217.910 -0.19 -0.00    +0.007 A  
DOCKED: ATOM     25  C   UNL     1     143.019  76.448 219.690 -0.37 -0.02    +0.028 A  
DOCKED: ATOM     26  C   UNL     1     142.844  75.867 217.035 -0.17 -0.01    +0.022 A  
DOCKED: ATOM     27  C   UNL     1     142.469  77.357 218.813 -0.29 -0.04    +0.060 A  
DOCKED: ATOM     28  C   UNL     1     142.368  77.091 217.468 -0.21 -0.04    +0.059 A  
DOCKED: ATOM     29  Cl  UNL     1     141.874  78.907 219.406 -0.32 +0.05    -0.083 Cl 
DOCKED: ATOM     30  Cl  UNL     1     141.684  78.202 216.330 -0.17 +0.06    -0.083 Cl 
DOCKED: ENDBRANCH  20  23
DOCKED: ENDBRANCH   1  18
DOCKED: TORSDOF 5
DOCKED: TER
DOCKED: ENDMDL
________________________________________________________________________________


    FINAL DOCKED STATE:
    ________________________


Run:   3 / 20
Time taken for this run:   0.034s

DOCKED: MODEL        3
DOCKED: USER    Run = 3
DOCKED: USER
DOCKED: USER    Estimated Free Energy of Binding    =  -8.70 kcal/mol  [=(1)+(2)+(3)-(4)]
DOCKED: USER
DOCKED: USER    (1) Final Intermolecular Energy     = -10.19 kcal/mol
DOCKED: USER        vdW + Hbond + desolv Energy     = -10.06 kcal/mol
DOCKED: USER        Electrostatic Energy            =  -0.12 kcal/mol
DOCKED: USER        Moving Ligand-Fixed Receptor    = -10.19 kcal/mol
DOCKED: USER        Moving Ligand-Moving Receptor   =  +0.00 kcal/mol
DOCKED: USER    (2) Final Total Internal Energy     =  -1.84 kcal/mol
DOCKED: USER    (3) Torsional Free Energy           =  +1.49 kcal/mol
DOCKED: USER    (4) Unbound System's Energy         =  -1.84 kcal/mol
DOCKED: USER
DOCKED: USER
DOCKED: REMARK SMILES O=C(NCC(=O)N1CCC[C@H]1c1ccc(Cl)c(Cl)c1)c1ccc2ccccc2n1
DOCKED: REMARK SMILES IDX 5 1 6 2 4 3 3 4 2 5 1 6 20 8 21 9 29 10 22 11 28 12 23 13
DOCKED: REMARK SMILES IDX 27 14 24 15 26 16 25 17 7 18 8 19 11 20 9 21 10 22 12 23
DOCKED: REMARK SMILES IDX 13 24 19 25 14 26 17 27 15 28 18 29 16 30
DOCKED: REMARK H PARENT 3 7
DOCKED: USER                              x       y       z     vdW  Elec       q    Type
DOCKED: USER                           _______ _______ _______ _____ _____    ______ ____
DOCKED: ROOT
DOCKED: ATOM      1  C   UNL     1     140.724  75.838 221.411 -0.24 -0.07    +0.242 C  
DOCKED: ATOM      2  O   UNL     1     141.033  76.061 222.668 -0.25 +0.07    -0.273 OA 
DOCKED: ENDROOT
DOCKED: BRANCH   1   3
DOCKED: ATOM      3  C   UNL     1     139.916  74.663 221.219 -0.19 -0.04    +0.216 C  
DOCKED: BRANCH   3   4
DOCKED: ATOM      4  N   UNL     1     139.626  73.818 222.327 -0.11 +0.05    -0.342 N  
DOCKED: ATOM      5  C   UNL     1     140.473  72.629 222.433 -0.18 -0.02    +0.270 C  
DOCKED: ATOM      6  O   UNL     1     141.363  72.471 221.550 -0.21 +0.02    -0.268 OA 
DOCKED: ATOM      7  H   UNL     1     138.933  73.895 223.059 -0.55 -0.09    +0.164 HD 
DOCKED: BRANCH   5   8
DOCKED: ATOM      8  C   UNL     1     140.267  71.693 223.527 -0.32 -0.02    +0.128 A  
DOCKED: ATOM      9  C   UNL     1     139.575  70.539 223.249 -0.28 -0.01    +0.035 A  
DOCKED: ATOM     10  N   UNL     1     140.719  71.906 224.780 -0.25 +0.03    -0.243 NA 
DOCKED: ATOM     11  C   UNL     1     139.325  69.585 224.212 -0.32 -0.00    +0.013 A  
DOCKED: ATOM     12  C   UNL     1     140.502  71.007 225.761 -0.53 -0.01    +0.071 A  
DOCKED: ATOM     13  C   UNL     1     139.808  69.847 225.490 -0.45 -0.00    +0.000 A  
DOCKED: ATOM     14  C   UNL     1     140.976  71.251 227.033 -0.69 -0.00    +0.029 A  
DOCKED: ATOM     15  C   UNL     1     139.579  68.915 226.486 -0.53 -0.00    +0.010 A  
DOCKED: ATOM     16  C   UNL     1     140.763  70.344 228.045 -0.63 -0.00    +0.002 A  
DOCKED: ATOM     17  C   UNL     1     140.061  69.182 227.747 -0.63 -0.00    +0.001 A  
DOCKED: ENDBRANCH   5   8
DOCKED: ENDBRANCH   3   4
DOCKED: ENDBRANCH   1   3
DOCKED: BRANCH   1  18
DOCKED: ATOM     18  N   UNL     1     141.238  76.788 220.484 -0.10 +0.15    -0.334 N  
DOCKED: ATOM     19  C   UNL     1     141.188  78.245 220.541 -0.23 -0.06    +0.120 C  
DOCKED: ATOM     20  C   UNL     1     141.923  76.349 219.269 -0.20 -0.05    +0.115 C  
DOCKED: ATOM     21  C   UNL     1     141.842  78.641 219.188 -0.27 -0.01    +0.024 C  
DOCKED: ATOM     22  C   UNL     1     142.815  77.500 218.960 -0.27 -0.02    +0.032 C  
DOCKED: BRANCH  20  23
DOCKED: ATOM     23  C   UNL     1     142.610  75.065 219.348 -0.25 +0.01    -0.024 A  
DOCKED: ATOM     24  C   UNL     1     142.171  73.901 218.714 -0.10 -0.00    +0.007 A  
DOCKED: ATOM     25  C   UNL     1     143.783  74.927 220.088 -0.41 -0.01    +0.028 A  
DOCKED: ATOM     26  C   UNL     1     142.852  72.706 218.816 -0.10 -0.00    +0.022 A  
DOCKED: ATOM     27  C   UNL     1     144.460  73.732 220.188 -0.42 -0.01    +0.060 A  
DOCKED: ATOM     28  C   UNL     1     144.014  72.595 219.557 -0.24 -0.00    +0.059 A  
DOCKED: ATOM     29  Cl  UNL     1     145.939  73.632 221.142 -0.86 +0.01    -0.083 Cl 
DOCKED: ATOM     30  Cl  UNL     1     144.832  71.072 219.654 -0.25 -0.01    -0.083 Cl 
DOCKED: ENDBRANCH  20  23
DOCKED: ENDBRANCH   1  18
DOCKED: TORSDOF 5
DOCKED: TER
DOCKED: ENDMDL
________________________________________________________________________________


    FINAL DOCKED STATE:
    ________________________


Run:   4 / 20
Time taken for this run:   0.034s

DOCKED: MODEL        4
DOCKED: USER    Run = 4
DOCKED: USER
DOCKED: USER    Estimated Free Energy of Binding    =  -8.32 kcal/mol  [=(1)+(2)+(3)-(4)]
DOCKED: USER
DOCKED: USER    (1) Final Intermolecular Energy     =  -9.81 kcal/mol
DOCKED: USER        vdW + Hbond + desolv Energy     =  -9.81 kcal/mol
DOCKED: USER        Electrostatic Energy            =  -0.00 kcal/mol
DOCKED: USER        Moving Ligand-Fixed Receptor    =  -9.81 kcal/mol
DOCKED: USER        Moving Ligand-Moving Receptor   =  +0.00 kcal/mol
DOCKED: USER    (2) Final Total Internal Energy     =  -1.76 kcal/mol
DOCKED: USER    (3) Torsional Free Energy           =  +1.49 kcal/mol
DOCKED: USER    (4) Unbound System's Energy         =  -1.76 kcal/mol
DOCKED: USER
DOCKED: USER
DOCKED: REMARK SMILES O=C(NCC(=O)N1CCC[C@H]1c1ccc(Cl)c(Cl)c1)c1ccc2ccccc2n1
DOCKED: REMARK SMILES IDX 5 1 6 2 4 3 3 4 2 5 1 6 20 8 21 9 29 10 22 11 28 12 23 13
DOCKED: REMARK SMILES IDX 27 14 24 15 26 16 25 17 7 18 8 19 11 20 9 21 10 22 12 23
DOCKED: REMARK SMILES IDX 13 24 19 25 14 26 17 27 15 28 18 29 16 30
DOCKED: REMARK H PARENT 3 7
DOCKED: USER                              x       y       z     vdW  Elec       q    Type
DOCKED: USER                           _______ _______ _______ _____ _____    ______ ____
DOCKED: ROOT
DOCKED: ATOM      1  C   UNL     1     140.829  73.807 220.038 -0.08 -0.05    +0.242 C  
DOCKED: ATOM      2  O   UNL     1     140.557  74.065 218.779 -0.01 +0.06    -0.273 OA 
DOCKED: ENDROOT
DOCKED: BRANCH   1   3
DOCKED: ATOM      3  C   UNL     1     139.677  73.870 220.898 -0.13 -0.04    +0.216 C  
DOCKED: BRANCH   3   4
DOCKED: ATOM      4  N   UNL     1     139.758  73.360 222.224 -0.15 +0.05    -0.342 N  
DOCKED: ATOM      5  C   UNL     1     139.907  71.906 222.316 -0.20 -0.04    +0.270 C  
DOCKED: ATOM      6  O   UNL     1     139.949  71.258 221.232 -0.09 +0.04    -0.268 OA 
DOCKED: ATOM      7  H   UNL     1     139.731  73.826 223.120 -0.43 -0.00    +0.164 HD 
DOCKED: BRANCH   5   8
DOCKED: ATOM      8  C   UNL     1     139.999  71.272 223.621 -0.32 -0.02    +0.128 A  
DOCKED: ATOM      9  C   UNL     1     139.570  69.971 223.725 -0.28 -0.01    +0.035 A  
DOCKED: ATOM     10  N   UNL     1     140.481  71.897 224.716 -0.26 +0.04    -0.243 NA 
DOCKED: ATOM     11  C   UNL     1     139.614  69.277 224.915 -0.38 -0.00    +0.013 A  
DOCKED: ATOM     12  C   UNL     1     140.547  71.267 225.906 -0.55 -0.01    +0.071 A  
DOCKED: ATOM     13  C   UNL     1     140.117  69.960 226.016 -0.51 -0.00    +0.000 A  
DOCKED: ATOM     14  C   UNL     1     141.044  71.929 227.008 -0.76 -0.01    +0.029 A  
DOCKED: ATOM     15  C   UNL     1     140.180  69.301 227.231 -0.59 -0.00    +0.010 A  
DOCKED: ATOM     16  C   UNL     1     141.118  71.300 228.228 -0.72 -0.00    +0.002 A  
DOCKED: ATOM     17  C   UNL     1     140.679  69.984 228.315 -0.58 -0.00    +0.001 A  
DOCKED: ENDBRANCH   5   8
DOCKED: ENDBRANCH   3   4
DOCKED: ENDBRANCH   1   3
DOCKED: BRANCH   1  18
DOCKED: ATOM     18  N   UNL     1     142.194  73.516 220.315 -0.09 +0.07    -0.334 N  
DOCKED: ATOM     19  C   UNL     1     142.843  72.217 220.465 -0.21 -0.02    +0.120 C  
DOCKED: ATOM     20  C   UNL     1     143.165  74.594 220.499 -0.27 -0.04    +0.115 C  
DOCKED: ATOM     21  C   UNL     1     144.293  72.626 220.844 -0.38 -0.00    +0.024 C  
DOCKED: ATOM     22  C   UNL     1     144.450  73.948 220.117 -0.44 -0.01    +0.032 C  
DOCKED: BRANCH  20  23
DOCKED: ATOM     23  C   UNL     1     142.886  75.837 219.789 -0.35 +0.01    -0.024 A  
DOCKED: ATOM     24  C   UNL     1     143.265  76.088 218.469 -0.31 -0.00    +0.007 A  
DOCKED: ATOM     25  C   UNL     1     142.201  76.877 220.414 -0.23 -0.02    +0.028 A  
DOCKED: ATOM     26  C   UNL     1     142.980  77.279 217.836 -0.30 -0.02    +0.022 A  
DOCKED: ATOM     27  C   UNL     1     141.918  78.066 219.779 -0.26 -0.04    +0.060 A  
DOCKED: ATOM     28  C   UNL     1     142.298  78.297 218.478 -0.28 -0.04    +0.059 A  
DOCKED: ATOM     29  Cl  UNL     1     141.046  79.338 220.633 -0.33 +0.03    -0.083 Cl 
DOCKED: ATOM     30  Cl  UNL     1     141.965  79.774 217.640 -0.33 +0.07    -0.083 Cl 
DOCKED: ENDBRANCH  20  23
DOCKED: ENDBRANCH   1  18
DOCKED: TORSDOF 5
DOCKED: TER
DOCKED: ENDMDL
________________________________________________________________________________


    FINAL DOCKED STATE:
    ________________________


Run:   5 / 20
Time taken for this run:   0.034s

DOCKED: MODEL        5
DOCKED: USER    Run = 5
DOCKED: USER
DOCKED: USER    Estimated Free Energy of Binding    =  -9.34 kcal/mol  [=(1)+(2)+(3)-(4)]
DOCKED: USER
DOCKED: USER    (1) Final Intermolecular Energy     = -10.84 kcal/mol
DOCKED: USER        vdW + Hbond + desolv Energy     = -10.72 kcal/mol
DOCKED: USER        Electrostatic Energy            =  -0.12 kcal/mol
DOCKED: USER        Moving Ligand-Fixed Receptor    = -10.84 kcal/mol
DOCKED: USER        Moving Ligand-Moving Receptor   =  +0.00 kcal/mol
DOCKED: USER    (2) Final Total Internal Energy     =  -1.20 kcal/mol
DOCKED: USER    (3) Torsional Free Energy           =  +1.49 kcal/mol
DOCKED: USER    (4) Unbound System's Energy         =  -1.20 kcal/mol
DOCKED: USER
DOCKED: USER
DOCKED: REMARK SMILES O=C(NCC(=O)N1CCC[C@H]1c1ccc(Cl)c(Cl)c1)c1ccc2ccccc2n1
DOCKED: REMARK SMILES IDX 5 1 6 2 4 3 3 4 2 5 1 6 20 8 21 9 29 10 22 11 28 12 23 13
DOCKED: REMARK SMILES IDX 27 14 24 15 26 16 25 17 7 18 8 19 11 20 9 21 10 22 12 23
DOCKED: REMARK SMILES IDX 13 24 19 25 14 26 17 27 15 28 18 29 16 30
DOCKED: REMARK H PARENT 3 7
DOCKED: USER                              x       y       z     vdW  Elec       q    Type
DOCKED: USER                           _______ _______ _______ _____ _____    ______ ____
DOCKED: ROOT
DOCKED: ATOM      1  C   UNL     1     140.964  75.234 221.131 -0.22 -0.06    +0.242 C  
DOCKED: ATOM      2  O   UNL     1     141.337  75.594 222.338 -0.30 +0.06    -0.273 OA 
DOCKED: ENDROOT
DOCKED: BRANCH   1   3
DOCKED: ATOM      3  C   UNL     1     139.892  74.275 221.123 -0.17 -0.04    +0.216 C  
DOCKED: BRANCH   3   4
DOCKED: ATOM      4  N   UNL     1     139.597  73.538 222.303 -0.13 +0.06    -0.342 N  
DOCKED: ATOM      5  C   UNL     1     140.469  72.387 222.545 -0.19 -0.02    +0.270 C  
DOCKED: ATOM      6  O   UNL     1     141.381  72.164 221.699 -0.19 +0.02    -0.268 OA 
DOCKED: ATOM      7  H   UNL     1     138.887  73.669 223.010 -0.53 -0.09    +0.164 HD 
DOCKED: BRANCH   5   8
DOCKED: ATOM      8  C   UNL     1     140.260  71.559 223.722 -0.34 -0.02    +0.128 A  
DOCKED: ATOM      9  C   UNL     1     139.565  70.386 223.556 -0.29 -0.01    +0.035 A  
DOCKED: ATOM     10  N   UNL     1     140.713  71.889 224.949 -0.28 +0.03    -0.243 NA 
DOCKED: ATOM     11  C   UNL     1     139.312  69.529 224.605 -0.35 -0.00    +0.013 A  
DOCKED: ATOM     12  C   UNL     1     140.495  71.088 226.012 -0.55 -0.01    +0.071 A  
DOCKED: ATOM     13  C   UNL     1     139.797  69.909 225.851 -0.47 -0.00    +0.000 A  
DOCKED: ATOM     14  C   UNL     1     140.969  71.450 227.255 -0.74 -0.01    +0.029 A  
DOCKED: ATOM     15  C   UNL     1     139.566  69.077 226.932 -0.55 -0.00    +0.010 A  
DOCKED: ATOM     16  C   UNL     1     140.755  70.644 228.347 -0.59 -0.00    +0.002 A  
DOCKED: ATOM     17  C   UNL     1     140.049  69.461 228.161 -0.63 -0.00    +0.001 A  
DOCKED: ENDBRANCH   5   8
DOCKED: ENDBRANCH   3   4
DOCKED: ENDBRANCH   1   3
DOCKED: BRANCH   1  18
DOCKED: ATOM     18  N   UNL     1     141.681  75.852 220.068 -0.10 +0.14    -0.334 N  
DOCKED: ATOM     19  C   UNL     1     142.045  75.302 218.765 -0.13 -0.04    +0.120 C  
DOCKED: ATOM     20  C   UNL     1     142.172  77.224 220.195 -0.24 -0.08    +0.115 C  
DOCKED: ATOM     21  C   UNL     1     142.883  76.458 218.153 -0.28 -0.01    +0.024 C  
DOCKED: ATOM     22  C   UNL     1     142.243  77.682 218.781 -0.29 -0.02    +0.032 C  
DOCKED: BRANCH  20  23
DOCKED: ATOM     23  C   UNL     1     141.403  78.101 221.070 -0.32 +0.01    -0.024 A  
DOCKED: ATOM     24  C   UNL     1     140.008  78.137 221.115 -0.20 -0.00    +0.007 A  
DOCKED: ATOM     25  C   UNL     1     142.044  78.982 221.940 -0.43 -0.02    +0.028 A  
DOCKED: ATOM     26  C   UNL     1     139.321  78.983 221.959 -0.23 -0.00    +0.022 A  
DOCKED: ATOM     27  C   UNL     1     141.354  79.827 222.781 -0.46 -0.02    +0.060 A  
DOCKED: ATOM     28  C   UNL     1     139.980  79.849 222.812 -0.34 -0.01    +0.059 A  
DOCKED: ATOM     29  Cl  UNL     1     142.232  80.915 223.854 -0.77 +0.01    -0.083 Cl 
DOCKED: ATOM     30  Cl  UNL     1     139.071  80.892 223.852 -0.41 +0.01    -0.083 Cl 
DOCKED: ENDBRANCH  20  23
DOCKED: ENDBRANCH   1  18
DOCKED: TORSDOF 5
DOCKED: TER
DOCKED: ENDMDL
________________________________________________________________________________


    FINAL DOCKED STATE:
    ________________________


Run:   6 / 20
Time taken for this run:   0.034s

DOCKED: MODEL        6
DOCKED: USER    Run = 6
DOCKED: USER
DOCKED: USER    Estimated Free Energy of Binding    =  -8.70 kcal/mol  [=(1)+(2)+(3)-(4)]
DOCKED: USER
DOCKED: USER    (1) Final Intermolecular Energy     = -10.19 kcal/mol
DOCKED: USER        vdW + Hbond + desolv Energy     = -10.06 kcal/mol
DOCKED: USER        Electrostatic Energy            =  -0.13 kcal/mol
DOCKED: USER        Moving Ligand-Fixed Receptor    = -10.19 kcal/mol
DOCKED: USER        Moving Ligand-Moving Receptor   =  +0.00 kcal/mol
DOCKED: USER    (2) Final Total Internal Energy     =  -1.73 kcal/mol
DOCKED: USER    (3) Torsional Free Energy           =  +1.49 kcal/mol
DOCKED: USER    (4) Unbound System's Energy         =  -1.73 kcal/mol
DOCKED: USER
DOCKED: USER
DOCKED: REMARK SMILES O=C(NCC(=O)N1CCC[C@H]1c1ccc(Cl)c(Cl)c1)c1ccc2ccccc2n1
DOCKED: REMARK SMILES IDX 5 1 6 2 4 3 3 4 2 5 1 6 20 8 21 9 29 10 22 11 28 12 23 13
DOCKED: REMARK SMILES IDX 27 14 24 15 26 16 25 17 7 18 8 19 11 20 9 21 10 22 12 23
DOCKED: REMARK SMILES IDX 13 24 19 25 14 26 17 27 15 28 18 29 16 30
DOCKED: REMARK H PARENT 3 7
DOCKED: USER                              x       y       z     vdW  Elec       q    Type
DOCKED: USER                           _______ _______ _______ _____ _____    ______ ____
DOCKED: ROOT
DOCKED: ATOM      1  C   UNL     1     140.755  75.533 221.197 -0.22 -0.07    +0.242 C  
DOCKED: ATOM      2  O   UNL     1     141.419  75.464 222.328 -0.23 +0.06    -0.273 OA 
DOCKED: ENDROOT
DOCKED: BRANCH   1   3
DOCKED: ATOM      3  C   UNL     1     139.716  74.545 221.081 -0.17 -0.04    +0.216 C  
DOCKED: BRANCH   3   4
DOCKED: ATOM      4  N   UNL     1     139.429  73.691 222.182 -0.12 +0.07    -0.342 N  
DOCKED: ATOM      5  C   UNL     1     140.400  72.616 222.396 -0.20 -0.02    +0.270 C  
DOCKED: ATOM      6  O   UNL     1     141.379  72.552 221.599 -0.22 +0.02    -0.268 OA 
DOCKED: ATOM      7  H   UNL     1     138.669  73.695 222.847 -0.54 -0.09    +0.164 HD 
DOCKED: BRANCH   5   8
DOCKED: ATOM      8  C   UNL     1     140.209  71.680 223.493 -0.32 -0.02    +0.128 A  
DOCKED: ATOM      9  C   UNL     1     139.525  70.519 223.222 -0.27 -0.01    +0.035 A  
DOCKED: ATOM     10  N   UNL     1     140.667  71.901 224.742 -0.26 +0.03    -0.243 NA 
DOCKED: ATOM     11  C   UNL     1     139.290  69.566 224.189 -0.32 -0.00    +0.013 A  
DOCKED: ATOM     12  C   UNL     1     140.465  71.002 225.727 -0.53 -0.01    +0.071 A  
DOCKED: ATOM     13  C   UNL     1     139.779  69.834 225.462 -0.45 -0.00    +0.000 A  
DOCKED: ATOM     14  C   UNL     1     140.944  71.252 226.995 -0.69 -0.00    +0.029 A  
DOCKED: ATOM     15  C   UNL     1     139.565  68.903 226.462 -0.53 -0.00    +0.010 A  
DOCKED: ATOM     16  C   UNL     1     140.746  70.346 228.010 -0.64 -0.00    +0.002 A  
DOCKED: ATOM     17  C   UNL     1     140.053  69.177 227.719 -0.63 -0.00    +0.001 A  
DOCKED: ENDBRANCH   5   8
DOCKED: ENDBRANCH   3   4
DOCKED: ENDBRANCH   1   3
DOCKED: BRANCH   1  18
DOCKED: ATOM     18  N   UNL     1     141.182  76.558 220.307 -0.09 +0.14    -0.334 N  
DOCKED: ATOM     19  C   UNL     1     140.989  78.002 220.410 -0.20 -0.05    +0.120 C  
DOCKED: ATOM     20  C   UNL     1     141.917  76.229 219.086 -0.18 -0.05    +0.115 C  
DOCKED: ATOM     21  C   UNL     1     141.612  78.503 219.078 -0.24 -0.01    +0.024 C  
DOCKED: ATOM     22  C   UNL     1     142.695  77.471 218.825 -0.30 -0.02    +0.032 C  
DOCKED: BRANCH  20  23
DOCKED: ATOM     23  C   UNL     1     142.725  75.016 219.131 -0.24 +0.01    -0.024 A  
DOCKED: ATOM     24  C   UNL     1     142.485  73.884 218.350 -0.09 -0.00    +0.007 A  
DOCKED: ATOM     25  C   UNL     1     143.819  74.919 219.989 -0.41 -0.01    +0.028 A  
DOCKED: ATOM     26  C   UNL     1     143.276  72.757 218.426 -0.10 -0.00    +0.022 A  
DOCKED: ATOM     27  C   UNL     1     144.606  73.792 220.063 -0.43 -0.01    +0.060 A  
DOCKED: ATOM     28  C   UNL     1     144.356  72.685 219.286 -0.24 -0.00    +0.059 A  
DOCKED: ATOM     29  Cl  UNL     1     145.975  73.741 221.173 -0.84 +0.01    -0.083 Cl 
DOCKED: ATOM     30  Cl  UNL     1     145.318  71.247 219.344 -0.37 -0.03    -0.083 Cl 
DOCKED: ENDBRANCH  20  23
DOCKED: ENDBRANCH   1  18
DOCKED: TORSDOF 5
DOCKED: TER
DOCKED: ENDMDL
________________________________________________________________________________


    FINAL DOCKED STATE:
    ________________________


Run:   7 / 20
Time taken for this run:   0.034s

DOCKED: MODEL        7
DOCKED: USER    Run = 7
DOCKED: USER
DOCKED: USER    Estimated Free Energy of Binding    =  -7.59 kcal/mol  [=(1)+(2)+(3)-(4)]
DOCKED: USER
DOCKED: USER    (1) Final Intermolecular Energy     =  -9.08 kcal/mol
DOCKED: USER        vdW + Hbond + desolv Energy     =  -9.04 kcal/mol
DOCKED: USER        Electrostatic Energy            =  -0.04 kcal/mol
DOCKED: USER        Moving Ligand-Fixed Receptor    =  -9.08 kcal/mol
DOCKED: USER        Moving Ligand-Moving Receptor   =  +0.00 kcal/mol
DOCKED: USER    (2) Final Total Internal Energy     =  -2.67 kcal/mol
DOCKED: USER    (3) Torsional Free Energy           =  +1.49 kcal/mol
DOCKED: USER    (4) Unbound System's Energy         =  -2.67 kcal/mol
DOCKED: USER
DOCKED: USER
DOCKED: REMARK SMILES O=C(NCC(=O)N1CCC[C@H]1c1ccc(Cl)c(Cl)c1)c1ccc2ccccc2n1
DOCKED: REMARK SMILES IDX 5 1 6 2 4 3 3 4 2 5 1 6 20 8 21 9 29 10 22 11 28 12 23 13
DOCKED: REMARK SMILES IDX 27 14 24 15 26 16 25 17 7 18 8 19 11 20 9 21 10 22 12 23
DOCKED: REMARK SMILES IDX 13 24 19 25 14 26 17 27 15 28 18 29 16 30
DOCKED: REMARK H PARENT 3 7
DOCKED: USER                              x       y       z     vdW  Elec       q    Type
DOCKED: USER                           _______ _______ _______ _____ _____    ______ ____
DOCKED: ROOT
DOCKED: ATOM      1  C   UNL     1     141.038  80.056 220.601 -0.18 -0.09    +0.242 C  
DOCKED: ATOM      2  O   UNL     1     140.063  80.911 220.389 -0.07 +0.07    -0.273 OA 
DOCKED: ENDROOT
DOCKED: BRANCH   1   3
DOCKED: ATOM      3  C   UNL     1     141.337  79.233 219.459 -0.16 -0.11    +0.216 C  
DOCKED: BRANCH   3   4
DOCKED: ATOM      4  N   UNL     1     142.253  78.152 219.589 -0.10 +0.24    -0.342 N  
DOCKED: ATOM      5  C   UNL     1     141.759  76.865 219.097 -0.14 -0.13    +0.270 C  
DOCKED: ATOM      6  O   UNL     1     140.592  76.838 218.613 -0.03 +0.10    -0.268 OA 
DOCKED: ATOM      7  H   UNL     1     143.190  78.115 219.964 -0.39 -0.20    +0.164 HD 
DOCKED: BRANCH   5   8
DOCKED: ATOM      8  C   UNL     1     142.610  75.688 219.179 -0.23 -0.06    +0.128 A  
DOCKED: ATOM      9  C   UNL     1     142.270  74.606 218.403 -0.11 -0.01    +0.035 A  
DOCKED: ATOM     10  N   UNL     1     143.699  75.615 219.972 -0.26 +0.15    -0.243 NA 
DOCKED: ATOM     11  C   UNL     1     143.008  73.442 218.405 -0.11 -0.00    +0.013 A  
DOCKED: ATOM     12  C   UNL     1     144.457  74.501 220.014 -0.40 -0.03    +0.071 A  
DOCKED: ATOM     13  C   UNL     1     144.121  73.411 219.237 -0.27 -0.00    +0.000 A  
DOCKED: ATOM     14  C   UNL     1     145.565  74.453 220.833 -0.48 -0.01    +0.029 A  
DOCKED: ATOM     15  C   UNL     1     144.890  72.262 219.269 -0.30 +0.00    +0.010 A  
DOCKED: ATOM     16  C   UNL     1     146.348  73.324 220.887 -0.67 +0.00    +0.002 A  
DOCKED: ATOM     17  C   UNL     1     145.990  72.240 220.095 -0.42 +0.00    +0.001 A  
DOCKED: ENDBRANCH   5   8
DOCKED: ENDBRANCH   3   4
DOCKED: ENDBRANCH   1   3
DOCKED: BRANCH   1  18
DOCKED: ATOM     18  N   UNL     1     141.609  80.100 221.904 -0.19 +0.12    -0.334 N  
DOCKED: ATOM     19  C   UNL     1     142.160  81.243 222.625 -0.42 -0.03    +0.120 C  
DOCKED: ATOM     20  C   UNL     1     141.713  78.887 222.716 -0.45 -0.05    +0.115 C  
DOCKED: ATOM     21  C   UNL     1     142.686  80.575 223.927 -0.64 -0.00    +0.024 C  
DOCKED: ATOM     22  C   UNL     1     141.718  79.420 224.105 -0.49 -0.01    +0.032 C  
DOCKED: BRANCH  20  23
DOCKED: ATOM     23  C   UNL     1     140.702  77.864 222.472 -0.42 +0.01    -0.024 A  
DOCKED: ATOM     24  C   UNL     1     139.326  78.098 222.504 -0.31 -0.00    +0.007 A  
DOCKED: ATOM     25  C   UNL     1     141.070  76.551 222.184 -0.35 -0.01    +0.028 A  
DOCKED: ATOM     26  C   UNL     1     138.405  77.100 222.267 -0.27 -0.00    +0.022 A  
DOCKED: ATOM     27  C   UNL     1     140.147  75.557 221.948 -0.32 -0.01    +0.060 A  
DOCKED: ATOM     28  C   UNL     1     138.795  75.805 221.983 -0.27 -0.01    +0.059 A  
DOCKED: ATOM     29  Cl  UNL     1     140.687  73.918 221.589 -0.37 +0.01    -0.083 Cl 
DOCKED: ATOM     30  Cl  UNL     1     137.600  74.587 221.694 -0.21 +0.02    -0.083 Cl 
DOCKED: ENDBRANCH  20  23
DOCKED: ENDBRANCH   1  18
DOCKED: TORSDOF 5
DOCKED: TER
DOCKED: ENDMDL
________________________________________________________________________________


    FINAL DOCKED STATE:
    ________________________


Run:   8 / 20
Time taken for this run:   0.034s

DOCKED: MODEL        8
DOCKED: USER    Run = 8
DOCKED: USER
DOCKED: USER    Estimated Free Energy of Binding    =  -8.54 kcal/mol  [=(1)+(2)+(3)-(4)]
DOCKED: USER
DOCKED: USER    (1) Final Intermolecular Energy     = -10.03 kcal/mol
DOCKED: USER        vdW + Hbond + desolv Energy     = -10.00 kcal/mol
DOCKED: USER        Electrostatic Energy            =  -0.04 kcal/mol
DOCKED: USER        Moving Ligand-Fixed Receptor    = -10.03 kcal/mol
DOCKED: USER        Moving Ligand-Moving Receptor   =  +0.00 kcal/mol
DOCKED: USER    (2) Final Total Internal Energy     =  -1.65 kcal/mol
DOCKED: USER    (3) Torsional Free Energy           =  +1.49 kcal/mol
DOCKED: USER    (4) Unbound System's Energy         =  -1.65 kcal/mol
DOCKED: USER
DOCKED: USER
DOCKED: REMARK SMILES O=C(NCC(=O)N1CCC[C@H]1c1ccc(Cl)c(Cl)c1)c1ccc2ccccc2n1
DOCKED: REMARK SMILES IDX 5 1 6 2 4 3 3 4 2 5 1 6 20 8 21 9 29 10 22 11 28 12 23 13
DOCKED: REMARK SMILES IDX 27 14 24 15 26 16 25 17 7 18 8 19 11 20 9 21 10 22 12 23
DOCKED: REMARK SMILES IDX 13 24 19 25 14 26 17 27 15 28 18 29 16 30
DOCKED: REMARK H PARENT 3 7
DOCKED: USER                              x       y       z     vdW  Elec       q    Type
DOCKED: USER                           _______ _______ _______ _____ _____    ______ ____
DOCKED: ROOT
DOCKED: ATOM      1  C   UNL     1     142.122  72.555 219.424 -0.06 -0.04    +0.242 C  
DOCKED: ATOM      2  O   UNL     1     142.027  72.501 218.115 -0.01 +0.05    -0.273 OA 
DOCKED: ENDROOT
DOCKED: BRANCH   1   3
DOCKED: ATOM      3  C   UNL     1     140.862  72.382 220.097 -0.08 -0.04    +0.216 C  
DOCKED: BRANCH   3   4
DOCKED: ATOM      4  N   UNL     1     140.786  71.549 221.248 -0.08 +0.05    -0.342 N  
DOCKED: ATOM      5  C   UNL     1     140.306  72.214 222.459 -0.21 -0.03    +0.270 C  
DOCKED: ATOM      6  O   UNL     1     140.010  73.439 222.370 -0.80 +0.02    -0.268 OA 
DOCKED: ATOM      7  H   UNL     1     141.007  70.571 221.377 +0.05 -0.02    +0.164 HD 
DOCKED: BRANCH   5   8
DOCKED: ATOM      8  C   UNL     1     140.187  71.459 223.697 -0.34 -0.02    +0.128 A  
DOCKED: ATOM      9  C   UNL     1     139.541  70.247 223.640 -0.29 -0.01    +0.035 A  
DOCKED: ATOM     10  N   UNL     1     140.677  71.890 224.878 -0.28 +0.03    -0.243 NA 
DOCKED: ATOM     11  C   UNL     1     139.374  69.453 224.754 -0.37 -0.00    +0.013 A  
DOCKED: ATOM     12  C   UNL     1     140.542  71.154 225.999 -0.55 -0.01    +0.071 A  
DOCKED: ATOM     13  C   UNL     1     139.894  69.937 225.949 -0.49 -0.00    +0.000 A  
DOCKED: ATOM     14  C   UNL     1     141.053  71.619 227.193 -0.75 -0.01    +0.029 A  
DOCKED: ATOM     15  C   UNL     1     139.749  69.171 227.091 -0.56 -0.00    +0.010 A  
DOCKED: ATOM     16  C   UNL     1     140.923  70.880 228.345 -0.63 -0.00    +0.002 A  
DOCKED: ATOM     17  C   UNL     1     140.267  69.658 228.269 -0.61 -0.00    +0.001 A  
DOCKED: ENDBRANCH   5   8
DOCKED: ENDBRANCH   3   4
DOCKED: ENDBRANCH   1   3
DOCKED: BRANCH   1  18
DOCKED: ATOM     18  N   UNL     1     143.435  72.772 219.927 -0.09 +0.05    -0.334 N  
DOCKED: ATOM     19  C   UNL     1     144.627  71.945 219.764 -0.27 +0.00    +0.120 C  
DOCKED: ATOM     20  C   UNL     1     143.740  73.952 220.736 -0.25 -0.03    +0.115 C  
DOCKED: ATOM     21  C   UNL     1     145.665  72.709 220.633 -0.51 -0.00    +0.024 C  
DOCKED: ATOM     22  C   UNL     1     145.196  74.145 220.500 -0.53 -0.01    +0.032 C  
DOCKED: BRANCH  20  23
DOCKED: ATOM     23  C   UNL     1     142.929  75.135 220.474 -0.27 +0.01    -0.024 A  
DOCKED: ATOM     24  C   UNL     1     143.222  76.085 219.493 -0.39 -0.00    +0.007 A  
DOCKED: ATOM     25  C   UNL     1     141.777  75.390 221.216 -0.24 -0.01    +0.028 A  
DOCKED: ATOM     26  C   UNL     1     142.427  77.191 219.279 -0.32 -0.01    +0.022 A  
DOCKED: ATOM     27  C   UNL     1     140.986  76.496 221.000 -0.28 -0.02    +0.060 A  
DOCKED: ATOM     28  C   UNL     1     141.289  77.422 220.029 -0.22 -0.03    +0.059 A  
DOCKED: ATOM     29  Cl  UNL     1     139.542  76.754 221.979 -0.41 +0.02    -0.083 Cl 
DOCKED: ATOM     30  Cl  UNL     1     140.324  78.826 219.722 -0.16 +0.03    -0.083 Cl 
DOCKED: ENDBRANCH  20  23
DOCKED: ENDBRANCH   1  18
DOCKED: TORSDOF 5
DOCKED: TER
DOCKED: ENDMDL
________________________________________________________________________________


    FINAL DOCKED STATE:
    ________________________


Run:   9 / 20
Time taken for this run:   0.034s

DOCKED: MODEL        9
DOCKED: USER    Run = 9
DOCKED: USER
DOCKED: USER    Estimated Free Energy of Binding    =  -7.63 kcal/mol  [=(1)+(2)+(3)-(4)]
DOCKED: USER
DOCKED: USER    (1) Final Intermolecular Energy     =  -9.12 kcal/mol
DOCKED: USER        vdW + Hbond + desolv Energy     =  -9.07 kcal/mol
DOCKED: USER        Electrostatic Energy            =  -0.04 kcal/mol
DOCKED: USER        Moving Ligand-Fixed Receptor    =  -9.12 kcal/mol
DOCKED: USER        Moving Ligand-Moving Receptor   =  +0.00 kcal/mol
DOCKED: USER    (2) Final Total Internal Energy     =  -2.65 kcal/mol
DOCKED: USER    (3) Torsional Free Energy           =  +1.49 kcal/mol
DOCKED: USER    (4) Unbound System's Energy         =  -2.65 kcal/mol
DOCKED: USER
DOCKED: USER
DOCKED: REMARK SMILES O=C(NCC(=O)N1CCC[C@H]1c1ccc(Cl)c(Cl)c1)c1ccc2ccccc2n1
DOCKED: REMARK SMILES IDX 5 1 6 2 4 3 3 4 2 5 1 6 20 8 21 9 29 10 22 11 28 12 23 13
DOCKED: REMARK SMILES IDX 27 14 24 15 26 16 25 17 7 18 8 19 11 20 9 21 10 22 12 23
DOCKED: REMARK SMILES IDX 13 24 19 25 14 26 17 27 15 28 18 29 16 30
DOCKED: REMARK H PARENT 3 7
DOCKED: USER                              x       y       z     vdW  Elec       q    Type
DOCKED: USER                           _______ _______ _______ _____ _____    ______ ____
DOCKED: ROOT
DOCKED: ATOM      1  C   UNL     1     141.025  80.020 220.576 -0.18 -0.09    +0.242 C  
DOCKED: ATOM      2  O   UNL     1     139.966  80.780 220.413 -0.07 +0.07    -0.273 OA 
DOCKED: ENDROOT
DOCKED: BRANCH   1   3
DOCKED: ATOM      3  C   UNL     1     141.378  79.269 219.401 -0.17 -0.11    +0.216 C  
DOCKED: BRANCH   3   4
DOCKED: ATOM      4  N   UNL     1     142.297  78.188 219.505 -0.08 +0.25    -0.342 N  
DOCKED: ATOM      5  C   UNL     1     141.758  76.882 219.122 -0.14 -0.13    +0.270 C  
DOCKED: ATOM      6  O   UNL     1     140.553  76.841 218.743 -0.03 +0.10    -0.268 OA 
DOCKED: ATOM      7  H   UNL     1     143.264  78.162 219.799 -0.39 -0.20    +0.164 HD 
DOCKED: BRANCH   5   8
DOCKED: ATOM      8  C   UNL     1     142.608  75.704 219.189 -0.23 -0.06    +0.128 A  
DOCKED: ATOM      9  C   UNL     1     142.274  74.637 218.389 -0.11 -0.01    +0.035 A  
DOCKED: ATOM     10  N   UNL     1     143.691  75.616 219.989 -0.26 +0.15    -0.243 NA 
DOCKED: ATOM     11  C   UNL     1     143.012  73.473 218.375 -0.11 -0.00    +0.013 A  
DOCKED: ATOM     12  C   UNL     1     144.448  74.500 220.015 -0.40 -0.03    +0.071 A  
DOCKED: ATOM     13  C   UNL     1     144.118  73.426 219.215 -0.27 -0.00    +0.000 A  
DOCKED: ATOM     14  C   UNL     1     145.549  74.437 220.842 -0.49 -0.01    +0.029 A  
DOCKED: ATOM     15  C   UNL     1     144.887  72.276 219.232 -0.30 +0.00    +0.010 A  
DOCKED: ATOM     16  C   UNL     1     146.332  73.307 220.881 -0.68 +0.00    +0.002 A  
DOCKED: ATOM     17  C   UNL     1     145.980  72.238 220.066 -0.42 +0.00    +0.001 A  
DOCKED: ENDBRANCH   5   8
DOCKED: ENDBRANCH   3   4
DOCKED: ENDBRANCH   1   3
DOCKED: BRANCH   1  18
DOCKED: ATOM     18  N   UNL     1     141.618  80.079 221.868 -0.19 +0.12    -0.334 N  
DOCKED: ATOM     19  C   UNL     1     142.190  81.228 222.564 -0.41 -0.03    +0.120 C  
DOCKED: ATOM     20  C   UNL     1     141.726  78.877 222.696 -0.45 -0.05    +0.115 C  
DOCKED: ATOM     21  C   UNL     1     142.732  80.575 223.866 -0.66 -0.00    +0.024 C  
DOCKED: ATOM     22  C   UNL     1     141.759  79.431 224.077 -0.51 -0.01    +0.032 C  
DOCKED: BRANCH  20  23
DOCKED: ATOM     23  C   UNL     1     140.704  77.859 222.484 -0.42 +0.01    -0.024 A  
DOCKED: ATOM     24  C   UNL     1     139.331  78.094 222.579 -0.32 -0.00    +0.007 A  
DOCKED: ATOM     25  C   UNL     1     141.057  76.549 222.165 -0.36 -0.01    +0.028 A  
DOCKED: ATOM     26  C   UNL     1     138.398  77.101 222.371 -0.28 -0.00    +0.022 A  
DOCKED: ATOM     27  C   UNL     1     140.122  75.559 221.958 -0.32 -0.01    +0.060 A  
DOCKED: ATOM     28  C   UNL     1     138.774  75.808 222.055 -0.27 -0.01    +0.059 A  
DOCKED: ATOM     29  Cl  UNL     1     140.643  73.923 221.557 -0.37 +0.01    -0.083 Cl 
DOCKED: ATOM     30  Cl  UNL     1     137.564  74.596 221.803 -0.21 +0.02    -0.083 Cl 
DOCKED: ENDBRANCH  20  23
DOCKED: ENDBRANCH   1  18
DOCKED: TORSDOF 5
DOCKED: TER
DOCKED: ENDMDL
________________________________________________________________________________


    FINAL DOCKED STATE:
    ________________________


Run:   10 / 20
Time taken for this run:   0.034s

DOCKED: MODEL        10
DOCKED: USER    Run = 10
DOCKED: USER
DOCKED: USER    Estimated Free Energy of Binding    =  -8.71 kcal/mol  [=(1)+(2)+(3)-(4)]
DOCKED: USER
DOCKED: USER    (1) Final Intermolecular Energy     = -10.20 kcal/mol
DOCKED: USER        vdW + Hbond + desolv Energy     = -10.08 kcal/mol
DOCKED: USER        Electrostatic Energy            =  -0.12 kcal/mol
DOCKED: USER        Moving Ligand-Fixed Receptor    = -10.20 kcal/mol
DOCKED: USER        Moving Ligand-Moving Receptor   =  +0.00 kcal/mol
DOCKED: USER    (2) Final Total Internal Energy     =  -1.76 kcal/mol
DOCKED: USER    (3) Torsional Free Energy           =  +1.49 kcal/mol
DOCKED: USER    (4) Unbound System's Energy         =  -1.76 kcal/mol
DOCKED: USER
DOCKED: USER
DOCKED: REMARK SMILES O=C(NCC(=O)N1CCC[C@H]1c1ccc(Cl)c(Cl)c1)c1ccc2ccccc2n1
DOCKED: REMARK SMILES IDX 5 1 6 2 4 3 3 4 2 5 1 6 20 8 21 9 29 10 22 11 28 12 23 13
DOCKED: REMARK SMILES IDX 27 14 24 15 26 16 25 17 7 18 8 19 11 20 9 21 10 22 12 23
DOCKED: REMARK SMILES IDX 13 24 19 25 14 26 17 27 15 28 18 29 16 30
DOCKED: REMARK H PARENT 3 7
DOCKED: USER                              x       y       z     vdW  Elec       q    Type
DOCKED: USER                           _______ _______ _______ _____ _____    ______ ____
DOCKED: ROOT
DOCKED: ATOM      1  C   UNL     1     140.843  75.591 221.181 -0.22 -0.07    +0.242 C  
DOCKED: ATOM      2  O   UNL     1     141.430  75.592 222.356 -0.23 +0.07    -0.273 OA 
DOCKED: ENDROOT
DOCKED: BRANCH   1   3
DOCKED: ATOM      3  C   UNL     1     139.845  74.564 221.040 -0.17 -0.04    +0.216 C  
DOCKED: BRANCH   3   4
DOCKED: ATOM      4  N   UNL     1     139.539  73.721 222.144 -0.13 +0.06    -0.342 N  
DOCKED: ATOM      5  C   UNL     1     140.470  72.610 222.347 -0.20 -0.02    +0.270 C  
DOCKED: ATOM      6  O   UNL     1     141.437  72.508 221.539 -0.21 +0.02    -0.268 OA 
DOCKED: ATOM      7  H   UNL     1     138.787  73.754 222.818 -0.55 -0.08    +0.164 HD 
DOCKED: BRANCH   5   8
DOCKED: ATOM      8  C   UNL     1     140.257  71.682 223.446 -0.32 -0.02    +0.128 A  
DOCKED: ATOM      9  C   UNL     1     139.560  70.529 223.175 -0.27 -0.01    +0.035 A  
DOCKED: ATOM     10  N   UNL     1     140.706  71.902 224.699 -0.25 +0.03    -0.243 NA 
DOCKED: ATOM     11  C   UNL     1     139.303  69.583 224.144 -0.31 -0.00    +0.013 A  
DOCKED: ATOM     12  C   UNL     1     140.483  71.011 225.686 -0.53 -0.01    +0.071 A  
DOCKED: ATOM     13  C   UNL     1     139.784  69.851 225.420 -0.44 -0.00    +0.000 A  
DOCKED: ATOM     14  C   UNL     1     140.954  71.261 226.958 -0.69 -0.00    +0.029 A  
DOCKED: ATOM     15  C   UNL     1     139.548  68.928 226.423 -0.53 -0.00    +0.010 A  
DOCKED: ATOM     16  C   UNL     1     140.734  70.362 227.975 -0.65 -0.00    +0.002 A  
DOCKED: ATOM     17  C   UNL     1     140.028  69.201 227.683 -0.62 -0.00    +0.001 A  
DOCKED: ENDBRANCH   5   8
DOCKED: ENDBRANCH   3   4
DOCKED: ENDBRANCH   1   3
DOCKED: BRANCH   1  18
DOCKED: ATOM     18  N   UNL     1     141.297  76.592 220.278 -0.09 +0.15    -0.334 N  
DOCKED: ATOM     19  C   UNL     1     141.138  78.041 220.358 -0.21 -0.06    +0.120 C  
DOCKED: ATOM     20  C   UNL     1     142.029  76.227 219.065 -0.20 -0.05    +0.115 C  
DOCKED: ATOM     21  C   UNL     1     141.778  78.507 219.021 -0.26 -0.01    +0.024 C  
DOCKED: ATOM     22  C   UNL     1     142.837  77.446 218.789 -0.29 -0.02    +0.032 C  
DOCKED: BRANCH  20  23
DOCKED: ATOM     23  C   UNL     1     142.808  74.996 219.132 -0.24 +0.01    -0.024 A  
DOCKED: ATOM     24  C   UNL     1     142.545  73.858 218.367 -0.10 -0.00    +0.007 A  
DOCKED: ATOM     25  C   UNL     1     143.896  74.886 219.996 -0.42 -0.01    +0.028 A  
DOCKED: ATOM     26  C   UNL     1     143.308  72.714 218.464 -0.10 -0.00    +0.022 A  
DOCKED: ATOM     27  C   UNL     1     144.656  73.742 220.090 -0.44 -0.01    +0.060 A  
DOCKED: ATOM     28  C   UNL     1     144.383  72.630 219.329 -0.25 -0.00    +0.059 A  
DOCKED: ATOM     29  Cl  UNL     1     146.020  73.676 221.206 -0.85 +0.01    -0.083 Cl 
DOCKED: ATOM     30  Cl  UNL     1     145.310  71.171 219.413 -0.31 -0.03    -0.083 Cl 
DOCKED: ENDBRANCH  20  23
DOCKED: ENDBRANCH   1  18
DOCKED: TORSDOF 5
DOCKED: TER
DOCKED: ENDMDL
________________________________________________________________________________


    FINAL DOCKED STATE:
    ________________________


Run:   11 / 20
Time taken for this run:   0.034s

DOCKED: MODEL        11
DOCKED: USER    Run = 11
DOCKED: USER
DOCKED: USER    Estimated Free Energy of Binding    =  -8.36 kcal/mol  [=(1)+(2)+(3)-(4)]
DOCKED: USER
DOCKED: USER    (1) Final Intermolecular Energy     =  -9.85 kcal/mol
DOCKED: USER        vdW + Hbond + desolv Energy     =  -9.84 kcal/mol
DOCKED: USER        Electrostatic Energy            =  -0.01 kcal/mol
DOCKED: USER        Moving Ligand-Fixed Receptor    =  -9.85 kcal/mol
DOCKED: USER        Moving Ligand-Moving Receptor   =  +0.00 kcal/mol
DOCKED: USER    (2) Final Total Internal Energy     =  -1.71 kcal/mol
DOCKED: USER    (3) Torsional Free Energy           =  +1.49 kcal/mol
DOCKED: USER    (4) Unbound System's Energy         =  -1.71 kcal/mol
DOCKED: USER
DOCKED: USER
DOCKED: REMARK SMILES O=C(NCC(=O)N1CCC[C@H]1c1ccc(Cl)c(Cl)c1)c1ccc2ccccc2n1
DOCKED: REMARK SMILES IDX 5 1 6 2 4 3 3 4 2 5 1 6 20 8 21 9 29 10 22 11 28 12 23 13
DOCKED: REMARK SMILES IDX 27 14 24 15 26 16 25 17 7 18 8 19 11 20 9 21 10 22 12 23
DOCKED: REMARK SMILES IDX 13 24 19 25 14 26 17 27 15 28 18 29 16 30
DOCKED: REMARK H PARENT 3 7
DOCKED: USER                              x       y       z     vdW  Elec       q    Type
DOCKED: USER                           _______ _______ _______ _____ _____    ______ ____
DOCKED: ROOT
DOCKED: ATOM      1  C   UNL     1     140.946  73.669 220.011 -0.08 -0.05    +0.242 C  
DOCKED: ATOM      2  O   UNL     1     140.638  73.697 218.734 -0.01 +0.06    -0.273 OA 
DOCKED: ENDROOT
DOCKED: BRANCH   1   3
DOCKED: ATOM      3  C   UNL     1     139.817  73.879 220.878 -0.14 -0.04    +0.216 C  
DOCKED: BRANCH   3   4
DOCKED: ATOM      4  N   UNL     1     139.845  73.372 222.207 -0.15 +0.04    -0.342 N  
DOCKED: ATOM      5  C   UNL     1     140.019  71.922 222.309 -0.20 -0.04    +0.270 C  
DOCKED: ATOM      6  O   UNL     1     140.125  71.273 221.230 -0.09 +0.04    -0.268 OA 
DOCKED: ATOM      7  H   UNL     1     139.766  73.839 223.099 -0.42 +0.00    +0.164 HD 
DOCKED: BRANCH   5   8
DOCKED: ATOM      8  C   UNL     1     140.062  71.292 223.620 -0.32 -0.02    +0.128 A  
DOCKED: ATOM      9  C   UNL     1     139.583  70.008 223.720 -0.28 -0.01    +0.035 A  
DOCKED: ATOM     10  N   UNL     1     140.544  71.905 224.721 -0.25 +0.04    -0.243 NA 
DOCKED: ATOM     11  C   UNL     1     139.578  69.320 224.914 -0.38 -0.00    +0.013 A  
DOCKED: ATOM     12  C   UNL     1     140.563  71.279 225.915 -0.55 -0.01    +0.071 A  
DOCKED: ATOM     13  C   UNL     1     140.084  69.990 226.023 -0.51 -0.00    +0.000 A  
DOCKED: ATOM     14  C   UNL     1     141.061  71.929 227.024 -0.77 -0.01    +0.029 A  
DOCKED: ATOM     15  C   UNL     1     140.098  69.335 227.241 -0.59 -0.00    +0.010 A  
DOCKED: ATOM     16  C   UNL     1     141.087  71.304 228.248 -0.73 -0.00    +0.002 A  
DOCKED: ATOM     17  C   UNL     1     140.599  70.006 228.332 -0.58 -0.00    +0.001 A  
DOCKED: ENDBRANCH   5   8
DOCKED: ENDBRANCH   3   4
DOCKED: ENDBRANCH   1   3
DOCKED: BRANCH   1  18
DOCKED: ATOM     18  N   UNL     1     142.321  73.439 220.296 -0.09 +0.07    -0.334 N  
DOCKED: ATOM     19  C   UNL     1     143.029  72.170 220.438 -0.22 -0.02    +0.120 C  
DOCKED: ATOM     20  C   UNL     1     143.239  74.560 220.500 -0.27 -0.04    +0.115 C  
DOCKED: ATOM     21  C   UNL     1     144.455  72.643 220.834 -0.41 -0.00    +0.024 C  
DOCKED: ATOM     22  C   UNL     1     144.556  73.979 220.122 -0.45 -0.01    +0.032 C  
DOCKED: BRANCH  20  23
DOCKED: ATOM     23  C   UNL     1     142.907  75.795 219.800 -0.35 +0.01    -0.024 A  
DOCKED: ATOM     24  C   UNL     1     143.282  76.077 218.485 -0.31 -0.00    +0.007 A  
DOCKED: ATOM     25  C   UNL     1     142.172  76.797 220.430 -0.22 -0.02    +0.028 A  
DOCKED: ATOM     26  C   UNL     1     142.947  77.259 217.861 -0.30 -0.02    +0.022 A  
DOCKED: ATOM     27  C   UNL     1     141.838  77.978 219.804 -0.27 -0.04    +0.060 A  
DOCKED: ATOM     28  C   UNL     1     142.216  78.239 218.508 -0.27 -0.04    +0.059 A  
DOCKED: ATOM     29  Cl  UNL     1     140.905  79.201 220.665 -0.32 +0.03    -0.083 Cl 
DOCKED: ATOM     30  Cl  UNL     1     141.820  79.707 217.682 -0.31 +0.06    -0.083 Cl 
DOCKED: ENDBRANCH  20  23
DOCKED: ENDBRANCH   1  18
DOCKED: TORSDOF 5
DOCKED: TER
DOCKED: ENDMDL
________________________________________________________________________________


    FINAL DOCKED STATE:
    ________________________


Run:   12 / 20
Time taken for this run:   0.034s

DOCKED: MODEL        12
DOCKED: USER    Run = 12
DOCKED: USER
DOCKED: USER    Estimated Free Energy of Binding    =  -8.51 kcal/mol  [=(1)+(2)+(3)-(4)]
DOCKED: USER
DOCKED: USER    (1) Final Intermolecular Energy     = -10.00 kcal/mol
DOCKED: USER        vdW + Hbond + desolv Energy     =  -9.97 kcal/mol
DOCKED: USER        Electrostatic Energy            =  -0.03 kcal/mol
DOCKED: USER        Moving Ligand-Fixed Receptor    = -10.00 kcal/mol
DOCKED: USER        Moving Ligand-Moving Receptor   =  +0.00 kcal/mol
DOCKED: USER    (2) Final Total Internal Energy     =  -1.68 kcal/mol
DOCKED: USER    (3) Torsional Free Energy           =  +1.49 kcal/mol
DOCKED: USER    (4) Unbound System's Energy         =  -1.68 kcal/mol
DOCKED: USER
DOCKED: USER
DOCKED: REMARK SMILES O=C(NCC(=O)N1CCC[C@H]1c1ccc(Cl)c(Cl)c1)c1ccc2ccccc2n1
DOCKED: REMARK SMILES IDX 5 1 6 2 4 3 3 4 2 5 1 6 20 8 21 9 29 10 22 11 28 12 23 13
DOCKED: REMARK SMILES IDX 27 14 24 15 26 16 25 17 7 18 8 19 11 20 9 21 10 22 12 23
DOCKED: REMARK SMILES IDX 13 24 19 25 14 26 17 27 15 28 18 29 16 30
DOCKED: REMARK H PARENT 3 7
DOCKED: USER                              x       y       z     vdW  Elec       q    Type
DOCKED: USER                           _______ _______ _______ _____ _____    ______ ____
DOCKED: ROOT
DOCKED: ATOM      1  C   UNL     1     142.015  72.634 219.394 -0.06 -0.04    +0.242 C  
DOCKED: ATOM      2  O   UNL     1     141.902  72.738 218.090 -0.01 +0.05    -0.273 OA 
DOCKED: ENDROOT
DOCKED: BRANCH   1   3
DOCKED: ATOM      3  C   UNL     1     140.765  72.373 220.059 -0.07 -0.04    +0.216 C  
DOCKED: BRANCH   3   4
DOCKED: ATOM      4  N   UNL     1     140.739  71.532 221.206 -0.08 +0.05    -0.342 N  
DOCKED: ATOM      5  C   UNL     1     140.295  72.185 222.438 -0.21 -0.03    +0.270 C  
DOCKED: ATOM      6  O   UNL     1     139.983  73.407 222.367 -0.80 +0.02    -0.268 OA 
DOCKED: ATOM      7  H   UNL     1     140.974  70.556 221.321 +0.05 -0.02    +0.164 HD 
DOCKED: BRANCH   5   8
DOCKED: ATOM      8  C   UNL     1     140.228  71.421 223.674 -0.33 -0.02    +0.128 A  
DOCKED: ATOM      9  C   UNL     1     139.669  70.168 223.614 -0.27 -0.01    +0.035 A  
DOCKED: ATOM     10  N   UNL     1     140.684  71.885 224.857 -0.28 +0.03    -0.243 NA 
DOCKED: ATOM     11  C   UNL     1     139.557  69.361 224.727 -0.36 -0.00    +0.013 A  
DOCKED: ATOM     12  C   UNL     1     140.600  71.139 225.977 -0.56 -0.01    +0.071 A  
DOCKED: ATOM     13  C   UNL     1     140.039  69.879 225.923 -0.49 -0.00    +0.000 A  
DOCKED: ATOM     14  C   UNL     1     141.074  71.637 227.171 -0.76 -0.01    +0.029 A  
DOCKED: ATOM     15  C   UNL     1     139.947  69.102 227.064 -0.58 -0.00    +0.010 A  
DOCKED: ATOM     16  C   UNL     1     140.996  70.888 228.322 -0.63 -0.00    +0.002 A  
DOCKED: ATOM     17  C   UNL     1     140.427  69.623 228.243 -0.61 -0.00    +0.001 A  
DOCKED: ENDBRANCH   5   8
DOCKED: ENDBRANCH   3   4
DOCKED: ENDBRANCH   1   3
DOCKED: BRANCH   1  18
DOCKED: ATOM     18  N   UNL     1     143.334  72.796 219.902 -0.08 +0.05    -0.334 N  
DOCKED: ATOM     19  C   UNL     1     144.493  71.924 219.740 -0.26 +0.00    +0.120 C  
DOCKED: ATOM     20  C   UNL     1     143.682  73.960 220.718 -0.25 -0.03    +0.115 C  
DOCKED: ATOM     21  C   UNL     1     145.558  72.642 220.616 -0.49 -0.00    +0.024 C  
DOCKED: ATOM     22  C   UNL     1     145.146  74.096 220.488 -0.53 -0.01    +0.032 C  
DOCKED: BRANCH  20  23
DOCKED: ATOM     23  C   UNL     1     142.920  75.176 220.459 -0.27 +0.01    -0.024 A  
DOCKED: ATOM     24  C   UNL     1     143.260  76.123 219.492 -0.40 -0.00    +0.007 A  
DOCKED: ATOM     25  C   UNL     1     141.770  75.466 221.191 -0.23 -0.01    +0.028 A  
DOCKED: ATOM     26  C   UNL     1     142.510  77.260 219.281 -0.32 -0.01    +0.022 A  
DOCKED: ATOM     27  C   UNL     1     141.023  76.603 220.977 -0.28 -0.02    +0.060 A  
DOCKED: ATOM     28  C   UNL     1     141.372  77.527 220.020 -0.23 -0.03    +0.059 A  
DOCKED: ATOM     29  Cl  UNL     1     139.578  76.905 221.941 -0.41 +0.02    -0.083 Cl 
DOCKED: ATOM     30  Cl  UNL     1     140.464  78.969 219.716 -0.18 +0.03    -0.083 Cl 
DOCKED: ENDBRANCH  20  23
DOCKED: ENDBRANCH   1  18
DOCKED: TORSDOF 5
DOCKED: TER
DOCKED: ENDMDL
________________________________________________________________________________


    FINAL DOCKED STATE:
    ________________________


Run:   13 / 20
Time taken for this run:   0.034s

DOCKED: MODEL        13
DOCKED: USER    Run = 13
DOCKED: USER
DOCKED: USER    Estimated Free Energy of Binding    =  -9.33 kcal/mol  [=(1)+(2)+(3)-(4)]
DOCKED: USER
DOCKED: USER    (1) Final Intermolecular Energy     = -10.82 kcal/mol
DOCKED: USER        vdW + Hbond + desolv Energy     = -10.71 kcal/mol
DOCKED: USER        Electrostatic Energy            =  -0.12 kcal/mol
DOCKED: USER        Moving Ligand-Fixed Receptor    = -10.82 kcal/mol
DOCKED: USER        Moving Ligand-Moving Receptor   =  +0.00 kcal/mol
DOCKED: USER    (2) Final Total Internal Energy     =  -1.20 kcal/mol
DOCKED: USER    (3) Torsional Free Energy           =  +1.49 kcal/mol
DOCKED: USER    (4) Unbound System's Energy         =  -1.20 kcal/mol
DOCKED: USER
DOCKED: USER
DOCKED: REMARK SMILES O=C(NCC(=O)N1CCC[C@H]1c1ccc(Cl)c(Cl)c1)c1ccc2ccccc2n1
DOCKED: REMARK SMILES IDX 5 1 6 2 4 3 3 4 2 5 1 6 20 8 21 9 29 10 22 11 28 12 23 13
DOCKED: REMARK SMILES IDX 27 14 24 15 26 16 25 17 7 18 8 19 11 20 9 21 10 22 12 23
DOCKED: REMARK SMILES IDX 13 24 19 25 14 26 17 27 15 28 18 29 16 30
DOCKED: REMARK H PARENT 3 7
DOCKED: USER                              x       y       z     vdW  Elec       q    Type
DOCKED: USER                           _______ _______ _______ _____ _____    ______ ____
DOCKED: ROOT
DOCKED: ATOM      1  C   UNL     1     140.966  75.232 221.117 -0.22 -0.06    +0.242 C  
DOCKED: ATOM      2  O   UNL     1     141.318  75.621 222.322 -0.32 +0.07    -0.273 OA 
DOCKED: ENDROOT
DOCKED: BRANCH   1   3
DOCKED: ATOM      3  C   UNL     1     139.911  74.253 221.116 -0.17 -0.04    +0.216 C  
DOCKED: BRANCH   3   4
DOCKED: ATOM      4  N   UNL     1     139.626  73.523 222.303 -0.13 +0.06    -0.342 N  
DOCKED: ATOM      5  C   UNL     1     140.468  72.345 222.519 -0.20 -0.02    +0.270 C  
DOCKED: ATOM      6  O   UNL     1     141.350  72.096 221.649 -0.19 +0.02    -0.268 OA 
DOCKED: ATOM      7  H   UNL     1     138.940  73.674 223.029 -0.53 -0.09    +0.164 HD 
DOCKED: BRANCH   5   8
DOCKED: ATOM      8  C   UNL     1     140.267  71.522 223.700 -0.34 -0.02    +0.128 A  
DOCKED: ATOM      9  C   UNL     1     139.606  70.328 223.534 -0.28 -0.01    +0.035 A  
DOCKED: ATOM     10  N   UNL     1     140.693  71.874 224.931 -0.28 +0.03    -0.243 NA 
DOCKED: ATOM     11  C   UNL     1     139.363  69.472 224.587 -0.35 -0.00    +0.013 A  
DOCKED: ATOM     12  C   UNL     1     140.482  71.075 225.997 -0.55 -0.01    +0.071 A  
DOCKED: ATOM     13  C   UNL     1     139.820  69.876 225.837 -0.47 -0.00    +0.000 A  
DOCKED: ATOM     14  C   UNL     1     140.929  71.460 227.243 -0.74 -0.01    +0.029 A  
DOCKED: ATOM     15  C   UNL     1     139.597  69.046 226.921 -0.55 -0.00    +0.010 A  
DOCKED: ATOM     16  C   UNL     1     140.721  70.657 228.339 -0.60 -0.00    +0.002 A  
DOCKED: ATOM     17  C   UNL     1     140.052  69.454 228.153 -0.63 -0.00    +0.001 A  
DOCKED: ENDBRANCH   5   8
DOCKED: ENDBRANCH   3   4
DOCKED: ENDBRANCH   1   3
DOCKED: BRANCH   1  18
DOCKED: ATOM     18  N   UNL     1     141.685  75.841 220.051 -0.10 +0.14    -0.334 N  
DOCKED: ATOM     19  C   UNL     1     142.048  75.281 218.752 -0.13 -0.04    +0.120 C  
DOCKED: ATOM     20  C   UNL     1     142.178  77.213 220.170 -0.25 -0.08    +0.115 C  
DOCKED: ATOM     21  C   UNL     1     142.888  76.433 218.132 -0.27 -0.01    +0.024 C  
DOCKED: ATOM     22  C   UNL     1     142.250  77.661 218.753 -0.29 -0.02    +0.032 C  
DOCKED: BRANCH  20  23
DOCKED: ATOM     23  C   UNL     1     141.410  78.097 221.039 -0.32 +0.01    -0.024 A  
DOCKED: ATOM     24  C   UNL     1     140.015  78.148 221.070 -0.20 -0.00    +0.007 A  
DOCKED: ATOM     25  C   UNL     1     142.051  78.970 221.915 -0.42 -0.02    +0.028 A  
DOCKED: ATOM     26  C   UNL     1     139.328  79.000 221.908 -0.22 -0.00    +0.022 A  
DOCKED: ATOM     27  C   UNL     1     141.362  79.821 222.751 -0.46 -0.02    +0.060 A  
DOCKED: ATOM     28  C   UNL     1     139.988  79.858 222.769 -0.33 -0.01    +0.059 A  
DOCKED: ATOM     29  Cl  UNL     1     142.242  80.898 223.834 -0.77 +0.01    -0.083 Cl 
DOCKED: ATOM     30  Cl  UNL     1     139.081  80.909 223.802 -0.40 +0.01    -0.083 Cl 
DOCKED: ENDBRANCH  20  23
DOCKED: ENDBRANCH   1  18
DOCKED: TORSDOF 5
DOCKED: TER
DOCKED: ENDMDL
________________________________________________________________________________


    FINAL DOCKED STATE:
    ________________________


Run:   14 / 20
Time taken for this run:   0.034s

DOCKED: MODEL        14
DOCKED: USER    Run = 14
DOCKED: USER
DOCKED: USER    Estimated Free Energy of Binding    =  -7.62 kcal/mol  [=(1)+(2)+(3)-(4)]
DOCKED: USER
DOCKED: USER    (1) Final Intermolecular Energy     =  -9.11 kcal/mol
DOCKED: USER        vdW + Hbond + desolv Energy     =  -9.07 kcal/mol
DOCKED: USER        Electrostatic Energy            =  -0.05 kcal/mol
DOCKED: USER        Moving Ligand-Fixed Receptor    =  -9.11 kcal/mol
DOCKED: USER        Moving Ligand-Moving Receptor   =  +0.00 kcal/mol
DOCKED: USER    (2) Final Total Internal Energy     =  -2.67 kcal/mol
DOCKED: USER    (3) Torsional Free Energy           =  +1.49 kcal/mol
DOCKED: USER    (4) Unbound System's Energy         =  -2.67 kcal/mol
DOCKED: USER
DOCKED: USER
DOCKED: REMARK SMILES O=C(NCC(=O)N1CCC[C@H]1c1ccc(Cl)c(Cl)c1)c1ccc2ccccc2n1
DOCKED: REMARK SMILES IDX 5 1 6 2 4 3 3 4 2 5 1 6 20 8 21 9 29 10 22 11 28 12 23 13
DOCKED: REMARK SMILES IDX 27 14 24 15 26 16 25 17 7 18 8 19 11 20 9 21 10 22 12 23
DOCKED: REMARK SMILES IDX 13 24 19 25 14 26 17 27 15 28 18 29 16 30
DOCKED: REMARK H PARENT 3 7
DOCKED: USER                              x       y       z     vdW  Elec       q    Type
DOCKED: USER                           _______ _______ _______ _____ _____    ______ ____
DOCKED: ROOT
DOCKED: ATOM      1  C   UNL     1     141.008  80.023 220.556 -0.17 -0.09    +0.242 C  
DOCKED: ATOM      2  O   UNL     1     139.911  80.727 220.393 -0.06 +0.07    -0.273 OA 
DOCKED: ENDROOT
DOCKED: BRANCH   1   3
DOCKED: ATOM      3  C   UNL     1     141.410  79.304 219.376 -0.17 -0.11    +0.216 C  
DOCKED: BRANCH   3   4
DOCKED: ATOM      4  N   UNL     1     142.318  78.216 219.489 -0.07 +0.25    -0.342 N  
DOCKED: ATOM      5  C   UNL     1     141.769  76.913 219.109 -0.14 -0.13    +0.270 C  
DOCKED: ATOM      6  O   UNL     1     140.566  76.881 218.725 -0.03 +0.10    -0.268 OA 
DOCKED: ATOM      7  H   UNL     1     143.283  78.182 219.787 -0.39 -0.20    +0.164 HD 
DOCKED: BRANCH   5   8
DOCKED: ATOM      8  C   UNL     1     142.608  75.727 219.184 -0.23 -0.06    +0.128 A  
DOCKED: ATOM      9  C   UNL     1     142.263  74.657 218.394 -0.11 -0.01    +0.035 A  
DOCKED: ATOM     10  N   UNL     1     143.691  75.636 219.983 -0.26 +0.15    -0.243 NA 
DOCKED: ATOM     11  C   UNL     1     142.990  73.486 218.389 -0.11 -0.00    +0.013 A  
DOCKED: ATOM     12  C   UNL     1     144.438  74.514 220.018 -0.40 -0.03    +0.071 A  
DOCKED: ATOM     13  C   UNL     1     144.097  73.436 219.228 -0.27 -0.00    +0.000 A  
DOCKED: ATOM     14  C   UNL     1     145.540  74.448 220.844 -0.48 -0.01    +0.029 A  
DOCKED: ATOM     15  C   UNL     1     144.855  72.279 219.253 -0.30 +0.00    +0.010 A  
DOCKED: ATOM     16  C   UNL     1     146.312  73.311 220.891 -0.68 +0.00    +0.002 A  
DOCKED: ATOM     17  C   UNL     1     145.949  72.238 220.085 -0.43 +0.00    +0.001 A  
DOCKED: ENDBRANCH   5   8
DOCKED: ENDBRANCH   3   4
DOCKED: ENDBRANCH   1   3
DOCKED: BRANCH   1  18
DOCKED: ATOM     18  N   UNL     1     141.588  80.100 221.853 -0.19 +0.12    -0.334 N  
DOCKED: ATOM     19  C   UNL     1     142.141  81.261 222.543 -0.41 -0.03    +0.120 C  
DOCKED: ATOM     20  C   UNL     1     141.700  78.907 222.693 -0.45 -0.05    +0.115 C  
DOCKED: ATOM     21  C   UNL     1     142.678  80.627 223.857 -0.66 -0.00    +0.024 C  
DOCKED: ATOM     22  C   UNL     1     141.715  79.474 224.069 -0.50 -0.01    +0.032 C  
DOCKED: BRANCH  20  23
DOCKED: ATOM     23  C   UNL     1     140.691  77.876 222.481 -0.42 +0.01    -0.024 A  
DOCKED: ATOM     24  C   UNL     1     139.315  78.096 222.572 -0.32 -0.00    +0.007 A  
DOCKED: ATOM     25  C   UNL     1     141.060  76.570 222.166 -0.36 -0.01    +0.028 A  
DOCKED: ATOM     26  C   UNL     1     138.395  77.091 222.364 -0.28 -0.00    +0.022 A  
DOCKED: ATOM     27  C   UNL     1     140.138  75.568 221.958 -0.32 -0.01    +0.060 A  
DOCKED: ATOM     28  C   UNL     1     138.786  75.802 222.052 -0.27 -0.01    +0.059 A  
DOCKED: ATOM     29  Cl  UNL     1     140.679  73.938 221.562 -0.37 +0.01    -0.083 Cl 
DOCKED: ATOM     30  Cl  UNL     1     137.592  74.575 221.800 -0.21 +0.02    -0.083 Cl 
DOCKED: ENDBRANCH  20  23
DOCKED: ENDBRANCH   1  18
DOCKED: TORSDOF 5
DOCKED: TER
DOCKED: ENDMDL
________________________________________________________________________________


    FINAL DOCKED STATE:
    ________________________


Run:   15 / 20
Time taken for this run:   0.034s

DOCKED: MODEL        15
DOCKED: USER    Run = 15
DOCKED: USER
DOCKED: USER    Estimated Free Energy of Binding    =  -7.54 kcal/mol  [=(1)+(2)+(3)-(4)]
DOCKED: USER
DOCKED: USER    (1) Final Intermolecular Energy     =  -9.03 kcal/mol
DOCKED: USER        vdW + Hbond + desolv Energy     =  -8.99 kcal/mol
DOCKED: USER        Electrostatic Energy            =  -0.05 kcal/mol
DOCKED: USER        Moving Ligand-Fixed Receptor    =  -9.03 kcal/mol
DOCKED: USER        Moving Ligand-Moving Receptor   =  +0.00 kcal/mol
DOCKED: USER    (2) Final Total Internal Energy     =  -2.72 kcal/mol
DOCKED: USER    (3) Torsional Free Energy           =  +1.49 kcal/mol
DOCKED: USER    (4) Unbound System's Energy         =  -2.72 kcal/mol
DOCKED: USER
DOCKED: USER
DOCKED: REMARK SMILES O=C(NCC(=O)N1CCC[C@H]1c1ccc(Cl)c(Cl)c1)c1ccc2ccccc2n1
DOCKED: REMARK SMILES IDX 5 1 6 2 4 3 3 4 2 5 1 6 20 8 21 9 29 10 22 11 28 12 23 13
DOCKED: REMARK SMILES IDX 27 14 24 15 26 16 25 17 7 18 8 19 11 20 9 21 10 22 12 23
DOCKED: REMARK SMILES IDX 13 24 19 25 14 26 17 27 15 28 18 29 16 30
DOCKED: REMARK H PARENT 3 7
DOCKED: USER                              x       y       z     vdW  Elec       q    Type
DOCKED: USER                           _______ _______ _______ _____ _____    ______ ____
DOCKED: ROOT
DOCKED: ATOM      1  C   UNL     1     140.893  79.954 220.506 -0.16 -0.09    +0.242 C  
DOCKED: ATOM      2  O   UNL     1     139.728  80.537 220.337 -0.05 +0.07    -0.273 OA 
DOCKED: ENDROOT
DOCKED: BRANCH   1   3
DOCKED: ATOM      3  C   UNL     1     141.396  79.322 219.315 -0.17 -0.11    +0.216 C  
DOCKED: BRANCH   3   4
DOCKED: ATOM      4  N   UNL     1     142.311  78.238 219.426 -0.08 +0.25    -0.342 N  
DOCKED: ATOM      5  C   UNL     1     141.752  76.925 219.099 -0.14 -0.13    +0.270 C  
DOCKED: ATOM      6  O   UNL     1     140.537  76.881 218.758 -0.03 +0.10    -0.268 OA 
DOCKED: ATOM      7  H   UNL     1     143.286  78.214 219.691 -0.39 -0.20    +0.164 HD 
DOCKED: BRANCH   5   8
DOCKED: ATOM      8  C   UNL     1     142.596  75.743 219.178 -0.23 -0.06    +0.128 A  
DOCKED: ATOM      9  C   UNL     1     142.257  74.670 218.388 -0.11 -0.01    +0.035 A  
DOCKED: ATOM     10  N   UNL     1     143.679  75.657 219.978 -0.26 +0.15    -0.243 NA 
DOCKED: ATOM     11  C   UNL     1     142.989  73.502 218.386 -0.11 -0.00    +0.013 A  
DOCKED: ATOM     12  C   UNL     1     144.431  74.539 220.016 -0.40 -0.03    +0.071 A  
DOCKED: ATOM     13  C   UNL     1     144.096  73.458 219.226 -0.27 -0.00    +0.000 A  
DOCKED: ATOM     14  C   UNL     1     145.532  74.478 220.843 -0.47 -0.01    +0.029 A  
DOCKED: ATOM     15  C   UNL     1     144.859  72.304 219.254 -0.30 +0.00    +0.010 A  
DOCKED: ATOM     16  C   UNL     1     146.309  73.345 220.893 -0.69 +0.00    +0.002 A  
DOCKED: ATOM     17  C   UNL     1     145.952  72.270 220.088 -0.44 +0.00    +0.001 A  
DOCKED: ENDBRANCH   5   8
DOCKED: ENDBRANCH   3   4
DOCKED: ENDBRANCH   1   3
DOCKED: BRANCH   1  18
DOCKED: ATOM     18  N   UNL     1     141.435  80.055 221.817 -0.17 +0.11    -0.334 N  
DOCKED: ATOM     19  C   UNL     1     141.913  81.240 222.524 -0.44 -0.03    +0.120 C  
DOCKED: ATOM     20  C   UNL     1     141.583  78.867 222.658 -0.45 -0.05    +0.115 C  
DOCKED: ATOM     21  C   UNL     1     142.446  80.628 223.849 -0.65 -0.00    +0.024 C  
DOCKED: ATOM     22  C   UNL     1     141.534  79.429 224.035 -0.50 -0.01    +0.032 C  
DOCKED: BRANCH  20  23
DOCKED: ATOM     23  C   UNL     1     140.631  77.789 222.418 -0.41 +0.01    -0.024 A  
DOCKED: ATOM     24  C   UNL     1     139.244  77.950 222.433 -0.31 -0.00    +0.007 A  
DOCKED: ATOM     25  C   UNL     1     141.071  76.494 222.151 -0.35 -0.01    +0.028 A  
DOCKED: ATOM     26  C   UNL     1     138.379  76.902 222.200 -0.27 -0.00    +0.022 A  
DOCKED: ATOM     27  C   UNL     1     140.205  75.449 221.920 -0.31 -0.01    +0.060 A  
DOCKED: ATOM     28  C   UNL     1     138.841  75.625 221.938 -0.26 -0.01    +0.059 A  
DOCKED: ATOM     29  Cl  UNL     1     140.834  73.836 221.589 -0.35 +0.01    -0.083 Cl 
DOCKED: ATOM     30  Cl  UNL     1     137.714  74.342 221.653 -0.21 +0.02    -0.083 Cl 
DOCKED: ENDBRANCH  20  23
DOCKED: ENDBRANCH   1  18
DOCKED: TORSDOF 5
DOCKED: TER
DOCKED: ENDMDL
________________________________________________________________________________


    FINAL DOCKED STATE:
    ________________________


Run:   16 / 20
Time taken for this run:   0.034s

DOCKED: MODEL        16
DOCKED: USER    Run = 16
DOCKED: USER
DOCKED: USER    Estimated Free Energy of Binding    =  -7.49 kcal/mol  [=(1)+(2)+(3)-(4)]
DOCKED: USER
DOCKED: USER    (1) Final Intermolecular Energy     =  -8.99 kcal/mol
DOCKED: USER        vdW + Hbond + desolv Energy     =  -8.96 kcal/mol
DOCKED: USER        Electrostatic Energy            =  -0.03 kcal/mol
DOCKED: USER        Moving Ligand-Fixed Receptor    =  -8.99 kcal/mol
DOCKED: USER        Moving Ligand-Moving Receptor   =  +0.00 kcal/mol
DOCKED: USER    (2) Final Total Internal Energy     =  -2.62 kcal/mol
DOCKED: USER    (3) Torsional Free Energy           =  +1.49 kcal/mol
DOCKED: USER    (4) Unbound System's Energy         =  -2.62 kcal/mol
DOCKED: USER
DOCKED: USER
DOCKED: REMARK SMILES O=C(NCC(=O)N1CCC[C@H]1c1ccc(Cl)c(Cl)c1)c1ccc2ccccc2n1
DOCKED: REMARK SMILES IDX 5 1 6 2 4 3 3 4 2 5 1 6 20 8 21 9 29 10 22 11 28 12 23 13
DOCKED: REMARK SMILES IDX 27 14 24 15 26 16 25 17 7 18 8 19 11 20 9 21 10 22 12 23
DOCKED: REMARK SMILES IDX 13 24 19 25 14 26 17 27 15 28 18 29 16 30
DOCKED: REMARK H PARENT 3 7
DOCKED: USER                              x       y       z     vdW  Elec       q    Type
DOCKED: USER                           _______ _______ _______ _____ _____    ______ ____
DOCKED: ROOT
DOCKED: ATOM      1  C   UNL     1     140.978  79.762 220.246 -0.15 -0.10    +0.242 C  
DOCKED: ATOM      2  O   UNL     1     139.686  79.904 220.054 -0.04 +0.08    -0.273 OA 
DOCKED: ENDROOT
DOCKED: BRANCH   1   3
DOCKED: ATOM      3  C   UNL     1     141.692  79.350 219.067 -0.19 -0.13    +0.216 C  
DOCKED: BRANCH   3   4
DOCKED: ATOM      4  N   UNL     1     142.573  78.235 219.130 -0.09 +0.27    -0.342 N  
DOCKED: ATOM      5  C   UNL     1     141.917  76.928 219.082 -0.15 -0.14    +0.270 C  
DOCKED: ATOM      6  O   UNL     1     140.656  76.915 218.992 -0.04 +0.10    -0.268 OA 
DOCKED: ATOM      7  H   UNL     1     143.580  78.186 219.201 -0.39 -0.19    +0.164 HD 
DOCKED: BRANCH   5   8
DOCKED: ATOM      8  C   UNL     1     142.719  75.716 219.139 -0.24 -0.06    +0.128 A  
DOCKED: ATOM      9  C   UNL     1     142.373  74.687 218.296 -0.11 -0.01    +0.035 A  
DOCKED: ATOM     10  N   UNL     1     143.770  75.562 219.970 -0.27 +0.15    -0.243 NA 
DOCKED: ATOM     11  C   UNL     1     143.066  73.497 218.270 -0.11 -0.00    +0.013 A  
DOCKED: ATOM     12  C   UNL     1     144.484  74.418 219.987 -0.39 -0.03    +0.071 A  
DOCKED: ATOM     13  C   UNL     1     144.142  73.382 219.143 -0.26 -0.00    +0.000 A  
DOCKED: ATOM     14  C   UNL     1     145.554  74.288 220.846 -0.55 -0.01    +0.029 A  
DOCKED: ATOM     15  C   UNL     1     144.866  72.203 219.149 -0.28 +0.00    +0.010 A  
DOCKED: ATOM     16  C   UNL     1     146.292  73.128 220.875 -0.65 +0.00    +0.002 A  
DOCKED: ATOM     17  C   UNL     1     145.928  72.098 220.016 -0.37 +0.00    +0.001 A  
DOCKED: ENDBRANCH   5   8
DOCKED: ENDBRANCH   3   4
DOCKED: ENDBRANCH   1   3
DOCKED: BRANCH   1  18
DOCKED: ATOM     18  N   UNL     1     141.427  80.038 221.568 -0.16 +0.12    -0.334 N  
DOCKED: ATOM     19  C   UNL     1     141.855  81.309 222.145 -0.40 -0.03    +0.120 C  
DOCKED: ATOM     20  C   UNL     1     141.516  78.971 222.565 -0.44 -0.04    +0.115 C  
DOCKED: ATOM     21  C   UNL     1     142.293  80.880 223.573 -0.64 -0.00    +0.024 C  
DOCKED: ATOM     22  C   UNL     1     141.371  79.708 223.850 -0.55 -0.01    +0.032 C  
DOCKED: BRANCH  20  23
DOCKED: ATOM     23  C   UNL     1     140.582  77.863 222.403 -0.41 +0.01    -0.024 A  
DOCKED: ATOM     24  C   UNL     1     139.197  77.979 222.530 -0.31 -0.00    +0.007 A  
DOCKED: ATOM     25  C   UNL     1     141.041  76.582 222.101 -0.36 -0.01    +0.028 A  
DOCKED: ATOM     26  C   UNL     1     138.350  76.903 222.368 -0.29 -0.00    +0.022 A  
DOCKED: ATOM     27  C   UNL     1     140.193  75.509 221.940 -0.32 -0.01    +0.060 A  
DOCKED: ATOM     28  C   UNL     1     138.830  75.641 222.069 -0.27 -0.01    +0.059 A  
DOCKED: ATOM     29  Cl  UNL     1     140.845  73.916 221.559 -0.35 +0.01    -0.083 Cl 
DOCKED: ATOM     30  Cl  UNL     1     137.726  74.322 221.876 -0.19 +0.02    -0.083 Cl 
DOCKED: ENDBRANCH  20  23
DOCKED: ENDBRANCH   1  18
DOCKED: TORSDOF 5
DOCKED: TER
DOCKED: ENDMDL
________________________________________________________________________________


    FINAL DOCKED STATE:
    ________________________


Run:   17 / 20
Time taken for this run:   0.034s

DOCKED: MODEL        17
DOCKED: USER    Run = 17
DOCKED: USER
DOCKED: USER    Estimated Free Energy of Binding    =  -8.25 kcal/mol  [=(1)+(2)+(3)-(4)]
DOCKED: USER
DOCKED: USER    (1) Final Intermolecular Energy     =  -9.74 kcal/mol
DOCKED: USER        vdW + Hbond + desolv Energy     =  -9.71 kcal/mol
DOCKED: USER        Electrostatic Energy            =  -0.03 kcal/mol
DOCKED: USER        Moving Ligand-Fixed Receptor    =  -9.74 kcal/mol
DOCKED: USER        Moving Ligand-Moving Receptor   =  +0.00 kcal/mol
DOCKED: USER    (2) Final Total Internal Energy     =  -1.75 kcal/mol
DOCKED: USER    (3) Torsional Free Energy           =  +1.49 kcal/mol
DOCKED: USER    (4) Unbound System's Energy         =  -1.75 kcal/mol
DOCKED: USER
DOCKED: USER
DOCKED: REMARK SMILES O=C(NCC(=O)N1CCC[C@H]1c1ccc(Cl)c(Cl)c1)c1ccc2ccccc2n1
DOCKED: REMARK SMILES IDX 5 1 6 2 4 3 3 4 2 5 1 6 20 8 21 9 29 10 22 11 28 12 23 13
DOCKED: REMARK SMILES IDX 27 14 24 15 26 16 25 17 7 18 8 19 11 20 9 21 10 22 12 23
DOCKED: REMARK SMILES IDX 13 24 19 25 14 26 17 27 15 28 18 29 16 30
DOCKED: REMARK H PARENT 3 7
DOCKED: USER                              x       y       z     vdW  Elec       q    Type
DOCKED: USER                           _______ _______ _______ _____ _____    ______ ____
DOCKED: ROOT
DOCKED: ATOM      1  C   UNL     1     140.686  73.714 220.033 -0.08 -0.05    +0.242 C  
DOCKED: ATOM      2  O   UNL     1     140.370  73.890 218.770 -0.01 +0.06    -0.273 OA 
DOCKED: ENDROOT
DOCKED: BRANCH   1   3
DOCKED: ATOM      3  C   UNL     1     139.568  73.855 220.928 -0.13 -0.04    +0.216 C  
DOCKED: BRANCH   3   4
DOCKED: ATOM      4  N   UNL     1     139.656  73.340 222.251 -0.15 +0.06    -0.342 N  
DOCKED: ATOM      5  C   UNL     1     139.847  71.891 222.337 -0.20 -0.05    +0.270 C  
DOCKED: ATOM      6  O   UNL     1     139.916  71.251 221.250 -0.09 +0.04    -0.268 OA 
DOCKED: ATOM      7  H   UNL     1     139.609  73.801 223.150 -0.49 -0.02    +0.164 HD 
DOCKED: BRANCH   5   8
DOCKED: ATOM      8  C   UNL     1     139.951  71.253 223.640 -0.33 -0.02    +0.128 A  
DOCKED: ATOM      9  C   UNL     1     139.533  69.948 223.740 -0.28 -0.01    +0.035 A  
DOCKED: ATOM     10  N   UNL     1     140.431  71.878 224.735 -0.27 +0.04    -0.243 NA 
DOCKED: ATOM     11  C   UNL     1     139.588  69.250 224.927 -0.38 -0.00    +0.013 A  
DOCKED: ATOM     12  C   UNL     1     140.507  71.244 225.922 -0.54 -0.01    +0.071 A  
DOCKED: ATOM     13  C   UNL     1     140.089  69.934 226.030 -0.50 -0.00    +0.000 A  
DOCKED: ATOM     14  C   UNL     1     141.002  71.907 227.025 -0.76 -0.01    +0.029 A  
DOCKED: ATOM     15  C   UNL     1     140.162  69.270 227.241 -0.59 -0.00    +0.010 A  
DOCKED: ATOM     16  C   UNL     1     141.086  71.274 228.243 -0.72 -0.00    +0.002 A  
DOCKED: ATOM     17  C   UNL     1     140.659  69.954 228.326 -0.58 -0.00    +0.001 A  
DOCKED: ENDBRANCH   5   8
DOCKED: ENDBRANCH   3   4
DOCKED: ENDBRANCH   1   3
DOCKED: BRANCH   1  18
DOCKED: ATOM     18  N   UNL     1     142.056  73.422 220.279 -0.08 +0.07    -0.334 N  
DOCKED: ATOM     19  C   UNL     1     142.737  72.130 220.255 -0.19 -0.02    +0.120 C  
DOCKED: ATOM     20  C   UNL     1     142.999  74.488 220.617 -0.23 -0.04    +0.115 C  
DOCKED: ATOM     21  C   UNL     1     144.175  72.519 220.699 -0.36 -0.00    +0.024 C  
DOCKED: ATOM     22  C   UNL     1     144.302  73.932 220.161 -0.43 -0.01    +0.032 C  
DOCKED: BRANCH  20  23
DOCKED: ATOM     23  C   UNL     1     142.692  75.809 220.081 -0.32 +0.01    -0.024 A  
DOCKED: ATOM     24  C   UNL     1     143.235  76.323 218.902 -0.36 -0.00    +0.007 A  
DOCKED: ATOM     25  C   UNL     1     141.807  76.659 220.741 -0.21 -0.02    +0.028 A  
DOCKED: ATOM     26  C   UNL     1     142.917  77.579 218.431 -0.32 -0.02    +0.022 A  
DOCKED: ATOM     27  C   UNL     1     141.491  77.913 220.269 -0.26 -0.03    +0.060 A  
DOCKED: ATOM     28  C   UNL     1     142.036  78.404 219.105 -0.26 -0.04    +0.059 A  
DOCKED: ATOM     29  Cl  UNL     1     140.363  78.934 221.158 -0.29 +0.03    -0.083 Cl 
DOCKED: ATOM     30  Cl  UNL     1     141.668  79.973 218.473 -0.33 +0.05    -0.083 Cl 
DOCKED: ENDBRANCH  20  23
DOCKED: ENDBRANCH   1  18
DOCKED: TORSDOF 5
DOCKED: TER
DOCKED: ENDMDL
________________________________________________________________________________


    FINAL DOCKED STATE:
    ________________________


Run:   18 / 20
Time taken for this run:   0.034s

DOCKED: MODEL        18
DOCKED: USER    Run = 18
DOCKED: USER
DOCKED: USER    Estimated Free Energy of Binding    =  -7.61 kcal/mol  [=(1)+(2)+(3)-(4)]
DOCKED: USER
DOCKED: USER    (1) Final Intermolecular Energy     =  -9.11 kcal/mol
DOCKED: USER        vdW + Hbond + desolv Energy     =  -9.06 kcal/mol
DOCKED: USER        Electrostatic Energy            =  -0.05 kcal/mol
DOCKED: USER        Moving Ligand-Fixed Receptor    =  -9.11 kcal/mol
DOCKED: USER        Moving Ligand-Moving Receptor   =  +0.00 kcal/mol
DOCKED: USER    (2) Final Total Internal Energy     =  -2.67 kcal/mol
DOCKED: USER    (3) Torsional Free Energy           =  +1.49 kcal/mol
DOCKED: USER    (4) Unbound System's Energy         =  -2.67 kcal/mol
DOCKED: USER
DOCKED: USER
DOCKED: REMARK SMILES O=C(NCC(=O)N1CCC[C@H]1c1ccc(Cl)c(Cl)c1)c1ccc2ccccc2n1
DOCKED: REMARK SMILES IDX 5 1 6 2 4 3 3 4 2 5 1 6 20 8 21 9 29 10 22 11 28 12 23 13
DOCKED: REMARK SMILES IDX 27 14 24 15 26 16 25 17 7 18 8 19 11 20 9 21 10 22 12 23
DOCKED: REMARK SMILES IDX 13 24 19 25 14 26 17 27 15 28 18 29 16 30
DOCKED: REMARK H PARENT 3 7
DOCKED: USER                              x       y       z     vdW  Elec       q    Type
DOCKED: USER                           _______ _______ _______ _____ _____    ______ ____
DOCKED: ROOT
DOCKED: ATOM      1  C   UNL     1     141.040  80.028 220.601 -0.18 -0.09    +0.242 C  
DOCKED: ATOM      2  O   UNL     1     140.003  80.815 220.424 -0.07 +0.07    -0.273 OA 
DOCKED: ENDROOT
DOCKED: BRANCH   1   3
DOCKED: ATOM      3  C   UNL     1     141.386  79.264 219.432 -0.17 -0.11    +0.216 C  
DOCKED: BRANCH   3   4
DOCKED: ATOM      4  N   UNL     1     142.298  78.179 219.543 -0.08 +0.25    -0.342 N  
DOCKED: ATOM      5  C   UNL     1     141.764  76.880 219.130 -0.14 -0.13    +0.270 C  
DOCKED: ATOM      6  O   UNL     1     140.569  76.848 218.723 -0.03 +0.10    -0.268 OA 
DOCKED: ATOM      7  H   UNL     1     143.258  78.146 219.859 -0.39 -0.20    +0.164 HD 
DOCKED: BRANCH   5   8
DOCKED: ATOM      8  C   UNL     1     142.608  75.698 219.202 -0.23 -0.06    +0.128 A  
DOCKED: ATOM      9  C   UNL     1     142.264  74.626 218.413 -0.11 -0.01    +0.035 A  
DOCKED: ATOM     10  N   UNL     1     143.696  75.611 219.996 -0.26 +0.15    -0.243 NA 
DOCKED: ATOM     11  C   UNL     1     142.996  73.458 218.404 -0.11 -0.00    +0.013 A  
DOCKED: ATOM     12  C   UNL     1     144.448  74.492 220.027 -0.41 -0.03    +0.071 A  
DOCKED: ATOM     13  C   UNL     1     144.108  73.413 219.238 -0.27 -0.00    +0.000 A  
DOCKED: ATOM     14  C   UNL     1     145.554  74.430 220.848 -0.49 -0.01    +0.029 A  
DOCKED: ATOM     15  C   UNL     1     144.871  72.259 219.260 -0.30 +0.00    +0.010 A  
DOCKED: ATOM     16  C   UNL     1     146.331  73.297 220.891 -0.68 +0.00    +0.002 A  
DOCKED: ATOM     17  C   UNL     1     145.968  72.222 220.087 -0.41 +0.00    +0.001 A  
DOCKED: ENDBRANCH   5   8
DOCKED: ENDBRANCH   3   4
DOCKED: ENDBRANCH   1   3
DOCKED: BRANCH   1  18
DOCKED: ATOM     18  N   UNL     1     141.622  80.077 221.898 -0.19 +0.12    -0.334 N  
DOCKED: ATOM     19  C   UNL     1     142.183  81.221 222.610 -0.42 -0.03    +0.120 C  
DOCKED: ATOM     20  C   UNL     1     141.728  78.867 222.715 -0.45 -0.05    +0.115 C  
DOCKED: ATOM     21  C   UNL     1     142.717  80.558 223.910 -0.64 -0.00    +0.024 C  
DOCKED: ATOM     22  C   UNL     1     141.747  79.407 224.102 -0.50 -0.01    +0.032 C  
DOCKED: BRANCH  20  23
DOCKED: ATOM     23  C   UNL     1     140.712  77.847 222.484 -0.43 +0.01    -0.024 A  
DOCKED: ATOM     24  C   UNL     1     139.337  78.082 222.540 -0.32 -0.00    +0.007 A  
DOCKED: ATOM     25  C   UNL     1     141.074  76.535 222.185 -0.35 -0.01    +0.028 A  
DOCKED: ATOM     26  C   UNL     1     138.411  77.087 222.315 -0.28 -0.00    +0.022 A  
DOCKED: ATOM     27  C   UNL     1     140.146  75.542 221.961 -0.32 -0.01    +0.060 A  
DOCKED: ATOM     28  C   UNL     1     138.795  75.792 222.020 -0.27 -0.01    +0.059 A  
DOCKED: ATOM     29  Cl  UNL     1     140.678  73.904 221.587 -0.37 +0.01    -0.083 Cl 
DOCKED: ATOM     30  Cl  UNL     1     137.593  74.577 221.746 -0.21 +0.02    -0.083 Cl 
DOCKED: ENDBRANCH  20  23
DOCKED: ENDBRANCH   1  18
DOCKED: TORSDOF 5
DOCKED: TER
DOCKED: ENDMDL
________________________________________________________________________________


    FINAL DOCKED STATE:
    ________________________


Run:   19 / 20
Time taken for this run:   0.034s

DOCKED: MODEL        19
DOCKED: USER    Run = 19
DOCKED: USER
DOCKED: USER    Estimated Free Energy of Binding    =  -8.76 kcal/mol  [=(1)+(2)+(3)-(4)]
DOCKED: USER
DOCKED: USER    (1) Final Intermolecular Energy     = -10.25 kcal/mol
DOCKED: USER        vdW + Hbond + desolv Energy     = -10.17 kcal/mol
DOCKED: USER        Electrostatic Energy            =  -0.09 kcal/mol
DOCKED: USER        Moving Ligand-Fixed Receptor    = -10.25 kcal/mol
DOCKED: USER        Moving Ligand-Moving Receptor   =  +0.00 kcal/mol
DOCKED: USER    (2) Final Total Internal Energy     =  -1.22 kcal/mol
DOCKED: USER    (3) Torsional Free Energy           =  +1.49 kcal/mol
DOCKED: USER    (4) Unbound System's Energy         =  -1.22 kcal/mol
DOCKED: USER
DOCKED: USER
DOCKED: REMARK SMILES O=C(NCC(=O)N1CCC[C@H]1c1ccc(Cl)c(Cl)c1)c1ccc2ccccc2n1
DOCKED: REMARK SMILES IDX 5 1 6 2 4 3 3 4 2 5 1 6 20 8 21 9 29 10 22 11 28 12 23 13
DOCKED: REMARK SMILES IDX 27 14 24 15 26 16 25 17 7 18 8 19 11 20 9 21 10 22 12 23
DOCKED: REMARK SMILES IDX 13 24 19 25 14 26 17 27 15 28 18 29 16 30
DOCKED: REMARK H PARENT 3 7
DOCKED: USER                              x       y       z     vdW  Elec       q    Type
DOCKED: USER                           _______ _______ _______ _____ _____    ______ ____
DOCKED: ROOT
DOCKED: ATOM      1  C   UNL     1     140.897  75.687 221.292 -0.23 -0.07    +0.242 C  
DOCKED: ATOM      2  O   UNL     1     141.093  76.056 222.538 -0.30 +0.07    -0.273 OA 
DOCKED: ENDROOT
DOCKED: BRANCH   1   3
DOCKED: ATOM      3  C   UNL     1     140.095  74.499 221.165 -0.19 -0.04    +0.216 C  
DOCKED: BRANCH   3   4
DOCKED: ATOM      4  N   UNL     1     139.787  73.730 222.321 -0.10 +0.04    -0.342 N  
DOCKED: ATOM      5  C   UNL     1     140.497  72.454 222.419 -0.19 -0.02    +0.270 C  
DOCKED: ATOM      6  O   UNL     1     141.299  72.164 221.487 -0.18 +0.03    -0.268 OA 
DOCKED: ATOM      7  H   UNL     1     139.159  73.910 223.093 -0.54 -0.07    +0.164 HD 
DOCKED: BRANCH   5   8
DOCKED: ATOM      8  C   UNL     1     140.260  71.583 223.560 -0.33 -0.02    +0.128 A  
DOCKED: ATOM      9  C   UNL     1     139.592  70.404 223.328 -0.27 -0.01    +0.035 A  
DOCKED: ATOM     10  N   UNL     1     140.662  71.878 224.814 -0.27 +0.03    -0.243 NA 
DOCKED: ATOM     11  C   UNL     1     139.316  69.508 224.338 -0.33 -0.00    +0.013 A  
DOCKED: ATOM     12  C   UNL     1     140.418  71.037 225.839 -0.53 -0.01    +0.071 A  
DOCKED: ATOM     13  C   UNL     1     139.748  69.853 225.614 -0.46 -0.00    +0.000 A  
DOCKED: ATOM     14  C   UNL     1     140.840  71.364 227.111 -0.71 -0.01    +0.029 A  
DOCKED: ATOM     15  C   UNL     1     139.492  68.981 226.657 -0.53 -0.00    +0.010 A  
DOCKED: ATOM     16  C   UNL     1     140.600  70.518 228.167 -0.62 -0.00    +0.002 A  
DOCKED: ATOM     17  C   UNL     1     139.923  69.331 227.915 -0.63 -0.00    +0.001 A  
DOCKED: ENDBRANCH   5   8
DOCKED: ENDBRANCH   3   4
DOCKED: ENDBRANCH   1   3
DOCKED: BRANCH   1  18
DOCKED: ATOM     18  N   UNL     1     141.506  76.519 220.312 -0.11 +0.16    -0.334 N  
DOCKED: ATOM     19  C   UNL     1     141.926  76.183 218.955 -0.17 -0.05    +0.120 C  
DOCKED: ATOM     20  C   UNL     1     141.803  77.922 220.603 -0.27 -0.07    +0.115 C  
DOCKED: ATOM     21  C   UNL     1     142.586  77.509 218.486 -0.32 -0.02    +0.024 C  
DOCKED: ATOM     22  C   UNL     1     141.790  78.548 219.253 -0.27 -0.02    +0.032 C  
DOCKED: BRANCH  20  23
DOCKED: ATOM     23  C   UNL     1     140.931  78.574 221.573 -0.32 +0.01    -0.024 A  
DOCKED: ATOM     24  C   UNL     1     141.382  79.210 222.731 -0.50 -0.00    +0.007 A  
DOCKED: ATOM     25  C   UNL     1     139.549  78.597 221.389 -0.18 -0.01    +0.028 A  
DOCKED: ATOM     26  C   UNL     1     140.521  79.814 223.623 -0.47 -0.00    +0.022 A  
DOCKED: ATOM     27  C   UNL     1     138.692  79.201 222.281 -0.21 -0.01    +0.060 A  
DOCKED: ATOM     28  C   UNL     1     139.154  79.823 223.417 -0.36 -0.01    +0.059 A  
DOCKED: ATOM     29  Cl  UNL     1     136.955  79.190 221.982 -0.15 +0.01    -0.083 Cl 
DOCKED: ATOM     30  Cl  UNL     1     138.115  80.594 224.566 -0.42 +0.01    -0.083 Cl 
DOCKED: ENDBRANCH  20  23
DOCKED: ENDBRANCH   1  18
DOCKED: TORSDOF 5
DOCKED: TER
DOCKED: ENDMDL
________________________________________________________________________________


    FINAL DOCKED STATE:
    ________________________


Run:   20 / 20
Time taken for this run:   0.034s

DOCKED: MODEL        20
DOCKED: USER    Run = 20
DOCKED: USER
DOCKED: USER    Estimated Free Energy of Binding    =  -7.58 kcal/mol  [=(1)+(2)+(3)-(4)]
DOCKED: USER
DOCKED: USER    (1) Final Intermolecular Energy     =  -9.07 kcal/mol
DOCKED: USER        vdW + Hbond + desolv Energy     =  -9.03 kcal/mol
DOCKED: USER        Electrostatic Energy            =  -0.04 kcal/mol
DOCKED: USER        Moving Ligand-Fixed Receptor    =  -9.07 kcal/mol
DOCKED: USER        Moving Ligand-Moving Receptor   =  +0.00 kcal/mol
DOCKED: USER    (2) Final Total Internal Energy     =  -2.69 kcal/mol
DOCKED: USER    (3) Torsional Free Energy           =  +1.49 kcal/mol
DOCKED: USER    (4) Unbound System's Energy         =  -2.69 kcal/mol
DOCKED: USER
DOCKED: USER
DOCKED: REMARK SMILES O=C(NCC(=O)N1CCC[C@H]1c1ccc(Cl)c(Cl)c1)c1ccc2ccccc2n1
DOCKED: REMARK SMILES IDX 5 1 6 2 4 3 3 4 2 5 1 6 20 8 21 9 29 10 22 11 28 12 23 13
DOCKED: REMARK SMILES IDX 27 14 24 15 26 16 25 17 7 18 8 19 11 20 9 21 10 22 12 23
DOCKED: REMARK SMILES IDX 13 24 19 25 14 26 17 27 15 28 18 29 16 30
DOCKED: REMARK H PARENT 3 7
DOCKED: USER                              x       y       z     vdW  Elec       q    Type
DOCKED: USER                           _______ _______ _______ _____ _____    ______ ____
DOCKED: ROOT
DOCKED: ATOM      1  C   UNL     1     140.947  79.997 220.534 -0.17 -0.09    +0.242 C  
DOCKED: ATOM      2  O   UNL     1     139.876  80.732 220.339 -0.06 +0.07    -0.273 OA 
DOCKED: ENDROOT
DOCKED: BRANCH   1   3
DOCKED: ATOM      3  C   UNL     1     141.339  79.235 219.378 -0.16 -0.11    +0.216 C  
DOCKED: BRANCH   3   4
DOCKED: ATOM      4  N   UNL     1     142.249  78.152 219.523 -0.11 +0.24    -0.342 N  
DOCKED: ATOM      5  C   UNL     1     141.754  76.863 219.037 -0.13 -0.13    +0.270 C  
DOCKED: ATOM      6  O   UNL     1     140.590  76.837 218.545 -0.03 +0.10    -0.268 OA 
DOCKED: ATOM      7  H   UNL     1     143.184  78.114 219.905 -0.39 -0.19    +0.164 HD 
DOCKED: BRANCH   5   8
DOCKED: ATOM      8  C   UNL     1     142.599  75.683 219.134 -0.23 -0.06    +0.128 A  
DOCKED: ATOM      9  C   UNL     1     142.268  74.602 218.353 -0.11 -0.01    +0.035 A  
DOCKED: ATOM     10  N   UNL     1     143.675  75.607 219.944 -0.27 +0.15    -0.243 NA 
DOCKED: ATOM     11  C   UNL     1     143.002  73.435 218.368 -0.11 -0.00    +0.013 A  
DOCKED: ATOM     12  C   UNL     1     144.428  74.490 219.999 -0.40 -0.03    +0.071 A  
DOCKED: ATOM     13  C   UNL     1     144.101  73.401 219.218 -0.27 -0.00    +0.000 A  
DOCKED: ATOM     14  C   UNL     1     145.522  74.440 220.837 -0.48 -0.01    +0.029 A  
DOCKED: ATOM     15  C   UNL     1     144.866  72.249 219.264 -0.30 +0.00    +0.010 A  
DOCKED: ATOM     16  C   UNL     1     146.301  73.308 220.904 -0.68 +0.00    +0.002 A  
DOCKED: ATOM     17  C   UNL     1     145.952  72.224 220.107 -0.42 +0.00    +0.001 A  
DOCKED: ENDBRANCH   5   8
DOCKED: ENDBRANCH   3   4
DOCKED: ENDBRANCH   1   3
DOCKED: BRANCH   1  18
DOCKED: ATOM     18  N   UNL     1     141.513  80.088 221.836 -0.18 +0.11    -0.334 N  
DOCKED: ATOM     19  C   UNL     1     142.034  81.262 222.530 -0.42 -0.03    +0.120 C  
DOCKED: ATOM     20  C   UNL     1     141.645  78.899 222.679 -0.45 -0.05    +0.115 C  
DOCKED: ATOM     21  C   UNL     1     142.573  80.640 223.849 -0.67 -0.00    +0.024 C  
DOCKED: ATOM     22  C   UNL     1     141.634  79.467 224.054 -0.50 -0.01    +0.032 C  
DOCKED: BRANCH  20  23
DOCKED: ATOM     23  C   UNL     1     140.660  77.845 222.459 -0.42 +0.01    -0.024 A  
DOCKED: ATOM     24  C   UNL     1     139.280  78.032 222.545 -0.31 -0.00    +0.007 A  
DOCKED: ATOM     25  C   UNL     1     141.061  76.549 222.140 -0.36 -0.01    +0.028 A  
DOCKED: ATOM     26  C   UNL     1     138.384  77.006 222.329 -0.28 -0.00    +0.022 A  
DOCKED: ATOM     27  C   UNL     1     140.164  75.527 221.925 -0.32 -0.01    +0.060 A  
DOCKED: ATOM     28  C   UNL     1     138.807  75.728 222.014 -0.27 -0.01    +0.059 A  
DOCKED: ATOM     29  Cl  UNL     1     140.745  73.912 221.524 -0.36 +0.01    -0.083 Cl 
DOCKED: ATOM     30  Cl  UNL     1     137.642  74.475 221.752 -0.21 +0.02    -0.083 Cl 
DOCKED: ENDBRANCH  20  23
DOCKED: ENDBRANCH   1  18
DOCKED: TORSDOF 5
DOCKED: TER
DOCKED: ENDMDL
________________________________________________________________________________


    CLUSTERING HISTOGRAM
    ____________________


________________________________________________________________________________
     |           |     |           |     |
Clus | Lowest    | Run | Mean      | Num | Histogram
-ter | Binding   |     | Binding   | in  |
Rank | Energy    |     | Energy    | Clus|    5    10   15   20   25   30   35
_____|___________|_____|___________|_____|____:____|____:____|____:____|____:___
   1 |     -9.34 |   5 |     -9.15 |   3 |###
   2 |     -8.74 |   1 |     -8.71 |   4 |####
   3 |     -8.54 |   8 |     -8.40 |   5 |#####
   4 |     -7.63 |   9 |     -7.58 |   7 |#######
   5 |     -7.55 |   2 |     -7.55 |   1 |#
_____|___________|_____|___________|_____|______________________________________


    RMSD TABLE
    __________


_______________________________________________________________________
     |      |      |           |         |                 |
Rank | Sub- | Run  | Binding   | Cluster | Reference       | Grep
     | Rank |      | Energy    | RMSD    | RMSD            | Pattern
_____|______|______|___________|_________|_________________|___________
   1      1      5       -9.34      0.00    271.19           RANKING
   1      2     13       -9.33      0.04    271.17           RANKING
   1      3     19       -8.76      0.85    271.07           RANKING
   2      1      1       -8.74      0.00    270.64           RANKING
   2      2     10       -8.71      0.34    270.51           RANKING
   2      3      6       -8.70      0.36    270.49           RANKING
   2      4      3       -8.70      0.12    270.60           RANKING
   3      1      8       -8.54      0.00    270.60           RANKING
   3      2     12       -8.51      0.12    270.60           RANKING
   3      3     11       -8.36      1.41    270.52           RANKING
   3      4      4       -8.32      1.46    270.51           RANKING
   3      5     17       -8.25      1.39    270.54           RANKING
   4      1      9       -7.63      0.00    270.67           RANKING
   4      2     14       -7.62      0.04    270.67           RANKING
   4      3     18       -7.61      0.04    270.68           RANKING
   4      4      7       -7.59      0.07    270.68           RANKING
   4      5     20       -7.58      0.10    270.63           RANKING
   4      6     15       -7.54      0.17    270.61           RANKING
   4      7     16       -7.49      0.35    270.55           RANKING
   5      1      2       -7.55      0.00    270.71           RANKING

Run time 0.652 sec
Idle time 0.000 sec
