AutoDock-GPU version: v1.6

**********************************************************
**    AutoDock-GPU AUTODOCKTOOLS-COMPATIBLE DLG FILE    **
**********************************************************


    DOCKING PARAMETERS
    ________________________


Ligand file:                               /home/a/REINVENT4/ReinventStudies/pleaseWork/justmol2mol_4_Compounds_ontop/graph-dock/graph-DockGPU/node-autodockgpu/inputs/ZMXWXWQGWYAOJT-NAUSHLRJNA-N.pdbqt
Grid fld file:                             /home/a/REINVENT4/ReinventStudies/mols/Rad51/maps/rad51_receptor.maps.fld

Random seed:                               42
Number of runs:                            20
Number of energy evaluations:              1132076
Number of generations:                     42000
Size of population:                        150
Rate of crossover:                         80.000000%
Tournament selection probability limit:    60.000000%
Rate of mutation:                          2.000000%
Maximal allowed delta movement:            +/- 6.000000A
Maximal allowed delta angle:               +/- 90.000000

Rate of local search:                      100.000000%
Maximal number of local search iterations: 300
Rho lower bound:                           0.010000
Spread of local search delta movement:     2.000000A
Spread of local search delta angle:        74.999999
Limit of consecutive successes/failures:   4

Handle symmetry during clustering:         YES
RMSD tolerance:                            2.000000A

Program call in command line was:          /home/a/REINVENT4/ReinventStudies/adgpu-v1.6_linux_x64_cuda12_128wi --filelist batch.txt --heuristics 1 --nrun 20 --psize 150 --lsit 300 --seed 42 --heurmax 12000000 


    GRID PARAMETERS
    ________________________


Receptor name:                             rad51_receptor
Number of grid points (x, y, z):           53, 53, 53
Grid center (x, y, z):                     139.950000, 75.640000, 221.970000A
Grid size (x, y, z):                       19.500000, 19.500000, 19.500000A
Grid spacing:                              0.375000A


    LIGAND PARAMETERS
    ________________________


Ligand name:                               /home/a/REINVENT4/ReinventStudies/pleaseWork/justmol2mol_4_Compounds_ontop/graph-dock/graph-DockGPU/node-autodockgpu/inputs/ZMXWXWQGWYAOJT-NAUSHLRJNA-N
Number of atoms:                           30
Number of rotatable bonds:                 5
Number of atom types:                      7


    DUMMY DATA (only for ADT-compatibility)
    ________________________


DPF> outlev 1
DPF> ga_run 20
DPF> fld /home/a/REINVENT4/ReinventStudies/mols/Rad51/maps/rad51_receptor.maps.fld
DPF> move /home/a/REINVENT4/ReinventStudies/pleaseWork/justmol2mol_4_Compounds_ontop/graph-dock/graph-DockGPU/node-autodockgpu/inputs/ZMXWXWQGWYAOJT-NAUSHLRJNA-N.pdbqt


    COUNTER STATES
    ________________________


Number of energy evaluations performed:    563173
Number of generations used:                35


    INPUT LIGAND PDBQT FILE:
    ________________________


INPUT-LIGAND-PDBQT: REMARK SMILES O=C(NCC(=O)N1CCCC[C@H]1c1cccc(Cl)c1)c1ccc2ccccc2n1
INPUT-LIGAND-PDBQT: REMARK SMILES IDX 5 1 6 2 4 3 3 4 2 5 1 6 20 8 21 9 29 10 22 11 28 12 23 13
INPUT-LIGAND-PDBQT: REMARK SMILES IDX 27 14 24 15 26 16 25 17 7 18 8 19 12 20 9 21 11 22 10 23
INPUT-LIGAND-PDBQT: REMARK SMILES IDX 13 24 14 25 19 26 15 27 17 28 16 29 18 30
INPUT-LIGAND-PDBQT: REMARK H PARENT 3 7
INPUT-LIGAND-PDBQT: ROOT
INPUT-LIGAND-PDBQT: ATOM      1  C   UNL     1      -0.773   0.358  -0.073  1.00  0.00     0.242 C 
INPUT-LIGAND-PDBQT: ATOM      2  O   UNL     1      -0.264  -0.304   0.875  1.00  0.00    -0.273 OA
INPUT-LIGAND-PDBQT: ENDROOT
INPUT-LIGAND-PDBQT: BRANCH   1   3
INPUT-LIGAND-PDBQT: ATOM      3  C   UNL     1       0.093   0.902  -1.143  1.00  0.00     0.216 C 
INPUT-LIGAND-PDBQT: BRANCH   3   4
INPUT-LIGAND-PDBQT: ATOM      4  N   UNL     1       1.490   0.574  -0.935  1.00  0.00    -0.342 N 
INPUT-LIGAND-PDBQT: ATOM      5  C   UNL     1       2.158   1.014   0.249  1.00  0.00     0.270 C 
INPUT-LIGAND-PDBQT: ATOM      6  O   UNL     1       1.561   1.690   1.134  1.00  0.00    -0.268 OA
INPUT-LIGAND-PDBQT: ATOM      7  H   UNL     1       2.036   0.008  -1.650  1.00  0.00     0.164 HD
INPUT-LIGAND-PDBQT: BRANCH   5   8
INPUT-LIGAND-PDBQT: ATOM      8  C   UNL     1       3.569   0.650   0.397  1.00  0.00     0.128 A 
INPUT-LIGAND-PDBQT: ATOM      9  C   UNL     1       4.264   1.051   1.526  1.00  0.00     0.035 A 
INPUT-LIGAND-PDBQT: ATOM     10  N   UNL     1       4.231  -0.069  -0.528  1.00  0.00    -0.243 NA
INPUT-LIGAND-PDBQT: ATOM     11  C   UNL     1       5.599   0.726   1.702  1.00  0.00     0.013 A 
INPUT-LIGAND-PDBQT: ATOM     12  C   UNL     1       5.527  -0.414  -0.411  1.00  0.00     0.071 A 
INPUT-LIGAND-PDBQT: ATOM     13  C   UNL     1       6.220  -0.012   0.717  1.00  0.00     0.000 A 
INPUT-LIGAND-PDBQT: ATOM     14  C   UNL     1       6.125  -1.158  -1.419  1.00  0.00     0.029 A 
INPUT-LIGAND-PDBQT: ATOM     15  C   UNL     1       7.552  -0.351   0.868  1.00  0.00     0.010 A 
INPUT-LIGAND-PDBQT: ATOM     16  C   UNL     1       7.462  -1.494  -1.261  1.00  0.00     0.002 A 
INPUT-LIGAND-PDBQT: ATOM     17  C   UNL     1       8.153  -1.094  -0.138  1.00  0.00     0.001 A 
INPUT-LIGAND-PDBQT: ENDBRANCH   5   8
INPUT-LIGAND-PDBQT: ENDBRANCH   3   4
INPUT-LIGAND-PDBQT: ENDBRANCH   1   3
INPUT-LIGAND-PDBQT: BRANCH   1  18
INPUT-LIGAND-PDBQT: ATOM     18  N   UNL     1      -2.168   0.614  -0.165  1.00  0.00    -0.334 N 
INPUT-LIGAND-PDBQT: ATOM     19  C   UNL     1      -2.753   1.381  -1.265  1.00  0.00     0.120 C 
INPUT-LIGAND-PDBQT: ATOM     20  C   UNL     1      -3.099   0.124   0.835  1.00  0.00     0.115 C 
INPUT-LIGAND-PDBQT: ATOM     21  C   UNL     1      -3.528   2.578  -0.698  1.00  0.00     0.022 C 
INPUT-LIGAND-PDBQT: ATOM     22  C   UNL     1      -3.974   1.265   1.302  1.00  0.00     0.030 C 
INPUT-LIGAND-PDBQT: ATOM     23  C   UNL     1      -4.632   1.982   0.157  1.00  0.00     0.004 C 
INPUT-LIGAND-PDBQT: BRANCH  20  24
INPUT-LIGAND-PDBQT: ATOM     24  C   UNL     1      -3.888  -1.038   0.377  1.00  0.00    -0.024 A 
INPUT-LIGAND-PDBQT: ATOM     25  C   UNL     1      -3.215  -2.048  -0.281  1.00  0.00     0.006 A 
INPUT-LIGAND-PDBQT: ATOM     26  C   UNL     1      -5.257  -1.146   0.581  1.00  0.00     0.026 A 
INPUT-LIGAND-PDBQT: ATOM     27  C   UNL     1      -3.903  -3.176  -0.741  1.00  0.00     0.002 A 
INPUT-LIGAND-PDBQT: ATOM     28  C   UNL     1      -5.904  -2.272   0.114  1.00  0.00     0.041 A 
INPUT-LIGAND-PDBQT: ATOM     29  C   UNL     1      -5.265  -3.294  -0.543  1.00  0.00     0.020 A 
INPUT-LIGAND-PDBQT: ATOM     30  Cl  UNL     1      -7.642  -2.447   0.353  1.00  0.00    -0.084 Cl
INPUT-LIGAND-PDBQT: ENDBRANCH  20  24
INPUT-LIGAND-PDBQT: ENDBRANCH   1  18
INPUT-LIGAND-PDBQT: TORSDOF 5


    FINAL DOCKED STATE:
    ________________________


Run:   1 / 20
Time taken for this run:   0.026s

DOCKED: MODEL        1
DOCKED: USER    Run = 1
DOCKED: USER
DOCKED: USER    Estimated Free Energy of Binding    =  -9.05 kcal/mol  [=(1)+(2)+(3)-(4)]
DOCKED: USER
DOCKED: USER    (1) Final Intermolecular Energy     = -10.54 kcal/mol
DOCKED: USER        vdW + Hbond + desolv Energy     = -10.47 kcal/mol
DOCKED: USER        Electrostatic Energy            =  -0.07 kcal/mol
DOCKED: USER        Moving Ligand-Fixed Receptor    = -10.54 kcal/mol
DOCKED: USER        Moving Ligand-Moving Receptor   =  +0.00 kcal/mol
DOCKED: USER    (2) Final Total Internal Energy     =  -1.78 kcal/mol
DOCKED: USER    (3) Torsional Free Energy           =  +1.49 kcal/mol
DOCKED: USER    (4) Unbound System's Energy         =  -1.78 kcal/mol
DOCKED: USER
DOCKED: USER
DOCKED: REMARK SMILES O=C(NCC(=O)N1CCCC[C@H]1c1cccc(Cl)c1)c1ccc2ccccc2n1
DOCKED: REMARK SMILES IDX 5 1 6 2 4 3 3 4 2 5 1 6 20 8 21 9 29 10 22 11 28 12 23 13
DOCKED: REMARK SMILES IDX 27 14 24 15 26 16 25 17 7 18 8 19 12 20 9 21 11 22 10 23
DOCKED: REMARK SMILES IDX 13 24 14 25 19 26 15 27 17 28 16 29 18 30
DOCKED: REMARK H PARENT 3 7
DOCKED: USER                              x       y       z     vdW  Elec       q    Type
DOCKED: USER                           _______ _______ _______ _____ _____    ______ ____
DOCKED: ROOT
DOCKED: ATOM      1  C   UNL     1     140.932  75.252 221.255 -0.23 -0.06    +0.242 C  
DOCKED: ATOM      2  O   UNL     1     140.930  76.000 222.274 -0.40 +0.07    -0.273 OA 
DOCKED: ENDROOT
DOCKED: BRANCH   1   3
DOCKED: ATOM      3  C   UNL     1     139.892  74.211 221.101 -0.17 -0.04    +0.216 C  
DOCKED: BRANCH   3   4
DOCKED: ATOM      4  N   UNL     1     139.737  73.411 222.300 -0.14 +0.05    -0.342 N  
DOCKED: ATOM      5  C   UNL     1     140.436  72.171 222.426 -0.21 -0.03    +0.270 C  
DOCKED: ATOM      6  O   UNL     1     141.195  71.743 221.512 -0.16 +0.03    -0.268 OA 
DOCKED: ATOM      7  H   UNL     1     139.110  73.728 223.097 -0.53 -0.08    +0.164 HD 
DOCKED: BRANCH   5   8
DOCKED: ATOM      8  C   UNL     1     140.235  71.411 223.663 -0.33 -0.02    +0.128 A  
DOCKED: ATOM      9  C   UNL     1     139.538  70.215 223.625 -0.29 -0.01    +0.035 A  
DOCKED: ATOM     10  N   UNL     1     140.706  71.829 224.852 -0.28 +0.03    -0.243 NA 
DOCKED: ATOM     11  C   UNL     1     139.328  69.469 224.773 -0.37 -0.00    +0.013 A  
DOCKED: ATOM     12  C   UNL     1     140.533  71.146 225.999 -0.55 -0.01    +0.071 A  
DOCKED: ATOM     13  C   UNL     1     139.835  69.952 225.960 -0.48 -0.00    +0.000 A  
DOCKED: ATOM     14  C   UNL     1     141.056  71.657 227.179 -0.76 -0.01    +0.029 A  
DOCKED: ATOM     15  C   UNL     1     139.641  69.225 227.120 -0.56 -0.00    +0.010 A  
DOCKED: ATOM     16  C   UNL     1     140.856  70.923 228.340 -0.63 -0.00    +0.002 A  
DOCKED: ATOM     17  C   UNL     1     140.162  69.734 228.302 -0.61 -0.00    +0.001 A  
DOCKED: ENDBRANCH   5   8
DOCKED: ENDBRANCH   3   4
DOCKED: ENDBRANCH   1   3
DOCKED: BRANCH   1  18
DOCKED: ATOM     18  N   UNL     1     141.906  75.364 220.226 -0.11 +0.13    -0.334 N  
DOCKED: ATOM     19  C   UNL     1     142.757  76.544 220.077 -0.17 -0.08    +0.120 C  
DOCKED: ATOM     20  C   UNL     1     142.113  74.303 219.257 -0.13 -0.03    +0.115 C  
DOCKED: ATOM     21  C   UNL     1     142.576  77.131 218.671 -0.32 -0.01    +0.022 C  
DOCKED: ATOM     22  C   UNL     1     142.084  74.889 217.863 -0.09 -0.01    +0.030 C  
DOCKED: ATOM     23  C   UNL     1     143.031  76.045 217.713 -0.24 -0.00    +0.004 C  
DOCKED: BRANCH  20  24
DOCKED: ATOM     24  C   UNL     1     143.337  73.515 219.509 -0.24 +0.01    -0.024 A  
DOCKED: ATOM     25  C   UNL     1     143.574  72.424 218.695 -0.13 -0.00    +0.006 A  
DOCKED: ATOM     26  C   UNL     1     144.239  73.826 220.517 -0.44 -0.01    +0.026 A  
DOCKED: ATOM     27  C   UNL     1     144.714  71.635 218.881 -0.23 +0.00    +0.002 A  
DOCKED: ATOM     28  C   UNL     1     145.353  73.027 220.672 -0.55 -0.00    +0.041 A  
DOCKED: ATOM     29  C   UNL     1     145.618  71.937 219.881 -0.33 +0.01    +0.020 A  
DOCKED: ATOM     30  Cl  UNL     1     146.523  73.389 221.941 -0.79 +0.01    -0.084 Cl 
DOCKED: ENDBRANCH  20  24
DOCKED: ENDBRANCH   1  18
DOCKED: TORSDOF 5
DOCKED: TER
DOCKED: ENDMDL
________________________________________________________________________________


    FINAL DOCKED STATE:
    ________________________


Run:   2 / 20
Time taken for this run:   0.026s

DOCKED: MODEL        2
DOCKED: USER    Run = 2
DOCKED: USER
DOCKED: USER    Estimated Free Energy of Binding    =  -9.28 kcal/mol  [=(1)+(2)+(3)-(4)]
DOCKED: USER
DOCKED: USER    (1) Final Intermolecular Energy     = -10.77 kcal/mol
DOCKED: USER        vdW + Hbond + desolv Energy     = -10.66 kcal/mol
DOCKED: USER        Electrostatic Energy            =  -0.11 kcal/mol
DOCKED: USER        Moving Ligand-Fixed Receptor    = -10.77 kcal/mol
DOCKED: USER        Moving Ligand-Moving Receptor   =  +0.00 kcal/mol
DOCKED: USER    (2) Final Total Internal Energy     =  -1.65 kcal/mol
DOCKED: USER    (3) Torsional Free Energy           =  +1.49 kcal/mol
DOCKED: USER    (4) Unbound System's Energy         =  -1.65 kcal/mol
DOCKED: USER
DOCKED: USER
DOCKED: REMARK SMILES O=C(NCC(=O)N1CCCC[C@H]1c1cccc(Cl)c1)c1ccc2ccccc2n1
DOCKED: REMARK SMILES IDX 5 1 6 2 4 3 3 4 2 5 1 6 20 8 21 9 29 10 22 11 28 12 23 13
DOCKED: REMARK SMILES IDX 27 14 24 15 26 16 25 17 7 18 8 19 12 20 9 21 11 22 10 23
DOCKED: REMARK SMILES IDX 13 24 14 25 19 26 15 27 17 28 16 29 18 30
DOCKED: REMARK H PARENT 3 7
DOCKED: USER                              x       y       z     vdW  Elec       q    Type
DOCKED: USER                           _______ _______ _______ _____ _____    ______ ____
DOCKED: ROOT
DOCKED: ATOM      1  C   UNL     1     139.264  75.764 221.436 -0.18 -0.05    +0.242 C  
DOCKED: ATOM      2  O   UNL     1     138.188  75.865 222.090 -0.19 +0.07    -0.273 OA 
DOCKED: ENDROOT
DOCKED: BRANCH   1   3
DOCKED: ATOM      3  C   UNL     1     139.872  74.432 221.216 -0.19 -0.04    +0.216 C  
DOCKED: BRANCH   3   4
DOCKED: ATOM      4  N   UNL     1     139.686  73.552 222.353 -0.12 +0.05    -0.342 N  
DOCKED: ATOM      5  C   UNL     1     140.514  72.397 222.505 -0.19 -0.02    +0.270 C  
DOCKED: ATOM      6  O   UNL     1     141.416  72.114 221.667 -0.19 +0.02    -0.268 OA 
DOCKED: ATOM      7  H   UNL     1     138.940  73.747 223.085 -0.54 -0.09    +0.164 HD 
DOCKED: BRANCH   5   8
DOCKED: ATOM      8  C   UNL     1     140.273  71.549 223.675 -0.34 -0.02    +0.128 A  
DOCKED: ATOM      9  C   UNL     1     139.579  70.360 223.526 -0.29 -0.01    +0.035 A  
DOCKED: ATOM     10  N   UNL     1     140.704  71.878 224.906 -0.28 +0.03    -0.243 NA 
DOCKED: ATOM     11  C   UNL     1     139.332  69.531 224.609 -0.35 -0.00    +0.013 A  
DOCKED: ATOM     12  C   UNL     1     140.494  71.113 225.994 -0.55 -0.01    +0.071 A  
DOCKED: ATOM     13  C   UNL     1     139.799  69.925 225.844 -0.47 -0.00    +0.000 A  
DOCKED: ATOM     14  C   UNL     1     140.977  71.535 227.225 -0.75 -0.01    +0.029 A  
DOCKED: ATOM     15  C   UNL     1     139.568  69.116 226.941 -0.55 -0.00    +0.010 A  
DOCKED: ATOM     16  C   UNL     1     140.740  70.719 228.322 -0.61 -0.00    +0.002 A  
DOCKED: ATOM     17  C   UNL     1     140.049  69.536 228.173 -0.63 -0.00    +0.001 A  
DOCKED: ENDBRANCH   5   8
DOCKED: ENDBRANCH   3   4
DOCKED: ENDBRANCH   1   3
DOCKED: BRANCH   1  18
DOCKED: ATOM     18  N   UNL     1     139.936  76.890 220.889 -0.06 +0.10    -0.334 N  
DOCKED: ATOM     19  C   UNL     1     139.378  77.676 219.788 -0.06 -0.03    +0.120 C  
DOCKED: ATOM     20  C   UNL     1     141.224  77.328 221.395 -0.25 -0.06    +0.115 C  
DOCKED: ATOM     21  C   UNL     1     140.375  77.700 218.621 -0.08 -0.01    +0.022 C  
DOCKED: ATOM     22  C   UNL     1     142.182  77.499 220.239 -0.27 -0.02    +0.030 C  
DOCKED: ATOM     23  C   UNL     1     141.620  78.382 219.161 -0.25 -0.00    +0.004 C  
DOCKED: BRANCH  20  24
DOCKED: ATOM     24  C   UNL     1     141.137  78.539 222.237 -0.42 +0.01    -0.024 A  
DOCKED: ATOM     25  C   UNL     1     142.312  79.210 222.514 -0.53 -0.00    +0.006 A  
DOCKED: ATOM     26  C   UNL     1     139.939  79.015 222.750 -0.35 -0.01    +0.026 A  
DOCKED: ATOM     27  C   UNL     1     142.300  80.363 223.305 -0.65 -0.00    +0.002 A  
DOCKED: ATOM     28  C   UNL     1     139.963  80.155 223.527 -0.42 -0.01    +0.041 A  
DOCKED: ATOM     29  C   UNL     1     141.113  80.846 223.821 -0.47 -0.00    +0.020 A  
DOCKED: ATOM     30  Cl  UNL     1     138.462  80.792 224.198 -0.46 +0.01    -0.084 Cl 
DOCKED: ENDBRANCH  20  24
DOCKED: ENDBRANCH   1  18
DOCKED: TORSDOF 5
DOCKED: TER
DOCKED: ENDMDL
________________________________________________________________________________


    FINAL DOCKED STATE:
    ________________________


Run:   3 / 20
Time taken for this run:   0.026s

DOCKED: MODEL        3
DOCKED: USER    Run = 3
DOCKED: USER
DOCKED: USER    Estimated Free Energy of Binding    =  -9.26 kcal/mol  [=(1)+(2)+(3)-(4)]
DOCKED: USER
DOCKED: USER    (1) Final Intermolecular Energy     = -10.75 kcal/mol
DOCKED: USER        vdW + Hbond + desolv Energy     = -10.63 kcal/mol
DOCKED: USER        Electrostatic Energy            =  -0.12 kcal/mol
DOCKED: USER        Moving Ligand-Fixed Receptor    = -10.75 kcal/mol
DOCKED: USER        Moving Ligand-Moving Receptor   =  +0.00 kcal/mol
DOCKED: USER    (2) Final Total Internal Energy     =  -1.53 kcal/mol
DOCKED: USER    (3) Torsional Free Energy           =  +1.49 kcal/mol
DOCKED: USER    (4) Unbound System's Energy         =  -1.53 kcal/mol
DOCKED: USER
DOCKED: USER
DOCKED: REMARK SMILES O=C(NCC(=O)N1CCCC[C@H]1c1cccc(Cl)c1)c1ccc2ccccc2n1
DOCKED: REMARK SMILES IDX 5 1 6 2 4 3 3 4 2 5 1 6 20 8 21 9 29 10 22 11 28 12 23 13
DOCKED: REMARK SMILES IDX 27 14 24 15 26 16 25 17 7 18 8 19 12 20 9 21 11 22 10 23
DOCKED: REMARK SMILES IDX 13 24 14 25 19 26 15 27 17 28 16 29 18 30
DOCKED: REMARK H PARENT 3 7
DOCKED: USER                              x       y       z     vdW  Elec       q    Type
DOCKED: USER                           _______ _______ _______ _____ _____    ______ ____
DOCKED: ROOT
DOCKED: ATOM      1  C   UNL     1     139.456  75.958 221.609 -0.21 -0.05    +0.242 C  
DOCKED: ATOM      2  O   UNL     1     138.629  76.167 222.541 -0.26 +0.06    -0.273 OA 
DOCKED: ENDROOT
DOCKED: BRANCH   1   3
DOCKED: ATOM      3  C   UNL     1     139.819  74.571 221.240 -0.19 -0.04    +0.216 C  
DOCKED: BRANCH   3   4
DOCKED: ATOM      4  N   UNL     1     139.650  73.649 222.346 -0.12 +0.05    -0.342 N  
DOCKED: ATOM      5  C   UNL     1     140.505  72.511 222.463 -0.18 -0.02    +0.270 C  
DOCKED: ATOM      6  O   UNL     1     141.418  72.278 221.621 -0.20 +0.02    -0.268 OA 
DOCKED: ATOM      7  H   UNL     1     138.896  73.801 223.080 -0.54 -0.10    +0.164 HD 
DOCKED: BRANCH   5   8
DOCKED: ATOM      8  C   UNL     1     140.280  71.618 223.603 -0.33 -0.02    +0.128 A  
DOCKED: ATOM      9  C   UNL     1     139.596  70.429 223.415 -0.28 -0.01    +0.035 A  
DOCKED: ATOM     10  N   UNL     1     140.716  71.906 224.843 -0.25 +0.03    -0.243 NA 
DOCKED: ATOM     11  C   UNL     1     139.364  69.559 224.468 -0.34 -0.00    +0.013 A  
DOCKED: ATOM     12  C   UNL     1     140.520  71.100 225.903 -0.54 -0.01    +0.071 A  
DOCKED: ATOM     13  C   UNL     1     139.836  69.912 225.715 -0.47 -0.00    +0.000 A  
DOCKED: ATOM     14  C   UNL     1     141.008  71.482 227.146 -0.73 -0.00    +0.029 A  
DOCKED: ATOM     15  C   UNL     1     139.620  69.061 226.783 -0.54 -0.00    +0.010 A  
DOCKED: ATOM     16  C   UNL     1     140.786  70.623 228.213 -0.62 -0.00    +0.002 A  
DOCKED: ATOM     17  C   UNL     1     140.105  69.440 228.026 -0.63 -0.00    +0.001 A  
DOCKED: ENDBRANCH   5   8
DOCKED: ENDBRANCH   3   4
DOCKED: ENDBRANCH   1   3
DOCKED: BRANCH   1  18
DOCKED: ATOM     18  N   UNL     1     140.072  77.013 220.882 -0.06 +0.10    -0.334 N  
DOCKED: ATOM     19  C   UNL     1     139.375  77.746 219.825 -0.06 -0.03    +0.120 C  
DOCKED: ATOM     20  C   UNL     1     141.437  77.425 221.150 -0.25 -0.06    +0.115 C  
DOCKED: ATOM     21  C   UNL     1     140.176  77.645 218.520 -0.07 -0.01    +0.022 C  
DOCKED: ATOM     22  C   UNL     1     142.207  77.473 219.849 -0.30 -0.02    +0.030 C  
DOCKED: ATOM     23  C   UNL     1     141.513  78.305 218.808 -0.22 -0.00    +0.004 C  
DOCKED: BRANCH  20  24
DOCKED: ATOM     24  C   UNL     1     141.526  78.694 221.902 -0.41 +0.01    -0.024 A  
DOCKED: ATOM     25  C   UNL     1     141.853  78.621 223.241 -0.56 -0.00    +0.006 A  
DOCKED: ATOM     26  C   UNL     1     141.295  79.933 221.319 -0.34 -0.01    +0.026 A  
DOCKED: ATOM     27  C   UNL     1     141.953  79.785 224.011 -0.55 -0.00    +0.002 A  
DOCKED: ATOM     28  C   UNL     1     141.401  81.060 222.107 -0.42 -0.01    +0.041 A  
DOCKED: ATOM     29  C   UNL     1     141.725  81.023 223.441 -0.57 -0.00    +0.020 A  
DOCKED: ATOM     30  Cl  UNL     1     141.115  82.652 221.405 -0.37 +0.01    -0.084 Cl 
DOCKED: ENDBRANCH  20  24
DOCKED: ENDBRANCH   1  18
DOCKED: TORSDOF 5
DOCKED: TER
DOCKED: ENDMDL
________________________________________________________________________________


    FINAL DOCKED STATE:
    ________________________


Run:   4 / 20
Time taken for this run:   0.026s

DOCKED: MODEL        4
DOCKED: USER    Run = 4
DOCKED: USER
DOCKED: USER    Estimated Free Energy of Binding    =  -9.09 kcal/mol  [=(1)+(2)+(3)-(4)]
DOCKED: USER
DOCKED: USER    (1) Final Intermolecular Energy     = -10.58 kcal/mol
DOCKED: USER        vdW + Hbond + desolv Energy     = -10.50 kcal/mol
DOCKED: USER        Electrostatic Energy            =  -0.08 kcal/mol
DOCKED: USER        Moving Ligand-Fixed Receptor    = -10.58 kcal/mol
DOCKED: USER        Moving Ligand-Moving Receptor   =  +0.00 kcal/mol
DOCKED: USER    (2) Final Total Internal Energy     =  -1.38 kcal/mol
DOCKED: USER    (3) Torsional Free Energy           =  +1.49 kcal/mol
DOCKED: USER    (4) Unbound System's Energy         =  -1.38 kcal/mol
DOCKED: USER
DOCKED: USER
DOCKED: REMARK SMILES O=C(NCC(=O)N1CCCC[C@H]1c1cccc(Cl)c1)c1ccc2ccccc2n1
DOCKED: REMARK SMILES IDX 5 1 6 2 4 3 3 4 2 5 1 6 20 8 21 9 29 10 22 11 28 12 23 13
DOCKED: REMARK SMILES IDX 27 14 24 15 26 16 25 17 7 18 8 19 12 20 9 21 11 22 10 23
DOCKED: REMARK SMILES IDX 13 24 14 25 19 26 15 27 17 28 16 29 18 30
DOCKED: REMARK H PARENT 3 7
DOCKED: USER                              x       y       z     vdW  Elec       q    Type
DOCKED: USER                           _______ _______ _______ _____ _____    ______ ____
DOCKED: ROOT
DOCKED: ATOM      1  C   UNL     1     140.899  74.815 220.789 -0.18 -0.06    +0.242 C  
DOCKED: ATOM      2  O   UNL     1     142.017  74.268 221.004 -0.22 +0.06    -0.273 OA 
DOCKED: ENDROOT
DOCKED: BRANCH   1   3
DOCKED: ATOM      3  C   UNL     1     139.649  74.050 220.994 -0.15 -0.04    +0.216 C  
DOCKED: BRANCH   3   4
DOCKED: ATOM      4  N   UNL     1     139.654  73.321 222.248 -0.15 +0.06    -0.342 N  
DOCKED: ATOM      5  C   UNL     1     140.133  71.976 222.290 -0.20 -0.04    +0.270 C  
DOCKED: ATOM      6  O   UNL     1     140.558  71.391 221.254 -0.11 +0.04    -0.268 OA 
DOCKED: ATOM      7  H   UNL     1     139.306  73.769 223.147 -0.51 -0.06    +0.164 HD 
DOCKED: BRANCH   5   8
DOCKED: ATOM      8  C   UNL     1     140.110  71.296 223.588 -0.32 -0.02    +0.128 A  
DOCKED: ATOM      9  C   UNL     1     139.589  70.016 223.680 -0.27 -0.01    +0.035 A  
DOCKED: ATOM     10  N   UNL     1     140.580  71.868 224.711 -0.27 +0.03    -0.243 NA 
DOCKED: ATOM     11  C   UNL     1     139.550  69.341 224.889 -0.38 -0.00    +0.013 A  
DOCKED: ATOM     12  C   UNL     1     140.569  71.261 225.913 -0.55 -0.01    +0.071 A  
DOCKED: ATOM     13  C   UNL     1     140.048  69.982 226.004 -0.50 -0.00    +0.000 A  
DOCKED: ATOM     14  C   UNL     1     141.077  71.932 227.017 -0.77 -0.01    +0.029 A  
DOCKED: ATOM     15  C   UNL     1     140.022  69.331 227.223 -0.58 -0.00    +0.010 A  
DOCKED: ATOM     16  C   UNL     1     141.047  71.272 228.238 -0.73 -0.00    +0.002 A  
DOCKED: ATOM     17  C   UNL     1     140.528  69.999 228.329 -0.58 -0.00    +0.001 A  
DOCKED: ENDBRANCH   5   8
DOCKED: ENDBRANCH   3   4
DOCKED: ENDBRANCH   1   3
DOCKED: BRANCH   1  18
DOCKED: ATOM     18  N   UNL     1     140.778  76.161 220.347 -0.07 +0.11    -0.334 N  
DOCKED: ATOM     19  C   UNL     1     139.656  76.619 219.529 -0.06 -0.03    +0.120 C  
DOCKED: ATOM     20  C   UNL     1     141.770  77.165 220.687 -0.19 -0.07    +0.115 C  
DOCKED: ATOM     21  C   UNL     1     140.189  77.232 218.227 -0.05 -0.01    +0.022 C  
DOCKED: ATOM     22  C   UNL     1     142.203  77.883 219.429 -0.28 -0.02    +0.030 C  
DOCKED: ATOM     23  C   UNL     1     141.035  78.420 218.651 -0.16 -0.00    +0.004 C  
DOCKED: BRANCH  20  24
DOCKED: ATOM     24  C   UNL     1     141.318  78.098 221.740 -0.37 +0.01    -0.024 A  
DOCKED: ATOM     25  C   UNL     1     140.043  77.927 222.241 -0.35 -0.00    +0.006 A  
DOCKED: ATOM     26  C   UNL     1     142.116  79.122 222.231 -0.49 -0.01    +0.026 A  
DOCKED: ATOM     27  C   UNL     1     139.553  78.776 223.238 -0.34 -0.00    +0.002 A  
DOCKED: ATOM     28  C   UNL     1     141.601  79.941 223.215 -0.54 -0.01    +0.041 A  
DOCKED: ATOM     29  C   UNL     1     140.339  79.798 223.735 -0.46 -0.00    +0.020 A  
DOCKED: ATOM     30  Cl  UNL     1     142.583  81.253 223.866 -0.69 +0.01    -0.084 Cl 
DOCKED: ENDBRANCH  20  24
DOCKED: ENDBRANCH   1  18
DOCKED: TORSDOF 5
DOCKED: TER
DOCKED: ENDMDL
________________________________________________________________________________


    FINAL DOCKED STATE:
    ________________________


Run:   5 / 20
Time taken for this run:   0.026s

DOCKED: MODEL        5
DOCKED: USER    Run = 5
DOCKED: USER
DOCKED: USER    Estimated Free Energy of Binding    =  -9.11 kcal/mol  [=(1)+(2)+(3)-(4)]
DOCKED: USER
DOCKED: USER    (1) Final Intermolecular Energy     = -10.60 kcal/mol
DOCKED: USER        vdW + Hbond + desolv Energy     = -10.55 kcal/mol
DOCKED: USER        Electrostatic Energy            =  -0.05 kcal/mol
DOCKED: USER        Moving Ligand-Fixed Receptor    = -10.60 kcal/mol
DOCKED: USER        Moving Ligand-Moving Receptor   =  +0.00 kcal/mol
DOCKED: USER    (2) Final Total Internal Energy     =  -1.64 kcal/mol
DOCKED: USER    (3) Torsional Free Energy           =  +1.49 kcal/mol
DOCKED: USER    (4) Unbound System's Energy         =  -1.64 kcal/mol
DOCKED: USER
DOCKED: USER
DOCKED: REMARK SMILES O=C(NCC(=O)N1CCCC[C@H]1c1cccc(Cl)c1)c1ccc2ccccc2n1
DOCKED: REMARK SMILES IDX 5 1 6 2 4 3 3 4 2 5 1 6 20 8 21 9 29 10 22 11 28 12 23 13
DOCKED: REMARK SMILES IDX 27 14 24 15 26 16 25 17 7 18 8 19 12 20 9 21 11 22 10 23
DOCKED: REMARK SMILES IDX 13 24 14 25 19 26 15 27 17 28 16 29 18 30
DOCKED: REMARK H PARENT 3 7
DOCKED: USER                              x       y       z     vdW  Elec       q    Type
DOCKED: USER                           _______ _______ _______ _____ _____    ______ ____
DOCKED: ROOT
DOCKED: ATOM      1  C   UNL     1     139.143  75.618 221.414 -0.17 -0.05    +0.242 C  
DOCKED: ATOM      2  O   UNL     1     138.094  75.793 222.096 -0.18 +0.07    -0.273 OA 
DOCKED: ENDROOT
DOCKED: BRANCH   1   3
DOCKED: ATOM      3  C   UNL     1     139.649  74.247 221.176 -0.17 -0.04    +0.216 C  
DOCKED: BRANCH   3   4
DOCKED: ATOM      4  N   UNL     1     139.705  73.465 222.396 -0.09 +0.05    -0.342 N  
DOCKED: ATOM      5  C   UNL     1     139.999  72.068 222.335 -0.20 -0.04    +0.270 C  
DOCKED: ATOM      6  O   UNL     1     140.215  71.484 221.236 -0.10 +0.04    -0.268 OA 
DOCKED: ATOM      7  H   UNL     1     139.530  73.911 223.345 -0.47 -0.04    +0.164 HD 
DOCKED: BRANCH   5   8
DOCKED: ATOM      8  C   UNL     1     140.039  71.337 223.604 -0.32 -0.02    +0.128 A  
DOCKED: ATOM      9  C   UNL     1     139.585  70.030 223.654 -0.27 -0.01    +0.035 A  
DOCKED: ATOM     10  N   UNL     1     140.507  71.885 224.740 -0.27 +0.04    -0.243 NA 
DOCKED: ATOM     11  C   UNL     1     139.607  69.305 224.834 -0.37 -0.00    +0.013 A  
DOCKED: ATOM     12  C   UNL     1     140.553  71.230 225.915 -0.55 -0.01    +0.071 A  
DOCKED: ATOM     13  C   UNL     1     140.098  69.925 225.964 -0.50 -0.00    +0.000 A  
DOCKED: ATOM     14  C   UNL     1     141.053  71.880 227.035 -0.77 -0.01    +0.029 A  
DOCKED: ATOM     15  C   UNL     1     140.132  69.224 227.155 -0.59 -0.00    +0.010 A  
DOCKED: ATOM     16  C   UNL     1     141.084  71.171 228.228 -0.70 -0.00    +0.002 A  
DOCKED: ATOM     17  C   UNL     1     140.631  69.871 228.277 -0.59 -0.00    +0.001 A  
DOCKED: ENDBRANCH   5   8
DOCKED: ENDBRANCH   3   4
DOCKED: ENDBRANCH   1   3
DOCKED: BRANCH   1  18
DOCKED: ATOM     18  N   UNL     1     139.881  76.695 220.853 -0.06 +0.09    -0.334 N  
DOCKED: ATOM     19  C   UNL     1     139.407  77.447 219.691 -0.05 -0.03    +0.120 C  
DOCKED: ATOM     20  C   UNL     1     141.155  77.115 221.407 -0.26 -0.05    +0.115 C  
DOCKED: ATOM     21  C   UNL     1     140.462  77.385 218.578 -0.08 -0.01    +0.022 C  
DOCKED: ATOM     22  C   UNL     1     142.176  77.201 220.295 -0.25 -0.02    +0.030 C  
DOCKED: ATOM     23  C   UNL     1     141.701  78.051 219.151 -0.26 -0.00    +0.004 C  
DOCKED: BRANCH  20  24
DOCKED: ATOM     24  C   UNL     1     141.068  78.366 222.188 -0.41 +0.01    -0.024 A  
DOCKED: ATOM     25  C   UNL     1     142.226  79.098 222.354 -0.51 -0.00    +0.006 A  
DOCKED: ATOM     26  C   UNL     1     139.883  78.821 222.750 -0.36 -0.01    +0.026 A  
DOCKED: ATOM     27  C   UNL     1     142.212  80.292 223.083 -0.63 -0.00    +0.002 A  
DOCKED: ATOM     28  C   UNL     1     139.905  80.002 223.463 -0.42 -0.01    +0.041 A  
DOCKED: ATOM     29  C   UNL     1     141.039  80.754 223.647 -0.48 -0.00    +0.020 A  
DOCKED: ATOM     30  Cl  UNL     1     138.421  80.614 224.194 -0.47 +0.01    -0.084 Cl 
DOCKED: ENDBRANCH  20  24
DOCKED: ENDBRANCH   1  18
DOCKED: TORSDOF 5
DOCKED: TER
DOCKED: ENDMDL
________________________________________________________________________________


    FINAL DOCKED STATE:
    ________________________


Run:   6 / 20
Time taken for this run:   0.026s

DOCKED: MODEL        6
DOCKED: USER    Run = 6
DOCKED: USER
DOCKED: USER    Estimated Free Energy of Binding    =  -9.19 kcal/mol  [=(1)+(2)+(3)-(4)]
DOCKED: USER
DOCKED: USER    (1) Final Intermolecular Energy     = -10.68 kcal/mol
DOCKED: USER        vdW + Hbond + desolv Energy     = -10.60 kcal/mol
DOCKED: USER        Electrostatic Energy            =  -0.08 kcal/mol
DOCKED: USER        Moving Ligand-Fixed Receptor    = -10.68 kcal/mol
DOCKED: USER        Moving Ligand-Moving Receptor   =  +0.00 kcal/mol
DOCKED: USER    (2) Final Total Internal Energy     =  -1.55 kcal/mol
DOCKED: USER    (3) Torsional Free Energy           =  +1.49 kcal/mol
DOCKED: USER    (4) Unbound System's Energy         =  -1.55 kcal/mol
DOCKED: USER
DOCKED: USER
DOCKED: REMARK SMILES O=C(NCC(=O)N1CCCC[C@H]1c1cccc(Cl)c1)c1ccc2ccccc2n1
DOCKED: REMARK SMILES IDX 5 1 6 2 4 3 3 4 2 5 1 6 20 8 21 9 29 10 22 11 28 12 23 13
DOCKED: REMARK SMILES IDX 27 14 24 15 26 16 25 17 7 18 8 19 12 20 9 21 11 22 10 23
DOCKED: REMARK SMILES IDX 13 24 14 25 19 26 15 27 17 28 16 29 18 30
DOCKED: REMARK H PARENT 3 7
DOCKED: USER                              x       y       z     vdW  Elec       q    Type
DOCKED: USER                           _______ _______ _______ _____ _____    ______ ____
DOCKED: ROOT
DOCKED: ATOM      1  C   UNL     1     138.638  75.351 221.363 -0.14 -0.06    +0.242 C  
DOCKED: ATOM      2  O   UNL     1     137.583  75.568 222.022 -0.14 +0.07    -0.273 OA 
DOCKED: ENDROOT
DOCKED: BRANCH   1   3
DOCKED: ATOM      3  C   UNL     1     139.064  73.961 221.086 -0.13 -0.05    +0.216 C  
DOCKED: BRANCH   3   4
DOCKED: ATOM      4  N   UNL     1     139.088  73.147 222.286 -0.10 +0.09    -0.342 N  
DOCKED: ATOM      5  C   UNL     1     140.131  72.189 222.478 -0.21 -0.04    +0.270 C  
DOCKED: ATOM      6  O   UNL     1     141.046  72.026 221.622 -0.18 +0.03    -0.268 OA 
DOCKED: ATOM      7  H   UNL     1     138.341  73.247 223.035 -0.49 -0.10    +0.164 HD 
DOCKED: BRANCH   5   8
DOCKED: ATOM      8  C   UNL     1     140.096  71.399 223.711 -0.34 -0.02    +0.128 A  
DOCKED: ATOM      9  C   UNL     1     139.557  70.124 223.691 -0.29 -0.01    +0.035 A  
DOCKED: ATOM     10  N   UNL     1     140.574  71.863 224.880 -0.28 +0.04    -0.243 NA 
DOCKED: ATOM     11  C   UNL     1     139.507  69.346 224.836 -0.37 -0.00    +0.013 A  
DOCKED: ATOM     12  C   UNL     1     140.552  71.153 226.024 -0.56 -0.01    +0.071 A  
DOCKED: ATOM     13  C   UNL     1     140.012  69.879 226.002 -0.50 -0.00    +0.000 A  
DOCKED: ATOM     14  C   UNL     1     141.068  71.717 227.182 -0.77 -0.01    +0.029 A  
DOCKED: ATOM     15  C   UNL     1     139.975  69.124 227.160 -0.59 -0.00    +0.010 A  
DOCKED: ATOM     16  C   UNL     1     141.028  70.953 228.340 -0.64 -0.00    +0.002 A  
DOCKED: ATOM     17  C   UNL     1     140.490  69.685 228.320 -0.60 -0.00    +0.001 A  
DOCKED: ENDBRANCH   5   8
DOCKED: ENDBRANCH   3   4
DOCKED: ENDBRANCH   1   3
DOCKED: BRANCH   1  18
DOCKED: ATOM     18  N   UNL     1     139.458  76.400 220.864 -0.05 +0.08    -0.334 N  
DOCKED: ATOM     19  C   UNL     1     139.093  77.186 219.685 -0.04 -0.03    +0.120 C  
DOCKED: ATOM     20  C   UNL     1     140.714  76.753 221.500 -0.30 -0.04    +0.115 C  
DOCKED: ATOM     21  C   UNL     1     140.210  77.087 218.638 -0.07 -0.01    +0.022 C  
DOCKED: ATOM     22  C   UNL     1     141.805  76.804 220.455 -0.27 -0.02    +0.030 C  
DOCKED: ATOM     23  C   UNL     1     141.440  77.688 219.296 -0.23 -0.00    +0.004 C  
DOCKED: BRANCH  20  24
DOCKED: ATOM     24  C   UNL     1     140.636  77.997 222.292 -0.40 +0.01    -0.024 A  
DOCKED: ATOM     25  C   UNL     1     139.385  78.423 222.693 -0.33 -0.00    +0.006 A  
DOCKED: ATOM     26  C   UNL     1     141.756  78.740 222.640 -0.49 -0.01    +0.026 A  
DOCKED: ATOM     27  C   UNL     1     139.241  79.593 223.445 -0.40 -0.00    +0.002 A  
DOCKED: ATOM     28  C   UNL     1     141.578  79.890 223.382 -0.55 -0.01    +0.041 A  
DOCKED: ATOM     29  C   UNL     1     140.349  80.340 223.797 -0.42 -0.00    +0.020 A  
DOCKED: ATOM     30  Cl  UNL     1     142.975  80.861 223.843 -0.74 +0.02    -0.084 Cl 
DOCKED: ENDBRANCH  20  24
DOCKED: ENDBRANCH   1  18
DOCKED: TORSDOF 5
DOCKED: TER
DOCKED: ENDMDL
________________________________________________________________________________


    FINAL DOCKED STATE:
    ________________________


Run:   7 / 20
Time taken for this run:   0.026s

DOCKED: MODEL        7
DOCKED: USER    Run = 7
DOCKED: USER
DOCKED: USER    Estimated Free Energy of Binding    =  -8.94 kcal/mol  [=(1)+(2)+(3)-(4)]
DOCKED: USER
DOCKED: USER    (1) Final Intermolecular Energy     = -10.43 kcal/mol
DOCKED: USER        vdW + Hbond + desolv Energy     = -10.38 kcal/mol
DOCKED: USER        Electrostatic Energy            =  -0.06 kcal/mol
DOCKED: USER        Moving Ligand-Fixed Receptor    = -10.43 kcal/mol
DOCKED: USER        Moving Ligand-Moving Receptor   =  +0.00 kcal/mol
DOCKED: USER    (2) Final Total Internal Energy     =  -1.56 kcal/mol
DOCKED: USER    (3) Torsional Free Energy           =  +1.49 kcal/mol
DOCKED: USER    (4) Unbound System's Energy         =  -1.56 kcal/mol
DOCKED: USER
DOCKED: USER
DOCKED: REMARK SMILES O=C(NCC(=O)N1CCCC[C@H]1c1cccc(Cl)c1)c1ccc2ccccc2n1
DOCKED: REMARK SMILES IDX 5 1 6 2 4 3 3 4 2 5 1 6 20 8 21 9 29 10 22 11 28 12 23 13
DOCKED: REMARK SMILES IDX 27 14 24 15 26 16 25 17 7 18 8 19 12 20 9 21 11 22 10 23
DOCKED: REMARK SMILES IDX 13 24 14 25 19 26 15 27 17 28 16 29 18 30
DOCKED: REMARK H PARENT 3 7
DOCKED: USER                              x       y       z     vdW  Elec       q    Type
DOCKED: USER                           _______ _______ _______ _____ _____    ______ ____
DOCKED: ROOT
DOCKED: ATOM      1  C   UNL     1     138.531  75.466 221.825 -0.18 -0.06    +0.242 C  
DOCKED: ATOM      2  O   UNL     1     137.729  75.756 222.757 -0.21 +0.08    -0.273 OA 
DOCKED: ENDROOT
DOCKED: BRANCH   1   3
DOCKED: ATOM      3  C   UNL     1     138.581  74.085 221.295 -0.13 -0.05    +0.216 C  
DOCKED: BRANCH   3   4
DOCKED: ATOM      4  N   UNL     1     138.673  73.097 222.353 -0.04 +0.11    -0.342 N  
DOCKED: ATOM      5  C   UNL     1     139.953  72.639 222.793 -0.12 -0.04    +0.270 C  
DOCKED: ATOM      6  O   UNL     1     141.024  73.074 222.282 -0.55 -0.00    -0.268 OA 
DOCKED: ATOM      7  H   UNL     1     137.801  72.700 222.814 -0.24 -0.07    +0.164 HD 
DOCKED: BRANCH   5   8
DOCKED: ATOM      8  C   UNL     1     139.976  71.640 223.863 -0.33 -0.02    +0.128 A  
DOCKED: ATOM      9  C   UNL     1     139.451  70.379 223.633 -0.30 -0.01    +0.035 A  
DOCKED: ATOM     10  N   UNL     1     140.492  71.895 225.079 -0.26 +0.04    -0.243 NA 
DOCKED: ATOM     11  C   UNL     1     139.455  69.407 224.620 -0.35 -0.00    +0.013 A  
DOCKED: ATOM     12  C   UNL     1     140.523  70.991 226.076 -0.55 -0.01    +0.071 A  
DOCKED: ATOM     13  C   UNL     1     139.998  69.732 225.845 -0.48 -0.00    +0.000 A  
DOCKED: ATOM     14  C   UNL     1     141.077  71.347 227.298 -0.72 -0.00    +0.029 A  
DOCKED: ATOM     15  C   UNL     1     140.015  68.780 226.848 -0.59 -0.00    +0.010 A  
DOCKED: ATOM     16  C   UNL     1     141.090  70.387 228.300 -0.56 -0.00    +0.002 A  
DOCKED: ATOM     17  C   UNL     1     140.568  69.133 228.071 -0.64 -0.00    +0.001 A  
DOCKED: ENDBRANCH   5   8
DOCKED: ENDBRANCH   3   4
DOCKED: ENDBRANCH   1   3
DOCKED: BRANCH   1  18
DOCKED: ATOM     18  N   UNL     1     139.410  76.422 221.247 -0.08 +0.08    -0.334 N  
DOCKED: ATOM     19  C   UNL     1     139.097  77.122 220.001 -0.06 -0.03    +0.120 C  
DOCKED: ATOM     20  C   UNL     1     140.679  76.761 221.866 -0.33 -0.04    +0.115 C  
DOCKED: ATOM     21  C   UNL     1     140.215  76.873 218.980 -0.08 -0.01    +0.022 C  
DOCKED: ATOM     22  C   UNL     1     141.779  76.663 220.833 -0.14 -0.02    +0.030 C  
DOCKED: ATOM     23  C   UNL     1     141.471  77.461 219.598 -0.24 -0.00    +0.004 C  
DOCKED: BRANCH  20  24
DOCKED: ATOM     24  C   UNL     1     140.663  78.072 222.547 -0.42 +0.01    -0.024 A  
DOCKED: ATOM     25  C   UNL     1     141.871  78.719 222.716 -0.49 -0.00    +0.006 A  
DOCKED: ATOM     26  C   UNL     1     139.497  78.663 223.015 -0.34 -0.00    +0.026 A  
DOCKED: ATOM     27  C   UNL     1     141.926  79.963 223.353 -0.61 -0.00    +0.002 A  
DOCKED: ATOM     28  C   UNL     1     139.588  79.890 223.639 -0.41 -0.01    +0.041 A  
DOCKED: ATOM     29  C   UNL     1     140.772  80.560 223.822 -0.43 -0.00    +0.020 A  
DOCKED: ATOM     30  Cl  UNL     1     138.131  80.674 224.248 -0.46 +0.01    -0.084 Cl 
DOCKED: ENDBRANCH  20  24
DOCKED: ENDBRANCH   1  18
DOCKED: TORSDOF 5
DOCKED: TER
DOCKED: ENDMDL
________________________________________________________________________________


    FINAL DOCKED STATE:
    ________________________


Run:   8 / 20
Time taken for this run:   0.026s

DOCKED: MODEL        8
DOCKED: USER    Run = 8
DOCKED: USER
DOCKED: USER    Estimated Free Energy of Binding    =  -9.30 kcal/mol  [=(1)+(2)+(3)-(4)]
DOCKED: USER
DOCKED: USER    (1) Final Intermolecular Energy     = -10.79 kcal/mol
DOCKED: USER        vdW + Hbond + desolv Energy     = -10.68 kcal/mol
DOCKED: USER        Electrostatic Energy            =  -0.11 kcal/mol
DOCKED: USER        Moving Ligand-Fixed Receptor    = -10.79 kcal/mol
DOCKED: USER        Moving Ligand-Moving Receptor   =  +0.00 kcal/mol
DOCKED: USER    (2) Final Total Internal Energy     =  -1.63 kcal/mol
DOCKED: USER    (3) Torsional Free Energy           =  +1.49 kcal/mol
DOCKED: USER    (4) Unbound System's Energy         =  -1.63 kcal/mol
DOCKED: USER
DOCKED: USER
DOCKED: REMARK SMILES O=C(NCC(=O)N1CCCC[C@H]1c1cccc(Cl)c1)c1ccc2ccccc2n1
DOCKED: REMARK SMILES IDX 5 1 6 2 4 3 3 4 2 5 1 6 20 8 21 9 29 10 22 11 28 12 23 13
DOCKED: REMARK SMILES IDX 27 14 24 15 26 16 25 17 7 18 8 19 12 20 9 21 11 22 10 23
DOCKED: REMARK SMILES IDX 13 24 14 25 19 26 15 27 17 28 16 29 18 30
DOCKED: REMARK H PARENT 3 7
DOCKED: USER                              x       y       z     vdW  Elec       q    Type
DOCKED: USER                           _______ _______ _______ _____ _____    ______ ____
DOCKED: ROOT
DOCKED: ATOM      1  C   UNL     1     139.243  75.813 221.565 -0.19 -0.05    +0.242 C  
DOCKED: ATOM      2  O   UNL     1     138.261  75.970 222.344 -0.22 +0.07    -0.273 OA 
DOCKED: ENDROOT
DOCKED: BRANCH   1   3
DOCKED: ATOM      3  C   UNL     1     139.719  74.450 221.241 -0.18 -0.04    +0.216 C  
DOCKED: BRANCH   3   4
DOCKED: ATOM      4  N   UNL     1     139.570  73.539 222.359 -0.12 +0.06    -0.342 N  
DOCKED: ATOM      5  C   UNL     1     140.479  72.448 222.518 -0.18 -0.02    +0.270 C  
DOCKED: ATOM      6  O   UNL     1     141.424  72.250 221.702 -0.20 +0.02    -0.268 OA 
DOCKED: ATOM      7  H   UNL     1     138.791  73.663 223.072 -0.54 -0.10    +0.164 HD 
DOCKED: BRANCH   5   8
DOCKED: ATOM      8  C   UNL     1     140.272  71.565 223.667 -0.34 -0.02    +0.128 A  
DOCKED: ATOM      9  C   UNL     1     139.609  70.361 223.494 -0.28 -0.01    +0.035 A  
DOCKED: ATOM     10  N   UNL     1     140.705  71.873 224.904 -0.28 +0.03    -0.243 NA 
DOCKED: ATOM     11  C   UNL     1     139.394  69.499 224.557 -0.35 -0.00    +0.013 A  
DOCKED: ATOM     12  C   UNL     1     140.525  71.075 225.973 -0.55 -0.01    +0.071 A  
DOCKED: ATOM     13  C   UNL     1     139.862  69.874 225.798 -0.47 -0.00    +0.000 A  
DOCKED: ATOM     14  C   UNL     1     141.008  71.479 227.210 -0.74 -0.01    +0.029 A  
DOCKED: ATOM     15  C   UNL     1     139.661  69.031 226.876 -0.55 -0.00    +0.010 A  
DOCKED: ATOM     16  C   UNL     1     140.803  70.629 228.287 -0.60 -0.00    +0.002 A  
DOCKED: ATOM     17  C   UNL     1     140.142  69.432 228.114 -0.63 -0.00    +0.001 A  
DOCKED: ENDBRANCH   5   8
DOCKED: ENDBRANCH   3   4
DOCKED: ENDBRANCH   1   3
DOCKED: BRANCH   1  18
DOCKED: ATOM     18  N   UNL     1     139.931  76.907 220.972 -0.07 +0.10    -0.334 N  
DOCKED: ATOM     19  C   UNL     1     139.390  77.646 219.831 -0.06 -0.03    +0.120 C  
DOCKED: ATOM     20  C   UNL     1     141.218  77.356 221.469 -0.26 -0.06    +0.115 C  
DOCKED: ATOM     21  C   UNL     1     140.397  77.605 218.673 -0.08 -0.01    +0.022 C  
DOCKED: ATOM     22  C   UNL     1     142.188  77.463 220.314 -0.25 -0.02    +0.030 C  
DOCKED: ATOM     23  C   UNL     1     141.643  78.300 219.191 -0.25 -0.00    +0.004 C  
DOCKED: BRANCH  20  24
DOCKED: ATOM     24  C   UNL     1     141.137  78.606 222.252 -0.42 +0.01    -0.024 A  
DOCKED: ATOM     25  C   UNL     1     142.305  79.316 222.445 -0.54 -0.00    +0.006 A  
DOCKED: ATOM     26  C   UNL     1     139.948  79.080 222.791 -0.36 -0.01    +0.026 A  
DOCKED: ATOM     27  C   UNL     1     142.297  80.508 223.178 -0.64 -0.00    +0.002 A  
DOCKED: ATOM     28  C   UNL     1     139.977  80.259 223.509 -0.42 -0.01    +0.041 A  
DOCKED: ATOM     29  C   UNL     1     141.120  80.989 223.718 -0.47 -0.00    +0.020 A  
DOCKED: ATOM     30  Cl  UNL     1     138.490  80.895 224.209 -0.44 +0.01    -0.084 Cl 
DOCKED: ENDBRANCH  20  24
DOCKED: ENDBRANCH   1  18
DOCKED: TORSDOF 5
DOCKED: TER
DOCKED: ENDMDL
________________________________________________________________________________


    FINAL DOCKED STATE:
    ________________________


Run:   9 / 20
Time taken for this run:   0.026s

DOCKED: MODEL        9
DOCKED: USER    Run = 9
DOCKED: USER
DOCKED: USER    Estimated Free Energy of Binding    =  -8.79 kcal/mol  [=(1)+(2)+(3)-(4)]
DOCKED: USER
DOCKED: USER    (1) Final Intermolecular Energy     = -10.28 kcal/mol
DOCKED: USER        vdW + Hbond + desolv Energy     = -10.23 kcal/mol
DOCKED: USER        Electrostatic Energy            =  -0.06 kcal/mol
DOCKED: USER        Moving Ligand-Fixed Receptor    = -10.28 kcal/mol
DOCKED: USER        Moving Ligand-Moving Receptor   =  +0.00 kcal/mol
DOCKED: USER    (2) Final Total Internal Energy     =  -1.64 kcal/mol
DOCKED: USER    (3) Torsional Free Energy           =  +1.49 kcal/mol
DOCKED: USER    (4) Unbound System's Energy         =  -1.64 kcal/mol
DOCKED: USER
DOCKED: USER
DOCKED: REMARK SMILES O=C(NCC(=O)N1CCCC[C@H]1c1cccc(Cl)c1)c1ccc2ccccc2n1
DOCKED: REMARK SMILES IDX 5 1 6 2 4 3 3 4 2 5 1 6 20 8 21 9 29 10 22 11 28 12 23 13
DOCKED: REMARK SMILES IDX 27 14 24 15 26 16 25 17 7 18 8 19 12 20 9 21 11 22 10 23
DOCKED: REMARK SMILES IDX 13 24 14 25 19 26 15 27 17 28 16 29 18 30
DOCKED: REMARK H PARENT 3 7
DOCKED: USER                              x       y       z     vdW  Elec       q    Type
DOCKED: USER                           _______ _______ _______ _____ _____    ______ ____
DOCKED: ROOT
DOCKED: ATOM      1  C   UNL     1     137.942  74.938 221.298 -0.11 -0.06    +0.242 C  
DOCKED: ATOM      2  O   UNL     1     136.873  75.469 221.713 -0.08 +0.06    -0.273 OA 
DOCKED: ENDROOT
DOCKED: BRANCH   1   3
DOCKED: ATOM      3  C   UNL     1     138.023  73.469 221.136 -0.08 -0.05    +0.216 C  
DOCKED: BRANCH   3   4
DOCKED: ATOM      4  N   UNL     1     138.341  72.799 222.382 -0.04 +0.11    -0.342 N  
DOCKED: ATOM      5  C   UNL     1     139.424  71.868 222.436 -0.18 -0.05    +0.270 C  
DOCKED: ATOM      6  O   UNL     1     140.124  71.607 221.417 -0.11 +0.04    -0.268 OA 
DOCKED: ATOM      7  H   UNL     1     137.782  72.984 223.267 -0.48 -0.11    +0.164 HD 
DOCKED: BRANCH   5   8
DOCKED: ATOM      8  C   UNL     1     139.692  71.225 223.724 -0.32 -0.03    +0.128 A  
DOCKED: ATOM      9  C   UNL     1     139.368  69.890 223.902 -0.29 -0.01    +0.035 A  
DOCKED: ATOM     10  N   UNL     1     140.248  71.882 224.759 -0.24 +0.05    -0.243 NA 
DOCKED: ATOM     11  C   UNL     1     139.606  69.247 225.106 -0.40 -0.00    +0.013 A  
DOCKED: ATOM     12  C   UNL     1     140.502  71.309 225.950 -0.54 -0.01    +0.071 A  
DOCKED: ATOM     13  C   UNL     1     140.178  69.976 226.127 -0.52 -0.00    +0.000 A  
DOCKED: ATOM     14  C   UNL     1     141.079  72.069 226.959 -0.74 -0.01    +0.029 A  
DOCKED: ATOM     15  C   UNL     1     140.427  69.358 227.338 -0.60 -0.00    +0.010 A  
DOCKED: ATOM     16  C   UNL     1     141.325  71.442 228.172 -0.69 -0.00    +0.002 A  
DOCKED: ATOM     17  C   UNL     1     141.002  70.114 228.349 -0.56 -0.00    +0.001 A  
DOCKED: ENDBRANCH   5   8
DOCKED: ENDBRANCH   3   4
DOCKED: ENDBRANCH   1   3
DOCKED: BRANCH   1  18
DOCKED: ATOM     18  N   UNL     1     139.098  75.699 220.974 -0.06 +0.08    -0.334 N  
DOCKED: ATOM     19  C   UNL     1     139.314  76.267 219.643 -0.05 -0.03    +0.120 C  
DOCKED: ATOM     20  C   UNL     1     140.138  75.957 221.953 -0.32 -0.02    +0.115 C  
DOCKED: ATOM     21  C   UNL     1     140.647  75.756 219.079 -0.09 -0.01    +0.022 C  
DOCKED: ATOM     22  C   UNL     1     141.481  75.595 221.360 -0.24 -0.01    +0.030 C  
DOCKED: ATOM     23  C   UNL     1     141.714  76.261 220.033 -0.27 -0.00    +0.004 C  
DOCKED: BRANCH  20  24
DOCKED: ATOM     24  C   UNL     1     140.111  77.336 222.482 -0.36 +0.01    -0.024 A  
DOCKED: ATOM     25  C   UNL     1     138.876  77.902 222.726 -0.30 -0.00    +0.006 A  
DOCKED: ATOM     26  C   UNL     1     141.263  78.068 222.735 -0.46 -0.01    +0.026 A  
DOCKED: ATOM     27  C   UNL     1     138.780  79.205 223.227 -0.33 -0.00    +0.002 A  
DOCKED: ATOM     28  C   UNL     1     141.131  79.350 223.228 -0.50 -0.01    +0.041 A  
DOCKED: ATOM     29  C   UNL     1     139.919  79.942 223.483 -0.43 -0.00    +0.020 A  
DOCKED: ATOM     30  Cl  UNL     1     142.570  80.313 223.563 -0.81 +0.02    -0.084 Cl 
DOCKED: ENDBRANCH  20  24
DOCKED: ENDBRANCH   1  18
DOCKED: TORSDOF 5
DOCKED: TER
DOCKED: ENDMDL
________________________________________________________________________________


    FINAL DOCKED STATE:
    ________________________


Run:   10 / 20
Time taken for this run:   0.026s

DOCKED: MODEL        10
DOCKED: USER    Run = 10
DOCKED: USER
DOCKED: USER    Estimated Free Energy of Binding    =  -8.47 kcal/mol  [=(1)+(2)+(3)-(4)]
DOCKED: USER
DOCKED: USER    (1) Final Intermolecular Energy     =  -9.96 kcal/mol
DOCKED: USER        vdW + Hbond + desolv Energy     =  -9.98 kcal/mol
DOCKED: USER        Electrostatic Energy            =  +0.02 kcal/mol
DOCKED: USER        Moving Ligand-Fixed Receptor    =  -9.96 kcal/mol
DOCKED: USER        Moving Ligand-Moving Receptor   =  +0.00 kcal/mol
DOCKED: USER    (2) Final Total Internal Energy     =  -1.60 kcal/mol
DOCKED: USER    (3) Torsional Free Energy           =  +1.49 kcal/mol
DOCKED: USER    (4) Unbound System's Energy         =  -1.60 kcal/mol
DOCKED: USER
DOCKED: USER
DOCKED: REMARK SMILES O=C(NCC(=O)N1CCCC[C@H]1c1cccc(Cl)c1)c1ccc2ccccc2n1
DOCKED: REMARK SMILES IDX 5 1 6 2 4 3 3 4 2 5 1 6 20 8 21 9 29 10 22 11 28 12 23 13
DOCKED: REMARK SMILES IDX 27 14 24 15 26 16 25 17 7 18 8 19 12 20 9 21 11 22 10 23
DOCKED: REMARK SMILES IDX 13 24 14 25 19 26 15 27 17 28 16 29 18 30
DOCKED: REMARK H PARENT 3 7
DOCKED: USER                              x       y       z     vdW  Elec       q    Type
DOCKED: USER                           _______ _______ _______ _____ _____    ______ ____
DOCKED: ROOT
DOCKED: ATOM      1  C   UNL     1     140.031  73.350 221.969 -0.20 -0.03    +0.242 C  
DOCKED: ATOM      2  O   UNL     1     139.120  74.148 222.328 -0.57 +0.07    -0.273 OA 
DOCKED: ENDROOT
DOCKED: BRANCH   1   3
DOCKED: ATOM      3  C   UNL     1     141.249  73.868 221.307 -0.18 -0.03    +0.216 C  
DOCKED: BRANCH   3   4
DOCKED: ATOM      4  N   UNL     1     141.457  75.279 221.572 -0.17 +0.10    -0.342 N  
DOCKED: ATOM      5  C   UNL     1     140.737  76.259 220.823 -0.17 -0.09    +0.270 C  
DOCKED: ATOM      6  O   UNL     1     139.913  75.932 219.924 -0.04 +0.07    -0.268 OA 
DOCKED: ATOM      7  H   UNL     1     142.140  75.605 222.318 -0.50 -0.09    +0.164 HD 
DOCKED: BRANCH   5   8
DOCKED: ATOM      8  C   UNL     1     140.995  77.666 221.139 -0.25 -0.06    +0.128 A  
DOCKED: ATOM      9  C   UNL     1     140.748  78.638 220.184 -0.19 -0.01    +0.035 A  
DOCKED: ATOM     10  N   UNL     1     141.466  78.064 222.336 -0.25 +0.12    -0.243 NA 
DOCKED: ATOM     11  C   UNL     1     140.978  79.979 220.446 -0.25 -0.00    +0.013 A  
DOCKED: ATOM     12  C   UNL     1     141.709  79.351 222.646 -0.48 -0.03    +0.071 A  
DOCKED: ATOM     13  C   UNL     1     141.463  80.321 221.691 -0.41 -0.00    +0.000 A  
DOCKED: ATOM     14  C   UNL     1     142.196  79.664 223.908 -0.58 -0.01    +0.029 A  
DOCKED: ATOM     15  C   UNL     1     141.701  81.652 221.979 -0.43 -0.00    +0.010 A  
DOCKED: ATOM     16  C   UNL     1     142.433  81.002 224.190 -0.59 -0.00    +0.002 A  
DOCKED: ATOM     17  C   UNL     1     142.188  81.969 223.239 -0.16 -0.00    +0.001 A  
DOCKED: ENDBRANCH   5   8
DOCKED: ENDBRANCH   3   4
DOCKED: ENDBRANCH   1   3
DOCKED: BRANCH   1  18
DOCKED: ATOM     18  N   UNL     1     139.943  71.946 222.173 -0.14 +0.05    -0.334 N  
DOCKED: ATOM     19  C   UNL     1     140.742  70.991 221.405 -0.04 -0.02    +0.120 C  
DOCKED: ATOM     20  C   UNL     1     139.048  71.376 223.164 -0.25 -0.03    +0.115 C  
DOCKED: ATOM     21  C   UNL     1     139.810  69.996 220.700 -0.11 -0.00    +0.022 C  
DOCKED: ATOM     22  C   UNL     1     138.220  70.288 222.520 -0.17 -0.01    +0.030 C  
DOCKED: ATOM     23  C   UNL     1     139.070  69.271 221.811 -0.16 -0.00    +0.004 C  
DOCKED: BRANCH  20  24
DOCKED: ATOM     24  C   UNL     1     139.747  70.906 224.378 -0.41 +0.00    -0.024 A  
DOCKED: ATOM     25  C   UNL     1     140.682  71.750 224.944 -0.43 -0.00    +0.006 A  
DOCKED: ATOM     26  C   UNL     1     139.500  69.669 224.958 -0.38 -0.00    +0.026 A  
DOCKED: ATOM     27  C   UNL     1     141.380  71.365 226.094 -0.65 -0.00    +0.002 A  
DOCKED: ATOM     28  C   UNL     1     140.206  69.322 226.092 -0.48 -0.01    +0.041 A  
DOCKED: ATOM     29  C   UNL     1     141.141  70.137 226.679 -0.54 -0.00    +0.020 A  
DOCKED: ATOM     30  Cl  UNL     1     139.921  67.760 226.858 -0.80 +0.02    -0.084 Cl 
DOCKED: ENDBRANCH  20  24
DOCKED: ENDBRANCH   1  18
DOCKED: TORSDOF 5
DOCKED: TER
DOCKED: ENDMDL
________________________________________________________________________________


    FINAL DOCKED STATE:
    ________________________


Run:   11 / 20
Time taken for this run:   0.026s

DOCKED: MODEL        11
DOCKED: USER    Run = 11
DOCKED: USER
DOCKED: USER    Estimated Free Energy of Binding    =  -9.17 kcal/mol  [=(1)+(2)+(3)-(4)]
DOCKED: USER
DOCKED: USER    (1) Final Intermolecular Energy     = -10.66 kcal/mol
DOCKED: USER        vdW + Hbond + desolv Energy     = -10.59 kcal/mol
DOCKED: USER        Electrostatic Energy            =  -0.07 kcal/mol
DOCKED: USER        Moving Ligand-Fixed Receptor    = -10.66 kcal/mol
DOCKED: USER        Moving Ligand-Moving Receptor   =  +0.00 kcal/mol
DOCKED: USER    (2) Final Total Internal Energy     =  -1.62 kcal/mol
DOCKED: USER    (3) Torsional Free Energy           =  +1.49 kcal/mol
DOCKED: USER    (4) Unbound System's Energy         =  -1.62 kcal/mol
DOCKED: USER
DOCKED: USER
DOCKED: REMARK SMILES O=C(NCC(=O)N1CCCC[C@H]1c1cccc(Cl)c1)c1ccc2ccccc2n1
DOCKED: REMARK SMILES IDX 5 1 6 2 4 3 3 4 2 5 1 6 20 8 21 9 29 10 22 11 28 12 23 13
DOCKED: REMARK SMILES IDX 27 14 24 15 26 16 25 17 7 18 8 19 12 20 9 21 11 22 10 23
DOCKED: REMARK SMILES IDX 13 24 14 25 19 26 15 27 17 28 16 29 18 30
DOCKED: REMARK H PARENT 3 7
DOCKED: USER                              x       y       z     vdW  Elec       q    Type
DOCKED: USER                           _______ _______ _______ _____ _____    ______ ____
DOCKED: ROOT
DOCKED: ATOM      1  C   UNL     1     139.258  75.600 221.310 -0.17 -0.05    +0.242 C  
DOCKED: ATOM      2  O   UNL     1     138.153  75.696 221.915 -0.16 +0.07    -0.273 OA 
DOCKED: ENDROOT
DOCKED: BRANCH   1   3
DOCKED: ATOM      3  C   UNL     1     139.893  74.274 221.138 -0.18 -0.04    +0.216 C  
DOCKED: BRANCH   3   4
DOCKED: ATOM      4  N   UNL     1     139.834  73.479 222.349 -0.13 +0.04    -0.342 N  
DOCKED: ATOM      5  C   UNL     1     140.301  72.128 222.340 -0.21 -0.03    +0.270 C  
DOCKED: ATOM      6  O   UNL     1     140.771  71.597 221.295 -0.13 +0.04    -0.268 OA 
DOCKED: ATOM      7  H   UNL     1     139.447  73.880 223.254 -0.48 -0.05    +0.164 HD 
DOCKED: BRANCH   5   8
DOCKED: ATOM      8  C   UNL     1     140.211  71.380 223.596 -0.33 -0.02    +0.128 A  
DOCKED: ATOM      9  C   UNL     1     139.646  70.115 223.600 -0.26 -0.01    +0.035 A  
DOCKED: ATOM     10  N   UNL     1     140.663  71.872 224.765 -0.27 +0.03    -0.243 NA 
DOCKED: ATOM     11  C   UNL     1     139.544  69.377 224.768 -0.37 -0.00    +0.013 A  
DOCKED: ATOM     12  C   UNL     1     140.590  71.201 225.929 -0.55 -0.01    +0.071 A  
DOCKED: ATOM     13  C   UNL     1     140.025  69.938 225.932 -0.49 -0.00    +0.000 A  
DOCKED: ATOM     14  C   UNL     1     141.083  71.792 227.085 -0.76 -0.01    +0.029 A  
DOCKED: ATOM     15  C   UNL     1     139.936  69.222 227.111 -0.57 -0.00    +0.010 A  
DOCKED: ATOM     16  C   UNL     1     140.991  71.067 228.265 -0.68 -0.00    +0.002 A  
DOCKED: ATOM     17  C   UNL     1     140.427  69.810 228.269 -0.60 -0.00    +0.001 A  
DOCKED: ENDBRANCH   5   8
DOCKED: ENDBRANCH   3   4
DOCKED: ENDBRANCH   1   3
DOCKED: BRANCH   1  18
DOCKED: ATOM     18  N   UNL     1     139.938  76.727 220.775 -0.05 +0.10    -0.334 N  
DOCKED: ATOM     19  C   UNL     1     139.398  77.515 219.667 -0.05 -0.03    +0.120 C  
DOCKED: ATOM     20  C   UNL     1     141.218  77.163 221.302 -0.25 -0.06    +0.115 C  
DOCKED: ATOM     21  C   UNL     1     140.411  77.541 218.516 -0.08 -0.01    +0.022 C  
DOCKED: ATOM     22  C   UNL     1     142.194  77.336 220.160 -0.29 -0.02    +0.030 C  
DOCKED: ATOM     23  C   UNL     1     141.648  78.221 219.075 -0.25 -0.00    +0.004 C  
DOCKED: BRANCH  20  24
DOCKED: ATOM     24  C   UNL     1     141.120  78.373 222.144 -0.41 +0.01    -0.024 A  
DOCKED: ATOM     25  C   UNL     1     142.279  79.087 222.374 -0.50 -0.00    +0.006 A  
DOCKED: ATOM     26  C   UNL     1     139.925  78.806 222.703 -0.35 -0.01    +0.026 A  
DOCKED: ATOM     27  C   UNL     1     142.254  80.242 223.164 -0.63 -0.00    +0.002 A  
DOCKED: ATOM     28  C   UNL     1     139.937  79.949 223.476 -0.42 -0.01    +0.041 A  
DOCKED: ATOM     29  C   UNL     1     141.071  80.682 223.724 -0.48 -0.00    +0.020 A  
DOCKED: ATOM     30  Cl  UNL     1     138.441  80.532 224.203 -0.47 +0.01    -0.084 Cl 
DOCKED: ENDBRANCH  20  24
DOCKED: ENDBRANCH   1  18
DOCKED: TORSDOF 5
DOCKED: TER
DOCKED: ENDMDL
________________________________________________________________________________


    FINAL DOCKED STATE:
    ________________________


Run:   12 / 20
Time taken for this run:   0.026s

DOCKED: MODEL        12
DOCKED: USER    Run = 12
DOCKED: USER
DOCKED: USER    Estimated Free Energy of Binding    =  -8.00 kcal/mol  [=(1)+(2)+(3)-(4)]
DOCKED: USER
DOCKED: USER    (1) Final Intermolecular Energy     =  -9.49 kcal/mol
DOCKED: USER        vdW + Hbond + desolv Energy     =  -9.48 kcal/mol
DOCKED: USER        Electrostatic Energy            =  -0.01 kcal/mol
DOCKED: USER        Moving Ligand-Fixed Receptor    =  -9.49 kcal/mol
DOCKED: USER        Moving Ligand-Moving Receptor   =  +0.00 kcal/mol
DOCKED: USER    (2) Final Total Internal Energy     =  -2.31 kcal/mol
DOCKED: USER    (3) Torsional Free Energy           =  +1.49 kcal/mol
DOCKED: USER    (4) Unbound System's Energy         =  -2.31 kcal/mol
DOCKED: USER
DOCKED: USER
DOCKED: REMARK SMILES O=C(NCC(=O)N1CCCC[C@H]1c1cccc(Cl)c1)c1ccc2ccccc2n1
DOCKED: REMARK SMILES IDX 5 1 6 2 4 3 3 4 2 5 1 6 20 8 21 9 29 10 22 11 28 12 23 13
DOCKED: REMARK SMILES IDX 27 14 24 15 26 16 25 17 7 18 8 19 12 20 9 21 11 22 10 23
DOCKED: REMARK SMILES IDX 13 24 14 25 19 26 15 27 17 28 16 29 18 30
DOCKED: REMARK H PARENT 3 7
DOCKED: USER                              x       y       z     vdW  Elec       q    Type
DOCKED: USER                           _______ _______ _______ _____ _____    ______ ____
DOCKED: ROOT
DOCKED: ATOM      1  C   UNL     1     141.835  72.914 221.172 -0.15 -0.03    +0.242 C  
DOCKED: ATOM      2  O   UNL     1     141.806  71.939 221.975 -0.12 +0.01    -0.273 OA 
DOCKED: ENDROOT
DOCKED: BRANCH   1   3
DOCKED: ATOM      3  C   UNL     1     140.649  73.786 221.024 -0.18 -0.04    +0.216 C  
DOCKED: BRANCH   3   4
DOCKED: ATOM      4  N   UNL     1     140.889  75.126 221.522 -0.18 +0.07    -0.342 N  
DOCKED: ATOM      5  C   UNL     1     139.788  75.964 221.878 -0.23 -0.06    +0.270 C  
DOCKED: ATOM      6  O   UNL     1     138.593  75.568 221.770 -0.18 +0.06    -0.268 OA 
DOCKED: ATOM      7  H   UNL     1     141.876  75.505 221.630 -0.26 -0.07    +0.164 HD 
DOCKED: BRANCH   5   8
DOCKED: ATOM      8  C   UNL     1     140.100  77.306 222.373 -0.32 -0.03    +0.128 A  
DOCKED: ATOM      9  C   UNL     1     139.070  78.149 222.759 -0.29 -0.01    +0.035 A  
DOCKED: ATOM     10  N   UNL     1     141.361  77.765 222.473 -0.24 +0.11    -0.243 NA 
DOCKED: ATOM     11  C   UNL     1     139.325  79.425 223.233 -0.37 -0.00    +0.013 A  
DOCKED: ATOM     12  C   UNL     1     141.669  78.995 222.926 -0.50 -0.03    +0.071 A  
DOCKED: ATOM     13  C   UNL     1     140.639  79.836 223.311 -0.48 -0.00    +0.000 A  
DOCKED: ATOM     14  C   UNL     1     143.001  79.380 222.993 -0.45 -0.01    +0.029 A  
DOCKED: ATOM     15  C   UNL     1     140.922  81.105 223.781 -0.41 -0.00    +0.010 A  
DOCKED: ATOM     16  C   UNL     1     143.277  80.655 223.466 -0.60 -0.00    +0.002 A  
DOCKED: ATOM     17  C   UNL     1     142.252  81.493 223.849 -0.60 -0.00    +0.001 A  
DOCKED: ENDBRANCH   5   8
DOCKED: ENDBRANCH   3   4
DOCKED: ENDBRANCH   1   3
DOCKED: BRANCH   1  18
DOCKED: ATOM     18  N   UNL     1     142.978  73.222 220.385 -0.11 +0.06    -0.334 N  
DOCKED: ATOM     19  C   UNL     1     143.491  72.314 219.359 -0.15 -0.01    +0.120 C  
DOCKED: ATOM     20  C   UNL     1     143.705  74.467 220.554 -0.26 -0.05    +0.115 C  
DOCKED: ATOM     21  C   UNL     1     144.958  71.979 219.661 -0.34 +0.00    +0.022 C  
DOCKED: ATOM     22  C   UNL     1     145.179  74.165 220.708 -0.51 -0.01    +0.030 C  
DOCKED: ATOM     23  C   UNL     1     145.701  73.302 219.594 -0.44 +0.00    +0.004 C  
DOCKED: BRANCH  20  24
DOCKED: ATOM     24  C   UNL     1     143.441  75.447 219.481 -0.37 +0.01    -0.024 A  
DOCKED: ATOM     25  C   UNL     1     143.693  75.055 218.182 -0.22 -0.00    +0.006 A  
DOCKED: ATOM     26  C   UNL     1     142.959  76.725 219.731 -0.36 -0.02    +0.026 A  
DOCKED: ATOM     27  C   UNL     1     143.464  75.936 217.119 -0.23 -0.00    +0.002 A  
DOCKED: ATOM     28  C   UNL     1     142.745  77.567 218.659 -0.31 -0.03    +0.041 A  
DOCKED: ATOM     29  C   UNL     1     142.984  77.209 217.356 -0.27 -0.01    +0.020 A  
DOCKED: ATOM     30  Cl  UNL     1     142.134  79.198 218.934 -0.33 +0.06    -0.084 Cl 
DOCKED: ENDBRANCH  20  24
DOCKED: ENDBRANCH   1  18
DOCKED: TORSDOF 5
DOCKED: TER
DOCKED: ENDMDL
________________________________________________________________________________


    FINAL DOCKED STATE:
    ________________________


Run:   13 / 20
Time taken for this run:   0.026s

DOCKED: MODEL        13
DOCKED: USER    Run = 13
DOCKED: USER
DOCKED: USER    Estimated Free Energy of Binding    =  -8.57 kcal/mol  [=(1)+(2)+(3)-(4)]
DOCKED: USER
DOCKED: USER    (1) Final Intermolecular Energy     = -10.06 kcal/mol
DOCKED: USER        vdW + Hbond + desolv Energy     =  -9.99 kcal/mol
DOCKED: USER        Electrostatic Energy            =  -0.07 kcal/mol
DOCKED: USER        Moving Ligand-Fixed Receptor    = -10.06 kcal/mol
DOCKED: USER        Moving Ligand-Moving Receptor   =  +0.00 kcal/mol
DOCKED: USER    (2) Final Total Internal Energy     =  -1.90 kcal/mol
DOCKED: USER    (3) Torsional Free Energy           =  +1.49 kcal/mol
DOCKED: USER    (4) Unbound System's Energy         =  -1.90 kcal/mol
DOCKED: USER
DOCKED: USER
DOCKED: REMARK SMILES O=C(NCC(=O)N1CCCC[C@H]1c1cccc(Cl)c1)c1ccc2ccccc2n1
DOCKED: REMARK SMILES IDX 5 1 6 2 4 3 3 4 2 5 1 6 20 8 21 9 29 10 22 11 28 12 23 13
DOCKED: REMARK SMILES IDX 27 14 24 15 26 16 25 17 7 18 8 19 12 20 9 21 11 22 10 23
DOCKED: REMARK SMILES IDX 13 24 14 25 19 26 15 27 17 28 16 29 18 30
DOCKED: REMARK H PARENT 3 7
DOCKED: USER                              x       y       z     vdW  Elec       q    Type
DOCKED: USER                           _______ _______ _______ _____ _____    ______ ____
DOCKED: ROOT
DOCKED: ATOM      1  C   UNL     1     139.028  75.016 221.280 -0.15 -0.05    +0.242 C  
DOCKED: ATOM      2  O   UNL     1     138.091  75.801 221.600 -0.12 +0.06    -0.273 OA 
DOCKED: ENDROOT
DOCKED: BRANCH   1   3
DOCKED: ATOM      3  C   UNL     1     138.772  73.563 221.174 -0.12 -0.05    +0.216 C  
DOCKED: BRANCH   3   4
DOCKED: ATOM      4  N   UNL     1     139.075  72.862 222.406 -0.08 +0.09    -0.342 N  
DOCKED: ATOM      5  C   UNL     1     139.167  71.436 222.413 -0.15 -0.05    +0.270 C  
DOCKED: ATOM      6  O   UNL     1     138.989  70.756 221.364 -0.06 +0.05    -0.268 OA 
DOCKED: ATOM      7  H   UNL     1     139.233  73.389 223.316 -0.47 -0.09    +0.164 HD 
DOCKED: BRANCH   5   8
DOCKED: ATOM      8  C   UNL     1     139.475  70.791 223.691 -0.29 -0.02    +0.128 A  
DOCKED: ATOM      9  C   UNL     1     139.249  69.433 223.844 -0.27 -0.01    +0.035 A  
DOCKED: ATOM     10  N   UNL     1     139.978  71.467 224.740 -0.29 +0.05    -0.243 NA 
DOCKED: ATOM     11  C   UNL     1     139.529  68.786 225.037 -0.40 -0.00    +0.013 A  
DOCKED: ATOM     12  C   UNL     1     140.268  70.893 225.923 -0.51 -0.01    +0.071 A  
DOCKED: ATOM     13  C   UNL     1     140.041  69.536 226.074 -0.50 -0.00    +0.000 A  
DOCKED: ATOM     14  C   UNL     1     140.784  71.674 226.948 -0.72 -0.01    +0.029 A  
DOCKED: ATOM     15  C   UNL     1     140.330  68.916 227.275 -0.62 -0.00    +0.010 A  
DOCKED: ATOM     16  C   UNL     1     141.070  71.045 228.151 -0.70 -0.00    +0.002 A  
DOCKED: ATOM     17  C   UNL     1     140.844  69.694 228.303 -0.59 -0.00    +0.001 A  
DOCKED: ENDBRANCH   5   8
DOCKED: ENDBRANCH   3   4
DOCKED: ENDBRANCH   1   3
DOCKED: BRANCH   1  18
DOCKED: ATOM     18  N   UNL     1     140.349  75.470 221.014 -0.12 +0.08    -0.334 N  
DOCKED: ATOM     19  C   UNL     1     141.034  76.436 221.874 -0.29 -0.05    +0.120 C  
DOCKED: ATOM     20  C   UNL     1     141.099  74.997 219.865 -0.14 -0.03    +0.115 C  
DOCKED: ATOM     21  C   UNL     1     141.459  77.652 221.040 -0.31 -0.01    +0.022 C  
DOCKED: ATOM     22  C   UNL     1     141.651  76.183 219.108 -0.18 -0.01    +0.030 C  
DOCKED: ATOM     23  C   UNL     1     142.425  77.115 219.998 -0.30 -0.00    +0.004 C  
DOCKED: BRANCH  20  24
DOCKED: ATOM     24  C   UNL     1     142.147  74.017 220.217 -0.23 +0.01    -0.024 A  
DOCKED: ATOM     25  C   UNL     1     141.753  72.714 220.444 -0.20 -0.00    +0.006 A  
DOCKED: ATOM     26  C   UNL     1     143.489  74.356 220.325 -0.37 -0.01    +0.026 A  
DOCKED: ATOM     27  C   UNL     1     142.695  71.736 220.781 -0.25 -0.00    +0.002 A  
DOCKED: ATOM     28  C   UNL     1     144.391  73.367 220.659 -0.43 -0.01    +0.041 A  
DOCKED: ATOM     29  C   UNL     1     144.033  72.063 220.891 -0.30 -0.00    +0.020 A  
DOCKED: ATOM     30  Cl  UNL     1     146.104  73.757 220.807 -0.83 +0.01    -0.084 Cl 
DOCKED: ENDBRANCH  20  24
DOCKED: ENDBRANCH   1  18
DOCKED: TORSDOF 5
DOCKED: TER
DOCKED: ENDMDL
________________________________________________________________________________


    FINAL DOCKED STATE:
    ________________________


Run:   14 / 20
Time taken for this run:   0.026s

DOCKED: MODEL        14
DOCKED: USER    Run = 14
DOCKED: USER
DOCKED: USER    Estimated Free Energy of Binding    =  -9.15 kcal/mol  [=(1)+(2)+(3)-(4)]
DOCKED: USER
DOCKED: USER    (1) Final Intermolecular Energy     = -10.64 kcal/mol
DOCKED: USER        vdW + Hbond + desolv Energy     = -10.55 kcal/mol
DOCKED: USER        Electrostatic Energy            =  -0.09 kcal/mol
DOCKED: USER        Moving Ligand-Fixed Receptor    = -10.64 kcal/mol
DOCKED: USER        Moving Ligand-Moving Receptor   =  +0.00 kcal/mol
DOCKED: USER    (2) Final Total Internal Energy     =  -1.55 kcal/mol
DOCKED: USER    (3) Torsional Free Energy           =  +1.49 kcal/mol
DOCKED: USER    (4) Unbound System's Energy         =  -1.55 kcal/mol
DOCKED: USER
DOCKED: USER
DOCKED: REMARK SMILES O=C(NCC(=O)N1CCCC[C@H]1c1cccc(Cl)c1)c1ccc2ccccc2n1
DOCKED: REMARK SMILES IDX 5 1 6 2 4 3 3 4 2 5 1 6 20 8 21 9 29 10 22 11 28 12 23 13
DOCKED: REMARK SMILES IDX 27 14 24 15 26 16 25 17 7 18 8 19 12 20 9 21 11 22 10 23
DOCKED: REMARK SMILES IDX 13 24 14 25 19 26 15 27 17 28 16 29 18 30
DOCKED: REMARK H PARENT 3 7
DOCKED: USER                              x       y       z     vdW  Elec       q    Type
DOCKED: USER                           _______ _______ _______ _____ _____    ______ ____
DOCKED: ROOT
DOCKED: ATOM      1  C   UNL     1     138.922  75.309 221.133 -0.13 -0.05    +0.242 C  
DOCKED: ATOM      2  O   UNL     1     137.766  75.411 221.633 -0.11 +0.07    -0.273 OA 
DOCKED: ENDROOT
DOCKED: BRANCH   1   3
DOCKED: ATOM      3  C   UNL     1     139.554  73.977 220.998 -0.14 -0.04    +0.216 C  
DOCKED: BRANCH   3   4
DOCKED: ATOM      4  N   UNL     1     139.517  73.226 222.237 -0.14 +0.07    -0.342 N  
DOCKED: ATOM      5  C   UNL     1     140.310  72.047 222.382 -0.21 -0.03    +0.270 C  
DOCKED: ATOM      6  O   UNL     1     141.055  71.631 221.449 -0.15 +0.03    -0.268 OA 
DOCKED: ATOM      7  H   UNL     1     138.906  73.535 223.051 -0.52 -0.09    +0.164 HD 
DOCKED: BRANCH   5   8
DOCKED: ATOM      8  C   UNL     1     140.226  71.335 223.659 -0.33 -0.02    +0.128 A  
DOCKED: ATOM      9  C   UNL     1     139.660  70.071 223.701 -0.27 -0.01    +0.035 A  
DOCKED: ATOM     10  N   UNL     1     140.681  71.859 224.811 -0.28 +0.03    -0.243 NA 
DOCKED: ATOM     11  C   UNL     1     139.562  69.366 224.889 -0.38 -0.00    +0.013 A  
DOCKED: ATOM     12  C   UNL     1     140.613  71.221 225.994 -0.56 -0.01    +0.071 A  
DOCKED: ATOM     13  C   UNL     1     140.047  69.960 226.035 -0.50 -0.00    +0.000 A  
DOCKED: ATOM     14  C   UNL     1     141.110  71.844 227.131 -0.77 -0.01    +0.029 A  
DOCKED: ATOM     15  C   UNL     1     139.963  69.277 227.235 -0.58 -0.00    +0.010 A  
DOCKED: ATOM     16  C   UNL     1     141.022  71.154 228.331 -0.68 -0.00    +0.002 A  
DOCKED: ATOM     17  C   UNL     1     140.458  69.897 228.373 -0.56 -0.00    +0.001 A  
DOCKED: ENDBRANCH   5   8
DOCKED: ENDBRANCH   3   4
DOCKED: ENDBRANCH   1   3
DOCKED: BRANCH   1  18
DOCKED: ATOM     18  N   UNL     1     139.664  76.435 220.684 -0.04 +0.09    -0.334 N  
DOCKED: ATOM     19  C   UNL     1     139.224  77.267 219.563 -0.04 -0.03    +0.120 C  
DOCKED: ATOM     20  C   UNL     1     140.908  76.828 221.319 -0.28 -0.05    +0.115 C  
DOCKED: ATOM     21  C   UNL     1     140.323  77.303 218.492 -0.07 -0.01    +0.022 C  
DOCKED: ATOM     22  C   UNL     1     141.971  77.011 220.259 -0.27 -0.02    +0.030 C  
DOCKED: ATOM     23  C   UNL     1     141.527  77.939 219.163 -0.23 -0.00    +0.004 C  
DOCKED: BRANCH  20  24
DOCKED: ATOM     24  C   UNL     1     140.771  78.015 222.187 -0.39 +0.01    -0.024 A  
DOCKED: ATOM     25  C   UNL     1     139.503  78.344 222.623 -0.33 -0.00    +0.006 A  
DOCKED: ATOM     26  C   UNL     1     141.852  78.797 222.571 -0.48 -0.01    +0.026 A  
DOCKED: ATOM     27  C   UNL     1     139.303  79.456 223.448 -0.40 -0.00    +0.002 A  
DOCKED: ATOM     28  C   UNL     1     141.619  79.887 223.385 -0.55 -0.01    +0.041 A  
DOCKED: ATOM     29  C   UNL     1     140.372  80.241 223.836 -0.42 -0.00    +0.020 A  
DOCKED: ATOM     30  Cl  UNL     1     142.965  80.904 223.894 -0.71 +0.02    -0.084 Cl 
DOCKED: ENDBRANCH  20  24
DOCKED: ENDBRANCH   1  18
DOCKED: TORSDOF 5
DOCKED: TER
DOCKED: ENDMDL
________________________________________________________________________________


    FINAL DOCKED STATE:
    ________________________


Run:   15 / 20
Time taken for this run:   0.026s

DOCKED: MODEL        15
DOCKED: USER    Run = 15
DOCKED: USER
DOCKED: USER    Estimated Free Energy of Binding    =  -9.18 kcal/mol  [=(1)+(2)+(3)-(4)]
DOCKED: USER
DOCKED: USER    (1) Final Intermolecular Energy     = -10.67 kcal/mol
DOCKED: USER        vdW + Hbond + desolv Energy     = -10.56 kcal/mol
DOCKED: USER        Electrostatic Energy            =  -0.11 kcal/mol
DOCKED: USER        Moving Ligand-Fixed Receptor    = -10.67 kcal/mol
DOCKED: USER        Moving Ligand-Moving Receptor   =  +0.00 kcal/mol
DOCKED: USER    (2) Final Total Internal Energy     =  -1.24 kcal/mol
DOCKED: USER    (3) Torsional Free Energy           =  +1.49 kcal/mol
DOCKED: USER    (4) Unbound System's Energy         =  -1.24 kcal/mol
DOCKED: USER
DOCKED: USER
DOCKED: REMARK SMILES O=C(NCC(=O)N1CCCC[C@H]1c1cccc(Cl)c1)c1ccc2ccccc2n1
DOCKED: REMARK SMILES IDX 5 1 6 2 4 3 3 4 2 5 1 6 20 8 21 9 29 10 22 11 28 12 23 13
DOCKED: REMARK SMILES IDX 27 14 24 15 26 16 25 17 7 18 8 19 12 20 9 21 11 22 10 23
DOCKED: REMARK SMILES IDX 13 24 14 25 19 26 15 27 17 28 16 29 18 30
DOCKED: REMARK H PARENT 3 7
DOCKED: USER                              x       y       z     vdW  Elec       q    Type
DOCKED: USER                           _______ _______ _______ _____ _____    ______ ____
DOCKED: ROOT
DOCKED: ATOM      1  C   UNL     1     140.467  75.524 221.391 -0.23 -0.06    +0.242 C  
DOCKED: ATOM      2  O   UNL     1     141.504  75.092 221.968 -0.37 +0.05    -0.273 OA 
DOCKED: ENDROOT
DOCKED: BRANCH   1   3
DOCKED: ATOM      3  C   UNL     1     139.277  74.654 221.260 -0.17 -0.05    +0.216 C  
DOCKED: BRANCH   3   4
DOCKED: ATOM      4  N   UNL     1     139.192  73.679 222.330 -0.07 +0.09    -0.342 N  
DOCKED: ATOM      5  C   UNL     1     140.113  72.588 222.377 -0.20 -0.03    +0.270 C  
DOCKED: ATOM      6  O   UNL     1     141.013  72.443 221.502 -0.19 +0.03    -0.268 OA 
DOCKED: ATOM      7  H   UNL     1     138.453  73.758 223.090 -0.55 -0.12    +0.164 HD 
DOCKED: BRANCH   5   8
DOCKED: ATOM      8  C   UNL     1     139.972  71.639 223.484 -0.32 -0.02    +0.128 A  
DOCKED: ATOM      9  C   UNL     1     139.326  70.433 223.273 -0.26 -0.01    +0.035 A  
DOCKED: ATOM     10  N   UNL     1     140.451  71.890 224.717 -0.27 +0.04    -0.243 NA 
DOCKED: ATOM     11  C   UNL     1     139.173  69.510 224.294 -0.33 -0.00    +0.013 A  
DOCKED: ATOM     12  C   UNL     1     140.333  71.031 225.747 -0.52 -0.01    +0.071 A  
DOCKED: ATOM     13  C   UNL     1     139.686  69.827 225.534 -0.45 -0.00    +0.000 A  
DOCKED: ATOM     14  C   UNL     1     140.859  71.378 226.984 -0.70 -0.00    +0.029 A  
DOCKED: ATOM     15  C   UNL     1     139.548  68.923 226.571 -0.53 -0.00    +0.010 A  
DOCKED: ATOM     16  C   UNL     1     140.717  70.466 228.020 -0.65 -0.00    +0.002 A  
DOCKED: ATOM     17  C   UNL     1     140.073  69.267 227.809 -0.63 -0.00    +0.001 A  
DOCKED: ENDBRANCH   5   8
DOCKED: ENDBRANCH   3   4
DOCKED: ENDBRANCH   1   3
DOCKED: BRANCH   1  18
DOCKED: ATOM     18  N   UNL     1     140.384  76.834 220.846 -0.08 +0.11    -0.334 N  
DOCKED: ATOM     19  C   UNL     1     139.173  77.338 220.197 -0.07 -0.03    +0.120 C  
DOCKED: ATOM     20  C   UNL     1     141.505  77.755 220.905 -0.27 -0.06    +0.115 C  
DOCKED: ATOM     21  C   UNL     1     139.508  77.784 218.767 -0.04 -0.01    +0.022 C  
DOCKED: ATOM     22  C   UNL     1     141.758  78.319 219.525 -0.27 -0.02    +0.030 C  
DOCKED: ATOM     23  C   UNL     1     140.517  78.908 218.916 -0.12 -0.00    +0.004 C  
DOCKED: BRANCH  20  24
DOCKED: ATOM     24  C   UNL     1     141.338  78.812 221.922 -0.40 +0.01    -0.024 A  
DOCKED: ATOM     25  C   UNL     1     142.465  79.507 222.313 -0.52 -0.00    +0.006 A  
DOCKED: ATOM     26  C   UNL     1     140.109  79.124 222.490 -0.33 -0.01    +0.026 A  
DOCKED: ATOM     27  C   UNL     1     142.376  80.521 223.273 -0.65 -0.00    +0.002 A  
DOCKED: ATOM     28  C   UNL     1     140.058  80.129 223.434 -0.42 -0.01    +0.041 A  
DOCKED: ATOM     29  C   UNL     1     141.159  80.840 223.843 -0.48 -0.00    +0.020 A  
DOCKED: ATOM     30  Cl  UNL     1     138.518  80.555 224.178 -0.46 +0.01    -0.084 Cl 
DOCKED: ENDBRANCH  20  24
DOCKED: ENDBRANCH   1  18
DOCKED: TORSDOF 5
DOCKED: TER
DOCKED: ENDMDL
________________________________________________________________________________


    FINAL DOCKED STATE:
    ________________________


Run:   16 / 20
Time taken for this run:   0.026s

DOCKED: MODEL        16
DOCKED: USER    Run = 16
DOCKED: USER
DOCKED: USER    Estimated Free Energy of Binding    =  -8.65 kcal/mol  [=(1)+(2)+(3)-(4)]
DOCKED: USER
DOCKED: USER    (1) Final Intermolecular Energy     = -10.14 kcal/mol
DOCKED: USER        vdW + Hbond + desolv Energy     = -10.17 kcal/mol
DOCKED: USER        Electrostatic Energy            =  +0.03 kcal/mol
DOCKED: USER        Moving Ligand-Fixed Receptor    = -10.14 kcal/mol
DOCKED: USER        Moving Ligand-Moving Receptor   =  +0.00 kcal/mol
DOCKED: USER    (2) Final Total Internal Energy     =  -1.55 kcal/mol
DOCKED: USER    (3) Torsional Free Energy           =  +1.49 kcal/mol
DOCKED: USER    (4) Unbound System's Energy         =  -1.55 kcal/mol
DOCKED: USER
DOCKED: USER
DOCKED: REMARK SMILES O=C(NCC(=O)N1CCCC[C@H]1c1cccc(Cl)c1)c1ccc2ccccc2n1
DOCKED: REMARK SMILES IDX 5 1 6 2 4 3 3 4 2 5 1 6 20 8 21 9 29 10 22 11 28 12 23 13
DOCKED: REMARK SMILES IDX 27 14 24 15 26 16 25 17 7 18 8 19 12 20 9 21 11 22 10 23
DOCKED: REMARK SMILES IDX 13 24 14 25 19 26 15 27 17 28 16 29 18 30
DOCKED: REMARK H PARENT 3 7
DOCKED: USER                              x       y       z     vdW  Elec       q    Type
DOCKED: USER                           _______ _______ _______ _____ _____    ______ ____
DOCKED: ROOT
DOCKED: ATOM      1  C   UNL     1     137.727  72.323 222.390 -0.09 -0.07    +0.242 C  
DOCKED: ATOM      2  O   UNL     1     136.736  72.705 223.075 -0.12 +0.09    -0.273 OA 
DOCKED: ENDROOT
DOCKED: BRANCH   1   3
DOCKED: ATOM      3  C   UNL     1     138.209  73.152 221.263 -0.09 -0.05    +0.216 C  
DOCKED: BRANCH   3   4
DOCKED: ATOM      4  N   UNL     1     138.361  74.545 221.634 -0.09 +0.09    -0.342 N  
DOCKED: ATOM      5  C   UNL     1     139.651  75.056 221.975 -0.19 -0.04    +0.270 C  
DOCKED: ATOM      6  O   UNL     1     140.679  74.322 221.961 -0.76 +0.01    -0.268 OA 
DOCKED: ATOM      7  H   UNL     1     137.527  75.203 221.661 +0.03 -0.04    +0.164 HD 
DOCKED: BRANCH   5   8
DOCKED: ATOM      8  C   UNL     1     139.736  76.471 222.342 -0.31 -0.03    +0.128 A  
DOCKED: ATOM      9  C   UNL     1     138.574  77.185 222.585 -0.29 -0.01    +0.035 A  
DOCKED: ATOM     10  N   UNL     1     140.909  77.120 222.457 -0.27 +0.09    -0.243 NA 
DOCKED: ATOM     11  C   UNL     1     138.613  78.525 222.935 -0.28 -0.00    +0.013 A  
DOCKED: ATOM     12  C   UNL     1     141.009  78.419 222.794 -0.45 -0.02    +0.071 A  
DOCKED: ATOM     13  C   UNL     1     139.847  79.131 223.036 -0.39 -0.00    +0.000 A  
DOCKED: ATOM     14  C   UNL     1     142.265  79.002 222.888 -0.52 -0.01    +0.029 A  
DOCKED: ATOM     15  C   UNL     1     139.915  80.468 223.385 -0.42 -0.00    +0.010 A  
DOCKED: ATOM     16  C   UNL     1     142.325  80.343 223.237 -0.64 -0.00    +0.002 A  
DOCKED: ATOM     17  C   UNL     1     141.169  81.053 223.479 -0.51 -0.00    +0.001 A  
DOCKED: ENDBRANCH   5   8
DOCKED: ENDBRANCH   3   4
DOCKED: ENDBRANCH   1   3
DOCKED: BRANCH   1  18
DOCKED: ATOM     18  N   UNL     1     138.416  71.108 222.653 -0.08 +0.07    -0.334 N  
DOCKED: ATOM     19  C   UNL     1     139.458  70.591 221.765 -0.14 -0.02    +0.120 C  
DOCKED: ATOM     20  C   UNL     1     138.125  70.306 223.827 -0.23 -0.02    +0.115 C  
DOCKED: ATOM     21  C   UNL     1     139.081  69.177 221.304 -0.13 -0.00    +0.022 C  
DOCKED: ATOM     22  C   UNL     1     137.892  68.873 223.405 -0.24 -0.00    +0.030 C  
DOCKED: ATOM     23  C   UNL     1     139.019  68.338 222.567 -0.18 -0.00    +0.004 C  
DOCKED: BRANCH  20  24
DOCKED: ATOM     24  C   UNL     1     139.152  70.422 224.882 -0.38 +0.00    -0.024 A  
DOCKED: ATOM     25  C   UNL     1     140.018  71.495 224.815 -0.45 -0.00    +0.006 A  
DOCKED: ATOM     26  C   UNL     1     139.274  69.505 225.918 -0.43 -0.00    +0.026 A  
DOCKED: ATOM     27  C   UNL     1     141.015  71.663 225.783 -0.59 -0.00    +0.002 A  
DOCKED: ATOM     28  C   UNL     1     140.268  69.702 226.855 -0.53 -0.01    +0.041 A  
DOCKED: ATOM     29  C   UNL     1     141.145  70.757 226.818 -0.59 -0.00    +0.020 A  
DOCKED: ATOM     30  Cl  UNL     1     140.457  68.560 228.185 -0.80 +0.02    -0.084 Cl 
DOCKED: ENDBRANCH  20  24
DOCKED: ENDBRANCH   1  18
DOCKED: TORSDOF 5
DOCKED: TER
DOCKED: ENDMDL
________________________________________________________________________________


    FINAL DOCKED STATE:
    ________________________


Run:   17 / 20
Time taken for this run:   0.026s

DOCKED: MODEL        17
DOCKED: USER    Run = 17
DOCKED: USER
DOCKED: USER    Estimated Free Energy of Binding    =  -9.30 kcal/mol  [=(1)+(2)+(3)-(4)]
DOCKED: USER
DOCKED: USER    (1) Final Intermolecular Energy     = -10.80 kcal/mol
DOCKED: USER        vdW + Hbond + desolv Energy     = -10.68 kcal/mol
DOCKED: USER        Electrostatic Energy            =  -0.11 kcal/mol
DOCKED: USER        Moving Ligand-Fixed Receptor    = -10.80 kcal/mol
DOCKED: USER        Moving Ligand-Moving Receptor   =  +0.00 kcal/mol
DOCKED: USER    (2) Final Total Internal Energy     =  -1.64 kcal/mol
DOCKED: USER    (3) Torsional Free Energy           =  +1.49 kcal/mol
DOCKED: USER    (4) Unbound System's Energy         =  -1.64 kcal/mol
DOCKED: USER
DOCKED: USER
DOCKED: REMARK SMILES O=C(NCC(=O)N1CCCC[C@H]1c1cccc(Cl)c1)c1ccc2ccccc2n1
DOCKED: REMARK SMILES IDX 5 1 6 2 4 3 3 4 2 5 1 6 20 8 21 9 29 10 22 11 28 12 23 13
DOCKED: REMARK SMILES IDX 27 14 24 15 26 16 25 17 7 18 8 19 12 20 9 21 11 22 10 23
DOCKED: REMARK SMILES IDX 13 24 14 25 19 26 15 27 17 28 16 29 18 30
DOCKED: REMARK H PARENT 3 7
DOCKED: USER                              x       y       z     vdW  Elec       q    Type
DOCKED: USER                           _______ _______ _______ _____ _____    ______ ____
DOCKED: ROOT
DOCKED: ATOM      1  C   UNL     1     139.242  75.827 221.553 -0.19 -0.05    +0.242 C  
DOCKED: ATOM      2  O   UNL     1     138.264  75.982 222.337 -0.22 +0.06    -0.273 OA 
DOCKED: ENDROOT
DOCKED: BRANCH   1   3
DOCKED: ATOM      3  C   UNL     1     139.720  74.464 221.228 -0.18 -0.04    +0.216 C  
DOCKED: BRANCH   3   4
DOCKED: ATOM      4  N   UNL     1     139.578  73.554 222.348 -0.13 +0.06    -0.342 N  
DOCKED: ATOM      5  C   UNL     1     140.476  72.452 222.491 -0.19 -0.02    +0.270 C  
DOCKED: ATOM      6  O   UNL     1     141.405  72.242 221.660 -0.20 +0.02    -0.268 OA 
DOCKED: ATOM      7  H   UNL     1     138.813  73.688 223.074 -0.54 -0.10    +0.164 HD 
DOCKED: BRANCH   5   8
DOCKED: ATOM      8  C   UNL     1     140.277  71.570 223.644 -0.33 -0.02    +0.128 A  
DOCKED: ATOM      9  C   UNL     1     139.633  70.356 223.473 -0.28 -0.01    +0.035 A  
DOCKED: ATOM     10  N   UNL     1     140.700  71.891 224.881 -0.28 +0.03    -0.243 NA 
DOCKED: ATOM     11  C   UNL     1     139.427  69.495 224.538 -0.35 -0.00    +0.013 A  
DOCKED: ATOM     12  C   UNL     1     140.527  71.095 225.952 -0.55 -0.01    +0.071 A  
DOCKED: ATOM     13  C   UNL     1     139.883  69.882 225.780 -0.47 -0.00    +0.000 A  
DOCKED: ATOM     14  C   UNL     1     140.997  71.511 227.190 -0.74 -0.01    +0.029 A  
DOCKED: ATOM     15  C   UNL     1     139.690  69.041 226.860 -0.55 -0.00    +0.010 A  
DOCKED: ATOM     16  C   UNL     1     140.800  70.662 228.270 -0.61 -0.00    +0.002 A  
DOCKED: ATOM     17  C   UNL     1     140.159  69.455 228.099 -0.63 -0.00    +0.001 A  
DOCKED: ENDBRANCH   5   8
DOCKED: ENDBRANCH   3   4
DOCKED: ENDBRANCH   1   3
DOCKED: BRANCH   1  18
DOCKED: ATOM     18  N   UNL     1     139.923  76.921 220.953 -0.06 +0.10    -0.334 N  
DOCKED: ATOM     19  C   UNL     1     139.376  77.653 219.811 -0.06 -0.03    +0.120 C  
DOCKED: ATOM     20  C   UNL     1     141.210  77.377 221.445 -0.26 -0.06    +0.115 C  
DOCKED: ATOM     21  C   UNL     1     140.379  77.613 218.650 -0.08 -0.01    +0.022 C  
DOCKED: ATOM     22  C   UNL     1     142.176  77.485 220.287 -0.26 -0.02    +0.030 C  
DOCKED: ATOM     23  C   UNL     1     141.625  78.315 219.162 -0.25 -0.00    +0.004 C  
DOCKED: BRANCH  20  24
DOCKED: ATOM     24  C   UNL     1     141.125  78.630 222.224 -0.41 +0.01    -0.024 A  
DOCKED: ATOM     25  C   UNL     1     142.286  79.358 222.391 -0.54 -0.00    +0.006 A  
DOCKED: ATOM     26  C   UNL     1     139.941  79.090 222.783 -0.36 -0.01    +0.026 A  
DOCKED: ATOM     27  C   UNL     1     142.275  80.553 223.118 -0.63 -0.00    +0.002 A  
DOCKED: ATOM     28  C   UNL     1     139.966  80.272 223.495 -0.42 -0.01    +0.041 A  
DOCKED: ATOM     29  C   UNL     1     141.102  81.020 223.679 -0.47 -0.00    +0.020 A  
DOCKED: ATOM     30  Cl  UNL     1     138.483  80.890 224.221 -0.44 +0.01    -0.084 Cl 
DOCKED: ENDBRANCH  20  24
DOCKED: ENDBRANCH   1  18
DOCKED: TORSDOF 5
DOCKED: TER
DOCKED: ENDMDL
________________________________________________________________________________


    FINAL DOCKED STATE:
    ________________________


Run:   18 / 20
Time taken for this run:   0.026s

DOCKED: MODEL        18
DOCKED: USER    Run = 18
DOCKED: USER
DOCKED: USER    Estimated Free Energy of Binding    =  -8.99 kcal/mol  [=(1)+(2)+(3)-(4)]
DOCKED: USER
DOCKED: USER    (1) Final Intermolecular Energy     = -10.48 kcal/mol
DOCKED: USER        vdW + Hbond + desolv Energy     = -10.54 kcal/mol
DOCKED: USER        Electrostatic Energy            =  +0.07 kcal/mol
DOCKED: USER        Moving Ligand-Fixed Receptor    = -10.48 kcal/mol
DOCKED: USER        Moving Ligand-Moving Receptor   =  +0.00 kcal/mol
DOCKED: USER    (2) Final Total Internal Energy     =  -1.56 kcal/mol
DOCKED: USER    (3) Torsional Free Energy           =  +1.49 kcal/mol
DOCKED: USER    (4) Unbound System's Energy         =  -1.56 kcal/mol
DOCKED: USER
DOCKED: USER
DOCKED: REMARK SMILES O=C(NCC(=O)N1CCCC[C@H]1c1cccc(Cl)c1)c1ccc2ccccc2n1
DOCKED: REMARK SMILES IDX 5 1 6 2 4 3 3 4 2 5 1 6 20 8 21 9 29 10 22 11 28 12 23 13
DOCKED: REMARK SMILES IDX 27 14 24 15 26 16 25 17 7 18 8 19 12 20 9 21 11 22 10 23
DOCKED: REMARK SMILES IDX 13 24 14 25 19 26 15 27 17 28 16 29 18 30
DOCKED: REMARK H PARENT 3 7
DOCKED: USER                              x       y       z     vdW  Elec       q    Type
DOCKED: USER                           _______ _______ _______ _____ _____    ______ ____
DOCKED: ROOT
DOCKED: ATOM      1  C   UNL     1     138.291  72.220 222.347 -0.12 -0.07    +0.242 C  
DOCKED: ATOM      2  O   UNL     1     137.120  72.668 222.501 -0.10 +0.08    -0.273 OA 
DOCKED: ENDROOT
DOCKED: BRANCH   1   3
DOCKED: ATOM      3  C   UNL     1     139.307  73.036 221.645 -0.16 -0.04    +0.216 C  
DOCKED: BRANCH   3   4
DOCKED: ATOM      4  N   UNL     1     139.308  74.414 222.095 -0.13 +0.07    -0.342 N  
DOCKED: ATOM      5  C   UNL     1     140.357  75.296 221.691 -0.21 -0.05    +0.270 C  
DOCKED: ATOM      6  O   UNL     1     141.298  74.908 220.942 -0.22 +0.07    -0.268 OA 
DOCKED: ATOM      7  H   UNL     1     138.539  74.789 222.726 -0.49 -0.07    +0.164 HD 
DOCKED: BRANCH   5   8
DOCKED: ATOM      8  C   UNL     1     140.299  76.675 222.181 -0.33 -0.03    +0.128 A  
DOCKED: ATOM      9  C   UNL     1     139.069  77.264 222.425 -0.30 -0.01    +0.035 A  
DOCKED: ATOM     10  N   UNL     1     141.404  77.408 222.411 -0.15 +0.12    -0.243 NA 
DOCKED: ATOM     11  C   UNL     1     138.973  78.565 222.889 -0.31 -0.00    +0.013 A  
DOCKED: ATOM     12  C   UNL     1     141.373  78.676 222.862 -0.48 -0.03    +0.071 A  
DOCKED: ATOM     13  C   UNL     1     140.143  79.263 223.104 -0.42 -0.00    +0.000 A  
DOCKED: ATOM     14  C   UNL     1     142.567  79.353 223.069 -0.58 -0.01    +0.029 A  
DOCKED: ATOM     15  C   UNL     1     140.076  80.563 223.568 -0.43 -0.00    +0.010 A  
DOCKED: ATOM     16  C   UNL     1     142.492  80.658 223.534 -0.66 -0.00    +0.002 A  
DOCKED: ATOM     17  C   UNL     1     141.268  81.243 223.775 -0.48 -0.00    +0.001 A  
DOCKED: ENDBRANCH   5   8
DOCKED: ENDBRANCH   3   4
DOCKED: ENDBRANCH   1   3
DOCKED: BRANCH   1  18
DOCKED: ATOM     18  N   UNL     1     138.691  70.943 222.824 -0.09 +0.07    -0.334 N  
DOCKED: ATOM     19  C   UNL     1     139.594  70.073 222.071 -0.12 -0.02    +0.120 C  
DOCKED: ATOM     20  C   UNL     1     138.222  70.425 224.097 -0.25 -0.02    +0.115 C  
DOCKED: ATOM     21  C   UNL     1     138.912  68.721 221.822 -0.17 -0.00    +0.022 C  
DOCKED: ATOM     22  C   UNL     1     137.677  69.029 223.896 -0.26 -0.00    +0.030 C  
DOCKED: ATOM     23  C   UNL     1     138.658  68.131 223.197 -0.27 -0.00    +0.004 C  
DOCKED: BRANCH  20  24
DOCKED: ATOM     24  C   UNL     1     139.245  70.481 225.161 -0.37 +0.00    -0.024 A  
DOCKED: ATOM     25  C   UNL     1     140.151  71.521 225.123 -0.47 -0.00    +0.006 A  
DOCKED: ATOM     26  C   UNL     1     139.325  69.539 226.179 -0.44 -0.00    +0.026 A  
DOCKED: ATOM     27  C   UNL     1     141.146  71.632 226.100 -0.66 -0.00    +0.002 A  
DOCKED: ATOM     28  C   UNL     1     140.318  69.679 227.126 -0.55 -0.01    +0.041 A  
DOCKED: ATOM     29  C   UNL     1     141.234  70.702 227.117 -0.53 -0.00    +0.020 A  
DOCKED: ATOM     30  Cl  UNL     1     140.453  68.505 228.434 -0.77 +0.02    -0.084 Cl 
DOCKED: ENDBRANCH  20  24
DOCKED: ENDBRANCH   1  18
DOCKED: TORSDOF 5
DOCKED: TER
DOCKED: ENDMDL
________________________________________________________________________________


    FINAL DOCKED STATE:
    ________________________


Run:   19 / 20
Time taken for this run:   0.026s

DOCKED: MODEL        19
DOCKED: USER    Run = 19
DOCKED: USER
DOCKED: USER    Estimated Free Energy of Binding    =  -9.33 kcal/mol  [=(1)+(2)+(3)-(4)]
DOCKED: USER
DOCKED: USER    (1) Final Intermolecular Energy     = -10.82 kcal/mol
DOCKED: USER        vdW + Hbond + desolv Energy     = -10.70 kcal/mol
DOCKED: USER        Electrostatic Energy            =  -0.11 kcal/mol
DOCKED: USER        Moving Ligand-Fixed Receptor    = -10.82 kcal/mol
DOCKED: USER        Moving Ligand-Moving Receptor   =  +0.00 kcal/mol
DOCKED: USER    (2) Final Total Internal Energy     =  -1.63 kcal/mol
DOCKED: USER    (3) Torsional Free Energy           =  +1.49 kcal/mol
DOCKED: USER    (4) Unbound System's Energy         =  -1.63 kcal/mol
DOCKED: USER
DOCKED: USER
DOCKED: REMARK SMILES O=C(NCC(=O)N1CCCC[C@H]1c1cccc(Cl)c1)c1ccc2ccccc2n1
DOCKED: REMARK SMILES IDX 5 1 6 2 4 3 3 4 2 5 1 6 20 8 21 9 29 10 22 11 28 12 23 13
DOCKED: REMARK SMILES IDX 27 14 24 15 26 16 25 17 7 18 8 19 12 20 9 21 11 22 10 23
DOCKED: REMARK SMILES IDX 13 24 14 25 19 26 15 27 17 28 16 29 18 30
DOCKED: REMARK H PARENT 3 7
DOCKED: USER                              x       y       z     vdW  Elec       q    Type
DOCKED: USER                           _______ _______ _______ _____ _____    ______ ____
DOCKED: ROOT
DOCKED: ATOM      1  C   UNL     1     139.204  75.812 221.525 -0.19 -0.05    +0.242 C  
DOCKED: ATOM      2  O   UNL     1     138.183  75.957 222.255 -0.20 +0.07    -0.273 OA 
DOCKED: ENDROOT
DOCKED: BRANCH   1   3
DOCKED: ATOM      3  C   UNL     1     139.708  74.454 221.222 -0.18 -0.04    +0.216 C  
DOCKED: BRANCH   3   4
DOCKED: ATOM      4  N   UNL     1     139.563  73.553 222.349 -0.13 +0.06    -0.342 N  
DOCKED: ATOM      5  C   UNL     1     140.454  72.445 222.496 -0.19 -0.02    +0.270 C  
DOCKED: ATOM      6  O   UNL     1     141.377  72.222 221.663 -0.20 +0.02    -0.268 OA 
DOCKED: ATOM      7  H   UNL     1     138.802  73.698 223.076 -0.54 -0.10    +0.164 HD 
DOCKED: BRANCH   5   8
DOCKED: ATOM      8  C   UNL     1     140.252  71.573 223.655 -0.33 -0.02    +0.128 A  
DOCKED: ATOM      9  C   UNL     1     139.586  70.369 223.498 -0.29 -0.01    +0.035 A  
DOCKED: ATOM     10  N   UNL     1     140.694  71.892 224.886 -0.28 +0.03    -0.243 NA 
DOCKED: ATOM     11  C   UNL     1     139.376  69.517 224.570 -0.35 -0.00    +0.013 A  
DOCKED: ATOM     12  C   UNL     1     140.519  71.105 225.964 -0.55 -0.01    +0.071 A  
DOCKED: ATOM     13  C   UNL     1     139.852  69.903 225.805 -0.48 -0.00    +0.000 A  
DOCKED: ATOM     14  C   UNL     1     141.010  71.520 227.194 -0.74 -0.01    +0.029 A  
DOCKED: ATOM     15  C   UNL     1     139.658  69.071 226.892 -0.55 -0.00    +0.010 A  
DOCKED: ATOM     16  C   UNL     1     140.811  70.681 228.280 -0.61 -0.00    +0.002 A  
DOCKED: ATOM     17  C   UNL     1     140.147  69.484 228.123 -0.63 -0.00    +0.001 A  
DOCKED: ENDBRANCH   5   8
DOCKED: ENDBRANCH   3   4
DOCKED: ENDBRANCH   1   3
DOCKED: BRANCH   1  18
DOCKED: ATOM     18  N   UNL     1     139.910  76.913 220.968 -0.06 +0.10    -0.334 N  
DOCKED: ATOM     19  C   UNL     1     139.394  77.682 219.836 -0.06 -0.03    +0.120 C  
DOCKED: ATOM     20  C   UNL     1     141.192  77.340 221.497 -0.26 -0.05    +0.115 C  
DOCKED: ATOM     21  C   UNL     1     140.419  77.661 218.694 -0.09 -0.01    +0.022 C  
DOCKED: ATOM     22  C   UNL     1     142.182  77.466 220.361 -0.24 -0.02    +0.030 C  
DOCKED: ATOM     23  C   UNL     1     141.663  78.333 219.249 -0.26 -0.00    +0.004 C  
DOCKED: BRANCH  20  24
DOCKED: ATOM     24  C   UNL     1     141.108  78.572 222.308 -0.42 +0.01    -0.024 A  
DOCKED: ATOM     25  C   UNL     1     142.282  79.252 222.561 -0.55 -0.00    +0.006 A  
DOCKED: ATOM     26  C   UNL     1     139.910  79.059 222.814 -0.36 -0.01    +0.026 A  
DOCKED: ATOM     27  C   UNL     1     142.271  80.426 223.323 -0.64 -0.00    +0.002 A  
DOCKED: ATOM     28  C   UNL     1     139.936  80.219 223.561 -0.41 -0.01    +0.041 A  
DOCKED: ATOM     29  C   UNL     1     141.086  80.920 223.831 -0.46 -0.00    +0.020 A  
DOCKED: ATOM     30  Cl  UNL     1     138.437  80.870 224.222 -0.45 +0.01    -0.084 Cl 
DOCKED: ENDBRANCH  20  24
DOCKED: ENDBRANCH   1  18
DOCKED: TORSDOF 5
DOCKED: TER
DOCKED: ENDMDL
________________________________________________________________________________


    FINAL DOCKED STATE:
    ________________________


Run:   20 / 20
Time taken for this run:   0.026s

DOCKED: MODEL        20
DOCKED: USER    Run = 20
DOCKED: USER
DOCKED: USER    Estimated Free Energy of Binding    =  -8.77 kcal/mol  [=(1)+(2)+(3)-(4)]
DOCKED: USER
DOCKED: USER    (1) Final Intermolecular Energy     = -10.26 kcal/mol
DOCKED: USER        vdW + Hbond + desolv Energy     = -10.24 kcal/mol
DOCKED: USER        Electrostatic Energy            =  -0.02 kcal/mol
DOCKED: USER        Moving Ligand-Fixed Receptor    = -10.26 kcal/mol
DOCKED: USER        Moving Ligand-Moving Receptor   =  +0.00 kcal/mol
DOCKED: USER    (2) Final Total Internal Energy     =  -1.69 kcal/mol
DOCKED: USER    (3) Torsional Free Energy           =  +1.49 kcal/mol
DOCKED: USER    (4) Unbound System's Energy         =  -1.69 kcal/mol
DOCKED: USER
DOCKED: USER
DOCKED: REMARK SMILES O=C(NCC(=O)N1CCCC[C@H]1c1cccc(Cl)c1)c1ccc2ccccc2n1
DOCKED: REMARK SMILES IDX 5 1 6 2 4 3 3 4 2 5 1 6 20 8 21 9 29 10 22 11 28 12 23 13
DOCKED: REMARK SMILES IDX 27 14 24 15 26 16 25 17 7 18 8 19 12 20 9 21 11 22 10 23
DOCKED: REMARK SMILES IDX 13 24 14 25 19 26 15 27 17 28 16 29 18 30
DOCKED: REMARK H PARENT 3 7
DOCKED: USER                              x       y       z     vdW  Elec       q    Type
DOCKED: USER                           _______ _______ _______ _____ _____    ______ ____
DOCKED: ROOT
DOCKED: ATOM      1  C   UNL     1     138.219  74.859 221.914 -0.14 -0.07    +0.242 C  
DOCKED: ATOM      2  O   UNL     1     137.320  75.209 222.729 -0.16 +0.09    -0.273 OA 
DOCKED: ENDROOT
DOCKED: BRANCH   1   3
DOCKED: ATOM      3  C   UNL     1     138.370  73.433 221.548 -0.12 -0.05    +0.216 C  
DOCKED: BRANCH   3   4
DOCKED: ATOM      4  N   UNL     1     138.638  72.598 222.703 +0.01 +0.12    -0.342 N  
DOCKED: ATOM      5  C   UNL     1     139.986  72.293 223.067 -0.17 -0.04    +0.270 C  
DOCKED: ATOM      6  O   UNL     1     140.967  72.735 222.404 -0.45 +0.00    -0.268 OA 
DOCKED: ATOM      7  H   UNL     1     137.847  72.202 223.293 -0.25 -0.07    +0.164 HD 
DOCKED: BRANCH   5   8
DOCKED: ATOM      8  C   UNL     1     140.187  71.444 224.243 -0.37 -0.02    +0.128 A  
DOCKED: ATOM      9  C   UNL     1     140.943  71.914 225.304 -0.28 -0.00    +0.035 A  
DOCKED: ATOM     10  N   UNL     1     139.662  70.209 224.341 -0.20 +0.04    -0.243 NA 
DOCKED: ATOM     11  C   UNL     1     141.155  71.141 226.434 -0.65 -0.00    +0.013 A  
DOCKED: ATOM     12  C   UNL     1     139.835  69.413 225.413 -0.39 -0.01    +0.071 A  
DOCKED: ATOM     13  C   UNL     1     140.591  69.884 226.473 -0.55 -0.00    +0.000 A  
DOCKED: ATOM     14  C   UNL     1     139.254  68.153 225.423 -0.47 -0.00    +0.029 A  
DOCKED: ATOM     15  C   UNL     1     140.786  69.091 227.589 -0.62 -0.00    +0.010 A  
DOCKED: ATOM     16  C   UNL     1     139.455  67.363 226.547 -0.60 -0.00    +0.002 A  
DOCKED: ATOM     17  C   UNL     1     140.207  67.830 227.602 -0.53 -0.00    +0.001 A  
DOCKED: ENDBRANCH   5   8
DOCKED: ENDBRANCH   3   4
DOCKED: ENDBRANCH   1   3
DOCKED: BRANCH   1  18
DOCKED: ATOM     18  N   UNL     1     139.116  75.787 221.317 -0.10 +0.08    -0.334 N  
DOCKED: ATOM     19  C   UNL     1     138.855  76.403 220.016 -0.05 -0.03    +0.120 C  
DOCKED: ATOM     20  C   UNL     1     140.350  76.180 221.972 -0.33 -0.03    +0.115 C  
DOCKED: ATOM     21  C   UNL     1     140.022  76.104 219.066 -0.07 -0.01    +0.022 C  
DOCKED: ATOM     22  C   UNL     1     141.498  76.031 221.000 -0.25 -0.01    +0.030 C  
DOCKED: ATOM     23  C   UNL     1     141.242  76.746 219.703 -0.21 -0.00    +0.004 C  
DOCKED: BRANCH  20  24
DOCKED: ATOM     24  C   UNL     1     140.290  77.531 222.566 -0.37 +0.01    -0.024 A  
DOCKED: ATOM     25  C   UNL     1     139.041  78.056 222.836 -0.29 -0.00    +0.006 A  
DOCKED: ATOM     26  C   UNL     1     141.424  78.278 222.857 -0.50 -0.01    +0.026 A  
DOCKED: ATOM     27  C   UNL     1     138.914  79.330 223.398 -0.36 -0.00    +0.002 A  
DOCKED: ATOM     28  C   UNL     1     141.262  79.531 223.411 -0.53 -0.01    +0.041 A  
DOCKED: ATOM     29  C   UNL     1     140.036  80.081 223.692 -0.43 -0.00    +0.020 A  
DOCKED: ATOM     30  Cl  UNL     1     142.677  80.510 223.794 -0.81 +0.02    -0.084 Cl 
DOCKED: ENDBRANCH  20  24
DOCKED: ENDBRANCH   1  18
DOCKED: TORSDOF 5
DOCKED: TER
DOCKED: ENDMDL
________________________________________________________________________________


    CLUSTERING HISTOGRAM
    ____________________


________________________________________________________________________________
     |           |     |           |     |
Clus | Lowest    | Run | Mean      | Num | Histogram
-ter | Binding   |     | Binding   | in  |
Rank | Energy    |     | Energy    | Clus|    5    10   15   20   25   30   35
_____|___________|_____|___________|_____|____:____|____:____|____:____|____:___
   1 |     -9.33 |  19 |     -9.13 |  14 |##############
   2 |     -9.05 |   1 |     -8.81 |   2 |##
   3 |     -8.99 |  18 |     -8.70 |   3 |###
   4 |     -8.00 |  12 |     -8.00 |   1 |#
_____|___________|_____|___________|_____|______________________________________


    RMSD TABLE
    __________


_______________________________________________________________________
     |      |      |           |         |                 |
Rank | Sub- | Run  | Binding   | Cluster | Reference       | Grep
     | Rank |      | Energy    | RMSD    | RMSD            | Pattern
_____|______|______|___________|_________|_________________|___________
   1      1     19       -9.33      0.00    271.45           RANKING
   1      2     17       -9.30      0.09    271.43           RANKING
   1      3      8       -9.30      0.07    271.44           RANKING
   1      4      2       -9.28      0.10    271.43           RANKING
   1      5      3       -9.26      0.97    271.40           RANKING
   1      6      6       -9.19      1.02    271.30           RANKING
   1      7     15       -9.18      0.74    271.30           RANKING
   1      8     11       -9.17      0.35    271.37           RANKING
   1      9     14       -9.15      0.99    271.32           RANKING
   1     10      5       -9.11      0.45    271.37           RANKING
   1     11      4       -9.09      1.12    271.30           RANKING
   1     12      7       -8.94      0.71    271.34           RANKING
   1     13      9       -8.79      1.41    271.11           RANKING
   1     14     20       -8.77      1.50    271.18           RANKING
   2      1      1       -9.05      0.00    270.82           RANKING
   2      2     13       -8.57      1.35    270.73           RANKING
   3      1     18       -8.99      0.00    271.21           RANKING
   3      2     16       -8.65      0.65    270.92           RANKING
   3      3     10       -8.47      1.67    271.19           RANKING
   4      1     12       -8.00      0.00    271.02           RANKING

Run time 0.450 sec
Idle time 0.000 sec
