AutoDock-GPU version: v1.6

**********************************************************
**    AutoDock-GPU AUTODOCKTOOLS-COMPATIBLE DLG FILE    **
**********************************************************


    DOCKING PARAMETERS
    ________________________


Ligand file:                               /home/a/REINVENT4/ReinventStudies/pleaseWork/justmol2mol_4_Compounds_ontop/graph-dock-8u2o5u/graph-DockGPU/node-autodockgpu/inputs/ACXLJXGRQFYMRA-CPRCKEJLNA-N.pdbqt
Grid fld file:                             /home/a/REINVENT4/ReinventStudies/mols/Rad51/maps/rad51_receptor.maps.fld

Random seed:                               42
Number of runs:                            20
Number of energy evaluations:              3119281
Number of generations:                     42000
Size of population:                        150
Rate of crossover:                         80.000000%
Tournament selection probability limit:    60.000000%
Rate of mutation:                          2.000000%
Maximal allowed delta movement:            +/- 6.000000A
Maximal allowed delta angle:               +/- 90.000000

Rate of local search:                      100.000000%
Maximal number of local search iterations: 300
Rho lower bound:                           0.010000
Spread of local search delta movement:     2.000000A
Spread of local search delta angle:        74.999999
Limit of consecutive successes/failures:   4

Handle symmetry during clustering:         YES
RMSD tolerance:                            2.000000A

Program call in command line was:          /home/a/REINVENT4/ReinventStudies/adgpu-v1.6_linux_x64_cuda12_128wi --filelist batch.txt --heuristics 1 --nrun 20 --psize 150 --lsit 300 --seed 42 --heurmax 12000000 


    GRID PARAMETERS
    ________________________


Receptor name:                             rad51_receptor
Number of grid points (x, y, z):           53, 53, 53
Grid center (x, y, z):                     139.950000, 75.640000, 221.970000A
Grid size (x, y, z):                       19.500000, 19.500000, 19.500000A
Grid spacing:                              0.375000A


    LIGAND PARAMETERS
    ________________________


Ligand name:                               /home/a/REINVENT4/ReinventStudies/pleaseWork/justmol2mol_4_Compounds_ontop/graph-dock-8u2o5u/graph-DockGPU/node-autodockgpu/inputs/ACXLJXGRQFYMRA-CPRCKEJLNA-N
Number of atoms:                           34
Number of rotatable bonds:                 11
Number of atom types:                      7


    DUMMY DATA (only for ADT-compatibility)
    ________________________


DPF> outlev 1
DPF> ga_run 20
DPF> fld /home/a/REINVENT4/ReinventStudies/mols/Rad51/maps/rad51_receptor.maps.fld
DPF> move /home/a/REINVENT4/ReinventStudies/pleaseWork/justmol2mol_4_Compounds_ontop/graph-dock-8u2o5u/graph-DockGPU/node-autodockgpu/inputs/ACXLJXGRQFYMRA-CPRCKEJLNA-N.pdbqt


    COUNTER STATES
    ________________________


Number of energy evaluations performed:    3119436
Number of generations used:                165


    INPUT LIGAND PDBQT FILE:
    ________________________


INPUT-LIGAND-PDBQT: REMARK SMILES O=C([N-]C/C(O)=[N+]1\C[C@H](O)C[C@H]1COCc1ccccc1)c1ccc2cc(Cl)ccc2n1
INPUT-LIGAND-PDBQT: REMARK SMILES IDX 5 1 6 2 7 4 8 5 12 6 9 7 11 8 13 9 14 10 15 11 16 12 17 13
INPUT-LIGAND-PDBQT: REMARK SMILES IDX 21 14 18 15 20 16 19 17 10 18 4 20 3 21 2 22 1 23 22 24
INPUT-LIGAND-PDBQT: REMARK SMILES IDX 32 25 23 26 31 27 24 28 30 29 25 30 29 31 26 32 27 33 28 34
INPUT-LIGAND-PDBQT: REMARK H PARENT 6 3 10 19
INPUT-LIGAND-PDBQT: ROOT
INPUT-LIGAND-PDBQT: ATOM      1  C   UNL     1      -2.509  -2.062   1.192  1.00  0.00     0.316 C 
INPUT-LIGAND-PDBQT: ENDROOT
INPUT-LIGAND-PDBQT: BRANCH   1   2
INPUT-LIGAND-PDBQT: ATOM      2  O   UNL     1      -2.240  -2.105   2.565  1.00  0.00    -0.465 OA
INPUT-LIGAND-PDBQT: ATOM      3  H   UNL     1      -1.637  -2.784   3.007  1.00  0.00     0.299 HD
INPUT-LIGAND-PDBQT: ENDBRANCH   1   2
INPUT-LIGAND-PDBQT: BRANCH   1   4
INPUT-LIGAND-PDBQT: ATOM      4  N   UNL     1      -1.911  -2.870   0.340  1.00  0.00    -0.196 N 
INPUT-LIGAND-PDBQT: ATOM      5  C   UNL     1      -2.273  -2.964  -1.074  1.00  0.00     0.386 C 
INPUT-LIGAND-PDBQT: ATOM      6  C   UNL     1      -0.869  -3.840   0.688  1.00  0.00     0.292 C 
INPUT-LIGAND-PDBQT: ATOM      7  C   UNL     1      -1.383  -4.053  -1.670  1.00  0.00     0.186 C 
INPUT-LIGAND-PDBQT: ATOM      8  C   UNL     1      -0.868  -4.840  -0.470  1.00  0.00     0.117 C 
INPUT-LIGAND-PDBQT: BRANCH   6   9
INPUT-LIGAND-PDBQT: ATOM      9  C   UNL     1       0.508  -3.153   0.802  1.00  0.00     0.236 C 
INPUT-LIGAND-PDBQT: BRANCH   9  10
INPUT-LIGAND-PDBQT: ATOM     10  O   UNL     1       0.460  -2.105   1.745  1.00  0.00    -0.370 OA
INPUT-LIGAND-PDBQT: BRANCH  10  11
INPUT-LIGAND-PDBQT: ATOM     11  C   UNL     1       1.749  -1.553   1.912  1.00  0.00     0.196 C 
INPUT-LIGAND-PDBQT: BRANCH  11  12
INPUT-LIGAND-PDBQT: ATOM     12  C   UNL     1       1.655  -0.357   2.816  1.00  0.00    -0.022 A 
INPUT-LIGAND-PDBQT: ATOM     13  C   UNL     1       1.861   0.940   2.317  1.00  0.00     0.006 A 
INPUT-LIGAND-PDBQT: ATOM     14  C   UNL     1       1.338  -0.530   4.173  1.00  0.00     0.006 A 
INPUT-LIGAND-PDBQT: ATOM     15  C   UNL     1       1.774   2.045   3.170  1.00  0.00     0.000 A 
INPUT-LIGAND-PDBQT: ATOM     16  C   UNL     1       1.243   0.578   5.021  1.00  0.00     0.000 A 
INPUT-LIGAND-PDBQT: ATOM     17  C   UNL     1       1.463   1.864   4.520  1.00  0.00     0.000 A 
INPUT-LIGAND-PDBQT: ENDBRANCH  11  12
INPUT-LIGAND-PDBQT: ENDBRANCH  10  11
INPUT-LIGAND-PDBQT: ENDBRANCH   9  10
INPUT-LIGAND-PDBQT: ENDBRANCH   6   9
INPUT-LIGAND-PDBQT: BRANCH   7  18
INPUT-LIGAND-PDBQT: ATOM     18  O   UNL     1      -2.101  -4.889  -2.538  1.00  0.00    -0.386 OA
INPUT-LIGAND-PDBQT: ATOM     19  H   UNL     1      -2.247  -4.369  -3.371  1.00  0.00     0.211 HD
INPUT-LIGAND-PDBQT: ENDBRANCH   7  18
INPUT-LIGAND-PDBQT: ENDBRANCH   1   4
INPUT-LIGAND-PDBQT: BRANCH   1  20
INPUT-LIGAND-PDBQT: ATOM     20  C   UNL     1      -3.492  -1.018   0.734  1.00  0.00     0.039 C 
INPUT-LIGAND-PDBQT: BRANCH  20  21
INPUT-LIGAND-PDBQT: ATOM     21  N   UNL     1      -2.781   0.083   0.095  1.00  0.00    -0.637 NA
INPUT-LIGAND-PDBQT: BRANCH  21  22
INPUT-LIGAND-PDBQT: ATOM     22  C   UNL     1      -1.982   1.027   0.815  1.00  0.00     0.101 C 
INPUT-LIGAND-PDBQT: ATOM     23  O   UNL     1      -1.983   1.026   2.077  1.00  0.00    -0.313 OA
INPUT-LIGAND-PDBQT: BRANCH  22  24
INPUT-LIGAND-PDBQT: ATOM     24  C   UNL     1      -1.155   1.994   0.073  1.00  0.00     0.088 A 
INPUT-LIGAND-PDBQT: ATOM     25  N   UNL     1      -1.028   1.865  -1.277  1.00  0.00    -0.246 NA
INPUT-LIGAND-PDBQT: ATOM     26  C   UNL     1      -0.485   3.037   0.734  1.00  0.00     0.031 A 
INPUT-LIGAND-PDBQT: ATOM     27  C   UNL     1      -0.262   2.711  -2.015  1.00  0.00     0.071 A 
INPUT-LIGAND-PDBQT: ATOM     28  C   UNL     1       0.314   3.918   0.004  1.00  0.00     0.013 A 
INPUT-LIGAND-PDBQT: ATOM     29  C   UNL     1      -0.160   2.539  -3.400  1.00  0.00     0.030 A 
INPUT-LIGAND-PDBQT: ATOM     30  C   UNL     1       0.437   3.763  -1.382  1.00  0.00     0.002 A 
INPUT-LIGAND-PDBQT: ATOM     31  C   UNL     1       0.633   3.408  -4.156  1.00  0.00     0.023 A 
INPUT-LIGAND-PDBQT: ATOM     32  C   UNL     1       1.233   4.629  -2.145  1.00  0.00     0.030 A 
INPUT-LIGAND-PDBQT: ATOM     33  C   UNL     1       1.331   4.449  -3.531  1.00  0.00     0.041 A 
INPUT-LIGAND-PDBQT: ATOM     34  Cl  UNL     1       2.326   5.532  -4.486  1.00  0.00    -0.084 Cl
INPUT-LIGAND-PDBQT: ENDBRANCH  22  24
INPUT-LIGAND-PDBQT: ENDBRANCH  21  22
INPUT-LIGAND-PDBQT: ENDBRANCH  20  21
INPUT-LIGAND-PDBQT: ENDBRANCH   1  20
INPUT-LIGAND-PDBQT: TORSDOF 11


    FINAL DOCKED STATE:
    ________________________


Run:   1 / 20
Time taken for this run:   0.154s

DOCKED: MODEL        1
DOCKED: USER    Run = 1
DOCKED: USER
DOCKED: USER    Estimated Free Energy of Binding    =  -7.74 kcal/mol  [=(1)+(2)+(3)-(4)]
DOCKED: USER
DOCKED: USER    (1) Final Intermolecular Energy     = -11.02 kcal/mol
DOCKED: USER        vdW + Hbond + desolv Energy     = -10.66 kcal/mol
DOCKED: USER        Electrostatic Energy            =  -0.35 kcal/mol
DOCKED: USER        Moving Ligand-Fixed Receptor    = -11.02 kcal/mol
DOCKED: USER        Moving Ligand-Moving Receptor   =  +0.00 kcal/mol
DOCKED: USER    (2) Final Total Internal Energy     =  -2.07 kcal/mol
DOCKED: USER    (3) Torsional Free Energy           =  +3.28 kcal/mol
DOCKED: USER    (4) Unbound System's Energy         =  -2.07 kcal/mol
DOCKED: USER
DOCKED: USER
DOCKED: REMARK SMILES O=C([N-]C/C(O)=[N+]1\C[C@H](O)C[C@H]1COCc1ccccc1)c1ccc2cc(Cl)ccc2n1
DOCKED: REMARK SMILES IDX 5 1 6 2 7 4 8 5 12 6 9 7 11 8 13 9 14 10 15 11 16 12 17 13
DOCKED: REMARK SMILES IDX 21 14 18 15 20 16 19 17 10 18 4 20 3 21 2 22 1 23 22 24
DOCKED: REMARK SMILES IDX 32 25 23 26 31 27 24 28 30 29 25 30 29 31 26 32 27 33 28 34
DOCKED: REMARK H PARENT 6 3 10 19
DOCKED: USER                              x       y       z     vdW  Elec       q    Type
DOCKED: USER                           _______ _______ _______ _____ _____    ______ ____
DOCKED: ROOT
DOCKED: ATOM      1  C   UNL     1     140.557  73.761 221.099 -0.15 -0.05    +0.316 C  
DOCKED: ENDROOT
DOCKED: BRANCH   1   2
DOCKED: ATOM      2  O   UNL     1     140.116  74.276 222.324 -0.73 -0.00    -0.465 OA 
DOCKED: ATOM      3  H   UNL     1     139.247  74.020 222.771 -0.44 -0.09    +0.299 HD 
DOCKED: ENDBRANCH   1   2
DOCKED: BRANCH   1   4
DOCKED: ATOM      4  N   UNL     1     141.457  74.384 220.366 -0.14 +0.05    -0.196 N  
DOCKED: ATOM      5  C   UNL     1     141.942  73.880 219.082 -0.02 -0.10    +0.386 C  
DOCKED: ATOM      6  C   UNL     1     142.158  75.611 220.755 +0.02 -0.15    +0.292 C  
DOCKED: ATOM      7  C   UNL     1     143.009  74.867 218.612 -0.15 -0.07    +0.186 C  
DOCKED: ATOM      8  C   UNL     1     143.400  75.647 219.862 -0.29 -0.07    +0.117 C  
DOCKED: BRANCH   6   9
DOCKED: ATOM      9  C   UNL     1     141.280  76.853 220.499 -0.18 -0.11    +0.236 C  
DOCKED: BRANCH   9  10
DOCKED: ATOM     10  O   UNL     1     140.081  76.772 221.238 -0.10 +0.11    -0.370 OA 
DOCKED: BRANCH  10  11
DOCKED: ATOM     11  C   UNL     1     139.584  78.070 221.488 -0.15 -0.05    +0.196 C  
DOCKED: BRANCH  11  12
DOCKED: ATOM     12  C   UNL     1     140.684  78.910 222.071 -0.34 +0.01    -0.022 A  
DOCKED: ATOM     13  C   UNL     1     141.205  80.006 221.362 -0.34 -0.00    +0.006 A  
DOCKED: ATOM     14  C   UNL     1     141.188  78.614 223.347 -0.54 -0.00    +0.006 A  
DOCKED: ATOM     15  C   UNL     1     142.231  80.779 221.915 -0.48 -0.00    +0.000 A  
DOCKED: ATOM     16  C   UNL     1     142.209  79.395 223.900 -0.57 -0.00    +0.000 A  
DOCKED: ATOM     17  C   UNL     1     142.731  80.475 223.183 -0.66 -0.00    +0.000 A  
DOCKED: ENDBRANCH  11  12
DOCKED: ENDBRANCH  10  11
DOCKED: ENDBRANCH   9  10
DOCKED: ENDBRANCH   6   9
DOCKED: BRANCH   7  18
DOCKED: ATOM     18  O   UNL     1     144.123  74.205 218.074 -0.07 +0.12    -0.386 OA 
DOCKED: ATOM     19  H   UNL     1     144.844  74.884 218.003 -0.46 -0.13    +0.211 HD 
DOCKED: ENDBRANCH   7  18
DOCKED: ENDBRANCH   1   4
DOCKED: BRANCH   1  20
DOCKED: ATOM     20  C   UNL     1     139.921  72.475 220.645 -0.13 -0.01    +0.039 C  
DOCKED: BRANCH  20  21
DOCKED: ATOM     21  N   UNL     1     138.582  72.359 221.212 +0.03 +0.13    -0.637 NA 
DOCKED: BRANCH  21  22
DOCKED: ATOM     22  C   UNL     1     137.982  71.108 221.564 -0.08 -0.02    +0.101 C  
DOCKED: ATOM     23  O   UNL     1     137.094  70.601 220.825 -0.01 +0.05    -0.313 OA 
DOCKED: BRANCH  22  24
DOCKED: ATOM     24  C   UNL     1     138.413  70.416 222.790 -0.17 -0.02    +0.088 A  
DOCKED: ATOM     25  N   UNL     1     139.136  71.097 223.722 -0.19 +0.05    -0.246 NA 
DOCKED: ATOM     26  C   UNL     1     138.105  69.063 223.009 -0.21 -0.00    +0.031 A  
DOCKED: ATOM     27  C   UNL     1     139.582  70.509 224.863 -0.39 -0.01    +0.071 A  
DOCKED: ATOM     28  C   UNL     1     138.554  68.429 224.168 -0.30 -0.00    +0.013 A  
DOCKED: ATOM     29  C   UNL     1     140.322  71.249 225.792 -0.55 -0.01    +0.030 A  
DOCKED: ATOM     30  C   UNL     1     139.302  69.146 225.110 -0.41 -0.00    +0.002 A  
DOCKED: ATOM     31  C   UNL     1     140.784  70.639 226.963 -0.62 -0.00    +0.023 A  
DOCKED: ATOM     32  C   UNL     1     139.771  68.540 226.284 -0.55 -0.00    +0.030 A  
DOCKED: ATOM     33  C   UNL     1     140.513  69.288 227.208 -0.57 -0.01    +0.041 A  
DOCKED: ATOM     34  Cl  UNL     1     141.099  68.530 228.677 -0.70 +0.02    -0.084 Cl 
DOCKED: ENDBRANCH  22  24
DOCKED: ENDBRANCH  21  22
DOCKED: ENDBRANCH  20  21
DOCKED: ENDBRANCH   1  20
DOCKED: TORSDOF 11
DOCKED: TER
DOCKED: ENDMDL
________________________________________________________________________________


    FINAL DOCKED STATE:
    ________________________


Run:   2 / 20
Time taken for this run:   0.154s

DOCKED: MODEL        2
DOCKED: USER    Run = 2
DOCKED: USER
DOCKED: USER    Estimated Free Energy of Binding    =  -7.95 kcal/mol  [=(1)+(2)+(3)-(4)]
DOCKED: USER
DOCKED: USER    (1) Final Intermolecular Energy     = -11.23 kcal/mol
DOCKED: USER        vdW + Hbond + desolv Energy     = -10.83 kcal/mol
DOCKED: USER        Electrostatic Energy            =  -0.40 kcal/mol
DOCKED: USER        Moving Ligand-Fixed Receptor    = -11.23 kcal/mol
DOCKED: USER        Moving Ligand-Moving Receptor   =  +0.00 kcal/mol
DOCKED: USER    (2) Final Total Internal Energy     =  -2.55 kcal/mol
DOCKED: USER    (3) Torsional Free Energy           =  +3.28 kcal/mol
DOCKED: USER    (4) Unbound System's Energy         =  -2.55 kcal/mol
DOCKED: USER
DOCKED: USER
DOCKED: REMARK SMILES O=C([N-]C/C(O)=[N+]1\C[C@H](O)C[C@H]1COCc1ccccc1)c1ccc2cc(Cl)ccc2n1
DOCKED: REMARK SMILES IDX 5 1 6 2 7 4 8 5 12 6 9 7 11 8 13 9 14 10 15 11 16 12 17 13
DOCKED: REMARK SMILES IDX 21 14 18 15 20 16 19 17 10 18 4 20 3 21 2 22 1 23 22 24
DOCKED: REMARK SMILES IDX 32 25 23 26 31 27 24 28 30 29 25 30 29 31 26 32 27 33 28 34
DOCKED: REMARK H PARENT 6 3 10 19
DOCKED: USER                              x       y       z     vdW  Elec       q    Type
DOCKED: USER                           _______ _______ _______ _____ _____    ______ ____
DOCKED: ROOT
DOCKED: ATOM      1  C   UNL     1     140.250  76.337 222.128 -0.22 -0.08    +0.316 C  
DOCKED: ENDROOT
DOCKED: BRANCH   1   2
DOCKED: ATOM      2  O   UNL     1     139.012  76.354 222.780 -0.16 +0.09    -0.465 OA 
DOCKED: ATOM      3  H   UNL     1     138.524  75.529 223.099 -0.29 -0.10    +0.299 HD 
DOCKED: ENDBRANCH   1   2
DOCKED: BRANCH   1   4
DOCKED: ATOM      4  N   UNL     1     140.962  77.432 221.956 -0.26 +0.08    -0.196 N  
DOCKED: ATOM      5  C   UNL     1     141.433  78.270 223.058 -0.25 -0.15    +0.386 C  
DOCKED: ATOM      6  C   UNL     1     141.311  78.015 220.657 -0.17 -0.15    +0.292 C  
DOCKED: ATOM      7  C   UNL     1     142.152  79.455 222.415 -0.43 -0.08    +0.186 C  
DOCKED: ATOM      8  C   UNL     1     141.669  79.470 220.969 -0.29 -0.06    +0.117 C  
DOCKED: BRANCH   6   9
DOCKED: ATOM      9  C   UNL     1     142.521  77.288 220.035 -0.10 -0.18    +0.236 C  
DOCKED: BRANCH   9  10
DOCKED: ATOM     10  O   UNL     1     142.089  76.231 219.207 -0.10 +0.18    -0.370 OA 
DOCKED: BRANCH  10  11
DOCKED: ATOM     11  C   UNL     1     143.203  75.625 218.585 -0.20 -0.10    +0.196 C  
DOCKED: BRANCH  11  12
DOCKED: ATOM     12  C   UNL     1     143.650  74.455 219.413 -0.32 +0.01    -0.022 A  
DOCKED: ATOM     13  C   UNL     1     144.781  74.549 220.241 -0.43 -0.00    +0.006 A  
DOCKED: ATOM     14  C   UNL     1     142.919  73.256 219.380 -0.18 -0.00    +0.006 A  
DOCKED: ATOM     15  C   UNL     1     145.188  73.450 221.005 -0.60 -0.00    +0.000 A  
DOCKED: ATOM     16  C   UNL     1     143.324  72.162 220.152 -0.27 -0.00    +0.000 A  
DOCKED: ATOM     17  C   UNL     1     144.459  72.259 220.962 -0.32 -0.00    +0.000 A  
DOCKED: ENDBRANCH  11  12
DOCKED: ENDBRANCH  10  11
DOCKED: ENDBRANCH   9  10
DOCKED: ENDBRANCH   6   9
DOCKED: BRANCH   7  18
DOCKED: ATOM     18  O   UNL     1     141.833  80.662 223.055 -0.27 +0.09    -0.386 OA 
DOCKED: ATOM     19  H   UNL     1     141.015  81.007 222.611 +0.12 -0.04    +0.211 HD 
DOCKED: ENDBRANCH   7  18
DOCKED: ENDBRANCH   1   4
DOCKED: BRANCH   1  20
DOCKED: ATOM     20  C   UNL     1     140.712  75.004 221.601 -0.32 -0.01    +0.039 C  
DOCKED: BRANCH  20  21
DOCKED: ATOM     21  N   UNL     1     139.869  73.942 222.137 -0.59 +0.06    -0.637 NA 
DOCKED: BRANCH  21  22
DOCKED: ATOM     22  C   UNL     1     140.078  72.554 221.857 -0.25 -0.01    +0.101 C  
DOCKED: ATOM     23  O   UNL     1     140.297  72.173 220.674 -0.07 +0.05    -0.313 OA 
DOCKED: BRANCH  22  24
DOCKED: ATOM     24  C   UNL     1     140.043  71.578 222.959 -0.30 -0.01    +0.088 A  
DOCKED: ATOM     25  N   UNL     1     140.532  71.932 224.180 -0.24 +0.03    -0.246 NA 
DOCKED: ATOM     26  C   UNL     1     139.528  70.285 222.770 -0.21 -0.01    +0.031 A  
DOCKED: ATOM     27  C   UNL     1     140.549  71.070 225.230 -0.50 -0.01    +0.071 A  
DOCKED: ATOM     28  C   UNL     1     139.537  69.375 223.828 -0.24 -0.00    +0.013 A  
DOCKED: ATOM     29  C   UNL     1     141.063  71.478 226.466 -0.68 -0.00    +0.030 A  
DOCKED: ATOM     30  C   UNL     1     140.051  69.757 225.072 -0.41 -0.00    +0.002 A  
DOCKED: ATOM     31  C   UNL     1     141.083  70.587 227.544 -0.61 -0.00    +0.023 A  
DOCKED: ATOM     32  C   UNL     1     140.077  68.867 226.155 -0.52 -0.01    +0.030 A  
DOCKED: ATOM     33  C   UNL     1     140.595  69.283 227.389 -0.58 -0.01    +0.041 A  
DOCKED: ATOM     34  Cl  UNL     1     140.627  68.171 228.744 -0.57 +0.02    -0.084 Cl 
DOCKED: ENDBRANCH  22  24
DOCKED: ENDBRANCH  21  22
DOCKED: ENDBRANCH  20  21
DOCKED: ENDBRANCH   1  20
DOCKED: TORSDOF 11
DOCKED: TER
DOCKED: ENDMDL
________________________________________________________________________________


    FINAL DOCKED STATE:
    ________________________


Run:   3 / 20
Time taken for this run:   0.154s

DOCKED: MODEL        3
DOCKED: USER    Run = 3
DOCKED: USER
DOCKED: USER    Estimated Free Energy of Binding    =  -8.41 kcal/mol  [=(1)+(2)+(3)-(4)]
DOCKED: USER
DOCKED: USER    (1) Final Intermolecular Energy     = -11.70 kcal/mol
DOCKED: USER        vdW + Hbond + desolv Energy     = -11.40 kcal/mol
DOCKED: USER        Electrostatic Energy            =  -0.29 kcal/mol
DOCKED: USER        Moving Ligand-Fixed Receptor    = -11.70 kcal/mol
DOCKED: USER        Moving Ligand-Moving Receptor   =  +0.00 kcal/mol
DOCKED: USER    (2) Final Total Internal Energy     =  -2.80 kcal/mol
DOCKED: USER    (3) Torsional Free Energy           =  +3.28 kcal/mol
DOCKED: USER    (4) Unbound System's Energy         =  -2.80 kcal/mol
DOCKED: USER
DOCKED: USER
DOCKED: REMARK SMILES O=C([N-]C/C(O)=[N+]1\C[C@H](O)C[C@H]1COCc1ccccc1)c1ccc2cc(Cl)ccc2n1
DOCKED: REMARK SMILES IDX 5 1 6 2 7 4 8 5 12 6 9 7 11 8 13 9 14 10 15 11 16 12 17 13
DOCKED: REMARK SMILES IDX 21 14 18 15 20 16 19 17 10 18 4 20 3 21 2 22 1 23 22 24
DOCKED: REMARK SMILES IDX 32 25 23 26 31 27 24 28 30 29 25 30 29 31 26 32 27 33 28 34
DOCKED: REMARK H PARENT 6 3 10 19
DOCKED: USER                              x       y       z     vdW  Elec       q    Type
DOCKED: USER                           _______ _______ _______ _____ _____    ______ ____
DOCKED: ROOT
DOCKED: ATOM      1  C   UNL     1     140.425  74.286 221.578 -0.19 -0.04    +0.316 C  
DOCKED: ENDROOT
DOCKED: BRANCH   1   2
DOCKED: ATOM      2  O   UNL     1     139.586  74.254 222.698 -0.50 +0.05    -0.465 OA 
DOCKED: ATOM      3  H   UNL     1     138.960  73.492 222.920 -0.44 -0.14    +0.299 HD 
DOCKED: ENDBRANCH   1   2
DOCKED: BRANCH   1   4
DOCKED: ATOM      4  N   UNL     1     140.826  75.421 221.042 -0.20 +0.05    -0.196 N  
DOCKED: ATOM      5  C   UNL     1     141.500  75.509 219.747 -0.08 -0.14    +0.386 C  
DOCKED: ATOM      6  C   UNL     1     140.736  76.735 221.685 -0.23 -0.10    +0.292 C  
DOCKED: ATOM      7  C   UNL     1     141.841  76.984 219.544 -0.20 -0.10    +0.186 C  
DOCKED: ATOM      8  C   UNL     1     141.745  77.605 220.933 -0.19 -0.07    +0.117 C  
DOCKED: BRANCH   6   9
DOCKED: ATOM      9  C   UNL     1     139.315  77.322 221.544 -0.16 -0.06    +0.236 C  
DOCKED: BRANCH   9  10
DOCKED: ATOM     10  O   UNL     1     138.813  77.707 222.805 -0.16 +0.06    -0.370 OA 
DOCKED: BRANCH  10  11
DOCKED: ATOM     11  C   UNL     1     138.692  79.113 222.862 -0.22 -0.03    +0.196 C  
DOCKED: BRANCH  11  12
DOCKED: ATOM     12  C   UNL     1     140.062  79.718 222.963 -0.38 +0.00    -0.022 A  
DOCKED: ATOM     13  C   UNL     1     140.424  80.817 222.165 -0.33 -0.00    +0.006 A  
DOCKED: ATOM     14  C   UNL     1     140.991  79.197 223.878 -0.53 -0.00    +0.006 A  
DOCKED: ATOM     15  C   UNL     1     141.705  81.369 222.266 -0.48 -0.00    +0.000 A  
DOCKED: ATOM     16  C   UNL     1     142.268  79.758 223.983 -0.56 -0.00    +0.000 A  
DOCKED: ATOM     17  C   UNL     1     142.625  80.842 223.176 -0.62 -0.00    +0.000 A  
DOCKED: ENDBRANCH  11  12
DOCKED: ENDBRANCH  10  11
DOCKED: ENDBRANCH   9  10
DOCKED: ENDBRANCH   6   9
DOCKED: BRANCH   7  18
DOCKED: ATOM     18  O   UNL     1     143.131  77.148 219.018 -0.23 +0.28    -0.386 OA 
DOCKED: ATOM     19  H   UNL     1     143.681  77.548 219.741 -0.47 -0.24    +0.211 HD 
DOCKED: ENDBRANCH   7  18
DOCKED: ENDBRANCH   1   4
DOCKED: BRANCH   1  20
DOCKED: ATOM     20  C   UNL     1     140.816  72.955 220.995 -0.22 -0.01    +0.039 C  
DOCKED: BRANCH  20  21
DOCKED: ATOM     21  N   UNL     1     139.623  72.152 220.754 +0.03 +0.11    -0.637 NA 
DOCKED: BRANCH  21  22
DOCKED: ATOM     22  C   UNL     1     138.615  71.922 221.744 -0.13 -0.02    +0.101 C  
DOCKED: ATOM     23  O   UNL     1     137.470  72.436 221.613 -0.05 +0.07    -0.313 OA 
DOCKED: BRANCH  22  24
DOCKED: ATOM     24  C   UNL     1     138.923  71.079 222.911 -0.22 -0.02    +0.088 A  
DOCKED: ATOM     25  N   UNL     1     139.596  71.618 223.965 -0.22 +0.06    -0.246 NA 
DOCKED: ATOM     26  C   UNL     1     138.548  69.725 222.950 -0.20 -0.01    +0.031 A  
DOCKED: ATOM     27  C   UNL     1     139.930  70.887 225.061 -0.44 -0.01    +0.071 A  
DOCKED: ATOM     28  C   UNL     1     138.881  68.947 224.060 -0.32 -0.00    +0.013 A  
DOCKED: ATOM     29  C   UNL     1     140.623  71.484 226.120 -0.61 -0.00    +0.030 A  
DOCKED: ATOM     30  C   UNL     1     139.580  69.520 225.129 -0.41 -0.00    +0.002 A  
DOCKED: ATOM     31  C   UNL     1     140.969  70.727 227.244 -0.63 -0.00    +0.023 A  
DOCKED: ATOM     32  C   UNL     1     139.933  68.766 226.257 -0.53 -0.00    +0.030 A  
DOCKED: ATOM     33  C   UNL     1     140.628  69.370 227.312 -0.57 -0.01    +0.041 A  
DOCKED: ATOM     34  Cl  UNL     1     141.069  68.428 228.724 -0.70 +0.02    -0.084 Cl 
DOCKED: ENDBRANCH  22  24
DOCKED: ENDBRANCH  21  22
DOCKED: ENDBRANCH  20  21
DOCKED: ENDBRANCH   1  20
DOCKED: TORSDOF 11
DOCKED: TER
DOCKED: ENDMDL
________________________________________________________________________________


    FINAL DOCKED STATE:
    ________________________


Run:   4 / 20
Time taken for this run:   0.154s

DOCKED: MODEL        4
DOCKED: USER    Run = 4
DOCKED: USER
DOCKED: USER    Estimated Free Energy of Binding    =  -8.60 kcal/mol  [=(1)+(2)+(3)-(4)]
DOCKED: USER
DOCKED: USER    (1) Final Intermolecular Energy     = -11.89 kcal/mol
DOCKED: USER        vdW + Hbond + desolv Energy     = -11.59 kcal/mol
DOCKED: USER        Electrostatic Energy            =  -0.30 kcal/mol
DOCKED: USER        Moving Ligand-Fixed Receptor    = -11.89 kcal/mol
DOCKED: USER        Moving Ligand-Moving Receptor   =  +0.00 kcal/mol
DOCKED: USER    (2) Final Total Internal Energy     =  -3.25 kcal/mol
DOCKED: USER    (3) Torsional Free Energy           =  +3.28 kcal/mol
DOCKED: USER    (4) Unbound System's Energy         =  -3.25 kcal/mol
DOCKED: USER
DOCKED: USER
DOCKED: REMARK SMILES O=C([N-]C/C(O)=[N+]1\C[C@H](O)C[C@H]1COCc1ccccc1)c1ccc2cc(Cl)ccc2n1
DOCKED: REMARK SMILES IDX 5 1 6 2 7 4 8 5 12 6 9 7 11 8 13 9 14 10 15 11 16 12 17 13
DOCKED: REMARK SMILES IDX 21 14 18 15 20 16 19 17 10 18 4 20 3 21 2 22 1 23 22 24
DOCKED: REMARK SMILES IDX 32 25 23 26 31 27 24 28 30 29 25 30 29 31 26 32 27 33 28 34
DOCKED: REMARK H PARENT 6 3 10 19
DOCKED: USER                              x       y       z     vdW  Elec       q    Type
DOCKED: USER                           _______ _______ _______ _____ _____    ______ ____
DOCKED: ROOT
DOCKED: ATOM      1  C   UNL     1     136.161  70.028 224.241 -0.12 -0.03    +0.316 C  
DOCKED: ENDROOT
DOCKED: BRANCH   1   2
DOCKED: ATOM      2  O   UNL     1     135.806  68.876 224.953 -0.33 -0.00    -0.465 OA 
DOCKED: ATOM      3  H   UNL     1     134.908  68.731 225.392 +0.12 -0.01    +0.299 HD 
DOCKED: ENDBRANCH   1   2
DOCKED: BRANCH   1   4
DOCKED: ATOM      4  N   UNL     1     137.403  70.262 223.871 -0.14 +0.03    -0.196 N  
DOCKED: ATOM      5  C   UNL     1     138.122  71.496 224.187 +0.24 -0.12    +0.386 C  
DOCKED: ATOM      6  C   UNL     1     138.213  69.376 223.030 -0.13 -0.05    +0.292 C  
DOCKED: ATOM      7  C   UNL     1     139.491  71.375 223.521 -0.27 -0.04    +0.186 C  
DOCKED: ATOM      8  C   UNL     1     139.326  70.272 222.482 -0.16 -0.02    +0.117 C  
DOCKED: BRANCH   6   9
DOCKED: ATOM      9  C   UNL     1     138.816  68.225 223.863 -0.19 -0.02    +0.236 C  
DOCKED: BRANCH   9  10
DOCKED: ATOM     10  O   UNL     1     138.507  68.390 225.229 -0.45 +0.00    -0.370 OA 
DOCKED: BRANCH  10  11
DOCKED: ATOM     11  C   UNL     1     139.665  68.179 226.009 -0.44 -0.03    +0.196 C  
DOCKED: BRANCH  11  12
DOCKED: ATOM     12  C   UNL     1     140.110  69.492 226.588 -0.52 +0.00    -0.022 A  
DOCKED: ATOM     13  C   UNL     1     141.040  70.299 225.911 -0.55 -0.00    +0.006 A  
DOCKED: ATOM     14  C   UNL     1     139.578  69.934 227.810 -0.58 -0.00    +0.006 A  
DOCKED: ATOM     15  C   UNL     1     141.448  71.517 226.462 -0.68 -0.00    +0.000 A  
DOCKED: ATOM     16  C   UNL     1     139.982  71.157 228.354 -0.64 -0.00    +0.000 A  
DOCKED: ATOM     17  C   UNL     1     140.918  71.947 227.681 -0.83 -0.00    +0.000 A  
DOCKED: ENDBRANCH  11  12
DOCKED: ENDBRANCH  10  11
DOCKED: ENDBRANCH   9  10
DOCKED: ENDBRANCH   6   9
DOCKED: BRANCH   7  18
DOCKED: ATOM     18  O   UNL     1     139.875  72.577 222.909 -0.44 +0.07    -0.386 OA 
DOCKED: ATOM     19  H   UNL     1     139.178  73.245 223.140 -0.45 -0.10    +0.211 HD 
DOCKED: ENDBRANCH   7  18
DOCKED: ENDBRANCH   1   4
DOCKED: BRANCH   1  20
DOCKED: ATOM     20  C   UNL     1     135.052  71.005 223.951 -0.15 -0.00    +0.039 C  
DOCKED: BRANCH  20  21
DOCKED: ATOM     21  N   UNL     1     133.848  70.614 224.674 +0.05 +0.06    -0.637 NA 
DOCKED: BRANCH  21  22
DOCKED: ATOM     22  C   UNL     1     133.672  70.820 226.079 -0.28 -0.01    +0.101 C  
DOCKED: ATOM     23  O   UNL     1     134.022  69.927 226.900 -0.55 -0.00    -0.313 OA 
DOCKED: BRANCH  22  24
DOCKED: ATOM     24  C   UNL     1     133.085  72.083 226.560 -0.33 -0.01    +0.088 A  
DOCKED: ATOM     25  N   UNL     1     133.738  73.254 226.323 -0.60 -0.01    -0.246 NA 
DOCKED: ATOM     26  C   UNL     1     131.873  72.098 227.270 -0.37 -0.01    +0.031 A  
DOCKED: ATOM     27  C   UNL     1     133.260  74.449 226.760 -0.23 +0.01    +0.071 A  
DOCKED: ATOM     28  C   UNL     1     131.360  73.309 227.736 -0.37 -0.00    +0.013 A  
DOCKED: ATOM     29  C   UNL     1     133.967  75.628 226.494 -0.41 +0.00    +0.030 A  
DOCKED: ATOM     30  C   UNL     1     132.051  74.501 227.488 -0.42 -0.00    +0.002 A  
DOCKED: ATOM     31  C   UNL     1     133.475  76.855 226.949 -0.36 -0.00    +0.023 A  
DOCKED: ATOM     32  C   UNL     1     131.565  75.735 227.945 -0.30 +0.00    +0.030 A  
DOCKED: ATOM     33  C   UNL     1     132.279  76.910 227.676 -0.32 +0.00    +0.041 A  
DOCKED: ATOM     34  Cl  UNL     1     131.671  78.453 228.246 -0.35 -0.01    -0.084 Cl 
DOCKED: ENDBRANCH  22  24
DOCKED: ENDBRANCH  21  22
DOCKED: ENDBRANCH  20  21
DOCKED: ENDBRANCH   1  20
DOCKED: TORSDOF 11
DOCKED: TER
DOCKED: ENDMDL
________________________________________________________________________________


    FINAL DOCKED STATE:
    ________________________


Run:   5 / 20
Time taken for this run:   0.154s

DOCKED: MODEL        5
DOCKED: USER    Run = 5
DOCKED: USER
DOCKED: USER    Estimated Free Energy of Binding    =  -8.28 kcal/mol  [=(1)+(2)+(3)-(4)]
DOCKED: USER
DOCKED: USER    (1) Final Intermolecular Energy     = -11.56 kcal/mol
DOCKED: USER        vdW + Hbond + desolv Energy     = -11.29 kcal/mol
DOCKED: USER        Electrostatic Energy            =  -0.28 kcal/mol
DOCKED: USER        Moving Ligand-Fixed Receptor    = -11.56 kcal/mol
DOCKED: USER        Moving Ligand-Moving Receptor   =  +0.00 kcal/mol
DOCKED: USER    (2) Final Total Internal Energy     =  -2.70 kcal/mol
DOCKED: USER    (3) Torsional Free Energy           =  +3.28 kcal/mol
DOCKED: USER    (4) Unbound System's Energy         =  -2.70 kcal/mol
DOCKED: USER
DOCKED: USER
DOCKED: REMARK SMILES O=C([N-]C/C(O)=[N+]1\C[C@H](O)C[C@H]1COCc1ccccc1)c1ccc2cc(Cl)ccc2n1
DOCKED: REMARK SMILES IDX 5 1 6 2 7 4 8 5 12 6 9 7 11 8 13 9 14 10 15 11 16 12 17 13
DOCKED: REMARK SMILES IDX 21 14 18 15 20 16 19 17 10 18 4 20 3 21 2 22 1 23 22 24
DOCKED: REMARK SMILES IDX 32 25 23 26 31 27 24 28 30 29 25 30 29 31 26 32 27 33 28 34
DOCKED: REMARK H PARENT 6 3 10 19
DOCKED: USER                              x       y       z     vdW  Elec       q    Type
DOCKED: USER                           _______ _______ _______ _____ _____    ______ ____
DOCKED: ROOT
DOCKED: ATOM      1  C   UNL     1     140.326  74.473 220.984 -0.15 -0.06    +0.316 C  
DOCKED: ENDROOT
DOCKED: BRANCH   1   2
DOCKED: ATOM      2  O   UNL     1     140.140  74.166 222.337 -0.74 -0.01    -0.465 OA 
DOCKED: ATOM      3  H   UNL     1     139.465  73.499 222.682 -0.23 -0.07    +0.299 HD 
DOCKED: ENDBRANCH   1   2
DOCKED: BRANCH   1   4
DOCKED: ATOM      4  N   UNL     1     140.768  75.651 220.592 -0.14 +0.06    -0.196 N  
DOCKED: ATOM      5  C   UNL     1     141.373  75.891 219.282 -0.05 -0.14    +0.386 C  
DOCKED: ATOM      6  C   UNL     1     140.797  76.858 221.422 -0.21 -0.11    +0.292 C  
DOCKED: ATOM      7  C   UNL     1     141.795  77.360 219.271 -0.19 -0.10    +0.186 C  
DOCKED: ATOM      8  C   UNL     1     141.816  77.773 220.739 -0.25 -0.07    +0.117 C  
DOCKED: BRANCH   6   9
DOCKED: ATOM      9  C   UNL     1     139.411  77.536 221.459 -0.15 -0.06    +0.236 C  
DOCKED: BRANCH   9  10
DOCKED: ATOM     10  O   UNL     1     138.952  77.648 222.788 -0.17 +0.06    -0.370 OA 
DOCKED: BRANCH  10  11
DOCKED: ATOM     11  C   UNL     1     138.758  79.008 223.113 -0.23 -0.03    +0.196 C  
DOCKED: BRANCH  11  12
DOCKED: ATOM     12  C   UNL     1     140.095  79.691 223.175 -0.41 +0.00    -0.022 A  
DOCKED: ATOM     13  C   UNL     1     141.177  79.095 223.844 -0.57 -0.00    +0.006 A  
DOCKED: ATOM     14  C   UNL     1     140.276  80.931 222.542 -0.35 -0.00    +0.006 A  
DOCKED: ATOM     15  C   UNL     1     142.415  79.743 223.897 -0.57 -0.00    +0.000 A  
DOCKED: ATOM     16  C   UNL     1     141.518  81.572 222.590 -0.49 -0.00    +0.000 A  
DOCKED: ATOM     17  C   UNL     1     142.586  80.979 223.269 -0.60 -0.00    +0.000 A  
DOCKED: ENDBRANCH  11  12
DOCKED: ENDBRANCH  10  11
DOCKED: ENDBRANCH   9  10
DOCKED: ENDBRANCH   6   9
DOCKED: BRANCH   7  18
DOCKED: ATOM     18  O   UNL     1     143.061  77.529 218.692 -0.21 +0.30    -0.386 OA 
DOCKED: ATOM     19  H   UNL     1     143.708  77.585 219.443 -0.46 -0.22    +0.211 HD 
DOCKED: ENDBRANCH   7  18
DOCKED: ENDBRANCH   1   4
DOCKED: BRANCH   1  20
DOCKED: ATOM     20  C   UNL     1     139.960  73.397 219.996 -0.09 -0.01    +0.039 C  
DOCKED: BRANCH  20  21
DOCKED: ATOM     21  N   UNL     1     139.733  72.139 220.697 +0.03 +0.11    -0.637 NA 
DOCKED: BRANCH  21  22
DOCKED: ATOM     22  C   UNL     1     138.727  71.969 221.701 -0.14 -0.02    +0.101 C  
DOCKED: ATOM     23  O   UNL     1     137.605  72.532 221.576 -0.06 +0.07    -0.313 OA 
DOCKED: BRANCH  22  24
DOCKED: ATOM     24  C   UNL     1     139.010  71.128 222.877 -0.22 -0.02    +0.088 A  
DOCKED: ATOM     25  N   UNL     1     139.713  71.653 223.918 -0.23 +0.06    -0.246 NA 
DOCKED: ATOM     26  C   UNL     1     138.580  69.792 222.937 -0.20 -0.01    +0.031 A  
DOCKED: ATOM     27  C   UNL     1     140.026  70.922 225.021 -0.45 -0.01    +0.071 A  
DOCKED: ATOM     28  C   UNL     1     138.890  69.015 224.053 -0.31 -0.00    +0.013 A  
DOCKED: ATOM     29  C   UNL     1     140.752  71.504 226.067 -0.62 -0.00    +0.030 A  
DOCKED: ATOM     30  C   UNL     1     139.621  69.572 225.110 -0.41 -0.00    +0.002 A  
DOCKED: ATOM     31  C   UNL     1     141.076  70.748 227.198 -0.63 -0.00    +0.023 A  
DOCKED: ATOM     32  C   UNL     1     139.952  68.818 226.245 -0.52 -0.00    +0.030 A  
DOCKED: ATOM     33  C   UNL     1     140.680  69.407 227.287 -0.57 -0.01    +0.041 A  
DOCKED: ATOM     34  Cl  UNL     1     141.094  68.465 228.707 -0.70 +0.02    -0.084 Cl 
DOCKED: ENDBRANCH  22  24
DOCKED: ENDBRANCH  21  22
DOCKED: ENDBRANCH  20  21
DOCKED: ENDBRANCH   1  20
DOCKED: TORSDOF 11
DOCKED: TER
DOCKED: ENDMDL
________________________________________________________________________________


    FINAL DOCKED STATE:
    ________________________


Run:   6 / 20
Time taken for this run:   0.154s

DOCKED: MODEL        6
DOCKED: USER    Run = 6
DOCKED: USER
DOCKED: USER    Estimated Free Energy of Binding    =  -7.55 kcal/mol  [=(1)+(2)+(3)-(4)]
DOCKED: USER
DOCKED: USER    (1) Final Intermolecular Energy     = -10.84 kcal/mol
DOCKED: USER        vdW + Hbond + desolv Energy     = -10.64 kcal/mol
DOCKED: USER        Electrostatic Energy            =  -0.20 kcal/mol
DOCKED: USER        Moving Ligand-Fixed Receptor    = -10.84 kcal/mol
DOCKED: USER        Moving Ligand-Moving Receptor   =  +0.00 kcal/mol
DOCKED: USER    (2) Final Total Internal Energy     =  -3.05 kcal/mol
DOCKED: USER    (3) Torsional Free Energy           =  +3.28 kcal/mol
DOCKED: USER    (4) Unbound System's Energy         =  -3.05 kcal/mol
DOCKED: USER
DOCKED: USER
DOCKED: REMARK SMILES O=C([N-]C/C(O)=[N+]1\C[C@H](O)C[C@H]1COCc1ccccc1)c1ccc2cc(Cl)ccc2n1
DOCKED: REMARK SMILES IDX 5 1 6 2 7 4 8 5 12 6 9 7 11 8 13 9 14 10 15 11 16 12 17 13
DOCKED: REMARK SMILES IDX 21 14 18 15 20 16 19 17 10 18 4 20 3 21 2 22 1 23 22 24
DOCKED: REMARK SMILES IDX 32 25 23 26 31 27 24 28 30 29 25 30 29 31 26 32 27 33 28 34
DOCKED: REMARK H PARENT 6 3 10 19
DOCKED: USER                              x       y       z     vdW  Elec       q    Type
DOCKED: USER                           _______ _______ _______ _____ _____    ______ ____
DOCKED: ROOT
DOCKED: ATOM      1  C   UNL     1     141.481  73.349 220.517 -0.11 -0.06    +0.316 C  
DOCKED: ENDROOT
DOCKED: BRANCH   1   2
DOCKED: ATOM      2  O   UNL     1     140.480  72.867 219.666 +0.00 +0.09    -0.465 OA 
DOCKED: ATOM      3  H   UNL     1     139.515  72.740 219.935 +0.05 -0.06    +0.299 HD 
DOCKED: ENDBRANCH   1   2
DOCKED: BRANCH   1   4
DOCKED: ATOM      4  N   UNL     1     142.739  73.434 220.133 -0.15 +0.04    -0.196 N  
DOCKED: ATOM      5  C   UNL     1     143.527  72.286 219.687 -0.08 -0.04    +0.386 C  
DOCKED: ATOM      6  C   UNL     1     143.551  74.654 220.173 -0.22 -0.12    +0.292 C  
DOCKED: ATOM      7  C   UNL     1     144.930  72.817 219.402 -0.26 +0.01    +0.186 C  
DOCKED: ATOM      8  C   UNL     1     144.997  74.158 220.126 -0.36 -0.03    +0.117 C  
DOCKED: BRANCH   6   9
DOCKED: ATOM      9  C   UNL     1     143.254  75.554 218.956 -0.22 -0.12    +0.236 C  
DOCKED: BRANCH   9  10
DOCKED: ATOM     10  O   UNL     1     143.408  76.913 219.298 -0.24 +0.28    -0.370 OA 
DOCKED: BRANCH  10  11
DOCKED: ATOM     11  C   UNL     1     142.165  77.575 219.199 -0.22 -0.12    +0.196 C  
DOCKED: BRANCH  11  12
DOCKED: ATOM     12  C   UNL     1     141.687  77.926 220.579 -0.31 +0.01    -0.022 A  
DOCKED: ATOM     13  C   UNL     1     141.068  76.962 221.393 -0.34 -0.00    +0.006 A  
DOCKED: ATOM     14  C   UNL     1     141.876  79.226 221.075 -0.33 -0.00    +0.006 A  
DOCKED: ATOM     15  C   UNL     1     140.624  77.302 222.675 -0.41 -0.00    +0.000 A  
DOCKED: ATOM     16  C   UNL     1     141.439  79.560 222.361 -0.47 -0.00    +0.000 A  
DOCKED: ATOM     17  C   UNL     1     140.812  78.599 223.159 -0.49 -0.00    +0.000 A  
DOCKED: ENDBRANCH  11  12
DOCKED: ENDBRANCH  10  11
DOCKED: ENDBRANCH   9  10
DOCKED: ENDBRANCH   6   9
DOCKED: BRANCH   7  18
DOCKED: ATOM     18  O   UNL     1     145.920  71.946 219.882 -0.41 -0.18    -0.386 OA 
DOCKED: ATOM     19  H   UNL     1     145.743  71.829 220.852 -0.41 -0.06    +0.211 HD 
DOCKED: ENDBRANCH   7  18
DOCKED: ENDBRANCH   1   4
DOCKED: BRANCH   1  20
DOCKED: ATOM     20  C   UNL     1     141.052  73.730 221.908 -0.09 -0.00    +0.039 C  
DOCKED: BRANCH  20  21
DOCKED: ATOM     21  N   UNL     1     139.635  73.434 222.087 -0.37 +0.11    -0.637 NA 
DOCKED: BRANCH  21  22
DOCKED: ATOM     22  C   UNL     1     139.096  72.110 222.035 -0.19 -0.02    +0.101 C  
DOCKED: ATOM     23  O   UNL     1     138.436  71.733 221.028 -0.03 +0.06    -0.313 OA 
DOCKED: BRANCH  22  24
DOCKED: ATOM     24  C   UNL     1     139.322  71.189 223.163 -0.27 -0.02    +0.088 A  
DOCKED: ATOM     25  N   UNL     1     139.928  71.653 224.291 -0.25 +0.05    -0.246 NA 
DOCKED: ATOM     26  C   UNL     1     138.936  69.840 223.090 -0.22 -0.01    +0.031 A  
DOCKED: ATOM     27  C   UNL     1     140.185  70.849 225.356 -0.48 -0.01    +0.071 A  
DOCKED: ATOM     28  C   UNL     1     139.192  68.988 224.165 -0.32 -0.00    +0.013 A  
DOCKED: ATOM     29  C   UNL     1     140.812  71.369 226.494 -0.66 -0.00    +0.030 A  
DOCKED: ATOM     30  C   UNL     1     139.824  69.484 225.312 -0.43 -0.00    +0.002 A  
DOCKED: ATOM     31  C   UNL     1     141.079  70.538 227.587 -0.61 -0.00    +0.023 A  
DOCKED: ATOM     32  C   UNL     1     140.097  68.655 226.410 -0.56 -0.01    +0.030 A  
DOCKED: ATOM     33  C   UNL     1     140.726  69.184 227.545 -0.59 -0.01    +0.041 A  
DOCKED: ATOM     34  Cl  UNL     1     141.069  68.148 228.918 -0.57 +0.02    -0.084 Cl 
DOCKED: ENDBRANCH  22  24
DOCKED: ENDBRANCH  21  22
DOCKED: ENDBRANCH  20  21
DOCKED: ENDBRANCH   1  20
DOCKED: TORSDOF 11
DOCKED: TER
DOCKED: ENDMDL
________________________________________________________________________________


    FINAL DOCKED STATE:
    ________________________


Run:   7 / 20
Time taken for this run:   0.154s

DOCKED: MODEL        7
DOCKED: USER    Run = 7
DOCKED: USER
DOCKED: USER    Estimated Free Energy of Binding    =  -7.71 kcal/mol  [=(1)+(2)+(3)-(4)]
DOCKED: USER
DOCKED: USER    (1) Final Intermolecular Energy     = -10.99 kcal/mol
DOCKED: USER        vdW + Hbond + desolv Energy     = -10.84 kcal/mol
DOCKED: USER        Electrostatic Energy            =  -0.15 kcal/mol
DOCKED: USER        Moving Ligand-Fixed Receptor    = -10.99 kcal/mol
DOCKED: USER        Moving Ligand-Moving Receptor   =  +0.00 kcal/mol
DOCKED: USER    (2) Final Total Internal Energy     =  -3.04 kcal/mol
DOCKED: USER    (3) Torsional Free Energy           =  +3.28 kcal/mol
DOCKED: USER    (4) Unbound System's Energy         =  -3.04 kcal/mol
DOCKED: USER
DOCKED: USER
DOCKED: REMARK SMILES O=C([N-]C/C(O)=[N+]1\C[C@H](O)C[C@H]1COCc1ccccc1)c1ccc2cc(Cl)ccc2n1
DOCKED: REMARK SMILES IDX 5 1 6 2 7 4 8 5 12 6 9 7 11 8 13 9 14 10 15 11 16 12 17 13
DOCKED: REMARK SMILES IDX 21 14 18 15 20 16 19 17 10 18 4 20 3 21 2 22 1 23 22 24
DOCKED: REMARK SMILES IDX 32 25 23 26 31 27 24 28 30 29 25 30 29 31 26 32 27 33 28 34
DOCKED: REMARK H PARENT 6 3 10 19
DOCKED: USER                              x       y       z     vdW  Elec       q    Type
DOCKED: USER                           _______ _______ _______ _____ _____    ______ ____
DOCKED: ROOT
DOCKED: ATOM      1  C   UNL     1     139.318  70.875 222.632 -0.13 -0.06    +0.316 C  
DOCKED: ENDROOT
DOCKED: BRANCH   1   2
DOCKED: ATOM      2  O   UNL     1     139.792  70.698 221.326 -0.04 +0.08    -0.465 OA 
DOCKED: ATOM      3  H   UNL     1     140.295  71.400 220.803 +0.07 -0.05    +0.299 HD 
DOCKED: ENDBRANCH   1   2
DOCKED: BRANCH   1   4
DOCKED: ATOM      4  N   UNL     1     138.358  70.123 223.131 -0.13 +0.03    -0.196 N  
DOCKED: ATOM      5  C   UNL     1     137.107  69.837 222.428 -0.04 -0.06    +0.386 C  
DOCKED: ATOM      6  C   UNL     1     138.359  69.537 224.474 -0.20 -0.04    +0.292 C  
DOCKED: ATOM      7  C   UNL     1     136.266  68.992 223.382 -0.12 -0.01    +0.186 C  
DOCKED: ATOM      8  C   UNL     1     136.890  69.211 224.756 -0.19 -0.01    +0.117 C  
DOCKED: BRANCH   6   9
DOCKED: ATOM      9  C   UNL     1     139.209  68.251 224.515 -0.20 -0.03    +0.236 C  
DOCKED: BRANCH   9  10
DOCKED: ATOM     10  O   UNL     1     139.190  67.687 225.808 -0.76 +0.01    -0.370 OA 
DOCKED: BRANCH  10  11
DOCKED: ATOM     11  C   UNL     1     140.445  67.873 226.429 -0.50 -0.04    +0.196 C  
DOCKED: BRANCH  11  12
DOCKED: ATOM     12  C   UNL     1     140.584  69.316 226.825 -0.56 +0.00    -0.022 A  
DOCKED: ATOM     13  C   UNL     1     141.347  70.204 226.048 -0.54 -0.00    +0.006 A  
DOCKED: ATOM     14  C   UNL     1     139.930  69.792 227.973 -0.63 -0.00    +0.006 A  
DOCKED: ATOM     15  C   UNL     1     141.472  71.544 226.430 -0.67 -0.00    +0.000 A  
DOCKED: ATOM     16  C   UNL     1     140.050  71.134 228.346 -0.65 -0.00    +0.000 A  
DOCKED: ATOM     17  C   UNL     1     140.822  72.009 227.576 -0.82 -0.00    +0.000 A  
DOCKED: ENDBRANCH  11  12
DOCKED: ENDBRANCH  10  11
DOCKED: ENDBRANCH   9  10
DOCKED: ENDBRANCH   6   9
DOCKED: BRANCH   7  18
DOCKED: ATOM     18  O   UNL     1     134.922  69.396 223.381 -0.07 +0.04    -0.386 OA 
DOCKED: ATOM     19  H   UNL     1     134.522  69.033 222.548 +0.03 -0.03    +0.211 HD 
DOCKED: ENDBRANCH   7  18
DOCKED: ENDBRANCH   1   4
DOCKED: BRANCH   1  20
DOCKED: ATOM     20  C   UNL     1     139.938  71.994 223.424 -0.28 -0.01    +0.039 C  
DOCKED: BRANCH  20  21
DOCKED: ATOM     21  N   UNL     1     140.732  72.842 222.543 -0.31 +0.00    -0.637 NA 
DOCKED: BRANCH  21  22
DOCKED: ATOM     22  C   UNL     1     140.159  73.718 221.568 -0.25 -0.01    +0.101 C  
DOCKED: ATOM     23  O   UNL     1     139.254  73.300 220.795 -0.06 +0.06    -0.313 OA 
DOCKED: BRANCH  22  24
DOCKED: ATOM     24  C   UNL     1     140.630  75.111 221.477 -0.30 -0.02    +0.088 A  
DOCKED: ATOM     25  N   UNL     1     140.092  76.051 222.303 -0.36 +0.05    -0.246 NA 
DOCKED: ATOM     26  C   UNL     1     141.611  75.489 220.545 -0.27 -0.01    +0.031 A  
DOCKED: ATOM     27  C   UNL     1     140.467  77.356 222.253 -0.37 -0.02    +0.071 A  
DOCKED: ATOM     28  C   UNL     1     142.013  76.823 220.466 -0.25 -0.01    +0.013 A  
DOCKED: ATOM     29  C   UNL     1     139.887  78.288 223.121 -0.27 -0.01    +0.030 A  
DOCKED: ATOM     30  C   UNL     1     141.442  77.775 221.320 -0.34 -0.00    +0.002 A  
DOCKED: ATOM     31  C   UNL     1     140.271  79.631 223.064 -0.41 -0.00    +0.023 A  
DOCKED: ATOM     32  C   UNL     1     141.821  79.124 221.265 -0.37 -0.02    +0.030 A  
DOCKED: ATOM     33  C   UNL     1     141.233  80.050 222.136 -0.39 -0.01    +0.041 A  
DOCKED: ATOM     34  Cl  UNL     1     141.707  81.737 222.069 -0.46 +0.02    -0.084 Cl 
DOCKED: ENDBRANCH  22  24
DOCKED: ENDBRANCH  21  22
DOCKED: ENDBRANCH  20  21
DOCKED: ENDBRANCH   1  20
DOCKED: TORSDOF 11
DOCKED: TER
DOCKED: ENDMDL
________________________________________________________________________________


    FINAL DOCKED STATE:
    ________________________


Run:   8 / 20
Time taken for this run:   0.154s

DOCKED: MODEL        8
DOCKED: USER    Run = 8
DOCKED: USER
DOCKED: USER    Estimated Free Energy of Binding    =  -7.77 kcal/mol  [=(1)+(2)+(3)-(4)]
DOCKED: USER
DOCKED: USER    (1) Final Intermolecular Energy     = -11.05 kcal/mol
DOCKED: USER        vdW + Hbond + desolv Energy     = -10.74 kcal/mol
DOCKED: USER        Electrostatic Energy            =  -0.31 kcal/mol
DOCKED: USER        Moving Ligand-Fixed Receptor    = -11.05 kcal/mol
DOCKED: USER        Moving Ligand-Moving Receptor   =  +0.00 kcal/mol
DOCKED: USER    (2) Final Total Internal Energy     =  -2.76 kcal/mol
DOCKED: USER    (3) Torsional Free Energy           =  +3.28 kcal/mol
DOCKED: USER    (4) Unbound System's Energy         =  -2.76 kcal/mol
DOCKED: USER
DOCKED: USER
DOCKED: REMARK SMILES O=C([N-]C/C(O)=[N+]1\C[C@H](O)C[C@H]1COCc1ccccc1)c1ccc2cc(Cl)ccc2n1
DOCKED: REMARK SMILES IDX 5 1 6 2 7 4 8 5 12 6 9 7 11 8 13 9 14 10 15 11 16 12 17 13
DOCKED: REMARK SMILES IDX 21 14 18 15 20 16 19 17 10 18 4 20 3 21 2 22 1 23 22 24
DOCKED: REMARK SMILES IDX 32 25 23 26 31 27 24 28 30 29 25 30 29 31 26 32 27 33 28 34
DOCKED: REMARK H PARENT 6 3 10 19
DOCKED: USER                              x       y       z     vdW  Elec       q    Type
DOCKED: USER                           _______ _______ _______ _____ _____    ______ ____
DOCKED: ROOT
DOCKED: ATOM      1  C   UNL     1     141.744  74.091 220.088 -0.11 -0.08    +0.316 C  
DOCKED: ENDROOT
DOCKED: BRANCH   1   2
DOCKED: ATOM      2  O   UNL     1     140.779  74.276 219.091 +0.01 +0.11    -0.465 OA 
DOCKED: ATOM      3  H   UNL     1     139.805  74.028 219.187 +0.04 -0.07    +0.299 HD 
DOCKED: ENDBRANCH   1   2
DOCKED: BRANCH   1   4
DOCKED: ATOM      4  N   UNL     1     142.836  73.385 219.877 -0.13 +0.04    -0.196 N  
DOCKED: ATOM      5  C   UNL     1     144.155  73.766 220.383 -0.20 -0.10    +0.386 C  
DOCKED: ATOM      6  C   UNL     1     142.913  72.178 219.049 -0.04 -0.04    +0.292 C  
DOCKED: ATOM      7  C   UNL     1     145.132  72.716 219.859 -0.33 +0.01    +0.186 C  
DOCKED: ATOM      8  C   UNL     1     144.398  72.035 218.709 -0.16 +0.01    +0.117 C  
DOCKED: BRANCH   6   9
DOCKED: ATOM      9  C   UNL     1     142.422  70.941 219.829 -0.09 -0.03    +0.236 C  
DOCKED: BRANCH   9  10
DOCKED: ATOM     10  O   UNL     1     142.174  69.868 218.948 -0.04 +0.05    -0.370 OA 
DOCKED: BRANCH  10  11
DOCKED: ATOM     11  C   UNL     1     142.199  68.649 219.660 -0.05 -0.03    +0.196 C  
DOCKED: BRANCH  11  12
DOCKED: ATOM     12  C   UNL     1     143.517  67.969 219.418 -0.25 +0.00    -0.022 A  
DOCKED: ATOM     13  C   UNL     1     143.568  66.640 218.966 -0.31 -0.00    +0.006 A  
DOCKED: ATOM     14  C   UNL     1     144.715  68.672 219.624 -0.35 +0.00    +0.006 A  
DOCKED: ATOM     15  C   UNL     1     144.801  66.017 218.747 -0.43 -0.00    +0.000 A  
DOCKED: ATOM     16  C   UNL     1     145.946  68.049 219.396 -0.53 +0.00    +0.000 A  
DOCKED: ATOM     17  C   UNL     1     145.988  66.722 218.960 -0.58 -0.00    +0.000 A  
DOCKED: ENDBRANCH  11  12
DOCKED: ENDBRANCH  10  11
DOCKED: ENDBRANCH   9  10
DOCKED: ENDBRANCH   6   9
DOCKED: BRANCH   7  18
DOCKED: ATOM     18  O   UNL     1     146.325  73.301 219.407 -0.69 -0.22    -0.386 OA 
DOCKED: ATOM     19  H   UNL     1     146.140  74.271 219.306 -0.43 -0.07    +0.211 HD 
DOCKED: ENDBRANCH   7  18
DOCKED: ENDBRANCH   1   4
DOCKED: BRANCH   1  20
DOCKED: ATOM     20  C   UNL     1     141.450  74.710 221.428 -0.22 -0.01    +0.039 C  
DOCKED: BRANCH  20  21
DOCKED: ATOM     21  N   UNL     1     140.219  74.149 221.973 -0.62 +0.04    -0.637 NA 
DOCKED: BRANCH  21  22
DOCKED: ATOM     22  C   UNL     1     139.804  72.798 221.748 -0.23 -0.02    +0.101 C  
DOCKED: ATOM     23  O   UNL     1     139.411  72.438 220.604 -0.04 +0.06    -0.313 OA 
DOCKED: BRANCH  22  24
DOCKED: ATOM     24  C   UNL     1     139.845  71.831 222.859 -0.30 -0.02    +0.088 A  
DOCKED: ATOM     25  N   UNL     1     140.344  72.221 224.064 -0.19 +0.04    -0.246 NA 
DOCKED: ATOM     26  C   UNL     1     139.390  70.512 222.693 -0.22 -0.01    +0.031 A  
DOCKED: ATOM     27  C   UNL     1     140.430  71.371 225.121 -0.48 -0.01    +0.071 A  
DOCKED: ATOM     28  C   UNL     1     139.471  69.614 223.758 -0.26 -0.00    +0.013 A  
DOCKED: ATOM     29  C   UNL     1     140.952  71.816 226.340 -0.65 -0.00    +0.030 A  
DOCKED: ATOM     30  C   UNL     1     139.995  70.034 224.986 -0.42 -0.00    +0.002 A  
DOCKED: ATOM     31  C   UNL     1     141.043  70.937 227.424 -0.67 -0.00    +0.023 A  
DOCKED: ATOM     32  C   UNL     1     140.092  69.156 226.076 -0.49 -0.01    +0.030 A  
DOCKED: ATOM     33  C   UNL     1     140.617  69.609 227.293 -0.56 -0.01    +0.041 A  
DOCKED: ATOM     34  Cl  UNL     1     140.738  68.513 228.656 -0.73 +0.02    -0.084 Cl 
DOCKED: ENDBRANCH  22  24
DOCKED: ENDBRANCH  21  22
DOCKED: ENDBRANCH  20  21
DOCKED: ENDBRANCH   1  20
DOCKED: TORSDOF 11
DOCKED: TER
DOCKED: ENDMDL
________________________________________________________________________________


    FINAL DOCKED STATE:
    ________________________


Run:   9 / 20
Time taken for this run:   0.154s

DOCKED: MODEL        9
DOCKED: USER    Run = 9
DOCKED: USER
DOCKED: USER    Estimated Free Energy of Binding    =  -7.30 kcal/mol  [=(1)+(2)+(3)-(4)]
DOCKED: USER
DOCKED: USER    (1) Final Intermolecular Energy     = -10.58 kcal/mol
DOCKED: USER        vdW + Hbond + desolv Energy     = -10.45 kcal/mol
DOCKED: USER        Electrostatic Energy            =  -0.13 kcal/mol
DOCKED: USER        Moving Ligand-Fixed Receptor    = -10.58 kcal/mol
DOCKED: USER        Moving Ligand-Moving Receptor   =  +0.00 kcal/mol
DOCKED: USER    (2) Final Total Internal Energy     =  -2.56 kcal/mol
DOCKED: USER    (3) Torsional Free Energy           =  +3.28 kcal/mol
DOCKED: USER    (4) Unbound System's Energy         =  -2.56 kcal/mol
DOCKED: USER
DOCKED: USER
DOCKED: REMARK SMILES O=C([N-]C/C(O)=[N+]1\C[C@H](O)C[C@H]1COCc1ccccc1)c1ccc2cc(Cl)ccc2n1
DOCKED: REMARK SMILES IDX 5 1 6 2 7 4 8 5 12 6 9 7 11 8 13 9 14 10 15 11 16 12 17 13
DOCKED: REMARK SMILES IDX 21 14 18 15 20 16 19 17 10 18 4 20 3 21 2 22 1 23 22 24
DOCKED: REMARK SMILES IDX 32 25 23 26 31 27 24 28 30 29 25 30 29 31 26 32 27 33 28 34
DOCKED: REMARK H PARENT 6 3 10 19
DOCKED: USER                              x       y       z     vdW  Elec       q    Type
DOCKED: USER                           _______ _______ _______ _____ _____    ______ ____
DOCKED: ROOT
DOCKED: ATOM      1  C   UNL     1     138.615  71.723 221.742 -0.08 -0.07    +0.316 C  
DOCKED: ENDROOT
DOCKED: BRANCH   1   2
DOCKED: ATOM      2  O   UNL     1     137.991  72.857 222.276 -0.07 +0.15    -0.465 OA 
DOCKED: ATOM      3  H   UNL     1     138.480  73.623 222.717 -0.49 -0.15    +0.299 HD 
DOCKED: ENDBRANCH   1   2
DOCKED: BRANCH   1   4
DOCKED: ATOM      4  N   UNL     1     138.583  70.557 222.356 -0.10 +0.04    -0.196 N  
DOCKED: ATOM      5  C   UNL     1     139.109  69.323 221.773 -0.05 -0.07    +0.386 C  
DOCKED: ATOM      6  C   UNL     1     137.952  70.305 223.654 -0.15 -0.05    +0.292 C  
DOCKED: ATOM      7  C   UNL     1     138.812  68.215 222.782 -0.18 -0.03    +0.186 C  
DOCKED: ATOM      8  C   UNL     1     137.733  68.791 223.692 -0.19 -0.01    +0.117 C  
DOCKED: BRANCH   6   9
DOCKED: ATOM      9  C   UNL     1     138.876  70.741 224.810 -0.17 -0.05    +0.236 C  
DOCKED: BRANCH   9  10
DOCKED: ATOM     10  O   UNL     1     140.153  71.083 224.319 -0.25 +0.06    -0.370 OA 
DOCKED: BRANCH  10  11
DOCKED: ATOM     11  C   UNL     1     141.041  71.288 225.397 -0.40 -0.02    +0.196 C  
DOCKED: BRANCH  11  12
DOCKED: ATOM     12  C   UNL     1     140.857  70.184 226.398 -0.55 +0.00    -0.022 A  
DOCKED: ATOM     13  C   UNL     1     141.247  68.868 226.098 -0.52 -0.00    +0.006 A  
DOCKED: ATOM     14  C   UNL     1     140.308  70.468 227.659 -0.64 -0.00    +0.006 A  
DOCKED: ATOM     15  C   UNL     1     141.067  67.848 227.038 -0.67 -0.00    +0.000 A  
DOCKED: ATOM     16  C   UNL     1     140.138  69.447 228.600 -0.50 -0.00    +0.000 A  
DOCKED: ATOM     17  C   UNL     1     140.515  68.138 228.288 -0.62 -0.00    +0.000 A  
DOCKED: ENDBRANCH  11  12
DOCKED: ENDBRANCH  10  11
DOCKED: ENDBRANCH   9  10
DOCKED: ENDBRANCH   6   9
DOCKED: BRANCH   7  18
DOCKED: ATOM     18  O   UNL     1     138.355  67.050 222.149 -0.13 +0.07    -0.386 OA 
DOCKED: ATOM     19  H   UNL     1     138.028  67.327 221.253 +0.04 -0.04    +0.211 HD 
DOCKED: ENDBRANCH   7  18
DOCKED: ENDBRANCH   1   4
DOCKED: BRANCH   1  20
DOCKED: ATOM     20  C   UNL     1     139.357  71.914 220.447 -0.08 -0.01    +0.039 C  
DOCKED: BRANCH  20  21
DOCKED: ATOM     21  N   UNL     1     139.909  73.263 220.388 +0.03 +0.12    -0.637 NA 
DOCKED: BRANCH  21  22
DOCKED: ATOM     22  C   UNL     1     140.463  73.936 221.522 -0.26 -0.01    +0.101 C  
DOCKED: ATOM     23  O   UNL     1     140.646  73.311 222.604 -0.62 -0.03    -0.313 OA 
DOCKED: BRANCH  22  24
DOCKED: ATOM     24  C   UNL     1     140.825  75.360 221.416 -0.30 -0.02    +0.088 A  
DOCKED: ATOM     25  N   UNL     1     140.270  76.255 222.280 -0.32 +0.05    -0.246 NA 
DOCKED: ATOM     26  C   UNL     1     141.720  75.813 220.432 -0.27 -0.01    +0.031 A  
DOCKED: ATOM     27  C   UNL     1     140.546  77.584 222.220 -0.37 -0.02    +0.071 A  
DOCKED: ATOM     28  C   UNL     1     142.018  77.173 220.342 -0.29 -0.01    +0.013 A  
DOCKED: ATOM     29  C   UNL     1     139.951  78.467 223.128 -0.31 -0.01    +0.030 A  
DOCKED: ATOM     30  C   UNL     1     141.431  78.077 221.235 -0.35 -0.00    +0.002 A  
DOCKED: ATOM     31  C   UNL     1     140.232  79.835 223.060 -0.41 -0.00    +0.023 A  
DOCKED: ATOM     32  C   UNL     1     141.706  79.450 221.170 -0.36 -0.01    +0.030 A  
DOCKED: ATOM     33  C   UNL     1     141.105  80.327 222.082 -0.37 -0.01    +0.041 A  
DOCKED: ATOM     34  Cl  UNL     1     141.450  82.045 222.001 -0.47 +0.01    -0.084 Cl 
DOCKED: ENDBRANCH  22  24
DOCKED: ENDBRANCH  21  22
DOCKED: ENDBRANCH  20  21
DOCKED: ENDBRANCH   1  20
DOCKED: TORSDOF 11
DOCKED: TER
DOCKED: ENDMDL
________________________________________________________________________________


    FINAL DOCKED STATE:
    ________________________


Run:   10 / 20
Time taken for this run:   0.154s

DOCKED: MODEL        10
DOCKED: USER    Run = 10
DOCKED: USER
DOCKED: USER    Estimated Free Energy of Binding    =  -8.60 kcal/mol  [=(1)+(2)+(3)-(4)]
DOCKED: USER
DOCKED: USER    (1) Final Intermolecular Energy     = -11.88 kcal/mol
DOCKED: USER        vdW + Hbond + desolv Energy     = -11.67 kcal/mol
DOCKED: USER        Electrostatic Energy            =  -0.22 kcal/mol
DOCKED: USER        Moving Ligand-Fixed Receptor    = -11.88 kcal/mol
DOCKED: USER        Moving Ligand-Moving Receptor   =  +0.00 kcal/mol
DOCKED: USER    (2) Final Total Internal Energy     =  -2.45 kcal/mol
DOCKED: USER    (3) Torsional Free Energy           =  +3.28 kcal/mol
DOCKED: USER    (4) Unbound System's Energy         =  -2.45 kcal/mol
DOCKED: USER
DOCKED: USER
DOCKED: REMARK SMILES O=C([N-]C/C(O)=[N+]1\C[C@H](O)C[C@H]1COCc1ccccc1)c1ccc2cc(Cl)ccc2n1
DOCKED: REMARK SMILES IDX 5 1 6 2 7 4 8 5 12 6 9 7 11 8 13 9 14 10 15 11 16 12 17 13
DOCKED: REMARK SMILES IDX 21 14 18 15 20 16 19 17 10 18 4 20 3 21 2 22 1 23 22 24
DOCKED: REMARK SMILES IDX 32 25 23 26 31 27 24 28 30 29 25 30 29 31 26 32 27 33 28 34
DOCKED: REMARK H PARENT 6 3 10 19
DOCKED: USER                              x       y       z     vdW  Elec       q    Type
DOCKED: USER                           _______ _______ _______ _____ _____    ______ ____
DOCKED: ROOT
DOCKED: ATOM      1  C   UNL     1     140.758  73.304 221.288 -0.16 -0.04    +0.316 C  
DOCKED: ENDROOT
DOCKED: BRANCH   1   2
DOCKED: ATOM      2  O   UNL     1     140.080  73.971 222.314 -0.75 +0.01    -0.465 OA 
DOCKED: ATOM      3  H   UNL     1     139.205  73.663 222.714 -0.41 -0.09    +0.299 HD 
DOCKED: ENDBRANCH   1   2
DOCKED: BRANCH   1   4
DOCKED: ATOM      4  N   UNL     1     141.700  73.893 220.578 -0.16 +0.04    -0.196 N  
DOCKED: ATOM      5  C   UNL     1     142.456  73.219 219.523 -0.04 -0.08    +0.386 C  
DOCKED: ATOM      6  C   UNL     1     142.183  75.260 220.789 -0.10 -0.13    +0.292 C  
DOCKED: ATOM      7  C   UNL     1     143.474  74.237 219.013 -0.18 -0.06    +0.186 C  
DOCKED: ATOM      8  C   UNL     1     143.551  75.298 220.106 -0.29 -0.06    +0.117 C  
DOCKED: BRANCH   6   9
DOCKED: ATOM      9  C   UNL     1     141.232  76.287 220.139 -0.15 -0.10    +0.236 C  
DOCKED: BRANCH   9  10
DOCKED: ATOM     10  O   UNL     1     141.418  77.563 220.712 -0.14 +0.19    -0.370 OA 
DOCKED: BRANCH  10  11
DOCKED: ATOM     11  C   UNL     1     141.031  77.538 222.069 -0.30 -0.08    +0.196 C  
DOCKED: BRANCH  11  12
DOCKED: ATOM     12  C   UNL     1     141.358  78.863 222.695 -0.49 +0.01    -0.022 A  
DOCKED: ATOM     13  C   UNL     1     142.681  79.333 222.736 -0.55 -0.00    +0.006 A  
DOCKED: ATOM     14  C   UNL     1     140.330  79.656 223.230 -0.44 -0.00    +0.006 A  
DOCKED: ATOM     15  C   UNL     1     142.973  80.567 223.325 -0.66 -0.00    +0.000 A  
DOCKED: ATOM     16  C   UNL     1     140.624  80.895 223.810 -0.41 -0.00    +0.000 A  
DOCKED: ATOM     17  C   UNL     1     141.945  81.348 223.859 -0.60 -0.00    +0.000 A  
DOCKED: ENDBRANCH  11  12
DOCKED: ENDBRANCH  10  11
DOCKED: ENDBRANCH   9  10
DOCKED: ENDBRANCH   6   9
DOCKED: BRANCH   7  18
DOCKED: ATOM     18  O   UNL     1     144.731  73.650 218.805 -0.12 +0.05    -0.386 OA 
DOCKED: ATOM     19  H   UNL     1     145.322  74.368 218.456 -0.41 -0.10    +0.211 HD 
DOCKED: ENDBRANCH   7  18
DOCKED: ENDBRANCH   1   4
DOCKED: BRANCH   1  20
DOCKED: ATOM     20  C   UNL     1     140.330  71.888 221.011 -0.17 -0.01    +0.039 C  
DOCKED: BRANCH  20  21
DOCKED: ATOM     21  N   UNL     1     138.894  71.755 221.227 +0.03 +0.12    -0.637 NA 
DOCKED: BRANCH  21  22
DOCKED: ATOM     22  C   UNL     1     138.278  71.861 222.514 -0.17 -0.03    +0.101 C  
DOCKED: ATOM     23  O   UNL     1     137.360  72.704 222.711 -0.10 +0.11    -0.313 OA 
DOCKED: BRANCH  22  24
DOCKED: ATOM     24  C   UNL     1     138.718  70.974 223.605 -0.26 -0.02    +0.088 A  
DOCKED: ATOM     25  N   UNL     1     139.427  71.496 224.644 -0.21 +0.06    -0.246 NA 
DOCKED: ATOM     26  C   UNL     1     138.432  69.598 223.585 -0.25 -0.00    +0.031 A  
DOCKED: ATOM     27  C   UNL     1     139.881  70.727 225.668 -0.45 -0.01    +0.071 A  
DOCKED: ATOM     28  C   UNL     1     138.890  68.782 224.620 -0.37 -0.00    +0.013 A  
DOCKED: ATOM     29  C   UNL     1     140.607  71.308 226.714 -0.65 -0.01    +0.030 A  
DOCKED: ATOM     30  C   UNL     1     139.624  69.338 225.675 -0.45 -0.00    +0.002 A  
DOCKED: ATOM     31  C   UNL     1     141.077  70.513 227.764 -0.62 -0.00    +0.023 A  
DOCKED: ATOM     32  C   UNL     1     140.101  68.546 226.729 -0.59 -0.01    +0.030 A  
DOCKED: ATOM     33  C   UNL     1     140.828  69.135 227.771 -0.59 -0.01    +0.041 A  
DOCKED: ATOM     34  Cl  UNL     1     141.424  68.145 229.091 -0.47 +0.02    -0.084 Cl 
DOCKED: ENDBRANCH  22  24
DOCKED: ENDBRANCH  21  22
DOCKED: ENDBRANCH  20  21
DOCKED: ENDBRANCH   1  20
DOCKED: TORSDOF 11
DOCKED: TER
DOCKED: ENDMDL
________________________________________________________________________________


    FINAL DOCKED STATE:
    ________________________


Run:   11 / 20
Time taken for this run:   0.154s

DOCKED: MODEL        11
DOCKED: USER    Run = 11
DOCKED: USER
DOCKED: USER    Estimated Free Energy of Binding    =  -7.87 kcal/mol  [=(1)+(2)+(3)-(4)]
DOCKED: USER
DOCKED: USER    (1) Final Intermolecular Energy     = -11.16 kcal/mol
DOCKED: USER        vdW + Hbond + desolv Energy     = -10.72 kcal/mol
DOCKED: USER        Electrostatic Energy            =  -0.44 kcal/mol
DOCKED: USER        Moving Ligand-Fixed Receptor    = -11.16 kcal/mol
DOCKED: USER        Moving Ligand-Moving Receptor   =  +0.00 kcal/mol
DOCKED: USER    (2) Final Total Internal Energy     =  -2.95 kcal/mol
DOCKED: USER    (3) Torsional Free Energy           =  +3.28 kcal/mol
DOCKED: USER    (4) Unbound System's Energy         =  -2.95 kcal/mol
DOCKED: USER
DOCKED: USER
DOCKED: REMARK SMILES O=C([N-]C/C(O)=[N+]1\C[C@H](O)C[C@H]1COCc1ccccc1)c1ccc2cc(Cl)ccc2n1
DOCKED: REMARK SMILES IDX 5 1 6 2 7 4 8 5 12 6 9 7 11 8 13 9 14 10 15 11 16 12 17 13
DOCKED: REMARK SMILES IDX 21 14 18 15 20 16 19 17 10 18 4 20 3 21 2 22 1 23 22 24
DOCKED: REMARK SMILES IDX 32 25 23 26 31 27 24 28 30 29 25 30 29 31 26 32 27 33 28 34
DOCKED: REMARK H PARENT 6 3 10 19
DOCKED: USER                              x       y       z     vdW  Elec       q    Type
DOCKED: USER                           _______ _______ _______ _____ _____    ______ ____
DOCKED: ROOT
DOCKED: ATOM      1  C   UNL     1     140.690  75.326 220.127 -0.08 -0.09    +0.316 C  
DOCKED: ENDROOT
DOCKED: BRANCH   1   2
DOCKED: ATOM      2  O   UNL     1     139.335  75.114 219.846 +0.00 +0.11    -0.465 OA 
DOCKED: ATOM      3  H   UNL     1     138.717  74.549 220.411 +0.06 -0.06    +0.299 HD 
DOCKED: ENDBRANCH   1   2
DOCKED: BRANCH   1   4
DOCKED: ATOM      4  N   UNL     1     141.526  75.780 219.216 -0.08 +0.07    -0.196 N  
DOCKED: ATOM      5  C   UNL     1     142.091  74.950 218.152 -0.02 -0.13    +0.386 C  
DOCKED: ATOM      6  C   UNL     1     142.075  77.139 219.179 -0.17 -0.17    +0.292 C  
DOCKED: ATOM      7  C   UNL     1     143.047  75.851 217.371 -0.15 -0.09    +0.186 C  
DOCKED: ATOM      8  C   UNL     1     143.322  77.029 218.298 -0.19 -0.08    +0.117 C  
DOCKED: BRANCH   6   9
DOCKED: ATOM      9  C   UNL     1     141.065  78.125 218.555 -0.09 -0.11    +0.236 C  
DOCKED: BRANCH   9  10
DOCKED: ATOM     10  O   UNL     1     140.450  78.902 219.558 -0.03 +0.14    -0.370 OA 
DOCKED: BRANCH  10  11
DOCKED: ATOM     11  C   UNL     1     141.331  79.923 219.979 -0.20 -0.09    +0.196 C  
DOCKED: BRANCH  11  12
DOCKED: ATOM     12  C   UNL     1     141.610  79.754 221.445 -0.39 +0.01    -0.022 A  
DOCKED: ATOM     13  C   UNL     1     142.243  80.771 222.179 -0.51 -0.00    +0.006 A  
DOCKED: ATOM     14  C   UNL     1     141.218  78.575 222.100 -0.42 -0.00    +0.006 A  
DOCKED: ATOM     15  C   UNL     1     142.500  80.599 223.543 -0.67 -0.00    +0.000 A  
DOCKED: ATOM     16  C   UNL     1     141.469  78.411 223.466 -0.57 -0.00    +0.000 A  
DOCKED: ATOM     17  C   UNL     1     142.111  79.421 224.186 -0.49 -0.00    +0.000 A  
DOCKED: ENDBRANCH  11  12
DOCKED: ENDBRANCH  10  11
DOCKED: ENDBRANCH   9  10
DOCKED: ENDBRANCH   6   9
DOCKED: BRANCH   7  18
DOCKED: ATOM     18  O   UNL     1     144.239  75.184 217.052 -0.09 +0.19    -0.386 OA 
DOCKED: ATOM     19  H   UNL     1     144.973  75.710 217.464 -0.50 -0.18    +0.211 HD 
DOCKED: ENDBRANCH   7  18
DOCKED: ENDBRANCH   1   4
DOCKED: BRANCH   1  20
DOCKED: ATOM     20  C   UNL     1     141.149  74.973 221.516 -0.30 -0.01    +0.039 C  
DOCKED: BRANCH  20  21
DOCKED: ATOM     21  N   UNL     1     140.094  74.250 222.216 -0.58 +0.02    -0.637 NA 
DOCKED: BRANCH  21  22
DOCKED: ATOM     22  C   UNL     1     139.759  72.886 221.941 -0.24 -0.02    +0.101 C  
DOCKED: ATOM     23  O   UNL     1     139.423  72.539 220.775 -0.05 +0.06    -0.313 OA 
DOCKED: BRANCH  22  24
DOCKED: ATOM     24  C   UNL     1     139.814  71.891 223.026 -0.30 -0.02    +0.088 A  
DOCKED: ATOM     25  N   UNL     1     140.330  72.250 224.234 -0.11 +0.04    -0.246 NA 
DOCKED: ATOM     26  C   UNL     1     139.356  70.577 222.833 -0.23 -0.01    +0.031 A  
DOCKED: ATOM     27  C   UNL     1     140.429  71.373 225.267 -0.49 -0.01    +0.071 A  
DOCKED: ATOM     28  C   UNL     1     139.450  69.652 223.873 -0.28 -0.00    +0.013 A  
DOCKED: ATOM     29  C   UNL     1     140.968  71.787 226.491 -0.68 -0.00    +0.030 A  
DOCKED: ATOM     30  C   UNL     1     139.992  70.040 225.105 -0.43 -0.00    +0.002 A  
DOCKED: ATOM     31  C   UNL     1     141.073  70.880 227.550 -0.66 -0.00    +0.023 A  
DOCKED: ATOM     32  C   UNL     1     140.103  69.135 226.170 -0.50 -0.01    +0.030 A  
DOCKED: ATOM     33  C   UNL     1     140.645  69.557 227.391 -0.57 -0.01    +0.041 A  
DOCKED: ATOM     34  Cl  UNL     1     140.784  68.426 228.724 -0.69 +0.02    -0.084 Cl 
DOCKED: ENDBRANCH  22  24
DOCKED: ENDBRANCH  21  22
DOCKED: ENDBRANCH  20  21
DOCKED: ENDBRANCH   1  20
DOCKED: TORSDOF 11
DOCKED: TER
DOCKED: ENDMDL
________________________________________________________________________________


    FINAL DOCKED STATE:
    ________________________


Run:   12 / 20
Time taken for this run:   0.154s

DOCKED: MODEL        12
DOCKED: USER    Run = 12
DOCKED: USER
DOCKED: USER    Estimated Free Energy of Binding    =  -7.69 kcal/mol  [=(1)+(2)+(3)-(4)]
DOCKED: USER
DOCKED: USER    (1) Final Intermolecular Energy     = -10.97 kcal/mol
DOCKED: USER        vdW + Hbond + desolv Energy     = -10.64 kcal/mol
DOCKED: USER        Electrostatic Energy            =  -0.33 kcal/mol
DOCKED: USER        Moving Ligand-Fixed Receptor    = -10.97 kcal/mol
DOCKED: USER        Moving Ligand-Moving Receptor   =  +0.00 kcal/mol
DOCKED: USER    (2) Final Total Internal Energy     =  -2.87 kcal/mol
DOCKED: USER    (3) Torsional Free Energy           =  +3.28 kcal/mol
DOCKED: USER    (4) Unbound System's Energy         =  -2.87 kcal/mol
DOCKED: USER
DOCKED: USER
DOCKED: REMARK SMILES O=C([N-]C/C(O)=[N+]1\C[C@H](O)C[C@H]1COCc1ccccc1)c1ccc2cc(Cl)ccc2n1
DOCKED: REMARK SMILES IDX 5 1 6 2 7 4 8 5 12 6 9 7 11 8 13 9 14 10 15 11 16 12 17 13
DOCKED: REMARK SMILES IDX 21 14 18 15 20 16 19 17 10 18 4 20 3 21 2 22 1 23 22 24
DOCKED: REMARK SMILES IDX 32 25 23 26 31 27 24 28 30 29 25 30 29 31 26 32 27 33 28 34
DOCKED: REMARK H PARENT 6 3 10 19
DOCKED: USER                              x       y       z     vdW  Elec       q    Type
DOCKED: USER                           _______ _______ _______ _____ _____    ______ ____
DOCKED: ROOT
DOCKED: ATOM      1  C   UNL     1     140.564  73.846 220.959 -0.14 -0.05    +0.316 C  
DOCKED: ENDROOT
DOCKED: BRANCH   1   2
DOCKED: ATOM      2  O   UNL     1     140.366  73.947 222.341 -0.73 -0.02    -0.465 OA 
DOCKED: ATOM      3  H   UNL     1     139.547  73.610 222.826 -0.29 -0.06    +0.299 HD 
DOCKED: ENDBRANCH   1   2
DOCKED: BRANCH   1   4
DOCKED: ATOM      4  N   UNL     1     141.682  74.243 220.386 -0.15 +0.05    -0.196 N  
DOCKED: ATOM      5  C   UNL     1     142.614  73.335 219.717 -0.07 -0.08    +0.386 C  
DOCKED: ATOM      6  C   UNL     1     142.196  75.616 220.401 -0.15 -0.14    +0.292 C  
DOCKED: ATOM      7  C   UNL     1     143.789  74.195 219.256 -0.22 -0.06    +0.186 C  
DOCKED: ATOM      8  C   UNL     1     143.684  75.476 220.075 -0.25 -0.07    +0.117 C  
DOCKED: BRANCH   6   9
DOCKED: ATOM      9  C   UNL     1     141.493  76.479 219.332 -0.12 -0.10    +0.236 C  
DOCKED: BRANCH   9  10
DOCKED: ATOM     10  O   UNL     1     140.730  77.496 219.943 -0.05 +0.15    -0.370 OA 
DOCKED: BRANCH  10  11
DOCKED: ATOM     11  C   UNL     1     141.460  78.705 219.947 -0.19 -0.10    +0.196 C  
DOCKED: BRANCH  11  12
DOCKED: ATOM     12  C   UNL     1     141.706  79.123 221.369 -0.38 +0.01    -0.022 A  
DOCKED: ATOM     13  C   UNL     1     141.435  78.247 222.433 -0.46 -0.00    +0.006 A  
DOCKED: ATOM     14  C   UNL     1     142.232  80.396 221.642 -0.45 -0.00    +0.006 A  
DOCKED: ATOM     15  C   UNL     1     141.665  78.649 223.753 -0.60 -0.00    +0.000 A  
DOCKED: ATOM     16  C   UNL     1     142.469  80.792 222.962 -0.61 -0.00    +0.000 A  
DOCKED: ATOM     17  C   UNL     1     142.183  79.920 224.016 -0.57 -0.00    +0.000 A  
DOCKED: ENDBRANCH  11  12
DOCKED: ENDBRANCH  10  11
DOCKED: ENDBRANCH   9  10
DOCKED: ENDBRANCH   6   9
DOCKED: BRANCH   7  18
DOCKED: ATOM     18  O   UNL     1     145.018  73.558 219.490 -0.20 +0.04    -0.386 OA 
DOCKED: ATOM     19  H   UNL     1     145.720  74.169 219.146 -0.40 -0.06    +0.211 HD 
DOCKED: ENDBRANCH   7  18
DOCKED: ENDBRANCH   1   4
DOCKED: BRANCH   1  20
DOCKED: ATOM     20  C   UNL     1     139.418  73.291 220.157 -0.08 -0.01    +0.039 C  
DOCKED: BRANCH  20  21
DOCKED: ATOM     21  N   UNL     1     138.305  72.972 221.042 +0.02 +0.14    -0.637 NA 
DOCKED: BRANCH  21  22
DOCKED: ATOM     22  C   UNL     1     137.859  71.635 221.295 -0.08 -0.02    +0.101 C  
DOCKED: ATOM     23  O   UNL     1     137.148  71.033 220.444 -0.01 +0.06    -0.313 OA 
DOCKED: BRANCH  22  24
DOCKED: ATOM     24  C   UNL     1     138.241  70.968 222.551 -0.16 -0.02    +0.088 A  
DOCKED: ATOM     25  N   UNL     1     139.241  71.497 223.310 -0.19 +0.06    -0.246 NA 
DOCKED: ATOM     26  C   UNL     1     137.604  69.789 222.972 -0.17 -0.00    +0.031 A  
DOCKED: ATOM     27  C   UNL     1     139.654  70.917 224.467 -0.39 -0.01    +0.071 A  
DOCKED: ATOM     28  C   UNL     1     138.011  69.166 224.153 -0.30 -0.00    +0.013 A  
DOCKED: ATOM     29  C   UNL     1     140.687  71.496 225.214 -0.53 -0.00    +0.030 A  
DOCKED: ATOM     30  C   UNL     1     139.045  69.723 224.915 -0.38 -0.00    +0.002 A  
DOCKED: ATOM     31  C   UNL     1     141.114  70.894 226.402 -0.62 -0.00    +0.023 A  
DOCKED: ATOM     32  C   UNL     1     139.480  69.122 226.104 -0.47 -0.00    +0.030 A  
DOCKED: ATOM     33  C   UNL     1     140.515  69.708 226.845 -0.53 -0.01    +0.041 A  
DOCKED: ATOM     34  Cl  UNL     1     141.059  68.957 228.334 -0.73 +0.02    -0.084 Cl 
DOCKED: ENDBRANCH  22  24
DOCKED: ENDBRANCH  21  22
DOCKED: ENDBRANCH  20  21
DOCKED: ENDBRANCH   1  20
DOCKED: TORSDOF 11
DOCKED: TER
DOCKED: ENDMDL
________________________________________________________________________________


    FINAL DOCKED STATE:
    ________________________


Run:   13 / 20
Time taken for this run:   0.154s

DOCKED: MODEL        13
DOCKED: USER    Run = 13
DOCKED: USER
DOCKED: USER    Estimated Free Energy of Binding    =  -8.48 kcal/mol  [=(1)+(2)+(3)-(4)]
DOCKED: USER
DOCKED: USER    (1) Final Intermolecular Energy     = -11.76 kcal/mol
DOCKED: USER        vdW + Hbond + desolv Energy     = -11.45 kcal/mol
DOCKED: USER        Electrostatic Energy            =  -0.31 kcal/mol
DOCKED: USER        Moving Ligand-Fixed Receptor    = -11.76 kcal/mol
DOCKED: USER        Moving Ligand-Moving Receptor   =  +0.00 kcal/mol
DOCKED: USER    (2) Final Total Internal Energy     =  -2.40 kcal/mol
DOCKED: USER    (3) Torsional Free Energy           =  +3.28 kcal/mol
DOCKED: USER    (4) Unbound System's Energy         =  -2.40 kcal/mol
DOCKED: USER
DOCKED: USER
DOCKED: REMARK SMILES O=C([N-]C/C(O)=[N+]1\C[C@H](O)C[C@H]1COCc1ccccc1)c1ccc2cc(Cl)ccc2n1
DOCKED: REMARK SMILES IDX 5 1 6 2 7 4 8 5 12 6 9 7 11 8 13 9 14 10 15 11 16 12 17 13
DOCKED: REMARK SMILES IDX 21 14 18 15 20 16 19 17 10 18 4 20 3 21 2 22 1 23 22 24
DOCKED: REMARK SMILES IDX 32 25 23 26 31 27 24 28 30 29 25 30 29 31 26 32 27 33 28 34
DOCKED: REMARK H PARENT 6 3 10 19
DOCKED: USER                              x       y       z     vdW  Elec       q    Type
DOCKED: USER                           _______ _______ _______ _____ _____    ______ ____
DOCKED: ROOT
DOCKED: ATOM      1  C   UNL     1     140.329  74.251 220.869 -0.13 -0.06    +0.316 C  
DOCKED: ENDROOT
DOCKED: BRANCH   1   2
DOCKED: ATOM      2  O   UNL     1     140.084  74.519 222.221 -0.70 +0.01    -0.465 OA 
DOCKED: ATOM      3  H   UNL     1     139.342  74.097 222.760 -0.40 -0.07    +0.299 HD 
DOCKED: ENDBRANCH   1   2
DOCKED: BRANCH   1   4
DOCKED: ATOM      4  N   UNL     1     141.177  74.968 220.160 -0.11 +0.06    -0.196 N  
DOCKED: ATOM      5  C   UNL     1     141.685  74.557 218.851 -0.01 -0.11    +0.386 C  
DOCKED: ATOM      6  C   UNL     1     141.796  76.221 220.601 -0.12 -0.15    +0.292 C  
DOCKED: ATOM      7  C   UNL     1     142.677  75.637 218.421 -0.16 -0.08    +0.186 C  
DOCKED: ATOM      8  C   UNL     1     143.024  76.384 219.704 -0.32 -0.08    +0.117 C  
DOCKED: BRANCH   6   9
DOCKED: ATOM      9  C   UNL     1     140.831  77.410 220.407 -0.14 -0.10    +0.236 C  
DOCKED: BRANCH   9  10
DOCKED: ATOM     10  O   UNL     1     139.947  77.512 221.502 -0.10 +0.11    -0.370 OA 
DOCKED: BRANCH  10  11
DOCKED: ATOM     11  C   UNL     1     140.678  77.485 222.710 -0.29 -0.06    +0.196 C  
DOCKED: BRANCH  11  12
DOCKED: ATOM     12  C   UNL     1     141.174  78.870 223.013 -0.51 +0.01    -0.022 A  
DOCKED: ATOM     13  C   UNL     1     142.551  79.145 223.071 -0.54 -0.00    +0.006 A  
DOCKED: ATOM     14  C   UNL     1     140.255  79.911 223.222 -0.43 -0.00    +0.006 A  
DOCKED: ATOM     15  C   UNL     1     142.999  80.438 223.357 -0.67 -0.00    +0.000 A  
DOCKED: ATOM     16  C   UNL     1     140.708  81.205 223.499 -0.41 -0.00    +0.000 A  
DOCKED: ATOM     17  C   UNL     1     142.079  81.467 223.569 -0.57 -0.00    +0.000 A  
DOCKED: ENDBRANCH  11  12
DOCKED: ENDBRANCH  10  11
DOCKED: ENDBRANCH   9  10
DOCKED: ENDBRANCH   6   9
DOCKED: BRANCH   7  18
DOCKED: ATOM     18  O   UNL     1     143.829  75.080 217.847 -0.09 +0.18    -0.386 OA 
DOCKED: ATOM     19  H   UNL     1     144.540  75.768 217.922 -0.44 -0.16    +0.211 HD 
DOCKED: ENDBRANCH   7  18
DOCKED: ENDBRANCH   1   4
DOCKED: BRANCH   1  20
DOCKED: ATOM     20  C   UNL     1     139.543  73.122 220.256 -0.09 -0.01    +0.039 C  
DOCKED: BRANCH  20  21
DOCKED: ATOM     21  N   UNL     1     139.498  71.994 221.179 +0.02 +0.11    -0.637 NA 
DOCKED: BRANCH  21  22
DOCKED: ATOM     22  C   UNL     1     138.695  71.978 222.363 -0.18 -0.03    +0.101 C  
DOCKED: ATOM     23  O   UNL     1     137.688  72.732 222.456 -0.09 +0.11    -0.313 OA 
DOCKED: BRANCH  22  24
DOCKED: ATOM     24  C   UNL     1     139.050  71.071 223.469 -0.28 -0.02    +0.088 A  
DOCKED: ATOM     25  N   UNL     1     139.678  71.574 224.568 -0.21 +0.06    -0.246 NA 
DOCKED: ATOM     26  C   UNL     1     138.765  69.697 223.403 -0.24 -0.01    +0.031 A  
DOCKED: ATOM     27  C   UNL     1     140.050  70.787 225.611 -0.47 -0.01    +0.071 A  
DOCKED: ATOM     28  C   UNL     1     139.141  68.862 224.456 -0.35 -0.00    +0.013 A  
DOCKED: ATOM     29  C   UNL     1     140.694  71.347 226.720 -0.67 -0.01    +0.030 A  
DOCKED: ATOM     30  C   UNL     1     139.792  69.398 225.573 -0.45 -0.00    +0.002 A  
DOCKED: ATOM     31  C   UNL     1     141.081  70.533 227.789 -0.62 -0.00    +0.023 A  
DOCKED: ATOM     32  C   UNL     1     140.186  68.587 226.647 -0.59 -0.01    +0.030 A  
DOCKED: ATOM     33  C   UNL     1     140.831  69.156 227.753 -0.59 -0.01    +0.041 A  
DOCKED: ATOM     34  Cl  UNL     1     141.323  68.142 229.096 -0.47 +0.02    -0.084 Cl 
DOCKED: ENDBRANCH  22  24
DOCKED: ENDBRANCH  21  22
DOCKED: ENDBRANCH  20  21
DOCKED: ENDBRANCH   1  20
DOCKED: TORSDOF 11
DOCKED: TER
DOCKED: ENDMDL
________________________________________________________________________________


    FINAL DOCKED STATE:
    ________________________


Run:   14 / 20
Time taken for this run:   0.154s

DOCKED: MODEL        14
DOCKED: USER    Run = 14
DOCKED: USER
DOCKED: USER    Estimated Free Energy of Binding    =  -6.04 kcal/mol  [=(1)+(2)+(3)-(4)]
DOCKED: USER
DOCKED: USER    (1) Final Intermolecular Energy     =  -9.32 kcal/mol
DOCKED: USER        vdW + Hbond + desolv Energy     =  -8.79 kcal/mol
DOCKED: USER        Electrostatic Energy            =  -0.53 kcal/mol
DOCKED: USER        Moving Ligand-Fixed Receptor    =  -9.32 kcal/mol
DOCKED: USER        Moving Ligand-Moving Receptor   =  +0.00 kcal/mol
DOCKED: USER    (2) Final Total Internal Energy     =  -4.54 kcal/mol
DOCKED: USER    (3) Torsional Free Energy           =  +3.28 kcal/mol
DOCKED: USER    (4) Unbound System's Energy         =  -4.54 kcal/mol
DOCKED: USER
DOCKED: USER
DOCKED: REMARK SMILES O=C([N-]C/C(O)=[N+]1\C[C@H](O)C[C@H]1COCc1ccccc1)c1ccc2cc(Cl)ccc2n1
DOCKED: REMARK SMILES IDX 5 1 6 2 7 4 8 5 12 6 9 7 11 8 13 9 14 10 15 11 16 12 17 13
DOCKED: REMARK SMILES IDX 21 14 18 15 20 16 19 17 10 18 4 20 3 21 2 22 1 23 22 24
DOCKED: REMARK SMILES IDX 32 25 23 26 31 27 24 28 30 29 25 30 29 31 26 32 27 33 28 34
DOCKED: REMARK H PARENT 6 3 10 19
DOCKED: USER                              x       y       z     vdW  Elec       q    Type
DOCKED: USER                           _______ _______ _______ _____ _____    ______ ____
DOCKED: ROOT
DOCKED: ATOM      1  C   UNL     1     142.070  77.092 219.580 -0.17 -0.18    +0.316 C  
DOCKED: ENDROOT
DOCKED: BRANCH   1   2
DOCKED: ATOM      2  O   UNL     1     142.183  77.641 220.862 -0.09 +0.35    -0.465 OA 
DOCKED: ATOM      3  H   UNL     1     142.193  77.100 221.715 -0.40 -0.28    +0.299 HD 
DOCKED: ENDBRANCH   1   2
DOCKED: BRANCH   1   4
DOCKED: ATOM      4  N   UNL     1     141.952  77.849 218.507 -0.16 +0.12    -0.196 N  
DOCKED: ATOM      5  C   UNL     1     142.018  77.329 217.141 -0.09 -0.23    +0.386 C  
DOCKED: ATOM      6  C   UNL     1     141.823  79.309 218.516 -0.17 -0.19    +0.292 C  
DOCKED: ATOM      7  C   UNL     1     141.900  78.541 216.219 -0.11 -0.15    +0.186 C  
DOCKED: ATOM      8  C   UNL     1     142.221  79.741 217.103 -0.18 -0.12    +0.117 C  
DOCKED: BRANCH   6   9
DOCKED: ATOM      9  C   UNL     1     140.370  79.732 218.815 -0.06 -0.09    +0.236 C  
DOCKED: BRANCH   9  10
DOCKED: ATOM     10  O   UNL     1     140.220  80.050 220.181 -0.04 +0.12    -0.370 OA 
DOCKED: BRANCH  10  11
DOCKED: ATOM     11  C   UNL     1     140.886  81.263 220.465 -0.20 -0.06    +0.196 C  
DOCKED: BRANCH  11  12
DOCKED: ATOM     12  C   UNL     1     141.662  81.106 221.742 -0.43 +0.01    -0.022 A  
DOCKED: ATOM     13  C   UNL     1     142.592  80.064 221.895 -0.41 -0.00    +0.006 A  
DOCKED: ATOM     14  C   UNL     1     141.474  82.020 222.791 -0.35 -0.00    +0.006 A  
DOCKED: ATOM     15  C   UNL     1     143.305  79.927 223.091 -0.56 -0.00    +0.000 A  
DOCKED: ATOM     16  C   UNL     1     142.195  81.886 223.981 -0.39 -0.00    +0.000 A  
DOCKED: ATOM     17  C   UNL     1     143.109  80.838 224.131 -0.58 -0.00    +0.000 A  
DOCKED: ENDBRANCH  11  12
DOCKED: ENDBRANCH  10  11
DOCKED: ENDBRANCH   9  10
DOCKED: ENDBRANCH   6   9
DOCKED: BRANCH   7  18
DOCKED: ATOM     18  O   UNL     1     142.800  78.463 215.146 -0.06 +0.46    -0.386 OA 
DOCKED: ATOM     19  H   UNL     1     143.371  79.273 215.199 -0.28 -0.50    +0.211 HD 
DOCKED: ENDBRANCH   7  18
DOCKED: ENDBRANCH   1   4
DOCKED: BRANCH   1  20
DOCKED: ATOM     20  C   UNL     1     142.053  75.590 219.493 -0.23 -0.02    +0.039 C  
DOCKED: BRANCH  20  21
DOCKED: ATOM     21  N   UNL     1     141.984  75.018 220.832 -0.01 +0.23    -0.637 NA 
DOCKED: BRANCH  21  22
DOCKED: ATOM     22  C   UNL     1     140.766  74.889 221.571 -0.29 -0.02    +0.101 C  
DOCKED: ATOM     23  O   UNL     1     140.427  73.770 222.045 -0.79 +0.01    -0.313 OA 
DOCKED: BRANCH  22  24
DOCKED: ATOM     24  C   UNL     1     139.914  76.073 221.780 -0.30 -0.02    +0.088 A  
DOCKED: ATOM     25  N   UNL     1     140.305  77.026 222.671 -0.23 +0.06    -0.246 NA 
DOCKED: ATOM     26  C   UNL     1     138.702  76.229 221.088 -0.16 -0.01    +0.031 A  
DOCKED: ATOM     27  C   UNL     1     139.553  78.130 222.924 -0.25 -0.01    +0.071 A  
DOCKED: ATOM     28  C   UNL     1     137.905  77.348 221.331 -0.13 -0.00    +0.013 A  
DOCKED: ATOM     29  C   UNL     1     139.994  79.083 223.849 -0.32 -0.00    +0.030 A  
DOCKED: ATOM     30  C   UNL     1     138.321  78.313 222.257 -0.23 -0.00    +0.002 A  
DOCKED: ATOM     31  C   UNL     1     139.216  80.215 224.112 -0.36 -0.00    +0.023 A  
DOCKED: ATOM     32  C   UNL     1     137.544  79.448 222.527 -0.18 -0.00    +0.030 A  
DOCKED: ATOM     33  C   UNL     1     137.992  80.397 223.455 -0.30 -0.01    +0.041 A  
DOCKED: ATOM     34  Cl  UNL     1     137.021  81.817 223.793 -0.29 +0.01    -0.084 Cl 
DOCKED: ENDBRANCH  22  24
DOCKED: ENDBRANCH  21  22
DOCKED: ENDBRANCH  20  21
DOCKED: ENDBRANCH   1  20
DOCKED: TORSDOF 11
DOCKED: TER
DOCKED: ENDMDL
________________________________________________________________________________


    FINAL DOCKED STATE:
    ________________________


Run:   15 / 20
Time taken for this run:   0.154s

DOCKED: MODEL        15
DOCKED: USER    Run = 15
DOCKED: USER
DOCKED: USER    Estimated Free Energy of Binding    =  -7.41 kcal/mol  [=(1)+(2)+(3)-(4)]
DOCKED: USER
DOCKED: USER    (1) Final Intermolecular Energy     = -10.69 kcal/mol
DOCKED: USER        vdW + Hbond + desolv Energy     = -10.34 kcal/mol
DOCKED: USER        Electrostatic Energy            =  -0.35 kcal/mol
DOCKED: USER        Moving Ligand-Fixed Receptor    = -10.69 kcal/mol
DOCKED: USER        Moving Ligand-Moving Receptor   =  +0.00 kcal/mol
DOCKED: USER    (2) Final Total Internal Energy     =  -3.00 kcal/mol
DOCKED: USER    (3) Torsional Free Energy           =  +3.28 kcal/mol
DOCKED: USER    (4) Unbound System's Energy         =  -3.00 kcal/mol
DOCKED: USER
DOCKED: USER
DOCKED: REMARK SMILES O=C([N-]C/C(O)=[N+]1\C[C@H](O)C[C@H]1COCc1ccccc1)c1ccc2cc(Cl)ccc2n1
DOCKED: REMARK SMILES IDX 5 1 6 2 7 4 8 5 12 6 9 7 11 8 13 9 14 10 15 11 16 12 17 13
DOCKED: REMARK SMILES IDX 21 14 18 15 20 16 19 17 10 18 4 20 3 21 2 22 1 23 22 24
DOCKED: REMARK SMILES IDX 32 25 23 26 31 27 24 28 30 29 25 30 29 31 26 32 27 33 28 34
DOCKED: REMARK H PARENT 6 3 10 19
DOCKED: USER                              x       y       z     vdW  Elec       q    Type
DOCKED: USER                           _______ _______ _______ _____ _____    ______ ____
DOCKED: ROOT
DOCKED: ATOM      1  C   UNL     1     141.720  74.000 219.955 -0.09 -0.08    +0.316 C  
DOCKED: ENDROOT
DOCKED: BRANCH   1   2
DOCKED: ATOM      2  O   UNL     1     140.604  74.258 219.150 +0.01 +0.11    -0.465 OA 
DOCKED: ATOM      3  H   UNL     1     139.647  74.205 219.467 +0.05 -0.07    +0.299 HD 
DOCKED: ENDBRANCH   1   2
DOCKED: BRANCH   1   4
DOCKED: ATOM      4  N   UNL     1     142.773  73.354 219.497 -0.10 +0.04    -0.196 N  
DOCKED: ATOM      5  C   UNL     1     144.074  73.353 220.167 -0.17 -0.07    +0.386 C  
DOCKED: ATOM      6  C   UNL     1     142.828  72.621 218.230 -0.01 -0.04    +0.292 C  
DOCKED: ATOM      7  C   UNL     1     145.012  72.544 219.274 -0.24 +0.03    +0.186 C  
DOCKED: ATOM      8  C   UNL     1     144.320  72.498 217.916 -0.11 +0.01    +0.117 C  
DOCKED: BRANCH   6   9
DOCKED: ATOM      9  C   UNL     1     142.195  71.221 218.375 -0.02 -0.03    +0.236 C  
DOCKED: BRANCH   9  10
DOCKED: ATOM     10  O   UNL     1     142.774  70.528 219.459 -0.05 +0.04    -0.370 OA 
DOCKED: BRANCH  10  11
DOCKED: ATOM     11  C   UNL     1     142.510  69.146 219.338 -0.11 -0.03    +0.196 C  
DOCKED: BRANCH  11  12
DOCKED: ATOM     12  C   UNL     1     143.814  68.405 219.253 -0.27 +0.00    -0.022 A  
DOCKED: ATOM     13  C   UNL     1     145.038  69.092 219.332 -0.34 +0.00    +0.006 A  
DOCKED: ATOM     14  C   UNL     1     143.817  67.008 219.113 -0.31 -0.00    +0.006 A  
DOCKED: ATOM     15  C   UNL     1     146.245  68.391 219.248 -0.44 +0.00    +0.000 A  
DOCKED: ATOM     16  C   UNL     1     145.026  66.310 219.039 -0.49 -0.00    +0.000 A  
DOCKED: ATOM     17  C   UNL     1     146.239  67.001 219.105 -0.56 -0.00    +0.000 A  
DOCKED: ENDBRANCH  11  12
DOCKED: ENDBRANCH  10  11
DOCKED: ENDBRANCH   9  10
DOCKED: ENDBRANCH   6   9
DOCKED: BRANCH   7  18
DOCKED: ATOM     18  O   UNL     1     146.273  73.150 219.166 -0.70 -0.30    -0.386 OA 
DOCKED: ATOM     19  H   UNL     1     146.106  74.113 218.987 -0.45 -0.04    +0.211 HD 
DOCKED: ENDBRANCH   7  18
DOCKED: ENDBRANCH   1   4
DOCKED: BRANCH   1  20
DOCKED: ATOM     20  C   UNL     1     141.638  74.467 221.383 -0.11 -0.01    +0.039 C  
DOCKED: BRANCH  20  21
DOCKED: ATOM     21  N   UNL     1     140.349  74.092 221.953 -0.60 +0.04    -0.637 NA 
DOCKED: BRANCH  21  22
DOCKED: ATOM     22  C   UNL     1     139.763  72.797 221.787 -0.23 -0.02    +0.101 C  
DOCKED: ATOM     23  O   UNL     1     139.214  72.485 220.694 -0.04 +0.06    -0.313 OA 
DOCKED: BRANCH  22  24
DOCKED: ATOM     24  C   UNL     1     139.811  71.830 222.897 -0.30 -0.02    +0.088 A  
DOCKED: ATOM     25  N   UNL     1     140.321  72.220 224.099 -0.18 +0.04    -0.246 NA 
DOCKED: ATOM     26  C   UNL     1     139.354  70.512 222.735 -0.22 -0.01    +0.031 A  
DOCKED: ATOM     27  C   UNL     1     140.413  71.369 225.155 -0.48 -0.01    +0.071 A  
DOCKED: ATOM     28  C   UNL     1     139.442  69.613 223.799 -0.27 -0.00    +0.013 A  
DOCKED: ATOM     29  C   UNL     1     140.945  71.814 226.370 -0.65 -0.00    +0.030 A  
DOCKED: ATOM     30  C   UNL     1     139.976  70.032 225.023 -0.42 -0.00    +0.002 A  
DOCKED: ATOM     31  C   UNL     1     141.044  70.935 227.454 -0.67 -0.00    +0.023 A  
DOCKED: ATOM     32  C   UNL     1     140.080  69.155 226.112 -0.49 -0.01    +0.030 A  
DOCKED: ATOM     33  C   UNL     1     140.615  69.607 227.325 -0.56 -0.01    +0.041 A  
DOCKED: ATOM     34  Cl  UNL     1     140.746  68.511 228.688 -0.72 +0.02    -0.084 Cl 
DOCKED: ENDBRANCH  22  24
DOCKED: ENDBRANCH  21  22
DOCKED: ENDBRANCH  20  21
DOCKED: ENDBRANCH   1  20
DOCKED: TORSDOF 11
DOCKED: TER
DOCKED: ENDMDL
________________________________________________________________________________


    FINAL DOCKED STATE:
    ________________________


Run:   16 / 20
Time taken for this run:   0.154s

DOCKED: MODEL        16
DOCKED: USER    Run = 16
DOCKED: USER
DOCKED: USER    Estimated Free Energy of Binding    =  -7.19 kcal/mol  [=(1)+(2)+(3)-(4)]
DOCKED: USER
DOCKED: USER    (1) Final Intermolecular Energy     = -10.47 kcal/mol
DOCKED: USER        vdW + Hbond + desolv Energy     = -10.01 kcal/mol
DOCKED: USER        Electrostatic Energy            =  -0.47 kcal/mol
DOCKED: USER        Moving Ligand-Fixed Receptor    = -10.47 kcal/mol
DOCKED: USER        Moving Ligand-Moving Receptor   =  +0.00 kcal/mol
DOCKED: USER    (2) Final Total Internal Energy     =  -3.39 kcal/mol
DOCKED: USER    (3) Torsional Free Energy           =  +3.28 kcal/mol
DOCKED: USER    (4) Unbound System's Energy         =  -3.39 kcal/mol
DOCKED: USER
DOCKED: USER
DOCKED: REMARK SMILES O=C([N-]C/C(O)=[N+]1\C[C@H](O)C[C@H]1COCc1ccccc1)c1ccc2cc(Cl)ccc2n1
DOCKED: REMARK SMILES IDX 5 1 6 2 7 4 8 5 12 6 9 7 11 8 13 9 14 10 15 11 16 12 17 13
DOCKED: REMARK SMILES IDX 21 14 18 15 20 16 19 17 10 18 4 20 3 21 2 22 1 23 22 24
DOCKED: REMARK SMILES IDX 32 25 23 26 31 27 24 28 30 29 25 30 29 31 26 32 27 33 28 34
DOCKED: REMARK H PARENT 6 3 10 19
DOCKED: USER                              x       y       z     vdW  Elec       q    Type
DOCKED: USER                           _______ _______ _______ _____ _____    ______ ____
DOCKED: ROOT
DOCKED: ATOM      1  C   UNL     1     140.681  75.496 219.972 -0.07 -0.09    +0.316 C  
DOCKED: ENDROOT
DOCKED: BRANCH   1   2
DOCKED: ATOM      2  O   UNL     1     139.349  75.098 219.810 +0.00 +0.11    -0.465 OA 
DOCKED: ATOM      3  H   UNL     1     138.893  74.390 220.367 +0.06 -0.06    +0.299 HD 
DOCKED: ENDBRANCH   1   2
DOCKED: BRANCH   1   4
DOCKED: ATOM      4  N   UNL     1     141.309  76.213 219.062 -0.07 +0.08    -0.196 N  
DOCKED: ATOM      5  C   UNL     1     142.344  77.196 219.381 -0.15 -0.24    +0.386 C  
DOCKED: ATOM      6  C   UNL     1     141.015  76.197 217.626 -0.02 -0.11    +0.292 C  
DOCKED: ATOM      7  C   UNL     1     142.751  77.832 218.053 -0.22 -0.14    +0.186 C  
DOCKED: ATOM      8  C   UNL     1     141.614  77.500 217.093 -0.11 -0.06    +0.117 C  
DOCKED: BRANCH   6   9
DOCKED: ATOM      9  C   UNL     1     141.678  74.984 216.940 -0.02 -0.08    +0.236 C  
DOCKED: BRANCH   9  10
DOCKED: ATOM     10  O   UNL     1     143.006  74.828 217.392 -0.04 +0.13    -0.370 OA 
DOCKED: BRANCH  10  11
DOCKED: ATOM     11  C   UNL     1     143.228  73.484 217.763 -0.05 -0.04    +0.196 C  
DOCKED: BRANCH  11  12
DOCKED: ATOM     12  C   UNL     1     144.209  73.447 218.901 -0.23 +0.00    -0.022 A  
DOCKED: ATOM     13  C   UNL     1     144.312  74.524 219.797 -0.39 -0.00    +0.006 A  
DOCKED: ATOM     14  C   UNL     1     145.021  72.317 219.087 -0.30 +0.00    +0.006 A  
DOCKED: ATOM     15  C   UNL     1     145.231  74.479 220.850 -0.45 -0.00    +0.000 A  
DOCKED: ATOM     16  C   UNL     1     145.933  72.271 220.147 -0.43 +0.00    +0.000 A  
DOCKED: ATOM     17  C   UNL     1     146.039  73.353 221.026 -0.71 -0.00    +0.000 A  
DOCKED: ENDBRANCH  11  12
DOCKED: ENDBRANCH  10  11
DOCKED: ENDBRANCH   9  10
DOCKED: ENDBRANCH   6   9
DOCKED: BRANCH   7  18
DOCKED: ATOM     18  O   UNL     1     142.908  79.221 218.173 -0.23 +0.39    -0.386 OA 
DOCKED: ATOM     19  H   UNL     1     143.544  79.493 217.461 -0.51 -0.39    +0.211 HD 
DOCKED: ENDBRANCH   7  18
DOCKED: ENDBRANCH   1   4
DOCKED: BRANCH   1  20
DOCKED: ATOM     20  C   UNL     1     141.372  75.030 221.226 -0.30 -0.01    +0.039 C  
DOCKED: BRANCH  20  21
DOCKED: ATOM     21  N   UNL     1     140.448  74.246 222.036 -0.56 +0.02    -0.637 NA 
DOCKED: BRANCH  21  22
DOCKED: ATOM     22  C   UNL     1     140.128  72.878 221.765 -0.25 -0.01    +0.101 C  
DOCKED: ATOM     23  O   UNL     1     139.940  72.495 220.577 -0.05 +0.05    -0.313 OA 
DOCKED: BRANCH  22  24
DOCKED: ATOM     24  C   UNL     1     140.028  71.921 222.880 -0.31 -0.01    +0.088 A  
DOCKED: ATOM     25  N   UNL     1     140.545  72.255 224.095 -0.12 +0.03    -0.246 NA 
DOCKED: ATOM     26  C   UNL     1     139.422  70.665 222.708 -0.23 -0.01    +0.031 A  
DOCKED: ATOM     27  C   UNL     1     140.503  71.408 225.156 -0.49 -0.01    +0.071 A  
DOCKED: ATOM     28  C   UNL     1     139.370  69.770 223.778 -0.28 -0.00    +0.013 A  
DOCKED: ATOM     29  C   UNL     1     141.049  71.794 226.386 -0.67 -0.00    +0.030 A  
DOCKED: ATOM     30  C   UNL     1     139.914  70.131 225.017 -0.43 -0.00    +0.002 A  
DOCKED: ATOM     31  C   UNL     1     141.009  70.918 227.475 -0.67 -0.00    +0.023 A  
DOCKED: ATOM     32  C   UNL     1     139.881  69.256 226.111 -0.48 -0.00    +0.030 A  
DOCKED: ATOM     33  C   UNL     1     140.430  69.650 227.338 -0.56 -0.01    +0.041 A  
DOCKED: ATOM     34  Cl  UNL     1     140.388  68.556 228.708 -0.67 +0.02    -0.084 Cl 
DOCKED: ENDBRANCH  22  24
DOCKED: ENDBRANCH  21  22
DOCKED: ENDBRANCH  20  21
DOCKED: ENDBRANCH   1  20
DOCKED: TORSDOF 11
DOCKED: TER
DOCKED: ENDMDL
________________________________________________________________________________


    FINAL DOCKED STATE:
    ________________________


Run:   17 / 20
Time taken for this run:   0.154s

DOCKED: MODEL        17
DOCKED: USER    Run = 17
DOCKED: USER
DOCKED: USER    Estimated Free Energy of Binding    =  -6.16 kcal/mol  [=(1)+(2)+(3)-(4)]
DOCKED: USER
DOCKED: USER    (1) Final Intermolecular Energy     =  -9.44 kcal/mol
DOCKED: USER        vdW + Hbond + desolv Energy     =  -8.89 kcal/mol
DOCKED: USER        Electrostatic Energy            =  -0.54 kcal/mol
DOCKED: USER        Moving Ligand-Fixed Receptor    =  -9.44 kcal/mol
DOCKED: USER        Moving Ligand-Moving Receptor   =  +0.00 kcal/mol
DOCKED: USER    (2) Final Total Internal Energy     =  -4.57 kcal/mol
DOCKED: USER    (3) Torsional Free Energy           =  +3.28 kcal/mol
DOCKED: USER    (4) Unbound System's Energy         =  -4.57 kcal/mol
DOCKED: USER
DOCKED: USER
DOCKED: REMARK SMILES O=C([N-]C/C(O)=[N+]1\C[C@H](O)C[C@H]1COCc1ccccc1)c1ccc2cc(Cl)ccc2n1
DOCKED: REMARK SMILES IDX 5 1 6 2 7 4 8 5 12 6 9 7 11 8 13 9 14 10 15 11 16 12 17 13
DOCKED: REMARK SMILES IDX 21 14 18 15 20 16 19 17 10 18 4 20 3 21 2 22 1 23 22 24
DOCKED: REMARK SMILES IDX 32 25 23 26 31 27 24 28 30 29 25 30 29 31 26 32 27 33 28 34
DOCKED: REMARK H PARENT 6 3 10 19
DOCKED: USER                              x       y       z     vdW  Elec       q    Type
DOCKED: USER                           _______ _______ _______ _____ _____    ______ ____
DOCKED: ROOT
DOCKED: ATOM      1  C   UNL     1     141.900  77.212 219.497 -0.15 -0.17    +0.316 C  
DOCKED: ENDROOT
DOCKED: BRANCH   1   2
DOCKED: ATOM      2  O   UNL     1     142.213  77.612 220.801 -0.09 +0.35    -0.465 OA 
DOCKED: ATOM      3  H   UNL     1     142.207  76.997 221.603 -0.40 -0.28    +0.299 HD 
DOCKED: ENDBRANCH   1   2
DOCKED: BRANCH   1   4
DOCKED: ATOM      4  N   UNL     1     141.751  78.083 218.519 -0.14 +0.11    -0.196 N  
DOCKED: ATOM      5  C   UNL     1     141.842  77.730 217.103 -0.08 -0.24    +0.386 C  
DOCKED: ATOM      6  C   UNL     1     141.559  79.525 218.697 -0.15 -0.17    +0.292 C  
DOCKED: ATOM      7  C   UNL     1     141.673  79.035 216.327 -0.11 -0.15    +0.186 C  
DOCKED: ATOM      8  C   UNL     1     141.940  80.136 217.347 -0.21 -0.10    +0.117 C  
DOCKED: BRANCH   6   9
DOCKED: ATOM      9  C   UNL     1     140.088  79.848 219.034 -0.05 -0.08    +0.236 C  
DOCKED: BRANCH   9  10
DOCKED: ATOM     10  O   UNL     1     139.979  80.330 220.355 -0.03 +0.10    -0.370 OA 
DOCKED: BRANCH  10  11
DOCKED: ATOM     11  C   UNL     1     140.880  81.399 220.550 -0.21 -0.06    +0.196 C  
DOCKED: BRANCH  11  12
DOCKED: ATOM     12  C   UNL     1     141.651  81.164 221.818 -0.43 +0.01    -0.022 A  
DOCKED: ATOM     13  C   UNL     1     141.471  81.998 222.934 -0.31 -0.00    +0.006 A  
DOCKED: ATOM     14  C   UNL     1     142.547  80.086 221.901 -0.44 -0.00    +0.006 A  
DOCKED: ATOM     15  C   UNL     1     142.197  81.770 224.107 -0.48 -0.00    +0.000 A  
DOCKED: ATOM     16  C   UNL     1     143.264  79.856 223.079 -0.55 -0.00    +0.000 A  
DOCKED: ATOM     17  C   UNL     1     143.091  80.699 224.180 -0.57 -0.00    +0.000 A  
DOCKED: ENDBRANCH  11  12
DOCKED: ENDBRANCH  10  11
DOCKED: ENDBRANCH   9  10
DOCKED: ENDBRANCH   6   9
DOCKED: BRANCH   7  18
DOCKED: ATOM     18  O   UNL     1     142.577  79.122 215.258 -0.04 +0.49    -0.386 OA 
DOCKED: ATOM     19  H   UNL     1     143.322  79.700 215.568 -0.40 -0.58    +0.211 HD 
DOCKED: ENDBRANCH   7  18
DOCKED: ENDBRANCH   1   4
DOCKED: BRANCH   1  20
DOCKED: ATOM     20  C   UNL     1     141.707  75.736 219.276 -0.18 -0.02    +0.039 C  
DOCKED: BRANCH  20  21
DOCKED: ATOM     21  N   UNL     1     141.815  75.028 220.547 +0.00 +0.22    -0.637 NA 
DOCKED: BRANCH  21  22
DOCKED: ATOM     22  C   UNL     1     140.725  74.885 221.463 -0.29 -0.02    +0.101 C  
DOCKED: ATOM     23  O   UNL     1     140.513  73.777 222.027 -0.78 +0.01    -0.313 OA 
DOCKED: BRANCH  22  24
DOCKED: ATOM     24  C   UNL     1     139.857  76.042 221.746 -0.30 -0.02    +0.088 A  
DOCKED: ATOM     25  N   UNL     1     140.289  77.003 222.608 -0.24 +0.06    -0.246 NA 
DOCKED: ATOM     26  C   UNL     1     138.589  76.163 221.154 -0.16 -0.01    +0.031 A  
DOCKED: ATOM     27  C   UNL     1     139.527  78.082 222.928 -0.23 -0.01    +0.071 A  
DOCKED: ATOM     28  C   UNL     1     137.781  77.256 221.467 -0.15 -0.00    +0.013 A  
DOCKED: ATOM     29  C   UNL     1     140.012  79.045 223.820 -0.32 -0.00    +0.030 A  
DOCKED: ATOM     30  C   UNL     1     138.241  78.230 222.362 -0.24 -0.00    +0.002 A  
DOCKED: ATOM     31  C   UNL     1     139.223  80.152 224.151 -0.35 -0.00    +0.023 A  
DOCKED: ATOM     32  C   UNL     1     137.454  79.340 222.700 -0.20 -0.00    +0.030 A  
DOCKED: ATOM     33  C   UNL     1     137.946  80.299 223.595 -0.31 -0.00    +0.041 A  
DOCKED: ATOM     34  Cl  UNL     1     136.963  81.687 224.018 -0.32 +0.01    -0.084 Cl 
DOCKED: ENDBRANCH  22  24
DOCKED: ENDBRANCH  21  22
DOCKED: ENDBRANCH  20  21
DOCKED: ENDBRANCH   1  20
DOCKED: TORSDOF 11
DOCKED: TER
DOCKED: ENDMDL
________________________________________________________________________________


    FINAL DOCKED STATE:
    ________________________


Run:   18 / 20
Time taken for this run:   0.154s

DOCKED: MODEL        18
DOCKED: USER    Run = 18
DOCKED: USER
DOCKED: USER    Estimated Free Energy of Binding    =  -7.73 kcal/mol  [=(1)+(2)+(3)-(4)]
DOCKED: USER
DOCKED: USER    (1) Final Intermolecular Energy     = -11.01 kcal/mol
DOCKED: USER        vdW + Hbond + desolv Energy     = -10.70 kcal/mol
DOCKED: USER        Electrostatic Energy            =  -0.31 kcal/mol
DOCKED: USER        Moving Ligand-Fixed Receptor    = -11.01 kcal/mol
DOCKED: USER        Moving Ligand-Moving Receptor   =  +0.00 kcal/mol
DOCKED: USER    (2) Final Total Internal Energy     =  -2.77 kcal/mol
DOCKED: USER    (3) Torsional Free Energy           =  +3.28 kcal/mol
DOCKED: USER    (4) Unbound System's Energy         =  -2.77 kcal/mol
DOCKED: USER
DOCKED: USER
DOCKED: REMARK SMILES O=C([N-]C/C(O)=[N+]1\C[C@H](O)C[C@H]1COCc1ccccc1)c1ccc2cc(Cl)ccc2n1
DOCKED: REMARK SMILES IDX 5 1 6 2 7 4 8 5 12 6 9 7 11 8 13 9 14 10 15 11 16 12 17 13
DOCKED: REMARK SMILES IDX 21 14 18 15 20 16 19 17 10 18 4 20 3 21 2 22 1 23 22 24
DOCKED: REMARK SMILES IDX 32 25 23 26 31 27 24 28 30 29 25 30 29 31 26 32 27 33 28 34
DOCKED: REMARK H PARENT 6 3 10 19
DOCKED: USER                              x       y       z     vdW  Elec       q    Type
DOCKED: USER                           _______ _______ _______ _____ _____    ______ ____
DOCKED: ROOT
DOCKED: ATOM      1  C   UNL     1     141.762  74.032 220.127 -0.11 -0.08    +0.316 C  
DOCKED: ENDROOT
DOCKED: BRANCH   1   2
DOCKED: ATOM      2  O   UNL     1     140.780  74.186 219.141 +0.01 +0.11    -0.465 OA 
DOCKED: ATOM      3  H   UNL     1     139.790  74.072 219.299 +0.05 -0.07    +0.299 HD 
DOCKED: ENDBRANCH   1   2
DOCKED: BRANCH   1   4
DOCKED: ATOM      4  N   UNL     1     142.872  73.358 219.904 -0.14 +0.04    -0.196 N  
DOCKED: ATOM      5  C   UNL     1     144.183  73.776 220.400 -0.20 -0.10    +0.386 C  
DOCKED: ATOM      6  C   UNL     1     142.977  72.157 219.071 -0.05 -0.04    +0.292 C  
DOCKED: ATOM      7  C   UNL     1     145.186  72.756 219.865 -0.33 +0.01    +0.186 C  
DOCKED: ATOM      8  C   UNL     1     144.462  72.058 218.719 -0.17 +0.01    +0.117 C  
DOCKED: BRANCH   6   9
DOCKED: ATOM      9  C   UNL     1     142.527  70.904 219.852 -0.09 -0.03    +0.236 C  
DOCKED: BRANCH   9  10
DOCKED: ATOM     10  O   UNL     1     142.256  69.841 218.965 -0.04 +0.05    -0.370 OA 
DOCKED: BRANCH  10  11
DOCKED: ATOM     11  C   UNL     1     142.341  68.611 219.653 -0.05 -0.03    +0.196 C  
DOCKED: BRANCH  11  12
DOCKED: ATOM     12  C   UNL     1     143.694  68.006 219.406 -0.27 +0.00    -0.022 A  
DOCKED: ATOM     13  C   UNL     1     144.861  68.775 219.544 -0.34 +0.00    +0.006 A  
DOCKED: ATOM     14  C   UNL     1     143.799  66.651 219.054 -0.33 -0.00    +0.006 A  
DOCKED: ATOM     15  C   UNL     1     146.115  68.201 219.308 -0.48 +0.00    +0.000 A  
DOCKED: ATOM     16  C   UNL     1     145.055  66.078 218.827 -0.47 -0.00    +0.000 A  
DOCKED: ATOM     17  C   UNL     1     146.211  66.853 218.953 -0.56 -0.00    +0.000 A  
DOCKED: ENDBRANCH  11  12
DOCKED: ENDBRANCH  10  11
DOCKED: ENDBRANCH   9  10
DOCKED: ENDBRANCH   6   9
DOCKED: BRANCH   7  18
DOCKED: ATOM     18  O   UNL     1     146.357  73.375 219.405 -0.68 -0.21    -0.386 OA 
DOCKED: ATOM     19  H   UNL     1     146.150  74.343 219.327 -0.43 -0.08    +0.211 HD 
DOCKED: ENDBRANCH   7  18
DOCKED: ENDBRANCH   1   4
DOCKED: BRANCH   1  20
DOCKED: ATOM     20  C   UNL     1     141.466  74.646 221.469 -0.19 -0.01    +0.039 C  
DOCKED: BRANCH  20  21
DOCKED: ATOM     21  N   UNL     1     140.189  74.150 221.968 -0.63 +0.05    -0.637 NA 
DOCKED: BRANCH  21  22
DOCKED: ATOM     22  C   UNL     1     139.730  72.810 221.762 -0.23 -0.02    +0.101 C  
DOCKED: ATOM     23  O   UNL     1     139.287  72.459 220.634 -0.04 +0.06    -0.313 OA 
DOCKED: BRANCH  22  24
DOCKED: ATOM     24  C   UNL     1     139.786  71.844 222.872 -0.29 -0.02    +0.088 A  
DOCKED: ATOM     25  N   UNL     1     140.297  72.237 224.073 -0.17 +0.04    -0.246 NA 
DOCKED: ATOM     26  C   UNL     1     139.336  70.523 222.712 -0.22 -0.01    +0.031 A  
DOCKED: ATOM     27  C   UNL     1     140.396  71.388 225.129 -0.48 -0.01    +0.071 A  
DOCKED: ATOM     28  C   UNL     1     139.431  69.626 223.776 -0.27 -0.00    +0.013 A  
DOCKED: ATOM     29  C   UNL     1     140.928  71.836 226.343 -0.64 -0.00    +0.030 A  
DOCKED: ATOM     30  C   UNL     1     139.965  70.048 224.999 -0.42 -0.00    +0.002 A  
DOCKED: ATOM     31  C   UNL     1     141.034  70.958 227.426 -0.67 -0.00    +0.023 A  
DOCKED: ATOM     32  C   UNL     1     140.077  69.172 226.088 -0.49 -0.01    +0.030 A  
DOCKED: ATOM     33  C   UNL     1     140.613  69.628 227.300 -0.56 -0.01    +0.041 A  
DOCKED: ATOM     34  Cl  UNL     1     140.752  68.533 228.662 -0.73 +0.02    -0.084 Cl 
DOCKED: ENDBRANCH  22  24
DOCKED: ENDBRANCH  21  22
DOCKED: ENDBRANCH  20  21
DOCKED: ENDBRANCH   1  20
DOCKED: TORSDOF 11
DOCKED: TER
DOCKED: ENDMDL
________________________________________________________________________________


    FINAL DOCKED STATE:
    ________________________


Run:   19 / 20
Time taken for this run:   0.154s

DOCKED: MODEL        19
DOCKED: USER    Run = 19
DOCKED: USER
DOCKED: USER    Estimated Free Energy of Binding    =  -8.36 kcal/mol  [=(1)+(2)+(3)-(4)]
DOCKED: USER
DOCKED: USER    (1) Final Intermolecular Energy     = -11.64 kcal/mol
DOCKED: USER        vdW + Hbond + desolv Energy     = -11.38 kcal/mol
DOCKED: USER        Electrostatic Energy            =  -0.26 kcal/mol
DOCKED: USER        Moving Ligand-Fixed Receptor    = -11.64 kcal/mol
DOCKED: USER        Moving Ligand-Moving Receptor   =  +0.00 kcal/mol
DOCKED: USER    (2) Final Total Internal Energy     =  -2.63 kcal/mol
DOCKED: USER    (3) Torsional Free Energy           =  +3.28 kcal/mol
DOCKED: USER    (4) Unbound System's Energy         =  -2.63 kcal/mol
DOCKED: USER
DOCKED: USER
DOCKED: REMARK SMILES O=C([N-]C/C(O)=[N+]1\C[C@H](O)C[C@H]1COCc1ccccc1)c1ccc2cc(Cl)ccc2n1
DOCKED: REMARK SMILES IDX 5 1 6 2 7 4 8 5 12 6 9 7 11 8 13 9 14 10 15 11 16 12 17 13
DOCKED: REMARK SMILES IDX 21 14 18 15 20 16 19 17 10 18 4 20 3 21 2 22 1 23 22 24
DOCKED: REMARK SMILES IDX 32 25 23 26 31 27 24 28 30 29 25 30 29 31 26 32 27 33 28 34
DOCKED: REMARK H PARENT 6 3 10 19
DOCKED: USER                              x       y       z     vdW  Elec       q    Type
DOCKED: USER                           _______ _______ _______ _____ _____    ______ ____
DOCKED: ROOT
DOCKED: ATOM      1  C   UNL     1     139.977  74.548 221.125 -0.15 -0.06    +0.316 C  
DOCKED: ENDROOT
DOCKED: BRANCH   1   2
DOCKED: ATOM      2  O   UNL     1     139.603  74.353 222.459 -0.63 +0.05    -0.465 OA 
DOCKED: ATOM      3  H   UNL     1     139.137  73.527 222.806 -0.41 -0.11    +0.299 HD 
DOCKED: ENDBRANCH   1   2
DOCKED: BRANCH   1   4
DOCKED: ATOM      4  N   UNL     1     140.550  75.664 220.719 -0.14 +0.06    -0.196 N  
DOCKED: ATOM      5  C   UNL     1     141.248  75.794 219.440 -0.05 -0.14    +0.386 C  
DOCKED: ATOM      6  C   UNL     1     140.647  76.896 221.506 -0.21 -0.10    +0.292 C  
DOCKED: ATOM      7  C   UNL     1     141.807  77.215 219.403 -0.20 -0.10    +0.186 C  
DOCKED: ATOM      8  C   UNL     1     141.784  77.684 220.853 -0.23 -0.07    +0.117 C  
DOCKED: BRANCH   6   9
DOCKED: ATOM      9  C   UNL     1     139.331  77.700 221.436 -0.13 -0.06    +0.236 C  
DOCKED: BRANCH   9  10
DOCKED: ATOM     10  O   UNL     1     138.745  77.798 222.715 -0.16 +0.06    -0.370 OA 
DOCKED: BRANCH  10  11
DOCKED: ATOM     11  C   UNL     1     138.648  79.156 223.093 -0.23 -0.03    +0.196 C  
DOCKED: BRANCH  11  12
DOCKED: ATOM     12  C   UNL     1     140.021  79.765 223.082 -0.39 +0.00    -0.022 A  
DOCKED: ATOM     13  C   UNL     1     140.291  80.918 222.327 -0.33 -0.00    +0.006 A  
DOCKED: ATOM     14  C   UNL     1     141.047  79.190 223.851 -0.55 -0.00    +0.006 A  
DOCKED: ATOM     15  C   UNL     1     141.575  81.473 222.323 -0.47 -0.00    +0.000 A  
DOCKED: ATOM     16  C   UNL     1     142.327  79.754 223.852 -0.61 -0.00    +0.000 A  
DOCKED: ATOM     17  C   UNL     1     142.591  80.893 223.087 -0.61 -0.00    +0.000 A  
DOCKED: ENDBRANCH  11  12
DOCKED: ENDBRANCH  10  11
DOCKED: ENDBRANCH   9  10
DOCKED: ENDBRANCH   6   9
DOCKED: BRANCH   7  18
DOCKED: ATOM     18  O   UNL     1     143.114  77.243 218.895 -0.22 +0.29    -0.386 OA 
DOCKED: ATOM     19  H   UNL     1     143.693  77.573 219.630 -0.47 -0.23    +0.211 HD 
DOCKED: ENDBRANCH   7  18
DOCKED: ENDBRANCH   1   4
DOCKED: BRANCH   1  20
DOCKED: ATOM     20  C   UNL     1     139.658  73.430 220.169 -0.09 -0.01    +0.039 C  
DOCKED: BRANCH  20  21
DOCKED: ATOM     21  N   UNL     1     139.560  72.171 220.897 +0.03 +0.11    -0.637 NA 
DOCKED: BRANCH  21  22
DOCKED: ATOM     22  C   UNL     1     138.565  71.913 221.892 -0.14 -0.02    +0.101 C  
DOCKED: ATOM     23  O   UNL     1     137.421  72.438 221.795 -0.06 +0.08    -0.313 OA 
DOCKED: BRANCH  22  24
DOCKED: ATOM     24  C   UNL     1     138.882  71.025 223.024 -0.23 -0.02    +0.088 A  
DOCKED: ATOM     25  N   UNL     1     139.575  71.522 224.086 -0.24 +0.06    -0.246 NA 
DOCKED: ATOM     26  C   UNL     1     138.496  69.675 223.021 -0.21 -0.01    +0.031 A  
DOCKED: ATOM     27  C   UNL     1     139.918  70.750 225.151 -0.44 -0.01    +0.071 A  
DOCKED: ATOM     28  C   UNL     1     138.839  68.855 224.097 -0.32 -0.00    +0.013 A  
DOCKED: ATOM     29  C   UNL     1     140.631  71.303 226.220 -0.61 -0.00    +0.030 A  
DOCKED: ATOM     30  C   UNL     1     139.558  69.384 225.175 -0.41 -0.00    +0.002 A  
DOCKED: ATOM     31  C   UNL     1     140.987  70.504 227.311 -0.60 -0.00    +0.023 A  
DOCKED: ATOM     32  C   UNL     1     139.920  68.587 226.271 -0.55 -0.00    +0.030 A  
DOCKED: ATOM     33  C   UNL     1     140.636  69.149 227.337 -0.58 -0.01    +0.041 A  
DOCKED: ATOM     34  Cl  UNL     1     141.089  68.154 228.708 -0.70 +0.02    -0.084 Cl 
DOCKED: ENDBRANCH  22  24
DOCKED: ENDBRANCH  21  22
DOCKED: ENDBRANCH  20  21
DOCKED: ENDBRANCH   1  20
DOCKED: TORSDOF 11
DOCKED: TER
DOCKED: ENDMDL
________________________________________________________________________________


    FINAL DOCKED STATE:
    ________________________


Run:   20 / 20
Time taken for this run:   0.154s

DOCKED: MODEL        20
DOCKED: USER    Run = 20
DOCKED: USER
DOCKED: USER    Estimated Free Energy of Binding    =  -6.14 kcal/mol  [=(1)+(2)+(3)-(4)]
DOCKED: USER
DOCKED: USER    (1) Final Intermolecular Energy     =  -9.42 kcal/mol
DOCKED: USER        vdW + Hbond + desolv Energy     =  -8.89 kcal/mol
DOCKED: USER        Electrostatic Energy            =  -0.53 kcal/mol
DOCKED: USER        Moving Ligand-Fixed Receptor    =  -9.42 kcal/mol
DOCKED: USER        Moving Ligand-Moving Receptor   =  +0.00 kcal/mol
DOCKED: USER    (2) Final Total Internal Energy     =  -4.59 kcal/mol
DOCKED: USER    (3) Torsional Free Energy           =  +3.28 kcal/mol
DOCKED: USER    (4) Unbound System's Energy         =  -4.59 kcal/mol
DOCKED: USER
DOCKED: USER
DOCKED: REMARK SMILES O=C([N-]C/C(O)=[N+]1\C[C@H](O)C[C@H]1COCc1ccccc1)c1ccc2cc(Cl)ccc2n1
DOCKED: REMARK SMILES IDX 5 1 6 2 7 4 8 5 12 6 9 7 11 8 13 9 14 10 15 11 16 12 17 13
DOCKED: REMARK SMILES IDX 21 14 18 15 20 16 19 17 10 18 4 20 3 21 2 22 1 23 22 24
DOCKED: REMARK SMILES IDX 32 25 23 26 31 27 24 28 30 29 25 30 29 31 26 32 27 33 28 34
DOCKED: REMARK H PARENT 6 3 10 19
DOCKED: USER                              x       y       z     vdW  Elec       q    Type
DOCKED: USER                           _______ _______ _______ _____ _____    ______ ____
DOCKED: ROOT
DOCKED: ATOM      1  C   UNL     1     141.885  77.117 219.531 -0.15 -0.17    +0.316 C  
DOCKED: ENDROOT
DOCKED: BRANCH   1   2
DOCKED: ATOM      2  O   UNL     1     142.202  77.524 220.833 -0.08 +0.35    -0.465 OA 
DOCKED: ATOM      3  H   UNL     1     142.199  76.913 221.637 -0.41 -0.28    +0.299 HD 
DOCKED: ENDBRANCH   1   2
DOCKED: BRANCH   1   4
DOCKED: ATOM      4  N   UNL     1     141.731  77.982 218.550 -0.14 +0.11    -0.196 N  
DOCKED: ATOM      5  C   UNL     1     141.826  77.625 217.135 -0.08 -0.23    +0.386 C  
DOCKED: ATOM      6  C   UNL     1     141.526  79.423 218.721 -0.15 -0.17    +0.292 C  
DOCKED: ATOM      7  C   UNL     1     141.647  78.925 216.354 -0.11 -0.14    +0.186 C  
DOCKED: ATOM      8  C   UNL     1     141.904  80.032 217.370 -0.20 -0.09    +0.117 C  
DOCKED: BRANCH   6   9
DOCKED: ATOM      9  C   UNL     1     140.053  79.736 219.055 -0.05 -0.08    +0.236 C  
DOCKED: BRANCH   9  10
DOCKED: ATOM     10  O   UNL     1     139.958  80.410 220.291 -0.03 +0.10    -0.370 OA 
DOCKED: BRANCH  10  11
DOCKED: ATOM     11  C   UNL     1     141.017  81.336 220.412 -0.21 -0.06    +0.196 C  
DOCKED: BRANCH  11  12
DOCKED: ATOM     12  C   UNL     1     141.721  81.105 221.718 -0.43 +0.01    -0.022 A  
DOCKED: ATOM     13  C   UNL     1     141.526  81.975 222.804 -0.37 -0.00    +0.006 A  
DOCKED: ATOM     14  C   UNL     1     142.571  79.997 221.867 -0.40 -0.00    +0.006 A  
DOCKED: ATOM     15  C   UNL     1     142.191  81.750 224.014 -0.49 -0.00    +0.000 A  
DOCKED: ATOM     16  C   UNL     1     143.227  79.771 223.081 -0.53 -0.00    +0.000 A  
DOCKED: ATOM     17  C   UNL     1     143.039  80.648 224.153 -0.59 -0.00    +0.000 A  
DOCKED: ENDBRANCH  11  12
DOCKED: ENDBRANCH  10  11
DOCKED: ENDBRANCH   9  10
DOCKED: ENDBRANCH   6   9
DOCKED: BRANCH   7  18
DOCKED: ATOM     18  O   UNL     1     142.552  79.015 215.285 -0.05 +0.48    -0.386 OA 
DOCKED: ATOM     19  H   UNL     1     143.267  79.640 215.575 -0.39 -0.55    +0.211 HD 
DOCKED: ENDBRANCH   7  18
DOCKED: ENDBRANCH   1   4
DOCKED: BRANCH   1  20
DOCKED: ATOM     20  C   UNL     1     141.695  75.639 219.318 -0.18 -0.01    +0.039 C  
DOCKED: BRANCH  20  21
DOCKED: ATOM     21  N   UNL     1     141.790  74.940 220.595 -0.00 +0.21    -0.637 NA 
DOCKED: BRANCH  21  22
DOCKED: ATOM     22  C   UNL     1     140.705  74.849 221.524 -0.29 -0.02    +0.101 C  
DOCKED: ATOM     23  O   UNL     1     140.483  73.767 222.134 -0.78 +0.00    -0.313 OA 
DOCKED: BRANCH  22  24
DOCKED: ATOM     24  C   UNL     1     139.855  76.027 221.766 -0.30 -0.02    +0.088 A  
DOCKED: ATOM     25  N   UNL     1     140.280  76.988 222.632 -0.23 +0.06    -0.246 NA 
DOCKED: ATOM     26  C   UNL     1     138.610  76.169 221.132 -0.16 -0.01    +0.031 A  
DOCKED: ATOM     27  C   UNL     1     139.532  78.088 222.915 -0.24 -0.01    +0.071 A  
DOCKED: ATOM     28  C   UNL     1     137.817  77.284 221.407 -0.14 -0.00    +0.013 A  
DOCKED: ATOM     29  C   UNL     1     140.009  79.049 223.813 -0.33 -0.00    +0.030 A  
DOCKED: ATOM     30  C   UNL     1     138.269  78.257 222.306 -0.23 -0.00    +0.002 A  
DOCKED: ATOM     31  C   UNL     1     139.235  80.177 224.106 -0.36 -0.00    +0.023 A  
DOCKED: ATOM     32  C   UNL     1     137.497  79.388 222.607 -0.19 -0.00    +0.030 A  
DOCKED: ATOM     33  C   UNL     1     137.980  80.345 223.508 -0.31 -0.00    +0.041 A  
DOCKED: ATOM     34  Cl  UNL     1     137.015  81.760 223.884 -0.30 +0.01    -0.084 Cl 
DOCKED: ENDBRANCH  22  24
DOCKED: ENDBRANCH  21  22
DOCKED: ENDBRANCH  20  21
DOCKED: ENDBRANCH   1  20
DOCKED: TORSDOF 11
DOCKED: TER
DOCKED: ENDMDL
________________________________________________________________________________


    CLUSTERING HISTOGRAM
    ____________________


________________________________________________________________________________
     |           |     |           |     |
Clus | Lowest    | Run | Mean      | Num | Histogram
-ter | Binding   |     | Binding   | in  |
Rank | Energy    |     | Energy    | Clus|    5    10   15   20   25   30   35
_____|___________|_____|___________|_____|____:____|____:____|____:____|____:___
   1 |     -8.60 |   4 |     -8.60 |   1 |#
   2 |     -8.60 |  10 |     -8.11 |   9 |#########
   3 |     -7.95 |   2 |     -7.57 |   2 |##
   4 |     -7.77 |   8 |     -7.64 |   3 |###
   5 |     -7.71 |   7 |     -7.51 |   2 |##
   6 |     -6.16 |  17 |     -6.11 |   3 |###
_____|___________|_____|___________|_____|______________________________________


    RMSD TABLE
    __________


_______________________________________________________________________
     |      |      |           |         |                 |
Rank | Sub- | Run  | Binding   | Cluster | Reference       | Grep
     | Rank |      | Energy    | RMSD    | RMSD            | Pattern
_____|______|______|___________|_________|_________________|___________
   1      1      4       -8.60      0.00    270.59           RANKING
   2      1     10       -8.60      0.00    271.17           RANKING
   2      2     13       -8.48      0.90    271.10           RANKING
   2      3      3       -8.41      1.42    271.09           RANKING
   2      4     19       -8.36      1.46    271.02           RANKING
   2      5      5       -8.28      1.46    271.05           RANKING
   2      6     11       -7.87      1.73    270.80           RANKING
   2      7      1       -7.74      1.04    270.62           RANKING
   2      8     12       -7.69      1.16    270.64           RANKING
   2      9      6       -7.55      1.63    270.78           RANKING
   3      1      2       -7.95      0.00    271.19           RANKING
   3      2     16       -7.19      1.92    270.21           RANKING
   4      1      8       -7.77      0.00    269.99           RANKING
   4      2     18       -7.73      0.12    270.03           RANKING
   4      3     15       -7.41      0.48    269.95           RANKING
   5      1      7       -7.71      0.00    270.68           RANKING
   5      2      9       -7.30      1.73    270.62           RANKING
   6      1     17       -6.16      0.00    270.85           RANKING
   6      2     20       -6.14      0.10    270.82           RANKING
   6      3     14       -6.04      0.29    270.83           RANKING

Run time 3.021 sec
Idle time 0.000 sec
