AutoDock-GPU version: v1.6

**********************************************************
**    AutoDock-GPU AUTODOCKTOOLS-COMPATIBLE DLG FILE    **
**********************************************************


    DOCKING PARAMETERS
    ________________________


Ligand file:                               /home/a/REINVENT4/ReinventStudies/pleaseWork/justmol2mol_4_Compounds_ontop/graph-dock-8u2o5u/graph-DockGPU/node-autodockgpu/inputs/AMPPFVBUBWLTGQ-BVRQXLEWNA-N.pdbqt
Grid fld file:                             /home/a/REINVENT4/ReinventStudies/mols/Rad51/maps/rad51_receptor.maps.fld

Random seed:                               42
Number of runs:                            20
Number of energy evaluations:              2542121
Number of generations:                     42000
Size of population:                        150
Rate of crossover:                         80.000000%
Tournament selection probability limit:    60.000000%
Rate of mutation:                          2.000000%
Maximal allowed delta movement:            +/- 6.000000A
Maximal allowed delta angle:               +/- 90.000000

Rate of local search:                      100.000000%
Maximal number of local search iterations: 300
Rho lower bound:                           0.010000
Spread of local search delta movement:     2.000000A
Spread of local search delta angle:        74.999999
Limit of consecutive successes/failures:   4

Handle symmetry during clustering:         YES
RMSD tolerance:                            2.000000A

Program call in command line was:          /home/a/REINVENT4/ReinventStudies/adgpu-v1.6_linux_x64_cuda12_128wi --filelist batch.txt --heuristics 1 --nrun 20 --psize 150 --lsit 300 --seed 42 --heurmax 12000000 


    GRID PARAMETERS
    ________________________


Receptor name:                             rad51_receptor
Number of grid points (x, y, z):           53, 53, 53
Grid center (x, y, z):                     139.950000, 75.640000, 221.970000A
Grid size (x, y, z):                       19.500000, 19.500000, 19.500000A
Grid spacing:                              0.375000A


    LIGAND PARAMETERS
    ________________________


Ligand name:                               /home/a/REINVENT4/ReinventStudies/pleaseWork/justmol2mol_4_Compounds_ontop/graph-dock-8u2o5u/graph-DockGPU/node-autodockgpu/inputs/AMPPFVBUBWLTGQ-BVRQXLEWNA-N
Number of atoms:                           35
Number of rotatable bonds:                 10
Number of atom types:                      7


    DUMMY DATA (only for ADT-compatibility)
    ________________________


DPF> outlev 1
DPF> ga_run 20
DPF> fld /home/a/REINVENT4/ReinventStudies/mols/Rad51/maps/rad51_receptor.maps.fld
DPF> move /home/a/REINVENT4/ReinventStudies/pleaseWork/justmol2mol_4_Compounds_ontop/graph-dock-8u2o5u/graph-DockGPU/node-autodockgpu/inputs/AMPPFVBUBWLTGQ-BVRQXLEWNA-N.pdbqt


    COUNTER STATES
    ________________________


Number of energy evaluations performed:    2548172
Number of generations used:                188


    INPUT LIGAND PDBQT FILE:
    ________________________


INPUT-LIGAND-PDBQT: REMARK SMILES O=C(N/C=C(/O)N1C[C@H](O)C[C@H]1COCc1ccccc1)c1ccc2cc(Cl)ccc2n1
INPUT-LIGAND-PDBQT: REMARK SMILES IDX 7 1 8 2 9 3 11 4 12 5 5 6 6 7 4 9 3 10 2 11 1 13 22 14 32 15
INPUT-LIGAND-PDBQT: REMARK SMILES IDX 23 16 31 17 24 18 30 19 25 20 29 21 26 22 27 23 28 24 13 25
INPUT-LIGAND-PDBQT: REMARK SMILES IDX 14 26 15 27 16 28 17 29 21 30 18 31 20 32 19 33 10 34
INPUT-LIGAND-PDBQT: REMARK H PARENT 6 8 3 12 10 35
INPUT-LIGAND-PDBQT: ROOT
INPUT-LIGAND-PDBQT: ATOM      1  N   UNL     1       0.212  -0.913   0.877  1.00  0.00    -0.334 N 
INPUT-LIGAND-PDBQT: ATOM      2  C   UNL     1       0.932  -0.486   2.062  1.00  0.00     0.151 C 
INPUT-LIGAND-PDBQT: ATOM      3  C   UNL     1       2.201  -1.334   2.095  1.00  0.00     0.136 C 
INPUT-LIGAND-PDBQT: ATOM      4  C   UNL     1       2.348  -1.908   0.682  1.00  0.00     0.061 C 
INPUT-LIGAND-PDBQT: ATOM      5  C   UNL     1       0.935  -1.908   0.092  1.00  0.00     0.113 C 
INPUT-LIGAND-PDBQT: ENDROOT
INPUT-LIGAND-PDBQT: BRANCH   1   6
INPUT-LIGAND-PDBQT: ATOM      6  C   UNL     1      -1.104  -0.430   0.562  1.00  0.00     0.204 C 
INPUT-LIGAND-PDBQT: BRANCH   6   7
INPUT-LIGAND-PDBQT: ATOM      7  O   UNL     1      -2.152  -0.679   1.444  1.00  0.00    -0.494 OA
INPUT-LIGAND-PDBQT: ATOM      8  H   UNL     1      -2.004  -1.211   2.292  1.00  0.00     0.295 HD
INPUT-LIGAND-PDBQT: ENDBRANCH   6   7
INPUT-LIGAND-PDBQT: BRANCH   6   9
INPUT-LIGAND-PDBQT: ATOM      9  C   UNL     1      -1.352   0.251  -0.562  1.00  0.00     0.152 C 
INPUT-LIGAND-PDBQT: BRANCH   9  10
INPUT-LIGAND-PDBQT: ATOM     10  N   UNL     1      -0.303   0.665  -1.450  1.00  0.00    -0.322 N 
INPUT-LIGAND-PDBQT: ATOM     11  C   UNL     1      -0.570   1.102  -2.791  1.00  0.00     0.273 C 
INPUT-LIGAND-PDBQT: ATOM     12  H   UNL     1       0.682   0.675  -1.103  1.00  0.00     0.169 HD
INPUT-LIGAND-PDBQT: ATOM     13  O   UNL     1      -1.762   1.193  -3.197  1.00  0.00    -0.267 OA
INPUT-LIGAND-PDBQT: BRANCH  11  14
INPUT-LIGAND-PDBQT: ATOM     14  C   UNL     1       0.545   1.430  -3.706  1.00  0.00     0.129 A 
INPUT-LIGAND-PDBQT: ATOM     15  N   UNL     1       1.830   1.303  -3.271  1.00  0.00    -0.243 NA
INPUT-LIGAND-PDBQT: ATOM     16  C   UNL     1       0.304   1.854  -5.024  1.00  0.00     0.035 A 
INPUT-LIGAND-PDBQT: ATOM     17  C   UNL     1       2.897   1.577  -4.068  1.00  0.00     0.071 A 
INPUT-LIGAND-PDBQT: ATOM     18  C   UNL     1       1.380   2.141  -5.867  1.00  0.00     0.013 A 
INPUT-LIGAND-PDBQT: ATOM     19  C   UNL     1       4.198   1.432  -3.574  1.00  0.00     0.030 A 
INPUT-LIGAND-PDBQT: ATOM     20  C   UNL     1       2.691   2.005  -5.397  1.00  0.00     0.002 A 
INPUT-LIGAND-PDBQT: ATOM     21  C   UNL     1       5.294   1.713  -4.397  1.00  0.00     0.023 A 
INPUT-LIGAND-PDBQT: ATOM     22  C   UNL     1       3.795   2.286  -6.217  1.00  0.00     0.030 A 
INPUT-LIGAND-PDBQT: ATOM     23  C   UNL     1       5.094   2.142  -5.714  1.00  0.00     0.041 A 
INPUT-LIGAND-PDBQT: ATOM     24  Cl  UNL     1       6.473   2.494  -6.739  1.00  0.00    -0.084 Cl
INPUT-LIGAND-PDBQT: ENDBRANCH  11  14
INPUT-LIGAND-PDBQT: ENDBRANCH   9  10
INPUT-LIGAND-PDBQT: ENDBRANCH   6   9
INPUT-LIGAND-PDBQT: ENDBRANCH   1   6
INPUT-LIGAND-PDBQT: BRANCH   5  25
INPUT-LIGAND-PDBQT: ATOM     25  C   UNL     1       0.268  -3.286   0.219  1.00  0.00     0.185 C 
INPUT-LIGAND-PDBQT: BRANCH  25  26
INPUT-LIGAND-PDBQT: ATOM     26  O   UNL     1      -0.991  -3.260  -0.423  1.00  0.00    -0.375 OA
INPUT-LIGAND-PDBQT: BRANCH  26  27
INPUT-LIGAND-PDBQT: ATOM     27  C   UNL     1      -1.695  -4.461  -0.176  1.00  0.00     0.195 C 
INPUT-LIGAND-PDBQT: BRANCH  27  28
INPUT-LIGAND-PDBQT: ATOM     28  C   UNL     1      -2.528  -4.330   1.070  1.00  0.00    -0.022 A 
INPUT-LIGAND-PDBQT: ATOM     29  C   UNL     1      -3.668  -3.508   1.069  1.00  0.00     0.006 A 
INPUT-LIGAND-PDBQT: ATOM     30  C   UNL     1      -2.153  -4.989   2.253  1.00  0.00     0.006 A 
INPUT-LIGAND-PDBQT: ATOM     31  C   UNL     1      -4.425  -3.355   2.235  1.00  0.00     0.000 A 
INPUT-LIGAND-PDBQT: ATOM     32  C   UNL     1      -2.914  -4.833   3.416  1.00  0.00     0.000 A 
INPUT-LIGAND-PDBQT: ATOM     33  C   UNL     1      -4.049  -4.017   3.407  1.00  0.00     0.000 A 
INPUT-LIGAND-PDBQT: ENDBRANCH  27  28
INPUT-LIGAND-PDBQT: ENDBRANCH  26  27
INPUT-LIGAND-PDBQT: ENDBRANCH  25  26
INPUT-LIGAND-PDBQT: ENDBRANCH   5  25
INPUT-LIGAND-PDBQT: BRANCH   3  34
INPUT-LIGAND-PDBQT: ATOM     34  O   UNL     1       3.311  -0.552   2.448  1.00  0.00    -0.391 OA
INPUT-LIGAND-PDBQT: ATOM     35  H   UNL     1       4.065  -1.182   2.589  1.00  0.00     0.211 HD
INPUT-LIGAND-PDBQT: ENDBRANCH   3  34
INPUT-LIGAND-PDBQT: TORSDOF 10


    FINAL DOCKED STATE:
    ________________________


Run:   1 / 20
Time taken for this run:   0.131s

DOCKED: MODEL        1
DOCKED: USER    Run = 1
DOCKED: USER
DOCKED: USER    Estimated Free Energy of Binding    =  -8.30 kcal/mol  [=(1)+(2)+(3)-(4)]
DOCKED: USER
DOCKED: USER    (1) Final Intermolecular Energy     = -11.29 kcal/mol
DOCKED: USER        vdW + Hbond + desolv Energy     = -11.15 kcal/mol
DOCKED: USER        Electrostatic Energy            =  -0.13 kcal/mol
DOCKED: USER        Moving Ligand-Fixed Receptor    = -11.29 kcal/mol
DOCKED: USER        Moving Ligand-Moving Receptor   =  +0.00 kcal/mol
DOCKED: USER    (2) Final Total Internal Energy     =  -2.14 kcal/mol
DOCKED: USER    (3) Torsional Free Energy           =  +2.98 kcal/mol
DOCKED: USER    (4) Unbound System's Energy         =  -2.14 kcal/mol
DOCKED: USER
DOCKED: USER
DOCKED: REMARK SMILES O=C(N/C=C(/O)N1C[C@H](O)C[C@H]1COCc1ccccc1)c1ccc2cc(Cl)ccc2n1
DOCKED: REMARK SMILES IDX 7 1 8 2 9 3 11 4 12 5 5 6 6 7 4 9 3 10 2 11 1 13 22 14 32 15
DOCKED: REMARK SMILES IDX 23 16 31 17 24 18 30 19 25 20 29 21 26 22 27 23 28 24 13 25
DOCKED: REMARK SMILES IDX 14 26 15 27 16 28 17 29 21 30 18 31 20 32 19 33 10 34
DOCKED: REMARK H PARENT 6 8 3 12 10 35
DOCKED: USER                              x       y       z     vdW  Elec       q    Type
DOCKED: USER                           _______ _______ _______ _____ _____    ______ ____
DOCKED: ROOT
DOCKED: ATOM      1  N   UNL     1     141.025  75.140 219.527 -0.02 +0.10    -0.334 N  
DOCKED: ATOM      2  C   UNL     1     141.674  74.759 218.286 -0.05 -0.05    +0.151 C  
DOCKED: ATOM      3  C   UNL     1     142.983  75.545 218.253 -0.18 -0.06    +0.136 C  
DOCKED: ATOM      4  C   UNL     1     143.216  76.014 219.693 -0.36 -0.04    +0.061 C  
DOCKED: ATOM      5  C   UNL     1     141.830  76.043 220.343 -0.24 -0.05    +0.113 C  
DOCKED: ENDROOT
DOCKED: BRANCH   1   6
DOCKED: ATOM      6  C   UNL     1     139.700  74.701 219.866 -0.05 -0.05    +0.204 C  
DOCKED: BRANCH   6   7
DOCKED: ATOM      7  O   UNL     1     138.908  74.102 218.891 +0.01 +0.10    -0.494 OA 
DOCKED: ATOM      8  H   UNL     1     138.627  73.133 218.971 +0.02 -0.06    +0.295 HD 
DOCKED: ENDBRANCH   6   7
DOCKED: BRANCH   6   9
DOCKED: ATOM      9  C   UNL     1     139.203  74.857 221.098 -0.16 -0.03    +0.152 C  
DOCKED: BRANCH   9  10
DOCKED: ATOM     10  N   UNL     1     139.414  73.887 222.135 -0.13 +0.06    -0.322 N  
DOCKED: ATOM     11  C   UNL     1     139.503  72.482 221.855 -0.16 -0.05    +0.273 C  
DOCKED: ATOM     12  H   UNL     1     139.535  74.214 223.119 -0.52 -0.02    +0.169 HD 
DOCKED: ATOM     13  O   UNL     1     139.460  72.075 220.661 -0.05 +0.05    -0.267 OA 
DOCKED: BRANCH  11  14
DOCKED: ATOM     14  C   UNL     1     139.626  71.506 222.960 -0.27 -0.02    +0.129 A  
DOCKED: ATOM     15  N   UNL     1     140.193  71.893 224.137 -0.27 +0.04    -0.243 NA 
DOCKED: ATOM     16  C   UNL     1     139.153  70.190 222.825 -0.21 -0.01    +0.035 A  
DOCKED: ATOM     17  C   UNL     1     140.324  71.047 225.193 -0.48 -0.01    +0.071 A  
DOCKED: ATOM     18  C   UNL     1     139.272  69.298 223.893 -0.28 -0.00    +0.013 A  
DOCKED: ATOM     19  C   UNL     1     140.914  71.492 226.381 -0.66 -0.00    +0.030 A  
DOCKED: ATOM     20  C   UNL     1     139.859  69.718 225.091 -0.41 -0.00    +0.002 A  
DOCKED: ATOM     21  C   UNL     1     141.045  70.620 227.467 -0.62 -0.00    +0.023 A  
DOCKED: ATOM     22  C   UNL     1     139.995  68.848 226.184 -0.52 -0.01    +0.030 A  
DOCKED: ATOM     23  C   UNL     1     140.590  69.300 227.368 -0.58 -0.01    +0.041 A  
DOCKED: ATOM     24  Cl  UNL     1     140.760  68.211 228.733 -0.64 +0.02    -0.084 Cl 
DOCKED: ENDBRANCH  11  14
DOCKED: ENDBRANCH   9  10
DOCKED: ENDBRANCH   6   9
DOCKED: ENDBRANCH   1   6
DOCKED: BRANCH   5  25
DOCKED: ATOM     25  C   UNL     1     141.230  77.457 220.336 -0.19 -0.09    +0.185 C  
DOCKED: BRANCH  25  26
DOCKED: ATOM     26  O   UNL     1     140.307  77.581 221.399 -0.10 +0.12    -0.375 OA 
DOCKED: BRANCH  26  27
DOCKED: ATOM     27  C   UNL     1     140.975  77.507 222.643 -0.31 -0.07    +0.195 C  
DOCKED: BRANCH  27  28
DOCKED: ATOM     28  C   UNL     1     141.407  78.879 223.085 -0.54 +0.01    -0.022 A  
DOCKED: ATOM     29  C   UNL     1     140.443  79.834 223.454 -0.47 -0.00    +0.006 A  
DOCKED: ATOM     30  C   UNL     1     142.767  79.232 223.092 -0.47 -0.00    +0.006 A  
DOCKED: ATOM     31  C   UNL     1     140.838  81.121 223.831 -0.38 -0.00    +0.000 A  
DOCKED: ATOM     32  C   UNL     1     143.156  80.521 223.471 -0.67 -0.00    +0.000 A  
DOCKED: ATOM     33  C   UNL     1     142.193  81.465 223.840 -0.61 -0.00    +0.000 A  
DOCKED: ENDBRANCH  27  28
DOCKED: ENDBRANCH  26  27
DOCKED: ENDBRANCH  25  26
DOCKED: ENDBRANCH   5  25
DOCKED: BRANCH   3  34
DOCKED: ATOM     34  O   UNL     1     144.036  74.736 217.801 -0.08 +0.16    -0.391 OA 
DOCKED: ATOM     35  H   UNL     1     144.843  75.312 217.777 -0.48 -0.16    +0.211 HD 
DOCKED: ENDBRANCH   3  34
DOCKED: TORSDOF 10
DOCKED: TER
DOCKED: ENDMDL
________________________________________________________________________________


    FINAL DOCKED STATE:
    ________________________


Run:   2 / 20
Time taken for this run:   0.131s

DOCKED: MODEL        2
DOCKED: USER    Run = 2
DOCKED: USER
DOCKED: USER    Estimated Free Energy of Binding    =  -8.16 kcal/mol  [=(1)+(2)+(3)-(4)]
DOCKED: USER
DOCKED: USER    (1) Final Intermolecular Energy     = -11.14 kcal/mol
DOCKED: USER        vdW + Hbond + desolv Energy     = -11.06 kcal/mol
DOCKED: USER        Electrostatic Energy            =  -0.08 kcal/mol
DOCKED: USER        Moving Ligand-Fixed Receptor    = -11.14 kcal/mol
DOCKED: USER        Moving Ligand-Moving Receptor   =  +0.00 kcal/mol
DOCKED: USER    (2) Final Total Internal Energy     =  -2.20 kcal/mol
DOCKED: USER    (3) Torsional Free Energy           =  +2.98 kcal/mol
DOCKED: USER    (4) Unbound System's Energy         =  -2.20 kcal/mol
DOCKED: USER
DOCKED: USER
DOCKED: REMARK SMILES O=C(N/C=C(/O)N1C[C@H](O)C[C@H]1COCc1ccccc1)c1ccc2cc(Cl)ccc2n1
DOCKED: REMARK SMILES IDX 7 1 8 2 9 3 11 4 12 5 5 6 6 7 4 9 3 10 2 11 1 13 22 14 32 15
DOCKED: REMARK SMILES IDX 23 16 31 17 24 18 30 19 25 20 29 21 26 22 27 23 28 24 13 25
DOCKED: REMARK SMILES IDX 14 26 15 27 16 28 17 29 21 30 18 31 20 32 19 33 10 34
DOCKED: REMARK H PARENT 6 8 3 12 10 35
DOCKED: USER                              x       y       z     vdW  Elec       q    Type
DOCKED: USER                           _______ _______ _______ _____ _____    ______ ____
DOCKED: ROOT
DOCKED: ATOM      1  N   UNL     1     140.872  75.176 219.565 -0.02 +0.10    -0.334 N  
DOCKED: ATOM      2  C   UNL     1     141.379  75.263 218.209 -0.05 -0.05    +0.151 C  
DOCKED: ATOM      3  C   UNL     1     142.720  75.984 218.321 -0.20 -0.07    +0.136 C  
DOCKED: ATOM      4  C   UNL     1     143.113  75.893 219.799 -0.33 -0.04    +0.061 C  
DOCKED: ATOM      5  C   UNL     1     141.798  75.707 220.560 -0.23 -0.05    +0.113 C  
DOCKED: ENDROOT
DOCKED: BRANCH   1   6
DOCKED: ATOM      6  C   UNL     1     139.563  74.666 219.864 -0.05 -0.05    +0.204 C  
DOCKED: BRANCH   6   7
DOCKED: ATOM      7  O   UNL     1     138.823  74.052 218.858 +0.01 +0.10    -0.494 OA 
DOCKED: ATOM      8  H   UNL     1     138.519  73.091 218.947 +0.02 -0.06    +0.295 HD 
DOCKED: ENDBRANCH   6   7
DOCKED: BRANCH   6   9
DOCKED: ATOM      9  C   UNL     1     139.031  74.769 221.087 -0.15 -0.03    +0.152 C  
DOCKED: BRANCH   9  10
DOCKED: ATOM     10  N   UNL     1     139.309  73.815 222.123 -0.12 +0.07    -0.322 N  
DOCKED: ATOM     11  C   UNL     1     139.312  72.401 221.874 -0.15 -0.06    +0.273 C  
DOCKED: ATOM     12  H   UNL     1     139.543  74.159 223.081 -0.52 -0.02    +0.169 HD 
DOCKED: ATOM     13  O   UNL     1     139.131  71.969 220.701 -0.04 +0.05    -0.267 OA 
DOCKED: BRANCH  11  14
DOCKED: ATOM     14  C   UNL     1     139.509  71.447 222.986 -0.26 -0.03    +0.129 A  
DOCKED: ATOM     15  N   UNL     1     140.075  71.878 224.148 -0.26 +0.05    -0.243 NA 
DOCKED: ATOM     16  C   UNL     1     139.107  70.105 222.873 -0.21 -0.01    +0.035 A  
DOCKED: ATOM     17  C   UNL     1     140.270  71.052 225.211 -0.48 -0.01    +0.071 A  
DOCKED: ATOM     18  C   UNL     1     139.294  69.233 223.949 -0.28 -0.00    +0.013 A  
DOCKED: ATOM     19  C   UNL     1     140.856  71.543 226.383 -0.66 -0.00    +0.030 A  
DOCKED: ATOM     20  C   UNL     1     139.879  69.699 225.132 -0.42 -0.00    +0.002 A  
DOCKED: ATOM     21  C   UNL     1     141.055  70.691 227.475 -0.63 -0.00    +0.023 A  
DOCKED: ATOM     22  C   UNL     1     140.082  68.850 226.231 -0.52 -0.01    +0.030 A  
DOCKED: ATOM     23  C   UNL     1     140.672  69.348 227.399 -0.58 -0.01    +0.041 A  
DOCKED: ATOM     24  Cl  UNL     1     140.926  68.286 228.772 -0.64 +0.02    -0.084 Cl 
DOCKED: ENDBRANCH  11  14
DOCKED: ENDBRANCH   9  10
DOCKED: ENDBRANCH   6   9
DOCKED: ENDBRANCH   1   6
DOCKED: BRANCH   5  25
DOCKED: ATOM     25  C   UNL     1     141.278  77.036 221.128 -0.21 -0.09    +0.185 C  
DOCKED: BRANCH  25  26
DOCKED: ATOM     26  O   UNL     1     140.633  76.800 222.363 -0.26 +0.11    -0.375 OA 
DOCKED: BRANCH  26  27
DOCKED: ATOM     27  C   UNL     1     139.811  77.898 222.708 -0.24 -0.04    +0.195 C  
DOCKED: BRANCH  27  28
DOCKED: ATOM     28  C   UNL     1     140.651  79.123 222.947 -0.44 +0.01    -0.022 A  
DOCKED: ATOM     29  C   UNL     1     141.856  79.019 223.662 -0.62 -0.00    +0.006 A  
DOCKED: ATOM     30  C   UNL     1     140.221  80.383 222.498 -0.34 -0.00    +0.006 A  
DOCKED: ATOM     31  C   UNL     1     142.622  80.161 223.918 -0.62 -0.00    +0.000 A  
DOCKED: ATOM     32  C   UNL     1     140.991  81.522 222.756 -0.43 -0.00    +0.000 A  
DOCKED: ATOM     33  C   UNL     1     142.191  81.411 223.465 -0.58 -0.00    +0.000 A  
DOCKED: ENDBRANCH  27  28
DOCKED: ENDBRANCH  26  27
DOCKED: ENDBRANCH  25  26
DOCKED: ENDBRANCH   5  25
DOCKED: BRANCH   3  34
DOCKED: ATOM     34  O   UNL     1     143.680  75.378 217.497 -0.10 +0.19    -0.391 OA 
DOCKED: ATOM     35  H   UNL     1     144.566  75.671 217.835 -0.46 -0.16    +0.211 HD 
DOCKED: ENDBRANCH   3  34
DOCKED: TORSDOF 10
DOCKED: TER
DOCKED: ENDMDL
________________________________________________________________________________


    FINAL DOCKED STATE:
    ________________________


Run:   3 / 20
Time taken for this run:   0.131s

DOCKED: MODEL        3
DOCKED: USER    Run = 3
DOCKED: USER
DOCKED: USER    Estimated Free Energy of Binding    =  -7.53 kcal/mol  [=(1)+(2)+(3)-(4)]
DOCKED: USER
DOCKED: USER    (1) Final Intermolecular Energy     = -10.51 kcal/mol
DOCKED: USER        vdW + Hbond + desolv Energy     = -10.40 kcal/mol
DOCKED: USER        Electrostatic Energy            =  -0.12 kcal/mol
DOCKED: USER        Moving Ligand-Fixed Receptor    = -10.51 kcal/mol
DOCKED: USER        Moving Ligand-Moving Receptor   =  +0.00 kcal/mol
DOCKED: USER    (2) Final Total Internal Energy     =  -2.53 kcal/mol
DOCKED: USER    (3) Torsional Free Energy           =  +2.98 kcal/mol
DOCKED: USER    (4) Unbound System's Energy         =  -2.53 kcal/mol
DOCKED: USER
DOCKED: USER
DOCKED: REMARK SMILES O=C(N/C=C(/O)N1C[C@H](O)C[C@H]1COCc1ccccc1)c1ccc2cc(Cl)ccc2n1
DOCKED: REMARK SMILES IDX 7 1 8 2 9 3 11 4 12 5 5 6 6 7 4 9 3 10 2 11 1 13 22 14 32 15
DOCKED: REMARK SMILES IDX 23 16 31 17 24 18 30 19 25 20 29 21 26 22 27 23 28 24 13 25
DOCKED: REMARK SMILES IDX 14 26 15 27 16 28 17 29 21 30 18 31 20 32 19 33 10 34
DOCKED: REMARK H PARENT 6 8 3 12 10 35
DOCKED: USER                              x       y       z     vdW  Elec       q    Type
DOCKED: USER                           _______ _______ _______ _____ _____    ______ ____
DOCKED: ROOT
DOCKED: ATOM      1  N   UNL     1     140.280  76.754 220.997 -0.09 +0.10    -0.334 N  
DOCKED: ATOM      2  C   UNL     1     140.071  77.219 222.355 -0.31 -0.04    +0.151 C  
DOCKED: ATOM      3  C   UNL     1     141.071  78.356 222.554 -0.40 -0.05    +0.136 C  
DOCKED: ATOM      4  C   UNL     1     141.509  78.768 221.145 -0.33 -0.03    +0.061 C  
DOCKED: ATOM      5  C   UNL     1     141.271  77.537 220.266 -0.22 -0.05    +0.113 C  
DOCKED: ENDROOT
DOCKED: BRANCH   1   6
DOCKED: ATOM      6  C   UNL     1     139.605  75.601 220.468 -0.10 -0.05    +0.204 C  
DOCKED: BRANCH   6   7
DOCKED: ATOM      7  O   UNL     1     140.016  75.070 219.248 +0.02 +0.13    -0.494 OA 
DOCKED: ATOM      8  H   UNL     1     140.618  74.257 219.210 +0.06 -0.07    +0.295 HD 
DOCKED: ENDBRANCH   6   7
DOCKED: BRANCH   6   9
DOCKED: ATOM      9  C   UNL     1     138.587  75.024 221.115 -0.14 -0.03    +0.152 C  
DOCKED: BRANCH   9  10
DOCKED: ATOM     10  N   UNL     1     138.794  74.034 222.134 -0.06 +0.09    -0.322 N  
DOCKED: ATOM     11  C   UNL     1     139.720  72.950 221.963 -0.19 -0.05    +0.273 C  
DOCKED: ATOM     12  H   UNL     1     138.277  74.118 223.037 -0.54 -0.12    +0.169 HD 
DOCKED: ATOM     13  O   UNL     1     140.428  72.886 220.920 -0.12 +0.04    -0.267 OA 
DOCKED: BRANCH  11  14
DOCKED: ATOM     14  C   UNL     1     139.835  71.897 222.996 -0.29 -0.02    +0.129 A  
DOCKED: ATOM     15  N   UNL     1     140.327  72.214 224.226 -0.14 +0.04    -0.243 NA 
DOCKED: ATOM     16  C   UNL     1     139.430  70.576 222.737 -0.23 -0.01    +0.035 A  
DOCKED: ATOM     17  C   UNL     1     140.446  71.294 225.221 -0.49 -0.01    +0.071 A  
DOCKED: ATOM     18  C   UNL     1     139.539  69.609 223.739 -0.26 -0.00    +0.013 A  
DOCKED: ATOM     19  C   UNL     1     140.957  71.670 226.467 -0.68 -0.00    +0.030 A  
DOCKED: ATOM     20  C   UNL     1     140.048  69.959 224.995 -0.42 -0.00    +0.002 A  
DOCKED: ATOM     21  C   UNL     1     141.077  70.722 227.489 -0.63 -0.00    +0.023 A  
DOCKED: ATOM     22  C   UNL     1     140.172  69.012 226.024 -0.50 -0.01    +0.030 A  
DOCKED: ATOM     23  C   UNL     1     140.688  69.395 227.268 -0.57 -0.01    +0.041 A  
DOCKED: ATOM     24  Cl  UNL     1     140.843  68.212 228.553 -0.70 +0.02    -0.084 Cl 
DOCKED: ENDBRANCH  11  14
DOCKED: ENDBRANCH   9  10
DOCKED: ENDBRANCH   6   9
DOCKED: ENDBRANCH   1   6
DOCKED: BRANCH   5  25
DOCKED: ATOM     25  C   UNL     1     142.560  76.726 220.066 -0.20 -0.13    +0.185 C  
DOCKED: BRANCH  25  26
DOCKED: ATOM     26  O   UNL     1     142.264  75.346 220.143 -0.14 +0.16    -0.375 OA 
DOCKED: BRANCH  26  27
DOCKED: ATOM     27  C   UNL     1     142.862  74.653 219.066 -0.16 -0.07    +0.195 C  
DOCKED: BRANCH  27  28
DOCKED: ATOM     28  C   UNL     1     144.079  73.904 219.539 -0.33 +0.01    -0.022 A  
DOCKED: ATOM     29  C   UNL     1     144.336  72.608 219.060 -0.24 +0.00    +0.006 A  
DOCKED: ATOM     30  C   UNL     1     144.942  74.472 220.491 -0.50 -0.00    +0.006 A  
DOCKED: ATOM     31  C   UNL     1     145.446  71.895 219.523 -0.35 +0.00    +0.000 A  
DOCKED: ATOM     32  C   UNL     1     146.051  73.755 220.951 -0.71 -0.00    +0.000 A  
DOCKED: ATOM     33  C   UNL     1     146.303  72.468 220.468 -0.37 +0.00    +0.000 A  
DOCKED: ENDBRANCH  27  28
DOCKED: ENDBRANCH  26  27
DOCKED: ENDBRANCH  25  26
DOCKED: ENDBRANCH   5  25
DOCKED: BRANCH   3  34
DOCKED: ATOM     34  O   UNL     1     140.475  79.426 223.238 -0.20 +0.08    -0.391 OA 
DOCKED: ATOM     35  H   UNL     1     139.496  79.264 223.216 +0.11 -0.04    +0.211 HD 
DOCKED: ENDBRANCH   3  34
DOCKED: TORSDOF 10
DOCKED: TER
DOCKED: ENDMDL
________________________________________________________________________________


    FINAL DOCKED STATE:
    ________________________


Run:   4 / 20
Time taken for this run:   0.131s

DOCKED: MODEL        4
DOCKED: USER    Run = 4
DOCKED: USER
DOCKED: USER    Estimated Free Energy of Binding    =  -8.83 kcal/mol  [=(1)+(2)+(3)-(4)]
DOCKED: USER
DOCKED: USER    (1) Final Intermolecular Energy     = -11.81 kcal/mol
DOCKED: USER        vdW + Hbond + desolv Energy     = -11.49 kcal/mol
DOCKED: USER        Electrostatic Energy            =  -0.32 kcal/mol
DOCKED: USER        Moving Ligand-Fixed Receptor    = -11.81 kcal/mol
DOCKED: USER        Moving Ligand-Moving Receptor   =  +0.00 kcal/mol
DOCKED: USER    (2) Final Total Internal Energy     =  -1.55 kcal/mol
DOCKED: USER    (3) Torsional Free Energy           =  +2.98 kcal/mol
DOCKED: USER    (4) Unbound System's Energy         =  -1.55 kcal/mol
DOCKED: USER
DOCKED: USER
DOCKED: REMARK SMILES O=C(N/C=C(/O)N1C[C@H](O)C[C@H]1COCc1ccccc1)c1ccc2cc(Cl)ccc2n1
DOCKED: REMARK SMILES IDX 7 1 8 2 9 3 11 4 12 5 5 6 6 7 4 9 3 10 2 11 1 13 22 14 32 15
DOCKED: REMARK SMILES IDX 23 16 31 17 24 18 30 19 25 20 29 21 26 22 27 23 28 24 13 25
DOCKED: REMARK SMILES IDX 14 26 15 27 16 28 17 29 21 30 18 31 20 32 19 33 10 34
DOCKED: REMARK H PARENT 6 8 3 12 10 35
DOCKED: USER                              x       y       z     vdW  Elec       q    Type
DOCKED: USER                           _______ _______ _______ _____ _____    ______ ____
DOCKED: ROOT
DOCKED: ATOM      1  N   UNL     1     142.884  73.542 219.229 -0.04 +0.07    -0.334 N  
DOCKED: ATOM      2  C   UNL     1     144.047  72.857 218.698 -0.14 -0.01    +0.151 C  
DOCKED: ATOM      3  C   UNL     1     145.224  73.337 219.543 -0.35 +0.00    +0.136 C  
DOCKED: ATOM      4  C   UNL     1     144.602  73.952 220.801 -0.42 -0.02    +0.061 C  
DOCKED: ATOM      5  C   UNL     1     143.184  74.365 220.396 -0.29 -0.04    +0.113 C  
DOCKED: ENDROOT
DOCKED: BRANCH   1   6
DOCKED: ATOM      6  C   UNL     1     141.588  73.445 218.616 -0.02 -0.04    +0.204 C  
DOCKED: BRANCH   6   7
DOCKED: ATOM      7  O   UNL     1     141.490  73.421 217.227 +0.02 +0.11    -0.494 OA 
DOCKED: ATOM      8  H   UNL     1     140.749  73.917 216.748 +0.02 -0.07    +0.295 HD 
DOCKED: ENDBRANCH   6   7
DOCKED: BRANCH   6   9
DOCKED: ATOM      9  C   UNL     1     140.468  73.382 219.344 -0.04 -0.03    +0.152 C  
DOCKED: BRANCH   9  10
DOCKED: ATOM     10  N   UNL     1     140.318  72.457 220.432 -0.04 +0.05    -0.322 N  
DOCKED: ATOM     11  C   UNL     1     140.248  72.894 221.797 -0.19 -0.03    +0.273 C  
DOCKED: ATOM     12  H   UNL     1     140.229  71.438 220.223 +0.03 -0.03    +0.169 HD 
DOCKED: ATOM     13  O   UNL     1     140.252  74.128 222.064 -0.83 +0.01    -0.267 OA 
DOCKED: BRANCH  11  14
DOCKED: ATOM     14  C   UNL     1     140.188  71.906 222.896 -0.29 -0.02    +0.129 A  
DOCKED: ATOM     15  N   UNL     1     140.665  72.241 224.128 -0.09 +0.02    -0.243 NA 
DOCKED: ATOM     16  C   UNL     1     139.631  70.630 222.698 -0.23 -0.01    +0.035 A  
DOCKED: ATOM     17  C   UNL     1     140.626  71.381 225.180 -0.50 -0.01    +0.071 A  
DOCKED: ATOM     18  C   UNL     1     139.576  69.726 223.761 -0.27 -0.00    +0.013 A  
DOCKED: ATOM     19  C   UNL     1     141.130  71.772 226.425 -0.68 -0.00    +0.030 A  
DOCKED: ATOM     20  C   UNL     1     140.074  70.093 225.016 -0.43 -0.00    +0.002 A  
DOCKED: ATOM     21  C   UNL     1     141.087  70.886 227.507 -0.65 -0.00    +0.023 A  
DOCKED: ATOM     22  C   UNL     1     140.035  69.208 226.105 -0.49 -0.01    +0.030 A  
DOCKED: ATOM     23  C   UNL     1     140.545  69.606 227.348 -0.56 -0.01    +0.041 A  
DOCKED: ATOM     24  Cl  UNL     1     140.496  68.500 228.708 -0.69 +0.02    -0.084 Cl 
DOCKED: ENDBRANCH  11  14
DOCKED: ENDBRANCH   9  10
DOCKED: ENDBRANCH   6   9
DOCKED: ENDBRANCH   1   6
DOCKED: BRANCH   5  25
DOCKED: ATOM     25  C   UNL     1     143.109  75.857 220.038 -0.18 -0.11    +0.185 C  
DOCKED: BRANCH  25  26
DOCKED: ATOM     26  O   UNL     1     141.846  76.368 220.412 -0.15 +0.20    -0.375 OA 
DOCKED: BRANCH  26  27
DOCKED: ATOM     27  C   UNL     1     141.772  77.753 220.135 -0.22 -0.11    +0.195 C  
DOCKED: BRANCH  27  28
DOCKED: ATOM     28  C   UNL     1     141.818  78.543 221.414 -0.37 +0.01    -0.022 A  
DOCKED: ATOM     29  C   UNL     1     141.434  77.942 222.625 -0.42 -0.00    +0.006 A  
DOCKED: ATOM     30  C   UNL     1     142.201  79.895 221.405 -0.38 -0.00    +0.006 A  
DOCKED: ATOM     31  C   UNL     1     141.442  78.684 223.811 -0.58 -0.00    +0.000 A  
DOCKED: ATOM     32  C   UNL     1     142.207  80.632 222.594 -0.58 -0.00    +0.000 A  
DOCKED: ATOM     33  C   UNL     1     141.828  80.027 223.795 -0.61 -0.00    +0.000 A  
DOCKED: ENDBRANCH  27  28
DOCKED: ENDBRANCH  26  27
DOCKED: ENDBRANCH  25  26
DOCKED: ENDBRANCH   5  25
DOCKED: BRANCH   3  34
DOCKED: ATOM     34  O   UNL     1     146.074  72.268 219.862 -0.50 -0.22    -0.391 OA 
DOCKED: ATOM     35  H   UNL     1     145.749  71.898 220.724 -0.36 -0.03    +0.211 HD 
DOCKED: ENDBRANCH   3  34
DOCKED: TORSDOF 10
DOCKED: TER
DOCKED: ENDMDL
________________________________________________________________________________


    FINAL DOCKED STATE:
    ________________________


Run:   5 / 20
Time taken for this run:   0.131s

DOCKED: MODEL        5
DOCKED: USER    Run = 5
DOCKED: USER
DOCKED: USER    Estimated Free Energy of Binding    =  -7.62 kcal/mol  [=(1)+(2)+(3)-(4)]
DOCKED: USER
DOCKED: USER    (1) Final Intermolecular Energy     = -10.60 kcal/mol
DOCKED: USER        vdW + Hbond + desolv Energy     = -10.51 kcal/mol
DOCKED: USER        Electrostatic Energy            =  -0.09 kcal/mol
DOCKED: USER        Moving Ligand-Fixed Receptor    = -10.60 kcal/mol
DOCKED: USER        Moving Ligand-Moving Receptor   =  +0.00 kcal/mol
DOCKED: USER    (2) Final Total Internal Energy     =  -2.50 kcal/mol
DOCKED: USER    (3) Torsional Free Energy           =  +2.98 kcal/mol
DOCKED: USER    (4) Unbound System's Energy         =  -2.50 kcal/mol
DOCKED: USER
DOCKED: USER
DOCKED: REMARK SMILES O=C(N/C=C(/O)N1C[C@H](O)C[C@H]1COCc1ccccc1)c1ccc2cc(Cl)ccc2n1
DOCKED: REMARK SMILES IDX 7 1 8 2 9 3 11 4 12 5 5 6 6 7 4 9 3 10 2 11 1 13 22 14 32 15
DOCKED: REMARK SMILES IDX 23 16 31 17 24 18 30 19 25 20 29 21 26 22 27 23 28 24 13 25
DOCKED: REMARK SMILES IDX 14 26 15 27 16 28 17 29 21 30 18 31 20 32 19 33 10 34
DOCKED: REMARK H PARENT 6 8 3 12 10 35
DOCKED: USER                              x       y       z     vdW  Elec       q    Type
DOCKED: USER                           _______ _______ _______ _____ _____    ______ ____
DOCKED: ROOT
DOCKED: ATOM      1  N   UNL     1     138.136  69.542 222.550 -0.06 +0.06    -0.334 N  
DOCKED: ATOM      2  C   UNL     1     137.757  68.453 221.670 -0.11 -0.03    +0.151 C  
DOCKED: ATOM      3  C   UNL     1     136.546  67.799 222.330 -0.09 -0.02    +0.136 C  
DOCKED: ATOM      4  C   UNL     1     136.029  68.823 223.346 -0.12 -0.00    +0.061 C  
DOCKED: ATOM      5  C   UNL     1     137.234  69.706 223.684 -0.19 -0.01    +0.113 C  
DOCKED: ENDROOT
DOCKED: BRANCH   1   6
DOCKED: ATOM      6  C   UNL     1     139.319  70.328 222.333 -0.13 -0.04    +0.204 C  
DOCKED: BRANCH   6   7
DOCKED: ATOM      7  O   UNL     1     140.114  70.074 221.218 -0.02 +0.08    -0.494 OA 
DOCKED: ATOM      8  H   UNL     1     140.885  70.683 220.978 +0.08 -0.04    +0.295 HD 
DOCKED: ENDBRANCH   6   7
DOCKED: BRANCH   6   9
DOCKED: ATOM      9  C   UNL     1     139.682  71.299 223.178 -0.27 -0.03    +0.152 C  
DOCKED: BRANCH   9  10
DOCKED: ATOM     10  N   UNL     1     139.877  72.654 222.745 -0.17 +0.05    -0.322 N  
DOCKED: ATOM     11  C   UNL     1     140.907  73.013 221.811 -0.17 -0.02    +0.273 C  
DOCKED: ATOM     12  H   UNL     1     139.235  73.398 223.098 -0.49 -0.07    +0.169 HD 
DOCKED: ATOM     13  O   UNL     1     141.630  72.115 221.296 -0.17 +0.03    -0.267 OA 
DOCKED: BRANCH  11  14
DOCKED: ATOM     14  C   UNL     1     141.138  74.432 221.463 -0.24 -0.02    +0.129 A  
DOCKED: ATOM     15  N   UNL     1     140.537  75.410 222.196 -0.47 +0.03    -0.243 NA 
DOCKED: ATOM     16  C   UNL     1     141.981  74.791 220.397 -0.27 -0.01    +0.035 A  
DOCKED: ATOM     17  C   UNL     1     140.720  76.731 221.933 -0.36 -0.02    +0.071 A  
DOCKED: ATOM     18  C   UNL     1     142.190  76.140 220.104 -0.30 -0.01    +0.013 A  
DOCKED: ATOM     19  C   UNL     1     140.079  77.698 222.716 -0.35 -0.01    +0.030 A  
DOCKED: ATOM     20  C   UNL     1     141.560  77.127 220.871 -0.28 -0.00    +0.002 A  
DOCKED: ATOM     21  C   UNL     1     140.271  79.057 222.444 -0.34 -0.01    +0.023 A  
DOCKED: ATOM     22  C   UNL     1     141.747  78.492 220.603 -0.30 -0.02    +0.030 A  
DOCKED: ATOM     23  C   UNL     1     141.100  79.454 221.388 -0.31 -0.02    +0.041 A  
DOCKED: ATOM     24  Cl  UNL     1     141.333  81.160 221.052 -0.43 +0.02    -0.084 Cl 
DOCKED: ENDBRANCH  11  14
DOCKED: ENDBRANCH   9  10
DOCKED: ENDBRANCH   6   9
DOCKED: ENDBRANCH   1   6
DOCKED: BRANCH   5  25
DOCKED: ATOM     25  C   UNL     1     137.915  69.259 224.987 -0.25 -0.01    +0.185 C  
DOCKED: BRANCH  25  26
DOCKED: ATOM     26  O   UNL     1     138.823  68.213 224.707 -0.52 +0.01    -0.375 OA 
DOCKED: BRANCH  26  27
DOCKED: ATOM     27  C   UNL     1     139.624  67.940 225.840 -0.44 -0.02    +0.195 C  
DOCKED: BRANCH  27  28
DOCKED: ATOM     28  C   UNL     1     140.107  69.223 226.459 -0.52 +0.00    -0.022 A  
DOCKED: ATOM     29  C   UNL     1     139.634  69.614 227.723 -0.59 -0.00    +0.006 A  
DOCKED: ATOM     30  C   UNL     1     140.996  70.061 225.765 -0.52 -0.00    +0.006 A  
DOCKED: ATOM     31  C   UNL     1     140.053  70.824 228.286 -0.64 -0.00    +0.000 A  
DOCKED: ATOM     32  C   UNL     1     141.412  71.269 226.333 -0.65 -0.00    +0.000 A  
DOCKED: ATOM     33  C   UNL     1     140.941  71.650 227.593 -0.81 -0.00    +0.000 A  
DOCKED: ENDBRANCH  27  28
DOCKED: ENDBRANCH  26  27
DOCKED: ENDBRANCH  25  26
DOCKED: ENDBRANCH   5  25
DOCKED: BRANCH   3  34
DOCKED: ATOM     34  O   UNL     1     135.567  67.488 221.374 -0.04 +0.06    -0.391 OA 
DOCKED: ATOM     35  H   UNL     1     135.074  68.330 221.192 +0.02 -0.03    +0.211 HD 
DOCKED: ENDBRANCH   3  34
DOCKED: TORSDOF 10
DOCKED: TER
DOCKED: ENDMDL
________________________________________________________________________________


    FINAL DOCKED STATE:
    ________________________


Run:   6 / 20
Time taken for this run:   0.131s

DOCKED: MODEL        6
DOCKED: USER    Run = 6
DOCKED: USER
DOCKED: USER    Estimated Free Energy of Binding    =  -7.53 kcal/mol  [=(1)+(2)+(3)-(4)]
DOCKED: USER
DOCKED: USER    (1) Final Intermolecular Energy     = -10.52 kcal/mol
DOCKED: USER        vdW + Hbond + desolv Energy     = -10.50 kcal/mol
DOCKED: USER        Electrostatic Energy            =  -0.01 kcal/mol
DOCKED: USER        Moving Ligand-Fixed Receptor    = -10.52 kcal/mol
DOCKED: USER        Moving Ligand-Moving Receptor   =  +0.00 kcal/mol
DOCKED: USER    (2) Final Total Internal Energy     =  -2.28 kcal/mol
DOCKED: USER    (3) Torsional Free Energy           =  +2.98 kcal/mol
DOCKED: USER    (4) Unbound System's Energy         =  -2.28 kcal/mol
DOCKED: USER
DOCKED: USER
DOCKED: REMARK SMILES O=C(N/C=C(/O)N1C[C@H](O)C[C@H]1COCc1ccccc1)c1ccc2cc(Cl)ccc2n1
DOCKED: REMARK SMILES IDX 7 1 8 2 9 3 11 4 12 5 5 6 6 7 4 9 3 10 2 11 1 13 22 14 32 15
DOCKED: REMARK SMILES IDX 23 16 31 17 24 18 30 19 25 20 29 21 26 22 27 23 28 24 13 25
DOCKED: REMARK SMILES IDX 14 26 15 27 16 28 17 29 21 30 18 31 20 32 19 33 10 34
DOCKED: REMARK H PARENT 6 8 3 12 10 35
DOCKED: USER                              x       y       z     vdW  Elec       q    Type
DOCKED: USER                           _______ _______ _______ _____ _____    ______ ____
DOCKED: ROOT
DOCKED: ATOM      1  N   UNL     1     138.556  75.799 221.199 -0.07 +0.07    -0.334 N  
DOCKED: ATOM      2  C   UNL     1     137.436  75.310 221.981 -0.17 -0.04    +0.151 C  
DOCKED: ATOM      3  C   UNL     1     137.228  76.344 223.084 -0.20 -0.03    +0.136 C  
DOCKED: ATOM      4  C   UNL     1     137.973  77.599 222.618 -0.24 -0.01    +0.061 C  
DOCKED: ATOM      5  C   UNL     1     139.047  77.099 221.646 -0.21 -0.03    +0.113 C  
DOCKED: ENDROOT
DOCKED: BRANCH   1   6
DOCKED: ATOM      6  C   UNL     1     139.140  75.035 220.132 -0.06 -0.05    +0.204 C  
DOCKED: BRANCH   6   7
DOCKED: ATOM      7  O   UNL     1     140.033  75.651 219.259 +0.02 +0.14    -0.494 OA 
DOCKED: ATOM      8  H   UNL     1     140.931  75.986 219.583 +0.09 -0.10    +0.295 HD 
DOCKED: ENDBRANCH   6   7
DOCKED: BRANCH   6   9
DOCKED: ATOM      9  C   UNL     1     138.845  73.743 219.950 -0.05 -0.03    +0.152 C  
DOCKED: BRANCH   9  10
DOCKED: ATOM     10  N   UNL     1     138.871  72.796 221.028 -0.05 +0.07    -0.322 N  
DOCKED: ATOM     11  C   UNL     1     139.804  72.904 222.113 -0.18 -0.04    +0.273 C  
DOCKED: ATOM     12  H   UNL     1     138.173  72.019 221.039 +0.03 -0.03    +0.169 HD 
DOCKED: ATOM     13  O   UNL     1     140.590  73.891 222.171 -0.78 -0.01    -0.267 OA 
DOCKED: BRANCH  11  14
DOCKED: ATOM     14  C   UNL     1     139.863  71.856 223.156 -0.29 -0.02    +0.129 A  
DOCKED: ATOM     15  N   UNL     1     140.398  72.150 224.374 -0.11 +0.04    -0.243 NA 
DOCKED: ATOM     16  C   UNL     1     139.359  70.566 222.919 -0.24 -0.01    +0.035 A  
DOCKED: ATOM     17  C   UNL     1     140.468  71.234 225.376 -0.51 -0.01    +0.071 A  
DOCKED: ATOM     18  C   UNL     1     139.416  69.604 223.931 -0.29 -0.00    +0.013 A  
DOCKED: ATOM     19  C   UNL     1     141.029  71.585 226.610 -0.70 -0.00    +0.030 A  
DOCKED: ATOM     20  C   UNL     1     139.972  69.929 225.173 -0.43 -0.00    +0.002 A  
DOCKED: ATOM     21  C   UNL     1     141.098  70.641 227.640 -0.61 -0.00    +0.023 A  
DOCKED: ATOM     22  C   UNL     1     140.046  68.986 226.210 -0.51 -0.01    +0.030 A  
DOCKED: ATOM     23  C   UNL     1     140.611  69.344 227.441 -0.58 -0.01    +0.041 A  
DOCKED: ATOM     24  Cl  UNL     1     140.704  68.166 228.737 -0.62 +0.02    -0.084 Cl 
DOCKED: ENDBRANCH  11  14
DOCKED: ENDBRANCH   9  10
DOCKED: ENDBRANCH   6   9
DOCKED: ENDBRANCH   1   6
DOCKED: BRANCH   5  25
DOCKED: ATOM     25  C   UNL     1     140.411  76.953 222.336 -0.31 -0.05    +0.185 C  
DOCKED: BRANCH  25  26
DOCKED: ATOM     26  O   UNL     1     141.439  77.046 221.370 -0.17 +0.20    -0.375 OA 
DOCKED: BRANCH  26  27
DOCKED: ATOM     27  C   UNL     1     141.459  78.337 220.795 -0.24 -0.10    +0.195 C  
DOCKED: BRANCH  27  28
DOCKED: ATOM     28  C   UNL     1     141.588  79.384 221.868 -0.42 +0.01    -0.022 A  
DOCKED: ATOM     29  C   UNL     1     142.724  79.405 222.695 -0.57 -0.00    +0.006 A  
DOCKED: ATOM     30  C   UNL     1     140.561  80.319 222.082 -0.33 -0.00    +0.006 A  
DOCKED: ATOM     31  C   UNL     1     142.832  80.353 223.717 -0.66 -0.00    +0.000 A  
DOCKED: ATOM     32  C   UNL     1     140.675  81.266 223.105 -0.42 -0.00    +0.000 A  
DOCKED: ATOM     33  C   UNL     1     141.809  81.283 223.922 -0.57 -0.00    +0.000 A  
DOCKED: ENDBRANCH  27  28
DOCKED: ENDBRANCH  26  27
DOCKED: ENDBRANCH  25  26
DOCKED: ENDBRANCH   5  25
DOCKED: BRANCH   3  34
DOCKED: ATOM     34  O   UNL     1     135.861  76.601 223.272 -0.12 +0.07    -0.391 OA 
DOCKED: ATOM     35  H   UNL     1     135.532  77.002 222.425 +0.04 -0.03    +0.211 HD 
DOCKED: ENDBRANCH   3  34
DOCKED: TORSDOF 10
DOCKED: TER
DOCKED: ENDMDL
________________________________________________________________________________


    FINAL DOCKED STATE:
    ________________________


Run:   7 / 20
Time taken for this run:   0.131s

DOCKED: MODEL        7
DOCKED: USER    Run = 7
DOCKED: USER
DOCKED: USER    Estimated Free Energy of Binding    =  -6.49 kcal/mol  [=(1)+(2)+(3)-(4)]
DOCKED: USER
DOCKED: USER    (1) Final Intermolecular Energy     =  -9.47 kcal/mol
DOCKED: USER        vdW + Hbond + desolv Energy     =  -9.40 kcal/mol
DOCKED: USER        Electrostatic Energy            =  -0.07 kcal/mol
DOCKED: USER        Moving Ligand-Fixed Receptor    =  -9.47 kcal/mol
DOCKED: USER        Moving Ligand-Moving Receptor   =  +0.00 kcal/mol
DOCKED: USER    (2) Final Total Internal Energy     =  -3.53 kcal/mol
DOCKED: USER    (3) Torsional Free Energy           =  +2.98 kcal/mol
DOCKED: USER    (4) Unbound System's Energy         =  -3.53 kcal/mol
DOCKED: USER
DOCKED: USER
DOCKED: REMARK SMILES O=C(N/C=C(/O)N1C[C@H](O)C[C@H]1COCc1ccccc1)c1ccc2cc(Cl)ccc2n1
DOCKED: REMARK SMILES IDX 7 1 8 2 9 3 11 4 12 5 5 6 6 7 4 9 3 10 2 11 1 13 22 14 32 15
DOCKED: REMARK SMILES IDX 23 16 31 17 24 18 30 19 25 20 29 21 26 22 27 23 28 24 13 25
DOCKED: REMARK SMILES IDX 14 26 15 27 16 28 17 29 21 30 18 31 20 32 19 33 10 34
DOCKED: REMARK H PARENT 6 8 3 12 10 35
DOCKED: USER                              x       y       z     vdW  Elec       q    Type
DOCKED: USER                           _______ _______ _______ _____ _____    ______ ____
DOCKED: ROOT
DOCKED: ATOM      1  N   UNL     1     141.001  77.266 221.386 -0.15 +0.14    -0.334 N  
DOCKED: ATOM      2  C   UNL     1     141.803  78.399 220.964 -0.26 -0.09    +0.151 C  
DOCKED: ATOM      3  C   UNL     1     141.690  79.420 222.094 -0.40 -0.06    +0.136 C  
DOCKED: ATOM      4  C   UNL     1     141.169  78.638 223.304 -0.50 -0.02    +0.061 C  
DOCKED: ATOM      5  C   UNL     1     140.438  77.425 222.722 -0.29 -0.03    +0.113 C  
DOCKED: ENDROOT
DOCKED: BRANCH   1   6
DOCKED: ATOM      6  C   UNL     1     140.755  76.138 220.530 -0.16 -0.07    +0.204 C  
DOCKED: BRANCH   6   7
DOCKED: ATOM      7  O   UNL     1     139.666  76.164 219.662 +0.01 +0.13    -0.494 OA 
DOCKED: ATOM      8  H   UNL     1     138.773  75.776 219.936 +0.05 -0.07    +0.295 HD 
DOCKED: ENDBRANCH   6   7
DOCKED: BRANCH   6   9
DOCKED: ATOM      9  C   UNL     1     141.543  75.058 220.547 -0.22 -0.05    +0.152 C  
DOCKED: BRANCH   9  10
DOCKED: ATOM     10  N   UNL     1     141.315  73.961 221.445 -0.14 +0.04    -0.322 N  
DOCKED: ATOM     11  C   UNL     1     140.006  73.410 221.654 -0.18 -0.04    +0.273 C  
DOCKED: ATOM     12  H   UNL     1     142.128  73.532 221.940 +0.08 +0.00    +0.169 HD 
DOCKED: ATOM     13  O   UNL     1     139.026  73.848 220.990 -0.10 +0.06    -0.267 OA 
DOCKED: BRANCH  11  14
DOCKED: ATOM     14  C   UNL     1     139.796  72.344 222.658 -0.26 -0.02    +0.129 A  
DOCKED: ATOM     15  N   UNL     1     140.609  72.280 223.749 -0.20 +0.02    -0.243 NA 
DOCKED: ATOM     16  C   UNL     1     138.761  71.404 222.515 -0.20 -0.01    +0.035 A  
DOCKED: ATOM     17  C   UNL     1     140.458  71.331 224.712 -0.45 -0.01    +0.071 A  
DOCKED: ATOM     18  C   UNL     1     138.580  70.419 223.489 -0.26 -0.00    +0.013 A  
DOCKED: ATOM     19  C   UNL     1     141.320  71.307 225.814 -0.58 -0.00    +0.030 A  
DOCKED: ATOM     20  C   UNL     1     139.429  70.372 224.600 -0.40 -0.00    +0.002 A  
DOCKED: ATOM     21  C   UNL     1     141.162  70.331 226.804 -0.54 -0.00    +0.023 A  
DOCKED: ATOM     22  C   UNL     1     139.276  69.395 225.596 -0.42 -0.00    +0.030 A  
DOCKED: ATOM     23  C   UNL     1     140.145  69.375 226.694 -0.52 -0.01    +0.041 A  
DOCKED: ATOM     24  Cl  UNL     1     139.954  68.154 227.939 -0.62 +0.02    -0.084 Cl 
DOCKED: ENDBRANCH  11  14
DOCKED: ENDBRANCH   9  10
DOCKED: ENDBRANCH   6   9
DOCKED: ENDBRANCH   1   6
DOCKED: BRANCH   5  25
DOCKED: ATOM     25  C   UNL     1     138.922  77.660 222.647 -0.21 -0.03    +0.185 C  
DOCKED: BRANCH  25  26
DOCKED: ATOM     26  O   UNL     1     138.317  76.603 221.928 -0.12 +0.08    -0.375 OA 
DOCKED: BRANCH  26  27
DOCKED: ATOM     27  C   UNL     1     136.909  76.696 222.007 -0.13 -0.04    +0.195 C  
DOCKED: BRANCH  27  28
DOCKED: ATOM     28  C   UNL     1     136.360  75.584 222.859 -0.23 +0.01    -0.022 A  
DOCKED: ATOM     29  C   UNL     1     135.803  75.873 224.116 -0.26 -0.00    +0.006 A  
DOCKED: ATOM     30  C   UNL     1     136.439  74.249 222.429 -0.16 -0.00    +0.006 A  
DOCKED: ATOM     31  C   UNL     1     135.324  74.839 224.927 -0.37 -0.00    +0.000 A  
DOCKED: ATOM     32  C   UNL     1     135.958  73.219 223.243 -0.18 -0.00    +0.000 A  
DOCKED: ATOM     33  C   UNL     1     135.401  73.513 224.491 -0.26 -0.00    +0.000 A  
DOCKED: ENDBRANCH  27  28
DOCKED: ENDBRANCH  26  27
DOCKED: ENDBRANCH  25  26
DOCKED: ENDBRANCH   5  25
DOCKED: BRANCH   3  34
DOCKED: ATOM     34  O   UNL     1     142.937  80.005 222.360 -0.32 +0.18    -0.391 OA 
DOCKED: ATOM     35  H   UNL     1     143.622  79.363 222.040 -0.45 -0.19    +0.211 HD 
DOCKED: ENDBRANCH   3  34
DOCKED: TORSDOF 10
DOCKED: TER
DOCKED: ENDMDL
________________________________________________________________________________


    FINAL DOCKED STATE:
    ________________________


Run:   8 / 20
Time taken for this run:   0.131s

DOCKED: MODEL        8
DOCKED: USER    Run = 8
DOCKED: USER
DOCKED: USER    Estimated Free Energy of Binding    =  -8.24 kcal/mol  [=(1)+(2)+(3)-(4)]
DOCKED: USER
DOCKED: USER    (1) Final Intermolecular Energy     = -11.22 kcal/mol
DOCKED: USER        vdW + Hbond + desolv Energy     = -11.09 kcal/mol
DOCKED: USER        Electrostatic Energy            =  -0.13 kcal/mol
DOCKED: USER        Moving Ligand-Fixed Receptor    = -11.22 kcal/mol
DOCKED: USER        Moving Ligand-Moving Receptor   =  +0.00 kcal/mol
DOCKED: USER    (2) Final Total Internal Energy     =  -2.10 kcal/mol
DOCKED: USER    (3) Torsional Free Energy           =  +2.98 kcal/mol
DOCKED: USER    (4) Unbound System's Energy         =  -2.10 kcal/mol
DOCKED: USER
DOCKED: USER
DOCKED: REMARK SMILES O=C(N/C=C(/O)N1C[C@H](O)C[C@H]1COCc1ccccc1)c1ccc2cc(Cl)ccc2n1
DOCKED: REMARK SMILES IDX 7 1 8 2 9 3 11 4 12 5 5 6 6 7 4 9 3 10 2 11 1 13 22 14 32 15
DOCKED: REMARK SMILES IDX 23 16 31 17 24 18 30 19 25 20 29 21 26 22 27 23 28 24 13 25
DOCKED: REMARK SMILES IDX 14 26 15 27 16 28 17 29 21 30 18 31 20 32 19 33 10 34
DOCKED: REMARK H PARENT 6 8 3 12 10 35
DOCKED: USER                              x       y       z     vdW  Elec       q    Type
DOCKED: USER                           _______ _______ _______ _____ _____    ______ ____
DOCKED: ROOT
DOCKED: ATOM      1  N   UNL     1     141.188  75.144 219.500 -0.03 +0.10    -0.334 N  
DOCKED: ATOM      2  C   UNL     1     141.955  74.520 218.439 -0.06 -0.04    +0.151 C  
DOCKED: ATOM      3  C   UNL     1     143.238  75.340 218.327 -0.19 -0.06    +0.136 C  
DOCKED: ATOM      4  C   UNL     1     143.328  76.141 219.631 -0.37 -0.04    +0.061 C  
DOCKED: ATOM      5  C   UNL     1     141.889  76.250 220.143 -0.24 -0.06    +0.113 C  
DOCKED: ENDROOT
DOCKED: BRANCH   1   6
DOCKED: ATOM      6  C   UNL     1     139.851  74.730 219.826 -0.05 -0.05    +0.204 C  
DOCKED: BRANCH   6   7
DOCKED: ATOM      7  O   UNL     1     139.061  74.138 218.845 +0.01 +0.10    -0.494 OA 
DOCKED: ATOM      8  H   UNL     1     138.823  73.155 218.890 +0.02 -0.06    +0.295 HD 
DOCKED: ENDBRANCH   6   7
DOCKED: BRANCH   6   9
DOCKED: ATOM      9  C   UNL     1     139.341  74.904 221.051 -0.17 -0.03    +0.152 C  
DOCKED: BRANCH   9  10
DOCKED: ATOM     10  N   UNL     1     139.521  73.936 222.095 -0.14 +0.06    -0.322 N  
DOCKED: ATOM     11  C   UNL     1     139.658  72.534 221.819 -0.17 -0.05    +0.273 C  
DOCKED: ATOM     12  H   UNL     1     139.581  74.263 223.086 -0.52 -0.01    +0.169 HD 
DOCKED: ATOM     13  O   UNL     1     139.688  72.130 220.623 -0.05 +0.05    -0.267 OA 
DOCKED: BRANCH  11  14
DOCKED: ATOM     14  C   UNL     1     139.746  71.559 222.927 -0.27 -0.02    +0.129 A  
DOCKED: ATOM     15  N   UNL     1     140.294  71.940 224.115 -0.26 +0.04    -0.243 NA 
DOCKED: ATOM     16  C   UNL     1     139.257  70.249 222.784 -0.21 -0.01    +0.035 A  
DOCKED: ATOM     17  C   UNL     1     140.392  71.093 225.174 -0.49 -0.01    +0.071 A  
DOCKED: ATOM     18  C   UNL     1     139.342  69.357 223.855 -0.27 -0.00    +0.013 A  
DOCKED: ATOM     19  C   UNL     1     140.964  71.532 226.373 -0.67 -0.00    +0.030 A  
DOCKED: ATOM     20  C   UNL     1     139.911  69.771 225.065 -0.41 -0.00    +0.002 A  
DOCKED: ATOM     21  C   UNL     1     141.062  70.659 227.462 -0.63 -0.00    +0.023 A  
DOCKED: ATOM     22  C   UNL     1     140.013  68.900 226.161 -0.51 -0.01    +0.030 A  
DOCKED: ATOM     23  C   UNL     1     140.591  69.346 227.357 -0.57 -0.01    +0.041 A  
DOCKED: ATOM     24  Cl  UNL     1     140.718  68.257 228.726 -0.65 +0.02    -0.084 Cl 
DOCKED: ENDBRANCH  11  14
DOCKED: ENDBRANCH   9  10
DOCKED: ENDBRANCH   6   9
DOCKED: ENDBRANCH   1   6
DOCKED: BRANCH   5  25
DOCKED: ATOM     25  C   UNL     1     141.250  77.593 219.757 -0.16 -0.09    +0.185 C  
DOCKED: BRANCH  25  26
DOCKED: ATOM     26  O   UNL     1     140.383  78.016 220.790 -0.06 +0.13    -0.375 OA 
DOCKED: BRANCH  26  27
DOCKED: ATOM     27  C   UNL     1     140.967  77.772 222.054 -0.31 -0.08    +0.195 C  
DOCKED: BRANCH  27  28
DOCKED: ATOM     28  C   UNL     1     141.414  79.066 222.680 -0.49 +0.01    -0.022 A  
DOCKED: ATOM     29  C   UNL     1     142.784  79.358 222.785 -0.54 -0.00    +0.006 A  
DOCKED: ATOM     30  C   UNL     1     140.473  79.969 223.203 -0.45 -0.00    +0.006 A  
DOCKED: ATOM     31  C   UNL     1     143.205  80.543 223.398 -0.65 -0.00    +0.000 A  
DOCKED: ATOM     32  C   UNL     1     140.899  81.152 223.814 -0.39 -0.00    +0.000 A  
DOCKED: ATOM     33  C   UNL     1     142.263  81.439 223.911 -0.61 -0.00    +0.000 A  
DOCKED: ENDBRANCH  27  28
DOCKED: ENDBRANCH  26  27
DOCKED: ENDBRANCH  25  26
DOCKED: ENDBRANCH   5  25
DOCKED: BRANCH   3  34
DOCKED: ATOM     34  O   UNL     1     144.351  74.502 218.164 -0.05 +0.16    -0.391 OA 
DOCKED: ATOM     35  H   UNL     1     145.061  75.056 217.746 -0.48 -0.16    +0.211 HD 
DOCKED: ENDBRANCH   3  34
DOCKED: TORSDOF 10
DOCKED: TER
DOCKED: ENDMDL
________________________________________________________________________________


    FINAL DOCKED STATE:
    ________________________


Run:   9 / 20
Time taken for this run:   0.131s

DOCKED: MODEL        9
DOCKED: USER    Run = 9
DOCKED: USER
DOCKED: USER    Estimated Free Energy of Binding    =  -6.10 kcal/mol  [=(1)+(2)+(3)-(4)]
DOCKED: USER
DOCKED: USER    (1) Final Intermolecular Energy     =  -9.09 kcal/mol
DOCKED: USER        vdW + Hbond + desolv Energy     =  -8.86 kcal/mol
DOCKED: USER        Electrostatic Energy            =  -0.23 kcal/mol
DOCKED: USER        Moving Ligand-Fixed Receptor    =  -9.09 kcal/mol
DOCKED: USER        Moving Ligand-Moving Receptor   =  +0.00 kcal/mol
DOCKED: USER    (2) Final Total Internal Energy     =  -4.19 kcal/mol
DOCKED: USER    (3) Torsional Free Energy           =  +2.98 kcal/mol
DOCKED: USER    (4) Unbound System's Energy         =  -4.19 kcal/mol
DOCKED: USER
DOCKED: USER
DOCKED: REMARK SMILES O=C(N/C=C(/O)N1C[C@H](O)C[C@H]1COCc1ccccc1)c1ccc2cc(Cl)ccc2n1
DOCKED: REMARK SMILES IDX 7 1 8 2 9 3 11 4 12 5 5 6 6 7 4 9 3 10 2 11 1 13 22 14 32 15
DOCKED: REMARK SMILES IDX 23 16 31 17 24 18 30 19 25 20 29 21 26 22 27 23 28 24 13 25
DOCKED: REMARK SMILES IDX 14 26 15 27 16 28 17 29 21 30 18 31 20 32 19 33 10 34
DOCKED: REMARK H PARENT 6 8 3 12 10 35
DOCKED: USER                              x       y       z     vdW  Elec       q    Type
DOCKED: USER                           _______ _______ _______ _____ _____    ______ ____
DOCKED: ROOT
DOCKED: ATOM      1  N   UNL     1     141.598  75.346 220.421 -0.11 +0.12    -0.334 N  
DOCKED: ATOM      2  C   UNL     1     142.353  74.167 220.040 -0.20 -0.04    +0.151 C  
DOCKED: ATOM      3  C   UNL     1     143.598  74.692 219.330 -0.27 -0.05    +0.136 C  
DOCKED: ATOM      4  C   UNL     1     143.701  76.170 219.722 -0.33 -0.04    +0.061 C  
DOCKED: ATOM      5  C   UNL     1     142.278  76.595 220.092 -0.26 -0.07    +0.113 C  
DOCKED: ENDROOT
DOCKED: BRANCH   1   6
DOCKED: ATOM      6  C   UNL     1     140.291  75.264 221.011 -0.20 -0.05    +0.204 C  
DOCKED: BRANCH   6   7
DOCKED: ATOM      7  O   UNL     1     140.110  74.513 222.169 -0.69 +0.02    -0.494 OA 
DOCKED: ATOM      8  H   UNL     1     139.386  74.749 222.836 -0.31 -0.05    +0.295 HD 
DOCKED: ENDBRANCH   6   7
DOCKED: BRANCH   6   9
DOCKED: ATOM      9  C   UNL     1     139.237  75.888 220.473 -0.09 -0.04    +0.152 C  
DOCKED: BRANCH   9  10
DOCKED: ATOM     10  N   UNL     1     138.897  77.240 220.813 -0.03 +0.08    -0.322 N  
DOCKED: ATOM     11  C   UNL     1     138.578  77.630 222.157 -0.16 -0.05    +0.273 C  
DOCKED: ATOM     12  H   UNL     1     138.907  77.969 220.065 +0.04 -0.04    +0.169 HD 
DOCKED: ATOM     13  O   UNL     1     138.658  76.785 223.092 -0.20 +0.04    -0.267 OA 
DOCKED: BRANCH  11  14
DOCKED: ATOM     14  C   UNL     1     138.140  79.012 222.451 -0.18 -0.02    +0.129 A  
DOCKED: ATOM     15  N   UNL     1     137.916  79.385 223.742 -0.08 +0.03    -0.243 NA 
DOCKED: ATOM     16  C   UNL     1     137.968  79.954 221.423 -0.10 -0.01    +0.035 A  
DOCKED: ATOM     17  C   UNL     1     137.524  80.643 224.077 -0.31 -0.01    +0.071 A  
DOCKED: ATOM     18  C   UNL     1     137.568  81.255 221.736 -0.11 -0.00    +0.013 A  
DOCKED: ATOM     19  C   UNL     1     137.305  80.977 225.418 -0.38 -0.00    +0.030 A  
DOCKED: ATOM     20  C   UNL     1     137.342  81.614 223.070 -0.20 -0.00    +0.002 A  
DOCKED: ATOM     21  C   UNL     1     136.904  82.273 225.760 -0.38 -0.00    +0.023 A  
DOCKED: ATOM     22  C   UNL     1     136.938  82.912 223.419 -0.16 -0.00    +0.030 A  
DOCKED: ATOM     23  C   UNL     1     136.717  83.238 224.763 -0.16 -0.00    +0.041 A  
DOCKED: ATOM     24  Cl  UNL     1     136.212  84.860 225.200 -0.23 +0.00    -0.084 Cl 
DOCKED: ENDBRANCH  11  14
DOCKED: ENDBRANCH   9  10
DOCKED: ENDBRANCH   6   9
DOCKED: ENDBRANCH   1   6
DOCKED: BRANCH   5  25
DOCKED: ATOM     25  C   UNL     1     141.574  77.301 218.924 -0.15 -0.09    +0.185 C  
DOCKED: BRANCH  25  26
DOCKED: ATOM     26  O   UNL     1     140.905  78.450 219.403 -0.05 +0.17    -0.375 OA 
DOCKED: BRANCH  26  27
DOCKED: ATOM     27  C   UNL     1     141.835  79.467 219.718 -0.20 -0.11    +0.195 C  
DOCKED: BRANCH  27  28
DOCKED: ATOM     28  C   UNL     1     141.676  79.892 221.153 -0.37 +0.01    -0.022 A  
DOCKED: ATOM     29  C   UNL     1     141.827  78.950 222.185 -0.48 -0.00    +0.006 A  
DOCKED: ATOM     30  C   UNL     1     141.335  81.217 221.472 -0.39 -0.00    +0.006 A  
DOCKED: ATOM     31  C   UNL     1     141.645  79.333 223.517 -0.60 -0.00    +0.000 A  
DOCKED: ATOM     32  C   UNL     1     141.155  81.595 222.806 -0.45 -0.00    +0.000 A  
DOCKED: ATOM     33  C   UNL     1     141.310  80.654 223.828 -0.52 -0.00    +0.000 A  
DOCKED: ENDBRANCH  27  28
DOCKED: ENDBRANCH  26  27
DOCKED: ENDBRANCH  25  26
DOCKED: ENDBRANCH   5  25
DOCKED: BRANCH   3  34
DOCKED: ATOM     34  O   UNL     1     144.736  73.976 219.729 -0.21 +0.10    -0.391 OA 
DOCKED: ATOM     35  H   UNL     1     145.514  74.427 219.308 -0.34 -0.10    +0.211 HD 
DOCKED: ENDBRANCH   3  34
DOCKED: TORSDOF 10
DOCKED: TER
DOCKED: ENDMDL
________________________________________________________________________________


    FINAL DOCKED STATE:
    ________________________


Run:   10 / 20
Time taken for this run:   0.131s

DOCKED: MODEL        10
DOCKED: USER    Run = 10
DOCKED: USER
DOCKED: USER    Estimated Free Energy of Binding    =  -7.80 kcal/mol  [=(1)+(2)+(3)-(4)]
DOCKED: USER
DOCKED: USER    (1) Final Intermolecular Energy     = -10.78 kcal/mol
DOCKED: USER        vdW + Hbond + desolv Energy     = -10.71 kcal/mol
DOCKED: USER        Electrostatic Energy            =  -0.07 kcal/mol
DOCKED: USER        Moving Ligand-Fixed Receptor    = -10.78 kcal/mol
DOCKED: USER        Moving Ligand-Moving Receptor   =  +0.00 kcal/mol
DOCKED: USER    (2) Final Total Internal Energy     =  -2.38 kcal/mol
DOCKED: USER    (3) Torsional Free Energy           =  +2.98 kcal/mol
DOCKED: USER    (4) Unbound System's Energy         =  -2.38 kcal/mol
DOCKED: USER
DOCKED: USER
DOCKED: REMARK SMILES O=C(N/C=C(/O)N1C[C@H](O)C[C@H]1COCc1ccccc1)c1ccc2cc(Cl)ccc2n1
DOCKED: REMARK SMILES IDX 7 1 8 2 9 3 11 4 12 5 5 6 6 7 4 9 3 10 2 11 1 13 22 14 32 15
DOCKED: REMARK SMILES IDX 23 16 31 17 24 18 30 19 25 20 29 21 26 22 27 23 28 24 13 25
DOCKED: REMARK SMILES IDX 14 26 15 27 16 28 17 29 21 30 18 31 20 32 19 33 10 34
DOCKED: REMARK H PARENT 6 8 3 12 10 35
DOCKED: USER                              x       y       z     vdW  Elec       q    Type
DOCKED: USER                           _______ _______ _______ _____ _____    ______ ____
DOCKED: ROOT
DOCKED: ATOM      1  N   UNL     1     140.502  75.861 219.982 -0.03 +0.10    -0.334 N  
DOCKED: ATOM      2  C   UNL     1     141.522  75.829 218.951 -0.11 -0.06    +0.151 C  
DOCKED: ATOM      3  C   UNL     1     142.305  77.130 219.112 -0.26 -0.08    +0.136 C  
DOCKED: ATOM      4  C   UNL     1     141.959  77.646 220.512 -0.25 -0.04    +0.061 C  
DOCKED: ATOM      5  C   UNL     1     140.599  77.029 220.851 -0.21 -0.04    +0.113 C  
DOCKED: ENDROOT
DOCKED: BRANCH   1   6
DOCKED: ATOM      6  C   UNL     1     139.478  74.858 220.081 -0.06 -0.05    +0.204 C  
DOCKED: BRANCH   6   7
DOCKED: ATOM      7  O   UNL     1     139.233  74.023 218.994 +0.01 +0.10    -0.494 OA 
DOCKED: ATOM      8  H   UNL     1     139.032  73.041 219.127 +0.03 -0.06    +0.295 HD 
DOCKED: ENDBRANCH   6   7
DOCKED: BRANCH   6   9
DOCKED: ATOM      9  C   UNL     1     138.746  74.708 221.190 -0.15 -0.03    +0.152 C  
DOCKED: BRANCH   9  10
DOCKED: ATOM     10  N   UNL     1     139.089  73.753 222.206 -0.08 +0.08    -0.322 N  
DOCKED: ATOM     11  C   UNL     1     139.112  72.341 221.946 -0.14 -0.06    +0.273 C  
DOCKED: ATOM     12  H   UNL     1     139.356  74.095 223.156 -0.51 -0.05    +0.169 HD 
DOCKED: ATOM     13  O   UNL     1     138.890  71.913 220.779 -0.04 +0.05    -0.267 OA 
DOCKED: BRANCH  11  14
DOCKED: ATOM     14  C   UNL     1     139.377  71.384 223.041 -0.25 -0.03    +0.129 A  
DOCKED: ATOM     15  N   UNL     1     139.943  71.828 224.199 -0.24 +0.05    -0.243 NA 
DOCKED: ATOM     16  C   UNL     1     139.039  70.025 222.918 -0.21 -0.01    +0.035 A  
DOCKED: ATOM     17  C   UNL     1     140.200  70.999 225.246 -0.48 -0.01    +0.071 A  
DOCKED: ATOM     18  C   UNL     1     139.289  69.150 223.978 -0.28 -0.00    +0.013 A  
DOCKED: ATOM     19  C   UNL     1     140.783  71.503 226.413 -0.66 -0.00    +0.030 A  
DOCKED: ATOM     20  C   UNL     1     139.873  69.629 225.156 -0.42 -0.00    +0.002 A  
DOCKED: ATOM     21  C   UNL     1     141.045  70.649 227.490 -0.63 -0.00    +0.023 A  
DOCKED: ATOM     22  C   UNL     1     140.139  68.777 226.239 -0.53 -0.01    +0.030 A  
DOCKED: ATOM     23  C   UNL     1     140.727  69.289 227.403 -0.58 -0.01    +0.041 A  
DOCKED: ATOM     24  Cl  UNL     1     141.059  68.224 228.756 -0.67 +0.02    -0.084 Cl 
DOCKED: ENDBRANCH  11  14
DOCKED: ENDBRANCH   9  10
DOCKED: ENDBRANCH   6   9
DOCKED: ENDBRANCH   1   6
DOCKED: BRANCH   5  25
DOCKED: ATOM     25  C   UNL     1     139.448  78.007 220.573 -0.08 -0.05    +0.185 C  
DOCKED: BRANCH  25  26
DOCKED: ATOM     26  O   UNL     1     138.681  78.176 221.748 -0.07 +0.08    -0.375 OA 
DOCKED: BRANCH  26  27
DOCKED: ATOM     27  C   UNL     1     138.769  79.510 222.207 -0.16 -0.04    +0.195 C  
DOCKED: BRANCH  27  28
DOCKED: ATOM     28  C   UNL     1     140.185  79.832 222.602 -0.34 +0.00    -0.022 A  
DOCKED: ATOM     29  C   UNL     1     140.843  80.929 222.020 -0.37 -0.00    +0.006 A  
DOCKED: ATOM     30  C   UNL     1     140.875  79.019 223.517 -0.52 -0.00    +0.006 A  
DOCKED: ATOM     31  C   UNL     1     142.171  81.211 222.357 -0.49 -0.00    +0.000 A  
DOCKED: ATOM     32  C   UNL     1     142.202  79.306 223.851 -0.58 -0.00    +0.000 A  
DOCKED: ATOM     33  C   UNL     1     142.850  80.401 223.271 -0.67 -0.00    +0.000 A  
DOCKED: ENDBRANCH  27  28
DOCKED: ENDBRANCH  26  27
DOCKED: ENDBRANCH  25  26
DOCKED: ENDBRANCH   5  25
DOCKED: BRANCH   3  34
DOCKED: ATOM     34  O   UNL     1     143.682  76.900 218.976 -0.20 +0.30    -0.391 OA 
DOCKED: ATOM     35  H   UNL     1     144.127  77.436 219.683 -0.48 -0.24    +0.211 HD 
DOCKED: ENDBRANCH   3  34
DOCKED: TORSDOF 10
DOCKED: TER
DOCKED: ENDMDL
________________________________________________________________________________


    FINAL DOCKED STATE:
    ________________________


Run:   11 / 20
Time taken for this run:   0.131s

DOCKED: MODEL        11
DOCKED: USER    Run = 11
DOCKED: USER
DOCKED: USER    Estimated Free Energy of Binding    =  -8.16 kcal/mol  [=(1)+(2)+(3)-(4)]
DOCKED: USER
DOCKED: USER    (1) Final Intermolecular Energy     = -11.15 kcal/mol
DOCKED: USER        vdW + Hbond + desolv Energy     = -11.06 kcal/mol
DOCKED: USER        Electrostatic Energy            =  -0.09 kcal/mol
DOCKED: USER        Moving Ligand-Fixed Receptor    = -11.15 kcal/mol
DOCKED: USER        Moving Ligand-Moving Receptor   =  +0.00 kcal/mol
DOCKED: USER    (2) Final Total Internal Energy     =  -2.21 kcal/mol
DOCKED: USER    (3) Torsional Free Energy           =  +2.98 kcal/mol
DOCKED: USER    (4) Unbound System's Energy         =  -2.21 kcal/mol
DOCKED: USER
DOCKED: USER
DOCKED: REMARK SMILES O=C(N/C=C(/O)N1C[C@H](O)C[C@H]1COCc1ccccc1)c1ccc2cc(Cl)ccc2n1
DOCKED: REMARK SMILES IDX 7 1 8 2 9 3 11 4 12 5 5 6 6 7 4 9 3 10 2 11 1 13 22 14 32 15
DOCKED: REMARK SMILES IDX 23 16 31 17 24 18 30 19 25 20 29 21 26 22 27 23 28 24 13 25
DOCKED: REMARK SMILES IDX 14 26 15 27 16 28 17 29 21 30 18 31 20 32 19 33 10 34
DOCKED: REMARK H PARENT 6 8 3 12 10 35
DOCKED: USER                              x       y       z     vdW  Elec       q    Type
DOCKED: USER                           _______ _______ _______ _____ _____    ______ ____
DOCKED: ROOT
DOCKED: ATOM      1  N   UNL     1     140.982  75.201 219.493 -0.02 +0.10    -0.334 N  
DOCKED: ATOM      2  C   UNL     1     141.481  75.353 218.139 -0.06 -0.05    +0.151 C  
DOCKED: ATOM      3  C   UNL     1     142.829  76.057 218.278 -0.21 -0.07    +0.136 C  
DOCKED: ATOM      4  C   UNL     1     143.230  75.887 219.747 -0.35 -0.04    +0.061 C  
DOCKED: ATOM      5  C   UNL     1     141.918  75.673 220.507 -0.23 -0.05    +0.113 C  
DOCKED: ENDROOT
DOCKED: BRANCH   1   6
DOCKED: ATOM      6  C   UNL     1     139.670  74.687 219.775 -0.05 -0.05    +0.204 C  
DOCKED: BRANCH   6   7
DOCKED: ATOM      7  O   UNL     1     138.952  74.056 218.763 +0.01 +0.10    -0.494 OA 
DOCKED: ATOM      8  H   UNL     1     138.694  73.081 218.837 +0.02 -0.06    +0.295 HD 
DOCKED: ENDBRANCH   6   7
DOCKED: BRANCH   6   9
DOCKED: ATOM      9  C   UNL     1     139.116  74.802 220.986 -0.15 -0.03    +0.152 C  
DOCKED: BRANCH   9  10
DOCKED: ATOM     10  N   UNL     1     139.367  73.852 222.033 -0.14 +0.06    -0.322 N  
DOCKED: ATOM     11  C   UNL     1     139.416  72.440 221.782 -0.15 -0.05    +0.273 C  
DOCKED: ATOM     12  H   UNL     1     139.546  74.199 223.002 -0.48 -0.02    +0.169 HD 
DOCKED: ATOM     13  O   UNL     1     139.303  72.006 220.602 -0.04 +0.05    -0.267 OA 
DOCKED: BRANCH  11  14
DOCKED: ATOM     14  C   UNL     1     139.583  71.488 222.902 -0.26 -0.03    +0.129 A  
DOCKED: ATOM     15  N   UNL     1     140.145  71.914 224.068 -0.26 +0.04    -0.243 NA 
DOCKED: ATOM     16  C   UNL     1     139.155  70.154 222.792 -0.21 -0.01    +0.035 A  
DOCKED: ATOM     17  C   UNL     1     140.313  71.090 225.136 -0.48 -0.01    +0.071 A  
DOCKED: ATOM     18  C   UNL     1     139.313  69.284 223.874 -0.27 -0.00    +0.013 A  
DOCKED: ATOM     19  C   UNL     1     140.897  71.575 226.312 -0.65 -0.00    +0.030 A  
DOCKED: ATOM     20  C   UNL     1     139.895  69.744 225.060 -0.41 -0.00    +0.002 A  
DOCKED: ATOM     21  C   UNL     1     141.068  70.726 227.410 -0.63 -0.00    +0.023 A  
DOCKED: ATOM     22  C   UNL     1     140.069  68.897 226.166 -0.51 -0.01    +0.030 A  
DOCKED: ATOM     23  C   UNL     1     140.658  69.389 227.338 -0.57 -0.01    +0.041 A  
DOCKED: ATOM     24  Cl  UNL     1     140.876  68.330 228.718 -0.69 +0.02    -0.084 Cl 
DOCKED: ENDBRANCH  11  14
DOCKED: ENDBRANCH   9  10
DOCKED: ENDBRANCH   6   9
DOCKED: ENDBRANCH   1   6
DOCKED: BRANCH   5  25
DOCKED: ATOM     25  C   UNL     1     141.414  76.976 221.145 -0.18 -0.10    +0.185 C  
DOCKED: BRANCH  25  26
DOCKED: ATOM     26  O   UNL     1     140.734  76.678 222.348 -0.27 +0.12    -0.375 OA 
DOCKED: BRANCH  26  27
DOCKED: ATOM     27  C   UNL     1     139.887  77.750 222.714 -0.22 -0.04    +0.195 C  
DOCKED: BRANCH  27  28
DOCKED: ATOM     28  C   UNL     1     140.697  78.995 222.954 -0.45 +0.01    -0.022 A  
DOCKED: ATOM     29  C   UNL     1     141.864  78.934 223.734 -0.61 -0.00    +0.006 A  
DOCKED: ATOM     30  C   UNL     1     140.274  80.232 222.441 -0.34 -0.00    +0.006 A  
DOCKED: ATOM     31  C   UNL     1     142.600  80.095 223.990 -0.58 -0.00    +0.000 A  
DOCKED: ATOM     32  C   UNL     1     141.014  81.391 222.698 -0.44 -0.00    +0.000 A  
DOCKED: ATOM     33  C   UNL     1     142.176  81.322 223.472 -0.60 -0.00    +0.000 A  
DOCKED: ENDBRANCH  27  28
DOCKED: ENDBRANCH  26  27
DOCKED: ENDBRANCH  25  26
DOCKED: ENDBRANCH   5  25
DOCKED: BRANCH   3  34
DOCKED: ATOM     34  O   UNL     1     143.778  75.485 217.419 -0.11 +0.20    -0.391 OA 
DOCKED: ATOM     35  H   UNL     1     144.662  75.612 217.852 -0.46 -0.17    +0.211 HD 
DOCKED: ENDBRANCH   3  34
DOCKED: TORSDOF 10
DOCKED: TER
DOCKED: ENDMDL
________________________________________________________________________________


    FINAL DOCKED STATE:
    ________________________


Run:   12 / 20
Time taken for this run:   0.131s

DOCKED: MODEL        12
DOCKED: USER    Run = 12
DOCKED: USER
DOCKED: USER    Estimated Free Energy of Binding    =  -8.63 kcal/mol  [=(1)+(2)+(3)-(4)]
DOCKED: USER
DOCKED: USER    (1) Final Intermolecular Energy     = -11.62 kcal/mol
DOCKED: USER        vdW + Hbond + desolv Energy     = -11.39 kcal/mol
DOCKED: USER        Electrostatic Energy            =  -0.23 kcal/mol
DOCKED: USER        Moving Ligand-Fixed Receptor    = -11.62 kcal/mol
DOCKED: USER        Moving Ligand-Moving Receptor   =  +0.00 kcal/mol
DOCKED: USER    (2) Final Total Internal Energy     =  -2.48 kcal/mol
DOCKED: USER    (3) Torsional Free Energy           =  +2.98 kcal/mol
DOCKED: USER    (4) Unbound System's Energy         =  -2.48 kcal/mol
DOCKED: USER
DOCKED: USER
DOCKED: REMARK SMILES O=C(N/C=C(/O)N1C[C@H](O)C[C@H]1COCc1ccccc1)c1ccc2cc(Cl)ccc2n1
DOCKED: REMARK SMILES IDX 7 1 8 2 9 3 11 4 12 5 5 6 6 7 4 9 3 10 2 11 1 13 22 14 32 15
DOCKED: REMARK SMILES IDX 23 16 31 17 24 18 30 19 25 20 29 21 26 22 27 23 28 24 13 25
DOCKED: REMARK SMILES IDX 14 26 15 27 16 28 17 29 21 30 18 31 20 32 19 33 10 34
DOCKED: REMARK H PARENT 6 8 3 12 10 35
DOCKED: USER                              x       y       z     vdW  Elec       q    Type
DOCKED: USER                           _______ _______ _______ _____ _____    ______ ____
DOCKED: ROOT
DOCKED: ATOM      1  N   UNL     1     137.487  70.152 223.694 -0.09 +0.05    -0.334 N  
DOCKED: ATOM      2  C   UNL     1     138.107  71.413 224.058 -0.00 -0.04    +0.151 C  
DOCKED: ATOM      3  C   UNL     1     139.529  71.342 223.507 -0.29 -0.03    +0.136 C  
DOCKED: ATOM      4  C   UNL     1     139.513  70.208 222.476 -0.18 -0.01    +0.061 C  
DOCKED: ATOM      5  C   UNL     1     138.352  69.298 222.887 -0.18 -0.02    +0.113 C  
DOCKED: ENDROOT
DOCKED: BRANCH   1   6
DOCKED: ATOM      6  C   UNL     1     136.173  69.784 224.144 -0.15 -0.02    +0.204 C  
DOCKED: BRANCH   6   7
DOCKED: ATOM      7  O   UNL     1     136.029  68.728 225.039 -0.17 -0.01    -0.494 OA 
DOCKED: ATOM      8  H   UNL     1     135.276  68.717 225.715 +0.13 -0.01    +0.295 HD 
DOCKED: ENDBRANCH   6   7
DOCKED: BRANCH   6   9
DOCKED: ATOM      9  C   UNL     1     135.080  70.428 223.721 -0.10 -0.02    +0.152 C  
DOCKED: BRANCH   9  10
DOCKED: ATOM     10  N   UNL     1     134.538  71.555 224.426 -0.06 +0.04    -0.322 N  
DOCKED: ATOM     11  C   UNL     1     133.949  71.426 225.729 -0.17 -0.02    +0.273 C  
DOCKED: ATOM     12  H   UNL     1     134.598  72.503 223.991 +0.04 -0.02    +0.169 HD 
DOCKED: ATOM     13  O   UNL     1     133.958  70.307 226.314 -0.33 +0.01    -0.267 OA 
DOCKED: BRANCH  11  14
DOCKED: ATOM     14  C   UNL     1     133.317  72.592 226.382 -0.30 -0.01    +0.129 A  
DOCKED: ATOM     15  N   UNL     1     133.863  73.830 226.220 -0.69 -0.02    -0.243 NA 
DOCKED: ATOM     16  C   UNL     1     132.151  72.451 227.154 -0.39 -0.01    +0.035 A  
DOCKED: ATOM     17  C   UNL     1     133.321  74.942 226.784 -0.29 +0.00    +0.071 A  
DOCKED: ATOM     18  C   UNL     1     131.570  73.575 227.744 -0.37 -0.00    +0.013 A  
DOCKED: ATOM     19  C   UNL     1     133.920  76.192 226.589 -0.38 -0.00    +0.030 A  
DOCKED: ATOM     20  C   UNL     1     132.150  74.836 227.565 -0.42 -0.00    +0.002 A  
DOCKED: ATOM     21  C   UNL     1     133.360  77.335 227.170 -0.33 -0.00    +0.023 A  
DOCKED: ATOM     22  C   UNL     1     131.594  75.987 228.146 -0.26 +0.00    +0.030 A  
DOCKED: ATOM     23  C   UNL     1     132.201  77.233 227.949 -0.32 +0.00    +0.041 A  
DOCKED: ATOM     24  Cl  UNL     1     131.506  78.670 228.675 -0.33 -0.02    -0.084 Cl 
DOCKED: ENDBRANCH  11  14
DOCKED: ENDBRANCH   9  10
DOCKED: ENDBRANCH   6   9
DOCKED: ENDBRANCH   1   6
DOCKED: BRANCH   5  25
DOCKED: ATOM     25  C   UNL     1     138.839  68.093 223.706 -0.19 -0.02    +0.185 C  
DOCKED: BRANCH  25  26
DOCKED: ATOM     26  O   UNL     1     138.661  68.358 225.083 -0.46 +0.01    -0.375 OA 
DOCKED: BRANCH  26  27
DOCKED: ATOM     27  C   UNL     1     139.883  68.203 225.777 -0.41 -0.03    +0.195 C  
DOCKED: BRANCH  27  28
DOCKED: ATOM     28  C   UNL     1     140.248  69.480 226.483 -0.52 +0.00    -0.022 A  
DOCKED: ATOM     29  C   UNL     1     139.647  69.798 227.713 -0.58 -0.00    +0.006 A  
DOCKED: ATOM     30  C   UNL     1     141.153  70.384 225.902 -0.56 -0.00    +0.006 A  
DOCKED: ATOM     31  C   UNL     1     139.956  71.001 228.356 -0.63 -0.00    +0.000 A  
DOCKED: ATOM     32  C   UNL     1     141.459  71.586 226.550 -0.68 -0.00    +0.000 A  
DOCKED: ATOM     33  C   UNL     1     140.862  71.894 227.775 -0.84 -0.00    +0.000 A  
DOCKED: ENDBRANCH  27  28
DOCKED: ENDBRANCH  26  27
DOCKED: ENDBRANCH  25  26
DOCKED: ENDBRANCH   5  25
DOCKED: BRANCH   3  34
DOCKED: ATOM     34  O   UNL     1     139.895  72.562 222.920 -0.44 +0.07    -0.391 OA 
DOCKED: ATOM     35  H   UNL     1     139.179  73.210 223.150 -0.44 -0.10    +0.211 HD 
DOCKED: ENDBRANCH   3  34
DOCKED: TORSDOF 10
DOCKED: TER
DOCKED: ENDMDL
________________________________________________________________________________


    FINAL DOCKED STATE:
    ________________________


Run:   13 / 20
Time taken for this run:   0.131s

DOCKED: MODEL        13
DOCKED: USER    Run = 13
DOCKED: USER
DOCKED: USER    Estimated Free Energy of Binding    =  -7.18 kcal/mol  [=(1)+(2)+(3)-(4)]
DOCKED: USER
DOCKED: USER    (1) Final Intermolecular Energy     = -10.16 kcal/mol
DOCKED: USER        vdW + Hbond + desolv Energy     = -10.07 kcal/mol
DOCKED: USER        Electrostatic Energy            =  -0.10 kcal/mol
DOCKED: USER        Moving Ligand-Fixed Receptor    = -10.16 kcal/mol
DOCKED: USER        Moving Ligand-Moving Receptor   =  +0.00 kcal/mol
DOCKED: USER    (2) Final Total Internal Energy     =  -2.76 kcal/mol
DOCKED: USER    (3) Torsional Free Energy           =  +2.98 kcal/mol
DOCKED: USER    (4) Unbound System's Energy         =  -2.76 kcal/mol
DOCKED: USER
DOCKED: USER
DOCKED: REMARK SMILES O=C(N/C=C(/O)N1C[C@H](O)C[C@H]1COCc1ccccc1)c1ccc2cc(Cl)ccc2n1
DOCKED: REMARK SMILES IDX 7 1 8 2 9 3 11 4 12 5 5 6 6 7 4 9 3 10 2 11 1 13 22 14 32 15
DOCKED: REMARK SMILES IDX 23 16 31 17 24 18 30 19 25 20 29 21 26 22 27 23 28 24 13 25
DOCKED: REMARK SMILES IDX 14 26 15 27 16 28 17 29 21 30 18 31 20 32 19 33 10 34
DOCKED: REMARK H PARENT 6 8 3 12 10 35
DOCKED: USER                              x       y       z     vdW  Elec       q    Type
DOCKED: USER                           _______ _______ _______ _____ _____    ______ ____
DOCKED: ROOT
DOCKED: ATOM      1  N   UNL     1     139.820  77.343 220.388 -0.02 +0.10    -0.334 N  
DOCKED: ATOM      2  C   UNL     1     138.877  78.406 220.680 -0.08 -0.04    +0.151 C  
DOCKED: ATOM      3  C   UNL     1     138.996  79.386 219.516 -0.04 -0.04    +0.136 C  
DOCKED: ATOM      4  C   UNL     1     139.699  78.611 218.397 -0.04 -0.02    +0.061 C  
DOCKED: ATOM      5  C   UNL     1     140.486  77.502 219.100 -0.09 -0.04    +0.113 C  
DOCKED: ENDROOT
DOCKED: BRANCH   1   6
DOCKED: ATOM      6  C   UNL     1     140.092  76.281 221.317 -0.22 -0.05    +0.204 C  
DOCKED: BRANCH   6   7
DOCKED: ATOM      7  O   UNL     1     141.091  76.449 222.273 -0.20 +0.18    -0.494 OA 
DOCKED: ATOM      8  H   UNL     1     142.057  76.574 222.000 -0.43 -0.26    +0.295 HD 
DOCKED: ENDBRANCH   6   7
DOCKED: BRANCH   6   9
DOCKED: ATOM      9  C   UNL     1     139.413  75.129 221.287 -0.20 -0.03    +0.152 C  
DOCKED: BRANCH   9  10
DOCKED: ATOM     10  N   UNL     1     139.571  74.124 222.299 -0.11 +0.05    -0.322 N  
DOCKED: ATOM     11  C   UNL     1     139.846  72.753 221.973 -0.19 -0.04    +0.273 C  
DOCKED: ATOM     12  H   UNL     1     139.510  74.401 223.304 -0.48 -0.02    +0.169 HD 
DOCKED: ATOM     13  O   UNL     1     140.022  72.416 220.770 -0.08 +0.05    -0.267 OA 
DOCKED: BRANCH  11  14
DOCKED: ATOM     14  C   UNL     1     139.907  71.730 223.040 -0.29 -0.02    +0.129 A  
DOCKED: ATOM     15  N   UNL     1     140.404  72.064 224.263 -0.18 +0.04    -0.243 NA 
DOCKED: ATOM     16  C   UNL     1     139.445  70.421 222.819 -0.22 -0.01    +0.035 A  
DOCKED: ATOM     17  C   UNL     1     140.475  71.172 225.287 -0.50 -0.01    +0.071 A  
DOCKED: ATOM     18  C   UNL     1     139.503  69.483 223.852 -0.26 -0.00    +0.013 A  
DOCKED: ATOM     19  C   UNL     1     140.995  71.564 226.526 -0.69 -0.00    +0.030 A  
DOCKED: ATOM     20  C   UNL     1     140.019  69.849 225.100 -0.42 -0.00    +0.002 A  
DOCKED: ATOM     21  C   UNL     1     141.064  70.644 227.577 -0.63 -0.00    +0.023 A  
DOCKED: ATOM     22  C   UNL     1     140.093  68.931 226.159 -0.51 -0.01    +0.030 A  
DOCKED: ATOM     23  C   UNL     1     140.618  69.330 227.395 -0.58 -0.01    +0.041 A  
DOCKED: ATOM     24  Cl  UNL     1     140.711  68.182 228.718 -0.64 +0.02    -0.084 Cl 
DOCKED: ENDBRANCH  11  14
DOCKED: ENDBRANCH   9  10
DOCKED: ENDBRANCH   6   9
DOCKED: ENDBRANCH   1   6
DOCKED: BRANCH   5  25
DOCKED: ATOM     25  C   UNL     1     141.959  77.890 219.298 -0.21 -0.11    +0.185 C  
DOCKED: BRANCH  25  26
DOCKED: ATOM     26  O   UNL     1     142.602  76.912 220.090 -0.20 +0.27    -0.375 OA 
DOCKED: BRANCH  26  27
DOCKED: ATOM     27  C   UNL     1     143.547  76.196 219.319 -0.25 -0.13    +0.195 C  
DOCKED: BRANCH  27  28
DOCKED: ATOM     28  C   UNL     1     143.784  74.836 219.916 -0.40 +0.01    -0.022 A  
DOCKED: ATOM     29  C   UNL     1     145.037  74.520 220.468 -0.49 -0.00    +0.006 A  
DOCKED: ATOM     30  C   UNL     1     142.775  73.858 219.889 -0.25 -0.00    +0.006 A  
DOCKED: ATOM     31  C   UNL     1     145.273  73.245 220.991 -0.60 -0.00    +0.000 A  
DOCKED: ATOM     32  C   UNL     1     143.017  72.584 220.415 -0.28 -0.00    +0.000 A  
DOCKED: ATOM     33  C   UNL     1     144.264  72.278 220.966 -0.31 -0.00    +0.000 A  
DOCKED: ENDBRANCH  27  28
DOCKED: ENDBRANCH  26  27
DOCKED: ENDBRANCH  25  26
DOCKED: ENDBRANCH   5  25
DOCKED: BRANCH   3  34
DOCKED: ATOM     34  O   UNL     1     137.729  79.833 219.111 +0.00 +0.08    -0.391 OA 
DOCKED: ATOM     35  H   UNL     1     137.279  79.055 218.690 +0.00 -0.04    +0.211 HD 
DOCKED: ENDBRANCH   3  34
DOCKED: TORSDOF 10
DOCKED: TER
DOCKED: ENDMDL
________________________________________________________________________________


    FINAL DOCKED STATE:
    ________________________


Run:   14 / 20
Time taken for this run:   0.131s

DOCKED: MODEL        14
DOCKED: USER    Run = 14
DOCKED: USER
DOCKED: USER    Estimated Free Energy of Binding    =  -7.62 kcal/mol  [=(1)+(2)+(3)-(4)]
DOCKED: USER
DOCKED: USER    (1) Final Intermolecular Energy     = -10.60 kcal/mol
DOCKED: USER        vdW + Hbond + desolv Energy     = -10.57 kcal/mol
DOCKED: USER        Electrostatic Energy            =  -0.03 kcal/mol
DOCKED: USER        Moving Ligand-Fixed Receptor    = -10.60 kcal/mol
DOCKED: USER        Moving Ligand-Moving Receptor   =  +0.00 kcal/mol
DOCKED: USER    (2) Final Total Internal Energy     =  -2.60 kcal/mol
DOCKED: USER    (3) Torsional Free Energy           =  +2.98 kcal/mol
DOCKED: USER    (4) Unbound System's Energy         =  -2.60 kcal/mol
DOCKED: USER
DOCKED: USER
DOCKED: REMARK SMILES O=C(N/C=C(/O)N1C[C@H](O)C[C@H]1COCc1ccccc1)c1ccc2cc(Cl)ccc2n1
DOCKED: REMARK SMILES IDX 7 1 8 2 9 3 11 4 12 5 5 6 6 7 4 9 3 10 2 11 1 13 22 14 32 15
DOCKED: REMARK SMILES IDX 23 16 31 17 24 18 30 19 25 20 29 21 26 22 27 23 28 24 13 25
DOCKED: REMARK SMILES IDX 14 26 15 27 16 28 17 29 21 30 18 31 20 32 19 33 10 34
DOCKED: REMARK H PARENT 6 8 3 12 10 35
DOCKED: USER                              x       y       z     vdW  Elec       q    Type
DOCKED: USER                           _______ _______ _______ _____ _____    ______ ____
DOCKED: ROOT
DOCKED: ATOM      1  N   UNL     1     140.706  75.953 220.736 -0.10 +0.11    -0.334 N  
DOCKED: ATOM      2  C   UNL     1     140.374  76.057 222.145 -0.27 -0.03    +0.151 C  
DOCKED: ATOM      3  C   UNL     1     139.087  76.876 222.200 -0.26 -0.03    +0.136 C  
DOCKED: ATOM      4  C   UNL     1     138.512  76.835 220.780 -0.10 -0.01    +0.061 C  
DOCKED: ATOM      5  C   UNL     1     139.708  76.563 219.864 -0.07 -0.03    +0.113 C  
DOCKED: ENDROOT
DOCKED: BRANCH   1   6
DOCKED: ATOM      6  C   UNL     1     141.928  75.353 220.277 -0.20 -0.08    +0.204 C  
DOCKED: BRANCH   6   7
DOCKED: ATOM      7  O   UNL     1     143.038  76.159 220.043 -0.15 +0.33    -0.494 OA 
DOCKED: ATOM      8  H   UNL     1     143.145  77.048 220.514 -0.26 -0.30    +0.295 HD 
DOCKED: ENDBRANCH   6   7
DOCKED: BRANCH   6   9
DOCKED: ATOM      9  C   UNL     1     142.027  74.036 220.064 -0.17 -0.04    +0.152 C  
DOCKED: BRANCH   9  10
DOCKED: ATOM     10  N   UNL     1     141.779  73.075 221.101 -0.12 +0.04    -0.322 N  
DOCKED: ATOM     11  C   UNL     1     140.459  72.824 221.606 -0.18 -0.03    +0.273 C  
DOCKED: ATOM     12  H   UNL     1     142.578  72.520 221.481 +0.07 -0.01    +0.169 HD 
DOCKED: ATOM     13  O   UNL     1     139.467  73.410 221.090 -0.12 +0.05    -0.267 OA 
DOCKED: BRANCH  11  14
DOCKED: ATOM     14  C   UNL     1     140.256  71.896 222.739 -0.28 -0.02    +0.129 A  
DOCKED: ATOM     15  N   UNL     1     140.700  72.244 223.980 -0.13 +0.02    -0.243 NA 
DOCKED: ATOM     16  C   UNL     1     139.597  70.667 222.564 -0.22 -0.01    +0.035 A  
DOCKED: ATOM     17  C   UNL     1     140.532  71.439 225.063 -0.48 -0.01    +0.071 A  
DOCKED: ATOM     18  C   UNL     1     139.409  69.820 223.659 -0.27 -0.00    +0.013 A  
DOCKED: ATOM     19  C   UNL     1     141.007  71.841 226.316 -0.65 -0.00    +0.030 A  
DOCKED: ATOM     20  C   UNL     1     139.875  70.198 224.923 -0.43 -0.00    +0.002 A  
DOCKED: ATOM     21  C   UNL     1     140.832  71.012 227.430 -0.69 -0.00    +0.023 A  
DOCKED: ATOM     22  C   UNL     1     139.703  69.371 226.044 -0.46 -0.00    +0.030 A  
DOCKED: ATOM     23  C   UNL     1     140.185  69.778 227.294 -0.56 -0.01    +0.041 A  
DOCKED: ATOM     24  Cl  UNL     1     139.970  68.744 228.694 -0.54 +0.01    -0.084 Cl 
DOCKED: ENDBRANCH  11  14
DOCKED: ENDBRANCH   9  10
DOCKED: ENDBRANCH   6   9
DOCKED: ENDBRANCH   1   6
DOCKED: BRANCH   5  25
DOCKED: ATOM     25  C   UNL     1     140.253  77.859 219.244 -0.06 -0.07    +0.185 C  
DOCKED: BRANCH  25  26
DOCKED: ATOM     26  O   UNL     1     141.450  78.227 219.900 -0.11 +0.20    -0.375 OA 
DOCKED: BRANCH  26  27
DOCKED: ATOM     27  C   UNL     1     141.510  79.630 220.064 -0.21 -0.10    +0.195 C  
DOCKED: BRANCH  27  28
DOCKED: ATOM     28  C   UNL     1     141.729  79.976 221.512 -0.41 +0.01    -0.022 A  
DOCKED: ATOM     29  C   UNL     1     141.790  81.323 221.910 -0.46 -0.00    +0.006 A  
DOCKED: ATOM     30  C   UNL     1     141.916  78.964 222.468 -0.51 -0.00    +0.006 A  
DOCKED: ATOM     31  C   UNL     1     142.028  81.649 223.249 -0.49 -0.00    +0.000 A  
DOCKED: ATOM     32  C   UNL     1     142.154  79.296 223.806 -0.59 -0.00    +0.000 A  
DOCKED: ATOM     33  C   UNL     1     142.210  80.638 224.196 -0.51 -0.00    +0.000 A  
DOCKED: ENDBRANCH  27  28
DOCKED: ENDBRANCH  26  27
DOCKED: ENDBRANCH  25  26
DOCKED: ENDBRANCH   5  25
DOCKED: BRANCH   3  34
DOCKED: ATOM     34  O   UNL     1     138.191  76.329 223.131 -0.18 +0.09    -0.391 OA 
DOCKED: ATOM     35  H   UNL     1     138.341  75.348 223.123 -0.40 -0.09    +0.211 HD 
DOCKED: ENDBRANCH   3  34
DOCKED: TORSDOF 10
DOCKED: TER
DOCKED: ENDMDL
________________________________________________________________________________


    FINAL DOCKED STATE:
    ________________________


Run:   15 / 20
Time taken for this run:   0.131s

DOCKED: MODEL        15
DOCKED: USER    Run = 15
DOCKED: USER
DOCKED: USER    Estimated Free Energy of Binding    =  -8.51 kcal/mol  [=(1)+(2)+(3)-(4)]
DOCKED: USER
DOCKED: USER    (1) Final Intermolecular Energy     = -11.50 kcal/mol
DOCKED: USER        vdW + Hbond + desolv Energy     = -11.28 kcal/mol
DOCKED: USER        Electrostatic Energy            =  -0.22 kcal/mol
DOCKED: USER        Moving Ligand-Fixed Receptor    = -11.50 kcal/mol
DOCKED: USER        Moving Ligand-Moving Receptor   =  +0.00 kcal/mol
DOCKED: USER    (2) Final Total Internal Energy     =  -2.52 kcal/mol
DOCKED: USER    (3) Torsional Free Energy           =  +2.98 kcal/mol
DOCKED: USER    (4) Unbound System's Energy         =  -2.52 kcal/mol
DOCKED: USER
DOCKED: USER
DOCKED: REMARK SMILES O=C(N/C=C(/O)N1C[C@H](O)C[C@H]1COCc1ccccc1)c1ccc2cc(Cl)ccc2n1
DOCKED: REMARK SMILES IDX 7 1 8 2 9 3 11 4 12 5 5 6 6 7 4 9 3 10 2 11 1 13 22 14 32 15
DOCKED: REMARK SMILES IDX 23 16 31 17 24 18 30 19 25 20 29 21 26 22 27 23 28 24 13 25
DOCKED: REMARK SMILES IDX 14 26 15 27 16 28 17 29 21 30 18 31 20 32 19 33 10 34
DOCKED: REMARK H PARENT 6 8 3 12 10 35
DOCKED: USER                              x       y       z     vdW  Elec       q    Type
DOCKED: USER                           _______ _______ _______ _____ _____    ______ ____
DOCKED: ROOT
DOCKED: ATOM      1  N   UNL     1     137.326  70.134 223.609 -0.08 +0.05    -0.334 N  
DOCKED: ATOM      2  C   UNL     1     137.771  71.495 223.844 -0.09 -0.04    +0.151 C  
DOCKED: ATOM      3  C   UNL     1     139.249  71.511 223.461 -0.26 -0.03    +0.136 C  
DOCKED: ATOM      4  C   UNL     1     139.468  70.252 222.615 -0.19 -0.01    +0.061 C  
DOCKED: ATOM      5  C   UNL     1     138.361  69.281 223.033 -0.19 -0.02    +0.113 C  
DOCKED: ENDROOT
DOCKED: BRANCH   1   6
DOCKED: ATOM      6  C   UNL     1     136.010  69.684 223.968 -0.14 -0.02    +0.204 C  
DOCKED: BRANCH   6   7
DOCKED: ATOM      7  O   UNL     1     135.870  68.573 224.795 -0.23 -0.03    -0.494 OA 
DOCKED: ATOM      8  H   UNL     1     136.338  68.529 225.691 +0.16 +0.00    +0.295 HD 
DOCKED: ENDBRANCH   6   7
DOCKED: BRANCH   6   9
DOCKED: ATOM      9  C   UNL     1     134.910  70.302 223.523 -0.08 -0.02    +0.152 C  
DOCKED: BRANCH   9  10
DOCKED: ATOM     10  N   UNL     1     134.341  71.430 224.205 -0.04 +0.04    -0.322 N  
DOCKED: ATOM     11  C   UNL     1     134.159  71.445 225.629 -0.15 -0.02    +0.273 C  
DOCKED: ATOM     12  H   UNL     1     134.076  72.276 223.654 +0.04 -0.02    +0.169 HD 
DOCKED: ATOM     13  O   UNL     1     134.565  70.473 226.325 -0.25 +0.01    -0.267 OA 
DOCKED: BRANCH  11  14
DOCKED: ATOM     14  C   UNL     1     133.482  72.586 226.283 -0.29 -0.00    +0.129 A  
DOCKED: ATOM     15  N   UNL     1     134.012  73.836 226.169 -0.69 -0.02    -0.243 NA 
DOCKED: ATOM     16  C   UNL     1     132.291  72.408 227.008 -0.38 -0.00    +0.035 A  
DOCKED: ATOM     17  C   UNL     1     133.431  74.926 226.737 -0.26 +0.01    +0.071 A  
DOCKED: ATOM     18  C   UNL     1     131.670  73.509 227.601 -0.42 -0.00    +0.013 A  
DOCKED: ATOM     19  C   UNL     1     134.014  76.189 226.591 -0.37 -0.00    +0.030 A  
DOCKED: ATOM     20  C   UNL     1     132.234  74.783 227.471 -0.41 -0.00    +0.002 A  
DOCKED: ATOM     21  C   UNL     1     133.413  77.310 227.175 -0.33 -0.00    +0.023 A  
DOCKED: ATOM     22  C   UNL     1     131.636  75.911 228.055 -0.30 +0.00    +0.030 A  
DOCKED: ATOM     23  C   UNL     1     132.229  77.171 227.908 -0.32 +0.00    +0.041 A  
DOCKED: ATOM     24  Cl  UNL     1     131.481  78.580 228.638 -0.34 -0.02    -0.084 Cl 
DOCKED: ENDBRANCH  11  14
DOCKED: ENDBRANCH   9  10
DOCKED: ENDBRANCH   6   9
DOCKED: ENDBRANCH   1   6
DOCKED: BRANCH   5  25
DOCKED: ATOM     25  C   UNL     1     138.861  68.264 224.070 -0.21 -0.02    +0.185 C  
DOCKED: BRANCH  25  26
DOCKED: ATOM     26  O   UNL     1     138.480  68.685 225.364 -0.34 +0.02    -0.375 OA 
DOCKED: BRANCH  26  27
DOCKED: ATOM     27  C   UNL     1     139.541  68.490 226.278 -0.43 -0.03    +0.195 C  
DOCKED: BRANCH  27  28
DOCKED: ATOM     28  C   UNL     1     140.105  69.816 226.711 -0.53 +0.00    -0.022 A  
DOCKED: ATOM     29  C   UNL     1     140.987  70.513 225.867 -0.57 -0.00    +0.006 A  
DOCKED: ATOM     30  C   UNL     1     139.793  70.347 227.974 -0.60 -0.00    +0.006 A  
DOCKED: ATOM     31  C   UNL     1     141.542  71.728 226.281 -0.60 -0.00    +0.000 A  
DOCKED: ATOM     32  C   UNL     1     140.350  71.563 228.382 -0.71 -0.00    +0.000 A  
DOCKED: ATOM     33  C   UNL     1     141.224  72.253 227.536 -0.83 -0.00    +0.000 A  
DOCKED: ENDBRANCH  27  28
DOCKED: ENDBRANCH  26  27
DOCKED: ENDBRANCH  25  26
DOCKED: ENDBRANCH   5  25
DOCKED: BRANCH   3  34
DOCKED: ATOM     34  O   UNL     1     139.562  72.673 222.740 -0.37 +0.09    -0.391 OA 
DOCKED: ATOM     35  H   UNL     1     138.959  73.385 223.080 -0.48 -0.11    +0.211 HD 
DOCKED: ENDBRANCH   3  34
DOCKED: TORSDOF 10
DOCKED: TER
DOCKED: ENDMDL
________________________________________________________________________________


    FINAL DOCKED STATE:
    ________________________


Run:   16 / 20
Time taken for this run:   0.131s

DOCKED: MODEL        16
DOCKED: USER    Run = 16
DOCKED: USER
DOCKED: USER    Estimated Free Energy of Binding    =  -5.80 kcal/mol  [=(1)+(2)+(3)-(4)]
DOCKED: USER
DOCKED: USER    (1) Final Intermolecular Energy     =  -8.78 kcal/mol
DOCKED: USER        vdW + Hbond + desolv Energy     =  -8.74 kcal/mol
DOCKED: USER        Electrostatic Energy            =  -0.04 kcal/mol
DOCKED: USER        Moving Ligand-Fixed Receptor    =  -8.78 kcal/mol
DOCKED: USER        Moving Ligand-Moving Receptor   =  +0.00 kcal/mol
DOCKED: USER    (2) Final Total Internal Energy     =  -4.14 kcal/mol
DOCKED: USER    (3) Torsional Free Energy           =  +2.98 kcal/mol
DOCKED: USER    (4) Unbound System's Energy         =  -4.14 kcal/mol
DOCKED: USER
DOCKED: USER
DOCKED: REMARK SMILES O=C(N/C=C(/O)N1C[C@H](O)C[C@H]1COCc1ccccc1)c1ccc2cc(Cl)ccc2n1
DOCKED: REMARK SMILES IDX 7 1 8 2 9 3 11 4 12 5 5 6 6 7 4 9 3 10 2 11 1 13 22 14 32 15
DOCKED: REMARK SMILES IDX 23 16 31 17 24 18 30 19 25 20 29 21 26 22 27 23 28 24 13 25
DOCKED: REMARK SMILES IDX 14 26 15 27 16 28 17 29 21 30 18 31 20 32 19 33 10 34
DOCKED: REMARK H PARENT 6 8 3 12 10 35
DOCKED: USER                              x       y       z     vdW  Elec       q    Type
DOCKED: USER                           _______ _______ _______ _____ _____    ______ ____
DOCKED: ROOT
DOCKED: ATOM      1  N   UNL     1     135.441  80.970 225.470 -0.10 +0.05    -0.334 N  
DOCKED: ATOM      2  C   UNL     1     134.979  81.169 226.831 -0.19 -0.03    +0.151 C  
DOCKED: ATOM      3  C   UNL     1     135.987  82.123 227.467 -0.37 -0.03    +0.136 C  
DOCKED: ATOM      4  C   UNL     1     136.743  82.762 226.297 -0.36 -0.00    +0.061 C  
DOCKED: ATOM      5  C   UNL     1     136.615  81.770 225.138 -0.29 -0.01    +0.113 C  
DOCKED: ENDROOT
DOCKED: BRANCH   1   6
DOCKED: ATOM      6  C   UNL     1     134.820  80.031 224.577 -0.10 -0.03    +0.204 C  
DOCKED: BRANCH   6   7
DOCKED: ATOM      7  O   UNL     1     133.934  79.086 225.088 -0.04 +0.06    -0.494 OA 
DOCKED: ATOM      8  H   UNL     1     134.027  78.106 224.856 +0.08 -0.03    +0.295 HD 
DOCKED: ENDBRANCH   6   7
DOCKED: BRANCH   6   9
DOCKED: ATOM      9  C   UNL     1     135.073  80.037 223.264 -0.09 -0.02    +0.152 C  
DOCKED: BRANCH   9  10
DOCKED: ATOM     10  N   UNL     1     136.208  79.360 222.703 -0.06 +0.04    -0.322 N  
DOCKED: ATOM     11  C   UNL     1     136.491  77.983 222.993 -0.07 -0.04    +0.273 C  
DOCKED: ATOM     12  H   UNL     1     136.832  79.876 222.044 +0.04 -0.03    +0.169 HD 
DOCKED: ATOM     13  O   UNL     1     135.694  77.314 223.707 -0.11 +0.04    -0.267 OA 
DOCKED: BRANCH  11  14
DOCKED: ATOM     14  C   UNL     1     137.722  77.348 222.472 -0.21 -0.02    +0.129 A  
DOCKED: ATOM     15  N   UNL     1     138.607  78.091 221.750 -0.09 +0.05    -0.243 NA 
DOCKED: ATOM     16  C   UNL     1     138.004  75.994 222.723 -0.27 -0.01    +0.035 A  
DOCKED: ATOM     17  C   UNL     1     139.761  77.568 221.256 -0.19 -0.02    +0.071 A  
DOCKED: ATOM     18  C   UNL     1     139.183  75.430 222.230 -0.30 -0.00    +0.013 A  
DOCKED: ATOM     19  C   UNL     1     140.637  78.373 220.519 -0.20 -0.01    +0.030 A  
DOCKED: ATOM     20  C   UNL     1     140.076  76.213 221.490 -0.31 -0.00    +0.002 A  
DOCKED: ATOM     21  C   UNL     1     141.824  77.832 220.014 -0.29 -0.01    +0.023 A  
DOCKED: ATOM     22  C   UNL     1     141.268  75.677 220.978 -0.30 -0.01    +0.030 A  
DOCKED: ATOM     23  C   UNL     1     142.138  76.487 220.239 -0.26 -0.02    +0.041 A  
DOCKED: ATOM     24  Cl  UNL     1     143.628  75.817 219.600 -0.46 +0.05    -0.084 Cl 
DOCKED: ENDBRANCH  11  14
DOCKED: ENDBRANCH   9  10
DOCKED: ENDBRANCH   6   9
DOCKED: ENDBRANCH   1   6
DOCKED: BRANCH   5  25
DOCKED: ATOM     25  C   UNL     1     137.860  80.878 225.017 -0.24 -0.02    +0.185 C  
DOCKED: BRANCH  25  26
DOCKED: ATOM     26  O   UNL     1     138.084  80.566 223.656 -0.17 +0.04    -0.375 OA 
DOCKED: BRANCH  26  27
DOCKED: ATOM     27  C   UNL     1     139.080  81.410 223.114 -0.11 -0.02    +0.195 C  
DOCKED: BRANCH  27  28
DOCKED: ATOM     28  C   UNL     1     140.417  80.721 223.138 -0.42 +0.00    -0.022 A  
DOCKED: ATOM     29  C   UNL     1     141.497  81.259 222.416 -0.48 -0.00    +0.006 A  
DOCKED: ATOM     30  C   UNL     1     140.588  79.517 223.842 -0.50 -0.00    +0.006 A  
DOCKED: ATOM     31  C   UNL     1     142.732  80.602 222.407 -0.53 -0.00    +0.000 A  
DOCKED: ATOM     32  C   UNL     1     141.825  78.865 223.829 -0.63 -0.00    +0.000 A  
DOCKED: ATOM     33  C   UNL     1     142.896  79.407 223.112 -0.53 -0.00    +0.000 A  
DOCKED: ENDBRANCH  27  28
DOCKED: ENDBRANCH  26  27
DOCKED: ENDBRANCH  25  26
DOCKED: ENDBRANCH   5  25
DOCKED: BRANCH   3  34
DOCKED: ATOM     34  O   UNL     1     135.331  83.091 228.243 -0.15 +0.02    -0.391 OA 
DOCKED: ATOM     35  H   UNL     1     135.873  83.204 229.067 -0.45 -0.02    +0.211 HD 
DOCKED: ENDBRANCH   3  34
DOCKED: TORSDOF 10
DOCKED: TER
DOCKED: ENDMDL
________________________________________________________________________________


    FINAL DOCKED STATE:
    ________________________


Run:   17 / 20
Time taken for this run:   0.131s

DOCKED: MODEL        17
DOCKED: USER    Run = 17
DOCKED: USER
DOCKED: USER    Estimated Free Energy of Binding    =  -8.04 kcal/mol  [=(1)+(2)+(3)-(4)]
DOCKED: USER
DOCKED: USER    (1) Final Intermolecular Energy     = -11.02 kcal/mol
DOCKED: USER        vdW + Hbond + desolv Energy     = -10.78 kcal/mol
DOCKED: USER        Electrostatic Energy            =  -0.24 kcal/mol
DOCKED: USER        Moving Ligand-Fixed Receptor    = -11.02 kcal/mol
DOCKED: USER        Moving Ligand-Moving Receptor   =  +0.00 kcal/mol
DOCKED: USER    (2) Final Total Internal Energy     =  -2.11 kcal/mol
DOCKED: USER    (3) Torsional Free Energy           =  +2.98 kcal/mol
DOCKED: USER    (4) Unbound System's Energy         =  -2.11 kcal/mol
DOCKED: USER
DOCKED: USER
DOCKED: REMARK SMILES O=C(N/C=C(/O)N1C[C@H](O)C[C@H]1COCc1ccccc1)c1ccc2cc(Cl)ccc2n1
DOCKED: REMARK SMILES IDX 7 1 8 2 9 3 11 4 12 5 5 6 6 7 4 9 3 10 2 11 1 13 22 14 32 15
DOCKED: REMARK SMILES IDX 23 16 31 17 24 18 30 19 25 20 29 21 26 22 27 23 28 24 13 25
DOCKED: REMARK SMILES IDX 14 26 15 27 16 28 17 29 21 30 18 31 20 32 19 33 10 34
DOCKED: REMARK H PARENT 6 8 3 12 10 35
DOCKED: USER                              x       y       z     vdW  Elec       q    Type
DOCKED: USER                           _______ _______ _______ _____ _____    ______ ____
DOCKED: ROOT
DOCKED: ATOM      1  N   UNL     1     142.482  73.968 219.370 -0.04 +0.09    -0.334 N  
DOCKED: ATOM      2  C   UNL     1     143.292  73.207 218.437 -0.08 -0.03    +0.151 C  
DOCKED: ATOM      3  C   UNL     1     144.733  73.633 218.709 -0.16 -0.02    +0.136 C  
DOCKED: ATOM      4  C   UNL     1     144.710  74.305 220.086 -0.39 -0.02    +0.061 C  
DOCKED: ATOM      5  C   UNL     1     143.271  74.793 220.278 -0.29 -0.05    +0.113 C  
DOCKED: ENDROOT
DOCKED: BRANCH   1   6
DOCKED: ATOM      6  C   UNL     1     141.046  73.936 219.343 -0.05 -0.05    +0.204 C  
DOCKED: BRANCH   6   7
DOCKED: ATOM      7  O   UNL     1     140.335  75.132 219.386 +0.01 +0.13    -0.494 OA 
DOCKED: ATOM      8  H   UNL     1     140.118  75.577 220.269 +0.08 -0.08    +0.295 HD 
DOCKED: ENDBRANCH   6   7
DOCKED: BRANCH   6   9
DOCKED: ATOM      9  C   UNL     1     140.370  72.783 219.281 -0.04 -0.03    +0.152 C  
DOCKED: BRANCH   9  10
DOCKED: ATOM     10  N   UNL     1     140.212  71.930 220.425 -0.03 +0.05    -0.322 N  
DOCKED: ATOM     11  C   UNL     1     140.125  72.453 221.758 -0.18 -0.04    +0.273 C  
DOCKED: ATOM     12  H   UNL     1     140.131  70.898 220.281 +0.03 -0.03    +0.169 HD 
DOCKED: ATOM     13  O   UNL     1     140.120  73.702 221.945 -0.74 +0.03    -0.267 OA 
DOCKED: BRANCH  11  14
DOCKED: ATOM     14  C   UNL     1     140.059  71.537 222.918 -0.28 -0.02    +0.129 A  
DOCKED: ATOM     15  N   UNL     1     140.583  71.927 224.113 -0.24 +0.03    -0.243 NA 
DOCKED: ATOM     16  C   UNL     1     139.449  70.275 222.814 -0.21 -0.01    +0.035 A  
DOCKED: ATOM     17  C   UNL     1     140.542  71.136 225.218 -0.50 -0.01    +0.071 A  
DOCKED: ATOM     18  C   UNL     1     139.390  69.440 223.932 -0.28 -0.00    +0.013 A  
DOCKED: ATOM     19  C   UNL     1     141.096  71.582 226.423 -0.68 -0.00    +0.030 A  
DOCKED: ATOM     20  C   UNL     1     139.937  69.863 225.149 -0.43 -0.00    +0.002 A  
DOCKED: ATOM     21  C   UNL     1     141.050  70.766 227.558 -0.64 -0.00    +0.023 A  
DOCKED: ATOM     22  C   UNL     1     139.895  69.049 226.292 -0.51 -0.00    +0.030 A  
DOCKED: ATOM     23  C   UNL     1     140.455  69.501 227.493 -0.58 -0.01    +0.041 A  
DOCKED: ATOM     24  Cl  UNL     1     140.404  68.483 228.920 -0.38 +0.02    -0.084 Cl 
DOCKED: ENDBRANCH  11  14
DOCKED: ENDBRANCH   9  10
DOCKED: ENDBRANCH   6   9
DOCKED: ENDBRANCH   1   6
DOCKED: BRANCH   5  25
DOCKED: ATOM     25  C   UNL     1     143.125  76.280 219.923 -0.15 -0.13    +0.185 C  
DOCKED: BRANCH  25  26
DOCKED: ATOM     26  O   UNL     1     141.910  76.772 220.451 -0.15 +0.22    -0.375 OA 
DOCKED: BRANCH  26  27
DOCKED: ATOM     27  C   UNL     1     141.781  78.155 220.184 -0.21 -0.12    +0.195 C  
DOCKED: BRANCH  27  28
DOCKED: ATOM     28  C   UNL     1     141.814  78.939 221.467 -0.39 +0.01    -0.022 A  
DOCKED: ATOM     29  C   UNL     1     141.454  78.321 222.677 -0.49 -0.00    +0.006 A  
DOCKED: ATOM     30  C   UNL     1     142.160  80.301 221.464 -0.43 -0.00    +0.006 A  
DOCKED: ATOM     31  C   UNL     1     141.449  79.056 223.867 -0.61 -0.00    +0.000 A  
DOCKED: ATOM     32  C   UNL     1     142.154  81.031 222.657 -0.55 -0.00    +0.000 A  
DOCKED: ATOM     33  C   UNL     1     141.799  80.409 223.857 -0.59 -0.00    +0.000 A  
DOCKED: ENDBRANCH  27  28
DOCKED: ENDBRANCH  26  27
DOCKED: ENDBRANCH  25  26
DOCKED: ENDBRANCH   5  25
DOCKED: BRANCH   3  34
DOCKED: ATOM     34  O   UNL     1     145.589  72.522 218.695 -0.68 -0.24    -0.391 OA 
DOCKED: ATOM     35  H   UNL     1     145.008  71.718 218.733 +0.09 +0.07    +0.211 HD 
DOCKED: ENDBRANCH   3  34
DOCKED: TORSDOF 10
DOCKED: TER
DOCKED: ENDMDL
________________________________________________________________________________


    FINAL DOCKED STATE:
    ________________________


Run:   18 / 20
Time taken for this run:   0.131s

DOCKED: MODEL        18
DOCKED: USER    Run = 18
DOCKED: USER
DOCKED: USER    Estimated Free Energy of Binding    =  -8.73 kcal/mol  [=(1)+(2)+(3)-(4)]
DOCKED: USER
DOCKED: USER    (1) Final Intermolecular Energy     = -11.72 kcal/mol
DOCKED: USER        vdW + Hbond + desolv Energy     = -11.54 kcal/mol
DOCKED: USER        Electrostatic Energy            =  -0.18 kcal/mol
DOCKED: USER        Moving Ligand-Fixed Receptor    = -11.72 kcal/mol
DOCKED: USER        Moving Ligand-Moving Receptor   =  +0.00 kcal/mol
DOCKED: USER    (2) Final Total Internal Energy     =  -1.44 kcal/mol
DOCKED: USER    (3) Torsional Free Energy           =  +2.98 kcal/mol
DOCKED: USER    (4) Unbound System's Energy         =  -1.44 kcal/mol
DOCKED: USER
DOCKED: USER
DOCKED: REMARK SMILES O=C(N/C=C(/O)N1C[C@H](O)C[C@H]1COCc1ccccc1)c1ccc2cc(Cl)ccc2n1
DOCKED: REMARK SMILES IDX 7 1 8 2 9 3 11 4 12 5 5 6 6 7 4 9 3 10 2 11 1 13 22 14 32 15
DOCKED: REMARK SMILES IDX 23 16 31 17 24 18 30 19 25 20 29 21 26 22 27 23 28 24 13 25
DOCKED: REMARK SMILES IDX 14 26 15 27 16 28 17 29 21 30 18 31 20 32 19 33 10 34
DOCKED: REMARK H PARENT 6 8 3 12 10 35
DOCKED: USER                              x       y       z     vdW  Elec       q    Type
DOCKED: USER                           _______ _______ _______ _____ _____    ______ ____
DOCKED: ROOT
DOCKED: ATOM      1  N   UNL     1     142.430  73.405 219.197 -0.02 +0.07    -0.334 N  
DOCKED: ATOM      2  C   UNL     1     143.599  73.286 218.345 -0.10 -0.02    +0.151 C  
DOCKED: ATOM      3  C   UNL     1     144.725  73.989 219.098 -0.05 -0.04    +0.136 C  
DOCKED: ATOM      4  C   UNL     1     144.241  74.103 220.548 -0.41 -0.02    +0.061 C  
DOCKED: ATOM      5  C   UNL     1     142.712  74.053 220.473 -0.25 -0.03    +0.113 C  
DOCKED: ENDROOT
DOCKED: BRANCH   1   6
DOCKED: ATOM      6  C   UNL     1     141.127  72.969 218.778 -0.02 -0.04    +0.204 C  
DOCKED: BRANCH   6   7
DOCKED: ATOM      7  O   UNL     1     140.929  72.581 217.456 +0.01 +0.10    -0.494 OA 
DOCKED: ATOM      8  H   UNL     1     140.083  72.102 217.175 +0.01 -0.06    +0.295 HD 
DOCKED: ENDBRANCH   6   7
DOCKED: BRANCH   6   9
DOCKED: ATOM      9  C   UNL     1     140.093  72.930 219.626 -0.04 -0.03    +0.152 C  
DOCKED: BRANCH   9  10
DOCKED: ATOM     10  N   UNL     1     140.042  72.008 220.724 -0.04 +0.05    -0.322 N  
DOCKED: ATOM     11  C   UNL     1     139.900  72.450 222.083 -0.19 -0.04    +0.273 C  
DOCKED: ATOM     12  H   UNL     1     140.082  70.982 220.529 +0.04 -0.03    +0.169 HD 
DOCKED: ATOM     13  O   UNL     1     139.749  73.678 222.331 -0.80 +0.03    -0.267 OA 
DOCKED: BRANCH  11  14
DOCKED: ATOM     14  C   UNL     1     139.947  71.475 223.195 -0.30 -0.02    +0.129 A  
DOCKED: ATOM     15  N   UNL     1     140.448  71.858 224.402 -0.27 +0.04    -0.243 NA 
DOCKED: ATOM     16  C   UNL     1     139.467  70.164 223.034 -0.23 -0.01    +0.035 A  
DOCKED: ATOM     17  C   UNL     1     140.507  71.013 225.466 -0.51 -0.01    +0.071 A  
DOCKED: ATOM     18  C   UNL     1     139.512  69.274 224.109 -0.28 -0.00    +0.013 A  
DOCKED: ATOM     19  C   UNL     1     141.032  71.454 226.685 -0.70 -0.00    +0.030 A  
DOCKED: ATOM     20  C   UNL     1     140.033  69.690 225.339 -0.44 -0.00    +0.002 A  
DOCKED: ATOM     21  C   UNL     1     141.089  70.583 227.778 -0.62 -0.00    +0.023 A  
DOCKED: ATOM     22  C   UNL     1     140.094  68.820 226.439 -0.54 -0.01    +0.030 A  
DOCKED: ATOM     23  C   UNL     1     140.624  69.268 227.656 -0.59 -0.01    +0.041 A  
DOCKED: ATOM     24  Cl  UNL     1     140.701  68.181 229.030 -0.38 +0.02    -0.084 Cl 
DOCKED: ENDBRANCH  11  14
DOCKED: ENDBRANCH   9  10
DOCKED: ENDBRANCH   6   9
DOCKED: ENDBRANCH   1   6
DOCKED: BRANCH   5  25
DOCKED: ATOM     25  C   UNL     1     142.097  75.461 220.512 -0.19 -0.08    +0.185 C  
DOCKED: BRANCH  25  26
DOCKED: ATOM     26  O   UNL     1     141.436  75.651 221.747 -0.27 +0.13    -0.375 OA 
DOCKED: BRANCH  26  27
DOCKED: ATOM     27  C   UNL     1     140.521  76.725 221.655 -0.27 -0.06    +0.195 C  
DOCKED: BRANCH  27  28
DOCKED: ATOM     28  C   UNL     1     141.175  78.006 222.097 -0.40 +0.01    -0.022 A  
DOCKED: ATOM     29  C   UNL     1     141.546  78.971 221.144 -0.35 -0.00    +0.006 A  
DOCKED: ATOM     30  C   UNL     1     141.461  78.231 223.455 -0.53 -0.00    +0.006 A  
DOCKED: ATOM     31  C   UNL     1     142.186  80.147 221.547 -0.45 -0.00    +0.000 A  
DOCKED: ATOM     32  C   UNL     1     142.101  79.410 223.852 -0.60 -0.00    +0.000 A  
DOCKED: ATOM     33  C   UNL     1     142.463  80.366 222.899 -0.63 -0.00    +0.000 A  
DOCKED: ENDBRANCH  27  28
DOCKED: ENDBRANCH  26  27
DOCKED: ENDBRANCH  25  26
DOCKED: ENDBRANCH   5  25
DOCKED: BRANCH   3  34
DOCKED: ATOM     34  O   UNL     1     145.915  73.252 219.012 -0.67 -0.18    -0.391 OA 
DOCKED: ATOM     35  H   UNL     1     146.646  73.912 218.888 -0.45 +0.07    +0.211 HD 
DOCKED: ENDBRANCH   3  34
DOCKED: TORSDOF 10
DOCKED: TER
DOCKED: ENDMDL
________________________________________________________________________________


    FINAL DOCKED STATE:
    ________________________


Run:   19 / 20
Time taken for this run:   0.131s

DOCKED: MODEL        19
DOCKED: USER    Run = 19
DOCKED: USER
DOCKED: USER    Estimated Free Energy of Binding    =  -8.32 kcal/mol  [=(1)+(2)+(3)-(4)]
DOCKED: USER
DOCKED: USER    (1) Final Intermolecular Energy     = -11.30 kcal/mol
DOCKED: USER        vdW + Hbond + desolv Energy     = -11.19 kcal/mol
DOCKED: USER        Electrostatic Energy            =  -0.11 kcal/mol
DOCKED: USER        Moving Ligand-Fixed Receptor    = -11.30 kcal/mol
DOCKED: USER        Moving Ligand-Moving Receptor   =  +0.00 kcal/mol
DOCKED: USER    (2) Final Total Internal Energy     =  -2.46 kcal/mol
DOCKED: USER    (3) Torsional Free Energy           =  +2.98 kcal/mol
DOCKED: USER    (4) Unbound System's Energy         =  -2.46 kcal/mol
DOCKED: USER
DOCKED: USER
DOCKED: REMARK SMILES O=C(N/C=C(/O)N1C[C@H](O)C[C@H]1COCc1ccccc1)c1ccc2cc(Cl)ccc2n1
DOCKED: REMARK SMILES IDX 7 1 8 2 9 3 11 4 12 5 5 6 6 7 4 9 3 10 2 11 1 13 22 14 32 15
DOCKED: REMARK SMILES IDX 23 16 31 17 24 18 30 19 25 20 29 21 26 22 27 23 28 24 13 25
DOCKED: REMARK SMILES IDX 14 26 15 27 16 28 17 29 21 30 18 31 20 32 19 33 10 34
DOCKED: REMARK H PARENT 6 8 3 12 10 35
DOCKED: USER                              x       y       z     vdW  Elec       q    Type
DOCKED: USER                           _______ _______ _______ _____ _____    ______ ____
DOCKED: ROOT
DOCKED: ATOM      1  N   UNL     1     137.971  70.166 223.163 -0.07 +0.06    -0.334 N  
DOCKED: ATOM      2  C   UNL     1     136.658  69.880 222.617 -0.09 -0.02    +0.151 C  
DOCKED: ATOM      3  C   UNL     1     135.964  69.010 223.662 -0.12 -0.01    +0.136 C  
DOCKED: ATOM      4  C   UNL     1     136.767  69.200 224.953 -0.19 -0.00    +0.061 C  
DOCKED: ATOM      5  C   UNL     1     138.167  69.627 224.504 -0.28 -0.01    +0.113 C  
DOCKED: ENDROOT
DOCKED: BRANCH   1   6
DOCKED: ATOM      6  C   UNL     1     138.979  70.865 222.414 -0.15 -0.04    +0.204 C  
DOCKED: BRANCH   6   7
DOCKED: ATOM      7  O   UNL     1     138.999  70.753 221.026 -0.01 +0.09    -0.494 OA 
DOCKED: ATOM      8  H   UNL     1     139.697  71.235 220.475 +0.06 -0.05    +0.295 HD 
DOCKED: ENDBRANCH   6   7
DOCKED: BRANCH   6   9
DOCKED: ATOM      9  C   UNL     1     139.904  71.620 223.015 -0.28 -0.03    +0.152 C  
DOCKED: BRANCH   9  10
DOCKED: ATOM     10  N   UNL     1     140.073  73.012 222.706 -0.12 +0.03    -0.322 N  
DOCKED: ATOM     11  C   UNL     1     140.848  73.452 221.581 -0.19 -0.03    +0.273 C  
DOCKED: ATOM     12  H   UNL     1     139.595  73.726 223.299 -0.47 -0.03    +0.169 HD 
DOCKED: ATOM     13  O   UNL     1     141.350  72.603 220.792 -0.13 +0.04    -0.267 OA 
DOCKED: BRANCH  11  14
DOCKED: ATOM     14  C   UNL     1     141.076  74.895 221.349 -0.27 -0.03    +0.129 A  
DOCKED: ATOM     15  N   UNL     1     140.632  75.800 222.266 -0.39 +0.04    -0.243 NA 
DOCKED: ATOM     16  C   UNL     1     141.760  75.350 220.209 -0.25 -0.01    +0.035 A  
DOCKED: ATOM     17  C   UNL     1     140.823  77.138 222.116 -0.37 -0.03    +0.071 A  
DOCKED: ATOM     18  C   UNL     1     141.973  76.719 220.029 -0.30 -0.01    +0.013 A  
DOCKED: ATOM     19  C   UNL     1     140.346  78.028 223.085 -0.27 -0.01    +0.030 A  
DOCKED: ATOM     20  C   UNL     1     141.505  77.629 220.983 -0.32 -0.00    +0.002 A  
DOCKED: ATOM     21  C   UNL     1     140.545  79.404 222.929 -0.42 -0.01    +0.023 A  
DOCKED: ATOM     22  C   UNL     1     141.701  79.011 220.832 -0.32 -0.02    +0.030 A  
DOCKED: ATOM     23  C   UNL     1     141.217  79.896 221.804 -0.36 -0.01    +0.041 A  
DOCKED: ATOM     24  Cl  UNL     1     141.461  81.622 221.615 -0.48 +0.02    -0.084 Cl 
DOCKED: ENDBRANCH  11  14
DOCKED: ENDBRANCH   9  10
DOCKED: ENDBRANCH   6   9
DOCKED: ENDBRANCH   1   6
DOCKED: BRANCH   5  25
DOCKED: ATOM     25  C   UNL     1     139.139  68.438 224.472 -0.24 -0.02    +0.185 C  
DOCKED: BRANCH  25  26
DOCKED: ATOM     26  O   UNL     1     139.096  67.762 225.713 -0.76 +0.00    -0.375 OA 
DOCKED: BRANCH  26  27
DOCKED: ATOM     27  C   UNL     1     140.304  67.955 226.422 -0.50 -0.04    +0.195 C  
DOCKED: BRANCH  27  28
DOCKED: ATOM     28  C   UNL     1     140.460  69.403 226.800 -0.55 +0.00    -0.022 A  
DOCKED: ATOM     29  C   UNL     1     141.249  70.254 226.007 -0.55 -0.00    +0.006 A  
DOCKED: ATOM     30  C   UNL     1     139.859  69.906 227.966 -0.62 -0.00    +0.006 A  
DOCKED: ATOM     31  C   UNL     1     141.426  71.592 226.374 -0.68 -0.00    +0.000 A  
DOCKED: ATOM     32  C   UNL     1     140.039  71.245 228.328 -0.66 -0.00    +0.000 A  
DOCKED: ATOM     33  C   UNL     1     140.822  72.087 227.533 -0.81 -0.00    +0.000 A  
DOCKED: ENDBRANCH  27  28
DOCKED: ENDBRANCH  26  27
DOCKED: ENDBRANCH  25  26
DOCKED: ENDBRANCH   5  25
DOCKED: BRANCH   3  34
DOCKED: ATOM     34  O   UNL     1     134.628  69.405 223.827 -0.09 +0.04    -0.391 OA 
DOCKED: ATOM     35  H   UNL     1     134.564  70.332 223.480 +0.05 -0.03    +0.211 HD 
DOCKED: ENDBRANCH   3  34
DOCKED: TORSDOF 10
DOCKED: TER
DOCKED: ENDMDL
________________________________________________________________________________


    FINAL DOCKED STATE:
    ________________________


Run:   20 / 20
Time taken for this run:   0.131s

DOCKED: MODEL        20
DOCKED: USER    Run = 20
DOCKED: USER
DOCKED: USER    Estimated Free Energy of Binding    =  -7.10 kcal/mol  [=(1)+(2)+(3)-(4)]
DOCKED: USER
DOCKED: USER    (1) Final Intermolecular Energy     = -10.09 kcal/mol
DOCKED: USER        vdW + Hbond + desolv Energy     = -10.09 kcal/mol
DOCKED: USER        Electrostatic Energy            =  -0.00 kcal/mol
DOCKED: USER        Moving Ligand-Fixed Receptor    = -10.09 kcal/mol
DOCKED: USER        Moving Ligand-Moving Receptor   =  +0.00 kcal/mol
DOCKED: USER    (2) Final Total Internal Energy     =  -2.41 kcal/mol
DOCKED: USER    (3) Torsional Free Energy           =  +2.98 kcal/mol
DOCKED: USER    (4) Unbound System's Energy         =  -2.41 kcal/mol
DOCKED: USER
DOCKED: USER
DOCKED: REMARK SMILES O=C(N/C=C(/O)N1C[C@H](O)C[C@H]1COCc1ccccc1)c1ccc2cc(Cl)ccc2n1
DOCKED: REMARK SMILES IDX 7 1 8 2 9 3 11 4 12 5 5 6 6 7 4 9 3 10 2 11 1 13 22 14 32 15
DOCKED: REMARK SMILES IDX 23 16 31 17 24 18 30 19 25 20 29 21 26 22 27 23 28 24 13 25
DOCKED: REMARK SMILES IDX 14 26 15 27 16 28 17 29 21 30 18 31 20 32 19 33 10 34
DOCKED: REMARK H PARENT 6 8 3 12 10 35
DOCKED: USER                              x       y       z     vdW  Elec       q    Type
DOCKED: USER                           _______ _______ _______ _____ _____    ______ ____
DOCKED: ROOT
DOCKED: ATOM      1  N   UNL     1     137.182  76.190 221.691 -0.06 +0.07    -0.334 N  
DOCKED: ATOM      2  C   UNL     1     136.531  76.672 222.894 -0.18 -0.03    +0.151 C  
DOCKED: ATOM      3  C   UNL     1     136.703  78.189 222.870 -0.12 -0.02    +0.136 C  
DOCKED: ATOM      4  C   UNL     1     137.076  78.537 221.425 -0.09 -0.01    +0.061 C  
DOCKED: ATOM      5  C   UNL     1     137.695  77.262 220.845 -0.07 -0.02    +0.113 C  
DOCKED: ENDROOT
DOCKED: BRANCH   1   6
DOCKED: ATOM      6  C   UNL     1     137.342  74.789 221.413 -0.10 -0.05    +0.204 C  
DOCKED: BRANCH   6   7
DOCKED: ATOM      7  O   UNL     1     136.213  74.001 221.207 -0.00 +0.10    -0.494 OA 
DOCKED: ATOM      8  H   UNL     1     136.287  72.995 221.129 +0.04 -0.06    +0.295 HD 
DOCKED: ENDBRANCH   6   7
DOCKED: BRANCH   6   9
DOCKED: ATOM      9  C   UNL     1     138.550  74.219 221.351 -0.15 -0.04    +0.152 C  
DOCKED: BRANCH   9  10
DOCKED: ATOM     10  N   UNL     1     139.004  73.285 222.342 -0.08 +0.09    -0.322 N  
DOCKED: ATOM     11  C   UNL     1     138.570  71.917 222.354 -0.13 -0.07    +0.273 C  
DOCKED: ATOM     12  H   UNL     1     139.692  73.602 223.061 -0.42 -0.02    +0.169 HD 
DOCKED: ATOM     13  O   UNL     1     137.818  71.488 221.435 -0.04 +0.05    -0.267 OA 
DOCKED: BRANCH  11  14
DOCKED: ATOM     14  C   UNL     1     138.986  71.011 223.447 -0.25 -0.03    +0.129 A  
DOCKED: ATOM     15  N   UNL     1     139.628  71.521 224.535 -0.25 +0.06    -0.243 NA 
DOCKED: ATOM     16  C   UNL     1     138.714  69.633 223.392 -0.24 -0.01    +0.035 A  
DOCKED: ATOM     17  C   UNL     1     140.023  70.742 225.576 -0.47 -0.01    +0.071 A  
DOCKED: ATOM     18  C   UNL     1     139.107  68.807 224.448 -0.35 -0.00    +0.013 A  
DOCKED: ATOM     19  C   UNL     1     140.681  71.313 226.671 -0.66 -0.00    +0.030 A  
DOCKED: ATOM     20  C   UNL     1     139.767  69.354 225.554 -0.45 -0.00    +0.002 A  
DOCKED: ATOM     21  C   UNL     1     141.085  70.509 227.742 -0.61 -0.00    +0.023 A  
DOCKED: ATOM     22  C   UNL     1     140.176  68.553 226.632 -0.59 -0.01    +0.030 A  
DOCKED: ATOM     23  C   UNL     1     140.837  69.132 227.722 -0.59 -0.01    +0.041 A  
DOCKED: ATOM     24  Cl  UNL     1     141.348  68.131 229.068 -0.48 +0.02    -0.084 Cl 
DOCKED: ENDBRANCH  11  14
DOCKED: ENDBRANCH   9  10
DOCKED: ENDBRANCH   6   9
DOCKED: ENDBRANCH   1   6
DOCKED: BRANCH   5  25
DOCKED: ATOM     25  C   UNL     1     139.230  77.304 220.895 -0.10 -0.05    +0.185 C  
DOCKED: BRANCH  25  26
DOCKED: ATOM     26  O   UNL     1     139.665  77.014 222.208 -0.18 +0.08    -0.375 OA 
DOCKED: BRANCH  26  27
DOCKED: ATOM     27  C   UNL     1     141.051  77.261 222.334 -0.28 -0.08    +0.195 C  
DOCKED: BRANCH  27  28
DOCKED: ATOM     28  C   UNL     1     141.287  78.649 222.865 -0.51 +0.01    -0.022 A  
DOCKED: ATOM     29  C   UNL     1     140.203  79.423 223.311 -0.45 -0.00    +0.006 A  
DOCKED: ATOM     30  C   UNL     1     142.580  79.199 222.879 -0.54 -0.00    +0.006 A  
DOCKED: ATOM     31  C   UNL     1     140.413  80.727 223.772 -0.41 -0.00    +0.000 A  
DOCKED: ATOM     32  C   UNL     1     142.785  80.503 223.342 -0.68 -0.00    +0.000 A  
DOCKED: ATOM     33  C   UNL     1     141.702  81.266 223.788 -0.58 -0.00    +0.000 A  
DOCKED: ENDBRANCH  27  28
DOCKED: ENDBRANCH  26  27
DOCKED: ENDBRANCH  25  26
DOCKED: ENDBRANCH   5  25
DOCKED: BRANCH   3  34
DOCKED: ATOM     34  O   UNL     1     135.517  78.829 223.261 -0.07 +0.05    -0.391 OA 
DOCKED: ATOM     35  H   UNL     1     134.981  78.956 222.435 +0.03 -0.03    +0.211 HD 
DOCKED: ENDBRANCH   3  34
DOCKED: TORSDOF 10
DOCKED: TER
DOCKED: ENDMDL
________________________________________________________________________________


    CLUSTERING HISTOGRAM
    ____________________


________________________________________________________________________________
     |           |     |           |     |
Clus | Lowest    | Run | Mean      | Num | Histogram
-ter | Binding   |     | Binding   | in  |
Rank | Energy    |     | Energy    | Clus|    5    10   15   20   25   30   35
_____|___________|_____|___________|_____|____:____|____:____|____:____|____:___
   1 |     -8.83 |   4 |     -8.35 |   7 |#######
   2 |     -8.63 |  12 |     -8.57 |   2 |##
   3 |     -8.32 |  19 |     -7.97 |   2 |##
   4 |     -7.80 |  10 |     -7.51 |   4 |####
   5 |     -7.53 |   3 |     -7.35 |   2 |##
   6 |     -6.49 |   7 |     -6.49 |   1 |#
   7 |     -6.10 |   9 |     -6.10 |   1 |#
   8 |     -5.80 |  16 |     -5.80 |   1 |#
_____|___________|_____|___________|_____|______________________________________


    RMSD TABLE
    __________


_______________________________________________________________________
     |      |      |           |         |                 |
Rank | Sub- | Run  | Binding   | Cluster | Reference       | Grep
     | Rank |      | Energy    | RMSD    | RMSD            | Pattern
_____|______|______|___________|_________|_________________|___________
   1      1      4       -8.83      0.00    272.29           RANKING
   1      2     18       -8.73      0.97    272.21           RANKING
   1      3      1       -8.30      1.87    272.32           RANKING
   1      4      8       -8.24      1.83    272.31           RANKING
   1      5     11       -8.16      1.91    272.25           RANKING
   1      6      2       -8.16      1.93    272.26           RANKING
   1      7     17       -8.04      0.99    272.29           RANKING
   2      1     12       -8.63      0.00    272.05           RANKING
   2      2     15       -8.51      0.40    272.04           RANKING
   3      1     19       -8.32      0.00    272.13           RANKING
   3      2      5       -7.62      1.11    271.71           RANKING
   4      1     10       -7.80      0.00    272.32           RANKING
   4      2     14       -7.62      1.59    272.66           RANKING
   4      3      6       -7.53      1.83    272.42           RANKING
   4      4     20       -7.10      1.97    272.35           RANKING
   5      1      3       -7.53      0.00    272.28           RANKING
   5      2     13       -7.18      1.85    272.02           RANKING
   6      1      7       -6.49      0.00    272.13           RANKING
   7      1      9       -6.10      0.00    272.69           RANKING
   8      1     16       -5.80      0.00    273.35           RANKING

Run time 2.566 sec
Idle time 0.000 sec
