AutoDock-GPU version: v1.6

**********************************************************
**    AutoDock-GPU AUTODOCKTOOLS-COMPATIBLE DLG FILE    **
**********************************************************


    DOCKING PARAMETERS
    ________________________


Ligand file:                               /home/a/REINVENT4/ReinventStudies/pleaseWork/justmol2mol_4_Compounds_ontop/graph-dock-8u2o5u/graph-DockGPU/node-autodockgpu/inputs/AOVBZTFZZBPAMM-RSZDJACJNA-M.pdbqt
Grid fld file:                             /home/a/REINVENT4/ReinventStudies/mols/Rad51/maps/rad51_receptor.maps.fld

Random seed:                               42
Number of runs:                            20
Number of energy evaluations:              1132076
Number of generations:                     42000
Size of population:                        150
Rate of crossover:                         80.000000%
Tournament selection probability limit:    60.000000%
Rate of mutation:                          2.000000%
Maximal allowed delta movement:            +/- 6.000000A
Maximal allowed delta angle:               +/- 90.000000

Rate of local search:                      100.000000%
Maximal number of local search iterations: 300
Rho lower bound:                           0.010000
Spread of local search delta movement:     2.000000A
Spread of local search delta angle:        74.999999
Limit of consecutive successes/failures:   4

Handle symmetry during clustering:         YES
RMSD tolerance:                            2.000000A

Program call in command line was:          /home/a/REINVENT4/ReinventStudies/adgpu-v1.6_linux_x64_cuda12_128wi --filelist batch.txt --heuristics 1 --nrun 20 --psize 150 --lsit 300 --seed 42 --heurmax 12000000 


    GRID PARAMETERS
    ________________________


Receptor name:                             rad51_receptor
Number of grid points (x, y, z):           53, 53, 53
Grid center (x, y, z):                     139.950000, 75.640000, 221.970000A
Grid size (x, y, z):                       19.500000, 19.500000, 19.500000A
Grid spacing:                              0.375000A


    LIGAND PARAMETERS
    ________________________


Ligand name:                               /home/a/REINVENT4/ReinventStudies/pleaseWork/justmol2mol_4_Compounds_ontop/graph-dock-8u2o5u/graph-DockGPU/node-autodockgpu/inputs/AOVBZTFZZBPAMM-RSZDJACJNA-M
Number of atoms:                           29
Number of rotatable bonds:                 6
Number of atom types:                      7


    DUMMY DATA (only for ADT-compatibility)
    ________________________


DPF> outlev 1
DPF> ga_run 20
DPF> fld /home/a/REINVENT4/ReinventStudies/mols/Rad51/maps/rad51_receptor.maps.fld
DPF> move /home/a/REINVENT4/ReinventStudies/pleaseWork/justmol2mol_4_Compounds_ontop/graph-dock-8u2o5u/graph-DockGPU/node-autodockgpu/inputs/AOVBZTFZZBPAMM-RSZDJACJNA-M.pdbqt


    COUNTER STATES
    ________________________


Number of energy evaluations performed:    1009863
Number of generations used:                50


    INPUT LIGAND PDBQT FILE:
    ________________________


INPUT-LIGAND-PDBQT: REMARK SMILES O=C([N-]CC(=O)N1CCC[C@H]1c1ccc(Cl)cc1)c1ccc2cc(F)ccc2n1
INPUT-LIGAND-PDBQT: REMARK SMILES IDX 4 1 3 2 2 3 1 4 19 5 20 6 29 7 21 8 28 9 22 10 27 11 23 12
INPUT-LIGAND-PDBQT: REMARK SMILES IDX 26 13 24 14 25 15 5 16 6 17 7 18 8 19 11 20 9 21 10 22 12 23
INPUT-LIGAND-PDBQT: REMARK SMILES IDX 13 24 18 25 14 26 17 27 15 28 16 29
INPUT-LIGAND-PDBQT: REMARK H PARENT
INPUT-LIGAND-PDBQT: ROOT
INPUT-LIGAND-PDBQT: ATOM      1  C   UNL     1       0.888   0.220  -1.109  1.00  0.00    -0.015 C 
INPUT-LIGAND-PDBQT: ENDROOT
INPUT-LIGAND-PDBQT: BRANCH   1   2
INPUT-LIGAND-PDBQT: ATOM      2  N   UNL     1       0.187  -1.006  -1.474  1.00  0.00    -0.640 NA
INPUT-LIGAND-PDBQT: BRANCH   2   3
INPUT-LIGAND-PDBQT: ATOM      3  C   UNL     1       0.162  -2.244  -0.749  1.00  0.00     0.101 C 
INPUT-LIGAND-PDBQT: ATOM      4  O   UNL     1      -0.362  -3.245  -1.306  1.00  0.00    -0.313 OA
INPUT-LIGAND-PDBQT: BRANCH   3   5
INPUT-LIGAND-PDBQT: ATOM      5  C   UNL     1       0.734  -2.399   0.607  1.00  0.00     0.088 A 
INPUT-LIGAND-PDBQT: ATOM      6  C   UNL     1       1.223  -3.647   1.028  1.00  0.00     0.031 A 
INPUT-LIGAND-PDBQT: ATOM      7  N   UNL     1       0.736  -1.353   1.479  1.00  0.00    -0.246 NA
INPUT-LIGAND-PDBQT: ATOM      8  C   UNL     1       1.724  -3.795   2.323  1.00  0.00     0.013 A 
INPUT-LIGAND-PDBQT: ATOM      9  C   UNL     1       1.211  -1.468   2.748  1.00  0.00     0.071 A 
INPUT-LIGAND-PDBQT: ATOM     10  C   UNL     1       1.722  -2.704   3.200  1.00  0.00     0.003 A 
INPUT-LIGAND-PDBQT: ATOM     11  C   UNL     1       1.184  -0.367   3.614  1.00  0.00     0.032 A 
INPUT-LIGAND-PDBQT: ATOM     12  C   UNL     1       2.211  -2.821   4.510  1.00  0.00     0.049 A 
INPUT-LIGAND-PDBQT: ATOM     13  C   UNL     1       1.672  -0.491   4.919  1.00  0.00     0.041 A 
INPUT-LIGAND-PDBQT: ATOM     14  C   UNL     1       2.185  -1.714   5.365  1.00  0.00     0.123 A 
INPUT-LIGAND-PDBQT: ATOM     15  F   UNL     1       2.655  -1.827   6.632  1.00  0.00    -0.207 F 
INPUT-LIGAND-PDBQT: ENDBRANCH   3   5
INPUT-LIGAND-PDBQT: ENDBRANCH   2   3
INPUT-LIGAND-PDBQT: ENDBRANCH   1   2
INPUT-LIGAND-PDBQT: BRANCH   1  16
INPUT-LIGAND-PDBQT: ATOM     16  C   UNL     1       0.079   1.066  -0.163  1.00  0.00     0.205 C 
INPUT-LIGAND-PDBQT: ATOM     17  O   UNL     1       0.673   1.601   0.812  1.00  0.00    -0.277 OA
INPUT-LIGAND-PDBQT: BRANCH  16  18
INPUT-LIGAND-PDBQT: ATOM     18  N   UNL     1      -1.326   1.331  -0.361  1.00  0.00    -0.337 N 
INPUT-LIGAND-PDBQT: ATOM     19  C   UNL     1      -2.149   1.905   0.691  1.00  0.00     0.120 C 
INPUT-LIGAND-PDBQT: ATOM     20  C   UNL     1      -2.095   1.035  -1.568  1.00  0.00     0.115 C 
INPUT-LIGAND-PDBQT: ATOM     21  C   UNL     1      -3.586   1.795   0.202  1.00  0.00     0.024 C 
INPUT-LIGAND-PDBQT: ATOM     22  C   UNL     1      -3.498   1.595  -1.307  1.00  0.00     0.032 C 
INPUT-LIGAND-PDBQT: BRANCH  20  23
INPUT-LIGAND-PDBQT: ATOM     23  C   UNL     1      -1.474   1.657  -2.802  1.00  0.00    -0.025 A 
INPUT-LIGAND-PDBQT: ATOM     24  C   UNL     1      -1.023   2.990  -2.790  1.00  0.00     0.007 A 
INPUT-LIGAND-PDBQT: ATOM     25  C   UNL     1      -1.366   0.909  -3.986  1.00  0.00     0.007 A 
INPUT-LIGAND-PDBQT: ATOM     26  C   UNL     1      -0.457   3.555  -3.936  1.00  0.00     0.021 A 
INPUT-LIGAND-PDBQT: ATOM     27  C   UNL     1      -0.800   1.477  -5.131  1.00  0.00     0.021 A 
INPUT-LIGAND-PDBQT: ATOM     28  C   UNL     1      -0.342   2.798  -5.107  1.00  0.00     0.041 A 
INPUT-LIGAND-PDBQT: ATOM     29  Cl  UNL     1       0.369   3.509  -6.544  1.00  0.00    -0.084 Cl
INPUT-LIGAND-PDBQT: ENDBRANCH  20  23
INPUT-LIGAND-PDBQT: ENDBRANCH  16  18
INPUT-LIGAND-PDBQT: ENDBRANCH   1  16
INPUT-LIGAND-PDBQT: TORSDOF 6


    FINAL DOCKED STATE:
    ________________________


Run:   1 / 20
Time taken for this run:   0.039s

DOCKED: MODEL        1
DOCKED: USER    Run = 1
DOCKED: USER
DOCKED: USER    Estimated Free Energy of Binding    =  -8.15 kcal/mol  [=(1)+(2)+(3)-(4)]
DOCKED: USER
DOCKED: USER    (1) Final Intermolecular Energy     =  -9.94 kcal/mol
DOCKED: USER        vdW + Hbond + desolv Energy     = -10.08 kcal/mol
DOCKED: USER        Electrostatic Energy            =  +0.14 kcal/mol
DOCKED: USER        Moving Ligand-Fixed Receptor    =  -9.94 kcal/mol
DOCKED: USER        Moving Ligand-Moving Receptor   =  +0.00 kcal/mol
DOCKED: USER    (2) Final Total Internal Energy     =  -1.07 kcal/mol
DOCKED: USER    (3) Torsional Free Energy           =  +1.79 kcal/mol
DOCKED: USER    (4) Unbound System's Energy         =  -1.07 kcal/mol
DOCKED: USER
DOCKED: USER
DOCKED: REMARK SMILES O=C([N-]CC(=O)N1CCC[C@H]1c1ccc(Cl)cc1)c1ccc2cc(F)ccc2n1
DOCKED: REMARK SMILES IDX 4 1 3 2 2 3 1 4 19 5 20 6 29 7 21 8 28 9 22 10 27 11 23 12
DOCKED: REMARK SMILES IDX 26 13 24 14 25 15 5 16 6 17 7 18 8 19 11 20 9 21 10 22 12 23
DOCKED: REMARK SMILES IDX 13 24 18 25 14 26 17 27 15 28 16 29
DOCKED: REMARK H PARENT
DOCKED: USER                              x       y       z     vdW  Elec       q    Type
DOCKED: USER                           _______ _______ _______ _____ _____    ______ ____
DOCKED: ROOT
DOCKED: ATOM      1  C   UNL     1     138.966  73.759 221.617 -0.22 +0.00    -0.015 C  
DOCKED: ENDROOT
DOCKED: BRANCH   1   2
DOCKED: ATOM      2  N   UNL     1     140.024  72.822 221.980 -0.17 +0.09    -0.640 NA 
DOCKED: BRANCH   2   3
DOCKED: ATOM      3  C   UNL     1     139.873  71.459 222.402 -0.25 -0.02    +0.101 C  
DOCKED: ATOM      4  O   UNL     1     139.555  70.603 221.534 -0.08 +0.05    -0.313 OA 
DOCKED: BRANCH   3   5
DOCKED: ATOM      5  C   UNL     1     140.088  71.015 223.797 -0.34 -0.01    +0.088 A  
DOCKED: ATOM      6  C   UNL     1     140.743  71.856 224.712 -0.32 -0.00    +0.031 A  
DOCKED: ATOM      7  N   UNL     1     139.709  69.768 224.191 -0.16 +0.04    -0.246 NA 
DOCKED: ATOM      8  C   UNL     1     140.977  71.415 226.016 -0.64 -0.00    +0.013 A  
DOCKED: ATOM      9  C   UNL     1     139.930  69.307 225.451 -0.40 -0.01    +0.071 A  
DOCKED: ATOM     10  C   UNL     1     140.574  70.130 226.400 -0.56 -0.00    +0.003 A  
DOCKED: ATOM     11  C   UNL     1     139.532  68.012 225.808 -0.54 -0.00    +0.032 A  
DOCKED: ATOM     12  C   UNL     1     140.801  69.653 227.699 -0.57 -0.01    +0.049 A  
DOCKED: ATOM     13  C   UNL     1     139.763  67.542 227.105 -0.45 -0.01    +0.041 A  
DOCKED: ATOM     14  C   UNL     1     140.395  68.361 228.048 -0.54 -0.03    +0.123 A  
DOCKED: ATOM     15  F   UNL     1     140.617  67.897 229.303 -0.13 +0.06    -0.207 F  
DOCKED: ENDBRANCH   3   5
DOCKED: ENDBRANCH   2   3
DOCKED: ENDBRANCH   1   2
DOCKED: BRANCH   1  16
DOCKED: ATOM     16  C   UNL     1     139.252  75.148 222.123 -0.18 -0.04    +0.205 C  
DOCKED: ATOM     17  O   UNL     1     140.453  75.469 222.332 -0.54 +0.03    -0.277 OA 
DOCKED: BRANCH  16  18
DOCKED: ATOM     18  N   UNL     1     138.216  76.134 222.321 -0.16 +0.08    -0.337 N  
DOCKED: ATOM     19  C   UNL     1     136.989  75.817 223.033 -0.18 -0.03    +0.120 C  
DOCKED: ATOM     20  C   UNL     1     138.230  77.507 221.822 -0.18 -0.02    +0.115 C  
DOCKED: ATOM     21  C   UNL     1     136.063  77.005 222.815 -0.19 -0.00    +0.024 C  
DOCKED: ATOM     22  C   UNL     1     136.962  78.159 222.384 -0.18 -0.01    +0.032 C  
DOCKED: BRANCH  20  23
DOCKED: ATOM     23  C   UNL     1     139.474  78.255 222.258 -0.29 +0.01    -0.025 A  
DOCKED: ATOM     24  C   UNL     1     140.658  78.190 221.501 -0.30 -0.00    +0.007 A  
DOCKED: ATOM     25  C   UNL     1     139.461  79.007 223.445 -0.38 -0.00    +0.007 A  
DOCKED: ATOM     26  C   UNL     1     141.801  78.880 221.916 -0.44 -0.01    +0.021 A  
DOCKED: ATOM     27  C   UNL     1     140.605  79.695 223.857 -0.47 -0.00    +0.021 A  
DOCKED: ATOM     28  C   UNL     1     141.775  79.636 223.093 -0.55 -0.01    +0.041 A  
DOCKED: ATOM     29  Cl  UNL     1     143.209  80.501 223.611 -0.70 +0.02    -0.084 Cl 
DOCKED: ENDBRANCH  20  23
DOCKED: ENDBRANCH  16  18
DOCKED: ENDBRANCH   1  16
DOCKED: TORSDOF 6
DOCKED: TER
DOCKED: ENDMDL
________________________________________________________________________________


    FINAL DOCKED STATE:
    ________________________


Run:   2 / 20
Time taken for this run:   0.039s

DOCKED: MODEL        2
DOCKED: USER    Run = 2
DOCKED: USER
DOCKED: USER    Estimated Free Energy of Binding    =  -7.88 kcal/mol  [=(1)+(2)+(3)-(4)]
DOCKED: USER
DOCKED: USER    (1) Final Intermolecular Energy     =  -9.67 kcal/mol
DOCKED: USER        vdW + Hbond + desolv Energy     =  -9.80 kcal/mol
DOCKED: USER        Electrostatic Energy            =  +0.13 kcal/mol
DOCKED: USER        Moving Ligand-Fixed Receptor    =  -9.67 kcal/mol
DOCKED: USER        Moving Ligand-Moving Receptor   =  +0.00 kcal/mol
DOCKED: USER    (2) Final Total Internal Energy     =  -1.45 kcal/mol
DOCKED: USER    (3) Torsional Free Energy           =  +1.79 kcal/mol
DOCKED: USER    (4) Unbound System's Energy         =  -1.45 kcal/mol
DOCKED: USER
DOCKED: USER
DOCKED: REMARK SMILES O=C([N-]CC(=O)N1CCC[C@H]1c1ccc(Cl)cc1)c1ccc2cc(F)ccc2n1
DOCKED: REMARK SMILES IDX 4 1 3 2 2 3 1 4 19 5 20 6 29 7 21 8 28 9 22 10 27 11 23 12
DOCKED: REMARK SMILES IDX 26 13 24 14 25 15 5 16 6 17 7 18 8 19 11 20 9 21 10 22 12 23
DOCKED: REMARK SMILES IDX 13 24 18 25 14 26 17 27 15 28 16 29
DOCKED: REMARK H PARENT
DOCKED: USER                              x       y       z     vdW  Elec       q    Type
DOCKED: USER                           _______ _______ _______ _____ _____    ______ ____
DOCKED: ROOT
DOCKED: ATOM      1  C   UNL     1     137.925  74.169 221.966 -0.15 +0.00    -0.015 C  
DOCKED: ENDROOT
DOCKED: BRANCH   1   2
DOCKED: ATOM      2  N   UNL     1     138.740  72.965 221.853 -0.02 +0.16    -0.640 NA 
DOCKED: BRANCH   2   3
DOCKED: ATOM      3  C   UNL     1     139.912  72.633 222.610 -0.24 -0.02    +0.101 C  
DOCKED: ATOM      4  O   UNL     1     140.979  73.250 222.350 -0.58 -0.01    -0.313 OA 
DOCKED: BRANCH   3   5
DOCKED: ATOM      5  C   UNL     1     139.920  71.616 223.685 -0.34 -0.02    +0.088 A  
DOCKED: ATOM      6  C   UNL     1     139.300  70.371 223.483 -0.28 -0.01    +0.031 A  
DOCKED: ATOM      7  N   UNL     1     140.472  71.897 224.898 -0.25 +0.04    -0.246 NA 
DOCKED: ATOM      8  C   UNL     1     139.276  69.432 224.517 -0.35 -0.00    +0.013 A  
DOCKED: ATOM      9  C   UNL     1     140.458  71.006 225.925 -0.54 -0.01    +0.071 A  
DOCKED: ATOM     10  C   UNL     1     139.856  69.741 225.753 -0.46 -0.00    +0.003 A  
DOCKED: ATOM     11  C   UNL     1     141.030  71.343 227.159 -0.71 -0.01    +0.032 A  
DOCKED: ATOM     12  C   UNL     1     139.842  68.823 226.814 -0.55 -0.01    +0.049 A  
DOCKED: ATOM     13  C   UNL     1     141.012  70.423 228.213 -0.55 -0.01    +0.041 A  
DOCKED: ATOM     14  C   UNL     1     140.421  69.167 228.040 -0.53 -0.02    +0.123 A  
DOCKED: ATOM     15  F   UNL     1     140.406  68.281 229.067 -0.17 +0.05    -0.207 F  
DOCKED: ENDBRANCH   3   5
DOCKED: ENDBRANCH   2   3
DOCKED: ENDBRANCH   1   2
DOCKED: BRANCH   1  16
DOCKED: ATOM     16  C   UNL     1     138.707  75.408 221.621 -0.18 -0.05    +0.205 C  
DOCKED: ATOM     17  O   UNL     1     138.444  76.470 222.247 -0.20 +0.06    -0.277 OA 
DOCKED: BRANCH  16  18
DOCKED: ATOM     18  N   UNL     1     139.775  75.410 220.649 -0.06 +0.08    -0.337 N  
DOCKED: ATOM     19  C   UNL     1     139.555  74.993 219.274 -0.04 -0.03    +0.120 C  
DOCKED: ATOM     20  C   UNL     1     141.168  75.770 220.904 -0.26 -0.04    +0.115 C  
DOCKED: ATOM     21  C   UNL     1     140.937  74.891 218.645 -0.07 -0.01    +0.024 C  
DOCKED: ATOM     22  C   UNL     1     141.863  75.706 219.540 -0.22 -0.01    +0.032 C  
DOCKED: BRANCH  20  23
DOCKED: ATOM     23  C   UNL     1     141.293  77.148 221.522 -0.28 +0.01    -0.025 A  
DOCKED: ATOM     24  C   UNL     1     141.660  78.259 220.741 -0.32 -0.00    +0.007 A  
DOCKED: ATOM     25  C   UNL     1     141.067  77.323 222.898 -0.36 -0.00    +0.007 A  
DOCKED: ATOM     26  C   UNL     1     141.777  79.524 221.323 -0.39 -0.01    +0.021 A  
DOCKED: ATOM     27  C   UNL     1     141.186  78.589 223.477 -0.52 -0.01    +0.021 A  
DOCKED: ATOM     28  C   UNL     1     141.537  79.691 222.692 -0.49 -0.01    +0.041 A  
DOCKED: ATOM     29  Cl  UNL     1     141.686  81.280 223.420 -0.68 +0.01    -0.084 Cl 
DOCKED: ENDBRANCH  20  23
DOCKED: ENDBRANCH  16  18
DOCKED: ENDBRANCH   1  16
DOCKED: TORSDOF 6
DOCKED: TER
DOCKED: ENDMDL
________________________________________________________________________________


    FINAL DOCKED STATE:
    ________________________


Run:   3 / 20
Time taken for this run:   0.039s

DOCKED: MODEL        3
DOCKED: USER    Run = 3
DOCKED: USER
DOCKED: USER    Estimated Free Energy of Binding    =  -7.59 kcal/mol  [=(1)+(2)+(3)-(4)]
DOCKED: USER
DOCKED: USER    (1) Final Intermolecular Energy     =  -9.38 kcal/mol
DOCKED: USER        vdW + Hbond + desolv Energy     =  -9.52 kcal/mol
DOCKED: USER        Electrostatic Energy            =  +0.14 kcal/mol
DOCKED: USER        Moving Ligand-Fixed Receptor    =  -9.38 kcal/mol
DOCKED: USER        Moving Ligand-Moving Receptor   =  +0.00 kcal/mol
DOCKED: USER    (2) Final Total Internal Energy     =  -1.51 kcal/mol
DOCKED: USER    (3) Torsional Free Energy           =  +1.79 kcal/mol
DOCKED: USER    (4) Unbound System's Energy         =  -1.51 kcal/mol
DOCKED: USER
DOCKED: USER
DOCKED: REMARK SMILES O=C([N-]CC(=O)N1CCC[C@H]1c1ccc(Cl)cc1)c1ccc2cc(F)ccc2n1
DOCKED: REMARK SMILES IDX 4 1 3 2 2 3 1 4 19 5 20 6 29 7 21 8 28 9 22 10 27 11 23 12
DOCKED: REMARK SMILES IDX 26 13 24 14 25 15 5 16 6 17 7 18 8 19 11 20 9 21 10 22 12 23
DOCKED: REMARK SMILES IDX 13 24 18 25 14 26 17 27 15 28 16 29
DOCKED: REMARK H PARENT
DOCKED: USER                              x       y       z     vdW  Elec       q    Type
DOCKED: USER                           _______ _______ _______ _____ _____    ______ ____
DOCKED: ROOT
DOCKED: ATOM      1  C   UNL     1     138.118  74.343 221.972 -0.16 +0.00    -0.015 C  
DOCKED: ENDROOT
DOCKED: BRANCH   1   2
DOCKED: ATOM      2  N   UNL     1     138.823  73.076 221.817 -0.03 +0.16    -0.640 NA 
DOCKED: BRANCH   2   3
DOCKED: ATOM      3  C   UNL     1     139.990  72.635 222.527 -0.26 -0.01    +0.101 C  
DOCKED: ATOM      4  O   UNL     1     141.098  73.151 222.220 -0.49 -0.01    -0.313 OA 
DOCKED: BRANCH   3   5
DOCKED: ATOM      5  C   UNL     1     139.947  71.622 223.605 -0.34 -0.02    +0.088 A  
DOCKED: ATOM      6  C   UNL     1     139.243  70.421 223.416 -0.28 -0.01    +0.031 A  
DOCKED: ATOM      7  N   UNL     1     140.536  71.869 224.808 -0.27 +0.04    -0.246 NA 
DOCKED: ATOM      8  C   UNL     1     139.173  69.488 224.452 -0.34 -0.00    +0.013 A  
DOCKED: ATOM      9  C   UNL     1     140.479  70.983 225.838 -0.53 -0.01    +0.071 A  
DOCKED: ATOM     10  C   UNL     1     139.791  69.760 225.678 -0.46 -0.00    +0.003 A  
DOCKED: ATOM     11  C   UNL     1     141.091  71.283 227.061 -0.69 -0.01    +0.032 A  
DOCKED: ATOM     12  C   UNL     1     139.734  68.847 226.743 -0.53 -0.01    +0.049 A  
DOCKED: ATOM     13  C   UNL     1     141.029  70.369 228.118 -0.57 -0.01    +0.041 A  
DOCKED: ATOM     14  C   UNL     1     140.353  69.155 227.959 -0.53 -0.02    +0.123 A  
DOCKED: ATOM     15  F   UNL     1     140.295  68.274 228.988 -0.17 +0.05    -0.207 F  
DOCKED: ENDBRANCH   3   5
DOCKED: ENDBRANCH   2   3
DOCKED: ENDBRANCH   1   2
DOCKED: BRANCH   1  16
DOCKED: ATOM     16  C   UNL     1     138.808  75.460 221.236 -0.15 -0.05    +0.205 C  
DOCKED: ATOM     17  O   UNL     1     138.263  76.597 221.235 -0.08 +0.06    -0.277 OA 
DOCKED: BRANCH  16  18
DOCKED: ATOM     18  N   UNL     1     140.086  75.293 220.585 -0.06 +0.08    -0.337 N  
DOCKED: ATOM     19  C   UNL     1     140.204  74.627 219.298 -0.05 -0.03    +0.120 C  
DOCKED: ATOM     20  C   UNL     1     141.382  75.706 221.118 -0.26 -0.04    +0.115 C  
DOCKED: ATOM     21  C   UNL     1     141.695  74.423 219.071 -0.12 -0.01    +0.024 C  
DOCKED: ATOM     22  C   UNL     1     142.397  75.398 220.011 -0.30 -0.01    +0.032 C  
DOCKED: BRANCH  20  23
DOCKED: ATOM     23  C   UNL     1     141.400  77.175 221.488 -0.25 +0.01    -0.025 A  
DOCKED: ATOM     24  C   UNL     1     141.759  78.154 220.543 -0.32 -0.00    +0.007 A  
DOCKED: ATOM     25  C   UNL     1     141.081  77.572 222.797 -0.44 -0.00    +0.007 A  
DOCKED: ATOM     26  C   UNL     1     141.778  79.506 220.898 -0.34 -0.01    +0.021 A  
DOCKED: ATOM     27  C   UNL     1     141.101  78.925 223.150 -0.51 -0.01    +0.021 A  
DOCKED: ATOM     28  C   UNL     1     141.446  79.893 222.201 -0.43 -0.01    +0.041 A  
DOCKED: ATOM     29  Cl  UNL     1     141.470  81.590 222.644 -0.57 +0.01    -0.084 Cl 
DOCKED: ENDBRANCH  20  23
DOCKED: ENDBRANCH  16  18
DOCKED: ENDBRANCH   1  16
DOCKED: TORSDOF 6
DOCKED: TER
DOCKED: ENDMDL
________________________________________________________________________________


    FINAL DOCKED STATE:
    ________________________


Run:   4 / 20
Time taken for this run:   0.039s

DOCKED: MODEL        4
DOCKED: USER    Run = 4
DOCKED: USER
DOCKED: USER    Estimated Free Energy of Binding    =  -8.54 kcal/mol  [=(1)+(2)+(3)-(4)]
DOCKED: USER
DOCKED: USER    (1) Final Intermolecular Energy     = -10.33 kcal/mol
DOCKED: USER        vdW + Hbond + desolv Energy     = -10.48 kcal/mol
DOCKED: USER        Electrostatic Energy            =  +0.15 kcal/mol
DOCKED: USER        Moving Ligand-Fixed Receptor    = -10.33 kcal/mol
DOCKED: USER        Moving Ligand-Moving Receptor   =  +0.00 kcal/mol
DOCKED: USER    (2) Final Total Internal Energy     =  -1.10 kcal/mol
DOCKED: USER    (3) Torsional Free Energy           =  +1.79 kcal/mol
DOCKED: USER    (4) Unbound System's Energy         =  -1.10 kcal/mol
DOCKED: USER
DOCKED: USER
DOCKED: REMARK SMILES O=C([N-]CC(=O)N1CCC[C@H]1c1ccc(Cl)cc1)c1ccc2cc(F)ccc2n1
DOCKED: REMARK SMILES IDX 4 1 3 2 2 3 1 4 19 5 20 6 29 7 21 8 28 9 22 10 27 11 23 12
DOCKED: REMARK SMILES IDX 26 13 24 14 25 15 5 16 6 17 7 18 8 19 11 20 9 21 10 22 12 23
DOCKED: REMARK SMILES IDX 13 24 18 25 14 26 17 27 15 28 16 29
DOCKED: REMARK H PARENT
DOCKED: USER                              x       y       z     vdW  Elec       q    Type
DOCKED: USER                           _______ _______ _______ _____ _____    ______ ____
DOCKED: ROOT
DOCKED: ATOM      1  C   UNL     1     138.580  74.145 221.207 -0.17 +0.00    -0.015 C  
DOCKED: ENDROOT
DOCKED: BRANCH   1   2
DOCKED: ATOM      2  N   UNL     1     138.785  72.920 221.971 -0.03 +0.16    -0.640 NA 
DOCKED: BRANCH   2   3
DOCKED: ATOM      3  C   UNL     1     139.977  72.510 222.657 -0.26 -0.01    +0.101 C  
DOCKED: ATOM      4  O   UNL     1     141.064  73.059 222.333 -0.54 -0.01    -0.313 OA 
DOCKED: BRANCH   3   5
DOCKED: ATOM      5  C   UNL     1     139.983  71.491 223.730 -0.36 -0.02    +0.088 A  
DOCKED: ATOM      6  C   UNL     1     139.382  70.239 223.517 -0.28 -0.01    +0.031 A  
DOCKED: ATOM      7  N   UNL     1     140.515  71.777 224.950 -0.28 +0.04    -0.246 NA 
DOCKED: ATOM      8  C   UNL     1     139.356  69.298 224.548 -0.35 -0.00    +0.013 A  
DOCKED: ATOM      9  C   UNL     1     140.500  70.883 225.975 -0.54 -0.01    +0.071 A  
DOCKED: ATOM     10  C   UNL     1     139.915  69.611 225.792 -0.47 -0.00    +0.003 A  
DOCKED: ATOM     11  C   UNL     1     141.050  71.224 227.217 -0.70 -0.01    +0.032 A  
DOCKED: ATOM     12  C   UNL     1     139.899  68.691 226.851 -0.56 -0.01    +0.049 A  
DOCKED: ATOM     13  C   UNL     1     141.030  70.303 228.269 -0.54 -0.01    +0.041 A  
DOCKED: ATOM     14  C   UNL     1     140.457  69.039 228.086 -0.54 -0.02    +0.123 A  
DOCKED: ATOM     15  F   UNL     1     140.440  68.151 229.111 -0.17 +0.05    -0.207 F  
DOCKED: ENDBRANCH   3   5
DOCKED: ENDBRANCH   2   3
DOCKED: ENDBRANCH   1   2
DOCKED: BRANCH   1  16
DOCKED: ATOM     16  C   UNL     1     138.913  75.371 222.015 -0.21 -0.05    +0.205 C  
DOCKED: ATOM     17  O   UNL     1     140.113  75.547 222.358 -0.55 +0.03    -0.277 OA 
DOCKED: BRANCH  16  18
DOCKED: ATOM     18  N   UNL     1     137.930  76.370 222.358 -0.14 +0.07    -0.337 N  
DOCKED: ATOM     19  C   UNL     1     136.754  76.042 223.147 -0.22 -0.03    +0.120 C  
DOCKED: ATOM     20  C   UNL     1     137.949  77.772 221.947 -0.17 -0.02    +0.115 C  
DOCKED: ATOM     21  C   UNL     1     135.852  77.266 223.080 -0.18 -0.00    +0.024 C  
DOCKED: ATOM     22  C   UNL     1     136.751  78.421 222.649 -0.17 -0.00    +0.032 C  
DOCKED: BRANCH  20  23
DOCKED: ATOM     23  C   UNL     1     139.246  78.456 222.325 -0.27 +0.01    -0.025 A  
DOCKED: ATOM     24  C   UNL     1     139.342  79.223 223.501 -0.38 -0.00    +0.007 A  
DOCKED: ATOM     25  C   UNL     1     140.367  78.349 221.484 -0.27 -0.00    +0.007 A  
DOCKED: ATOM     26  C   UNL     1     140.543  79.854 223.837 -0.46 -0.00    +0.021 A  
DOCKED: ATOM     27  C   UNL     1     141.566  78.982 221.823 -0.41 -0.01    +0.021 A  
DOCKED: ATOM     28  C   UNL     1     141.657  79.732 223.000 -0.53 -0.01    +0.041 A  
DOCKED: ATOM     29  Cl  UNL     1     143.163  80.524 223.424 -0.74 +0.02    -0.084 Cl 
DOCKED: ENDBRANCH  20  23
DOCKED: ENDBRANCH  16  18
DOCKED: ENDBRANCH   1  16
DOCKED: TORSDOF 6
DOCKED: TER
DOCKED: ENDMDL
________________________________________________________________________________


    FINAL DOCKED STATE:
    ________________________


Run:   5 / 20
Time taken for this run:   0.039s

DOCKED: MODEL        5
DOCKED: USER    Run = 5
DOCKED: USER
DOCKED: USER    Estimated Free Energy of Binding    =  -8.01 kcal/mol  [=(1)+(2)+(3)-(4)]
DOCKED: USER
DOCKED: USER    (1) Final Intermolecular Energy     =  -9.80 kcal/mol
DOCKED: USER        vdW + Hbond + desolv Energy     =  -9.86 kcal/mol
DOCKED: USER        Electrostatic Energy            =  +0.06 kcal/mol
DOCKED: USER        Moving Ligand-Fixed Receptor    =  -9.80 kcal/mol
DOCKED: USER        Moving Ligand-Moving Receptor   =  +0.00 kcal/mol
DOCKED: USER    (2) Final Total Internal Energy     =  -1.29 kcal/mol
DOCKED: USER    (3) Torsional Free Energy           =  +1.79 kcal/mol
DOCKED: USER    (4) Unbound System's Energy         =  -1.29 kcal/mol
DOCKED: USER
DOCKED: USER
DOCKED: REMARK SMILES O=C([N-]CC(=O)N1CCC[C@H]1c1ccc(Cl)cc1)c1ccc2cc(F)ccc2n1
DOCKED: REMARK SMILES IDX 4 1 3 2 2 3 1 4 19 5 20 6 29 7 21 8 28 9 22 10 27 11 23 12
DOCKED: REMARK SMILES IDX 26 13 24 14 25 15 5 16 6 17 7 18 8 19 11 20 9 21 10 22 12 23
DOCKED: REMARK SMILES IDX 13 24 18 25 14 26 17 27 15 28 16 29
DOCKED: REMARK H PARENT
DOCKED: USER                              x       y       z     vdW  Elec       q    Type
DOCKED: USER                           _______ _______ _______ _____ _____    ______ ____
DOCKED: ROOT
DOCKED: ATOM      1  C   UNL     1     138.710  74.498 221.836 -0.21 +0.00    -0.015 C  
DOCKED: ENDROOT
DOCKED: BRANCH   1   2
DOCKED: ATOM      2  N   UNL     1     139.900  73.858 222.387 -0.57 +0.04    -0.640 NA 
DOCKED: BRANCH   2   3
DOCKED: ATOM      3  C   UNL     1     140.267  72.474 222.293 -0.28 -0.01    +0.101 C  
DOCKED: ATOM      4  O   UNL     1     140.674  72.044 221.181 -0.12 +0.04    -0.313 OA 
DOCKED: BRANCH   3   5
DOCKED: ATOM      5  C   UNL     1     140.203  71.540 223.440 -0.34 -0.01    +0.088 A  
DOCKED: ATOM      6  C   UNL     1     139.584  70.287 223.296 -0.26 -0.01    +0.031 A  
DOCKED: ATOM      7  N   UNL     1     140.687  71.910 224.658 -0.24 +0.03    -0.246 NA 
DOCKED: ATOM      8  C   UNL     1     139.492  69.429 224.394 -0.33 -0.00    +0.013 A  
DOCKED: ATOM      9  C   UNL     1     140.606  71.098 225.746 -0.54 -0.01    +0.071 A  
DOCKED: ATOM     10  C   UNL     1     140.002  69.827 225.635 -0.47 -0.00    +0.003 A  
DOCKED: ATOM     11  C   UNL     1     141.109  71.524 226.983 -0.72 -0.01    +0.032 A  
DOCKED: ATOM     12  C   UNL     1     139.919  68.992 226.759 -0.53 -0.01    +0.049 A  
DOCKED: ATOM     13  C   UNL     1     141.022  70.687 228.100 -0.61 -0.01    +0.041 A  
DOCKED: ATOM     14  C   UNL     1     140.430  69.424 227.988 -0.52 -0.02    +0.123 A  
DOCKED: ATOM     15  F   UNL     1     140.348  68.618 229.075 -0.15 +0.04    -0.207 F  
DOCKED: ENDBRANCH   3   5
DOCKED: ENDBRANCH   2   3
DOCKED: ENDBRANCH   1   2
DOCKED: BRANCH   1  16
DOCKED: ATOM     16  C   UNL     1     139.016  75.863 221.282 -0.16 -0.05    +0.205 C  
DOCKED: ATOM     17  O   UNL     1     138.416  76.854 221.779 -0.13 +0.06    -0.277 OA 
DOCKED: BRANCH  16  18
DOCKED: ATOM     18  N   UNL     1     140.002  76.084 220.252 -0.03 +0.09    -0.337 N  
DOCKED: ATOM     19  C   UNL     1     139.691  75.891 218.845 -0.03 -0.03    +0.120 C  
DOCKED: ATOM     20  C   UNL     1     141.396  76.469 220.464 -0.24 -0.05    +0.115 C  
DOCKED: ATOM     21  C   UNL     1     141.022  75.967 218.110 -0.07 -0.01    +0.024 C  
DOCKED: ATOM     22  C   UNL     1     141.983  76.670 219.062 -0.24 -0.02    +0.032 C  
DOCKED: BRANCH  20  23
DOCKED: ATOM     23  C   UNL     1     141.515  77.729 221.297 -0.30 +0.01    -0.025 A  
DOCKED: ATOM     24  C   UNL     1     141.813  78.966 220.697 -0.32 -0.00    +0.007 A  
DOCKED: ATOM     25  C   UNL     1     141.352  77.666 222.691 -0.34 -0.00    +0.007 A  
DOCKED: ATOM     26  C   UNL     1     141.926  80.121 221.476 -0.42 -0.01    +0.021 A  
DOCKED: ATOM     27  C   UNL     1     141.466  78.823 223.468 -0.58 -0.01    +0.021 A  
DOCKED: ATOM     28  C   UNL     1     141.749  80.051 222.862 -0.53 -0.01    +0.041 A  
DOCKED: ATOM     29  Cl  UNL     1     141.891  81.501 223.838 -0.58 +0.01    -0.084 Cl 
DOCKED: ENDBRANCH  20  23
DOCKED: ENDBRANCH  16  18
DOCKED: ENDBRANCH   1  16
DOCKED: TORSDOF 6
DOCKED: TER
DOCKED: ENDMDL
________________________________________________________________________________


    FINAL DOCKED STATE:
    ________________________


Run:   6 / 20
Time taken for this run:   0.039s

DOCKED: MODEL        6
DOCKED: USER    Run = 6
DOCKED: USER
DOCKED: USER    Estimated Free Energy of Binding    =  -7.83 kcal/mol  [=(1)+(2)+(3)-(4)]
DOCKED: USER
DOCKED: USER    (1) Final Intermolecular Energy     =  -9.62 kcal/mol
DOCKED: USER        vdW + Hbond + desolv Energy     =  -9.76 kcal/mol
DOCKED: USER        Electrostatic Energy            =  +0.14 kcal/mol
DOCKED: USER        Moving Ligand-Fixed Receptor    =  -9.62 kcal/mol
DOCKED: USER        Moving Ligand-Moving Receptor   =  +0.00 kcal/mol
DOCKED: USER    (2) Final Total Internal Energy     =  -1.54 kcal/mol
DOCKED: USER    (3) Torsional Free Energy           =  +1.79 kcal/mol
DOCKED: USER    (4) Unbound System's Energy         =  -1.54 kcal/mol
DOCKED: USER
DOCKED: USER
DOCKED: REMARK SMILES O=C([N-]CC(=O)N1CCC[C@H]1c1ccc(Cl)cc1)c1ccc2cc(F)ccc2n1
DOCKED: REMARK SMILES IDX 4 1 3 2 2 3 1 4 19 5 20 6 29 7 21 8 28 9 22 10 27 11 23 12
DOCKED: REMARK SMILES IDX 26 13 24 14 25 15 5 16 6 17 7 18 8 19 11 20 9 21 10 22 12 23
DOCKED: REMARK SMILES IDX 13 24 18 25 14 26 17 27 15 28 16 29
DOCKED: REMARK H PARENT
DOCKED: USER                              x       y       z     vdW  Elec       q    Type
DOCKED: USER                           _______ _______ _______ _____ _____    ______ ____
DOCKED: ROOT
DOCKED: ATOM      1  C   UNL     1     141.501  71.254 220.470 -0.15 +0.00    -0.015 C  
DOCKED: ENDROOT
DOCKED: BRANCH   1   2
DOCKED: ATOM      2  N   UNL     1     140.379  72.039 220.972 +0.02 +0.10    -0.640 NA 
DOCKED: BRANCH   2   3
DOCKED: ATOM      3  C   UNL     1     140.147  72.460 222.324 -0.28 -0.01    +0.101 C  
DOCKED: ATOM      4  O   UNL     1     139.945  73.686 222.535 -0.77 +0.01    -0.313 OA 
DOCKED: BRANCH   3   5
DOCKED: ATOM      5  C   UNL     1     140.119  71.524 223.470 -0.34 -0.01    +0.088 A  
DOCKED: ATOM      6  C   UNL     1     139.508  70.266 223.338 -0.26 -0.01    +0.031 A  
DOCKED: ATOM      7  N   UNL     1     140.630  71.895 224.676 -0.26 +0.03    -0.246 NA 
DOCKED: ATOM      8  C   UNL     1     139.450  69.405 224.436 -0.33 -0.00    +0.013 A  
DOCKED: ATOM      9  C   UNL     1     140.583  71.081 225.765 -0.54 -0.01    +0.071 A  
DOCKED: ATOM     10  C   UNL     1     139.987  69.805 225.665 -0.47 -0.00    +0.003 A  
DOCKED: ATOM     11  C   UNL     1     141.112  71.509 226.989 -0.72 -0.01    +0.032 A  
DOCKED: ATOM     12  C   UNL     1     139.939  68.966 226.789 -0.54 -0.01    +0.049 A  
DOCKED: ATOM     13  C   UNL     1     141.059  70.668 228.106 -0.60 -0.01    +0.041 A  
DOCKED: ATOM     14  C   UNL     1     140.475  69.401 228.006 -0.52 -0.02    +0.123 A  
DOCKED: ATOM     15  F   UNL     1     140.427  68.592 229.093 -0.15 +0.04    -0.207 F  
DOCKED: ENDBRANCH   3   5
DOCKED: ENDBRANCH   2   3
DOCKED: ENDBRANCH   1   2
DOCKED: BRANCH   1  16
DOCKED: ATOM     16  C   UNL     1     142.364  72.050 219.529 -0.08 -0.03    +0.205 C  
DOCKED: ATOM     17  O   UNL     1     141.911  72.307 218.380 -0.01 +0.05    -0.277 OA 
DOCKED: BRANCH  16  18
DOCKED: ATOM     18  N   UNL     1     143.654  72.574 219.908 -0.09 +0.04    -0.337 N  
DOCKED: ATOM     19  C   UNL     1     144.890  71.999 219.403 -0.26 +0.02    +0.120 C  
DOCKED: ATOM     20  C   UNL     1     143.895  73.673 220.842 -0.27 -0.03    +0.115 C  
DOCKED: ATOM     21  C   UNL     1     146.009  72.640 220.211 -0.48 +0.01    +0.024 C  
DOCKED: ATOM     22  C   UNL     1     145.411  73.902 220.822 -0.59 -0.01    +0.032 C  
DOCKED: BRANCH  20  23
DOCKED: ATOM     23  C   UNL     1     143.143  74.927 220.447 -0.32 +0.01    -0.025 A  
DOCKED: ATOM     24  C   UNL     1     141.889  75.225 221.012 -0.27 -0.00    +0.007 A  
DOCKED: ATOM     25  C   UNL     1     143.684  75.797 219.487 -0.40 -0.00    +0.007 A  
DOCKED: ATOM     26  C   UNL     1     141.201  76.382 220.636 -0.27 -0.01    +0.021 A  
DOCKED: ATOM     27  C   UNL     1     142.994  76.953 219.113 -0.35 -0.01    +0.021 A  
DOCKED: ATOM     28  C   UNL     1     141.754  77.249 219.688 -0.25 -0.02    +0.041 A  
DOCKED: ATOM     29  Cl  UNL     1     140.889  78.701 219.218 -0.21 +0.04    -0.084 Cl 
DOCKED: ENDBRANCH  20  23
DOCKED: ENDBRANCH  16  18
DOCKED: ENDBRANCH   1  16
DOCKED: TORSDOF 6
DOCKED: TER
DOCKED: ENDMDL
________________________________________________________________________________


    FINAL DOCKED STATE:
    ________________________


Run:   7 / 20
Time taken for this run:   0.039s

DOCKED: MODEL        7
DOCKED: USER    Run = 7
DOCKED: USER
DOCKED: USER    Estimated Free Energy of Binding    =  -7.99 kcal/mol  [=(1)+(2)+(3)-(4)]
DOCKED: USER
DOCKED: USER    (1) Final Intermolecular Energy     =  -9.78 kcal/mol
DOCKED: USER        vdW + Hbond + desolv Energy     =  -9.77 kcal/mol
DOCKED: USER        Electrostatic Energy            =  -0.00 kcal/mol
DOCKED: USER        Moving Ligand-Fixed Receptor    =  -9.78 kcal/mol
DOCKED: USER        Moving Ligand-Moving Receptor   =  +0.00 kcal/mol
DOCKED: USER    (2) Final Total Internal Energy     =  -1.15 kcal/mol
DOCKED: USER    (3) Torsional Free Energy           =  +1.79 kcal/mol
DOCKED: USER    (4) Unbound System's Energy         =  -1.15 kcal/mol
DOCKED: USER
DOCKED: USER
DOCKED: REMARK SMILES O=C([N-]CC(=O)N1CCC[C@H]1c1ccc(Cl)cc1)c1ccc2cc(F)ccc2n1
DOCKED: REMARK SMILES IDX 4 1 3 2 2 3 1 4 19 5 20 6 29 7 21 8 28 9 22 10 27 11 23 12
DOCKED: REMARK SMILES IDX 26 13 24 14 25 15 5 16 6 17 7 18 8 19 11 20 9 21 10 22 12 23
DOCKED: REMARK SMILES IDX 13 24 18 25 14 26 17 27 15 28 16 29
DOCKED: REMARK H PARENT
DOCKED: USER                              x       y       z     vdW  Elec       q    Type
DOCKED: USER                           _______ _______ _______ _____ _____    ______ ____
DOCKED: ROOT
DOCKED: ATOM      1  C   UNL     1     135.785  69.782 225.300 -0.17 +0.00    -0.015 C  
DOCKED: ENDROOT
DOCKED: BRANCH   1   2
DOCKED: ATOM      2  N   UNL     1     134.637  70.675 225.193 +0.03 +0.05    -0.640 NA 
DOCKED: BRANCH   2   3
DOCKED: ATOM      3  C   UNL     1     133.529  70.781 226.099 -0.27 -0.01    +0.101 C  
DOCKED: ATOM      4  O   UNL     1     132.978  69.717 226.487 -0.50 -0.01    -0.313 OA 
DOCKED: BRANCH   3   5
DOCKED: ATOM      5  C   UNL     1     133.018  72.075 226.604 -0.34 -0.01    +0.088 A  
DOCKED: ATOM      6  C   UNL     1     131.786  72.132 227.277 -0.38 -0.01    +0.031 A  
DOCKED: ATOM      7  N   UNL     1     133.704  73.227 226.369 -0.62 -0.01    -0.246 NA 
DOCKED: ATOM      8  C   UNL     1     131.291  73.363 227.715 -0.35 -0.00    +0.013 A  
DOCKED: ATOM      9  C   UNL     1     133.245  74.440 226.777 -0.24 +0.01    +0.071 A  
DOCKED: ATOM     10  C   UNL     1     132.018  74.534 227.468 -0.42 -0.00    +0.003 A  
DOCKED: ATOM     11  C   UNL     1     133.981  75.601 226.504 -0.40 +0.00    +0.032 A  
DOCKED: ATOM     12  C   UNL     1     131.545  75.786 227.888 -0.29 +0.00    +0.049 A  
DOCKED: ATOM     13  C   UNL     1     133.504  76.847 226.925 -0.35 -0.00    +0.041 A  
DOCKED: ATOM     14  C   UNL     1     132.290  76.939 227.616 -0.28 +0.00    +0.123 A  
DOCKED: ATOM     15  F   UNL     1     131.833  78.150 228.019 -0.06 -0.02    -0.207 F  
DOCKED: ENDBRANCH   3   5
DOCKED: ENDBRANCH   2   3
DOCKED: ENDBRANCH   1   2
DOCKED: BRANCH   1  16
DOCKED: ATOM     16  C   UNL     1     136.424  69.531 223.960 -0.15 -0.02    +0.205 C  
DOCKED: ATOM     17  O   UNL     1     135.960  68.602 223.246 -0.27 +0.02    -0.277 OA 
DOCKED: BRANCH  16  18
DOCKED: ATOM     18  N   UNL     1     137.500  70.344 223.445 -0.08 +0.06    -0.337 N  
DOCKED: ATOM     19  C   UNL     1     137.260  71.668 222.896 -0.15 -0.03    +0.120 C  
DOCKED: ATOM     20  C   UNL     1     138.907  69.956 223.364 -0.22 -0.02    +0.115 C  
DOCKED: ATOM     21  C   UNL     1     138.566  72.089 222.238 -0.19 -0.01    +0.024 C  
DOCKED: ATOM     22  C   UNL     1     139.644  71.195 222.842 -0.29 -0.01    +0.032 C  
DOCKED: BRANCH  20  23
DOCKED: ATOM     23  C   UNL     1     139.452  69.515 224.707 -0.36 +0.00    -0.025 A  
DOCKED: ATOM     24  C   UNL     1     140.154  70.414 225.532 -0.50 -0.00    +0.007 A  
DOCKED: ATOM     25  C   UNL     1     139.281  68.188 225.132 -0.44 -0.00    +0.007 A  
DOCKED: ATOM     26  C   UNL     1     140.657  69.995 226.766 -0.55 -0.00    +0.021 A  
DOCKED: ATOM     27  C   UNL     1     139.786  67.771 226.367 -0.64 -0.00    +0.021 A  
DOCKED: ATOM     28  C   UNL     1     140.471  68.674 227.187 -0.61 -0.01    +0.041 A  
DOCKED: ATOM     29  Cl  UNL     1     141.103  68.150 228.737 -0.68 +0.02    -0.084 Cl 
DOCKED: ENDBRANCH  20  23
DOCKED: ENDBRANCH  16  18
DOCKED: ENDBRANCH   1  16
DOCKED: TORSDOF 6
DOCKED: TER
DOCKED: ENDMDL
________________________________________________________________________________


    FINAL DOCKED STATE:
    ________________________


Run:   8 / 20
Time taken for this run:   0.039s

DOCKED: MODEL        8
DOCKED: USER    Run = 8
DOCKED: USER
DOCKED: USER    Estimated Free Energy of Binding    =  -7.22 kcal/mol  [=(1)+(2)+(3)-(4)]
DOCKED: USER
DOCKED: USER    (1) Final Intermolecular Energy     =  -9.01 kcal/mol
DOCKED: USER        vdW + Hbond + desolv Energy     =  -9.18 kcal/mol
DOCKED: USER        Electrostatic Energy            =  +0.17 kcal/mol
DOCKED: USER        Moving Ligand-Fixed Receptor    =  -9.01 kcal/mol
DOCKED: USER        Moving Ligand-Moving Receptor   =  +0.00 kcal/mol
DOCKED: USER    (2) Final Total Internal Energy     =  -1.67 kcal/mol
DOCKED: USER    (3) Torsional Free Energy           =  +1.79 kcal/mol
DOCKED: USER    (4) Unbound System's Energy         =  -1.67 kcal/mol
DOCKED: USER
DOCKED: USER
DOCKED: REMARK SMILES O=C([N-]CC(=O)N1CCC[C@H]1c1ccc(Cl)cc1)c1ccc2cc(F)ccc2n1
DOCKED: REMARK SMILES IDX 4 1 3 2 2 3 1 4 19 5 20 6 29 7 21 8 28 9 22 10 27 11 23 12
DOCKED: REMARK SMILES IDX 26 13 24 14 25 15 5 16 6 17 7 18 8 19 11 20 9 21 10 22 12 23
DOCKED: REMARK SMILES IDX 13 24 18 25 14 26 17 27 15 28 16 29
DOCKED: REMARK H PARENT
DOCKED: USER                              x       y       z     vdW  Elec       q    Type
DOCKED: USER                           _______ _______ _______ _____ _____    ______ ____
DOCKED: ROOT
DOCKED: ATOM      1  C   UNL     1     138.336  73.861 221.781 -0.17 +0.00    -0.015 C  
DOCKED: ENDROOT
DOCKED: BRANCH   1   2
DOCKED: ATOM      2  N   UNL     1     138.167  72.455 222.130 +0.01 +0.18    -0.640 NA 
DOCKED: BRANCH   2   3
DOCKED: ATOM      3  C   UNL     1     139.199  71.479 222.336 -0.20 -0.02    +0.101 C  
DOCKED: ATOM      4  O   UNL     1     139.736  70.963 221.320 -0.07 +0.05    -0.313 OA 
DOCKED: BRANCH   3   5
DOCKED: ATOM      5  C   UNL     1     139.666  71.067 223.678 -0.33 -0.02    +0.088 A  
DOCKED: ATOM      6  C   UNL     1     140.552  71.885 224.399 -0.34 -0.00    +0.031 A  
DOCKED: ATOM      7  N   UNL     1     139.292  69.866 224.201 -0.17 +0.04    -0.246 NA 
DOCKED: ATOM      8  C   UNL     1     141.021  71.471 225.647 -0.60 -0.00    +0.013 A  
DOCKED: ATOM      9  C   UNL     1     139.737  69.432 225.411 -0.39 -0.01    +0.071 A  
DOCKED: ATOM     10  C   UNL     1     140.618  70.235 226.167 -0.55 -0.00    +0.003 A  
DOCKED: ATOM     11  C   UNL     1     139.333  68.185 225.904 -0.52 -0.00    +0.032 A  
DOCKED: ATOM     12  C   UNL     1     141.076  69.785 227.415 -0.54 -0.01    +0.049 A  
DOCKED: ATOM     13  C   UNL     1     139.794  67.742 227.149 -0.57 -0.01    +0.041 A  
DOCKED: ATOM     14  C   UNL     1     140.662  68.541 227.902 -0.56 -0.03    +0.123 A  
DOCKED: ATOM     15  F   UNL     1     141.106  68.104 229.107 -0.18 +0.05    -0.207 F  
DOCKED: ENDBRANCH   3   5
DOCKED: ENDBRANCH   2   3
DOCKED: ENDBRANCH   1   2
DOCKED: BRANCH   1  16
DOCKED: ATOM     16  C   UNL     1     139.735  74.158 221.314 -0.19 -0.04    +0.205 C  
DOCKED: ATOM     17  O   UNL     1     140.671  74.081 222.155 -0.75 -0.01    -0.277 OA 
DOCKED: BRANCH  16  18
DOCKED: ATOM     18  N   UNL     1     140.050  74.468 219.940 -0.02 +0.08    -0.337 N  
DOCKED: ATOM     19  C   UNL     1     139.383  75.547 219.230 -0.03 -0.03    +0.120 C  
DOCKED: ATOM     20  C   UNL     1     141.001  73.751 219.093 -0.05 -0.03    +0.115 C  
DOCKED: ATOM     21  C   UNL     1     139.786  75.398 217.770 -0.02 -0.01    +0.024 C  
DOCKED: ATOM     22  C   UNL     1     141.039  74.529 217.772 -0.04 -0.01    +0.032 C  
DOCKED: BRANCH  20  23
DOCKED: ATOM     23  C   UNL     1     142.375  73.671 219.726 -0.19 +0.01    -0.025 A  
DOCKED: ATOM     24  C   UNL     1     143.206  74.804 219.793 -0.34 -0.00    +0.007 A  
DOCKED: ATOM     25  C   UNL     1     142.844  72.447 220.232 -0.24 -0.00    +0.007 A  
DOCKED: ATOM     26  C   UNL     1     144.474  74.717 220.375 -0.42 -0.01    +0.021 A  
DOCKED: ATOM     27  C   UNL     1     144.113  72.363 220.812 -0.36 -0.00    +0.021 A  
DOCKED: ATOM     28  C   UNL     1     144.927  73.497 220.888 -0.52 -0.01    +0.041 A  
DOCKED: ATOM     29  Cl  UNL     1     146.519  73.390 221.617 -0.81 +0.01    -0.084 Cl 
DOCKED: ENDBRANCH  20  23
DOCKED: ENDBRANCH  16  18
DOCKED: ENDBRANCH   1  16
DOCKED: TORSDOF 6
DOCKED: TER
DOCKED: ENDMDL
________________________________________________________________________________


    FINAL DOCKED STATE:
    ________________________


Run:   9 / 20
Time taken for this run:   0.039s

DOCKED: MODEL        9
DOCKED: USER    Run = 9
DOCKED: USER
DOCKED: USER    Estimated Free Energy of Binding    =  -8.04 kcal/mol  [=(1)+(2)+(3)-(4)]
DOCKED: USER
DOCKED: USER    (1) Final Intermolecular Energy     =  -9.83 kcal/mol
DOCKED: USER        vdW + Hbond + desolv Energy     =  -9.84 kcal/mol
DOCKED: USER        Electrostatic Energy            =  +0.01 kcal/mol
DOCKED: USER        Moving Ligand-Fixed Receptor    =  -9.83 kcal/mol
DOCKED: USER        Moving Ligand-Moving Receptor   =  +0.00 kcal/mol
DOCKED: USER    (2) Final Total Internal Energy     =  -1.00 kcal/mol
DOCKED: USER    (3) Torsional Free Energy           =  +1.79 kcal/mol
DOCKED: USER    (4) Unbound System's Energy         =  -1.00 kcal/mol
DOCKED: USER
DOCKED: USER
DOCKED: REMARK SMILES O=C([N-]CC(=O)N1CCC[C@H]1c1ccc(Cl)cc1)c1ccc2cc(F)ccc2n1
DOCKED: REMARK SMILES IDX 4 1 3 2 2 3 1 4 19 5 20 6 29 7 21 8 28 9 22 10 27 11 23 12
DOCKED: REMARK SMILES IDX 26 13 24 14 25 15 5 16 6 17 7 18 8 19 11 20 9 21 10 22 12 23
DOCKED: REMARK SMILES IDX 13 24 18 25 14 26 17 27 15 28 16 29
DOCKED: REMARK H PARENT
DOCKED: USER                              x       y       z     vdW  Elec       q    Type
DOCKED: USER                           _______ _______ _______ _____ _____    ______ ____
DOCKED: ROOT
DOCKED: ATOM      1  C   UNL     1     139.320  72.689 222.220 -0.24 +0.00    -0.015 C  
DOCKED: ENDROOT
DOCKED: BRANCH   1   2
DOCKED: ATOM      2  N   UNL     1     140.246  73.809 222.337 -0.58 -0.01    -0.640 NA 
DOCKED: BRANCH   2   3
DOCKED: ATOM      3  C   UNL     1     140.899  74.515 221.272 -0.27 -0.02    +0.101 C  
DOCKED: ATOM      4  O   UNL     1     141.254  73.857 220.258 -0.09 +0.07    -0.313 OA 
DOCKED: BRANCH   3   5
DOCKED: ATOM      5  C   UNL     1     141.157  75.972 221.305 -0.29 -0.03    +0.088 A  
DOCKED: ATOM      6  C   UNL     1     141.552  76.645 220.137 -0.25 -0.01    +0.031 A  
DOCKED: ATOM      7  N   UNL     1     141.073  76.661 222.477 -0.26 +0.09    -0.246 NA 
DOCKED: ATOM      8  C   UNL     1     141.833  78.012 220.186 -0.30 -0.01    +0.013 A  
DOCKED: ATOM      9  C   UNL     1     141.346  77.991 222.557 -0.39 -0.03    +0.071 A  
DOCKED: ATOM     10  C   UNL     1     141.734  78.701 221.400 -0.39 -0.00    +0.003 A  
DOCKED: ATOM     11  C   UNL     1     141.257  78.657 223.786 -0.48 -0.01    +0.032 A  
DOCKED: ATOM     12  C   UNL     1     142.016  80.073 221.485 -0.40 -0.02    +0.049 A  
DOCKED: ATOM     13  C   UNL     1     141.540  80.024 223.863 -0.53 -0.01    +0.041 A  
DOCKED: ATOM     14  C   UNL     1     141.918  80.730 222.716 -0.47 -0.03    +0.123 A  
DOCKED: ATOM     15  F   UNL     1     142.193  82.055 222.799 -0.06 +0.03    -0.207 F  
DOCKED: ENDBRANCH   3   5
DOCKED: ENDBRANCH   2   3
DOCKED: ENDBRANCH   1   2
DOCKED: BRANCH   1  16
DOCKED: ATOM     16  C   UNL     1     139.929  71.405 222.715 -0.23 -0.03    +0.205 C  
DOCKED: ATOM     17  O   UNL     1     140.947  71.478 223.455 -0.23 +0.02    -0.277 OA 
DOCKED: BRANCH  16  18
DOCKED: ATOM     18  N   UNL     1     139.364  70.109 222.423 -0.07 +0.06    -0.337 N  
DOCKED: ATOM     19  C   UNL     1     139.571  69.459 221.140 -0.11 -0.02    +0.120 C  
DOCKED: ATOM     20  C   UNL     1     138.509  69.325 223.311 -0.21 -0.02    +0.115 C  
DOCKED: ATOM     21  C   UNL     1     138.630  68.263 221.122 -0.14 -0.00    +0.024 C  
DOCKED: ATOM     22  C   UNL     1     138.264  68.000 222.579 -0.23 -0.00    +0.032 C  
DOCKED: BRANCH  20  23
DOCKED: ATOM     23  C   UNL     1     139.154  69.096 224.663 -0.36 +0.00    -0.025 A  
DOCKED: ATOM     24  C   UNL     1     139.382  70.169 225.545 -0.41 -0.00    +0.007 A  
DOCKED: ATOM     25  C   UNL     1     139.557  67.804 225.038 -0.39 -0.00    +0.007 A  
DOCKED: ATOM     26  C   UNL     1     139.983  69.947 226.787 -0.53 -0.00    +0.021 A  
DOCKED: ATOM     27  C   UNL     1     140.159  67.585 226.281 -0.64 -0.00    +0.021 A  
DOCKED: ATOM     28  C   UNL     1     140.369  68.654 227.158 -0.61 -0.01    +0.041 A  
DOCKED: ATOM     29  Cl  UNL     1     141.123  68.378 228.717 -0.69 +0.02    -0.084 Cl 
DOCKED: ENDBRANCH  20  23
DOCKED: ENDBRANCH  16  18
DOCKED: ENDBRANCH   1  16
DOCKED: TORSDOF 6
DOCKED: TER
DOCKED: ENDMDL
________________________________________________________________________________


    FINAL DOCKED STATE:
    ________________________


Run:   10 / 20
Time taken for this run:   0.039s

DOCKED: MODEL        10
DOCKED: USER    Run = 10
DOCKED: USER
DOCKED: USER    Estimated Free Energy of Binding    =  -7.94 kcal/mol  [=(1)+(2)+(3)-(4)]
DOCKED: USER
DOCKED: USER    (1) Final Intermolecular Energy     =  -9.73 kcal/mol
DOCKED: USER        vdW + Hbond + desolv Energy     =  -9.71 kcal/mol
DOCKED: USER        Electrostatic Energy            =  -0.02 kcal/mol
DOCKED: USER        Moving Ligand-Fixed Receptor    =  -9.73 kcal/mol
DOCKED: USER        Moving Ligand-Moving Receptor   =  +0.00 kcal/mol
DOCKED: USER    (2) Final Total Internal Energy     =  -1.25 kcal/mol
DOCKED: USER    (3) Torsional Free Energy           =  +1.79 kcal/mol
DOCKED: USER    (4) Unbound System's Energy         =  -1.25 kcal/mol
DOCKED: USER
DOCKED: USER
DOCKED: REMARK SMILES O=C([N-]CC(=O)N1CCC[C@H]1c1ccc(Cl)cc1)c1ccc2cc(F)ccc2n1
DOCKED: REMARK SMILES IDX 4 1 3 2 2 3 1 4 19 5 20 6 29 7 21 8 28 9 22 10 27 11 23 12
DOCKED: REMARK SMILES IDX 26 13 24 14 25 15 5 16 6 17 7 18 8 19 11 20 9 21 10 22 12 23
DOCKED: REMARK SMILES IDX 13 24 18 25 14 26 17 27 15 28 16 29
DOCKED: REMARK H PARENT
DOCKED: USER                              x       y       z     vdW  Elec       q    Type
DOCKED: USER                           _______ _______ _______ _____ _____    ______ ____
DOCKED: ROOT
DOCKED: ATOM      1  C   UNL     1     135.741  69.396 225.330 -0.16 +0.00    -0.015 C  
DOCKED: ENDROOT
DOCKED: BRANCH   1   2
DOCKED: ATOM      2  N   UNL     1     135.011  70.630 225.599 +0.09 +0.04    -0.640 NA 
DOCKED: BRANCH   2   3
DOCKED: ATOM      3  C   UNL     1     133.739  70.765 226.251 -0.30 -0.01    +0.101 C  
DOCKED: ATOM      4  O   UNL     1     133.075  69.718 226.473 -0.54 -0.01    -0.313 OA 
DOCKED: BRANCH   3   5
DOCKED: ATOM      5  C   UNL     1     133.186  72.068 226.682 -0.35 -0.01    +0.088 A  
DOCKED: ATOM      6  C   UNL     1     131.935  72.127 227.319 -0.37 -0.01    +0.031 A  
DOCKED: ATOM      7  N   UNL     1     133.853  73.224 226.413 -0.66 -0.02    -0.246 NA 
DOCKED: ATOM      8  C   UNL     1     131.401  73.363 227.687 -0.38 -0.00    +0.013 A  
DOCKED: ATOM      9  C   UNL     1     133.356  74.443 226.753 -0.14 +0.01    +0.071 A  
DOCKED: ATOM     10  C   UNL     1     132.107  74.539 227.406 -0.42 -0.00    +0.003 A  
DOCKED: ATOM     11  C   UNL     1     134.072  75.608 226.447 -0.41 +0.00    +0.032 A  
DOCKED: ATOM     12  C   UNL     1     131.596  75.798 227.755 -0.32 +0.00    +0.049 A  
DOCKED: ATOM     13  C   UNL     1     133.555  76.860 226.797 -0.34 -0.00    +0.041 A  
DOCKED: ATOM     14  C   UNL     1     132.322  76.954 227.450 -0.28 -0.00    +0.123 A  
DOCKED: ATOM     15  F   UNL     1     131.827  78.171 227.785 -0.05 -0.01    -0.207 F  
DOCKED: ENDBRANCH   3   5
DOCKED: ENDBRANCH   2   3
DOCKED: ENDBRANCH   1   2
DOCKED: BRANCH   1  16
DOCKED: ATOM     16  C   UNL     1     136.318  69.381 223.940 -0.15 -0.02    +0.205 C  
DOCKED: ATOM     17  O   UNL     1     135.888  68.517 223.128 -0.27 +0.02    -0.277 OA 
DOCKED: BRANCH  16  18
DOCKED: ATOM     18  N   UNL     1     137.293  70.344 223.489 -0.08 +0.06    -0.337 N  
DOCKED: ATOM     19  C   UNL     1     136.902  71.664 223.022 -0.15 -0.03    +0.120 C  
DOCKED: ATOM     20  C   UNL     1     138.736  70.129 223.399 -0.22 -0.02    +0.115 C  
DOCKED: ATOM     21  C   UNL     1     138.152  72.276 222.407 -0.16 -0.01    +0.024 C  
DOCKED: ATOM     22  C   UNL     1     139.324  71.477 222.966 -0.29 -0.01    +0.032 C  
DOCKED: BRANCH  20  23
DOCKED: ATOM     23  C   UNL     1     139.324  69.671 224.718 -0.36 +0.00    -0.025 A  
DOCKED: ATOM     24  C   UNL     1     139.941  70.585 225.592 -0.50 -0.00    +0.007 A  
DOCKED: ATOM     25  C   UNL     1     139.279  68.312 225.071 -0.43 -0.00    +0.007 A  
DOCKED: ATOM     26  C   UNL     1     140.484  70.150 226.803 -0.56 -0.00    +0.021 A  
DOCKED: ATOM     27  C   UNL     1     139.824  67.879 226.283 -0.62 -0.00    +0.021 A  
DOCKED: ATOM     28  C   UNL     1     140.424  68.796 227.152 -0.60 -0.01    +0.041 A  
DOCKED: ATOM     29  Cl  UNL     1     141.106  68.251 228.673 -0.70 +0.02    -0.084 Cl 
DOCKED: ENDBRANCH  20  23
DOCKED: ENDBRANCH  16  18
DOCKED: ENDBRANCH   1  16
DOCKED: TORSDOF 6
DOCKED: TER
DOCKED: ENDMDL
________________________________________________________________________________


    FINAL DOCKED STATE:
    ________________________


Run:   11 / 20
Time taken for this run:   0.039s

DOCKED: MODEL        11
DOCKED: USER    Run = 11
DOCKED: USER
DOCKED: USER    Estimated Free Energy of Binding    =  -8.31 kcal/mol  [=(1)+(2)+(3)-(4)]
DOCKED: USER
DOCKED: USER    (1) Final Intermolecular Energy     = -10.10 kcal/mol
DOCKED: USER        vdW + Hbond + desolv Energy     = -10.24 kcal/mol
DOCKED: USER        Electrostatic Energy            =  +0.15 kcal/mol
DOCKED: USER        Moving Ligand-Fixed Receptor    = -10.10 kcal/mol
DOCKED: USER        Moving Ligand-Moving Receptor   =  +0.00 kcal/mol
DOCKED: USER    (2) Final Total Internal Energy     =  -1.08 kcal/mol
DOCKED: USER    (3) Torsional Free Energy           =  +1.79 kcal/mol
DOCKED: USER    (4) Unbound System's Energy         =  -1.08 kcal/mol
DOCKED: USER
DOCKED: USER
DOCKED: REMARK SMILES O=C([N-]CC(=O)N1CCC[C@H]1c1ccc(Cl)cc1)c1ccc2cc(F)ccc2n1
DOCKED: REMARK SMILES IDX 4 1 3 2 2 3 1 4 19 5 20 6 29 7 21 8 28 9 22 10 27 11 23 12
DOCKED: REMARK SMILES IDX 26 13 24 14 25 15 5 16 6 17 7 18 8 19 11 20 9 21 10 22 12 23
DOCKED: REMARK SMILES IDX 13 24 18 25 14 26 17 27 15 28 16 29
DOCKED: REMARK H PARENT
DOCKED: USER                              x       y       z     vdW  Elec       q    Type
DOCKED: USER                           _______ _______ _______ _____ _____    ______ ____
DOCKED: ROOT
DOCKED: ATOM      1  C   UNL     1     138.982  73.873 221.628 -0.22 +0.00    -0.015 C  
DOCKED: ENDROOT
DOCKED: BRANCH   1   2
DOCKED: ATOM      2  N   UNL     1     139.933  72.897 222.151 -0.26 +0.09    -0.640 NA 
DOCKED: BRANCH   2   3
DOCKED: ATOM      3  C   UNL     1     139.654  71.562 222.596 -0.26 -0.02    +0.101 C  
DOCKED: ATOM      4  O   UNL     1     139.110  70.769 221.782 -0.07 +0.06    -0.313 OA 
DOCKED: BRANCH   3   5
DOCKED: ATOM      5  C   UNL     1     139.990  71.074 223.952 -0.36 -0.02    +0.088 A  
DOCKED: ATOM      6  C   UNL     1     140.714  71.891 224.836 -0.34 -0.00    +0.031 A  
DOCKED: ATOM      7  N   UNL     1     139.656  69.810 224.333 -0.17 +0.04    -0.246 NA 
DOCKED: ATOM      8  C   UNL     1     141.062  71.408 226.100 -0.66 -0.00    +0.013 A  
DOCKED: ATOM      9  C   UNL     1     139.986  69.310 225.554 -0.40 -0.01    +0.071 A  
DOCKED: ATOM     10  C   UNL     1     140.702  70.108 226.472 -0.56 -0.00    +0.003 A  
DOCKED: ATOM     11  C   UNL     1     139.630  68.000 225.900 -0.56 -0.00    +0.032 A  
DOCKED: ATOM     12  C   UNL     1     141.042  69.590 227.731 -0.55 -0.01    +0.049 A  
DOCKED: ATOM     13  C   UNL     1     139.974  67.489 227.156 -0.39 -0.01    +0.041 A  
DOCKED: ATOM     14  C   UNL     1     140.677  68.283 228.069 -0.55 -0.03    +0.123 A  
DOCKED: ATOM     15  F   UNL     1     141.008  67.780 229.284 -0.17 +0.06    -0.207 F  
DOCKED: ENDBRANCH   3   5
DOCKED: ENDBRANCH   2   3
DOCKED: ENDBRANCH   1   2
DOCKED: BRANCH   1  16
DOCKED: ATOM     16  C   UNL     1     139.287  75.265 222.111 -0.20 -0.04    +0.205 C  
DOCKED: ATOM     17  O   UNL     1     140.492  75.569 222.326 -0.51 +0.03    -0.277 OA 
DOCKED: BRANCH  16  18
DOCKED: ATOM     18  N   UNL     1     138.267  76.272 222.282 -0.15 +0.07    -0.337 N  
DOCKED: ATOM     19  C   UNL     1     137.027  75.989 222.985 -0.21 -0.03    +0.120 C  
DOCKED: ATOM     20  C   UNL     1     138.311  77.637 221.762 -0.17 -0.02    +0.115 C  
DOCKED: ATOM     21  C   UNL     1     136.125  77.189 222.737 -0.19 -0.00    +0.024 C  
DOCKED: ATOM     22  C   UNL     1     137.048  78.320 222.298 -0.17 -0.01    +0.032 C  
DOCKED: BRANCH  20  23
DOCKED: ATOM     23  C   UNL     1     139.563  78.370 222.200 -0.28 +0.01    -0.025 A  
DOCKED: ATOM     24  C   UNL     1     140.722  78.361 221.402 -0.30 -0.00    +0.007 A  
DOCKED: ATOM     25  C   UNL     1     139.584  79.049 223.429 -0.39 -0.00    +0.007 A  
DOCKED: ATOM     26  C   UNL     1     141.872  79.036 221.819 -0.44 -0.01    +0.021 A  
DOCKED: ATOM     27  C   UNL     1     140.736  79.723 223.844 -0.49 -0.00    +0.021 A  
DOCKED: ATOM     28  C   UNL     1     141.880  79.721 223.039 -0.56 -0.01    +0.041 A  
DOCKED: ATOM     29  Cl  UNL     1     143.324  80.567 223.561 -0.64 +0.02    -0.084 Cl 
DOCKED: ENDBRANCH  20  23
DOCKED: ENDBRANCH  16  18
DOCKED: ENDBRANCH   1  16
DOCKED: TORSDOF 6
DOCKED: TER
DOCKED: ENDMDL
________________________________________________________________________________


    FINAL DOCKED STATE:
    ________________________


Run:   12 / 20
Time taken for this run:   0.039s

DOCKED: MODEL        12
DOCKED: USER    Run = 12
DOCKED: USER
DOCKED: USER    Estimated Free Energy of Binding    =  -8.32 kcal/mol  [=(1)+(2)+(3)-(4)]
DOCKED: USER
DOCKED: USER    (1) Final Intermolecular Energy     = -10.11 kcal/mol
DOCKED: USER        vdW + Hbond + desolv Energy     = -10.16 kcal/mol
DOCKED: USER        Electrostatic Energy            =  +0.05 kcal/mol
DOCKED: USER        Moving Ligand-Fixed Receptor    = -10.11 kcal/mol
DOCKED: USER        Moving Ligand-Moving Receptor   =  +0.00 kcal/mol
DOCKED: USER    (2) Final Total Internal Energy     =  -1.05 kcal/mol
DOCKED: USER    (3) Torsional Free Energy           =  +1.79 kcal/mol
DOCKED: USER    (4) Unbound System's Energy         =  -1.05 kcal/mol
DOCKED: USER
DOCKED: USER
DOCKED: REMARK SMILES O=C([N-]CC(=O)N1CCC[C@H]1c1ccc(Cl)cc1)c1ccc2cc(F)ccc2n1
DOCKED: REMARK SMILES IDX 4 1 3 2 2 3 1 4 19 5 20 6 29 7 21 8 28 9 22 10 27 11 23 12
DOCKED: REMARK SMILES IDX 26 13 24 14 25 15 5 16 6 17 7 18 8 19 11 20 9 21 10 22 12 23
DOCKED: REMARK SMILES IDX 13 24 18 25 14 26 17 27 15 28 16 29
DOCKED: REMARK H PARENT
DOCKED: USER                              x       y       z     vdW  Elec       q    Type
DOCKED: USER                           _______ _______ _______ _____ _____    ______ ____
DOCKED: ROOT
DOCKED: ATOM      1  C   UNL     1     141.143  74.395 221.196 -0.30 +0.00    -0.015 C  
DOCKED: ENDROOT
DOCKED: BRANCH   1   2
DOCKED: ATOM      2  N   UNL     1     140.528  73.700 222.321 -0.51 -0.03    -0.640 NA 
DOCKED: BRANCH   2   3
DOCKED: ATOM      3  C   UNL     1     139.915  72.403 222.315 -0.27 -0.02    +0.101 C  
DOCKED: ATOM      4  O   UNL     1     139.306  72.042 221.273 -0.07 +0.06    -0.313 OA 
DOCKED: BRANCH   3   5
DOCKED: ATOM      5  C   UNL     1     139.980  71.472 223.463 -0.34 -0.02    +0.088 A  
DOCKED: ATOM      6  C   UNL     1     139.466  70.169 223.346 -0.26 -0.01    +0.031 A  
DOCKED: ATOM      7  N   UNL     1     140.481  71.886 224.660 -0.26 +0.04    -0.246 NA 
DOCKED: ATOM      8  C   UNL     1     139.494  69.310 224.446 -0.33 -0.00    +0.013 A  
DOCKED: ATOM      9  C   UNL     1     140.516  71.075 225.751 -0.53 -0.01    +0.071 A  
DOCKED: ATOM     10  C   UNL     1     140.020  69.756 225.665 -0.47 -0.00    +0.003 A  
DOCKED: ATOM     11  C   UNL     1     141.031  71.547 226.965 -0.73 -0.01    +0.032 A  
DOCKED: ATOM     12  C   UNL     1     140.056  68.920 226.792 -0.55 -0.01    +0.049 A  
DOCKED: ATOM     13  C   UNL     1     141.063  70.709 228.085 -0.61 -0.01    +0.041 A  
DOCKED: ATOM     14  C   UNL     1     140.578  69.400 227.998 -0.52 -0.02    +0.123 A  
DOCKED: ATOM     15  F   UNL     1     140.610  68.594 229.088 -0.15 +0.04    -0.207 F  
DOCKED: ENDBRANCH   3   5
DOCKED: ENDBRANCH   2   3
DOCKED: ENDBRANCH   1   2
DOCKED: BRANCH   1  16
DOCKED: ATOM     16  C   UNL     1     140.251  75.478 220.652 -0.15 -0.05    +0.205 C  
DOCKED: ATOM     17  O   UNL     1     140.523  75.960 219.519 -0.05 +0.09    -0.277 OA 
DOCKED: BRANCH  16  18
DOCKED: ATOM     18  N   UNL     1     139.074  75.940 221.348 -0.10 +0.08    -0.337 N  
DOCKED: ATOM     19  C   UNL     1     138.139  75.013 221.965 -0.19 -0.03    +0.120 C  
DOCKED: ATOM     20  C   UNL     1     138.648  77.332 221.487 -0.16 -0.02    +0.115 C  
DOCKED: ATOM     21  C   UNL     1     136.929  75.845 222.363 -0.22 -0.01    +0.024 C  
DOCKED: ATOM     22  C   UNL     1     137.408  77.293 222.387 -0.23 -0.01    +0.032 C  
DOCKED: BRANCH  20  23
DOCKED: ATOM     23  C   UNL     1     139.737  78.200 222.085 -0.29 +0.01    -0.025 A  
DOCKED: ATOM     24  C   UNL     1     139.511  78.928 223.267 -0.36 -0.00    +0.007 A  
DOCKED: ATOM     25  C   UNL     1     140.982  78.305 221.444 -0.33 -0.00    +0.007 A  
DOCKED: ATOM     26  C   UNL     1     140.521  79.730 223.807 -0.47 -0.00    +0.021 A  
DOCKED: ATOM     27  C   UNL     1     141.990  79.108 221.985 -0.46 -0.01    +0.021 A  
DOCKED: ATOM     28  C   UNL     1     141.762  79.818 223.168 -0.55 -0.01    +0.041 A  
DOCKED: ATOM     29  Cl  UNL     1     143.028  80.825 223.847 -0.71 +0.02    -0.084 Cl 
DOCKED: ENDBRANCH  20  23
DOCKED: ENDBRANCH  16  18
DOCKED: ENDBRANCH   1  16
DOCKED: TORSDOF 6
DOCKED: TER
DOCKED: ENDMDL
________________________________________________________________________________


    FINAL DOCKED STATE:
    ________________________


Run:   13 / 20
Time taken for this run:   0.039s

DOCKED: MODEL        13
DOCKED: USER    Run = 13
DOCKED: USER
DOCKED: USER    Estimated Free Energy of Binding    =  -6.65 kcal/mol  [=(1)+(2)+(3)-(4)]
DOCKED: USER
DOCKED: USER    (1) Final Intermolecular Energy     =  -8.44 kcal/mol
DOCKED: USER        vdW + Hbond + desolv Energy     =  -8.51 kcal/mol
DOCKED: USER        Electrostatic Energy            =  +0.07 kcal/mol
DOCKED: USER        Moving Ligand-Fixed Receptor    =  -8.44 kcal/mol
DOCKED: USER        Moving Ligand-Moving Receptor   =  +0.00 kcal/mol
DOCKED: USER    (2) Final Total Internal Energy     =  -2.40 kcal/mol
DOCKED: USER    (3) Torsional Free Energy           =  +1.79 kcal/mol
DOCKED: USER    (4) Unbound System's Energy         =  -2.40 kcal/mol
DOCKED: USER
DOCKED: USER
DOCKED: REMARK SMILES O=C([N-]CC(=O)N1CCC[C@H]1c1ccc(Cl)cc1)c1ccc2cc(F)ccc2n1
DOCKED: REMARK SMILES IDX 4 1 3 2 2 3 1 4 19 5 20 6 29 7 21 8 28 9 22 10 27 11 23 12
DOCKED: REMARK SMILES IDX 26 13 24 14 25 15 5 16 6 17 7 18 8 19 11 20 9 21 10 22 12 23
DOCKED: REMARK SMILES IDX 13 24 18 25 14 26 17 27 15 28 16 29
DOCKED: REMARK H PARENT
DOCKED: USER                              x       y       z     vdW  Elec       q    Type
DOCKED: USER                           _______ _______ _______ _____ _____    ______ ____
DOCKED: ROOT
DOCKED: ATOM      1  C   UNL     1     141.039  72.544 221.416 -0.26 +0.00    -0.015 C  
DOCKED: ENDROOT
DOCKED: BRANCH   1   2
DOCKED: ATOM      2  N   UNL     1     140.608  73.761 222.096 -0.54 +0.00    -0.640 NA 
DOCKED: BRANCH   2   3
DOCKED: ATOM      3  C   UNL     1     139.698  74.756 221.608 -0.26 -0.02    +0.101 C  
DOCKED: ATOM      4  O   UNL     1     138.606  74.368 221.115 -0.09 +0.07    -0.313 OA 
DOCKED: BRANCH   3   5
DOCKED: ATOM      5  C   UNL     1     139.976  76.208 221.672 -0.29 -0.02    +0.088 A  
DOCKED: ATOM      6  C   UNL     1     139.518  77.060 220.654 -0.13 -0.01    +0.031 A  
DOCKED: ATOM      7  N   UNL     1     140.729  76.723 222.684 -0.26 +0.07    -0.246 NA 
DOCKED: ATOM      8  C   UNL     1     139.819  78.423 220.701 -0.15 -0.00    +0.013 A  
DOCKED: ATOM      9  C   UNL     1     141.045  78.044 222.753 -0.44 -0.03    +0.071 A  
DOCKED: ATOM     10  C   UNL     1     140.589  78.930 221.753 -0.31 -0.00    +0.003 A  
DOCKED: ATOM     11  C   UNL     1     141.831  78.527 223.807 -0.56 -0.01    +0.032 A  
DOCKED: ATOM     12  C   UNL     1     140.917  80.293 221.826 -0.32 -0.01    +0.049 A  
DOCKED: ATOM     13  C   UNL     1     142.154  79.886 223.873 -0.59 -0.01    +0.041 A  
DOCKED: ATOM     14  C   UNL     1     141.697  80.766 222.886 -0.46 -0.03    +0.123 A  
DOCKED: ATOM     15  F   UNL     1     142.016  82.083 222.956 -0.10 +0.02    -0.207 F  
DOCKED: ENDBRANCH   3   5
DOCKED: ENDBRANCH   2   3
DOCKED: ENDBRANCH   1   2
DOCKED: BRANCH   1  16
DOCKED: ATOM     16  C   UNL     1     141.904  72.848 220.223 -0.13 -0.03    +0.205 C  
DOCKED: ATOM     17  O   UNL     1     141.351  72.928 219.093 -0.02 +0.05    -0.277 OA 
DOCKED: BRANCH  16  18
DOCKED: ATOM     18  N   UNL     1     143.321  73.104 220.332 -0.12 +0.06    -0.337 N  
DOCKED: ATOM     19  C   UNL     1     144.298  72.030 220.255 -0.27 -0.01    +0.120 C  
DOCKED: ATOM     20  C   UNL     1     143.943  74.405 220.568 -0.28 -0.04    +0.115 C  
DOCKED: ATOM     21  C   UNL     1     145.628  72.648 220.661 -0.49 -0.00    +0.024 C  
DOCKED: ATOM     22  C   UNL     1     145.454  74.154 220.499 -0.52 -0.01    +0.032 C  
DOCKED: BRANCH  20  23
DOCKED: ATOM     23  C   UNL     1     143.509  75.435 219.545 -0.38 +0.01    -0.025 A  
DOCKED: ATOM     24  C   UNL     1     142.948  76.661 219.948 -0.29 -0.01    +0.007 A  
DOCKED: ATOM     25  C   UNL     1     143.640  75.161 218.174 -0.22 -0.00    +0.007 A  
DOCKED: ATOM     26  C   UNL     1     142.545  77.601 218.996 -0.32 -0.01    +0.021 A  
DOCKED: ATOM     27  C   UNL     1     143.236  76.103 217.223 -0.22 -0.01    +0.021 A  
DOCKED: ATOM     28  C   UNL     1     142.691  77.324 217.632 -0.27 -0.03    +0.041 A  
DOCKED: ATOM     29  Cl  UNL     1     142.186  78.506 216.438 -0.22 +0.08    -0.084 Cl 
DOCKED: ENDBRANCH  20  23
DOCKED: ENDBRANCH  16  18
DOCKED: ENDBRANCH   1  16
DOCKED: TORSDOF 6
DOCKED: TER
DOCKED: ENDMDL
________________________________________________________________________________


    FINAL DOCKED STATE:
    ________________________


Run:   14 / 20
Time taken for this run:   0.039s

DOCKED: MODEL        14
DOCKED: USER    Run = 14
DOCKED: USER
DOCKED: USER    Estimated Free Energy of Binding    =  -6.05 kcal/mol  [=(1)+(2)+(3)-(4)]
DOCKED: USER
DOCKED: USER    (1) Final Intermolecular Energy     =  -7.84 kcal/mol
DOCKED: USER        vdW + Hbond + desolv Energy     =  -7.96 kcal/mol
DOCKED: USER        Electrostatic Energy            =  +0.12 kcal/mol
DOCKED: USER        Moving Ligand-Fixed Receptor    =  -7.84 kcal/mol
DOCKED: USER        Moving Ligand-Moving Receptor   =  +0.00 kcal/mol
DOCKED: USER    (2) Final Total Internal Energy     =  -2.87 kcal/mol
DOCKED: USER    (3) Torsional Free Energy           =  +1.79 kcal/mol
DOCKED: USER    (4) Unbound System's Energy         =  -2.87 kcal/mol
DOCKED: USER
DOCKED: USER
DOCKED: REMARK SMILES O=C([N-]CC(=O)N1CCC[C@H]1c1ccc(Cl)cc1)c1ccc2cc(F)ccc2n1
DOCKED: REMARK SMILES IDX 4 1 3 2 2 3 1 4 19 5 20 6 29 7 21 8 28 9 22 10 27 11 23 12
DOCKED: REMARK SMILES IDX 26 13 24 14 25 15 5 16 6 17 7 18 8 19 11 20 9 21 10 22 12 23
DOCKED: REMARK SMILES IDX 13 24 18 25 14 26 17 27 15 28 16 29
DOCKED: REMARK H PARENT
DOCKED: USER                              x       y       z     vdW  Elec       q    Type
DOCKED: USER                           _______ _______ _______ _____ _____    ______ ____
DOCKED: ROOT
DOCKED: ATOM      1  C   UNL     1     139.486  75.894 219.102 -0.05 +0.00    -0.015 C  
DOCKED: ENDROOT
DOCKED: BRANCH   1   2
DOCKED: ATOM      2  N   UNL     1     138.894  75.566 220.394 +0.04 +0.15    -0.640 NA 
DOCKED: BRANCH   2   3
DOCKED: ATOM      3  C   UNL     1     139.499  75.701 221.688 -0.27 -0.02    +0.101 C  
DOCKED: ATOM      4  O   UNL     1     139.756  74.649 222.333 -0.74 +0.03    -0.313 OA 
DOCKED: BRANCH   3   5
DOCKED: ATOM      5  C   UNL     1     139.844  77.008 222.288 -0.33 -0.02    +0.088 A  
DOCKED: ATOM      6  C   UNL     1     138.834  77.836 222.806 -0.27 -0.01    +0.031 A  
DOCKED: ATOM      7  N   UNL     1     141.133  77.449 222.288 -0.24 +0.11    -0.246 NA 
DOCKED: ATOM      8  C   UNL     1     139.164  79.086 223.333 -0.36 -0.00    +0.013 A  
DOCKED: ATOM      9  C   UNL     1     141.484  78.663 222.789 -0.48 -0.03    +0.071 A  
DOCKED: ATOM     10  C   UNL     1     140.497  79.515 223.329 -0.47 -0.00    +0.003 A  
DOCKED: ATOM     11  C   UNL     1     142.822  79.079 222.759 -0.32 -0.02    +0.032 A  
DOCKED: ATOM     12  C   UNL     1     140.861  80.769 223.844 -0.41 -0.01    +0.049 A  
DOCKED: ATOM     13  C   UNL     1     143.178  80.330 223.273 -0.60 -0.01    +0.041 A  
DOCKED: ATOM     14  C   UNL     1     142.200  81.172 223.815 -0.54 -0.02    +0.123 A  
DOCKED: ATOM     15  F   UNL     1     142.552  82.384 224.311 -0.08 +0.00    -0.207 F  
DOCKED: ENDBRANCH   3   5
DOCKED: ENDBRANCH   2   3
DOCKED: ENDBRANCH   1   2
DOCKED: BRANCH   1  16
DOCKED: ATOM     16  C   UNL     1     139.257  77.335 218.732 -0.01 -0.06    +0.205 C  
DOCKED: ATOM     17  O   UNL     1     138.145  77.650 218.227 -0.00 +0.07    -0.277 OA 
DOCKED: BRANCH  16  18
DOCKED: ATOM     18  N   UNL     1     140.233  78.368 218.983 -0.01 +0.12    -0.337 N  
DOCKED: ATOM     19  C   UNL     1     139.950  79.484 219.871 -0.09 -0.04    +0.120 C  
DOCKED: ATOM     20  C   UNL     1     141.560  78.463 218.377 -0.18 -0.07    +0.115 C  
DOCKED: ATOM     21  C   UNL     1     141.095  80.469 219.680 -0.24 -0.01    +0.024 C  
DOCKED: ATOM     22  C   UNL     1     142.228  79.671 219.044 -0.25 -0.02    +0.032 C  
DOCKED: BRANCH  20  23
DOCKED: ATOM     23  C   UNL     1     142.369  77.200 218.586 -0.28 +0.02    -0.025 A  
DOCKED: ATOM     24  C   UNL     1     142.825  76.444 217.490 -0.23 -0.00    +0.007 A  
DOCKED: ATOM     25  C   UNL     1     142.653  76.756 219.889 -0.33 -0.00    +0.007 A  
DOCKED: ATOM     26  C   UNL     1     143.566  75.277 217.695 -0.20 -0.01    +0.021 A  
DOCKED: ATOM     27  C   UNL     1     143.394  75.588 220.091 -0.34 -0.01    +0.021 A  
DOCKED: ATOM     28  C   UNL     1     143.854  74.850 218.996 -0.24 -0.02    +0.041 A  
DOCKED: ATOM     29  Cl  UNL     1     144.785  73.385 219.251 -0.44 +0.01    -0.084 Cl 
DOCKED: ENDBRANCH  20  23
DOCKED: ENDBRANCH  16  18
DOCKED: ENDBRANCH   1  16
DOCKED: TORSDOF 6
DOCKED: TER
DOCKED: ENDMDL
________________________________________________________________________________


    FINAL DOCKED STATE:
    ________________________


Run:   15 / 20
Time taken for this run:   0.039s

DOCKED: MODEL        15
DOCKED: USER    Run = 15
DOCKED: USER
DOCKED: USER    Estimated Free Energy of Binding    =  -7.94 kcal/mol  [=(1)+(2)+(3)-(4)]
DOCKED: USER
DOCKED: USER    (1) Final Intermolecular Energy     =  -9.73 kcal/mol
DOCKED: USER        vdW + Hbond + desolv Energy     =  -9.74 kcal/mol
DOCKED: USER        Electrostatic Energy            =  +0.00 kcal/mol
DOCKED: USER        Moving Ligand-Fixed Receptor    =  -9.73 kcal/mol
DOCKED: USER        Moving Ligand-Moving Receptor   =  +0.00 kcal/mol
DOCKED: USER    (2) Final Total Internal Energy     =  -1.30 kcal/mol
DOCKED: USER    (3) Torsional Free Energy           =  +1.79 kcal/mol
DOCKED: USER    (4) Unbound System's Energy         =  -1.30 kcal/mol
DOCKED: USER
DOCKED: USER
DOCKED: REMARK SMILES O=C([N-]CC(=O)N1CCC[C@H]1c1ccc(Cl)cc1)c1ccc2cc(F)ccc2n1
DOCKED: REMARK SMILES IDX 4 1 3 2 2 3 1 4 19 5 20 6 29 7 21 8 28 9 22 10 27 11 23 12
DOCKED: REMARK SMILES IDX 26 13 24 14 25 15 5 16 6 17 7 18 8 19 11 20 9 21 10 22 12 23
DOCKED: REMARK SMILES IDX 13 24 18 25 14 26 17 27 15 28 16 29
DOCKED: REMARK H PARENT
DOCKED: USER                              x       y       z     vdW  Elec       q    Type
DOCKED: USER                           _______ _______ _______ _____ _____    ______ ____
DOCKED: ROOT
DOCKED: ATOM      1  C   UNL     1     140.727  74.804 221.259 -0.31 +0.00    -0.015 C  
DOCKED: ENDROOT
DOCKED: BRANCH   1   2
DOCKED: ATOM      2  N   UNL     1     140.614  73.828 222.338 -0.47 -0.05    -0.640 NA 
DOCKED: BRANCH   2   3
DOCKED: ATOM      3  C   UNL     1     140.300  72.433 222.220 -0.28 -0.01    +0.101 C  
DOCKED: ATOM      4  O   UNL     1     140.140  71.957 221.065 -0.08 +0.05    -0.313 OA 
DOCKED: BRANCH   3   5
DOCKED: ATOM      5  C   UNL     1     140.172  71.531 223.387 -0.34 -0.01    +0.088 A  
DOCKED: ATOM      6  C   UNL     1     139.463  70.324 223.272 -0.26 -0.01    +0.031 A  
DOCKED: ATOM      7  N   UNL     1     140.685  71.891 224.596 -0.26 +0.03    -0.246 NA 
DOCKED: ATOM      8  C   UNL     1     139.312  69.498 224.388 -0.33 -0.00    +0.013 A  
DOCKED: ATOM      9  C   UNL     1     140.549  71.111 225.702 -0.54 -0.01    +0.071 A  
DOCKED: ATOM     10  C   UNL     1     139.854  69.885 225.619 -0.46 -0.00    +0.003 A  
DOCKED: ATOM     11  C   UNL     1     141.085  71.526 226.928 -0.72 -0.01    +0.032 A  
DOCKED: ATOM     12  C   UNL     1     139.714  69.082 226.761 -0.51 -0.01    +0.049 A  
DOCKED: ATOM     13  C   UNL     1     140.941  70.721 228.063 -0.63 -0.01    +0.041 A  
DOCKED: ATOM     14  C   UNL     1     140.258  69.503 227.980 -0.52 -0.02    +0.123 A  
DOCKED: ATOM     15  F   UNL     1     140.121  68.729 229.085 -0.14 +0.04    -0.207 F  
DOCKED: ENDBRANCH   3   5
DOCKED: ENDBRANCH   2   3
DOCKED: ENDBRANCH   1   2
DOCKED: BRANCH   1  16
DOCKED: ATOM     16  C   UNL     1     139.378  75.211 220.730 -0.12 -0.05    +0.205 C  
DOCKED: ATOM     17  O   UNL     1     139.090  74.908 219.541 -0.02 +0.06    -0.277 OA 
DOCKED: BRANCH  16  18
DOCKED: ATOM     18  N   UNL     1     138.390  75.878 221.544 -0.09 +0.08    -0.337 N  
DOCKED: ATOM     19  C   UNL     1     137.433  75.133 222.346 -0.15 -0.04    +0.120 C  
DOCKED: ATOM     20  C   UNL     1     138.189  77.323 221.641 -0.16 -0.02    +0.115 C  
DOCKED: ATOM     21  C   UNL     1     136.422  76.155 222.844 -0.24 -0.01    +0.024 C  
DOCKED: ATOM     22  C   UNL     1     137.099  77.514 222.701 -0.21 -0.01    +0.032 C  
DOCKED: BRANCH  20  23
DOCKED: ATOM     23  C   UNL     1     139.463  78.047 222.024 -0.27 +0.01    -0.025 A  
DOCKED: ATOM     24  C   UNL     1     139.590  78.673 223.278 -0.31 -0.00    +0.007 A  
DOCKED: ATOM     25  C   UNL     1     140.529  78.123 221.112 -0.25 -0.00    +0.007 A  
DOCKED: ATOM     26  C   UNL     1     140.768  79.344 223.618 -0.51 -0.00    +0.021 A  
DOCKED: ATOM     27  C   UNL     1     141.706  78.795 221.454 -0.38 -0.01    +0.021 A  
DOCKED: ATOM     28  C   UNL     1     141.828  79.402 222.708 -0.52 -0.02    +0.041 A  
DOCKED: ATOM     29  Cl  UNL     1     143.306  80.244 223.136 -0.66 +0.03    -0.084 Cl 
DOCKED: ENDBRANCH  20  23
DOCKED: ENDBRANCH  16  18
DOCKED: ENDBRANCH   1  16
DOCKED: TORSDOF 6
DOCKED: TER
DOCKED: ENDMDL
________________________________________________________________________________


    FINAL DOCKED STATE:
    ________________________


Run:   16 / 20
Time taken for this run:   0.039s

DOCKED: MODEL        16
DOCKED: USER    Run = 16
DOCKED: USER
DOCKED: USER    Estimated Free Energy of Binding    =  -7.55 kcal/mol  [=(1)+(2)+(3)-(4)]
DOCKED: USER
DOCKED: USER    (1) Final Intermolecular Energy     =  -9.34 kcal/mol
DOCKED: USER        vdW + Hbond + desolv Energy     =  -9.38 kcal/mol
DOCKED: USER        Electrostatic Energy            =  +0.04 kcal/mol
DOCKED: USER        Moving Ligand-Fixed Receptor    =  -9.34 kcal/mol
DOCKED: USER        Moving Ligand-Moving Receptor   =  +0.00 kcal/mol
DOCKED: USER    (2) Final Total Internal Energy     =  -1.46 kcal/mol
DOCKED: USER    (3) Torsional Free Energy           =  +1.79 kcal/mol
DOCKED: USER    (4) Unbound System's Energy         =  -1.46 kcal/mol
DOCKED: USER
DOCKED: USER
DOCKED: REMARK SMILES O=C([N-]CC(=O)N1CCC[C@H]1c1ccc(Cl)cc1)c1ccc2cc(F)ccc2n1
DOCKED: REMARK SMILES IDX 4 1 3 2 2 3 1 4 19 5 20 6 29 7 21 8 28 9 22 10 27 11 23 12
DOCKED: REMARK SMILES IDX 26 13 24 14 25 15 5 16 6 17 7 18 8 19 11 20 9 21 10 22 12 23
DOCKED: REMARK SMILES IDX 13 24 18 25 14 26 17 27 15 28 16 29
DOCKED: REMARK H PARENT
DOCKED: USER                              x       y       z     vdW  Elec       q    Type
DOCKED: USER                           _______ _______ _______ _____ _____    ______ ____
DOCKED: ROOT
DOCKED: ATOM      1  C   UNL     1     138.958  74.676 221.660 -0.24 +0.00    -0.015 C  
DOCKED: ENDROOT
DOCKED: BRANCH   1   2
DOCKED: ATOM      2  N   UNL     1     140.009  73.925 222.336 -0.61 +0.02    -0.640 NA 
DOCKED: BRANCH   2   3
DOCKED: ATOM      3  C   UNL     1     140.266  72.516 222.250 -0.28 -0.01    +0.101 C  
DOCKED: ATOM      4  O   UNL     1     140.637  72.049 221.140 -0.11 +0.04    -0.313 OA 
DOCKED: BRANCH   3   5
DOCKED: ATOM      5  C   UNL     1     140.131  71.597 223.402 -0.34 -0.01    +0.088 A  
DOCKED: ATOM      6  C   UNL     1     139.402  70.403 223.271 -0.27 -0.01    +0.031 A  
DOCKED: ATOM      7  N   UNL     1     140.659  71.927 224.614 -0.23 +0.03    -0.246 NA 
DOCKED: ATOM      8  C   UNL     1     139.245  69.561 224.374 -0.33 -0.00    +0.013 A  
DOCKED: ATOM      9  C   UNL     1     140.517  71.131 225.707 -0.53 -0.01    +0.071 A  
DOCKED: ATOM     10  C   UNL     1     139.801  69.918 225.608 -0.46 -0.00    +0.003 A  
DOCKED: ATOM     11  C   UNL     1     141.068  71.515 226.936 -0.72 -0.01    +0.032 A  
DOCKED: ATOM     12  C   UNL     1     139.656  69.098 226.737 -0.51 -0.01    +0.049 A  
DOCKED: ATOM     13  C   UNL     1     140.918  70.694 228.058 -0.62 -0.01    +0.041 A  
DOCKED: ATOM     14  C   UNL     1     140.215  69.488 227.959 -0.52 -0.02    +0.123 A  
DOCKED: ATOM     15  F   UNL     1     140.072  68.698 229.051 -0.15 +0.04    -0.207 F  
DOCKED: ENDBRANCH   3   5
DOCKED: ENDBRANCH   2   3
DOCKED: ENDBRANCH   1   2
DOCKED: BRANCH   1  16
DOCKED: ATOM     16  C   UNL     1     139.289  74.923 220.213 -0.07 -0.05    +0.205 C  
DOCKED: ATOM     17  O   UNL     1     138.336  75.019 219.393 -0.01 +0.06    -0.277 OA 
DOCKED: BRANCH  16  18
DOCKED: ATOM     18  N   UNL     1     140.641  75.109 219.744 -0.02 +0.09    -0.337 N  
DOCKED: ATOM     19  C   UNL     1     141.032  74.759 218.388 -0.04 -0.03    +0.120 C  
DOCKED: ATOM     20  C   UNL     1     141.765  75.608 220.534 -0.24 -0.05    +0.115 C  
DOCKED: ATOM     21  C   UNL     1     142.551  74.855 218.355 -0.15 -0.01    +0.024 C  
DOCKED: ATOM     22  C   UNL     1     142.940  75.711 219.555 -0.34 -0.02    +0.032 C  
DOCKED: BRANCH  20  23
DOCKED: ATOM     23  C   UNL     1     141.459  76.948 221.170 -0.27 +0.01    -0.025 A  
DOCKED: ATOM     24  C   UNL     1     141.009  77.030 222.501 -0.40 -0.00    +0.007 A  
DOCKED: ATOM     25  C   UNL     1     141.598  78.129 220.422 -0.30 -0.00    +0.007 A  
DOCKED: ATOM     26  C   UNL     1     140.724  78.272 223.076 -0.44 -0.01    +0.021 A  
DOCKED: ATOM     27  C   UNL     1     141.312  79.369 220.999 -0.32 -0.01    +0.021 A  
DOCKED: ATOM     28  C   UNL     1     140.879  79.443 222.327 -0.37 -0.01    +0.041 A  
DOCKED: ATOM     29  Cl  UNL     1     140.521  81.000 223.050 -0.50 +0.01    -0.084 Cl 
DOCKED: ENDBRANCH  20  23
DOCKED: ENDBRANCH  16  18
DOCKED: ENDBRANCH   1  16
DOCKED: TORSDOF 6
DOCKED: TER
DOCKED: ENDMDL
________________________________________________________________________________


    FINAL DOCKED STATE:
    ________________________


Run:   17 / 20
Time taken for this run:   0.039s

DOCKED: MODEL        17
DOCKED: USER    Run = 17
DOCKED: USER
DOCKED: USER    Estimated Free Energy of Binding    =  -7.73 kcal/mol  [=(1)+(2)+(3)-(4)]
DOCKED: USER
DOCKED: USER    (1) Final Intermolecular Energy     =  -9.52 kcal/mol
DOCKED: USER        vdW + Hbond + desolv Energy     =  -9.65 kcal/mol
DOCKED: USER        Electrostatic Energy            =  +0.13 kcal/mol
DOCKED: USER        Moving Ligand-Fixed Receptor    =  -9.52 kcal/mol
DOCKED: USER        Moving Ligand-Moving Receptor   =  +0.00 kcal/mol
DOCKED: USER    (2) Final Total Internal Energy     =  -1.55 kcal/mol
DOCKED: USER    (3) Torsional Free Energy           =  +1.79 kcal/mol
DOCKED: USER    (4) Unbound System's Energy         =  -1.55 kcal/mol
DOCKED: USER
DOCKED: USER
DOCKED: REMARK SMILES O=C([N-]CC(=O)N1CCC[C@H]1c1ccc(Cl)cc1)c1ccc2cc(F)ccc2n1
DOCKED: REMARK SMILES IDX 4 1 3 2 2 3 1 4 19 5 20 6 29 7 21 8 28 9 22 10 27 11 23 12
DOCKED: REMARK SMILES IDX 26 13 24 14 25 15 5 16 6 17 7 18 8 19 11 20 9 21 10 22 12 23
DOCKED: REMARK SMILES IDX 13 24 18 25 14 26 17 27 15 28 16 29
DOCKED: REMARK H PARENT
DOCKED: USER                              x       y       z     vdW  Elec       q    Type
DOCKED: USER                           _______ _______ _______ _____ _____    ______ ____
DOCKED: ROOT
DOCKED: ATOM      1  C   UNL     1     141.530  71.217 220.234 -0.14 +0.00    -0.015 C  
DOCKED: ENDROOT
DOCKED: BRANCH   1   2
DOCKED: ATOM      2  N   UNL     1     140.402  71.939 220.814 +0.02 +0.10    -0.640 NA 
DOCKED: BRANCH   2   3
DOCKED: ATOM      3  C   UNL     1     140.276  72.422 222.159 -0.27 -0.01    +0.101 C  
DOCKED: ATOM      4  O   UNL     1     140.222  73.668 222.337 -0.81 +0.00    -0.313 OA 
DOCKED: BRANCH   3   5
DOCKED: ATOM      5  C   UNL     1     140.190  71.527 223.335 -0.33 -0.01    +0.088 A  
DOCKED: ATOM      6  C   UNL     1     139.545  70.284 223.230 -0.26 -0.01    +0.031 A  
DOCKED: ATOM      7  N   UNL     1     140.681  71.925 224.541 -0.23 +0.03    -0.246 NA 
DOCKED: ATOM      8  C   UNL     1     139.433  69.463 224.354 -0.33 -0.00    +0.013 A  
DOCKED: ATOM      9  C   UNL     1     140.581  71.151 225.655 -0.54 -0.01    +0.071 A  
DOCKED: ATOM     10  C   UNL     1     139.950  69.890 225.583 -0.46 -0.00    +0.003 A  
DOCKED: ATOM     11  C   UNL     1     141.092  71.606 226.878 -0.72 -0.01    +0.032 A  
DOCKED: ATOM     12  C   UNL     1     139.848  69.093 226.733 -0.52 -0.01    +0.049 A  
DOCKED: ATOM     13  C   UNL     1     140.985  70.807 228.021 -0.65 -0.01    +0.041 A  
DOCKED: ATOM     14  C   UNL     1     140.366  69.554 227.949 -0.52 -0.02    +0.123 A  
DOCKED: ATOM     15  F   UNL     1     140.265  68.785 229.061 -0.14 +0.04    -0.207 F  
DOCKED: ENDBRANCH   3   5
DOCKED: ENDBRANCH   2   3
DOCKED: ENDBRANCH   1   2
DOCKED: BRANCH   1  16
DOCKED: ATOM     16  C   UNL     1     142.395  72.115 219.392 -0.07 -0.03    +0.205 C  
DOCKED: ATOM     17  O   UNL     1     141.968  72.457 218.256 -0.01 +0.05    -0.277 OA 
DOCKED: BRANCH  16  18
DOCKED: ATOM     18  N   UNL     1     143.657  72.641 219.855 -0.09 +0.04    -0.337 N  
DOCKED: ATOM     19  C   UNL     1     144.921  72.025 219.486 -0.27 +0.02    +0.120 C  
DOCKED: ATOM     20  C   UNL     1     143.836  73.781 220.752 -0.28 -0.03    +0.115 C  
DOCKED: ATOM     21  C   UNL     1     145.978  72.691 220.355 -0.51 +0.00    +0.024 C  
DOCKED: ATOM     22  C   UNL     1     145.352  73.990 220.851 -0.56 -0.01    +0.032 C  
DOCKED: BRANCH  20  23
DOCKED: ATOM     23  C   UNL     1     143.142  75.024 220.234 -0.33 +0.01    -0.025 A  
DOCKED: ATOM     24  C   UNL     1     143.689  75.768 219.172 -0.35 -0.00    +0.007 A  
DOCKED: ATOM     25  C   UNL     1     141.949  75.462 220.832 -0.26 -0.00    +0.007 A  
DOCKED: ATOM     26  C   UNL     1     143.042  76.916 218.706 -0.34 -0.01    +0.021 A  
DOCKED: ATOM     27  C   UNL     1     141.304  76.611 220.365 -0.25 -0.01    +0.021 A  
DOCKED: ATOM     28  C   UNL     1     141.847  77.337 219.300 -0.25 -0.02    +0.041 A  
DOCKED: ATOM     29  Cl  UNL     1     141.037  78.778 218.714 -0.21 +0.04    -0.084 Cl 
DOCKED: ENDBRANCH  20  23
DOCKED: ENDBRANCH  16  18
DOCKED: ENDBRANCH   1  16
DOCKED: TORSDOF 6
DOCKED: TER
DOCKED: ENDMDL
________________________________________________________________________________


    FINAL DOCKED STATE:
    ________________________


Run:   18 / 20
Time taken for this run:   0.039s

DOCKED: MODEL        18
DOCKED: USER    Run = 18
DOCKED: USER
DOCKED: USER    Estimated Free Energy of Binding    =  -6.45 kcal/mol  [=(1)+(2)+(3)-(4)]
DOCKED: USER
DOCKED: USER    (1) Final Intermolecular Energy     =  -8.24 kcal/mol
DOCKED: USER        vdW + Hbond + desolv Energy     =  -8.34 kcal/mol
DOCKED: USER        Electrostatic Energy            =  +0.09 kcal/mol
DOCKED: USER        Moving Ligand-Fixed Receptor    =  -8.24 kcal/mol
DOCKED: USER        Moving Ligand-Moving Receptor   =  +0.00 kcal/mol
DOCKED: USER    (2) Final Total Internal Energy     =  -2.48 kcal/mol
DOCKED: USER    (3) Torsional Free Energy           =  +1.79 kcal/mol
DOCKED: USER    (4) Unbound System's Energy         =  -2.48 kcal/mol
DOCKED: USER
DOCKED: USER
DOCKED: REMARK SMILES O=C([N-]CC(=O)N1CCC[C@H]1c1ccc(Cl)cc1)c1ccc2cc(F)ccc2n1
DOCKED: REMARK SMILES IDX 4 1 3 2 2 3 1 4 19 5 20 6 29 7 21 8 28 9 22 10 27 11 23 12
DOCKED: REMARK SMILES IDX 26 13 24 14 25 15 5 16 6 17 7 18 8 19 11 20 9 21 10 22 12 23
DOCKED: REMARK SMILES IDX 13 24 18 25 14 26 17 27 15 28 16 29
DOCKED: REMARK H PARENT
DOCKED: USER                              x       y       z     vdW  Elec       q    Type
DOCKED: USER                           _______ _______ _______ _____ _____    ______ ____
DOCKED: ROOT
DOCKED: ATOM      1  C   UNL     1     141.050  72.377 221.456 -0.26 +0.00    -0.015 C  
DOCKED: ENDROOT
DOCKED: BRANCH   1   2
DOCKED: ATOM      2  N   UNL     1     140.383  73.321 222.346 -0.53 +0.01    -0.640 NA 
DOCKED: BRANCH   2   3
DOCKED: ATOM      3  C   UNL     1     139.488  74.381 221.979 -0.22 -0.02    +0.101 C  
DOCKED: ATOM      4  O   UNL     1     138.266  74.106 221.851 -0.14 +0.09    -0.313 OA 
DOCKED: BRANCH   3   5
DOCKED: ATOM      5  C   UNL     1     139.933  75.776 221.762 -0.30 -0.02    +0.088 A  
DOCKED: ATOM      6  C   UNL     1     139.714  76.402 220.523 -0.14 -0.01    +0.031 A  
DOCKED: ATOM      7  N   UNL     1     140.611  76.444 222.737 -0.21 +0.06    -0.246 NA 
DOCKED: ATOM      8  C   UNL     1     140.173  77.704 220.313 -0.15 -0.00    +0.013 A  
DOCKED: ATOM      9  C   UNL     1     141.075  77.710 222.559 -0.42 -0.03    +0.071 A  
DOCKED: ATOM     10  C   UNL     1     140.862  78.373 221.332 -0.30 -0.00    +0.003 A  
DOCKED: ATOM     11  C   UNL     1     141.776  78.354 223.587 -0.52 -0.01    +0.032 A  
DOCKED: ATOM     12  C   UNL     1     141.342  79.679 221.150 -0.32 -0.02    +0.049 A  
DOCKED: ATOM     13  C   UNL     1     142.253  79.656 223.399 -0.60 -0.01    +0.041 A  
DOCKED: ATOM     14  C   UNL     1     142.036  80.316 222.184 -0.43 -0.04    +0.123 A  
DOCKED: ATOM     15  F   UNL     1     142.503  81.577 222.009 -0.04 +0.04    -0.207 F  
DOCKED: ENDBRANCH   3   5
DOCKED: ENDBRANCH   2   3
DOCKED: ENDBRANCH   1   2
DOCKED: BRANCH   1  16
DOCKED: ATOM     16  C   UNL     1     141.838  73.081 220.384 -0.14 -0.04    +0.205 C  
DOCKED: ATOM     17  O   UNL     1     141.207  73.587 219.417 -0.04 +0.06    -0.277 OA 
DOCKED: BRANCH  16  18
DOCKED: ATOM     18  N   UNL     1     143.271  73.247 220.452 -0.13 +0.07    -0.337 N  
DOCKED: ATOM     19  C   UNL     1     144.168  72.105 220.511 -0.28 -0.02    +0.120 C  
DOCKED: ATOM     20  C   UNL     1     143.987  74.519 220.513 -0.31 -0.05    +0.115 C  
DOCKED: ATOM     21  C   UNL     1     145.544  72.673 220.827 -0.48 -0.00    +0.024 C  
DOCKED: ATOM     22  C   UNL     1     145.475  74.154 220.470 -0.52 -0.01    +0.032 C  
DOCKED: BRANCH  20  23
DOCKED: ATOM     23  C   UNL     1     143.612  75.436 219.367 -0.36 +0.01    -0.025 A  
DOCKED: ATOM     24  C   UNL     1     143.631  74.976 218.037 -0.21 -0.00    +0.007 A  
DOCKED: ATOM     25  C   UNL     1     143.262  76.773 219.623 -0.35 -0.01    +0.007 A  
DOCKED: ATOM     26  C   UNL     1     143.288  75.833 216.988 -0.20 -0.01    +0.021 A  
DOCKED: ATOM     27  C   UNL     1     142.921  77.627 218.571 -0.32 -0.02    +0.021 A  
DOCKED: ATOM     28  C   UNL     1     142.930  77.159 217.254 -0.26 -0.03    +0.041 A  
DOCKED: ATOM     29  Cl  UNL     1     142.500  78.232 215.935 -0.16 +0.08    -0.084 Cl 
DOCKED: ENDBRANCH  20  23
DOCKED: ENDBRANCH  16  18
DOCKED: ENDBRANCH   1  16
DOCKED: TORSDOF 6
DOCKED: TER
DOCKED: ENDMDL
________________________________________________________________________________


    FINAL DOCKED STATE:
    ________________________


Run:   19 / 20
Time taken for this run:   0.039s

DOCKED: MODEL        19
DOCKED: USER    Run = 19
DOCKED: USER
DOCKED: USER    Estimated Free Energy of Binding    =  -7.81 kcal/mol  [=(1)+(2)+(3)-(4)]
DOCKED: USER
DOCKED: USER    (1) Final Intermolecular Energy     =  -9.60 kcal/mol
DOCKED: USER        vdW + Hbond + desolv Energy     =  -9.73 kcal/mol
DOCKED: USER        Electrostatic Energy            =  +0.14 kcal/mol
DOCKED: USER        Moving Ligand-Fixed Receptor    =  -9.60 kcal/mol
DOCKED: USER        Moving Ligand-Moving Receptor   =  +0.00 kcal/mol
DOCKED: USER    (2) Final Total Internal Energy     =  -1.51 kcal/mol
DOCKED: USER    (3) Torsional Free Energy           =  +1.79 kcal/mol
DOCKED: USER    (4) Unbound System's Energy         =  -1.51 kcal/mol
DOCKED: USER
DOCKED: USER
DOCKED: REMARK SMILES O=C([N-]CC(=O)N1CCC[C@H]1c1ccc(Cl)cc1)c1ccc2cc(F)ccc2n1
DOCKED: REMARK SMILES IDX 4 1 3 2 2 3 1 4 19 5 20 6 29 7 21 8 28 9 22 10 27 11 23 12
DOCKED: REMARK SMILES IDX 26 13 24 14 25 15 5 16 6 17 7 18 8 19 11 20 9 21 10 22 12 23
DOCKED: REMARK SMILES IDX 13 24 18 25 14 26 17 27 15 28 16 29
DOCKED: REMARK H PARENT
DOCKED: USER                              x       y       z     vdW  Elec       q    Type
DOCKED: USER                           _______ _______ _______ _____ _____    ______ ____
DOCKED: ROOT
DOCKED: ATOM      1  C   UNL     1     138.002  74.392 221.976 -0.16 +0.00    -0.015 C  
DOCKED: ENDROOT
DOCKED: BRANCH   1   2
DOCKED: ATOM      2  N   UNL     1     138.787  73.184 221.750 -0.03 +0.16    -0.640 NA 
DOCKED: BRANCH   2   3
DOCKED: ATOM      3  C   UNL     1     139.956  72.758 222.464 -0.23 -0.01    +0.101 C  
DOCKED: ATOM      4  O   UNL     1     141.050  73.326 222.201 -0.55 -0.01    -0.313 OA 
DOCKED: BRANCH   3   5
DOCKED: ATOM      5  C   UNL     1     139.932  71.700 223.499 -0.33 -0.02    +0.088 A  
DOCKED: ATOM      6  C   UNL     1     139.255  70.493 223.258 -0.27 -0.01    +0.031 A  
DOCKED: ATOM      7  N   UNL     1     140.510  71.910 224.714 -0.24 +0.04    -0.246 NA 
DOCKED: ATOM      8  C   UNL     1     139.202  69.516 224.255 -0.33 -0.00    +0.013 A  
DOCKED: ATOM      9  C   UNL     1     140.469  70.981 225.707 -0.52 -0.01    +0.071 A  
DOCKED: ATOM     10  C   UNL     1     139.809  69.752 225.494 -0.44 -0.00    +0.003 A  
DOCKED: ATOM     11  C   UNL     1     141.069  71.245 226.945 -0.69 -0.01    +0.032 A  
DOCKED: ATOM     12  C   UNL     1     139.767  68.794 226.520 -0.53 -0.01    +0.049 A  
DOCKED: ATOM     13  C   UNL     1     141.023  70.287 227.963 -0.59 -0.01    +0.041 A  
DOCKED: ATOM     14  C   UNL     1     140.375  69.065 227.750 -0.53 -0.02    +0.123 A  
DOCKED: ATOM     15  F   UNL     1     140.333  68.141 228.743 -0.19 +0.05    -0.207 F  
DOCKED: ENDBRANCH   3   5
DOCKED: ENDBRANCH   2   3
DOCKED: ENDBRANCH   1   2
DOCKED: BRANCH   1  16
DOCKED: ATOM     16  C   UNL     1     138.799  75.637 221.694 -0.20 -0.05    +0.205 C  
DOCKED: ATOM     17  O   UNL     1     138.563  76.664 222.386 -0.22 +0.06    -0.277 OA 
DOCKED: BRANCH  16  18
DOCKED: ATOM     18  N   UNL     1     139.853  75.682 220.708 -0.06 +0.08    -0.337 N  
DOCKED: ATOM     19  C   UNL     1     139.603  75.369 219.311 -0.04 -0.03    +0.120 C  
DOCKED: ATOM     20  C   UNL     1     141.259  75.987 220.966 -0.25 -0.05    +0.115 C  
DOCKED: ATOM     21  C   UNL     1     140.973  75.277 218.653 -0.08 -0.01    +0.024 C  
DOCKED: ATOM     22  C   UNL     1     141.933  76.003 219.589 -0.24 -0.01    +0.032 C  
DOCKED: BRANCH  20  23
DOCKED: ATOM     23  C   UNL     1     141.429  77.314 221.677 -0.23 +0.01    -0.025 A  
DOCKED: ATOM     24  C   UNL     1     141.296  77.406 223.075 -0.26 -0.00    +0.007 A  
DOCKED: ATOM     25  C   UNL     1     141.697  78.478 220.938 -0.34 -0.00    +0.007 A  
DOCKED: ATOM     26  C   UNL     1     141.449  78.636 223.721 -0.56 -0.01    +0.021 A  
DOCKED: ATOM     27  C   UNL     1     141.850  79.707 221.586 -0.42 -0.01    +0.021 A  
DOCKED: ATOM     28  C   UNL     1     141.730  79.787 222.977 -0.54 -0.01    +0.041 A  
DOCKED: ATOM     29  Cl  UNL     1     141.922  81.330 223.789 -0.67 +0.01    -0.084 Cl 
DOCKED: ENDBRANCH  20  23
DOCKED: ENDBRANCH  16  18
DOCKED: ENDBRANCH   1  16
DOCKED: TORSDOF 6
DOCKED: TER
DOCKED: ENDMDL
________________________________________________________________________________


    FINAL DOCKED STATE:
    ________________________


Run:   20 / 20
Time taken for this run:   0.039s

DOCKED: MODEL        20
DOCKED: USER    Run = 20
DOCKED: USER
DOCKED: USER    Estimated Free Energy of Binding    =  -7.76 kcal/mol  [=(1)+(2)+(3)-(4)]
DOCKED: USER
DOCKED: USER    (1) Final Intermolecular Energy     =  -9.55 kcal/mol
DOCKED: USER        vdW + Hbond + desolv Energy     =  -9.65 kcal/mol
DOCKED: USER        Electrostatic Energy            =  +0.10 kcal/mol
DOCKED: USER        Moving Ligand-Fixed Receptor    =  -9.55 kcal/mol
DOCKED: USER        Moving Ligand-Moving Receptor   =  +0.00 kcal/mol
DOCKED: USER    (2) Final Total Internal Energy     =  -1.23 kcal/mol
DOCKED: USER    (3) Torsional Free Energy           =  +1.79 kcal/mol
DOCKED: USER    (4) Unbound System's Energy         =  -1.23 kcal/mol
DOCKED: USER
DOCKED: USER
DOCKED: REMARK SMILES O=C([N-]CC(=O)N1CCC[C@H]1c1ccc(Cl)cc1)c1ccc2cc(F)ccc2n1
DOCKED: REMARK SMILES IDX 4 1 3 2 2 3 1 4 19 5 20 6 29 7 21 8 28 9 22 10 27 11 23 12
DOCKED: REMARK SMILES IDX 26 13 24 14 25 15 5 16 6 17 7 18 8 19 11 20 9 21 10 22 12 23
DOCKED: REMARK SMILES IDX 13 24 18 25 14 26 17 27 15 28 16 29
DOCKED: REMARK H PARENT
DOCKED: USER                              x       y       z     vdW  Elec       q    Type
DOCKED: USER                           _______ _______ _______ _____ _____    ______ ____
DOCKED: ROOT
DOCKED: ATOM      1  C   UNL     1     140.967  73.705 221.046 -0.26 +0.00    -0.015 C  
DOCKED: ENDROOT
DOCKED: BRANCH   1   2
DOCKED: ATOM      2  N   UNL     1     140.600  73.196 222.363 -0.46 +0.00    -0.640 NA 
DOCKED: BRANCH   2   3
DOCKED: ATOM      3  C   UNL     1     139.605  72.208 222.669 -0.26 -0.02    +0.101 C  
DOCKED: ATOM      4  O   UNL     1     138.566  72.175 221.958 -0.10 +0.07    -0.313 OA 
DOCKED: BRANCH   3   5
DOCKED: ATOM      5  C   UNL     1     139.753  71.224 223.764 -0.35 -0.02    +0.088 A  
DOCKED: ATOM      6  C   UNL     1     139.268  69.914 223.606 -0.27 -0.01    +0.031 A  
DOCKED: ATOM      7  N   UNL     1     140.303  71.592 224.954 -0.30 +0.04    -0.246 NA 
DOCKED: ATOM      8  C   UNL     1     139.375  69.003 224.658 -0.35 -0.00    +0.013 A  
DOCKED: ATOM      9  C   UNL     1     140.415  70.730 225.999 -0.52 -0.01    +0.071 A  
DOCKED: ATOM     10  C   UNL     1     139.951  69.403 225.870 -0.48 -0.00    +0.003 A  
DOCKED: ATOM     11  C   UNL     1     140.979  71.156 227.208 -0.69 -0.01    +0.032 A  
DOCKED: ATOM     12  C   UNL     1     140.066  68.514 226.950 -0.59 -0.01    +0.049 A  
DOCKED: ATOM     13  C   UNL     1     141.091  70.265 228.281 -0.53 -0.01    +0.041 A  
DOCKED: ATOM     14  C   UNL     1     140.636  68.948 228.152 -0.54 -0.03    +0.123 A  
DOCKED: ATOM     15  F   UNL     1     140.746  68.091 229.197 -0.16 +0.05    -0.207 F  
DOCKED: ENDBRANCH   3   5
DOCKED: ENDBRANCH   2   3
DOCKED: ENDBRANCH   1   2
DOCKED: BRANCH   1  16
DOCKED: ATOM     16  C   UNL     1     141.984  72.824 220.371 -0.14 -0.03    +0.205 C  
DOCKED: ATOM     17  O   UNL     1     141.567  71.853 219.684 -0.05 +0.04    -0.277 OA 
DOCKED: BRANCH  16  18
DOCKED: ATOM     18  N   UNL     1     143.403  73.082 220.434 -0.13 +0.06    -0.337 N  
DOCKED: ATOM     19  C   UNL     1     144.375  72.001 220.437 -0.26 -0.01    +0.120 C  
DOCKED: ATOM     20  C   UNL     1     144.034  74.395 220.545 -0.30 -0.04    +0.115 C  
DOCKED: ATOM     21  C   UNL     1     145.714  72.645 220.766 -0.47 -0.00    +0.024 C  
DOCKED: ATOM     22  C   UNL     1     145.543  74.132 220.475 -0.53 -0.01    +0.032 C  
DOCKED: BRANCH  20  23
DOCKED: ATOM     23  C   UNL     1     143.587  75.334 219.443 -0.36 +0.01    -0.025 A  
DOCKED: ATOM     24  C   UNL     1     143.723  74.975 218.089 -0.20 -0.00    +0.007 A  
DOCKED: ATOM     25  C   UNL     1     143.051  76.591 219.767 -0.36 -0.00    +0.007 A  
DOCKED: ATOM     26  C   UNL     1     143.312  75.851 217.081 -0.20 -0.01    +0.021 A  
DOCKED: ATOM     27  C   UNL     1     142.641  77.466 218.756 -0.32 -0.01    +0.021 A  
DOCKED: ATOM     28  C   UNL     1     142.767  77.096 217.414 -0.25 -0.03    +0.041 A  
DOCKED: ATOM     29  Cl  UNL     1     142.251  78.194 216.147 -0.21 +0.07    -0.084 Cl 
DOCKED: ENDBRANCH  20  23
DOCKED: ENDBRANCH  16  18
DOCKED: ENDBRANCH   1  16
DOCKED: TORSDOF 6
DOCKED: TER
DOCKED: ENDMDL
________________________________________________________________________________


    CLUSTERING HISTOGRAM
    ____________________


________________________________________________________________________________
     |           |     |           |     |
Clus | Lowest    | Run | Mean      | Num | Histogram
-ter | Binding   |     | Binding   | in  |
Rank | Energy    |     | Energy    | Clus|    5    10   15   20   25   30   35
_____|___________|_____|___________|_____|____:____|____:____|____:____|____:___
   1 |     -8.54 |   4 |     -8.06 |   9 |#########
   2 |     -8.04 |   9 |     -8.04 |   1 |#
   3 |     -7.99 |   7 |     -7.96 |   2 |##
   4 |     -7.83 |   6 |     -7.77 |   3 |###
   5 |     -7.55 |  16 |     -7.55 |   1 |#
   6 |     -7.22 |   8 |     -7.22 |   1 |#
   7 |     -6.65 |  13 |     -6.55 |   2 |##
   8 |     -6.05 |  14 |     -6.05 |   1 |#
_____|___________|_____|___________|_____|______________________________________


    RMSD TABLE
    __________


_______________________________________________________________________
     |      |      |           |         |                 |
Rank | Sub- | Run  | Binding   | Cluster | Reference       | Grep
     | Rank |      | Energy    | RMSD    | RMSD            | Pattern
_____|______|______|___________|_________|_________________|___________
   1      1      4       -8.54      0.00    271.33           RANKING
   1      2     12       -8.32      1.11    271.22           RANKING
   1      3     11       -8.31      0.97    271.34           RANKING
   1      4      1       -8.15      0.96    271.27           RANKING
   1      5      5       -8.01      1.77    271.12           RANKING
   1      6     15       -7.94      1.05    271.07           RANKING
   1      7      2       -7.88      1.49    271.07           RANKING
   1      8     19       -7.81      1.53    271.11           RANKING
   1      9      3       -7.59      1.62    271.01           RANKING
   2      1      9       -8.04      0.00    270.89           RANKING
   3      1      7       -7.99      0.00    270.30           RANKING
   3      2     10       -7.94      0.25    270.30           RANKING
   4      1      6       -7.83      0.00    270.73           RANKING
   4      2     20       -7.76      1.25    270.61           RANKING
   4      3     17       -7.73      0.24    270.64           RANKING
   5      1     16       -7.55      0.00    270.80           RANKING
   6      1      8       -7.22      0.00    270.33           RANKING
   7      1     13       -6.65      0.00    270.49           RANKING
   7      2     18       -6.45      0.57    270.37           RANKING
   8      1     14       -6.05      0.00    270.60           RANKING

Run time 0.750 sec
Idle time 0.000 sec
