AutoDock-GPU version: v1.6

**********************************************************
**    AutoDock-GPU AUTODOCKTOOLS-COMPATIBLE DLG FILE    **
**********************************************************


    DOCKING PARAMETERS
    ________________________


Ligand file:                               /home/a/REINVENT4/ReinventStudies/pleaseWork/justmol2mol_4_Compounds_ontop/graph-dock-8u2o5u/graph-DockGPU/node-autodockgpu/inputs/BAWNBLCWOABNHY-LJOHKLKSNA-N.pdbqt
Grid fld file:                             /home/a/REINVENT4/ReinventStudies/mols/Rad51/maps/rad51_receptor.maps.fld

Random seed:                               42
Number of runs:                            20
Number of energy evaluations:              1132076
Number of generations:                     42000
Size of population:                        150
Rate of crossover:                         80.000000%
Tournament selection probability limit:    60.000000%
Rate of mutation:                          2.000000%
Maximal allowed delta movement:            +/- 6.000000A
Maximal allowed delta angle:               +/- 90.000000

Rate of local search:                      100.000000%
Maximal number of local search iterations: 300
Rho lower bound:                           0.010000
Spread of local search delta movement:     2.000000A
Spread of local search delta angle:        74.999999
Limit of consecutive successes/failures:   4

Handle symmetry during clustering:         YES
RMSD tolerance:                            2.000000A

Program call in command line was:          /home/a/REINVENT4/ReinventStudies/adgpu-v1.6_linux_x64_cuda12_128wi --filelist batch.txt --heuristics 1 --nrun 20 --psize 150 --lsit 300 --seed 42 --heurmax 12000000 


    GRID PARAMETERS
    ________________________


Receptor name:                             rad51_receptor
Number of grid points (x, y, z):           53, 53, 53
Grid center (x, y, z):                     139.950000, 75.640000, 221.970000A
Grid size (x, y, z):                       19.500000, 19.500000, 19.500000A
Grid spacing:                              0.375000A


    LIGAND PARAMETERS
    ________________________


Ligand name:                               /home/a/REINVENT4/ReinventStudies/pleaseWork/justmol2mol_4_Compounds_ontop/graph-dock-8u2o5u/graph-DockGPU/node-autodockgpu/inputs/BAWNBLCWOABNHY-LJOHKLKSNA-N
Number of atoms:                           31
Number of rotatable bonds:                 6
Number of atom types:                      8


    DUMMY DATA (only for ADT-compatibility)
    ________________________


DPF> outlev 1
DPF> ga_run 20
DPF> fld /home/a/REINVENT4/ReinventStudies/mols/Rad51/maps/rad51_receptor.maps.fld
DPF> move /home/a/REINVENT4/ReinventStudies/pleaseWork/justmol2mol_4_Compounds_ontop/graph-dock-8u2o5u/graph-DockGPU/node-autodockgpu/inputs/BAWNBLCWOABNHY-LJOHKLKSNA-N.pdbqt


    COUNTER STATES
    ________________________


Number of energy evaluations performed:    487092
Number of generations used:                35


    INPUT LIGAND PDBQT FILE:
    ________________________


INPUT-LIGAND-PDBQT: REMARK SMILES O=C(N/C=C(\O)N1CCC[C@H]1c1ccc(Cl)cc1)c1ccc2cc(F)ccc2n1
INPUT-LIGAND-PDBQT: REMARK SMILES IDX 5 1 6 2 4 4 3 5 2 6 1 8 19 9 29 10 20 11 28 12 21 13 27 14
INPUT-LIGAND-PDBQT: REMARK SMILES IDX 22 15 26 16 23 17 24 18 25 19 7 20 8 21 11 22 9 23 10 24
INPUT-LIGAND-PDBQT: REMARK SMILES IDX 12 25 13 26 18 27 14 28 17 29 15 30 16 31
INPUT-LIGAND-PDBQT: REMARK H PARENT 6 3 3 7
INPUT-LIGAND-PDBQT: ROOT
INPUT-LIGAND-PDBQT: ATOM      1  C   UNL     1       1.550  -0.134   0.082  1.00  0.00     0.204 C 
INPUT-LIGAND-PDBQT: ENDROOT
INPUT-LIGAND-PDBQT: BRANCH   1   2
INPUT-LIGAND-PDBQT: ATOM      2  O   UNL     1       1.052  -1.244   0.769  1.00  0.00    -0.494 OA
INPUT-LIGAND-PDBQT: ATOM      3  H   UNL     1       1.635  -1.830   1.351  1.00  0.00     0.295 HD
INPUT-LIGAND-PDBQT: ENDBRANCH   1   2
INPUT-LIGAND-PDBQT: BRANCH   1   4
INPUT-LIGAND-PDBQT: ATOM      4  C   UNL     1       0.724   0.563  -0.713  1.00  0.00     0.152 C 
INPUT-LIGAND-PDBQT: BRANCH   4   5
INPUT-LIGAND-PDBQT: ATOM      5  N   UNL     1      -0.655   0.193  -0.880  1.00  0.00    -0.322 N 
INPUT-LIGAND-PDBQT: ATOM      6  C   UNL     1      -1.544   0.945  -1.721  1.00  0.00     0.273 C 
INPUT-LIGAND-PDBQT: ATOM      7  H   UNL     1      -1.026  -0.645  -0.379  1.00  0.00     0.169 HD
INPUT-LIGAND-PDBQT: ATOM      8  O   UNL     1      -1.116   1.958  -2.341  1.00  0.00    -0.267 OA
INPUT-LIGAND-PDBQT: BRANCH   6   9
INPUT-LIGAND-PDBQT: ATOM      9  C   UNL     1      -2.961   0.542  -1.868  1.00  0.00     0.129 A 
INPUT-LIGAND-PDBQT: ATOM     10  N   UNL     1      -3.426  -0.549  -1.197  1.00  0.00    -0.243 NA
INPUT-LIGAND-PDBQT: ATOM     11  C   UNL     1      -3.839   1.270  -2.690  1.00  0.00     0.035 A 
INPUT-LIGAND-PDBQT: ATOM     12  C   UNL     1      -4.717  -0.965  -1.294  1.00  0.00     0.071 A 
INPUT-LIGAND-PDBQT: ATOM     13  C   UNL     1      -5.171   0.867  -2.809  1.00  0.00     0.013 A 
INPUT-LIGAND-PDBQT: ATOM     14  C   UNL     1      -5.147  -2.092  -0.586  1.00  0.00     0.032 A 
INPUT-LIGAND-PDBQT: ATOM     15  C   UNL     1      -5.625  -0.257  -2.111  1.00  0.00     0.003 A 
INPUT-LIGAND-PDBQT: ATOM     16  C   UNL     1      -6.476  -2.517  -0.688  1.00  0.00     0.041 A 
INPUT-LIGAND-PDBQT: ATOM     17  C   UNL     1      -6.957  -0.689  -2.208  1.00  0.00     0.049 A 
INPUT-LIGAND-PDBQT: ATOM     18  C   UNL     1      -7.378  -1.817  -1.497  1.00  0.00     0.123 A 
INPUT-LIGAND-PDBQT: ATOM     19  F   UNL     1      -8.665  -2.234  -1.591  1.00  0.00    -0.207 F 
INPUT-LIGAND-PDBQT: ENDBRANCH   6   9
INPUT-LIGAND-PDBQT: ENDBRANCH   4   5
INPUT-LIGAND-PDBQT: ENDBRANCH   1   4
INPUT-LIGAND-PDBQT: BRANCH   1  20
INPUT-LIGAND-PDBQT: ATOM     20  N   UNL     1       2.934   0.256   0.238  1.00  0.00    -0.335 N 
INPUT-LIGAND-PDBQT: ATOM     21  C   UNL     1       3.662   1.070  -0.725  1.00  0.00     0.120 C 
INPUT-LIGAND-PDBQT: ATOM     22  C   UNL     1       3.797  -0.222   1.314  1.00  0.00     0.115 C 
INPUT-LIGAND-PDBQT: ATOM     23  C   UNL     1       5.132   0.943  -0.353  1.00  0.00     0.024 C 
INPUT-LIGAND-PDBQT: ATOM     24  C   UNL     1       5.152   0.456   1.091  1.00  0.00     0.032 C 
INPUT-LIGAND-PDBQT: BRANCH  22  25
INPUT-LIGAND-PDBQT: ATOM     25  C   UNL     1       3.228   0.112   2.678  1.00  0.00    -0.025 A 
INPUT-LIGAND-PDBQT: ATOM     26  C   UNL     1       2.688   1.385   2.943  1.00  0.00     0.007 A 
INPUT-LIGAND-PDBQT: ATOM     27  C   UNL     1       3.274  -0.839   3.711  1.00  0.00     0.007 A 
INPUT-LIGAND-PDBQT: ATOM     28  C   UNL     1       2.182   1.688   4.211  1.00  0.00     0.021 A 
INPUT-LIGAND-PDBQT: ATOM     29  C   UNL     1       2.767  -0.533   4.978  1.00  0.00     0.021 A 
INPUT-LIGAND-PDBQT: ATOM     30  C   UNL     1       2.219   0.729   5.228  1.00  0.00     0.041 A 
INPUT-LIGAND-PDBQT: ATOM     31  Cl  UNL     1       1.584   1.111   6.818  1.00  0.00    -0.084 Cl
INPUT-LIGAND-PDBQT: ENDBRANCH  22  25
INPUT-LIGAND-PDBQT: ENDBRANCH   1  20
INPUT-LIGAND-PDBQT: TORSDOF 6


    FINAL DOCKED STATE:
    ________________________


Run:   1 / 20
Time taken for this run:   0.022s

DOCKED: MODEL        1
DOCKED: USER    Run = 1
DOCKED: USER
DOCKED: USER    Estimated Free Energy of Binding    =  -8.25 kcal/mol  [=(1)+(2)+(3)-(4)]
DOCKED: USER
DOCKED: USER    (1) Final Intermolecular Energy     = -10.04 kcal/mol
DOCKED: USER        vdW + Hbond + desolv Energy     =  -9.89 kcal/mol
DOCKED: USER        Electrostatic Energy            =  -0.14 kcal/mol
DOCKED: USER        Moving Ligand-Fixed Receptor    = -10.04 kcal/mol
DOCKED: USER        Moving Ligand-Moving Receptor   =  +0.00 kcal/mol
DOCKED: USER    (2) Final Total Internal Energy     =  -1.35 kcal/mol
DOCKED: USER    (3) Torsional Free Energy           =  +1.79 kcal/mol
DOCKED: USER    (4) Unbound System's Energy         =  -1.35 kcal/mol
DOCKED: USER
DOCKED: USER
DOCKED: REMARK SMILES O=C(N/C=C(\O)N1CCC[C@H]1c1ccc(Cl)cc1)c1ccc2cc(F)ccc2n1
DOCKED: REMARK SMILES IDX 5 1 6 2 4 4 3 5 2 6 1 8 19 9 29 10 20 11 28 12 21 13 27 14
DOCKED: REMARK SMILES IDX 22 15 26 16 23 17 24 18 25 19 7 20 8 21 11 22 9 23 10 24
DOCKED: REMARK SMILES IDX 12 25 13 26 18 27 14 28 17 29 15 30 16 31
DOCKED: REMARK H PARENT 6 3 3 7
DOCKED: USER                              x       y       z     vdW  Elec       q    Type
DOCKED: USER                           _______ _______ _______ _____ _____    ______ ____
DOCKED: ROOT
DOCKED: ATOM      1  C   UNL     1     139.895  74.974 221.690 -0.22 -0.03    +0.204 C  
DOCKED: ENDROOT
DOCKED: BRANCH   1   2
DOCKED: ATOM      2  O   UNL     1     139.159  75.551 222.728 -0.33 +0.10    -0.494 OA 
DOCKED: ATOM      3  H   UNL     1     138.628  75.000 223.390 -0.39 -0.18    +0.295 HD 
DOCKED: ENDBRANCH   1   2
DOCKED: BRANCH   1   4
DOCKED: ATOM      4  C   UNL     1     139.888  73.639 221.551 -0.22 -0.02    +0.152 C  
DOCKED: BRANCH   4   5
DOCKED: ATOM      5  N   UNL     1     139.883  72.761 222.689 -0.16 +0.05    -0.322 N  
DOCKED: ATOM      6  C   UNL     1     139.849  71.332 222.542 -0.18 -0.05    +0.273 C  
DOCKED: ATOM      7  H   UNL     1     139.905  73.167 223.651 -0.32 -0.02    +0.169 HD 
DOCKED: ATOM      8  O   UNL     1     139.828  70.820 221.389 -0.09 +0.04    -0.267 OA 
DOCKED: BRANCH   6   9
DOCKED: ATOM      9  C   UNL     1     139.839  70.454 223.733 -0.26 -0.02    +0.129 A  
DOCKED: ATOM     10  N   UNL     1     140.407  70.884 224.895 -0.30 +0.04    -0.243 NA 
DOCKED: ATOM     11  C   UNL     1     139.248  69.179 223.688 -0.25 -0.01    +0.035 A  
DOCKED: ATOM     12  C   UNL     1     140.427  70.121 226.020 -0.48 -0.01    +0.071 A  
DOCKED: ATOM     13  C   UNL     1     139.253  68.372 224.828 -0.39 -0.00    +0.013 A  
DOCKED: ATOM     14  C   UNL     1     141.023  70.606 227.188 -0.60 -0.01    +0.032 A  
DOCKED: ATOM     15  C   UNL     1     139.843  68.835 226.008 -0.52 -0.00    +0.003 A  
DOCKED: ATOM     16  C   UNL     1     141.042  69.818 228.344 -0.53 -0.01    +0.041 A  
DOCKED: ATOM     17  C   UNL     1     139.865  68.050 227.172 -0.60 -0.01    +0.049 A  
DOCKED: ATOM     18  C   UNL     1     140.464  68.543 228.335 -0.55 -0.03    +0.123 A  
DOCKED: ATOM     19  F   UNL     1     140.484  67.785 229.459 -0.10 +0.05    -0.207 F  
DOCKED: ENDBRANCH   6   9
DOCKED: ENDBRANCH   4   5
DOCKED: ENDBRANCH   1   4
DOCKED: BRANCH   1  20
DOCKED: ATOM     20  N   UNL     1     140.645  75.811 220.780 -0.10 +0.10    -0.335 N  
DOCKED: ATOM     21  C   UNL     1     140.772  75.548 219.353 -0.09 -0.04    +0.120 C  
DOCKED: ATOM     22  C   UNL     1     141.462  76.944 221.202 -0.18 -0.06    +0.115 C  
DOCKED: ATOM     23  C   UNL     1     141.899  76.445 218.862 -0.21 -0.01    +0.024 C  
DOCKED: ATOM     24  C   UNL     1     142.049  77.534 219.917 -0.30 -0.02    +0.032 C  
DOCKED: BRANCH  22  25
DOCKED: ATOM     25  C   UNL     1     140.646  77.970 221.961 -0.35 +0.01    -0.025 A  
DOCKED: ATOM     26  C   UNL     1     139.373  78.361 221.505 -0.20 -0.00    +0.007 A  
DOCKED: ATOM     27  C   UNL     1     141.175  78.578 223.112 -0.53 -0.00    +0.007 A  
DOCKED: ATOM     28  C   UNL     1     138.636  79.323 222.203 -0.21 -0.00    +0.021 A  
DOCKED: ATOM     29  C   UNL     1     140.436  79.539 223.809 -0.47 -0.00    +0.021 A  
DOCKED: ATOM     30  C   UNL     1     139.166  79.910 223.357 -0.37 -0.01    +0.041 A  
DOCKED: ATOM     31  Cl  UNL     1     138.240  81.116 224.231 -0.38 +0.01    -0.084 Cl 
DOCKED: ENDBRANCH  22  25
DOCKED: ENDBRANCH   1  20
DOCKED: TORSDOF 6
DOCKED: TER
DOCKED: ENDMDL
________________________________________________________________________________


    FINAL DOCKED STATE:
    ________________________


Run:   2 / 20
Time taken for this run:   0.022s

DOCKED: MODEL        2
DOCKED: USER    Run = 2
DOCKED: USER
DOCKED: USER    Estimated Free Energy of Binding    =  -7.00 kcal/mol  [=(1)+(2)+(3)-(4)]
DOCKED: USER
DOCKED: USER    (1) Final Intermolecular Energy     =  -8.79 kcal/mol
DOCKED: USER        vdW + Hbond + desolv Energy     =  -8.77 kcal/mol
DOCKED: USER        Electrostatic Energy            =  -0.02 kcal/mol
DOCKED: USER        Moving Ligand-Fixed Receptor    =  -8.79 kcal/mol
DOCKED: USER        Moving Ligand-Moving Receptor   =  +0.00 kcal/mol
DOCKED: USER    (2) Final Total Internal Energy     =  -1.97 kcal/mol
DOCKED: USER    (3) Torsional Free Energy           =  +1.79 kcal/mol
DOCKED: USER    (4) Unbound System's Energy         =  -1.97 kcal/mol
DOCKED: USER
DOCKED: USER
DOCKED: REMARK SMILES O=C(N/C=C(\O)N1CCC[C@H]1c1ccc(Cl)cc1)c1ccc2cc(F)ccc2n1
DOCKED: REMARK SMILES IDX 5 1 6 2 4 4 3 5 2 6 1 8 19 9 29 10 20 11 28 12 21 13 27 14
DOCKED: REMARK SMILES IDX 22 15 26 16 23 17 24 18 25 19 7 20 8 21 11 22 9 23 10 24
DOCKED: REMARK SMILES IDX 12 25 13 26 18 27 14 28 17 29 15 30 16 31
DOCKED: REMARK H PARENT 6 3 3 7
DOCKED: USER                              x       y       z     vdW  Elec       q    Type
DOCKED: USER                           _______ _______ _______ _____ _____    ______ ____
DOCKED: ROOT
DOCKED: ATOM      1  C   UNL     1     139.815  74.063 220.016 -0.06 -0.04    +0.204 C  
DOCKED: ENDROOT
DOCKED: BRANCH   1   2
DOCKED: ATOM      2  O   UNL     1     139.029  73.408 219.064 +0.01 +0.10    -0.494 OA 
DOCKED: ATOM      3  H   UNL     1     138.670  72.474 219.204 +0.03 -0.06    +0.295 HD 
DOCKED: ENDBRANCH   1   2
DOCKED: BRANCH   1   4
DOCKED: ATOM      4  C   UNL     1     139.278  74.357 221.210 -0.17 -0.03    +0.152 C  
DOCKED: BRANCH   4   5
DOCKED: ATOM      5  N   UNL     1     139.439  73.491 222.346 -0.12 +0.07    -0.322 N  
DOCKED: ATOM      6  C   UNL     1     139.425  72.061 222.215 -0.17 -0.05    +0.273 C  
DOCKED: ATOM      7  H   UNL     1     139.572  73.908 223.294 -0.48 -0.03    +0.169 HD 
DOCKED: ATOM      8  O   UNL     1     139.272  71.535 221.077 -0.06 +0.05    -0.267 OA 
DOCKED: BRANCH   6   9
DOCKED: ATOM      9  C   UNL     1     139.588  71.195 223.405 -0.29 -0.03    +0.129 A  
DOCKED: ATOM     10  N   UNL     1     140.133  71.708 224.543 -0.26 +0.05    -0.243 NA 
DOCKED: ATOM     11  C   UNL     1     139.186  69.848 223.381 -0.25 -0.01    +0.035 A  
DOCKED: ATOM     12  C   UNL     1     140.307  70.960 225.666 -0.51 -0.01    +0.071 A  
DOCKED: ATOM     13  C   UNL     1     139.351  69.055 224.519 -0.34 -0.00    +0.013 A  
DOCKED: ATOM     14  C   UNL     1     140.873  71.531 226.810 -0.70 -0.01    +0.032 A  
DOCKED: ATOM     15  C   UNL     1     139.914  69.604 225.675 -0.46 -0.00    +0.003 A  
DOCKED: ATOM     16  C   UNL     1     141.049  70.759 227.963 -0.65 -0.01    +0.041 A  
DOCKED: ATOM     17  C   UNL     1     140.094  68.835 226.836 -0.56 -0.01    +0.049 A  
DOCKED: ATOM     18  C   UNL     1     140.661  69.415 227.975 -0.52 -0.02    +0.123 A  
DOCKED: ATOM     19  F   UNL     1     140.835  68.672 229.097 -0.13 +0.05    -0.207 F  
DOCKED: ENDBRANCH   6   9
DOCKED: ENDBRANCH   4   5
DOCKED: ENDBRANCH   1   4
DOCKED: BRANCH   1  20
DOCKED: ATOM     20  N   UNL     1     141.187  74.405 219.715 -0.03 +0.09    -0.335 N  
DOCKED: ATOM     21  C   UNL     1     141.886  73.976 218.512 -0.06 -0.03    +0.120 C  
DOCKED: ATOM     22  C   UNL     1     142.069  75.116 220.636 -0.24 -0.04    +0.115 C  
DOCKED: ATOM     23  C   UNL     1     143.361  74.253 218.764 -0.21 -0.01    +0.024 C  
DOCKED: ATOM     24  C   UNL     1     143.402  75.271 219.898 -0.37 -0.02    +0.032 C  
DOCKED: BRANCH  22  25
DOCKED: ATOM     25  C   UNL     1     141.496  76.462 221.033 -0.25 +0.01    -0.025 A  
DOCKED: ATOM     26  C   UNL     1     141.449  77.526 220.112 -0.26 -0.00    +0.007 A  
DOCKED: ATOM     27  C   UNL     1     141.043  76.674 222.346 -0.38 -0.00    +0.007 A  
DOCKED: ATOM     28  C   UNL     1     140.934  78.769 220.495 -0.24 -0.01    +0.021 A  
DOCKED: ATOM     29  C   UNL     1     140.529  77.918 222.725 -0.42 -0.01    +0.021 A  
DOCKED: ATOM     30  C   UNL     1     140.472  78.965 221.800 -0.28 -0.01    +0.041 A  
DOCKED: ATOM     31  Cl  UNL     1     139.828  80.525 222.278 -0.35 +0.02    -0.084 Cl 
DOCKED: ENDBRANCH  22  25
DOCKED: ENDBRANCH   1  20
DOCKED: TORSDOF 6
DOCKED: TER
DOCKED: ENDMDL
________________________________________________________________________________


    FINAL DOCKED STATE:
    ________________________


Run:   3 / 20
Time taken for this run:   0.022s

DOCKED: MODEL        3
DOCKED: USER    Run = 3
DOCKED: USER
DOCKED: USER    Estimated Free Energy of Binding    =  -7.69 kcal/mol  [=(1)+(2)+(3)-(4)]
DOCKED: USER
DOCKED: USER    (1) Final Intermolecular Energy     =  -9.48 kcal/mol
DOCKED: USER        vdW + Hbond + desolv Energy     =  -9.41 kcal/mol
DOCKED: USER        Electrostatic Energy            =  -0.07 kcal/mol
DOCKED: USER        Moving Ligand-Fixed Receptor    =  -9.48 kcal/mol
DOCKED: USER        Moving Ligand-Moving Receptor   =  +0.00 kcal/mol
DOCKED: USER    (2) Final Total Internal Energy     =  -1.40 kcal/mol
DOCKED: USER    (3) Torsional Free Energy           =  +1.79 kcal/mol
DOCKED: USER    (4) Unbound System's Energy         =  -1.40 kcal/mol
DOCKED: USER
DOCKED: USER
DOCKED: REMARK SMILES O=C(N/C=C(\O)N1CCC[C@H]1c1ccc(Cl)cc1)c1ccc2cc(F)ccc2n1
DOCKED: REMARK SMILES IDX 5 1 6 2 4 4 3 5 2 6 1 8 19 9 29 10 20 11 28 12 21 13 27 14
DOCKED: REMARK SMILES IDX 22 15 26 16 23 17 24 18 25 19 7 20 8 21 11 22 9 23 10 24
DOCKED: REMARK SMILES IDX 12 25 13 26 18 27 14 28 17 29 15 30 16 31
DOCKED: REMARK H PARENT 6 3 3 7
DOCKED: USER                              x       y       z     vdW  Elec       q    Type
DOCKED: USER                           _______ _______ _______ _____ _____    ______ ____
DOCKED: ROOT
DOCKED: ATOM      1  C   UNL     1     136.614  69.284 223.536 -0.14 -0.02    +0.204 C  
DOCKED: ENDROOT
DOCKED: BRANCH   1   2
DOCKED: ATOM      2  O   UNL     1     136.777  68.122 222.777 -0.05 +0.05    -0.494 OA 
DOCKED: ATOM      3  H   UNL     1     137.658  67.869 222.351 +0.07 -0.04    +0.295 HD 
DOCKED: ENDBRANCH   1   2
DOCKED: BRANCH   1   4
DOCKED: ATOM      4  C   UNL     1     135.678  69.307 224.496 -0.17 -0.01    +0.152 C  
DOCKED: BRANCH   4   5
DOCKED: ATOM      5  N   UNL     1     135.080  70.537 224.939 -0.09 +0.03    -0.322 N  
DOCKED: ATOM      6  C   UNL     1     134.119  70.571 226.006 -0.19 -0.02    +0.273 C  
DOCKED: ATOM      7  H   UNL     1     135.349  71.434 224.477 +0.05 -0.02    +0.169 HD 
DOCKED: ATOM      8  O   UNL     1     133.784  69.500 226.584 -0.68 -0.01    -0.267 OA 
DOCKED: BRANCH   6   9
DOCKED: ATOM      9  C   UNL     1     133.517  71.853 226.436 -0.32 -0.01    +0.129 A  
DOCKED: ATOM     10  N   UNL     1     134.118  73.029 226.098 -0.42 -0.01    -0.243 NA 
DOCKED: ATOM     11  C   UNL     1     132.330  71.879 227.189 -0.38 -0.01    +0.035 A  
DOCKED: ATOM     12  C   UNL     1     133.610  74.235 226.465 -0.25 +0.01    +0.071 A  
DOCKED: ATOM     13  C   UNL     1     131.784  73.104 227.580 -0.41 -0.00    +0.013 A  
DOCKED: ATOM     14  C   UNL     1     134.264  75.415 226.094 -0.41 -0.00    +0.032 A  
DOCKED: ATOM     15  C   UNL     1     132.420  74.297 227.221 -0.42 -0.00    +0.003 A  
DOCKED: ATOM     16  C   UNL     1     133.738  76.655 226.473 -0.30 -0.00    +0.041 A  
DOCKED: ATOM     17  C   UNL     1     131.898  75.545 227.597 -0.36 -0.00    +0.049 A  
DOCKED: ATOM     18  C   UNL     1     132.559  76.719 227.223 -0.29 -0.00    +0.123 A  
DOCKED: ATOM     19  F   UNL     1     132.054  77.924 227.586 -0.05 -0.00    -0.207 F  
DOCKED: ENDBRANCH   6   9
DOCKED: ENDBRANCH   4   5
DOCKED: ENDBRANCH   1   4
DOCKED: BRANCH   1  20
DOCKED: ATOM     20  N   UNL     1     137.453  70.436 223.289 -0.07 +0.06    -0.335 N  
DOCKED: ATOM     21  C   UNL     1     136.949  71.728 222.846 -0.14 -0.03    +0.120 C  
DOCKED: ATOM     22  C   UNL     1     138.912  70.404 223.335 -0.23 -0.02    +0.115 C  
DOCKED: ATOM     23  C   UNL     1     138.166  72.516 222.386 -0.11 -0.01    +0.024 C  
DOCKED: ATOM     24  C   UNL     1     139.367  71.834 223.029 -0.28 -0.01    +0.032 C  
DOCKED: BRANCH  22  25
DOCKED: ATOM     25  C   UNL     1     139.419  69.938 224.685 -0.36 +0.00    -0.025 A  
DOCKED: ATOM     26  C   UNL     1     139.984  70.849 225.598 -0.51 -0.00    +0.007 A  
DOCKED: ATOM     27  C   UNL     1     139.368  68.576 225.023 -0.41 -0.00    +0.007 A  
DOCKED: ATOM     28  C   UNL     1     140.466  70.405 226.833 -0.58 -0.00    +0.021 A  
DOCKED: ATOM     29  C   UNL     1     139.850  68.134 226.259 -0.60 -0.00    +0.021 A  
DOCKED: ATOM     30  C   UNL     1     140.397  69.049 227.166 -0.58 -0.01    +0.041 A  
DOCKED: ATOM     31  Cl  UNL     1     141.001  68.493 228.716 -0.71 +0.02    -0.084 Cl 
DOCKED: ENDBRANCH  22  25
DOCKED: ENDBRANCH   1  20
DOCKED: TORSDOF 6
DOCKED: TER
DOCKED: ENDMDL
________________________________________________________________________________


    FINAL DOCKED STATE:
    ________________________


Run:   4 / 20
Time taken for this run:   0.022s

DOCKED: MODEL        4
DOCKED: USER    Run = 4
DOCKED: USER
DOCKED: USER    Estimated Free Energy of Binding    =  -7.70 kcal/mol  [=(1)+(2)+(3)-(4)]
DOCKED: USER
DOCKED: USER    (1) Final Intermolecular Energy     =  -9.49 kcal/mol
DOCKED: USER        vdW + Hbond + desolv Energy     =  -9.41 kcal/mol
DOCKED: USER        Electrostatic Energy            =  -0.08 kcal/mol
DOCKED: USER        Moving Ligand-Fixed Receptor    =  -9.49 kcal/mol
DOCKED: USER        Moving Ligand-Moving Receptor   =  +0.00 kcal/mol
DOCKED: USER    (2) Final Total Internal Energy     =  -1.36 kcal/mol
DOCKED: USER    (3) Torsional Free Energy           =  +1.79 kcal/mol
DOCKED: USER    (4) Unbound System's Energy         =  -1.36 kcal/mol
DOCKED: USER
DOCKED: USER
DOCKED: REMARK SMILES O=C(N/C=C(\O)N1CCC[C@H]1c1ccc(Cl)cc1)c1ccc2cc(F)ccc2n1
DOCKED: REMARK SMILES IDX 5 1 6 2 4 4 3 5 2 6 1 8 19 9 29 10 20 11 28 12 21 13 27 14
DOCKED: REMARK SMILES IDX 22 15 26 16 23 17 24 18 25 19 7 20 8 21 11 22 9 23 10 24
DOCKED: REMARK SMILES IDX 12 25 13 26 18 27 14 28 17 29 15 30 16 31
DOCKED: REMARK H PARENT 6 3 3 7
DOCKED: USER                              x       y       z     vdW  Elec       q    Type
DOCKED: USER                           _______ _______ _______ _____ _____    ______ ____
DOCKED: ROOT
DOCKED: ATOM      1  C   UNL     1     138.871  74.428 220.317 -0.06 -0.04    +0.204 C  
DOCKED: ENDROOT
DOCKED: BRANCH   1   2
DOCKED: ATOM      2  O   UNL     1     138.871  74.507 218.922 +0.01 +0.11    -0.494 OA 
DOCKED: ATOM      3  H   UNL     1     138.961  75.384 218.427 +0.03 -0.07    +0.295 HD 
DOCKED: ENDBRANCH   1   2
DOCKED: BRANCH   1   4
DOCKED: ATOM      4  C   UNL     1     138.374  73.330 220.906 -0.09 -0.03    +0.152 C  
DOCKED: BRANCH   4   5
DOCKED: ATOM      5  N   UNL     1     138.845  72.882 222.188 -0.10 +0.09    -0.322 N  
DOCKED: ATOM      6  C   UNL     1     139.332  71.546 222.390 -0.16 -0.05    +0.273 C  
DOCKED: ATOM      7  H   UNL     1     138.835  73.541 222.998 -0.52 -0.09    +0.169 HD 
DOCKED: ATOM      8  O   UNL     1     139.359  70.733 221.425 -0.08 +0.05    -0.267 OA 
DOCKED: BRANCH   6   9
DOCKED: ATOM      9  C   UNL     1     139.805  71.112 223.725 -0.32 -0.02    +0.129 A  
DOCKED: ATOM     10  N   UNL     1     139.403  69.910 224.226 -0.17 +0.04    -0.243 NA 
DOCKED: ATOM     11  C   UNL     1     140.667  71.921 224.486 -0.28 -0.00    +0.035 A  
DOCKED: ATOM     12  C   UNL     1     139.805  69.460 225.444 -0.39 -0.01    +0.071 A  
DOCKED: ATOM     13  C   UNL     1     141.097  71.485 225.741 -0.61 -0.00    +0.013 A  
DOCKED: ATOM     14  C   UNL     1     139.365  68.219 225.916 -0.52 -0.00    +0.032 A  
DOCKED: ATOM     15  C   UNL     1     140.670  70.248 226.235 -0.56 -0.00    +0.003 A  
DOCKED: ATOM     16  C   UNL     1     139.781  67.760 227.170 -0.58 -0.01    +0.041 A  
DOCKED: ATOM     17  C   UNL     1     141.084  69.780 227.492 -0.53 -0.01    +0.049 A  
DOCKED: ATOM     18  C   UNL     1     140.638  68.539 227.955 -0.56 -0.03    +0.123 A  
DOCKED: ATOM     19  F   UNL     1     141.038  68.087 229.170 -0.17 +0.05    -0.207 F  
DOCKED: ENDBRANCH   6   9
DOCKED: ENDBRANCH   4   5
DOCKED: ENDBRANCH   1   4
DOCKED: BRANCH   1  20
DOCKED: ATOM     20  N   UNL     1     139.408  75.515 221.106 -0.09 +0.08    -0.335 N  
DOCKED: ATOM     21  C   UNL     1     138.766  76.046 222.300 -0.27 -0.03    +0.120 C  
DOCKED: ATOM     22  C   UNL     1     140.589  76.286 220.730 -0.21 -0.04    +0.115 C  
DOCKED: ATOM     23  C   UNL     1     139.464  77.365 222.598 -0.27 -0.00    +0.024 C  
DOCKED: ATOM     24  C   UNL     1     140.792  77.307 221.854 -0.37 -0.01    +0.032 C  
DOCKED: BRANCH  22  25
DOCKED: ATOM     25  C   UNL     1     141.805  75.400 220.559 -0.28 +0.01    -0.025 A  
DOCKED: ATOM     26  C   UNL     1     142.969  75.884 219.930 -0.34 -0.00    +0.007 A  
DOCKED: ATOM     27  C   UNL     1     141.768  74.064 220.992 -0.27 -0.00    +0.007 A  
DOCKED: ATOM     28  C   UNL     1     144.079  75.051 219.762 -0.38 -0.01    +0.021 A  
DOCKED: ATOM     29  C   UNL     1     142.880  73.233 220.822 -0.27 -0.00    +0.021 A  
DOCKED: ATOM     30  C   UNL     1     144.037  73.727 220.210 -0.38 -0.01    +0.041 A  
DOCKED: ATOM     31  Cl  UNL     1     145.431  72.683 219.998 -0.60 -0.01    -0.084 Cl 
DOCKED: ENDBRANCH  22  25
DOCKED: ENDBRANCH   1  20
DOCKED: TORSDOF 6
DOCKED: TER
DOCKED: ENDMDL
________________________________________________________________________________


    FINAL DOCKED STATE:
    ________________________


Run:   5 / 20
Time taken for this run:   0.022s

DOCKED: MODEL        5
DOCKED: USER    Run = 5
DOCKED: USER
DOCKED: USER    Estimated Free Energy of Binding    =  -7.61 kcal/mol  [=(1)+(2)+(3)-(4)]
DOCKED: USER
DOCKED: USER    (1) Final Intermolecular Energy     =  -9.40 kcal/mol
DOCKED: USER        vdW + Hbond + desolv Energy     =  -9.34 kcal/mol
DOCKED: USER        Electrostatic Energy            =  -0.06 kcal/mol
DOCKED: USER        Moving Ligand-Fixed Receptor    =  -9.40 kcal/mol
DOCKED: USER        Moving Ligand-Moving Receptor   =  +0.00 kcal/mol
DOCKED: USER    (2) Final Total Internal Energy     =  -1.86 kcal/mol
DOCKED: USER    (3) Torsional Free Energy           =  +1.79 kcal/mol
DOCKED: USER    (4) Unbound System's Energy         =  -1.86 kcal/mol
DOCKED: USER
DOCKED: USER
DOCKED: REMARK SMILES O=C(N/C=C(\O)N1CCC[C@H]1c1ccc(Cl)cc1)c1ccc2cc(F)ccc2n1
DOCKED: REMARK SMILES IDX 5 1 6 2 4 4 3 5 2 6 1 8 19 9 29 10 20 11 28 12 21 13 27 14
DOCKED: REMARK SMILES IDX 22 15 26 16 23 17 24 18 25 19 7 20 8 21 11 22 9 23 10 24
DOCKED: REMARK SMILES IDX 12 25 13 26 18 27 14 28 17 29 15 30 16 31
DOCKED: REMARK H PARENT 6 3 3 7
DOCKED: USER                              x       y       z     vdW  Elec       q    Type
DOCKED: USER                           _______ _______ _______ _____ _____    ______ ____
DOCKED: ROOT
DOCKED: ATOM      1  C   UNL     1     139.270  72.634 221.556 -0.15 -0.04    +0.204 C  
DOCKED: ENDROOT
DOCKED: BRANCH   1   2
DOCKED: ATOM      2  O   UNL     1     138.237  73.096 222.376 -0.04 +0.18    -0.494 OA 
DOCKED: ATOM      3  H   UNL     1     138.289  73.975 222.873 -0.49 -0.18    +0.295 HD 
DOCKED: ENDBRANCH   1   2
DOCKED: BRANCH   1   4
DOCKED: ATOM      4  C   UNL     1     140.019  73.526 220.890 -0.16 -0.03    +0.152 C  
DOCKED: BRANCH   4   5
DOCKED: ATOM      5  N   UNL     1     140.344  74.809 221.450 -0.17 +0.05    -0.322 N  
DOCKED: ATOM      6  C   UNL     1     139.338  75.803 221.698 -0.20 -0.06    +0.273 C  
DOCKED: ATOM      7  H   UNL     1     141.337  75.030 221.685 +0.01 -0.04    +0.169 HD 
DOCKED: ATOM      8  O   UNL     1     138.130  75.556 221.427 -0.11 +0.06    -0.267 OA 
DOCKED: BRANCH   6   9
DOCKED: ATOM      9  C   UNL     1     139.705  77.118 222.270 -0.30 -0.03    +0.129 A  
DOCKED: ATOM     10  N   UNL     1     141.008  77.516 222.268 -0.26 +0.10    -0.243 NA 
DOCKED: ATOM     11  C   UNL     1     138.727  77.968 222.817 -0.27 -0.01    +0.035 A  
DOCKED: ATOM     12  C   UNL     1     141.403  78.712 222.780 -0.47 -0.03    +0.071 A  
DOCKED: ATOM     13  C   UNL     1     139.102  79.204 223.349 -0.36 -0.00    +0.013 A  
DOCKED: ATOM     14  C   UNL     1     142.753  79.076 222.756 -0.36 -0.02    +0.032 A  
DOCKED: ATOM     15  C   UNL     1     140.447  79.590 223.337 -0.47 -0.00    +0.003 A  
DOCKED: ATOM     16  C   UNL     1     143.156  80.307 223.283 -0.61 -0.01    +0.041 A  
DOCKED: ATOM     17  C   UNL     1     140.858  80.824 223.863 -0.38 -0.01    +0.049 A  
DOCKED: ATOM     18  C   UNL     1     142.210  81.179 223.835 -0.54 -0.02    +0.123 A  
DOCKED: ATOM     19  F   UNL     1     142.607  82.372 224.344 -0.08 +0.00    -0.207 F  
DOCKED: ENDBRANCH   6   9
DOCKED: ENDBRANCH   4   5
DOCKED: ENDBRANCH   1   4
DOCKED: BRANCH   1  20
DOCKED: ATOM     20  N   UNL     1     139.527  71.216 221.441 -0.05 +0.06    -0.335 N  
DOCKED: ATOM     21  C   UNL     1     140.189  70.600 220.300 -0.09 -0.02    +0.120 C  
DOCKED: ATOM     22  C   UNL     1     139.043  70.222 222.394 -0.16 -0.02    +0.115 C  
DOCKED: ATOM     23  C   UNL     1     139.940  69.105 220.428 -0.12 -0.00    +0.024 C  
DOCKED: ATOM     24  C   UNL     1     139.561  68.873 221.886 -0.07 -0.01    +0.032 C  
DOCKED: BRANCH  22  25
DOCKED: ATOM     25  C   UNL     1     139.533  70.509 223.799 -0.33 +0.00    -0.025 A  
DOCKED: ATOM     26  C   UNL     1     140.515  71.491 224.035 -0.42 -0.00    +0.007 A  
DOCKED: ATOM     27  C   UNL     1     139.039  69.764 224.882 -0.38 -0.00    +0.007 A  
DOCKED: ATOM     28  C   UNL     1     140.972  71.735 225.333 -0.43 -0.00    +0.021 A  
DOCKED: ATOM     29  C   UNL     1     139.498  70.011 226.180 -0.43 -0.00    +0.021 A  
DOCKED: ATOM     30  C   UNL     1     140.463  70.998 226.407 -0.59 -0.01    +0.041 A  
DOCKED: ATOM     31  Cl  UNL     1     141.038  71.306 228.035 -0.90 +0.02    -0.084 Cl 
DOCKED: ENDBRANCH  22  25
DOCKED: ENDBRANCH   1  20
DOCKED: TORSDOF 6
DOCKED: TER
DOCKED: ENDMDL
________________________________________________________________________________


    FINAL DOCKED STATE:
    ________________________


Run:   6 / 20
Time taken for this run:   0.022s

DOCKED: MODEL        6
DOCKED: USER    Run = 6
DOCKED: USER
DOCKED: USER    Estimated Free Energy of Binding    =  -7.13 kcal/mol  [=(1)+(2)+(3)-(4)]
DOCKED: USER
DOCKED: USER    (1) Final Intermolecular Energy     =  -8.92 kcal/mol
DOCKED: USER        vdW + Hbond + desolv Energy     =  -8.87 kcal/mol
DOCKED: USER        Electrostatic Energy            =  -0.06 kcal/mol
DOCKED: USER        Moving Ligand-Fixed Receptor    =  -8.92 kcal/mol
DOCKED: USER        Moving Ligand-Moving Receptor   =  +0.00 kcal/mol
DOCKED: USER    (2) Final Total Internal Energy     =  -2.18 kcal/mol
DOCKED: USER    (3) Torsional Free Energy           =  +1.79 kcal/mol
DOCKED: USER    (4) Unbound System's Energy         =  -2.18 kcal/mol
DOCKED: USER
DOCKED: USER
DOCKED: REMARK SMILES O=C(N/C=C(\O)N1CCC[C@H]1c1ccc(Cl)cc1)c1ccc2cc(F)ccc2n1
DOCKED: REMARK SMILES IDX 5 1 6 2 4 4 3 5 2 6 1 8 19 9 29 10 20 11 28 12 21 13 27 14
DOCKED: REMARK SMILES IDX 22 15 26 16 23 17 24 18 25 19 7 20 8 21 11 22 9 23 10 24
DOCKED: REMARK SMILES IDX 12 25 13 26 18 27 14 28 17 29 15 30 16 31
DOCKED: REMARK H PARENT 6 3 3 7
DOCKED: USER                              x       y       z     vdW  Elec       q    Type
DOCKED: USER                           _______ _______ _______ _____ _____    ______ ____
DOCKED: ROOT
DOCKED: ATOM      1  C   UNL     1     139.921  74.231 219.910 -0.06 -0.04    +0.204 C  
DOCKED: ENDROOT
DOCKED: BRANCH   1   2
DOCKED: ATOM      2  O   UNL     1     139.091  73.136 219.660 +0.01 +0.10    -0.494 OA 
DOCKED: ATOM      3  H   UNL     1     139.369  72.185 219.861 +0.04 -0.05    +0.295 HD 
DOCKED: ENDBRANCH   1   2
DOCKED: BRANCH   1   4
DOCKED: ATOM      4  C   UNL     1     140.092  74.642 221.175 -0.22 -0.03    +0.152 C  
DOCKED: BRANCH   4   5
DOCKED: ATOM      5  N   UNL     1     139.921  73.750 222.289 -0.10 +0.03    -0.322 N  
DOCKED: ATOM      6  C   UNL     1     140.418  72.402 222.263 -0.20 -0.03    +0.273 C  
DOCKED: ATOM      7  H   UNL     1     139.423  74.085 223.144 -0.51 -0.04    +0.169 HD 
DOCKED: ATOM      8  O   UNL     1     141.028  71.978 221.242 -0.14 +0.03    -0.267 OA 
DOCKED: BRANCH   6   9
DOCKED: ATOM      9  C   UNL     1     140.222  71.505 223.424 -0.32 -0.02    +0.129 A  
DOCKED: ATOM     10  N   UNL     1     140.666  71.886 224.655 -0.26 +0.03    -0.243 NA 
DOCKED: ATOM     11  C   UNL     1     139.580  70.263 223.278 -0.26 -0.01    +0.035 A  
DOCKED: ATOM     12  C   UNL     1     140.512  71.103 225.756 -0.54 -0.01    +0.071 A  
DOCKED: ATOM     13  C   UNL     1     139.407  69.437 224.391 -0.33 -0.00    +0.013 A  
DOCKED: ATOM     14  C   UNL     1     140.986  71.537 226.998 -0.73 -0.01    +0.032 A  
DOCKED: ATOM     15  C   UNL     1     139.873  69.849 225.644 -0.46 -0.00    +0.003 A  
DOCKED: ATOM     16  C   UNL     1     140.826  70.729 228.129 -0.62 -0.01    +0.041 A  
DOCKED: ATOM     17  C   UNL     1     139.716  69.044 226.784 -0.52 -0.01    +0.049 A  
DOCKED: ATOM     18  C   UNL     1     140.193  69.486 228.021 -0.52 -0.02    +0.123 A  
DOCKED: ATOM     19  F   UNL     1     140.041  68.708 229.122 -0.13 +0.04    -0.207 F  
DOCKED: ENDBRANCH   6   9
DOCKED: ENDBRANCH   4   5
DOCKED: ENDBRANCH   1   4
DOCKED: BRANCH   1  20
DOCKED: ATOM     20  N   UNL     1     140.589  74.901 218.816 +0.00 +0.09    -0.335 N  
DOCKED: ATOM     21  C   UNL     1     140.099  76.120 218.189 -0.03 -0.04    +0.120 C  
DOCKED: ATOM     22  C   UNL     1     141.764  74.367 218.132 -0.05 -0.03    +0.115 C  
DOCKED: ATOM     23  C   UNL     1     140.889  76.272 216.897 -0.04 -0.01    +0.024 C  
DOCKED: ATOM     24  C   UNL     1     142.131  75.406 217.068 -0.08 -0.01    +0.032 C  
DOCKED: BRANCH  22  25
DOCKED: ATOM     25  C   UNL     1     142.911  74.128 219.093 -0.19 +0.01    -0.025 A  
DOCKED: ATOM     26  C   UNL     1     143.663  75.204 219.600 -0.39 -0.00    +0.007 A  
DOCKED: ATOM     27  C   UNL     1     143.263  72.817 219.454 -0.19 -0.00    +0.007 A  
DOCKED: ATOM     28  C   UNL     1     144.731  74.971 220.472 -0.30 -0.01    +0.021 A  
DOCKED: ATOM     29  C   UNL     1     144.332  72.587 220.327 -0.38 -0.00    +0.021 A  
DOCKED: ATOM     30  C   UNL     1     145.064  73.663 220.838 -0.56 -0.01    +0.041 A  
DOCKED: ATOM     31  Cl  UNL     1     146.404  73.371 221.932 -0.79 +0.02    -0.084 Cl 
DOCKED: ENDBRANCH  22  25
DOCKED: ENDBRANCH   1  20
DOCKED: TORSDOF 6
DOCKED: TER
DOCKED: ENDMDL
________________________________________________________________________________


    FINAL DOCKED STATE:
    ________________________


Run:   7 / 20
Time taken for this run:   0.022s

DOCKED: MODEL        7
DOCKED: USER    Run = 7
DOCKED: USER
DOCKED: USER    Estimated Free Energy of Binding    =  -8.20 kcal/mol  [=(1)+(2)+(3)-(4)]
DOCKED: USER
DOCKED: USER    (1) Final Intermolecular Energy     =  -9.99 kcal/mol
DOCKED: USER        vdW + Hbond + desolv Energy     =  -9.92 kcal/mol
DOCKED: USER        Electrostatic Energy            =  -0.06 kcal/mol
DOCKED: USER        Moving Ligand-Fixed Receptor    =  -9.99 kcal/mol
DOCKED: USER        Moving Ligand-Moving Receptor   =  +0.00 kcal/mol
DOCKED: USER    (2) Final Total Internal Energy     =  -1.78 kcal/mol
DOCKED: USER    (3) Torsional Free Energy           =  +1.79 kcal/mol
DOCKED: USER    (4) Unbound System's Energy         =  -1.78 kcal/mol
DOCKED: USER
DOCKED: USER
DOCKED: REMARK SMILES O=C(N/C=C(\O)N1CCC[C@H]1c1ccc(Cl)cc1)c1ccc2cc(F)ccc2n1
DOCKED: REMARK SMILES IDX 5 1 6 2 4 4 3 5 2 6 1 8 19 9 29 10 20 11 28 12 21 13 27 14
DOCKED: REMARK SMILES IDX 22 15 26 16 23 17 24 18 25 19 7 20 8 21 11 22 9 23 10 24
DOCKED: REMARK SMILES IDX 12 25 13 26 18 27 14 28 17 29 15 30 16 31
DOCKED: REMARK H PARENT 6 3 3 7
DOCKED: USER                              x       y       z     vdW  Elec       q    Type
DOCKED: USER                           _______ _______ _______ _____ _____    ______ ____
DOCKED: ROOT
DOCKED: ATOM      1  C   UNL     1     140.617  74.926 221.276 -0.23 -0.04    +0.204 C  
DOCKED: ENDROOT
DOCKED: BRANCH   1   2
DOCKED: ATOM      2  O   UNL     1     139.842  75.290 222.380 -0.50 +0.05    -0.494 OA 
DOCKED: ATOM      3  H   UNL     1     139.192  74.653 222.822 -0.40 -0.08    +0.295 HD 
DOCKED: ENDBRANCH   1   2
DOCKED: BRANCH   1   4
DOCKED: ATOM      4  C   UNL     1     140.863  73.626 221.054 -0.21 -0.02    +0.152 C  
DOCKED: BRANCH   4   5
DOCKED: ATOM      5  N   UNL     1     140.875  72.666 222.123 -0.16 +0.02    -0.322 N  
DOCKED: ATOM      6  C   UNL     1     139.663  72.210 222.745 -0.19 -0.05    +0.273 C  
DOCKED: ATOM      7  H   UNL     1     141.787  72.285 222.461 +0.08 +0.00    +0.169 HD 
DOCKED: ATOM      8  O   UNL     1     138.548  72.652 222.349 -0.16 +0.08    -0.267 OA 
DOCKED: BRANCH   6   9
DOCKED: ATOM      9  C   UNL     1     139.708  71.224 223.849 -0.33 -0.03    +0.129 A  
DOCKED: ATOM     10  N   UNL     1     140.310  71.555 225.025 -0.31 +0.04    -0.243 NA 
DOCKED: ATOM     11  C   UNL     1     139.137  69.948 223.703 -0.27 -0.01    +0.035 A  
DOCKED: ATOM     12  C   UNL     1     140.381  70.690 226.072 -0.52 -0.01    +0.071 A  
DOCKED: ATOM     13  C   UNL     1     139.194  69.038 224.761 -0.38 -0.00    +0.013 A  
DOCKED: ATOM     14  C   UNL     1     141.011  71.076 227.260 -0.68 -0.01    +0.032 A  
DOCKED: ATOM     15  C   UNL     1     139.818  69.401 225.960 -0.48 -0.00    +0.003 A  
DOCKED: ATOM     16  C   UNL     1     141.082  70.184 228.336 -0.52 -0.01    +0.041 A  
DOCKED: ATOM     17  C   UNL     1     139.893  68.511 227.043 -0.58 -0.01    +0.049 A  
DOCKED: ATOM     18  C   UNL     1     140.524  68.905 228.227 -0.54 -0.03    +0.123 A  
DOCKED: ATOM     19  F   UNL     1     140.597  68.045 229.273 -0.13 +0.05    -0.207 F  
DOCKED: ENDBRANCH   6   9
DOCKED: ENDBRANCH   4   5
DOCKED: ENDBRANCH   1   4
DOCKED: BRANCH   1  20
DOCKED: ATOM     20  N   UNL     1     141.136  75.942 220.387 -0.09 +0.12    -0.335 N  
DOCKED: ATOM     21  C   UNL     1     141.162  75.815 218.936 -0.09 -0.04    +0.120 C  
DOCKED: ATOM     22  C   UNL     1     141.805  77.157 220.842 -0.14 -0.07    +0.115 C  
DOCKED: ATOM     23  C   UNL     1     142.082  76.919 218.437 -0.23 -0.01    +0.024 C  
DOCKED: ATOM     24  C   UNL     1     142.165  77.933 219.572 -0.26 -0.02    +0.032 C  
DOCKED: BRANCH  22  25
DOCKED: ATOM     25  C   UNL     1     140.918  77.975 221.758 -0.35 +0.01    -0.025 A  
DOCKED: ATOM     26  C   UNL     1     139.549  78.143 221.476 -0.21 -0.00    +0.007 A  
DOCKED: ATOM     27  C   UNL     1     141.467  78.613 222.883 -0.53 -0.00    +0.007 A  
DOCKED: ATOM     28  C   UNL     1     138.743  78.915 222.319 -0.24 -0.00    +0.021 A  
DOCKED: ATOM     29  C   UNL     1     140.659  79.384 223.724 -0.50 -0.00    +0.021 A  
DOCKED: ATOM     30  C   UNL     1     139.297  79.534 223.445 -0.38 -0.01    +0.041 A  
DOCKED: ATOM     31  Cl  UNL     1     138.285  80.502 224.501 -0.38 +0.01    -0.084 Cl 
DOCKED: ENDBRANCH  22  25
DOCKED: ENDBRANCH   1  20
DOCKED: TORSDOF 6
DOCKED: TER
DOCKED: ENDMDL
________________________________________________________________________________


    FINAL DOCKED STATE:
    ________________________


Run:   8 / 20
Time taken for this run:   0.022s

DOCKED: MODEL        8
DOCKED: USER    Run = 8
DOCKED: USER
DOCKED: USER    Estimated Free Energy of Binding    =  -8.12 kcal/mol  [=(1)+(2)+(3)-(4)]
DOCKED: USER
DOCKED: USER    (1) Final Intermolecular Energy     =  -9.91 kcal/mol
DOCKED: USER        vdW + Hbond + desolv Energy     =  -9.84 kcal/mol
DOCKED: USER        Electrostatic Energy            =  -0.07 kcal/mol
DOCKED: USER        Moving Ligand-Fixed Receptor    =  -9.91 kcal/mol
DOCKED: USER        Moving Ligand-Moving Receptor   =  +0.00 kcal/mol
DOCKED: USER    (2) Final Total Internal Energy     =  -1.82 kcal/mol
DOCKED: USER    (3) Torsional Free Energy           =  +1.79 kcal/mol
DOCKED: USER    (4) Unbound System's Energy         =  -1.82 kcal/mol
DOCKED: USER
DOCKED: USER
DOCKED: REMARK SMILES O=C(N/C=C(\O)N1CCC[C@H]1c1ccc(Cl)cc1)c1ccc2cc(F)ccc2n1
DOCKED: REMARK SMILES IDX 5 1 6 2 4 4 3 5 2 6 1 8 19 9 29 10 20 11 28 12 21 13 27 14
DOCKED: REMARK SMILES IDX 22 15 26 16 23 17 24 18 25 19 7 20 8 21 11 22 9 23 10 24
DOCKED: REMARK SMILES IDX 12 25 13 26 18 27 14 28 17 29 15 30 16 31
DOCKED: REMARK H PARENT 6 3 3 7
DOCKED: USER                              x       y       z     vdW  Elec       q    Type
DOCKED: USER                           _______ _______ _______ _____ _____    ______ ____
DOCKED: ROOT
DOCKED: ATOM      1  C   UNL     1     140.553  74.924 221.321 -0.23 -0.04    +0.204 C  
DOCKED: ENDROOT
DOCKED: BRANCH   1   2
DOCKED: ATOM      2  O   UNL     1     139.684  75.270 222.358 -0.52 +0.06    -0.494 OA 
DOCKED: ATOM      3  H   UNL     1     139.074  74.598 222.803 -0.43 -0.09    +0.295 HD 
DOCKED: ENDBRANCH   1   2
DOCKED: BRANCH   1   4
DOCKED: ATOM      4  C   UNL     1     140.912  73.640 221.173 -0.22 -0.02    +0.152 C  
DOCKED: BRANCH   4   5
DOCKED: ATOM      5  N   UNL     1     140.861  72.711 222.269 -0.16 +0.01    -0.322 N  
DOCKED: ATOM      6  C   UNL     1     139.616  72.204 222.774 -0.18 -0.06    +0.273 C  
DOCKED: ATOM      7  H   UNL     1     141.751  72.391 222.713 +0.10 +0.01    +0.169 HD 
DOCKED: ATOM      8  O   UNL     1     138.528  72.572 222.249 -0.15 +0.08    -0.267 OA 
DOCKED: BRANCH   6   9
DOCKED: ATOM      9  C   UNL     1     139.595  71.253 223.908 -0.32 -0.03    +0.129 A  
DOCKED: ATOM     10  N   UNL     1     140.308  71.530 225.036 -0.32 +0.04    -0.243 NA 
DOCKED: ATOM     11  C   UNL     1     138.848  70.063 223.842 -0.28 -0.01    +0.035 A  
DOCKED: ATOM     12  C   UNL     1     140.326  70.693 226.108 -0.52 -0.01    +0.071 A  
DOCKED: ATOM     13  C   UNL     1     138.847  69.184 224.927 -0.37 -0.00    +0.013 A  
DOCKED: ATOM     14  C   UNL     1     141.074  71.022 227.243 -0.67 -0.01    +0.032 A  
DOCKED: ATOM     15  C   UNL     1     139.587  69.490 226.074 -0.47 -0.00    +0.003 A  
DOCKED: ATOM     16  C   UNL     1     141.090  70.158 228.344 -0.52 -0.01    +0.041 A  
DOCKED: ATOM     17  C   UNL     1     139.608  68.630 227.182 -0.55 -0.01    +0.049 A  
DOCKED: ATOM     18  C   UNL     1     140.359  68.966 228.313 -0.54 -0.02    +0.123 A  
DOCKED: ATOM     19  F   UNL     1     140.378  68.134 229.383 -0.11 +0.05    -0.207 F  
DOCKED: ENDBRANCH   6   9
DOCKED: ENDBRANCH   4   5
DOCKED: ENDBRANCH   1   4
DOCKED: BRANCH   1  20
DOCKED: ATOM     20  N   UNL     1     141.047  75.941 220.418 -0.09 +0.12    -0.335 N  
DOCKED: ATOM     21  C   UNL     1     141.048  75.808 218.968 -0.09 -0.04    +0.120 C  
DOCKED: ATOM     22  C   UNL     1     141.714  77.163 220.856 -0.16 -0.07    +0.115 C  
DOCKED: ATOM     23  C   UNL     1     141.950  76.918 218.447 -0.21 -0.01    +0.024 C  
DOCKED: ATOM     24  C   UNL     1     142.045  77.937 219.576 -0.27 -0.02    +0.032 C  
DOCKED: BRANCH  22  25
DOCKED: ATOM     25  C   UNL     1     140.837  77.977 221.785 -0.35 +0.01    -0.025 A  
DOCKED: ATOM     26  C   UNL     1     139.466  78.148 221.518 -0.21 -0.00    +0.007 A  
DOCKED: ATOM     27  C   UNL     1     141.399  78.609 222.907 -0.53 -0.00    +0.007 A  
DOCKED: ATOM     28  C   UNL     1     138.669  78.916 222.373 -0.24 -0.00    +0.021 A  
DOCKED: ATOM     29  C   UNL     1     140.600  79.377 223.760 -0.49 -0.00    +0.021 A  
DOCKED: ATOM     30  C   UNL     1     139.235  79.529 223.495 -0.38 -0.01    +0.041 A  
DOCKED: ATOM     31  Cl  UNL     1     138.235  80.493 224.567 -0.36 +0.01    -0.084 Cl 
DOCKED: ENDBRANCH  22  25
DOCKED: ENDBRANCH   1  20
DOCKED: TORSDOF 6
DOCKED: TER
DOCKED: ENDMDL
________________________________________________________________________________


    FINAL DOCKED STATE:
    ________________________


Run:   9 / 20
Time taken for this run:   0.022s

DOCKED: MODEL        9
DOCKED: USER    Run = 9
DOCKED: USER
DOCKED: USER    Estimated Free Energy of Binding    =  -7.63 kcal/mol  [=(1)+(2)+(3)-(4)]
DOCKED: USER
DOCKED: USER    (1) Final Intermolecular Energy     =  -9.42 kcal/mol
DOCKED: USER        vdW + Hbond + desolv Energy     =  -9.38 kcal/mol
DOCKED: USER        Electrostatic Energy            =  -0.03 kcal/mol
DOCKED: USER        Moving Ligand-Fixed Receptor    =  -9.42 kcal/mol
DOCKED: USER        Moving Ligand-Moving Receptor   =  +0.00 kcal/mol
DOCKED: USER    (2) Final Total Internal Energy     =  -1.45 kcal/mol
DOCKED: USER    (3) Torsional Free Energy           =  +1.79 kcal/mol
DOCKED: USER    (4) Unbound System's Energy         =  -1.45 kcal/mol
DOCKED: USER
DOCKED: USER
DOCKED: REMARK SMILES O=C(N/C=C(\O)N1CCC[C@H]1c1ccc(Cl)cc1)c1ccc2cc(F)ccc2n1
DOCKED: REMARK SMILES IDX 5 1 6 2 4 4 3 5 2 6 1 8 19 9 29 10 20 11 28 12 21 13 27 14
DOCKED: REMARK SMILES IDX 22 15 26 16 23 17 24 18 25 19 7 20 8 21 11 22 9 23 10 24
DOCKED: REMARK SMILES IDX 12 25 13 26 18 27 14 28 17 29 15 30 16 31
DOCKED: REMARK H PARENT 6 3 3 7
DOCKED: USER                              x       y       z     vdW  Elec       q    Type
DOCKED: USER                           _______ _______ _______ _____ _____    ______ ____
DOCKED: ROOT
DOCKED: ATOM      1  C   UNL     1     141.908  72.500 218.937 -0.04 -0.04    +0.204 C  
DOCKED: ENDROOT
DOCKED: BRANCH   1   2
DOCKED: ATOM      2  O   UNL     1     141.781  72.066 217.616 +0.02 +0.09    -0.494 OA 
DOCKED: ATOM      3  H   UNL     1     141.431  71.148 217.375 +0.02 -0.05    +0.295 HD 
DOCKED: ENDBRANCH   1   2
DOCKED: BRANCH   1   4
DOCKED: ATOM      4  C   UNL     1     140.806  72.605 219.695 -0.06 -0.03    +0.152 C  
DOCKED: BRANCH   4   5
DOCKED: ATOM      5  N   UNL     1     140.608  71.786 220.860 -0.06 +0.05    -0.322 N  
DOCKED: ATOM      6  C   UNL     1     140.399  72.358 222.161 -0.20 -0.03    +0.273 C  
DOCKED: ATOM      7  H   UNL     1     140.616  70.746 220.764 +0.04 -0.02    +0.169 HD 
DOCKED: ATOM      8  O   UNL     1     140.380  73.613 222.300 -0.80 -0.00    -0.267 OA 
DOCKED: BRANCH   6   9
DOCKED: ATOM      9  C   UNL     1     140.205  71.488 223.343 -0.31 -0.02    +0.129 A  
DOCKED: ATOM     10  N   UNL     1     140.671  71.887 224.559 -0.26 +0.03    -0.243 NA 
DOCKED: ATOM     11  C   UNL     1     139.543  70.253 223.231 -0.25 -0.01    +0.035 A  
DOCKED: ATOM     12  C   UNL     1     140.520  71.129 225.679 -0.53 -0.01    +0.071 A  
DOCKED: ATOM     13  C   UNL     1     139.373  69.453 224.363 -0.33 -0.00    +0.013 A  
DOCKED: ATOM     14  C   UNL     1     141.017  71.582 226.905 -0.72 -0.01    +0.032 A  
DOCKED: ATOM     15  C   UNL     1     139.861  69.883 225.601 -0.46 -0.00    +0.003 A  
DOCKED: ATOM     16  C   UNL     1     140.861  70.800 228.055 -0.64 -0.01    +0.041 A  
DOCKED: ATOM     17  C   UNL     1     139.707  69.104 226.759 -0.51 -0.01    +0.049 A  
DOCKED: ATOM     18  C   UNL     1     140.208  69.564 227.981 -0.52 -0.02    +0.123 A  
DOCKED: ATOM     19  F   UNL     1     140.059  68.811 229.099 -0.14 +0.04    -0.207 F  
DOCKED: ENDBRANCH   6   9
DOCKED: ENDBRANCH   4   5
DOCKED: ENDBRANCH   1   4
DOCKED: BRANCH   1  20
DOCKED: ATOM     20  N   UNL     1     143.211  72.821 219.475 -0.05 +0.05    -0.335 N  
DOCKED: ATOM     21  C   UNL     1     144.434  72.118 219.114 -0.20 +0.01    +0.120 C  
DOCKED: ATOM     22  C   UNL     1     143.436  73.801 220.533 -0.28 -0.03    +0.115 C  
DOCKED: ATOM     23  C   UNL     1     145.474  72.532 220.145 -0.46 +0.00    +0.024 C  
DOCKED: ATOM     24  C   UNL     1     144.949  73.820 220.767 -0.53 -0.01    +0.032 C  
DOCKED: BRANCH  22  25
DOCKED: ATOM     25  C   UNL     1     142.918  75.171 220.146 -0.33 +0.01    -0.025 A  
DOCKED: ATOM     26  C   UNL     1     143.542  75.918 219.128 -0.35 -0.00    +0.007 A  
DOCKED: ATOM     27  C   UNL     1     141.828  75.731 220.833 -0.28 -0.00    +0.007 A  
DOCKED: ATOM     28  C   UNL     1     143.067  77.189 218.791 -0.32 -0.02    +0.021 A  
DOCKED: ATOM     29  C   UNL     1     141.354  77.003 220.493 -0.27 -0.01    +0.021 A  
DOCKED: ATOM     30  C   UNL     1     141.972  77.731 219.471 -0.27 -0.02    +0.041 A  
DOCKED: ATOM     31  Cl  UNL     1     141.377  79.326 219.047 -0.28 +0.04    -0.084 Cl 
DOCKED: ENDBRANCH  22  25
DOCKED: ENDBRANCH   1  20
DOCKED: TORSDOF 6
DOCKED: TER
DOCKED: ENDMDL
________________________________________________________________________________


    FINAL DOCKED STATE:
    ________________________


Run:   10 / 20
Time taken for this run:   0.022s

DOCKED: MODEL        10
DOCKED: USER    Run = 10
DOCKED: USER
DOCKED: USER    Estimated Free Energy of Binding    =  -8.05 kcal/mol  [=(1)+(2)+(3)-(4)]
DOCKED: USER
DOCKED: USER    (1) Final Intermolecular Energy     =  -9.84 kcal/mol
DOCKED: USER        vdW + Hbond + desolv Energy     =  -9.71 kcal/mol
DOCKED: USER        Electrostatic Energy            =  -0.13 kcal/mol
DOCKED: USER        Moving Ligand-Fixed Receptor    =  -9.84 kcal/mol
DOCKED: USER        Moving Ligand-Moving Receptor   =  +0.00 kcal/mol
DOCKED: USER    (2) Final Total Internal Energy     =  -1.66 kcal/mol
DOCKED: USER    (3) Torsional Free Energy           =  +1.79 kcal/mol
DOCKED: USER    (4) Unbound System's Energy         =  -1.66 kcal/mol
DOCKED: USER
DOCKED: USER
DOCKED: REMARK SMILES O=C(N/C=C(\O)N1CCC[C@H]1c1ccc(Cl)cc1)c1ccc2cc(F)ccc2n1
DOCKED: REMARK SMILES IDX 5 1 6 2 4 4 3 5 2 6 1 8 19 9 29 10 20 11 28 12 21 13 27 14
DOCKED: REMARK SMILES IDX 22 15 26 16 23 17 24 18 25 19 7 20 8 21 11 22 9 23 10 24
DOCKED: REMARK SMILES IDX 12 25 13 26 18 27 14 28 17 29 15 30 16 31
DOCKED: REMARK H PARENT 6 3 3 7
DOCKED: USER                              x       y       z     vdW  Elec       q    Type
DOCKED: USER                           _______ _______ _______ _____ _____    ______ ____
DOCKED: ROOT
DOCKED: ATOM      1  C   UNL     1     139.730  74.867 221.500 -0.22 -0.04    +0.204 C  
DOCKED: ENDROOT
DOCKED: BRANCH   1   2
DOCKED: ATOM      2  O   UNL     1     139.505  75.516 222.716 -0.38 +0.07    -0.494 OA 
DOCKED: ATOM      3  H   UNL     1     138.888  75.144 223.426 -0.41 -0.13    +0.295 HD 
DOCKED: ENDBRANCH   1   2
DOCKED: BRANCH   1   4
DOCKED: ATOM      4  C   UNL     1     139.526  73.543 221.422 -0.19 -0.03    +0.152 C  
DOCKED: BRANCH   4   5
DOCKED: ATOM      5  N   UNL     1     139.600  72.697 222.582 -0.15 +0.07    -0.322 N  
DOCKED: ATOM      6  C   UNL     1     139.594  71.265 222.476 -0.17 -0.05    +0.273 C  
DOCKED: ATOM      7  H   UNL     1     139.662  73.131 223.530 -0.37 -0.05    +0.169 HD 
DOCKED: ATOM      8  O   UNL     1     139.527  70.719 221.340 -0.08 +0.05    -0.267 OA 
DOCKED: BRANCH   6   9
DOCKED: ATOM      9  C   UNL     1     139.666  70.421 223.690 -0.26 -0.02    +0.129 A  
DOCKED: ATOM     10  N   UNL     1     140.242  70.914 224.822 -0.29 +0.04    -0.243 NA 
DOCKED: ATOM     11  C   UNL     1     139.146  69.114 223.695 -0.26 -0.01    +0.035 A  
DOCKED: ATOM     12  C   UNL     1     140.335  70.184 225.966 -0.47 -0.01    +0.071 A  
DOCKED: ATOM     13  C   UNL     1     139.228  68.341 224.855 -0.40 -0.00    +0.013 A  
DOCKED: ATOM     14  C   UNL     1     140.936  70.734 227.103 -0.62 -0.01    +0.032 A  
DOCKED: ATOM     15  C   UNL     1     139.824  68.868 226.005 -0.52 -0.00    +0.003 A  
DOCKED: ATOM     16  C   UNL     1     141.031  69.980 228.278 -0.53 -0.01    +0.041 A  
DOCKED: ATOM     17  C   UNL     1     139.922  68.119 227.188 -0.62 -0.01    +0.049 A  
DOCKED: ATOM     18  C   UNL     1     140.525  68.676 228.319 -0.55 -0.03    +0.123 A  
DOCKED: ATOM     19  F   UNL     1     140.619  67.951 229.462 -0.10 +0.05    -0.207 F  
DOCKED: ENDBRANCH   6   9
DOCKED: ENDBRANCH   4   5
DOCKED: ENDBRANCH   1   4
DOCKED: BRANCH   1  20
DOCKED: ATOM     20  N   UNL     1     140.169  75.619 220.345 -0.05 +0.09    -0.335 N  
DOCKED: ATOM     21  C   UNL     1     139.706  76.962 220.026 -0.08 -0.03    +0.120 C  
DOCKED: ATOM     22  C   UNL     1     141.030  75.075 219.300 -0.09 -0.03    +0.115 C  
DOCKED: ATOM     23  C   UNL     1     140.134  77.222 218.590 -0.06 -0.01    +0.024 C  
DOCKED: ATOM     24  C   UNL     1     141.242  76.216 218.301 -0.10 -0.01    +0.032 C  
DOCKED: BRANCH  22  25
DOCKED: ATOM     25  C   UNL     1     142.347  74.578 219.861 -0.24 +0.01    -0.025 A  
DOCKED: ATOM     26  C   UNL     1     143.468  75.427 219.932 -0.38 -0.00    +0.007 A  
DOCKED: ATOM     27  C   UNL     1     142.474  73.243 220.280 -0.24 -0.00    +0.007 A  
DOCKED: ATOM     28  C   UNL     1     144.683  74.953 220.435 -0.31 -0.01    +0.021 A  
DOCKED: ATOM     29  C   UNL     1     143.691  72.772 220.783 -0.32 -0.00    +0.021 A  
DOCKED: ATOM     30  C   UNL     1     144.795  73.627 220.863 -0.51 -0.01    +0.041 A  
DOCKED: ATOM     31  Cl  UNL     1     146.320  73.033 221.495 -0.74 +0.01    -0.084 Cl 
DOCKED: ENDBRANCH  22  25
DOCKED: ENDBRANCH   1  20
DOCKED: TORSDOF 6
DOCKED: TER
DOCKED: ENDMDL
________________________________________________________________________________


    FINAL DOCKED STATE:
    ________________________


Run:   11 / 20
Time taken for this run:   0.022s

DOCKED: MODEL        11
DOCKED: USER    Run = 11
DOCKED: USER
DOCKED: USER    Estimated Free Energy of Binding    =  -8.03 kcal/mol  [=(1)+(2)+(3)-(4)]
DOCKED: USER
DOCKED: USER    (1) Final Intermolecular Energy     =  -9.82 kcal/mol
DOCKED: USER        vdW + Hbond + desolv Energy     =  -9.67 kcal/mol
DOCKED: USER        Electrostatic Energy            =  -0.15 kcal/mol
DOCKED: USER        Moving Ligand-Fixed Receptor    =  -9.82 kcal/mol
DOCKED: USER        Moving Ligand-Moving Receptor   =  +0.00 kcal/mol
DOCKED: USER    (2) Final Total Internal Energy     =  -1.69 kcal/mol
DOCKED: USER    (3) Torsional Free Energy           =  +1.79 kcal/mol
DOCKED: USER    (4) Unbound System's Energy         =  -1.69 kcal/mol
DOCKED: USER
DOCKED: USER
DOCKED: REMARK SMILES O=C(N/C=C(\O)N1CCC[C@H]1c1ccc(Cl)cc1)c1ccc2cc(F)ccc2n1
DOCKED: REMARK SMILES IDX 5 1 6 2 4 4 3 5 2 6 1 8 19 9 29 10 20 11 28 12 21 13 27 14
DOCKED: REMARK SMILES IDX 22 15 26 16 23 17 24 18 25 19 7 20 8 21 11 22 9 23 10 24
DOCKED: REMARK SMILES IDX 12 25 13 26 18 27 14 28 17 29 15 30 16 31
DOCKED: REMARK H PARENT 6 3 3 7
DOCKED: USER                              x       y       z     vdW  Elec       q    Type
DOCKED: USER                           _______ _______ _______ _____ _____    ______ ____
DOCKED: ROOT
DOCKED: ATOM      1  C   UNL     1     139.685  74.669 221.483 -0.21 -0.04    +0.204 C  
DOCKED: ENDROOT
DOCKED: BRANCH   1   2
DOCKED: ATOM      2  O   UNL     1     139.564  75.332 222.707 -0.41 +0.06    -0.494 OA 
DOCKED: ATOM      3  H   UNL     1     138.885  75.063 223.407 -0.42 -0.14    +0.295 HD 
DOCKED: ENDBRANCH   1   2
DOCKED: BRANCH   1   4
DOCKED: ATOM      4  C   UNL     1     139.419  73.355 221.426 -0.18 -0.03    +0.152 C  
DOCKED: BRANCH   4   5
DOCKED: ATOM      5  N   UNL     1     139.513  72.514 222.588 -0.15 +0.07    -0.322 N  
DOCKED: ATOM      6  C   UNL     1     139.526  71.081 222.486 -0.16 -0.05    +0.273 C  
DOCKED: ATOM      7  H   UNL     1     139.573  72.951 223.535 -0.35 -0.06    +0.169 HD 
DOCKED: ATOM      8  O   UNL     1     139.460  70.531 221.352 -0.08 +0.05    -0.267 OA 
DOCKED: BRANCH   6   9
DOCKED: ATOM      9  C   UNL     1     139.618  70.241 223.702 -0.24 -0.02    +0.129 A  
DOCKED: ATOM     10  N   UNL     1     140.210  70.740 224.824 -0.28 +0.04    -0.243 NA 
DOCKED: ATOM     11  C   UNL     1     139.101  68.934 223.720 -0.26 -0.01    +0.035 A  
DOCKED: ATOM     12  C   UNL     1     140.322  70.014 225.969 -0.46 -0.01    +0.071 A  
DOCKED: ATOM     13  C   UNL     1     139.201  68.165 224.882 -0.41 -0.00    +0.013 A  
DOCKED: ATOM     14  C   UNL     1     140.939  70.569 227.095 -0.60 -0.01    +0.032 A  
DOCKED: ATOM     15  C   UNL     1     139.814  68.698 226.021 -0.53 -0.00    +0.003 A  
DOCKED: ATOM     16  C   UNL     1     141.053  69.820 228.271 -0.54 -0.01    +0.041 A  
DOCKED: ATOM     17  C   UNL     1     139.931  67.953 227.204 -0.60 -0.01    +0.049 A  
DOCKED: ATOM     18  C   UNL     1     140.549  68.516 228.325 -0.56 -0.03    +0.123 A  
DOCKED: ATOM     19  F   UNL     1     140.662  67.795 229.468 -0.13 +0.06    -0.207 F  
DOCKED: ENDBRANCH   6   9
DOCKED: ENDBRANCH   4   5
DOCKED: ENDBRANCH   1   4
DOCKED: BRANCH   1  20
DOCKED: ATOM     20  N   UNL     1     140.084  75.397 220.299 -0.04 +0.09    -0.335 N  
DOCKED: ATOM     21  C   UNL     1     139.588  76.722 219.955 -0.07 -0.03    +0.120 C  
DOCKED: ATOM     22  C   UNL     1     140.932  74.840 219.250 -0.08 -0.03    +0.115 C  
DOCKED: ATOM     23  C   UNL     1     139.980  76.950 218.502 -0.05 -0.01    +0.024 C  
DOCKED: ATOM     24  C   UNL     1     141.100  75.957 218.216 -0.08 -0.01    +0.032 C  
DOCKED: BRANCH  22  25
DOCKED: ATOM     25  C   UNL     1     142.270  74.384 219.795 -0.22 +0.01    -0.025 A  
DOCKED: ATOM     26  C   UNL     1     142.463  73.054 220.215 -0.23 -0.00    +0.007 A  
DOCKED: ATOM     27  C   UNL     1     143.326  75.301 219.927 -0.38 -0.00    +0.007 A  
DOCKED: ATOM     28  C   UNL     1     143.697  72.648 220.734 -0.32 -0.00    +0.021 A  
DOCKED: ATOM     29  C   UNL     1     144.559  74.893 220.445 -0.37 -0.01    +0.021 A  
DOCKED: ATOM     30  C   UNL     1     144.745  73.566 220.847 -0.50 -0.01    +0.041 A  
DOCKED: ATOM     31  Cl  UNL     1     146.292  73.056 221.498 -0.75 +0.01    -0.084 Cl 
DOCKED: ENDBRANCH  22  25
DOCKED: ENDBRANCH   1  20
DOCKED: TORSDOF 6
DOCKED: TER
DOCKED: ENDMDL
________________________________________________________________________________


    FINAL DOCKED STATE:
    ________________________


Run:   12 / 20
Time taken for this run:   0.022s

DOCKED: MODEL        12
DOCKED: USER    Run = 12
DOCKED: USER
DOCKED: USER    Estimated Free Energy of Binding    =  -8.21 kcal/mol  [=(1)+(2)+(3)-(4)]
DOCKED: USER
DOCKED: USER    (1) Final Intermolecular Energy     = -10.00 kcal/mol
DOCKED: USER        vdW + Hbond + desolv Energy     =  -9.93 kcal/mol
DOCKED: USER        Electrostatic Energy            =  -0.06 kcal/mol
DOCKED: USER        Moving Ligand-Fixed Receptor    = -10.00 kcal/mol
DOCKED: USER        Moving Ligand-Moving Receptor   =  +0.00 kcal/mol
DOCKED: USER    (2) Final Total Internal Energy     =  -1.77 kcal/mol
DOCKED: USER    (3) Torsional Free Energy           =  +1.79 kcal/mol
DOCKED: USER    (4) Unbound System's Energy         =  -1.77 kcal/mol
DOCKED: USER
DOCKED: USER
DOCKED: REMARK SMILES O=C(N/C=C(\O)N1CCC[C@H]1c1ccc(Cl)cc1)c1ccc2cc(F)ccc2n1
DOCKED: REMARK SMILES IDX 5 1 6 2 4 4 3 5 2 6 1 8 19 9 29 10 20 11 28 12 21 13 27 14
DOCKED: REMARK SMILES IDX 22 15 26 16 23 17 24 18 25 19 7 20 8 21 11 22 9 23 10 24
DOCKED: REMARK SMILES IDX 12 25 13 26 18 27 14 28 17 29 15 30 16 31
DOCKED: REMARK H PARENT 6 3 3 7
DOCKED: USER                              x       y       z     vdW  Elec       q    Type
DOCKED: USER                           _______ _______ _______ _____ _____    ______ ____
DOCKED: ROOT
DOCKED: ATOM      1  C   UNL     1     140.478  74.822 221.234 -0.22 -0.04    +0.204 C  
DOCKED: ENDROOT
DOCKED: BRANCH   1   2
DOCKED: ATOM      2  O   UNL     1     139.731  75.224 222.344 -0.54 +0.06    -0.494 OA 
DOCKED: ATOM      3  H   UNL     1     139.109  74.598 222.837 -0.43 -0.09    +0.295 HD 
DOCKED: ENDBRANCH   1   2
DOCKED: BRANCH   1   4
DOCKED: ATOM      4  C   UNL     1     140.636  73.511 220.997 -0.19 -0.02    +0.152 C  
DOCKED: BRANCH   4   5
DOCKED: ATOM      5  N   UNL     1     140.697  72.552 222.066 -0.17 +0.03    -0.322 N  
DOCKED: ATOM      6  C   UNL     1     139.520  72.127 222.770 -0.17 -0.06    +0.273 C  
DOCKED: ATOM      7  H   UNL     1     141.620  72.148 222.341 +0.06 -0.00    +0.169 HD 
DOCKED: ATOM      8  O   UNL     1     138.392  72.597 222.450 -0.13 +0.09    -0.267 OA 
DOCKED: BRANCH   6   9
DOCKED: ATOM      9  C   UNL     1     139.616  71.142 223.871 -0.33 -0.03    +0.129 A  
DOCKED: ATOM     10  N   UNL     1     140.214  71.495 225.043 -0.31 +0.04    -0.243 NA 
DOCKED: ATOM     11  C   UNL     1     139.097  69.843 223.727 -0.27 -0.01    +0.035 A  
DOCKED: ATOM     12  C   UNL     1     140.330  70.631 226.087 -0.52 -0.01    +0.071 A  
DOCKED: ATOM     13  C   UNL     1     139.201  68.934 224.782 -0.38 -0.00    +0.013 A  
DOCKED: ATOM     14  C   UNL     1     140.953  71.041 227.271 -0.67 -0.01    +0.032 A  
DOCKED: ATOM     15  C   UNL     1     139.820  69.320 225.976 -0.48 -0.00    +0.003 A  
DOCKED: ATOM     16  C   UNL     1     141.071  70.150 228.343 -0.52 -0.01    +0.041 A  
DOCKED: ATOM     17  C   UNL     1     139.941  68.432 227.056 -0.60 -0.01    +0.049 A  
DOCKED: ATOM     18  C   UNL     1     140.566  68.849 228.236 -0.54 -0.03    +0.123 A  
DOCKED: ATOM     19  F   UNL     1     140.683  67.991 229.279 -0.14 +0.05    -0.207 F  
DOCKED: ENDBRANCH   6   9
DOCKED: ENDBRANCH   4   5
DOCKED: ENDBRANCH   1   4
DOCKED: BRANCH   1  20
DOCKED: ATOM     20  N   UNL     1     141.062  75.811 220.354 -0.08 +0.12    -0.335 N  
DOCKED: ATOM     21  C   UNL     1     141.115  75.679 218.905 -0.08 -0.04    +0.120 C  
DOCKED: ATOM     22  C   UNL     1     141.776  76.995 220.822 -0.13 -0.07    +0.115 C  
DOCKED: ATOM     23  C   UNL     1     142.095  76.738 218.424 -0.22 -0.01    +0.024 C  
DOCKED: ATOM     24  C   UNL     1     142.199  77.750 219.559 -0.28 -0.02    +0.032 C  
DOCKED: BRANCH  22  25
DOCKED: ATOM     25  C   UNL     1     140.906  77.855 221.717 -0.35 +0.01    -0.025 A  
DOCKED: ATOM     26  C   UNL     1     139.555  78.091 221.400 -0.20 -0.00    +0.007 A  
DOCKED: ATOM     27  C   UNL     1     141.457  78.464 222.857 -0.52 -0.00    +0.007 A  
DOCKED: ATOM     28  C   UNL     1     138.767  78.901 222.224 -0.23 -0.00    +0.021 A  
DOCKED: ATOM     29  C   UNL     1     140.666  79.273 223.679 -0.49 -0.00    +0.021 A  
DOCKED: ATOM     30  C   UNL     1     139.321  79.491 223.364 -0.37 -0.01    +0.041 A  
DOCKED: ATOM     31  Cl  UNL     1     138.331  80.507 224.396 -0.41 +0.01    -0.084 Cl 
DOCKED: ENDBRANCH  22  25
DOCKED: ENDBRANCH   1  20
DOCKED: TORSDOF 6
DOCKED: TER
DOCKED: ENDMDL
________________________________________________________________________________


    FINAL DOCKED STATE:
    ________________________


Run:   13 / 20
Time taken for this run:   0.022s

DOCKED: MODEL        13
DOCKED: USER    Run = 13
DOCKED: USER
DOCKED: USER    Estimated Free Energy of Binding    =  -8.09 kcal/mol  [=(1)+(2)+(3)-(4)]
DOCKED: USER
DOCKED: USER    (1) Final Intermolecular Energy     =  -9.88 kcal/mol
DOCKED: USER        vdW + Hbond + desolv Energy     =  -9.82 kcal/mol
DOCKED: USER        Electrostatic Energy            =  -0.06 kcal/mol
DOCKED: USER        Moving Ligand-Fixed Receptor    =  -9.88 kcal/mol
DOCKED: USER        Moving Ligand-Moving Receptor   =  +0.00 kcal/mol
DOCKED: USER    (2) Final Total Internal Energy     =  -1.79 kcal/mol
DOCKED: USER    (3) Torsional Free Energy           =  +1.79 kcal/mol
DOCKED: USER    (4) Unbound System's Energy         =  -1.79 kcal/mol
DOCKED: USER
DOCKED: USER
DOCKED: REMARK SMILES O=C(N/C=C(\O)N1CCC[C@H]1c1ccc(Cl)cc1)c1ccc2cc(F)ccc2n1
DOCKED: REMARK SMILES IDX 5 1 6 2 4 4 3 5 2 6 1 8 19 9 29 10 20 11 28 12 21 13 27 14
DOCKED: REMARK SMILES IDX 22 15 26 16 23 17 24 18 25 19 7 20 8 21 11 22 9 23 10 24
DOCKED: REMARK SMILES IDX 12 25 13 26 18 27 14 28 17 29 15 30 16 31
DOCKED: REMARK H PARENT 6 3 3 7
DOCKED: USER                              x       y       z     vdW  Elec       q    Type
DOCKED: USER                           _______ _______ _______ _____ _____    ______ ____
DOCKED: ROOT
DOCKED: ATOM      1  C   UNL     1     140.594  74.936 221.261 -0.23 -0.04    +0.204 C  
DOCKED: ENDROOT
DOCKED: BRANCH   1   2
DOCKED: ATOM      2  O   UNL     1     139.801  75.321 222.344 -0.51 +0.06    -0.494 OA 
DOCKED: ATOM      3  H   UNL     1     139.166  74.685 222.807 -0.39 -0.08    +0.295 HD 
DOCKED: ENDBRANCH   1   2
DOCKED: BRANCH   1   4
DOCKED: ATOM      4  C   UNL     1     140.842  73.632 221.068 -0.21 -0.02    +0.152 C  
DOCKED: BRANCH   4   5
DOCKED: ATOM      5  N   UNL     1     140.827  72.690 222.155 -0.16 +0.02    -0.322 N  
DOCKED: ATOM      6  C   UNL     1     139.599  72.247 222.755 -0.18 -0.06    +0.273 C  
DOCKED: ATOM      7  H   UNL     1     141.729  72.315 222.521 +0.08 +0.01    +0.169 HD 
DOCKED: ATOM      8  O   UNL     1     138.496  72.683 222.324 -0.15 +0.08    -0.267 OA 
DOCKED: BRANCH   6   9
DOCKED: ATOM      9  C   UNL     1     139.616  71.281 223.877 -0.32 -0.03    +0.129 A  
DOCKED: ATOM     10  N   UNL     1     140.279  71.593 225.026 -0.30 +0.04    -0.243 NA 
DOCKED: ATOM     11  C   UNL     1     138.955  70.045 223.777 -0.28 -0.01    +0.035 A  
DOCKED: ATOM     12  C   UNL     1     140.328  70.745 226.088 -0.52 -0.01    +0.071 A  
DOCKED: ATOM     13  C   UNL     1     138.988  69.153 224.852 -0.37 -0.00    +0.013 A  
DOCKED: ATOM     14  C   UNL     1     141.023  71.109 227.246 -0.68 -0.01    +0.032 A  
DOCKED: ATOM     15  C   UNL     1     139.676  69.494 226.021 -0.47 -0.00    +0.003 A  
DOCKED: ATOM     16  C   UNL     1     141.071  70.234 228.337 -0.52 -0.01    +0.041 A  
DOCKED: ATOM     17  C   UNL     1     139.728  68.622 227.119 -0.56 -0.01    +0.049 A  
DOCKED: ATOM     18  C   UNL     1     140.425  68.994 228.273 -0.54 -0.02    +0.123 A  
DOCKED: ATOM     19  F   UNL     1     140.475  68.152 229.334 -0.12 +0.05    -0.207 F  
DOCKED: ENDBRANCH   6   9
DOCKED: ENDBRANCH   4   5
DOCKED: ENDBRANCH   1   4
DOCKED: BRANCH   1  20
DOCKED: ATOM     20  N   UNL     1     141.130  75.934 220.361 -0.09 +0.12    -0.335 N  
DOCKED: ATOM     21  C   UNL     1     141.154  75.792 218.913 -0.09 -0.04    +0.120 C  
DOCKED: ATOM     22  C   UNL     1     141.819  77.142 220.805 -0.14 -0.07    +0.115 C  
DOCKED: ATOM     23  C   UNL     1     142.092  76.875 218.402 -0.23 -0.01    +0.024 C  
DOCKED: ATOM     24  C   UNL     1     142.192  77.899 219.527 -0.27 -0.02    +0.032 C  
DOCKED: BRANCH  22  25
DOCKED: ATOM     25  C   UNL     1     140.946  77.984 221.713 -0.35 +0.01    -0.025 A  
DOCKED: ATOM     26  C   UNL     1     141.473  78.576 222.876 -0.53 -0.00    +0.007 A  
DOCKED: ATOM     27  C   UNL     1     139.581  78.146 221.422 -0.20 -0.00    +0.007 A  
DOCKED: ATOM     28  C   UNL     1     140.653  79.336 223.716 -0.49 -0.00    +0.021 A  
DOCKED: ATOM     29  C   UNL     1     138.763  78.907 222.264 -0.23 -0.00    +0.021 A  
DOCKED: ATOM     30  C   UNL     1     139.299  79.504 223.410 -0.38 -0.01    +0.041 A  
DOCKED: ATOM     31  Cl  UNL     1     138.272  80.457 224.465 -0.37 +0.01    -0.084 Cl 
DOCKED: ENDBRANCH  22  25
DOCKED: ENDBRANCH   1  20
DOCKED: TORSDOF 6
DOCKED: TER
DOCKED: ENDMDL
________________________________________________________________________________


    FINAL DOCKED STATE:
    ________________________


Run:   14 / 20
Time taken for this run:   0.022s

DOCKED: MODEL        14
DOCKED: USER    Run = 14
DOCKED: USER
DOCKED: USER    Estimated Free Energy of Binding    =  -8.27 kcal/mol  [=(1)+(2)+(3)-(4)]
DOCKED: USER
DOCKED: USER    (1) Final Intermolecular Energy     = -10.06 kcal/mol
DOCKED: USER        vdW + Hbond + desolv Energy     =  -9.92 kcal/mol
DOCKED: USER        Electrostatic Energy            =  -0.14 kcal/mol
DOCKED: USER        Moving Ligand-Fixed Receptor    = -10.06 kcal/mol
DOCKED: USER        Moving Ligand-Moving Receptor   =  +0.00 kcal/mol
DOCKED: USER    (2) Final Total Internal Energy     =  -1.35 kcal/mol
DOCKED: USER    (3) Torsional Free Energy           =  +1.79 kcal/mol
DOCKED: USER    (4) Unbound System's Energy         =  -1.35 kcal/mol
DOCKED: USER
DOCKED: USER
DOCKED: REMARK SMILES O=C(N/C=C(\O)N1CCC[C@H]1c1ccc(Cl)cc1)c1ccc2cc(F)ccc2n1
DOCKED: REMARK SMILES IDX 5 1 6 2 4 4 3 5 2 6 1 8 19 9 29 10 20 11 28 12 21 13 27 14
DOCKED: REMARK SMILES IDX 22 15 26 16 23 17 24 18 25 19 7 20 8 21 11 22 9 23 10 24
DOCKED: REMARK SMILES IDX 12 25 13 26 18 27 14 28 17 29 15 30 16 31
DOCKED: REMARK H PARENT 6 3 3 7
DOCKED: USER                              x       y       z     vdW  Elec       q    Type
DOCKED: USER                           _______ _______ _______ _____ _____    ______ ____
DOCKED: ROOT
DOCKED: ATOM      1  C   UNL     1     139.929  75.130 221.701 -0.23 -0.04    +0.204 C  
DOCKED: ENDROOT
DOCKED: BRANCH   1   2
DOCKED: ATOM      2  O   UNL     1     139.157  75.642 222.747 -0.31 +0.10    -0.494 OA 
DOCKED: ATOM      3  H   UNL     1     138.570  75.057 223.327 -0.40 -0.17    +0.295 HD 
DOCKED: ENDBRANCH   1   2
DOCKED: BRANCH   1   4
DOCKED: ATOM      4  C   UNL     1     140.029  73.800 221.557 -0.23 -0.02    +0.152 C  
DOCKED: BRANCH   4   5
DOCKED: ATOM      5  N   UNL     1     139.965  72.911 222.685 -0.15 +0.04    -0.322 N  
DOCKED: ATOM      6  C   UNL     1     140.034  71.485 222.529 -0.20 -0.04    +0.273 C  
DOCKED: ATOM      7  H   UNL     1     139.866  73.307 223.646 -0.35 -0.02    +0.169 HD 
DOCKED: ATOM      8  O   UNL     1     140.159  70.984 221.377 -0.10 +0.04    -0.267 OA 
DOCKED: BRANCH   6   9
DOCKED: ATOM      9  C   UNL     1     139.959  70.595 223.710 -0.27 -0.02    +0.129 A  
DOCKED: ATOM     10  N   UNL     1     140.501  70.996 224.894 -0.31 +0.04    -0.243 NA 
DOCKED: ATOM     11  C   UNL     1     139.333  69.338 223.631 -0.23 -0.01    +0.035 A  
DOCKED: ATOM     12  C   UNL     1     140.461  70.221 226.010 -0.48 -0.01    +0.071 A  
DOCKED: ATOM     13  C   UNL     1     139.277  68.520 224.761 -0.37 -0.00    +0.013 A  
DOCKED: ATOM     14  C   UNL     1     141.033  70.677 227.203 -0.61 -0.01    +0.032 A  
DOCKED: ATOM     15  C   UNL     1     139.841  68.954 225.965 -0.51 -0.00    +0.003 A  
DOCKED: ATOM     16  C   UNL     1     140.990  69.877 228.350 -0.53 -0.01    +0.041 A  
DOCKED: ATOM     17  C   UNL     1     139.802  68.157 227.120 -0.60 -0.01    +0.049 A  
DOCKED: ATOM     18  C   UNL     1     140.376  68.620 228.308 -0.55 -0.03    +0.123 A  
DOCKED: ATOM     19  F   UNL     1     140.338  67.850 229.423 -0.08 +0.05    -0.207 F  
DOCKED: ENDBRANCH   6   9
DOCKED: ENDBRANCH   4   5
DOCKED: ENDBRANCH   1   4
DOCKED: BRANCH   1  20
DOCKED: ATOM     20  N   UNL     1     140.600  76.028 220.787 -0.10 +0.11    -0.335 N  
DOCKED: ATOM     21  C   UNL     1     140.685  75.810 219.350 -0.09 -0.04    +0.120 C  
DOCKED: ATOM     22  C   UNL     1     141.375  77.190 221.211 -0.23 -0.06    +0.115 C  
DOCKED: ATOM     23  C   UNL     1     141.745  76.776 218.842 -0.20 -0.01    +0.024 C  
DOCKED: ATOM     24  C   UNL     1     141.881  77.844 219.921 -0.28 -0.02    +0.032 C  
DOCKED: BRANCH  22  25
DOCKED: ATOM     25  C   UNL     1     140.538  78.153 222.028 -0.35 +0.01    -0.025 A  
DOCKED: ATOM     26  C   UNL     1     139.205  78.433 221.672 -0.21 -0.00    +0.007 A  
DOCKED: ATOM     27  C   UNL     1     141.103  78.813 223.132 -0.53 -0.00    +0.007 A  
DOCKED: ATOM     28  C   UNL     1     138.448  79.337 222.423 -0.23 -0.00    +0.021 A  
DOCKED: ATOM     29  C   UNL     1     140.343  79.717 223.882 -0.43 -0.00    +0.021 A  
DOCKED: ATOM     30  C   UNL     1     139.015  79.978 223.529 -0.38 -0.01    +0.041 A  
DOCKED: ATOM     31  Cl  UNL     1     138.063  81.112 224.470 -0.42 +0.01    -0.084 Cl 
DOCKED: ENDBRANCH  22  25
DOCKED: ENDBRANCH   1  20
DOCKED: TORSDOF 6
DOCKED: TER
DOCKED: ENDMDL
________________________________________________________________________________


    FINAL DOCKED STATE:
    ________________________


Run:   15 / 20
Time taken for this run:   0.022s

DOCKED: MODEL        15
DOCKED: USER    Run = 15
DOCKED: USER
DOCKED: USER    Estimated Free Energy of Binding    =  -8.07 kcal/mol  [=(1)+(2)+(3)-(4)]
DOCKED: USER
DOCKED: USER    (1) Final Intermolecular Energy     =  -9.86 kcal/mol
DOCKED: USER        vdW + Hbond + desolv Energy     =  -9.73 kcal/mol
DOCKED: USER        Electrostatic Energy            =  -0.13 kcal/mol
DOCKED: USER        Moving Ligand-Fixed Receptor    =  -9.86 kcal/mol
DOCKED: USER        Moving Ligand-Moving Receptor   =  +0.00 kcal/mol
DOCKED: USER    (2) Final Total Internal Energy     =  -1.49 kcal/mol
DOCKED: USER    (3) Torsional Free Energy           =  +1.79 kcal/mol
DOCKED: USER    (4) Unbound System's Energy         =  -1.49 kcal/mol
DOCKED: USER
DOCKED: USER
DOCKED: REMARK SMILES O=C(N/C=C(\O)N1CCC[C@H]1c1ccc(Cl)cc1)c1ccc2cc(F)ccc2n1
DOCKED: REMARK SMILES IDX 5 1 6 2 4 4 3 5 2 6 1 8 19 9 29 10 20 11 28 12 21 13 27 14
DOCKED: REMARK SMILES IDX 22 15 26 16 23 17 24 18 25 19 7 20 8 21 11 22 9 23 10 24
DOCKED: REMARK SMILES IDX 12 25 13 26 18 27 14 28 17 29 15 30 16 31
DOCKED: REMARK H PARENT 6 3 3 7
DOCKED: USER                              x       y       z     vdW  Elec       q    Type
DOCKED: USER                           _______ _______ _______ _____ _____    ______ ____
DOCKED: ROOT
DOCKED: ATOM      1  C   UNL     1     139.690  74.712 221.238 -0.19 -0.04    +0.204 C  
DOCKED: ENDROOT
DOCKED: BRANCH   1   2
DOCKED: ATOM      2  O   UNL     1     139.803  75.376 222.462 -0.45 +0.05    -0.494 OA 
DOCKED: ATOM      3  H   UNL     1     139.211  75.163 223.253 -0.41 -0.07    +0.295 HD 
DOCKED: ENDBRANCH   1   2
DOCKED: BRANCH   1   4
DOCKED: ATOM      4  C   UNL     1     139.150  73.485 221.211 -0.15 -0.03    +0.152 C  
DOCKED: BRANCH   4   5
DOCKED: ATOM      5  N   UNL     1     139.132  72.641 222.375 -0.13 +0.08    -0.322 N  
DOCKED: ATOM      6  C   UNL     1     139.944  71.460 222.466 -0.19 -0.04    +0.273 C  
DOCKED: ATOM      7  H   UNL     1     138.514  72.890 223.180 -0.44 -0.10    +0.169 HD 
DOCKED: ATOM      8  O   UNL     1     140.702  71.143 221.508 -0.13 +0.03    -0.267 OA 
DOCKED: BRANCH   6   9
DOCKED: ATOM      9  C   UNL     1     139.899  70.608 223.676 -0.27 -0.02    +0.129 A  
DOCKED: ATOM     10  N   UNL     1     140.476  71.044 224.831 -0.30 +0.04    -0.243 NA 
DOCKED: ATOM     11  C   UNL     1     139.267  69.352 223.654 -0.25 -0.01    +0.035 A  
DOCKED: ATOM     12  C   UNL     1     140.466  70.305 225.972 -0.49 -0.01    +0.071 A  
DOCKED: ATOM     13  C   UNL     1     139.239  68.571 224.811 -0.39 -0.00    +0.013 A  
DOCKED: ATOM     14  C   UNL     1     141.073  70.795 227.132 -0.63 -0.01    +0.032 A  
DOCKED: ATOM     15  C   UNL     1     139.840  69.039 225.985 -0.50 -0.00    +0.003 A  
DOCKED: ATOM     16  C   UNL     1     141.060  70.032 228.305 -0.53 -0.01    +0.041 A  
DOCKED: ATOM     17  C   UNL     1     139.830  68.279 227.165 -0.59 -0.01    +0.049 A  
DOCKED: ATOM     18  C   UNL     1     140.440  68.777 228.320 -0.55 -0.03    +0.123 A  
DOCKED: ATOM     19  F   UNL     1     140.430  68.043 229.460 -0.09 +0.05    -0.207 F  
DOCKED: ENDBRANCH   6   9
DOCKED: ENDBRANCH   4   5
DOCKED: ENDBRANCH   1   4
DOCKED: BRANCH   1  20
DOCKED: ATOM     20  N   UNL     1     140.143  75.350 220.021 -0.03 +0.09    -0.335 N  
DOCKED: ATOM     21  C   UNL     1     139.651  76.636 219.547 -0.06 -0.03    +0.120 C  
DOCKED: ATOM     22  C   UNL     1     141.051  74.725 219.065 -0.07 -0.03    +0.115 C  
DOCKED: ATOM     23  C   UNL     1     140.117  76.755 218.103 -0.04 -0.01    +0.024 C  
DOCKED: ATOM     24  C   UNL     1     141.262  75.760 217.955 -0.07 -0.01    +0.032 C  
DOCKED: BRANCH  22  25
DOCKED: ATOM     25  C   UNL     1     142.364  74.334 219.713 -0.22 +0.01    -0.025 A  
DOCKED: ATOM     26  C   UNL     1     143.398  75.275 219.875 -0.39 -0.00    +0.007 A  
DOCKED: ATOM     27  C   UNL     1     142.577  73.007 220.123 -0.22 -0.00    +0.007 A  
DOCKED: ATOM     28  C   UNL     1     144.612  74.898 220.458 -0.36 -0.01    +0.021 A  
DOCKED: ATOM     29  C   UNL     1     143.792  72.633 220.707 -0.33 -0.00    +0.021 A  
DOCKED: ATOM     30  C   UNL     1     144.809  73.578 220.877 -0.51 -0.01    +0.041 A  
DOCKED: ATOM     31  Cl  UNL     1     146.332  73.107 221.608 -0.77 +0.01    -0.084 Cl 
DOCKED: ENDBRANCH  22  25
DOCKED: ENDBRANCH   1  20
DOCKED: TORSDOF 6
DOCKED: TER
DOCKED: ENDMDL
________________________________________________________________________________


    FINAL DOCKED STATE:
    ________________________


Run:   16 / 20
Time taken for this run:   0.022s

DOCKED: MODEL        16
DOCKED: USER    Run = 16
DOCKED: USER
DOCKED: USER    Estimated Free Energy of Binding    =  -8.15 kcal/mol  [=(1)+(2)+(3)-(4)]
DOCKED: USER
DOCKED: USER    (1) Final Intermolecular Energy     =  -9.94 kcal/mol
DOCKED: USER        vdW + Hbond + desolv Energy     =  -9.87 kcal/mol
DOCKED: USER        Electrostatic Energy            =  -0.07 kcal/mol
DOCKED: USER        Moving Ligand-Fixed Receptor    =  -9.94 kcal/mol
DOCKED: USER        Moving Ligand-Moving Receptor   =  +0.00 kcal/mol
DOCKED: USER    (2) Final Total Internal Energy     =  -1.78 kcal/mol
DOCKED: USER    (3) Torsional Free Energy           =  +1.79 kcal/mol
DOCKED: USER    (4) Unbound System's Energy         =  -1.78 kcal/mol
DOCKED: USER
DOCKED: USER
DOCKED: REMARK SMILES O=C(N/C=C(\O)N1CCC[C@H]1c1ccc(Cl)cc1)c1ccc2cc(F)ccc2n1
DOCKED: REMARK SMILES IDX 5 1 6 2 4 4 3 5 2 6 1 8 19 9 29 10 20 11 28 12 21 13 27 14
DOCKED: REMARK SMILES IDX 22 15 26 16 23 17 24 18 25 19 7 20 8 21 11 22 9 23 10 24
DOCKED: REMARK SMILES IDX 12 25 13 26 18 27 14 28 17 29 15 30 16 31
DOCKED: REMARK H PARENT 6 3 3 7
DOCKED: USER                              x       y       z     vdW  Elec       q    Type
DOCKED: USER                           _______ _______ _______ _____ _____    ______ ____
DOCKED: ROOT
DOCKED: ATOM      1  C   UNL     1     140.480  74.855 221.252 -0.22 -0.04    +0.204 C  
DOCKED: ENDROOT
DOCKED: BRANCH   1   2
DOCKED: ATOM      2  O   UNL     1     139.652  75.246 222.306 -0.52 +0.07    -0.494 OA 
DOCKED: ATOM      3  H   UNL     1     139.016  74.606 222.764 -0.43 -0.09    +0.295 HD 
DOCKED: ENDBRANCH   1   2
DOCKED: BRANCH   1   4
DOCKED: ATOM      4  C   UNL     1     140.721  73.549 221.064 -0.20 -0.02    +0.152 C  
DOCKED: BRANCH   4   5
DOCKED: ATOM      5  N   UNL     1     140.741  72.618 222.159 -0.17 +0.02    -0.322 N  
DOCKED: ATOM      6  C   UNL     1     139.532  72.155 222.780 -0.17 -0.06    +0.273 C  
DOCKED: ATOM      7  H   UNL     1     141.657  72.266 222.517 +0.07 +0.00    +0.169 HD 
DOCKED: ATOM      8  O   UNL     1     138.413  72.562 222.360 -0.14 +0.08    -0.267 OA 
DOCKED: BRANCH   6   9
DOCKED: ATOM      9  C   UNL     1     139.585  71.201 223.911 -0.32 -0.03    +0.129 A  
DOCKED: ATOM     10  N   UNL     1     140.267  71.532 225.043 -0.31 +0.04    -0.243 NA 
DOCKED: ATOM     11  C   UNL     1     138.939  69.954 223.838 -0.28 -0.01    +0.035 A  
DOCKED: ATOM     12  C   UNL     1     140.349  70.696 226.112 -0.52 -0.01    +0.071 A  
DOCKED: ATOM     13  C   UNL     1     139.005  69.074 224.921 -0.38 -0.00    +0.013 A  
DOCKED: ATOM     14  C   UNL     1     141.063  71.082 227.252 -0.68 -0.01    +0.032 A  
DOCKED: ATOM     15  C   UNL     1     139.713  69.437 226.072 -0.48 -0.00    +0.003 A  
DOCKED: ATOM     16  C   UNL     1     141.145  70.219 228.351 -0.49 -0.01    +0.041 A  
DOCKED: ATOM     17  C   UNL     1     139.799  68.577 227.178 -0.57 -0.01    +0.049 A  
DOCKED: ATOM     18  C   UNL     1     140.515  68.970 228.313 -0.54 -0.02    +0.123 A  
DOCKED: ATOM     19  F   UNL     1     140.598  68.139 229.381 -0.11 +0.05    -0.207 F  
DOCKED: ENDBRANCH   6   9
DOCKED: ENDBRANCH   4   5
DOCKED: ENDBRANCH   1   4
DOCKED: BRANCH   1  20
DOCKED: ATOM     20  N   UNL     1     141.059  75.850 220.375 -0.08 +0.12    -0.335 N  
DOCKED: ATOM     21  C   UNL     1     141.119  75.719 218.926 -0.09 -0.04    +0.120 C  
DOCKED: ATOM     22  C   UNL     1     141.759  77.040 220.847 -0.14 -0.07    +0.115 C  
DOCKED: ATOM     23  C   UNL     1     142.091  76.789 218.451 -0.22 -0.01    +0.024 C  
DOCKED: ATOM     24  C   UNL     1     142.180  77.801 219.586 -0.28 -0.02    +0.032 C  
DOCKED: BRANCH  22  25
DOCKED: ATOM     25  C   UNL     1     140.878  77.891 221.739 -0.35 +0.01    -0.025 A  
DOCKED: ATOM     26  C   UNL     1     139.517  78.088 221.434 -0.20 -0.00    +0.007 A  
DOCKED: ATOM     27  C   UNL     1     141.425  78.532 222.863 -0.53 -0.00    +0.007 A  
DOCKED: ATOM     28  C   UNL     1     138.718  78.891 222.254 -0.23 -0.00    +0.021 A  
DOCKED: ATOM     29  C   UNL     1     140.623  79.333 223.682 -0.49 -0.00    +0.021 A  
DOCKED: ATOM     30  C   UNL     1     139.269  79.511 223.379 -0.37 -0.01    +0.041 A  
DOCKED: ATOM     31  Cl  UNL     1     138.265  80.517 224.407 -0.42 +0.01    -0.084 Cl 
DOCKED: ENDBRANCH  22  25
DOCKED: ENDBRANCH   1  20
DOCKED: TORSDOF 6
DOCKED: TER
DOCKED: ENDMDL
________________________________________________________________________________


    FINAL DOCKED STATE:
    ________________________


Run:   17 / 20
Time taken for this run:   0.022s

DOCKED: MODEL        17
DOCKED: USER    Run = 17
DOCKED: USER
DOCKED: USER    Estimated Free Energy of Binding    =  -7.43 kcal/mol  [=(1)+(2)+(3)-(4)]
DOCKED: USER
DOCKED: USER    (1) Final Intermolecular Energy     =  -9.22 kcal/mol
DOCKED: USER        vdW + Hbond + desolv Energy     =  -9.11 kcal/mol
DOCKED: USER        Electrostatic Energy            =  -0.10 kcal/mol
DOCKED: USER        Moving Ligand-Fixed Receptor    =  -9.22 kcal/mol
DOCKED: USER        Moving Ligand-Moving Receptor   =  +0.00 kcal/mol
DOCKED: USER    (2) Final Total Internal Energy     =  -1.90 kcal/mol
DOCKED: USER    (3) Torsional Free Energy           =  +1.79 kcal/mol
DOCKED: USER    (4) Unbound System's Energy         =  -1.90 kcal/mol
DOCKED: USER
DOCKED: USER
DOCKED: REMARK SMILES O=C(N/C=C(\O)N1CCC[C@H]1c1ccc(Cl)cc1)c1ccc2cc(F)ccc2n1
DOCKED: REMARK SMILES IDX 5 1 6 2 4 4 3 5 2 6 1 8 19 9 29 10 20 11 28 12 21 13 27 14
DOCKED: REMARK SMILES IDX 22 15 26 16 23 17 24 18 25 19 7 20 8 21 11 22 9 23 10 24
DOCKED: REMARK SMILES IDX 12 25 13 26 18 27 14 28 17 29 15 30 16 31
DOCKED: REMARK H PARENT 6 3 3 7
DOCKED: USER                              x       y       z     vdW  Elec       q    Type
DOCKED: USER                           _______ _______ _______ _____ _____    ______ ____
DOCKED: ROOT
DOCKED: ATOM      1  C   UNL     1     139.833  71.459 222.189 -0.19 -0.03    +0.204 C  
DOCKED: ENDROOT
DOCKED: BRANCH   1   2
DOCKED: ATOM      2  O   UNL     1     141.212  71.670 222.268 -0.08 +0.03    -0.494 OA 
DOCKED: ATOM      3  H   UNL     1     141.716  72.229 221.592 +0.12 -0.02    +0.295 HD 
DOCKED: ENDBRANCH   1   2
DOCKED: BRANCH   1   4
DOCKED: ATOM      4  C   UNL     1     139.007  72.510 222.293 -0.17 -0.04    +0.152 C  
DOCKED: BRANCH   4   5
DOCKED: ATOM      5  N   UNL     1     139.500  73.860 222.309 -0.11 +0.06    -0.322 N  
DOCKED: ATOM      6  C   UNL     1     140.357  74.366 221.273 -0.19 -0.05    +0.273 C  
DOCKED: ATOM      7  H   UNL     1     139.231  74.496 223.094 -0.55 -0.05    +0.169 HD 
DOCKED: ATOM      8  O   UNL     1     140.690  73.618 220.313 -0.08 +0.05    -0.267 OA 
DOCKED: BRANCH   6   9
DOCKED: ATOM      9  C   UNL     1     140.854  75.760 221.322 -0.28 -0.04    +0.129 A  
DOCKED: ATOM     10  N   UNL     1     140.460  76.583 222.334 -0.29 +0.06    -0.243 NA 
DOCKED: ATOM     11  C   UNL     1     141.730  76.251 220.338 -0.27 -0.02    +0.035 A  
DOCKED: ATOM     12  C   UNL     1     140.884  77.871 222.429 -0.41 -0.03    +0.071 A  
DOCKED: ATOM     13  C   UNL     1     142.183  77.570 220.410 -0.28 -0.01    +0.013 A  
DOCKED: ATOM     14  C   UNL     1     140.451  78.677 223.487 -0.35 -0.01    +0.032 A  
DOCKED: ATOM     15  C   UNL     1     141.764  78.396 221.458 -0.37 -0.00    +0.003 A  
DOCKED: ATOM     16  C   UNL     1     140.890  80.002 223.582 -0.48 -0.01    +0.041 A  
DOCKED: ATOM     17  C   UNL     1     142.201  79.726 221.560 -0.38 -0.02    +0.049 A  
DOCKED: ATOM     18  C   UNL     1     141.762  80.524 222.621 -0.45 -0.03    +0.123 A  
DOCKED: ATOM     19  F   UNL     1     142.184  81.809 222.719 -0.11 +0.03    -0.207 F  
DOCKED: ENDBRANCH   6   9
DOCKED: ENDBRANCH   4   5
DOCKED: ENDBRANCH   1   4
DOCKED: BRANCH   1  20
DOCKED: ATOM     20  N   UNL     1     139.314  70.123 221.990 -0.06 +0.06    -0.335 N  
DOCKED: ATOM     21  C   UNL     1     139.505  69.351 220.771 -0.10 -0.02    +0.120 C  
DOCKED: ATOM     22  C   UNL     1     138.434  69.444 222.936 -0.18 -0.02    +0.115 C  
DOCKED: ATOM     23  C   UNL     1     138.526  68.189 220.854 -0.12 -0.00    +0.024 C  
DOCKED: ATOM     24  C   UNL     1     138.154  68.067 222.327 -0.21 -0.01    +0.032 C  
DOCKED: BRANCH  22  25
DOCKED: ATOM     25  C   UNL     1     139.070  69.325 224.306 -0.32 +0.00    -0.025 A  
DOCKED: ATOM     26  C   UNL     1     139.518  70.468 224.996 -0.43 -0.00    +0.007 A  
DOCKED: ATOM     27  C   UNL     1     139.259  68.060 224.886 -0.39 -0.00    +0.007 A  
DOCKED: ATOM     28  C   UNL     1     140.120  70.345 226.252 -0.52 -0.00    +0.021 A  
DOCKED: ATOM     29  C   UNL     1     139.862  67.940 226.142 -0.61 -0.00    +0.021 A  
DOCKED: ATOM     30  C   UNL     1     140.290  69.081 226.827 -0.55 -0.01    +0.041 A  
DOCKED: ATOM     31  Cl  UNL     1     141.046  68.928 228.402 -0.71 +0.02    -0.084 Cl 
DOCKED: ENDBRANCH  22  25
DOCKED: ENDBRANCH   1  20
DOCKED: TORSDOF 6
DOCKED: TER
DOCKED: ENDMDL
________________________________________________________________________________


    FINAL DOCKED STATE:
    ________________________


Run:   18 / 20
Time taken for this run:   0.022s

DOCKED: MODEL        18
DOCKED: USER    Run = 18
DOCKED: USER
DOCKED: USER    Estimated Free Energy of Binding    =  -8.22 kcal/mol  [=(1)+(2)+(3)-(4)]
DOCKED: USER
DOCKED: USER    (1) Final Intermolecular Energy     = -10.01 kcal/mol
DOCKED: USER        vdW + Hbond + desolv Energy     =  -9.94 kcal/mol
DOCKED: USER        Electrostatic Energy            =  -0.06 kcal/mol
DOCKED: USER        Moving Ligand-Fixed Receptor    = -10.01 kcal/mol
DOCKED: USER        Moving Ligand-Moving Receptor   =  +0.00 kcal/mol
DOCKED: USER    (2) Final Total Internal Energy     =  -1.77 kcal/mol
DOCKED: USER    (3) Torsional Free Energy           =  +1.79 kcal/mol
DOCKED: USER    (4) Unbound System's Energy         =  -1.77 kcal/mol
DOCKED: USER
DOCKED: USER
DOCKED: REMARK SMILES O=C(N/C=C(\O)N1CCC[C@H]1c1ccc(Cl)cc1)c1ccc2cc(F)ccc2n1
DOCKED: REMARK SMILES IDX 5 1 6 2 4 4 3 5 2 6 1 8 19 9 29 10 20 11 28 12 21 13 27 14
DOCKED: REMARK SMILES IDX 22 15 26 16 23 17 24 18 25 19 7 20 8 21 11 22 9 23 10 24
DOCKED: REMARK SMILES IDX 12 25 13 26 18 27 14 28 17 29 15 30 16 31
DOCKED: REMARK H PARENT 6 3 3 7
DOCKED: USER                              x       y       z     vdW  Elec       q    Type
DOCKED: USER                           _______ _______ _______ _____ _____    ______ ____
DOCKED: ROOT
DOCKED: ATOM      1  C   UNL     1     140.575  74.890 221.248 -0.23 -0.04    +0.204 C  
DOCKED: ENDROOT
DOCKED: BRANCH   1   2
DOCKED: ATOM      2  O   UNL     1     139.816  75.270 222.358 -0.52 +0.06    -0.494 OA 
DOCKED: ATOM      3  H   UNL     1     139.179  74.638 222.823 -0.41 -0.08    +0.295 HD 
DOCKED: ENDBRANCH   1   2
DOCKED: BRANCH   1   4
DOCKED: ATOM      4  C   UNL     1     140.779  73.585 221.016 -0.20 -0.02    +0.152 C  
DOCKED: BRANCH   4   5
DOCKED: ATOM      5  N   UNL     1     140.817  72.624 222.084 -0.16 +0.02    -0.322 N  
DOCKED: ATOM      6  C   UNL     1     139.622  72.181 222.747 -0.19 -0.06    +0.273 C  
DOCKED: ATOM      7  H   UNL     1     141.735  72.233 222.391 +0.07 +0.00    +0.169 HD 
DOCKED: ATOM      8  O   UNL     1     138.500  72.636 222.389 -0.15 +0.08    -0.267 OA 
DOCKED: BRANCH   6   9
DOCKED: ATOM      9  C   UNL     1     139.694  71.195 223.848 -0.33 -0.03    +0.129 A  
DOCKED: ATOM     10  N   UNL     1     140.275  71.543 225.030 -0.31 +0.04    -0.243 NA 
DOCKED: ATOM     11  C   UNL     1     139.169  69.899 223.695 -0.27 -0.01    +0.035 A  
DOCKED: ATOM     12  C   UNL     1     140.369  70.679 226.076 -0.52 -0.01    +0.071 A  
DOCKED: ATOM     13  C   UNL     1     139.250  68.990 224.752 -0.37 -0.00    +0.013 A  
DOCKED: ATOM     14  C   UNL     1     140.976  71.083 227.270 -0.68 -0.01    +0.032 A  
DOCKED: ATOM     15  C   UNL     1     139.853  69.370 225.956 -0.48 -0.00    +0.003 A  
DOCKED: ATOM     16  C   UNL     1     141.071  70.191 228.343 -0.52 -0.01    +0.041 A  
DOCKED: ATOM     17  C   UNL     1     139.951  68.481 227.037 -0.59 -0.01    +0.049 A  
DOCKED: ATOM     18  C   UNL     1     140.559  68.894 228.227 -0.54 -0.03    +0.123 A  
DOCKED: ATOM     19  F   UNL     1     140.654  68.035 229.272 -0.14 +0.05    -0.207 F  
DOCKED: ENDBRANCH   6   9
DOCKED: ENDBRANCH   4   5
DOCKED: ENDBRANCH   1   4
DOCKED: BRANCH   1  20
DOCKED: ATOM     20  N   UNL     1     141.121  75.895 220.363 -0.09 +0.12    -0.335 N  
DOCKED: ATOM     21  C   UNL     1     141.171  75.761 218.914 -0.09 -0.04    +0.120 C  
DOCKED: ATOM     22  C   UNL     1     141.797  77.104 220.824 -0.14 -0.07    +0.115 C  
DOCKED: ATOM     23  C   UNL     1     142.113  76.852 218.425 -0.23 -0.01    +0.024 C  
DOCKED: ATOM     24  C   UNL     1     142.188  77.870 219.557 -0.27 -0.02    +0.032 C  
DOCKED: BRANCH  22  25
DOCKED: ATOM     25  C   UNL     1     140.904  77.937 221.722 -0.35 +0.01    -0.025 A  
DOCKED: ATOM     26  C   UNL     1     139.540  78.114 221.420 -0.20 -0.00    +0.007 A  
DOCKED: ATOM     27  C   UNL     1     141.443  78.581 222.848 -0.53 -0.00    +0.007 A  
DOCKED: ATOM     28  C   UNL     1     138.730  78.899 222.245 -0.23 -0.00    +0.021 A  
DOCKED: ATOM     29  C   UNL     1     140.630  79.365 223.672 -0.49 -0.00    +0.021 A  
DOCKED: ATOM     30  C   UNL     1     139.273  79.523 223.372 -0.37 -0.01    +0.041 A  
DOCKED: ATOM     31  Cl  UNL     1     138.255  80.508 224.407 -0.42 +0.01    -0.084 Cl 
DOCKED: ENDBRANCH  22  25
DOCKED: ENDBRANCH   1  20
DOCKED: TORSDOF 6
DOCKED: TER
DOCKED: ENDMDL
________________________________________________________________________________


    FINAL DOCKED STATE:
    ________________________


Run:   19 / 20
Time taken for this run:   0.022s

DOCKED: MODEL        19
DOCKED: USER    Run = 19
DOCKED: USER
DOCKED: USER    Estimated Free Energy of Binding    =  -7.71 kcal/mol  [=(1)+(2)+(3)-(4)]
DOCKED: USER
DOCKED: USER    (1) Final Intermolecular Energy     =  -9.50 kcal/mol
DOCKED: USER        vdW + Hbond + desolv Energy     =  -9.43 kcal/mol
DOCKED: USER        Electrostatic Energy            =  -0.07 kcal/mol
DOCKED: USER        Moving Ligand-Fixed Receptor    =  -9.50 kcal/mol
DOCKED: USER        Moving Ligand-Moving Receptor   =  +0.00 kcal/mol
DOCKED: USER    (2) Final Total Internal Energy     =  -1.42 kcal/mol
DOCKED: USER    (3) Torsional Free Energy           =  +1.79 kcal/mol
DOCKED: USER    (4) Unbound System's Energy         =  -1.42 kcal/mol
DOCKED: USER
DOCKED: USER
DOCKED: REMARK SMILES O=C(N/C=C(\O)N1CCC[C@H]1c1ccc(Cl)cc1)c1ccc2cc(F)ccc2n1
DOCKED: REMARK SMILES IDX 5 1 6 2 4 4 3 5 2 6 1 8 19 9 29 10 20 11 28 12 21 13 27 14
DOCKED: REMARK SMILES IDX 22 15 26 16 23 17 24 18 25 19 7 20 8 21 11 22 9 23 10 24
DOCKED: REMARK SMILES IDX 12 25 13 26 18 27 14 28 17 29 15 30 16 31
DOCKED: REMARK H PARENT 6 3 3 7
DOCKED: USER                              x       y       z     vdW  Elec       q    Type
DOCKED: USER                           _______ _______ _______ _____ _____    ______ ____
DOCKED: ROOT
DOCKED: ATOM      1  C   UNL     1     138.871  74.397 220.296 -0.06 -0.04    +0.204 C  
DOCKED: ENDROOT
DOCKED: BRANCH   1   2
DOCKED: ATOM      2  O   UNL     1     138.847  74.522 218.904 +0.01 +0.11    -0.494 OA 
DOCKED: ATOM      3  H   UNL     1     137.992  74.468 218.368 +0.01 -0.06    +0.295 HD 
DOCKED: ENDBRANCH   1   2
DOCKED: BRANCH   1   4
DOCKED: ATOM      4  C   UNL     1     138.403  73.271 220.855 -0.09 -0.03    +0.152 C  
DOCKED: BRANCH   4   5
DOCKED: ATOM      5  N   UNL     1     138.856  72.822 222.143 -0.10 +0.09    -0.322 N  
DOCKED: ATOM      6  C   UNL     1     139.378  71.499 222.343 -0.16 -0.05    +0.273 C  
DOCKED: ATOM      7  H   UNL     1     138.808  73.472 222.960 -0.51 -0.09    +0.169 HD 
DOCKED: ATOM      8  O   UNL     1     139.451  70.699 221.369 -0.08 +0.05    -0.267 OA 
DOCKED: BRANCH   6   9
DOCKED: ATOM      9  C   UNL     1     139.832  71.064 223.683 -0.31 -0.02    +0.129 A  
DOCKED: ATOM     10  N   UNL     1     139.439  69.853 224.169 -0.17 +0.04    -0.243 NA 
DOCKED: ATOM     11  C   UNL     1     140.667  71.881 224.465 -0.33 -0.00    +0.035 A  
DOCKED: ATOM     12  C   UNL     1     139.825  69.402 225.392 -0.39 -0.01    +0.071 A  
DOCKED: ATOM     13  C   UNL     1     141.080  71.444 225.726 -0.61 -0.00    +0.013 A  
DOCKED: ATOM     14  C   UNL     1     139.395  68.151 225.848 -0.53 -0.00    +0.032 A  
DOCKED: ATOM     15  C   UNL     1     140.663  70.197 226.204 -0.55 -0.00    +0.003 A  
DOCKED: ATOM     16  C   UNL     1     139.794  67.690 227.107 -0.55 -0.01    +0.041 A  
DOCKED: ATOM     17  C   UNL     1     141.060  69.728 227.466 -0.54 -0.01    +0.049 A  
DOCKED: ATOM     18  C   UNL     1     140.624  68.477 227.913 -0.56 -0.03    +0.123 A  
DOCKED: ATOM     19  F   UNL     1     141.008  68.024 229.132 -0.18 +0.06    -0.207 F  
DOCKED: ENDBRANCH   6   9
DOCKED: ENDBRANCH   4   5
DOCKED: ENDBRANCH   1   4
DOCKED: BRANCH   1  20
DOCKED: ATOM     20  N   UNL     1     139.402  75.466 221.112 -0.09 +0.08    -0.335 N  
DOCKED: ATOM     21  C   UNL     1     138.749  75.974 222.311 -0.26 -0.03    +0.120 C  
DOCKED: ATOM     22  C   UNL     1     140.587  76.244 220.764 -0.21 -0.04    +0.115 C  
DOCKED: ATOM     23  C   UNL     1     139.446  77.285 222.643 -0.26 -0.00    +0.024 C  
DOCKED: ATOM     24  C   UNL     1     140.781  77.240 221.910 -0.38 -0.01    +0.032 C  
DOCKED: BRANCH  22  25
DOCKED: ATOM     25  C   UNL     1     141.804  75.359 220.586 -0.28 +0.01    -0.025 A  
DOCKED: ATOM     26  C   UNL     1     142.968  75.848 219.962 -0.34 -0.00    +0.007 A  
DOCKED: ATOM     27  C   UNL     1     141.767  74.019 221.008 -0.27 -0.00    +0.007 A  
DOCKED: ATOM     28  C   UNL     1     144.079  75.017 219.788 -0.39 -0.01    +0.021 A  
DOCKED: ATOM     29  C   UNL     1     142.880  73.191 220.832 -0.27 -0.00    +0.021 A  
DOCKED: ATOM     30  C   UNL     1     144.037  73.689 220.224 -0.38 -0.01    +0.041 A  
DOCKED: ATOM     31  Cl  UNL     1     145.431  72.648 220.004 -0.60 -0.01    -0.084 Cl 
DOCKED: ENDBRANCH  22  25
DOCKED: ENDBRANCH   1  20
DOCKED: TORSDOF 6
DOCKED: TER
DOCKED: ENDMDL
________________________________________________________________________________


    FINAL DOCKED STATE:
    ________________________


Run:   20 / 20
Time taken for this run:   0.022s

DOCKED: MODEL        20
DOCKED: USER    Run = 20
DOCKED: USER
DOCKED: USER    Estimated Free Energy of Binding    =  -8.19 kcal/mol  [=(1)+(2)+(3)-(4)]
DOCKED: USER
DOCKED: USER    (1) Final Intermolecular Energy     =  -9.98 kcal/mol
DOCKED: USER        vdW + Hbond + desolv Energy     =  -9.90 kcal/mol
DOCKED: USER        Electrostatic Energy            =  -0.07 kcal/mol
DOCKED: USER        Moving Ligand-Fixed Receptor    =  -9.98 kcal/mol
DOCKED: USER        Moving Ligand-Moving Receptor   =  +0.00 kcal/mol
DOCKED: USER    (2) Final Total Internal Energy     =  -1.75 kcal/mol
DOCKED: USER    (3) Torsional Free Energy           =  +1.79 kcal/mol
DOCKED: USER    (4) Unbound System's Energy         =  -1.75 kcal/mol
DOCKED: USER
DOCKED: USER
DOCKED: REMARK SMILES O=C(N/C=C(\O)N1CCC[C@H]1c1ccc(Cl)cc1)c1ccc2cc(F)ccc2n1
DOCKED: REMARK SMILES IDX 5 1 6 2 4 4 3 5 2 6 1 8 19 9 29 10 20 11 28 12 21 13 27 14
DOCKED: REMARK SMILES IDX 22 15 26 16 23 17 24 18 25 19 7 20 8 21 11 22 9 23 10 24
DOCKED: REMARK SMILES IDX 12 25 13 26 18 27 14 28 17 29 15 30 16 31
DOCKED: REMARK H PARENT 6 3 3 7
DOCKED: USER                              x       y       z     vdW  Elec       q    Type
DOCKED: USER                           _______ _______ _______ _____ _____    ______ ____
DOCKED: ROOT
DOCKED: ATOM      1  C   UNL     1     140.314  74.681 221.233 -0.21 -0.04    +0.204 C  
DOCKED: ENDROOT
DOCKED: BRANCH   1   2
DOCKED: ATOM      2  O   UNL     1     139.587  75.123 222.341 -0.56 +0.07    -0.494 OA 
DOCKED: ATOM      3  H   UNL     1     138.967  74.517 222.862 -0.48 -0.11    +0.295 HD 
DOCKED: ENDBRANCH   1   2
DOCKED: BRANCH   1   4
DOCKED: ATOM      4  C   UNL     1     140.380  73.365 220.982 -0.18 -0.02    +0.152 C  
DOCKED: BRANCH   4   5
DOCKED: ATOM      5  N   UNL     1     140.503  72.399 222.039 -0.16 +0.03    -0.322 N  
DOCKED: ATOM      6  C   UNL     1     139.376  71.999 222.834 -0.16 -0.06    +0.273 C  
DOCKED: ATOM      7  H   UNL     1     141.435  71.972 222.239 +0.06 -0.01    +0.169 HD 
DOCKED: ATOM      8  O   UNL     1     138.238  72.497 222.607 -0.12 +0.09    -0.267 OA 
DOCKED: BRANCH   6   9
DOCKED: ATOM      9  C   UNL     1     139.536  71.006 223.920 -0.32 -0.03    +0.129 A  
DOCKED: ATOM     10  N   UNL     1     140.149  71.368 225.082 -0.31 +0.04    -0.243 NA 
DOCKED: ATOM     11  C   UNL     1     139.061  69.691 223.774 -0.27 -0.01    +0.035 A  
DOCKED: ATOM     12  C   UNL     1     140.323  70.498 226.113 -0.51 -0.01    +0.071 A  
DOCKED: ATOM     13  C   UNL     1     139.225  68.775 224.816 -0.39 -0.00    +0.013 A  
DOCKED: ATOM     14  C   UNL     1     140.961  70.917 227.285 -0.66 -0.01    +0.032 A  
DOCKED: ATOM     15  C   UNL     1     139.859  69.170 225.998 -0.49 -0.00    +0.003 A  
DOCKED: ATOM     16  C   UNL     1     141.138  70.020 228.344 -0.50 -0.01    +0.041 A  
DOCKED: ATOM     17  C   UNL     1     140.040  68.275 227.065 -0.61 -0.01    +0.049 A  
DOCKED: ATOM     18  C   UNL     1     140.679  68.703 228.233 -0.55 -0.03    +0.123 A  
DOCKED: ATOM     19  F   UNL     1     140.853  67.838 229.263 -0.16 +0.06    -0.207 F  
DOCKED: ENDBRANCH   6   9
DOCKED: ENDBRANCH   4   5
DOCKED: ENDBRANCH   1   4
DOCKED: BRANCH   1  20
DOCKED: ATOM     20  N   UNL     1     140.975  75.635 220.370 -0.08 +0.11    -0.335 N  
DOCKED: ATOM     21  C   UNL     1     141.062  75.498 218.923 -0.08 -0.04    +0.120 C  
DOCKED: ATOM     22  C   UNL     1     141.736  76.781 220.858 -0.10 -0.07    +0.115 C  
DOCKED: ATOM     23  C   UNL     1     142.111  76.503 218.470 -0.21 -0.01    +0.024 C  
DOCKED: ATOM     24  C   UNL     1     142.235  77.510 219.607 -0.30 -0.02    +0.032 C  
DOCKED: BRANCH  22  25
DOCKED: ATOM     25  C   UNL     1     140.888  77.688 221.727 -0.35 +0.01    -0.025 A  
DOCKED: ATOM     26  C   UNL     1     139.552  77.972 221.386 -0.20 -0.00    +0.007 A  
DOCKED: ATOM     27  C   UNL     1     141.446  78.293 222.866 -0.52 -0.00    +0.007 A  
DOCKED: ATOM     28  C   UNL     1     138.785  78.824 222.185 -0.23 -0.00    +0.021 A  
DOCKED: ATOM     29  C   UNL     1     140.676  79.145 223.663 -0.48 -0.00    +0.021 A  
DOCKED: ATOM     30  C   UNL     1     139.345  79.409 223.325 -0.37 -0.01    +0.041 A  
DOCKED: ATOM     31  Cl  UNL     1     138.380  80.479 224.327 -0.42 +0.01    -0.084 Cl 
DOCKED: ENDBRANCH  22  25
DOCKED: ENDBRANCH   1  20
DOCKED: TORSDOF 6
DOCKED: TER
DOCKED: ENDMDL
________________________________________________________________________________


    CLUSTERING HISTOGRAM
    ____________________


________________________________________________________________________________
     |           |     |           |     |
Clus | Lowest    | Run | Mean      | Num | Histogram
-ter | Binding   |     | Binding   | in  |
Rank | Energy    |     | Energy    | Clus|    5    10   15   20   25   30   35
_____|___________|_____|___________|_____|____:____|____:____|____:____|____:___
   1 |     -8.27 |  14 |     -8.07 |  10 |##########
   2 |     -8.07 |  15 |     -7.78 |   6 |######
   3 |     -7.69 |   3 |     -7.69 |   1 |#
   4 |     -7.63 |   9 |     -7.63 |   1 |#
   5 |     -7.61 |   5 |     -7.52 |   2 |##
_____|___________|_____|___________|_____|______________________________________


    RMSD TABLE
    __________


_______________________________________________________________________
     |      |      |           |         |                 |
Rank | Sub- | Run  | Binding   | Cluster | Reference       | Grep
     | Rank |      | Energy    | RMSD    | RMSD            | Pattern
_____|______|______|___________|_________|_________________|___________
   1      1     14       -8.27      0.00    270.33           RANKING
   1      2      1       -8.25      0.22    270.29           RANKING
   1      3     18       -8.22      0.88    270.30           RANKING
   1      4     12       -8.21      0.88    270.27           RANKING
   1      5      7       -8.20      0.88    270.33           RANKING
   1      6     20       -8.19      0.90    270.22           RANKING
   1      7     16       -8.15      0.87    270.30           RANKING
   1      8      8       -8.12      0.85    270.33           RANKING
   1      9     13       -8.09      0.90    270.32           RANKING
   1     10      2       -7.00      1.81    269.65           RANKING
   2      1     15       -8.07      0.00    269.71           RANKING
   2      2     10       -8.05      0.45    269.80           RANKING
   2      3     11       -8.03      0.45    269.72           RANKING
   2      4     19       -7.71      1.71    269.56           RANKING
   2      5      4       -7.70      1.69    269.61           RANKING
   2      6      6       -7.13      1.22    269.42           RANKING
   3      1      3       -7.69      0.00    269.27           RANKING
   4      1      9       -7.63      0.00    269.50           RANKING
   5      1      5       -7.61      0.00    270.16           RANKING
   5      2     17       -7.43      1.75    269.75           RANKING

Run time 0.396 sec
Idle time 0.000 sec
