AutoDock-GPU version: v1.6

**********************************************************
**    AutoDock-GPU AUTODOCKTOOLS-COMPATIBLE DLG FILE    **
**********************************************************


    DOCKING PARAMETERS
    ________________________


Ligand file:                               /home/a/REINVENT4/ReinventStudies/pleaseWork/justmol2mol_4_Compounds_ontop/graph-dock-8u2o5u/graph-DockGPU/node-autodockgpu/inputs/BIMBDQSJEKERBQ-PHHSYMRHNA-M.pdbqt
Grid fld file:                             /home/a/REINVENT4/ReinventStudies/mols/Rad51/maps/rad51_receptor.maps.fld

Random seed:                               42
Number of runs:                            20
Number of energy evaluations:              3119281
Number of generations:                     42000
Size of population:                        150
Rate of crossover:                         80.000000%
Tournament selection probability limit:    60.000000%
Rate of mutation:                          2.000000%
Maximal allowed delta movement:            +/- 6.000000A
Maximal allowed delta angle:               +/- 90.000000

Rate of local search:                      100.000000%
Maximal number of local search iterations: 300
Rho lower bound:                           0.010000
Spread of local search delta movement:     2.000000A
Spread of local search delta angle:        74.999999
Limit of consecutive successes/failures:   4

Handle symmetry during clustering:         YES
RMSD tolerance:                            2.000000A

Program call in command line was:          /home/a/REINVENT4/ReinventStudies/adgpu-v1.6_linux_x64_cuda12_128wi --filelist batch.txt --heuristics 1 --nrun 20 --psize 150 --lsit 300 --seed 42 --heurmax 12000000 


    GRID PARAMETERS
    ________________________


Receptor name:                             rad51_receptor
Number of grid points (x, y, z):           53, 53, 53
Grid center (x, y, z):                     139.950000, 75.640000, 221.970000A
Grid size (x, y, z):                       19.500000, 19.500000, 19.500000A
Grid spacing:                              0.375000A


    LIGAND PARAMETERS
    ________________________


Ligand name:                               /home/a/REINVENT4/ReinventStudies/pleaseWork/justmol2mol_4_Compounds_ontop/graph-dock-8u2o5u/graph-DockGPU/node-autodockgpu/inputs/BIMBDQSJEKERBQ-PHHSYMRHNA-M
Number of atoms:                           33
Number of rotatable bonds:                 11
Number of atom types:                      6


    DUMMY DATA (only for ADT-compatibility)
    ________________________


DPF> outlev 1
DPF> ga_run 20
DPF> fld /home/a/REINVENT4/ReinventStudies/mols/Rad51/maps/rad51_receptor.maps.fld
DPF> move /home/a/REINVENT4/ReinventStudies/pleaseWork/justmol2mol_4_Compounds_ontop/graph-dock-8u2o5u/graph-DockGPU/node-autodockgpu/inputs/BIMBDQSJEKERBQ-PHHSYMRHNA-M.pdbqt


    COUNTER STATES
    ________________________


Number of energy evaluations performed:    1630795
Number of generations used:                95


    INPUT LIGAND PDBQT FILE:
    ________________________


INPUT-LIGAND-PDBQT: REMARK SMILES CC(C)C[C@H](N/C(O)=C\NC(=O)c1ccc2ccccc2n1)C(=O)[N-]C1CCCC1
INPUT-LIGAND-PDBQT: REMARK SMILES IDX 6 1 7 3 8 4 9 6 10 7 11 8 12 10 13 11 22 12 14 13 21 14
INPUT-LIGAND-PDBQT: REMARK SMILES IDX 15 15 20 16 16 17 19 18 17 19 18 20 5 21 23 22 24 23 25 24
INPUT-LIGAND-PDBQT: REMARK SMILES IDX 26 25 27 26 30 27 28 28 29 29 4 30 2 31 1 32 3 33
INPUT-LIGAND-PDBQT: REMARK H PARENT 6 2 8 5 10 9
INPUT-LIGAND-PDBQT: ROOT
INPUT-LIGAND-PDBQT: ATOM      1  N   UNL     1      -1.179   1.530  -1.643  1.00  0.00    -0.347 N 
INPUT-LIGAND-PDBQT: ATOM      2  H   UNL     1      -1.141   0.514  -1.890  1.00  0.00     0.164 HD
INPUT-LIGAND-PDBQT: ENDROOT
INPUT-LIGAND-PDBQT: BRANCH   1   3
INPUT-LIGAND-PDBQT: ATOM      3  C   UNL     1      -0.216   2.425  -2.215  1.00  0.00     0.201 C 
INPUT-LIGAND-PDBQT: BRANCH   3   4
INPUT-LIGAND-PDBQT: ATOM      4  O   UNL     1      -0.629   3.701  -2.602  1.00  0.00    -0.494 OA
INPUT-LIGAND-PDBQT: ATOM      5  H   UNL     1       0.011   4.375  -3.004  1.00  0.00     0.295 HD
INPUT-LIGAND-PDBQT: ENDBRANCH   3   4
INPUT-LIGAND-PDBQT: BRANCH   3   6
INPUT-LIGAND-PDBQT: ATOM      6  C   UNL     1       1.068   2.063  -2.376  1.00  0.00     0.152 C 
INPUT-LIGAND-PDBQT: BRANCH   6   7
INPUT-LIGAND-PDBQT: ATOM      7  N   UNL     1       1.591   0.827  -1.860  1.00  0.00    -0.322 N 
INPUT-LIGAND-PDBQT: ATOM      8  C   UNL     1       2.979   0.479  -1.995  1.00  0.00     0.273 C 
INPUT-LIGAND-PDBQT: ATOM      9  H   UNL     1       0.979   0.204  -1.288  1.00  0.00     0.169 HD
INPUT-LIGAND-PDBQT: ATOM     10  O   UNL     1       3.738   1.184  -2.717  1.00  0.00    -0.267 OA
INPUT-LIGAND-PDBQT: BRANCH   8  11
INPUT-LIGAND-PDBQT: ATOM     11  C   UNL     1       3.528  -0.694  -1.278  1.00  0.00     0.129 A 
INPUT-LIGAND-PDBQT: ATOM     12  N   UNL     1       2.695  -1.488  -0.549  1.00  0.00    -0.243 NA
INPUT-LIGAND-PDBQT: ATOM     13  C   UNL     1       4.902  -0.991  -1.316  1.00  0.00     0.035 A 
INPUT-LIGAND-PDBQT: ATOM     14  C   UNL     1       3.144  -2.560   0.156  1.00  0.00     0.071 A 
INPUT-LIGAND-PDBQT: ATOM     15  C   UNL     1       5.394  -2.086  -0.601  1.00  0.00     0.013 A 
INPUT-LIGAND-PDBQT: ATOM     16  C   UNL     1       2.248  -3.337   0.901  1.00  0.00     0.029 A 
INPUT-LIGAND-PDBQT: ATOM     17  C   UNL     1       4.518  -2.883   0.146  1.00  0.00     0.000 A 
INPUT-LIGAND-PDBQT: ATOM     18  C   UNL     1       2.715  -4.434   1.632  1.00  0.00     0.002 A 
INPUT-LIGAND-PDBQT: ATOM     19  C   UNL     1       4.979  -3.986   0.881  1.00  0.00     0.010 A 
INPUT-LIGAND-PDBQT: ATOM     20  C   UNL     1       4.076  -4.758   1.621  1.00  0.00     0.001 A 
INPUT-LIGAND-PDBQT: ENDBRANCH   8  11
INPUT-LIGAND-PDBQT: ENDBRANCH   6   7
INPUT-LIGAND-PDBQT: ENDBRANCH   3   6
INPUT-LIGAND-PDBQT: ENDBRANCH   1   3
INPUT-LIGAND-PDBQT: BRANCH   1  21
INPUT-LIGAND-PDBQT: ATOM     21  C   UNL     1      -2.126   1.988  -0.623  1.00  0.00     0.130 C 
INPUT-LIGAND-PDBQT: BRANCH  21  22
INPUT-LIGAND-PDBQT: ATOM     22  C   UNL     1      -1.364   2.229   0.650  1.00  0.00     0.074 C 
INPUT-LIGAND-PDBQT: ATOM     23  O   UNL     1      -1.355   3.378   1.170  1.00  0.00    -0.318 OA
INPUT-LIGAND-PDBQT: BRANCH  22  24
INPUT-LIGAND-PDBQT: ATOM     24  N   UNL     1      -0.603   1.163   1.232  1.00  0.00    -0.649 NA
INPUT-LIGAND-PDBQT: BRANCH  24  25
INPUT-LIGAND-PDBQT: ATOM     25  C   UNL     1       0.237   1.317   2.418  1.00  0.00    -0.107 C 
INPUT-LIGAND-PDBQT: ATOM     26  C   UNL     1       1.135   0.099   2.564  1.00  0.00    -0.016 C 
INPUT-LIGAND-PDBQT: ATOM     27  C   UNL     1      -0.613   1.319   3.684  1.00  0.00    -0.016 C 
INPUT-LIGAND-PDBQT: ATOM     28  C   UNL     1       0.316  -0.926   3.337  1.00  0.00    -0.001 C 
INPUT-LIGAND-PDBQT: ATOM     29  C   UNL     1      -0.742  -0.141   4.111  1.00  0.00    -0.001 C 
INPUT-LIGAND-PDBQT: ENDBRANCH  24  25
INPUT-LIGAND-PDBQT: ENDBRANCH  22  24
INPUT-LIGAND-PDBQT: ENDBRANCH  21  22
INPUT-LIGAND-PDBQT: BRANCH  21  30
INPUT-LIGAND-PDBQT: ATOM     30  C   UNL     1      -3.242   0.930  -0.434  1.00  0.00     0.034 C 
INPUT-LIGAND-PDBQT: BRANCH  30  31
INPUT-LIGAND-PDBQT: ATOM     31  C   UNL     1      -4.477   1.356   0.404  1.00  0.00    -0.015 C 
INPUT-LIGAND-PDBQT: ATOM     32  C   UNL     1      -5.158   2.623  -0.131  1.00  0.00     0.007 C 
INPUT-LIGAND-PDBQT: ATOM     33  C   UNL     1      -4.177   1.484   1.903  1.00  0.00     0.007 C 
INPUT-LIGAND-PDBQT: ENDBRANCH  30  31
INPUT-LIGAND-PDBQT: ENDBRANCH  21  30
INPUT-LIGAND-PDBQT: ENDBRANCH   1  21
INPUT-LIGAND-PDBQT: TORSDOF 11


    FINAL DOCKED STATE:
    ________________________


Run:   1 / 20
Time taken for this run:   0.080s

DOCKED: MODEL        1
DOCKED: USER    Run = 1
DOCKED: USER
DOCKED: USER    Estimated Free Energy of Binding    =  -7.61 kcal/mol  [=(1)+(2)+(3)-(4)]
DOCKED: USER
DOCKED: USER    (1) Final Intermolecular Energy     = -10.89 kcal/mol
DOCKED: USER        vdW + Hbond + desolv Energy     = -11.03 kcal/mol
DOCKED: USER        Electrostatic Energy            =  +0.14 kcal/mol
DOCKED: USER        Moving Ligand-Fixed Receptor    = -10.89 kcal/mol
DOCKED: USER        Moving Ligand-Moving Receptor   =  +0.00 kcal/mol
DOCKED: USER    (2) Final Total Internal Energy     =  -3.11 kcal/mol
DOCKED: USER    (3) Torsional Free Energy           =  +3.28 kcal/mol
DOCKED: USER    (4) Unbound System's Energy         =  -3.11 kcal/mol
DOCKED: USER
DOCKED: USER
DOCKED: REMARK SMILES CC(C)C[C@H](N/C(O)=C\NC(=O)c1ccc2ccccc2n1)C(=O)[N-]C1CCCC1
DOCKED: REMARK SMILES IDX 6 1 7 3 8 4 9 6 10 7 11 8 12 10 13 11 22 12 14 13 21 14
DOCKED: REMARK SMILES IDX 15 15 20 16 16 17 19 18 17 19 18 20 5 21 23 22 24 23 25 24
DOCKED: REMARK SMILES IDX 26 25 27 26 30 27 28 28 29 29 4 30 2 31 1 32 3 33
DOCKED: REMARK H PARENT 6 2 8 5 10 9
DOCKED: USER                              x       y       z     vdW  Elec       q    Type
DOCKED: USER                           _______ _______ _______ _____ _____    ______ ____
DOCKED: ROOT
DOCKED: ATOM      1  N   UNL     1     139.246  75.212 222.334 -0.16 +0.07    -0.347 N  
DOCKED: ATOM      2  H   UNL     1     139.406  74.637 223.193 -0.51 -0.03    +0.164 HD 
DOCKED: ENDROOT
DOCKED: BRANCH   1   3
DOCKED: ATOM      3  C   UNL     1     138.380  74.709 221.307 -0.13 -0.05    +0.201 C  
DOCKED: BRANCH   3   4
DOCKED: ATOM      4  O   UNL     1     137.479  75.584 220.698 -0.00 +0.10    -0.494 OA 
DOCKED: ATOM      5  H   UNL     1     137.327  76.525 221.041 +0.06 -0.06    +0.295 HD 
DOCKED: ENDBRANCH   3   4
DOCKED: BRANCH   3   6
DOCKED: ATOM      6  C   UNL     1     138.426  73.423 220.919 -0.10 -0.03    +0.152 C  
DOCKED: BRANCH   6   7
DOCKED: ATOM      7  N   UNL     1     138.575  72.341 221.854 -0.07 +0.08    -0.322 N  
DOCKED: ATOM      8  C   UNL     1     139.720  72.239 222.716 -0.20 -0.05    +0.273 C  
DOCKED: ATOM      9  H   UNL     1     137.795  71.660 221.986 +0.04 -0.04    +0.169 HD 
DOCKED: ATOM     10  O   UNL     1     140.702  73.016 222.554 -0.64 -0.01    -0.267 OA 
DOCKED: BRANCH   8  11
DOCKED: ATOM     11  C   UNL     1     139.748  71.237 223.806 -0.33 -0.03    +0.129 A  
DOCKED: ATOM     12  N   UNL     1     140.302  71.564 225.007 -0.31 +0.04    -0.243 NA 
DOCKED: ATOM     13  C   UNL     1     139.233  69.943 223.616 -0.27 -0.01    +0.035 A  
DOCKED: ATOM     14  C   UNL     1     140.386  70.678 226.034 -0.52 -0.01    +0.071 A  
DOCKED: ATOM     15  C   UNL     1     139.305  69.009 224.653 -0.36 -0.00    +0.013 A  
DOCKED: ATOM     16  C   UNL     1     140.977  71.059 227.245 -0.68 -0.00    +0.029 A  
DOCKED: ATOM     17  C   UNL     1     139.885  69.368 225.876 -0.48 -0.00    +0.000 A  
DOCKED: ATOM     18  C   UNL     1     141.069  70.142 228.297 -0.57 -0.00    +0.002 A  
DOCKED: ATOM     19  C   UNL     1     139.979  68.453 226.936 -0.63 -0.00    +0.010 A  
DOCKED: ATOM     20  C   UNL     1     140.570  68.844 228.143 -0.66 -0.00    +0.001 A  
DOCKED: ENDBRANCH   8  11
DOCKED: ENDBRANCH   6   7
DOCKED: ENDBRANCH   3   6
DOCKED: ENDBRANCH   1   3
DOCKED: BRANCH   1  21
DOCKED: ATOM     21  C   UNL     1     140.009  76.448 222.142 -0.31 -0.03    +0.130 C  
DOCKED: BRANCH  21  22
DOCKED: ATOM     22  C   UNL     1     139.136  77.605 222.541 -0.27 -0.01    +0.074 C  
DOCKED: ATOM     23  O   UNL     1     137.914  77.415 222.785 -0.18 +0.05    -0.318 OA 
DOCKED: BRANCH  22  24
DOCKED: ATOM     24  N   UNL     1     139.689  78.927 222.583 +0.03 +0.14    -0.649 NA 
DOCKED: BRANCH  24  25
DOCKED: ATOM     25  C   UNL     1     140.458  79.451 223.709 -0.41 +0.02    -0.107 C  
DOCKED: ATOM     26  C   UNL     1     140.807  80.908 223.449 -0.48 +0.00    -0.016 C  
DOCKED: ATOM     27  C   UNL     1     141.807  78.748 223.815 -0.59 +0.00    -0.016 C  
DOCKED: ATOM     28  C   UNL     1     142.098  80.884 222.642 -0.58 +0.00    -0.001 C  
DOCKED: ATOM     29  C   UNL     1     142.771  79.545 222.939 -0.57 +0.00    -0.001 C  
DOCKED: ENDBRANCH  24  25
DOCKED: ENDBRANCH  22  24
DOCKED: ENDBRANCH  21  22
DOCKED: BRANCH  21  30
DOCKED: ATOM     30  C   UNL     1     140.468  76.555 220.666 -0.21 -0.01    +0.034 C  
DOCKED: BRANCH  30  31
DOCKED: ATOM     31  C   UNL     1     141.833  77.245 220.405 -0.30 +0.01    -0.015 C  
DOCKED: ATOM     32  C   UNL     1     141.697  78.590 219.678 -0.28 -0.00    +0.007 C  
DOCKED: ATOM     33  C   UNL     1     142.845  76.336 219.694 -0.37 -0.00    +0.007 C  
DOCKED: ENDBRANCH  30  31
DOCKED: ENDBRANCH  21  30
DOCKED: ENDBRANCH   1  21
DOCKED: TORSDOF 11
DOCKED: TER
DOCKED: ENDMDL
________________________________________________________________________________


    FINAL DOCKED STATE:
    ________________________


Run:   2 / 20
Time taken for this run:   0.080s

DOCKED: MODEL        2
DOCKED: USER    Run = 2
DOCKED: USER
DOCKED: USER    Estimated Free Energy of Binding    =  -7.36 kcal/mol  [=(1)+(2)+(3)-(4)]
DOCKED: USER
DOCKED: USER    (1) Final Intermolecular Energy     = -10.64 kcal/mol
DOCKED: USER        vdW + Hbond + desolv Energy     = -10.83 kcal/mol
DOCKED: USER        Electrostatic Energy            =  +0.19 kcal/mol
DOCKED: USER        Moving Ligand-Fixed Receptor    = -10.64 kcal/mol
DOCKED: USER        Moving Ligand-Moving Receptor   =  +0.00 kcal/mol
DOCKED: USER    (2) Final Total Internal Energy     =  -3.08 kcal/mol
DOCKED: USER    (3) Torsional Free Energy           =  +3.28 kcal/mol
DOCKED: USER    (4) Unbound System's Energy         =  -3.08 kcal/mol
DOCKED: USER
DOCKED: USER
DOCKED: REMARK SMILES CC(C)C[C@H](N/C(O)=C\NC(=O)c1ccc2ccccc2n1)C(=O)[N-]C1CCCC1
DOCKED: REMARK SMILES IDX 6 1 7 3 8 4 9 6 10 7 11 8 12 10 13 11 22 12 14 13 21 14
DOCKED: REMARK SMILES IDX 15 15 20 16 16 17 19 18 17 19 18 20 5 21 23 22 24 23 25 24
DOCKED: REMARK SMILES IDX 26 25 27 26 30 27 28 28 29 29 4 30 2 31 1 32 3 33
DOCKED: REMARK H PARENT 6 2 8 5 10 9
DOCKED: USER                              x       y       z     vdW  Elec       q    Type
DOCKED: USER                           _______ _______ _______ _____ _____    ______ ____
DOCKED: ROOT
DOCKED: ATOM      1  N   UNL     1     139.388  75.326 222.295 -0.17 +0.06    -0.347 N  
DOCKED: ATOM      2  H   UNL     1     139.545  74.772 223.168 -0.49 -0.01    +0.164 HD 
DOCKED: ENDROOT
DOCKED: BRANCH   1   3
DOCKED: ATOM      3  C   UNL     1     138.407  74.880 221.349 -0.14 -0.05    +0.201 C  
DOCKED: BRANCH   3   4
DOCKED: ATOM      4  O   UNL     1     137.549  75.820 220.776 -0.00 +0.10    -0.494 OA 
DOCKED: ATOM      5  H   UNL     1     137.518  76.783 221.089 +0.06 -0.06    +0.295 HD 
DOCKED: ENDBRANCH   3   4
DOCKED: BRANCH   3   6
DOCKED: ATOM      6  C   UNL     1     138.306  73.586 221.002 -0.10 -0.03    +0.152 C  
DOCKED: BRANCH   6   7
DOCKED: ATOM      7  N   UNL     1     138.452  72.519 221.955 -0.08 +0.08    -0.322 N  
DOCKED: ATOM      8  C   UNL     1     139.654  72.354 222.726 -0.17 -0.06    +0.273 C  
DOCKED: ATOM      9  H   UNL     1     137.639  71.901 222.170 +0.03 -0.04    +0.169 HD 
DOCKED: ATOM     10  O   UNL     1     140.673  73.052 222.462 -0.67 -0.00    -0.267 OA 
DOCKED: BRANCH   8  11
DOCKED: ATOM     11  C   UNL     1     139.699  71.380 223.840 -0.33 -0.03    +0.129 A  
DOCKED: ATOM     12  N   UNL     1     140.263  71.740 225.026 -0.26 +0.05    -0.243 NA 
DOCKED: ATOM     13  C   UNL     1     139.190  70.078 223.687 -0.28 -0.01    +0.035 A  
DOCKED: ATOM     14  C   UNL     1     140.362  70.881 226.075 -0.53 -0.01    +0.071 A  
DOCKED: ATOM     15  C   UNL     1     139.278  69.172 224.747 -0.37 -0.00    +0.013 A  
DOCKED: ATOM     16  C   UNL     1     140.964  71.296 227.270 -0.71 -0.01    +0.029 A  
DOCKED: ATOM     17  C   UNL     1     139.868  69.564 225.954 -0.48 -0.00    +0.000 A  
DOCKED: ATOM     18  C   UNL     1     141.071  70.406 228.343 -0.56 -0.00    +0.002 A  
DOCKED: ATOM     19  C   UNL     1     139.979  68.677 227.037 -0.61 -0.00    +0.010 A  
DOCKED: ATOM     20  C   UNL     1     140.580  69.101 228.227 -0.64 -0.00    +0.001 A  
DOCKED: ENDBRANCH   8  11
DOCKED: ENDBRANCH   6   7
DOCKED: ENDBRANCH   3   6
DOCKED: ENDBRANCH   1   3
DOCKED: BRANCH   1  21
DOCKED: ATOM     21  C   UNL     1     140.263  76.464 221.999 -0.32 -0.03    +0.130 C  
DOCKED: BRANCH  21  22
DOCKED: ATOM     22  C   UNL     1     139.628  77.703 222.567 -0.29 -0.02    +0.074 C  
DOCKED: ATOM     23  O   UNL     1     138.403  77.930 222.371 -0.14 +0.06    -0.318 OA 
DOCKED: BRANCH  22  24
DOCKED: ATOM     24  N   UNL     1     140.437  78.649 223.278 +0.01 +0.14    -0.649 NA 
DOCKED: BRANCH  24  25
DOCKED: ATOM     25  C   UNL     1     141.795  79.016 222.884 -0.49 +0.04    -0.107 C  
DOCKED: ATOM     26  C   UNL     1     142.307  80.119 223.798 -0.64 +0.00    -0.016 C  
DOCKED: ATOM     27  C   UNL     1     141.804  79.639 221.492 -0.42 +0.01    -0.016 C  
DOCKED: ATOM     28  C   UNL     1     141.827  81.424 223.177 -0.56 +0.00    -0.001 C  
DOCKED: ATOM     29  C   UNL     1     141.586  81.136 221.696 -0.44 +0.00    -0.001 C  
DOCKED: ENDBRANCH  24  25
DOCKED: ENDBRANCH  22  24
DOCKED: ENDBRANCH  21  22
DOCKED: BRANCH  21  30
DOCKED: ATOM     30  C   UNL     1     140.473  76.576 220.468 -0.19 -0.01    +0.034 C  
DOCKED: BRANCH  30  31
DOCKED: ATOM     31  C   UNL     1     141.724  75.871 219.879 -0.24 +0.01    -0.015 C  
DOCKED: ATOM     32  C   UNL     1     142.315  74.812 220.820 -0.27 -0.00    +0.007 C  
DOCKED: ATOM     33  C   UNL     1     142.806  76.851 219.406 -0.35 -0.00    +0.007 C  
DOCKED: ENDBRANCH  30  31
DOCKED: ENDBRANCH  21  30
DOCKED: ENDBRANCH   1  21
DOCKED: TORSDOF 11
DOCKED: TER
DOCKED: ENDMDL
________________________________________________________________________________


    FINAL DOCKED STATE:
    ________________________


Run:   3 / 20
Time taken for this run:   0.080s

DOCKED: MODEL        3
DOCKED: USER    Run = 3
DOCKED: USER
DOCKED: USER    Estimated Free Energy of Binding    =  -6.96 kcal/mol  [=(1)+(2)+(3)-(4)]
DOCKED: USER
DOCKED: USER    (1) Final Intermolecular Energy     = -10.24 kcal/mol
DOCKED: USER        vdW + Hbond + desolv Energy     = -10.18 kcal/mol
DOCKED: USER        Electrostatic Energy            =  -0.06 kcal/mol
DOCKED: USER        Moving Ligand-Fixed Receptor    = -10.24 kcal/mol
DOCKED: USER        Moving Ligand-Moving Receptor   =  +0.00 kcal/mol
DOCKED: USER    (2) Final Total Internal Energy     =  -3.29 kcal/mol
DOCKED: USER    (3) Torsional Free Energy           =  +3.28 kcal/mol
DOCKED: USER    (4) Unbound System's Energy         =  -3.29 kcal/mol
DOCKED: USER
DOCKED: USER
DOCKED: REMARK SMILES CC(C)C[C@H](N/C(O)=C\NC(=O)c1ccc2ccccc2n1)C(=O)[N-]C1CCCC1
DOCKED: REMARK SMILES IDX 6 1 7 3 8 4 9 6 10 7 11 8 12 10 13 11 22 12 14 13 21 14
DOCKED: REMARK SMILES IDX 15 15 20 16 16 17 19 18 17 19 18 20 5 21 23 22 24 23 25 24
DOCKED: REMARK SMILES IDX 26 25 27 26 30 27 28 28 29 29 4 30 2 31 1 32 3 33
DOCKED: REMARK H PARENT 6 2 8 5 10 9
DOCKED: USER                              x       y       z     vdW  Elec       q    Type
DOCKED: USER                           _______ _______ _______ _____ _____    ______ ____
DOCKED: ROOT
DOCKED: ATOM      1  N   UNL     1     141.898  74.318 220.265 -0.09 +0.09    -0.347 N  
DOCKED: ATOM      2  H   UNL     1     142.167  73.333 220.492 +0.06 -0.03    +0.164 HD 
DOCKED: ENDROOT
DOCKED: BRANCH   1   3
DOCKED: ATOM      3  C   UNL     1     140.908  74.975 221.068 -0.22 -0.05    +0.201 C  
DOCKED: BRANCH   3   4
DOCKED: ATOM      4  O   UNL     1     141.212  76.217 221.628 -0.16 +0.20    -0.494 OA 
DOCKED: ATOM      5  H   UNL     1     142.138  76.441 221.972 -0.44 -0.27    +0.295 HD 
DOCKED: ENDBRANCH   3   4
DOCKED: BRANCH   3   6
DOCKED: ATOM      6  C   UNL     1     139.701  74.425 221.282 -0.20 -0.03    +0.152 C  
DOCKED: BRANCH   6   7
DOCKED: ATOM      7  N   UNL     1     139.462  73.476 222.335 -0.13 +0.06    -0.322 N  
DOCKED: ATOM      8  C   UNL     1     140.255  72.284 222.472 -0.21 -0.03    +0.273 C  
DOCKED: ATOM      9  H   UNL     1     138.763  73.692 223.079 -0.54 -0.11    +0.169 HD 
DOCKED: ATOM     10  O   UNL     1     141.076  71.967 221.568 -0.17 +0.03    -0.267 OA 
DOCKED: BRANCH   8  11
DOCKED: ATOM     11  C   UNL     1     140.124  71.435 223.678 -0.33 -0.02    +0.129 A  
DOCKED: ATOM     12  N   UNL     1     140.608  71.880 224.870 -0.27 +0.04    -0.243 NA 
DOCKED: ATOM     13  C   UNL     1     139.528  70.163 223.609 -0.28 -0.01    +0.035 A  
DOCKED: ATOM     14  C   UNL     1     140.546  71.134 226.005 -0.55 -0.01    +0.071 A  
DOCKED: ATOM     15  C   UNL     1     139.450  69.372 224.758 -0.37 -0.00    +0.013 A  
DOCKED: ATOM     16  C   UNL     1     141.072  71.632 227.204 -0.76 -0.01    +0.029 A  
DOCKED: ATOM     17  C   UNL     1     139.961  69.850 225.971 -0.49 -0.00    +0.000 A  
DOCKED: ATOM     18  C   UNL     1     141.014  70.858 228.367 -0.58 -0.00    +0.002 A  
DOCKED: ATOM     19  C   UNL     1     139.906  69.079 227.142 -0.58 -0.00    +0.010 A  
DOCKED: ATOM     20  C   UNL     1     140.431  69.586 228.337 -0.61 -0.00    +0.001 A  
DOCKED: ENDBRANCH   8  11
DOCKED: ENDBRANCH   6   7
DOCKED: ENDBRANCH   3   6
DOCKED: ENDBRANCH   1   3
DOCKED: BRANCH   1  21
DOCKED: ATOM     21  C   UNL     1     142.438  74.952 219.060 -0.17 -0.05    +0.130 C  
DOCKED: BRANCH  21  22
DOCKED: ATOM     22  C   UNL     1     143.274  73.937 218.331 -0.13 -0.02    +0.074 C  
DOCKED: ATOM     23  O   UNL     1     144.039  74.306 217.398 -0.08 +0.10    -0.318 OA 
DOCKED: BRANCH  22  24
DOCKED: ATOM     24  N   UNL     1     143.149  72.548 218.661 +0.09 +0.08    -0.649 NA 
DOCKED: BRANCH  24  25
DOCKED: ATOM     25  C   UNL     1     144.185  71.780 219.348 -0.20 -0.00    -0.107 C  
DOCKED: ATOM     26  C   UNL     1     144.062  71.993 220.849 -0.29 +0.00    -0.016 C  
DOCKED: ATOM     27  C   UNL     1     145.571  72.312 219.000 -0.27 -0.01    -0.016 C  
DOCKED: ATOM     28  C   UNL     1     144.862  73.252 221.153 -0.44 +0.00    -0.001 C  
DOCKED: ATOM     29  C   UNL     1     145.874  73.407 220.019 -0.55 -0.00    -0.001 C  
DOCKED: ENDBRANCH  24  25
DOCKED: ENDBRANCH  22  24
DOCKED: ENDBRANCH  21  22
DOCKED: BRANCH  21  30
DOCKED: ATOM     30  C   UNL     1     143.264  76.202 219.453 -0.38 -0.02    +0.034 C  
DOCKED: BRANCH  30  31
DOCKED: ATOM     31  C   UNL     1     142.945  77.519 218.697 -0.29 +0.01    -0.015 C  
DOCKED: ATOM     32  C   UNL     1     141.825  78.335 219.357 -0.28 -0.00    +0.007 C  
DOCKED: ATOM     33  C   UNL     1     142.665  77.308 217.204 -0.25 -0.00    +0.007 C  
DOCKED: ENDBRANCH  30  31
DOCKED: ENDBRANCH  21  30
DOCKED: ENDBRANCH   1  21
DOCKED: TORSDOF 11
DOCKED: TER
DOCKED: ENDMDL
________________________________________________________________________________


    FINAL DOCKED STATE:
    ________________________


Run:   4 / 20
Time taken for this run:   0.080s

DOCKED: MODEL        4
DOCKED: USER    Run = 4
DOCKED: USER
DOCKED: USER    Estimated Free Energy of Binding    =  -7.75 kcal/mol  [=(1)+(2)+(3)-(4)]
DOCKED: USER
DOCKED: USER    (1) Final Intermolecular Energy     = -11.03 kcal/mol
DOCKED: USER        vdW + Hbond + desolv Energy     = -11.13 kcal/mol
DOCKED: USER        Electrostatic Energy            =  +0.10 kcal/mol
DOCKED: USER        Moving Ligand-Fixed Receptor    = -11.03 kcal/mol
DOCKED: USER        Moving Ligand-Moving Receptor   =  +0.00 kcal/mol
DOCKED: USER    (2) Final Total Internal Energy     =  -2.54 kcal/mol
DOCKED: USER    (3) Torsional Free Energy           =  +3.28 kcal/mol
DOCKED: USER    (4) Unbound System's Energy         =  -2.54 kcal/mol
DOCKED: USER
DOCKED: USER
DOCKED: REMARK SMILES CC(C)C[C@H](N/C(O)=C\NC(=O)c1ccc2ccccc2n1)C(=O)[N-]C1CCCC1
DOCKED: REMARK SMILES IDX 6 1 7 3 8 4 9 6 10 7 11 8 12 10 13 11 22 12 14 13 21 14
DOCKED: REMARK SMILES IDX 15 15 20 16 16 17 19 18 17 19 18 20 5 21 23 22 24 23 25 24
DOCKED: REMARK SMILES IDX 26 25 27 26 30 27 28 28 29 29 4 30 2 31 1 32 3 33
DOCKED: REMARK H PARENT 6 2 8 5 10 9
DOCKED: USER                              x       y       z     vdW  Elec       q    Type
DOCKED: USER                           _______ _______ _______ _____ _____    ______ ____
DOCKED: ROOT
DOCKED: ATOM      1  N   UNL     1     141.071  76.490 221.817 -0.19 +0.14    -0.347 N  
DOCKED: ATOM      2  H   UNL     1     141.929  75.973 222.117 -0.52 -0.10    +0.164 HD 
DOCKED: ENDROOT
DOCKED: BRANCH   1   3
DOCKED: ATOM      3  C   UNL     1     139.795  75.845 221.915 -0.26 -0.04    +0.201 C  
DOCKED: BRANCH   3   4
DOCKED: ATOM      4  O   UNL     1     138.732  76.539 222.495 -0.15 +0.10    -0.494 OA 
DOCKED: ATOM      5  H   UNL     1     138.626  77.541 222.398 +0.11 -0.06    +0.295 HD 
DOCKED: ENDBRANCH   3   4
DOCKED: BRANCH   3   6
DOCKED: ATOM      6  C   UNL     1     139.604  74.597 221.455 -0.22 -0.03    +0.152 C  
DOCKED: BRANCH   6   7
DOCKED: ATOM      7  N   UNL     1     139.374  73.479 222.330 -0.12 +0.07    -0.322 N  
DOCKED: ATOM      8  C   UNL     1     140.392  72.496 222.583 -0.18 -0.02    +0.273 C  
DOCKED: ATOM      9  H   UNL     1     138.485  73.421 222.874 -0.52 -0.10    +0.169 HD 
DOCKED: ATOM     10  O   UNL     1     141.461  72.508 221.911 -0.23 +0.01    -0.267 OA 
DOCKED: BRANCH   8  11
DOCKED: ATOM     11  C   UNL     1     140.201  71.479 223.642 -0.33 -0.02    +0.129 A  
DOCKED: ATOM     12  N   UNL     1     140.680  71.713 224.895 -0.30 +0.03    -0.243 NA 
DOCKED: ATOM     13  C   UNL     1     139.552  70.261 223.370 -0.27 -0.01    +0.035 A  
DOCKED: ATOM     14  C   UNL     1     140.563  70.805 225.900 -0.53 -0.01    +0.071 A  
DOCKED: ATOM     15  C   UNL     1     139.417  69.307 224.382 -0.33 -0.00    +0.013 A  
DOCKED: ATOM     16  C   UNL     1     141.085  71.089 227.168 -0.67 -0.00    +0.029 A  
DOCKED: ATOM     17  C   UNL     1     139.924  69.569 225.661 -0.46 -0.00    +0.000 A  
DOCKED: ATOM     18  C   UNL     1     140.971  70.149 228.197 -0.59 -0.00    +0.002 A  
DOCKED: ATOM     19  C   UNL     1     139.812  68.631 226.698 -0.59 -0.00    +0.010 A  
DOCKED: ATOM     20  C   UNL     1     140.335  68.924 227.963 -0.65 -0.00    +0.001 A  
DOCKED: ENDBRANCH   8  11
DOCKED: ENDBRANCH   6   7
DOCKED: ENDBRANCH   3   6
DOCKED: ENDBRANCH   1   3
DOCKED: BRANCH   1  21
DOCKED: ATOM     21  C   UNL     1     141.208  77.805 221.184 -0.27 -0.06    +0.130 C  
DOCKED: BRANCH  21  22
DOCKED: ATOM     22  C   UNL     1     140.066  78.667 221.643 -0.24 -0.02    +0.074 C  
DOCKED: ATOM     23  O   UNL     1     139.177  79.024 220.822 -0.03 +0.08    -0.318 OA 
DOCKED: BRANCH  22  24
DOCKED: ATOM     24  N   UNL     1     140.028  79.129 222.999 +0.02 +0.13    -0.649 NA 
DOCKED: BRANCH  24  25
DOCKED: ATOM     25  C   UNL     1     140.700  80.340 223.465 -0.43 +0.02    -0.107 C  
DOCKED: ATOM     26  C   UNL     1     140.862  81.307 222.304 -0.40 +0.00    -0.016 C  
DOCKED: ATOM     27  C   UNL     1     142.126  80.030 223.906 -0.59 +0.00    -0.016 C  
DOCKED: ATOM     28  C   UNL     1     142.161  80.910 221.616 -0.41 +0.00    -0.001 C  
DOCKED: ATOM     29  C   UNL     1     142.996  80.169 222.660 -0.59 +0.00    -0.001 C  
DOCKED: ENDBRANCH  24  25
DOCKED: ENDBRANCH  22  24
DOCKED: ENDBRANCH  21  22
DOCKED: BRANCH  21  30
DOCKED: ATOM     30  C   UNL     1     141.224  77.643 219.643 -0.21 -0.02    +0.034 C  
DOCKED: BRANCH  30  31
DOCKED: ATOM     31  C   UNL     1     142.608  77.432 218.974 -0.32 +0.01    -0.015 C  
DOCKED: ATOM     32  C   UNL     1     142.555  77.513 217.443 -0.27 -0.00    +0.007 C  
DOCKED: ATOM     33  C   UNL     1     143.312  76.148 219.433 -0.40 -0.00    +0.007 C  
DOCKED: ENDBRANCH  30  31
DOCKED: ENDBRANCH  21  30
DOCKED: ENDBRANCH   1  21
DOCKED: TORSDOF 11
DOCKED: TER
DOCKED: ENDMDL
________________________________________________________________________________


    FINAL DOCKED STATE:
    ________________________


Run:   5 / 20
Time taken for this run:   0.080s

DOCKED: MODEL        5
DOCKED: USER    Run = 5
DOCKED: USER
DOCKED: USER    Estimated Free Energy of Binding    =  -6.85 kcal/mol  [=(1)+(2)+(3)-(4)]
DOCKED: USER
DOCKED: USER    (1) Final Intermolecular Energy     = -10.13 kcal/mol
DOCKED: USER        vdW + Hbond + desolv Energy     = -10.08 kcal/mol
DOCKED: USER        Electrostatic Energy            =  -0.05 kcal/mol
DOCKED: USER        Moving Ligand-Fixed Receptor    = -10.13 kcal/mol
DOCKED: USER        Moving Ligand-Moving Receptor   =  +0.00 kcal/mol
DOCKED: USER    (2) Final Total Internal Energy     =  -3.40 kcal/mol
DOCKED: USER    (3) Torsional Free Energy           =  +3.28 kcal/mol
DOCKED: USER    (4) Unbound System's Energy         =  -3.40 kcal/mol
DOCKED: USER
DOCKED: USER
DOCKED: REMARK SMILES CC(C)C[C@H](N/C(O)=C\NC(=O)c1ccc2ccccc2n1)C(=O)[N-]C1CCCC1
DOCKED: REMARK SMILES IDX 6 1 7 3 8 4 9 6 10 7 11 8 12 10 13 11 22 12 14 13 21 14
DOCKED: REMARK SMILES IDX 15 15 20 16 16 17 19 18 17 19 18 20 5 21 23 22 24 23 25 24
DOCKED: REMARK SMILES IDX 26 25 27 26 30 27 28 28 29 29 4 30 2 31 1 32 3 33
DOCKED: REMARK H PARENT 6 2 8 5 10 9
DOCKED: USER                              x       y       z     vdW  Elec       q    Type
DOCKED: USER                           _______ _______ _______ _____ _____    ______ ____
DOCKED: ROOT
DOCKED: ATOM      1  N   UNL     1     141.915  74.427 220.225 -0.09 +0.10    -0.347 N  
DOCKED: ATOM      2  H   UNL     1     142.251  73.455 220.413 +0.06 -0.03    +0.164 HD 
DOCKED: ENDROOT
DOCKED: BRANCH   1   3
DOCKED: ATOM      3  C   UNL     1     140.928  75.005 221.090 -0.23 -0.05    +0.201 C  
DOCKED: BRANCH   3   4
DOCKED: ATOM      4  O   UNL     1     141.225  76.201 221.746 -0.16 +0.20    -0.494 OA 
DOCKED: ATOM      5  H   UNL     1     142.173  76.461 221.988 -0.44 -0.28    +0.295 HD 
DOCKED: ENDBRANCH   3   4
DOCKED: BRANCH   3   6
DOCKED: ATOM      6  C   UNL     1     139.730  74.425 221.273 -0.20 -0.03    +0.152 C  
DOCKED: BRANCH   6   7
DOCKED: ATOM      7  N   UNL     1     139.492  73.458 222.310 -0.13 +0.06    -0.322 N  
DOCKED: ATOM      8  C   UNL     1     140.325  72.298 222.468 -0.21 -0.03    +0.273 C  
DOCKED: ATOM      9  H   UNL     1     138.760  73.642 223.032 -0.53 -0.10    +0.169 HD 
DOCKED: ATOM     10  O   UNL     1     141.189  72.019 221.591 -0.18 +0.03    -0.267 OA 
DOCKED: BRANCH   8  11
DOCKED: ATOM     11  C   UNL     1     140.185  71.435 223.662 -0.33 -0.02    +0.129 A  
DOCKED: ATOM     12  N   UNL     1     140.664  71.864 224.863 -0.28 +0.03    -0.243 NA 
DOCKED: ATOM     13  C   UNL     1     139.587  70.165 223.575 -0.28 -0.01    +0.035 A  
DOCKED: ATOM     14  C   UNL     1     140.594  71.105 225.988 -0.56 -0.01    +0.071 A  
DOCKED: ATOM     15  C   UNL     1     139.501  69.360 224.714 -0.36 -0.00    +0.013 A  
DOCKED: ATOM     16  C   UNL     1     141.113  71.587 227.196 -0.74 -0.00    +0.029 A  
DOCKED: ATOM     17  C   UNL     1     140.006  69.822 225.936 -0.49 -0.00    +0.000 A  
DOCKED: ATOM     18  C   UNL     1     141.047  70.800 228.350 -0.60 -0.00    +0.002 A  
DOCKED: ATOM     19  C   UNL     1     139.942  69.038 227.097 -0.59 -0.00    +0.010 A  
DOCKED: ATOM     20  C   UNL     1     140.462  69.529 228.301 -0.62 -0.00    +0.001 A  
DOCKED: ENDBRANCH   8  11
DOCKED: ENDBRANCH   6   7
DOCKED: ENDBRANCH   3   6
DOCKED: ENDBRANCH   1   3
DOCKED: BRANCH   1  21
DOCKED: ATOM     21  C   UNL     1     142.359  75.121 219.014 -0.16 -0.05    +0.130 C  
DOCKED: BRANCH  21  22
DOCKED: ATOM     22  C   UNL     1     143.127  74.144 218.168 -0.12 -0.02    +0.074 C  
DOCKED: ATOM     23  O   UNL     1     143.691  74.534 217.110 -0.07 +0.11    -0.318 OA 
DOCKED: BRANCH  22  24
DOCKED: ATOM     24  N   UNL     1     143.161  72.760 218.541 +0.09 +0.09    -0.649 NA 
DOCKED: BRANCH  24  25
DOCKED: ATOM     25  C   UNL     1     144.366  72.070 218.996 -0.19 -0.01    -0.107 C  
DOCKED: ATOM     26  C   UNL     1     144.252  71.780 220.484 -0.26 +0.00    -0.016 C  
DOCKED: ATOM     27  C   UNL     1     145.585  72.978 218.876 -0.30 -0.01    -0.016 C  
DOCKED: ATOM     28  C   UNL     1     144.761  73.031 221.187 -0.38 +0.00    -0.001 C  
DOCKED: ATOM     29  C   UNL     1     145.672  73.748 220.192 -0.55 +0.00    -0.001 C  
DOCKED: ENDBRANCH  24  25
DOCKED: ENDBRANCH  22  24
DOCKED: ENDBRANCH  21  22
DOCKED: BRANCH  21  30
DOCKED: ATOM     30  C   UNL     1     143.222  76.348 219.401 -0.38 -0.02    +0.034 C  
DOCKED: BRANCH  30  31
DOCKED: ATOM     31  C   UNL     1     142.919  77.680 218.664 -0.26 +0.01    -0.015 C  
DOCKED: ATOM     32  C   UNL     1     141.822  78.508 219.347 -0.28 -0.00    +0.007 C  
DOCKED: ATOM     33  C   UNL     1     142.616  77.491 217.172 -0.26 -0.01    +0.007 C  
DOCKED: ENDBRANCH  30  31
DOCKED: ENDBRANCH  21  30
DOCKED: ENDBRANCH   1  21
DOCKED: TORSDOF 11
DOCKED: TER
DOCKED: ENDMDL
________________________________________________________________________________


    FINAL DOCKED STATE:
    ________________________


Run:   6 / 20
Time taken for this run:   0.080s

DOCKED: MODEL        6
DOCKED: USER    Run = 6
DOCKED: USER
DOCKED: USER    Estimated Free Energy of Binding    =  -7.60 kcal/mol  [=(1)+(2)+(3)-(4)]
DOCKED: USER
DOCKED: USER    (1) Final Intermolecular Energy     = -10.88 kcal/mol
DOCKED: USER        vdW + Hbond + desolv Energy     = -11.03 kcal/mol
DOCKED: USER        Electrostatic Energy            =  +0.15 kcal/mol
DOCKED: USER        Moving Ligand-Fixed Receptor    = -10.88 kcal/mol
DOCKED: USER        Moving Ligand-Moving Receptor   =  +0.00 kcal/mol
DOCKED: USER    (2) Final Total Internal Energy     =  -3.11 kcal/mol
DOCKED: USER    (3) Torsional Free Energy           =  +3.28 kcal/mol
DOCKED: USER    (4) Unbound System's Energy         =  -3.11 kcal/mol
DOCKED: USER
DOCKED: USER
DOCKED: REMARK SMILES CC(C)C[C@H](N/C(O)=C\NC(=O)c1ccc2ccccc2n1)C(=O)[N-]C1CCCC1
DOCKED: REMARK SMILES IDX 6 1 7 3 8 4 9 6 10 7 11 8 12 10 13 11 22 12 14 13 21 14
DOCKED: REMARK SMILES IDX 15 15 20 16 16 17 19 18 17 19 18 20 5 21 23 22 24 23 25 24
DOCKED: REMARK SMILES IDX 26 25 27 26 30 27 28 28 29 29 4 30 2 31 1 32 3 33
DOCKED: REMARK H PARENT 6 2 8 5 10 9
DOCKED: USER                              x       y       z     vdW  Elec       q    Type
DOCKED: USER                           _______ _______ _______ _____ _____    ______ ____
DOCKED: ROOT
DOCKED: ATOM      1  N   UNL     1     139.280  75.261 222.354 -0.16 +0.07    -0.347 N  
DOCKED: ATOM      2  H   UNL     1     139.455  74.672 223.201 -0.50 -0.02    +0.164 HD 
DOCKED: ENDROOT
DOCKED: BRANCH   1   3
DOCKED: ATOM      3  C   UNL     1     138.388  74.780 221.340 -0.14 -0.05    +0.201 C  
DOCKED: BRANCH   3   4
DOCKED: ATOM      4  O   UNL     1     137.515  75.682 220.728 -0.00 +0.10    -0.494 OA 
DOCKED: ATOM      5  H   UNL     1     137.316  76.592 221.125 +0.06 -0.06    +0.295 HD 
DOCKED: ENDBRANCH   3   4
DOCKED: BRANCH   3   6
DOCKED: ATOM      6  C   UNL     1     138.383  73.490 220.967 -0.10 -0.03    +0.152 C  
DOCKED: BRANCH   6   7
DOCKED: ATOM      7  N   UNL     1     138.531  72.414 221.909 -0.08 +0.08    -0.322 N  
DOCKED: ATOM      8  C   UNL     1     139.701  72.288 222.734 -0.19 -0.05    +0.273 C  
DOCKED: ATOM      9  H   UNL     1     137.736  71.758 222.075 +0.03 -0.04    +0.169 HD 
DOCKED: ATOM     10  O   UNL     1     140.699  73.034 222.529 -0.65 -0.00    -0.267 OA 
DOCKED: BRANCH   8  11
DOCKED: ATOM     11  C   UNL     1     139.736  71.298 223.834 -0.33 -0.03    +0.129 A  
DOCKED: ATOM     12  N   UNL     1     140.287  71.641 225.031 -0.29 +0.04    -0.243 NA 
DOCKED: ATOM     13  C   UNL     1     139.232  69.997 223.657 -0.27 -0.01    +0.035 A  
DOCKED: ATOM     14  C   UNL     1     140.377  70.767 226.068 -0.53 -0.01    +0.071 A  
DOCKED: ATOM     15  C   UNL     1     139.311  69.075 224.704 -0.36 -0.00    +0.013 A  
DOCKED: ATOM     16  C   UNL     1     140.965  71.165 227.275 -0.69 -0.00    +0.029 A  
DOCKED: ATOM     17  C   UNL     1     139.887  69.451 225.923 -0.48 -0.00    +0.000 A  
DOCKED: ATOM     18  C   UNL     1     141.063  70.260 228.337 -0.56 -0.00    +0.002 A  
DOCKED: ATOM     19  C   UNL     1     139.988  68.549 226.993 -0.62 -0.00    +0.010 A  
DOCKED: ATOM     20  C   UNL     1     140.576  68.957 228.197 -0.65 -0.00    +0.001 A  
DOCKED: ENDBRANCH   8  11
DOCKED: ENDBRANCH   6   7
DOCKED: ENDBRANCH   3   6
DOCKED: ENDBRANCH   1   3
DOCKED: BRANCH   1  21
DOCKED: ATOM     21  C   UNL     1     140.047  76.495 222.165 -0.31 -0.03    +0.130 C  
DOCKED: BRANCH  21  22
DOCKED: ATOM     22  C   UNL     1     139.176  77.655 222.560 -0.27 -0.01    +0.074 C  
DOCKED: ATOM     23  O   UNL     1     137.954  77.467 222.812 -0.18 +0.05    -0.318 OA 
DOCKED: BRANCH  22  24
DOCKED: ATOM     24  N   UNL     1     139.728  78.977 222.591 +0.03 +0.14    -0.649 NA 
DOCKED: BRANCH  24  25
DOCKED: ATOM     25  C   UNL     1     140.489  79.514 223.717 -0.41 +0.02    -0.107 C  
DOCKED: ATOM     26  C   UNL     1     140.846  80.965 223.440 -0.47 +0.00    -0.016 C  
DOCKED: ATOM     27  C   UNL     1     141.834  78.807 223.844 -0.60 +0.00    -0.016 C  
DOCKED: ATOM     28  C   UNL     1     142.144  80.925 222.645 -0.57 +0.00    -0.001 C  
DOCKED: ATOM     29  C   UNL     1     142.809  79.588 222.966 -0.58 +0.00    -0.001 C  
DOCKED: ENDBRANCH  24  25
DOCKED: ENDBRANCH  22  24
DOCKED: ENDBRANCH  21  22
DOCKED: BRANCH  21  30
DOCKED: ATOM     30  C   UNL     1     140.510  76.601 220.690 -0.22 -0.01    +0.034 C  
DOCKED: BRANCH  30  31
DOCKED: ATOM     31  C   UNL     1     141.861  77.319 220.429 -0.30 +0.01    -0.015 C  
DOCKED: ATOM     32  C   UNL     1     141.698  78.663 219.707 -0.28 -0.00    +0.007 C  
DOCKED: ATOM     33  C   UNL     1     142.890  76.433 219.715 -0.37 -0.00    +0.007 C  
DOCKED: ENDBRANCH  30  31
DOCKED: ENDBRANCH  21  30
DOCKED: ENDBRANCH   1  21
DOCKED: TORSDOF 11
DOCKED: TER
DOCKED: ENDMDL
________________________________________________________________________________


    FINAL DOCKED STATE:
    ________________________


Run:   7 / 20
Time taken for this run:   0.080s

DOCKED: MODEL        7
DOCKED: USER    Run = 7
DOCKED: USER
DOCKED: USER    Estimated Free Energy of Binding    =  -7.45 kcal/mol  [=(1)+(2)+(3)-(4)]
DOCKED: USER
DOCKED: USER    (1) Final Intermolecular Energy     = -10.73 kcal/mol
DOCKED: USER        vdW + Hbond + desolv Energy     = -10.85 kcal/mol
DOCKED: USER        Electrostatic Energy            =  +0.13 kcal/mol
DOCKED: USER        Moving Ligand-Fixed Receptor    = -10.73 kcal/mol
DOCKED: USER        Moving Ligand-Moving Receptor   =  +0.00 kcal/mol
DOCKED: USER    (2) Final Total Internal Energy     =  -2.97 kcal/mol
DOCKED: USER    (3) Torsional Free Energy           =  +3.28 kcal/mol
DOCKED: USER    (4) Unbound System's Energy         =  -2.97 kcal/mol
DOCKED: USER
DOCKED: USER
DOCKED: REMARK SMILES CC(C)C[C@H](N/C(O)=C\NC(=O)c1ccc2ccccc2n1)C(=O)[N-]C1CCCC1
DOCKED: REMARK SMILES IDX 6 1 7 3 8 4 9 6 10 7 11 8 12 10 13 11 22 12 14 13 21 14
DOCKED: REMARK SMILES IDX 15 15 20 16 16 17 19 18 17 19 18 20 5 21 23 22 24 23 25 24
DOCKED: REMARK SMILES IDX 26 25 27 26 30 27 28 28 29 29 4 30 2 31 1 32 3 33
DOCKED: REMARK H PARENT 6 2 8 5 10 9
DOCKED: USER                              x       y       z     vdW  Elec       q    Type
DOCKED: USER                           _______ _______ _______ _____ _____    ______ ____
DOCKED: ROOT
DOCKED: ATOM      1  N   UNL     1     140.667  75.332 221.159 -0.14 +0.09    -0.347 N  
DOCKED: ATOM      2  H   UNL     1     139.821  74.902 221.601 +0.04 -0.03    +0.164 HD 
DOCKED: ENDROOT
DOCKED: BRANCH   1   3
DOCKED: ATOM      3  C   UNL     1     141.741  74.484 220.733 -0.21 -0.05    +0.201 C  
DOCKED: BRANCH   3   4
DOCKED: ATOM      4  O   UNL     1     142.978  75.060 220.438 -0.13 +0.23    -0.494 OA 
DOCKED: ATOM      5  H   UNL     1     143.292  75.916 220.879 -0.20 -0.27    +0.295 HD 
DOCKED: ENDBRANCH   3   4
DOCKED: BRANCH   3   6
DOCKED: ATOM      6  C   UNL     1     141.583  73.154 220.623 -0.18 -0.02    +0.152 C  
DOCKED: BRANCH   6   7
DOCKED: ATOM      7  N   UNL     1     141.468  72.294 221.770 -0.11 +0.02    -0.322 N  
DOCKED: ATOM      8  C   UNL     1     140.396  72.437 222.717 -0.18 -0.02    +0.273 C  
DOCKED: ATOM      9  H   UNL     1     142.115  71.482 221.875 +0.07 -0.01    +0.169 HD 
DOCKED: ATOM     10  O   UNL     1     139.622  73.432 222.647 -0.67 +0.05    -0.267 OA 
DOCKED: BRANCH   8  11
DOCKED: ATOM     11  C   UNL     1     140.186  71.414 223.766 -0.34 -0.02    +0.129 A  
DOCKED: ATOM     12  N   UNL     1     140.648  71.638 225.028 -0.32 +0.03    -0.243 NA 
DOCKED: ATOM     13  C   UNL     1     139.535  70.201 223.478 -0.27 -0.01    +0.035 A  
DOCKED: ATOM     14  C   UNL     1     140.513  70.724 226.025 -0.53 -0.01    +0.071 A  
DOCKED: ATOM     15  C   UNL     1     139.382  69.241 224.482 -0.34 -0.00    +0.013 A  
DOCKED: ATOM     16  C   UNL     1     141.019  70.998 227.302 -0.67 -0.00    +0.029 A  
DOCKED: ATOM     17  C   UNL     1     139.872  69.493 225.769 -0.47 -0.00    +0.000 A  
DOCKED: ATOM     18  C   UNL     1     140.886  70.052 228.324 -0.57 -0.00    +0.002 A  
DOCKED: ATOM     19  C   UNL     1     139.742  68.549 226.799 -0.59 -0.00    +0.010 A  
DOCKED: ATOM     20  C   UNL     1     140.248  68.832 228.073 -0.65 -0.00    +0.001 A  
DOCKED: ENDBRANCH   8  11
DOCKED: ENDBRANCH   6   7
DOCKED: ENDBRANCH   3   6
DOCKED: ENDBRANCH   1   3
DOCKED: BRANCH   1  21
DOCKED: ATOM     21  C   UNL     1     140.788  76.792 221.107 -0.25 -0.05    +0.130 C  
DOCKED: BRANCH  21  22
DOCKED: ATOM     22  C   UNL     1     139.843  77.377 222.119 -0.32 -0.02    +0.074 C  
DOCKED: ATOM     23  O   UNL     1     139.005  76.635 222.700 -0.24 +0.06    -0.318 OA 
DOCKED: BRANCH  22  24
DOCKED: ATOM     24  N   UNL     1     139.861  78.788 222.371 +0.04 +0.15    -0.649 NA 
DOCKED: BRANCH  24  25
DOCKED: ATOM     25  C   UNL     1     140.405  79.389 223.587 -0.42 +0.02    -0.107 C  
DOCKED: ATOM     26  C   UNL     1     140.514  80.894 223.403 -0.45 +0.00    -0.016 C  
DOCKED: ATOM     27  C   UNL     1     141.840  78.928 223.821 -0.61 +0.00    -0.016 C  
DOCKED: ATOM     28  C   UNL     1     141.864  81.131 222.740 -0.56 +0.00    -0.001 C  
DOCKED: ATOM     29  C   UNL     1     142.731  79.918 223.076 -0.65 +0.00    -0.001 C  
DOCKED: ENDBRANCH  24  25
DOCKED: ENDBRANCH  22  24
DOCKED: ENDBRANCH  21  22
DOCKED: BRANCH  21  30
DOCKED: ATOM     30  C   UNL     1     140.478  77.291 219.674 -0.13 -0.01    +0.034 C  
DOCKED: BRANCH  30  31
DOCKED: ATOM     31  C   UNL     1     141.538  78.208 219.006 -0.23 +0.01    -0.015 C  
DOCKED: ATOM     32  C   UNL     1     142.845  77.475 218.677 -0.31 -0.01    +0.007 C  
DOCKED: ATOM     33  C   UNL     1     141.812  79.492 219.799 -0.29 -0.00    +0.007 C  
DOCKED: ENDBRANCH  30  31
DOCKED: ENDBRANCH  21  30
DOCKED: ENDBRANCH   1  21
DOCKED: TORSDOF 11
DOCKED: TER
DOCKED: ENDMDL
________________________________________________________________________________


    FINAL DOCKED STATE:
    ________________________


Run:   8 / 20
Time taken for this run:   0.080s

DOCKED: MODEL        8
DOCKED: USER    Run = 8
DOCKED: USER
DOCKED: USER    Estimated Free Energy of Binding    =  -7.54 kcal/mol  [=(1)+(2)+(3)-(4)]
DOCKED: USER
DOCKED: USER    (1) Final Intermolecular Energy     = -10.82 kcal/mol
DOCKED: USER        vdW + Hbond + desolv Energy     = -10.94 kcal/mol
DOCKED: USER        Electrostatic Energy            =  +0.12 kcal/mol
DOCKED: USER        Moving Ligand-Fixed Receptor    = -10.82 kcal/mol
DOCKED: USER        Moving Ligand-Moving Receptor   =  +0.00 kcal/mol
DOCKED: USER    (2) Final Total Internal Energy     =  -3.05 kcal/mol
DOCKED: USER    (3) Torsional Free Energy           =  +3.28 kcal/mol
DOCKED: USER    (4) Unbound System's Energy         =  -3.05 kcal/mol
DOCKED: USER
DOCKED: USER
DOCKED: REMARK SMILES CC(C)C[C@H](N/C(O)=C\NC(=O)c1ccc2ccccc2n1)C(=O)[N-]C1CCCC1
DOCKED: REMARK SMILES IDX 6 1 7 3 8 4 9 6 10 7 11 8 12 10 13 11 22 12 14 13 21 14
DOCKED: REMARK SMILES IDX 15 15 20 16 16 17 19 18 17 19 18 20 5 21 23 22 24 23 25 24
DOCKED: REMARK SMILES IDX 26 25 27 26 30 27 28 28 29 29 4 30 2 31 1 32 3 33
DOCKED: REMARK H PARENT 6 2 8 5 10 9
DOCKED: USER                              x       y       z     vdW  Elec       q    Type
DOCKED: USER                           _______ _______ _______ _____ _____    ______ ____
DOCKED: ROOT
DOCKED: ATOM      1  N   UNL     1     140.669  75.406 221.202 -0.15 +0.09    -0.347 N  
DOCKED: ATOM      2  H   UNL     1     139.775  74.962 221.513 +0.04 -0.03    +0.164 HD 
DOCKED: ENDROOT
DOCKED: BRANCH   1   3
DOCKED: ATOM      3  C   UNL     1     141.750  74.572 220.766 -0.21 -0.05    +0.201 C  
DOCKED: BRANCH   3   4
DOCKED: ATOM      4  O   UNL     1     142.972  75.165 220.445 -0.13 +0.25    -0.494 OA 
DOCKED: ATOM      5  H   UNL     1     143.270  76.041 220.857 -0.21 -0.28    +0.295 HD 
DOCKED: ENDBRANCH   3   4
DOCKED: BRANCH   3   6
DOCKED: ATOM      6  C   UNL     1     141.612  73.238 220.671 -0.19 -0.02    +0.152 C  
DOCKED: BRANCH   6   7
DOCKED: ATOM      7  N   UNL     1     141.492  72.391 221.827 -0.09 +0.02    -0.322 N  
DOCKED: ATOM      8  C   UNL     1     140.368  72.486 222.719 -0.17 -0.02    +0.273 C  
DOCKED: ATOM      9  H   UNL     1     142.180  71.622 221.980 +0.07 -0.01    +0.169 HD 
DOCKED: ATOM     10  O   UNL     1     139.541  73.431 222.593 -0.64 +0.05    -0.267 OA 
DOCKED: BRANCH   8  11
DOCKED: ATOM     11  C   UNL     1     140.167  71.469 223.776 -0.34 -0.02    +0.129 A  
DOCKED: ATOM     12  N   UNL     1     140.659  71.692 225.027 -0.31 +0.03    -0.243 NA 
DOCKED: ATOM     13  C   UNL     1     139.496  70.263 223.506 -0.28 -0.01    +0.035 A  
DOCKED: ATOM     14  C   UNL     1     140.533  70.784 226.031 -0.54 -0.01    +0.071 A  
DOCKED: ATOM     15  C   UNL     1     139.352  69.309 224.517 -0.34 -0.00    +0.013 A  
DOCKED: ATOM     16  C   UNL     1     141.068  71.056 227.296 -0.68 -0.00    +0.029 A  
DOCKED: ATOM     17  C   UNL     1     139.872  69.560 225.793 -0.47 -0.00    +0.000 A  
DOCKED: ATOM     18  C   UNL     1     140.945  70.115 228.324 -0.57 -0.00    +0.002 A  
DOCKED: ATOM     19  C   UNL     1     139.751  68.621 226.829 -0.59 -0.00    +0.010 A  
DOCKED: ATOM     20  C   UNL     1     140.287  68.902 228.091 -0.65 -0.00    +0.001 A  
DOCKED: ENDBRANCH   8  11
DOCKED: ENDBRANCH   6   7
DOCKED: ENDBRANCH   3   6
DOCKED: ENDBRANCH   1   3
DOCKED: BRANCH   1  21
DOCKED: ATOM     21  C   UNL     1     140.840  76.855 221.341 -0.28 -0.05    +0.130 C  
DOCKED: BRANCH  21  22
DOCKED: ATOM     22  C   UNL     1     139.773  77.365 222.269 -0.33 -0.02    +0.074 C  
DOCKED: ATOM     23  O   UNL     1     138.913  76.570 222.738 -0.24 +0.06    -0.318 OA 
DOCKED: BRANCH  22  24
DOCKED: ATOM     24  N   UNL     1     139.704  78.766 222.567 +0.03 +0.14    -0.649 NA 
DOCKED: BRANCH  24  25
DOCKED: ATOM     25  C   UNL     1     140.398  79.393 223.690 -0.41 +0.02    -0.107 C  
DOCKED: ATOM     26  C   UNL     1     140.586  80.874 223.405 -0.46 +0.00    -0.016 C  
DOCKED: ATOM     27  C   UNL     1     141.815  78.846 223.822 -0.60 +0.00    -0.016 C  
DOCKED: ATOM     28  C   UNL     1     141.881  80.979 222.610 -0.55 +0.00    -0.001 C  
DOCKED: ATOM     29  C   UNL     1     142.695  79.729 222.940 -0.63 +0.00    -0.001 C  
DOCKED: ENDBRANCH  24  25
DOCKED: ENDBRANCH  22  24
DOCKED: ENDBRANCH  21  22
DOCKED: BRANCH  21  30
DOCKED: ATOM     30  C   UNL     1     140.760  77.527 219.948 -0.18 -0.01    +0.034 C  
DOCKED: BRANCH  30  31
DOCKED: ATOM     31  C   UNL     1     142.027  78.279 219.459 -0.25 +0.01    -0.015 C  
DOCKED: ATOM     32  C   UNL     1     141.799  79.785 219.276 -0.30 -0.00    +0.007 C  
DOCKED: ATOM     33  C   UNL     1     142.651  77.660 218.201 -0.32 -0.01    +0.007 C  
DOCKED: ENDBRANCH  30  31
DOCKED: ENDBRANCH  21  30
DOCKED: ENDBRANCH   1  21
DOCKED: TORSDOF 11
DOCKED: TER
DOCKED: ENDMDL
________________________________________________________________________________


    FINAL DOCKED STATE:
    ________________________


Run:   9 / 20
Time taken for this run:   0.080s

DOCKED: MODEL        9
DOCKED: USER    Run = 9
DOCKED: USER
DOCKED: USER    Estimated Free Energy of Binding    =  -6.57 kcal/mol  [=(1)+(2)+(3)-(4)]
DOCKED: USER
DOCKED: USER    (1) Final Intermolecular Energy     =  -9.86 kcal/mol
DOCKED: USER        vdW + Hbond + desolv Energy     = -10.13 kcal/mol
DOCKED: USER        Electrostatic Energy            =  +0.28 kcal/mol
DOCKED: USER        Moving Ligand-Fixed Receptor    =  -9.86 kcal/mol
DOCKED: USER        Moving Ligand-Moving Receptor   =  +0.00 kcal/mol
DOCKED: USER    (2) Final Total Internal Energy     =  -3.12 kcal/mol
DOCKED: USER    (3) Torsional Free Energy           =  +3.28 kcal/mol
DOCKED: USER    (4) Unbound System's Energy         =  -3.12 kcal/mol
DOCKED: USER
DOCKED: USER
DOCKED: REMARK SMILES CC(C)C[C@H](N/C(O)=C\NC(=O)c1ccc2ccccc2n1)C(=O)[N-]C1CCCC1
DOCKED: REMARK SMILES IDX 6 1 7 3 8 4 9 6 10 7 11 8 12 10 13 11 22 12 14 13 21 14
DOCKED: REMARK SMILES IDX 15 15 20 16 16 17 19 18 17 19 18 20 5 21 23 22 24 23 25 24
DOCKED: REMARK SMILES IDX 26 25 27 26 30 27 28 28 29 29 4 30 2 31 1 32 3 33
DOCKED: REMARK H PARENT 6 2 8 5 10 9
DOCKED: USER                              x       y       z     vdW  Elec       q    Type
DOCKED: USER                           _______ _______ _______ _____ _____    ______ ____
DOCKED: ROOT
DOCKED: ATOM      1  N   UNL     1     138.616  75.598 221.394 -0.09 +0.08    -0.347 N  
DOCKED: ATOM      2  H   UNL     1     137.797  76.238 221.513 +0.04 -0.04    +0.164 HD 
DOCKED: ENDROOT
DOCKED: BRANCH   1   3
DOCKED: ATOM      3  C   UNL     1     138.394  74.257 220.937 -0.10 -0.04    +0.201 C  
DOCKED: BRANCH   3   4
DOCKED: ATOM      4  O   UNL     1     139.063  73.816 219.794 +0.01 +0.10    -0.494 OA 
DOCKED: ATOM      5  H   UNL     1     139.598  72.956 219.781 +0.05 -0.06    +0.295 HD 
DOCKED: ENDBRANCH   3   4
DOCKED: BRANCH   3   6
DOCKED: ATOM      6  C   UNL     1     137.568  73.422 221.589 -0.11 -0.04    +0.152 C  
DOCKED: BRANCH   6   7
DOCKED: ATOM      7  N   UNL     1     138.003  72.618 222.699 +0.02 +0.12    -0.322 N  
DOCKED: ATOM      8  C   UNL     1     139.225  71.863 222.652 -0.18 -0.06    +0.273 C  
DOCKED: ATOM      9  H   UNL     1     137.478  72.652 223.601 -0.50 -0.10    +0.169 HD 
DOCKED: ATOM     10  O   UNL     1     139.862  71.762 221.566 -0.12 +0.04    -0.267 OA 
DOCKED: BRANCH   8  11
DOCKED: ATOM     11  C   UNL     1     139.750  71.214 223.875 -0.33 -0.03    +0.129 A  
DOCKED: ATOM     12  N   UNL     1     139.324  69.965 224.211 -0.17 +0.04    -0.243 NA 
DOCKED: ATOM     13  C   UNL     1     140.666  71.876 224.712 -0.35 -0.00    +0.035 A  
DOCKED: ATOM     14  C   UNL     1     139.745  69.331 225.337 -0.38 -0.01    +0.071 A  
DOCKED: ATOM     15  C   UNL     1     141.117  71.251 225.877 -0.62 -0.00    +0.013 A  
DOCKED: ATOM     16  C   UNL     1     139.266  68.051 225.644 -0.50 -0.00    +0.029 A  
DOCKED: ATOM     17  C   UNL     1     140.659  69.968 226.203 -0.54 -0.00    +0.000 A  
DOCKED: ATOM     18  C   UNL     1     139.696  67.405 226.808 -0.61 -0.00    +0.002 A  
DOCKED: ATOM     19  C   UNL     1     141.086  69.314 227.369 -0.57 -0.00    +0.010 A  
DOCKED: ATOM     20  C   UNL     1     140.603  68.034 227.667 -0.64 -0.00    +0.001 A  
DOCKED: ENDBRANCH   8  11
DOCKED: ENDBRANCH   6   7
DOCKED: ENDBRANCH   3   6
DOCKED: ENDBRANCH   1   3
DOCKED: BRANCH   1  21
DOCKED: ATOM     21  C   UNL     1     139.945  76.043 221.820 -0.30 -0.03    +0.130 C  
DOCKED: BRANCH  21  22
DOCKED: ATOM     22  C   UNL     1     139.809  77.408 222.433 -0.31 -0.02    +0.074 C  
DOCKED: ATOM     23  O   UNL     1     138.673  77.951 222.515 -0.16 +0.06    -0.318 OA 
DOCKED: BRANCH  22  24
DOCKED: ATOM     24  N   UNL     1     140.981  78.109 222.868 -0.02 +0.22    -0.649 NA 
DOCKED: BRANCH  24  25
DOCKED: ATOM     25  C   UNL     1     141.631  79.164 222.093 -0.41 +0.05    -0.107 C  
DOCKED: ATOM     26  C   UNL     1     142.947  79.540 222.755 -0.52 +0.01    -0.016 C  
DOCKED: ATOM     27  C   UNL     1     140.806  80.446 222.128 -0.38 +0.00    -0.016 C  
DOCKED: ATOM     28  C   UNL     1     142.597  80.591 223.800 -0.69 +0.00    -0.001 C  
DOCKED: ATOM     29  C   UNL     1     141.277  81.221 223.356 -0.52 +0.00    -0.001 C  
DOCKED: ENDBRANCH  24  25
DOCKED: ENDBRANCH  22  24
DOCKED: ENDBRANCH  21  22
DOCKED: BRANCH  21  30
DOCKED: ATOM     30  C   UNL     1     140.907  76.051 220.605 -0.25 -0.01    +0.034 C  
DOCKED: BRANCH  30  31
DOCKED: ATOM     31  C   UNL     1     142.220  75.236 220.746 -0.23 +0.01    -0.015 C  
DOCKED: ATOM     32  C   UNL     1     143.268  75.597 219.684 -0.39 -0.00    +0.007 C  
DOCKED: ATOM     33  C   UNL     1     141.990  73.720 220.798 -0.27 -0.00    +0.007 C  
DOCKED: ENDBRANCH  30  31
DOCKED: ENDBRANCH  21  30
DOCKED: ENDBRANCH   1  21
DOCKED: TORSDOF 11
DOCKED: TER
DOCKED: ENDMDL
________________________________________________________________________________


    FINAL DOCKED STATE:
    ________________________


Run:   10 / 20
Time taken for this run:   0.080s

DOCKED: MODEL        10
DOCKED: USER    Run = 10
DOCKED: USER
DOCKED: USER    Estimated Free Energy of Binding    =  -6.52 kcal/mol  [=(1)+(2)+(3)-(4)]
DOCKED: USER
DOCKED: USER    (1) Final Intermolecular Energy     =  -9.81 kcal/mol
DOCKED: USER        vdW + Hbond + desolv Energy     =  -9.95 kcal/mol
DOCKED: USER        Electrostatic Energy            =  +0.14 kcal/mol
DOCKED: USER        Moving Ligand-Fixed Receptor    =  -9.81 kcal/mol
DOCKED: USER        Moving Ligand-Moving Receptor   =  +0.00 kcal/mol
DOCKED: USER    (2) Final Total Internal Energy     =  -2.86 kcal/mol
DOCKED: USER    (3) Torsional Free Energy           =  +3.28 kcal/mol
DOCKED: USER    (4) Unbound System's Energy         =  -2.86 kcal/mol
DOCKED: USER
DOCKED: USER
DOCKED: REMARK SMILES CC(C)C[C@H](N/C(O)=C\NC(=O)c1ccc2ccccc2n1)C(=O)[N-]C1CCCC1
DOCKED: REMARK SMILES IDX 6 1 7 3 8 4 9 6 10 7 11 8 12 10 13 11 22 12 14 13 21 14
DOCKED: REMARK SMILES IDX 15 15 20 16 16 17 19 18 17 19 18 20 5 21 23 22 24 23 25 24
DOCKED: REMARK SMILES IDX 26 25 27 26 30 27 28 28 29 29 4 30 2 31 1 32 3 33
DOCKED: REMARK H PARENT 6 2 8 5 10 9
DOCKED: USER                              x       y       z     vdW  Elec       q    Type
DOCKED: USER                           _______ _______ _______ _____ _____    ______ ____
DOCKED: ROOT
DOCKED: ATOM      1  N   UNL     1     139.193  72.091 223.259 -0.02 +0.11    -0.347 N  
DOCKED: ATOM      2  H   UNL     1     139.933  72.739 223.613 -0.21 -0.03    +0.164 HD 
DOCKED: ENDROOT
DOCKED: BRANCH   1   3
DOCKED: ATOM      3  C   UNL     1     138.723  72.236 221.912 -0.14 -0.05    +0.201 C  
DOCKED: BRANCH   3   4
DOCKED: ATOM      4  O   UNL     1     138.958  71.204 221.002 -0.00 +0.09    -0.494 OA 
DOCKED: ATOM      5  H   UNL     1     139.201  70.267 221.301 +0.07 -0.05    +0.295 HD 
DOCKED: ENDBRANCH   3   4
DOCKED: BRANCH   3   6
DOCKED: ATOM      6  C   UNL     1     138.059  73.335 221.516 -0.12 -0.04    +0.152 C  
DOCKED: BRANCH   6   7
DOCKED: ATOM      7  N   UNL     1     138.632  74.652 221.594 -0.11 +0.08    -0.322 N  
DOCKED: ATOM      8  C   UNL     1     140.047  74.852 221.747 -0.18 -0.04    +0.273 C  
DOCKED: ATOM      9  H   UNL     1     138.028  75.489 221.441 +0.04 -0.04    +0.169 HD 
DOCKED: ATOM     10  O   UNL     1     140.802  73.867 221.980 -0.74 +0.01    -0.267 OA 
DOCKED: BRANCH   8  11
DOCKED: ATOM     11  C   UNL     1     140.627  76.208 221.617 -0.30 -0.04    +0.129 A  
DOCKED: ATOM     12  N   UNL     1     140.797  76.977 222.728 -0.26 +0.08    -0.243 NA 
DOCKED: ATOM     13  C   UNL     1     140.986  76.727 220.360 -0.22 -0.01    +0.035 A  
DOCKED: ATOM     14  C   UNL     1     141.295  78.241 222.670 -0.44 -0.03    +0.071 A  
DOCKED: ATOM     15  C   UNL     1     141.500  78.023 220.267 -0.28 -0.01    +0.013 A  
DOCKED: ATOM     16  C   UNL     1     141.438  78.995 223.841 -0.59 -0.01    +0.029 A  
DOCKED: ATOM     17  C   UNL     1     141.659  78.796 221.424 -0.39 -0.00    +0.000 A  
DOCKED: ATOM     18  C   UNL     1     141.942  80.298 223.775 -0.62 -0.00    +0.002 A  
DOCKED: ATOM     19  C   UNL     1     142.166  80.103 221.367 -0.40 -0.00    +0.010 A  
DOCKED: ATOM     20  C   UNL     1     142.306  80.850 222.542 -0.56 -0.00    +0.001 A  
DOCKED: ENDBRANCH   8  11
DOCKED: ENDBRANCH   6   7
DOCKED: ENDBRANCH   3   6
DOCKED: ENDBRANCH   1   3
DOCKED: BRANCH   1  21
DOCKED: ATOM     21  C   UNL     1     138.564  71.143 224.182 -0.23 -0.03    +0.130 C  
DOCKED: BRANCH  21  22
DOCKED: ATOM     22  C   UNL     1     139.313  69.843 224.102 -0.29 -0.01    +0.074 C  
DOCKED: ATOM     23  O   UNL     1     139.583  69.340 222.977 -0.10 +0.06    -0.318 OA 
DOCKED: BRANCH  22  24
DOCKED: ATOM     24  N   UNL     1     139.664  69.153 225.308 +0.04 +0.10    -0.649 NA 
DOCKED: BRANCH  24  25
DOCKED: ATOM     25  C   UNL     1     140.925  69.350 226.020 -0.44 +0.02    -0.107 C  
DOCKED: ATOM     26  C   UNL     1     140.685  69.236 227.517 -0.63 +0.00    -0.016 C  
DOCKED: ATOM     27  C   UNL     1     141.440  70.771 225.822 -0.57 +0.00    -0.016 C  
DOCKED: ATOM     28  C   UNL     1     140.266  70.628 227.973 -0.69 +0.00    -0.001 C  
DOCKED: ATOM     29  C   UNL     1     140.817  71.607 226.937 -0.75 +0.00    -0.001 C  
DOCKED: ENDBRANCH  24  25
DOCKED: ENDBRANCH  22  24
DOCKED: ENDBRANCH  21  22
DOCKED: BRANCH  21  30
DOCKED: ATOM     30  C   UNL     1     137.069  70.969 223.813 -0.21 -0.01    +0.034 C  
DOCKED: BRANCH  30  31
DOCKED: ATOM     31  C   UNL     1     136.415  69.606 224.163 -0.22 +0.00    -0.015 C  
DOCKED: ATOM     32  C   UNL     1     135.937  68.834 222.926 -0.14 -0.00    +0.007 C  
DOCKED: ATOM     33  C   UNL     1     135.295  69.721 225.206 -0.25 -0.00    +0.007 C  
DOCKED: ENDBRANCH  30  31
DOCKED: ENDBRANCH  21  30
DOCKED: ENDBRANCH   1  21
DOCKED: TORSDOF 11
DOCKED: TER
DOCKED: ENDMDL
________________________________________________________________________________


    FINAL DOCKED STATE:
    ________________________


Run:   11 / 20
Time taken for this run:   0.080s

DOCKED: MODEL        11
DOCKED: USER    Run = 11
DOCKED: USER
DOCKED: USER    Estimated Free Energy of Binding    =  -6.25 kcal/mol  [=(1)+(2)+(3)-(4)]
DOCKED: USER
DOCKED: USER    (1) Final Intermolecular Energy     =  -9.53 kcal/mol
DOCKED: USER        vdW + Hbond + desolv Energy     =  -9.71 kcal/mol
DOCKED: USER        Electrostatic Energy            =  +0.18 kcal/mol
DOCKED: USER        Moving Ligand-Fixed Receptor    =  -9.53 kcal/mol
DOCKED: USER        Moving Ligand-Moving Receptor   =  +0.00 kcal/mol
DOCKED: USER    (2) Final Total Internal Energy     =  -3.67 kcal/mol
DOCKED: USER    (3) Torsional Free Energy           =  +3.28 kcal/mol
DOCKED: USER    (4) Unbound System's Energy         =  -3.67 kcal/mol
DOCKED: USER
DOCKED: USER
DOCKED: REMARK SMILES CC(C)C[C@H](N/C(O)=C\NC(=O)c1ccc2ccccc2n1)C(=O)[N-]C1CCCC1
DOCKED: REMARK SMILES IDX 6 1 7 3 8 4 9 6 10 7 11 8 12 10 13 11 22 12 14 13 21 14
DOCKED: REMARK SMILES IDX 15 15 20 16 16 17 19 18 17 19 18 20 5 21 23 22 24 23 25 24
DOCKED: REMARK SMILES IDX 26 25 27 26 30 27 28 28 29 29 4 30 2 31 1 32 3 33
DOCKED: REMARK H PARENT 6 2 8 5 10 9
DOCKED: USER                              x       y       z     vdW  Elec       q    Type
DOCKED: USER                           _______ _______ _______ _____ _____    ______ ____
DOCKED: ROOT
DOCKED: ATOM      1  N   UNL     1     140.169  72.349 223.037 -0.18 +0.04    -0.347 N  
DOCKED: ATOM      2  H   UNL     1     139.673  73.197 223.398 -0.38 -0.04    +0.164 HD 
DOCKED: ENDROOT
DOCKED: BRANCH   1   3
DOCKED: ATOM      3  C   UNL     1     140.667  72.349 221.693 -0.20 -0.02    +0.201 C  
DOCKED: BRANCH   3   4
DOCKED: ATOM      4  O   UNL     1     140.164  71.413 220.788 -0.02 +0.08    -0.494 OA 
DOCKED: ATOM      5  H   UNL     1     139.336  70.864 220.986 +0.06 -0.05    +0.295 HD 
DOCKED: ENDBRANCH   3   4
DOCKED: BRANCH   3   6
DOCKED: ATOM      6  C   UNL     1     141.597  73.232 221.290 -0.17 -0.02    +0.152 C  
DOCKED: BRANCH   6   7
DOCKED: ATOM      7  N   UNL     1     141.480  74.643 221.541 -0.14 +0.06    -0.322 N  
DOCKED: ATOM      8  C   UNL     1     140.221  75.248 221.882 -0.18 -0.04    +0.273 C  
DOCKED: ATOM      9  H   UNL     1     142.338  75.237 221.574 -0.37 -0.08    +0.169 HD 
DOCKED: ATOM     10  O   UNL     1     139.157  74.572 221.808 -0.34 +0.06    -0.267 OA 
DOCKED: BRANCH   8  11
DOCKED: ATOM     11  C   UNL     1     140.168  76.656 222.336 -0.33 -0.03    +0.129 A  
DOCKED: ATOM     12  N   UNL     1     141.324  77.361 222.482 -0.18 +0.12    -0.243 NA 
DOCKED: ATOM     13  C   UNL     1     138.943  77.274 222.644 -0.28 -0.01    +0.035 A  
DOCKED: ATOM     14  C   UNL     1     141.343  78.646 222.924 -0.49 -0.03    +0.071 A  
DOCKED: ATOM     15  C   UNL     1     138.929  78.594 223.102 -0.31 -0.00    +0.013 A  
DOCKED: ATOM     16  C   UNL     1     142.560  79.323 223.070 -0.57 -0.01    +0.029 A  
DOCKED: ATOM     17  C   UNL     1     140.132  79.295 223.249 -0.44 -0.00    +0.000 A  
DOCKED: ATOM     18  C   UNL     1     142.575  80.642 223.533 -0.67 -0.00    +0.002 A  
DOCKED: ATOM     19  C   UNL     1     140.155  80.619 223.713 -0.41 -0.00    +0.010 A  
DOCKED: ATOM     20  C   UNL     1     141.377  81.288 223.853 -0.49 -0.00    +0.001 A  
DOCKED: ENDBRANCH   8  11
DOCKED: ENDBRANCH   6   7
DOCKED: ENDBRANCH   3   6
DOCKED: ENDBRANCH   1   3
DOCKED: BRANCH   1  21
DOCKED: ATOM     21  C   UNL     1     140.226  71.141 223.865 -0.34 -0.02    +0.130 C  
DOCKED: BRANCH  21  22
DOCKED: ATOM     22  C   UNL     1     139.183  70.181 223.365 -0.25 -0.01    +0.074 C  
DOCKED: ATOM     23  O   UNL     1     139.131  69.010 223.832 -0.16 +0.05    -0.318 OA 
DOCKED: BRANCH  22  24
DOCKED: ATOM     24  N   UNL     1     138.293  70.585 222.317 +0.04 +0.12    -0.649 NA 
DOCKED: BRANCH  24  25
DOCKED: ATOM     25  C   UNL     1     136.860  70.801 222.506 -0.10 +0.02    -0.107 C  
DOCKED: ATOM     26  C   UNL     1     136.254  71.333 221.217 -0.04 +0.00    -0.016 C  
DOCKED: ATOM     27  C   UNL     1     136.611  71.904 223.529 -0.18 +0.00    -0.016 C  
DOCKED: ATOM     28  C   UNL     1     136.439  72.844 221.268 -0.07 +0.00    -0.001 C  
DOCKED: ATOM     29  C   UNL     1     136.584  73.213 222.744 -0.12 +0.00    -0.001 C  
DOCKED: ENDBRANCH  24  25
DOCKED: ENDBRANCH  22  24
DOCKED: ENDBRANCH  21  22
DOCKED: BRANCH  21  30
DOCKED: ATOM     30  C   UNL     1     139.998  71.516 225.351 -0.38 -0.01    +0.034 C  
DOCKED: BRANCH  30  31
DOCKED: ATOM     31  C   UNL     1     141.122  71.136 226.351 -0.66 +0.00    -0.015 C  
DOCKED: ATOM     32  C   UNL     1     141.085  69.658 226.763 -0.57 -0.00    +0.007 C  
DOCKED: ATOM     33  C   UNL     1     141.173  72.049 227.582 -0.81 -0.00    +0.007 C  
DOCKED: ENDBRANCH  30  31
DOCKED: ENDBRANCH  21  30
DOCKED: ENDBRANCH   1  21
DOCKED: TORSDOF 11
DOCKED: TER
DOCKED: ENDMDL
________________________________________________________________________________


    FINAL DOCKED STATE:
    ________________________


Run:   12 / 20
Time taken for this run:   0.080s

DOCKED: MODEL        12
DOCKED: USER    Run = 12
DOCKED: USER
DOCKED: USER    Estimated Free Energy of Binding    =  -7.87 kcal/mol  [=(1)+(2)+(3)-(4)]
DOCKED: USER
DOCKED: USER    (1) Final Intermolecular Energy     = -11.15 kcal/mol
DOCKED: USER        vdW + Hbond + desolv Energy     = -11.25 kcal/mol
DOCKED: USER        Electrostatic Energy            =  +0.10 kcal/mol
DOCKED: USER        Moving Ligand-Fixed Receptor    = -11.15 kcal/mol
DOCKED: USER        Moving Ligand-Moving Receptor   =  +0.00 kcal/mol
DOCKED: USER    (2) Final Total Internal Energy     =  -2.56 kcal/mol
DOCKED: USER    (3) Torsional Free Energy           =  +3.28 kcal/mol
DOCKED: USER    (4) Unbound System's Energy         =  -2.56 kcal/mol
DOCKED: USER
DOCKED: USER
DOCKED: REMARK SMILES CC(C)C[C@H](N/C(O)=C\NC(=O)c1ccc2ccccc2n1)C(=O)[N-]C1CCCC1
DOCKED: REMARK SMILES IDX 6 1 7 3 8 4 9 6 10 7 11 8 12 10 13 11 22 12 14 13 21 14
DOCKED: REMARK SMILES IDX 15 15 20 16 16 17 19 18 17 19 18 20 5 21 23 22 24 23 25 24
DOCKED: REMARK SMILES IDX 26 25 27 26 30 27 28 28 29 29 4 30 2 31 1 32 3 33
DOCKED: REMARK H PARENT 6 2 8 5 10 9
DOCKED: USER                              x       y       z     vdW  Elec       q    Type
DOCKED: USER                           _______ _______ _______ _____ _____    ______ ____
DOCKED: ROOT
DOCKED: ATOM      1  N   UNL     1     141.455  75.809 221.582 -0.14 +0.14    -0.347 N  
DOCKED: ATOM      2  H   UNL     1     142.267  75.634 222.219 -0.50 -0.10    +0.164 HD 
DOCKED: ENDROOT
DOCKED: BRANCH   1   3
DOCKED: ATOM      3  C   UNL     1     140.838  74.700 220.915 -0.20 -0.04    +0.201 C  
DOCKED: BRANCH   3   4
DOCKED: ATOM      4  O   UNL     1     141.538  74.054 219.894 -0.02 +0.12    -0.494 OA 
DOCKED: ATOM      5  H   UNL     1     141.575  73.045 219.821 +0.08 -0.06    +0.295 HD 
DOCKED: ENDBRANCH   3   4
DOCKED: BRANCH   3   6
DOCKED: ATOM      6  C   UNL     1     139.612  74.269 221.258 -0.19 -0.03    +0.152 C  
DOCKED: BRANCH   6   7
DOCKED: ATOM      7  N   UNL     1     139.398  73.313 222.311 -0.13 +0.07    -0.322 N  
DOCKED: ATOM      8  C   UNL     1     140.217  72.140 222.444 -0.21 -0.04    +0.273 C  
DOCKED: ATOM      9  H   UNL     1     138.697  73.514 223.058 -0.52 -0.11    +0.169 HD 
DOCKED: ATOM     10  O   UNL     1     141.043  71.841 221.537 -0.16 +0.03    -0.267 OA 
DOCKED: BRANCH   8  11
DOCKED: ATOM     11  C   UNL     1     140.108  71.286 223.649 -0.33 -0.02    +0.129 A  
DOCKED: ATOM     12  N   UNL     1     140.599  71.735 224.838 -0.29 +0.03    -0.243 NA 
DOCKED: ATOM     13  C   UNL     1     139.528  70.007 223.584 -0.27 -0.01    +0.035 A  
DOCKED: ATOM     14  C   UNL     1     140.557  70.986 225.972 -0.55 -0.01    +0.071 A  
DOCKED: ATOM     15  C   UNL     1     139.471  69.213 224.732 -0.36 -0.00    +0.013 A  
DOCKED: ATOM     16  C   UNL     1     141.088  71.488 227.167 -0.73 -0.00    +0.029 A  
DOCKED: ATOM     17  C   UNL     1     139.988  69.695 225.941 -0.48 -0.00    +0.000 A  
DOCKED: ATOM     18  C   UNL     1     141.051  70.711 228.329 -0.60 -0.00    +0.002 A  
DOCKED: ATOM     19  C   UNL     1     139.954  68.921 227.111 -0.60 -0.00    +0.010 A  
DOCKED: ATOM     20  C   UNL     1     140.485  69.432 228.301 -0.62 -0.00    +0.001 A  
DOCKED: ENDBRANCH   8  11
DOCKED: ENDBRANCH   6   7
DOCKED: ENDBRANCH   3   6
DOCKED: ENDBRANCH   1   3
DOCKED: BRANCH   1  21
DOCKED: ATOM     21  C   UNL     1     141.055  77.187 221.288 -0.28 -0.06    +0.130 C  
DOCKED: BRANCH  21  22
DOCKED: ATOM     22  C   UNL     1     139.960  77.572 222.243 -0.33 -0.02    +0.074 C  
DOCKED: ATOM     23  O   UNL     1     139.213  76.682 222.735 -0.23 +0.06    -0.318 OA 
DOCKED: BRANCH  22  24
DOCKED: ATOM     24  N   UNL     1     139.733  78.956 222.540 +0.04 +0.14    -0.649 NA 
DOCKED: BRANCH  24  25
DOCKED: ATOM     25  C   UNL     1     140.455  79.694 223.574 -0.42 +0.02    -0.107 C  
DOCKED: ATOM     26  C   UNL     1     140.785  81.088 223.065 -0.45 +0.00    -0.016 C  
DOCKED: ATOM     27  C   UNL     1     141.813  79.055 223.844 -0.62 +0.00    -0.016 C  
DOCKED: ATOM     28  C   UNL     1     142.101  80.951 222.312 -0.53 +0.00    -0.001 C  
DOCKED: ATOM     29  C   UNL     1     142.790  79.704 222.866 -0.61 +0.00    -0.001 C  
DOCKED: ENDBRANCH  24  25
DOCKED: ENDBRANCH  22  24
DOCKED: ENDBRANCH  21  22
DOCKED: BRANCH  21  30
DOCKED: ATOM     30  C   UNL     1     140.595  77.293 219.812 -0.15 -0.01    +0.034 C  
DOCKED: BRANCH  30  31
DOCKED: ATOM     31  C   UNL     1     141.614  77.885 218.802 -0.22 +0.01    -0.015 C  
DOCKED: ATOM     32  C   UNL     1     142.921  77.084 218.727 -0.34 -0.00    +0.007 C  
DOCKED: ATOM     33  C   UNL     1     141.895  79.376 219.028 -0.29 -0.00    +0.007 C  
DOCKED: ENDBRANCH  30  31
DOCKED: ENDBRANCH  21  30
DOCKED: ENDBRANCH   1  21
DOCKED: TORSDOF 11
DOCKED: TER
DOCKED: ENDMDL
________________________________________________________________________________


    FINAL DOCKED STATE:
    ________________________


Run:   13 / 20
Time taken for this run:   0.080s

DOCKED: MODEL        13
DOCKED: USER    Run = 13
DOCKED: USER
DOCKED: USER    Estimated Free Energy of Binding    =  -7.56 kcal/mol  [=(1)+(2)+(3)-(4)]
DOCKED: USER
DOCKED: USER    (1) Final Intermolecular Energy     = -10.84 kcal/mol
DOCKED: USER        vdW + Hbond + desolv Energy     = -10.96 kcal/mol
DOCKED: USER        Electrostatic Energy            =  +0.12 kcal/mol
DOCKED: USER        Moving Ligand-Fixed Receptor    = -10.84 kcal/mol
DOCKED: USER        Moving Ligand-Moving Receptor   =  +0.00 kcal/mol
DOCKED: USER    (2) Final Total Internal Energy     =  -3.05 kcal/mol
DOCKED: USER    (3) Torsional Free Energy           =  +3.28 kcal/mol
DOCKED: USER    (4) Unbound System's Energy         =  -3.05 kcal/mol
DOCKED: USER
DOCKED: USER
DOCKED: REMARK SMILES CC(C)C[C@H](N/C(O)=C\NC(=O)c1ccc2ccccc2n1)C(=O)[N-]C1CCCC1
DOCKED: REMARK SMILES IDX 6 1 7 3 8 4 9 6 10 7 11 8 12 10 13 11 22 12 14 13 21 14
DOCKED: REMARK SMILES IDX 15 15 20 16 16 17 19 18 17 19 18 20 5 21 23 22 24 23 25 24
DOCKED: REMARK SMILES IDX 26 25 27 26 30 27 28 28 29 29 4 30 2 31 1 32 3 33
DOCKED: REMARK H PARENT 6 2 8 5 10 9
DOCKED: USER                              x       y       z     vdW  Elec       q    Type
DOCKED: USER                           _______ _______ _______ _____ _____    ______ ____
DOCKED: ROOT
DOCKED: ATOM      1  N   UNL     1     140.673  75.287 221.306 -0.16 +0.08    -0.347 N  
DOCKED: ATOM      2  H   UNL     1     139.794  74.859 221.677 +0.04 -0.03    +0.164 HD 
DOCKED: ENDROOT
DOCKED: BRANCH   1   3
DOCKED: ATOM      3  C   UNL     1     141.722  74.432 220.833 -0.21 -0.05    +0.201 C  
DOCKED: BRANCH   3   4
DOCKED: ATOM      4  O   UNL     1     142.957  74.997 220.508 -0.12 +0.23    -0.494 OA 
DOCKED: ATOM      5  H   UNL     1     143.259  75.886 220.889 -0.21 -0.26    +0.295 HD 
DOCKED: ENDBRANCH   3   4
DOCKED: BRANCH   3   6
DOCKED: ATOM      6  C   UNL     1     141.542  73.107 220.706 -0.18 -0.02    +0.152 C  
DOCKED: BRANCH   6   7
DOCKED: ATOM      7  N   UNL     1     141.444  72.230 221.841 -0.11 +0.02    -0.322 N  
DOCKED: ATOM      8  C   UNL     1     140.364  72.331 222.783 -0.19 -0.03    +0.273 C  
DOCKED: ATOM      9  H   UNL     1     142.114  71.435 221.942 +0.07 -0.01    +0.169 HD 
DOCKED: ATOM     10  O   UNL     1     139.562  73.305 222.720 -0.63 +0.05    -0.267 OA 
DOCKED: BRANCH   8  11
DOCKED: ATOM     11  C   UNL     1     140.175  71.291 223.819 -0.34 -0.02    +0.129 A  
DOCKED: ATOM     12  N   UNL     1     140.654  71.498 225.077 -0.34 +0.03    -0.243 NA 
DOCKED: ATOM     13  C   UNL     1     139.530  70.077 223.520 -0.27 -0.01    +0.035 A  
DOCKED: ATOM     14  C   UNL     1     140.539  70.568 226.062 -0.52 -0.01    +0.071 A  
DOCKED: ATOM     15  C   UNL     1     139.398  69.101 224.511 -0.33 -0.00    +0.013 A  
DOCKED: ATOM     16  C   UNL     1     141.060  70.825 227.336 -0.64 -0.00    +0.029 A  
DOCKED: ATOM     17  C   UNL     1     139.904  69.336 225.795 -0.47 -0.00    +0.000 A  
DOCKED: ATOM     18  C   UNL     1     140.949  69.862 228.344 -0.57 -0.00    +0.002 A  
DOCKED: ATOM     19  C   UNL     1     139.795  68.375 226.812 -0.61 -0.00    +0.010 A  
DOCKED: ATOM     20  C   UNL     1     140.317  68.642 228.083 -0.66 -0.00    +0.001 A  
DOCKED: ENDBRANCH   8  11
DOCKED: ENDBRANCH   6   7
DOCKED: ENDBRANCH   3   6
DOCKED: ENDBRANCH   1   3
DOCKED: BRANCH   1  21
DOCKED: ATOM     21  C   UNL     1     140.863  76.737 221.400 -0.28 -0.05    +0.130 C  
DOCKED: BRANCH  21  22
DOCKED: ATOM     22  C   UNL     1     139.788  77.294 222.291 -0.33 -0.02    +0.074 C  
DOCKED: ATOM     23  O   UNL     1     138.898  76.530 222.756 -0.23 +0.06    -0.318 OA 
DOCKED: BRANCH  22  24
DOCKED: ATOM     24  N   UNL     1     139.748  78.701 222.558 +0.03 +0.14    -0.649 NA 
DOCKED: BRANCH  24  25
DOCKED: ATOM     25  C   UNL     1     140.424  79.334 223.689 -0.40 +0.02    -0.107 C  
DOCKED: ATOM     26  C   UNL     1     140.598  80.818 223.408 -0.46 +0.00    -0.016 C  
DOCKED: ATOM     27  C   UNL     1     141.846  78.803 223.832 -0.59 +0.00    -0.016 C  
DOCKED: ATOM     28  C   UNL     1     141.899  80.939 222.626 -0.56 +0.00    -0.001 C  
DOCKED: ATOM     29  C   UNL     1     142.724  79.698 222.960 -0.62 +0.00    -0.001 C  
DOCKED: ENDBRANCH  24  25
DOCKED: ENDBRANCH  22  24
DOCKED: ENDBRANCH  21  22
DOCKED: BRANCH  21  30
DOCKED: ATOM     30  C   UNL     1     140.817  77.363 219.984 -0.19 -0.01    +0.034 C  
DOCKED: BRANCH  30  31
DOCKED: ATOM     31  C   UNL     1     142.088  78.117 219.509 -0.26 +0.01    -0.015 C  
DOCKED: ATOM     32  C   UNL     1     141.841  79.609 219.252 -0.29 -0.00    +0.007 C  
DOCKED: ATOM     33  C   UNL     1     142.769  77.456 218.303 -0.32 -0.00    +0.007 C  
DOCKED: ENDBRANCH  30  31
DOCKED: ENDBRANCH  21  30
DOCKED: ENDBRANCH   1  21
DOCKED: TORSDOF 11
DOCKED: TER
DOCKED: ENDMDL
________________________________________________________________________________


    FINAL DOCKED STATE:
    ________________________


Run:   14 / 20
Time taken for this run:   0.080s

DOCKED: MODEL        14
DOCKED: USER    Run = 14
DOCKED: USER
DOCKED: USER    Estimated Free Energy of Binding    =  -7.36 kcal/mol  [=(1)+(2)+(3)-(4)]
DOCKED: USER
DOCKED: USER    (1) Final Intermolecular Energy     = -10.64 kcal/mol
DOCKED: USER        vdW + Hbond + desolv Energy     = -10.76 kcal/mol
DOCKED: USER        Electrostatic Energy            =  +0.11 kcal/mol
DOCKED: USER        Moving Ligand-Fixed Receptor    = -10.64 kcal/mol
DOCKED: USER        Moving Ligand-Moving Receptor   =  +0.00 kcal/mol
DOCKED: USER    (2) Final Total Internal Energy     =  -3.06 kcal/mol
DOCKED: USER    (3) Torsional Free Energy           =  +3.28 kcal/mol
DOCKED: USER    (4) Unbound System's Energy         =  -3.06 kcal/mol
DOCKED: USER
DOCKED: USER
DOCKED: REMARK SMILES CC(C)C[C@H](N/C(O)=C\NC(=O)c1ccc2ccccc2n1)C(=O)[N-]C1CCCC1
DOCKED: REMARK SMILES IDX 6 1 7 3 8 4 9 6 10 7 11 8 12 10 13 11 22 12 14 13 21 14
DOCKED: REMARK SMILES IDX 15 15 20 16 16 17 19 18 17 19 18 20 5 21 23 22 24 23 25 24
DOCKED: REMARK SMILES IDX 26 25 27 26 30 27 28 28 29 29 4 30 2 31 1 32 3 33
DOCKED: REMARK H PARENT 6 2 8 5 10 9
DOCKED: USER                              x       y       z     vdW  Elec       q    Type
DOCKED: USER                           _______ _______ _______ _____ _____    ______ ____
DOCKED: ROOT
DOCKED: ATOM      1  N   UNL     1     139.144  75.979 222.387 -0.18 +0.07    -0.347 N  
DOCKED: ATOM      2  H   UNL     1     138.269  76.025 222.959 -0.06 -0.04    +0.164 HD 
DOCKED: ENDROOT
DOCKED: BRANCH   1   3
DOCKED: ATOM      3  C   UNL     1     139.638  74.701 221.964 -0.20 -0.03    +0.201 C  
DOCKED: BRANCH   3   4
DOCKED: ATOM      4  O   UNL     1     141.009  74.544 221.756 -0.47 +0.05    -0.494 OA 
DOCKED: ATOM      5  H   UNL     1     141.422  73.643 221.551 +0.11 -0.03    +0.295 HD 
DOCKED: ENDBRANCH   3   4
DOCKED: BRANCH   3   6
DOCKED: ATOM      6  C   UNL     1     138.811  73.659 221.775 -0.16 -0.04    +0.152 C  
DOCKED: BRANCH   6   7
DOCKED: ATOM      7  N   UNL     1     138.734  72.559 222.698 -0.02 +0.11    -0.322 N  
DOCKED: ATOM      8  C   UNL     1     139.811  71.619 222.845 -0.21 -0.05    +0.273 C  
DOCKED: ATOM      9  H   UNL     1     137.923  72.486 223.351 -0.39 -0.09    +0.169 HD 
DOCKED: ATOM     10  O   UNL     1     140.786  71.648 222.043 -0.19 +0.03    -0.267 OA 
DOCKED: BRANCH   8  11
DOCKED: ATOM     11  C   UNL     1     139.791  70.625 223.942 -0.30 -0.02    +0.129 A  
DOCKED: ATOM     12  N   UNL     1     140.384  70.924 225.132 -0.31 +0.04    -0.243 NA 
DOCKED: ATOM     13  C   UNL     1     139.190  69.366 223.771 -0.27 -0.01    +0.035 A  
DOCKED: ATOM     14  C   UNL     1     140.426  70.042 226.165 -0.48 -0.01    +0.071 A  
DOCKED: ATOM     15  C   UNL     1     139.217  68.437 224.815 -0.39 -0.00    +0.013 A  
DOCKED: ATOM     16  C   UNL     1     141.060  70.393 227.364 -0.58 -0.01    +0.029 A  
DOCKED: ATOM     17  C   UNL     1     139.839  68.766 226.026 -0.53 -0.00    +0.000 A  
DOCKED: ATOM     18  C   UNL     1     141.108  69.480 228.422 -0.53 -0.00    +0.002 A  
DOCKED: ATOM     19  C   UNL     1     139.890  67.856 227.092 -0.63 -0.00    +0.010 A  
DOCKED: ATOM     20  C   UNL     1     140.524  68.216 228.287 -0.64 -0.00    +0.001 A  
DOCKED: ENDBRANCH   8  11
DOCKED: ENDBRANCH   6   7
DOCKED: ENDBRANCH   3   6
DOCKED: ENDBRANCH   1   3
DOCKED: BRANCH   1  21
DOCKED: ATOM     21  C   UNL     1     139.912  77.204 222.147 -0.30 -0.03    +0.130 C  
DOCKED: BRANCH  21  22
DOCKED: ATOM     22  C   UNL     1     139.087  78.373 222.610 -0.28 -0.01    +0.074 C  
DOCKED: ATOM     23  O   UNL     1     137.926  78.183 223.064 -0.15 +0.05    -0.318 OA 
DOCKED: BRANCH  22  24
DOCKED: ATOM     24  N   UNL     1     139.606  79.702 222.478 +0.05 +0.13    -0.649 NA 
DOCKED: BRANCH  24  25
DOCKED: ATOM     25  C   UNL     1     140.486  80.334 223.459 -0.41 +0.02    -0.107 C  
DOCKED: ATOM     26  C   UNL     1     141.320  81.405 222.776 -0.48 +0.00    -0.016 C  
DOCKED: ATOM     27  C   UNL     1     141.507  79.333 223.989 -0.55 +0.00    -0.016 C  
DOCKED: ATOM     28  C   UNL     1     142.540  80.683 222.219 -0.50 +0.00    -0.001 C  
DOCKED: ATOM     29  C   UNL     1     142.704  79.408 223.045 -0.56 +0.00    -0.001 C  
DOCKED: ENDBRANCH  24  25
DOCKED: ENDBRANCH  22  24
DOCKED: ENDBRANCH  21  22
DOCKED: BRANCH  21  30
DOCKED: ATOM     30  C   UNL     1     140.266  77.311 220.643 -0.19 -0.01    +0.034 C  
DOCKED: BRANCH  30  31
DOCKED: ATOM     31  C   UNL     1     141.727  77.703 220.293 -0.30 +0.01    -0.015 C  
DOCKED: ATOM     32  C   UNL     1     141.817  78.923 219.366 -0.29 -0.00    +0.007 C  
DOCKED: ATOM     33  C   UNL     1     142.553  76.532 219.744 -0.35 -0.00    +0.007 C  
DOCKED: ENDBRANCH  30  31
DOCKED: ENDBRANCH  21  30
DOCKED: ENDBRANCH   1  21
DOCKED: TORSDOF 11
DOCKED: TER
DOCKED: ENDMDL
________________________________________________________________________________


    FINAL DOCKED STATE:
    ________________________


Run:   15 / 20
Time taken for this run:   0.080s

DOCKED: MODEL        15
DOCKED: USER    Run = 15
DOCKED: USER
DOCKED: USER    Estimated Free Energy of Binding    =  -6.56 kcal/mol  [=(1)+(2)+(3)-(4)]
DOCKED: USER
DOCKED: USER    (1) Final Intermolecular Energy     =  -9.85 kcal/mol
DOCKED: USER        vdW + Hbond + desolv Energy     = -10.26 kcal/mol
DOCKED: USER        Electrostatic Energy            =  +0.42 kcal/mol
DOCKED: USER        Moving Ligand-Fixed Receptor    =  -9.85 kcal/mol
DOCKED: USER        Moving Ligand-Moving Receptor   =  +0.00 kcal/mol
DOCKED: USER    (2) Final Total Internal Energy     =  -2.65 kcal/mol
DOCKED: USER    (3) Torsional Free Energy           =  +3.28 kcal/mol
DOCKED: USER    (4) Unbound System's Energy         =  -2.65 kcal/mol
DOCKED: USER
DOCKED: USER
DOCKED: REMARK SMILES CC(C)C[C@H](N/C(O)=C\NC(=O)c1ccc2ccccc2n1)C(=O)[N-]C1CCCC1
DOCKED: REMARK SMILES IDX 6 1 7 3 8 4 9 6 10 7 11 8 12 10 13 11 22 12 14 13 21 14
DOCKED: REMARK SMILES IDX 15 15 20 16 16 17 19 18 17 19 18 20 5 21 23 22 24 23 25 24
DOCKED: REMARK SMILES IDX 26 25 27 26 30 27 28 28 29 29 4 30 2 31 1 32 3 33
DOCKED: REMARK H PARENT 6 2 8 5 10 9
DOCKED: USER                              x       y       z     vdW  Elec       q    Type
DOCKED: USER                           _______ _______ _______ _____ _____    ______ ____
DOCKED: ROOT
DOCKED: ATOM      1  N   UNL     1     140.902  74.933 219.680 -0.02 +0.10    -0.347 N  
DOCKED: ATOM      2  H   UNL     1     140.694  75.383 218.758 +0.04 -0.05    +0.164 HD 
DOCKED: ENDROOT
DOCKED: BRANCH   1   3
DOCKED: ATOM      3  C   UNL     1     140.135  73.793 220.089 -0.07 -0.04    +0.201 C  
DOCKED: BRANCH   3   4
DOCKED: ATOM      4  O   UNL     1     140.406  72.554 219.504 +0.01 +0.09    -0.494 OA 
DOCKED: ATOM      5  H   UNL     1     140.029  71.690 219.875 +0.05 -0.05    +0.295 HD 
DOCKED: ENDBRANCH   3   4
DOCKED: BRANCH   3   6
DOCKED: ATOM      6  C   UNL     1     139.175  73.892 221.024 -0.14 -0.03    +0.152 C  
DOCKED: BRANCH   6   7
DOCKED: ATOM      7  N   UNL     1     139.251  73.204 222.284 -0.12 +0.08    -0.322 N  
DOCKED: ATOM      8  C   UNL     1     139.337  71.772 222.358 -0.17 -0.06    +0.273 C  
DOCKED: ATOM      9  H   UNL     1     139.343  73.751 223.168 -0.50 -0.06    +0.169 HD 
DOCKED: ATOM     10  O   UNL     1     139.183  71.076 221.316 -0.07 +0.05    -0.267 OA 
DOCKED: BRANCH   8  11
DOCKED: ATOM     11  C   UNL     1     139.622  71.107 223.650 -0.31 -0.03    +0.129 A  
DOCKED: ATOM     12  N   UNL     1     140.147  71.830 224.678 -0.23 +0.05    -0.243 NA 
DOCKED: ATOM     13  C   UNL     1     139.382  69.733 223.828 -0.27 -0.01    +0.035 A  
DOCKED: ATOM     14  C   UNL     1     140.459  71.270 225.877 -0.54 -0.01    +0.071 A  
DOCKED: ATOM     15  C   UNL     1     139.692  69.128 225.049 -0.39 -0.00    +0.013 A  
DOCKED: ATOM     16  C   UNL     1     141.010  72.055 226.898 -0.72 -0.01    +0.029 A  
DOCKED: ATOM     17  C   UNL     1     140.238  69.892 226.088 -0.51 -0.00    +0.000 A  
DOCKED: ATOM     18  C   UNL     1     141.337  71.473 228.127 -0.70 -0.00    +0.002 A  
DOCKED: ATOM     19  C   UNL     1     140.568  69.316 227.324 -0.60 -0.00    +0.010 A  
DOCKED: ATOM     20  C   UNL     1     141.116  70.108 228.340 -0.55 -0.00    +0.001 A  
DOCKED: ENDBRANCH   8  11
DOCKED: ENDBRANCH   6   7
DOCKED: ENDBRANCH   3   6
DOCKED: ENDBRANCH   1   3
DOCKED: BRANCH   1  21
DOCKED: ATOM     21  C   UNL     1     141.874  75.555 220.583 -0.22 -0.06    +0.130 C  
DOCKED: BRANCH  21  22
DOCKED: ATOM     22  C   UNL     1     141.597  77.032 220.624 -0.24 -0.04    +0.074 C  
DOCKED: ATOM     23  O   UNL     1     142.195  77.807 219.829 -0.20 +0.22    -0.318 OA 
DOCKED: BRANCH  22  24
DOCKED: ATOM     24  N   UNL     1     140.697  77.556 221.609 +0.02 +0.24    -0.649 NA 
DOCKED: BRANCH  24  25
DOCKED: ATOM     25  C   UNL     1     141.131  78.145 222.875 -0.42 +0.04    -0.107 C  
DOCKED: ATOM     26  C   UNL     1     140.040  79.060 223.408 -0.41 +0.00    -0.016 C  
DOCKED: ATOM     27  C   UNL     1     142.329  79.063 222.660 -0.49 +0.01    -0.016 C  
DOCKED: ATOM     28  C   UNL     1     140.281  80.413 222.752 -0.40 +0.00    -0.001 C  
DOCKED: ATOM     29  C   UNL     1     141.755  80.444 222.351 -0.53 +0.00    -0.001 C  
DOCKED: ENDBRANCH  24  25
DOCKED: ENDBRANCH  22  24
DOCKED: ENDBRANCH  21  22
DOCKED: BRANCH  21  30
DOCKED: ATOM     30  C   UNL     1     143.311  75.253 220.090 -0.35 -0.02    +0.034 C  
DOCKED: BRANCH  30  31
DOCKED: ATOM     31  C   UNL     1     144.043  74.057 220.755 -0.34 +0.00    -0.015 C  
DOCKED: ATOM     32  C   UNL     1     145.559  74.072 220.517 -0.56 -0.00    +0.007 C  
DOCKED: ATOM     33  C   UNL     1     143.441  72.696 220.381 -0.31 -0.00    +0.007 C  
DOCKED: ENDBRANCH  30  31
DOCKED: ENDBRANCH  21  30
DOCKED: ENDBRANCH   1  21
DOCKED: TORSDOF 11
DOCKED: TER
DOCKED: ENDMDL
________________________________________________________________________________


    FINAL DOCKED STATE:
    ________________________


Run:   16 / 20
Time taken for this run:   0.080s

DOCKED: MODEL        16
DOCKED: USER    Run = 16
DOCKED: USER
DOCKED: USER    Estimated Free Energy of Binding    =  -7.88 kcal/mol  [=(1)+(2)+(3)-(4)]
DOCKED: USER
DOCKED: USER    (1) Final Intermolecular Energy     = -11.16 kcal/mol
DOCKED: USER        vdW + Hbond + desolv Energy     = -11.33 kcal/mol
DOCKED: USER        Electrostatic Energy            =  +0.17 kcal/mol
DOCKED: USER        Moving Ligand-Fixed Receptor    = -11.16 kcal/mol
DOCKED: USER        Moving Ligand-Moving Receptor   =  +0.00 kcal/mol
DOCKED: USER    (2) Final Total Internal Energy     =  -2.44 kcal/mol
DOCKED: USER    (3) Torsional Free Energy           =  +3.28 kcal/mol
DOCKED: USER    (4) Unbound System's Energy         =  -2.44 kcal/mol
DOCKED: USER
DOCKED: USER
DOCKED: REMARK SMILES CC(C)C[C@H](N/C(O)=C\NC(=O)c1ccc2ccccc2n1)C(=O)[N-]C1CCCC1
DOCKED: REMARK SMILES IDX 6 1 7 3 8 4 9 6 10 7 11 8 12 10 13 11 22 12 14 13 21 14
DOCKED: REMARK SMILES IDX 15 15 20 16 16 17 19 18 17 19 18 20 5 21 23 22 24 23 25 24
DOCKED: REMARK SMILES IDX 26 25 27 26 30 27 28 28 29 29 4 30 2 31 1 32 3 33
DOCKED: REMARK H PARENT 6 2 8 5 10 9
DOCKED: USER                              x       y       z     vdW  Elec       q    Type
DOCKED: USER                           _______ _______ _______ _____ _____    ______ ____
DOCKED: ROOT
DOCKED: ATOM      1  N   UNL     1     141.043  76.387 222.202 -0.20 +0.12    -0.347 N  
DOCKED: ATOM      2  H   UNL     1     141.803  76.576 222.896 -0.43 -0.10    +0.164 HD 
DOCKED: ENDROOT
DOCKED: BRANCH   1   3
DOCKED: ATOM      3  C   UNL     1     141.255  75.397 221.186 -0.23 -0.06    +0.201 C  
DOCKED: BRANCH   3   4
DOCKED: ATOM      4  O   UNL     1     142.331  75.551 220.310 -0.10 +0.24    -0.494 OA 
DOCKED: ATOM      5  H   UNL     1     143.149  76.096 220.553 -0.18 -0.24    +0.295 HD 
DOCKED: ENDBRANCH   3   4
DOCKED: BRANCH   3   6
DOCKED: ATOM      6  C   UNL     1     140.447  74.330 221.069 -0.21 -0.03    +0.152 C  
DOCKED: BRANCH   6   7
DOCKED: ATOM      7  N   UNL     1     140.042  73.541 222.201 -0.13 +0.03    -0.322 N  
DOCKED: ATOM      8  C   UNL     1     140.357  72.142 222.299 -0.21 -0.03    +0.273 C  
DOCKED: ATOM      9  H   UNL     1     139.594  74.005 223.022 -0.47 -0.02    +0.169 HD 
DOCKED: ATOM     10  O   UNL     1     140.858  71.538 221.309 -0.13 +0.03    -0.267 OA 
DOCKED: BRANCH   8  11
DOCKED: ATOM     11  C   UNL     1     140.111  71.408 223.560 -0.32 -0.02    +0.129 A  
DOCKED: ATOM     12  N   UNL     1     140.630  71.882 224.727 -0.27 +0.03    -0.243 NA 
DOCKED: ATOM     13  C   UNL     1     139.370  70.213 223.573 -0.28 -0.01    +0.035 A  
DOCKED: ATOM     14  C   UNL     1     140.466  71.236 225.912 -0.54 -0.01    +0.071 A  
DOCKED: ATOM     15  C   UNL     1     139.185  69.525 224.775 -0.37 -0.00    +0.013 A  
DOCKED: ATOM     16  C   UNL     1     141.031  71.758 227.082 -0.76 -0.01    +0.029 A  
DOCKED: ATOM     17  C   UNL     1     139.734  70.030 225.960 -0.48 -0.00    +0.000 A  
DOCKED: ATOM     18  C   UNL     1     140.867  71.086 228.298 -0.67 -0.00    +0.002 A  
DOCKED: ATOM     19  C   UNL     1     139.572  69.362 227.184 -0.55 -0.00    +0.010 A  
DOCKED: ATOM     20  C   UNL     1     140.139  69.892 228.348 -0.60 -0.00    +0.001 A  
DOCKED: ENDBRANCH   8  11
DOCKED: ENDBRANCH   6   7
DOCKED: ENDBRANCH   3   6
DOCKED: ENDBRANCH   1   3
DOCKED: BRANCH   1  21
DOCKED: ATOM     21  C   UNL     1     139.841  77.225 222.205 -0.30 -0.03    +0.130 C  
DOCKED: BRANCH  21  22
DOCKED: ATOM     22  C   UNL     1     140.107  78.423 223.072 -0.31 -0.02    +0.074 C  
DOCKED: ATOM     23  O   UNL     1     139.202  79.284 223.249 -0.21 +0.05    -0.318 OA 
DOCKED: BRANCH  22  24
DOCKED: ATOM     24  N   UNL     1     141.408  78.610 223.642 -0.03 +0.19    -0.649 NA 
DOCKED: BRANCH  24  25
DOCKED: ATOM     25  C   UNL     1     142.480  79.363 222.994 -0.52 +0.05    -0.107 C  
DOCKED: ATOM     26  C   UNL     1     142.831  80.575 223.842 -0.67 +0.00    -0.016 C  
DOCKED: ATOM     27  C   UNL     1     142.003  79.948 221.670 -0.44 +0.01    -0.016 C  
DOCKED: ATOM     28  C   UNL     1     141.867  81.672 223.412 -0.47 +0.00    -0.001 C  
DOCKED: ATOM     29  C   UNL     1     141.405  81.314 222.000 -0.45 +0.00    -0.001 C  
DOCKED: ENDBRANCH  24  25
DOCKED: ENDBRANCH  22  24
DOCKED: ENDBRANCH  21  22
DOCKED: BRANCH  21  30
DOCKED: ATOM     30  C   UNL     1     138.632  76.402 222.715 -0.27 -0.01    +0.034 C  
DOCKED: BRANCH  30  31
DOCKED: ATOM     31  C   UNL     1     137.263  76.671 222.036 -0.20 +0.00    -0.015 C  
DOCKED: ATOM     32  C   UNL     1     137.271  77.921 221.145 -0.09 -0.00    +0.007 C  
DOCKED: ATOM     33  C   UNL     1     136.092  76.709 223.026 -0.22 -0.00    +0.007 C  
DOCKED: ENDBRANCH  30  31
DOCKED: ENDBRANCH  21  30
DOCKED: ENDBRANCH   1  21
DOCKED: TORSDOF 11
DOCKED: TER
DOCKED: ENDMDL
________________________________________________________________________________


    FINAL DOCKED STATE:
    ________________________


Run:   17 / 20
Time taken for this run:   0.080s

DOCKED: MODEL        17
DOCKED: USER    Run = 17
DOCKED: USER
DOCKED: USER    Estimated Free Energy of Binding    =  -7.15 kcal/mol  [=(1)+(2)+(3)-(4)]
DOCKED: USER
DOCKED: USER    (1) Final Intermolecular Energy     = -10.44 kcal/mol
DOCKED: USER        vdW + Hbond + desolv Energy     = -10.62 kcal/mol
DOCKED: USER        Electrostatic Energy            =  +0.18 kcal/mol
DOCKED: USER        Moving Ligand-Fixed Receptor    = -10.44 kcal/mol
DOCKED: USER        Moving Ligand-Moving Receptor   =  +0.00 kcal/mol
DOCKED: USER    (2) Final Total Internal Energy     =  -2.50 kcal/mol
DOCKED: USER    (3) Torsional Free Energy           =  +3.28 kcal/mol
DOCKED: USER    (4) Unbound System's Energy         =  -2.50 kcal/mol
DOCKED: USER
DOCKED: USER
DOCKED: REMARK SMILES CC(C)C[C@H](N/C(O)=C\NC(=O)c1ccc2ccccc2n1)C(=O)[N-]C1CCCC1
DOCKED: REMARK SMILES IDX 6 1 7 3 8 4 9 6 10 7 11 8 12 10 13 11 22 12 14 13 21 14
DOCKED: REMARK SMILES IDX 15 15 20 16 16 17 19 18 17 19 18 20 5 21 23 22 24 23 25 24
DOCKED: REMARK SMILES IDX 26 25 27 26 30 27 28 28 29 29 4 30 2 31 1 32 3 33
DOCKED: REMARK H PARENT 6 2 8 5 10 9
DOCKED: USER                              x       y       z     vdW  Elec       q    Type
DOCKED: USER                           _______ _______ _______ _____ _____    ______ ____
DOCKED: ROOT
DOCKED: ATOM      1  N   UNL     1     141.359  75.767 221.530 -0.16 +0.13    -0.347 N  
DOCKED: ATOM      2  H   UNL     1     142.316  75.521 221.876 -0.49 -0.10    +0.164 HD 
DOCKED: ENDROOT
DOCKED: BRANCH   1   3
DOCKED: ATOM      3  C   UNL     1     140.485  74.721 221.088 -0.21 -0.04    +0.201 C  
DOCKED: BRANCH   3   4
DOCKED: ATOM      4  O   UNL     1     139.273  75.066 220.486 -0.01 +0.11    -0.494 OA 
DOCKED: ATOM      5  H   UNL     1     138.577  75.626 220.962 +0.07 -0.07    +0.295 HD 
DOCKED: ENDBRANCH   3   4
DOCKED: BRANCH   3   6
DOCKED: ATOM      6  C   UNL     1     140.812  73.426 221.232 -0.22 -0.02    +0.152 C  
DOCKED: BRANCH   6   7
DOCKED: ATOM      7  N   UNL     1     140.591  72.707 222.458 -0.17 +0.02    -0.322 N  
DOCKED: ATOM      8  C   UNL     1     139.822  71.494 222.494 -0.19 -0.05    +0.273 C  
DOCKED: ATOM      9  H   UNL     1     141.075  73.011 223.332 +0.05 +0.03    +0.169 HD 
DOCKED: ATOM     10  O   UNL     1     139.185  71.121 221.469 -0.07 +0.05    -0.267 OA 
DOCKED: BRANCH   8  11
DOCKED: ATOM     11  C   UNL     1     139.784  70.669 223.723 -0.28 -0.02    +0.129 A  
DOCKED: ATOM     12  N   UNL     1     140.363  71.136 224.864 -0.31 +0.04    -0.243 NA 
DOCKED: ATOM     13  C   UNL     1     139.181  69.399 223.727 -0.27 -0.01    +0.035 A  
DOCKED: ATOM     14  C   UNL     1     140.389  70.412 226.015 -0.50 -0.01    +0.071 A  
DOCKED: ATOM     15  C   UNL     1     139.192  68.631 224.895 -0.40 -0.00    +0.013 A  
DOCKED: ATOM     16  C   UNL     1     141.009  70.932 227.158 -0.65 -0.00    +0.029 A  
DOCKED: ATOM     17  C   UNL     1     139.800  69.130 226.053 -0.50 -0.00    +0.000 A  
DOCKED: ATOM     18  C   UNL     1     141.041  70.181 228.338 -0.56 -0.00    +0.002 A  
DOCKED: ATOM     19  C   UNL     1     139.835  68.383 227.241 -0.62 -0.00    +0.010 A  
DOCKED: ATOM     20  C   UNL     1     140.455  68.911 228.379 -0.65 -0.00    +0.001 A  
DOCKED: ENDBRANCH   8  11
DOCKED: ENDBRANCH   6   7
DOCKED: ENDBRANCH   3   6
DOCKED: ENDBRANCH   1   3
DOCKED: BRANCH   1  21
DOCKED: ATOM     21  C   UNL     1     140.988  77.177 221.384 -0.28 -0.06    +0.130 C  
DOCKED: BRANCH  21  22
DOCKED: ATOM     22  C   UNL     1     139.873  77.472 222.348 -0.34 -0.02    +0.074 C  
DOCKED: ATOM     23  O   UNL     1     139.115  76.542 222.736 -0.24 +0.06    -0.318 OA 
DOCKED: BRANCH  22  24
DOCKED: ATOM     24  N   UNL     1     139.644  78.821 222.773 +0.02 +0.13    -0.649 NA 
DOCKED: BRANCH  24  25
DOCKED: ATOM     25  C   UNL     1     140.421  79.488 223.816 -0.40 +0.02    -0.107 C  
DOCKED: ATOM     26  C   UNL     1     140.642  80.942 223.431 -0.45 +0.00    -0.016 C  
DOCKED: ATOM     27  C   UNL     1     141.824  78.898 223.904 -0.59 +0.00    -0.016 C  
DOCKED: ATOM     28  C   UNL     1     141.892  80.951 222.561 -0.55 +0.00    -0.001 C  
DOCKED: ATOM     29  C   UNL     1     142.681  79.693 222.922 -0.62 +0.00    -0.001 C  
DOCKED: ENDBRANCH  24  25
DOCKED: ENDBRANCH  22  24
DOCKED: ENDBRANCH  21  22
DOCKED: BRANCH  21  30
DOCKED: ATOM     30  C   UNL     1     140.571  77.457 219.918 -0.16 -0.01    +0.034 C  
DOCKED: BRANCH  30  31
DOCKED: ATOM     31  C   UNL     1     141.679  77.966 218.958 -0.24 +0.01    -0.015 C  
DOCKED: ATOM     32  C   UNL     1     142.952  77.110 219.003 -0.34 -0.00    +0.007 C  
DOCKED: ATOM     33  C   UNL     1     142.009  79.452 219.148 -0.27 -0.00    +0.007 C  
DOCKED: ENDBRANCH  30  31
DOCKED: ENDBRANCH  21  30
DOCKED: ENDBRANCH   1  21
DOCKED: TORSDOF 11
DOCKED: TER
DOCKED: ENDMDL
________________________________________________________________________________


    FINAL DOCKED STATE:
    ________________________


Run:   18 / 20
Time taken for this run:   0.080s

DOCKED: MODEL        18
DOCKED: USER    Run = 18
DOCKED: USER
DOCKED: USER    Estimated Free Energy of Binding    =  -7.34 kcal/mol  [=(1)+(2)+(3)-(4)]
DOCKED: USER
DOCKED: USER    (1) Final Intermolecular Energy     = -10.62 kcal/mol
DOCKED: USER        vdW + Hbond + desolv Energy     = -10.19 kcal/mol
DOCKED: USER        Electrostatic Energy            =  -0.43 kcal/mol
DOCKED: USER        Moving Ligand-Fixed Receptor    = -10.62 kcal/mol
DOCKED: USER        Moving Ligand-Moving Receptor   =  +0.00 kcal/mol
DOCKED: USER    (2) Final Total Internal Energy     =  -2.87 kcal/mol
DOCKED: USER    (3) Torsional Free Energy           =  +3.28 kcal/mol
DOCKED: USER    (4) Unbound System's Energy         =  -2.87 kcal/mol
DOCKED: USER
DOCKED: USER
DOCKED: REMARK SMILES CC(C)C[C@H](N/C(O)=C\NC(=O)c1ccc2ccccc2n1)C(=O)[N-]C1CCCC1
DOCKED: REMARK SMILES IDX 6 1 7 3 8 4 9 6 10 7 11 8 12 10 13 11 22 12 14 13 21 14
DOCKED: REMARK SMILES IDX 15 15 20 16 16 17 19 18 17 19 18 20 5 21 23 22 24 23 25 24
DOCKED: REMARK SMILES IDX 26 25 27 26 30 27 28 28 29 29 4 30 2 31 1 32 3 33
DOCKED: REMARK H PARENT 6 2 8 5 10 9
DOCKED: USER                              x       y       z     vdW  Elec       q    Type
DOCKED: USER                           _______ _______ _______ _____ _____    ______ ____
DOCKED: ROOT
DOCKED: ATOM      1  N   UNL     1     142.615  74.039 220.854 -0.12 +0.09    -0.347 N  
DOCKED: ATOM      2  H   UNL     1     142.816  73.327 221.595 +0.08 -0.01    +0.164 HD 
DOCKED: ENDROOT
DOCKED: BRANCH   1   3
DOCKED: ATOM      3  C   UNL     1     141.435  74.846 220.963 -0.22 -0.05    +0.201 C  
DOCKED: BRANCH   3   4
DOCKED: ATOM      4  O   UNL     1     141.566  76.235 220.950 -0.10 +0.24    -0.494 OA 
DOCKED: ATOM      5  H   UNL     1     142.199  76.722 221.572 -0.42 -0.27    +0.295 HD 
DOCKED: ENDBRANCH   3   4
DOCKED: BRANCH   3   6
DOCKED: ATOM      6  C   UNL     1     140.215  74.292 221.066 -0.20 -0.03    +0.152 C  
DOCKED: BRANCH   6   7
DOCKED: ATOM      7  N   UNL     1     139.857  73.412 222.145 -0.16 +0.04    -0.322 N  
DOCKED: ATOM      8  C   UNL     1     140.536  72.163 222.358 -0.20 -0.03    +0.273 C  
DOCKED: ATOM      9  H   UNL     1     139.155  73.719 222.854 -0.51 -0.06    +0.169 HD 
DOCKED: ATOM     10  O   UNL     1     141.357  71.737 221.498 -0.16 +0.03    -0.267 OA 
DOCKED: BRANCH   8  11
DOCKED: ATOM     11  C   UNL     1     140.290  71.379 223.590 -0.32 -0.02    +0.129 A  
DOCKED: ATOM     12  N   UNL     1     140.736  71.849 224.788 -0.26 +0.03    -0.243 NA 
DOCKED: ATOM     13  C   UNL     1     139.622  70.142 223.542 -0.26 -0.01    +0.035 A  
DOCKED: ATOM     14  C   UNL     1     140.568  71.161 225.948 -0.55 -0.01    +0.071 A  
DOCKED: ATOM     15  C   UNL     1     139.435  69.411 224.718 -0.36 -0.00    +0.013 A  
DOCKED: ATOM     16  C   UNL     1     141.058  71.682 227.152 -0.76 -0.01    +0.029 A  
DOCKED: ATOM     17  C   UNL     1     139.909  69.913 225.936 -0.49 -0.00    +0.000 A  
DOCKED: ATOM     18  C   UNL     1     140.891  70.967 228.342 -0.64 -0.00    +0.002 A  
DOCKED: ATOM     19  C   UNL     1     139.744  69.202 227.135 -0.57 -0.00    +0.010 A  
DOCKED: ATOM     20  C   UNL     1     140.235  69.732 228.333 -0.61 -0.00    +0.001 A  
DOCKED: ENDBRANCH   8  11
DOCKED: ENDBRANCH   6   7
DOCKED: ENDBRANCH   3   6
DOCKED: ENDBRANCH   1   3
DOCKED: BRANCH   1  21
DOCKED: ATOM     21  C   UNL     1     143.469  74.102 219.665 -0.26 -0.04    +0.130 C  
DOCKED: BRANCH  21  22
DOCKED: ATOM     22  C   UNL     1     144.732  73.340 219.954 -0.41 -0.01    +0.074 C  
DOCKED: ATOM     23  O   UNL     1     145.066  73.104 221.147 -0.35 +0.07    -0.318 OA 
DOCKED: BRANCH  22  24
DOCKED: ATOM     24  N   UNL     1     145.579  72.937 218.870 -0.41 -0.27    -0.649 NA 
DOCKED: BRANCH  24  25
DOCKED: ATOM     25  C   UNL     1     145.396  71.703 218.109 -0.11 -0.07    -0.107 C  
DOCKED: ATOM     26  C   UNL     1     143.944  71.590 217.671 -0.08 -0.00    -0.016 C  
DOCKED: ATOM     27  C   UNL     1     145.623  70.484 218.996 -0.31 -0.01    -0.016 C  
DOCKED: ATOM     28  C   UNL     1     143.215  70.926 218.831 -0.12 +0.00    -0.001 C  
DOCKED: ATOM     29  C   UNL     1     144.270  70.158 219.624 -0.24 -0.00    -0.001 C  
DOCKED: ENDBRANCH  24  25
DOCKED: ENDBRANCH  22  24
DOCKED: ENDBRANCH  21  22
DOCKED: BRANCH  21  30
DOCKED: ATOM     30  C   UNL     1     143.759  75.581 219.308 -0.27 -0.02    +0.034 C  
DOCKED: BRANCH  30  31
DOCKED: ATOM     31  C   UNL     1     142.984  76.175 218.101 -0.26 +0.01    -0.015 C  
DOCKED: ATOM     32  C   UNL     1     143.697  75.953 216.761 -0.22 -0.00    +0.007 C  
DOCKED: ATOM     33  C   UNL     1     142.612  77.652 218.288 -0.32 -0.00    +0.007 C  
DOCKED: ENDBRANCH  30  31
DOCKED: ENDBRANCH  21  30
DOCKED: ENDBRANCH   1  21
DOCKED: TORSDOF 11
DOCKED: TER
DOCKED: ENDMDL
________________________________________________________________________________


    FINAL DOCKED STATE:
    ________________________


Run:   19 / 20
Time taken for this run:   0.080s

DOCKED: MODEL        19
DOCKED: USER    Run = 19
DOCKED: USER
DOCKED: USER    Estimated Free Energy of Binding    =  -7.42 kcal/mol  [=(1)+(2)+(3)-(4)]
DOCKED: USER
DOCKED: USER    (1) Final Intermolecular Energy     = -10.70 kcal/mol
DOCKED: USER        vdW + Hbond + desolv Energy     = -10.90 kcal/mol
DOCKED: USER        Electrostatic Energy            =  +0.20 kcal/mol
DOCKED: USER        Moving Ligand-Fixed Receptor    = -10.70 kcal/mol
DOCKED: USER        Moving Ligand-Moving Receptor   =  +0.00 kcal/mol
DOCKED: USER    (2) Final Total Internal Energy     =  -2.64 kcal/mol
DOCKED: USER    (3) Torsional Free Energy           =  +3.28 kcal/mol
DOCKED: USER    (4) Unbound System's Energy         =  -2.64 kcal/mol
DOCKED: USER
DOCKED: USER
DOCKED: REMARK SMILES CC(C)C[C@H](N/C(O)=C\NC(=O)c1ccc2ccccc2n1)C(=O)[N-]C1CCCC1
DOCKED: REMARK SMILES IDX 6 1 7 3 8 4 9 6 10 7 11 8 12 10 13 11 22 12 14 13 21 14
DOCKED: REMARK SMILES IDX 15 15 20 16 16 17 19 18 17 19 18 20 5 21 23 22 24 23 25 24
DOCKED: REMARK SMILES IDX 26 25 27 26 30 27 28 28 29 29 4 30 2 31 1 32 3 33
DOCKED: REMARK H PARENT 6 2 8 5 10 9
DOCKED: USER                              x       y       z     vdW  Elec       q    Type
DOCKED: USER                           _______ _______ _______ _____ _____    ______ ____
DOCKED: ROOT
DOCKED: ATOM      1  N   UNL     1     139.862  76.403 220.351 -0.03 +0.10    -0.347 N  
DOCKED: ATOM      2  H   UNL     1     139.777  76.272 219.317 +0.04 -0.05    +0.164 HD 
DOCKED: ENDROOT
DOCKED: BRANCH   1   3
DOCKED: ATOM      3  C   UNL     1     140.332  75.314 221.157 -0.22 -0.05    +0.201 C  
DOCKED: BRANCH   3   4
DOCKED: ATOM      4  O   UNL     1     141.442  75.516 221.980 -0.25 +0.15    -0.494 OA 
DOCKED: ATOM      5  H   UNL     1     141.990  76.367 221.946 -0.44 -0.23    +0.295 HD 
DOCKED: ENDBRANCH   3   4
DOCKED: BRANCH   3   6
DOCKED: ATOM      6  C   UNL     1     139.724  74.116 221.141 -0.18 -0.03    +0.152 C  
DOCKED: BRANCH   6   7
DOCKED: ATOM      7  N   UNL     1     139.574  73.311 222.323 -0.15 +0.06    -0.322 N  
DOCKED: ATOM      8  C   UNL     1     139.866  71.904 222.321 -0.19 -0.05    +0.273 C  
DOCKED: ATOM      9  H   UNL     1     139.341  73.766 223.233 -0.48 -0.07    +0.169 HD 
DOCKED: ATOM     10  O   UNL     1     140.106  71.312 221.231 -0.09 +0.04    -0.267 OA 
DOCKED: BRANCH   8  11
DOCKED: ATOM     11  C   UNL     1     139.903  71.147 223.592 -0.32 -0.02    +0.129 A  
DOCKED: ATOM     12  N   UNL     1     140.381  71.745 224.719 -0.28 +0.04    -0.243 NA 
DOCKED: ATOM     13  C   UNL     1     139.473  69.809 223.654 -0.26 -0.01    +0.035 A  
DOCKED: ATOM     14  C   UNL     1     140.469  71.093 225.908 -0.54 -0.01    +0.071 A  
DOCKED: ATOM     15  C   UNL     1     139.552  69.112 224.862 -0.38 -0.00    +0.013 A  
DOCKED: ATOM     16  C   UNL     1     140.982  71.749 227.034 -0.75 -0.01    +0.029 A  
DOCKED: ATOM     17  C   UNL     1     140.054  69.747 226.004 -0.49 -0.00    +0.000 A  
DOCKED: ATOM     18  C   UNL     1     141.079  71.072 228.254 -0.68 -0.00    +0.002 A  
DOCKED: ATOM     19  C   UNL     1     140.153  69.075 227.232 -0.60 -0.00    +0.010 A  
DOCKED: ATOM     20  C   UNL     1     140.665  69.739 228.352 -0.58 -0.00    +0.001 A  
DOCKED: ENDBRANCH   8  11
DOCKED: ENDBRANCH   6   7
DOCKED: ENDBRANCH   3   6
DOCKED: ENDBRANCH   1   3
DOCKED: BRANCH   1  21
DOCKED: ATOM     21  C   UNL     1     139.375  77.642 220.963 -0.13 -0.03    +0.130 C  
DOCKED: BRANCH  21  22
DOCKED: ATOM     22  C   UNL     1     140.540  78.579 221.115 -0.23 -0.03    +0.074 C  
DOCKED: ATOM     23  O   UNL     1     141.718  78.139 221.019 -0.20 +0.19    -0.318 OA 
DOCKED: BRANCH  22  24
DOCKED: ATOM     24  N   UNL     1     140.304  79.958 221.428 +0.08 +0.18    -0.649 NA 
DOCKED: BRANCH  24  25
DOCKED: ATOM     25  C   UNL     1     140.487  80.532 222.760 -0.35 +0.02    -0.107 C  
DOCKED: ATOM     26  C   UNL     1     141.803  81.293 222.806 -0.54 +0.00    -0.016 C  
DOCKED: ATOM     27  C   UNL     1     140.645  79.432 223.804 -0.50 +0.00    -0.016 C  
DOCKED: ATOM     28  C   UNL     1     142.864  80.259 223.159 -0.67 +0.00    -0.001 C  
DOCKED: ATOM     29  C   UNL     1     142.137  79.116 223.865 -0.53 +0.00    -0.001 C  
DOCKED: ENDBRANCH  24  25
DOCKED: ENDBRANCH  22  24
DOCKED: ENDBRANCH  21  22
DOCKED: BRANCH  21  30
DOCKED: ATOM     30  C   UNL     1     138.709  77.326 222.326 -0.29 -0.01    +0.034 C  
DOCKED: BRANCH  30  31
DOCKED: ATOM     31  C   UNL     1     137.161  77.224 222.343 -0.22 +0.00    -0.015 C  
DOCKED: ATOM     32  C   UNL     1     136.479  78.517 222.810 -0.17 -0.00    +0.007 C  
DOCKED: ATOM     33  C   UNL     1     136.642  76.013 223.130 -0.27 -0.00    +0.007 C  
DOCKED: ENDBRANCH  30  31
DOCKED: ENDBRANCH  21  30
DOCKED: ENDBRANCH   1  21
DOCKED: TORSDOF 11
DOCKED: TER
DOCKED: ENDMDL
________________________________________________________________________________


    FINAL DOCKED STATE:
    ________________________


Run:   20 / 20
Time taken for this run:   0.080s

DOCKED: MODEL        20
DOCKED: USER    Run = 20
DOCKED: USER
DOCKED: USER    Estimated Free Energy of Binding    =  -7.17 kcal/mol  [=(1)+(2)+(3)-(4)]
DOCKED: USER
DOCKED: USER    (1) Final Intermolecular Energy     = -10.45 kcal/mol
DOCKED: USER        vdW + Hbond + desolv Energy     = -10.62 kcal/mol
DOCKED: USER        Electrostatic Energy            =  +0.17 kcal/mol
DOCKED: USER        Moving Ligand-Fixed Receptor    = -10.45 kcal/mol
DOCKED: USER        Moving Ligand-Moving Receptor   =  +0.00 kcal/mol
DOCKED: USER    (2) Final Total Internal Energy     =  -3.24 kcal/mol
DOCKED: USER    (3) Torsional Free Energy           =  +3.28 kcal/mol
DOCKED: USER    (4) Unbound System's Energy         =  -3.24 kcal/mol
DOCKED: USER
DOCKED: USER
DOCKED: REMARK SMILES CC(C)C[C@H](N/C(O)=C\NC(=O)c1ccc2ccccc2n1)C(=O)[N-]C1CCCC1
DOCKED: REMARK SMILES IDX 6 1 7 3 8 4 9 6 10 7 11 8 12 10 13 11 22 12 14 13 21 14
DOCKED: REMARK SMILES IDX 15 15 20 16 16 17 19 18 17 19 18 20 5 21 23 22 24 23 25 24
DOCKED: REMARK SMILES IDX 26 25 27 26 30 27 28 28 29 29 4 30 2 31 1 32 3 33
DOCKED: REMARK H PARENT 6 2 8 5 10 9
DOCKED: USER                              x       y       z     vdW  Elec       q    Type
DOCKED: USER                           _______ _______ _______ _____ _____    ______ ____
DOCKED: ROOT
DOCKED: ATOM      1  N   UNL     1     139.308  75.073 222.354 -0.14 +0.07    -0.347 N  
DOCKED: ATOM      2  H   UNL     1     139.528  74.553 223.235 -0.49 -0.01    +0.164 HD 
DOCKED: ENDROOT
DOCKED: BRANCH   1   3
DOCKED: ATOM      3  C   UNL     1     138.448  74.466 221.380 -0.14 -0.05    +0.201 C  
DOCKED: BRANCH   3   4
DOCKED: ATOM      4  O   UNL     1     137.621  75.285 220.609 -0.00 +0.10    -0.494 OA 
DOCKED: ATOM      5  H   UNL     1     137.344  76.210 220.913 +0.05 -0.06    +0.295 HD 
DOCKED: ENDBRANCH   3   4
DOCKED: BRANCH   3   6
DOCKED: ATOM      6  C   UNL     1     138.430  73.136 221.193 -0.11 -0.03    +0.152 C  
DOCKED: BRANCH   6   7
DOCKED: ATOM      7  N   UNL     1     138.741  72.205 222.244 -0.10 +0.08    -0.322 N  
DOCKED: ATOM      8  C   UNL     1     139.995  72.250 222.946 -0.19 -0.04    +0.273 C  
DOCKED: ATOM      9  H   UNL     1     138.011  71.539 222.580 +0.03 -0.04    +0.169 HD 
DOCKED: ATOM     10  O   UNL     1     140.918  73.010 222.540 -0.55 -0.01    -0.267 OA 
DOCKED: BRANCH   8  11
DOCKED: ATOM     11  C   UNL     1     140.205  71.420 224.154 -0.37 -0.02    +0.129 A  
DOCKED: ATOM     12  N   UNL     1     139.616  70.194 224.239 -0.19 +0.04    -0.243 NA 
DOCKED: ATOM     13  C   UNL     1     140.983  71.885 225.229 -0.30 -0.00    +0.035 A  
DOCKED: ATOM     14  C   UNL     1     139.745  69.400 225.335 -0.38 -0.01    +0.071 A  
DOCKED: ATOM     15  C   UNL     1     141.134  71.091 226.369 -0.65 -0.00    +0.013 A  
DOCKED: ATOM     16  C   UNL     1     139.108  68.153 225.378 -0.45 -0.00    +0.029 A  
DOCKED: ATOM     17  C   UNL     1     140.514  69.838 226.435 -0.54 -0.00    +0.000 A  
DOCKED: ATOM     18  C   UNL     1     139.236  67.343 226.511 -0.55 -0.00    +0.002 A  
DOCKED: ATOM     19  C   UNL     1     140.639  69.018 227.567 -0.63 -0.00    +0.010 A  
DOCKED: ATOM     20  C   UNL     1     140.000  67.773 227.601 -0.48 -0.00    +0.001 A  
DOCKED: ENDBRANCH   8  11
DOCKED: ENDBRANCH   6   7
DOCKED: ENDBRANCH   3   6
DOCKED: ENDBRANCH   1   3
DOCKED: BRANCH   1  21
DOCKED: ATOM     21  C   UNL     1     139.984  76.343 222.080 -0.31 -0.03    +0.130 C  
DOCKED: BRANCH  21  22
DOCKED: ATOM     22  C   UNL     1     139.040  77.461 222.424 -0.28 -0.01    +0.074 C  
DOCKED: ATOM     23  O   UNL     1     137.815  77.219 222.596 -0.17 +0.06    -0.318 OA 
DOCKED: BRANCH  22  24
DOCKED: ATOM     24  N   UNL     1     139.532  78.806 222.495 +0.04 +0.13    -0.649 NA 
DOCKED: BRANCH  24  25
DOCKED: ATOM     25  C   UNL     1     140.283  79.338 223.630 -0.39 +0.02    -0.107 C  
DOCKED: ATOM     26  C   UNL     1     140.551  80.818 223.410 -0.46 +0.00    -0.016 C  
DOCKED: ATOM     27  C   UNL     1     141.669  78.705 223.703 -0.58 +0.00    -0.016 C  
DOCKED: ATOM     28  C   UNL     1     141.834  80.887 222.591 -0.56 +0.00    -0.001 C  
DOCKED: ATOM     29  C   UNL     1     142.580  79.578 222.843 -0.62 +0.00    -0.001 C  
DOCKED: ENDBRANCH  24  25
DOCKED: ENDBRANCH  22  24
DOCKED: ENDBRANCH  21  22
DOCKED: BRANCH  21  30
DOCKED: ATOM     30  C   UNL     1     140.419  76.393 220.594 -0.20 -0.01    +0.034 C  
DOCKED: BRANCH  30  31
DOCKED: ATOM     31  C   UNL     1     141.826  76.974 220.294 -0.29 +0.01    -0.015 C  
DOCKED: ATOM     32  C   UNL     1     141.783  78.225 219.406 -0.28 -0.00    +0.007 C  
DOCKED: ATOM     33  C   UNL     1     142.804  75.934 219.733 -0.36 -0.00    +0.007 C  
DOCKED: ENDBRANCH  30  31
DOCKED: ENDBRANCH  21  30
DOCKED: ENDBRANCH   1  21
DOCKED: TORSDOF 11
DOCKED: TER
DOCKED: ENDMDL
________________________________________________________________________________


    CLUSTERING HISTOGRAM
    ____________________


________________________________________________________________________________
     |           |     |           |     |
Clus | Lowest    | Run | Mean      | Num | Histogram
-ter | Binding   |     | Binding   | in  |
Rank | Energy    |     | Energy    | Clus|    5    10   15   20   25   30   35
_____|___________|_____|___________|_____|____:____|____:____|____:____|____:___
   1 |     -7.88 |  16 |     -7.39 |  15 |###############
   2 |     -7.34 |  18 |     -7.05 |   3 |###
   3 |     -6.52 |  10 |     -6.39 |   2 |##
_____|___________|_____|___________|_____|______________________________________


    RMSD TABLE
    __________


_______________________________________________________________________
     |      |      |           |         |                 |
Rank | Sub- | Run  | Binding   | Cluster | Reference       | Grep
     | Rank |      | Energy    | RMSD    | RMSD            | Pattern
_____|______|______|___________|_________|_________________|___________
   1      1     16       -7.88      0.00    272.35           RANKING
   1      2     12       -7.87      1.54    272.05           RANKING
   1      3      4       -7.75      1.73    272.11           RANKING
   1      4      1       -7.61      1.83    271.86           RANKING
   1      5      6       -7.60      1.81    271.91           RANKING
   1      6     13       -7.56      1.70    272.13           RANKING
   1      7      8       -7.54      1.68    272.14           RANKING
   1      8      7       -7.45      1.68    272.11           RANKING
   1      9     19       -7.42      1.34    272.05           RANKING
   1     10     14       -7.36      1.62    272.10           RANKING
   1     11      2       -7.36      1.67    271.87           RANKING
   1     12     20       -7.17      1.93    271.77           RANKING
   1     13     17       -7.15      1.67    272.03           RANKING
   1     14      9       -6.57      1.82    271.64           RANKING
   1     15     15       -6.56      1.90    271.71           RANKING
   2      1     18       -7.34      0.00    271.38           RANKING
   2      2      3       -6.96      1.17    271.42           RANKING
   2      3      5       -6.85      1.24    271.41           RANKING
   3      1     10       -6.52      0.00    271.55           RANKING
   3      2     11       -6.25      1.75    271.60           RANKING

Run time 1.585 sec
Idle time 0.000 sec
