AutoDock-GPU version: v1.6

**********************************************************
**    AutoDock-GPU AUTODOCKTOOLS-COMPATIBLE DLG FILE    **
**********************************************************


    DOCKING PARAMETERS
    ________________________


Ligand file:                               /home/a/REINVENT4/ReinventStudies/pleaseWork/justmol2mol_4_Compounds_ontop/graph-dock-8u2o5u/graph-DockGPU/node-autodockgpu/inputs/BQTZNUHAYFARIO-MWNLYWGUNA-N.pdbqt
Grid fld file:                             /home/a/REINVENT4/ReinventStudies/mols/Rad51/maps/rad51_receptor.maps.fld

Random seed:                               42
Number of runs:                            20
Number of energy evaluations:              1259779
Number of generations:                     42000
Size of population:                        150
Rate of crossover:                         80.000000%
Tournament selection probability limit:    60.000000%
Rate of mutation:                          2.000000%
Maximal allowed delta movement:            +/- 6.000000A
Maximal allowed delta angle:               +/- 90.000000

Rate of local search:                      100.000000%
Maximal number of local search iterations: 300
Rho lower bound:                           0.010000
Spread of local search delta movement:     2.000000A
Spread of local search delta angle:        74.999999
Limit of consecutive successes/failures:   4

Handle symmetry during clustering:         YES
RMSD tolerance:                            2.000000A

Program call in command line was:          /home/a/REINVENT4/ReinventStudies/adgpu-v1.6_linux_x64_cuda12_128wi --filelist batch.txt --heuristics 1 --nrun 20 --psize 150 --lsit 300 --seed 42 --heurmax 12000000 


    GRID PARAMETERS
    ________________________


Receptor name:                             rad51_receptor
Number of grid points (x, y, z):           53, 53, 53
Grid center (x, y, z):                     139.950000, 75.640000, 221.970000A
Grid size (x, y, z):                       19.500000, 19.500000, 19.500000A
Grid spacing:                              0.375000A


    LIGAND PARAMETERS
    ________________________


Ligand name:                               /home/a/REINVENT4/ReinventStudies/pleaseWork/justmol2mol_4_Compounds_ontop/graph-dock-8u2o5u/graph-DockGPU/node-autodockgpu/inputs/BQTZNUHAYFARIO-MWNLYWGUNA-N
Number of atoms:                           24
Number of rotatable bonds:                 7
Number of atom types:                      6


    DUMMY DATA (only for ADT-compatibility)
    ________________________


DPF> outlev 1
DPF> ga_run 20
DPF> fld /home/a/REINVENT4/ReinventStudies/mols/Rad51/maps/rad51_receptor.maps.fld
DPF> move /home/a/REINVENT4/ReinventStudies/pleaseWork/justmol2mol_4_Compounds_ontop/graph-dock-8u2o5u/graph-DockGPU/node-autodockgpu/inputs/BQTZNUHAYFARIO-MWNLYWGUNA-N.pdbqt


    COUNTER STATES
    ________________________


Number of energy evaluations performed:    561495
Number of generations used:                30


    INPUT LIGAND PDBQT FILE:
    ________________________


INPUT-LIGAND-PDBQT: REMARK SMILES CC(C)CN/C(O)=C\NC(=O)c1ccc2ccccc2n1
INPUT-LIGAND-PDBQT: REMARK SMILES IDX 6 1 7 2 8 4 9 5 10 6 11 8 12 9 21 10 13 11 20 12 14 13 19 14
INPUT-LIGAND-PDBQT: REMARK SMILES IDX 15 15 18 16 16 17 17 18 5 19 4 21 2 22 1 23 3 24
INPUT-LIGAND-PDBQT: REMARK H PARENT 7 3 9 7 5 20
INPUT-LIGAND-PDBQT: ROOT
INPUT-LIGAND-PDBQT: ATOM      1  C   UNL     1      -3.241  -0.345   0.494  1.00  0.00     0.200 C 
INPUT-LIGAND-PDBQT: ENDROOT
INPUT-LIGAND-PDBQT: BRANCH   1   2
INPUT-LIGAND-PDBQT: ATOM      2  O   UNL     1      -4.621  -0.431   0.678  1.00  0.00    -0.494 OA
INPUT-LIGAND-PDBQT: ATOM      3  H   UNL     1      -5.273  -0.098  -0.020  1.00  0.00     0.295 HD
INPUT-LIGAND-PDBQT: ENDBRANCH   1   2
INPUT-LIGAND-PDBQT: BRANCH   1   4
INPUT-LIGAND-PDBQT: ATOM      4  C   UNL     1      -2.440  -0.898   1.413  1.00  0.00     0.152 C 
INPUT-LIGAND-PDBQT: BRANCH   4   5
INPUT-LIGAND-PDBQT: ATOM      5  N   UNL     1      -1.013  -0.791   1.349  1.00  0.00    -0.322 N 
INPUT-LIGAND-PDBQT: ATOM      6  C   UNL     1      -0.235  -1.467   0.352  1.00  0.00     0.273 C 
INPUT-LIGAND-PDBQT: ATOM      7  H   UNL     1      -0.526  -0.360   2.166  1.00  0.00     0.169 HD
INPUT-LIGAND-PDBQT: ATOM      8  O   UNL     1      -0.772  -2.354  -0.368  1.00  0.00    -0.267 OA
INPUT-LIGAND-PDBQT: BRANCH   6   9
INPUT-LIGAND-PDBQT: ATOM      9  C   UNL     1       1.188  -1.119   0.158  1.00  0.00     0.129 A 
INPUT-LIGAND-PDBQT: ATOM     10  N   UNL     1       1.726  -0.084   0.861  1.00  0.00    -0.243 NA
INPUT-LIGAND-PDBQT: ATOM     11  C   UNL     1       1.989  -1.822  -0.758  1.00  0.00     0.035 A 
INPUT-LIGAND-PDBQT: ATOM     12  C   UNL     1       3.023   0.296   0.712  1.00  0.00     0.071 A 
INPUT-LIGAND-PDBQT: ATOM     13  C   UNL     1       3.326  -1.455  -0.932  1.00  0.00     0.013 A 
INPUT-LIGAND-PDBQT: ATOM     14  C   UNL     1       3.531   1.368   1.455  1.00  0.00     0.029 A 
INPUT-LIGAND-PDBQT: ATOM     15  C   UNL     1       3.858  -0.389  -0.197  1.00  0.00     0.000 A 
INPUT-LIGAND-PDBQT: ATOM     16  C   UNL     1       4.866   1.756   1.299  1.00  0.00     0.002 A 
INPUT-LIGAND-PDBQT: ATOM     17  C   UNL     1       5.195   0.006  -0.348  1.00  0.00     0.010 A 
INPUT-LIGAND-PDBQT: ATOM     18  C   UNL     1       5.695   1.077   0.400  1.00  0.00     0.001 A 
INPUT-LIGAND-PDBQT: ENDBRANCH   6   9
INPUT-LIGAND-PDBQT: ENDBRANCH   4   5
INPUT-LIGAND-PDBQT: ENDBRANCH   1   4
INPUT-LIGAND-PDBQT: BRANCH   1  19
INPUT-LIGAND-PDBQT: ATOM     19  N   UNL     1      -2.708   0.342  -0.650  1.00  0.00    -0.355 N 
INPUT-LIGAND-PDBQT: ATOM     20  H   UNL     1      -1.837  -0.007  -1.105  1.00  0.00     0.163 HD
INPUT-LIGAND-PDBQT: BRANCH  19  21
INPUT-LIGAND-PDBQT: ATOM     21  C   UNL     1      -3.216   1.643  -1.089  1.00  0.00     0.119 C 
INPUT-LIGAND-PDBQT: BRANCH  21  22
INPUT-LIGAND-PDBQT: ATOM     22  C   UNL     1      -2.310   2.800  -0.617  1.00  0.00     0.002 C 
INPUT-LIGAND-PDBQT: ATOM     23  C   UNL     1      -2.292   2.921   0.912  1.00  0.00     0.009 C 
INPUT-LIGAND-PDBQT: ATOM     24  C   UNL     1      -0.882   2.678  -1.168  1.00  0.00     0.009 C 
INPUT-LIGAND-PDBQT: ENDBRANCH  21  22
INPUT-LIGAND-PDBQT: ENDBRANCH  19  21
INPUT-LIGAND-PDBQT: ENDBRANCH   1  19
INPUT-LIGAND-PDBQT: TORSDOF 7


    FINAL DOCKED STATE:
    ________________________


Run:   1 / 20
Time taken for this run:   0.021s

DOCKED: MODEL        1
DOCKED: USER    Run = 1
DOCKED: USER
DOCKED: USER    Estimated Free Energy of Binding    =  -6.81 kcal/mol  [=(1)+(2)+(3)-(4)]
DOCKED: USER
DOCKED: USER    (1) Final Intermolecular Energy     =  -8.90 kcal/mol
DOCKED: USER        vdW + Hbond + desolv Energy     =  -8.78 kcal/mol
DOCKED: USER        Electrostatic Energy            =  -0.12 kcal/mol
DOCKED: USER        Moving Ligand-Fixed Receptor    =  -8.90 kcal/mol
DOCKED: USER        Moving Ligand-Moving Receptor   =  +0.00 kcal/mol
DOCKED: USER    (2) Final Total Internal Energy     =  -1.44 kcal/mol
DOCKED: USER    (3) Torsional Free Energy           =  +2.09 kcal/mol
DOCKED: USER    (4) Unbound System's Energy         =  -1.44 kcal/mol
DOCKED: USER
DOCKED: USER
DOCKED: REMARK SMILES CC(C)CN/C(O)=C\NC(=O)c1ccc2ccccc2n1
DOCKED: REMARK SMILES IDX 6 1 7 2 8 4 9 5 10 6 11 8 12 9 21 10 13 11 20 12 14 13 19 14
DOCKED: REMARK SMILES IDX 15 15 18 16 16 17 17 18 5 19 4 21 2 22 1 23 3 24
DOCKED: REMARK H PARENT 7 3 9 7 5 20
DOCKED: USER                              x       y       z     vdW  Elec       q    Type
DOCKED: USER                           _______ _______ _______ _____ _____    ______ ____
DOCKED: ROOT
DOCKED: ATOM      1  C   UNL     1     141.443  74.766 220.953 -0.22 -0.05    +0.200 C  
DOCKED: ENDROOT
DOCKED: BRANCH   1   2
DOCKED: ATOM      2  O   UNL     1     141.784  76.109 221.114 -0.07 +0.26    -0.494 OA 
DOCKED: ATOM      3  H   UNL     1     142.150  76.464 221.987 -0.44 -0.27    +0.295 HD 
DOCKED: ENDBRANCH   1   2
DOCKED: BRANCH   1   4
DOCKED: ATOM      4  C   UNL     1     140.186  74.391 221.222 -0.22 -0.03    +0.152 C  
DOCKED: BRANCH   4   5
DOCKED: ATOM      5  N   UNL     1     139.865  73.514 222.308 -0.14 +0.04    -0.322 N  
DOCKED: ATOM      6  C   UNL     1     140.282  72.143 222.338 -0.21 -0.03    +0.273 C  
DOCKED: ATOM      7  H   UNL     1     139.150  73.842 222.995 -0.53 -0.07    +0.169 HD 
DOCKED: ATOM      8  O   UNL     1     140.763  71.610 221.300 -0.13 +0.04    -0.267 OA 
DOCKED: BRANCH   6   9
DOCKED: ATOM      9  C   UNL     1     140.163  71.357 223.585 -0.32 -0.02    +0.129 A  
DOCKED: ATOM     10  N   UNL     1     140.641  71.875 224.750 -0.27 +0.03    -0.243 NA 
DOCKED: ATOM     11  C   UNL     1     139.587  70.076 223.583 -0.27 -0.01    +0.035 A  
DOCKED: ATOM     12  C   UNL     1     140.577  71.193 225.925 -0.55 -0.01    +0.071 A  
DOCKED: ATOM     13  C   UNL     1     139.507  69.351 224.775 -0.37 -0.00    +0.013 A  
DOCKED: ATOM     14  C   UNL     1     141.085  71.765 227.098 -0.76 -0.01    +0.029 A  
DOCKED: ATOM     15  C   UNL     1     140.003  69.904 225.961 -0.49 -0.00    +0.000 A  
DOCKED: ATOM     16  C   UNL     1     141.017  71.060 228.304 -0.67 -0.00    +0.002 A  
DOCKED: ATOM     17  C   UNL     1     139.939  69.204 227.175 -0.58 -0.00    +0.010 A  
DOCKED: ATOM     18  C   UNL     1     140.447  69.784 228.342 -0.60 -0.00    +0.001 A  
DOCKED: ENDBRANCH   6   9
DOCKED: ENDBRANCH   4   5
DOCKED: ENDBRANCH   1   4
DOCKED: BRANCH   1  19
DOCKED: ATOM     19  N   UNL     1     142.434  73.817 220.527 -0.11 +0.08    -0.355 N  
DOCKED: ATOM     20  H   UNL     1     142.178  72.811 220.423 +0.06 -0.03    +0.163 HD 
DOCKED: BRANCH  19  21
DOCKED: ATOM     21  C   UNL     1     143.854  74.158 220.429 -0.35 -0.04    +0.119 C  
DOCKED: BRANCH  21  22
DOCKED: ATOM     22  C   UNL     1     144.757  72.980 220.852 -0.50 -0.00    +0.002 C  
DOCKED: ATOM     23  C   UNL     1     144.900  71.942 219.731 -0.34 +0.00    +0.009 C  
DOCKED: ATOM     24  C   UNL     1     146.136  73.451 221.333 -0.71 -0.00    +0.009 C  
DOCKED: ENDBRANCH  21  22
DOCKED: ENDBRANCH  19  21
DOCKED: ENDBRANCH   1  19
DOCKED: TORSDOF 7
DOCKED: TER
DOCKED: ENDMDL
________________________________________________________________________________


    FINAL DOCKED STATE:
    ________________________


Run:   2 / 20
Time taken for this run:   0.021s

DOCKED: MODEL        2
DOCKED: USER    Run = 2
DOCKED: USER
DOCKED: USER    Estimated Free Energy of Binding    =  -5.86 kcal/mol  [=(1)+(2)+(3)-(4)]
DOCKED: USER
DOCKED: USER    (1) Final Intermolecular Energy     =  -7.95 kcal/mol
DOCKED: USER        vdW + Hbond + desolv Energy     =  -7.86 kcal/mol
DOCKED: USER        Electrostatic Energy            =  -0.09 kcal/mol
DOCKED: USER        Moving Ligand-Fixed Receptor    =  -7.95 kcal/mol
DOCKED: USER        Moving Ligand-Moving Receptor   =  +0.00 kcal/mol
DOCKED: USER    (2) Final Total Internal Energy     =  -1.33 kcal/mol
DOCKED: USER    (3) Torsional Free Energy           =  +2.09 kcal/mol
DOCKED: USER    (4) Unbound System's Energy         =  -1.33 kcal/mol
DOCKED: USER
DOCKED: USER
DOCKED: REMARK SMILES CC(C)CN/C(O)=C\NC(=O)c1ccc2ccccc2n1
DOCKED: REMARK SMILES IDX 6 1 7 2 8 4 9 5 10 6 11 8 12 9 21 10 13 11 20 12 14 13 19 14
DOCKED: REMARK SMILES IDX 15 15 18 16 16 17 17 18 5 19 4 21 2 22 1 23 3 24
DOCKED: REMARK H PARENT 7 3 9 7 5 20
DOCKED: USER                              x       y       z     vdW  Elec       q    Type
DOCKED: USER                           _______ _______ _______ _____ _____    ______ ____
DOCKED: ROOT
DOCKED: ATOM      1  C   UNL     1     140.082  74.104 221.255 -0.20 -0.03    +0.200 C  
DOCKED: ENDROOT
DOCKED: BRANCH   1   2
DOCKED: ATOM      2  O   UNL     1     139.424  74.674 222.345 -0.61 +0.08    -0.494 OA 
DOCKED: ATOM      3  H   UNL     1     138.835  74.126 222.958 -0.50 -0.16    +0.295 HD 
DOCKED: ENDBRANCH   1   2
DOCKED: BRANCH   1   4
DOCKED: ATOM      4  C   UNL     1     140.222  72.774 221.220 -0.18 -0.02    +0.152 C  
DOCKED: BRANCH   4   5
DOCKED: ATOM      5  N   UNL     1     140.439  71.995 222.403 -0.17 +0.04    -0.322 N  
DOCKED: ATOM      6  C   UNL     1     139.364  71.570 223.252 -0.20 -0.06    +0.273 C  
DOCKED: ATOM      7  H   UNL     1     141.421  71.902 222.744 +0.07 -0.00    +0.169 HD 
DOCKED: ATOM      8  O   UNL     1     138.211  72.059 223.096 -0.12 +0.09    -0.267 OA 
DOCKED: BRANCH   6   9
DOCKED: ATOM      9  C   UNL     1     139.601  70.555 224.299 -0.32 -0.02    +0.129 A  
DOCKED: ATOM     10  N   UNL     1     140.201  70.923 225.465 -0.32 +0.04    -0.243 NA 
DOCKED: ATOM     11  C   UNL     1     139.241  69.211 224.101 -0.29 -0.01    +0.035 A  
DOCKED: ATOM     12  C   UNL     1     140.463  70.031 226.457 -0.49 -0.01    +0.071 A  
DOCKED: ATOM     13  C   UNL     1     139.497  68.272 225.104 -0.42 -0.00    +0.013 A  
DOCKED: ATOM     14  C   UNL     1     141.083  70.456 227.638 -0.59 -0.01    +0.029 A  
DOCKED: ATOM     15  C   UNL     1     140.112  68.673 226.295 -0.57 -0.00    +0.000 A  
DOCKED: ATOM     16  C   UNL     1     141.351  69.535 228.657 -0.37 -0.00    +0.002 A  
DOCKED: ATOM     17  C   UNL     1     140.384  67.756 227.321 -0.60 -0.00    +0.010 A  
DOCKED: ATOM     18  C   UNL     1     141.003  68.190 228.498 -0.66 -0.00    +0.001 A  
DOCKED: ENDBRANCH   6   9
DOCKED: ENDBRANCH   4   5
DOCKED: ENDBRANCH   1   4
DOCKED: BRANCH   1  19
DOCKED: ATOM     19  N   UNL     1     140.610  74.942 220.213 -0.04 +0.09    -0.355 N  
DOCKED: ATOM     20  H   UNL     1     140.259  74.837 219.237 +0.03 -0.04    +0.163 HD 
DOCKED: BRANCH  19  21
DOCKED: ATOM     21  C   UNL     1     141.776  75.803 220.416 -0.24 -0.05    +0.119 C  
DOCKED: BRANCH  21  22
DOCKED: ATOM     22  C   UNL     1     142.898  75.496 219.401 -0.33 -0.00    +0.002 C  
DOCKED: ATOM     23  C   UNL     1     143.317  76.747 218.620 -0.32 -0.01    +0.009 C  
DOCKED: ATOM     24  C   UNL     1     144.115  74.838 220.067 -0.43 -0.00    +0.009 C  
DOCKED: ENDBRANCH  21  22
DOCKED: ENDBRANCH  19  21
DOCKED: ENDBRANCH   1  19
DOCKED: TORSDOF 7
DOCKED: TER
DOCKED: ENDMDL
________________________________________________________________________________


    FINAL DOCKED STATE:
    ________________________


Run:   3 / 20
Time taken for this run:   0.021s

DOCKED: MODEL        3
DOCKED: USER    Run = 3
DOCKED: USER
DOCKED: USER    Estimated Free Energy of Binding    =  -6.54 kcal/mol  [=(1)+(2)+(3)-(4)]
DOCKED: USER
DOCKED: USER    (1) Final Intermolecular Energy     =  -8.62 kcal/mol
DOCKED: USER        vdW + Hbond + desolv Energy     =  -8.50 kcal/mol
DOCKED: USER        Electrostatic Energy            =  -0.13 kcal/mol
DOCKED: USER        Moving Ligand-Fixed Receptor    =  -8.62 kcal/mol
DOCKED: USER        Moving Ligand-Moving Receptor   =  +0.00 kcal/mol
DOCKED: USER    (2) Final Total Internal Energy     =  -0.73 kcal/mol
DOCKED: USER    (3) Torsional Free Energy           =  +2.09 kcal/mol
DOCKED: USER    (4) Unbound System's Energy         =  -0.73 kcal/mol
DOCKED: USER
DOCKED: USER
DOCKED: REMARK SMILES CC(C)CN/C(O)=C\NC(=O)c1ccc2ccccc2n1
DOCKED: REMARK SMILES IDX 6 1 7 2 8 4 9 5 10 6 11 8 12 9 21 10 13 11 20 12 14 13 19 14
DOCKED: REMARK SMILES IDX 15 15 18 16 16 17 17 18 5 19 4 21 2 22 1 23 3 24
DOCKED: REMARK H PARENT 7 3 9 7 5 20
DOCKED: USER                              x       y       z     vdW  Elec       q    Type
DOCKED: USER                           _______ _______ _______ _____ _____    ______ ____
DOCKED: ROOT
DOCKED: ATOM      1  C   UNL     1     140.552  75.428 221.140 -0.22 -0.05    +0.200 C  
DOCKED: ENDROOT
DOCKED: BRANCH   1   2
DOCKED: ATOM      2  O   UNL     1     141.898  75.529 220.788 -0.11 +0.22    -0.494 OA 
DOCKED: ATOM      3  H   UNL     1     142.545  76.101 221.315 -0.39 -0.26    +0.295 HD 
DOCKED: ENDBRANCH   1   2
DOCKED: BRANCH   1   4
DOCKED: ATOM      4  C   UNL     1     139.977  74.220 221.116 -0.20 -0.03    +0.152 C  
DOCKED: BRANCH   4   5
DOCKED: ATOM      5  N   UNL     1     139.770  73.446 222.304 -0.15 +0.04    -0.322 N  
DOCKED: ATOM      6  C   UNL     1     139.813  72.013 222.305 -0.19 -0.05    +0.273 C  
DOCKED: ATOM      7  H   UNL     1     139.395  73.943 223.142 -0.51 -0.05    +0.169 HD 
DOCKED: ATOM      8  O   UNL     1     139.819  71.384 221.210 -0.08 +0.04    -0.267 OA 
DOCKED: BRANCH   6   9
DOCKED: ATOM      9  C   UNL     1     139.864  71.272 223.583 -0.32 -0.02    +0.129 A  
DOCKED: ATOM     10  N   UNL     1     140.376  71.880 224.689 -0.27 +0.04    -0.243 NA 
DOCKED: ATOM     11  C   UNL     1     139.416  69.943 223.670 -0.27 -0.01    +0.035 A  
DOCKED: ATOM     12  C   UNL     1     140.466  71.245 225.888 -0.54 -0.01    +0.071 A  
DOCKED: ATOM     13  C   UNL     1     139.495  69.265 224.889 -0.38 -0.00    +0.013 A  
DOCKED: ATOM     14  C   UNL     1     141.002  71.910 226.997 -0.76 -0.01    +0.029 A  
DOCKED: ATOM     15  C   UNL     1     140.023  69.910 226.013 -0.50 -0.00    +0.000 A  
DOCKED: ATOM     16  C   UNL     1     141.094  71.253 228.228 -0.72 -0.00    +0.002 A  
DOCKED: ATOM     17  C   UNL     1     140.119  69.258 227.251 -0.59 -0.00    +0.010 A  
DOCKED: ATOM     18  C   UNL     1     140.653  69.931 228.355 -0.57 -0.00    +0.001 A  
DOCKED: ENDBRANCH   6   9
DOCKED: ENDBRANCH   4   5
DOCKED: ENDBRANCH   1   4
DOCKED: BRANCH   1  19
DOCKED: ATOM     19  N   UNL     1     139.811  76.606 221.497 -0.11 +0.09    -0.355 N  
DOCKED: ATOM     20  H   UNL     1     139.133  77.017 220.820 +0.05 -0.04    +0.163 HD 
DOCKED: BRANCH  19  21
DOCKED: ATOM     21  C   UNL     1     140.112  77.387 222.698 -0.24 -0.03    +0.119 C  
DOCKED: BRANCH  21  22
DOCKED: ATOM     22  C   UNL     1     141.361  78.274 222.506 -0.47 -0.00    +0.002 C  
DOCKED: ATOM     23  C   UNL     1     141.216  79.204 221.295 -0.34 -0.00    +0.009 C  
DOCKED: ATOM     24  C   UNL     1     141.700  79.077 223.770 -0.62 -0.00    +0.009 C  
DOCKED: ENDBRANCH  21  22
DOCKED: ENDBRANCH  19  21
DOCKED: ENDBRANCH   1  19
DOCKED: TORSDOF 7
DOCKED: TER
DOCKED: ENDMDL
________________________________________________________________________________


    FINAL DOCKED STATE:
    ________________________


Run:   4 / 20
Time taken for this run:   0.021s

DOCKED: MODEL        4
DOCKED: USER    Run = 4
DOCKED: USER
DOCKED: USER    Estimated Free Energy of Binding    =  -5.81 kcal/mol  [=(1)+(2)+(3)-(4)]
DOCKED: USER
DOCKED: USER    (1) Final Intermolecular Energy     =  -7.90 kcal/mol
DOCKED: USER        vdW + Hbond + desolv Energy     =  -7.83 kcal/mol
DOCKED: USER        Electrostatic Energy            =  -0.07 kcal/mol
DOCKED: USER        Moving Ligand-Fixed Receptor    =  -7.90 kcal/mol
DOCKED: USER        Moving Ligand-Moving Receptor   =  +0.00 kcal/mol
DOCKED: USER    (2) Final Total Internal Energy     =  -1.45 kcal/mol
DOCKED: USER    (3) Torsional Free Energy           =  +2.09 kcal/mol
DOCKED: USER    (4) Unbound System's Energy         =  -1.45 kcal/mol
DOCKED: USER
DOCKED: USER
DOCKED: REMARK SMILES CC(C)CN/C(O)=C\NC(=O)c1ccc2ccccc2n1
DOCKED: REMARK SMILES IDX 6 1 7 2 8 4 9 5 10 6 11 8 12 9 21 10 13 11 20 12 14 13 19 14
DOCKED: REMARK SMILES IDX 15 15 18 16 16 17 17 18 5 19 4 21 2 22 1 23 3 24
DOCKED: REMARK H PARENT 7 3 9 7 5 20
DOCKED: USER                              x       y       z     vdW  Elec       q    Type
DOCKED: USER                           _______ _______ _______ _____ _____    ______ ____
DOCKED: ROOT
DOCKED: ATOM      1  C   UNL     1     140.140  74.525 221.359 -0.21 -0.03    +0.200 C  
DOCKED: ENDROOT
DOCKED: BRANCH   1   2
DOCKED: ATOM      2  O   UNL     1     139.238  74.873 222.364 -0.51 +0.10    -0.494 OA 
DOCKED: ATOM      3  H   UNL     1     138.671  74.180 222.834 -0.50 -0.15    +0.295 HD 
DOCKED: ENDBRANCH   1   2
DOCKED: BRANCH   1   4
DOCKED: ATOM      4  C   UNL     1     140.729  73.324 221.420 -0.23 -0.02    +0.152 C  
DOCKED: BRANCH   4   5
DOCKED: ATOM      5  N   UNL     1     140.660  72.495 222.586 -0.18 +0.02    -0.322 N  
DOCKED: ATOM      6  C   UNL     1     139.463  71.802 222.967 -0.19 -0.06    +0.273 C  
DOCKED: ATOM      7  H   UNL     1     141.449  72.556 223.267 +0.09 +0.02    +0.169 HD 
DOCKED: ATOM      8  O   UNL     1     138.370  72.079 222.401 -0.13 +0.07    -0.267 OA 
DOCKED: BRANCH   6   9
DOCKED: ATOM      9  C   UNL     1     139.511  70.758 224.012 -0.31 -0.02    +0.129 A  
DOCKED: ATOM     10  N   UNL     1     140.182  71.000 225.171 -0.31 +0.04    -0.243 NA 
DOCKED: ATOM     11  C   UNL     1     138.896  69.509 223.818 -0.28 -0.01    +0.035 A  
DOCKED: ATOM     12  C   UNL     1     140.278  70.073 226.161 -0.47 -0.01    +0.071 A  
DOCKED: ATOM     13  C   UNL     1     138.976  68.536 224.818 -0.39 -0.00    +0.013 A  
DOCKED: ATOM     14  C   UNL     1     140.981  70.367 227.335 -0.58 -0.01    +0.029 A  
DOCKED: ATOM     15  C   UNL     1     139.670  68.808 226.002 -0.52 -0.00    +0.000 A  
DOCKED: ATOM     16  C   UNL     1     141.077  69.410 228.350 -0.59 -0.00    +0.002 A  
DOCKED: ATOM     17  C   UNL     1     139.770  67.854 227.025 -0.63 -0.00    +0.010 A  
DOCKED: ATOM     18  C   UNL     1     140.473  68.157 228.196 -0.63 -0.00    +0.001 A  
DOCKED: ENDBRANCH   6   9
DOCKED: ENDBRANCH   4   5
DOCKED: ENDBRANCH   1   4
DOCKED: BRANCH   1  19
DOCKED: ATOM     19  N   UNL     1     140.436  75.453 220.303 -0.05 +0.10    -0.355 N  
DOCKED: ATOM     20  H   UNL     1     139.802  75.517 219.477 +0.03 -0.04    +0.163 HD 
DOCKED: BRANCH  19  21
DOCKED: ATOM     21  C   UNL     1     141.708  76.174 220.227 -0.23 -0.06    +0.119 C  
DOCKED: BRANCH  21  22
DOCKED: ATOM     22  C   UNL     1     142.712  75.466 219.293 -0.30 -0.00    +0.002 C  
DOCKED: ATOM     23  C   UNL     1     143.273  76.420 218.232 -0.30 -0.01    +0.009 C  
DOCKED: ATOM     24  C   UNL     1     143.851  74.793 220.073 -0.42 -0.00    +0.009 C  
DOCKED: ENDBRANCH  21  22
DOCKED: ENDBRANCH  19  21
DOCKED: ENDBRANCH   1  19
DOCKED: TORSDOF 7
DOCKED: TER
DOCKED: ENDMDL
________________________________________________________________________________


    FINAL DOCKED STATE:
    ________________________


Run:   5 / 20
Time taken for this run:   0.021s

DOCKED: MODEL        5
DOCKED: USER    Run = 5
DOCKED: USER
DOCKED: USER    Estimated Free Energy of Binding    =  -6.25 kcal/mol  [=(1)+(2)+(3)-(4)]
DOCKED: USER
DOCKED: USER    (1) Final Intermolecular Energy     =  -8.34 kcal/mol
DOCKED: USER        vdW + Hbond + desolv Energy     =  -8.22 kcal/mol
DOCKED: USER        Electrostatic Energy            =  -0.12 kcal/mol
DOCKED: USER        Moving Ligand-Fixed Receptor    =  -8.34 kcal/mol
DOCKED: USER        Moving Ligand-Moving Receptor   =  +0.00 kcal/mol
DOCKED: USER    (2) Final Total Internal Energy     =  -1.45 kcal/mol
DOCKED: USER    (3) Torsional Free Energy           =  +2.09 kcal/mol
DOCKED: USER    (4) Unbound System's Energy         =  -1.45 kcal/mol
DOCKED: USER
DOCKED: USER
DOCKED: REMARK SMILES CC(C)CN/C(O)=C\NC(=O)c1ccc2ccccc2n1
DOCKED: REMARK SMILES IDX 6 1 7 2 8 4 9 5 10 6 11 8 12 9 21 10 13 11 20 12 14 13 19 14
DOCKED: REMARK SMILES IDX 15 15 18 16 16 17 17 18 5 19 4 21 2 22 1 23 3 24
DOCKED: REMARK H PARENT 7 3 9 7 5 20
DOCKED: USER                              x       y       z     vdW  Elec       q    Type
DOCKED: USER                           _______ _______ _______ _____ _____    ______ ____
DOCKED: ROOT
DOCKED: ATOM      1  C   UNL     1     141.034  74.764 220.858 -0.21 -0.05    +0.200 C  
DOCKED: ENDROOT
DOCKED: BRANCH   1   2
DOCKED: ATOM      2  O   UNL     1     141.888  73.823 220.281 -0.05 +0.11    -0.494 OA 
DOCKED: ATOM      3  H   UNL     1     141.628  72.849 220.198 +0.09 -0.05    +0.295 HD 
DOCKED: ENDBRANCH   1   2
DOCKED: BRANCH   1   4
DOCKED: ATOM      4  C   UNL     1     139.804  74.374 221.214 -0.20 -0.03    +0.152 C  
DOCKED: BRANCH   4   5
DOCKED: ATOM      5  N   UNL     1     139.572  73.481 222.310 -0.14 +0.06    -0.322 N  
DOCKED: ATOM      6  C   UNL     1     140.075  72.138 222.328 -0.20 -0.04    +0.273 C  
DOCKED: ATOM      7  H   UNL     1     138.860  73.765 223.019 -0.54 -0.10    +0.169 HD 
DOCKED: ATOM      8  O   UNL     1     140.556  71.634 221.276 -0.12 +0.04    -0.267 OA 
DOCKED: BRANCH   6   9
DOCKED: ATOM      9  C   UNL     1     140.044  71.350 223.578 -0.32 -0.02    +0.129 A  
DOCKED: ATOM     10  N   UNL     1     140.534  71.895 224.726 -0.26 +0.04    -0.243 NA 
DOCKED: ATOM     11  C   UNL     1     139.539  70.039 223.597 -0.27 -0.01    +0.035 A  
DOCKED: ATOM     12  C   UNL     1     140.550  71.213 225.902 -0.55 -0.01    +0.071 A  
DOCKED: ATOM     13  C   UNL     1     139.541  69.313 224.791 -0.37 -0.00    +0.013 A  
DOCKED: ATOM     14  C   UNL     1     141.067  71.813 227.056 -0.76 -0.01    +0.029 A  
DOCKED: ATOM     15  C   UNL     1     140.049  69.894 225.959 -0.50 -0.00    +0.000 A  
DOCKED: ATOM     16  C   UNL     1     141.082  71.108 228.264 -0.68 -0.00    +0.002 A  
DOCKED: ATOM     17  C   UNL     1     140.067  69.194 227.174 -0.59 -0.00    +0.010 A  
DOCKED: ATOM     18  C   UNL     1     140.583  69.803 228.322 -0.59 -0.00    +0.001 A  
DOCKED: ENDBRANCH   6   9
DOCKED: ENDBRANCH   4   5
DOCKED: ENDBRANCH   1   4
DOCKED: BRANCH   1  19
DOCKED: ATOM     19  N   UNL     1     141.474  76.120 221.039 -0.13 +0.16    -0.355 N  
DOCKED: ATOM     20  H   UNL     1     142.343  76.315 221.581 -0.49 -0.15    +0.163 HD 
DOCKED: BRANCH  19  21
DOCKED: ATOM     21  C   UNL     1     140.642  77.268 220.673 -0.19 -0.04    +0.119 C  
DOCKED: BRANCH  21  22
DOCKED: ATOM     22  C   UNL     1     140.200  78.073 221.913 -0.33 -0.00    +0.002 C  
DOCKED: ATOM     23  C   UNL     1     139.016  77.410 222.629 -0.29 -0.00    +0.009 C  
DOCKED: ATOM     24  C   UNL     1     141.359  78.312 222.891 -0.51 -0.00    +0.009 C  
DOCKED: ENDBRANCH  21  22
DOCKED: ENDBRANCH  19  21
DOCKED: ENDBRANCH   1  19
DOCKED: TORSDOF 7
DOCKED: TER
DOCKED: ENDMDL
________________________________________________________________________________


    FINAL DOCKED STATE:
    ________________________


Run:   6 / 20
Time taken for this run:   0.021s

DOCKED: MODEL        6
DOCKED: USER    Run = 6
DOCKED: USER
DOCKED: USER    Estimated Free Energy of Binding    =  -6.94 kcal/mol  [=(1)+(2)+(3)-(4)]
DOCKED: USER
DOCKED: USER    (1) Final Intermolecular Energy     =  -9.03 kcal/mol
DOCKED: USER        vdW + Hbond + desolv Energy     =  -8.92 kcal/mol
DOCKED: USER        Electrostatic Energy            =  -0.11 kcal/mol
DOCKED: USER        Moving Ligand-Fixed Receptor    =  -9.03 kcal/mol
DOCKED: USER        Moving Ligand-Moving Receptor   =  +0.00 kcal/mol
DOCKED: USER    (2) Final Total Internal Energy     =  -0.62 kcal/mol
DOCKED: USER    (3) Torsional Free Energy           =  +2.09 kcal/mol
DOCKED: USER    (4) Unbound System's Energy         =  -0.62 kcal/mol
DOCKED: USER
DOCKED: USER
DOCKED: REMARK SMILES CC(C)CN/C(O)=C\NC(=O)c1ccc2ccccc2n1
DOCKED: REMARK SMILES IDX 6 1 7 2 8 4 9 5 10 6 11 8 12 9 21 10 13 11 20 12 14 13 19 14
DOCKED: REMARK SMILES IDX 15 15 18 16 16 17 17 18 5 19 4 21 2 22 1 23 3 24
DOCKED: REMARK H PARENT 7 3 9 7 5 20
DOCKED: USER                              x       y       z     vdW  Elec       q    Type
DOCKED: USER                           _______ _______ _______ _____ _____    ______ ____
DOCKED: ROOT
DOCKED: ATOM      1  C   UNL     1     139.771  76.104 222.157 -0.26 -0.04    +0.200 C  
DOCKED: ENDROOT
DOCKED: BRANCH   1   2
DOCKED: ATOM      2  O   UNL     1     138.585  76.683 222.608 -0.15 +0.10    -0.494 OA 
DOCKED: ATOM      3  H   UNL     1     137.978  76.210 223.265 +0.00 -0.07    +0.295 HD 
DOCKED: ENDBRANCH   1   2
DOCKED: BRANCH   1   4
DOCKED: ATOM      4  C   UNL     1     139.718  74.878 221.622 -0.24 -0.03    +0.152 C  
DOCKED: BRANCH   4   5
DOCKED: ATOM      5  N   UNL     1     139.455  73.710 222.409 -0.02 +0.06    -0.322 N  
DOCKED: ATOM      6  C   UNL     1     140.410  72.651 222.556 -0.16 -0.02    +0.273 C  
DOCKED: ATOM      7  H   UNL     1     138.472  73.554 222.723 -0.53 -0.08    +0.169 HD 
DOCKED: ATOM      8  O   UNL     1     141.431  72.619 221.814 -0.23 +0.02    -0.267 OA 
DOCKED: BRANCH   6   9
DOCKED: ATOM      9  C   UNL     1     140.208  71.605 223.580 -0.33 -0.02    +0.129 A  
DOCKED: ATOM     10  N   UNL     1     140.674  71.807 224.844 -0.29 +0.03    -0.243 NA 
DOCKED: ATOM     11  C   UNL     1     139.564  70.396 223.266 -0.27 -0.01    +0.035 A  
DOCKED: ATOM     12  C   UNL     1     140.536  70.875 225.824 -0.53 -0.01    +0.071 A  
DOCKED: ATOM     13  C   UNL     1     139.406  69.420 224.253 -0.32 -0.00    +0.013 A  
DOCKED: ATOM     14  C   UNL     1     141.034  71.126 227.108 -0.68 -0.00    +0.029 A  
DOCKED: ATOM     15  C   UNL     1     139.892  69.649 225.546 -0.45 -0.00    +0.000 A  
DOCKED: ATOM     16  C   UNL     1     140.890  70.165 228.114 -0.60 -0.00    +0.002 A  
DOCKED: ATOM     17  C   UNL     1     139.751  68.691 226.560 -0.57 -0.00    +0.010 A  
DOCKED: ATOM     18  C   UNL     1     140.250  68.951 227.840 -0.64 -0.00    +0.001 A  
DOCKED: ENDBRANCH   6   9
DOCKED: ENDBRANCH   4   5
DOCKED: ENDBRANCH   1   4
DOCKED: BRANCH   1  19
DOCKED: ATOM     19  N   UNL     1     141.014  76.813 222.287 -0.20 +0.14    -0.355 N  
DOCKED: ATOM     20  H   UNL     1     141.902  76.366 221.972 -0.53 -0.12    +0.163 HD 
DOCKED: BRANCH  19  21
DOCKED: ATOM     21  C   UNL     1     141.127  78.064 223.039 -0.39 -0.04    +0.119 C  
DOCKED: BRANCH  21  22
DOCKED: ATOM     22  C   UNL     1     142.089  79.058 222.356 -0.51 -0.00    +0.002 C  
DOCKED: ATOM     23  C   UNL     1     141.469  79.676 221.096 -0.36 -0.00    +0.009 C  
DOCKED: ATOM     24  C   UNL     1     142.568  80.155 223.318 -0.67 -0.00    +0.009 C  
DOCKED: ENDBRANCH  21  22
DOCKED: ENDBRANCH  19  21
DOCKED: ENDBRANCH   1  19
DOCKED: TORSDOF 7
DOCKED: TER
DOCKED: ENDMDL
________________________________________________________________________________


    FINAL DOCKED STATE:
    ________________________


Run:   7 / 20
Time taken for this run:   0.021s

DOCKED: MODEL        7
DOCKED: USER    Run = 7
DOCKED: USER
DOCKED: USER    Estimated Free Energy of Binding    =  -6.84 kcal/mol  [=(1)+(2)+(3)-(4)]
DOCKED: USER
DOCKED: USER    (1) Final Intermolecular Energy     =  -8.92 kcal/mol
DOCKED: USER        vdW + Hbond + desolv Energy     =  -8.80 kcal/mol
DOCKED: USER        Electrostatic Energy            =  -0.12 kcal/mol
DOCKED: USER        Moving Ligand-Fixed Receptor    =  -8.92 kcal/mol
DOCKED: USER        Moving Ligand-Moving Receptor   =  +0.00 kcal/mol
DOCKED: USER    (2) Final Total Internal Energy     =  -1.42 kcal/mol
DOCKED: USER    (3) Torsional Free Energy           =  +2.09 kcal/mol
DOCKED: USER    (4) Unbound System's Energy         =  -1.42 kcal/mol
DOCKED: USER
DOCKED: USER
DOCKED: REMARK SMILES CC(C)CN/C(O)=C\NC(=O)c1ccc2ccccc2n1
DOCKED: REMARK SMILES IDX 6 1 7 2 8 4 9 5 10 6 11 8 12 9 21 10 13 11 20 12 14 13 19 14
DOCKED: REMARK SMILES IDX 15 15 18 16 16 17 17 18 5 19 4 21 2 22 1 23 3 24
DOCKED: REMARK H PARENT 7 3 9 7 5 20
DOCKED: USER                              x       y       z     vdW  Elec       q    Type
DOCKED: USER                           _______ _______ _______ _____ _____    ______ ____
DOCKED: ROOT
DOCKED: ATOM      1  C   UNL     1     141.477  74.756 220.936 -0.22 -0.05    +0.200 C  
DOCKED: ENDROOT
DOCKED: BRANCH   1   2
DOCKED: ATOM      2  O   UNL     1     141.776  76.107 220.762 -0.10 +0.25    -0.494 OA 
DOCKED: ATOM      3  H   UNL     1     142.224  76.651 221.488 -0.42 -0.26    +0.295 HD 
DOCKED: ENDBRANCH   1   2
DOCKED: BRANCH   1   4
DOCKED: ATOM      4  C   UNL     1     140.220  74.416 221.246 -0.22 -0.03    +0.152 C  
DOCKED: BRANCH   4   5
DOCKED: ATOM      5  N   UNL     1     139.910  73.547 222.342 -0.13 +0.03    -0.322 N  
DOCKED: ATOM      6  C   UNL     1     140.259  72.156 222.343 -0.21 -0.03    +0.273 C  
DOCKED: ATOM      7  H   UNL     1     139.248  73.904 223.067 -0.53 -0.06    +0.169 HD 
DOCKED: ATOM      8  O   UNL     1     140.660  71.609 221.279 -0.12 +0.04    -0.267 OA 
DOCKED: BRANCH   6   9
DOCKED: ATOM      9  C   UNL     1     140.164  71.368 223.589 -0.32 -0.02    +0.129 A  
DOCKED: ATOM     10  N   UNL     1     140.624  71.900 224.756 -0.26 +0.03    -0.243 NA 
DOCKED: ATOM     11  C   UNL     1     139.628  70.068 223.586 -0.26 -0.01    +0.035 A  
DOCKED: ATOM     12  C   UNL     1     140.581  71.216 225.930 -0.55 -0.01    +0.071 A  
DOCKED: ATOM     13  C   UNL     1     139.570  69.341 224.779 -0.37 -0.00    +0.013 A  
DOCKED: ATOM     14  C   UNL     1     141.068  71.803 227.103 -0.77 -0.01    +0.029 A  
DOCKED: ATOM     15  C   UNL     1     140.047  69.909 225.966 -0.50 -0.00    +0.000 A  
DOCKED: ATOM     16  C   UNL     1     141.022  71.097 228.310 -0.68 -0.00    +0.002 A  
DOCKED: ATOM     17  C   UNL     1     140.005  69.207 227.179 -0.58 -0.00    +0.010 A  
DOCKED: ATOM     18  C   UNL     1     140.492  69.803 228.347 -0.59 -0.00    +0.001 A  
DOCKED: ENDBRANCH   6   9
DOCKED: ENDBRANCH   4   5
DOCKED: ENDBRANCH   1   4
DOCKED: BRANCH   1  19
DOCKED: ATOM     19  N   UNL     1     142.510  73.767 220.802 -0.12 +0.07    -0.355 N  
DOCKED: ATOM     20  H   UNL     1     142.325  72.781 221.088 +0.06 -0.02    +0.163 HD 
DOCKED: BRANCH  19  21
DOCKED: ATOM     21  C   UNL     1     143.893  74.118 220.475 -0.35 -0.04    +0.119 C  
DOCKED: BRANCH  21  22
DOCKED: ATOM     22  C   UNL     1     144.874  72.984 220.842 -0.52 -0.00    +0.002 C  
DOCKED: ATOM     23  C   UNL     1     145.083  72.013 219.674 -0.35 +0.00    +0.009 C  
DOCKED: ATOM     24  C   UNL     1     146.220  73.524 221.345 -0.69 -0.00    +0.009 C  
DOCKED: ENDBRANCH  21  22
DOCKED: ENDBRANCH  19  21
DOCKED: ENDBRANCH   1  19
DOCKED: TORSDOF 7
DOCKED: TER
DOCKED: ENDMDL
________________________________________________________________________________


    FINAL DOCKED STATE:
    ________________________


Run:   8 / 20
Time taken for this run:   0.021s

DOCKED: MODEL        8
DOCKED: USER    Run = 8
DOCKED: USER
DOCKED: USER    Estimated Free Energy of Binding    =  -6.75 kcal/mol  [=(1)+(2)+(3)-(4)]
DOCKED: USER
DOCKED: USER    (1) Final Intermolecular Energy     =  -8.84 kcal/mol
DOCKED: USER        vdW + Hbond + desolv Energy     =  -8.77 kcal/mol
DOCKED: USER        Electrostatic Energy            =  -0.06 kcal/mol
DOCKED: USER        Moving Ligand-Fixed Receptor    =  -8.84 kcal/mol
DOCKED: USER        Moving Ligand-Moving Receptor   =  +0.00 kcal/mol
DOCKED: USER    (2) Final Total Internal Energy     =  -1.32 kcal/mol
DOCKED: USER    (3) Torsional Free Energy           =  +2.09 kcal/mol
DOCKED: USER    (4) Unbound System's Energy         =  -1.32 kcal/mol
DOCKED: USER
DOCKED: USER
DOCKED: REMARK SMILES CC(C)CN/C(O)=C\NC(=O)c1ccc2ccccc2n1
DOCKED: REMARK SMILES IDX 6 1 7 2 8 4 9 5 10 6 11 8 12 9 21 10 13 11 20 12 14 13 19 14
DOCKED: REMARK SMILES IDX 15 15 18 16 16 17 17 18 5 19 4 21 2 22 1 23 3 24
DOCKED: REMARK H PARENT 7 3 9 7 5 20
DOCKED: USER                              x       y       z     vdW  Elec       q    Type
DOCKED: USER                           _______ _______ _______ _____ _____    ______ ____
DOCKED: ROOT
DOCKED: ATOM      1  C   UNL     1     141.007  75.223 221.327 -0.25 -0.05    +0.200 C  
DOCKED: ENDROOT
DOCKED: BRANCH   1   2
DOCKED: ATOM      2  O   UNL     1     142.108  74.504 220.861 -0.12 +0.14    -0.494 OA 
DOCKED: ATOM      3  H   UNL     1     142.093  73.495 220.791 +0.12 -0.05    +0.295 HD 
DOCKED: ENDBRANCH   1   2
DOCKED: BRANCH   1   4
DOCKED: ATOM      4  C   UNL     1     139.821  74.605 221.387 -0.22 -0.03    +0.152 C  
DOCKED: BRANCH   4   5
DOCKED: ATOM      5  N   UNL     1     139.540  73.580 222.347 -0.13 +0.06    -0.322 N  
DOCKED: ATOM      6  C   UNL     1     140.333  72.390 222.458 -0.21 -0.03    +0.273 C  
DOCKED: ATOM      7  H   UNL     1     138.622  73.625 222.844 -0.53 -0.09    +0.169 HD 
DOCKED: ATOM      8  O   UNL     1     141.176  72.113 221.560 -0.18 +0.03    -0.267 OA 
DOCKED: BRANCH   6   9
DOCKED: ATOM      9  C   UNL     1     140.175  71.497 223.624 -0.33 -0.02    +0.129 A  
DOCKED: ATOM     10  N   UNL     1     140.662  71.885 224.836 -0.28 +0.03    -0.243 NA 
DOCKED: ATOM     11  C   UNL     1     139.552  70.244 223.500 -0.28 -0.01    +0.035 A  
DOCKED: ATOM     12  C   UNL     1     140.563  71.099 225.941 -0.55 -0.01    +0.071 A  
DOCKED: ATOM     13  C   UNL     1     139.435  69.415 224.618 -0.35 -0.00    +0.013 A  
DOCKED: ATOM     14  C   UNL     1     141.081  71.540 227.164 -0.74 -0.00    +0.029 A  
DOCKED: ATOM     15  C   UNL     1     139.942  69.835 225.854 -0.48 -0.00    +0.000 A  
DOCKED: ATOM     16  C   UNL     1     140.978  70.729 228.300 -0.61 -0.00    +0.002 A  
DOCKED: ATOM     17  C   UNL     1     139.843  69.028 226.996 -0.57 -0.00    +0.010 A  
DOCKED: ATOM     18  C   UNL     1     140.361  69.477 228.215 -0.63 -0.00    +0.001 A  
DOCKED: ENDBRANCH   6   9
DOCKED: ENDBRANCH   4   5
DOCKED: ENDBRANCH   1   4
DOCKED: BRANCH   1  19
DOCKED: ATOM     19  N   UNL     1     141.155  76.600 221.710 -0.15 +0.15    -0.355 N  
DOCKED: ATOM     20  H   UNL     1     142.101  77.040 221.706 -0.48 -0.14    +0.163 HD 
DOCKED: BRANCH  19  21
DOCKED: ATOM     21  C   UNL     1     140.063  77.367 222.312 -0.33 -0.03    +0.119 C  
DOCKED: BRANCH  21  22
DOCKED: ATOM     22  C   UNL     1     140.527  78.771 222.754 -0.45 -0.00    +0.002 C  
DOCKED: ATOM     23  C   UNL     1     139.426  79.520 223.516 -0.42 -0.00    +0.009 C  
DOCKED: ATOM     24  C   UNL     1     141.819  78.719 223.582 -0.60 -0.00    +0.009 C  
DOCKED: ENDBRANCH  21  22
DOCKED: ENDBRANCH  19  21
DOCKED: ENDBRANCH   1  19
DOCKED: TORSDOF 7
DOCKED: TER
DOCKED: ENDMDL
________________________________________________________________________________


    FINAL DOCKED STATE:
    ________________________


Run:   9 / 20
Time taken for this run:   0.021s

DOCKED: MODEL        9
DOCKED: USER    Run = 9
DOCKED: USER
DOCKED: USER    Estimated Free Energy of Binding    =  -6.86 kcal/mol  [=(1)+(2)+(3)-(4)]
DOCKED: USER
DOCKED: USER    (1) Final Intermolecular Energy     =  -8.95 kcal/mol
DOCKED: USER        vdW + Hbond + desolv Energy     =  -8.78 kcal/mol
DOCKED: USER        Electrostatic Energy            =  -0.17 kcal/mol
DOCKED: USER        Moving Ligand-Fixed Receptor    =  -8.95 kcal/mol
DOCKED: USER        Moving Ligand-Moving Receptor   =  +0.00 kcal/mol
DOCKED: USER    (2) Final Total Internal Energy     =  -1.43 kcal/mol
DOCKED: USER    (3) Torsional Free Energy           =  +2.09 kcal/mol
DOCKED: USER    (4) Unbound System's Energy         =  -1.43 kcal/mol
DOCKED: USER
DOCKED: USER
DOCKED: REMARK SMILES CC(C)CN/C(O)=C\NC(=O)c1ccc2ccccc2n1
DOCKED: REMARK SMILES IDX 6 1 7 2 8 4 9 5 10 6 11 8 12 9 21 10 13 11 20 12 14 13 19 14
DOCKED: REMARK SMILES IDX 15 15 18 16 16 17 17 18 5 19 4 21 2 22 1 23 3 24
DOCKED: REMARK H PARENT 7 3 9 7 5 20
DOCKED: USER                              x       y       z     vdW  Elec       q    Type
DOCKED: USER                           _______ _______ _______ _____ _____    ______ ____
DOCKED: ROOT
DOCKED: ATOM      1  C   UNL     1     141.175  74.872 221.013 -0.22 -0.05    +0.200 C  
DOCKED: ENDROOT
DOCKED: BRANCH   1   2
DOCKED: ATOM      2  O   UNL     1     141.464  76.218 221.235 -0.12 +0.23    -0.494 OA 
DOCKED: ATOM      3  H   UNL     1     142.174  76.508 221.894 -0.43 -0.27    +0.295 HD 
DOCKED: ENDBRANCH   1   2
DOCKED: BRANCH   1   4
DOCKED: ATOM      4  C   UNL     1     139.936  74.435 221.272 -0.21 -0.03    +0.152 C  
DOCKED: BRANCH   4   5
DOCKED: ATOM      5  N   UNL     1     139.656  73.509 222.329 -0.14 +0.05    -0.322 N  
DOCKED: ATOM      6  C   UNL     1     140.242  72.202 222.381 -0.21 -0.03    +0.273 C  
DOCKED: ATOM      7  H   UNL     1     138.860  73.734 222.967 -0.54 -0.09    +0.169 HD 
DOCKED: ATOM      8  O   UNL     1     140.856  71.749 221.375 -0.14 +0.03    -0.267 OA 
DOCKED: BRANCH   6   9
DOCKED: ATOM      9  C   UNL     1     140.139  71.390 223.612 -0.33 -0.02    +0.129 A  
DOCKED: ATOM     10  N   UNL     1     140.622  71.888 224.784 -0.27 +0.03    -0.243 NA 
DOCKED: ATOM     11  C   UNL     1     139.575  70.104 223.588 -0.28 -0.01    +0.035 A  
DOCKED: ATOM     12  C   UNL     1     140.573  71.182 225.945 -0.55 -0.01    +0.071 A  
DOCKED: ATOM     13  C   UNL     1     139.510  69.354 224.765 -0.37 -0.00    +0.013 A  
DOCKED: ATOM     14  C   UNL     1     141.084  71.734 227.125 -0.76 -0.01    +0.029 A  
DOCKED: ATOM     15  C   UNL     1     140.011  69.887 225.959 -0.49 -0.00    +0.000 A  
DOCKED: ATOM     16  C   UNL     1     141.033  71.005 228.318 -0.66 -0.00    +0.002 A  
DOCKED: ATOM     17  C   UNL     1     139.963  69.162 227.159 -0.58 -0.00    +0.010 A  
DOCKED: ATOM     18  C   UNL     1     140.474  69.722 228.334 -0.60 -0.00    +0.001 A  
DOCKED: ENDBRANCH   6   9
DOCKED: ENDBRANCH   4   5
DOCKED: ENDBRANCH   1   4
DOCKED: BRANCH   1  19
DOCKED: ATOM     19  N   UNL     1     142.199  73.984 220.537 -0.11 +0.08    -0.355 N  
DOCKED: ATOM     20  H   UNL     1     141.991  72.969 220.419 +0.06 -0.03    +0.163 HD 
DOCKED: BRANCH  19  21
DOCKED: ATOM     21  C   UNL     1     143.596  74.400 220.403 -0.32 -0.04    +0.119 C  
DOCKED: BRANCH  21  22
DOCKED: ATOM     22  C   UNL     1     144.569  73.283 220.836 -0.48 -0.00    +0.002 C  
DOCKED: ATOM     23  C   UNL     1     144.437  72.038 219.950 -0.33 -0.00    +0.009 C  
DOCKED: ATOM     24  C   UNL     1     146.026  73.768 220.875 -0.69 -0.00    +0.009 C  
DOCKED: ENDBRANCH  21  22
DOCKED: ENDBRANCH  19  21
DOCKED: ENDBRANCH   1  19
DOCKED: TORSDOF 7
DOCKED: TER
DOCKED: ENDMDL
________________________________________________________________________________


    FINAL DOCKED STATE:
    ________________________


Run:   10 / 20
Time taken for this run:   0.021s

DOCKED: MODEL        10
DOCKED: USER    Run = 10
DOCKED: USER
DOCKED: USER    Estimated Free Energy of Binding    =  -6.85 kcal/mol  [=(1)+(2)+(3)-(4)]
DOCKED: USER
DOCKED: USER    (1) Final Intermolecular Energy     =  -8.94 kcal/mol
DOCKED: USER        vdW + Hbond + desolv Energy     =  -8.81 kcal/mol
DOCKED: USER        Electrostatic Energy            =  -0.12 kcal/mol
DOCKED: USER        Moving Ligand-Fixed Receptor    =  -8.94 kcal/mol
DOCKED: USER        Moving Ligand-Moving Receptor   =  +0.00 kcal/mol
DOCKED: USER    (2) Final Total Internal Energy     =  -1.42 kcal/mol
DOCKED: USER    (3) Torsional Free Energy           =  +2.09 kcal/mol
DOCKED: USER    (4) Unbound System's Energy         =  -1.42 kcal/mol
DOCKED: USER
DOCKED: USER
DOCKED: REMARK SMILES CC(C)CN/C(O)=C\NC(=O)c1ccc2ccccc2n1
DOCKED: REMARK SMILES IDX 6 1 7 2 8 4 9 5 10 6 11 8 12 9 21 10 13 11 20 12 14 13 19 14
DOCKED: REMARK SMILES IDX 15 15 18 16 16 17 17 18 5 19 4 21 2 22 1 23 3 24
DOCKED: REMARK H PARENT 7 3 9 7 5 20
DOCKED: USER                              x       y       z     vdW  Elec       q    Type
DOCKED: USER                           _______ _______ _______ _____ _____    ______ ____
DOCKED: ROOT
DOCKED: ATOM      1  C   UNL     1     141.462  74.719 220.890 -0.22 -0.05    +0.200 C  
DOCKED: ENDROOT
DOCKED: BRANCH   1   2
DOCKED: ATOM      2  O   UNL     1     141.765  76.078 220.809 -0.10 +0.25    -0.494 OA 
DOCKED: ATOM      3  H   UNL     1     142.220  76.568 221.567 -0.42 -0.26    +0.295 HD 
DOCKED: ENDBRANCH   1   2
DOCKED: BRANCH   1   4
DOCKED: ATOM      4  C   UNL     1     140.204  74.363 221.177 -0.22 -0.03    +0.152 C  
DOCKED: BRANCH   4   5
DOCKED: ATOM      5  N   UNL     1     139.883  73.508 222.281 -0.14 +0.03    -0.322 N  
DOCKED: ATOM      6  C   UNL     1     140.252  72.122 222.312 -0.21 -0.04    +0.273 C  
DOCKED: ATOM      7  H   UNL     1     139.202  73.867 222.986 -0.53 -0.07    +0.169 HD 
DOCKED: ATOM      8  O   UNL     1     140.681  71.563 221.265 -0.12 +0.04    -0.267 OA 
DOCKED: BRANCH   6   9
DOCKED: ATOM      9  C   UNL     1     140.141  71.352 223.568 -0.32 -0.02    +0.129 A  
DOCKED: ATOM     10  N   UNL     1     140.609  71.892 224.728 -0.27 +0.03    -0.243 NA 
DOCKED: ATOM     11  C   UNL     1     139.584  70.062 223.583 -0.27 -0.01    +0.035 A  
DOCKED: ATOM     12  C   UNL     1     140.553  71.226 225.912 -0.55 -0.01    +0.071 A  
DOCKED: ATOM     13  C   UNL     1     139.512  69.353 224.785 -0.37 -0.00    +0.013 A  
DOCKED: ATOM     14  C   UNL     1     141.049  71.821 227.077 -0.77 -0.01    +0.029 A  
DOCKED: ATOM     15  C   UNL     1     139.998  69.929 225.965 -0.50 -0.00    +0.000 A  
DOCKED: ATOM     16  C   UNL     1     140.990  71.132 228.294 -0.69 -0.00    +0.002 A  
DOCKED: ATOM     17  C   UNL     1     139.942  69.245 227.187 -0.58 -0.00    +0.010 A  
DOCKED: ATOM     18  C   UNL     1     140.438  69.848 228.348 -0.59 -0.00    +0.001 A  
DOCKED: ENDBRANCH   6   9
DOCKED: ENDBRANCH   4   5
DOCKED: ENDBRANCH   1   4
DOCKED: BRANCH   1  19
DOCKED: ATOM     19  N   UNL     1     142.491  73.738 220.687 -0.11 +0.08    -0.355 N  
DOCKED: ATOM     20  H   UNL     1     142.285  72.728 220.848 +0.06 -0.02    +0.163 HD 
DOCKED: BRANCH  19  21
DOCKED: ATOM     21  C   UNL     1     143.891  74.105 220.462 -0.35 -0.04    +0.119 C  
DOCKED: BRANCH  21  22
DOCKED: ATOM     22  C   UNL     1     144.851  72.957 220.837 -0.52 -0.00    +0.002 C  
DOCKED: ATOM     23  C   UNL     1     145.213  72.098 219.618 -0.36 +0.00    +0.009 C  
DOCKED: ATOM     24  C   UNL     1     146.119  73.468 221.536 -0.69 -0.00    +0.009 C  
DOCKED: ENDBRANCH  21  22
DOCKED: ENDBRANCH  19  21
DOCKED: ENDBRANCH   1  19
DOCKED: TORSDOF 7
DOCKED: TER
DOCKED: ENDMDL
________________________________________________________________________________


    FINAL DOCKED STATE:
    ________________________


Run:   11 / 20
Time taken for this run:   0.021s

DOCKED: MODEL        11
DOCKED: USER    Run = 11
DOCKED: USER
DOCKED: USER    Estimated Free Energy of Binding    =  -6.86 kcal/mol  [=(1)+(2)+(3)-(4)]
DOCKED: USER
DOCKED: USER    (1) Final Intermolecular Energy     =  -8.95 kcal/mol
DOCKED: USER        vdW + Hbond + desolv Energy     =  -8.78 kcal/mol
DOCKED: USER        Electrostatic Energy            =  -0.17 kcal/mol
DOCKED: USER        Moving Ligand-Fixed Receptor    =  -8.95 kcal/mol
DOCKED: USER        Moving Ligand-Moving Receptor   =  +0.00 kcal/mol
DOCKED: USER    (2) Final Total Internal Energy     =  -1.44 kcal/mol
DOCKED: USER    (3) Torsional Free Energy           =  +2.09 kcal/mol
DOCKED: USER    (4) Unbound System's Energy         =  -1.44 kcal/mol
DOCKED: USER
DOCKED: USER
DOCKED: REMARK SMILES CC(C)CN/C(O)=C\NC(=O)c1ccc2ccccc2n1
DOCKED: REMARK SMILES IDX 6 1 7 2 8 4 9 5 10 6 11 8 12 9 21 10 13 11 20 12 14 13 19 14
DOCKED: REMARK SMILES IDX 15 15 18 16 16 17 17 18 5 19 4 21 2 22 1 23 3 24
DOCKED: REMARK H PARENT 7 3 9 7 5 20
DOCKED: USER                              x       y       z     vdW  Elec       q    Type
DOCKED: USER                           _______ _______ _______ _____ _____    ______ ____
DOCKED: ROOT
DOCKED: ATOM      1  C   UNL     1     141.206  74.852 221.001 -0.22 -0.05    +0.200 C  
DOCKED: ENDROOT
DOCKED: BRANCH   1   2
DOCKED: ATOM      2  O   UNL     1     141.475  76.197 221.258 -0.12 +0.23    -0.494 OA 
DOCKED: ATOM      3  H   UNL     1     142.188  76.481 221.917 -0.43 -0.28    +0.295 HD 
DOCKED: ENDBRANCH   1   2
DOCKED: BRANCH   1   4
DOCKED: ATOM      4  C   UNL     1     139.973  74.392 221.244 -0.21 -0.03    +0.152 C  
DOCKED: BRANCH   4   5
DOCKED: ATOM      5  N   UNL     1     139.691  73.490 222.321 -0.14 +0.05    -0.322 N  
DOCKED: ATOM      6  C   UNL     1     140.222  72.159 222.369 -0.21 -0.04    +0.273 C  
DOCKED: ATOM      7  H   UNL     1     138.929  73.756 222.983 -0.54 -0.09    +0.169 HD 
DOCKED: ATOM      8  O   UNL     1     140.781  71.669 221.349 -0.13 +0.03    -0.267 OA 
DOCKED: BRANCH   6   9
DOCKED: ATOM      9  C   UNL     1     140.128  71.367 223.613 -0.33 -0.02    +0.129 A  
DOCKED: ATOM     10  N   UNL     1     140.615  71.884 224.775 -0.27 +0.03    -0.243 NA 
DOCKED: ATOM     11  C   UNL     1     139.568  70.078 223.612 -0.28 -0.01    +0.035 A  
DOCKED: ATOM     12  C   UNL     1     140.574  71.196 225.947 -0.55 -0.01    +0.071 A  
DOCKED: ATOM     13  C   UNL     1     139.512  69.347 224.801 -0.37 -0.00    +0.013 A  
DOCKED: ATOM     14  C   UNL     1     141.089  71.769 227.116 -0.76 -0.01    +0.029 A  
DOCKED: ATOM     15  C   UNL     1     140.016  69.900 225.984 -0.50 -0.00    +0.000 A  
DOCKED: ATOM     16  C   UNL     1     141.046  71.058 228.320 -0.67 -0.00    +0.002 A  
DOCKED: ATOM     17  C   UNL     1     139.976  69.194 227.195 -0.59 -0.00    +0.010 A  
DOCKED: ATOM     18  C   UNL     1     140.491  69.774 228.359 -0.58 -0.00    +0.001 A  
DOCKED: ENDBRANCH   6   9
DOCKED: ENDBRANCH   4   5
DOCKED: ENDBRANCH   1   4
DOCKED: BRANCH   1  19
DOCKED: ATOM     19  N   UNL     1     142.245  73.992 220.506 -0.11 +0.09    -0.355 N  
DOCKED: ATOM     20  H   UNL     1     142.046  72.982 220.338 +0.06 -0.03    +0.163 HD 
DOCKED: BRANCH  19  21
DOCKED: ATOM     21  C   UNL     1     143.643  74.419 220.422 -0.32 -0.04    +0.119 C  
DOCKED: BRANCH  21  22
DOCKED: ATOM     22  C   UNL     1     144.612  73.295 220.846 -0.49 -0.00    +0.002 C  
DOCKED: ATOM     23  C   UNL     1     144.446  72.043 219.976 -0.33 -0.00    +0.009 C  
DOCKED: ATOM     24  C   UNL     1     146.074  73.763 220.849 -0.69 -0.00    +0.009 C  
DOCKED: ENDBRANCH  21  22
DOCKED: ENDBRANCH  19  21
DOCKED: ENDBRANCH   1  19
DOCKED: TORSDOF 7
DOCKED: TER
DOCKED: ENDMDL
________________________________________________________________________________


    FINAL DOCKED STATE:
    ________________________


Run:   12 / 20
Time taken for this run:   0.021s

DOCKED: MODEL        12
DOCKED: USER    Run = 12
DOCKED: USER
DOCKED: USER    Estimated Free Energy of Binding    =  -6.64 kcal/mol  [=(1)+(2)+(3)-(4)]
DOCKED: USER
DOCKED: USER    (1) Final Intermolecular Energy     =  -8.72 kcal/mol
DOCKED: USER        vdW + Hbond + desolv Energy     =  -8.65 kcal/mol
DOCKED: USER        Electrostatic Energy            =  -0.08 kcal/mol
DOCKED: USER        Moving Ligand-Fixed Receptor    =  -8.72 kcal/mol
DOCKED: USER        Moving Ligand-Moving Receptor   =  +0.00 kcal/mol
DOCKED: USER    (2) Final Total Internal Energy     =  -1.54 kcal/mol
DOCKED: USER    (3) Torsional Free Energy           =  +2.09 kcal/mol
DOCKED: USER    (4) Unbound System's Energy         =  -1.54 kcal/mol
DOCKED: USER
DOCKED: USER
DOCKED: REMARK SMILES CC(C)CN/C(O)=C\NC(=O)c1ccc2ccccc2n1
DOCKED: REMARK SMILES IDX 6 1 7 2 8 4 9 5 10 6 11 8 12 9 21 10 13 11 20 12 14 13 19 14
DOCKED: REMARK SMILES IDX 15 15 18 16 16 17 17 18 5 19 4 21 2 22 1 23 3 24
DOCKED: REMARK H PARENT 7 3 9 7 5 20
DOCKED: USER                              x       y       z     vdW  Elec       q    Type
DOCKED: USER                           _______ _______ _______ _____ _____    ______ ____
DOCKED: ROOT
DOCKED: ATOM      1  C   UNL     1     141.408  74.146 220.467 -0.17 -0.05    +0.200 C  
DOCKED: ENDROOT
DOCKED: BRANCH   1   2
DOCKED: ATOM      2  O   UNL     1     141.373  73.239 219.409 +0.01 +0.10    -0.494 OA 
DOCKED: ATOM      3  H   UNL     1     141.015  72.300 219.524 +0.06 -0.05    +0.295 HD 
DOCKED: ENDBRANCH   1   2
DOCKED: BRANCH   1   4
DOCKED: ATOM      4  C   UNL     1     140.297  74.320 221.194 -0.22 -0.03    +0.152 C  
DOCKED: BRANCH   4   5
DOCKED: ATOM      5  N   UNL     1     139.984  73.496 222.323 -0.13 +0.03    -0.322 N  
DOCKED: ATOM      6  C   UNL     1     140.169  72.074 222.312 -0.20 -0.04    +0.273 C  
DOCKED: ATOM      7  H   UNL     1     139.432  73.930 223.096 -0.52 -0.04    +0.169 HD 
DOCKED: ATOM      8  O   UNL     1     140.411  71.481 221.225 -0.11 +0.04    -0.267 OA 
DOCKED: BRANCH   6   9
DOCKED: ATOM      9  C   UNL     1     140.090  71.305 223.572 -0.32 -0.02    +0.129 A  
DOCKED: ATOM     10  N   UNL     1     140.568  71.855 224.723 -0.27 +0.04    -0.243 NA 
DOCKED: ATOM     11  C   UNL     1     139.553  70.007 223.597 -0.27 -0.01    +0.035 A  
DOCKED: ATOM     12  C   UNL     1     140.540  71.190 225.908 -0.55 -0.01    +0.071 A  
DOCKED: ATOM     13  C   UNL     1     139.510  69.299 224.801 -0.37 -0.00    +0.013 A  
DOCKED: ATOM     14  C   UNL     1     141.045  71.795 227.065 -0.76 -0.01    +0.029 A  
DOCKED: ATOM     15  C   UNL     1     140.005  69.885 225.972 -0.49 -0.00    +0.000 A  
DOCKED: ATOM     16  C   UNL     1     141.015  71.107 228.283 -0.68 -0.00    +0.002 A  
DOCKED: ATOM     17  C   UNL     1     139.979  69.202 227.197 -0.59 -0.00    +0.010 A  
DOCKED: ATOM     18  C   UNL     1     140.484  69.815 228.348 -0.59 -0.00    +0.001 A  
DOCKED: ENDBRANCH   6   9
DOCKED: ENDBRANCH   4   5
DOCKED: ENDBRANCH   1   4
DOCKED: BRANCH   1  19
DOCKED: ATOM     19  N   UNL     1     142.610  74.883 220.745 -0.13 +0.14    -0.355 N  
DOCKED: ATOM     20  H   UNL     1     142.561  75.765 221.300 -0.46 -0.12    +0.163 HD 
DOCKED: BRANCH  19  21
DOCKED: ATOM     21  C   UNL     1     143.888  74.566 220.106 -0.36 -0.05    +0.119 C  
DOCKED: BRANCH  21  22
DOCKED: ATOM     22  C   UNL     1     144.626  73.425 220.838 -0.50 -0.00    +0.002 C  
DOCKED: ATOM     23  C   UNL     1     144.423  72.076 220.138 -0.35 -0.00    +0.009 C  
DOCKED: ATOM     24  C   UNL     1     146.122  73.724 221.015 -0.68 -0.00    +0.009 C  
DOCKED: ENDBRANCH  21  22
DOCKED: ENDBRANCH  19  21
DOCKED: ENDBRANCH   1  19
DOCKED: TORSDOF 7
DOCKED: TER
DOCKED: ENDMDL
________________________________________________________________________________


    FINAL DOCKED STATE:
    ________________________


Run:   13 / 20
Time taken for this run:   0.021s

DOCKED: MODEL        13
DOCKED: USER    Run = 13
DOCKED: USER
DOCKED: USER    Estimated Free Energy of Binding    =  -6.42 kcal/mol  [=(1)+(2)+(3)-(4)]
DOCKED: USER
DOCKED: USER    (1) Final Intermolecular Energy     =  -8.50 kcal/mol
DOCKED: USER        vdW + Hbond + desolv Energy     =  -8.48 kcal/mol
DOCKED: USER        Electrostatic Energy            =  -0.03 kcal/mol
DOCKED: USER        Moving Ligand-Fixed Receptor    =  -8.50 kcal/mol
DOCKED: USER        Moving Ligand-Moving Receptor   =  +0.00 kcal/mol
DOCKED: USER    (2) Final Total Internal Energy     =  -1.45 kcal/mol
DOCKED: USER    (3) Torsional Free Energy           =  +2.09 kcal/mol
DOCKED: USER    (4) Unbound System's Energy         =  -1.45 kcal/mol
DOCKED: USER
DOCKED: USER
DOCKED: REMARK SMILES CC(C)CN/C(O)=C\NC(=O)c1ccc2ccccc2n1
DOCKED: REMARK SMILES IDX 6 1 7 2 8 4 9 5 10 6 11 8 12 9 21 10 13 11 20 12 14 13 19 14
DOCKED: REMARK SMILES IDX 15 15 18 16 16 17 17 18 5 19 4 21 2 22 1 23 3 24
DOCKED: REMARK H PARENT 7 3 9 7 5 20
DOCKED: USER                              x       y       z     vdW  Elec       q    Type
DOCKED: USER                           _______ _______ _______ _____ _____    ______ ____
DOCKED: ROOT
DOCKED: ATOM      1  C   UNL     1     140.201  72.696 222.419 -0.21 -0.02    +0.200 C  
DOCKED: ENDROOT
DOCKED: BRANCH   1   2
DOCKED: ATOM      2  O   UNL     1     138.815  72.844 222.364 -0.12 +0.15    -0.494 OA 
DOCKED: ATOM      3  H   UNL     1     138.349  73.649 222.762 -0.49 -0.16    +0.295 HD 
DOCKED: ENDBRANCH   1   2
DOCKED: BRANCH   1   4
DOCKED: ATOM      4  C   UNL     1     140.955  73.459 221.618 -0.22 -0.01    +0.152 C  
DOCKED: BRANCH   4   5
DOCKED: ATOM      5  N   UNL     1     141.104  74.869 221.822 -0.15 +0.04    -0.322 N  
DOCKED: ATOM      6  C   UNL     1     139.983  75.760 221.889 -0.23 -0.05    +0.273 C  
DOCKED: ATOM      7  H   UNL     1     142.064  75.269 221.730 -0.31 -0.07    +0.169 HD 
DOCKED: ATOM      8  O   UNL     1     138.837  75.353 221.551 -0.17 +0.06    -0.267 OA 
DOCKED: BRANCH   6   9
DOCKED: ATOM      9  C   UNL     1     140.163  77.147 222.365 -0.33 -0.03    +0.129 A  
DOCKED: ATOM     10  N   UNL     1     141.421  77.653 222.493 -0.21 +0.12    -0.243 NA 
DOCKED: ATOM     11  C   UNL     1     139.060  77.946 222.710 -0.30 -0.01    +0.035 A  
DOCKED: ATOM     12  C   UNL     1     141.652  78.915 222.944 -0.50 -0.03    +0.071 A  
DOCKED: ATOM     13  C   UNL     1     139.266  79.247 223.175 -0.36 -0.00    +0.013 A  
DOCKED: ATOM     14  C   UNL     1     142.964  79.390 223.062 -0.49 -0.01    +0.029 A  
DOCKED: ATOM     15  C   UNL     1     140.568  79.746 223.298 -0.47 -0.00    +0.000 A  
DOCKED: ATOM     16  C   UNL     1     143.198  80.689 223.525 -0.61 -0.00    +0.002 A  
DOCKED: ATOM     17  C   UNL     1     140.810  81.047 223.762 -0.40 -0.00    +0.010 A  
DOCKED: ATOM     18  C   UNL     1     142.124  81.514 223.874 -0.59 -0.00    +0.001 A  
DOCKED: ENDBRANCH   6   9
DOCKED: ENDBRANCH   4   5
DOCKED: ENDBRANCH   1   4
DOCKED: BRANCH   1  19
DOCKED: ATOM     19  N   UNL     1     140.788  71.729 223.304 -0.13 +0.03    -0.355 N  
DOCKED: ATOM     20  H   UNL     1     141.670  71.244 223.031 +0.09 -0.00    +0.163 HD 
DOCKED: BRANCH  19  21
DOCKED: ATOM     21  C   UNL     1     140.093  71.232 224.493 -0.39 -0.02    +0.119 C  
DOCKED: BRANCH  21  22
DOCKED: ATOM     22  C   UNL     1     141.081  70.841 225.612 -0.60 -0.00    +0.002 C  
DOCKED: ATOM     23  C   UNL     1     141.077  71.862 226.757 -0.75 -0.00    +0.009 C  
DOCKED: ATOM     24  C   UNL     1     140.819  69.426 226.147 -0.54 -0.00    +0.009 C  
DOCKED: ENDBRANCH  21  22
DOCKED: ENDBRANCH  19  21
DOCKED: ENDBRANCH   1  19
DOCKED: TORSDOF 7
DOCKED: TER
DOCKED: ENDMDL
________________________________________________________________________________


    FINAL DOCKED STATE:
    ________________________


Run:   14 / 20
Time taken for this run:   0.021s

DOCKED: MODEL        14
DOCKED: USER    Run = 14
DOCKED: USER
DOCKED: USER    Estimated Free Energy of Binding    =  -6.11 kcal/mol  [=(1)+(2)+(3)-(4)]
DOCKED: USER
DOCKED: USER    (1) Final Intermolecular Energy     =  -8.20 kcal/mol
DOCKED: USER        vdW + Hbond + desolv Energy     =  -8.11 kcal/mol
DOCKED: USER        Electrostatic Energy            =  -0.09 kcal/mol
DOCKED: USER        Moving Ligand-Fixed Receptor    =  -8.20 kcal/mol
DOCKED: USER        Moving Ligand-Moving Receptor   =  +0.00 kcal/mol
DOCKED: USER    (2) Final Total Internal Energy     =  -1.67 kcal/mol
DOCKED: USER    (3) Torsional Free Energy           =  +2.09 kcal/mol
DOCKED: USER    (4) Unbound System's Energy         =  -1.67 kcal/mol
DOCKED: USER
DOCKED: USER
DOCKED: REMARK SMILES CC(C)CN/C(O)=C\NC(=O)c1ccc2ccccc2n1
DOCKED: REMARK SMILES IDX 6 1 7 2 8 4 9 5 10 6 11 8 12 9 21 10 13 11 20 12 14 13 19 14
DOCKED: REMARK SMILES IDX 15 15 18 16 16 17 17 18 5 19 4 21 2 22 1 23 3 24
DOCKED: REMARK H PARENT 7 3 9 7 5 20
DOCKED: USER                              x       y       z     vdW  Elec       q    Type
DOCKED: USER                           _______ _______ _______ _____ _____    ______ ____
DOCKED: ROOT
DOCKED: ATOM      1  C   UNL     1     141.326  74.448 220.645 -0.19 -0.05    +0.200 C  
DOCKED: ENDROOT
DOCKED: BRANCH   1   2
DOCKED: ATOM      2  O   UNL     1     142.092  75.558 221.000 -0.06 +0.24    -0.494 OA 
DOCKED: ATOM      3  H   UNL     1     142.499  75.651 221.922 -0.40 -0.24    +0.295 HD 
DOCKED: ENDBRANCH   1   2
DOCKED: BRANCH   1   4
DOCKED: ATOM      4  C   UNL     1     140.101  74.324 221.171 -0.21 -0.03    +0.152 C  
DOCKED: BRANCH   4   5
DOCKED: ATOM      5  N   UNL     1     139.836  73.491 222.306 -0.14 +0.04    -0.322 N  
DOCKED: ATOM      6  C   UNL     1     140.104  72.082 222.305 -0.20 -0.04    +0.273 C  
DOCKED: ATOM      7  H   UNL     1     139.261  73.897 223.076 -0.53 -0.06    +0.169 HD 
DOCKED: ATOM      8  O   UNL     1     140.379  71.496 221.221 -0.10 +0.04    -0.267 OA 
DOCKED: BRANCH   6   9
DOCKED: ATOM      9  C   UNL     1     140.070  71.318 223.570 -0.32 -0.02    +0.129 A  
DOCKED: ATOM     10  N   UNL     1     140.540  71.893 224.711 -0.26 +0.04    -0.243 NA 
DOCKED: ATOM     11  C   UNL     1     139.583  70.001 223.609 -0.27 -0.01    +0.035 A  
DOCKED: ATOM     12  C   UNL     1     140.552  71.235 225.901 -0.55 -0.01    +0.071 A  
DOCKED: ATOM     13  C   UNL     1     139.583  69.299 224.818 -0.37 -0.00    +0.013 A  
DOCKED: ATOM     14  C   UNL     1     141.047  71.867 227.048 -0.77 -0.01    +0.029 A  
DOCKED: ATOM     15  C   UNL     1     140.069  69.911 225.979 -0.50 -0.00    +0.000 A  
DOCKED: ATOM     16  C   UNL     1     141.059  71.186 228.271 -0.70 -0.00    +0.002 A  
DOCKED: ATOM     17  C   UNL     1     140.084  69.236 227.208 -0.59 -0.00    +0.010 A  
DOCKED: ATOM     18  C   UNL     1     140.579  69.875 228.350 -0.58 -0.00    +0.001 A  
DOCKED: ENDBRANCH   6   9
DOCKED: ENDBRANCH   4   5
DOCKED: ENDBRANCH   1   4
DOCKED: BRANCH   1  19
DOCKED: ATOM     19  N   UNL     1     141.862  73.460 219.749 -0.03 +0.07    -0.355 N  
DOCKED: ATOM     20  H   UNL     1     141.362  72.554 219.618 +0.04 -0.03    +0.163 HD 
DOCKED: BRANCH  19  21
DOCKED: ATOM     21  C   UNL     1     143.198  73.577 219.162 -0.16 -0.03    +0.119 C  
DOCKED: BRANCH  21  22
DOCKED: ATOM     22  C   UNL     1     144.255  72.817 219.990 -0.36 -0.00    +0.002 C  
DOCKED: ATOM     23  C   UNL     1     145.099  73.769 220.846 -0.58 -0.00    +0.009 C  
DOCKED: ATOM     24  C   UNL     1     143.628  71.718 220.860 -0.27 -0.00    +0.009 C  
DOCKED: ENDBRANCH  21  22
DOCKED: ENDBRANCH  19  21
DOCKED: ENDBRANCH   1  19
DOCKED: TORSDOF 7
DOCKED: TER
DOCKED: ENDMDL
________________________________________________________________________________


    FINAL DOCKED STATE:
    ________________________


Run:   15 / 20
Time taken for this run:   0.021s

DOCKED: MODEL        15
DOCKED: USER    Run = 15
DOCKED: USER
DOCKED: USER    Estimated Free Energy of Binding    =  -6.68 kcal/mol  [=(1)+(2)+(3)-(4)]
DOCKED: USER
DOCKED: USER    (1) Final Intermolecular Energy     =  -8.76 kcal/mol
DOCKED: USER        vdW + Hbond + desolv Energy     =  -8.67 kcal/mol
DOCKED: USER        Electrostatic Energy            =  -0.09 kcal/mol
DOCKED: USER        Moving Ligand-Fixed Receptor    =  -8.76 kcal/mol
DOCKED: USER        Moving Ligand-Moving Receptor   =  +0.00 kcal/mol
DOCKED: USER    (2) Final Total Internal Energy     =  -1.51 kcal/mol
DOCKED: USER    (3) Torsional Free Energy           =  +2.09 kcal/mol
DOCKED: USER    (4) Unbound System's Energy         =  -1.51 kcal/mol
DOCKED: USER
DOCKED: USER
DOCKED: REMARK SMILES CC(C)CN/C(O)=C\NC(=O)c1ccc2ccccc2n1
DOCKED: REMARK SMILES IDX 6 1 7 2 8 4 9 5 10 6 11 8 12 9 21 10 13 11 20 12 14 13 19 14
DOCKED: REMARK SMILES IDX 15 15 18 16 16 17 17 18 5 19 4 21 2 22 1 23 3 24
DOCKED: REMARK H PARENT 7 3 9 7 5 20
DOCKED: USER                              x       y       z     vdW  Elec       q    Type
DOCKED: USER                           _______ _______ _______ _____ _____    ______ ____
DOCKED: ROOT
DOCKED: ATOM      1  C   UNL     1     141.346  74.219 220.485 -0.17 -0.05    +0.200 C  
DOCKED: ENDROOT
DOCKED: BRANCH   1   2
DOCKED: ATOM      2  O   UNL     1     141.269  73.390 219.365 +0.01 +0.10    -0.494 OA 
DOCKED: ATOM      3  H   UNL     1     140.723  72.539 219.370 +0.05 -0.05    +0.295 HD 
DOCKED: ENDBRANCH   1   2
DOCKED: BRANCH   1   4
DOCKED: ATOM      4  C   UNL     1     140.245  74.391 221.227 -0.22 -0.03    +0.152 C  
DOCKED: BRANCH   4   5
DOCKED: ATOM      5  N   UNL     1     139.928  73.541 222.335 -0.13 +0.03    -0.322 N  
DOCKED: ATOM      6  C   UNL     1     140.205  72.134 222.329 -0.21 -0.04    +0.273 C  
DOCKED: ATOM      7  H   UNL     1     139.312  73.933 223.081 -0.53 -0.06    +0.169 HD 
DOCKED: ATOM      8  O   UNL     1     140.539  71.565 221.253 -0.11 +0.04    -0.267 OA 
DOCKED: BRANCH   6   9
DOCKED: ATOM      9  C   UNL     1     140.111  71.353 223.580 -0.32 -0.02    +0.129 A  
DOCKED: ATOM     10  N   UNL     1     140.590  71.885 224.739 -0.27 +0.03    -0.243 NA 
DOCKED: ATOM     11  C   UNL     1     139.558  70.061 223.590 -0.27 -0.01    +0.035 A  
DOCKED: ATOM     12  C   UNL     1     140.550  71.208 225.917 -0.55 -0.01    +0.071 A  
DOCKED: ATOM     13  C   UNL     1     139.502  69.342 224.786 -0.37 -0.00    +0.013 A  
DOCKED: ATOM     14  C   UNL     1     141.057  71.795 227.082 -0.76 -0.01    +0.029 A  
DOCKED: ATOM     15  C   UNL     1     139.999  69.909 225.965 -0.49 -0.00    +0.000 A  
DOCKED: ATOM     16  C   UNL     1     141.014  71.095 228.293 -0.68 -0.00    +0.002 A  
DOCKED: ATOM     17  C   UNL     1     139.960  69.214 227.183 -0.58 -0.00    +0.010 A  
DOCKED: ATOM     18  C   UNL     1     140.467  69.809 228.343 -0.59 -0.00    +0.001 A  
DOCKED: ENDBRANCH   6   9
DOCKED: ENDBRANCH   4   5
DOCKED: ENDBRANCH   1   4
DOCKED: BRANCH   1  19
DOCKED: ATOM     19  N   UNL     1     142.580  74.880 220.808 -0.13 +0.14    -0.355 N  
DOCKED: ATOM     20  H   UNL     1     142.573  75.712 221.437 -0.47 -0.13    +0.163 HD 
DOCKED: BRANCH  19  21
DOCKED: ATOM     21  C   UNL     1     143.838  74.569 220.126 -0.35 -0.05    +0.119 C  
DOCKED: BRANCH  21  22
DOCKED: ATOM     22  C   UNL     1     144.618  73.449 220.847 -0.50 -0.00    +0.002 C  
DOCKED: ATOM     23  C   UNL     1     144.363  72.077 220.211 -0.34 -0.00    +0.009 C  
DOCKED: ATOM     24  C   UNL     1     146.123  73.744 220.914 -0.68 -0.00    +0.009 C  
DOCKED: ENDBRANCH  21  22
DOCKED: ENDBRANCH  19  21
DOCKED: ENDBRANCH   1  19
DOCKED: TORSDOF 7
DOCKED: TER
DOCKED: ENDMDL
________________________________________________________________________________


    FINAL DOCKED STATE:
    ________________________


Run:   16 / 20
Time taken for this run:   0.021s

DOCKED: MODEL        16
DOCKED: USER    Run = 16
DOCKED: USER
DOCKED: USER    Estimated Free Energy of Binding    =  -7.33 kcal/mol  [=(1)+(2)+(3)-(4)]
DOCKED: USER
DOCKED: USER    (1) Final Intermolecular Energy     =  -9.42 kcal/mol
DOCKED: USER        vdW + Hbond + desolv Energy     =  -9.27 kcal/mol
DOCKED: USER        Electrostatic Energy            =  -0.15 kcal/mol
DOCKED: USER        Moving Ligand-Fixed Receptor    =  -9.42 kcal/mol
DOCKED: USER        Moving Ligand-Moving Receptor   =  +0.00 kcal/mol
DOCKED: USER    (2) Final Total Internal Energy     =  -0.73 kcal/mol
DOCKED: USER    (3) Torsional Free Energy           =  +2.09 kcal/mol
DOCKED: USER    (4) Unbound System's Energy         =  -0.73 kcal/mol
DOCKED: USER
DOCKED: USER
DOCKED: REMARK SMILES CC(C)CN/C(O)=C\NC(=O)c1ccc2ccccc2n1
DOCKED: REMARK SMILES IDX 6 1 7 2 8 4 9 5 10 6 11 8 12 9 21 10 13 11 20 12 14 13 19 14
DOCKED: REMARK SMILES IDX 15 15 18 16 16 17 17 18 5 19 4 21 2 22 1 23 3 24
DOCKED: REMARK H PARENT 7 3 9 7 5 20
DOCKED: USER                              x       y       z     vdW  Elec       q    Type
DOCKED: USER                           _______ _______ _______ _____ _____    ______ ____
DOCKED: ROOT
DOCKED: ATOM      1  C   UNL     1     140.204  75.744 221.956 -0.26 -0.04    +0.200 C  
DOCKED: ENDROOT
DOCKED: BRANCH   1   2
DOCKED: ATOM      2  O   UNL     1     139.114  76.158 222.720 -0.20 +0.09    -0.494 OA 
DOCKED: ATOM      3  H   UNL     1     138.735  75.585 223.462 -0.35 -0.10    +0.295 HD 
DOCKED: ENDBRANCH   1   2
DOCKED: BRANCH   1   4
DOCKED: ATOM      4  C   UNL     1     140.276  74.457 221.593 -0.25 -0.02    +0.152 C  
DOCKED: BRANCH   4   5
DOCKED: ATOM      5  N   UNL     1     139.874  73.393 222.463 -0.08 +0.03    -0.322 N  
DOCKED: ATOM      6  C   UNL     1     140.613  72.168 222.572 -0.19 -0.02    +0.273 C  
DOCKED: ATOM      7  H   UNL     1     138.918  73.447 222.879 -0.50 -0.08    +0.169 HD 
DOCKED: ATOM      8  O   UNL     1     141.523  71.908 221.737 -0.18 +0.02    -0.267 OA 
DOCKED: BRANCH   6   9
DOCKED: ATOM      9  C   UNL     1     140.319  71.219 223.666 -0.32 -0.02    +0.129 A  
DOCKED: ATOM     10  N   UNL     1     140.789  71.475 224.919 -0.31 +0.03    -0.243 NA 
DOCKED: ATOM     11  C   UNL     1     139.584  70.044 223.430 -0.25 -0.01    +0.035 A  
DOCKED: ATOM     12  C   UNL     1     140.568  70.630 225.961 -0.52 -0.01    +0.071 A  
DOCKED: ATOM     13  C   UNL     1     139.341  69.158 224.482 -0.34 -0.00    +0.013 A  
DOCKED: ATOM     14  C   UNL     1     141.073  70.934 227.231 -0.66 -0.00    +0.029 A  
DOCKED: ATOM     15  C   UNL     1     139.832  69.442 225.762 -0.47 -0.00    +0.000 A  
DOCKED: ATOM     16  C   UNL     1     140.844  70.063 228.301 -0.57 -0.00    +0.002 A  
DOCKED: ATOM     17  C   UNL     1     139.606  68.574 226.840 -0.58 -0.00    +0.010 A  
DOCKED: ATOM     18  C   UNL     1     140.113  68.886 228.105 -0.64 -0.00    +0.001 A  
DOCKED: ENDBRANCH   6   9
DOCKED: ENDBRANCH   4   5
DOCKED: ENDBRANCH   1   4
DOCKED: BRANCH   1  19
DOCKED: ATOM     19  N   UNL     1     141.228  76.684 221.592 -0.14 +0.16    -0.355 N  
DOCKED: ATOM     20  H   UNL     1     142.200  76.350 221.415 -0.51 -0.13    +0.163 HD 
DOCKED: BRANCH  19  21
DOCKED: ATOM     21  C   UNL     1     141.022  78.132 221.659 -0.31 -0.05    +0.119 C  
DOCKED: BRANCH  21  22
DOCKED: ATOM     22  C   UNL     1     141.364  78.694 223.056 -0.56 -0.00    +0.002 C  
DOCKED: ATOM     23  C   UNL     1     142.592  79.612 223.014 -0.62 -0.00    +0.009 C  
DOCKED: ATOM     24  C   UNL     1     140.170  79.415 223.697 -0.46 -0.00    +0.009 C  
DOCKED: ENDBRANCH  21  22
DOCKED: ENDBRANCH  19  21
DOCKED: ENDBRANCH   1  19
DOCKED: TORSDOF 7
DOCKED: TER
DOCKED: ENDMDL
________________________________________________________________________________


    FINAL DOCKED STATE:
    ________________________


Run:   17 / 20
Time taken for this run:   0.021s

DOCKED: MODEL        17
DOCKED: USER    Run = 17
DOCKED: USER
DOCKED: USER    Estimated Free Energy of Binding    =  -6.83 kcal/mol  [=(1)+(2)+(3)-(4)]
DOCKED: USER
DOCKED: USER    (1) Final Intermolecular Energy     =  -8.92 kcal/mol
DOCKED: USER        vdW + Hbond + desolv Energy     =  -8.78 kcal/mol
DOCKED: USER        Electrostatic Energy            =  -0.13 kcal/mol
DOCKED: USER        Moving Ligand-Fixed Receptor    =  -8.92 kcal/mol
DOCKED: USER        Moving Ligand-Moving Receptor   =  +0.00 kcal/mol
DOCKED: USER    (2) Final Total Internal Energy     =  -1.39 kcal/mol
DOCKED: USER    (3) Torsional Free Energy           =  +2.09 kcal/mol
DOCKED: USER    (4) Unbound System's Energy         =  -1.39 kcal/mol
DOCKED: USER
DOCKED: USER
DOCKED: REMARK SMILES CC(C)CN/C(O)=C\NC(=O)c1ccc2ccccc2n1
DOCKED: REMARK SMILES IDX 6 1 7 2 8 4 9 5 10 6 11 8 12 9 21 10 13 11 20 12 14 13 19 14
DOCKED: REMARK SMILES IDX 15 15 18 16 16 17 17 18 5 19 4 21 2 22 1 23 3 24
DOCKED: REMARK H PARENT 7 3 9 7 5 20
DOCKED: USER                              x       y       z     vdW  Elec       q    Type
DOCKED: USER                           _______ _______ _______ _____ _____    ______ ____
DOCKED: ROOT
DOCKED: ATOM      1  C   UNL     1     141.499  74.730 220.892 -0.22 -0.05    +0.200 C  
DOCKED: ENDROOT
DOCKED: BRANCH   1   2
DOCKED: ATOM      2  O   UNL     1     141.801  76.073 220.669 -0.10 +0.24    -0.494 OA 
DOCKED: ATOM      3  H   UNL     1     142.386  76.600 221.304 -0.40 -0.27    +0.295 HD 
DOCKED: ENDBRANCH   1   2
DOCKED: BRANCH   1   4
DOCKED: ATOM      4  C   UNL     1     140.236  74.402 221.193 -0.22 -0.03    +0.152 C  
DOCKED: BRANCH   4   5
DOCKED: ATOM      5  N   UNL     1     139.909  73.543 222.291 -0.13 +0.03    -0.322 N  
DOCKED: ATOM      6  C   UNL     1     140.277  72.158 222.320 -0.21 -0.03    +0.273 C  
DOCKED: ATOM      7  H   UNL     1     139.223  73.901 222.993 -0.52 -0.06    +0.169 HD 
DOCKED: ATOM      8  O   UNL     1     140.713  71.602 221.273 -0.12 +0.04    -0.267 OA 
DOCKED: BRANCH   6   9
DOCKED: ATOM      9  C   UNL     1     140.158  71.384 223.573 -0.32 -0.02    +0.129 A  
DOCKED: ATOM     10  N   UNL     1     140.632  71.914 224.735 -0.25 +0.03    -0.243 NA 
DOCKED: ATOM     11  C   UNL     1     139.588  70.099 223.582 -0.27 -0.01    +0.035 A  
DOCKED: ATOM     12  C   UNL     1     140.569  71.243 225.916 -0.55 -0.01    +0.071 A  
DOCKED: ATOM     13  C   UNL     1     139.509  69.386 224.781 -0.37 -0.00    +0.013 A  
DOCKED: ATOM     14  C   UNL     1     141.072  71.827 227.084 -0.77 -0.01    +0.029 A  
DOCKED: ATOM     15  C   UNL     1     140.000  69.952 225.963 -0.50 -0.00    +0.000 A  
DOCKED: ATOM     16  C   UNL     1     141.006  71.134 228.297 -0.69 -0.00    +0.002 A  
DOCKED: ATOM     17  C   UNL     1     139.938  69.263 227.183 -0.58 -0.00    +0.010 A  
DOCKED: ATOM     18  C   UNL     1     140.440  69.855 228.346 -0.59 -0.00    +0.001 A  
DOCKED: ENDBRANCH   6   9
DOCKED: ENDBRANCH   4   5
DOCKED: ENDBRANCH   1   4
DOCKED: BRANCH   1  19
DOCKED: ATOM     19  N   UNL     1     142.534  73.736 220.817 -0.12 +0.07    -0.355 N  
DOCKED: ATOM     20  H   UNL     1     142.350  72.769 221.161 +0.06 -0.02    +0.163 HD 
DOCKED: BRANCH  19  21
DOCKED: ATOM     21  C   UNL     1     143.916  74.069 220.468 -0.35 -0.04    +0.119 C  
DOCKED: BRANCH  21  22
DOCKED: ATOM     22  C   UNL     1     144.887  72.922 220.816 -0.51 -0.00    +0.002 C  
DOCKED: ATOM     23  C   UNL     1     145.215  72.061 219.589 -0.36 +0.00    +0.009 C  
DOCKED: ATOM     24  C   UNL     1     146.174  73.434 221.478 -0.71 -0.00    +0.009 C  
DOCKED: ENDBRANCH  21  22
DOCKED: ENDBRANCH  19  21
DOCKED: ENDBRANCH   1  19
DOCKED: TORSDOF 7
DOCKED: TER
DOCKED: ENDMDL
________________________________________________________________________________


    FINAL DOCKED STATE:
    ________________________


Run:   18 / 20
Time taken for this run:   0.021s

DOCKED: MODEL        18
DOCKED: USER    Run = 18
DOCKED: USER
DOCKED: USER    Estimated Free Energy of Binding    =  -6.10 kcal/mol  [=(1)+(2)+(3)-(4)]
DOCKED: USER
DOCKED: USER    (1) Final Intermolecular Energy     =  -8.19 kcal/mol
DOCKED: USER        vdW + Hbond + desolv Energy     =  -8.12 kcal/mol
DOCKED: USER        Electrostatic Energy            =  -0.07 kcal/mol
DOCKED: USER        Moving Ligand-Fixed Receptor    =  -8.19 kcal/mol
DOCKED: USER        Moving Ligand-Moving Receptor   =  +0.00 kcal/mol
DOCKED: USER    (2) Final Total Internal Energy     =  -1.41 kcal/mol
DOCKED: USER    (3) Torsional Free Energy           =  +2.09 kcal/mol
DOCKED: USER    (4) Unbound System's Energy         =  -1.41 kcal/mol
DOCKED: USER
DOCKED: USER
DOCKED: REMARK SMILES CC(C)CN/C(O)=C\NC(=O)c1ccc2ccccc2n1
DOCKED: REMARK SMILES IDX 6 1 7 2 8 4 9 5 10 6 11 8 12 9 21 10 13 11 20 12 14 13 19 14
DOCKED: REMARK SMILES IDX 15 15 18 16 16 17 17 18 5 19 4 21 2 22 1 23 3 24
DOCKED: REMARK H PARENT 7 3 9 7 5 20
DOCKED: USER                              x       y       z     vdW  Elec       q    Type
DOCKED: USER                           _______ _______ _______ _____ _____    ______ ____
DOCKED: ROOT
DOCKED: ATOM      1  C   UNL     1     139.690  71.918 222.720 -0.24 -0.04    +0.200 C  
DOCKED: ENDROOT
DOCKED: BRANCH   1   2
DOCKED: ATOM      2  O   UNL     1     140.572  71.229 221.887 -0.06 +0.06    -0.494 OA 
DOCKED: ATOM      3  H   UNL     1     141.195  71.714 221.254 +0.09 -0.03    +0.295 HD 
DOCKED: ENDBRANCH   1   2
DOCKED: BRANCH   1   4
DOCKED: ATOM      4  C   UNL     1     139.049  72.985 222.226 -0.12 -0.04    +0.152 C  
DOCKED: BRANCH   4   5
DOCKED: ATOM      5  N   UNL     1     139.578  74.312 222.333 -0.10 +0.04    -0.322 N  
DOCKED: ATOM      6  C   UNL     1     140.772  74.722 221.653 -0.17 -0.04    +0.273 C  
DOCKED: ATOM      7  H   UNL     1     139.180  74.930 223.075 -0.51 -0.05    +0.169 HD 
DOCKED: ATOM      8  O   UNL     1     141.514  73.855 221.112 -0.23 +0.04    -0.267 OA 
DOCKED: BRANCH   6   9
DOCKED: ATOM      9  C   UNL     1     141.129  76.153 221.575 -0.28 -0.05    +0.129 A  
DOCKED: ATOM     10  N   UNL     1     141.061  76.923 222.696 -0.27 +0.09    -0.243 NA 
DOCKED: ATOM     11  C   UNL     1     141.512  76.740 220.357 -0.27 -0.02    +0.035 A  
DOCKED: ATOM     12  C   UNL     1     141.358  78.250 222.683 -0.45 -0.03    +0.071 A  
DOCKED: ATOM     13  C   UNL     1     141.824  78.102 220.312 -0.31 -0.01    +0.013 A  
DOCKED: ATOM     14  C   UNL     1     141.272  79.001 223.862 -0.56 -0.01    +0.029 A  
DOCKED: ATOM     15  C   UNL     1     141.749  78.873 221.478 -0.40 -0.00    +0.000 A  
DOCKED: ATOM     16  C   UNL     1     141.579  80.366 223.844 -0.57 -0.00    +0.002 A  
DOCKED: ATOM     17  C   UNL     1     142.055  80.241 221.469 -0.42 -0.00    +0.010 A  
DOCKED: ATOM     18  C   UNL     1     141.968  80.984 222.651 -0.55 -0.00    +0.001 A  
DOCKED: ENDBRANCH   6   9
DOCKED: ENDBRANCH   4   5
DOCKED: ENDBRANCH   1   4
DOCKED: BRANCH   1  19
DOCKED: ATOM     19  N   UNL     1     139.500  71.491 224.079 -0.18 +0.09    -0.355 N  
DOCKED: ATOM     20  H   UNL     1     138.656  71.801 224.606 -0.15 -0.07    +0.163 HD 
DOCKED: BRANCH  19  21
DOCKED: ATOM     21  C   UNL     1     140.547  70.804 224.837 -0.42 -0.02    +0.119 C  
DOCKED: BRANCH  21  22
DOCKED: ATOM     22  C   UNL     1     140.271  70.840 226.355 -0.59 -0.00    +0.002 C  
DOCKED: ATOM     23  C   UNL     1     140.457  69.461 227.000 -0.60 -0.00    +0.009 C  
DOCKED: ATOM     24  C   UNL     1     141.127  71.894 227.073 -0.78 -0.00    +0.009 C  
DOCKED: ENDBRANCH  21  22
DOCKED: ENDBRANCH  19  21
DOCKED: ENDBRANCH   1  19
DOCKED: TORSDOF 7
DOCKED: TER
DOCKED: ENDMDL
________________________________________________________________________________


    FINAL DOCKED STATE:
    ________________________


Run:   19 / 20
Time taken for this run:   0.021s

DOCKED: MODEL        19
DOCKED: USER    Run = 19
DOCKED: USER
DOCKED: USER    Estimated Free Energy of Binding    =  -6.87 kcal/mol  [=(1)+(2)+(3)-(4)]
DOCKED: USER
DOCKED: USER    (1) Final Intermolecular Energy     =  -8.96 kcal/mol
DOCKED: USER        vdW + Hbond + desolv Energy     =  -8.79 kcal/mol
DOCKED: USER        Electrostatic Energy            =  -0.17 kcal/mol
DOCKED: USER        Moving Ligand-Fixed Receptor    =  -8.96 kcal/mol
DOCKED: USER        Moving Ligand-Moving Receptor   =  +0.00 kcal/mol
DOCKED: USER    (2) Final Total Internal Energy     =  -1.41 kcal/mol
DOCKED: USER    (3) Torsional Free Energy           =  +2.09 kcal/mol
DOCKED: USER    (4) Unbound System's Energy         =  -1.41 kcal/mol
DOCKED: USER
DOCKED: USER
DOCKED: REMARK SMILES CC(C)CN/C(O)=C\NC(=O)c1ccc2ccccc2n1
DOCKED: REMARK SMILES IDX 6 1 7 2 8 4 9 5 10 6 11 8 12 9 21 10 13 11 20 12 14 13 19 14
DOCKED: REMARK SMILES IDX 15 15 18 16 16 17 17 18 5 19 4 21 2 22 1 23 3 24
DOCKED: REMARK H PARENT 7 3 9 7 5 20
DOCKED: USER                              x       y       z     vdW  Elec       q    Type
DOCKED: USER                           _______ _______ _______ _____ _____    ______ ____
DOCKED: ROOT
DOCKED: ATOM      1  C   UNL     1     141.517  74.681 220.841 -0.22 -0.05    +0.200 C  
DOCKED: ENDROOT
DOCKED: BRANCH   1   2
DOCKED: ATOM      2  O   UNL     1     141.807  76.045 220.890 -0.10 +0.25    -0.494 OA 
DOCKED: ATOM      3  H   UNL     1     142.474  76.424 221.549 -0.38 -0.32    +0.295 HD 
DOCKED: ENDBRANCH   1   2
DOCKED: BRANCH   1   4
DOCKED: ATOM      4  C   UNL     1     140.259  74.289 221.078 -0.21 -0.03    +0.152 C  
DOCKED: BRANCH   4   5
DOCKED: ATOM      5  N   UNL     1     139.916  73.447 222.185 -0.15 +0.04    -0.322 N  
DOCKED: ATOM      6  C   UNL     1     140.337  72.079 222.271 -0.20 -0.03    +0.273 C  
DOCKED: ATOM      7  H   UNL     1     139.185  73.795 222.845 -0.51 -0.06    +0.169 HD 
DOCKED: ATOM      8  O   UNL     1     140.842  71.513 221.262 -0.13 +0.03    -0.267 OA 
DOCKED: BRANCH   6   9
DOCKED: ATOM      9  C   UNL     1     140.191  71.335 223.540 -0.32 -0.02    +0.129 A  
DOCKED: ATOM     10  N   UNL     1     140.669  71.879 224.693 -0.27 +0.03    -0.243 NA 
DOCKED: ATOM     11  C   UNL     1     139.591  70.065 223.572 -0.27 -0.01    +0.035 A  
DOCKED: ATOM     12  C   UNL     1     140.582  71.235 225.888 -0.55 -0.01    +0.071 A  
DOCKED: ATOM     13  C   UNL     1     139.487  69.379 224.785 -0.37 -0.00    +0.013 A  
DOCKED: ATOM     14  C   UNL     1     141.090  71.833 227.047 -0.76 -0.01    +0.029 A  
DOCKED: ATOM     15  C   UNL     1     139.983  69.959 225.958 -0.50 -0.00    +0.000 A  
DOCKED: ATOM     16  C   UNL     1     140.998  71.168 228.274 -0.70 -0.00    +0.002 A  
DOCKED: ATOM     17  C   UNL     1     139.896  69.298 227.192 -0.58 -0.00    +0.010 A  
DOCKED: ATOM     18  C   UNL     1     140.404  69.904 228.346 -0.59 -0.00    +0.001 A  
DOCKED: ENDBRANCH   6   9
DOCKED: ENDBRANCH   4   5
DOCKED: ENDBRANCH   1   4
DOCKED: BRANCH   1  19
DOCKED: ATOM     19  N   UNL     1     142.559  73.732 220.562 -0.11 +0.08    -0.355 N  
DOCKED: ATOM     20  H   UNL     1     142.347  72.711 220.573 +0.06 -0.02    +0.163 HD 
DOCKED: BRANCH  19  21
DOCKED: ATOM     21  C   UNL     1     143.968  74.122 220.467 -0.36 -0.04    +0.119 C  
DOCKED: BRANCH  21  22
DOCKED: ATOM     22  C   UNL     1     144.910  72.959 220.845 -0.52 -0.00    +0.002 C  
DOCKED: ATOM     23  C   UNL     1     145.216  72.060 219.641 -0.36 +0.00    +0.009 C  
DOCKED: ATOM     24  C   UNL     1     146.209  73.455 221.496 -0.70 -0.00    +0.009 C  
DOCKED: ENDBRANCH  21  22
DOCKED: ENDBRANCH  19  21
DOCKED: ENDBRANCH   1  19
DOCKED: TORSDOF 7
DOCKED: TER
DOCKED: ENDMDL
________________________________________________________________________________


    FINAL DOCKED STATE:
    ________________________


Run:   20 / 20
Time taken for this run:   0.021s

DOCKED: MODEL        20
DOCKED: USER    Run = 20
DOCKED: USER
DOCKED: USER    Estimated Free Energy of Binding    =  -6.76 kcal/mol  [=(1)+(2)+(3)-(4)]
DOCKED: USER
DOCKED: USER    (1) Final Intermolecular Energy     =  -8.85 kcal/mol
DOCKED: USER        vdW + Hbond + desolv Energy     =  -8.76 kcal/mol
DOCKED: USER        Electrostatic Energy            =  -0.08 kcal/mol
DOCKED: USER        Moving Ligand-Fixed Receptor    =  -8.85 kcal/mol
DOCKED: USER        Moving Ligand-Moving Receptor   =  +0.00 kcal/mol
DOCKED: USER    (2) Final Total Internal Energy     =  -1.31 kcal/mol
DOCKED: USER    (3) Torsional Free Energy           =  +2.09 kcal/mol
DOCKED: USER    (4) Unbound System's Energy         =  -1.31 kcal/mol
DOCKED: USER
DOCKED: USER
DOCKED: REMARK SMILES CC(C)CN/C(O)=C\NC(=O)c1ccc2ccccc2n1
DOCKED: REMARK SMILES IDX 6 1 7 2 8 4 9 5 10 6 11 8 12 9 21 10 13 11 20 12 14 13 19 14
DOCKED: REMARK SMILES IDX 15 15 18 16 16 17 17 18 5 19 4 21 2 22 1 23 3 24
DOCKED: REMARK H PARENT 7 3 9 7 5 20
DOCKED: USER                              x       y       z     vdW  Elec       q    Type
DOCKED: USER                           _______ _______ _______ _____ _____    ______ ____
DOCKED: ROOT
DOCKED: ATOM      1  C   UNL     1     141.065  75.168 221.294 -0.25 -0.05    +0.200 C  
DOCKED: ENDROOT
DOCKED: BRANCH   1   2
DOCKED: ATOM      2  O   UNL     1     142.152  74.513 220.716 -0.11 +0.14    -0.494 OA 
DOCKED: ATOM      3  H   UNL     1     142.174  73.507 220.612 +0.11 -0.06    +0.295 HD 
DOCKED: ENDBRANCH   1   2
DOCKED: BRANCH   1   4
DOCKED: ATOM      4  C   UNL     1     139.884  74.537 221.327 -0.22 -0.03    +0.152 C  
DOCKED: BRANCH   4   5
DOCKED: ATOM      5  N   UNL     1     139.560  73.572 222.334 -0.13 +0.06    -0.322 N  
DOCKED: ATOM      6  C   UNL     1     140.258  72.326 222.460 -0.21 -0.03    +0.273 C  
DOCKED: ATOM      7  H   UNL     1     138.670  73.710 222.863 -0.54 -0.09    +0.169 HD 
DOCKED: ATOM      8  O   UNL     1     141.040  71.950 221.543 -0.17 +0.03    -0.267 OA 
DOCKED: BRANCH   6   9
DOCKED: ATOM      9  C   UNL     1     140.075  71.490 223.664 -0.33 -0.02    +0.129 A  
DOCKED: ATOM     10  N   UNL     1     140.627  71.885 224.845 -0.27 +0.03    -0.243 NA 
DOCKED: ATOM     11  C   UNL     1     139.361  70.280 223.606 -0.29 -0.01    +0.035 A  
DOCKED: ATOM     12  C   UNL     1     140.510  71.149 225.982 -0.55 -0.01    +0.071 A  
DOCKED: ATOM     13  C   UNL     1     139.223  69.503 224.759 -0.37 -0.00    +0.013 A  
DOCKED: ATOM     14  C   UNL     1     141.097  71.595 227.172 -0.74 -0.00    +0.029 A  
DOCKED: ATOM     15  C   UNL     1     139.797  69.931 225.962 -0.48 -0.00    +0.000 A  
DOCKED: ATOM     16  C   UNL     1     140.973  70.836 228.340 -0.62 -0.00    +0.002 A  
DOCKED: ATOM     17  C   UNL     1     139.678  69.174 227.137 -0.56 -0.00    +0.010 A  
DOCKED: ATOM     18  C   UNL     1     140.267  69.629 228.322 -0.61 -0.00    +0.001 A  
DOCKED: ENDBRANCH   6   9
DOCKED: ENDBRANCH   4   5
DOCKED: ENDBRANCH   1   4
DOCKED: BRANCH   1  19
DOCKED: ATOM     19  N   UNL     1     141.219  76.497 221.818 -0.13 +0.15    -0.355 N  
DOCKED: ATOM     20  H   UNL     1     142.175  76.888 221.967 -0.50 -0.16    +0.163 HD 
DOCKED: BRANCH  19  21
DOCKED: ATOM     21  C   UNL     1     140.094  77.262 222.356 -0.33 -0.03    +0.119 C  
DOCKED: BRANCH  21  22
DOCKED: ATOM     22  C   UNL     1     140.512  78.694 222.753 -0.45 -0.00    +0.002 C  
DOCKED: ATOM     23  C   UNL     1     139.391  79.429 223.498 -0.41 -0.00    +0.009 C  
DOCKED: ATOM     24  C   UNL     1     141.810  78.711 223.574 -0.60 -0.00    +0.009 C  
DOCKED: ENDBRANCH  21  22
DOCKED: ENDBRANCH  19  21
DOCKED: ENDBRANCH   1  19
DOCKED: TORSDOF 7
DOCKED: TER
DOCKED: ENDMDL
________________________________________________________________________________


    CLUSTERING HISTOGRAM
    ____________________


________________________________________________________________________________
     |           |     |           |     |
Clus | Lowest    | Run | Mean      | Num | Histogram
-ter | Binding   |     | Binding   | in  |
Rank | Energy    |     | Energy    | Clus|    5    10   15   20   25   30   35
_____|___________|_____|___________|_____|____:____|____:____|____:____|____:___
   1 |     -7.33 |  16 |     -6.76 |   6 |######
   2 |     -6.87 |  19 |     -6.58 |  12 |############
   3 |     -6.42 |  13 |     -6.26 |   2 |##
_____|___________|_____|___________|_____|______________________________________


    RMSD TABLE
    __________


_______________________________________________________________________
     |      |      |           |         |                 |
Rank | Sub- | Run  | Binding   | Cluster | Reference       | Grep
     | Rank |      | Energy    | RMSD    | RMSD            | Pattern
_____|______|______|___________|_________|_________________|___________
   1      1     16       -7.33      0.00    272.54           RANKING
   1      2      6       -6.94      0.66    272.51           RANKING
   1      3     20       -6.76      1.06    272.45           RANKING
   1      4      8       -6.75      1.03    272.45           RANKING
   1      5      3       -6.54      1.27    272.33           RANKING
   1      6      5       -6.25      1.22    272.13           RANKING
   2      1     19       -6.87      0.00    272.24           RANKING
   2      2     11       -6.86      0.36    272.21           RANKING
   2      3      9       -6.86      0.37    272.20           RANKING
   2      4     10       -6.85      0.12    272.25           RANKING
   2      5      7       -6.84      0.19    272.28           RANKING
   2      6     17       -6.83      0.17    272.27           RANKING
   2      7      1       -6.81      0.19    272.24           RANKING
   2      8     15       -6.68      0.82    272.04           RANKING
   2      9     12       -6.64      0.77    272.04           RANKING
   2     10     14       -6.11      0.72    271.98           RANKING
   2     11      2       -5.86      1.83    271.89           RANKING
   2     12      4       -5.81      1.83    271.75           RANKING
   3      1     13       -6.42      0.00    272.73           RANKING
   3      2     18       -6.10      1.68    272.36           RANKING

Run time 0.390 sec
Idle time 0.000 sec
