AutoDock-GPU version: v1.6

**********************************************************
**    AutoDock-GPU AUTODOCKTOOLS-COMPATIBLE DLG FILE    **
**********************************************************


    DOCKING PARAMETERS
    ________________________


Ligand file:                               /home/a/REINVENT4/ReinventStudies/pleaseWork/justmol2mol_4_Compounds_ontop/graph-dock-8u2o5u/graph-DockGPU/node-autodockgpu/inputs/BWMAAEGAJJXAME-CYSOOTGLNA-M.pdbqt
Grid fld file:                             /home/a/REINVENT4/ReinventStudies/mols/Rad51/maps/rad51_receptor.maps.fld

Random seed:                               42
Number of runs:                            20
Number of energy evaluations:              1613968
Number of generations:                     42000
Size of population:                        150
Rate of crossover:                         80.000000%
Tournament selection probability limit:    60.000000%
Rate of mutation:                          2.000000%
Maximal allowed delta movement:            +/- 6.000000A
Maximal allowed delta angle:               +/- 90.000000

Rate of local search:                      100.000000%
Maximal number of local search iterations: 300
Rho lower bound:                           0.010000
Spread of local search delta movement:     2.000000A
Spread of local search delta angle:        74.999999
Limit of consecutive successes/failures:   4

Handle symmetry during clustering:         YES
RMSD tolerance:                            2.000000A

Program call in command line was:          /home/a/REINVENT4/ReinventStudies/adgpu-v1.6_linux_x64_cuda12_128wi --filelist batch.txt --heuristics 1 --nrun 20 --psize 150 --lsit 300 --seed 42 --heurmax 12000000 


    GRID PARAMETERS
    ________________________


Receptor name:                             rad51_receptor
Number of grid points (x, y, z):           53, 53, 53
Grid center (x, y, z):                     139.950000, 75.640000, 221.970000A
Grid size (x, y, z):                       19.500000, 19.500000, 19.500000A
Grid spacing:                              0.375000A


    LIGAND PARAMETERS
    ________________________


Ligand name:                               /home/a/REINVENT4/ReinventStudies/pleaseWork/justmol2mol_4_Compounds_ontop/graph-dock-8u2o5u/graph-DockGPU/node-autodockgpu/inputs/BWMAAEGAJJXAME-CYSOOTGLNA-M
Number of atoms:                           27
Number of rotatable bonds:                 8
Number of atom types:                      6


    DUMMY DATA (only for ADT-compatibility)
    ________________________


DPF> outlev 1
DPF> ga_run 20
DPF> fld /home/a/REINVENT4/ReinventStudies/mols/Rad51/maps/rad51_receptor.maps.fld
DPF> move /home/a/REINVENT4/ReinventStudies/pleaseWork/justmol2mol_4_Compounds_ontop/graph-dock-8u2o5u/graph-DockGPU/node-autodockgpu/inputs/BWMAAEGAJJXAME-CYSOOTGLNA-M.pdbqt


    COUNTER STATES
    ________________________


Number of energy evaluations performed:    1618510
Number of generations used:                80


    INPUT LIGAND PDBQT FILE:
    ________________________


INPUT-LIGAND-PDBQT: REMARK SMILES C[C@H]([N-]C(=O)C/N=C(/O)c1ccc2cc(Cl)ccc2n1)c1ccccc1
INPUT-LIGAND-PDBQT: REMARK SMILES IDX 6 1 7 2 8 3 9 4 10 6 20 7 11 8 19 9 12 10 18 11 13 12 17 13
INPUT-LIGAND-PDBQT: REMARK SMILES IDX 14 14 15 15 16 16 4 17 5 18 3 19 2 20 1 21 21 22 22 23 26 24
INPUT-LIGAND-PDBQT: REMARK SMILES IDX 23 25 25 26 24 27
INPUT-LIGAND-PDBQT: REMARK H PARENT 9 5
INPUT-LIGAND-PDBQT: ROOT
INPUT-LIGAND-PDBQT: ATOM      1  C   UNL     1      -1.715  -1.002   0.296  1.00  0.00     0.201 C 
INPUT-LIGAND-PDBQT: ENDROOT
INPUT-LIGAND-PDBQT: BRANCH   1   2
INPUT-LIGAND-PDBQT: ATOM      2  N   UNL     1      -1.051  -1.887   1.254  1.00  0.00    -0.244 NA
INPUT-LIGAND-PDBQT: BRANCH   2   3
INPUT-LIGAND-PDBQT: ATOM      3  C   UNL     1      -0.103  -1.562   2.088  1.00  0.00     0.233 C 
INPUT-LIGAND-PDBQT: BRANCH   3   4
INPUT-LIGAND-PDBQT: ATOM      4  O   UNL     1       0.382  -2.524   2.969  1.00  0.00    -0.492 OA
INPUT-LIGAND-PDBQT: ATOM      5  H   UNL     1       0.025  -3.473   2.955  1.00  0.00     0.295 HD
INPUT-LIGAND-PDBQT: ENDBRANCH   3   4
INPUT-LIGAND-PDBQT: BRANCH   3   6
INPUT-LIGAND-PDBQT: ATOM      6  C   UNL     1       0.453  -0.200   2.177  1.00  0.00     0.125 A 
INPUT-LIGAND-PDBQT: ATOM      7  N   UNL     1       0.334   0.487   3.345  1.00  0.00    -0.243 NA
INPUT-LIGAND-PDBQT: ATOM      8  C   UNL     1       1.166   0.364   1.109  1.00  0.00     0.035 A 
INPUT-LIGAND-PDBQT: ATOM      9  C   UNL     1       0.848   1.737   3.502  1.00  0.00     0.071 A 
INPUT-LIGAND-PDBQT: ATOM     10  C   UNL     1       1.695   1.649   1.235  1.00  0.00     0.013 A 
INPUT-LIGAND-PDBQT: ATOM     11  C   UNL     1       0.688   2.417   4.715  1.00  0.00     0.030 A 
INPUT-LIGAND-PDBQT: ATOM     12  C   UNL     1       1.538   2.353   2.434  1.00  0.00     0.002 A 
INPUT-LIGAND-PDBQT: ATOM     13  C   UNL     1       1.213   3.704   4.870  1.00  0.00     0.023 A 
INPUT-LIGAND-PDBQT: ATOM     14  C   UNL     1       2.060   3.645   2.596  1.00  0.00     0.030 A 
INPUT-LIGAND-PDBQT: ATOM     15  C   UNL     1       1.897   4.318   3.813  1.00  0.00     0.041 A 
INPUT-LIGAND-PDBQT: ATOM     16  Cl  UNL     1       2.549   5.934   4.016  1.00  0.00    -0.084 Cl
INPUT-LIGAND-PDBQT: ENDBRANCH   3   6
INPUT-LIGAND-PDBQT: ENDBRANCH   2   3
INPUT-LIGAND-PDBQT: ENDBRANCH   1   2
INPUT-LIGAND-PDBQT: BRANCH   1  17
INPUT-LIGAND-PDBQT: ATOM     17  C   UNL     1      -0.949  -0.933  -0.985  1.00  0.00     0.074 C 
INPUT-LIGAND-PDBQT: ATOM     18  O   UNL     1      -0.876   0.159  -1.612  1.00  0.00    -0.318 OA
INPUT-LIGAND-PDBQT: BRANCH  17  19
INPUT-LIGAND-PDBQT: ATOM     19  N   UNL     1      -0.328  -2.112  -1.510  1.00  0.00    -0.646 NA
INPUT-LIGAND-PDBQT: BRANCH  19  20
INPUT-LIGAND-PDBQT: ATOM     20  C   UNL     1       0.483  -2.128  -2.726  1.00  0.00    -0.079 C 
INPUT-LIGAND-PDBQT: ATOM     21  C   UNL     1       1.190  -3.479  -2.845  1.00  0.00    -0.008 C 
INPUT-LIGAND-PDBQT: BRANCH  20  22
INPUT-LIGAND-PDBQT: ATOM     22  C   UNL     1      -0.374  -1.871  -3.949  1.00  0.00    -0.063 A 
INPUT-LIGAND-PDBQT: ATOM     23  C   UNL     1      -1.613  -2.518  -4.112  1.00  0.00     0.002 A 
INPUT-LIGAND-PDBQT: ATOM     24  C   UNL     1       0.087  -1.010  -4.961  1.00  0.00     0.002 A 
INPUT-LIGAND-PDBQT: ATOM     25  C   UNL     1      -2.388  -2.282  -5.252  1.00  0.00     0.000 A 
INPUT-LIGAND-PDBQT: ATOM     26  C   UNL     1      -0.689  -0.785  -6.104  1.00  0.00     0.000 A 
INPUT-LIGAND-PDBQT: ATOM     27  C   UNL     1      -1.927  -1.416  -6.247  1.00  0.00     0.000 A 
INPUT-LIGAND-PDBQT: ENDBRANCH  20  22
INPUT-LIGAND-PDBQT: ENDBRANCH  19  20
INPUT-LIGAND-PDBQT: ENDBRANCH  17  19
INPUT-LIGAND-PDBQT: ENDBRANCH   1  17
INPUT-LIGAND-PDBQT: TORSDOF 8


    FINAL DOCKED STATE:
    ________________________


Run:   1 / 20
Time taken for this run:   0.061s

DOCKED: MODEL        1
DOCKED: USER    Run = 1
DOCKED: USER
DOCKED: USER    Estimated Free Energy of Binding    =  -7.17 kcal/mol  [=(1)+(2)+(3)-(4)]
DOCKED: USER
DOCKED: USER    (1) Final Intermolecular Energy     =  -9.56 kcal/mol
DOCKED: USER        vdW + Hbond + desolv Energy     =  -9.65 kcal/mol
DOCKED: USER        Electrostatic Energy            =  +0.09 kcal/mol
DOCKED: USER        Moving Ligand-Fixed Receptor    =  -9.56 kcal/mol
DOCKED: USER        Moving Ligand-Moving Receptor   =  +0.00 kcal/mol
DOCKED: USER    (2) Final Total Internal Energy     =  -1.38 kcal/mol
DOCKED: USER    (3) Torsional Free Energy           =  +2.39 kcal/mol
DOCKED: USER    (4) Unbound System's Energy         =  -1.38 kcal/mol
DOCKED: USER
DOCKED: USER
DOCKED: REMARK SMILES C[C@H]([N-]C(=O)C/N=C(/O)c1ccc2cc(Cl)ccc2n1)c1ccccc1
DOCKED: REMARK SMILES IDX 6 1 7 2 8 3 9 4 10 6 20 7 11 8 19 9 12 10 18 11 13 12 17 13
DOCKED: REMARK SMILES IDX 14 14 15 15 16 16 4 17 5 18 3 19 2 20 1 21 21 22 22 23 26 24
DOCKED: REMARK SMILES IDX 23 25 25 26 24 27
DOCKED: REMARK H PARENT 9 5
DOCKED: USER                              x       y       z     vdW  Elec       q    Type
DOCKED: USER                           _______ _______ _______ _____ _____    ______ ____
DOCKED: ROOT
DOCKED: ATOM      1  C   UNL     1     140.526  72.930 221.340 -0.19 -0.03    +0.201 C  
DOCKED: ENDROOT
DOCKED: BRANCH   1   2
DOCKED: ATOM      2  N   UNL     1     141.067  74.209 221.801 -0.52 +0.01    -0.244 NA 
DOCKED: BRANCH   2   3
DOCKED: ATOM      3  C   UNL     1     140.404  75.318 221.976 -0.16 -0.03    +0.233 C  
DOCKED: BRANCH   3   4
DOCKED: ATOM      4  O   UNL     1     139.202  75.284 222.677 -0.40 +0.10    -0.492 OA 
DOCKED: ATOM      5  H   UNL     1     138.813  74.406 223.005 -0.50 -0.16    +0.295 HD 
DOCKED: ENDBRANCH   3   4
DOCKED: BRANCH   3   6
DOCKED: ATOM      6  C   UNL     1     140.845  76.611 221.423 -0.28 -0.05    +0.125 A  
DOCKED: ATOM      7  N   UNL     1     141.222  76.677 220.118 -0.11 +0.10    -0.243 NA 
DOCKED: ATOM      8  C   UNL     1     140.808  77.781 222.196 -0.40 -0.01    +0.035 A  
DOCKED: ATOM      9  C   UNL     1     141.614  77.844 219.539 -0.23 -0.04    +0.071 A  
DOCKED: ATOM     10  C   UNL     1     141.216  78.991 221.634 -0.36 -0.01    +0.013 A  
DOCKED: ATOM     11  C   UNL     1     142.012  77.865 218.197 -0.24 -0.02    +0.030 A  
DOCKED: ATOM     12  C   UNL     1     141.628  79.035 220.297 -0.30 -0.00    +0.002 A  
DOCKED: ATOM     13  C   UNL     1     142.420  79.066 217.607 -0.28 -0.02    +0.023 A  
DOCKED: ATOM     14  C   UNL     1     142.041  80.236 219.700 -0.28 -0.02    +0.030 A  
DOCKED: ATOM     15  C   UNL     1     142.435  80.249 218.356 -0.32 -0.03    +0.041 A  
DOCKED: ATOM     16  Cl  UNL     1     142.952  81.750 217.609 -0.36 +0.07    -0.084 Cl 
DOCKED: ENDBRANCH   3   6
DOCKED: ENDBRANCH   2   3
DOCKED: ENDBRANCH   1   2
DOCKED: BRANCH   1  17
DOCKED: ATOM     17  C   UNL     1     139.617  72.335 222.366 -0.26 -0.01    +0.074 C  
DOCKED: ATOM     18  O   UNL     1     138.379  72.567 222.315 -0.12 +0.09    -0.318 OA 
DOCKED: BRANCH  17  19
DOCKED: ATOM     19  N   UNL     1     140.160  71.530 223.419 -0.04 +0.10    -0.646 NA 
DOCKED: BRANCH  19  20
DOCKED: ATOM     20  C   UNL     1     139.341  70.774 224.365 -0.36 +0.02    -0.079 C  
DOCKED: ATOM     21  C   UNL     1     139.215  69.328 223.883 -0.30 +0.00    -0.008 C  
DOCKED: BRANCH  20  22
DOCKED: ATOM     22  C   UNL     1     139.946  70.816 225.754 -0.47 +0.01    -0.063 A  
DOCKED: ATOM     23  C   UNL     1     139.654  69.815 226.700 -0.50 -0.00    +0.002 A  
DOCKED: ATOM     24  C   UNL     1     140.775  71.889 226.127 -0.59 -0.00    +0.002 A  
DOCKED: ATOM     25  C   UNL     1     140.208  69.873 227.983 -0.63 -0.00    +0.000 A  
DOCKED: ATOM     26  C   UNL     1     141.319  71.946 227.416 -0.79 -0.00    +0.000 A  
DOCKED: ATOM     27  C   UNL     1     141.040  70.937 228.340 -0.64 -0.00    +0.000 A  
DOCKED: ENDBRANCH  20  22
DOCKED: ENDBRANCH  19  20
DOCKED: ENDBRANCH  17  19
DOCKED: ENDBRANCH   1  17
DOCKED: TORSDOF 8
DOCKED: TER
DOCKED: ENDMDL
________________________________________________________________________________


    FINAL DOCKED STATE:
    ________________________


Run:   2 / 20
Time taken for this run:   0.061s

DOCKED: MODEL        2
DOCKED: USER    Run = 2
DOCKED: USER
DOCKED: USER    Estimated Free Energy of Binding    =  -7.12 kcal/mol  [=(1)+(2)+(3)-(4)]
DOCKED: USER
DOCKED: USER    (1) Final Intermolecular Energy     =  -9.51 kcal/mol
DOCKED: USER        vdW + Hbond + desolv Energy     =  -9.79 kcal/mol
DOCKED: USER        Electrostatic Energy            =  +0.28 kcal/mol
DOCKED: USER        Moving Ligand-Fixed Receptor    =  -9.51 kcal/mol
DOCKED: USER        Moving Ligand-Moving Receptor   =  +0.00 kcal/mol
DOCKED: USER    (2) Final Total Internal Energy     =  -1.40 kcal/mol
DOCKED: USER    (3) Torsional Free Energy           =  +2.39 kcal/mol
DOCKED: USER    (4) Unbound System's Energy         =  -1.40 kcal/mol
DOCKED: USER
DOCKED: USER
DOCKED: REMARK SMILES C[C@H]([N-]C(=O)C/N=C(/O)c1ccc2cc(Cl)ccc2n1)c1ccccc1
DOCKED: REMARK SMILES IDX 6 1 7 2 8 3 9 4 10 6 20 7 11 8 19 9 12 10 18 11 13 12 17 13
DOCKED: REMARK SMILES IDX 14 14 15 15 16 16 4 17 5 18 3 19 2 20 1 21 21 22 22 23 26 24
DOCKED: REMARK SMILES IDX 23 25 25 26 24 27
DOCKED: REMARK H PARENT 9 5
DOCKED: USER                              x       y       z     vdW  Elec       q    Type
DOCKED: USER                           _______ _______ _______ _____ _____    ______ ____
DOCKED: ROOT
DOCKED: ATOM      1  C   UNL     1     139.215  75.269 221.982 -0.22 -0.04    +0.201 C  
DOCKED: ENDROOT
DOCKED: BRANCH   1   2
DOCKED: ATOM      2  N   UNL     1     140.128  74.169 222.296 -0.76 -0.00    -0.244 NA 
DOCKED: BRANCH   2   3
DOCKED: ATOM      3  C   UNL     1     139.940  72.904 222.044 -0.21 -0.03    +0.233 C  
DOCKED: BRANCH   3   4
DOCKED: ATOM      4  O   UNL     1     139.627  72.512 220.746 -0.02 +0.09    -0.492 OA 
DOCKED: ATOM      5  H   UNL     1     139.563  73.192 219.996 +0.05 -0.06    +0.295 HD 
DOCKED: ENDBRANCH   3   4
DOCKED: BRANCH   3   6
DOCKED: ATOM      6  C   UNL     1     139.996  71.863 223.086 -0.30 -0.02    +0.125 A  
DOCKED: ATOM      7  N   UNL     1     140.474  72.186 224.317 -0.09 +0.03    -0.243 NA 
DOCKED: ATOM      8  C   UNL     1     139.494  70.574 222.852 -0.24 -0.01    +0.035 A  
DOCKED: ATOM      9  C   UNL     1     140.528  71.280 225.331 -0.51 -0.01    +0.071 A  
DOCKED: ATOM     10  C   UNL     1     139.546  69.619 223.867 -0.27 -0.00    +0.013 A  
DOCKED: ATOM     11  C   UNL     1     141.045  71.648 226.578 -0.70 -0.00    +0.030 A  
DOCKED: ATOM     12  C   UNL     1     140.069  69.961 225.120 -0.43 -0.00    +0.002 A  
DOCKED: ATOM     13  C   UNL     1     141.104  70.712 227.616 -0.62 -0.00    +0.023 A  
DOCKED: ATOM     14  C   UNL     1     140.133  69.026 226.164 -0.51 -0.01    +0.030 A  
DOCKED: ATOM     15  C   UNL     1     140.650  69.403 227.409 -0.57 -0.01    +0.041 A  
DOCKED: ATOM     16  Cl  UNL     1     140.731  68.234 228.716 -0.66 +0.02    -0.084 Cl 
DOCKED: ENDBRANCH   3   6
DOCKED: ENDBRANCH   2   3
DOCKED: ENDBRANCH   1   2
DOCKED: BRANCH   1  17
DOCKED: ATOM     17  C   UNL     1     139.564  75.893 220.670 -0.15 -0.02    +0.074 C  
DOCKED: ATOM     18  O   UNL     1     139.511  75.202 219.616 -0.02 +0.08    -0.318 OA 
DOCKED: BRANCH  17  19
DOCKED: ATOM     19  N   UNL     1     139.985  77.261 220.619 +0.06 +0.20    -0.646 NA 
DOCKED: BRANCH  19  20
DOCKED: ATOM     20  C   UNL     1     141.385  77.678 220.616 -0.27 +0.04    -0.079 C  
DOCKED: ATOM     21  C   UNL     1     141.719  78.323 219.270 -0.27 +0.00    -0.008 C  
DOCKED: BRANCH  20  22
DOCKED: ATOM     22  C   UNL     1     141.662  78.647 221.748 -0.38 +0.03    -0.063 A  
DOCKED: ATOM     23  C   UNL     1     142.166  79.935 221.490 -0.42 -0.00    +0.002 A  
DOCKED: ATOM     24  C   UNL     1     141.456  78.246 223.081 -0.54 -0.00    +0.002 A  
DOCKED: ATOM     25  C   UNL     1     142.429  80.814 222.546 -0.56 -0.00    +0.000 A  
DOCKED: ATOM     26  C   UNL     1     141.730  79.127 224.133 -0.58 -0.00    +0.000 A  
DOCKED: ATOM     27  C   UNL     1     142.211  80.411 223.866 -0.64 -0.00    +0.000 A  
DOCKED: ENDBRANCH  20  22
DOCKED: ENDBRANCH  19  20
DOCKED: ENDBRANCH  17  19
DOCKED: ENDBRANCH   1  17
DOCKED: TORSDOF 8
DOCKED: TER
DOCKED: ENDMDL
________________________________________________________________________________


    FINAL DOCKED STATE:
    ________________________


Run:   3 / 20
Time taken for this run:   0.061s

DOCKED: MODEL        3
DOCKED: USER    Run = 3
DOCKED: USER
DOCKED: USER    Estimated Free Energy of Binding    =  -6.76 kcal/mol  [=(1)+(2)+(3)-(4)]
DOCKED: USER
DOCKED: USER    (1) Final Intermolecular Energy     =  -9.14 kcal/mol
DOCKED: USER        vdW + Hbond + desolv Energy     =  -9.30 kcal/mol
DOCKED: USER        Electrostatic Energy            =  +0.16 kcal/mol
DOCKED: USER        Moving Ligand-Fixed Receptor    =  -9.14 kcal/mol
DOCKED: USER        Moving Ligand-Moving Receptor   =  +0.00 kcal/mol
DOCKED: USER    (2) Final Total Internal Energy     =  -1.46 kcal/mol
DOCKED: USER    (3) Torsional Free Energy           =  +2.39 kcal/mol
DOCKED: USER    (4) Unbound System's Energy         =  -1.46 kcal/mol
DOCKED: USER
DOCKED: USER
DOCKED: REMARK SMILES C[C@H]([N-]C(=O)C/N=C(/O)c1ccc2cc(Cl)ccc2n1)c1ccccc1
DOCKED: REMARK SMILES IDX 6 1 7 2 8 3 9 4 10 6 20 7 11 8 19 9 12 10 18 11 13 12 17 13
DOCKED: REMARK SMILES IDX 14 14 15 15 16 16 4 17 5 18 3 19 2 20 1 21 21 22 22 23 26 24
DOCKED: REMARK SMILES IDX 23 25 25 26 24 27
DOCKED: REMARK H PARENT 9 5
DOCKED: USER                              x       y       z     vdW  Elec       q    Type
DOCKED: USER                           _______ _______ _______ _____ _____    ______ ____
DOCKED: ROOT
DOCKED: ATOM      1  C   UNL     1     138.451  71.908 221.469 -0.09 -0.04    +0.201 C  
DOCKED: ENDROOT
DOCKED: BRANCH   1   2
DOCKED: ATOM      2  N   UNL     1     137.839  73.203 221.170 -0.06 +0.06    -0.244 NA 
DOCKED: BRANCH   2   3
DOCKED: ATOM      3  C   UNL     1     137.739  74.223 221.976 -0.09 -0.07    +0.233 C  
DOCKED: BRANCH   3   4
DOCKED: ATOM      4  O   UNL     1     136.598  74.355 222.761 -0.06 +0.17    -0.492 OA 
DOCKED: ATOM      5  H   UNL     1     136.557  73.962 223.695 -0.40 -0.15    +0.295 HD 
DOCKED: ENDBRANCH   3   4
DOCKED: BRANCH   3   6
DOCKED: ATOM      6  C   UNL     1     138.764  75.278 222.064 -0.23 -0.03    +0.125 A  
DOCKED: ATOM      7  N   UNL     1     138.422  76.491 222.577 -0.20 +0.05    -0.243 NA 
DOCKED: ATOM      8  C   UNL     1     140.096  75.028 221.701 -0.30 -0.01    +0.035 A  
DOCKED: ATOM      9  C   UNL     1     139.326  77.499 222.710 -0.27 -0.01    +0.071 A  
DOCKED: ATOM     10  C   UNL     1     141.044  76.046 221.814 -0.36 -0.00    +0.013 A  
DOCKED: ATOM     11  C   UNL     1     138.929  78.737 223.227 -0.29 -0.00    +0.030 A  
DOCKED: ATOM     12  C   UNL     1     140.668  77.296 222.318 -0.43 -0.00    +0.002 A  
DOCKED: ATOM     13  C   UNL     1     139.860  79.773 223.356 -0.41 -0.00    +0.023 A  
DOCKED: ATOM     14  C   UNL     1     141.596  78.340 222.448 -0.40 -0.01    +0.030 A  
DOCKED: ATOM     15  C   UNL     1     141.191  79.576 222.967 -0.48 -0.01    +0.041 A  
DOCKED: ATOM     16  Cl  UNL     1     142.352  80.881 223.131 -0.74 +0.02    -0.084 Cl 
DOCKED: ENDBRANCH   3   6
DOCKED: ENDBRANCH   2   3
DOCKED: ENDBRANCH   1   2
DOCKED: BRANCH   1  17
DOCKED: ATOM     17  C   UNL     1     138.049  71.430 222.827 -0.18 -0.02    +0.074 C  
DOCKED: ATOM     18  O   UNL     1     136.996  71.875 223.360 -0.13 +0.09    -0.318 OA 
DOCKED: BRANCH  17  19
DOCKED: ATOM     19  N   UNL     1     138.876  70.495 223.529 +0.02 +0.12    -0.646 NA 
DOCKED: BRANCH  19  20
DOCKED: ATOM     20  C   UNL     1     140.231  70.796 223.987 -0.33 +0.01    -0.079 C  
DOCKED: ATOM     21  C   UNL     1     140.680  72.133 223.395 -0.17 +0.00    -0.008 C  
DOCKED: BRANCH  20  22
DOCKED: ATOM     22  C   UNL     1     140.291  70.842 225.500 -0.50 +0.01    -0.063 A  
DOCKED: ATOM     23  C   UNL     1     140.978  71.874 226.166 -0.64 -0.00    +0.002 A  
DOCKED: ATOM     24  C   UNL     1     139.694  69.818 226.258 -0.49 -0.00    +0.002 A  
DOCKED: ATOM     25  C   UNL     1     141.036  71.897 227.563 -0.84 -0.00    +0.000 A  
DOCKED: ATOM     26  C   UNL     1     139.764  69.841 227.655 -0.59 -0.00    +0.000 A  
DOCKED: ATOM     27  C   UNL     1     140.430  70.882 228.307 -0.64 -0.00    +0.000 A  
DOCKED: ENDBRANCH  20  22
DOCKED: ENDBRANCH  19  20
DOCKED: ENDBRANCH  17  19
DOCKED: ENDBRANCH   1  17
DOCKED: TORSDOF 8
DOCKED: TER
DOCKED: ENDMDL
________________________________________________________________________________


    FINAL DOCKED STATE:
    ________________________


Run:   4 / 20
Time taken for this run:   0.061s

DOCKED: MODEL        4
DOCKED: USER    Run = 4
DOCKED: USER
DOCKED: USER    Estimated Free Energy of Binding    =  -7.44 kcal/mol  [=(1)+(2)+(3)-(4)]
DOCKED: USER
DOCKED: USER    (1) Final Intermolecular Energy     =  -9.83 kcal/mol
DOCKED: USER        vdW + Hbond + desolv Energy     =  -9.92 kcal/mol
DOCKED: USER        Electrostatic Energy            =  +0.09 kcal/mol
DOCKED: USER        Moving Ligand-Fixed Receptor    =  -9.83 kcal/mol
DOCKED: USER        Moving Ligand-Moving Receptor   =  +0.00 kcal/mol
DOCKED: USER    (2) Final Total Internal Energy     =  -1.80 kcal/mol
DOCKED: USER    (3) Torsional Free Energy           =  +2.39 kcal/mol
DOCKED: USER    (4) Unbound System's Energy         =  -1.80 kcal/mol
DOCKED: USER
DOCKED: USER
DOCKED: REMARK SMILES C[C@H]([N-]C(=O)C/N=C(/O)c1ccc2cc(Cl)ccc2n1)c1ccccc1
DOCKED: REMARK SMILES IDX 6 1 7 2 8 3 9 4 10 6 20 7 11 8 19 9 12 10 18 11 13 12 17 13
DOCKED: REMARK SMILES IDX 14 14 15 15 16 16 4 17 5 18 3 19 2 20 1 21 21 22 22 23 26 24
DOCKED: REMARK SMILES IDX 23 25 25 26 24 27
DOCKED: REMARK H PARENT 9 5
DOCKED: USER                              x       y       z     vdW  Elec       q    Type
DOCKED: USER                           _______ _______ _______ _____ _____    ______ ____
DOCKED: ROOT
DOCKED: ATOM      1  C   UNL     1     138.345  69.963 224.271 -0.23 -0.03    +0.201 C  
DOCKED: ENDROOT
DOCKED: BRANCH   1   2
DOCKED: ATOM      2  N   UNL     1     139.477  70.774 223.821 -0.20 +0.05    -0.244 NA 
DOCKED: BRANCH   2   3
DOCKED: ATOM      3  C   UNL     1     139.891  70.922 222.594 -0.16 -0.04    +0.233 C  
DOCKED: BRANCH   3   4
DOCKED: ATOM      4  O   UNL     1     139.904  69.819 221.746 -0.02 +0.08    -0.492 OA 
DOCKED: ATOM      5  H   UNL     1     139.856  68.876 222.115 +0.02 -0.07    +0.295 HD 
DOCKED: ENDBRANCH   3   4
DOCKED: BRANCH   3   6
DOCKED: ATOM      6  C   UNL     1     140.395  72.204 222.069 -0.25 -0.02    +0.125 A  
DOCKED: ATOM      7  N   UNL     1     139.745  73.353 222.395 -0.67 +0.03    -0.243 NA 
DOCKED: ATOM      8  C   UNL     1     141.572  72.264 221.308 -0.24 -0.00    +0.035 A  
DOCKED: ATOM      9  C   UNL     1     140.173  74.571 221.966 -0.22 -0.01    +0.071 A  
DOCKED: ATOM     10  C   UNL     1     142.030  73.497 220.842 -0.27 -0.00    +0.013 A  
DOCKED: ATOM     11  C   UNL     1     139.465  75.728 222.309 -0.32 -0.01    +0.030 A  
DOCKED: ATOM     12  C   UNL     1     141.332  74.666 221.163 -0.31 -0.00    +0.002 A  
DOCKED: ATOM     13  C   UNL     1     139.905  76.977 221.861 -0.32 -0.01    +0.023 A  
DOCKED: ATOM     14  C   UNL     1     141.767  75.922 220.715 -0.26 -0.01    +0.030 A  
DOCKED: ATOM     15  C   UNL     1     141.054  77.075 221.065 -0.29 -0.02    +0.041 A  
DOCKED: ATOM     16  Cl  UNL     1     141.597  78.646 220.504 -0.35 +0.05    -0.084 Cl 
DOCKED: ENDBRANCH   3   6
DOCKED: ENDBRANCH   2   3
DOCKED: ENDBRANCH   1   2
DOCKED: BRANCH   1  17
DOCKED: ATOM     17  C   UNL     1     138.794  68.593 224.666 -0.34 -0.01    +0.074 C  
DOCKED: ATOM     18  O   UNL     1     139.183  67.783 223.781 -0.36 +0.04    -0.318 OA 
DOCKED: BRANCH  17  19
DOCKED: ATOM     19  N   UNL     1     138.751  68.197 226.042 -0.17 +0.02    -0.646 NA 
DOCKED: BRANCH  19  20
DOCKED: ATOM     20  C   UNL     1     139.899  68.274 226.943 -0.59 +0.01    -0.079 C  
DOCKED: ATOM     21  C   UNL     1     141.031  67.403 226.396 -0.53 +0.00    -0.008 C  
DOCKED: BRANCH  20  22
DOCKED: ATOM     22  C   UNL     1     140.365  69.707 227.102 -0.53 +0.01    -0.063 A  
DOCKED: ATOM     23  C   UNL     1     139.952  70.483 228.201 -0.63 -0.00    +0.002 A  
DOCKED: ATOM     24  C   UNL     1     141.186  70.292 226.121 -0.56 -0.00    +0.002 A  
DOCKED: ATOM     25  C   UNL     1     140.379  71.809 228.329 -0.76 -0.00    +0.000 A  
DOCKED: ATOM     26  C   UNL     1     141.602  71.622 226.250 -0.57 -0.00    +0.000 A  
DOCKED: ATOM     27  C   UNL     1     141.203  72.378 227.355 -0.78 -0.00    +0.000 A  
DOCKED: ENDBRANCH  20  22
DOCKED: ENDBRANCH  19  20
DOCKED: ENDBRANCH  17  19
DOCKED: ENDBRANCH   1  17
DOCKED: TORSDOF 8
DOCKED: TER
DOCKED: ENDMDL
________________________________________________________________________________


    FINAL DOCKED STATE:
    ________________________


Run:   5 / 20
Time taken for this run:   0.061s

DOCKED: MODEL        5
DOCKED: USER    Run = 5
DOCKED: USER
DOCKED: USER    Estimated Free Energy of Binding    =  -7.02 kcal/mol  [=(1)+(2)+(3)-(4)]
DOCKED: USER
DOCKED: USER    (1) Final Intermolecular Energy     =  -9.40 kcal/mol
DOCKED: USER        vdW + Hbond + desolv Energy     =  -9.65 kcal/mol
DOCKED: USER        Electrostatic Energy            =  +0.25 kcal/mol
DOCKED: USER        Moving Ligand-Fixed Receptor    =  -9.40 kcal/mol
DOCKED: USER        Moving Ligand-Moving Receptor   =  +0.00 kcal/mol
DOCKED: USER    (2) Final Total Internal Energy     =  -1.64 kcal/mol
DOCKED: USER    (3) Torsional Free Energy           =  +2.39 kcal/mol
DOCKED: USER    (4) Unbound System's Energy         =  -1.64 kcal/mol
DOCKED: USER
DOCKED: USER
DOCKED: REMARK SMILES C[C@H]([N-]C(=O)C/N=C(/O)c1ccc2cc(Cl)ccc2n1)c1ccccc1
DOCKED: REMARK SMILES IDX 6 1 7 2 8 3 9 4 10 6 20 7 11 8 19 9 12 10 18 11 13 12 17 13
DOCKED: REMARK SMILES IDX 14 14 15 15 16 16 4 17 5 18 3 19 2 20 1 21 21 22 22 23 26 24
DOCKED: REMARK SMILES IDX 23 25 25 26 24 27
DOCKED: REMARK H PARENT 9 5
DOCKED: USER                              x       y       z     vdW  Elec       q    Type
DOCKED: USER                           _______ _______ _______ _____ _____    ______ ____
DOCKED: ROOT
DOCKED: ATOM      1  C   UNL     1     138.368  74.416 220.867 -0.09 -0.04    +0.201 C  
DOCKED: ENDROOT
DOCKED: BRANCH   1   2
DOCKED: ATOM      2  N   UNL     1     138.907  73.135 221.326 -0.10 +0.05    -0.244 NA 
DOCKED: BRANCH   2   3
DOCKED: ATOM      3  C   UNL     1     139.932  72.958 222.112 -0.20 -0.03    +0.233 C  
DOCKED: BRANCH   3   4
DOCKED: ATOM      4  O   UNL     1     141.049  73.774 221.962 -0.56 +0.01    -0.492 OA 
DOCKED: ATOM      5  H   UNL     1     140.954  74.780 221.877 +0.10 -0.03    +0.295 HD 
DOCKED: ENDBRANCH   3   4
DOCKED: BRANCH   3   6
DOCKED: ATOM      6  C   UNL     1     139.986  71.894 223.131 -0.30 -0.02    +0.125 A  
DOCKED: ATOM      7  N   UNL     1     140.460  72.191 224.371 -0.07 +0.04    -0.243 NA 
DOCKED: ATOM      8  C   UNL     1     139.486  70.611 222.867 -0.24 -0.01    +0.035 A  
DOCKED: ATOM      9  C   UNL     1     140.511  71.262 225.364 -0.51 -0.01    +0.071 A  
DOCKED: ATOM     10  C   UNL     1     139.535  69.633 223.861 -0.28 -0.00    +0.013 A  
DOCKED: ATOM     11  C   UNL     1     141.023  71.603 226.622 -0.70 -0.00    +0.030 A  
DOCKED: ATOM     12  C   UNL     1     140.053  69.948 225.123 -0.43 -0.00    +0.002 A  
DOCKED: ATOM     13  C   UNL     1     141.079  70.644 227.638 -0.63 -0.00    +0.023 A  
DOCKED: ATOM     14  C   UNL     1     140.115  68.990 226.146 -0.51 -0.01    +0.030 A  
DOCKED: ATOM     15  C   UNL     1     140.627  69.340 227.401 -0.58 -0.01    +0.041 A  
DOCKED: ATOM     16  Cl  UNL     1     140.705  68.143 228.682 -0.64 +0.02    -0.084 Cl 
DOCKED: ENDBRANCH   3   6
DOCKED: ENDBRANCH   2   3
DOCKED: ENDBRANCH   1   2
DOCKED: BRANCH   1  17
DOCKED: ATOM     17  C   UNL     1     139.134  75.557 221.453 -0.23 -0.02    +0.074 C  
DOCKED: ATOM     18  O   UNL     1     139.102  75.758 222.698 -0.36 +0.06    -0.318 OA 
DOCKED: BRANCH  17  19
DOCKED: ATOM     19  N   UNL     1     139.874  76.435 220.597 +0.05 +0.18    -0.646 NA 
DOCKED: BRANCH  19  20
DOCKED: ATOM     20  C   UNL     1     141.290  76.745 220.783 -0.26 +0.04    -0.079 C  
DOCKED: ATOM     21  C   UNL     1     141.947  76.949 219.417 -0.28 +0.00    -0.008 C  
DOCKED: BRANCH  20  22
DOCKED: ATOM     22  C   UNL     1     141.464  77.980 221.642 -0.32 +0.03    -0.063 A  
DOCKED: ATOM     23  C   UNL     1     141.817  79.216 221.069 -0.36 -0.00    +0.002 A  
DOCKED: ATOM     24  C   UNL     1     141.315  77.891 223.038 -0.46 -0.00    +0.002 A  
DOCKED: ATOM     25  C   UNL     1     141.987  80.346 221.876 -0.48 -0.00    +0.000 A  
DOCKED: ATOM     26  C   UNL     1     141.496  79.023 223.841 -0.62 -0.00    +0.000 A  
DOCKED: ATOM     27  C   UNL     1     141.826  80.250 223.260 -0.60 -0.00    +0.000 A  
DOCKED: ENDBRANCH  20  22
DOCKED: ENDBRANCH  19  20
DOCKED: ENDBRANCH  17  19
DOCKED: ENDBRANCH   1  17
DOCKED: TORSDOF 8
DOCKED: TER
DOCKED: ENDMDL
________________________________________________________________________________


    FINAL DOCKED STATE:
    ________________________


Run:   6 / 20
Time taken for this run:   0.061s

DOCKED: MODEL        6
DOCKED: USER    Run = 6
DOCKED: USER
DOCKED: USER    Estimated Free Energy of Binding    =  -7.43 kcal/mol  [=(1)+(2)+(3)-(4)]
DOCKED: USER
DOCKED: USER    (1) Final Intermolecular Energy     =  -9.81 kcal/mol
DOCKED: USER        vdW + Hbond + desolv Energy     =  -9.98 kcal/mol
DOCKED: USER        Electrostatic Energy            =  +0.16 kcal/mol
DOCKED: USER        Moving Ligand-Fixed Receptor    =  -9.81 kcal/mol
DOCKED: USER        Moving Ligand-Moving Receptor   =  +0.00 kcal/mol
DOCKED: USER    (2) Final Total Internal Energy     =  -1.36 kcal/mol
DOCKED: USER    (3) Torsional Free Energy           =  +2.39 kcal/mol
DOCKED: USER    (4) Unbound System's Energy         =  -1.36 kcal/mol
DOCKED: USER
DOCKED: USER
DOCKED: REMARK SMILES C[C@H]([N-]C(=O)C/N=C(/O)c1ccc2cc(Cl)ccc2n1)c1ccccc1
DOCKED: REMARK SMILES IDX 6 1 7 2 8 3 9 4 10 6 20 7 11 8 19 9 12 10 18 11 13 12 17 13
DOCKED: REMARK SMILES IDX 14 14 15 15 16 16 4 17 5 18 3 19 2 20 1 21 21 22 22 23 26 24
DOCKED: REMARK SMILES IDX 23 25 25 26 24 27
DOCKED: REMARK H PARENT 9 5
DOCKED: USER                              x       y       z     vdW  Elec       q    Type
DOCKED: USER                           _______ _______ _______ _____ _____    ______ ____
DOCKED: ROOT
DOCKED: ATOM      1  C   UNL     1     140.435  75.178 221.292 -0.23 -0.04    +0.201 C  
DOCKED: ENDROOT
DOCKED: BRANCH   1   2
DOCKED: ATOM      2  N   UNL     1     140.616  73.929 222.033 -0.72 +0.00    -0.244 NA 
DOCKED: BRANCH   2   3
DOCKED: ATOM      3  C   UNL     1     139.785  72.926 222.084 -0.20 -0.04    +0.233 C  
DOCKED: BRANCH   3   4
DOCKED: ATOM      4  O   UNL     1     138.755  72.853 221.151 -0.03 +0.10    -0.492 OA 
DOCKED: ATOM      5  H   UNL     1     138.159  73.652 220.967 +0.06 -0.07    +0.295 HD 
DOCKED: ENDBRANCH   3   4
DOCKED: BRANCH   3   6
DOCKED: ATOM      6  C   UNL     1     139.854  71.881 223.121 -0.29 -0.02    +0.125 A  
DOCKED: ATOM      7  N   UNL     1     140.370  72.194 224.340 -0.09 +0.04    -0.243 NA 
DOCKED: ATOM      8  C   UNL     1     139.329  70.600 222.896 -0.24 -0.01    +0.035 A  
DOCKED: ATOM      9  C   UNL     1     140.438  71.283 225.349 -0.50 -0.01    +0.071 A  
DOCKED: ATOM     10  C   UNL     1     139.395  69.641 223.907 -0.29 -0.00    +0.013 A  
DOCKED: ATOM     11  C   UNL     1     140.992  71.641 226.584 -0.69 -0.00    +0.030 A  
DOCKED: ATOM     12  C   UNL     1     139.955  69.971 225.146 -0.43 -0.00    +0.002 A  
DOCKED: ATOM     13  C   UNL     1     141.066  70.700 227.616 -0.64 -0.00    +0.023 A  
DOCKED: ATOM     14  C   UNL     1     140.034  69.032 226.186 -0.51 -0.01    +0.030 A  
DOCKED: ATOM     15  C   UNL     1     140.589  69.398 227.418 -0.58 -0.01    +0.041 A  
DOCKED: ATOM     16  Cl  UNL     1     140.689  68.224 228.718 -0.64 +0.02    -0.084 Cl 
DOCKED: ENDBRANCH   3   6
DOCKED: ENDBRANCH   2   3
DOCKED: ENDBRANCH   1   2
DOCKED: BRANCH   1  17
DOCKED: ATOM     17  C   UNL     1     139.255  75.936 221.805 -0.27 -0.02    +0.074 C  
DOCKED: ATOM     18  O   UNL     1     138.098  75.644 221.396 -0.09 +0.07    -0.318 OA 
DOCKED: BRANCH  17  19
DOCKED: ATOM     19  N   UNL     1     139.444  77.010 222.734 +0.03 +0.12    -0.646 NA 
DOCKED: BRANCH  19  20
DOCKED: ATOM     20  C   UNL     1     139.313  78.422 222.379 -0.27 +0.02    -0.079 C  
DOCKED: ATOM     21  C   UNL     1     138.052  78.992 223.028 -0.25 +0.00    -0.008 C  
DOCKED: BRANCH  20  22
DOCKED: ATOM     22  C   UNL     1     140.534  79.204 222.819 -0.39 +0.02    -0.063 A  
DOCKED: ATOM     23  C   UNL     1     140.401  80.445 223.470 -0.46 -0.00    +0.002 A  
DOCKED: ATOM     24  C   UNL     1     141.822  78.712 222.539 -0.49 -0.00    +0.002 A  
DOCKED: ATOM     25  C   UNL     1     141.536  81.163 223.859 -0.54 -0.00    +0.000 A  
DOCKED: ATOM     26  C   UNL     1     142.954  79.440 222.923 -0.54 -0.00    +0.000 A  
DOCKED: ATOM     27  C   UNL     1     142.812  80.661 223.587 -0.67 -0.00    +0.000 A  
DOCKED: ENDBRANCH  20  22
DOCKED: ENDBRANCH  19  20
DOCKED: ENDBRANCH  17  19
DOCKED: ENDBRANCH   1  17
DOCKED: TORSDOF 8
DOCKED: TER
DOCKED: ENDMDL
________________________________________________________________________________


    FINAL DOCKED STATE:
    ________________________


Run:   7 / 20
Time taken for this run:   0.061s

DOCKED: MODEL        7
DOCKED: USER    Run = 7
DOCKED: USER
DOCKED: USER    Estimated Free Energy of Binding    =  -6.78 kcal/mol  [=(1)+(2)+(3)-(4)]
DOCKED: USER
DOCKED: USER    (1) Final Intermolecular Energy     =  -9.16 kcal/mol
DOCKED: USER        vdW + Hbond + desolv Energy     =  -9.18 kcal/mol
DOCKED: USER        Electrostatic Energy            =  +0.01 kcal/mol
DOCKED: USER        Moving Ligand-Fixed Receptor    =  -9.16 kcal/mol
DOCKED: USER        Moving Ligand-Moving Receptor   =  +0.00 kcal/mol
DOCKED: USER    (2) Final Total Internal Energy     =  -1.53 kcal/mol
DOCKED: USER    (3) Torsional Free Energy           =  +2.39 kcal/mol
DOCKED: USER    (4) Unbound System's Energy         =  -1.53 kcal/mol
DOCKED: USER
DOCKED: USER
DOCKED: REMARK SMILES C[C@H]([N-]C(=O)C/N=C(/O)c1ccc2cc(Cl)ccc2n1)c1ccccc1
DOCKED: REMARK SMILES IDX 6 1 7 2 8 3 9 4 10 6 20 7 11 8 19 9 12 10 18 11 13 12 17 13
DOCKED: REMARK SMILES IDX 14 14 15 15 16 16 4 17 5 18 3 19 2 20 1 21 21 22 22 23 26 24
DOCKED: REMARK SMILES IDX 23 25 25 26 24 27
DOCKED: REMARK H PARENT 9 5
DOCKED: USER                              x       y       z     vdW  Elec       q    Type
DOCKED: USER                           _______ _______ _______ _____ _____    ______ ____
DOCKED: ROOT
DOCKED: ATOM      1  C   UNL     1     137.386  68.200 222.776 -0.10 -0.02    +0.201 C  
DOCKED: ENDROOT
DOCKED: BRANCH   1   2
DOCKED: ATOM      2  N   UNL     1     136.131  68.946 222.879 -0.10 +0.03    -0.244 NA 
DOCKED: BRANCH   2   3
DOCKED: ATOM      3  C   UNL     1     135.481  69.231 223.973 -0.12 -0.01    +0.233 C  
DOCKED: BRANCH   3   4
DOCKED: ATOM      4  O   UNL     1     135.030  68.192 224.782 -0.51 -0.05    -0.492 OA 
DOCKED: ATOM      5  H   UNL     1     134.408  68.369 225.562 +0.12 -0.01    +0.295 HD 
DOCKED: ENDBRANCH   3   4
DOCKED: BRANCH   3   6
DOCKED: ATOM      6  C   UNL     1     135.156  70.611 224.375 -0.15 -0.01    +0.125 A  
DOCKED: ATOM      7  N   UNL     1     134.226  70.814 225.346 -0.12 +0.02    -0.243 NA 
DOCKED: ATOM      8  C   UNL     1     135.842  71.706 223.830 -0.19 -0.01    +0.035 A  
DOCKED: ATOM      9  C   UNL     1     133.899  72.061 225.782 -0.27 -0.00    +0.071 A  
DOCKED: ATOM     10  C   UNL     1     135.521  72.998 224.248 -0.23 -0.00    +0.013 A  
DOCKED: ATOM     11  C   UNL     1     132.923  72.227 226.772 -0.39 -0.00    +0.030 A  
DOCKED: ATOM     12  C   UNL     1     134.541  73.191 225.228 -0.27 -0.00    +0.002 A  
DOCKED: ATOM     13  C   UNL     1     132.586  73.511 227.213 -0.40 -0.00    +0.023 A  
DOCKED: ATOM     14  C   UNL     1     134.196  74.475 225.674 -0.35 -0.00    +0.030 A  
DOCKED: ATOM     15  C   UNL     1     133.220  74.633 226.665 -0.32 +0.00    +0.041 A  
DOCKED: ATOM     16  Cl  UNL     1     132.788  76.240 227.222 -0.45 +0.00    -0.084 Cl 
DOCKED: ENDBRANCH   3   6
DOCKED: ENDBRANCH   2   3
DOCKED: ENDBRANCH   1   2
DOCKED: BRANCH   1  17
DOCKED: ATOM     17  C   UNL     1     138.327  68.587 223.869 -0.26 -0.01    +0.074 C  
DOCKED: ATOM     18  O   UNL     1     138.843  67.694 224.596 -0.63 -0.02    -0.318 OA 
DOCKED: BRANCH  17  19
DOCKED: ATOM     19  N   UNL     1     138.616  69.970 224.107 +0.03 +0.10    -0.646 NA 
DOCKED: BRANCH  19  20
DOCKED: ATOM     20  C   UNL     1     139.970  70.506 224.229 -0.35 +0.01    -0.079 C  
DOCKED: ATOM     21  C   UNL     1     140.084  71.784 223.396 -0.36 +0.00    -0.008 C  
DOCKED: BRANCH  20  22
DOCKED: ATOM     22  C   UNL     1     140.310  70.788 225.678 -0.51 +0.01    -0.063 A  
DOCKED: ATOM     23  C   UNL     1     139.786  69.989 226.712 -0.51 -0.00    +0.002 A  
DOCKED: ATOM     24  C   UNL     1     141.124  71.887 226.007 -0.60 -0.00    +0.002 A  
DOCKED: ATOM     25  C   UNL     1     140.098  70.268 228.046 -0.64 -0.00    +0.000 A  
DOCKED: ATOM     26  C   UNL     1     141.425  72.166 227.346 -0.81 -0.00    +0.000 A  
DOCKED: ATOM     27  C   UNL     1     140.916  71.355 228.363 -0.71 -0.00    +0.000 A  
DOCKED: ENDBRANCH  20  22
DOCKED: ENDBRANCH  19  20
DOCKED: ENDBRANCH  17  19
DOCKED: ENDBRANCH   1  17
DOCKED: TORSDOF 8
DOCKED: TER
DOCKED: ENDMDL
________________________________________________________________________________


    FINAL DOCKED STATE:
    ________________________


Run:   8 / 20
Time taken for this run:   0.061s

DOCKED: MODEL        8
DOCKED: USER    Run = 8
DOCKED: USER
DOCKED: USER    Estimated Free Energy of Binding    =  -7.09 kcal/mol  [=(1)+(2)+(3)-(4)]
DOCKED: USER
DOCKED: USER    (1) Final Intermolecular Energy     =  -9.48 kcal/mol
DOCKED: USER        vdW + Hbond + desolv Energy     =  -9.62 kcal/mol
DOCKED: USER        Electrostatic Energy            =  +0.15 kcal/mol
DOCKED: USER        Moving Ligand-Fixed Receptor    =  -9.48 kcal/mol
DOCKED: USER        Moving Ligand-Moving Receptor   =  +0.00 kcal/mol
DOCKED: USER    (2) Final Total Internal Energy     =  -1.71 kcal/mol
DOCKED: USER    (3) Torsional Free Energy           =  +2.39 kcal/mol
DOCKED: USER    (4) Unbound System's Energy         =  -1.71 kcal/mol
DOCKED: USER
DOCKED: USER
DOCKED: REMARK SMILES C[C@H]([N-]C(=O)C/N=C(/O)c1ccc2cc(Cl)ccc2n1)c1ccccc1
DOCKED: REMARK SMILES IDX 6 1 7 2 8 3 9 4 10 6 20 7 11 8 19 9 12 10 18 11 13 12 17 13
DOCKED: REMARK SMILES IDX 14 14 15 15 16 16 4 17 5 18 3 19 2 20 1 21 21 22 22 23 26 24
DOCKED: REMARK SMILES IDX 23 25 25 26 24 27
DOCKED: REMARK H PARENT 9 5
DOCKED: USER                              x       y       z     vdW  Elec       q    Type
DOCKED: USER                           _______ _______ _______ _____ _____    ______ ____
DOCKED: ROOT
DOCKED: ATOM      1  C   UNL     1     138.748  69.348 222.725 -0.14 -0.03    +0.201 C  
DOCKED: ENDROOT
DOCKED: BRANCH   1   2
DOCKED: ATOM      2  N   UNL     1     139.438  70.595 222.391 -0.11 +0.04    -0.244 NA 
DOCKED: BRANCH   2   3
DOCKED: ATOM      3  C   UNL     1     139.008  71.806 222.609 -0.17 -0.06    +0.233 C  
DOCKED: BRANCH   3   4
DOCKED: ATOM      4  O   UNL     1     137.806  71.985 223.287 -0.02 +0.18    -0.492 OA 
DOCKED: ATOM      5  H   UNL     1     137.773  71.993 224.301 -0.29 -0.13    +0.295 HD 
DOCKED: ENDBRANCH   3   4
DOCKED: BRANCH   3   6
DOCKED: ATOM      6  C   UNL     1     139.715  73.006 222.127 -0.24 -0.02    +0.125 A  
DOCKED: ATOM      7  N   UNL     1     139.157  74.229 222.334 -0.53 +0.06    -0.243 NA 
DOCKED: ATOM      8  C   UNL     1     140.982  72.912 221.534 -0.27 -0.00    +0.035 A  
DOCKED: ATOM      9  C   UNL     1     139.770  75.377 221.938 -0.30 -0.01    +0.071 A  
DOCKED: ATOM     10  C   UNL     1     141.631  74.071 221.106 -0.27 -0.00    +0.013 A  
DOCKED: ATOM     11  C   UNL     1     139.153  76.615 222.153 -0.31 -0.01    +0.030 A  
DOCKED: ATOM     12  C   UNL     1     141.030  75.319 221.300 -0.34 -0.00    +0.002 A  
DOCKED: ATOM     13  C   UNL     1     139.784  77.793 221.739 -0.26 -0.01    +0.023 A  
DOCKED: ATOM     14  C   UNL     1     141.656  76.504 220.886 -0.21 -0.02    +0.030 A  
DOCKED: ATOM     15  C   UNL     1     141.033  77.738 221.106 -0.29 -0.02    +0.041 A  
DOCKED: ATOM     16  Cl  UNL     1     141.815  79.220 220.588 -0.34 +0.05    -0.084 Cl 
DOCKED: ENDBRANCH   3   6
DOCKED: ENDBRANCH   2   3
DOCKED: ENDBRANCH   1   2
DOCKED: BRANCH   1  17
DOCKED: ATOM     17  C   UNL     1     138.578  69.213 224.203 -0.30 -0.01    +0.074 C  
DOCKED: ATOM     18  O   UNL     1     137.687  69.883 224.794 -0.15 +0.04    -0.318 OA 
DOCKED: BRANCH  17  19
DOCKED: ATOM     19  N   UNL     1     139.445  68.349 224.946 -0.10 +0.08    -0.646 NA 
DOCKED: BRANCH  19  20
DOCKED: ATOM     20  C   UNL     1     139.683  68.479 226.382 -0.54 +0.01    -0.079 C  
DOCKED: ATOM     21  C   UNL     1     140.671  67.401 226.831 -0.60 +0.00    -0.008 C  
DOCKED: BRANCH  20  22
DOCKED: ATOM     22  C   UNL     1     140.217  69.857 226.718 -0.50 +0.01    -0.063 A  
DOCKED: ATOM     23  C   UNL     1     140.927  70.609 225.763 -0.58 -0.00    +0.002 A  
DOCKED: ATOM     24  C   UNL     1     140.043  70.382 228.011 -0.64 -0.00    +0.002 A  
DOCKED: ATOM     25  C   UNL     1     141.426  71.874 226.090 -0.60 -0.00    +0.000 A  
DOCKED: ATOM     26  C   UNL     1     140.552  71.644 228.335 -0.76 -0.00    +0.000 A  
DOCKED: ATOM     27  C   UNL     1     141.238  72.392 227.374 -0.78 -0.00    +0.000 A  
DOCKED: ENDBRANCH  20  22
DOCKED: ENDBRANCH  19  20
DOCKED: ENDBRANCH  17  19
DOCKED: ENDBRANCH   1  17
DOCKED: TORSDOF 8
DOCKED: TER
DOCKED: ENDMDL
________________________________________________________________________________


    FINAL DOCKED STATE:
    ________________________


Run:   9 / 20
Time taken for this run:   0.061s

DOCKED: MODEL        9
DOCKED: USER    Run = 9
DOCKED: USER
DOCKED: USER    Estimated Free Energy of Binding    =  -7.21 kcal/mol  [=(1)+(2)+(3)-(4)]
DOCKED: USER
DOCKED: USER    (1) Final Intermolecular Energy     =  -9.59 kcal/mol
DOCKED: USER        vdW + Hbond + desolv Energy     =  -9.69 kcal/mol
DOCKED: USER        Electrostatic Energy            =  +0.10 kcal/mol
DOCKED: USER        Moving Ligand-Fixed Receptor    =  -9.59 kcal/mol
DOCKED: USER        Moving Ligand-Moving Receptor   =  +0.00 kcal/mol
DOCKED: USER    (2) Final Total Internal Energy     =  -1.41 kcal/mol
DOCKED: USER    (3) Torsional Free Energy           =  +2.39 kcal/mol
DOCKED: USER    (4) Unbound System's Energy         =  -1.41 kcal/mol
DOCKED: USER
DOCKED: USER
DOCKED: REMARK SMILES C[C@H]([N-]C(=O)C/N=C(/O)c1ccc2cc(Cl)ccc2n1)c1ccccc1
DOCKED: REMARK SMILES IDX 6 1 7 2 8 3 9 4 10 6 20 7 11 8 19 9 12 10 18 11 13 12 17 13
DOCKED: REMARK SMILES IDX 14 14 15 15 16 16 4 17 5 18 3 19 2 20 1 21 21 22 22 23 26 24
DOCKED: REMARK SMILES IDX 23 25 25 26 24 27
DOCKED: REMARK H PARENT 9 5
DOCKED: USER                              x       y       z     vdW  Elec       q    Type
DOCKED: USER                           _______ _______ _______ _____ _____    ______ ____
DOCKED: ROOT
DOCKED: ATOM      1  C   UNL     1     141.537  72.088 221.343 -0.16 -0.02    +0.201 C  
DOCKED: ENDROOT
DOCKED: BRANCH   1   2
DOCKED: ATOM      2  N   UNL     1     141.175  73.425 220.871 -0.15 +0.04    -0.244 NA 
DOCKED: BRANCH   2   3
DOCKED: ATOM      3  C   UNL     1     140.572  74.356 221.555 -0.22 -0.03    +0.233 C  
DOCKED: BRANCH   3   4
DOCKED: ATOM      4  O   UNL     1     139.576  73.995 222.457 -0.65 +0.07    -0.492 OA 
DOCKED: ATOM      5  H   UNL     1     139.606  73.104 222.940 -0.21 -0.07    +0.295 HD 
DOCKED: ENDBRANCH   3   4
DOCKED: BRANCH   3   6
DOCKED: ATOM      6  C   UNL     1     140.861  75.791 221.383 -0.29 -0.04    +0.125 A  
DOCKED: ATOM      7  N   UNL     1     140.370  76.678 222.290 -0.27 +0.06    -0.243 NA 
DOCKED: ATOM      8  C   UNL     1     141.695  76.244 220.350 -0.27 -0.02    +0.035 A  
DOCKED: ATOM      9  C   UNL     1     140.622  78.012 222.204 -0.36 -0.02    +0.071 A  
DOCKED: ATOM     10  C   UNL     1     141.963  77.608 220.228 -0.30 -0.01    +0.013 A  
DOCKED: ATOM     11  C   UNL     1     140.082  78.893 223.148 -0.39 -0.01    +0.030 A  
DOCKED: ATOM     12  C   UNL     1     141.426  78.510 221.154 -0.35 -0.00    +0.002 A  
DOCKED: ATOM     13  C   UNL     1     140.340  80.264 223.053 -0.41 -0.00    +0.023 A  
DOCKED: ATOM     14  C   UNL     1     141.678  79.887 221.063 -0.35 -0.01    +0.030 A  
DOCKED: ATOM     15  C   UNL     1     141.135  80.761 222.012 -0.38 -0.01    +0.041 A  
DOCKED: ATOM     16  Cl  UNL     1     141.450  82.484 221.900 -0.32 +0.01    -0.084 Cl 
DOCKED: ENDBRANCH   3   6
DOCKED: ENDBRANCH   2   3
DOCKED: ENDBRANCH   1   2
DOCKED: BRANCH   1  17
DOCKED: ATOM     17  C   UNL     1     140.430  71.490 222.149 -0.24 -0.01    +0.074 C  
DOCKED: ATOM     18  O   UNL     1     139.300  71.305 221.620 -0.07 +0.06    -0.318 OA 
DOCKED: BRANCH  17  19
DOCKED: ATOM     19  N   UNL     1     140.647  71.159 223.526 +0.03 +0.07    -0.646 NA 
DOCKED: BRANCH  19  20
DOCKED: ATOM     20  C   UNL     1     139.582  71.108 224.525 -0.39 +0.02    -0.079 C  
DOCKED: ATOM     21  C   UNL     1     138.459  70.199 224.022 -0.31 +0.00    -0.008 C  
DOCKED: BRANCH  20  22
DOCKED: ATOM     22  C   UNL     1     140.112  70.607 225.854 -0.49 +0.01    -0.063 A  
DOCKED: ATOM     23  C   UNL     1     140.076  69.238 226.176 -0.51 -0.00    +0.002 A  
DOCKED: ATOM     24  C   UNL     1     140.607  71.521 226.801 -0.70 -0.00    +0.002 A  
DOCKED: ATOM     25  C   UNL     1     140.557  68.791 227.411 -0.65 -0.00    +0.000 A  
DOCKED: ATOM     26  C   UNL     1     141.078  71.068 228.039 -0.72 -0.00    +0.000 A  
DOCKED: ATOM     27  C   UNL     1     141.058  69.704 228.341 -0.58 -0.00    +0.000 A  
DOCKED: ENDBRANCH  20  22
DOCKED: ENDBRANCH  19  20
DOCKED: ENDBRANCH  17  19
DOCKED: ENDBRANCH   1  17
DOCKED: TORSDOF 8
DOCKED: TER
DOCKED: ENDMDL
________________________________________________________________________________


    FINAL DOCKED STATE:
    ________________________


Run:   10 / 20
Time taken for this run:   0.061s

DOCKED: MODEL        10
DOCKED: USER    Run = 10
DOCKED: USER
DOCKED: USER    Estimated Free Energy of Binding    =  -6.43 kcal/mol  [=(1)+(2)+(3)-(4)]
DOCKED: USER
DOCKED: USER    (1) Final Intermolecular Energy     =  -8.82 kcal/mol
DOCKED: USER        vdW + Hbond + desolv Energy     =  -8.99 kcal/mol
DOCKED: USER        Electrostatic Energy            =  +0.17 kcal/mol
DOCKED: USER        Moving Ligand-Fixed Receptor    =  -8.82 kcal/mol
DOCKED: USER        Moving Ligand-Moving Receptor   =  +0.00 kcal/mol
DOCKED: USER    (2) Final Total Internal Energy     =  -2.05 kcal/mol
DOCKED: USER    (3) Torsional Free Energy           =  +2.39 kcal/mol
DOCKED: USER    (4) Unbound System's Energy         =  -2.05 kcal/mol
DOCKED: USER
DOCKED: USER
DOCKED: REMARK SMILES C[C@H]([N-]C(=O)C/N=C(/O)c1ccc2cc(Cl)ccc2n1)c1ccccc1
DOCKED: REMARK SMILES IDX 6 1 7 2 8 3 9 4 10 6 20 7 11 8 19 9 12 10 18 11 13 12 17 13
DOCKED: REMARK SMILES IDX 14 14 15 15 16 16 4 17 5 18 3 19 2 20 1 21 21 22 22 23 26 24
DOCKED: REMARK SMILES IDX 23 25 25 26 24 27
DOCKED: REMARK H PARENT 9 5
DOCKED: USER                              x       y       z     vdW  Elec       q    Type
DOCKED: USER                           _______ _______ _______ _____ _____    ______ ____
DOCKED: ROOT
DOCKED: ATOM      1  C   UNL     1     140.667  74.806 221.229 -0.23 -0.04    +0.201 C  
DOCKED: ENDROOT
DOCKED: BRANCH   1   2
DOCKED: ATOM      2  N   UNL     1     140.044  73.976 222.261 -0.77 +0.01    -0.244 NA 
DOCKED: BRANCH   2   3
DOCKED: ATOM      3  C   UNL     1     139.605  72.756 222.121 -0.19 -0.04    +0.233 C  
DOCKED: BRANCH   3   4
DOCKED: ATOM      4  O   UNL     1     138.903  72.419 220.968 -0.01 +0.10    -0.492 OA 
DOCKED: ATOM      5  H   UNL     1     139.299  72.579 220.049 +0.05 -0.06    +0.295 HD 
DOCKED: ENDBRANCH   3   4
DOCKED: BRANCH   3   6
DOCKED: ATOM      6  C   UNL     1     139.776  71.720 223.155 -0.29 -0.02    +0.125 A  
DOCKED: ATOM      7  N   UNL     1     140.273  72.075 224.371 -0.14 +0.04    -0.243 NA 
DOCKED: ATOM      8  C   UNL     1     139.364  70.398 222.933 -0.23 -0.01    +0.035 A  
DOCKED: ATOM      9  C   UNL     1     140.431  71.173 225.377 -0.51 -0.01    +0.071 A  
DOCKED: ATOM     10  C   UNL     1     139.524  69.447 223.941 -0.26 -0.00    +0.013 A  
DOCKED: ATOM     11  C   UNL     1     140.963  71.576 226.607 -0.69 -0.00    +0.030 A  
DOCKED: ATOM     12  C   UNL     1     140.064  69.824 225.176 -0.43 -0.00    +0.002 A  
DOCKED: ATOM     13  C   UNL     1     141.128  70.644 227.637 -0.59 -0.00    +0.023 A  
DOCKED: ATOM     14  C   UNL     1     140.235  68.894 226.212 -0.52 -0.01    +0.030 A  
DOCKED: ATOM     15  C   UNL     1     140.766  69.305 227.440 -0.58 -0.01    +0.041 A  
DOCKED: ATOM     16  Cl  UNL     1     140.981  68.143 228.737 -0.67 +0.02    -0.084 Cl 
DOCKED: ENDBRANCH   3   6
DOCKED: ENDBRANCH   2   3
DOCKED: ENDBRANCH   1   2
DOCKED: BRANCH   1  17
DOCKED: ATOM     17  C   UNL     1     140.524  74.176 219.882 -0.10 -0.02    +0.074 C  
DOCKED: ATOM     18  O   UNL     1     139.606  74.559 219.106 -0.01 +0.07    -0.318 OA 
DOCKED: BRANCH  17  19
DOCKED: ATOM     19  N   UNL     1     141.409  73.120 219.489 +0.06 +0.13    -0.646 NA 
DOCKED: BRANCH  19  20
DOCKED: ATOM     20  C   UNL     1     142.179  72.314 220.435 -0.19 +0.01    -0.079 C  
DOCKED: ATOM     21  C   UNL     1     142.074  70.839 220.046 -0.14 +0.00    -0.008 C  
DOCKED: BRANCH  20  22
DOCKED: ATOM     22  C   UNL     1     143.629  72.752 220.461 -0.31 +0.01    -0.063 A  
DOCKED: ATOM     23  C   UNL     1     143.981  74.069 220.811 -0.37 -0.00    +0.002 A  
DOCKED: ATOM     24  C   UNL     1     144.642  71.849 220.090 -0.33 -0.00    +0.002 A  
DOCKED: ATOM     25  C   UNL     1     145.322  74.463 220.818 -0.47 -0.00    +0.000 A  
DOCKED: ATOM     26  C   UNL     1     145.982  72.252 220.090 -0.42 +0.00    +0.000 A  
DOCKED: ATOM     27  C   UNL     1     146.323  73.556 220.458 -0.64 +0.00    +0.000 A  
DOCKED: ENDBRANCH  20  22
DOCKED: ENDBRANCH  19  20
DOCKED: ENDBRANCH  17  19
DOCKED: ENDBRANCH   1  17
DOCKED: TORSDOF 8
DOCKED: TER
DOCKED: ENDMDL
________________________________________________________________________________


    FINAL DOCKED STATE:
    ________________________


Run:   11 / 20
Time taken for this run:   0.061s

DOCKED: MODEL        11
DOCKED: USER    Run = 11
DOCKED: USER
DOCKED: USER    Estimated Free Energy of Binding    =  -7.29 kcal/mol  [=(1)+(2)+(3)-(4)]
DOCKED: USER
DOCKED: USER    (1) Final Intermolecular Energy     =  -9.67 kcal/mol
DOCKED: USER        vdW + Hbond + desolv Energy     =  -9.89 kcal/mol
DOCKED: USER        Electrostatic Energy            =  +0.21 kcal/mol
DOCKED: USER        Moving Ligand-Fixed Receptor    =  -9.67 kcal/mol
DOCKED: USER        Moving Ligand-Moving Receptor   =  +0.00 kcal/mol
DOCKED: USER    (2) Final Total Internal Energy     =  -1.43 kcal/mol
DOCKED: USER    (3) Torsional Free Energy           =  +2.39 kcal/mol
DOCKED: USER    (4) Unbound System's Energy         =  -1.43 kcal/mol
DOCKED: USER
DOCKED: USER
DOCKED: REMARK SMILES C[C@H]([N-]C(=O)C/N=C(/O)c1ccc2cc(Cl)ccc2n1)c1ccccc1
DOCKED: REMARK SMILES IDX 6 1 7 2 8 3 9 4 10 6 20 7 11 8 19 9 12 10 18 11 13 12 17 13
DOCKED: REMARK SMILES IDX 14 14 15 15 16 16 4 17 5 18 3 19 2 20 1 21 21 22 22 23 26 24
DOCKED: REMARK SMILES IDX 23 25 25 26 24 27
DOCKED: REMARK H PARENT 9 5
DOCKED: USER                              x       y       z     vdW  Elec       q    Type
DOCKED: USER                           _______ _______ _______ _____ _____    ______ ____
DOCKED: ROOT
DOCKED: ATOM      1  C   UNL     1     141.396  74.060 220.938 -0.20 -0.04    +0.201 C  
DOCKED: ENDROOT
DOCKED: BRANCH   1   2
DOCKED: ATOM      2  N   UNL     1     140.761  72.810 221.357 -0.18 +0.03    -0.244 NA 
DOCKED: BRANCH   2   3
DOCKED: ATOM      3  C   UNL     1     139.855  72.669 222.284 -0.21 -0.04    +0.233 C  
DOCKED: BRANCH   3   4
DOCKED: ATOM      4  O   UNL     1     138.773  73.543 222.311 -0.16 +0.16    -0.492 OA 
DOCKED: ATOM      5  H   UNL     1     138.852  74.460 222.738 -0.50 -0.11    +0.295 HD 
DOCKED: ENDBRANCH   3   4
DOCKED: BRANCH   3   6
DOCKED: ATOM      6  C   UNL     1     139.945  71.648 223.343 -0.31 -0.02    +0.125 A  
DOCKED: ATOM      7  N   UNL     1     140.410  72.008 224.570 -0.17 +0.04    -0.243 NA 
DOCKED: ATOM      8  C   UNL     1     139.489  70.339 223.131 -0.25 -0.01    +0.035 A  
DOCKED: ATOM      9  C   UNL     1     140.494  71.122 225.599 -0.53 -0.01    +0.071 A  
DOCKED: ATOM     10  C   UNL     1     139.572  69.403 224.162 -0.29 -0.00    +0.013 A  
DOCKED: ATOM     11  C   UNL     1     140.995  71.529 226.840 -0.72 -0.00    +0.030 A  
DOCKED: ATOM     12  C   UNL     1     140.080  69.784 225.409 -0.45 -0.00    +0.002 A  
DOCKED: ATOM     13  C   UNL     1     141.084  70.613 227.893 -0.63 -0.00    +0.023 A  
DOCKED: ATOM     14  C   UNL     1     140.175  68.870 226.469 -0.54 -0.01    +0.030 A  
DOCKED: ATOM     15  C   UNL     1     140.676  69.285 227.709 -0.59 -0.01    +0.041 A  
DOCKED: ATOM     16  Cl  UNL     1     140.796  68.143 229.035 -0.42 +0.02    -0.084 Cl 
DOCKED: ENDBRANCH   3   6
DOCKED: ENDBRANCH   2   3
DOCKED: ENDBRANCH   1   2
DOCKED: BRANCH   1  17
DOCKED: ATOM     17  C   UNL     1     140.402  75.174 220.896 -0.23 -0.02    +0.074 C  
DOCKED: ATOM     18  O   UNL     1     139.941  75.559 219.787 -0.03 +0.08    -0.318 OA 
DOCKED: BRANCH  17  19
DOCKED: ATOM     19  N   UNL     1     140.002  75.820 222.110 -0.20 +0.12    -0.646 NA 
DOCKED: BRANCH  19  20
DOCKED: ATOM     20  C   UNL     1     139.217  77.053 222.151 -0.28 +0.02    -0.079 C  
DOCKED: ATOM     21  C   UNL     1     137.952  76.819 222.979 -0.20 +0.00    -0.008 C  
DOCKED: BRANCH  20  22
DOCKED: ATOM     22  C   UNL     1     140.029  78.190 222.738 -0.35 +0.01    -0.063 A  
DOCKED: ATOM     23  C   UNL     1     139.397  79.307 223.315 -0.39 -0.00    +0.002 A  
DOCKED: ATOM     24  C   UNL     1     141.433  78.157 222.669 -0.47 -0.00    +0.002 A  
DOCKED: ATOM     25  C   UNL     1     140.159  80.356 223.840 -0.42 -0.00    +0.000 A  
DOCKED: ATOM     26  C   UNL     1     142.190  79.214 223.188 -0.61 -0.00    +0.000 A  
DOCKED: ATOM     27  C   UNL     1     141.554  80.309 223.777 -0.57 -0.00    +0.000 A  
DOCKED: ENDBRANCH  20  22
DOCKED: ENDBRANCH  19  20
DOCKED: ENDBRANCH  17  19
DOCKED: ENDBRANCH   1  17
DOCKED: TORSDOF 8
DOCKED: TER
DOCKED: ENDMDL
________________________________________________________________________________


    FINAL DOCKED STATE:
    ________________________


Run:   12 / 20
Time taken for this run:   0.061s

DOCKED: MODEL        12
DOCKED: USER    Run = 12
DOCKED: USER
DOCKED: USER    Estimated Free Energy of Binding    =  -7.62 kcal/mol  [=(1)+(2)+(3)-(4)]
DOCKED: USER
DOCKED: USER    (1) Final Intermolecular Energy     = -10.00 kcal/mol
DOCKED: USER        vdW + Hbond + desolv Energy     = -10.33 kcal/mol
DOCKED: USER        Electrostatic Energy            =  +0.33 kcal/mol
DOCKED: USER        Moving Ligand-Fixed Receptor    = -10.00 kcal/mol
DOCKED: USER        Moving Ligand-Moving Receptor   =  +0.00 kcal/mol
DOCKED: USER    (2) Final Total Internal Energy     =  -1.30 kcal/mol
DOCKED: USER    (3) Torsional Free Energy           =  +2.39 kcal/mol
DOCKED: USER    (4) Unbound System's Energy         =  -1.30 kcal/mol
DOCKED: USER
DOCKED: USER
DOCKED: REMARK SMILES C[C@H]([N-]C(=O)C/N=C(/O)c1ccc2cc(Cl)ccc2n1)c1ccccc1
DOCKED: REMARK SMILES IDX 6 1 7 2 8 3 9 4 10 6 20 7 11 8 19 9 12 10 18 11 13 12 17 13
DOCKED: REMARK SMILES IDX 14 14 15 15 16 16 4 17 5 18 3 19 2 20 1 21 21 22 22 23 26 24
DOCKED: REMARK SMILES IDX 23 25 25 26 24 27
DOCKED: REMARK H PARENT 9 5
DOCKED: USER                              x       y       z     vdW  Elec       q    Type
DOCKED: USER                           _______ _______ _______ _____ _____    ______ ____
DOCKED: ROOT
DOCKED: ATOM      1  C   UNL     1     140.391  73.974 220.654 -0.14 -0.04    +0.201 C  
DOCKED: ENDROOT
DOCKED: BRANCH   1   2
DOCKED: ATOM      2  N   UNL     1     140.273  72.717 221.394 -0.17 +0.04    -0.244 NA 
DOCKED: BRANCH   2   3
DOCKED: ATOM      3  C   UNL     1     139.365  72.416 222.280 -0.18 -0.05    +0.233 C  
DOCKED: BRANCH   3   4
DOCKED: ATOM      4  O   UNL     1     138.141  73.076 222.245 -0.06 +0.16    -0.492 OA 
DOCKED: ATOM      5  H   UNL     1     137.988  73.922 222.783 -0.48 -0.16    +0.295 HD 
DOCKED: ENDBRANCH   3   4
DOCKED: BRANCH   3   6
DOCKED: ATOM      6  C   UNL     1     139.590  71.434 223.356 -0.30 -0.03    +0.125 A  
DOCKED: ATOM      7  N   UNL     1     140.109  71.858 224.539 -0.23 +0.05    -0.243 NA 
DOCKED: ATOM      8  C   UNL     1     139.208  70.093 223.206 -0.24 -0.01    +0.035 A  
DOCKED: ATOM      9  C   UNL     1     140.317  71.008 225.581 -0.51 -0.01    +0.071 A  
DOCKED: ATOM     10  C   UNL     1     139.419  69.194 224.252 -0.30 -0.00    +0.013 A  
DOCKED: ATOM     11  C   UNL     1     140.870  71.482 226.777 -0.70 -0.00    +0.030 A  
DOCKED: ATOM     12  C   UNL     1     139.981  69.642 225.453 -0.44 -0.00    +0.002 A  
DOCKED: ATOM     13  C   UNL     1     141.087  70.604 227.844 -0.63 -0.00    +0.023 A  
DOCKED: ATOM     14  C   UNL     1     140.203  68.767 226.526 -0.56 -0.01    +0.030 A  
DOCKED: ATOM     15  C   UNL     1     140.756  69.249 227.719 -0.59 -0.01    +0.041 A  
DOCKED: ATOM     16  Cl  UNL     1     141.035  68.155 229.062 -0.46 +0.02    -0.084 Cl 
DOCKED: ENDBRANCH   3   6
DOCKED: ENDBRANCH   2   3
DOCKED: ENDBRANCH   1   2
DOCKED: BRANCH   1  17
DOCKED: ATOM     17  C   UNL     1     140.427  75.140 221.588 -0.31 -0.01    +0.074 C  
DOCKED: ATOM     18  O   UNL     1     139.572  75.230 222.511 -0.57 +0.04    -0.318 OA 
DOCKED: BRANCH  17  19
DOCKED: ATOM     19  N   UNL     1     141.413  76.165 221.412 +0.02 +0.29    -0.646 NA 
DOCKED: BRANCH  19  20
DOCKED: ATOM     20  C   UNL     1     141.112  77.499 220.896 -0.27 +0.04    -0.079 C  
DOCKED: ATOM     21  C   UNL     1     139.627  77.579 220.535 -0.14 +0.00    -0.008 C  
DOCKED: BRANCH  20  22
DOCKED: ATOM     22  C   UNL     1     141.466  78.564 221.914 -0.38 +0.03    -0.063 A  
DOCKED: ATOM     23  C   UNL     1     141.874  79.847 221.505 -0.43 -0.00    +0.002 A  
DOCKED: ATOM     24  C   UNL     1     141.431  78.261 223.287 -0.54 -0.00    +0.002 A  
DOCKED: ATOM     25  C   UNL     1     142.211  80.816 222.455 -0.55 -0.00    +0.000 A  
DOCKED: ATOM     26  C   UNL     1     141.779  79.233 224.232 -0.54 -0.00    +0.000 A  
DOCKED: ATOM     27  C   UNL     1     142.163  80.510 223.817 -0.64 -0.00    +0.000 A  
DOCKED: ENDBRANCH  20  22
DOCKED: ENDBRANCH  19  20
DOCKED: ENDBRANCH  17  19
DOCKED: ENDBRANCH   1  17
DOCKED: TORSDOF 8
DOCKED: TER
DOCKED: ENDMDL
________________________________________________________________________________


    FINAL DOCKED STATE:
    ________________________


Run:   13 / 20
Time taken for this run:   0.061s

DOCKED: MODEL        13
DOCKED: USER    Run = 13
DOCKED: USER
DOCKED: USER    Estimated Free Energy of Binding    =  -7.35 kcal/mol  [=(1)+(2)+(3)-(4)]
DOCKED: USER
DOCKED: USER    (1) Final Intermolecular Energy     =  -9.73 kcal/mol
DOCKED: USER        vdW + Hbond + desolv Energy     =  -9.74 kcal/mol
DOCKED: USER        Electrostatic Energy            =  +0.01 kcal/mol
DOCKED: USER        Moving Ligand-Fixed Receptor    =  -9.73 kcal/mol
DOCKED: USER        Moving Ligand-Moving Receptor   =  +0.00 kcal/mol
DOCKED: USER    (2) Final Total Internal Energy     =  -0.96 kcal/mol
DOCKED: USER    (3) Torsional Free Energy           =  +2.39 kcal/mol
DOCKED: USER    (4) Unbound System's Energy         =  -0.96 kcal/mol
DOCKED: USER
DOCKED: USER
DOCKED: REMARK SMILES C[C@H]([N-]C(=O)C/N=C(/O)c1ccc2cc(Cl)ccc2n1)c1ccccc1
DOCKED: REMARK SMILES IDX 6 1 7 2 8 3 9 4 10 6 20 7 11 8 19 9 12 10 18 11 13 12 17 13
DOCKED: REMARK SMILES IDX 14 14 15 15 16 16 4 17 5 18 3 19 2 20 1 21 21 22 22 23 26 24
DOCKED: REMARK SMILES IDX 23 25 25 26 24 27
DOCKED: REMARK H PARENT 9 5
DOCKED: USER                              x       y       z     vdW  Elec       q    Type
DOCKED: USER                           _______ _______ _______ _____ _____    ______ ____
DOCKED: ROOT
DOCKED: ATOM      1  C   UNL     1     139.092  72.048 221.193 -0.09 -0.04    +0.201 C  
DOCKED: ENDROOT
DOCKED: BRANCH   1   2
DOCKED: ATOM      2  N   UNL     1     138.199  73.197 221.037 -0.06 +0.05    -0.244 NA 
DOCKED: BRANCH   2   3
DOCKED: ATOM      3  C   UNL     1     137.650  73.893 221.993 -0.08 -0.07    +0.233 C  
DOCKED: BRANCH   3   4
DOCKED: ATOM      4  O   UNL     1     136.652  73.310 222.767 -0.05 +0.17    -0.492 OA 
DOCKED: ATOM      5  H   UNL     1     136.770  73.187 223.767 -0.45 -0.16    +0.295 HD 
DOCKED: ENDBRANCH   3   4
DOCKED: BRANCH   3   6
DOCKED: ATOM      6  C   UNL     1     138.006  75.297 222.266 -0.18 -0.04    +0.125 A  
DOCKED: ATOM      7  N   UNL     1     139.320  75.645 222.330 -0.37 +0.05    -0.243 NA 
DOCKED: ATOM      8  C   UNL     1     137.019  76.287 222.383 -0.22 -0.01    +0.035 A  
DOCKED: ATOM      9  C   UNL     1     139.716  76.928 222.553 -0.27 -0.01    +0.071 A  
DOCKED: ATOM     10  C   UNL     1     137.393  77.609 222.623 -0.23 -0.00    +0.013 A  
DOCKED: ATOM     11  C   UNL     1     141.078  77.241 222.629 -0.40 -0.01    +0.030 A  
DOCKED: ATOM     12  C   UNL     1     138.749  77.944 222.715 -0.30 -0.00    +0.002 A  
DOCKED: ATOM     13  C   UNL     1     141.481  78.559 222.864 -0.51 -0.01    +0.023 A  
DOCKED: ATOM     14  C   UNL     1     139.160  79.265 222.952 -0.32 -0.01    +0.030 A  
DOCKED: ATOM     15  C   UNL     1     140.525  79.570 223.026 -0.42 -0.01    +0.041 A  
DOCKED: ATOM     16  Cl  UNL     1     141.040  81.220 223.323 -0.54 +0.01    -0.084 Cl 
DOCKED: ENDBRANCH   3   6
DOCKED: ENDBRANCH   2   3
DOCKED: ENDBRANCH   1   2
DOCKED: BRANCH   1  17
DOCKED: ATOM     17  C   UNL     1     140.073  72.282 222.296 -0.28 -0.01    +0.074 C  
DOCKED: ATOM     18  O   UNL     1     140.708  73.370 222.348 -0.70 -0.01    -0.318 OA 
DOCKED: BRANCH  17  19
DOCKED: ATOM     19  N   UNL     1     140.309  71.259 223.270 -0.02 +0.09    -0.646 NA 
DOCKED: BRANCH  19  20
DOCKED: ATOM     20  C   UNL     1     139.321  70.842 224.264 -0.35 +0.02    -0.079 C  
DOCKED: ATOM     21  C   UNL     1     138.781  69.460 223.892 -0.30 +0.00    -0.008 C  
DOCKED: BRANCH  20  22
DOCKED: ATOM     22  C   UNL     1     139.930  70.816 225.651 -0.46 +0.01    -0.063 A  
DOCKED: ATOM     23  C   UNL     1     139.669  69.752 226.535 -0.50 -0.00    +0.002 A  
DOCKED: ATOM     24  C   UNL     1     140.733  71.886 226.086 -0.58 -0.00    +0.002 A  
DOCKED: ATOM     25  C   UNL     1     140.226  69.747 227.817 -0.63 -0.00    +0.000 A  
DOCKED: ATOM     26  C   UNL     1     141.280  71.879 227.374 -0.79 -0.00    +0.000 A  
DOCKED: ATOM     27  C   UNL     1     141.032  70.809 228.237 -0.64 -0.00    +0.000 A  
DOCKED: ENDBRANCH  20  22
DOCKED: ENDBRANCH  19  20
DOCKED: ENDBRANCH  17  19
DOCKED: ENDBRANCH   1  17
DOCKED: TORSDOF 8
DOCKED: TER
DOCKED: ENDMDL
________________________________________________________________________________


    FINAL DOCKED STATE:
    ________________________


Run:   14 / 20
Time taken for this run:   0.061s

DOCKED: MODEL        14
DOCKED: USER    Run = 14
DOCKED: USER
DOCKED: USER    Estimated Free Energy of Binding    =  -7.52 kcal/mol  [=(1)+(2)+(3)-(4)]
DOCKED: USER
DOCKED: USER    (1) Final Intermolecular Energy     =  -9.91 kcal/mol
DOCKED: USER        vdW + Hbond + desolv Energy     =  -9.98 kcal/mol
DOCKED: USER        Electrostatic Energy            =  +0.07 kcal/mol
DOCKED: USER        Moving Ligand-Fixed Receptor    =  -9.91 kcal/mol
DOCKED: USER        Moving Ligand-Moving Receptor   =  +0.00 kcal/mol
DOCKED: USER    (2) Final Total Internal Energy     =  -1.42 kcal/mol
DOCKED: USER    (3) Torsional Free Energy           =  +2.39 kcal/mol
DOCKED: USER    (4) Unbound System's Energy         =  -1.42 kcal/mol
DOCKED: USER
DOCKED: USER
DOCKED: REMARK SMILES C[C@H]([N-]C(=O)C/N=C(/O)c1ccc2cc(Cl)ccc2n1)c1ccccc1
DOCKED: REMARK SMILES IDX 6 1 7 2 8 3 9 4 10 6 20 7 11 8 19 9 12 10 18 11 13 12 17 13
DOCKED: REMARK SMILES IDX 14 14 15 15 16 16 4 17 5 18 3 19 2 20 1 21 21 22 22 23 26 24
DOCKED: REMARK SMILES IDX 23 25 25 26 24 27
DOCKED: REMARK H PARENT 9 5
DOCKED: USER                              x       y       z     vdW  Elec       q    Type
DOCKED: USER                           _______ _______ _______ _____ _____    ______ ____
DOCKED: ROOT
DOCKED: ATOM      1  C   UNL     1     136.506  69.394 224.024 -0.15 -0.02    +0.201 C  
DOCKED: ENDROOT
DOCKED: BRANCH   1   2
DOCKED: ATOM      2  N   UNL     1     135.614  70.284 224.768 -0.11 +0.02    -0.244 NA 
DOCKED: BRANCH   2   3
DOCKED: ATOM      3  C   UNL     1     135.457  71.565 224.581 -0.07 -0.03    +0.233 C  
DOCKED: BRANCH   3   4
DOCKED: ATOM      4  O   UNL     1     136.207  72.201 223.596 -0.07 +0.12    -0.492 OA 
DOCKED: ATOM      5  H   UNL     1     137.086  72.656 223.821 -0.46 -0.15    +0.295 HD 
DOCKED: ENDBRANCH   3   4
DOCKED: BRANCH   3   6
DOCKED: ATOM      6  C   UNL     1     134.550  72.389 225.400 -0.17 -0.01    +0.125 A  
DOCKED: ATOM      7  N   UNL     1     134.680  73.742 225.370 -0.24 +0.01    -0.243 NA 
DOCKED: ATOM      8  C   UNL     1     133.513  71.806 226.143 -0.32 -0.00    +0.035 A  
DOCKED: ATOM      9  C   UNL     1     133.858  74.561 226.081 -0.33 +0.00    +0.071 A  
DOCKED: ATOM     10  C   UNL     1     132.662  72.619 226.893 -0.40 -0.00    +0.013 A  
DOCKED: ATOM     11  C   UNL     1     134.037  75.949 226.037 -0.36 -0.00    +0.030 A  
DOCKED: ATOM     12  C   UNL     1     132.828  74.008 226.873 -0.39 +0.00    +0.002 A  
DOCKED: ATOM     13  C   UNL     1     133.194  76.786 226.775 -0.35 -0.00    +0.023 A  
DOCKED: ATOM     14  C   UNL     1     131.987  74.854 227.612 -0.40 -0.00    +0.030 A  
DOCKED: ATOM     15  C   UNL     1     132.171  76.241 227.561 -0.34 +0.00    +0.041 A  
DOCKED: ATOM     16  Cl  UNL     1     131.121  77.300 228.485 -0.34 -0.01    -0.084 Cl 
DOCKED: ENDBRANCH   3   6
DOCKED: ENDBRANCH   2   3
DOCKED: ENDBRANCH   1   2
DOCKED: BRANCH   1  17
DOCKED: ATOM     17  C   UNL     1     137.937  69.755 224.258 -0.27 -0.01    +0.074 C  
DOCKED: ATOM     18  O   UNL     1     138.348  70.909 223.958 -0.17 +0.07    -0.318 OA 
DOCKED: BRANCH  17  19
DOCKED: ATOM     19  N   UNL     1     138.840  68.781 224.794 -0.07 +0.06    -0.646 NA 
DOCKED: BRANCH  19  20
DOCKED: ATOM     20  C   UNL     1     139.196  68.696 226.209 -0.46 +0.01    -0.079 C  
DOCKED: ATOM     21  C   UNL     1     140.039  67.442 226.445 -0.66 +0.00    -0.008 C  
DOCKED: BRANCH  20  22
DOCKED: ATOM     22  C   UNL     1     139.955  69.932 226.648 -0.49 +0.01    -0.063 A  
DOCKED: ATOM     23  C   UNL     1     139.849  70.415 227.966 -0.61 -0.00    +0.002 A  
DOCKED: ATOM     24  C   UNL     1     140.743  70.639 225.722 -0.57 -0.00    +0.002 A  
DOCKED: ATOM     25  C   UNL     1     140.544  71.565 228.355 -0.75 -0.00    +0.000 A  
DOCKED: ATOM     26  C   UNL     1     141.429  71.794 226.115 -0.62 -0.00    +0.000 A  
DOCKED: ATOM     27  C   UNL     1     141.333  72.253 227.431 -0.83 -0.00    +0.000 A  
DOCKED: ENDBRANCH  20  22
DOCKED: ENDBRANCH  19  20
DOCKED: ENDBRANCH  17  19
DOCKED: ENDBRANCH   1  17
DOCKED: TORSDOF 8
DOCKED: TER
DOCKED: ENDMDL
________________________________________________________________________________


    FINAL DOCKED STATE:
    ________________________


Run:   15 / 20
Time taken for this run:   0.061s

DOCKED: MODEL        15
DOCKED: USER    Run = 15
DOCKED: USER
DOCKED: USER    Estimated Free Energy of Binding    =  -6.55 kcal/mol  [=(1)+(2)+(3)-(4)]
DOCKED: USER
DOCKED: USER    (1) Final Intermolecular Energy     =  -8.93 kcal/mol
DOCKED: USER        vdW + Hbond + desolv Energy     =  -9.01 kcal/mol
DOCKED: USER        Electrostatic Energy            =  +0.08 kcal/mol
DOCKED: USER        Moving Ligand-Fixed Receptor    =  -8.93 kcal/mol
DOCKED: USER        Moving Ligand-Moving Receptor   =  +0.00 kcal/mol
DOCKED: USER    (2) Final Total Internal Energy     =  -2.16 kcal/mol
DOCKED: USER    (3) Torsional Free Energy           =  +2.39 kcal/mol
DOCKED: USER    (4) Unbound System's Energy         =  -2.16 kcal/mol
DOCKED: USER
DOCKED: USER
DOCKED: REMARK SMILES C[C@H]([N-]C(=O)C/N=C(/O)c1ccc2cc(Cl)ccc2n1)c1ccccc1
DOCKED: REMARK SMILES IDX 6 1 7 2 8 3 9 4 10 6 20 7 11 8 19 9 12 10 18 11 13 12 17 13
DOCKED: REMARK SMILES IDX 14 14 15 15 16 16 4 17 5 18 3 19 2 20 1 21 21 22 22 23 26 24
DOCKED: REMARK SMILES IDX 23 25 25 26 24 27
DOCKED: REMARK H PARENT 9 5
DOCKED: USER                              x       y       z     vdW  Elec       q    Type
DOCKED: USER                           _______ _______ _______ _____ _____    ______ ____
DOCKED: ROOT
DOCKED: ATOM      1  C   UNL     1     137.293  70.766 224.202 -0.13 -0.04    +0.201 C  
DOCKED: ENDROOT
DOCKED: BRANCH   1   2
DOCKED: ATOM      2  N   UNL     1     137.791  70.808 222.826 -0.09 +0.05    -0.244 NA 
DOCKED: BRANCH   2   3
DOCKED: ATOM      3  C   UNL     1     139.039  70.829 222.449 -0.14 -0.04    +0.233 C  
DOCKED: BRANCH   3   4
DOCKED: ATOM      4  O   UNL     1     139.766  69.643 222.452 +0.00 +0.09    -0.492 OA 
DOCKED: ATOM      5  H   UNL     1     139.639  68.954 223.185 +0.05 -0.06    +0.295 HD 
DOCKED: ENDBRANCH   3   4
DOCKED: BRANCH   3   6
DOCKED: ATOM      6  C   UNL     1     139.737  72.067 222.059 -0.22 -0.02    +0.125 A  
DOCKED: ATOM      7  N   UNL     1     139.133  73.265 222.286 -0.30 +0.06    -0.243 NA 
DOCKED: ATOM      8  C   UNL     1     141.037  72.033 221.535 -0.24 -0.00    +0.035 A  
DOCKED: ATOM      9  C   UNL     1     139.733  74.445 221.975 -0.25 -0.01    +0.071 A  
DOCKED: ATOM     10  C   UNL     1     141.675  73.226 221.195 -0.27 -0.00    +0.013 A  
DOCKED: ATOM     11  C   UNL     1     139.070  75.656 222.207 -0.30 -0.01    +0.030 A  
DOCKED: ATOM     12  C   UNL     1     141.028  74.448 221.408 -0.31 -0.00    +0.002 A  
DOCKED: ATOM     13  C   UNL     1     139.689  76.867 221.881 -0.31 -0.01    +0.023 A  
DOCKED: ATOM     14  C   UNL     1     141.641  75.667 221.081 -0.25 -0.01    +0.030 A  
DOCKED: ATOM     15  C   UNL     1     140.972  76.873 221.318 -0.31 -0.02    +0.041 A  
DOCKED: ATOM     16  Cl  UNL     1     141.738  78.397 220.908 -0.39 +0.05    -0.084 Cl 
DOCKED: ENDBRANCH   3   6
DOCKED: ENDBRANCH   2   3
DOCKED: ENDBRANCH   1   2
DOCKED: BRANCH   1  17
DOCKED: ATOM     17  C   UNL     1     137.312  69.370 224.733 -0.26 -0.01    +0.074 C  
DOCKED: ATOM     18  O   UNL     1     136.227  68.795 225.021 -0.22 -0.00    -0.318 OA 
DOCKED: BRANCH  17  19
DOCKED: ATOM     19  N   UNL     1     138.562  68.703 224.942 -0.12 +0.04    -0.646 NA 
DOCKED: BRANCH  19  20
DOCKED: ATOM     20  C   UNL     1     139.212  68.588 226.246 -0.46 +0.01    -0.079 C  
DOCKED: ATOM     21  C   UNL     1     140.239  67.455 226.202 -0.64 +0.00    -0.008 C  
DOCKED: BRANCH  20  22
DOCKED: ATOM     22  C   UNL     1     139.881  69.892 226.631 -0.48 +0.01    -0.063 A  
DOCKED: ATOM     23  C   UNL     1     140.521  70.689 225.664 -0.56 -0.00    +0.002 A  
DOCKED: ATOM     24  C   UNL     1     139.906  70.297 227.978 -0.63 -0.00    +0.002 A  
DOCKED: ATOM     25  C   UNL     1     141.147  71.884 226.035 -0.61 -0.00    +0.000 A  
DOCKED: ATOM     26  C   UNL     1     140.542  71.489 228.345 -0.75 -0.00    +0.000 A  
DOCKED: ATOM     27  C   UNL     1     141.157  72.284 227.374 -0.82 -0.00    +0.000 A  
DOCKED: ENDBRANCH  20  22
DOCKED: ENDBRANCH  19  20
DOCKED: ENDBRANCH  17  19
DOCKED: ENDBRANCH   1  17
DOCKED: TORSDOF 8
DOCKED: TER
DOCKED: ENDMDL
________________________________________________________________________________


    FINAL DOCKED STATE:
    ________________________


Run:   16 / 20
Time taken for this run:   0.061s

DOCKED: MODEL        16
DOCKED: USER    Run = 16
DOCKED: USER
DOCKED: USER    Estimated Free Energy of Binding    =  -7.53 kcal/mol  [=(1)+(2)+(3)-(4)]
DOCKED: USER
DOCKED: USER    (1) Final Intermolecular Energy     =  -9.92 kcal/mol
DOCKED: USER        vdW + Hbond + desolv Energy     = -10.26 kcal/mol
DOCKED: USER        Electrostatic Energy            =  +0.35 kcal/mol
DOCKED: USER        Moving Ligand-Fixed Receptor    =  -9.92 kcal/mol
DOCKED: USER        Moving Ligand-Moving Receptor   =  +0.00 kcal/mol
DOCKED: USER    (2) Final Total Internal Energy     =  -1.49 kcal/mol
DOCKED: USER    (3) Torsional Free Energy           =  +2.39 kcal/mol
DOCKED: USER    (4) Unbound System's Energy         =  -1.49 kcal/mol
DOCKED: USER
DOCKED: USER
DOCKED: REMARK SMILES C[C@H]([N-]C(=O)C/N=C(/O)c1ccc2cc(Cl)ccc2n1)c1ccccc1
DOCKED: REMARK SMILES IDX 6 1 7 2 8 3 9 4 10 6 20 7 11 8 19 9 12 10 18 11 13 12 17 13
DOCKED: REMARK SMILES IDX 14 14 15 15 16 16 4 17 5 18 3 19 2 20 1 21 21 22 22 23 26 24
DOCKED: REMARK SMILES IDX 23 25 25 26 24 27
DOCKED: REMARK H PARENT 9 5
DOCKED: USER                              x       y       z     vdW  Elec       q    Type
DOCKED: USER                           _______ _______ _______ _____ _____    ______ ____
DOCKED: ROOT
DOCKED: ATOM      1  C   UNL     1     140.993  73.793 220.285 -0.13 -0.04    +0.201 C  
DOCKED: ENDROOT
DOCKED: BRANCH   1   2
DOCKED: ATOM      2  N   UNL     1     140.869  72.744 221.298 -0.17 +0.03    -0.244 NA 
DOCKED: BRANCH   2   3
DOCKED: ATOM      3  C   UNL     1     139.999  72.697 222.268 -0.21 -0.03    +0.233 C  
DOCKED: BRANCH   3   4
DOCKED: ATOM      4  O   UNL     1     139.010  73.673 222.338 -0.32 +0.14    -0.492 OA 
DOCKED: ATOM      5  H   UNL     1     139.163  74.537 222.846 -0.44 -0.09    +0.295 HD 
DOCKED: ENDBRANCH   3   4
DOCKED: BRANCH   3   6
DOCKED: ATOM      6  C   UNL     1     140.039  71.677 223.331 -0.31 -0.02    +0.125 A  
DOCKED: ATOM      7  N   UNL     1     140.501  72.024 224.562 -0.15 +0.04    -0.243 NA 
DOCKED: ATOM      8  C   UNL     1     139.540  70.384 223.116 -0.25 -0.01    +0.035 A  
DOCKED: ATOM      9  C   UNL     1     140.540  71.138 225.594 -0.53 -0.01    +0.071 A  
DOCKED: ATOM     10  C   UNL     1     139.577  69.449 224.151 -0.29 -0.00    +0.013 A  
DOCKED: ATOM     11  C   UNL     1     141.040  71.531 226.841 -0.72 -0.00    +0.030 A  
DOCKED: ATOM     12  C   UNL     1     140.082  69.815 225.403 -0.45 -0.00    +0.002 A  
DOCKED: ATOM     13  C   UNL     1     141.083  70.615 227.898 -0.63 -0.00    +0.023 A  
DOCKED: ATOM     14  C   UNL     1     140.131  68.901 226.467 -0.54 -0.01    +0.030 A  
DOCKED: ATOM     15  C   UNL     1     140.631  69.303 227.711 -0.59 -0.01    +0.041 A  
DOCKED: ATOM     16  Cl  UNL     1     140.693  68.160 229.042 -0.37 +0.02    -0.084 Cl 
DOCKED: ENDBRANCH   3   6
DOCKED: ENDBRANCH   2   3
DOCKED: ENDBRANCH   1   2
DOCKED: BRANCH   1  17
DOCKED: ATOM     17  C   UNL     1     141.492  75.064 220.892 -0.28 -0.02    +0.074 C  
DOCKED: ATOM     18  O   UNL     1     142.573  75.570 220.484 -0.19 +0.17    -0.318 OA 
DOCKED: BRANCH  17  19
DOCKED: ATOM     19  N   UNL     1     140.757  75.685 221.953 -0.21 +0.14    -0.646 NA 
DOCKED: BRANCH  19  20
DOCKED: ATOM     20  C   UNL     1     140.054  76.959 221.814 -0.31 +0.02    -0.079 C  
DOCKED: ATOM     21  C   UNL     1     138.808  76.948 222.701 -0.27 +0.00    -0.008 C  
DOCKED: BRANCH  20  22
DOCKED: ATOM     22  C   UNL     1     140.957  78.117 222.187 -0.38 +0.02    -0.063 A  
DOCKED: ATOM     23  C   UNL     1     141.373  78.309 223.517 -0.50 -0.00    +0.002 A  
DOCKED: ATOM     24  C   UNL     1     141.353  79.042 221.205 -0.34 -0.00    +0.002 A  
DOCKED: ATOM     25  C   UNL     1     142.196  79.390 223.850 -0.60 -0.00    +0.000 A  
DOCKED: ATOM     26  C   UNL     1     142.169  80.127 221.545 -0.44 -0.00    +0.000 A  
DOCKED: ATOM     27  C   UNL     1     142.594  80.298 222.865 -0.64 -0.00    +0.000 A  
DOCKED: ENDBRANCH  20  22
DOCKED: ENDBRANCH  19  20
DOCKED: ENDBRANCH  17  19
DOCKED: ENDBRANCH   1  17
DOCKED: TORSDOF 8
DOCKED: TER
DOCKED: ENDMDL
________________________________________________________________________________


    FINAL DOCKED STATE:
    ________________________


Run:   17 / 20
Time taken for this run:   0.061s

DOCKED: MODEL        17
DOCKED: USER    Run = 17
DOCKED: USER
DOCKED: USER    Estimated Free Energy of Binding    =  -6.52 kcal/mol  [=(1)+(2)+(3)-(4)]
DOCKED: USER
DOCKED: USER    (1) Final Intermolecular Energy     =  -8.91 kcal/mol
DOCKED: USER        vdW + Hbond + desolv Energy     =  -9.15 kcal/mol
DOCKED: USER        Electrostatic Energy            =  +0.24 kcal/mol
DOCKED: USER        Moving Ligand-Fixed Receptor    =  -8.91 kcal/mol
DOCKED: USER        Moving Ligand-Moving Receptor   =  +0.00 kcal/mol
DOCKED: USER    (2) Final Total Internal Energy     =  -1.73 kcal/mol
DOCKED: USER    (3) Torsional Free Energy           =  +2.39 kcal/mol
DOCKED: USER    (4) Unbound System's Energy         =  -1.73 kcal/mol
DOCKED: USER
DOCKED: USER
DOCKED: REMARK SMILES C[C@H]([N-]C(=O)C/N=C(/O)c1ccc2cc(Cl)ccc2n1)c1ccccc1
DOCKED: REMARK SMILES IDX 6 1 7 2 8 3 9 4 10 6 20 7 11 8 19 9 12 10 18 11 13 12 17 13
DOCKED: REMARK SMILES IDX 14 14 15 15 16 16 4 17 5 18 3 19 2 20 1 21 21 22 22 23 26 24
DOCKED: REMARK SMILES IDX 23 25 25 26 24 27
DOCKED: REMARK H PARENT 9 5
DOCKED: USER                              x       y       z     vdW  Elec       q    Type
DOCKED: USER                           _______ _______ _______ _____ _____    ______ ____
DOCKED: ROOT
DOCKED: ATOM      1  C   UNL     1     140.930  73.976 220.436 -0.14 -0.04    +0.201 C  
DOCKED: ENDROOT
DOCKED: BRANCH   1   2
DOCKED: ATOM      2  N   UNL     1     140.361  72.752 221.002 -0.11 +0.04    -0.244 NA 
DOCKED: BRANCH   2   3
DOCKED: ATOM      3  C   UNL     1     139.563  72.666 222.029 -0.19 -0.04    +0.233 C  
DOCKED: BRANCH   3   4
DOCKED: ATOM      4  O   UNL     1     138.541  73.600 222.171 -0.10 +0.16    -0.492 OA 
DOCKED: ATOM      5  H   UNL     1     138.743  74.592 222.226 -0.10 -0.09    +0.295 HD 
DOCKED: ENDBRANCH   3   4
DOCKED: BRANCH   3   6
DOCKED: ATOM      6  C   UNL     1     139.720  71.647 223.082 -0.28 -0.02    +0.125 A  
DOCKED: ATOM      7  N   UNL     1     140.232  72.016 224.287 -0.18 +0.04    -0.243 NA 
DOCKED: ATOM      8  C   UNL     1     139.281  70.330 222.888 -0.22 -0.01    +0.035 A  
DOCKED: ATOM      9  C   UNL     1     140.379  71.131 225.310 -0.50 -0.01    +0.071 A  
DOCKED: ATOM     10  C   UNL     1     139.428  69.395 223.914 -0.27 -0.00    +0.013 A  
DOCKED: ATOM     11  C   UNL     1     140.927  71.548 226.529 -0.68 -0.00    +0.030 A  
DOCKED: ATOM     12  C   UNL     1     139.984  69.786 225.138 -0.42 -0.00    +0.002 A  
DOCKED: ATOM     13  C   UNL     1     141.081  70.634 227.576 -0.62 -0.00    +0.023 A  
DOCKED: ATOM     14  C   UNL     1     140.144  68.873 226.191 -0.52 -0.01    +0.030 A  
DOCKED: ATOM     15  C   UNL     1     140.691  69.299 227.408 -0.58 -0.01    +0.041 A  
DOCKED: ATOM     16  Cl  UNL     1     140.892  68.158 228.726 -0.66 +0.02    -0.084 Cl 
DOCKED: ENDBRANCH   3   6
DOCKED: ENDBRANCH   2   3
DOCKED: ENDBRANCH   1   2
DOCKED: BRANCH   1  17
DOCKED: ATOM     17  C   UNL     1     140.508  75.174 221.224 -0.28 -0.02    +0.074 C  
DOCKED: ATOM     18  O   UNL     1     141.036  75.401 222.346 -0.38 +0.04    -0.318 OA 
DOCKED: BRANCH  17  19
DOCKED: ATOM     19  N   UNL     1     139.486  76.039 220.715 +0.04 +0.16    -0.646 NA 
DOCKED: BRANCH  19  20
DOCKED: ATOM     20  C   UNL     1     138.993  77.216 221.427 -0.18 +0.02    -0.079 C  
DOCKED: ATOM     21  C   UNL     1     138.256  76.772 222.691 -0.29 +0.00    -0.008 C  
DOCKED: BRANCH  20  22
DOCKED: ATOM     22  C   UNL     1     140.134  78.149 221.781 -0.26 +0.02    -0.063 A  
DOCKED: ATOM     23  C   UNL     1     140.792  78.896 220.787 -0.25 -0.00    +0.002 A  
DOCKED: ATOM     24  C   UNL     1     140.577  78.242 223.113 -0.40 -0.00    +0.002 A  
DOCKED: ATOM     25  C   UNL     1     141.852  79.743 221.126 -0.38 -0.00    +0.000 A  
DOCKED: ATOM     26  C   UNL     1     141.645  79.084 223.444 -0.60 -0.00    +0.000 A  
DOCKED: ATOM     27  C   UNL     1     142.278  79.838 222.453 -0.57 -0.00    +0.000 A  
DOCKED: ENDBRANCH  20  22
DOCKED: ENDBRANCH  19  20
DOCKED: ENDBRANCH  17  19
DOCKED: ENDBRANCH   1  17
DOCKED: TORSDOF 8
DOCKED: TER
DOCKED: ENDMDL
________________________________________________________________________________


    FINAL DOCKED STATE:
    ________________________


Run:   18 / 20
Time taken for this run:   0.061s

DOCKED: MODEL        18
DOCKED: USER    Run = 18
DOCKED: USER
DOCKED: USER    Estimated Free Energy of Binding    =  -7.39 kcal/mol  [=(1)+(2)+(3)-(4)]
DOCKED: USER
DOCKED: USER    (1) Final Intermolecular Energy     =  -9.78 kcal/mol
DOCKED: USER        vdW + Hbond + desolv Energy     =  -9.95 kcal/mol
DOCKED: USER        Electrostatic Energy            =  +0.17 kcal/mol
DOCKED: USER        Moving Ligand-Fixed Receptor    =  -9.78 kcal/mol
DOCKED: USER        Moving Ligand-Moving Receptor   =  +0.00 kcal/mol
DOCKED: USER    (2) Final Total Internal Energy     =  -1.30 kcal/mol
DOCKED: USER    (3) Torsional Free Energy           =  +2.39 kcal/mol
DOCKED: USER    (4) Unbound System's Energy         =  -1.30 kcal/mol
DOCKED: USER
DOCKED: USER
DOCKED: REMARK SMILES C[C@H]([N-]C(=O)C/N=C(/O)c1ccc2cc(Cl)ccc2n1)c1ccccc1
DOCKED: REMARK SMILES IDX 6 1 7 2 8 3 9 4 10 6 20 7 11 8 19 9 12 10 18 11 13 12 17 13
DOCKED: REMARK SMILES IDX 14 14 15 15 16 16 4 17 5 18 3 19 2 20 1 21 21 22 22 23 26 24
DOCKED: REMARK SMILES IDX 23 25 25 26 24 27
DOCKED: REMARK H PARENT 9 5
DOCKED: USER                              x       y       z     vdW  Elec       q    Type
DOCKED: USER                           _______ _______ _______ _____ _____    ______ ____
DOCKED: ROOT
DOCKED: ATOM      1  C   UNL     1     140.327  74.784 221.333 -0.23 -0.04    +0.201 C  
DOCKED: ENDROOT
DOCKED: BRANCH   1   2
DOCKED: ATOM      2  N   UNL     1     140.500  73.637 222.226 -0.71 -0.00    -0.244 NA 
DOCKED: BRANCH   2   3
DOCKED: ATOM      3  C   UNL     1     139.663  72.653 222.402 -0.19 -0.04    +0.233 C  
DOCKED: BRANCH   3   4
DOCKED: ATOM      4  O   UNL     1     138.529  72.578 221.599 -0.04 +0.11    -0.492 OA 
DOCKED: ATOM      5  H   UNL     1     137.964  73.400 221.414 +0.05 -0.07    +0.295 HD 
DOCKED: ENDBRANCH   3   4
DOCKED: BRANCH   3   6
DOCKED: ATOM      6  C   UNL     1     139.836  71.633 223.452 -0.31 -0.02    +0.125 A  
DOCKED: ATOM      7  N   UNL     1     140.341  72.006 224.658 -0.16 +0.04    -0.243 NA 
DOCKED: ATOM      8  C   UNL     1     139.417  70.309 223.253 -0.26 -0.01    +0.035 A  
DOCKED: ATOM      9  C   UNL     1     140.501  71.120 225.678 -0.53 -0.01    +0.071 A  
DOCKED: ATOM     10  C   UNL     1     139.579  69.374 224.276 -0.30 -0.00    +0.013 A  
DOCKED: ATOM     11  C   UNL     1     141.041  71.541 226.899 -0.72 -0.00    +0.030 A  
DOCKED: ATOM     12  C   UNL     1     140.128  69.769 225.501 -0.46 -0.00    +0.002 A  
DOCKED: ATOM     13  C   UNL     1     141.209  70.625 227.943 -0.55 -0.00    +0.023 A  
DOCKED: ATOM     14  C   UNL     1     140.301  68.855 226.552 -0.56 -0.01    +0.030 A  
DOCKED: ATOM     15  C   UNL     1     140.841  69.285 227.770 -0.58 -0.01    +0.041 A  
DOCKED: ATOM     16  Cl  UNL     1     141.059  68.143 229.084 -0.47 +0.02    -0.084 Cl 
DOCKED: ENDBRANCH   3   6
DOCKED: ENDBRANCH   2   3
DOCKED: ENDBRANCH   1   2
DOCKED: BRANCH   1  17
DOCKED: ATOM     17  C   UNL     1     139.297  75.725 221.869 -0.28 -0.02    +0.074 C  
DOCKED: ATOM     18  O   UNL     1     138.081  75.546 221.589 -0.11 +0.07    -0.318 OA 
DOCKED: BRANCH  17  19
DOCKED: ATOM     19  N   UNL     1     139.699  76.842 222.671 +0.01 +0.12    -0.646 NA 
DOCKED: BRANCH  19  20
DOCKED: ATOM     20  C   UNL     1     139.422  78.233 222.319 -0.28 +0.02    -0.079 C  
DOCKED: ATOM     21  C   UNL     1     138.099  78.662 222.956 -0.23 +0.00    -0.008 C  
DOCKED: BRANCH  20  22
DOCKED: ATOM     22  C   UNL     1     140.546  79.140 222.778 -0.39 +0.02    -0.063 A  
DOCKED: ATOM     23  C   UNL     1     140.275  80.410 223.320 -0.44 -0.00    +0.002 A  
DOCKED: ATOM     24  C   UNL     1     141.883  78.733 222.622 -0.48 -0.00    +0.002 A  
DOCKED: ATOM     25  C   UNL     1     141.323  81.242 223.726 -0.50 -0.00    +0.000 A  
DOCKED: ATOM     26  C   UNL     1     142.928  79.574 223.023 -0.58 -0.00    +0.000 A  
DOCKED: ATOM     27  C   UNL     1     142.648  80.825 223.579 -0.66 -0.00    +0.000 A  
DOCKED: ENDBRANCH  20  22
DOCKED: ENDBRANCH  19  20
DOCKED: ENDBRANCH  17  19
DOCKED: ENDBRANCH   1  17
DOCKED: TORSDOF 8
DOCKED: TER
DOCKED: ENDMDL
________________________________________________________________________________


    FINAL DOCKED STATE:
    ________________________


Run:   19 / 20
Time taken for this run:   0.061s

DOCKED: MODEL        19
DOCKED: USER    Run = 19
DOCKED: USER
DOCKED: USER    Estimated Free Energy of Binding    =  -7.09 kcal/mol  [=(1)+(2)+(3)-(4)]
DOCKED: USER
DOCKED: USER    (1) Final Intermolecular Energy     =  -9.48 kcal/mol
DOCKED: USER        vdW + Hbond + desolv Energy     =  -9.78 kcal/mol
DOCKED: USER        Electrostatic Energy            =  +0.30 kcal/mol
DOCKED: USER        Moving Ligand-Fixed Receptor    =  -9.48 kcal/mol
DOCKED: USER        Moving Ligand-Moving Receptor   =  +0.00 kcal/mol
DOCKED: USER    (2) Final Total Internal Energy     =  -1.35 kcal/mol
DOCKED: USER    (3) Torsional Free Energy           =  +2.39 kcal/mol
DOCKED: USER    (4) Unbound System's Energy         =  -1.35 kcal/mol
DOCKED: USER
DOCKED: USER
DOCKED: REMARK SMILES C[C@H]([N-]C(=O)C/N=C(/O)c1ccc2cc(Cl)ccc2n1)c1ccccc1
DOCKED: REMARK SMILES IDX 6 1 7 2 8 3 9 4 10 6 20 7 11 8 19 9 12 10 18 11 13 12 17 13
DOCKED: REMARK SMILES IDX 14 14 15 15 16 16 4 17 5 18 3 19 2 20 1 21 21 22 22 23 26 24
DOCKED: REMARK SMILES IDX 23 25 25 26 24 27
DOCKED: REMARK H PARENT 9 5
DOCKED: USER                              x       y       z     vdW  Elec       q    Type
DOCKED: USER                           _______ _______ _______ _____ _____    ______ ____
DOCKED: ROOT
DOCKED: ATOM      1  C   UNL     1     138.927  75.229 222.297 -0.14 -0.05    +0.201 C  
DOCKED: ENDROOT
DOCKED: BRANCH   1   2
DOCKED: ATOM      2  N   UNL     1     138.839  73.865 221.772 -0.19 +0.06    -0.244 NA 
DOCKED: BRANCH   2   3
DOCKED: ATOM      3  C   UNL     1     139.749  72.935 221.861 -0.19 -0.04    +0.233 C  
DOCKED: BRANCH   3   4
DOCKED: ATOM      4  O   UNL     1     140.719  72.841 220.868 -0.06 +0.08    -0.492 OA 
DOCKED: ATOM      5  H   UNL     1     141.284  73.642 220.611 +0.10 -0.05    +0.295 HD 
DOCKED: ENDBRANCH   3   4
DOCKED: BRANCH   3   6
DOCKED: ATOM      6  C   UNL     1     139.772  71.940 222.948 -0.28 -0.02    +0.125 A  
DOCKED: ATOM      7  N   UNL     1     140.365  72.266 224.129 -0.14 +0.04    -0.243 NA 
DOCKED: ATOM      8  C   UNL     1     139.129  70.701 222.812 -0.23 -0.01    +0.035 A  
DOCKED: ATOM      9  C   UNL     1     140.399  71.403 225.181 -0.48 -0.01    +0.071 A  
DOCKED: ATOM     10  C   UNL     1     139.156  69.791 223.869 -0.29 -0.00    +0.013 A  
DOCKED: ATOM     11  C   UNL     1     141.035  71.770 226.372 -0.67 -0.00    +0.030 A  
DOCKED: ATOM     12  C   UNL     1     139.796  70.131 225.066 -0.43 -0.00    +0.002 A  
DOCKED: ATOM     13  C   UNL     1     141.071  70.879 227.449 -0.66 -0.00    +0.023 A  
DOCKED: ATOM     14  C   UNL     1     139.838  69.241 226.150 -0.48 -0.00    +0.030 A  
DOCKED: ATOM     15  C   UNL     1     140.475  69.616 227.339 -0.56 -0.01    +0.041 A  
DOCKED: ATOM     16  Cl  UNL     1     140.530  68.503 228.694 -0.70 +0.02    -0.084 Cl 
DOCKED: ENDBRANCH   3   6
DOCKED: ENDBRANCH   2   3
DOCKED: ENDBRANCH   1   2
DOCKED: BRANCH   1  17
DOCKED: ATOM     17  C   UNL     1     140.220  75.867 221.907 -0.33 -0.02    +0.074 C  
DOCKED: ATOM     18  O   UNL     1     141.294  75.212 222.000 -0.43 +0.06    -0.318 OA 
DOCKED: BRANCH  17  19
DOCKED: ATOM     19  N   UNL     1     140.238  77.228 221.459 +0.02 +0.20    -0.646 NA 
DOCKED: BRANCH  19  20
DOCKED: ATOM     20  C   UNL     1     141.465  77.984 221.213 -0.31 +0.04    -0.079 C  
DOCKED: ATOM     21  C   UNL     1     141.450  78.518 219.780 -0.26 +0.00    -0.008 C  
DOCKED: BRANCH  20  22
DOCKED: ATOM     22  C   UNL     1     141.603  79.124 222.200 -0.43 +0.03    -0.063 A  
DOCKED: ATOM     23  C   UNL     1     140.482  79.881 222.592 -0.38 -0.00    +0.002 A  
DOCKED: ATOM     24  C   UNL     1     142.870  79.468 222.704 -0.56 -0.00    +0.002 A  
DOCKED: ATOM     25  C   UNL     1     140.626  80.939 223.494 -0.45 -0.00    +0.000 A  
DOCKED: ATOM     26  C   UNL     1     143.009  80.535 223.599 -0.68 -0.00    +0.000 A  
DOCKED: ATOM     27  C   UNL     1     141.887  81.266 223.998 -0.56 -0.00    +0.000 A  
DOCKED: ENDBRANCH  20  22
DOCKED: ENDBRANCH  19  20
DOCKED: ENDBRANCH  17  19
DOCKED: ENDBRANCH   1  17
DOCKED: TORSDOF 8
DOCKED: TER
DOCKED: ENDMDL
________________________________________________________________________________


    FINAL DOCKED STATE:
    ________________________


Run:   20 / 20
Time taken for this run:   0.061s

DOCKED: MODEL        20
DOCKED: USER    Run = 20
DOCKED: USER
DOCKED: USER    Estimated Free Energy of Binding    =  -6.38 kcal/mol  [=(1)+(2)+(3)-(4)]
DOCKED: USER
DOCKED: USER    (1) Final Intermolecular Energy     =  -8.76 kcal/mol
DOCKED: USER        vdW + Hbond + desolv Energy     =  -8.95 kcal/mol
DOCKED: USER        Electrostatic Energy            =  +0.19 kcal/mol
DOCKED: USER        Moving Ligand-Fixed Receptor    =  -8.76 kcal/mol
DOCKED: USER        Moving Ligand-Moving Receptor   =  +0.00 kcal/mol
DOCKED: USER    (2) Final Total Internal Energy     =  -1.77 kcal/mol
DOCKED: USER    (3) Torsional Free Energy           =  +2.39 kcal/mol
DOCKED: USER    (4) Unbound System's Energy         =  -1.77 kcal/mol
DOCKED: USER
DOCKED: USER
DOCKED: REMARK SMILES C[C@H]([N-]C(=O)C/N=C(/O)c1ccc2cc(Cl)ccc2n1)c1ccccc1
DOCKED: REMARK SMILES IDX 6 1 7 2 8 3 9 4 10 6 20 7 11 8 19 9 12 10 18 11 13 12 17 13
DOCKED: REMARK SMILES IDX 14 14 15 15 16 16 4 17 5 18 3 19 2 20 1 21 21 22 22 23 26 24
DOCKED: REMARK SMILES IDX 23 25 25 26 24 27
DOCKED: REMARK H PARENT 9 5
DOCKED: USER                              x       y       z     vdW  Elec       q    Type
DOCKED: USER                           _______ _______ _______ _____ _____    ______ ____
DOCKED: ROOT
DOCKED: ATOM      1  C   UNL     1     139.084  73.131 219.742 -0.03 -0.04    +0.201 C  
DOCKED: ENDROOT
DOCKED: BRANCH   1   2
DOCKED: ATOM      2  N   UNL     1     138.937  72.430 221.018 -0.06 +0.05    -0.244 NA 
DOCKED: BRANCH   2   3
DOCKED: ATOM      3  C   UNL     1     139.622  72.641 222.107 -0.19 -0.04    +0.233 C  
DOCKED: BRANCH   3   4
DOCKED: ATOM      4  O   UNL     1     140.268  73.863 222.273 -0.73 -0.00    -0.492 OA 
DOCKED: ATOM      5  H   UNL     1     140.822  74.267 221.527 +0.10 -0.04    +0.295 HD 
DOCKED: ENDBRANCH   3   4
DOCKED: BRANCH   3   6
DOCKED: ATOM      6  C   UNL     1     139.788  71.623 223.159 -0.29 -0.02    +0.125 A  
DOCKED: ATOM      7  N   UNL     1     140.275  72.000 224.372 -0.19 +0.04    -0.243 NA 
DOCKED: ATOM      8  C   UNL     1     139.381  70.296 222.956 -0.23 -0.01    +0.035 A  
DOCKED: ATOM      9  C   UNL     1     140.427  71.115 225.395 -0.51 -0.01    +0.071 A  
DOCKED: ATOM     10  C   UNL     1     139.536  69.362 223.981 -0.26 -0.00    +0.013 A  
DOCKED: ATOM     11  C   UNL     1     140.949  71.540 226.622 -0.69 -0.00    +0.030 A  
DOCKED: ATOM     12  C   UNL     1     140.065  69.761 225.213 -0.43 -0.00    +0.002 A  
DOCKED: ATOM     13  C   UNL     1     141.109  70.626 227.668 -0.60 -0.00    +0.023 A  
DOCKED: ATOM     14  C   UNL     1     140.231  68.849 226.266 -0.53 -0.01    +0.030 A  
DOCKED: ATOM     15  C   UNL     1     140.752  69.283 227.492 -0.58 -0.01    +0.041 A  
DOCKED: ATOM     16  Cl  UNL     1     140.960  68.143 228.809 -0.62 +0.02    -0.084 Cl 
DOCKED: ENDBRANCH   3   6
DOCKED: ENDBRANCH   2   3
DOCKED: ENDBRANCH   1   2
DOCKED: BRANCH   1  17
DOCKED: ATOM     17  C   UNL     1     140.526  73.289 219.384 -0.06 -0.02    +0.074 C  
DOCKED: ATOM     18  O   UNL     1     141.068  72.469 218.594 -0.00 +0.06    -0.318 OA 
DOCKED: BRANCH  17  19
DOCKED: ATOM     19  N   UNL     1     141.292  74.352 219.963 +0.05 +0.16    -0.646 NA 
DOCKED: BRANCH  19  20
DOCKED: ATOM     20  C   UNL     1     142.521  74.879 219.373 -0.22 +0.03    -0.079 C  
DOCKED: ATOM     21  C   UNL     1     142.662  76.358 219.734 -0.36 +0.00    -0.008 C  
DOCKED: BRANCH  20  22
DOCKED: ATOM     22  C   UNL     1     143.728  74.100 219.856 -0.33 +0.02    -0.063 A  
DOCKED: ATOM     23  C   UNL     1     143.779  72.699 219.739 -0.27 -0.00    +0.002 A  
DOCKED: ATOM     24  C   UNL     1     144.798  74.774 220.473 -0.41 -0.00    +0.002 A  
DOCKED: ATOM     25  C   UNL     1     144.893  71.991 220.201 -0.33 -0.00    +0.000 A  
DOCKED: ATOM     26  C   UNL     1     145.906  74.059 220.942 -0.64 -0.00    +0.000 A  
DOCKED: ATOM     27  C   UNL     1     145.956  72.670 220.802 -0.54 -0.00    +0.000 A  
DOCKED: ENDBRANCH  20  22
DOCKED: ENDBRANCH  19  20
DOCKED: ENDBRANCH  17  19
DOCKED: ENDBRANCH   1  17
DOCKED: TORSDOF 8
DOCKED: TER
DOCKED: ENDMDL
________________________________________________________________________________


    CLUSTERING HISTOGRAM
    ____________________


________________________________________________________________________________
     |           |     |           |     |
Clus | Lowest    | Run | Mean      | Num | Histogram
-ter | Binding   |     | Binding   | in  |
Rank | Energy    |     | Energy    | Clus|    5    10   15   20   25   30   35
_____|___________|_____|___________|_____|____:____|____:____|____:____|____:___
   1 |     -7.62 |  12 |     -7.22 |   9 |#########
   2 |     -7.52 |  14 |     -7.52 |   1 |#
   3 |     -7.44 |   4 |     -7.03 |   3 |###
   4 |     -7.35 |  13 |     -7.10 |   3 |###
   5 |     -7.17 |   1 |     -7.17 |   1 |#
   6 |     -6.78 |   7 |     -6.78 |   1 |#
   7 |     -6.43 |  10 |     -6.40 |   2 |##
_____|___________|_____|___________|_____|______________________________________


    RMSD TABLE
    __________


_______________________________________________________________________
     |      |      |           |         |                 |
Rank | Sub- | Run  | Binding   | Cluster | Reference       | Grep
     | Rank |      | Energy    | RMSD    | RMSD            | Pattern
_____|______|______|___________|_________|_________________|___________
   1      1     12       -7.62      0.00    270.18           RANKING
   1      2     16       -7.53      1.08    270.25           RANKING
   1      3      6       -7.43      1.31    270.22           RANKING
   1      4     18       -7.39      1.19    270.35           RANKING
   1      5     11       -7.29      1.23    270.16           RANKING
   1      6      2       -7.12      1.25    269.98           RANKING
   1      7     19       -7.09      1.43    270.25           RANKING
   1      8      5       -7.02      1.16    269.99           RANKING
   1      9     17       -6.52      0.96    269.83           RANKING
   2      1     14       -7.52      0.00    269.60           RANKING
   3      1      4       -7.44      0.00    269.69           RANKING
   3      2      8       -7.09      1.43    269.65           RANKING
   3      3     15       -6.55      1.03    269.42           RANKING
   4      1     13       -7.35      0.00    269.70           RANKING
   4      2      9       -7.21      1.67    270.02           RANKING
   4      3      3       -6.76      1.03    269.76           RANKING
   5      1      1       -7.17      0.00    269.59           RANKING
   6      1      7       -6.78      0.00    268.96           RANKING
   7      1     10       -6.43      0.00    269.32           RANKING
   7      2     20       -6.38      1.33    269.35           RANKING

Run time 1.180 sec
Idle time 0.000 sec
