AutoDock-GPU version: v1.6

**********************************************************
**    AutoDock-GPU AUTODOCKTOOLS-COMPATIBLE DLG FILE    **
**********************************************************


    DOCKING PARAMETERS
    ________________________


Ligand file:                               /home/a/REINVENT4/ReinventStudies/pleaseWork/justmol2mol_4_Compounds_ontop/graph-dock-8u2o5u/graph-DockGPU/node-autodockgpu/inputs/BWMAAEGAJJXAME-AUPXWTMNNA-M.pdbqt
Grid fld file:                             /home/a/REINVENT4/ReinventStudies/mols/Rad51/maps/rad51_receptor.maps.fld

Random seed:                               42
Number of runs:                            20
Number of energy evaluations:              1613968
Number of generations:                     42000
Size of population:                        150
Rate of crossover:                         80.000000%
Tournament selection probability limit:    60.000000%
Rate of mutation:                          2.000000%
Maximal allowed delta movement:            +/- 6.000000A
Maximal allowed delta angle:               +/- 90.000000

Rate of local search:                      100.000000%
Maximal number of local search iterations: 300
Rho lower bound:                           0.010000
Spread of local search delta movement:     2.000000A
Spread of local search delta angle:        74.999999
Limit of consecutive successes/failures:   4

Handle symmetry during clustering:         YES
RMSD tolerance:                            2.000000A

Program call in command line was:          /home/a/REINVENT4/ReinventStudies/adgpu-v1.6_linux_x64_cuda12_128wi --filelist batch.txt --heuristics 1 --nrun 20 --psize 150 --lsit 300 --seed 42 --heurmax 12000000 


    GRID PARAMETERS
    ________________________


Receptor name:                             rad51_receptor
Number of grid points (x, y, z):           53, 53, 53
Grid center (x, y, z):                     139.950000, 75.640000, 221.970000A
Grid size (x, y, z):                       19.500000, 19.500000, 19.500000A
Grid spacing:                              0.375000A


    LIGAND PARAMETERS
    ________________________


Ligand name:                               /home/a/REINVENT4/ReinventStudies/pleaseWork/justmol2mol_4_Compounds_ontop/graph-dock-8u2o5u/graph-DockGPU/node-autodockgpu/inputs/BWMAAEGAJJXAME-AUPXWTMNNA-M
Number of atoms:                           27
Number of rotatable bonds:                 8
Number of atom types:                      6


    DUMMY DATA (only for ADT-compatibility)
    ________________________


DPF> outlev 1
DPF> ga_run 20
DPF> fld /home/a/REINVENT4/ReinventStudies/mols/Rad51/maps/rad51_receptor.maps.fld
DPF> move /home/a/REINVENT4/ReinventStudies/pleaseWork/justmol2mol_4_Compounds_ontop/graph-dock-8u2o5u/graph-DockGPU/node-autodockgpu/inputs/BWMAAEGAJJXAME-AUPXWTMNNA-M.pdbqt


    COUNTER STATES
    ________________________


Number of energy evaluations performed:    1092930
Number of generations used:                55


    INPUT LIGAND PDBQT FILE:
    ________________________


INPUT-LIGAND-PDBQT: REMARK SMILES C[C@H]([N-]C(=O)C/N=C(\O)c1ccc2cc(Cl)ccc2n1)c1ccccc1
INPUT-LIGAND-PDBQT: REMARK SMILES IDX 6 1 7 2 8 3 9 4 10 6 20 7 11 8 19 9 12 10 18 11 13 12 17 13
INPUT-LIGAND-PDBQT: REMARK SMILES IDX 14 14 15 15 16 16 4 17 5 18 3 19 2 20 1 21 21 22 22 23 26 24
INPUT-LIGAND-PDBQT: REMARK SMILES IDX 23 25 25 26 24 27
INPUT-LIGAND-PDBQT: REMARK H PARENT 9 5
INPUT-LIGAND-PDBQT: ROOT
INPUT-LIGAND-PDBQT: ATOM      1  C   UNL     1      -2.556  -1.625   1.575  1.00  0.00     0.201 C 
INPUT-LIGAND-PDBQT: ENDROOT
INPUT-LIGAND-PDBQT: BRANCH   1   2
INPUT-LIGAND-PDBQT: ATOM      2  N   UNL     1      -1.097  -1.573   1.639  1.00  0.00    -0.244 NA
INPUT-LIGAND-PDBQT: BRANCH   2   3
INPUT-LIGAND-PDBQT: ATOM      3  C   UNL     1      -0.348  -0.524   1.439  1.00  0.00     0.233 C 
INPUT-LIGAND-PDBQT: BRANCH   3   4
INPUT-LIGAND-PDBQT: ATOM      4  O   UNL     1      -0.894   0.744   1.217  1.00  0.00    -0.492 OA
INPUT-LIGAND-PDBQT: ATOM      5  H   UNL     1      -1.885   0.941   1.228  1.00  0.00     0.295 HD
INPUT-LIGAND-PDBQT: ENDBRANCH   3   4
INPUT-LIGAND-PDBQT: BRANCH   3   6
INPUT-LIGAND-PDBQT: ATOM      6  C   UNL     1       1.120  -0.661   1.423  1.00  0.00     0.125 A 
INPUT-LIGAND-PDBQT: ATOM      7  N   UNL     1       1.881   0.446   1.198  1.00  0.00    -0.243 NA
INPUT-LIGAND-PDBQT: ATOM      8  C   UNL     1       1.748  -1.908   1.587  1.00  0.00     0.035 A 
INPUT-LIGAND-PDBQT: ATOM      9  C   UNL     1       3.237   0.391   1.129  1.00  0.00     0.071 A 
INPUT-LIGAND-PDBQT: ATOM     10  C   UNL     1       3.140  -1.996   1.520  1.00  0.00     0.013 A 
INPUT-LIGAND-PDBQT: ATOM     11  C   UNL     1       3.977   1.555   0.892  1.00  0.00     0.030 A 
INPUT-LIGAND-PDBQT: ATOM     12  C   UNL     1       3.901  -0.845   1.288  1.00  0.00     0.002 A 
INPUT-LIGAND-PDBQT: ATOM     13  C   UNL     1       5.371   1.494   0.812  1.00  0.00     0.023 A 
INPUT-LIGAND-PDBQT: ATOM     14  C   UNL     1       5.301  -0.899   1.207  1.00  0.00     0.030 A 
INPUT-LIGAND-PDBQT: ATOM     15  C   UNL     1       6.033   0.270   0.969  1.00  0.00     0.041 A 
INPUT-LIGAND-PDBQT: ATOM     16  Cl  UNL     1       7.782   0.201   0.863  1.00  0.00    -0.084 Cl
INPUT-LIGAND-PDBQT: ENDBRANCH   3   6
INPUT-LIGAND-PDBQT: ENDBRANCH   2   3
INPUT-LIGAND-PDBQT: ENDBRANCH   1   2
INPUT-LIGAND-PDBQT: BRANCH   1  17
INPUT-LIGAND-PDBQT: ATOM     17  C   UNL     1      -2.986  -1.712   0.145  1.00  0.00     0.074 C 
INPUT-LIGAND-PDBQT: ATOM     18  O   UNL     1      -3.160  -2.843  -0.386  1.00  0.00    -0.318 OA
INPUT-LIGAND-PDBQT: BRANCH  17  19
INPUT-LIGAND-PDBQT: ATOM     19  N   UNL     1      -3.096  -0.521  -0.641  1.00  0.00    -0.646 NA
INPUT-LIGAND-PDBQT: BRANCH  19  20
INPUT-LIGAND-PDBQT: ATOM     20  C   UNL     1      -3.103  -0.530  -2.101  1.00  0.00    -0.079 C 
INPUT-LIGAND-PDBQT: ATOM     21  C   UNL     1      -3.473   0.859  -2.618  1.00  0.00    -0.008 C 
INPUT-LIGAND-PDBQT: BRANCH  20  22
INPUT-LIGAND-PDBQT: ATOM     22  C   UNL     1      -1.744  -0.949  -2.622  1.00  0.00    -0.063 A 
INPUT-LIGAND-PDBQT: ATOM     23  C   UNL     1      -1.635  -1.990  -3.561  1.00  0.00     0.002 A 
INPUT-LIGAND-PDBQT: ATOM     24  C   UNL     1      -0.573  -0.314  -2.167  1.00  0.00     0.002 A 
INPUT-LIGAND-PDBQT: ATOM     25  C   UNL     1      -0.378  -2.395  -4.021  1.00  0.00     0.000 A 
INPUT-LIGAND-PDBQT: ATOM     26  C   UNL     1       0.680  -0.726  -2.626  1.00  0.00     0.000 A 
INPUT-LIGAND-PDBQT: ATOM     27  C   UNL     1       0.778  -1.768  -3.552  1.00  0.00     0.000 A 
INPUT-LIGAND-PDBQT: ENDBRANCH  20  22
INPUT-LIGAND-PDBQT: ENDBRANCH  19  20
INPUT-LIGAND-PDBQT: ENDBRANCH  17  19
INPUT-LIGAND-PDBQT: ENDBRANCH   1  17
INPUT-LIGAND-PDBQT: TORSDOF 8


    FINAL DOCKED STATE:
    ________________________


Run:   1 / 20
Time taken for this run:   0.043s

DOCKED: MODEL        1
DOCKED: USER    Run = 1
DOCKED: USER
DOCKED: USER    Estimated Free Energy of Binding    =  -6.35 kcal/mol  [=(1)+(2)+(3)-(4)]
DOCKED: USER
DOCKED: USER    (1) Final Intermolecular Energy     =  -8.74 kcal/mol
DOCKED: USER        vdW + Hbond + desolv Energy     =  -8.80 kcal/mol
DOCKED: USER        Electrostatic Energy            =  +0.07 kcal/mol
DOCKED: USER        Moving Ligand-Fixed Receptor    =  -8.74 kcal/mol
DOCKED: USER        Moving Ligand-Moving Receptor   =  +0.00 kcal/mol
DOCKED: USER    (2) Final Total Internal Energy     =  -1.90 kcal/mol
DOCKED: USER    (3) Torsional Free Energy           =  +2.39 kcal/mol
DOCKED: USER    (4) Unbound System's Energy         =  -1.90 kcal/mol
DOCKED: USER
DOCKED: USER
DOCKED: REMARK SMILES C[C@H]([N-]C(=O)C/N=C(\O)c1ccc2cc(Cl)ccc2n1)c1ccccc1
DOCKED: REMARK SMILES IDX 6 1 7 2 8 3 9 4 10 6 20 7 11 8 19 9 12 10 18 11 13 12 17 13
DOCKED: REMARK SMILES IDX 14 14 15 15 16 16 4 17 5 18 3 19 2 20 1 21 21 22 22 23 26 24
DOCKED: REMARK SMILES IDX 23 25 25 26 24 27
DOCKED: REMARK H PARENT 9 5
DOCKED: USER                              x       y       z     vdW  Elec       q    Type
DOCKED: USER                           _______ _______ _______ _____ _____    ______ ____
DOCKED: ROOT
DOCKED: ATOM      1  C   UNL     1     138.002  69.203 222.361 -0.12 -0.03    +0.201 C  
DOCKED: ENDROOT
DOCKED: BRANCH   1   2
DOCKED: ATOM      2  N   UNL     1     138.150  70.589 221.922 -0.05 +0.05    -0.244 NA 
DOCKED: BRANCH   2   3
DOCKED: ATOM      3  C   UNL     1     139.023  71.453 222.362 -0.15 -0.05    +0.233 C  
DOCKED: BRANCH   3   4
DOCKED: ATOM      4  O   UNL     1     140.252  71.057 222.897 -0.10 +0.07    -0.492 OA 
DOCKED: ATOM      5  H   UNL     1     140.379  70.231 223.466 +0.13 -0.04    +0.295 HD 
DOCKED: ENDBRANCH   3   4
DOCKED: BRANCH   3   6
DOCKED: ATOM      6  C   UNL     1     138.715  72.894 222.320 -0.11 -0.04    +0.125 A  
DOCKED: ATOM      7  N   UNL     1     139.745  73.786 222.315 -0.75 +0.03    -0.243 NA 
DOCKED: ATOM      8  C   UNL     1     137.392  73.369 222.332 -0.09 -0.01    +0.035 A  
DOCKED: ATOM      9  C   UNL     1     139.539  75.129 222.318 -0.20 -0.01    +0.071 A  
DOCKED: ATOM     10  C   UNL     1     137.149  74.744 222.336 -0.17 -0.00    +0.013 A  
DOCKED: ATOM     11  C   UNL     1     140.629  76.008 222.317 -0.31 -0.01    +0.030 A  
DOCKED: ATOM     12  C   UNL     1     138.223  75.641 222.331 -0.28 -0.00    +0.002 A  
DOCKED: ATOM     13  C   UNL     1     140.415  77.389 222.330 -0.40 -0.01    +0.023 A  
DOCKED: ATOM     14  C   UNL     1     138.015  77.029 222.344 -0.26 -0.01    +0.030 A  
DOCKED: ATOM     15  C   UNL     1     139.111  77.900 222.343 -0.28 -0.01    +0.041 A  
DOCKED: ATOM     16  Cl  UNL     1     138.851  79.634 222.363 -0.30 +0.02    -0.084 Cl 
DOCKED: ENDBRANCH   3   6
DOCKED: ENDBRANCH   2   3
DOCKED: ENDBRANCH   1   2
DOCKED: BRANCH   1  17
DOCKED: ATOM     17  C   UNL     1     137.999  69.154 223.856 -0.26 -0.01    +0.074 C  
DOCKED: ATOM     18  O   UNL     1     136.973  69.526 224.489 -0.14 +0.03    -0.318 OA 
DOCKED: BRANCH  17  19
DOCKED: ATOM     19  N   UNL     1     139.189  68.788 224.560 -0.02 +0.09    -0.646 NA 
DOCKED: BRANCH  19  20
DOCKED: ATOM     20  C   UNL     1     139.268  68.743 226.018 -0.46 +0.01    -0.079 C  
DOCKED: ATOM     21  C   UNL     1     140.029  67.491 226.449 -0.66 +0.00    -0.008 C  
DOCKED: BRANCH  20  22
DOCKED: ATOM     22  C   UNL     1     139.954  69.990 226.536 -0.48 +0.01    -0.063 A  
DOCKED: ATOM     23  C   UNL     1     140.764  70.761 225.683 -0.58 -0.00    +0.002 A  
DOCKED: ATOM     24  C   UNL     1     139.803  70.388 227.878 -0.59 -0.00    +0.002 A  
DOCKED: ATOM     25  C   UNL     1     141.419  71.896 226.170 -0.62 -0.00    +0.000 A  
DOCKED: ATOM     26  C   UNL     1     140.464  71.520 228.360 -0.73 -0.00    +0.000 A  
DOCKED: ATOM     27  C   UNL     1     141.274  72.274 227.506 -0.83 -0.00    +0.000 A  
DOCKED: ENDBRANCH  20  22
DOCKED: ENDBRANCH  19  20
DOCKED: ENDBRANCH  17  19
DOCKED: ENDBRANCH   1  17
DOCKED: TORSDOF 8
DOCKED: TER
DOCKED: ENDMDL
________________________________________________________________________________


    FINAL DOCKED STATE:
    ________________________


Run:   2 / 20
Time taken for this run:   0.043s

DOCKED: MODEL        2
DOCKED: USER    Run = 2
DOCKED: USER
DOCKED: USER    Estimated Free Energy of Binding    =  -7.42 kcal/mol  [=(1)+(2)+(3)-(4)]
DOCKED: USER
DOCKED: USER    (1) Final Intermolecular Energy     =  -9.80 kcal/mol
DOCKED: USER        vdW + Hbond + desolv Energy     =  -9.93 kcal/mol
DOCKED: USER        Electrostatic Energy            =  +0.12 kcal/mol
DOCKED: USER        Moving Ligand-Fixed Receptor    =  -9.80 kcal/mol
DOCKED: USER        Moving Ligand-Moving Receptor   =  +0.00 kcal/mol
DOCKED: USER    (2) Final Total Internal Energy     =  -1.38 kcal/mol
DOCKED: USER    (3) Torsional Free Energy           =  +2.39 kcal/mol
DOCKED: USER    (4) Unbound System's Energy         =  -1.38 kcal/mol
DOCKED: USER
DOCKED: USER
DOCKED: REMARK SMILES C[C@H]([N-]C(=O)C/N=C(\O)c1ccc2cc(Cl)ccc2n1)c1ccccc1
DOCKED: REMARK SMILES IDX 6 1 7 2 8 3 9 4 10 6 20 7 11 8 19 9 12 10 18 11 13 12 17 13
DOCKED: REMARK SMILES IDX 14 14 15 15 16 16 4 17 5 18 3 19 2 20 1 21 21 22 22 23 26 24
DOCKED: REMARK SMILES IDX 23 25 25 26 24 27
DOCKED: REMARK H PARENT 9 5
DOCKED: USER                              x       y       z     vdW  Elec       q    Type
DOCKED: USER                           _______ _______ _______ _____ _____    ______ ____
DOCKED: ROOT
DOCKED: ATOM      1  C   UNL     1     140.329  71.970 221.907 -0.20 -0.03    +0.201 C  
DOCKED: ENDROOT
DOCKED: BRANCH   1   2
DOCKED: ATOM      2  N   UNL     1     140.475  73.362 222.327 -0.70 +0.00    -0.244 NA 
DOCKED: BRANCH   2   3
DOCKED: ATOM      3  C   UNL     1     139.653  74.342 222.068 -0.06 -0.03    +0.233 C  
DOCKED: BRANCH   3   4
DOCKED: ATOM      4  O   UNL     1     138.273  74.143 221.968 -0.10 +0.15    -0.492 OA 
DOCKED: ATOM      5  H   UNL     1     137.699  73.785 222.718 -0.46 -0.15    +0.295 HD 
DOCKED: ENDBRANCH   3   4
DOCKED: BRANCH   3   6
DOCKED: ATOM      6  C   UNL     1     140.177  75.703 221.851 -0.30 -0.03    +0.125 A  
DOCKED: ATOM      7  N   UNL     1     139.727  76.715 222.644 -0.21 +0.05    -0.243 NA 
DOCKED: ATOM      8  C   UNL     1     141.090  75.988 220.820 -0.28 -0.01    +0.035 A  
DOCKED: ATOM      9  C   UNL     1     140.133  78.001 222.477 -0.34 -0.02    +0.071 A  
DOCKED: ATOM     10  C   UNL     1     141.524  77.301 220.624 -0.29 -0.01    +0.013 A  
DOCKED: ATOM     11  C   UNL     1     139.639  79.008 223.315 -0.37 -0.01    +0.030 A  
DOCKED: ATOM     12  C   UNL     1     141.048  78.324 221.452 -0.34 -0.00    +0.002 A  
DOCKED: ATOM     13  C   UNL     1     140.051  80.331 223.135 -0.40 -0.00    +0.023 A  
DOCKED: ATOM     14  C   UNL     1     141.457  79.655 221.277 -0.35 -0.01    +0.030 A  
DOCKED: ATOM     15  C   UNL     1     140.958  80.655 222.119 -0.36 -0.01    +0.041 A  
DOCKED: ATOM     16  Cl  UNL     1     141.467  82.319 221.897 -0.38 +0.01    -0.084 Cl 
DOCKED: ENDBRANCH   3   6
DOCKED: ENDBRANCH   2   3
DOCKED: ENDBRANCH   1   2
DOCKED: BRANCH   1  17
DOCKED: ATOM     17  C   UNL     1     139.358  71.280 222.811 -0.26 -0.01    +0.074 C  
DOCKED: ATOM     18  O   UNL     1     138.215  71.780 222.996 -0.13 +0.09    -0.318 OA 
DOCKED: BRANCH  17  19
DOCKED: ATOM     19  N   UNL     1     139.764  70.117 223.540 +0.07 +0.11    -0.646 NA 
DOCKED: BRANCH  19  20
DOCKED: ATOM     20  C   UNL     1     139.179  69.740 224.824 -0.35 +0.01    -0.079 C  
DOCKED: ATOM     21  C   UNL     1     139.263  68.224 224.996 -0.42 +0.00    -0.008 C  
DOCKED: BRANCH  20  22
DOCKED: ATOM     22  C   UNL     1     139.904  70.446 225.950 -0.46 +0.01    -0.063 A  
DOCKED: ATOM     23  C   UNL     1     139.737  70.018 227.279 -0.54 -0.00    +0.002 A  
DOCKED: ATOM     24  C   UNL     1     140.743  71.545 225.687 -0.60 -0.00    +0.002 A  
DOCKED: ATOM     25  C   UNL     1     140.385  70.688 228.322 -0.62 -0.00    +0.000 A  
DOCKED: ATOM     26  C   UNL     1     141.384  72.214 226.732 -0.69 -0.00    +0.000 A  
DOCKED: ATOM     27  C   UNL     1     141.204  71.786 228.051 -0.79 -0.00    +0.000 A  
DOCKED: ENDBRANCH  20  22
DOCKED: ENDBRANCH  19  20
DOCKED: ENDBRANCH  17  19
DOCKED: ENDBRANCH   1  17
DOCKED: TORSDOF 8
DOCKED: TER
DOCKED: ENDMDL
________________________________________________________________________________


    FINAL DOCKED STATE:
    ________________________


Run:   3 / 20
Time taken for this run:   0.043s

DOCKED: MODEL        3
DOCKED: USER    Run = 3
DOCKED: USER
DOCKED: USER    Estimated Free Energy of Binding    =  -7.55 kcal/mol  [=(1)+(2)+(3)-(4)]
DOCKED: USER
DOCKED: USER    (1) Final Intermolecular Energy     =  -9.94 kcal/mol
DOCKED: USER        vdW + Hbond + desolv Energy     = -10.23 kcal/mol
DOCKED: USER        Electrostatic Energy            =  +0.30 kcal/mol
DOCKED: USER        Moving Ligand-Fixed Receptor    =  -9.94 kcal/mol
DOCKED: USER        Moving Ligand-Moving Receptor   =  +0.00 kcal/mol
DOCKED: USER    (2) Final Total Internal Energy     =  -0.62 kcal/mol
DOCKED: USER    (3) Torsional Free Energy           =  +2.39 kcal/mol
DOCKED: USER    (4) Unbound System's Energy         =  -0.62 kcal/mol
DOCKED: USER
DOCKED: USER
DOCKED: REMARK SMILES C[C@H]([N-]C(=O)C/N=C(\O)c1ccc2cc(Cl)ccc2n1)c1ccccc1
DOCKED: REMARK SMILES IDX 6 1 7 2 8 3 9 4 10 6 20 7 11 8 19 9 12 10 18 11 13 12 17 13
DOCKED: REMARK SMILES IDX 14 14 15 15 16 16 4 17 5 18 3 19 2 20 1 21 21 22 22 23 26 24
DOCKED: REMARK SMILES IDX 23 25 25 26 24 27
DOCKED: REMARK H PARENT 9 5
DOCKED: USER                              x       y       z     vdW  Elec       q    Type
DOCKED: USER                           _______ _______ _______ _____ _____    ______ ____
DOCKED: ROOT
DOCKED: ATOM      1  C   UNL     1     140.429  74.778 221.016 -0.20 -0.04    +0.201 C  
DOCKED: ENDROOT
DOCKED: BRANCH   1   2
DOCKED: ATOM      2  N   UNL     1     140.275  73.734 222.026 -0.77 +0.01    -0.244 NA 
DOCKED: BRANCH   2   3
DOCKED: ATOM      3  C   UNL     1     139.833  72.523 221.830 -0.19 -0.04    +0.233 C  
DOCKED: BRANCH   3   4
DOCKED: ATOM      4  O   UNL     1     139.333  72.109 220.592 -0.00 +0.09    -0.492 OA 
DOCKED: ATOM      5  H   UNL     1     139.745  72.361 219.704 +0.04 -0.05    +0.295 HD 
DOCKED: ENDBRANCH   3   4
DOCKED: BRANCH   3   6
DOCKED: ATOM      6  C   UNL     1     139.835  71.551 222.939 -0.28 -0.02    +0.125 A  
DOCKED: ATOM      7  N   UNL     1     140.367  71.921 224.137 -0.27 +0.04    -0.243 NA 
DOCKED: ATOM      8  C   UNL     1     139.345  70.243 222.777 -0.21 -0.01    +0.035 A  
DOCKED: ATOM      9  C   UNL     1     140.440  71.068 225.192 -0.49 -0.01    +0.071 A  
DOCKED: ATOM     10  C   UNL     1     139.407  69.343 223.843 -0.26 -0.00    +0.013 A  
DOCKED: ATOM     11  C   UNL     1     140.999  71.493 226.402 -0.67 -0.00    +0.030 A  
DOCKED: ATOM     12  C   UNL     1     139.959  69.747 225.064 -0.41 -0.00    +0.002 A  
DOCKED: ATOM     13  C   UNL     1     141.082  70.610 227.483 -0.61 -0.00    +0.023 A  
DOCKED: ATOM     14  C   UNL     1     140.044  68.866 226.153 -0.52 -0.01    +0.030 A  
DOCKED: ATOM     15  C   UNL     1     140.606  69.299 227.360 -0.58 -0.01    +0.041 A  
DOCKED: ATOM     16  Cl  UNL     1     140.717  68.196 228.719 -0.64 +0.02    -0.084 Cl 
DOCKED: ENDBRANCH   3   6
DOCKED: ENDBRANCH   2   3
DOCKED: ENDBRANCH   1   2
DOCKED: BRANCH   1  17
DOCKED: ATOM     17  C   UNL     1     140.053  76.100 221.608 -0.30 -0.02    +0.074 C  
DOCKED: ATOM     18  O   UNL     1     139.436  76.138 222.707 -0.32 +0.05    -0.318 OA 
DOCKED: BRANCH  17  19
DOCKED: ATOM     19  N   UNL     1     140.302  77.305 220.877 +0.05 +0.22    -0.646 NA 
DOCKED: BRANCH  19  20
DOCKED: ATOM     20  C   UNL     1     141.628  77.906 220.762 -0.29 +0.05    -0.079 C  
DOCKED: ATOM     21  C   UNL     1     141.793  78.514 219.371 -0.28 +0.00    -0.008 C  
DOCKED: BRANCH  20  22
DOCKED: ATOM     22  C   UNL     1     141.811  78.963 221.832 -0.41 +0.03    -0.063 A  
DOCKED: ATOM     23  C   UNL     1     141.987  80.311 221.473 -0.43 -0.00    +0.002 A  
DOCKED: ATOM     24  C   UNL     1     141.821  78.611 223.195 -0.57 -0.00    +0.002 A  
DOCKED: ATOM     25  C   UNL     1     142.184  81.282 222.460 -0.49 -0.00    +0.000 A  
DOCKED: ATOM     26  C   UNL     1     142.023  79.585 224.175 -0.50 -0.00    +0.000 A  
DOCKED: ATOM     27  C   UNL     1     142.207  80.921 223.808 -0.65 -0.00    +0.000 A  
DOCKED: ENDBRANCH  20  22
DOCKED: ENDBRANCH  19  20
DOCKED: ENDBRANCH  17  19
DOCKED: ENDBRANCH   1  17
DOCKED: TORSDOF 8
DOCKED: TER
DOCKED: ENDMDL
________________________________________________________________________________


    FINAL DOCKED STATE:
    ________________________


Run:   4 / 20
Time taken for this run:   0.043s

DOCKED: MODEL        4
DOCKED: USER    Run = 4
DOCKED: USER
DOCKED: USER    Estimated Free Energy of Binding    =  -6.84 kcal/mol  [=(1)+(2)+(3)-(4)]
DOCKED: USER
DOCKED: USER    (1) Final Intermolecular Energy     =  -9.22 kcal/mol
DOCKED: USER        vdW + Hbond + desolv Energy     =  -9.33 kcal/mol
DOCKED: USER        Electrostatic Energy            =  +0.10 kcal/mol
DOCKED: USER        Moving Ligand-Fixed Receptor    =  -9.22 kcal/mol
DOCKED: USER        Moving Ligand-Moving Receptor   =  +0.00 kcal/mol
DOCKED: USER    (2) Final Total Internal Energy     =  -1.59 kcal/mol
DOCKED: USER    (3) Torsional Free Energy           =  +2.39 kcal/mol
DOCKED: USER    (4) Unbound System's Energy         =  -1.59 kcal/mol
DOCKED: USER
DOCKED: USER
DOCKED: REMARK SMILES C[C@H]([N-]C(=O)C/N=C(\O)c1ccc2cc(Cl)ccc2n1)c1ccccc1
DOCKED: REMARK SMILES IDX 6 1 7 2 8 3 9 4 10 6 20 7 11 8 19 9 12 10 18 11 13 12 17 13
DOCKED: REMARK SMILES IDX 14 14 15 15 16 16 4 17 5 18 3 19 2 20 1 21 21 22 22 23 26 24
DOCKED: REMARK SMILES IDX 23 25 25 26 24 27
DOCKED: REMARK H PARENT 9 5
DOCKED: USER                              x       y       z     vdW  Elec       q    Type
DOCKED: USER                           _______ _______ _______ _____ _____    ______ ____
DOCKED: ROOT
DOCKED: ATOM      1  C   UNL     1     136.242  69.318 224.949 -0.15 -0.01    +0.201 C  
DOCKED: ENDROOT
DOCKED: BRANCH   1   2
DOCKED: ATOM      2  N   UNL     1     135.751  70.306 223.991 -0.09 +0.03    -0.244 NA 
DOCKED: BRANCH   2   3
DOCKED: ATOM      3  C   UNL     1     135.861  71.602 224.088 -0.11 -0.04    +0.233 C  
DOCKED: BRANCH   3   4
DOCKED: ATOM      4  O   UNL     1     136.875  72.310 223.436 -0.05 +0.17    -0.492 OA 
DOCKED: ATOM      5  H   UNL     1     137.841  72.312 223.731 -0.36 -0.16    +0.295 HD 
DOCKED: ENDBRANCH   3   4
DOCKED: BRANCH   3   6
DOCKED: ATOM      6  C   UNL     1     134.909  72.360 224.921 -0.16 -0.01    +0.125 A  
DOCKED: ATOM      7  N   UNL     1     135.001  73.718 224.953 -0.19 +0.02    -0.243 NA 
DOCKED: ATOM      8  C   UNL     1     133.944  71.715 225.714 -0.27 -0.00    +0.035 A  
DOCKED: ATOM      9  C   UNL     1     134.185  74.481 225.727 -0.33 +0.00    +0.071 A  
DOCKED: ATOM     10  C   UNL     1     133.092  72.472 226.521 -0.37 -0.00    +0.013 A  
DOCKED: ATOM     11  C   UNL     1     134.320  75.874 225.731 -0.36 -0.00    +0.030 A  
DOCKED: ATOM     12  C   UNL     1     133.205  73.867 226.537 -0.35 +0.00    +0.002 A  
DOCKED: ATOM     13  C   UNL     1     133.486  76.656 226.535 -0.34 -0.00    +0.023 A  
DOCKED: ATOM     14  C   UNL     1     132.371  74.658 227.342 -0.40 -0.00    +0.030 A  
DOCKED: ATOM     15  C   UNL     1     132.513  76.050 227.340 -0.34 -0.00    +0.041 A  
DOCKED: ATOM     16  Cl  UNL     1     131.474  77.037 228.350 -0.38 -0.01    -0.084 Cl 
DOCKED: ENDBRANCH   3   6
DOCKED: ENDBRANCH   2   3
DOCKED: ENDBRANCH   1   2
DOCKED: BRANCH   1  17
DOCKED: ATOM     17  C   UNL     1     137.732  69.231 224.852 -0.29 -0.01    +0.074 C  
DOCKED: ATOM     18  O   UNL     1     138.329  68.219 225.311 -0.46 -0.01    -0.318 OA 
DOCKED: BRANCH  17  19
DOCKED: ATOM     19  N   UNL     1     138.479  70.337 224.335 +0.02 +0.11    -0.646 NA 
DOCKED: BRANCH  19  20
DOCKED: ATOM     20  C   UNL     1     139.939  70.377 224.328 -0.35 +0.01    -0.079 C  
DOCKED: ATOM     21  C   UNL     1     140.415  71.461 223.364 -0.35 +0.00    -0.008 C  
DOCKED: BRANCH  20  22
DOCKED: ATOM     22  C   UNL     1     140.456  70.641 225.727 -0.51 +0.01    -0.063 A  
DOCKED: ATOM     23  C   UNL     1     140.527  69.597 226.666 -0.55 -0.00    +0.002 A  
DOCKED: ATOM     24  C   UNL     1     140.859  71.934 226.111 -0.55 -0.00    +0.002 A  
DOCKED: ATOM     25  C   UNL     1     140.979  69.848 227.965 -0.61 -0.00    +0.000 A  
DOCKED: ATOM     26  C   UNL     1     141.304  72.180 227.412 -0.82 -0.00    +0.000 A  
DOCKED: ATOM     27  C   UNL     1     141.362  71.137 228.340 -0.59 -0.00    +0.000 A  
DOCKED: ENDBRANCH  20  22
DOCKED: ENDBRANCH  19  20
DOCKED: ENDBRANCH  17  19
DOCKED: ENDBRANCH   1  17
DOCKED: TORSDOF 8
DOCKED: TER
DOCKED: ENDMDL
________________________________________________________________________________


    FINAL DOCKED STATE:
    ________________________


Run:   5 / 20
Time taken for this run:   0.043s

DOCKED: MODEL        5
DOCKED: USER    Run = 5
DOCKED: USER
DOCKED: USER    Estimated Free Energy of Binding    =  -7.03 kcal/mol  [=(1)+(2)+(3)-(4)]
DOCKED: USER
DOCKED: USER    (1) Final Intermolecular Energy     =  -9.42 kcal/mol
DOCKED: USER        vdW + Hbond + desolv Energy     =  -9.52 kcal/mol
DOCKED: USER        Electrostatic Energy            =  +0.11 kcal/mol
DOCKED: USER        Moving Ligand-Fixed Receptor    =  -9.42 kcal/mol
DOCKED: USER        Moving Ligand-Moving Receptor   =  +0.00 kcal/mol
DOCKED: USER    (2) Final Total Internal Energy     =  -1.79 kcal/mol
DOCKED: USER    (3) Torsional Free Energy           =  +2.39 kcal/mol
DOCKED: USER    (4) Unbound System's Energy         =  -1.79 kcal/mol
DOCKED: USER
DOCKED: USER
DOCKED: REMARK SMILES C[C@H]([N-]C(=O)C/N=C(\O)c1ccc2cc(Cl)ccc2n1)c1ccccc1
DOCKED: REMARK SMILES IDX 6 1 7 2 8 3 9 4 10 6 20 7 11 8 19 9 12 10 18 11 13 12 17 13
DOCKED: REMARK SMILES IDX 14 14 15 15 16 16 4 17 5 18 3 19 2 20 1 21 21 22 22 23 26 24
DOCKED: REMARK SMILES IDX 23 25 25 26 24 27
DOCKED: REMARK H PARENT 9 5
DOCKED: USER                              x       y       z     vdW  Elec       q    Type
DOCKED: USER                           _______ _______ _______ _____ _____    ______ ____
DOCKED: ROOT
DOCKED: ATOM      1  C   UNL     1     138.013  69.144 223.135 -0.16 -0.03    +0.201 C  
DOCKED: ENDROOT
DOCKED: BRANCH   1   2
DOCKED: ATOM      2  N   UNL     1     139.095  69.995 222.644 -0.10 +0.04    -0.244 NA 
DOCKED: BRANCH   2   3
DOCKED: ATOM      3  C   UNL     1     139.397  71.190 223.070 -0.21 -0.05    +0.233 C  
DOCKED: BRANCH   3   4
DOCKED: ATOM      4  O   UNL     1     138.965  71.665 224.312 +0.04 +0.16    -0.492 OA 
DOCKED: ATOM      5  H   UNL     1     138.000  71.668 224.610 -0.12 -0.10    +0.295 HD 
DOCKED: ENDBRANCH   3   4
DOCKED: BRANCH   3   6
DOCKED: ATOM      6  C   UNL     1     140.200  72.091 222.222 -0.25 -0.02    +0.125 A  
DOCKED: ATOM      7  N   UNL     1     140.017  73.436 222.335 -0.76 +0.02    -0.243 NA 
DOCKED: ATOM      8  C   UNL     1     141.111  71.596 221.273 -0.19 -0.00    +0.035 A  
DOCKED: ATOM      9  C   UNL     1     140.690  74.326 221.560 -0.29 -0.01    +0.071 A  
DOCKED: ATOM     10  C   UNL     1     141.817  72.487 220.462 -0.19 -0.00    +0.013 A  
DOCKED: ATOM     11  C   UNL     1     140.466  75.699 221.710 -0.34 -0.01    +0.030 A  
DOCKED: ATOM     12  C   UNL     1     141.612  73.864 220.596 -0.25 -0.00    +0.002 A  
DOCKED: ATOM     13  C   UNL     1     141.153  76.612 220.905 -0.29 -0.01    +0.023 A  
DOCKED: ATOM     14  C   UNL     1     142.299  74.787 219.791 -0.24 -0.01    +0.030 A  
DOCKED: ATOM     15  C   UNL     1     142.068  76.158 219.947 -0.27 -0.02    +0.041 A  
DOCKED: ATOM     16  Cl  UNL     1     142.923  77.310 218.938 -0.35 +0.06    -0.084 Cl 
DOCKED: ENDBRANCH   3   6
DOCKED: ENDBRANCH   2   3
DOCKED: ENDBRANCH   1   2
DOCKED: BRANCH   1  17
DOCKED: ATOM     17  C   UNL     1     138.129  69.003 224.620 -0.30 -0.01    +0.074 C  
DOCKED: ATOM     18  O   UNL     1     137.403  69.710 225.372 -0.11 +0.02    -0.318 OA 
DOCKED: BRANCH  17  19
DOCKED: ATOM     19  N   UNL     1     139.132  68.150 225.180 -0.31 +0.04    -0.646 NA 
DOCKED: BRANCH  19  20
DOCKED: ATOM     20  C   UNL     1     139.607  68.277 226.555 -0.56 +0.01    -0.079 C  
DOCKED: ATOM     21  C   UNL     1     140.711  67.252 226.810 -0.42 +0.00    -0.008 C  
DOCKED: BRANCH  20  22
DOCKED: ATOM     22  C   UNL     1     140.118  69.682 226.797 -0.50 +0.01    -0.063 A  
DOCKED: ATOM     23  C   UNL     1     140.957  70.304 225.855 -0.55 -0.00    +0.002 A  
DOCKED: ATOM     24  C   UNL     1     139.772  70.380 227.969 -0.59 -0.00    +0.002 A  
DOCKED: ATOM     25  C   UNL     1     141.451  71.590 226.092 -0.64 -0.00    +0.000 A  
DOCKED: ATOM     26  C   UNL     1     140.272  71.663 228.203 -0.73 -0.00    +0.000 A  
DOCKED: ATOM     27  C   UNL     1     141.113  72.268 227.265 -0.82 -0.00    +0.000 A  
DOCKED: ENDBRANCH  20  22
DOCKED: ENDBRANCH  19  20
DOCKED: ENDBRANCH  17  19
DOCKED: ENDBRANCH   1  17
DOCKED: TORSDOF 8
DOCKED: TER
DOCKED: ENDMDL
________________________________________________________________________________


    FINAL DOCKED STATE:
    ________________________


Run:   6 / 20
Time taken for this run:   0.043s

DOCKED: MODEL        6
DOCKED: USER    Run = 6
DOCKED: USER
DOCKED: USER    Estimated Free Energy of Binding    =  -6.83 kcal/mol  [=(1)+(2)+(3)-(4)]
DOCKED: USER
DOCKED: USER    (1) Final Intermolecular Energy     =  -9.22 kcal/mol
DOCKED: USER        vdW + Hbond + desolv Energy     =  -9.24 kcal/mol
DOCKED: USER        Electrostatic Energy            =  +0.02 kcal/mol
DOCKED: USER        Moving Ligand-Fixed Receptor    =  -9.22 kcal/mol
DOCKED: USER        Moving Ligand-Moving Receptor   =  +0.00 kcal/mol
DOCKED: USER    (2) Final Total Internal Energy     =  -1.71 kcal/mol
DOCKED: USER    (3) Torsional Free Energy           =  +2.39 kcal/mol
DOCKED: USER    (4) Unbound System's Energy         =  -1.71 kcal/mol
DOCKED: USER
DOCKED: USER
DOCKED: REMARK SMILES C[C@H]([N-]C(=O)C/N=C(\O)c1ccc2cc(Cl)ccc2n1)c1ccccc1
DOCKED: REMARK SMILES IDX 6 1 7 2 8 3 9 4 10 6 20 7 11 8 19 9 12 10 18 11 13 12 17 13
DOCKED: REMARK SMILES IDX 14 14 15 15 16 16 4 17 5 18 3 19 2 20 1 21 21 22 22 23 26 24
DOCKED: REMARK SMILES IDX 23 25 25 26 24 27
DOCKED: REMARK H PARENT 9 5
DOCKED: USER                              x       y       z     vdW  Elec       q    Type
DOCKED: USER                           _______ _______ _______ _____ _____    ______ ____
DOCKED: ROOT
DOCKED: ATOM      1  C   UNL     1     137.226  68.935 223.069 -0.13 -0.02    +0.201 C  
DOCKED: ENDROOT
DOCKED: BRANCH   1   2
DOCKED: ATOM      2  N   UNL     1     136.714  70.252 222.699 -0.05 +0.04    -0.244 NA 
DOCKED: BRANCH   2   3
DOCKED: ATOM      3  C   UNL     1     137.242  71.405 223.005 -0.12 -0.05    +0.233 C  
DOCKED: BRANCH   3   4
DOCKED: ATOM      4  O   UNL     1     136.575  72.335 223.809 -0.06 +0.15    -0.492 OA 
DOCKED: ATOM      5  H   UNL     1     136.934  73.255 224.024 -0.49 -0.21    +0.295 HD 
DOCKED: ENDBRANCH   3   4
DOCKED: BRANCH   3   6
DOCKED: ATOM      6  C   UNL     1     138.573  71.766 222.484 -0.17 -0.03    +0.125 A  
DOCKED: ATOM      7  N   UNL     1     138.878  73.082 222.315 -0.18 +0.07    -0.243 NA 
DOCKED: ATOM      8  C   UNL     1     139.512  70.787 222.114 -0.19 -0.01    +0.035 A  
DOCKED: ATOM      9  C   UNL     1     140.068  73.490 221.801 -0.26 -0.01    +0.071 A  
DOCKED: ATOM     10  C   UNL     1     140.744  71.176 221.583 -0.16 -0.00    +0.013 A  
DOCKED: ATOM     11  C   UNL     1     140.335  74.855 221.643 -0.31 -0.00    +0.030 A  
DOCKED: ATOM     12  C   UNL     1     141.035  72.535 221.419 -0.27 -0.00    +0.002 A  
DOCKED: ATOM     13  C   UNL     1     141.556  75.271 221.106 -0.30 -0.01    +0.023 A  
DOCKED: ATOM     14  C   UNL     1     142.259  72.960 220.880 -0.25 -0.00    +0.030 A  
DOCKED: ATOM     15  C   UNL     1     142.517  74.327 220.725 -0.27 -0.01    +0.041 A  
DOCKED: ATOM     16  Cl  UNL     1     144.046  74.857 220.048 -0.52 +0.04    -0.084 Cl 
DOCKED: ENDBRANCH   3   6
DOCKED: ENDBRANCH   2   3
DOCKED: ENDBRANCH   1   2
DOCKED: BRANCH   1  17
DOCKED: ATOM     17  C   UNL     1     137.621  68.945 224.512 -0.23 -0.00    +0.074 C  
DOCKED: ATOM     18  O   UNL     1     136.854  69.470 225.365 -0.13 +0.02    -0.318 OA 
DOCKED: BRANCH  17  19
DOCKED: ATOM     19  N   UNL     1     138.908  68.456 224.902 -0.18 +0.04    -0.646 NA 
DOCKED: BRANCH  19  20
DOCKED: ATOM     20  C   UNL     1     139.370  68.451 226.287 -0.49 +0.01    -0.079 C  
DOCKED: ATOM     21  C   UNL     1     140.385  67.327 226.483 -0.63 +0.00    -0.008 C  
DOCKED: BRANCH  20  22
DOCKED: ATOM     22  C   UNL     1     139.985  69.791 226.632 -0.49 +0.01    -0.063 A  
DOCKED: ATOM     23  C   UNL     1     140.001  70.242 227.964 -0.64 -0.00    +0.002 A  
DOCKED: ATOM     24  C   UNL     1     140.537  70.609 225.628 -0.55 -0.00    +0.002 A  
DOCKED: ATOM     25  C   UNL     1     140.545  71.492 228.278 -0.75 -0.00    +0.000 A  
DOCKED: ATOM     26  C   UNL     1     141.073  71.858 225.947 -0.59 -0.00    +0.000 A  
DOCKED: ATOM     27  C   UNL     1     141.076  72.301 227.272 -0.81 -0.00    +0.000 A  
DOCKED: ENDBRANCH  20  22
DOCKED: ENDBRANCH  19  20
DOCKED: ENDBRANCH  17  19
DOCKED: ENDBRANCH   1  17
DOCKED: TORSDOF 8
DOCKED: TER
DOCKED: ENDMDL
________________________________________________________________________________


    FINAL DOCKED STATE:
    ________________________


Run:   7 / 20
Time taken for this run:   0.043s

DOCKED: MODEL        7
DOCKED: USER    Run = 7
DOCKED: USER
DOCKED: USER    Estimated Free Energy of Binding    =  -7.10 kcal/mol  [=(1)+(2)+(3)-(4)]
DOCKED: USER
DOCKED: USER    (1) Final Intermolecular Energy     =  -9.49 kcal/mol
DOCKED: USER        vdW + Hbond + desolv Energy     =  -9.52 kcal/mol
DOCKED: USER        Electrostatic Energy            =  +0.04 kcal/mol
DOCKED: USER        Moving Ligand-Fixed Receptor    =  -9.49 kcal/mol
DOCKED: USER        Moving Ligand-Moving Receptor   =  +0.00 kcal/mol
DOCKED: USER    (2) Final Total Internal Energy     =  -1.66 kcal/mol
DOCKED: USER    (3) Torsional Free Energy           =  +2.39 kcal/mol
DOCKED: USER    (4) Unbound System's Energy         =  -1.66 kcal/mol
DOCKED: USER
DOCKED: USER
DOCKED: REMARK SMILES C[C@H]([N-]C(=O)C/N=C(\O)c1ccc2cc(Cl)ccc2n1)c1ccccc1
DOCKED: REMARK SMILES IDX 6 1 7 2 8 3 9 4 10 6 20 7 11 8 19 9 12 10 18 11 13 12 17 13
DOCKED: REMARK SMILES IDX 14 14 15 15 16 16 4 17 5 18 3 19 2 20 1 21 21 22 22 23 26 24
DOCKED: REMARK SMILES IDX 23 25 25 26 24 27
DOCKED: REMARK H PARENT 9 5
DOCKED: USER                              x       y       z     vdW  Elec       q    Type
DOCKED: USER                           _______ _______ _______ _____ _____    ______ ____
DOCKED: ROOT
DOCKED: ATOM      1  C   UNL     1     141.481  71.884 221.092 -0.15 -0.02    +0.201 C  
DOCKED: ENDROOT
DOCKED: BRANCH   1   2
DOCKED: ATOM      2  N   UNL     1     141.169  73.281 220.796 -0.13 +0.04    -0.244 NA 
DOCKED: BRANCH   2   3
DOCKED: ATOM      3  C   UNL     1     140.659  74.154 221.620 -0.20 -0.02    +0.233 C  
DOCKED: BRANCH   3   4
DOCKED: ATOM      4  O   UNL     1     139.832  73.775 222.682 -0.60 +0.02    -0.492 OA 
DOCKED: ATOM      5  H   UNL     1     139.423  72.857 222.777 -0.11 -0.08    +0.295 HD 
DOCKED: ENDBRANCH   3   4
DOCKED: BRANCH   3   6
DOCKED: ATOM      6  C   UNL     1     140.934  75.591 221.431 -0.29 -0.04    +0.125 A  
DOCKED: ATOM      7  N   UNL     1     140.675  76.449 222.456 -0.28 +0.07    -0.243 NA 
DOCKED: ATOM      8  C   UNL     1     141.411  76.098 220.210 -0.23 -0.01    +0.035 A  
DOCKED: ATOM      9  C   UNL     1     140.865  77.790 222.344 -0.40 -0.03    +0.071 A  
DOCKED: ATOM     10  C   UNL     1     141.615  77.472 220.064 -0.27 -0.01    +0.013 A  
DOCKED: ATOM     11  C   UNL     1     140.581  78.634 223.424 -0.39 -0.01    +0.030 A  
DOCKED: ATOM     12  C   UNL     1     141.341  78.335 221.131 -0.34 -0.00    +0.002 A  
DOCKED: ATOM     13  C   UNL     1     140.768  80.014 223.302 -0.47 -0.00    +0.023 A  
DOCKED: ATOM     14  C   UNL     1     141.527  79.721 221.016 -0.34 -0.01    +0.030 A  
DOCKED: ATOM     15  C   UNL     1     141.240  80.557 222.101 -0.40 -0.01    +0.041 A  
DOCKED: ATOM     16  Cl  UNL     1     141.468  82.290 221.955 -0.38 +0.01    -0.084 Cl 
DOCKED: ENDBRANCH   3   6
DOCKED: ENDBRANCH   2   3
DOCKED: ENDBRANCH   1   2
DOCKED: BRANCH   1  17
DOCKED: ATOM     17  C   UNL     1     140.405  71.310 221.957 -0.19 -0.01    +0.074 C  
DOCKED: ATOM     18  O   UNL     1     139.269  71.071 221.464 -0.06 +0.06    -0.318 OA 
DOCKED: BRANCH  17  19
DOCKED: ATOM     19  N   UNL     1     140.635  71.132 223.359 +0.05 +0.07    -0.646 NA 
DOCKED: BRANCH  19  20
DOCKED: ATOM     20  C   UNL     1     139.598  70.684 224.284 -0.36 +0.01    -0.079 C  
DOCKED: ATOM     21  C   UNL     1     139.223  69.237 223.968 -0.30 +0.00    -0.008 C  
DOCKED: BRANCH  20  22
DOCKED: ATOM     22  C   UNL     1     140.089  70.809 225.711 -0.49 +0.01    -0.063 A  
DOCKED: ATOM     23  C   UNL     1     140.974  71.841 226.068 -0.62 -0.00    +0.002 A  
DOCKED: ATOM     24  C   UNL     1     139.678  69.890 226.695 -0.50 -0.00    +0.002 A  
DOCKED: ATOM     25  C   UNL     1     141.449  71.940 227.380 -0.77 -0.00    +0.000 A  
DOCKED: ATOM     26  C   UNL     1     140.159  69.991 228.003 -0.63 -0.00    +0.000 A  
DOCKED: ATOM     27  C   UNL     1     141.046  71.015 228.345 -0.65 -0.00    +0.000 A  
DOCKED: ENDBRANCH  20  22
DOCKED: ENDBRANCH  19  20
DOCKED: ENDBRANCH  17  19
DOCKED: ENDBRANCH   1  17
DOCKED: TORSDOF 8
DOCKED: TER
DOCKED: ENDMDL
________________________________________________________________________________


    FINAL DOCKED STATE:
    ________________________


Run:   8 / 20
Time taken for this run:   0.043s

DOCKED: MODEL        8
DOCKED: USER    Run = 8
DOCKED: USER
DOCKED: USER    Estimated Free Energy of Binding    =  -7.14 kcal/mol  [=(1)+(2)+(3)-(4)]
DOCKED: USER
DOCKED: USER    (1) Final Intermolecular Energy     =  -9.52 kcal/mol
DOCKED: USER        vdW + Hbond + desolv Energy     =  -9.74 kcal/mol
DOCKED: USER        Electrostatic Energy            =  +0.21 kcal/mol
DOCKED: USER        Moving Ligand-Fixed Receptor    =  -9.52 kcal/mol
DOCKED: USER        Moving Ligand-Moving Receptor   =  +0.00 kcal/mol
DOCKED: USER    (2) Final Total Internal Energy     =  -1.37 kcal/mol
DOCKED: USER    (3) Torsional Free Energy           =  +2.39 kcal/mol
DOCKED: USER    (4) Unbound System's Energy         =  -1.37 kcal/mol
DOCKED: USER
DOCKED: USER
DOCKED: REMARK SMILES C[C@H]([N-]C(=O)C/N=C(\O)c1ccc2cc(Cl)ccc2n1)c1ccccc1
DOCKED: REMARK SMILES IDX 6 1 7 2 8 3 9 4 10 6 20 7 11 8 19 9 12 10 18 11 13 12 17 13
DOCKED: REMARK SMILES IDX 14 14 15 15 16 16 4 17 5 18 3 19 2 20 1 21 21 22 22 23 26 24
DOCKED: REMARK SMILES IDX 23 25 25 26 24 27
DOCKED: REMARK H PARENT 9 5
DOCKED: USER                              x       y       z     vdW  Elec       q    Type
DOCKED: USER                           _______ _______ _______ _____ _____    ______ ____
DOCKED: ROOT
DOCKED: ATOM      1  C   UNL     1     138.971  75.022 221.292 -0.16 -0.04    +0.201 C  
DOCKED: ENDROOT
DOCKED: BRANCH   1   2
DOCKED: ATOM      2  N   UNL     1     138.997  73.728 221.971 -0.27 +0.06    -0.244 NA 
DOCKED: BRANCH   2   3
DOCKED: ATOM      3  C   UNL     1     140.043  72.970 222.158 -0.20 -0.03    +0.233 C  
DOCKED: BRANCH   3   4
DOCKED: ATOM      4  O   UNL     1     141.203  73.107 221.389 -0.15 +0.05    -0.492 OA 
DOCKED: ATOM      5  H   UNL     1     141.687  73.983 221.250 +0.11 -0.05    +0.295 HD 
DOCKED: ENDBRANCH   3   4
DOCKED: BRANCH   3   6
DOCKED: ATOM      6  C   UNL     1     140.014  71.920 223.192 -0.30 -0.02    +0.125 A  
DOCKED: ATOM      7  N   UNL     1     140.504  72.203 224.430 -0.04 +0.03    -0.243 NA 
DOCKED: ATOM      8  C   UNL     1     139.538  70.626 222.918 -0.25 -0.01    +0.035 A  
DOCKED: ATOM      9  C   UNL     1     140.548  71.275 225.422 -0.51 -0.01    +0.071 A  
DOCKED: ATOM     10  C   UNL     1     139.571  69.650 223.917 -0.28 -0.00    +0.013 A  
DOCKED: ATOM     11  C   UNL     1     141.065  71.612 226.678 -0.71 -0.00    +0.030 A  
DOCKED: ATOM     12  C   UNL     1     140.080  69.965 225.182 -0.44 -0.00    +0.002 A  
DOCKED: ATOM     13  C   UNL     1     141.118  70.652 227.693 -0.60 -0.00    +0.023 A  
DOCKED: ATOM     14  C   UNL     1     140.135  69.007 226.206 -0.51 -0.01    +0.030 A  
DOCKED: ATOM     15  C   UNL     1     140.654  69.352 227.459 -0.58 -0.01    +0.041 A  
DOCKED: ATOM     16  Cl  UNL     1     140.728  68.153 228.736 -0.62 +0.02    -0.084 Cl 
DOCKED: ENDBRANCH   3   6
DOCKED: ENDBRANCH   2   3
DOCKED: ENDBRANCH   1   2
DOCKED: BRANCH   1  17
DOCKED: ATOM     17  C   UNL     1     139.924  75.955 221.969 -0.33 -0.02    +0.074 C  
DOCKED: ATOM     18  O   UNL     1     141.164  75.732 221.910 -0.36 +0.09    -0.318 OA 
DOCKED: BRANCH  17  19
DOCKED: ATOM     19  N   UNL     1     139.422  77.034 222.766 +0.06 +0.12    -0.646 NA 
DOCKED: BRANCH  19  20
DOCKED: ATOM     20  C   UNL     1     139.343  78.409 222.282 -0.26 +0.02    -0.079 C  
DOCKED: ATOM     21  C   UNL     1     138.043  79.047 222.768 -0.25 +0.00    -0.008 C  
DOCKED: BRANCH  20  22
DOCKED: ATOM     22  C   UNL     1     140.540  79.198 222.770 -0.38 +0.02    -0.063 A  
DOCKED: ATOM     23  C   UNL     1     140.360  80.441 223.402 -0.45 -0.00    +0.002 A  
DOCKED: ATOM     24  C   UNL     1     141.847  78.707 222.589 -0.49 -0.00    +0.002 A  
DOCKED: ATOM     25  C   UNL     1     141.466  81.182 223.828 -0.53 -0.00    +0.000 A  
DOCKED: ATOM     26  C   UNL     1     142.949  79.454 223.012 -0.55 -0.00    +0.000 A  
DOCKED: ATOM     27  C   UNL     1     142.759  80.693 223.630 -0.67 -0.00    +0.000 A  
DOCKED: ENDBRANCH  20  22
DOCKED: ENDBRANCH  19  20
DOCKED: ENDBRANCH  17  19
DOCKED: ENDBRANCH   1  17
DOCKED: TORSDOF 8
DOCKED: TER
DOCKED: ENDMDL
________________________________________________________________________________


    FINAL DOCKED STATE:
    ________________________


Run:   9 / 20
Time taken for this run:   0.043s

DOCKED: MODEL        9
DOCKED: USER    Run = 9
DOCKED: USER
DOCKED: USER    Estimated Free Energy of Binding    =  -6.57 kcal/mol  [=(1)+(2)+(3)-(4)]
DOCKED: USER
DOCKED: USER    (1) Final Intermolecular Energy     =  -8.96 kcal/mol
DOCKED: USER        vdW + Hbond + desolv Energy     =  -9.22 kcal/mol
DOCKED: USER        Electrostatic Energy            =  +0.26 kcal/mol
DOCKED: USER        Moving Ligand-Fixed Receptor    =  -8.96 kcal/mol
DOCKED: USER        Moving Ligand-Moving Receptor   =  +0.00 kcal/mol
DOCKED: USER    (2) Final Total Internal Energy     =  -1.90 kcal/mol
DOCKED: USER    (3) Torsional Free Energy           =  +2.39 kcal/mol
DOCKED: USER    (4) Unbound System's Energy         =  -1.90 kcal/mol
DOCKED: USER
DOCKED: USER
DOCKED: REMARK SMILES C[C@H]([N-]C(=O)C/N=C(\O)c1ccc2cc(Cl)ccc2n1)c1ccccc1
DOCKED: REMARK SMILES IDX 6 1 7 2 8 3 9 4 10 6 20 7 11 8 19 9 12 10 18 11 13 12 17 13
DOCKED: REMARK SMILES IDX 14 14 15 15 16 16 4 17 5 18 3 19 2 20 1 21 21 22 22 23 26 24
DOCKED: REMARK SMILES IDX 23 25 25 26 24 27
DOCKED: REMARK H PARENT 9 5
DOCKED: USER                              x       y       z     vdW  Elec       q    Type
DOCKED: USER                           _______ _______ _______ _____ _____    ______ ____
DOCKED: ROOT
DOCKED: ATOM      1  C   UNL     1     140.736  75.322 221.514 -0.26 -0.04    +0.201 C  
DOCKED: ENDROOT
DOCKED: BRANCH   1   2
DOCKED: ATOM      2  N   UNL     1     140.012  74.171 222.051 -0.79 +0.02    -0.244 NA 
DOCKED: BRANCH   2   3
DOCKED: ATOM      3  C   UNL     1     140.287  72.914 221.839 -0.21 -0.03    +0.233 C  
DOCKED: BRANCH   3   4
DOCKED: ATOM      4  O   UNL     1     140.686  72.444 220.584 -0.03 +0.08    -0.492 OA 
DOCKED: ATOM      5  H   UNL     1     141.002  73.041 219.833 +0.07 -0.06    +0.295 HD 
DOCKED: ENDBRANCH   3   4
DOCKED: BRANCH   3   6
DOCKED: ATOM      6  C   UNL     1     140.160  71.939 222.938 -0.29 -0.02    +0.125 A  
DOCKED: ATOM      7  N   UNL     1     140.656  72.262 224.165 -0.06 +0.02    -0.243 NA 
DOCKED: ATOM      8  C   UNL     1     139.584  70.672 222.739 -0.24 -0.01    +0.035 A  
DOCKED: ATOM      9  C   UNL     1     140.612  71.400 225.214 -0.50 -0.01    +0.071 A  
DOCKED: ATOM     10  C   UNL     1     139.525  69.764 223.799 -0.28 -0.00    +0.013 A  
DOCKED: ATOM     11  C   UNL     1     141.138  71.776 226.455 -0.69 -0.00    +0.030 A  
DOCKED: ATOM     12  C   UNL     1     140.041  70.119 225.050 -0.44 -0.00    +0.002 A  
DOCKED: ATOM     13  C   UNL     1     141.100  70.884 227.531 -0.65 -0.00    +0.023 A  
DOCKED: ATOM     14  C   UNL     1     140.006  69.228 226.134 -0.49 -0.00    +0.030 A  
DOCKED: ATOM     15  C   UNL     1     140.535  69.612 227.372 -0.56 -0.01    +0.041 A  
DOCKED: ATOM     16  Cl  UNL     1     140.495  68.497 228.724 -0.67 +0.02    -0.084 Cl 
DOCKED: ENDBRANCH   3   6
DOCKED: ENDBRANCH   2   3
DOCKED: ENDBRANCH   1   2
DOCKED: BRANCH   1  17
DOCKED: ATOM     17  C   UNL     1     140.592  75.347 220.026 -0.14 -0.02    +0.074 C  
DOCKED: ATOM     18  O   UNL     1     139.609  75.940 219.504 -0.02 +0.08    -0.318 OA 
DOCKED: BRANCH  17  19
DOCKED: ATOM     19  N   UNL     1     141.508  74.612 219.208 +0.06 +0.19    -0.646 NA 
DOCKED: BRANCH  19  20
DOCKED: ATOM     20  C   UNL     1     142.849  75.092 218.886 -0.22 +0.03    -0.079 C  
DOCKED: ATOM     21  C   UNL     1     142.981  76.554 219.308 -0.37 +0.01    -0.008 C  
DOCKED: BRANCH  20  22
DOCKED: ATOM     22  C   UNL     1     143.886  74.239 219.586 -0.32 +0.02    -0.063 A  
DOCKED: ATOM     23  C   UNL     1     144.834  74.832 220.438 -0.37 -0.00    +0.002 A  
DOCKED: ATOM     24  C   UNL     1     143.924  72.846 219.386 -0.24 -0.00    +0.002 A  
DOCKED: ATOM     25  C   UNL     1     145.809  74.047 221.063 -0.61 -0.00    +0.000 A  
DOCKED: ATOM     26  C   UNL     1     144.903  72.068 220.008 -0.37 +0.00    +0.000 A  
DOCKED: ATOM     27  C   UNL     1     145.847  72.668 220.845 -0.54 -0.00    +0.000 A  
DOCKED: ENDBRANCH  20  22
DOCKED: ENDBRANCH  19  20
DOCKED: ENDBRANCH  17  19
DOCKED: ENDBRANCH   1  17
DOCKED: TORSDOF 8
DOCKED: TER
DOCKED: ENDMDL
________________________________________________________________________________


    FINAL DOCKED STATE:
    ________________________


Run:   10 / 20
Time taken for this run:   0.043s

DOCKED: MODEL        10
DOCKED: USER    Run = 10
DOCKED: USER
DOCKED: USER    Estimated Free Energy of Binding    =  -6.95 kcal/mol  [=(1)+(2)+(3)-(4)]
DOCKED: USER
DOCKED: USER    (1) Final Intermolecular Energy     =  -9.34 kcal/mol
DOCKED: USER        vdW + Hbond + desolv Energy     =  -9.45 kcal/mol
DOCKED: USER        Electrostatic Energy            =  +0.11 kcal/mol
DOCKED: USER        Moving Ligand-Fixed Receptor    =  -9.34 kcal/mol
DOCKED: USER        Moving Ligand-Moving Receptor   =  +0.00 kcal/mol
DOCKED: USER    (2) Final Total Internal Energy     =  -1.41 kcal/mol
DOCKED: USER    (3) Torsional Free Energy           =  +2.39 kcal/mol
DOCKED: USER    (4) Unbound System's Energy         =  -1.41 kcal/mol
DOCKED: USER
DOCKED: USER
DOCKED: REMARK SMILES C[C@H]([N-]C(=O)C/N=C(\O)c1ccc2cc(Cl)ccc2n1)c1ccccc1
DOCKED: REMARK SMILES IDX 6 1 7 2 8 3 9 4 10 6 20 7 11 8 19 9 12 10 18 11 13 12 17 13
DOCKED: REMARK SMILES IDX 14 14 15 15 16 16 4 17 5 18 3 19 2 20 1 21 21 22 22 23 26 24
DOCKED: REMARK SMILES IDX 23 25 25 26 24 27
DOCKED: REMARK H PARENT 9 5
DOCKED: USER                              x       y       z     vdW  Elec       q    Type
DOCKED: USER                           _______ _______ _______ _____ _____    ______ ____
DOCKED: ROOT
DOCKED: ATOM      1  C   UNL     1     140.857  72.269 221.245 -0.17 -0.03    +0.201 C  
DOCKED: ENDROOT
DOCKED: BRANCH   1   2
DOCKED: ATOM      2  N   UNL     1     141.466  73.567 221.525 -0.24 +0.02    -0.244 NA 
DOCKED: BRANCH   2   3
DOCKED: ATOM      3  C   UNL     1     140.864  74.724 221.522 -0.22 -0.04    +0.233 C  
DOCKED: BRANCH   3   4
DOCKED: ATOM      4  O   UNL     1     139.732  74.972 222.305 -0.59 +0.05    -0.492 OA 
DOCKED: ATOM      5  H   UNL     1     139.181  74.248 222.745 -0.46 -0.09    +0.295 HD 
DOCKED: ENDBRANCH   3   4
DOCKED: BRANCH   3   6
DOCKED: ATOM      6  C   UNL     1     141.364  75.811 220.660 -0.23 -0.05    +0.125 A  
DOCKED: ATOM      7  N   UNL     1     141.125  77.102 221.024 -0.16 +0.11    -0.243 NA 
DOCKED: ATOM      8  C   UNL     1     142.036  75.548 219.454 -0.21 -0.01    +0.035 A  
DOCKED: ATOM      9  C   UNL     1     141.519  78.155 220.261 -0.26 -0.04    +0.071 A  
DOCKED: ATOM     10  C   UNL     1     142.452  76.610 218.648 -0.27 -0.01    +0.013 A  
DOCKED: ATOM     11  C   UNL     1     141.248  79.464 220.674 -0.28 -0.01    +0.030 A  
DOCKED: ATOM     12  C   UNL     1     142.196  77.927 219.043 -0.30 -0.00    +0.002 A  
DOCKED: ATOM     13  C   UNL     1     141.645  80.545 219.883 -0.30 -0.01    +0.023 A  
DOCKED: ATOM     14  C   UNL     1     142.593  79.017 218.253 -0.32 -0.03    +0.030 A  
DOCKED: ATOM     15  C   UNL     1     142.317  80.323 218.674 -0.31 -0.03    +0.041 A  
DOCKED: ATOM     16  Cl  UNL     1     142.809  81.684 217.684 -0.36 +0.07    -0.084 Cl 
DOCKED: ENDBRANCH   3   6
DOCKED: ENDBRANCH   2   3
DOCKED: ENDBRANCH   1   2
DOCKED: BRANCH   1  17
DOCKED: ATOM     17  C   UNL     1     139.898  71.925 222.341 -0.27 -0.01    +0.074 C  
DOCKED: ATOM     18  O   UNL     1     138.775  72.498 222.389 -0.15 +0.09    -0.318 OA 
DOCKED: BRANCH  17  19
DOCKED: ATOM     19  N   UNL     1     140.298  71.030 223.383 +0.01 +0.09    -0.646 NA 
DOCKED: BRANCH  19  20
DOCKED: ATOM     20  C   UNL     1     139.385  70.564 224.424 -0.35 +0.01    -0.079 C  
DOCKED: ATOM     21  C   UNL     1     139.035  69.098 224.176 -0.33 +0.00    -0.008 C  
DOCKED: BRANCH  20  22
DOCKED: ATOM     22  C   UNL     1     140.023  70.737 225.786 -0.48 +0.01    -0.063 A  
DOCKED: ATOM     23  C   UNL     1     139.860  69.752 226.776 -0.53 -0.00    +0.002 A  
DOCKED: ATOM     24  C   UNL     1     140.777  71.888 226.086 -0.58 -0.00    +0.002 A  
DOCKED: ATOM     25  C   UNL     1     140.426  69.925 228.043 -0.62 -0.00    +0.000 A  
DOCKED: ATOM     26  C   UNL     1     141.335  72.058 227.354 -0.80 -0.00    +0.000 A  
DOCKED: ATOM     27  C   UNL     1     141.159  71.077 228.334 -0.64 -0.00    +0.000 A  
DOCKED: ENDBRANCH  20  22
DOCKED: ENDBRANCH  19  20
DOCKED: ENDBRANCH  17  19
DOCKED: ENDBRANCH   1  17
DOCKED: TORSDOF 8
DOCKED: TER
DOCKED: ENDMDL
________________________________________________________________________________


    FINAL DOCKED STATE:
    ________________________


Run:   11 / 20
Time taken for this run:   0.043s

DOCKED: MODEL        11
DOCKED: USER    Run = 11
DOCKED: USER
DOCKED: USER    Estimated Free Energy of Binding    =  -7.03 kcal/mol  [=(1)+(2)+(3)-(4)]
DOCKED: USER
DOCKED: USER    (1) Final Intermolecular Energy     =  -9.42 kcal/mol
DOCKED: USER        vdW + Hbond + desolv Energy     =  -9.50 kcal/mol
DOCKED: USER        Electrostatic Energy            =  +0.08 kcal/mol
DOCKED: USER        Moving Ligand-Fixed Receptor    =  -9.42 kcal/mol
DOCKED: USER        Moving Ligand-Moving Receptor   =  +0.00 kcal/mol
DOCKED: USER    (2) Final Total Internal Energy     =  -1.64 kcal/mol
DOCKED: USER    (3) Torsional Free Energy           =  +2.39 kcal/mol
DOCKED: USER    (4) Unbound System's Energy         =  -1.64 kcal/mol
DOCKED: USER
DOCKED: USER
DOCKED: REMARK SMILES C[C@H]([N-]C(=O)C/N=C(\O)c1ccc2cc(Cl)ccc2n1)c1ccccc1
DOCKED: REMARK SMILES IDX 6 1 7 2 8 3 9 4 10 6 20 7 11 8 19 9 12 10 18 11 13 12 17 13
DOCKED: REMARK SMILES IDX 14 14 15 15 16 16 4 17 5 18 3 19 2 20 1 21 21 22 22 23 26 24
DOCKED: REMARK SMILES IDX 23 25 25 26 24 27
DOCKED: REMARK H PARENT 9 5
DOCKED: USER                              x       y       z     vdW  Elec       q    Type
DOCKED: USER                           _______ _______ _______ _____ _____    ______ ____
DOCKED: ROOT
DOCKED: ATOM      1  C   UNL     1     137.427  69.276 224.539 -0.21 -0.02    +0.201 C  
DOCKED: ENDROOT
DOCKED: BRANCH   1   2
DOCKED: ATOM      2  N   UNL     1     137.839  70.058 223.376 -0.10 +0.04    -0.244 NA 
DOCKED: BRANCH   2   3
DOCKED: ATOM      3  C   UNL     1     137.947  71.357 223.312 -0.14 -0.06    +0.233 C  
DOCKED: BRANCH   3   4
DOCKED: ATOM      4  O   UNL     1     136.952  72.207 223.804 -0.01 +0.18    -0.492 OA 
DOCKED: ATOM      5  H   UNL     1     136.987  73.215 223.737 -0.48 -0.19    +0.295 HD 
DOCKED: ENDBRANCH   3   4
DOCKED: BRANCH   3   6
DOCKED: ATOM      6  C   UNL     1     139.137  71.966 222.691 -0.22 -0.03    +0.125 A  
DOCKED: ATOM      7  N   UNL     1     139.101  73.286 222.356 -0.29 +0.07    -0.243 NA 
DOCKED: ATOM      8  C   UNL     1     140.284  71.210 222.393 -0.24 -0.00    +0.035 A  
DOCKED: ATOM      9  C   UNL     1     140.143  73.907 221.744 -0.26 -0.01    +0.071 A  
DOCKED: ATOM     10  C   UNL     1     141.371  71.821 221.763 -0.21 -0.00    +0.013 A  
DOCKED: ATOM     11  C   UNL     1     140.059  75.265 221.416 -0.29 -0.01    +0.030 A  
DOCKED: ATOM     12  C   UNL     1     141.311  73.178 221.430 -0.27 -0.00    +0.002 A  
DOCKED: ATOM     13  C   UNL     1     141.128  75.899 220.778 -0.28 -0.01    +0.023 A  
DOCKED: ATOM     14  C   UNL     1     142.382  73.821 220.789 -0.27 -0.01    +0.030 A  
DOCKED: ATOM     15  C   UNL     1     142.288  75.179 220.465 -0.29 -0.02    +0.041 A  
DOCKED: ATOM     16  Cl  UNL     1     143.624  75.981 219.660 -0.46 +0.06    -0.084 Cl 
DOCKED: ENDBRANCH   3   6
DOCKED: ENDBRANCH   2   3
DOCKED: ENDBRANCH   1   2
DOCKED: BRANCH   1  17
DOCKED: ATOM     17  C   UNL     1     138.548  68.375 224.951 -0.17 -0.00    +0.074 C  
DOCKED: ATOM     18  O   UNL     1     139.249  67.808 224.068 -0.43 +0.04    -0.318 OA 
DOCKED: BRANCH  17  19
DOCKED: ATOM     19  N   UNL     1     138.753  68.078 226.336 +0.01 +0.03    -0.646 NA 
DOCKED: BRANCH  19  20
DOCKED: ATOM     20  C   UNL     1     140.049  68.215 226.995 -0.60 +0.02    -0.079 C  
DOCKED: ATOM     21  C   UNL     1     141.102  67.428 226.219 -0.43 +0.00    -0.008 C  
DOCKED: BRANCH  20  22
DOCKED: ATOM     22  C   UNL     1     140.432  69.678 227.082 -0.53 +0.01    -0.063 A  
DOCKED: ATOM     23  C   UNL     1     140.123  70.424 228.233 -0.62 -0.00    +0.002 A  
DOCKED: ATOM     24  C   UNL     1     141.090  70.313 226.012 -0.56 -0.00    +0.002 A  
DOCKED: ATOM     25  C   UNL     1     140.453  71.782 228.301 -0.77 -0.00    +0.000 A  
DOCKED: ATOM     26  C   UNL     1     141.412  71.670 226.084 -0.63 -0.00    +0.000 A  
DOCKED: ATOM     27  C   UNL     1     141.092  72.405 227.228 -0.76 -0.00    +0.000 A  
DOCKED: ENDBRANCH  20  22
DOCKED: ENDBRANCH  19  20
DOCKED: ENDBRANCH  17  19
DOCKED: ENDBRANCH   1  17
DOCKED: TORSDOF 8
DOCKED: TER
DOCKED: ENDMDL
________________________________________________________________________________


    FINAL DOCKED STATE:
    ________________________


Run:   12 / 20
Time taken for this run:   0.043s

DOCKED: MODEL        12
DOCKED: USER    Run = 12
DOCKED: USER
DOCKED: USER    Estimated Free Energy of Binding    =  -7.36 kcal/mol  [=(1)+(2)+(3)-(4)]
DOCKED: USER
DOCKED: USER    (1) Final Intermolecular Energy     =  -9.74 kcal/mol
DOCKED: USER        vdW + Hbond + desolv Energy     =  -9.76 kcal/mol
DOCKED: USER        Electrostatic Energy            =  +0.02 kcal/mol
DOCKED: USER        Moving Ligand-Fixed Receptor    =  -9.74 kcal/mol
DOCKED: USER        Moving Ligand-Moving Receptor   =  +0.00 kcal/mol
DOCKED: USER    (2) Final Total Internal Energy     =  -1.26 kcal/mol
DOCKED: USER    (3) Torsional Free Energy           =  +2.39 kcal/mol
DOCKED: USER    (4) Unbound System's Energy         =  -1.26 kcal/mol
DOCKED: USER
DOCKED: USER
DOCKED: REMARK SMILES C[C@H]([N-]C(=O)C/N=C(\O)c1ccc2cc(Cl)ccc2n1)c1ccccc1
DOCKED: REMARK SMILES IDX 6 1 7 2 8 3 9 4 10 6 20 7 11 8 19 9 12 10 18 11 13 12 17 13
DOCKED: REMARK SMILES IDX 14 14 15 15 16 16 4 17 5 18 3 19 2 20 1 21 21 22 22 23 26 24
DOCKED: REMARK SMILES IDX 23 25 25 26 24 27
DOCKED: REMARK H PARENT 9 5
DOCKED: USER                              x       y       z     vdW  Elec       q    Type
DOCKED: USER                           _______ _______ _______ _____ _____    ______ ____
DOCKED: ROOT
DOCKED: ATOM      1  C   UNL     1     138.926  69.312 223.841 -0.21 -0.03    +0.201 C  
DOCKED: ENDROOT
DOCKED: BRANCH   1   2
DOCKED: ATOM      2  N   UNL     1     139.407  70.689 223.923 -0.20 +0.05    -0.244 NA 
DOCKED: BRANCH   2   3
DOCKED: ATOM      3  C   UNL     1     138.992  71.701 223.211 -0.13 -0.06    +0.233 C  
DOCKED: BRANCH   3   4
DOCKED: ATOM      4  O   UNL     1     137.653  72.103 223.206 -0.01 +0.18    -0.492 OA 
DOCKED: ATOM      5  H   UNL     1     137.351  73.060 223.321 -0.46 -0.17    +0.295 HD 
DOCKED: ENDBRANCH   3   4
DOCKED: BRANCH   3   6
DOCKED: ATOM      6  C   UNL     1     139.944  72.443 222.364 -0.27 -0.02    +0.125 A  
DOCKED: ATOM      7  N   UNL     1     139.792  73.790 222.229 -0.74 +0.03    -0.243 NA 
DOCKED: ATOM      8  C   UNL     1     140.970  71.791 221.658 -0.23 -0.00    +0.035 A  
DOCKED: ATOM      9  C   UNL     1     140.604  74.535 221.435 -0.29 -0.01    +0.071 A  
DOCKED: ATOM     10  C   UNL     1     141.820  72.529 220.832 -0.24 -0.00    +0.013 A  
DOCKED: ATOM     11  C   UNL     1     140.408  75.916 221.325 -0.30 -0.01    +0.030 A  
DOCKED: ATOM     12  C   UNL     1     141.645  73.912 220.710 -0.26 -0.00    +0.002 A  
DOCKED: ATOM     13  C   UNL     1     141.239  76.678 220.500 -0.26 -0.01    +0.023 A  
DOCKED: ATOM     14  C   UNL     1     142.476  74.684 219.884 -0.26 -0.01    +0.030 A  
DOCKED: ATOM     15  C   UNL     1     142.271  76.064 219.780 -0.29 -0.02    +0.041 A  
DOCKED: ATOM     16  Cl  UNL     1     143.307  77.027 218.743 -0.28 +0.06    -0.084 Cl 
DOCKED: ENDBRANCH   3   6
DOCKED: ENDBRANCH   2   3
DOCKED: ENDBRANCH   1   2
DOCKED: BRANCH   1  17
DOCKED: ATOM     17  C   UNL     1     138.438  68.877 225.186 -0.36 -0.00    +0.074 C  
DOCKED: ATOM     18  O   UNL     1     137.508  69.518 225.750 -0.04 +0.02    -0.318 OA 
DOCKED: BRANCH  17  19
DOCKED: ATOM     19  N   UNL     1     139.095  67.806 225.872 -0.42 +0.01    -0.646 NA 
DOCKED: BRANCH  19  20
DOCKED: ATOM     20  C   UNL     1     140.168  68.021 226.839 -0.61 +0.02    -0.079 C  
DOCKED: ATOM     21  C   UNL     1     141.454  67.375 226.327 -0.12 +0.00    -0.008 C  
DOCKED: BRANCH  20  22
DOCKED: ATOM     22  C   UNL     1     140.369  69.505 227.066 -0.53 +0.01    -0.063 A  
DOCKED: ATOM     23  C   UNL     1     141.189  70.250 226.199 -0.56 -0.00    +0.002 A  
DOCKED: ATOM     24  C   UNL     1     139.753  70.157 228.151 -0.61 -0.00    +0.002 A  
DOCKED: ATOM     25  C   UNL     1     141.397  71.614 226.425 -0.69 -0.00    +0.000 A  
DOCKED: ATOM     26  C   UNL     1     139.968  71.518 228.375 -0.64 -0.00    +0.000 A  
DOCKED: ATOM     27  C   UNL     1     140.792  72.247 227.513 -0.78 -0.00    +0.000 A  
DOCKED: ENDBRANCH  20  22
DOCKED: ENDBRANCH  19  20
DOCKED: ENDBRANCH  17  19
DOCKED: ENDBRANCH   1  17
DOCKED: TORSDOF 8
DOCKED: TER
DOCKED: ENDMDL
________________________________________________________________________________


    FINAL DOCKED STATE:
    ________________________


Run:   13 / 20
Time taken for this run:   0.043s

DOCKED: MODEL        13
DOCKED: USER    Run = 13
DOCKED: USER
DOCKED: USER    Estimated Free Energy of Binding    =  -7.59 kcal/mol  [=(1)+(2)+(3)-(4)]
DOCKED: USER
DOCKED: USER    (1) Final Intermolecular Energy     =  -9.98 kcal/mol
DOCKED: USER        vdW + Hbond + desolv Energy     =  -9.95 kcal/mol
DOCKED: USER        Electrostatic Energy            =  -0.02 kcal/mol
DOCKED: USER        Moving Ligand-Fixed Receptor    =  -9.98 kcal/mol
DOCKED: USER        Moving Ligand-Moving Receptor   =  +0.00 kcal/mol
DOCKED: USER    (2) Final Total Internal Energy     =  -0.95 kcal/mol
DOCKED: USER    (3) Torsional Free Energy           =  +2.39 kcal/mol
DOCKED: USER    (4) Unbound System's Energy         =  -0.95 kcal/mol
DOCKED: USER
DOCKED: USER
DOCKED: REMARK SMILES C[C@H]([N-]C(=O)C/N=C(\O)c1ccc2cc(Cl)ccc2n1)c1ccccc1
DOCKED: REMARK SMILES IDX 6 1 7 2 8 3 9 4 10 6 20 7 11 8 19 9 12 10 18 11 13 12 17 13
DOCKED: REMARK SMILES IDX 14 14 15 15 16 16 4 17 5 18 3 19 2 20 1 21 21 22 22 23 26 24
DOCKED: REMARK SMILES IDX 23 25 25 26 24 27
DOCKED: REMARK H PARENT 9 5
DOCKED: USER                              x       y       z     vdW  Elec       q    Type
DOCKED: USER                           _______ _______ _______ _____ _____    ______ ____
DOCKED: ROOT
DOCKED: ATOM      1  C   UNL     1     138.347  69.560 223.973 -0.22 -0.03    +0.201 C  
DOCKED: ENDROOT
DOCKED: BRANCH   1   2
DOCKED: ATOM      2  N   UNL     1     137.001  69.377 223.436 -0.09 +0.03    -0.244 NA 
DOCKED: BRANCH   2   3
DOCKED: ATOM      3  C   UNL     1     135.881  69.468 224.100 -0.13 -0.02    +0.233 C  
DOCKED: BRANCH   3   4
DOCKED: ATOM      4  O   UNL     1     135.087  68.348 224.368 -0.54 -0.04    -0.492 OA 
DOCKED: ATOM      5  H   UNL     1     134.430  67.953 223.710 +0.06 -0.01    +0.295 HD 
DOCKED: ENDBRANCH   3   4
DOCKED: BRANCH   3   6
DOCKED: ATOM      6  C   UNL     1     135.412  70.782 224.574 -0.16 -0.01    +0.125 A  
DOCKED: ATOM      7  N   UNL     1     134.444  70.829 225.531 -0.13 +0.02    -0.243 NA 
DOCKED: ATOM      8  C   UNL     1     135.903  71.983 224.031 -0.19 -0.01    +0.035 A  
DOCKED: ATOM      9  C   UNL     1     133.933  72.002 225.988 -0.29 -0.00    +0.071 A  
DOCKED: ATOM     10  C   UNL     1     135.396  73.204 224.480 -0.24 -0.00    +0.013 A  
DOCKED: ATOM     11  C   UNL     1     132.936  71.999 226.971 -0.40 -0.00    +0.030 A  
DOCKED: ATOM     12  C   UNL     1     134.402  73.226 225.465 -0.28 -0.00    +0.002 A  
DOCKED: ATOM     13  C   UNL     1     132.405  73.207 227.433 -0.36 -0.00    +0.023 A  
DOCKED: ATOM     14  C   UNL     1     133.865  74.435 225.933 -0.34 +0.00    +0.030 A  
DOCKED: ATOM     15  C   UNL     1     132.868  74.423 226.915 -0.35 +0.00    +0.041 A  
DOCKED: ATOM     16  Cl  UNL     1     132.194  75.934 227.496 -0.42 -0.00    -0.084 Cl 
DOCKED: ENDBRANCH   3   6
DOCKED: ENDBRANCH   2   3
DOCKED: ENDBRANCH   1   2
DOCKED: BRANCH   1  17
DOCKED: ATOM     17  C   UNL     1     138.778  68.307 224.667 -0.26 -0.00    +0.074 C  
DOCKED: ATOM     18  O   UNL     1     139.152  67.313 223.986 -0.56 +0.02    -0.318 OA 
DOCKED: BRANCH  17  19
DOCKED: ATOM     19  N   UNL     1     138.664  68.205 226.091 -0.11 +0.02    -0.646 NA 
DOCKED: BRANCH  19  20
DOCKED: ATOM     20  C   UNL     1     139.818  68.250 226.985 -0.58 +0.01    -0.079 C  
DOCKED: ATOM     21  C   UNL     1     140.928  67.360 226.430 -0.53 +0.00    -0.008 C  
DOCKED: BRANCH  20  22
DOCKED: ATOM     22  C   UNL     1     140.301  69.677 227.135 -0.53 +0.01    -0.063 A  
DOCKED: ATOM     23  C   UNL     1     141.064  70.277 226.117 -0.57 -0.00    +0.002 A  
DOCKED: ATOM     24  C   UNL     1     140.007  70.418 228.295 -0.62 -0.00    +0.002 A  
DOCKED: ATOM     25  C   UNL     1     141.533  71.586 226.267 -0.61 -0.00    +0.000 A  
DOCKED: ATOM     26  C   UNL     1     140.483  71.722 228.442 -0.68 -0.00    +0.000 A  
DOCKED: ATOM     27  C   UNL     1     141.248  72.306 227.429 -0.81 -0.00    +0.000 A  
DOCKED: ENDBRANCH  20  22
DOCKED: ENDBRANCH  19  20
DOCKED: ENDBRANCH  17  19
DOCKED: ENDBRANCH   1  17
DOCKED: TORSDOF 8
DOCKED: TER
DOCKED: ENDMDL
________________________________________________________________________________


    FINAL DOCKED STATE:
    ________________________


Run:   14 / 20
Time taken for this run:   0.043s

DOCKED: MODEL        14
DOCKED: USER    Run = 14
DOCKED: USER
DOCKED: USER    Estimated Free Energy of Binding    =  -7.29 kcal/mol  [=(1)+(2)+(3)-(4)]
DOCKED: USER
DOCKED: USER    (1) Final Intermolecular Energy     =  -9.68 kcal/mol
DOCKED: USER        vdW + Hbond + desolv Energy     =  -9.93 kcal/mol
DOCKED: USER        Electrostatic Energy            =  +0.25 kcal/mol
DOCKED: USER        Moving Ligand-Fixed Receptor    =  -9.68 kcal/mol
DOCKED: USER        Moving Ligand-Moving Receptor   =  +0.00 kcal/mol
DOCKED: USER    (2) Final Total Internal Energy     =  -1.31 kcal/mol
DOCKED: USER    (3) Torsional Free Energy           =  +2.39 kcal/mol
DOCKED: USER    (4) Unbound System's Energy         =  -1.31 kcal/mol
DOCKED: USER
DOCKED: USER
DOCKED: REMARK SMILES C[C@H]([N-]C(=O)C/N=C(\O)c1ccc2cc(Cl)ccc2n1)c1ccccc1
DOCKED: REMARK SMILES IDX 6 1 7 2 8 3 9 4 10 6 20 7 11 8 19 9 12 10 18 11 13 12 17 13
DOCKED: REMARK SMILES IDX 14 14 15 15 16 16 4 17 5 18 3 19 2 20 1 21 21 22 22 23 26 24
DOCKED: REMARK SMILES IDX 23 25 25 26 24 27
DOCKED: REMARK H PARENT 9 5
DOCKED: USER                              x       y       z     vdW  Elec       q    Type
DOCKED: USER                           _______ _______ _______ _____ _____    ______ ____
DOCKED: ROOT
DOCKED: ATOM      1  C   UNL     1     140.466  74.581 221.320 -0.22 -0.03    +0.201 C  
DOCKED: ENDROOT
DOCKED: BRANCH   1   2
DOCKED: ATOM      2  N   UNL     1     140.534  73.382 222.153 -0.67 +0.01    -0.244 NA 
DOCKED: BRANCH   2   3
DOCKED: ATOM      3  C   UNL     1     139.575  72.521 222.353 -0.20 -0.05    +0.233 C  
DOCKED: BRANCH   3   4
DOCKED: ATOM      4  O   UNL     1     138.410  72.516 221.580 -0.03 +0.11    -0.492 OA 
DOCKED: ATOM      5  H   UNL     1     137.836  73.332 221.421 +0.05 -0.07    +0.295 HD 
DOCKED: ENDBRANCH   3   4
DOCKED: BRANCH   3   6
DOCKED: ATOM      6  C   UNL     1     139.695  71.526 223.435 -0.31 -0.03    +0.125 A  
DOCKED: ATOM      7  N   UNL     1     140.226  71.913 224.628 -0.21 +0.05    -0.243 NA 
DOCKED: ATOM      8  C   UNL     1     139.318  70.184 223.251 -0.25 -0.01    +0.035 A  
DOCKED: ATOM      9  C   UNL     1     140.405  71.044 225.657 -0.52 -0.01    +0.071 A  
DOCKED: ATOM     10  C   UNL     1     139.491  69.268 224.290 -0.31 -0.00    +0.013 A  
DOCKED: ATOM     11  C   UNL     1     140.959  71.488 226.864 -0.71 -0.00    +0.030 A  
DOCKED: ATOM     12  C   UNL     1     140.039  69.689 225.507 -0.45 -0.00    +0.002 A  
DOCKED: ATOM     13  C   UNL     1     141.151  70.590 227.918 -0.58 -0.00    +0.023 A  
DOCKED: ATOM     14  C   UNL     1     140.234  68.793 226.569 -0.56 -0.01    +0.030 A  
DOCKED: ATOM     15  C   UNL     1     140.789  69.245 227.772 -0.59 -0.01    +0.041 A  
DOCKED: ATOM     16  Cl  UNL     1     141.037  68.123 229.097 -0.43 +0.02    -0.084 Cl 
DOCKED: ENDBRANCH   3   6
DOCKED: ENDBRANCH   2   3
DOCKED: ENDBRANCH   1   2
DOCKED: BRANCH   1  17
DOCKED: ATOM     17  C   UNL     1     139.562  75.582 221.967 -0.30 -0.01    +0.074 C  
DOCKED: ATOM     18  O   UNL     1     138.335  75.322 222.097 -0.19 +0.08    -0.318 OA 
DOCKED: BRANCH  17  19
DOCKED: ATOM     19  N   UNL     1     140.071  76.868 222.337 -0.04 +0.16    -0.646 NA 
DOCKED: BRANCH  19  20
DOCKED: ATOM     20  C   UNL     1     140.747  77.757 221.397 -0.29 +0.03    -0.079 C  
DOCKED: ATOM     21  C   UNL     1     139.746  78.252 220.354 -0.13 +0.00    -0.008 C  
DOCKED: BRANCH  20  22
DOCKED: ATOM     22  C   UNL     1     141.364  78.923 222.140 -0.40 +0.03    -0.063 A  
DOCKED: ATOM     23  C   UNL     1     141.686  78.804 223.504 -0.61 -0.00    +0.002 A  
DOCKED: ATOM     24  C   UNL     1     141.613  80.143 221.483 -0.40 -0.00    +0.002 A  
DOCKED: ATOM     25  C   UNL     1     142.231  79.890 224.196 -0.49 -0.00    +0.000 A  
DOCKED: ATOM     26  C   UNL     1     142.153  81.225 222.181 -0.47 -0.00    +0.000 A  
DOCKED: ATOM     27  C   UNL     1     142.460  81.100 223.539 -0.62 -0.00    +0.000 A  
DOCKED: ENDBRANCH  20  22
DOCKED: ENDBRANCH  19  20
DOCKED: ENDBRANCH  17  19
DOCKED: ENDBRANCH   1  17
DOCKED: TORSDOF 8
DOCKED: TER
DOCKED: ENDMDL
________________________________________________________________________________


    FINAL DOCKED STATE:
    ________________________


Run:   15 / 20
Time taken for this run:   0.043s

DOCKED: MODEL        15
DOCKED: USER    Run = 15
DOCKED: USER
DOCKED: USER    Estimated Free Energy of Binding    =  -7.69 kcal/mol  [=(1)+(2)+(3)-(4)]
DOCKED: USER
DOCKED: USER    (1) Final Intermolecular Energy     = -10.08 kcal/mol
DOCKED: USER        vdW + Hbond + desolv Energy     = -10.30 kcal/mol
DOCKED: USER        Electrostatic Energy            =  +0.22 kcal/mol
DOCKED: USER        Moving Ligand-Fixed Receptor    = -10.08 kcal/mol
DOCKED: USER        Moving Ligand-Moving Receptor   =  +0.00 kcal/mol
DOCKED: USER    (2) Final Total Internal Energy     =  -0.71 kcal/mol
DOCKED: USER    (3) Torsional Free Energy           =  +2.39 kcal/mol
DOCKED: USER    (4) Unbound System's Energy         =  -0.71 kcal/mol
DOCKED: USER
DOCKED: USER
DOCKED: REMARK SMILES C[C@H]([N-]C(=O)C/N=C(\O)c1ccc2cc(Cl)ccc2n1)c1ccccc1
DOCKED: REMARK SMILES IDX 6 1 7 2 8 3 9 4 10 6 20 7 11 8 19 9 12 10 18 11 13 12 17 13
DOCKED: REMARK SMILES IDX 14 14 15 15 16 16 4 17 5 18 3 19 2 20 1 21 21 22 22 23 26 24
DOCKED: REMARK SMILES IDX 23 25 25 26 24 27
DOCKED: REMARK H PARENT 9 5
DOCKED: USER                              x       y       z     vdW  Elec       q    Type
DOCKED: USER                           _______ _______ _______ _____ _____    ______ ____
DOCKED: ROOT
DOCKED: ATOM      1  C   UNL     1     138.787  74.896 221.547 -0.18 -0.05    +0.201 C  
DOCKED: ENDROOT
DOCKED: BRANCH   1   2
DOCKED: ATOM      2  N   UNL     1     139.955  74.159 222.024 -0.79 +0.02    -0.244 NA 
DOCKED: BRANCH   2   3
DOCKED: ATOM      3  C   UNL     1     140.215  72.898 221.816 -0.21 -0.03    +0.233 C  
DOCKED: BRANCH   3   4
DOCKED: ATOM      4  O   UNL     1     140.593  72.418 220.558 -0.02 +0.08    -0.492 OA 
DOCKED: ATOM      5  H   UNL     1     141.157  72.939 219.902 +0.07 -0.05    +0.295 HD 
DOCKED: ENDBRANCH   3   4
DOCKED: BRANCH   3   6
DOCKED: ATOM      6  C   UNL     1     140.094  71.930 222.922 -0.29 -0.02    +0.125 A  
DOCKED: ATOM      7  N   UNL     1     140.598  72.260 224.143 -0.09 +0.03    -0.243 NA 
DOCKED: ATOM      8  C   UNL     1     139.516  70.662 222.734 -0.24 -0.01    +0.035 A  
DOCKED: ATOM      9  C   UNL     1     140.560  71.405 225.198 -0.49 -0.01    +0.071 A  
DOCKED: ATOM     10  C   UNL     1     139.464  69.761 223.800 -0.28 -0.00    +0.013 A  
DOCKED: ATOM     11  C   UNL     1     141.095  71.788 226.434 -0.69 -0.00    +0.030 A  
DOCKED: ATOM     12  C   UNL     1     139.988  70.123 225.046 -0.43 -0.00    +0.002 A  
DOCKED: ATOM     13  C   UNL     1     141.063  70.902 227.514 -0.67 -0.00    +0.023 A  
DOCKED: ATOM     14  C   UNL     1     139.959  69.239 226.135 -0.48 -0.00    +0.030 A  
DOCKED: ATOM     15  C   UNL     1     140.496  69.630 227.367 -0.56 -0.01    +0.041 A  
DOCKED: ATOM     16  Cl  UNL     1     140.464  68.524 228.727 -0.67 +0.02    -0.084 Cl 
DOCKED: ENDBRANCH   3   6
DOCKED: ENDBRANCH   2   3
DOCKED: ENDBRANCH   1   2
DOCKED: BRANCH   1  17
DOCKED: ATOM     17  C   UNL     1     138.568  76.093 222.417 -0.27 -0.02    +0.074 C  
DOCKED: ATOM     18  O   UNL     1     137.655  76.073 223.287 -0.19 +0.09    -0.318 OA 
DOCKED: BRANCH  17  19
DOCKED: ATOM     19  N   UNL     1     139.321  77.289 222.189 -0.01 +0.14    -0.646 NA 
DOCKED: BRANCH  19  20
DOCKED: ATOM     20  C   UNL     1     140.773  77.351 222.327 -0.39 +0.03    -0.079 C  
DOCKED: ATOM     21  C   UNL     1     141.427  77.040 220.982 -0.29 +0.00    -0.008 C  
DOCKED: BRANCH  20  22
DOCKED: ATOM     22  C   UNL     1     141.188  78.723 222.816 -0.46 +0.02    -0.063 A  
DOCKED: ATOM     23  C   UNL     1     142.537  79.116 222.767 -0.52 -0.00    +0.002 A  
DOCKED: ATOM     24  C   UNL     1     140.234  79.618 223.338 -0.45 -0.00    +0.002 A  
DOCKED: ATOM     25  C   UNL     1     142.923  80.372 223.245 -0.67 -0.00    +0.000 A  
DOCKED: ATOM     26  C   UNL     1     140.626  80.870 223.818 -0.41 -0.00    +0.000 A  
DOCKED: ATOM     27  C   UNL     1     141.971  81.246 223.774 -0.62 -0.00    +0.000 A  
DOCKED: ENDBRANCH  20  22
DOCKED: ENDBRANCH  19  20
DOCKED: ENDBRANCH  17  19
DOCKED: ENDBRANCH   1  17
DOCKED: TORSDOF 8
DOCKED: TER
DOCKED: ENDMDL
________________________________________________________________________________


    FINAL DOCKED STATE:
    ________________________


Run:   16 / 20
Time taken for this run:   0.043s

DOCKED: MODEL        16
DOCKED: USER    Run = 16
DOCKED: USER
DOCKED: USER    Estimated Free Energy of Binding    =  -6.78 kcal/mol  [=(1)+(2)+(3)-(4)]
DOCKED: USER
DOCKED: USER    (1) Final Intermolecular Energy     =  -9.16 kcal/mol
DOCKED: USER        vdW + Hbond + desolv Energy     =  -9.35 kcal/mol
DOCKED: USER        Electrostatic Energy            =  +0.18 kcal/mol
DOCKED: USER        Moving Ligand-Fixed Receptor    =  -9.16 kcal/mol
DOCKED: USER        Moving Ligand-Moving Receptor   =  +0.00 kcal/mol
DOCKED: USER    (2) Final Total Internal Energy     =  -1.52 kcal/mol
DOCKED: USER    (3) Torsional Free Energy           =  +2.39 kcal/mol
DOCKED: USER    (4) Unbound System's Energy         =  -1.52 kcal/mol
DOCKED: USER
DOCKED: USER
DOCKED: REMARK SMILES C[C@H]([N-]C(=O)C/N=C(\O)c1ccc2cc(Cl)ccc2n1)c1ccccc1
DOCKED: REMARK SMILES IDX 6 1 7 2 8 3 9 4 10 6 20 7 11 8 19 9 12 10 18 11 13 12 17 13
DOCKED: REMARK SMILES IDX 14 14 15 15 16 16 4 17 5 18 3 19 2 20 1 21 21 22 22 23 26 24
DOCKED: REMARK SMILES IDX 23 25 25 26 24 27
DOCKED: REMARK H PARENT 9 5
DOCKED: USER                              x       y       z     vdW  Elec       q    Type
DOCKED: USER                           _______ _______ _______ _____ _____    ______ ____
DOCKED: ROOT
DOCKED: ATOM      1  C   UNL     1     140.720  75.136 221.029 -0.22 -0.05    +0.201 C  
DOCKED: ENDROOT
DOCKED: BRANCH   1   2
DOCKED: ATOM      2  N   UNL     1     140.635  74.040 221.992 -0.73 +0.01    -0.244 NA 
DOCKED: BRANCH   2   3
DOCKED: ATOM      3  C   UNL     1     140.120  72.860 221.783 -0.20 -0.03    +0.233 C  
DOCKED: BRANCH   3   4
DOCKED: ATOM      4  O   UNL     1     139.632  72.478 220.530 -0.01 +0.09    -0.492 OA 
DOCKED: ATOM      5  H   UNL     1     139.004  73.041 219.973 +0.05 -0.06    +0.295 HD 
DOCKED: ENDBRANCH   3   4
DOCKED: BRANCH   3   6
DOCKED: ATOM      6  C   UNL     1     140.023  71.893 222.891 -0.29 -0.02    +0.125 A  
DOCKED: ATOM      7  N   UNL     1     140.548  72.227 224.103 -0.13 +0.03    -0.243 NA 
DOCKED: ATOM      8  C   UNL     1     139.447  70.622 222.716 -0.23 -0.01    +0.035 A  
DOCKED: ATOM      9  C   UNL     1     140.533  71.372 225.159 -0.49 -0.01    +0.071 A  
DOCKED: ATOM     10  C   UNL     1     139.417  69.722 223.783 -0.28 -0.00    +0.013 A  
DOCKED: ATOM     11  C   UNL     1     141.088  71.759 226.385 -0.68 -0.00    +0.030 A  
DOCKED: ATOM     12  C   UNL     1     139.963  70.088 225.019 -0.43 -0.00    +0.002 A  
DOCKED: ATOM     13  C   UNL     1     141.079  70.875 227.467 -0.66 -0.00    +0.023 A  
DOCKED: ATOM     14  C   UNL     1     139.957  69.205 226.110 -0.48 -0.00    +0.030 A  
DOCKED: ATOM     15  C   UNL     1     140.515  69.600 227.331 -0.56 -0.01    +0.041 A  
DOCKED: ATOM     16  Cl  UNL     1     140.511  68.495 228.692 -0.69 +0.02    -0.084 Cl 
DOCKED: ENDBRANCH   3   6
DOCKED: ENDBRANCH   2   3
DOCKED: ENDBRANCH   1   2
DOCKED: BRANCH   1  17
DOCKED: ATOM     17  C   UNL     1     139.349  75.680 220.777 -0.16 -0.02    +0.074 C  
DOCKED: ATOM     18  O   UNL     1     138.419  74.896 220.443 -0.03 +0.07    -0.318 OA 
DOCKED: BRANCH  17  19
DOCKED: ATOM     19  N   UNL     1     139.125  77.093 220.812 +0.06 +0.16    -0.646 NA 
DOCKED: BRANCH  19  20
DOCKED: ATOM     20  C   UNL     1     138.654  77.793 222.004 -0.22 +0.02    -0.079 C  
DOCKED: ATOM     21  C   UNL     1     138.106  76.780 223.008 -0.18 +0.00    -0.008 C  
DOCKED: BRANCH  20  22
DOCKED: ATOM     22  C   UNL     1     139.786  78.592 222.615 -0.32 +0.01    -0.063 A  
DOCKED: ATOM     23  C   UNL     1     141.028  77.982 222.868 -0.48 -0.00    +0.002 A  
DOCKED: ATOM     24  C   UNL     1     139.610  79.948 222.949 -0.36 -0.00    +0.002 A  
DOCKED: ATOM     25  C   UNL     1     142.064  78.713 223.458 -0.56 -0.00    +0.000 A  
DOCKED: ATOM     26  C   UNL     1     140.647  80.672 223.543 -0.47 -0.00    +0.000 A  
DOCKED: ATOM     27  C   UNL     1     141.874  80.054 223.799 -0.62 -0.00    +0.000 A  
DOCKED: ENDBRANCH  20  22
DOCKED: ENDBRANCH  19  20
DOCKED: ENDBRANCH  17  19
DOCKED: ENDBRANCH   1  17
DOCKED: TORSDOF 8
DOCKED: TER
DOCKED: ENDMDL
________________________________________________________________________________


    FINAL DOCKED STATE:
    ________________________


Run:   17 / 20
Time taken for this run:   0.043s

DOCKED: MODEL        17
DOCKED: USER    Run = 17
DOCKED: USER
DOCKED: USER    Estimated Free Energy of Binding    =  -7.12 kcal/mol  [=(1)+(2)+(3)-(4)]
DOCKED: USER
DOCKED: USER    (1) Final Intermolecular Energy     =  -9.51 kcal/mol
DOCKED: USER        vdW + Hbond + desolv Energy     =  -9.60 kcal/mol
DOCKED: USER        Electrostatic Energy            =  +0.09 kcal/mol
DOCKED: USER        Moving Ligand-Fixed Receptor    =  -9.51 kcal/mol
DOCKED: USER        Moving Ligand-Moving Receptor   =  +0.00 kcal/mol
DOCKED: USER    (2) Final Total Internal Energy     =  -1.59 kcal/mol
DOCKED: USER    (3) Torsional Free Energy           =  +2.39 kcal/mol
DOCKED: USER    (4) Unbound System's Energy         =  -1.59 kcal/mol
DOCKED: USER
DOCKED: USER
DOCKED: REMARK SMILES C[C@H]([N-]C(=O)C/N=C(\O)c1ccc2cc(Cl)ccc2n1)c1ccccc1
DOCKED: REMARK SMILES IDX 6 1 7 2 8 3 9 4 10 6 20 7 11 8 19 9 12 10 18 11 13 12 17 13
DOCKED: REMARK SMILES IDX 14 14 15 15 16 16 4 17 5 18 3 19 2 20 1 21 21 22 22 23 26 24
DOCKED: REMARK SMILES IDX 23 25 25 26 24 27
DOCKED: REMARK H PARENT 9 5
DOCKED: USER                              x       y       z     vdW  Elec       q    Type
DOCKED: USER                           _______ _______ _______ _____ _____    ______ ____
DOCKED: ROOT
DOCKED: ATOM      1  C   UNL     1     141.388  71.976 221.229 -0.16 -0.02    +0.201 C  
DOCKED: ENDROOT
DOCKED: BRANCH   1   2
DOCKED: ATOM      2  N   UNL     1     141.063  73.354 220.871 -0.14 +0.04    -0.244 NA 
DOCKED: BRANCH   2   3
DOCKED: ATOM      3  C   UNL     1     140.497  74.243 221.640 -0.19 -0.03    +0.233 C  
DOCKED: BRANCH   3   4
DOCKED: ATOM      4  O   UNL     1     139.534  73.893 222.591 -0.55 +0.08    -0.492 OA 
DOCKED: ATOM      5  H   UNL     1     139.563  73.043 223.136 -0.30 -0.08    +0.295 HD 
DOCKED: ENDBRANCH   3   4
DOCKED: BRANCH   3   6
DOCKED: ATOM      6  C   UNL     1     140.854  75.667 221.503 -0.30 -0.03    +0.125 A  
DOCKED: ATOM      7  N   UNL     1     140.322  76.565 222.379 -0.28 +0.06    -0.243 NA 
DOCKED: ATOM      8  C   UNL     1     141.688  76.125 220.469 -0.27 -0.02    +0.035 A  
DOCKED: ATOM      9  C   UNL     1     140.572  77.898 222.292 -0.37 -0.02    +0.071 A  
DOCKED: ATOM     10  C   UNL     1     141.963  77.489 220.353 -0.30 -0.01    +0.013 A  
DOCKED: ATOM     11  C   UNL     1     140.000  78.783 223.213 -0.36 -0.01    +0.030 A  
DOCKED: ATOM     12  C   UNL     1     141.405  78.392 221.265 -0.35 -0.00    +0.002 A  
DOCKED: ATOM     13  C   UNL     1     140.252  80.154 223.115 -0.41 -0.00    +0.023 A  
DOCKED: ATOM     14  C   UNL     1     141.655  79.770 221.173 -0.36 -0.01    +0.030 A  
DOCKED: ATOM     15  C   UNL     1     141.077  80.648 222.098 -0.38 -0.01    +0.041 A  
DOCKED: ATOM     16  Cl  UNL     1     141.385  82.370 221.979 -0.37 +0.01    -0.084 Cl 
DOCKED: ENDBRANCH   3   6
DOCKED: ENDBRANCH   2   3
DOCKED: ENDBRANCH   1   2
DOCKED: BRANCH   1  17
DOCKED: ATOM     17  C   UNL     1     140.317  71.429 222.118 -0.23 -0.01    +0.074 C  
DOCKED: ATOM     18  O   UNL     1     139.121  71.417 221.718 -0.08 +0.06    -0.318 OA 
DOCKED: BRANCH  17  19
DOCKED: ATOM     19  N   UNL     1     140.636  71.020 223.452 +0.10 +0.07    -0.646 NA 
DOCKED: BRANCH  19  20
DOCKED: ATOM     20  C   UNL     1     139.629  70.561 224.405 -0.37 +0.01    -0.079 C  
DOCKED: ATOM     21  C   UNL     1     139.367  69.072 224.192 -0.28 +0.00    -0.008 C  
DOCKED: BRANCH  20  22
DOCKED: ATOM     22  C   UNL     1     140.100  70.824 225.820 -0.49 +0.01    -0.063 A  
DOCKED: ATOM     23  C   UNL     1     140.978  71.888 226.090 -0.62 -0.00    +0.002 A  
DOCKED: ATOM     24  C   UNL     1     139.677  70.002 226.882 -0.50 -0.00    +0.002 A  
DOCKED: ATOM     25  C   UNL     1     141.434  72.113 227.392 -0.80 -0.00    +0.000 A  
DOCKED: ATOM     26  C   UNL     1     140.139  70.228 228.180 -0.62 -0.00    +0.000 A  
DOCKED: ATOM     27  C   UNL     1     141.020  71.283 228.436 -0.60 -0.00    +0.000 A  
DOCKED: ENDBRANCH  20  22
DOCKED: ENDBRANCH  19  20
DOCKED: ENDBRANCH  17  19
DOCKED: ENDBRANCH   1  17
DOCKED: TORSDOF 8
DOCKED: TER
DOCKED: ENDMDL
________________________________________________________________________________


    FINAL DOCKED STATE:
    ________________________


Run:   18 / 20
Time taken for this run:   0.043s

DOCKED: MODEL        18
DOCKED: USER    Run = 18
DOCKED: USER
DOCKED: USER    Estimated Free Energy of Binding    =  -6.75 kcal/mol  [=(1)+(2)+(3)-(4)]
DOCKED: USER
DOCKED: USER    (1) Final Intermolecular Energy     =  -9.13 kcal/mol
DOCKED: USER        vdW + Hbond + desolv Energy     =  -9.30 kcal/mol
DOCKED: USER        Electrostatic Energy            =  +0.16 kcal/mol
DOCKED: USER        Moving Ligand-Fixed Receptor    =  -9.13 kcal/mol
DOCKED: USER        Moving Ligand-Moving Receptor   =  +0.00 kcal/mol
DOCKED: USER    (2) Final Total Internal Energy     =  -1.57 kcal/mol
DOCKED: USER    (3) Torsional Free Energy           =  +2.39 kcal/mol
DOCKED: USER    (4) Unbound System's Energy         =  -1.57 kcal/mol
DOCKED: USER
DOCKED: USER
DOCKED: REMARK SMILES C[C@H]([N-]C(=O)C/N=C(\O)c1ccc2cc(Cl)ccc2n1)c1ccccc1
DOCKED: REMARK SMILES IDX 6 1 7 2 8 3 9 4 10 6 20 7 11 8 19 9 12 10 18 11 13 12 17 13
DOCKED: REMARK SMILES IDX 14 14 15 15 16 16 4 17 5 18 3 19 2 20 1 21 21 22 22 23 26 24
DOCKED: REMARK SMILES IDX 23 25 25 26 24 27
DOCKED: REMARK H PARENT 9 5
DOCKED: USER                              x       y       z     vdW  Elec       q    Type
DOCKED: USER                           _______ _______ _______ _____ _____    ______ ____
DOCKED: ROOT
DOCKED: ATOM      1  C   UNL     1     137.883  74.332 221.315 -0.11 -0.05    +0.201 C  
DOCKED: ENDROOT
DOCKED: BRANCH   1   2
DOCKED: ATOM      2  N   UNL     1     138.665  73.108 221.473 -0.10 +0.06    -0.244 NA 
DOCKED: BRANCH   2   3
DOCKED: ATOM      3  C   UNL     1     139.750  72.966 222.183 -0.19 -0.04    +0.233 C  
DOCKED: BRANCH   3   4
DOCKED: ATOM      4  O   UNL     1     140.873  73.776 221.990 -0.61 +0.01    -0.492 OA 
DOCKED: ATOM      5  H   UNL     1     140.827  74.757 221.752 +0.10 -0.04    +0.295 HD 
DOCKED: ENDBRANCH   3   4
DOCKED: BRANCH   3   6
DOCKED: ATOM      6  C   UNL     1     139.822  71.912 223.213 -0.29 -0.02    +0.125 A  
DOCKED: ATOM      7  N   UNL     1     140.327  72.225 224.439 -0.04 +0.04    -0.243 NA 
DOCKED: ATOM      8  C   UNL     1     139.426  70.590 222.946 -0.25 -0.01    +0.035 A  
DOCKED: ATOM      9  C   UNL     1     140.461  71.299 225.424 -0.51 -0.01    +0.071 A  
DOCKED: ATOM     10  C   UNL     1     139.554  69.616 223.939 -0.28 -0.00    +0.013 A  
DOCKED: ATOM     11  C   UNL     1     140.990  71.666 226.667 -0.70 -0.00    +0.030 A  
DOCKED: ATOM     12  C   UNL     1     140.076  69.961 225.191 -0.44 -0.00    +0.002 A  
DOCKED: ATOM     13  C   UNL     1     141.136  70.710 227.675 -0.59 -0.00    +0.023 A  
DOCKED: ATOM     14  C   UNL     1     140.225  69.005 226.208 -0.52 -0.01    +0.030 A  
DOCKED: ATOM     15  C   UNL     1     140.755  69.382 227.448 -0.57 -0.01    +0.041 A  
DOCKED: ATOM     16  Cl  UNL     1     140.945  68.186 228.717 -0.68 +0.02    -0.084 Cl 
DOCKED: ENDBRANCH   3   6
DOCKED: ENDBRANCH   2   3
DOCKED: ENDBRANCH   1   2
DOCKED: BRANCH   1  17
DOCKED: ATOM     17  C   UNL     1     138.810  75.499 221.186 -0.18 -0.02    +0.074 C  
DOCKED: ATOM     18  O   UNL     1     139.571  75.581 220.183 -0.04 +0.08    -0.318 OA 
DOCKED: BRANCH  17  19
DOCKED: ATOM     19  N   UNL     1     138.904  76.457 222.244 -0.04 +0.13    -0.646 NA 
DOCKED: BRANCH  19  20
DOCKED: ATOM     20  C   UNL     1     138.692  77.887 222.043 -0.22 +0.02    -0.079 C  
DOCKED: ATOM     21  C   UNL     1     137.377  78.306 222.698 -0.21 +0.00    -0.008 C  
DOCKED: BRANCH  20  22
DOCKED: ATOM     22  C   UNL     1     139.851  78.669 222.626 -0.32 +0.01    -0.063 A  
DOCKED: ATOM     23  C   UNL     1     141.069  78.025 222.908 -0.49 -0.00    +0.002 A  
DOCKED: ATOM     24  C   UNL     1     139.724  80.043 222.904 -0.36 -0.00    +0.002 A  
DOCKED: ATOM     25  C   UNL     1     142.130  78.741 223.471 -0.55 -0.00    +0.000 A  
DOCKED: ATOM     26  C   UNL     1     140.785  80.752 223.472 -0.49 -0.00    +0.000 A  
DOCKED: ATOM     27  C   UNL     1     141.988  80.101 223.757 -0.63 -0.00    +0.000 A  
DOCKED: ENDBRANCH  20  22
DOCKED: ENDBRANCH  19  20
DOCKED: ENDBRANCH  17  19
DOCKED: ENDBRANCH   1  17
DOCKED: TORSDOF 8
DOCKED: TER
DOCKED: ENDMDL
________________________________________________________________________________


    FINAL DOCKED STATE:
    ________________________


Run:   19 / 20
Time taken for this run:   0.043s

DOCKED: MODEL        19
DOCKED: USER    Run = 19
DOCKED: USER
DOCKED: USER    Estimated Free Energy of Binding    =  -6.79 kcal/mol  [=(1)+(2)+(3)-(4)]
DOCKED: USER
DOCKED: USER    (1) Final Intermolecular Energy     =  -9.18 kcal/mol
DOCKED: USER        vdW + Hbond + desolv Energy     =  -9.38 kcal/mol
DOCKED: USER        Electrostatic Energy            =  +0.20 kcal/mol
DOCKED: USER        Moving Ligand-Fixed Receptor    =  -9.18 kcal/mol
DOCKED: USER        Moving Ligand-Moving Receptor   =  +0.00 kcal/mol
DOCKED: USER    (2) Final Total Internal Energy     =  -1.56 kcal/mol
DOCKED: USER    (3) Torsional Free Energy           =  +2.39 kcal/mol
DOCKED: USER    (4) Unbound System's Energy         =  -1.56 kcal/mol
DOCKED: USER
DOCKED: USER
DOCKED: REMARK SMILES C[C@H]([N-]C(=O)C/N=C(\O)c1ccc2cc(Cl)ccc2n1)c1ccccc1
DOCKED: REMARK SMILES IDX 6 1 7 2 8 3 9 4 10 6 20 7 11 8 19 9 12 10 18 11 13 12 17 13
DOCKED: REMARK SMILES IDX 14 14 15 15 16 16 4 17 5 18 3 19 2 20 1 21 21 22 22 23 26 24
DOCKED: REMARK SMILES IDX 23 25 25 26 24 27
DOCKED: REMARK H PARENT 9 5
DOCKED: USER                              x       y       z     vdW  Elec       q    Type
DOCKED: USER                           _______ _______ _______ _____ _____    ______ ____
DOCKED: ROOT
DOCKED: ATOM      1  C   UNL     1     140.966  74.961 221.050 -0.22 -0.05    +0.201 C  
DOCKED: ENDROOT
DOCKED: BRANCH   1   2
DOCKED: ATOM      2  N   UNL     1     140.554  74.022 222.091 -0.72 -0.00    -0.244 NA 
DOCKED: BRANCH   2   3
DOCKED: ATOM      3  C   UNL     1     139.941  72.884 221.912 -0.20 -0.03    +0.233 C  
DOCKED: BRANCH   3   4
DOCKED: ATOM      4  O   UNL     1     139.283  72.579 220.716 -0.01 +0.09    -0.492 OA 
DOCKED: ATOM      5  H   UNL     1     138.922  73.273 220.077 +0.05 -0.06    +0.295 HD 
DOCKED: ENDBRANCH   3   4
DOCKED: BRANCH   3   6
DOCKED: ATOM      6  C   UNL     1     139.911  71.886 222.996 -0.29 -0.02    +0.125 A  
DOCKED: ATOM      7  N   UNL     1     140.442  72.214 224.206 -0.12 +0.03    -0.243 NA 
DOCKED: ATOM      8  C   UNL     1     139.393  70.594 222.797 -0.23 -0.01    +0.035 A  
DOCKED: ATOM      9  C   UNL     1     140.487  71.334 225.240 -0.49 -0.01    +0.071 A  
DOCKED: ATOM     10  C   UNL     1     139.427  69.667 223.841 -0.28 -0.00    +0.013 A  
DOCKED: ATOM     11  C   UNL     1     141.046  71.716 226.465 -0.69 -0.00    +0.030 A  
DOCKED: ATOM     12  C   UNL     1     139.978  70.027 225.076 -0.43 -0.00    +0.002 A  
DOCKED: ATOM     13  C   UNL     1     141.100  70.805 227.524 -0.63 -0.00    +0.023 A  
DOCKED: ATOM     14  C   UNL     1     140.034  69.118 226.144 -0.50 -0.01    +0.030 A  
DOCKED: ATOM     15  C   UNL     1     140.596  69.508 227.365 -0.57 -0.01    +0.041 A  
DOCKED: ATOM     16  Cl  UNL     1     140.671  68.370 228.697 -0.68 +0.02    -0.084 Cl 
DOCKED: ENDBRANCH   3   6
DOCKED: ENDBRANCH   2   3
DOCKED: ENDBRANCH   1   2
DOCKED: BRANCH   1  17
DOCKED: ATOM     17  C   UNL     1     139.752  75.595 220.447 -0.14 -0.02    +0.074 C  
DOCKED: ATOM     18  O   UNL     1     138.994  74.910 219.707 -0.01 +0.07    -0.318 OA 
DOCKED: BRANCH  17  19
DOCKED: ATOM     19  N   UNL     1     139.515  76.995 220.625 +0.06 +0.17    -0.646 NA 
DOCKED: BRANCH  19  20
DOCKED: ATOM     20  C   UNL     1     138.901  77.550 221.828 -0.22 +0.02    -0.079 C  
DOCKED: ATOM     21  C   UNL     1     138.453  76.413 222.744 -0.28 +0.00    -0.008 C  
DOCKED: BRANCH  20  22
DOCKED: ATOM     22  C   UNL     1     139.886  78.453 222.541 -0.32 +0.01    -0.063 A  
DOCKED: ATOM     23  C   UNL     1     139.506  79.750 222.930 -0.35 -0.00    +0.002 A  
DOCKED: ATOM     24  C   UNL     1     141.196  78.015 222.813 -0.48 -0.00    +0.002 A  
DOCKED: ATOM     25  C   UNL     1     140.424  80.593 223.563 -0.45 -0.00    +0.000 A  
DOCKED: ATOM     26  C   UNL     1     142.110  78.863 223.442 -0.57 -0.00    +0.000 A  
DOCKED: ATOM     27  C   UNL     1     141.725  80.153 223.816 -0.60 -0.00    +0.000 A  
DOCKED: ENDBRANCH  20  22
DOCKED: ENDBRANCH  19  20
DOCKED: ENDBRANCH  17  19
DOCKED: ENDBRANCH   1  17
DOCKED: TORSDOF 8
DOCKED: TER
DOCKED: ENDMDL
________________________________________________________________________________


    FINAL DOCKED STATE:
    ________________________


Run:   20 / 20
Time taken for this run:   0.043s

DOCKED: MODEL        20
DOCKED: USER    Run = 20
DOCKED: USER
DOCKED: USER    Estimated Free Energy of Binding    =  -6.91 kcal/mol  [=(1)+(2)+(3)-(4)]
DOCKED: USER
DOCKED: USER    (1) Final Intermolecular Energy     =  -9.30 kcal/mol
DOCKED: USER        vdW + Hbond + desolv Energy     =  -9.33 kcal/mol
DOCKED: USER        Electrostatic Energy            =  +0.03 kcal/mol
DOCKED: USER        Moving Ligand-Fixed Receptor    =  -9.30 kcal/mol
DOCKED: USER        Moving Ligand-Moving Receptor   =  +0.00 kcal/mol
DOCKED: USER    (2) Final Total Internal Energy     =  -1.64 kcal/mol
DOCKED: USER    (3) Torsional Free Energy           =  +2.39 kcal/mol
DOCKED: USER    (4) Unbound System's Energy         =  -1.64 kcal/mol
DOCKED: USER
DOCKED: USER
DOCKED: REMARK SMILES C[C@H]([N-]C(=O)C/N=C(\O)c1ccc2cc(Cl)ccc2n1)c1ccccc1
DOCKED: REMARK SMILES IDX 6 1 7 2 8 3 9 4 10 6 20 7 11 8 19 9 12 10 18 11 13 12 17 13
DOCKED: REMARK SMILES IDX 14 14 15 15 16 16 4 17 5 18 3 19 2 20 1 21 21 22 22 23 26 24
DOCKED: REMARK SMILES IDX 23 25 25 26 24 27
DOCKED: REMARK H PARENT 9 5
DOCKED: USER                              x       y       z     vdW  Elec       q    Type
DOCKED: USER                           _______ _______ _______ _____ _____    ______ ____
DOCKED: ROOT
DOCKED: ATOM      1  C   UNL     1     140.768  71.423 220.886 -0.11 -0.03    +0.201 C  
DOCKED: ENDROOT
DOCKED: BRANCH   1   2
DOCKED: ATOM      2  N   UNL     1     140.727  72.877 220.744 -0.10 +0.04    -0.244 NA 
DOCKED: BRANCH   2   3
DOCKED: ATOM      3  C   UNL     1     140.534  73.745 221.698 -0.19 -0.02    +0.233 C  
DOCKED: BRANCH   3   4
DOCKED: ATOM      4  O   UNL     1     139.950  73.388 222.917 -0.43 +0.02    -0.492 OA 
DOCKED: ATOM      5  H   UNL     1     139.269  72.650 223.021 -0.18 -0.10    +0.295 HD 
DOCKED: ENDBRANCH   3   4
DOCKED: BRANCH   3   6
DOCKED: ATOM      6  C   UNL     1     140.919  75.155 221.498 -0.29 -0.03    +0.125 A  
DOCKED: ATOM      7  N   UNL     1     140.409  76.100 222.335 -0.37 +0.05    -0.243 NA 
DOCKED: ATOM      8  C   UNL     1     141.757  75.550 220.441 -0.27 -0.01    +0.035 A  
DOCKED: ATOM      9  C   UNL     1     140.685  77.423 222.189 -0.38 -0.02    +0.071 A  
DOCKED: ATOM     10  C   UNL     1     142.058  76.902 220.264 -0.28 -0.01    +0.013 A  
DOCKED: ATOM     11  C   UNL     1     140.135  78.358 223.072 -0.35 -0.01    +0.030 A  
DOCKED: ATOM     12  C   UNL     1     141.522  77.855 221.137 -0.33 -0.00    +0.002 A  
DOCKED: ATOM     13  C   UNL     1     140.413  79.719 222.913 -0.40 -0.00    +0.023 A  
DOCKED: ATOM     14  C   UNL     1     141.798  79.223 220.984 -0.34 -0.02    +0.030 A  
DOCKED: ATOM     15  C   UNL     1     141.243  80.151 221.871 -0.37 -0.01    +0.041 A  
DOCKED: ATOM     16  Cl  UNL     1     141.584  81.860 221.676 -0.42 +0.02    -0.084 Cl 
DOCKED: ENDBRANCH   3   6
DOCKED: ENDBRANCH   2   3
DOCKED: ENDBRANCH   1   2
DOCKED: BRANCH   1  17
DOCKED: ATOM     17  C   UNL     1     139.786  71.000 221.932 -0.18 -0.01    +0.074 C  
DOCKED: ATOM     18  O   UNL     1     138.553  70.997 221.665 -0.05 +0.06    -0.318 OA 
DOCKED: BRANCH  17  19
DOCKED: ATOM     19  N   UNL     1     140.238  70.703 223.257 +0.08 +0.09    -0.646 NA 
DOCKED: BRANCH  19  20
DOCKED: ATOM     20  C   UNL     1     139.327  70.400 224.358 -0.34 +0.01    -0.079 C  
DOCKED: ATOM     21  C   UNL     1     138.962  68.917 224.324 -0.35 +0.00    -0.008 C  
DOCKED: BRANCH  20  22
DOCKED: ATOM     22  C   UNL     1     139.976  70.760 225.679 -0.47 +0.01    -0.063 A  
DOCKED: ATOM     23  C   UNL     1     139.737  69.977 226.822 -0.51 -0.00    +0.002 A  
DOCKED: ATOM     24  C   UNL     1     140.813  71.886 225.785 -0.52 -0.00    +0.002 A  
DOCKED: ATOM     25  C   UNL     1     140.314  70.325 228.047 -0.64 -0.00    +0.000 A  
DOCKED: ATOM     26  C   UNL     1     141.382  72.232 227.013 -0.77 -0.00    +0.000 A  
DOCKED: ATOM     27  C   UNL     1     141.131  71.453 228.145 -0.76 -0.00    +0.000 A  
DOCKED: ENDBRANCH  20  22
DOCKED: ENDBRANCH  19  20
DOCKED: ENDBRANCH  17  19
DOCKED: ENDBRANCH   1  17
DOCKED: TORSDOF 8
DOCKED: TER
DOCKED: ENDMDL
________________________________________________________________________________


    CLUSTERING HISTOGRAM
    ____________________


________________________________________________________________________________
     |           |     |           |     |
Clus | Lowest    | Run | Mean      | Num | Histogram
-ter | Binding   |     | Binding   | in  |
Rank | Energy    |     | Energy    | Clus|    5    10   15   20   25   30   35
_____|___________|_____|___________|_____|____:____|____:____|____:____|____:___
   1 |     -7.69 |  15 |     -7.14 |   7 |#######
   2 |     -7.59 |  13 |     -7.21 |   2 |##
   3 |     -7.42 |   2 |     -7.10 |   5 |#####
   4 |     -7.36 |  12 |     -7.06 |   4 |####
   5 |     -6.57 |   9 |     -6.57 |   1 |#
   6 |     -6.35 |   1 |     -6.35 |   1 |#
_____|___________|_____|___________|_____|______________________________________


    RMSD TABLE
    __________


_______________________________________________________________________
     |      |      |           |         |                 |
Rank | Sub- | Run  | Binding   | Cluster | Reference       | Grep
     | Rank |      | Energy    | RMSD    | RMSD            | Pattern
_____|______|______|___________|_________|_________________|___________
   1      1     15       -7.69      0.00    271.53           RANKING
   1      2      3       -7.55      1.11    271.34           RANKING
   1      3     14       -7.29      1.34    271.53           RANKING
   1      4      8       -7.14      1.18    271.70           RANKING
   1      5     19       -6.79      1.14    271.12           RANKING
   1      6     16       -6.78      1.11    271.13           RANKING
   1      7     18       -6.75      1.28    271.33           RANKING
   2      1     13       -7.59      0.00    270.66           RANKING
   2      2      4       -6.84      2.00    270.88           RANKING
   3      1      2       -7.42      0.00    271.30           RANKING
   3      2     17       -7.12      0.90    271.37           RANKING
   3      3      7       -7.10      1.04    271.31           RANKING
   3      4     10       -6.95      1.66    270.79           RANKING
   3      5     20       -6.91      1.00    271.14           RANKING
   4      1     12       -7.36      0.00    270.91           RANKING
   4      2     11       -7.03      1.00    270.84           RANKING
   4      3      5       -7.03      0.77    270.80           RANKING
   4      4      6       -6.83      1.28    270.51           RANKING
   5      1      9       -6.57      0.00    270.69           RANKING
   6      1      1       -6.35      0.00    270.73           RANKING

Run time 0.800 sec
Idle time 0.000 sec
