AutoDock-GPU version: v1.6

**********************************************************
**    AutoDock-GPU AUTODOCKTOOLS-COMPATIBLE DLG FILE    **
**********************************************************


    DOCKING PARAMETERS
    ________________________


Ligand file:                               /home/a/REINVENT4/ReinventStudies/pleaseWork/justmol2mol_4_Compounds_ontop/graph-dock-8u2o5u/graph-DockGPU/node-autodockgpu/inputs/BWMAAEGAJJXAME-UVCZCRFBNA-M.pdbqt
Grid fld file:                             /home/a/REINVENT4/ReinventStudies/mols/Rad51/maps/rad51_receptor.maps.fld

Random seed:                               42
Number of runs:                            20
Number of energy evaluations:              1132076
Number of generations:                     42000
Size of population:                        150
Rate of crossover:                         80.000000%
Tournament selection probability limit:    60.000000%
Rate of mutation:                          2.000000%
Maximal allowed delta movement:            +/- 6.000000A
Maximal allowed delta angle:               +/- 90.000000

Rate of local search:                      100.000000%
Maximal number of local search iterations: 300
Rho lower bound:                           0.010000
Spread of local search delta movement:     2.000000A
Spread of local search delta angle:        74.999999
Limit of consecutive successes/failures:   4

Handle symmetry during clustering:         YES
RMSD tolerance:                            2.000000A

Program call in command line was:          /home/a/REINVENT4/ReinventStudies/adgpu-v1.6_linux_x64_cuda12_128wi --filelist batch.txt --heuristics 1 --nrun 20 --psize 150 --lsit 300 --seed 42 --heurmax 12000000 


    GRID PARAMETERS
    ________________________


Receptor name:                             rad51_receptor
Number of grid points (x, y, z):           53, 53, 53
Grid center (x, y, z):                     139.950000, 75.640000, 221.970000A
Grid size (x, y, z):                       19.500000, 19.500000, 19.500000A
Grid spacing:                              0.375000A


    LIGAND PARAMETERS
    ________________________


Ligand name:                               /home/a/REINVENT4/ReinventStudies/pleaseWork/justmol2mol_4_Compounds_ontop/graph-dock-8u2o5u/graph-DockGPU/node-autodockgpu/inputs/BWMAAEGAJJXAME-UVCZCRFBNA-M
Number of atoms:                           27
Number of rotatable bonds:                 6
Number of atom types:                      7


    DUMMY DATA (only for ADT-compatibility)
    ________________________


DPF> outlev 1
DPF> ga_run 20
DPF> fld /home/a/REINVENT4/ReinventStudies/mols/Rad51/maps/rad51_receptor.maps.fld
DPF> move /home/a/REINVENT4/ReinventStudies/pleaseWork/justmol2mol_4_Compounds_ontop/graph-dock-8u2o5u/graph-DockGPU/node-autodockgpu/inputs/BWMAAEGAJJXAME-UVCZCRFBNA-M.pdbqt


    COUNTER STATES
    ________________________


Number of energy evaluations performed:    1006855
Number of generations used:                50


    INPUT LIGAND PDBQT FILE:
    ________________________


INPUT-LIGAND-PDBQT: REMARK SMILES C[C@H](NC(=O)C[N-]C(=O)c1ccc2cc(Cl)ccc2n1)c1ccccc1
INPUT-LIGAND-PDBQT: REMARK SMILES IDX 6 1 4 2 3 3 5 5 2 6 1 7 21 8 22 9 26 10 23 11 25 12 24 13
INPUT-LIGAND-PDBQT: REMARK SMILES IDX 7 14 8 15 9 16 10 17 11 18 20 19 12 20 19 21 13 22 18 23
INPUT-LIGAND-PDBQT: REMARK SMILES IDX 14 24 17 25 15 26 16 27
INPUT-LIGAND-PDBQT: REMARK H PARENT 3 4
INPUT-LIGAND-PDBQT: ROOT
INPUT-LIGAND-PDBQT: ATOM      1  C   UNL     1       0.520  -2.644   0.709  1.00  0.00    -0.015 C 
INPUT-LIGAND-PDBQT: ENDROOT
INPUT-LIGAND-PDBQT: BRANCH   1   2
INPUT-LIGAND-PDBQT: ATOM      2  C   UNL     1      -0.127  -1.504   1.439  1.00  0.00     0.202 C 
INPUT-LIGAND-PDBQT: ATOM      3  N   UNL     1       0.630  -0.674   2.333  1.00  0.00    -0.351 N 
INPUT-LIGAND-PDBQT: ATOM      4  H   UNL     1       1.601  -0.961   2.588  1.00  0.00     0.164 HD
INPUT-LIGAND-PDBQT: ATOM      5  O   UNL     1      -1.365  -1.313   1.298  1.00  0.00    -0.277 OA
INPUT-LIGAND-PDBQT: BRANCH   3   6
INPUT-LIGAND-PDBQT: ATOM      6  C   UNL     1       0.071   0.565   2.883  1.00  0.00     0.109 C 
INPUT-LIGAND-PDBQT: ATOM      7  C   UNL     1       0.971   1.124   3.990  1.00  0.00     0.036 C 
INPUT-LIGAND-PDBQT: BRANCH   6   8
INPUT-LIGAND-PDBQT: ATOM      8  C   UNL     1      -0.119   1.585   1.780  1.00  0.00    -0.026 A 
INPUT-LIGAND-PDBQT: ATOM      9  C   UNL     1      -1.393   2.118   1.518  1.00  0.00     0.006 A 
INPUT-LIGAND-PDBQT: ATOM     10  C   UNL     1       0.970   2.000   0.992  1.00  0.00     0.006 A 
INPUT-LIGAND-PDBQT: ATOM     11  C   UNL     1      -1.572   3.052   0.494  1.00  0.00     0.000 A 
INPUT-LIGAND-PDBQT: ATOM     12  C   UNL     1       0.789   2.945  -0.021  1.00  0.00     0.000 A 
INPUT-LIGAND-PDBQT: ATOM     13  C   UNL     1      -0.481   3.467  -0.274  1.00  0.00     0.000 A 
INPUT-LIGAND-PDBQT: ENDBRANCH   6   8
INPUT-LIGAND-PDBQT: ENDBRANCH   3   6
INPUT-LIGAND-PDBQT: ENDBRANCH   1   2
INPUT-LIGAND-PDBQT: BRANCH   1  14
INPUT-LIGAND-PDBQT: ATOM     14  N   UNL     1       1.889  -2.325   0.312  1.00  0.00    -0.640 NA
INPUT-LIGAND-PDBQT: BRANCH  14  15
INPUT-LIGAND-PDBQT: ATOM     15  C   UNL     1       2.346  -1.376  -0.667  1.00  0.00     0.101 C 
INPUT-LIGAND-PDBQT: ATOM     16  O   UNL     1       3.590  -1.282  -0.849  1.00  0.00    -0.313 OA
INPUT-LIGAND-PDBQT: BRANCH  15  17
INPUT-LIGAND-PDBQT: ATOM     17  C   UNL     1       1.440  -0.498  -1.457  1.00  0.00     0.088 A 
INPUT-LIGAND-PDBQT: ATOM     18  C   UNL     1       1.974   0.480  -2.317  1.00  0.00     0.031 A 
INPUT-LIGAND-PDBQT: ATOM     19  N   UNL     1       0.089  -0.611  -1.346  1.00  0.00    -0.246 NA
INPUT-LIGAND-PDBQT: ATOM     20  C   UNL     1       1.120   1.331  -3.020  1.00  0.00     0.013 A 
INPUT-LIGAND-PDBQT: ATOM     21  C   UNL     1      -0.769   0.202  -2.016  1.00  0.00     0.071 A 
INPUT-LIGAND-PDBQT: ATOM     22  C   UNL     1      -0.265   1.208  -2.867  1.00  0.00     0.002 A 
INPUT-LIGAND-PDBQT: ATOM     23  C   UNL     1      -2.152   0.056  -1.850  1.00  0.00     0.030 A 
INPUT-LIGAND-PDBQT: ATOM     24  C   UNL     1      -1.151   2.066  -3.533  1.00  0.00     0.030 A 
INPUT-LIGAND-PDBQT: ATOM     25  C   UNL     1      -3.030   0.914  -2.519  1.00  0.00     0.023 A 
INPUT-LIGAND-PDBQT: ATOM     26  C   UNL     1      -2.531   1.920  -3.355  1.00  0.00     0.041 A 
INPUT-LIGAND-PDBQT: ATOM     27  Cl  UNL     1      -3.640   2.998  -4.185  1.00  0.00    -0.084 Cl
INPUT-LIGAND-PDBQT: ENDBRANCH  15  17
INPUT-LIGAND-PDBQT: ENDBRANCH  14  15
INPUT-LIGAND-PDBQT: ENDBRANCH   1  14
INPUT-LIGAND-PDBQT: TORSDOF 6


    FINAL DOCKED STATE:
    ________________________


Run:   1 / 20
Time taken for this run:   0.038s

DOCKED: MODEL        1
DOCKED: USER    Run = 1
DOCKED: USER
DOCKED: USER    Estimated Free Energy of Binding    =  -5.97 kcal/mol  [=(1)+(2)+(3)-(4)]
DOCKED: USER
DOCKED: USER    (1) Final Intermolecular Energy     =  -7.76 kcal/mol
DOCKED: USER        vdW + Hbond + desolv Energy     =  -8.07 kcal/mol
DOCKED: USER        Electrostatic Energy            =  +0.32 kcal/mol
DOCKED: USER        Moving Ligand-Fixed Receptor    =  -7.76 kcal/mol
DOCKED: USER        Moving Ligand-Moving Receptor   =  +0.00 kcal/mol
DOCKED: USER    (2) Final Total Internal Energy     =  -3.30 kcal/mol
DOCKED: USER    (3) Torsional Free Energy           =  +1.79 kcal/mol
DOCKED: USER    (4) Unbound System's Energy         =  -3.30 kcal/mol
DOCKED: USER
DOCKED: USER
DOCKED: REMARK SMILES C[C@H](NC(=O)C[N-]C(=O)c1ccc2cc(Cl)ccc2n1)c1ccccc1
DOCKED: REMARK SMILES IDX 6 1 4 2 3 3 5 5 2 6 1 7 21 8 22 9 26 10 23 11 25 12 24 13
DOCKED: REMARK SMILES IDX 7 14 8 15 9 16 10 17 11 18 20 19 12 20 19 21 13 22 18 23
DOCKED: REMARK SMILES IDX 14 24 17 25 15 26 16 27
DOCKED: REMARK H PARENT 3 4
DOCKED: USER                              x       y       z     vdW  Elec       q    Type
DOCKED: USER                           _______ _______ _______ _____ _____    ______ ____
DOCKED: ROOT
DOCKED: ATOM      1  C   UNL     1     142.375  75.629 220.081 -0.31 +0.01    -0.015 C  
DOCKED: ENDROOT
DOCKED: BRANCH   1   2
DOCKED: ATOM      2  C   UNL     1     142.378  77.083 219.711 -0.24 -0.13    +0.202 C  
DOCKED: ATOM      3  N   UNL     1     141.360  77.972 220.198 -0.09 +0.18    -0.351 N  
DOCKED: ATOM      4  H   UNL     1     140.531  77.569 220.689 +0.07 -0.06    +0.164 HD 
DOCKED: ATOM      5  O   UNL     1     143.261  77.510 218.920 -0.25 +0.23    -0.277 OA 
DOCKED: BRANCH   3   6
DOCKED: ATOM      6  C   UNL     1     141.468  79.424 220.026 -0.24 -0.05    +0.109 C  
DOCKED: ATOM      7  C   UNL     1     140.163  80.005 219.471 -0.12 -0.01    +0.036 C  
DOCKED: BRANCH   6   8
DOCKED: ATOM      8  C   UNL     1     141.829  80.079 221.342 -0.40 +0.01    -0.026 A  
DOCKED: ATOM      9  C   UNL     1     142.568  79.373 222.307 -0.50 -0.00    +0.006 A  
DOCKED: ATOM     10  C   UNL     1     141.416  81.393 221.626 -0.41 -0.00    +0.006 A  
DOCKED: ATOM     11  C   UNL     1     142.894  79.972 223.526 -0.60 -0.00    +0.000 A  
DOCKED: ATOM     12  C   UNL     1     141.757  81.994 222.841 -0.36 -0.00    +0.000 A  
DOCKED: ATOM     13  C   UNL     1     142.490  81.283 223.793 -0.62 -0.00    +0.000 A  
DOCKED: ENDBRANCH   6   8
DOCKED: ENDBRANCH   3   6
DOCKED: ENDBRANCH   1   2
DOCKED: BRANCH   1  14
DOCKED: ATOM     14  N   UNL     1     141.022  75.135 220.324 +0.02 +0.19    -0.640 NA 
DOCKED: BRANCH  14  15
DOCKED: ATOM     15  C   UNL     1     140.269  75.135 221.550 -0.29 -0.02    +0.101 C  
DOCKED: ATOM     16  O   UNL     1     140.358  74.116 222.286 -0.80 -0.02    -0.313 OA 
DOCKED: BRANCH  15  17
DOCKED: ATOM     17  C   UNL     1     139.388  76.254 221.982 -0.29 -0.02    +0.088 A  
DOCKED: ATOM     18  C   UNL     1     138.029  76.267 221.618 -0.19 -0.01    +0.031 A  
DOCKED: ATOM     19  N   UNL     1     139.884  77.287 222.715 -0.20 +0.05    -0.246 NA 
DOCKED: ATOM     20  C   UNL     1     137.219  77.342 221.987 -0.17 -0.00    +0.013 A  
DOCKED: ATOM     21  C   UNL     1     139.122  78.348 223.090 -0.27 -0.01    +0.071 A  
DOCKED: ATOM     22  C   UNL     1     137.762  78.403 222.719 -0.24 -0.00    +0.002 A  
DOCKED: ATOM     23  C   UNL     1     139.688  79.396 223.827 -0.42 -0.00    +0.030 A  
DOCKED: ATOM     24  C   UNL     1     136.985  79.513 223.080 -0.20 -0.00    +0.030 A  
DOCKED: ATOM     25  C   UNL     1     138.907  80.499 224.185 -0.38 -0.00    +0.023 A  
DOCKED: ATOM     26  C   UNL     1     137.560  80.560 223.808 -0.30 -0.00    +0.041 A  
DOCKED: ATOM     27  Cl  UNL     1     136.588  81.952 224.255 -0.30 +0.01    -0.084 Cl 
DOCKED: ENDBRANCH  15  17
DOCKED: ENDBRANCH  14  15
DOCKED: ENDBRANCH   1  14
DOCKED: TORSDOF 6
DOCKED: TER
DOCKED: ENDMDL
________________________________________________________________________________


    FINAL DOCKED STATE:
    ________________________


Run:   2 / 20
Time taken for this run:   0.038s

DOCKED: MODEL        2
DOCKED: USER    Run = 2
DOCKED: USER
DOCKED: USER    Estimated Free Energy of Binding    =  -5.91 kcal/mol  [=(1)+(2)+(3)-(4)]
DOCKED: USER
DOCKED: USER    (1) Final Intermolecular Energy     =  -7.70 kcal/mol
DOCKED: USER        vdW + Hbond + desolv Energy     =  -8.03 kcal/mol
DOCKED: USER        Electrostatic Energy            =  +0.33 kcal/mol
DOCKED: USER        Moving Ligand-Fixed Receptor    =  -7.70 kcal/mol
DOCKED: USER        Moving Ligand-Moving Receptor   =  +0.00 kcal/mol
DOCKED: USER    (2) Final Total Internal Energy     =  -3.57 kcal/mol
DOCKED: USER    (3) Torsional Free Energy           =  +1.79 kcal/mol
DOCKED: USER    (4) Unbound System's Energy         =  -3.57 kcal/mol
DOCKED: USER
DOCKED: USER
DOCKED: REMARK SMILES C[C@H](NC(=O)C[N-]C(=O)c1ccc2cc(Cl)ccc2n1)c1ccccc1
DOCKED: REMARK SMILES IDX 6 1 4 2 3 3 5 5 2 6 1 7 21 8 22 9 26 10 23 11 25 12 24 13
DOCKED: REMARK SMILES IDX 7 14 8 15 9 16 10 17 11 18 20 19 12 20 19 21 13 22 18 23
DOCKED: REMARK SMILES IDX 14 24 17 25 15 26 16 27
DOCKED: REMARK H PARENT 3 4
DOCKED: USER                              x       y       z     vdW  Elec       q    Type
DOCKED: USER                           _______ _______ _______ _____ _____    ______ ____
DOCKED: ROOT
DOCKED: ATOM      1  C   UNL     1     142.423  75.367 219.748 -0.29 +0.01    -0.015 C  
DOCKED: ENDROOT
DOCKED: BRANCH   1   2
DOCKED: ATOM      2  C   UNL     1     142.109  76.800 219.434 -0.21 -0.11    +0.202 C  
DOCKED: ATOM      3  N   UNL     1     141.905  77.759 220.483 -0.13 +0.22    -0.351 N  
DOCKED: ATOM      4  H   UNL     1     141.829  77.421 221.468 -0.26 -0.11    +0.164 HD 
DOCKED: ATOM      5  O   UNL     1     141.972  77.145 218.229 -0.12 +0.15    -0.277 OA 
DOCKED: BRANCH   3   6
DOCKED: ATOM      6  C   UNL     1     141.812  79.194 220.198 -0.24 -0.06    +0.109 C  
DOCKED: ATOM      7  C   UNL     1     140.488  79.526 219.502 -0.14 -0.01    +0.036 C  
DOCKED: BRANCH   6   8
DOCKED: ATOM      8  C   UNL     1     141.959  79.989 221.478 -0.41 +0.01    -0.026 A  
DOCKED: ATOM      9  C   UNL     1     141.386  81.268 221.589 -0.41 -0.00    +0.006 A  
DOCKED: ATOM     10  C   UNL     1     142.684  79.469 222.566 -0.54 -0.00    +0.006 A  
DOCKED: ATOM     11  C   UNL     1     141.529  82.007 222.767 -0.37 -0.00    +0.000 A  
DOCKED: ATOM     12  C   UNL     1     142.812  80.206 223.746 -0.64 -0.00    +0.000 A  
DOCKED: ATOM     13  C   UNL     1     142.240  81.476 223.845 -0.61 -0.00    +0.000 A  
DOCKED: ENDBRANCH   6   8
DOCKED: ENDBRANCH   3   6
DOCKED: ENDBRANCH   1   2
DOCKED: BRANCH   1  14
DOCKED: ATOM     14  N   UNL     1     142.026  75.011 221.107 +0.03 +0.23    -0.640 NA 
DOCKED: BRANCH  14  15
DOCKED: ATOM     15  C   UNL     1     140.704  74.919 221.666 -0.26 -0.02    +0.101 C  
DOCKED: ATOM     16  O   UNL     1     140.293  73.775 222.001 -0.80 +0.02    -0.313 OA 
DOCKED: BRANCH  15  17
DOCKED: ATOM     17  C   UNL     1     139.800  76.087 221.853 -0.30 -0.02    +0.088 A  
DOCKED: ATOM     18  C   UNL     1     138.605  76.183 221.115 -0.15 -0.01    +0.031 A  
DOCKED: ATOM     19  N   UNL     1     140.122  77.084 222.720 -0.21 +0.06    -0.246 NA 
DOCKED: ATOM     20  C   UNL     1     137.785  77.302 221.261 -0.12 -0.00    +0.013 A  
DOCKED: ATOM     21  C   UNL     1     139.345  78.187 222.885 -0.27 -0.01    +0.071 A  
DOCKED: ATOM     22  C   UNL     1     138.153  78.325 222.142 -0.21 -0.00    +0.002 A  
DOCKED: ATOM     23  C   UNL     1     139.732  79.195 223.776 -0.35 -0.00    +0.030 A  
DOCKED: ATOM     24  C   UNL     1     137.369  79.477 222.290 -0.15 -0.00    +0.030 A  
DOCKED: ATOM     25  C   UNL     1     138.944  80.341 223.920 -0.40 -0.00    +0.023 A  
DOCKED: ATOM     26  C   UNL     1     137.768  80.484 223.175 -0.25 -0.01    +0.041 A  
DOCKED: ATOM     27  Cl  UNL     1     136.788  81.930 223.357 -0.22 +0.01    -0.084 Cl 
DOCKED: ENDBRANCH  15  17
DOCKED: ENDBRANCH  14  15
DOCKED: ENDBRANCH   1  14
DOCKED: TORSDOF 6
DOCKED: TER
DOCKED: ENDMDL
________________________________________________________________________________


    FINAL DOCKED STATE:
    ________________________


Run:   3 / 20
Time taken for this run:   0.038s

DOCKED: MODEL        3
DOCKED: USER    Run = 3
DOCKED: USER
DOCKED: USER    Estimated Free Energy of Binding    =  -7.09 kcal/mol  [=(1)+(2)+(3)-(4)]
DOCKED: USER
DOCKED: USER    (1) Final Intermolecular Energy     =  -8.88 kcal/mol
DOCKED: USER        vdW + Hbond + desolv Energy     =  -9.00 kcal/mol
DOCKED: USER        Electrostatic Energy            =  +0.12 kcal/mol
DOCKED: USER        Moving Ligand-Fixed Receptor    =  -8.88 kcal/mol
DOCKED: USER        Moving Ligand-Moving Receptor   =  +0.00 kcal/mol
DOCKED: USER    (2) Final Total Internal Energy     =  -2.11 kcal/mol
DOCKED: USER    (3) Torsional Free Energy           =  +1.79 kcal/mol
DOCKED: USER    (4) Unbound System's Energy         =  -2.11 kcal/mol
DOCKED: USER
DOCKED: USER
DOCKED: REMARK SMILES C[C@H](NC(=O)C[N-]C(=O)c1ccc2cc(Cl)ccc2n1)c1ccccc1
DOCKED: REMARK SMILES IDX 6 1 4 2 3 3 5 5 2 6 1 7 21 8 22 9 26 10 23 11 25 12 24 13
DOCKED: REMARK SMILES IDX 7 14 8 15 9 16 10 17 11 18 20 19 12 20 19 21 13 22 18 23
DOCKED: REMARK SMILES IDX 14 24 17 25 15 26 16 27
DOCKED: REMARK H PARENT 3 4
DOCKED: USER                              x       y       z     vdW  Elec       q    Type
DOCKED: USER                           _______ _______ _______ _____ _____    ______ ____
DOCKED: ROOT
DOCKED: ATOM      1  C   UNL     1     136.065  69.700 224.936 -0.23 +0.00    -0.015 C  
DOCKED: ENDROOT
DOCKED: BRANCH   1   2
DOCKED: ATOM      2  C   UNL     1     137.548  69.484 224.875 -0.20 -0.02    +0.202 C  
DOCKED: ATOM      3  N   UNL     1     138.400  70.396 224.165 -0.12 +0.06    -0.351 N  
DOCKED: ATOM      4  H   UNL     1     137.964  71.129 223.563 +0.03 -0.04    +0.164 HD 
DOCKED: ATOM      5  O   UNL     1     138.038  68.456 225.415 -0.37 -0.00    -0.277 OA 
DOCKED: BRANCH   3   6
DOCKED: ATOM      6  C   UNL     1     139.860  70.322 224.275 -0.32 -0.02    +0.109 C  
DOCKED: ATOM      7  C   UNL     1     140.530  71.308 223.313 -0.27 -0.00    +0.036 C  
DOCKED: BRANCH   6   8
DOCKED: ATOM      8  C   UNL     1     140.288  70.590 225.703 -0.52 +0.00    -0.026 A  
DOCKED: ATOM      9  C   UNL     1     140.693  71.879 226.092 -0.57 -0.00    +0.006 A  
DOCKED: ATOM     10  C   UNL     1     140.304  69.553 226.654 -0.55 -0.00    +0.006 A  
DOCKED: ATOM     11  C   UNL     1     141.098  72.126 227.406 -0.83 -0.00    +0.000 A  
DOCKED: ATOM     12  C   UNL     1     140.696  69.809 227.970 -0.63 -0.00    +0.000 A  
DOCKED: ATOM     13  C   UNL     1     141.097  71.092 228.346 -0.66 -0.00    +0.000 A  
DOCKED: ENDBRANCH   6   8
DOCKED: ENDBRANCH   3   6
DOCKED: ENDBRANCH   1   2
DOCKED: BRANCH   1  14
DOCKED: ATOM     14  N   UNL     1     135.621  70.686 223.954 +0.03 +0.08    -0.640 NA 
DOCKED: BRANCH  14  15
DOCKED: ATOM     15  C   UNL     1     135.971  72.077 223.851 -0.17 -0.02    +0.101 C  
DOCKED: ATOM     16  O   UNL     1     136.978  72.373 223.152 -0.11 +0.10    -0.313 OA 
DOCKED: BRANCH  15  17
DOCKED: ATOM     17  C   UNL     1     135.226  73.172 224.530 -0.22 -0.01    +0.088 A  
DOCKED: ATOM     18  C   UNL     1     135.514  74.517 224.230 -0.28 -0.01    +0.031 A  
DOCKED: ATOM     19  N   UNL     1     134.276  72.894 225.463 -0.20 +0.01    -0.246 NA 
DOCKED: ATOM     20  C   UNL     1     134.845  75.540 224.904 -0.34 -0.00    +0.013 A  
DOCKED: ATOM     21  C   UNL     1     133.608  73.867 226.136 -0.31 +0.00    +0.071 A  
DOCKED: ATOM     22  C   UNL     1     133.890  75.224 225.876 -0.36 -0.00    +0.002 A  
DOCKED: ATOM     23  C   UNL     1     132.652  73.525 227.102 -0.39 -0.00    +0.030 A  
DOCKED: ATOM     24  C   UNL     1     133.222  76.226 226.594 -0.35 -0.00    +0.030 A  
DOCKED: ATOM     25  C   UNL     1     131.988  74.529 227.813 -0.40 -0.00    +0.023 A  
DOCKED: ATOM     26  C   UNL     1     132.276  75.876 227.563 -0.34 +0.00    +0.041 A  
DOCKED: ATOM     27  Cl  UNL     1     131.443  77.131 228.466 -0.35 -0.01    -0.084 Cl 
DOCKED: ENDBRANCH  15  17
DOCKED: ENDBRANCH  14  15
DOCKED: ENDBRANCH   1  14
DOCKED: TORSDOF 6
DOCKED: TER
DOCKED: ENDMDL
________________________________________________________________________________


    FINAL DOCKED STATE:
    ________________________


Run:   4 / 20
Time taken for this run:   0.038s

DOCKED: MODEL        4
DOCKED: USER    Run = 4
DOCKED: USER
DOCKED: USER    Estimated Free Energy of Binding    =  -5.95 kcal/mol  [=(1)+(2)+(3)-(4)]
DOCKED: USER
DOCKED: USER    (1) Final Intermolecular Energy     =  -7.74 kcal/mol
DOCKED: USER        vdW + Hbond + desolv Energy     =  -8.05 kcal/mol
DOCKED: USER        Electrostatic Energy            =  +0.31 kcal/mol
DOCKED: USER        Moving Ligand-Fixed Receptor    =  -7.74 kcal/mol
DOCKED: USER        Moving Ligand-Moving Receptor   =  +0.00 kcal/mol
DOCKED: USER    (2) Final Total Internal Energy     =  -3.31 kcal/mol
DOCKED: USER    (3) Torsional Free Energy           =  +1.79 kcal/mol
DOCKED: USER    (4) Unbound System's Energy         =  -3.31 kcal/mol
DOCKED: USER
DOCKED: USER
DOCKED: REMARK SMILES C[C@H](NC(=O)C[N-]C(=O)c1ccc2cc(Cl)ccc2n1)c1ccccc1
DOCKED: REMARK SMILES IDX 6 1 4 2 3 3 5 5 2 6 1 7 21 8 22 9 26 10 23 11 25 12 24 13
DOCKED: REMARK SMILES IDX 7 14 8 15 9 16 10 17 11 18 20 19 12 20 19 21 13 22 18 23
DOCKED: REMARK SMILES IDX 14 24 17 25 15 26 16 27
DOCKED: REMARK H PARENT 3 4
DOCKED: USER                              x       y       z     vdW  Elec       q    Type
DOCKED: USER                           _______ _______ _______ _____ _____    ______ ____
DOCKED: ROOT
DOCKED: ATOM      1  C   UNL     1     142.310  75.592 220.063 -0.30 +0.01    -0.015 C  
DOCKED: ENDROOT
DOCKED: BRANCH   1   2
DOCKED: ATOM      2  C   UNL     1     142.328  77.049 219.706 -0.24 -0.13    +0.202 C  
DOCKED: ATOM      3  N   UNL     1     141.310  77.940 220.186 -0.09 +0.17    -0.351 N  
DOCKED: ATOM      4  H   UNL     1     140.472  77.540 220.663 +0.07 -0.06    +0.164 HD 
DOCKED: ATOM      5  O   UNL     1     143.225  77.476 218.930 -0.25 +0.22    -0.277 OA 
DOCKED: BRANCH   3   6
DOCKED: ATOM      6  C   UNL     1     141.430  79.393 220.027 -0.24 -0.05    +0.109 C  
DOCKED: ATOM      7  C   UNL     1     140.127  79.991 219.488 -0.11 -0.01    +0.036 C  
DOCKED: BRANCH   6   8
DOCKED: ATOM      8  C   UNL     1     141.807  80.032 221.347 -0.40 +0.01    -0.026 A  
DOCKED: ATOM      9  C   UNL     1     141.419  81.352 221.634 -0.41 -0.00    +0.006 A  
DOCKED: ATOM     10  C   UNL     1     142.564  79.321 222.297 -0.48 -0.00    +0.006 A  
DOCKED: ATOM     11  C   UNL     1     141.775  81.946 222.847 -0.38 -0.00    +0.000 A  
DOCKED: ATOM     12  C   UNL     1     142.905  79.914 223.515 -0.58 -0.00    +0.000 A  
DOCKED: ATOM     13  C   UNL     1     142.516  81.227 223.789 -0.63 -0.00    +0.000 A  
DOCKED: ENDBRANCH   6   8
DOCKED: ENDBRANCH   3   6
DOCKED: ENDBRANCH   1   2
DOCKED: BRANCH   1  14
DOCKED: ATOM     14  N   UNL     1     140.956  75.118 220.335 +0.02 +0.18    -0.640 NA 
DOCKED: BRANCH  14  15
DOCKED: ATOM     15  C   UNL     1     140.227  75.132 221.574 -0.29 -0.02    +0.101 C  
DOCKED: ATOM     16  O   UNL     1     140.335  74.124 222.324 -0.80 -0.02    -0.313 OA 
DOCKED: BRANCH  15  17
DOCKED: ATOM     17  C   UNL     1     139.350  76.254 222.008 -0.29 -0.02    +0.088 A  
DOCKED: ATOM     18  C   UNL     1     137.986  76.262 221.659 -0.19 -0.01    +0.031 A  
DOCKED: ATOM     19  N   UNL     1     139.853  77.294 222.726 -0.19 +0.05    -0.246 NA 
DOCKED: ATOM     20  C   UNL     1     137.179  77.339 222.029 -0.18 -0.00    +0.013 A  
DOCKED: ATOM     21  C   UNL     1     139.094  78.357 223.100 -0.26 -0.01    +0.071 A  
DOCKED: ATOM     22  C   UNL     1     137.729  78.406 222.745 -0.23 -0.00    +0.002 A  
DOCKED: ATOM     23  C   UNL     1     139.666  79.411 223.822 -0.42 -0.00    +0.030 A  
DOCKED: ATOM     24  C   UNL     1     136.955  79.518 223.106 -0.20 -0.00    +0.030 A  
DOCKED: ATOM     25  C   UNL     1     138.888  80.516 224.180 -0.38 -0.00    +0.023 A  
DOCKED: ATOM     26  C   UNL     1     137.537  80.572 223.818 -0.30 -0.00    +0.041 A  
DOCKED: ATOM     27  Cl  UNL     1     136.569  81.967 224.265 -0.29 +0.01    -0.084 Cl 
DOCKED: ENDBRANCH  15  17
DOCKED: ENDBRANCH  14  15
DOCKED: ENDBRANCH   1  14
DOCKED: TORSDOF 6
DOCKED: TER
DOCKED: ENDMDL
________________________________________________________________________________


    FINAL DOCKED STATE:
    ________________________


Run:   5 / 20
Time taken for this run:   0.038s

DOCKED: MODEL        5
DOCKED: USER    Run = 5
DOCKED: USER
DOCKED: USER    Estimated Free Energy of Binding    =  -7.38 kcal/mol  [=(1)+(2)+(3)-(4)]
DOCKED: USER
DOCKED: USER    (1) Final Intermolecular Energy     =  -9.17 kcal/mol
DOCKED: USER        vdW + Hbond + desolv Energy     =  -9.34 kcal/mol
DOCKED: USER        Electrostatic Energy            =  +0.17 kcal/mol
DOCKED: USER        Moving Ligand-Fixed Receptor    =  -9.17 kcal/mol
DOCKED: USER        Moving Ligand-Moving Receptor   =  +0.00 kcal/mol
DOCKED: USER    (2) Final Total Internal Energy     =  -1.97 kcal/mol
DOCKED: USER    (3) Torsional Free Energy           =  +1.79 kcal/mol
DOCKED: USER    (4) Unbound System's Energy         =  -1.97 kcal/mol
DOCKED: USER
DOCKED: USER
DOCKED: REMARK SMILES C[C@H](NC(=O)C[N-]C(=O)c1ccc2cc(Cl)ccc2n1)c1ccccc1
DOCKED: REMARK SMILES IDX 6 1 4 2 3 3 5 5 2 6 1 7 21 8 22 9 26 10 23 11 25 12 24 13
DOCKED: REMARK SMILES IDX 7 14 8 15 9 16 10 17 11 18 20 19 12 20 19 21 13 22 18 23
DOCKED: REMARK SMILES IDX 14 24 17 25 15 26 16 27
DOCKED: REMARK H PARENT 3 4
DOCKED: USER                              x       y       z     vdW  Elec       q    Type
DOCKED: USER                           _______ _______ _______ _____ _____    ______ ____
DOCKED: ROOT
DOCKED: ATOM      1  C   UNL     1     138.541  75.041 222.072 -0.20 +0.00    -0.015 C  
DOCKED: ENDROOT
DOCKED: BRANCH   1   2
DOCKED: ATOM      2  C   UNL     1     139.279  76.299 221.721 -0.22 -0.05    +0.202 C  
DOCKED: ATOM      3  N   UNL     1     140.638  76.255 221.258 -0.14 +0.11    -0.351 N  
DOCKED: ATOM      4  H   UNL     1     141.160  75.352 221.311 +0.03 -0.05    +0.164 HD 
DOCKED: ATOM      5  O   UNL     1     138.707  77.410 221.887 -0.13 +0.06    -0.277 OA 
DOCKED: BRANCH   3   6
DOCKED: ATOM      6  C   UNL     1     141.298  77.444 220.710 -0.25 -0.05    +0.109 C  
DOCKED: ATOM      7  C   UNL     1     140.463  78.057 219.580 -0.13 -0.01    +0.036 C  
DOCKED: BRANCH   6   8
DOCKED: ATOM      8  C   UNL     1     141.541  78.458 221.808 -0.39 +0.01    -0.026 A  
DOCKED: ATOM      9  C   UNL     1     141.438  78.080 223.158 -0.50 -0.00    +0.006 A  
DOCKED: ATOM     10  C   UNL     1     141.856  79.792 221.495 -0.42 -0.00    +0.006 A  
DOCKED: ATOM     11  C   UNL     1     141.652  79.016 224.173 -0.58 -0.00    +0.000 A  
DOCKED: ATOM     12  C   UNL     1     142.084  80.722 222.512 -0.55 -0.00    +0.000 A  
DOCKED: ATOM     13  C   UNL     1     141.978  80.336 223.850 -0.62 -0.00    +0.000 A  
DOCKED: ENDBRANCH   6   8
DOCKED: ENDBRANCH   3   6
DOCKED: ENDBRANCH   1   2
DOCKED: BRANCH   1  14
DOCKED: ATOM     14  N   UNL     1     139.118  73.873 221.412 -0.05 +0.14    -0.640 NA 
DOCKED: BRANCH  14  15
DOCKED: ATOM     15  C   UNL     1     140.218  73.049 221.836 -0.26 -0.01    +0.101 C  
DOCKED: ATOM     16  O   UNL     1     141.316  73.190 221.232 -0.19 +0.04    -0.313 OA 
DOCKED: BRANCH  15  17
DOCKED: ATOM     17  C   UNL     1     140.127  72.040 222.926 -0.31 -0.01    +0.088 A  
DOCKED: ATOM     18  C   UNL     1     139.418  70.841 222.723 -0.24 -0.01    +0.031 A  
DOCKED: ATOM     19  N   UNL     1     140.705  72.267 224.136 -0.05 +0.02    -0.246 NA 
DOCKED: ATOM     20  C   UNL     1     139.296  69.919 223.764 -0.29 -0.00    +0.013 A  
DOCKED: ATOM     21  C   UNL     1     140.605  71.390 225.169 -0.49 -0.01    +0.071 A  
DOCKED: ATOM     22  C   UNL     1     139.880  70.191 225.005 -0.43 -0.00    +0.002 A  
DOCKED: ATOM     23  C   UNL     1     141.203  71.683 226.401 -0.67 -0.00    +0.030 A  
DOCKED: ATOM     24  C   UNL     1     139.751  69.302 226.082 -0.47 -0.00    +0.030 A  
DOCKED: ATOM     25  C   UNL     1     141.072  70.791 227.470 -0.64 -0.00    +0.023 A  
DOCKED: ATOM     26  C   UNL     1     140.344  69.605 227.312 -0.56 -0.01    +0.041 A  
DOCKED: ATOM     27  Cl  UNL     1     140.177  68.495 228.662 -0.59 +0.02    -0.084 Cl 
DOCKED: ENDBRANCH  15  17
DOCKED: ENDBRANCH  14  15
DOCKED: ENDBRANCH   1  14
DOCKED: TORSDOF 6
DOCKED: TER
DOCKED: ENDMDL
________________________________________________________________________________


    FINAL DOCKED STATE:
    ________________________


Run:   6 / 20
Time taken for this run:   0.038s

DOCKED: MODEL        6
DOCKED: USER    Run = 6
DOCKED: USER
DOCKED: USER    Estimated Free Energy of Binding    =  -6.94 kcal/mol  [=(1)+(2)+(3)-(4)]
DOCKED: USER
DOCKED: USER    (1) Final Intermolecular Energy     =  -8.73 kcal/mol
DOCKED: USER        vdW + Hbond + desolv Energy     =  -8.81 kcal/mol
DOCKED: USER        Electrostatic Energy            =  +0.08 kcal/mol
DOCKED: USER        Moving Ligand-Fixed Receptor    =  -8.73 kcal/mol
DOCKED: USER        Moving Ligand-Moving Receptor   =  +0.00 kcal/mol
DOCKED: USER    (2) Final Total Internal Energy     =  -2.49 kcal/mol
DOCKED: USER    (3) Torsional Free Energy           =  +1.79 kcal/mol
DOCKED: USER    (4) Unbound System's Energy         =  -2.49 kcal/mol
DOCKED: USER
DOCKED: USER
DOCKED: REMARK SMILES C[C@H](NC(=O)C[N-]C(=O)c1ccc2cc(Cl)ccc2n1)c1ccccc1
DOCKED: REMARK SMILES IDX 6 1 4 2 3 3 5 5 2 6 1 7 21 8 22 9 26 10 23 11 25 12 24 13
DOCKED: REMARK SMILES IDX 7 14 8 15 9 16 10 17 11 18 20 19 12 20 19 21 13 22 18 23
DOCKED: REMARK SMILES IDX 14 24 17 25 15 26 16 27
DOCKED: REMARK H PARENT 3 4
DOCKED: USER                              x       y       z     vdW  Elec       q    Type
DOCKED: USER                           _______ _______ _______ _____ _____    ______ ____
DOCKED: ROOT
DOCKED: ATOM      1  C   UNL     1     137.197  69.917 222.445 -0.12 +0.00    -0.015 C  
DOCKED: ENDROOT
DOCKED: BRANCH   1   2
DOCKED: ATOM      2  C   UNL     1     137.492  69.344 223.799 -0.18 -0.02    +0.202 C  
DOCKED: ATOM      3  N   UNL     1     138.843  69.223 224.272 -0.13 +0.05    -0.351 N  
DOCKED: ATOM      4  H   UNL     1     139.628  69.398 223.607 +0.03 -0.03    +0.164 HD 
DOCKED: ATOM      5  O   UNL     1     136.538  68.917 224.503 -0.24 +0.01    -0.277 OA 
DOCKED: BRANCH   3   6
DOCKED: ATOM      6  C   UNL     1     139.136  68.870 225.665 -0.40 -0.01    +0.109 C  
DOCKED: ATOM      7  C   UNL     1     139.925  67.559 225.739 -0.52 -0.01    +0.036 C  
DOCKED: BRANCH   6   8
DOCKED: ATOM      8  C   UNL     1     139.896  69.993 226.338 -0.49 +0.00    -0.026 A  
DOCKED: ATOM      9  C   UNL     1     140.719  70.846 225.582 -0.57 -0.00    +0.006 A  
DOCKED: ATOM     10  C   UNL     1     139.805  70.188 227.728 -0.58 -0.00    +0.006 A  
DOCKED: ATOM     11  C   UNL     1     141.429  71.877 226.203 -0.63 -0.00    +0.000 A  
DOCKED: ATOM     12  C   UNL     1     140.505  71.229 228.343 -0.69 -0.00    +0.000 A  
DOCKED: ATOM     13  C   UNL     1     141.321  72.070 227.583 -0.81 -0.00    +0.000 A  
DOCKED: ENDBRANCH   6   8
DOCKED: ENDBRANCH   3   6
DOCKED: ENDBRANCH   1   2
DOCKED: BRANCH   1  14
DOCKED: ATOM     14  N   UNL     1     138.404  70.422 221.796 +0.04 +0.12    -0.640 NA 
DOCKED: BRANCH  14  15
DOCKED: ATOM     15  C   UNL     1     139.297  71.460 222.235 -0.20 -0.02    +0.101 C  
DOCKED: ATOM     16  O   UNL     1     140.454  71.117 222.599 -0.15 +0.04    -0.313 OA 
DOCKED: BRANCH  15  17
DOCKED: ATOM     17  C   UNL     1     138.927  72.901 222.295 -0.15 -0.02    +0.088 A  
DOCKED: ATOM     18  C   UNL     1     137.573  73.285 222.302 -0.08 -0.01    +0.031 A  
DOCKED: ATOM     19  N   UNL     1     139.886  73.866 222.323 -0.77 +0.02    -0.246 NA 
DOCKED: ATOM     20  C   UNL     1     137.233  74.639 222.312 -0.15 -0.00    +0.013 A  
DOCKED: ATOM     21  C   UNL     1     139.588  75.191 222.333 -0.20 -0.01    +0.071 A  
DOCKED: ATOM     22  C   UNL     1     138.241  75.609 222.316 -0.27 -0.00    +0.002 A  
DOCKED: ATOM     23  C   UNL     1     140.615  76.144 222.341 -0.34 -0.01    +0.030 A  
DOCKED: ATOM     24  C   UNL     1     137.936  76.977 222.294 -0.25 -0.01    +0.030 A  
DOCKED: ATOM     25  C   UNL     1     140.303  77.507 222.322 -0.39 -0.01    +0.023 A  
DOCKED: ATOM     26  C   UNL     1     138.967  77.923 222.293 -0.27 -0.01    +0.041 A  
DOCKED: ATOM     27  Cl  UNL     1     138.584  79.635 222.261 -0.27 +0.01    -0.084 Cl 
DOCKED: ENDBRANCH  15  17
DOCKED: ENDBRANCH  14  15
DOCKED: ENDBRANCH   1  14
DOCKED: TORSDOF 6
DOCKED: TER
DOCKED: ENDMDL
________________________________________________________________________________


    FINAL DOCKED STATE:
    ________________________


Run:   7 / 20
Time taken for this run:   0.038s

DOCKED: MODEL        7
DOCKED: USER    Run = 7
DOCKED: USER
DOCKED: USER    Estimated Free Energy of Binding    =  -6.01 kcal/mol  [=(1)+(2)+(3)-(4)]
DOCKED: USER
DOCKED: USER    (1) Final Intermolecular Energy     =  -7.80 kcal/mol
DOCKED: USER        vdW + Hbond + desolv Energy     =  -8.11 kcal/mol
DOCKED: USER        Electrostatic Energy            =  +0.30 kcal/mol
DOCKED: USER        Moving Ligand-Fixed Receptor    =  -7.80 kcal/mol
DOCKED: USER        Moving Ligand-Moving Receptor   =  +0.00 kcal/mol
DOCKED: USER    (2) Final Total Internal Energy     =  -3.26 kcal/mol
DOCKED: USER    (3) Torsional Free Energy           =  +1.79 kcal/mol
DOCKED: USER    (4) Unbound System's Energy         =  -3.26 kcal/mol
DOCKED: USER
DOCKED: USER
DOCKED: REMARK SMILES C[C@H](NC(=O)C[N-]C(=O)c1ccc2cc(Cl)ccc2n1)c1ccccc1
DOCKED: REMARK SMILES IDX 6 1 4 2 3 3 5 5 2 6 1 7 21 8 22 9 26 10 23 11 25 12 24 13
DOCKED: REMARK SMILES IDX 7 14 8 15 9 16 10 17 11 18 20 19 12 20 19 21 13 22 18 23
DOCKED: REMARK SMILES IDX 14 24 17 25 15 26 16 27
DOCKED: REMARK H PARENT 3 4
DOCKED: USER                              x       y       z     vdW  Elec       q    Type
DOCKED: USER                           _______ _______ _______ _____ _____    ______ ____
DOCKED: ROOT
DOCKED: ATOM      1  C   UNL     1     142.342  75.520 220.117 -0.30 +0.01    -0.015 C  
DOCKED: ENDROOT
DOCKED: BRANCH   1   2
DOCKED: ATOM      2  C   UNL     1     142.386  76.970 219.733 -0.24 -0.13    +0.202 C  
DOCKED: ATOM      3  N   UNL     1     141.387  77.889 220.200 -0.09 +0.18    -0.351 N  
DOCKED: ATOM      4  H   UNL     1     140.543  77.513 220.687 +0.07 -0.06    +0.164 HD 
DOCKED: ATOM      5  O   UNL     1     143.288  77.365 218.947 -0.26 +0.22    -0.277 OA 
DOCKED: BRANCH   3   6
DOCKED: ATOM      6  C   UNL     1     141.534  79.336 220.014 -0.24 -0.06    +0.109 C  
DOCKED: ATOM      7  C   UNL     1     140.268  79.936 219.393 -0.12 -0.01    +0.036 C  
DOCKED: BRANCH   6   8
DOCKED: ATOM      8  C   UNL     1     141.849  80.001 221.338 -0.40 +0.01    -0.026 A  
DOCKED: ATOM      9  C   UNL     1     141.436  81.322 221.585 -0.41 -0.00    +0.006 A  
DOCKED: ATOM     10  C   UNL     1     142.573  79.315 222.330 -0.49 -0.00    +0.006 A  
DOCKED: ATOM     11  C   UNL     1     141.734  81.940 222.801 -0.39 -0.00    +0.000 A  
DOCKED: ATOM     12  C   UNL     1     142.856  79.933 223.551 -0.58 -0.00    +0.000 A  
DOCKED: ATOM     13  C   UNL     1     142.442  81.246 223.785 -0.63 -0.00    +0.000 A  
DOCKED: ENDBRANCH   6   8
DOCKED: ENDBRANCH   3   6
DOCKED: ENDBRANCH   1   2
DOCKED: BRANCH   1  14
DOCKED: ATOM     14  N   UNL     1     140.975  75.066 220.362 +0.02 +0.18    -0.640 NA 
DOCKED: BRANCH  14  15
DOCKED: ATOM     15  C   UNL     1     140.231  75.070 221.592 -0.29 -0.02    +0.101 C  
DOCKED: ATOM     16  O   UNL     1     140.330  74.056 222.335 -0.81 -0.02    -0.313 OA 
DOCKED: BRANCH  15  17
DOCKED: ATOM     17  C   UNL     1     139.347  76.187 222.024 -0.29 -0.02    +0.088 A  
DOCKED: ATOM     18  C   UNL     1     137.977  76.172 221.701 -0.20 -0.01    +0.031 A  
DOCKED: ATOM     19  N   UNL     1     139.850  77.245 222.716 -0.20 +0.05    -0.246 NA 
DOCKED: ATOM     20  C   UNL     1     137.163  77.245 222.068 -0.18 -0.00    +0.013 A  
DOCKED: ATOM     21  C   UNL     1     139.084  78.304 223.087 -0.26 -0.01    +0.071 A  
DOCKED: ATOM     22  C   UNL     1     137.713  78.331 222.757 -0.23 -0.00    +0.002 A  
DOCKED: ATOM     23  C   UNL     1     139.656  79.378 223.781 -0.41 -0.00    +0.030 A  
DOCKED: ATOM     24  C   UNL     1     136.931  79.439 223.114 -0.20 -0.00    +0.030 A  
DOCKED: ATOM     25  C   UNL     1     138.870  80.479 224.135 -0.39 -0.00    +0.023 A  
DOCKED: ATOM     26  C   UNL     1     137.512  80.512 223.799 -0.30 -0.00    +0.041 A  
DOCKED: ATOM     27  Cl  UNL     1     136.534  81.901 224.241 -0.29 +0.01    -0.084 Cl 
DOCKED: ENDBRANCH  15  17
DOCKED: ENDBRANCH  14  15
DOCKED: ENDBRANCH   1  14
DOCKED: TORSDOF 6
DOCKED: TER
DOCKED: ENDMDL
________________________________________________________________________________


    FINAL DOCKED STATE:
    ________________________


Run:   8 / 20
Time taken for this run:   0.038s

DOCKED: MODEL        8
DOCKED: USER    Run = 8
DOCKED: USER
DOCKED: USER    Estimated Free Energy of Binding    =  -5.90 kcal/mol  [=(1)+(2)+(3)-(4)]
DOCKED: USER
DOCKED: USER    (1) Final Intermolecular Energy     =  -7.69 kcal/mol
DOCKED: USER        vdW + Hbond + desolv Energy     =  -8.02 kcal/mol
DOCKED: USER        Electrostatic Energy            =  +0.33 kcal/mol
DOCKED: USER        Moving Ligand-Fixed Receptor    =  -7.69 kcal/mol
DOCKED: USER        Moving Ligand-Moving Receptor   =  +0.00 kcal/mol
DOCKED: USER    (2) Final Total Internal Energy     =  -3.61 kcal/mol
DOCKED: USER    (3) Torsional Free Energy           =  +1.79 kcal/mol
DOCKED: USER    (4) Unbound System's Energy         =  -3.61 kcal/mol
DOCKED: USER
DOCKED: USER
DOCKED: REMARK SMILES C[C@H](NC(=O)C[N-]C(=O)c1ccc2cc(Cl)ccc2n1)c1ccccc1
DOCKED: REMARK SMILES IDX 6 1 4 2 3 3 5 5 2 6 1 7 21 8 22 9 26 10 23 11 25 12 24 13
DOCKED: REMARK SMILES IDX 7 14 8 15 9 16 10 17 11 18 20 19 12 20 19 21 13 22 18 23
DOCKED: REMARK SMILES IDX 14 24 17 25 15 26 16 27
DOCKED: REMARK H PARENT 3 4
DOCKED: USER                              x       y       z     vdW  Elec       q    Type
DOCKED: USER                           _______ _______ _______ _____ _____    ______ ____
DOCKED: ROOT
DOCKED: ATOM      1  C   UNL     1     142.517  75.361 219.716 -0.30 +0.01    -0.015 C  
DOCKED: ENDROOT
DOCKED: BRANCH   1   2
DOCKED: ATOM      2  C   UNL     1     142.177  76.792 219.423 -0.22 -0.11    +0.202 C  
DOCKED: ATOM      3  N   UNL     1     141.947  77.730 220.485 -0.13 +0.23    -0.351 N  
DOCKED: ATOM      4  H   UNL     1     141.871  77.375 221.464 -0.30 -0.11    +0.164 HD 
DOCKED: ATOM      5  O   UNL     1     142.041  77.154 218.223 -0.12 +0.15    -0.277 OA 
DOCKED: BRANCH   3   6
DOCKED: ATOM      6  C   UNL     1     141.828  79.168 220.222 -0.23 -0.06    +0.109 C  
DOCKED: ATOM      7  C   UNL     1     140.497  79.487 219.533 -0.15 -0.01    +0.036 C  
DOCKED: BRANCH   6   8
DOCKED: ATOM      8  C   UNL     1     141.964  79.946 221.514 -0.41 +0.01    -0.026 A  
DOCKED: ATOM      9  C   UNL     1     141.384  81.221 221.639 -0.41 -0.00    +0.006 A  
DOCKED: ATOM     10  C   UNL     1     142.684  79.414 222.599 -0.55 -0.00    +0.006 A  
DOCKED: ATOM     11  C   UNL     1     141.516  81.944 222.827 -0.37 -0.00    +0.000 A  
DOCKED: ATOM     12  C   UNL     1     142.801  80.136 223.790 -0.62 -0.00    +0.000 A  
DOCKED: ATOM     13  C   UNL     1     142.223  81.401 223.903 -0.62 -0.00    +0.000 A  
DOCKED: ENDBRANCH   6   8
DOCKED: ENDBRANCH   3   6
DOCKED: ENDBRANCH   1   2
DOCKED: BRANCH   1  14
DOCKED: ATOM     14  N   UNL     1     142.106  74.972 221.063 +0.03 +0.23    -0.640 NA 
DOCKED: BRANCH  14  15
DOCKED: ATOM     15  C   UNL     1     140.780  74.903 221.616 -0.28 -0.02    +0.101 C  
DOCKED: ATOM     16  O   UNL     1     140.356  73.769 221.968 -0.80 +0.02    -0.313 OA 
DOCKED: BRANCH  15  17
DOCKED: ATOM     17  C   UNL     1     139.888  76.083 221.780 -0.30 -0.02    +0.088 A  
DOCKED: ATOM     18  C   UNL     1     138.765  76.242 220.947 -0.14 -0.01    +0.031 A  
DOCKED: ATOM     19  N   UNL     1     140.153  77.032 222.718 -0.22 +0.06    -0.246 NA 
DOCKED: ATOM     20  C   UNL     1     137.957  77.374 221.075 -0.11 -0.00    +0.013 A  
DOCKED: ATOM     21  C   UNL     1     139.387  78.144 222.867 -0.26 -0.01    +0.071 A  
DOCKED: ATOM     22  C   UNL     1     138.269  78.346 222.032 -0.20 -0.00    +0.002 A  
DOCKED: ATOM     23  C   UNL     1     139.717  79.101 223.836 -0.31 -0.00    +0.030 A  
DOCKED: ATOM     24  C   UNL     1     137.499  79.509 222.166 -0.15 -0.00    +0.030 A  
DOCKED: ATOM     25  C   UNL     1     138.943  80.258 223.966 -0.40 -0.00    +0.023 A  
DOCKED: ATOM     26  C   UNL     1     137.839  80.465 223.130 -0.25 -0.01    +0.041 A  
DOCKED: ATOM     27  Cl  UNL     1     136.878  81.924 223.294 -0.22 +0.01    -0.084 Cl 
DOCKED: ENDBRANCH  15  17
DOCKED: ENDBRANCH  14  15
DOCKED: ENDBRANCH   1  14
DOCKED: TORSDOF 6
DOCKED: TER
DOCKED: ENDMDL
________________________________________________________________________________


    FINAL DOCKED STATE:
    ________________________


Run:   9 / 20
Time taken for this run:   0.038s

DOCKED: MODEL        9
DOCKED: USER    Run = 9
DOCKED: USER
DOCKED: USER    Estimated Free Energy of Binding    =  -6.24 kcal/mol  [=(1)+(2)+(3)-(4)]
DOCKED: USER
DOCKED: USER    (1) Final Intermolecular Energy     =  -8.03 kcal/mol
DOCKED: USER        vdW + Hbond + desolv Energy     =  -8.13 kcal/mol
DOCKED: USER        Electrostatic Energy            =  +0.10 kcal/mol
DOCKED: USER        Moving Ligand-Fixed Receptor    =  -8.03 kcal/mol
DOCKED: USER        Moving Ligand-Moving Receptor   =  +0.00 kcal/mol
DOCKED: USER    (2) Final Total Internal Energy     =  -2.77 kcal/mol
DOCKED: USER    (3) Torsional Free Energy           =  +1.79 kcal/mol
DOCKED: USER    (4) Unbound System's Energy         =  -2.77 kcal/mol
DOCKED: USER
DOCKED: USER
DOCKED: REMARK SMILES C[C@H](NC(=O)C[N-]C(=O)c1ccc2cc(Cl)ccc2n1)c1ccccc1
DOCKED: REMARK SMILES IDX 6 1 4 2 3 3 5 5 2 6 1 7 21 8 22 9 26 10 23 11 25 12 24 13
DOCKED: REMARK SMILES IDX 7 14 8 15 9 16 10 17 11 18 20 19 12 20 19 21 13 22 18 23
DOCKED: REMARK SMILES IDX 14 24 17 25 15 26 16 27
DOCKED: REMARK H PARENT 3 4
DOCKED: USER                              x       y       z     vdW  Elec       q    Type
DOCKED: USER                           _______ _______ _______ _____ _____    ______ ____
DOCKED: ROOT
DOCKED: ATOM      1  C   UNL     1     138.409  75.665 222.066 -0.27 +0.00    -0.015 C  
DOCKED: ENDROOT
DOCKED: BRANCH   1   2
DOCKED: ATOM      2  C   UNL     1     138.323  77.126 222.397 -0.21 -0.04    +0.202 C  
DOCKED: ATOM      3  N   UNL     1     139.505  77.892 222.674 -0.14 +0.07    -0.351 N  
DOCKED: ATOM      4  H   UNL     1     140.414  77.392 222.791 +0.07 -0.04    +0.164 HD 
DOCKED: ATOM      5  O   UNL     1     137.187  77.667 222.482 -0.13 +0.05    -0.277 OA 
DOCKED: BRANCH   3   6
DOCKED: ATOM      6  C   UNL     1     139.460  79.353 222.786 -0.29 -0.02    +0.109 C  
DOCKED: ATOM      7  C   UNL     1     138.423  79.788 223.828 -0.32 -0.00    +0.036 C  
DOCKED: BRANCH   6   8
DOCKED: ATOM      8  C   UNL     1     140.831  79.891 223.137 -0.46 +0.01    -0.026 A  
DOCKED: ATOM      9  C   UNL     1     140.960  81.098 223.846 -0.41 -0.00    +0.006 A  
DOCKED: ATOM     10  C   UNL     1     141.993  79.203 222.744 -0.56 -0.00    +0.006 A  
DOCKED: ATOM     11  C   UNL     1     142.225  81.601 224.163 -0.58 -0.00    +0.000 A  
DOCKED: ATOM     12  C   UNL     1     143.255  79.702 223.075 -0.47 -0.00    +0.000 A  
DOCKED: ATOM     13  C   UNL     1     143.372  80.902 223.779 -0.53 -0.00    +0.000 A  
DOCKED: ENDBRANCH   6   8
DOCKED: ENDBRANCH   3   6
DOCKED: ENDBRANCH   1   2
DOCKED: BRANCH   1  14
DOCKED: ATOM     14  N   UNL     1     139.730  75.119 222.366 -0.40 +0.07    -0.640 NA 
DOCKED: BRANCH  14  15
DOCKED: ATOM     15  C   UNL     1     140.857  74.951 221.489 -0.29 -0.02    +0.101 C  
DOCKED: ATOM     16  O   UNL     1     141.439  73.832 221.498 -0.31 +0.03    -0.313 OA 
DOCKED: BRANCH  15  17
DOCKED: ATOM     17  C   UNL     1     141.377  76.019 220.592 -0.25 -0.04    +0.088 A  
DOCKED: ATOM     18  C   UNL     1     142.519  75.788 219.804 -0.31 -0.02    +0.031 A  
DOCKED: ATOM     19  N   UNL     1     140.772  77.237 220.536 -0.11 +0.10    -0.246 NA 
DOCKED: ATOM     20  C   UNL     1     143.029  76.809 219.000 -0.36 -0.01    +0.013 A  
DOCKED: ATOM     21  C   UNL     1     141.244  78.251 219.765 -0.20 -0.03    +0.071 A  
DOCKED: ATOM     22  C   UNL     1     142.401  78.059 218.981 -0.29 -0.00    +0.002 A  
DOCKED: ATOM     23  C   UNL     1     140.595  79.492 219.759 -0.16 -0.01    +0.030 A  
DOCKED: ATOM     24  C   UNL     1     142.904  79.115 218.210 -0.26 -0.03    +0.030 A  
DOCKED: ATOM     25  C   UNL     1     141.101  80.541 218.986 -0.20 -0.01    +0.023 A  
DOCKED: ATOM     26  C   UNL     1     142.256  80.355 218.217 -0.31 -0.03    +0.041 A  
DOCKED: ATOM     27  Cl  UNL     1     142.889  81.680 217.255 -0.38 +0.08    -0.084 Cl 
DOCKED: ENDBRANCH  15  17
DOCKED: ENDBRANCH  14  15
DOCKED: ENDBRANCH   1  14
DOCKED: TORSDOF 6
DOCKED: TER
DOCKED: ENDMDL
________________________________________________________________________________


    FINAL DOCKED STATE:
    ________________________


Run:   10 / 20
Time taken for this run:   0.038s

DOCKED: MODEL        10
DOCKED: USER    Run = 10
DOCKED: USER
DOCKED: USER    Estimated Free Energy of Binding    =  -7.35 kcal/mol  [=(1)+(2)+(3)-(4)]
DOCKED: USER
DOCKED: USER    (1) Final Intermolecular Energy     =  -9.14 kcal/mol
DOCKED: USER        vdW + Hbond + desolv Energy     =  -9.27 kcal/mol
DOCKED: USER        Electrostatic Energy            =  +0.12 kcal/mol
DOCKED: USER        Moving Ligand-Fixed Receptor    =  -9.14 kcal/mol
DOCKED: USER        Moving Ligand-Moving Receptor   =  +0.00 kcal/mol
DOCKED: USER    (2) Final Total Internal Energy     =  -2.14 kcal/mol
DOCKED: USER    (3) Torsional Free Energy           =  +1.79 kcal/mol
DOCKED: USER    (4) Unbound System's Energy         =  -2.14 kcal/mol
DOCKED: USER
DOCKED: USER
DOCKED: REMARK SMILES C[C@H](NC(=O)C[N-]C(=O)c1ccc2cc(Cl)ccc2n1)c1ccccc1
DOCKED: REMARK SMILES IDX 6 1 4 2 3 3 5 5 2 6 1 7 21 8 22 9 26 10 23 11 25 12 24 13
DOCKED: REMARK SMILES IDX 7 14 8 15 9 16 10 17 11 18 20 19 12 20 19 21 13 22 18 23
DOCKED: REMARK SMILES IDX 14 24 17 25 15 26 16 27
DOCKED: REMARK H PARENT 3 4
DOCKED: USER                              x       y       z     vdW  Elec       q    Type
DOCKED: USER                           _______ _______ _______ _____ _____    ______ ____
DOCKED: ROOT
DOCKED: ATOM      1  C   UNL     1     138.466  73.335 220.053 -0.06 +0.00    -0.015 C  
DOCKED: ENDROOT
DOCKED: BRANCH   1   2
DOCKED: ATOM      2  C   UNL     1     137.815  74.615 220.487 -0.05 -0.04    +0.202 C  
DOCKED: ATOM      3  N   UNL     1     137.863  75.041 221.857 -0.10 +0.09    -0.351 N  
DOCKED: ATOM      4  H   UNL     1     138.225  74.379 222.579 -0.42 -0.07    +0.164 HD 
DOCKED: ATOM      5  O   UNL     1     137.174  75.292 219.639 -0.01 +0.05    -0.277 OA 
DOCKED: BRANCH   3   6
DOCKED: ATOM      6  C   UNL     1     137.423  76.381 222.256 -0.21 -0.02    +0.109 C  
DOCKED: ATOM      7  C   UNL     1     136.457  76.307 223.443 -0.18 -0.01    +0.036 C  
DOCKED: BRANCH   6   8
DOCKED: ATOM      8  C   UNL     1     138.622  77.243 222.594 -0.29 +0.00    -0.026 A  
DOCKED: ATOM      9  C   UNL     1     138.443  78.542 223.099 -0.27 -0.00    +0.006 A  
DOCKED: ATOM     10  C   UNL     1     139.929  76.764 222.392 -0.37 -0.00    +0.006 A  
DOCKED: ATOM     11  C   UNL     1     139.548  79.342 223.402 -0.41 -0.00    +0.000 A  
DOCKED: ATOM     12  C   UNL     1     141.031  77.561 222.710 -0.46 -0.00    +0.000 A  
DOCKED: ATOM     13  C   UNL     1     140.842  78.851 223.209 -0.50 -0.00    +0.000 A  
DOCKED: ENDBRANCH   6   8
DOCKED: ENDBRANCH   3   6
DOCKED: ENDBRANCH   1   2
DOCKED: BRANCH   1  14
DOCKED: ATOM     14  N   UNL     1     138.708  72.440 221.182 +0.02 +0.13    -0.640 NA 
DOCKED: BRANCH  14  15
DOCKED: ATOM     15  C   UNL     1     139.605  72.614 222.293 -0.25 -0.02    +0.101 C  
DOCKED: ATOM     16  O   UNL     1     140.272  73.683 222.341 -0.81 -0.00    -0.313 OA 
DOCKED: BRANCH  15  17
DOCKED: ATOM     17  C   UNL     1     139.796  71.604 223.370 -0.32 -0.02    +0.088 A  
DOCKED: ATOM     18  C   UNL     1     139.424  70.263 223.157 -0.25 -0.01    +0.031 A  
DOCKED: ATOM     19  N   UNL     1     140.309  71.962 224.578 -0.20 +0.04    -0.246 NA 
DOCKED: ATOM     20  C   UNL     1     139.563  69.330 224.186 -0.29 -0.00    +0.013 A  
DOCKED: ATOM     21  C   UNL     1     140.456  71.078 225.599 -0.52 -0.01    +0.071 A  
DOCKED: ATOM     22  C   UNL     1     140.071  69.732 225.426 -0.45 -0.00    +0.002 A  
DOCKED: ATOM     23  C   UNL     1     140.972  71.504 226.830 -0.71 -0.00    +0.030 A  
DOCKED: ATOM     24  C   UNL     1     140.194  68.829 226.491 -0.55 -0.01    +0.030 A  
DOCKED: ATOM     25  C   UNL     1     141.094  70.597 227.887 -0.62 -0.00    +0.023 A  
DOCKED: ATOM     26  C   UNL     1     140.701  69.264 227.720 -0.59 -0.01    +0.041 A  
DOCKED: ATOM     27  Cl  UNL     1     140.851  68.134 229.055 -0.41 +0.02    -0.084 Cl 
DOCKED: ENDBRANCH  15  17
DOCKED: ENDBRANCH  14  15
DOCKED: ENDBRANCH   1  14
DOCKED: TORSDOF 6
DOCKED: TER
DOCKED: ENDMDL
________________________________________________________________________________


    FINAL DOCKED STATE:
    ________________________


Run:   11 / 20
Time taken for this run:   0.038s

DOCKED: MODEL        11
DOCKED: USER    Run = 11
DOCKED: USER
DOCKED: USER    Estimated Free Energy of Binding    =  -5.97 kcal/mol  [=(1)+(2)+(3)-(4)]
DOCKED: USER
DOCKED: USER    (1) Final Intermolecular Energy     =  -7.76 kcal/mol
DOCKED: USER        vdW + Hbond + desolv Energy     =  -8.07 kcal/mol
DOCKED: USER        Electrostatic Energy            =  +0.31 kcal/mol
DOCKED: USER        Moving Ligand-Fixed Receptor    =  -7.76 kcal/mol
DOCKED: USER        Moving Ligand-Moving Receptor   =  +0.00 kcal/mol
DOCKED: USER    (2) Final Total Internal Energy     =  -3.29 kcal/mol
DOCKED: USER    (3) Torsional Free Energy           =  +1.79 kcal/mol
DOCKED: USER    (4) Unbound System's Energy         =  -3.29 kcal/mol
DOCKED: USER
DOCKED: USER
DOCKED: REMARK SMILES C[C@H](NC(=O)C[N-]C(=O)c1ccc2cc(Cl)ccc2n1)c1ccccc1
DOCKED: REMARK SMILES IDX 6 1 4 2 3 3 5 5 2 6 1 7 21 8 22 9 26 10 23 11 25 12 24 13
DOCKED: REMARK SMILES IDX 7 14 8 15 9 16 10 17 11 18 20 19 12 20 19 21 13 22 18 23
DOCKED: REMARK SMILES IDX 14 24 17 25 15 26 16 27
DOCKED: REMARK H PARENT 3 4
DOCKED: USER                              x       y       z     vdW  Elec       q    Type
DOCKED: USER                           _______ _______ _______ _____ _____    ______ ____
DOCKED: ROOT
DOCKED: ATOM      1  C   UNL     1     142.336  75.551 220.096 -0.31 +0.01    -0.015 C  
DOCKED: ENDROOT
DOCKED: BRANCH   1   2
DOCKED: ATOM      2  C   UNL     1     142.355  77.006 219.731 -0.24 -0.13    +0.202 C  
DOCKED: ATOM      3  N   UNL     1     141.325  77.896 220.187 -0.09 +0.17    -0.351 N  
DOCKED: ATOM      4  H   UNL     1     140.480  77.495 220.652 +0.06 -0.06    +0.164 HD 
DOCKED: ATOM      5  O   UNL     1     143.264  77.432 218.968 -0.25 +0.22    -0.277 OA 
DOCKED: BRANCH   3   6
DOCKED: ATOM      6  C   UNL     1     141.442  79.348 220.023 -0.24 -0.05    +0.109 C  
DOCKED: ATOM      7  C   UNL     1     140.134  79.943 219.491 -0.12 -0.01    +0.036 C  
DOCKED: BRANCH   6   8
DOCKED: ATOM      8  C   UNL     1     141.829  79.992 221.338 -0.40 +0.01    -0.026 A  
DOCKED: ATOM      9  C   UNL     1     142.558  79.266 222.296 -0.46 -0.00    +0.006 A  
DOCKED: ATOM     10  C   UNL     1     141.451  81.316 221.626 -0.41 -0.00    +0.006 A  
DOCKED: ATOM     11  C   UNL     1     142.907  79.855 223.514 -0.56 -0.00    +0.000 A  
DOCKED: ATOM     12  C   UNL     1     141.815  81.906 222.839 -0.40 -0.00    +0.000 A  
DOCKED: ATOM     13  C   UNL     1     142.538  81.175 223.785 -0.64 -0.00    +0.000 A  
DOCKED: ENDBRANCH   6   8
DOCKED: ENDBRANCH   3   6
DOCKED: ENDBRANCH   1   2
DOCKED: BRANCH   1  14
DOCKED: ATOM     14  N   UNL     1     140.980  75.076 220.358 +0.02 +0.18    -0.640 NA 
DOCKED: BRANCH  14  15
DOCKED: ATOM     15  C   UNL     1     140.245  75.083 221.594 -0.29 -0.02    +0.101 C  
DOCKED: ATOM     16  O   UNL     1     140.351  74.072 222.339 -0.80 -0.02    -0.313 OA 
DOCKED: BRANCH  15  17
DOCKED: ATOM     17  C   UNL     1     139.364  76.202 222.029 -0.29 -0.02    +0.088 A  
DOCKED: ATOM     18  C   UNL     1     137.994  76.190 221.707 -0.20 -0.01    +0.031 A  
DOCKED: ATOM     19  N   UNL     1     139.869  77.258 222.721 -0.20 +0.05    -0.246 NA 
DOCKED: ATOM     20  C   UNL     1     137.182  77.263 222.077 -0.18 -0.00    +0.013 A  
DOCKED: ATOM     21  C   UNL     1     139.106  78.318 223.095 -0.26 -0.01    +0.071 A  
DOCKED: ATOM     22  C   UNL     1     137.734  78.348 222.767 -0.23 -0.00    +0.002 A  
DOCKED: ATOM     23  C   UNL     1     139.681  79.390 223.790 -0.42 -0.00    +0.030 A  
DOCKED: ATOM     24  C   UNL     1     136.956  79.456 223.126 -0.20 -0.00    +0.030 A  
DOCKED: ATOM     25  C   UNL     1     138.898  80.491 224.147 -0.39 -0.00    +0.023 A  
DOCKED: ATOM     26  C   UNL     1     137.539  80.527 223.812 -0.30 -0.00    +0.041 A  
DOCKED: ATOM     27  Cl  UNL     1     136.565  81.917 224.257 -0.30 +0.01    -0.084 Cl 
DOCKED: ENDBRANCH  15  17
DOCKED: ENDBRANCH  14  15
DOCKED: ENDBRANCH   1  14
DOCKED: TORSDOF 6
DOCKED: TER
DOCKED: ENDMDL
________________________________________________________________________________


    FINAL DOCKED STATE:
    ________________________


Run:   12 / 20
Time taken for this run:   0.038s

DOCKED: MODEL        12
DOCKED: USER    Run = 12
DOCKED: USER
DOCKED: USER    Estimated Free Energy of Binding    =  -7.32 kcal/mol  [=(1)+(2)+(3)-(4)]
DOCKED: USER
DOCKED: USER    (1) Final Intermolecular Energy     =  -9.11 kcal/mol
DOCKED: USER        vdW + Hbond + desolv Energy     =  -9.34 kcal/mol
DOCKED: USER        Electrostatic Energy            =  +0.23 kcal/mol
DOCKED: USER        Moving Ligand-Fixed Receptor    =  -9.11 kcal/mol
DOCKED: USER        Moving Ligand-Moving Receptor   =  +0.00 kcal/mol
DOCKED: USER    (2) Final Total Internal Energy     =  -2.22 kcal/mol
DOCKED: USER    (3) Torsional Free Energy           =  +1.79 kcal/mol
DOCKED: USER    (4) Unbound System's Energy         =  -2.22 kcal/mol
DOCKED: USER
DOCKED: USER
DOCKED: REMARK SMILES C[C@H](NC(=O)C[N-]C(=O)c1ccc2cc(Cl)ccc2n1)c1ccccc1
DOCKED: REMARK SMILES IDX 6 1 4 2 3 3 5 5 2 6 1 7 21 8 22 9 26 10 23 11 25 12 24 13
DOCKED: REMARK SMILES IDX 7 14 8 15 9 16 10 17 11 18 20 19 12 20 19 21 13 22 18 23
DOCKED: REMARK SMILES IDX 14 24 17 25 15 26 16 27
DOCKED: REMARK H PARENT 3 4
DOCKED: USER                              x       y       z     vdW  Elec       q    Type
DOCKED: USER                           _______ _______ _______ _____ _____    ______ ____
DOCKED: ROOT
DOCKED: ATOM      1  C   UNL     1     142.280  73.659 220.646 -0.26 +0.00    -0.015 C  
DOCKED: ENDROOT
DOCKED: BRANCH   1   2
DOCKED: ATOM      2  C   UNL     1     142.101  75.066 220.157 -0.20 -0.08    +0.202 C  
DOCKED: ATOM      3  N   UNL     1     140.843  75.743 220.297 -0.06 +0.11    -0.351 N  
DOCKED: ATOM      4  H   UNL     1     140.008  75.198 220.606 +0.05 -0.04    +0.164 HD 
DOCKED: ATOM      5  O   UNL     1     143.060  75.635 219.570 -0.24 +0.15    -0.277 OA 
DOCKED: BRANCH   3   6
DOCKED: ATOM      6  C   UNL     1     140.712  77.178 220.024 -0.15 -0.04    +0.109 C  
DOCKED: ATOM      7  C   UNL     1     139.262  77.538 219.685 -0.06 -0.01    +0.036 C  
DOCKED: BRANCH   6   8
DOCKED: ATOM      8  C   UNL     1     141.200  77.980 221.213 -0.32 +0.01    -0.026 A  
DOCKED: ATOM      9  C   UNL     1     141.038  77.485 222.518 -0.44 -0.00    +0.006 A  
DOCKED: ATOM     10  C   UNL     1     141.805  79.237 221.030 -0.36 -0.00    +0.006 A  
DOCKED: ATOM     11  C   UNL     1     141.479  78.228 223.616 -0.47 -0.00    +0.000 A  
DOCKED: ATOM     12  C   UNL     1     142.258  79.970 222.130 -0.52 -0.00    +0.000 A  
DOCKED: ATOM     13  C   UNL     1     142.090  79.469 223.422 -0.62 -0.00    +0.000 A  
DOCKED: ENDBRANCH   6   8
DOCKED: ENDBRANCH   3   6
DOCKED: ENDBRANCH   1   2
DOCKED: BRANCH   1  14
DOCKED: ATOM     14  N   UNL     1     140.999  73.018 220.931 -0.00 +0.09    -0.640 NA 
DOCKED: BRANCH  14  15
DOCKED: ATOM     15  C   UNL     1     140.203  73.086 222.126 -0.24 -0.01    +0.101 C  
DOCKED: ATOM     16  O   UNL     1     139.497  74.117 222.298 -0.73 +0.05    -0.313 OA 
DOCKED: BRANCH  15  17
DOCKED: ATOM     17  C   UNL     1     140.179  72.022 223.168 -0.31 -0.01    +0.088 A  
DOCKED: ATOM     18  C   UNL     1     139.618  70.763 222.882 -0.26 -0.01    +0.031 A  
DOCKED: ATOM     19  N   UNL     1     140.677  72.255 224.412 +0.01 +0.03    -0.246 NA 
DOCKED: ATOM     20  C   UNL     1     139.557  69.786 223.876 -0.29 -0.00    +0.013 A  
DOCKED: ATOM     21  C   UNL     1     140.632  71.325 225.402 -0.52 -0.01    +0.071 A  
DOCKED: ATOM     22  C   UNL     1     140.054  70.062 225.154 -0.44 -0.00    +0.002 A  
DOCKED: ATOM     23  C   UNL     1     141.140  71.623 226.672 -0.70 -0.00    +0.030 A  
DOCKED: ATOM     24  C   UNL     1     139.980  69.115 226.185 -0.50 -0.00    +0.030 A  
DOCKED: ATOM     25  C   UNL     1     141.065  70.673 227.695 -0.64 -0.00    +0.023 A  
DOCKED: ATOM     26  C   UNL     1     140.482  69.423 227.454 -0.58 -0.01    +0.041 A  
DOCKED: ATOM     27  Cl  UNL     1     140.385  68.239 228.746 -0.48 +0.02    -0.084 Cl 
DOCKED: ENDBRANCH  15  17
DOCKED: ENDBRANCH  14  15
DOCKED: ENDBRANCH   1  14
DOCKED: TORSDOF 6
DOCKED: TER
DOCKED: ENDMDL
________________________________________________________________________________


    FINAL DOCKED STATE:
    ________________________


Run:   13 / 20
Time taken for this run:   0.038s

DOCKED: MODEL        13
DOCKED: USER    Run = 13
DOCKED: USER
DOCKED: USER    Estimated Free Energy of Binding    =  -7.57 kcal/mol  [=(1)+(2)+(3)-(4)]
DOCKED: USER
DOCKED: USER    (1) Final Intermolecular Energy     =  -9.36 kcal/mol
DOCKED: USER        vdW + Hbond + desolv Energy     =  -9.60 kcal/mol
DOCKED: USER        Electrostatic Energy            =  +0.24 kcal/mol
DOCKED: USER        Moving Ligand-Fixed Receptor    =  -9.36 kcal/mol
DOCKED: USER        Moving Ligand-Moving Receptor   =  +0.00 kcal/mol
DOCKED: USER    (2) Final Total Internal Energy     =  -2.06 kcal/mol
DOCKED: USER    (3) Torsional Free Energy           =  +1.79 kcal/mol
DOCKED: USER    (4) Unbound System's Energy         =  -2.06 kcal/mol
DOCKED: USER
DOCKED: USER
DOCKED: REMARK SMILES C[C@H](NC(=O)C[N-]C(=O)c1ccc2cc(Cl)ccc2n1)c1ccccc1
DOCKED: REMARK SMILES IDX 6 1 4 2 3 3 5 5 2 6 1 7 21 8 22 9 26 10 23 11 25 12 24 13
DOCKED: REMARK SMILES IDX 7 14 8 15 9 16 10 17 11 18 20 19 12 20 19 21 13 22 18 23
DOCKED: REMARK SMILES IDX 14 24 17 25 15 26 16 27
DOCKED: REMARK H PARENT 3 4
DOCKED: USER                              x       y       z     vdW  Elec       q    Type
DOCKED: USER                           _______ _______ _______ _____ _____    ______ ____
DOCKED: ROOT
DOCKED: ATOM      1  C   UNL     1     142.255  73.990 220.834 -0.26 +0.00    -0.015 C  
DOCKED: ENDROOT
DOCKED: BRANCH   1   2
DOCKED: ATOM      2  C   UNL     1     141.855  75.380 220.435 -0.21 -0.08    +0.202 C  
DOCKED: ATOM      3  N   UNL     1     140.634  75.964 220.915 -0.11 +0.11    -0.351 N  
DOCKED: ATOM      4  H   UNL     1     139.951  75.360 221.423 +0.05 -0.03    +0.164 HD 
DOCKED: ATOM      5  O   UNL     1     142.582  76.017 219.626 -0.21 +0.15    -0.277 OA 
DOCKED: BRANCH   3   6
DOCKED: ATOM      6  C   UNL     1     140.336  77.386 220.713 -0.18 -0.04    +0.109 C  
DOCKED: ATOM      7  C   UNL     1     138.832  77.650 220.838 -0.12 -0.01    +0.036 C  
DOCKED: BRANCH   6   8
DOCKED: ATOM      8  C   UNL     1     141.112  78.226 221.704 -0.36 +0.01    -0.026 A  
DOCKED: ATOM      9  C   UNL     1     141.119  77.889 223.069 -0.46 -0.00    +0.006 A  
DOCKED: ATOM     10  C   UNL     1     141.822  79.364 221.278 -0.39 -0.00    +0.006 A  
DOCKED: ATOM     11  C   UNL     1     141.827  78.670 223.987 -0.59 -0.00    +0.000 A  
DOCKED: ATOM     12  C   UNL     1     142.541  80.133 222.197 -0.54 -0.00    +0.000 A  
DOCKED: ATOM     13  C   UNL     1     142.539  79.790 223.551 -0.63 -0.00    +0.000 A  
DOCKED: ENDBRANCH   6   8
DOCKED: ENDBRANCH   3   6
DOCKED: ENDBRANCH   1   2
DOCKED: BRANCH   1  14
DOCKED: ATOM     14  N   UNL     1     141.092  73.133 221.049 -0.02 +0.09    -0.640 NA 
DOCKED: BRANCH  14  15
DOCKED: ATOM     15  C   UNL     1     140.205  73.084 222.180 -0.23 -0.01    +0.101 C  
DOCKED: ATOM     16  O   UNL     1     139.370  74.019 222.305 -0.67 +0.06    -0.313 OA 
DOCKED: BRANCH  15  17
DOCKED: ATOM     17  C   UNL     1     140.231  72.007 223.207 -0.32 -0.01    +0.088 A  
DOCKED: ATOM     18  C   UNL     1     139.757  70.719 222.895 -0.25 -0.01    +0.031 A  
DOCKED: ATOM     19  N   UNL     1     140.691  72.253 224.464 +0.03 +0.03    -0.246 NA 
DOCKED: ATOM     20  C   UNL     1     139.741  69.726 223.876 -0.23 -0.00    +0.013 A  
DOCKED: ATOM     21  C   UNL     1     140.688  71.308 225.440 -0.53 -0.01    +0.071 A  
DOCKED: ATOM     22  C   UNL     1     140.197  70.015 225.166 -0.44 -0.00    +0.002 A  
DOCKED: ATOM     23  C   UNL     1     141.154  71.621 226.723 -0.71 -0.00    +0.030 A  
DOCKED: ATOM     24  C   UNL     1     140.165  69.051 226.183 -0.51 -0.01    +0.030 A  
DOCKED: ATOM     25  C   UNL     1     141.122  70.654 227.733 -0.60 -0.00    +0.023 A  
DOCKED: ATOM     26  C   UNL     1     140.624  69.373 227.465 -0.58 -0.01    +0.041 A  
DOCKED: ATOM     27  Cl  UNL     1     140.580  68.168 228.740 -0.55 +0.02    -0.084 Cl 
DOCKED: ENDBRANCH  15  17
DOCKED: ENDBRANCH  14  15
DOCKED: ENDBRANCH   1  14
DOCKED: TORSDOF 6
DOCKED: TER
DOCKED: ENDMDL
________________________________________________________________________________


    FINAL DOCKED STATE:
    ________________________


Run:   14 / 20
Time taken for this run:   0.038s

DOCKED: MODEL        14
DOCKED: USER    Run = 14
DOCKED: USER
DOCKED: USER    Estimated Free Energy of Binding    =  -7.32 kcal/mol  [=(1)+(2)+(3)-(4)]
DOCKED: USER
DOCKED: USER    (1) Final Intermolecular Energy     =  -9.11 kcal/mol
DOCKED: USER        vdW + Hbond + desolv Energy     =  -9.24 kcal/mol
DOCKED: USER        Electrostatic Energy            =  +0.13 kcal/mol
DOCKED: USER        Moving Ligand-Fixed Receptor    =  -9.11 kcal/mol
DOCKED: USER        Moving Ligand-Moving Receptor   =  +0.00 kcal/mol
DOCKED: USER    (2) Final Total Internal Energy     =  -2.14 kcal/mol
DOCKED: USER    (3) Torsional Free Energy           =  +1.79 kcal/mol
DOCKED: USER    (4) Unbound System's Energy         =  -2.14 kcal/mol
DOCKED: USER
DOCKED: USER
DOCKED: REMARK SMILES C[C@H](NC(=O)C[N-]C(=O)c1ccc2cc(Cl)ccc2n1)c1ccccc1
DOCKED: REMARK SMILES IDX 6 1 4 2 3 3 5 5 2 6 1 7 21 8 22 9 26 10 23 11 25 12 24 13
DOCKED: REMARK SMILES IDX 7 14 8 15 9 16 10 17 11 18 20 19 12 20 19 21 13 22 18 23
DOCKED: REMARK SMILES IDX 14 24 17 25 15 26 16 27
DOCKED: REMARK H PARENT 3 4
DOCKED: USER                              x       y       z     vdW  Elec       q    Type
DOCKED: USER                           _______ _______ _______ _____ _____    ______ ____
DOCKED: ROOT
DOCKED: ATOM      1  C   UNL     1     138.378  73.318 220.076 -0.06 +0.00    -0.015 C  
DOCKED: ENDROOT
DOCKED: BRANCH   1   2
DOCKED: ATOM      2  C   UNL     1     137.753  74.622 220.476 -0.05 -0.04    +0.202 C  
DOCKED: ATOM      3  N   UNL     1     137.820  75.089 221.832 -0.09 +0.09    -0.351 N  
DOCKED: ATOM      4  H   UNL     1     138.177  74.443 222.571 -0.41 -0.07    +0.164 HD 
DOCKED: ATOM      5  O   UNL     1     137.117  75.284 219.612 -0.01 +0.05    -0.277 OA 
DOCKED: BRANCH   3   6
DOCKED: ATOM      6  C   UNL     1     137.408  76.449 222.193 -0.21 -0.02    +0.109 C  
DOCKED: ATOM      7  C   UNL     1     136.416  76.425 223.361 -0.17 -0.01    +0.036 C  
DOCKED: BRANCH   6   8
DOCKED: ATOM      8  C   UNL     1     138.621  77.287 222.537 -0.29 +0.00    -0.026 A  
DOCKED: ATOM      9  C   UNL     1     138.465  78.585 223.053 -0.28 -0.00    +0.006 A  
DOCKED: ATOM     10  C   UNL     1     139.920  76.786 222.330 -0.38 -0.00    +0.006 A  
DOCKED: ATOM     11  C   UNL     1     139.583  79.363 223.362 -0.41 -0.00    +0.000 A  
DOCKED: ATOM     12  C   UNL     1     141.036  77.563 222.654 -0.46 -0.00    +0.000 A  
DOCKED: ATOM     13  C   UNL     1     140.869  78.851 223.164 -0.50 -0.00    +0.000 A  
DOCKED: ENDBRANCH   6   8
DOCKED: ENDBRANCH   3   6
DOCKED: ENDBRANCH   1   2
DOCKED: BRANCH   1  14
DOCKED: ATOM     14  N   UNL     1     138.610  72.453 221.230 +0.02 +0.13    -0.640 NA 
DOCKED: BRANCH  14  15
DOCKED: ATOM     15  C   UNL     1     139.536  72.628 222.316 -0.24 -0.02    +0.101 C  
DOCKED: ATOM     16  O   UNL     1     140.202  73.698 222.345 -0.81 +0.00    -0.313 OA 
DOCKED: BRANCH  15  17
DOCKED: ATOM     17  C   UNL     1     139.760  71.618 223.386 -0.32 -0.02    +0.088 A  
DOCKED: ATOM     18  C   UNL     1     139.392  70.274 223.181 -0.25 -0.01    +0.031 A  
DOCKED: ATOM     19  N   UNL     1     140.300  71.977 224.582 -0.18 +0.04    -0.246 NA 
DOCKED: ATOM     20  C   UNL     1     139.561  69.341 224.204 -0.29 -0.00    +0.013 A  
DOCKED: ATOM     21  C   UNL     1     140.477  71.093 225.598 -0.52 -0.01    +0.071 A  
DOCKED: ATOM     22  C   UNL     1     140.096  69.745 225.432 -0.45 -0.00    +0.002 A  
DOCKED: ATOM     23  C   UNL     1     141.019  71.521 226.817 -0.71 -0.00    +0.030 A  
DOCKED: ATOM     24  C   UNL     1     140.250  68.841 226.493 -0.55 -0.01    +0.030 A  
DOCKED: ATOM     25  C   UNL     1     141.172  70.613 227.870 -0.57 -0.00    +0.023 A  
DOCKED: ATOM     26  C   UNL     1     140.784  69.278 227.710 -0.59 -0.01    +0.041 A  
DOCKED: ATOM     27  Cl  UNL     1     140.972  68.147 229.039 -0.47 +0.02    -0.084 Cl 
DOCKED: ENDBRANCH  15  17
DOCKED: ENDBRANCH  14  15
DOCKED: ENDBRANCH   1  14
DOCKED: TORSDOF 6
DOCKED: TER
DOCKED: ENDMDL
________________________________________________________________________________


    FINAL DOCKED STATE:
    ________________________


Run:   15 / 20
Time taken for this run:   0.038s

DOCKED: MODEL        15
DOCKED: USER    Run = 15
DOCKED: USER
DOCKED: USER    Estimated Free Energy of Binding    =  -5.90 kcal/mol  [=(1)+(2)+(3)-(4)]
DOCKED: USER
DOCKED: USER    (1) Final Intermolecular Energy     =  -7.69 kcal/mol
DOCKED: USER        vdW + Hbond + desolv Energy     =  -8.02 kcal/mol
DOCKED: USER        Electrostatic Energy            =  +0.33 kcal/mol
DOCKED: USER        Moving Ligand-Fixed Receptor    =  -7.69 kcal/mol
DOCKED: USER        Moving Ligand-Moving Receptor   =  +0.00 kcal/mol
DOCKED: USER    (2) Final Total Internal Energy     =  -3.58 kcal/mol
DOCKED: USER    (3) Torsional Free Energy           =  +1.79 kcal/mol
DOCKED: USER    (4) Unbound System's Energy         =  -3.58 kcal/mol
DOCKED: USER
DOCKED: USER
DOCKED: REMARK SMILES C[C@H](NC(=O)C[N-]C(=O)c1ccc2cc(Cl)ccc2n1)c1ccccc1
DOCKED: REMARK SMILES IDX 6 1 4 2 3 3 5 5 2 6 1 7 21 8 22 9 26 10 23 11 25 12 24 13
DOCKED: REMARK SMILES IDX 7 14 8 15 9 16 10 17 11 18 20 19 12 20 19 21 13 22 18 23
DOCKED: REMARK SMILES IDX 14 24 17 25 15 26 16 27
DOCKED: REMARK H PARENT 3 4
DOCKED: USER                              x       y       z     vdW  Elec       q    Type
DOCKED: USER                           _______ _______ _______ _____ _____    ______ ____
DOCKED: ROOT
DOCKED: ATOM      1  C   UNL     1     142.581  75.332 219.881 -0.31 +0.01    -0.015 C  
DOCKED: ENDROOT
DOCKED: BRANCH   1   2
DOCKED: ATOM      2  C   UNL     1     142.204  76.744 219.538 -0.23 -0.11    +0.202 C  
DOCKED: ATOM      3  N   UNL     1     141.943  77.710 220.567 -0.12 +0.23    -0.351 N  
DOCKED: ATOM      4  H   UNL     1     141.870  77.386 221.557 -0.33 -0.12    +0.164 HD 
DOCKED: ATOM      5  O   UNL     1     142.066  77.061 218.325 -0.13 +0.15    -0.277 OA 
DOCKED: BRANCH   3   6
DOCKED: ATOM      6  C   UNL     1     141.786  79.134 220.256 -0.24 -0.06    +0.109 C  
DOCKED: ATOM      7  C   UNL     1     140.433  79.400 219.587 -0.14 -0.01    +0.036 C  
DOCKED: BRANCH   6   8
DOCKED: ATOM      8  C   UNL     1     141.935  79.962 221.515 -0.41 +0.01    -0.026 A  
DOCKED: ATOM      9  C   UNL     1     141.355  81.240 221.597 -0.40 -0.00    +0.006 A  
DOCKED: ATOM     10  C   UNL     1     142.667  79.472 222.612 -0.56 -0.00    +0.006 A  
DOCKED: ATOM     11  C   UNL     1     141.499  82.009 222.755 -0.37 -0.00    +0.000 A  
DOCKED: ATOM     12  C   UNL     1     142.796  80.239 223.773 -0.64 -0.00    +0.000 A  
DOCKED: ATOM     13  C   UNL     1     142.217  81.508 223.844 -0.60 -0.00    +0.000 A  
DOCKED: ENDBRANCH   6   8
DOCKED: ENDBRANCH   3   6
DOCKED: ENDBRANCH   1   2
DOCKED: BRANCH   1  14
DOCKED: ATOM     14  N   UNL     1     142.099  74.950 221.206 +0.05 +0.23    -0.640 NA 
DOCKED: BRANCH  14  15
DOCKED: ATOM     15  C   UNL     1     140.745  74.867 221.684 -0.24 -0.01    +0.101 C  
DOCKED: ATOM     16  O   UNL     1     140.300  73.723 221.970 -0.78 +0.02    -0.313 OA 
DOCKED: BRANCH  15  17
DOCKED: ATOM     17  C   UNL     1     139.848  76.044 221.841 -0.30 -0.02    +0.088 A  
DOCKED: ATOM     18  C   UNL     1     138.696  76.168 221.042 -0.15 -0.01    +0.031 A  
DOCKED: ATOM     19  N   UNL     1     140.134  77.023 222.741 -0.19 +0.05    -0.246 NA 
DOCKED: ATOM     20  C   UNL     1     137.883  77.296 221.162 -0.12 -0.00    +0.013 A  
DOCKED: ATOM     21  C   UNL     1     139.364  78.133 222.881 -0.26 -0.01    +0.071 A  
DOCKED: ATOM     22  C   UNL     1     138.216  78.300 222.078 -0.21 -0.00    +0.002 A  
DOCKED: ATOM     23  C   UNL     1     139.716  79.122 223.809 -0.32 -0.00    +0.030 A  
DOCKED: ATOM     24  C   UNL     1     137.440  79.460 222.202 -0.15 -0.00    +0.030 A  
DOCKED: ATOM     25  C   UNL     1     138.936  80.276 223.929 -0.40 -0.00    +0.023 A  
DOCKED: ATOM     26  C   UNL     1     137.803  80.447 223.125 -0.25 -0.01    +0.041 A  
DOCKED: ATOM     27  Cl  UNL     1     136.834  81.903 223.277 -0.22 +0.01    -0.084 Cl 
DOCKED: ENDBRANCH  15  17
DOCKED: ENDBRANCH  14  15
DOCKED: ENDBRANCH   1  14
DOCKED: TORSDOF 6
DOCKED: TER
DOCKED: ENDMDL
________________________________________________________________________________


    FINAL DOCKED STATE:
    ________________________


Run:   16 / 20
Time taken for this run:   0.038s

DOCKED: MODEL        16
DOCKED: USER    Run = 16
DOCKED: USER
DOCKED: USER    Estimated Free Energy of Binding    =  -7.05 kcal/mol  [=(1)+(2)+(3)-(4)]
DOCKED: USER
DOCKED: USER    (1) Final Intermolecular Energy     =  -8.84 kcal/mol
DOCKED: USER        vdW + Hbond + desolv Energy     =  -8.99 kcal/mol
DOCKED: USER        Electrostatic Energy            =  +0.15 kcal/mol
DOCKED: USER        Moving Ligand-Fixed Receptor    =  -8.84 kcal/mol
DOCKED: USER        Moving Ligand-Moving Receptor   =  +0.00 kcal/mol
DOCKED: USER    (2) Final Total Internal Energy     =  -2.46 kcal/mol
DOCKED: USER    (3) Torsional Free Energy           =  +1.79 kcal/mol
DOCKED: USER    (4) Unbound System's Energy         =  -2.46 kcal/mol
DOCKED: USER
DOCKED: USER
DOCKED: REMARK SMILES C[C@H](NC(=O)C[N-]C(=O)c1ccc2cc(Cl)ccc2n1)c1ccccc1
DOCKED: REMARK SMILES IDX 6 1 4 2 3 3 5 5 2 6 1 7 21 8 22 9 26 10 23 11 25 12 24 13
DOCKED: REMARK SMILES IDX 7 14 8 15 9 16 10 17 11 18 20 19 12 20 19 21 13 22 18 23
DOCKED: REMARK SMILES IDX 14 24 17 25 15 26 16 27
DOCKED: REMARK H PARENT 3 4
DOCKED: USER                              x       y       z     vdW  Elec       q    Type
DOCKED: USER                           _______ _______ _______ _____ _____    ______ ____
DOCKED: ROOT
DOCKED: ATOM      1  C   UNL     1     137.407  71.507 222.465 -0.15 +0.00    -0.015 C  
DOCKED: ENDROOT
DOCKED: BRANCH   1   2
DOCKED: ATOM      2  C   UNL     1     137.518  70.693 223.720 -0.17 -0.04    +0.202 C  
DOCKED: ATOM      3  N   UNL     1     138.702  69.934 224.006 -0.11 +0.06    -0.351 N  
DOCKED: ATOM      4  H   UNL     1     139.428  69.831 223.263 +0.06 -0.03    +0.164 HD 
DOCKED: ATOM      5  O   UNL     1     136.531  70.641 224.503 -0.13 +0.03    -0.277 OA 
DOCKED: BRANCH   3   6
DOCKED: ATOM      6  C   UNL     1     138.912  69.312 225.317 -0.35 -0.01    +0.109 C  
DOCKED: ATOM      7  C   UNL     1     139.527  67.916 225.166 -0.39 -0.00    +0.036 C  
DOCKED: BRANCH   6   8
DOCKED: ATOM      8  C   UNL     1     139.792  70.195 226.177 -0.46 +0.00    -0.026 A  
DOCKED: ATOM      9  C   UNL     1     139.756  70.084 227.578 -0.56 -0.00    +0.006 A  
DOCKED: ATOM     10  C   UNL     1     140.643  71.148 225.590 -0.59 -0.00    +0.006 A  
DOCKED: ATOM     11  C   UNL     1     140.560  70.904 228.374 -0.59 -0.00    +0.000 A  
DOCKED: ATOM     12  C   UNL     1     141.456  71.956 226.388 -0.65 -0.00    +0.000 A  
DOCKED: ATOM     13  C   UNL     1     141.412  71.839 227.779 -0.77 -0.00    +0.000 A  
DOCKED: ENDBRANCH   6   8
DOCKED: ENDBRANCH   3   6
DOCKED: ENDBRANCH   1   2
DOCKED: BRANCH   1  14
DOCKED: ATOM     14  N   UNL     1     138.629  71.441 221.667 +0.03 +0.13    -0.640 NA 
DOCKED: BRANCH  14  15
DOCKED: ATOM     15  C   UNL     1     139.931  71.972 221.966 -0.23 -0.02    +0.101 C  
DOCKED: ATOM     16  O   UNL     1     140.791  71.176 222.431 -0.11 +0.03    -0.313 OA 
DOCKED: BRANCH  15  17
DOCKED: ATOM     17  C   UNL     1     140.309  73.399 221.772 -0.26 -0.01    +0.088 A  
DOCKED: ATOM     18  C   UNL     1     141.488  73.731 221.078 -0.27 -0.00    +0.031 A  
DOCKED: ATOM     19  N   UNL     1     139.538  74.399 222.278 -0.69 +0.04    -0.246 NA 
DOCKED: ATOM     20  C   UNL     1     141.861  75.069 220.940 -0.29 -0.00    +0.013 A  
DOCKED: ATOM     21  C   UNL     1     139.874  75.710 222.161 -0.29 -0.01    +0.071 A  
DOCKED: ATOM     22  C   UNL     1     141.061  76.075 221.492 -0.35 -0.00    +0.002 A  
DOCKED: ATOM     23  C   UNL     1     139.054  76.699 222.718 -0.26 -0.01    +0.030 A  
DOCKED: ATOM     24  C   UNL     1     141.422  77.426 221.400 -0.29 -0.02    +0.030 A  
DOCKED: ATOM     25  C   UNL     1     139.419  78.045 222.620 -0.32 -0.00    +0.023 A  
DOCKED: ATOM     26  C   UNL     1     140.602  78.408 221.967 -0.32 -0.01    +0.041 A  
DOCKED: ATOM     27  Cl  UNL     1     141.057  80.100 221.855 -0.47 +0.03    -0.084 Cl 
DOCKED: ENDBRANCH  15  17
DOCKED: ENDBRANCH  14  15
DOCKED: ENDBRANCH   1  14
DOCKED: TORSDOF 6
DOCKED: TER
DOCKED: ENDMDL
________________________________________________________________________________


    FINAL DOCKED STATE:
    ________________________


Run:   17 / 20
Time taken for this run:   0.038s

DOCKED: MODEL        17
DOCKED: USER    Run = 17
DOCKED: USER
DOCKED: USER    Estimated Free Energy of Binding    =  -7.35 kcal/mol  [=(1)+(2)+(3)-(4)]
DOCKED: USER
DOCKED: USER    (1) Final Intermolecular Energy     =  -9.14 kcal/mol
DOCKED: USER        vdW + Hbond + desolv Energy     =  -9.26 kcal/mol
DOCKED: USER        Electrostatic Energy            =  +0.12 kcal/mol
DOCKED: USER        Moving Ligand-Fixed Receptor    =  -9.14 kcal/mol
DOCKED: USER        Moving Ligand-Moving Receptor   =  +0.00 kcal/mol
DOCKED: USER    (2) Final Total Internal Energy     =  -2.14 kcal/mol
DOCKED: USER    (3) Torsional Free Energy           =  +1.79 kcal/mol
DOCKED: USER    (4) Unbound System's Energy         =  -2.14 kcal/mol
DOCKED: USER
DOCKED: USER
DOCKED: REMARK SMILES C[C@H](NC(=O)C[N-]C(=O)c1ccc2cc(Cl)ccc2n1)c1ccccc1
DOCKED: REMARK SMILES IDX 6 1 4 2 3 3 5 5 2 6 1 7 21 8 22 9 26 10 23 11 25 12 24 13
DOCKED: REMARK SMILES IDX 7 14 8 15 9 16 10 17 11 18 20 19 12 20 19 21 13 22 18 23
DOCKED: REMARK SMILES IDX 14 24 17 25 15 26 16 27
DOCKED: REMARK H PARENT 3 4
DOCKED: USER                              x       y       z     vdW  Elec       q    Type
DOCKED: USER                           _______ _______ _______ _____ _____    ______ ____
DOCKED: ROOT
DOCKED: ATOM      1  C   UNL     1     138.593  73.317 219.992 -0.06 +0.00    -0.015 C  
DOCKED: ENDROOT
DOCKED: BRANCH   1   2
DOCKED: ATOM      2  C   UNL     1     137.922  74.581 220.445 -0.05 -0.04    +0.202 C  
DOCKED: ATOM      3  N   UNL     1     137.924  74.964 221.829 -0.09 +0.09    -0.351 N  
DOCKED: ATOM      4  H   UNL     1     138.267  74.282 222.541 -0.40 -0.07    +0.164 HD 
DOCKED: ATOM      5  O   UNL     1     137.305  75.281 219.598 -0.01 +0.05    -0.277 OA 
DOCKED: BRANCH   3   6
DOCKED: ATOM      6  C   UNL     1     137.466  76.290 222.255 -0.22 -0.02    +0.109 C  
DOCKED: ATOM      7  C   UNL     1     136.528  76.180 223.461 -0.19 -0.01    +0.036 C  
DOCKED: BRANCH   6   8
DOCKED: ATOM      8  C   UNL     1     138.653  77.173 222.577 -0.29 +0.00    -0.026 A  
DOCKED: ATOM      9  C   UNL     1     138.457  78.470 223.081 -0.27 -0.00    +0.006 A  
DOCKED: ATOM     10  C   UNL     1     139.966  76.716 222.361 -0.38 -0.00    +0.006 A  
DOCKED: ATOM     11  C   UNL     1     139.552  79.290 223.369 -0.40 -0.00    +0.000 A  
DOCKED: ATOM     12  C   UNL     1     141.058  77.533 222.664 -0.46 -0.00    +0.000 A  
DOCKED: ATOM     13  C   UNL     1     140.852  78.821 223.163 -0.50 -0.00    +0.000 A  
DOCKED: ENDBRANCH   6   8
DOCKED: ENDBRANCH   3   6
DOCKED: ENDBRANCH   1   2
DOCKED: BRANCH   1  14
DOCKED: ATOM     14  N   UNL     1     138.843  72.408 221.108 +0.03 +0.13    -0.640 NA 
DOCKED: BRANCH  14  15
DOCKED: ATOM     15  C   UNL     1     139.691  72.598 222.253 -0.25 -0.02    +0.101 C  
DOCKED: ATOM     16  O   UNL     1     140.336  73.680 222.326 -0.80 -0.00    -0.313 OA 
DOCKED: BRANCH  15  17
DOCKED: ATOM     17  C   UNL     1     139.859  71.592 223.337 -0.32 -0.02    +0.088 A  
DOCKED: ATOM     18  C   UNL     1     139.469  70.256 223.130 -0.24 -0.01    +0.031 A  
DOCKED: ATOM     19  N   UNL     1     140.370  71.949 224.546 -0.22 +0.04    -0.246 NA 
DOCKED: ATOM     20  C   UNL     1     139.585  69.327 224.165 -0.28 -0.00    +0.013 A  
DOCKED: ATOM     21  C   UNL     1     140.497  71.069 225.574 -0.52 -0.01    +0.071 A  
DOCKED: ATOM     22  C   UNL     1     140.091  69.728 225.406 -0.45 -0.00    +0.002 A  
DOCKED: ATOM     23  C   UNL     1     141.011  71.494 226.805 -0.71 -0.00    +0.030 A  
DOCKED: ATOM     24  C   UNL     1     140.193  68.830 226.477 -0.55 -0.01    +0.030 A  
DOCKED: ATOM     25  C   UNL     1     141.111  70.592 227.869 -0.61 -0.00    +0.023 A  
DOCKED: ATOM     26  C   UNL     1     140.699  69.264 227.707 -0.59 -0.01    +0.041 A  
DOCKED: ATOM     27  Cl  UNL     1     140.821  68.140 229.049 -0.41 +0.02    -0.084 Cl 
DOCKED: ENDBRANCH  15  17
DOCKED: ENDBRANCH  14  15
DOCKED: ENDBRANCH   1  14
DOCKED: TORSDOF 6
DOCKED: TER
DOCKED: ENDMDL
________________________________________________________________________________


    FINAL DOCKED STATE:
    ________________________


Run:   18 / 20
Time taken for this run:   0.038s

DOCKED: MODEL        18
DOCKED: USER    Run = 18
DOCKED: USER
DOCKED: USER    Estimated Free Energy of Binding    =  -7.36 kcal/mol  [=(1)+(2)+(3)-(4)]
DOCKED: USER
DOCKED: USER    (1) Final Intermolecular Energy     =  -9.15 kcal/mol
DOCKED: USER        vdW + Hbond + desolv Energy     =  -9.27 kcal/mol
DOCKED: USER        Electrostatic Energy            =  +0.12 kcal/mol
DOCKED: USER        Moving Ligand-Fixed Receptor    =  -9.15 kcal/mol
DOCKED: USER        Moving Ligand-Moving Receptor   =  +0.00 kcal/mol
DOCKED: USER    (2) Final Total Internal Energy     =  -2.13 kcal/mol
DOCKED: USER    (3) Torsional Free Energy           =  +1.79 kcal/mol
DOCKED: USER    (4) Unbound System's Energy         =  -2.13 kcal/mol
DOCKED: USER
DOCKED: USER
DOCKED: REMARK SMILES C[C@H](NC(=O)C[N-]C(=O)c1ccc2cc(Cl)ccc2n1)c1ccccc1
DOCKED: REMARK SMILES IDX 6 1 4 2 3 3 5 5 2 6 1 7 21 8 22 9 26 10 23 11 25 12 24 13
DOCKED: REMARK SMILES IDX 7 14 8 15 9 16 10 17 11 18 20 19 12 20 19 21 13 22 18 23
DOCKED: REMARK SMILES IDX 14 24 17 25 15 26 16 27
DOCKED: REMARK H PARENT 3 4
DOCKED: USER                              x       y       z     vdW  Elec       q    Type
DOCKED: USER                           _______ _______ _______ _____ _____    ______ ____
DOCKED: ROOT
DOCKED: ATOM      1  C   UNL     1     138.564  73.377 220.050 -0.06 +0.00    -0.015 C  
DOCKED: ENDROOT
DOCKED: BRANCH   1   2
DOCKED: ATOM      2  C   UNL     1     137.883  74.643 220.481 -0.05 -0.04    +0.202 C  
DOCKED: ATOM      3  N   UNL     1     137.954  75.094 221.842 -0.10 +0.09    -0.351 N  
DOCKED: ATOM      4  H   UNL     1     138.358  74.458 222.564 -0.41 -0.07    +0.164 HD 
DOCKED: ATOM      5  O   UNL     1     137.198  75.284 219.639 -0.01 +0.05    -0.277 OA 
DOCKED: BRANCH   3   6
DOCKED: ATOM      6  C   UNL     1     137.482  76.427 222.230 -0.21 -0.02    +0.109 C  
DOCKED: ATOM      7  C   UNL     1     136.492  76.336 223.396 -0.17 -0.01    +0.036 C  
DOCKED: BRANCH   6   8
DOCKED: ATOM      8  C   UNL     1     138.658  77.310 222.593 -0.29 +0.00    -0.026 A  
DOCKED: ATOM      9  C   UNL     1     138.444  78.594 223.123 -0.26 -0.00    +0.006 A  
DOCKED: ATOM     10  C   UNL     1     139.977  76.867 222.389 -0.37 -0.00    +0.006 A  
DOCKED: ATOM     11  C   UNL     1     139.528  79.414 223.449 -0.42 -0.00    +0.000 A  
DOCKED: ATOM     12  C   UNL     1     141.058  77.684 222.730 -0.47 -0.00    +0.000 A  
DOCKED: ATOM     13  C   UNL     1     140.834  78.959 223.255 -0.51 -0.00    +0.000 A  
DOCKED: ENDBRANCH   6   8
DOCKED: ENDBRANCH   3   6
DOCKED: ENDBRANCH   1   2
DOCKED: BRANCH   1  14
DOCKED: ATOM     14  N   UNL     1     138.791  72.475 221.176 +0.02 +0.13    -0.640 NA 
DOCKED: BRANCH  14  15
DOCKED: ATOM     15  C   UNL     1     139.683  72.634 222.293 -0.25 -0.02    +0.101 C  
DOCKED: ATOM     16  O   UNL     1     140.368  73.691 222.344 -0.80 -0.01    -0.313 OA 
DOCKED: BRANCH  15  17
DOCKED: ATOM     17  C   UNL     1     139.849  71.623 223.373 -0.32 -0.02    +0.088 A  
DOCKED: ATOM     18  C   UNL     1     139.456  70.288 223.159 -0.25 -0.01    +0.031 A  
DOCKED: ATOM     19  N   UNL     1     140.360  71.973 224.583 -0.20 +0.04    -0.246 NA 
DOCKED: ATOM     20  C   UNL     1     139.571  69.354 224.190 -0.29 -0.00    +0.013 A  
DOCKED: ATOM     21  C   UNL     1     140.485  71.089 225.607 -0.52 -0.01    +0.071 A  
DOCKED: ATOM     22  C   UNL     1     140.077  69.749 225.433 -0.45 -0.00    +0.002 A  
DOCKED: ATOM     23  C   UNL     1     140.999  71.507 226.841 -0.71 -0.00    +0.030 A  
DOCKED: ATOM     24  C   UNL     1     140.177  68.846 226.500 -0.55 -0.01    +0.030 A  
DOCKED: ATOM     25  C   UNL     1     141.098  70.600 227.900 -0.62 -0.00    +0.023 A  
DOCKED: ATOM     26  C   UNL     1     140.683  69.274 227.732 -0.59 -0.01    +0.041 A  
DOCKED: ATOM     27  Cl  UNL     1     140.803  68.144 229.070 -0.39 +0.02    -0.084 Cl 
DOCKED: ENDBRANCH  15  17
DOCKED: ENDBRANCH  14  15
DOCKED: ENDBRANCH   1  14
DOCKED: TORSDOF 6
DOCKED: TER
DOCKED: ENDMDL
________________________________________________________________________________


    FINAL DOCKED STATE:
    ________________________


Run:   19 / 20
Time taken for this run:   0.038s

DOCKED: MODEL        19
DOCKED: USER    Run = 19
DOCKED: USER
DOCKED: USER    Estimated Free Energy of Binding    =  -6.01 kcal/mol  [=(1)+(2)+(3)-(4)]
DOCKED: USER
DOCKED: USER    (1) Final Intermolecular Energy     =  -7.80 kcal/mol
DOCKED: USER        vdW + Hbond + desolv Energy     =  -8.11 kcal/mol
DOCKED: USER        Electrostatic Energy            =  +0.30 kcal/mol
DOCKED: USER        Moving Ligand-Fixed Receptor    =  -7.80 kcal/mol
DOCKED: USER        Moving Ligand-Moving Receptor   =  +0.00 kcal/mol
DOCKED: USER    (2) Final Total Internal Energy     =  -3.27 kcal/mol
DOCKED: USER    (3) Torsional Free Energy           =  +1.79 kcal/mol
DOCKED: USER    (4) Unbound System's Energy         =  -3.27 kcal/mol
DOCKED: USER
DOCKED: USER
DOCKED: REMARK SMILES C[C@H](NC(=O)C[N-]C(=O)c1ccc2cc(Cl)ccc2n1)c1ccccc1
DOCKED: REMARK SMILES IDX 6 1 4 2 3 3 5 5 2 6 1 7 21 8 22 9 26 10 23 11 25 12 24 13
DOCKED: REMARK SMILES IDX 7 14 8 15 9 16 10 17 11 18 20 19 12 20 19 21 13 22 18 23
DOCKED: REMARK SMILES IDX 14 24 17 25 15 26 16 27
DOCKED: REMARK H PARENT 3 4
DOCKED: USER                              x       y       z     vdW  Elec       q    Type
DOCKED: USER                           _______ _______ _______ _____ _____    ______ ____
DOCKED: ROOT
DOCKED: ATOM      1  C   UNL     1     142.366  75.554 220.097 -0.31 +0.01    -0.015 C  
DOCKED: ENDROOT
DOCKED: BRANCH   1   2
DOCKED: ATOM      2  C   UNL     1     142.400  77.006 219.724 -0.24 -0.13    +0.202 C  
DOCKED: ATOM      3  N   UNL     1     141.397  77.916 220.202 -0.09 +0.18    -0.351 N  
DOCKED: ATOM      4  H   UNL     1     140.557  77.531 220.688 +0.07 -0.06    +0.164 HD 
DOCKED: ATOM      5  O   UNL     1     143.297  77.414 218.938 -0.26 +0.22    -0.277 OA 
DOCKED: BRANCH   3   6
DOCKED: ATOM      6  C   UNL     1     141.535  79.365 220.027 -0.24 -0.06    +0.109 C  
DOCKED: ATOM      7  C   UNL     1     140.265  79.963 219.411 -0.12 -0.01    +0.036 C  
DOCKED: BRANCH   6   8
DOCKED: ATOM      8  C   UNL     1     141.847  80.022 221.355 -0.40 +0.01    -0.026 A  
DOCKED: ATOM      9  C   UNL     1     141.433  81.341 221.609 -0.41 -0.00    +0.006 A  
DOCKED: ATOM     10  C   UNL     1     142.568  79.331 222.345 -0.50 -0.00    +0.006 A  
DOCKED: ATOM     11  C   UNL     1     141.728  81.953 222.831 -0.38 -0.00    +0.000 A  
DOCKED: ATOM     12  C   UNL     1     142.849  79.941 223.570 -0.58 -0.00    +0.000 A  
DOCKED: ATOM     13  C   UNL     1     142.434  81.252 223.812 -0.64 -0.00    +0.000 A  
DOCKED: ENDBRANCH   6   8
DOCKED: ENDBRANCH   3   6
DOCKED: ENDBRANCH   1   2
DOCKED: BRANCH   1  14
DOCKED: ATOM     14  N   UNL     1     141.004  75.093 220.355 +0.02 +0.18    -0.640 NA 
DOCKED: BRANCH  14  15
DOCKED: ATOM     15  C   UNL     1     140.272  75.093 221.593 -0.29 -0.02    +0.101 C  
DOCKED: ATOM     16  O   UNL     1     140.393  74.085 222.340 -0.79 -0.02    -0.313 OA 
DOCKED: BRANCH  15  17
DOCKED: ATOM     17  C   UNL     1     139.377  76.201 222.028 -0.29 -0.02    +0.088 A  
DOCKED: ATOM     18  C   UNL     1     138.008  76.174 221.703 -0.20 -0.01    +0.031 A  
DOCKED: ATOM     19  N   UNL     1     139.869  77.261 222.723 -0.20 +0.05    -0.246 NA 
DOCKED: ATOM     20  C   UNL     1     137.183  77.238 222.073 -0.18 -0.00    +0.013 A  
DOCKED: ATOM     21  C   UNL     1     139.093  78.312 223.098 -0.26 -0.01    +0.071 A  
DOCKED: ATOM     22  C   UNL     1     137.722  78.327 222.766 -0.23 -0.00    +0.002 A  
DOCKED: ATOM     23  C   UNL     1     139.654  79.389 223.795 -0.42 -0.00    +0.030 A  
DOCKED: ATOM     24  C   UNL     1     136.930  79.426 223.126 -0.20 -0.00    +0.030 A  
DOCKED: ATOM     25  C   UNL     1     138.858  80.481 224.153 -0.39 -0.00    +0.023 A  
DOCKED: ATOM     26  C   UNL     1     137.499  80.502 223.815 -0.30 -0.00    +0.041 A  
DOCKED: ATOM     27  Cl  UNL     1     136.508  81.880 224.260 -0.29 +0.01    -0.084 Cl 
DOCKED: ENDBRANCH  15  17
DOCKED: ENDBRANCH  14  15
DOCKED: ENDBRANCH   1  14
DOCKED: TORSDOF 6
DOCKED: TER
DOCKED: ENDMDL
________________________________________________________________________________


    FINAL DOCKED STATE:
    ________________________


Run:   20 / 20
Time taken for this run:   0.038s

DOCKED: MODEL        20
DOCKED: USER    Run = 20
DOCKED: USER
DOCKED: USER    Estimated Free Energy of Binding    =  -5.91 kcal/mol  [=(1)+(2)+(3)-(4)]
DOCKED: USER
DOCKED: USER    (1) Final Intermolecular Energy     =  -7.70 kcal/mol
DOCKED: USER        vdW + Hbond + desolv Energy     =  -8.03 kcal/mol
DOCKED: USER        Electrostatic Energy            =  +0.33 kcal/mol
DOCKED: USER        Moving Ligand-Fixed Receptor    =  -7.70 kcal/mol
DOCKED: USER        Moving Ligand-Moving Receptor   =  +0.00 kcal/mol
DOCKED: USER    (2) Final Total Internal Energy     =  -3.60 kcal/mol
DOCKED: USER    (3) Torsional Free Energy           =  +1.79 kcal/mol
DOCKED: USER    (4) Unbound System's Energy         =  -3.60 kcal/mol
DOCKED: USER
DOCKED: USER
DOCKED: REMARK SMILES C[C@H](NC(=O)C[N-]C(=O)c1ccc2cc(Cl)ccc2n1)c1ccccc1
DOCKED: REMARK SMILES IDX 6 1 4 2 3 3 5 5 2 6 1 7 21 8 22 9 26 10 23 11 25 12 24 13
DOCKED: REMARK SMILES IDX 7 14 8 15 9 16 10 17 11 18 20 19 12 20 19 21 13 22 18 23
DOCKED: REMARK SMILES IDX 14 24 17 25 15 26 16 27
DOCKED: REMARK H PARENT 3 4
DOCKED: USER                              x       y       z     vdW  Elec       q    Type
DOCKED: USER                           _______ _______ _______ _____ _____    ______ ____
DOCKED: ROOT
DOCKED: ATOM      1  C   UNL     1     142.517  75.360 219.767 -0.30 +0.01    -0.015 C  
DOCKED: ENDROOT
DOCKED: BRANCH   1   2
DOCKED: ATOM      2  C   UNL     1     142.172  76.784 219.445 -0.22 -0.11    +0.202 C  
DOCKED: ATOM      3  N   UNL     1     141.935  77.741 220.488 -0.13 +0.23    -0.351 N  
DOCKED: ATOM      4  H   UNL     1     141.856  77.405 221.474 -0.28 -0.11    +0.164 HD 
DOCKED: ATOM      5  O   UNL     1     142.039  77.122 218.238 -0.12 +0.15    -0.277 OA 
DOCKED: BRANCH   3   6
DOCKED: ATOM      6  C   UNL     1     141.810  79.173 220.198 -0.23 -0.06    +0.109 C  
DOCKED: ATOM      7  C   UNL     1     140.477  79.475 219.505 -0.14 -0.01    +0.036 C  
DOCKED: BRANCH   6   8
DOCKED: ATOM      8  C   UNL     1     141.945  79.977 221.474 -0.41 +0.01    -0.026 A  
DOCKED: ATOM      9  C   UNL     1     141.361  81.251 221.575 -0.40 -0.00    +0.006 A  
DOCKED: ATOM     10  C   UNL     1     142.670  79.470 222.568 -0.55 -0.00    +0.006 A  
DOCKED: ATOM     11  C   UNL     1     141.493  81.999 222.749 -0.38 -0.00    +0.000 A  
DOCKED: ATOM     12  C   UNL     1     142.787  80.214 223.744 -0.64 -0.00    +0.000 A  
DOCKED: ATOM     13  C   UNL     1     142.204  81.480 223.834 -0.61 -0.00    +0.000 A  
DOCKED: ENDBRANCH   6   8
DOCKED: ENDBRANCH   3   6
DOCKED: ENDBRANCH   1   2
DOCKED: BRANCH   1  14
DOCKED: ATOM     14  N   UNL     1     142.082  74.989 221.111 +0.04 +0.23    -0.640 NA 
DOCKED: BRANCH  14  15
DOCKED: ATOM     15  C   UNL     1     140.746  74.913 221.638 -0.27 -0.02    +0.101 C  
DOCKED: ATOM     16  O   UNL     1     140.316  73.776 221.971 -0.80 +0.02    -0.313 OA 
DOCKED: BRANCH  15  17
DOCKED: ATOM     17  C   UNL     1     139.849  76.090 221.795 -0.30 -0.02    +0.088 A  
DOCKED: ATOM     18  C   UNL     1     138.705  76.222 220.986 -0.14 -0.01    +0.031 A  
DOCKED: ATOM     19  N   UNL     1     140.129  77.063 222.703 -0.22 +0.06    -0.246 NA 
DOCKED: ATOM     20  C   UNL     1     137.893  77.350 221.106 -0.11 -0.00    +0.013 A  
DOCKED: ATOM     21  C   UNL     1     139.359  78.174 222.844 -0.27 -0.01    +0.071 A  
DOCKED: ATOM     22  C   UNL     1     138.219  78.347 222.032 -0.20 -0.00    +0.002 A  
DOCKED: ATOM     23  C   UNL     1     139.705  79.156 223.781 -0.34 -0.00    +0.030 A  
DOCKED: ATOM     24  C   UNL     1     137.444  79.508 222.157 -0.14 -0.00    +0.030 A  
DOCKED: ATOM     25  C   UNL     1     138.926  80.310 223.902 -0.40 -0.00    +0.023 A  
DOCKED: ATOM     26  C   UNL     1     137.800  80.489 223.088 -0.24 -0.01    +0.041 A  
DOCKED: ATOM     27  Cl  UNL     1     136.832  81.945 223.241 -0.21 +0.01    -0.084 Cl 
DOCKED: ENDBRANCH  15  17
DOCKED: ENDBRANCH  14  15
DOCKED: ENDBRANCH   1  14
DOCKED: TORSDOF 6
DOCKED: TER
DOCKED: ENDMDL
________________________________________________________________________________


    CLUSTERING HISTOGRAM
    ____________________


________________________________________________________________________________
     |           |     |           |     |
Clus | Lowest    | Run | Mean      | Num | Histogram
-ter | Binding   |     | Binding   | in  |
Rank | Energy    |     | Energy    | Clus|    5    10   15   20   25   30   35
_____|___________|_____|___________|_____|____:____|____:____|____:____|____:___
   1 |     -7.57 |  13 |     -7.38 |   7 |#######
   2 |     -7.09 |   3 |     -7.09 |   1 |#
   3 |     -7.05 |  16 |     -6.99 |   2 |##
   4 |     -6.24 |   9 |     -6.24 |   1 |#
   5 |     -6.01 |   7 |     -5.95 |   9 |#########
_____|___________|_____|___________|_____|______________________________________


    RMSD TABLE
    __________


_______________________________________________________________________
     |      |      |           |         |                 |
Rank | Sub- | Run  | Binding   | Cluster | Reference       | Grep
     | Rank |      | Energy    | RMSD    | RMSD            | Pattern
_____|______|______|___________|_________|_________________|___________
   1      1     13       -7.57      0.00    272.35           RANKING
   1      2      5       -7.38      1.22    272.31           RANKING
   1      3     18       -7.36      1.89    271.78           RANKING
   1      4     10       -7.35      1.92    271.74           RANKING
   1      5     17       -7.35      1.90    271.74           RANKING
   1      6     14       -7.32      1.92    271.74           RANKING
   1      7     12       -7.32      0.48    272.13           RANKING
   2      1      3       -7.09      0.00    271.70           RANKING
   3      1     16       -7.05      0.00    271.78           RANKING
   3      2      6       -6.94      1.25    271.52           RANKING
   4      1      9       -6.24      0.00    272.01           RANKING
   5      1      7       -6.01      0.00    272.13           RANKING
   5      2     19       -6.01      0.03    272.15           RANKING
   5      3     11       -5.97      0.06    272.14           RANKING
   5      4      1       -5.97      0.09    272.15           RANKING
   5      5      4       -5.95      0.08    272.14           RANKING
   5      6      2       -5.91      0.70    272.10           RANKING
   5      7     20       -5.91      0.75    272.09           RANKING
   5      8      8       -5.90      0.76    272.11           RANKING
   5      9     15       -5.90      0.75    272.12           RANKING

Run time 0.716 sec
Idle time 0.000 sec
