AutoDock-GPU version: v1.6

**********************************************************
**    AutoDock-GPU AUTODOCKTOOLS-COMPATIBLE DLG FILE    **
**********************************************************


    DOCKING PARAMETERS
    ________________________


Ligand file:                               /home/a/REINVENT4/ReinventStudies/pleaseWork/justmol2mol_4_Compounds_ontop/graph-dock-8u2o5u/graph-DockGPU/node-autodockgpu/inputs/DMZPAVZMTRFYPG-MRXXAMFQNA-N.pdbqt
Grid fld file:                             /home/a/REINVENT4/ReinventStudies/mols/Rad51/maps/rad51_receptor.maps.fld

Random seed:                               42
Number of runs:                            20
Number of energy evaluations:              1132076
Number of generations:                     42000
Size of population:                        150
Rate of crossover:                         80.000000%
Tournament selection probability limit:    60.000000%
Rate of mutation:                          2.000000%
Maximal allowed delta movement:            +/- 6.000000A
Maximal allowed delta angle:               +/- 90.000000

Rate of local search:                      100.000000%
Maximal number of local search iterations: 300
Rho lower bound:                           0.010000
Spread of local search delta movement:     2.000000A
Spread of local search delta angle:        74.999999
Limit of consecutive successes/failures:   4

Handle symmetry during clustering:         YES
RMSD tolerance:                            2.000000A

Program call in command line was:          /home/a/REINVENT4/ReinventStudies/adgpu-v1.6_linux_x64_cuda12_128wi --filelist batch.txt --heuristics 1 --nrun 20 --psize 150 --lsit 300 --seed 42 --heurmax 12000000 


    GRID PARAMETERS
    ________________________


Receptor name:                             rad51_receptor
Number of grid points (x, y, z):           53, 53, 53
Grid center (x, y, z):                     139.950000, 75.640000, 221.970000A
Grid size (x, y, z):                       19.500000, 19.500000, 19.500000A
Grid spacing:                              0.375000A


    LIGAND PARAMETERS
    ________________________


Ligand name:                               /home/a/REINVENT4/ReinventStudies/pleaseWork/justmol2mol_4_Compounds_ontop/graph-dock-8u2o5u/graph-DockGPU/node-autodockgpu/inputs/DMZPAVZMTRFYPG-MRXXAMFQNA-N
Number of atoms:                           25
Number of rotatable bonds:                 6
Number of atom types:                      8


    DUMMY DATA (only for ADT-compatibility)
    ________________________


DPF> outlev 1
DPF> ga_run 20
DPF> fld /home/a/REINVENT4/ReinventStudies/mols/Rad51/maps/rad51_receptor.maps.fld
DPF> move /home/a/REINVENT4/ReinventStudies/pleaseWork/justmol2mol_4_Compounds_ontop/graph-dock-8u2o5u/graph-DockGPU/node-autodockgpu/inputs/DMZPAVZMTRFYPG-MRXXAMFQNA-N.pdbqt


    COUNTER STATES
    ________________________


Number of energy evaluations performed:    1135161
Number of generations used:                50


    INPUT LIGAND PDBQT FILE:
    ________________________


INPUT-LIGAND-PDBQT: REMARK SMILES O=C(C/N=C(\O)c1ccc2cc(Cl)ccc2n1)N1CCC(F)(F)C1
INPUT-LIGAND-PDBQT: REMARK SMILES IDX 4 1 5 2 6 3 7 5 17 6 8 7 16 8 9 9 15 10 10 11 14 12 11 13
INPUT-LIGAND-PDBQT: REMARK SMILES IDX 12 14 13 15 3 16 2 17 1 18 18 19 19 20 24 21 20 22 21 23
INPUT-LIGAND-PDBQT: REMARK SMILES IDX 22 24 23 25
INPUT-LIGAND-PDBQT: REMARK H PARENT 6 4
INPUT-LIGAND-PDBQT: ROOT
INPUT-LIGAND-PDBQT: ATOM      1  N   UNL     1      -0.431  -1.460  -0.694  1.00  0.00    -0.240 NA
INPUT-LIGAND-PDBQT: ENDROOT
INPUT-LIGAND-PDBQT: BRANCH   1   2
INPUT-LIGAND-PDBQT: ATOM      2  C   UNL     1       0.311  -0.769   0.126  1.00  0.00     0.233 C 
INPUT-LIGAND-PDBQT: BRANCH   2   3
INPUT-LIGAND-PDBQT: ATOM      3  O   UNL     1      -0.251   0.063   1.100  1.00  0.00    -0.492 OA
INPUT-LIGAND-PDBQT: ATOM      4  H   UNL     1      -1.248   0.174   1.229  1.00  0.00     0.295 HD
INPUT-LIGAND-PDBQT: ENDBRANCH   2   3
INPUT-LIGAND-PDBQT: BRANCH   2   5
INPUT-LIGAND-PDBQT: ATOM      5  C   UNL     1       1.782  -0.852   0.039  1.00  0.00     0.125 A 
INPUT-LIGAND-PDBQT: ATOM      6  N   UNL     1       2.536  -0.123   0.908  1.00  0.00    -0.243 NA
INPUT-LIGAND-PDBQT: ATOM      7  C   UNL     1       2.421  -1.662  -0.917  1.00  0.00     0.035 A 
INPUT-LIGAND-PDBQT: ATOM      8  C   UNL     1       3.895  -0.149   0.887  1.00  0.00     0.071 A 
INPUT-LIGAND-PDBQT: ATOM      9  C   UNL     1       3.816  -1.710  -0.962  1.00  0.00     0.013 A 
INPUT-LIGAND-PDBQT: ATOM     10  C   UNL     1       4.628   0.617   1.800  1.00  0.00     0.030 A 
INPUT-LIGAND-PDBQT: ATOM     11  C   UNL     1       4.569  -0.952  -0.059  1.00  0.00     0.002 A 
INPUT-LIGAND-PDBQT: ATOM     12  C   UNL     1       6.026   0.588   1.775  1.00  0.00     0.023 A 
INPUT-LIGAND-PDBQT: ATOM     13  C   UNL     1       5.972  -0.977  -0.079  1.00  0.00     0.030 A 
INPUT-LIGAND-PDBQT: ATOM     14  C   UNL     1       6.698  -0.207   0.839  1.00  0.00     0.041 A 
INPUT-LIGAND-PDBQT: ATOM     15  Cl  UNL     1       8.451  -0.238   0.814  1.00  0.00    -0.084 Cl
INPUT-LIGAND-PDBQT: ENDBRANCH   2   5
INPUT-LIGAND-PDBQT: ENDBRANCH   1   2
INPUT-LIGAND-PDBQT: BRANCH   1  16
INPUT-LIGAND-PDBQT: ATOM     16  C   UNL     1      -1.892  -1.469  -0.728  1.00  0.00     0.246 C 
INPUT-LIGAND-PDBQT: BRANCH  16  17
INPUT-LIGAND-PDBQT: ATOM     17  C   UNL     1      -2.427  -0.168  -1.267  1.00  0.00     0.244 C 
INPUT-LIGAND-PDBQT: ATOM     18  O   UNL     1      -1.812   0.396  -2.214  1.00  0.00    -0.273 OA
INPUT-LIGAND-PDBQT: BRANCH  17  19
INPUT-LIGAND-PDBQT: ATOM     19  N   UNL     1      -3.653   0.407  -0.778  1.00  0.00    -0.335 N 
INPUT-LIGAND-PDBQT: ATOM     20  C   UNL     1      -4.245   1.599  -1.361  1.00  0.00     0.126 C 
INPUT-LIGAND-PDBQT: ATOM     21  C   UNL     1      -4.455  -0.149   0.299  1.00  0.00     0.196 C 
INPUT-LIGAND-PDBQT: ATOM     22  C   UNL     1      -5.625   1.724  -0.729  1.00  0.00     0.100 C 
INPUT-LIGAND-PDBQT: ATOM     23  C   UNL     1      -5.590   0.847   0.522  1.00  0.00     0.267 C 
INPUT-LIGAND-PDBQT: ATOM     24  F   UNL     1      -5.321   1.628   1.634  1.00  0.00    -0.205 F 
INPUT-LIGAND-PDBQT: ATOM     25  F   UNL     1      -6.797   0.192   0.701  1.00  0.00    -0.205 F 
INPUT-LIGAND-PDBQT: ENDBRANCH  17  19
INPUT-LIGAND-PDBQT: ENDBRANCH  16  17
INPUT-LIGAND-PDBQT: ENDBRANCH   1  16
INPUT-LIGAND-PDBQT: TORSDOF 6


    FINAL DOCKED STATE:
    ________________________


Run:   1 / 20
Time taken for this run:   0.038s

DOCKED: MODEL        1
DOCKED: USER    Run = 1
DOCKED: USER
DOCKED: USER    Estimated Free Energy of Binding    =  -6.98 kcal/mol  [=(1)+(2)+(3)-(4)]
DOCKED: USER
DOCKED: USER    (1) Final Intermolecular Energy     =  -8.77 kcal/mol
DOCKED: USER        vdW + Hbond + desolv Energy     =  -8.66 kcal/mol
DOCKED: USER        Electrostatic Energy            =  -0.11 kcal/mol
DOCKED: USER        Moving Ligand-Fixed Receptor    =  -8.77 kcal/mol
DOCKED: USER        Moving Ligand-Moving Receptor   =  +0.00 kcal/mol
DOCKED: USER    (2) Final Total Internal Energy     =  -0.81 kcal/mol
DOCKED: USER    (3) Torsional Free Energy           =  +1.79 kcal/mol
DOCKED: USER    (4) Unbound System's Energy         =  -0.81 kcal/mol
DOCKED: USER
DOCKED: USER
DOCKED: REMARK SMILES O=C(C/N=C(\O)c1ccc2cc(Cl)ccc2n1)N1CCC(F)(F)C1
DOCKED: REMARK SMILES IDX 4 1 5 2 6 3 7 5 17 6 8 7 16 8 9 9 15 10 10 11 14 12 11 13
DOCKED: REMARK SMILES IDX 12 14 13 15 3 16 2 17 1 18 18 19 19 20 24 21 20 22 21 23
DOCKED: REMARK SMILES IDX 22 24 23 25
DOCKED: REMARK H PARENT 6 4
DOCKED: USER                              x       y       z     vdW  Elec       q    Type
DOCKED: USER                           _______ _______ _______ _____ _____    ______ ____
DOCKED: ROOT
DOCKED: ATOM      1  N   UNL     1     140.165  72.610 220.750 -0.08 +0.04    -0.240 NA 
DOCKED: ENDROOT
DOCKED: BRANCH   1   2
DOCKED: ATOM      2  C   UNL     1     139.890  72.923 221.986 -0.21 -0.04    +0.233 C  
DOCKED: BRANCH   2   3
DOCKED: ATOM      3  O   UNL     1     139.540  74.227 222.351 -0.69 +0.07    -0.492 OA 
DOCKED: ATOM      4  H   UNL     1     139.229  74.480 223.280 -0.45 -0.12    +0.295 HD 
DOCKED: ENDBRANCH   2   3
DOCKED: BRANCH   2   5
DOCKED: ATOM      5  C   UNL     1     139.944  71.891 223.039 -0.30 -0.02    +0.125 A  
DOCKED: ATOM      6  N   UNL     1     140.419  72.229 224.270 -0.09 +0.04    -0.243 NA 
DOCKED: ATOM      7  C   UNL     1     139.521  70.571 222.802 -0.23 -0.01    +0.035 A  
DOCKED: ATOM      8  C   UNL     1     140.499  71.332 225.288 -0.50 -0.01    +0.071 A  
DOCKED: ATOM      9  C   UNL     1     139.590  69.627 223.829 -0.26 -0.00    +0.013 A  
DOCKED: ATOM     10  C   UNL     1     140.994  71.726 226.536 -0.69 -0.00    +0.030 A  
DOCKED: ATOM     11  C   UNL     1     140.082  69.998 225.085 -0.43 -0.00    +0.002 A  
DOCKED: ATOM     12  C   UNL     1     141.075  70.799 227.581 -0.65 -0.00    +0.023 A  
DOCKED: ATOM     13  C   UNL     1     140.166  69.074 226.137 -0.50 -0.01    +0.030 A  
DOCKED: ATOM     14  C   UNL     1     140.662  69.476 227.384 -0.57 -0.01    +0.041 A  
DOCKED: ATOM     15  Cl  UNL     1     140.767  68.321 228.699 -0.68 +0.02    -0.084 Cl 
DOCKED: ENDBRANCH   2   5
DOCKED: ENDBRANCH   1   2
DOCKED: BRANCH   1  16
DOCKED: ATOM     16  C   UNL     1     140.941  73.420 219.813 -0.06 -0.05    +0.246 C  
DOCKED: BRANCH  16  17
DOCKED: ATOM     17  C   UNL     1     142.089  74.102 220.511 -0.17 -0.06    +0.244 C  
DOCKED: ATOM     18  O   UNL     1     141.854  75.130 221.204 -0.26 +0.10    -0.273 OA 
DOCKED: BRANCH  17  19
DOCKED: ATOM     19  N   UNL     1     143.426  73.571 220.463 -0.15 +0.08    -0.335 N  
DOCKED: ATOM     20  C   UNL     1     143.700  72.148 220.352 -0.25 -0.02    +0.126 C  
DOCKED: ATOM     21  C   UNL     1     144.636  74.377 220.469 -0.35 -0.07    +0.196 C  
DOCKED: ATOM     22  C   UNL     1     145.196  72.037 220.090 -0.27 +0.01    +0.100 C  
DOCKED: ATOM     23  C   UNL     1     145.792  73.381 220.505 -0.43 -0.00    +0.267 C  
DOCKED: ATOM     24  F   UNL     1     146.298  73.291 221.792 -0.27 +0.04    -0.205 F  
DOCKED: ATOM     25  F   UNL     1     146.803  73.763 219.639 -0.12 -0.08    -0.205 F  
DOCKED: ENDBRANCH  17  19
DOCKED: ENDBRANCH  16  17
DOCKED: ENDBRANCH   1  16
DOCKED: TORSDOF 6
DOCKED: TER
DOCKED: ENDMDL
________________________________________________________________________________


    FINAL DOCKED STATE:
    ________________________


Run:   2 / 20
Time taken for this run:   0.038s

DOCKED: MODEL        2
DOCKED: USER    Run = 2
DOCKED: USER
DOCKED: USER    Estimated Free Energy of Binding    =  -6.83 kcal/mol  [=(1)+(2)+(3)-(4)]
DOCKED: USER
DOCKED: USER    (1) Final Intermolecular Energy     =  -8.62 kcal/mol
DOCKED: USER        vdW + Hbond + desolv Energy     =  -8.34 kcal/mol
DOCKED: USER        Electrostatic Energy            =  -0.28 kcal/mol
DOCKED: USER        Moving Ligand-Fixed Receptor    =  -8.62 kcal/mol
DOCKED: USER        Moving Ligand-Moving Receptor   =  +0.00 kcal/mol
DOCKED: USER    (2) Final Total Internal Energy     =  -0.91 kcal/mol
DOCKED: USER    (3) Torsional Free Energy           =  +1.79 kcal/mol
DOCKED: USER    (4) Unbound System's Energy         =  -0.91 kcal/mol
DOCKED: USER
DOCKED: USER
DOCKED: REMARK SMILES O=C(C/N=C(\O)c1ccc2cc(Cl)ccc2n1)N1CCC(F)(F)C1
DOCKED: REMARK SMILES IDX 4 1 5 2 6 3 7 5 17 6 8 7 16 8 9 9 15 10 10 11 14 12 11 13
DOCKED: REMARK SMILES IDX 12 14 13 15 3 16 2 17 1 18 18 19 19 20 24 21 20 22 21 23
DOCKED: REMARK SMILES IDX 22 24 23 25
DOCKED: REMARK H PARENT 6 4
DOCKED: USER                              x       y       z     vdW  Elec       q    Type
DOCKED: USER                           _______ _______ _______ _____ _____    ______ ____
DOCKED: ROOT
DOCKED: ATOM      1  N   UNL     1     139.757  72.449 220.713 -0.06 +0.04    -0.240 NA 
DOCKED: ENDROOT
DOCKED: BRANCH   1   2
DOCKED: ATOM      2  C   UNL     1     139.721  72.812 221.965 -0.20 -0.04    +0.233 C  
DOCKED: BRANCH   2   3
DOCKED: ATOM      3  O   UNL     1     139.610  74.156 222.336 -0.71 +0.06    -0.492 OA 
DOCKED: ATOM      4  H   UNL     1     139.263  74.458 223.236 -0.45 -0.10    +0.295 HD 
DOCKED: ENDBRANCH   2   3
DOCKED: BRANCH   2   5
DOCKED: ATOM      5  C   UNL     1     139.800  71.795 223.031 -0.29 -0.02    +0.125 A  
DOCKED: ATOM      6  N   UNL     1     140.324  72.145 224.239 -0.16 +0.04    -0.243 NA 
DOCKED: ATOM      7  C   UNL     1     139.349  70.478 222.831 -0.23 -0.01    +0.035 A  
DOCKED: ATOM      8  C   UNL     1     140.428  71.262 225.267 -0.49 -0.01    +0.071 A  
DOCKED: ATOM      9  C   UNL     1     139.443  69.549 223.869 -0.27 -0.00    +0.013 A  
DOCKED: ATOM     10  C   UNL     1     140.973  71.667 226.490 -0.68 -0.00    +0.030 A  
DOCKED: ATOM     11  C   UNL     1     139.985  69.932 225.101 -0.43 -0.00    +0.002 A  
DOCKED: ATOM     12  C   UNL     1     141.080  70.756 227.546 -0.64 -0.00    +0.023 A  
DOCKED: ATOM     13  C   UNL     1     140.094  69.022 226.163 -0.51 -0.01    +0.030 A  
DOCKED: ATOM     14  C   UNL     1     140.641  69.436 227.385 -0.57 -0.01    +0.041 A  
DOCKED: ATOM     15  Cl  UNL     1     140.778  68.300 228.713 -0.68 +0.02    -0.084 Cl 
DOCKED: ENDBRANCH   2   5
DOCKED: ENDBRANCH   1   2
DOCKED: BRANCH   1  16
DOCKED: ATOM     16  C   UNL     1     140.838  72.729 219.770 -0.05 -0.04    +0.246 C  
DOCKED: BRANCH  16  17
DOCKED: ATOM     17  C   UNL     1     142.127  72.093 220.221 -0.11 -0.03    +0.244 C  
DOCKED: ATOM     18  O   UNL     1     142.142  70.853 220.458 -0.09 +0.03    -0.273 OA 
DOCKED: BRANCH  17  19
DOCKED: ATOM     19  N   UNL     1     143.349  72.847 220.319 -0.11 +0.05    -0.335 N  
DOCKED: ATOM     20  C   UNL     1     143.418  74.268 220.023 -0.29 -0.04    +0.126 C  
DOCKED: ATOM     21  C   UNL     1     144.622  72.304 220.764 -0.21 -0.03    +0.196 C  
DOCKED: ATOM     22  C   UNL     1     144.800  74.716 220.480 -0.28 -0.04    +0.100 C  
DOCKED: ATOM     23  C   UNL     1     145.629  73.440 220.610 -0.43 -0.02    +0.267 C  
DOCKED: ATOM     24  F   UNL     1     146.381  73.251 219.461 -0.12 -0.13    -0.205 F  
DOCKED: ATOM     25  F   UNL     1     146.473  73.507 221.706 -0.28 +0.03    -0.205 F  
DOCKED: ENDBRANCH  17  19
DOCKED: ENDBRANCH  16  17
DOCKED: ENDBRANCH   1  16
DOCKED: TORSDOF 6
DOCKED: TER
DOCKED: ENDMDL
________________________________________________________________________________


    FINAL DOCKED STATE:
    ________________________


Run:   3 / 20
Time taken for this run:   0.038s

DOCKED: MODEL        3
DOCKED: USER    Run = 3
DOCKED: USER
DOCKED: USER    Estimated Free Energy of Binding    =  -6.37 kcal/mol  [=(1)+(2)+(3)-(4)]
DOCKED: USER
DOCKED: USER    (1) Final Intermolecular Energy     =  -8.16 kcal/mol
DOCKED: USER        vdW + Hbond + desolv Energy     =  -8.02 kcal/mol
DOCKED: USER        Electrostatic Energy            =  -0.14 kcal/mol
DOCKED: USER        Moving Ligand-Fixed Receptor    =  -8.16 kcal/mol
DOCKED: USER        Moving Ligand-Moving Receptor   =  +0.00 kcal/mol
DOCKED: USER    (2) Final Total Internal Energy     =  -1.17 kcal/mol
DOCKED: USER    (3) Torsional Free Energy           =  +1.79 kcal/mol
DOCKED: USER    (4) Unbound System's Energy         =  -1.17 kcal/mol
DOCKED: USER
DOCKED: USER
DOCKED: REMARK SMILES O=C(C/N=C(\O)c1ccc2cc(Cl)ccc2n1)N1CCC(F)(F)C1
DOCKED: REMARK SMILES IDX 4 1 5 2 6 3 7 5 17 6 8 7 16 8 9 9 15 10 10 11 14 12 11 13
DOCKED: REMARK SMILES IDX 12 14 13 15 3 16 2 17 1 18 18 19 19 20 24 21 20 22 21 23
DOCKED: REMARK SMILES IDX 22 24 23 25
DOCKED: REMARK H PARENT 6 4
DOCKED: USER                              x       y       z     vdW  Elec       q    Type
DOCKED: USER                           _______ _______ _______ _____ _____    ______ ____
DOCKED: ROOT
DOCKED: ATOM      1  N   UNL     1     139.501  71.845 220.909 -0.05 +0.04    -0.240 NA 
DOCKED: ENDROOT
DOCKED: BRANCH   1   2
DOCKED: ATOM      2  C   UNL     1     139.063  72.119 222.107 -0.15 -0.05    +0.233 C  
DOCKED: BRANCH   2   3
DOCKED: ATOM      3  O   UNL     1     138.346  73.289 222.376 -0.02 +0.18    -0.492 OA 
DOCKED: ATOM      4  H   UNL     1     138.748  74.096 222.834 -0.50 -0.15    +0.295 HD 
DOCKED: ENDBRANCH   2   3
DOCKED: BRANCH   2   5
DOCKED: ATOM      5  C   UNL     1     139.322  71.184 223.219 -0.26 -0.03    +0.125 A  
DOCKED: ATOM      6  N   UNL     1     139.894  71.660 224.361 -0.24 +0.05    -0.243 NA 
DOCKED: ATOM      7  C   UNL     1     138.995  69.819 223.129 -0.22 -0.01    +0.035 A  
DOCKED: ATOM      8  C   UNL     1     140.162  70.859 225.426 -0.48 -0.01    +0.071 A  
DOCKED: ATOM      9  C   UNL     1     139.258  68.972 224.208 -0.31 -0.00    +0.013 A  
DOCKED: ATOM     10  C   UNL     1     140.750  71.393 226.577 -0.66 -0.00    +0.030 A  
DOCKED: ATOM     11  C   UNL     1     139.846  69.484 225.369 -0.43 -0.00    +0.002 A  
DOCKED: ATOM     12  C   UNL     1     141.025  70.566 227.671 -0.62 -0.00    +0.023 A  
DOCKED: ATOM     13  C   UNL     1     140.125  68.659 226.470 -0.56 -0.01    +0.030 A  
DOCKED: ATOM     14  C   UNL     1     140.713  69.202 227.619 -0.59 -0.01    +0.041 A  
DOCKED: ATOM     15  Cl  UNL     1     141.062  68.171 228.994 -0.51 +0.02    -0.084 Cl 
DOCKED: ENDBRANCH   2   5
DOCKED: ENDBRANCH   1   2
DOCKED: BRANCH   1  16
DOCKED: ATOM     16  C   UNL     1     140.315  72.723 220.072 -0.06 -0.04    +0.246 C  
DOCKED: BRANCH  16  17
DOCKED: ATOM     17  C   UNL     1     141.217  73.588 220.915 -0.17 -0.04    +0.244 C  
DOCKED: ATOM     18  O   UNL     1     140.715  74.229 221.880 -0.71 +0.01    -0.273 OA 
DOCKED: BRANCH  17  19
DOCKED: ATOM     19  N   UNL     1     142.638  73.644 220.691 -0.12 +0.07    -0.335 N  
DOCKED: ATOM     20  C   UNL     1     143.319  74.863 220.288 -0.28 -0.06    +0.126 C  
DOCKED: ATOM     21  C   UNL     1     143.550  72.528 220.883 -0.15 -0.03    +0.196 C  
DOCKED: ATOM     22  C   UNL     1     144.807  74.558 220.399 -0.35 -0.04    +0.100 C  
DOCKED: ATOM     23  C   UNL     1     144.918  73.034 220.432 -0.33 -0.03    +0.267 C  
DOCKED: ATOM     24  F   UNL     1     145.203  72.557 219.163 -0.07 -0.05    -0.205 F  
DOCKED: ATOM     25  F   UNL     1     145.910  72.629 221.310 -0.16 +0.04    -0.205 F  
DOCKED: ENDBRANCH  17  19
DOCKED: ENDBRANCH  16  17
DOCKED: ENDBRANCH   1  16
DOCKED: TORSDOF 6
DOCKED: TER
DOCKED: ENDMDL
________________________________________________________________________________


    FINAL DOCKED STATE:
    ________________________


Run:   4 / 20
Time taken for this run:   0.038s

DOCKED: MODEL        4
DOCKED: USER    Run = 4
DOCKED: USER
DOCKED: USER    Estimated Free Energy of Binding    =  -6.90 kcal/mol  [=(1)+(2)+(3)-(4)]
DOCKED: USER
DOCKED: USER    (1) Final Intermolecular Energy     =  -8.69 kcal/mol
DOCKED: USER        vdW + Hbond + desolv Energy     =  -8.57 kcal/mol
DOCKED: USER        Electrostatic Energy            =  -0.12 kcal/mol
DOCKED: USER        Moving Ligand-Fixed Receptor    =  -8.69 kcal/mol
DOCKED: USER        Moving Ligand-Moving Receptor   =  +0.00 kcal/mol
DOCKED: USER    (2) Final Total Internal Energy     =  -0.77 kcal/mol
DOCKED: USER    (3) Torsional Free Energy           =  +1.79 kcal/mol
DOCKED: USER    (4) Unbound System's Energy         =  -0.77 kcal/mol
DOCKED: USER
DOCKED: USER
DOCKED: REMARK SMILES O=C(C/N=C(\O)c1ccc2cc(Cl)ccc2n1)N1CCC(F)(F)C1
DOCKED: REMARK SMILES IDX 4 1 5 2 6 3 7 5 17 6 8 7 16 8 9 9 15 10 10 11 14 12 11 13
DOCKED: REMARK SMILES IDX 12 14 13 15 3 16 2 17 1 18 18 19 19 20 24 21 20 22 21 23
DOCKED: REMARK SMILES IDX 22 24 23 25
DOCKED: REMARK H PARENT 6 4
DOCKED: USER                              x       y       z     vdW  Elec       q    Type
DOCKED: USER                           _______ _______ _______ _____ _____    ______ ____
DOCKED: ROOT
DOCKED: ATOM      1  N   UNL     1     140.343  72.602 220.757 -0.08 +0.04    -0.240 NA 
DOCKED: ENDROOT
DOCKED: BRANCH   1   2
DOCKED: ATOM      2  C   UNL     1     140.036  72.918 221.984 -0.21 -0.03    +0.233 C  
DOCKED: BRANCH   2   3
DOCKED: ATOM      3  O   UNL     1     139.698  74.227 222.342 -0.71 +0.05    -0.492 OA 
DOCKED: ATOM      4  H   UNL     1     139.185  74.460 223.182 -0.46 -0.12    +0.295 HD 
DOCKED: ENDBRANCH   2   3
DOCKED: BRANCH   2   5
DOCKED: ATOM      5  C   UNL     1     140.042  71.883 223.037 -0.30 -0.02    +0.125 A  
DOCKED: ATOM      6  N   UNL     1     140.517  72.203 224.273 -0.09 +0.03    -0.243 NA 
DOCKED: ATOM      7  C   UNL     1     139.573  70.580 222.794 -0.24 -0.01    +0.035 A  
DOCKED: ATOM      8  C   UNL     1     140.554  71.302 225.290 -0.50 -0.01    +0.071 A  
DOCKED: ATOM      9  C   UNL     1     139.597  69.633 223.820 -0.26 -0.00    +0.013 A  
DOCKED: ATOM     10  C   UNL     1     141.050  71.676 226.544 -0.70 -0.00    +0.030 A  
DOCKED: ATOM     11  C   UNL     1     140.089  69.985 225.082 -0.43 -0.00    +0.002 A  
DOCKED: ATOM     12  C   UNL     1     141.087  70.747 227.588 -0.63 -0.00    +0.023 A  
DOCKED: ATOM     13  C   UNL     1     140.129  69.057 226.134 -0.50 -0.01    +0.030 A  
DOCKED: ATOM     14  C   UNL     1     140.627  69.440 227.385 -0.57 -0.01    +0.041 A  
DOCKED: ATOM     15  Cl  UNL     1     140.677  68.281 228.700 -0.66 +0.02    -0.084 Cl 
DOCKED: ENDBRANCH   2   5
DOCKED: ENDBRANCH   1   2
DOCKED: BRANCH   1  16
DOCKED: ATOM     16  C   UNL     1     140.797  73.527 219.721 -0.05 -0.05    +0.246 C  
DOCKED: BRANCH  16  17
DOCKED: ATOM     17  C   UNL     1     141.991  74.317 220.189 -0.16 -0.07    +0.244 C  
DOCKED: ATOM     18  O   UNL     1     141.822  75.511 220.562 -0.19 +0.11    -0.273 OA 
DOCKED: BRANCH  17  19
DOCKED: ATOM     19  N   UNL     1     143.300  73.725 220.287 -0.14 +0.08    -0.335 N  
DOCKED: ATOM     20  C   UNL     1     143.517  72.290 220.203 -0.23 -0.02    +0.126 C  
DOCKED: ATOM     21  C   UNL     1     144.537  74.473 220.429 -0.33 -0.08    +0.196 C  
DOCKED: ATOM     22  C   UNL     1     145.026  72.108 220.106 -0.30 +0.00    +0.100 C  
DOCKED: ATOM     23  C   UNL     1     145.635  73.424 220.588 -0.43 -0.02    +0.267 C  
DOCKED: ATOM     24  F   UNL     1     145.992  73.313 221.922 -0.25 +0.05    -0.205 F  
DOCKED: ATOM     25  F   UNL     1     146.752  73.756 219.839 -0.15 -0.07    -0.205 F  
DOCKED: ENDBRANCH  17  19
DOCKED: ENDBRANCH  16  17
DOCKED: ENDBRANCH   1  16
DOCKED: TORSDOF 6
DOCKED: TER
DOCKED: ENDMDL
________________________________________________________________________________


    FINAL DOCKED STATE:
    ________________________


Run:   5 / 20
Time taken for this run:   0.038s

DOCKED: MODEL        5
DOCKED: USER    Run = 5
DOCKED: USER
DOCKED: USER    Estimated Free Energy of Binding    =  -5.82 kcal/mol  [=(1)+(2)+(3)-(4)]
DOCKED: USER
DOCKED: USER    (1) Final Intermolecular Energy     =  -7.61 kcal/mol
DOCKED: USER        vdW + Hbond + desolv Energy     =  -7.56 kcal/mol
DOCKED: USER        Electrostatic Energy            =  -0.04 kcal/mol
DOCKED: USER        Moving Ligand-Fixed Receptor    =  -7.61 kcal/mol
DOCKED: USER        Moving Ligand-Moving Receptor   =  +0.00 kcal/mol
DOCKED: USER    (2) Final Total Internal Energy     =  -1.39 kcal/mol
DOCKED: USER    (3) Torsional Free Energy           =  +1.79 kcal/mol
DOCKED: USER    (4) Unbound System's Energy         =  -1.39 kcal/mol
DOCKED: USER
DOCKED: USER
DOCKED: REMARK SMILES O=C(C/N=C(\O)c1ccc2cc(Cl)ccc2n1)N1CCC(F)(F)C1
DOCKED: REMARK SMILES IDX 4 1 5 2 6 3 7 5 17 6 8 7 16 8 9 9 15 10 10 11 14 12 11 13
DOCKED: REMARK SMILES IDX 12 14 13 15 3 16 2 17 1 18 18 19 19 20 24 21 20 22 21 23
DOCKED: REMARK SMILES IDX 22 24 23 25
DOCKED: REMARK H PARENT 6 4
DOCKED: USER                              x       y       z     vdW  Elec       q    Type
DOCKED: USER                           _______ _______ _______ _____ _____    ______ ____
DOCKED: ROOT
DOCKED: ATOM      1  N   UNL     1     138.330  72.167 221.451 -0.06 +0.05    -0.240 NA 
DOCKED: ENDROOT
DOCKED: BRANCH   1   2
DOCKED: ATOM      2  C   UNL     1     139.170  72.444 222.409 -0.14 -0.06    +0.233 C  
DOCKED: BRANCH   2   3
DOCKED: ATOM      3  O   UNL     1     139.835  73.673 222.468 -0.68 +0.04    -0.492 OA 
DOCKED: ATOM      4  H   UNL     1     139.401  74.526 222.798 -0.35 -0.05    +0.295 HD 
DOCKED: ENDBRANCH   2   3
DOCKED: BRANCH   2   5
DOCKED: ATOM      5  C   UNL     1     139.439  71.450 223.466 -0.29 -0.03    +0.125 A  
DOCKED: ATOM      6  N   UNL     1     139.961  71.872 224.651 -0.17 +0.06    -0.243 NA 
DOCKED: ATOM      7  C   UNL     1     139.172  70.082 223.279 -0.24 -0.01    +0.035 A  
DOCKED: ATOM      8  C   UNL     1     140.235  71.014 225.670 -0.50 -0.01    +0.071 A  
DOCKED: ATOM      9  C   UNL     1     139.442  69.177 224.307 -0.30 -0.00    +0.013 A  
DOCKED: ATOM     10  C   UNL     1     140.771  71.495 226.870 -0.70 -0.01    +0.030 A  
DOCKED: ATOM     11  C   UNL     1     139.978  69.634 225.516 -0.45 -0.00    +0.002 A  
DOCKED: ATOM     12  C   UNL     1     141.052  70.609 227.915 -0.64 -0.00    +0.023 A  
DOCKED: ATOM     13  C   UNL     1     140.263  68.751 226.568 -0.57 -0.01    +0.030 A  
DOCKED: ATOM     14  C   UNL     1     140.798  69.240 227.766 -0.59 -0.01    +0.041 A  
DOCKED: ATOM     15  Cl  UNL     1     141.154  68.136 229.081 -0.47 +0.02    -0.084 Cl 
DOCKED: ENDBRANCH   2   5
DOCKED: ENDBRANCH   1   2
DOCKED: BRANCH   1  16
DOCKED: ATOM     16  C   UNL     1     137.069  72.856 221.189 -0.05 -0.05    +0.246 C  
DOCKED: BRANCH  16  17
DOCKED: ATOM     17  C   UNL     1     136.937  74.085 222.051 -0.09 -0.07    +0.244 C  
DOCKED: ATOM     18  O   UNL     1     137.601  75.114 221.748 -0.12 +0.07    -0.273 OA 
DOCKED: BRANCH  17  19
DOCKED: ATOM     19  N   UNL     1     136.025  74.134 223.164 -0.09 +0.10    -0.335 N  
DOCKED: ATOM     20  C   UNL     1     135.313  72.962 223.645 -0.16 -0.02    +0.126 C  
DOCKED: ATOM     21  C   UNL     1     135.748  75.322 223.954 -0.23 -0.04    +0.196 C  
DOCKED: ATOM     22  C   UNL     1     134.662  73.385 224.955 -0.24 -0.01    +0.100 C  
DOCKED: ATOM     23  C   UNL     1     134.660  74.913 224.944 -0.24 -0.03    +0.267 C  
DOCKED: ATOM     24  F   UNL     1     133.429  75.377 224.509 -0.02 +0.02    -0.205 F  
DOCKED: ATOM     25  F   UNL     1     134.922  75.418 226.206 -0.17 -0.00    -0.205 F  
DOCKED: ENDBRANCH  17  19
DOCKED: ENDBRANCH  16  17
DOCKED: ENDBRANCH   1  16
DOCKED: TORSDOF 6
DOCKED: TER
DOCKED: ENDMDL
________________________________________________________________________________


    FINAL DOCKED STATE:
    ________________________


Run:   6 / 20
Time taken for this run:   0.038s

DOCKED: MODEL        6
DOCKED: USER    Run = 6
DOCKED: USER
DOCKED: USER    Estimated Free Energy of Binding    =  -6.43 kcal/mol  [=(1)+(2)+(3)-(4)]
DOCKED: USER
DOCKED: USER    (1) Final Intermolecular Energy     =  -8.22 kcal/mol
DOCKED: USER        vdW + Hbond + desolv Energy     =  -8.08 kcal/mol
DOCKED: USER        Electrostatic Energy            =  -0.14 kcal/mol
DOCKED: USER        Moving Ligand-Fixed Receptor    =  -8.22 kcal/mol
DOCKED: USER        Moving Ligand-Moving Receptor   =  +0.00 kcal/mol
DOCKED: USER    (2) Final Total Internal Energy     =  -0.66 kcal/mol
DOCKED: USER    (3) Torsional Free Energy           =  +1.79 kcal/mol
DOCKED: USER    (4) Unbound System's Energy         =  -0.66 kcal/mol
DOCKED: USER
DOCKED: USER
DOCKED: REMARK SMILES O=C(C/N=C(\O)c1ccc2cc(Cl)ccc2n1)N1CCC(F)(F)C1
DOCKED: REMARK SMILES IDX 4 1 5 2 6 3 7 5 17 6 8 7 16 8 9 9 15 10 10 11 14 12 11 13
DOCKED: REMARK SMILES IDX 12 14 13 15 3 16 2 17 1 18 18 19 19 20 24 21 20 22 21 23
DOCKED: REMARK SMILES IDX 22 24 23 25
DOCKED: REMARK H PARENT 6 4
DOCKED: USER                              x       y       z     vdW  Elec       q    Type
DOCKED: USER                           _______ _______ _______ _____ _____    ______ ____
DOCKED: ROOT
DOCKED: ATOM      1  N   UNL     1     140.908  72.979 221.154 -0.16 +0.03    -0.240 NA 
DOCKED: ENDROOT
DOCKED: BRANCH   1   2
DOCKED: ATOM      2  C   UNL     1     140.052  73.020 222.137 -0.20 -0.03    +0.233 C  
DOCKED: BRANCH   2   3
DOCKED: ATOM      3  O   UNL     1     139.121  74.057 222.256 -0.44 +0.12    -0.492 OA 
DOCKED: ATOM      4  H   UNL     1     138.547  74.199 223.077 -0.50 -0.21    +0.295 HD 
DOCKED: ENDBRANCH   2   3
DOCKED: BRANCH   2   5
DOCKED: ATOM      5  C   UNL     1     140.052  71.957 223.161 -0.30 -0.02    +0.125 A  
DOCKED: ATOM      6  N   UNL     1     140.528  72.241 224.406 -0.02 +0.03    -0.243 NA 
DOCKED: ATOM      7  C   UNL     1     139.576  70.664 222.883 -0.25 -0.01    +0.035 A  
DOCKED: ATOM      8  C   UNL     1     140.559  71.313 225.398 -0.51 -0.01    +0.071 A  
DOCKED: ATOM      9  C   UNL     1     139.594  69.690 223.884 -0.27 -0.00    +0.013 A  
DOCKED: ATOM     10  C   UNL     1     141.057  71.650 226.662 -0.71 -0.00    +0.030 A  
DOCKED: ATOM     11  C   UNL     1     140.088  70.005 225.154 -0.44 -0.00    +0.002 A  
DOCKED: ATOM     12  C   UNL     1     141.088  70.693 227.681 -0.63 -0.00    +0.023 A  
DOCKED: ATOM     13  C   UNL     1     140.122  69.048 226.181 -0.51 -0.01    +0.030 A  
DOCKED: ATOM     14  C   UNL     1     140.621  69.394 227.443 -0.58 -0.01    +0.041 A  
DOCKED: ATOM     15  Cl  UNL     1     140.664  68.200 228.725 -0.62 +0.02    -0.084 Cl 
DOCKED: ENDBRANCH   2   5
DOCKED: ENDBRANCH   1   2
DOCKED: BRANCH   1  16
DOCKED: ATOM     16  C   UNL     1     141.946  73.970 220.878 -0.16 -0.05    +0.246 C  
DOCKED: BRANCH  16  17
DOCKED: ATOM     17  C   UNL     1     141.355  75.215 220.270 -0.15 -0.08    +0.244 C  
DOCKED: ATOM     18  O   UNL     1     140.869  75.152 219.107 -0.03 +0.08    -0.273 OA 
DOCKED: BRANCH  17  19
DOCKED: ATOM     19  N   UNL     1     141.267  76.449 221.006 -0.14 +0.15    -0.335 N  
DOCKED: ATOM     20  C   UNL     1     141.837  77.693 220.518 -0.25 -0.08    +0.126 C  
DOCKED: ATOM     21  C   UNL     1     140.572  76.609 222.273 -0.30 -0.06    +0.196 C  
DOCKED: ATOM     22  C   UNL     1     141.321  78.778 221.454 -0.32 -0.05    +0.100 C  
DOCKED: ATOM     23  C   UNL     1     140.835  78.049 222.706 -0.30 -0.09    +0.267 C  
DOCKED: ATOM     24  F   UNL     1     141.823  78.077 223.677 -0.20 +0.08    -0.205 F  
DOCKED: ATOM     25  F   UNL     1     139.684  78.635 223.204 -0.10 +0.04    -0.205 F  
DOCKED: ENDBRANCH  17  19
DOCKED: ENDBRANCH  16  17
DOCKED: ENDBRANCH   1  16
DOCKED: TORSDOF 6
DOCKED: TER
DOCKED: ENDMDL
________________________________________________________________________________


    FINAL DOCKED STATE:
    ________________________


Run:   7 / 20
Time taken for this run:   0.038s

DOCKED: MODEL        7
DOCKED: USER    Run = 7
DOCKED: USER
DOCKED: USER    Estimated Free Energy of Binding    =  -6.78 kcal/mol  [=(1)+(2)+(3)-(4)]
DOCKED: USER
DOCKED: USER    (1) Final Intermolecular Energy     =  -8.57 kcal/mol
DOCKED: USER        vdW + Hbond + desolv Energy     =  -8.30 kcal/mol
DOCKED: USER        Electrostatic Energy            =  -0.26 kcal/mol
DOCKED: USER        Moving Ligand-Fixed Receptor    =  -8.57 kcal/mol
DOCKED: USER        Moving Ligand-Moving Receptor   =  +0.00 kcal/mol
DOCKED: USER    (2) Final Total Internal Energy     =  -0.96 kcal/mol
DOCKED: USER    (3) Torsional Free Energy           =  +1.79 kcal/mol
DOCKED: USER    (4) Unbound System's Energy         =  -0.96 kcal/mol
DOCKED: USER
DOCKED: USER
DOCKED: REMARK SMILES O=C(C/N=C(\O)c1ccc2cc(Cl)ccc2n1)N1CCC(F)(F)C1
DOCKED: REMARK SMILES IDX 4 1 5 2 6 3 7 5 17 6 8 7 16 8 9 9 15 10 10 11 14 12 11 13
DOCKED: REMARK SMILES IDX 12 14 13 15 3 16 2 17 1 18 18 19 19 20 24 21 20 22 21 23
DOCKED: REMARK SMILES IDX 22 24 23 25
DOCKED: REMARK H PARENT 6 4
DOCKED: USER                              x       y       z     vdW  Elec       q    Type
DOCKED: USER                           _______ _______ _______ _____ _____    ______ ____
DOCKED: ROOT
DOCKED: ATOM      1  N   UNL     1     139.697  72.518 220.671 -0.06 +0.04    -0.240 NA 
DOCKED: ENDROOT
DOCKED: BRANCH   1   2
DOCKED: ATOM      2  C   UNL     1     139.747  72.886 221.921 -0.20 -0.04    +0.233 C  
DOCKED: BRANCH   2   3
DOCKED: ATOM      3  O   UNL     1     139.724  74.235 222.290 -0.71 +0.05    -0.492 OA 
DOCKED: ATOM      4  H   UNL     1     139.299  74.571 223.144 -0.47 -0.08    +0.295 HD 
DOCKED: ENDBRANCH   2   3
DOCKED: BRANCH   2   5
DOCKED: ATOM      5  C   UNL     1     139.831  71.869 222.987 -0.29 -0.02    +0.125 A  
DOCKED: ATOM      6  N   UNL     1     140.332  72.227 224.202 -0.14 +0.04    -0.243 NA 
DOCKED: ATOM      7  C   UNL     1     139.409  70.544 222.778 -0.23 -0.01    +0.035 A  
DOCKED: ATOM      8  C   UNL     1     140.440  71.345 225.230 -0.49 -0.01    +0.071 A  
DOCKED: ATOM      9  C   UNL     1     139.507  69.615 223.817 -0.27 -0.00    +0.013 A  
DOCKED: ATOM     10  C   UNL     1     140.960  71.759 226.461 -0.67 -0.00    +0.030 A  
DOCKED: ATOM     11  C   UNL     1     140.025  70.007 225.056 -0.43 -0.00    +0.002 A  
DOCKED: ATOM     12  C   UNL     1     141.070  70.848 227.517 -0.66 -0.00    +0.023 A  
DOCKED: ATOM     13  C   UNL     1     140.138  69.097 226.119 -0.50 -0.01    +0.030 A  
DOCKED: ATOM     14  C   UNL     1     140.660  69.520 227.348 -0.57 -0.01    +0.041 A  
DOCKED: ATOM     15  Cl  UNL     1     140.801  68.385 228.676 -0.70 +0.02    -0.084 Cl 
DOCKED: ENDBRANCH   2   5
DOCKED: ENDBRANCH   1   2
DOCKED: BRANCH   1  16
DOCKED: ATOM     16  C   UNL     1     140.792  72.609 219.706 -0.04 -0.04    +0.246 C  
DOCKED: BRANCH  16  17
DOCKED: ATOM     17  C   UNL     1     142.058  72.019 220.271 -0.11 -0.03    +0.244 C  
DOCKED: ATOM     18  O   UNL     1     142.060  70.807 220.622 -0.04 +0.03    -0.273 OA 
DOCKED: BRANCH  17  19
DOCKED: ATOM     19  N   UNL     1     143.277  72.781 220.353 -0.11 +0.05    -0.335 N  
DOCKED: ATOM     20  C   UNL     1     143.341  74.193 220.014 -0.28 -0.04    +0.126 C  
DOCKED: ATOM     21  C   UNL     1     144.549  72.257 220.820 -0.20 -0.04    +0.196 C  
DOCKED: ATOM     22  C   UNL     1     144.719  74.661 220.464 -0.32 -0.04    +0.100 C  
DOCKED: ATOM     23  C   UNL     1     145.553  73.393 220.636 -0.43 -0.02    +0.267 C  
DOCKED: ATOM     24  F   UNL     1     146.311  73.173 219.497 -0.12 -0.13    -0.205 F  
DOCKED: ATOM     25  F   UNL     1     146.391  73.497 221.733 -0.28 +0.03    -0.205 F  
DOCKED: ENDBRANCH  17  19
DOCKED: ENDBRANCH  16  17
DOCKED: ENDBRANCH   1  16
DOCKED: TORSDOF 6
DOCKED: TER
DOCKED: ENDMDL
________________________________________________________________________________


    FINAL DOCKED STATE:
    ________________________


Run:   8 / 20
Time taken for this run:   0.038s

DOCKED: MODEL        8
DOCKED: USER    Run = 8
DOCKED: USER
DOCKED: USER    Estimated Free Energy of Binding    =  -6.81 kcal/mol  [=(1)+(2)+(3)-(4)]
DOCKED: USER
DOCKED: USER    (1) Final Intermolecular Energy     =  -8.60 kcal/mol
DOCKED: USER        vdW + Hbond + desolv Energy     =  -8.57 kcal/mol
DOCKED: USER        Electrostatic Energy            =  -0.03 kcal/mol
DOCKED: USER        Moving Ligand-Fixed Receptor    =  -8.60 kcal/mol
DOCKED: USER        Moving Ligand-Moving Receptor   =  +0.00 kcal/mol
DOCKED: USER    (2) Final Total Internal Energy     =  -0.76 kcal/mol
DOCKED: USER    (3) Torsional Free Energy           =  +1.79 kcal/mol
DOCKED: USER    (4) Unbound System's Energy         =  -0.76 kcal/mol
DOCKED: USER
DOCKED: USER
DOCKED: REMARK SMILES O=C(C/N=C(\O)c1ccc2cc(Cl)ccc2n1)N1CCC(F)(F)C1
DOCKED: REMARK SMILES IDX 4 1 5 2 6 3 7 5 17 6 8 7 16 8 9 9 15 10 10 11 14 12 11 13
DOCKED: REMARK SMILES IDX 12 14 13 15 3 16 2 17 1 18 18 19 19 20 24 21 20 22 21 23
DOCKED: REMARK SMILES IDX 22 24 23 25
DOCKED: REMARK H PARENT 6 4
DOCKED: USER                              x       y       z     vdW  Elec       q    Type
DOCKED: USER                           _______ _______ _______ _____ _____    ______ ____
DOCKED: ROOT
DOCKED: ATOM      1  N   UNL     1     140.007  72.617 220.703 -0.07 +0.04    -0.240 NA 
DOCKED: ENDROOT
DOCKED: BRANCH   1   2
DOCKED: ATOM      2  C   UNL     1     139.851  72.950 221.954 -0.20 -0.04    +0.233 C  
DOCKED: BRANCH   2   3
DOCKED: ATOM      3  O   UNL     1     139.623  74.276 222.337 -0.70 +0.06    -0.492 OA 
DOCKED: ATOM      4  H   UNL     1     139.234  74.537 223.233 -0.46 -0.10    +0.295 HD 
DOCKED: ENDBRANCH   2   3
DOCKED: BRANCH   2   5
DOCKED: ATOM      5  C   UNL     1     139.914  71.917 223.006 -0.29 -0.02    +0.125 A  
DOCKED: ATOM      6  N   UNL     1     140.391  72.257 224.236 -0.10 +0.04    -0.243 NA 
DOCKED: ATOM      7  C   UNL     1     139.496  70.595 222.770 -0.23 -0.01    +0.035 A  
DOCKED: ATOM      8  C   UNL     1     140.479  71.360 225.253 -0.49 -0.01    +0.071 A  
DOCKED: ATOM      9  C   UNL     1     139.573  69.651 223.796 -0.27 -0.00    +0.013 A  
DOCKED: ATOM     10  C   UNL     1     140.975  71.755 226.500 -0.68 -0.00    +0.030 A  
DOCKED: ATOM     11  C   UNL     1     140.067  70.024 225.051 -0.43 -0.00    +0.002 A  
DOCKED: ATOM     12  C   UNL     1     141.065  70.829 227.544 -0.65 -0.00    +0.023 A  
DOCKED: ATOM     13  C   UNL     1     140.159  69.099 226.102 -0.50 -0.01    +0.030 A  
DOCKED: ATOM     14  C   UNL     1     140.657  69.504 227.348 -0.57 -0.01    +0.041 A  
DOCKED: ATOM     15  Cl  UNL     1     140.772  68.348 228.661 -0.70 +0.02    -0.084 Cl 
DOCKED: ENDBRANCH   2   5
DOCKED: ENDBRANCH   1   2
DOCKED: BRANCH   1  16
DOCKED: ATOM     16  C   UNL     1     141.280  72.331 220.044 -0.08 -0.04    +0.246 C  
DOCKED: BRANCH  16  17
DOCKED: ATOM     17  C   UNL     1     142.276  73.433 220.295 -0.15 -0.05    +0.244 C  
DOCKED: ATOM     18  O   UNL     1     141.849  74.601 220.510 -0.18 +0.08    -0.273 OA 
DOCKED: BRANCH  17  19
DOCKED: ATOM     19  N   UNL     1     143.690  73.173 220.365 -0.14 +0.06    -0.335 N  
DOCKED: ATOM     20  C   UNL     1     144.263  71.873 220.061 -0.25 -0.01    +0.126 C  
DOCKED: ATOM     21  C   UNL     1     144.699  74.168 220.692 -0.32 -0.06    +0.196 C  
DOCKED: ATOM     22  C   UNL     1     145.770  72.087 220.016 -0.26 +0.03    +0.100 C  
DOCKED: ATOM     23  C   UNL     1     146.023  73.410 220.737 -0.46 -0.00    +0.267 C  
DOCKED: ATOM     24  F   UNL     1     146.382  73.165 222.053 -0.27 +0.05    -0.205 F  
DOCKED: ATOM     25  F   UNL     1     147.028  74.130 220.113 -0.12 -0.04    -0.205 F  
DOCKED: ENDBRANCH  17  19
DOCKED: ENDBRANCH  16  17
DOCKED: ENDBRANCH   1  16
DOCKED: TORSDOF 6
DOCKED: TER
DOCKED: ENDMDL
________________________________________________________________________________


    FINAL DOCKED STATE:
    ________________________


Run:   9 / 20
Time taken for this run:   0.038s

DOCKED: MODEL        9
DOCKED: USER    Run = 9
DOCKED: USER
DOCKED: USER    Estimated Free Energy of Binding    =  -6.66 kcal/mol  [=(1)+(2)+(3)-(4)]
DOCKED: USER
DOCKED: USER    (1) Final Intermolecular Energy     =  -8.45 kcal/mol
DOCKED: USER        vdW + Hbond + desolv Energy     =  -8.21 kcal/mol
DOCKED: USER        Electrostatic Energy            =  -0.24 kcal/mol
DOCKED: USER        Moving Ligand-Fixed Receptor    =  -8.45 kcal/mol
DOCKED: USER        Moving Ligand-Moving Receptor   =  +0.00 kcal/mol
DOCKED: USER    (2) Final Total Internal Energy     =  -0.75 kcal/mol
DOCKED: USER    (3) Torsional Free Energy           =  +1.79 kcal/mol
DOCKED: USER    (4) Unbound System's Energy         =  -0.75 kcal/mol
DOCKED: USER
DOCKED: USER
DOCKED: REMARK SMILES O=C(C/N=C(\O)c1ccc2cc(Cl)ccc2n1)N1CCC(F)(F)C1
DOCKED: REMARK SMILES IDX 4 1 5 2 6 3 7 5 17 6 8 7 16 8 9 9 15 10 10 11 14 12 11 13
DOCKED: REMARK SMILES IDX 12 14 13 15 3 16 2 17 1 18 18 19 19 20 24 21 20 22 21 23
DOCKED: REMARK SMILES IDX 22 24 23 25
DOCKED: REMARK H PARENT 6 4
DOCKED: USER                              x       y       z     vdW  Elec       q    Type
DOCKED: USER                           _______ _______ _______ _____ _____    ______ ____
DOCKED: ROOT
DOCKED: ATOM      1  N   UNL     1     139.947  72.270 220.739 -0.06 +0.04    -0.240 NA 
DOCKED: ENDROOT
DOCKED: BRANCH   1   2
DOCKED: ATOM      2  C   UNL     1     139.898  72.646 221.987 -0.20 -0.04    +0.233 C  
DOCKED: BRANCH   2   3
DOCKED: ATOM      3  O   UNL     1     139.816  73.996 222.343 -0.74 +0.04    -0.492 OA 
DOCKED: ATOM      4  H   UNL     1     139.247  74.336 223.107 -0.48 -0.10    +0.295 HD 
DOCKED: ENDBRANCH   2   3
DOCKED: BRANCH   2   5
DOCKED: ATOM      5  C   UNL     1     139.930  71.637 223.064 -0.29 -0.02    +0.125 A  
DOCKED: ATOM      6  N   UNL     1     140.433  71.987 224.280 -0.22 +0.04    -0.243 NA 
DOCKED: ATOM      7  C   UNL     1     139.457  70.328 222.864 -0.22 -0.01    +0.035 A  
DOCKED: ATOM      8  C   UNL     1     140.495  71.112 225.318 -0.51 -0.01    +0.071 A  
DOCKED: ATOM      9  C   UNL     1     139.506  69.406 223.912 -0.26 -0.00    +0.013 A  
DOCKED: ATOM     10  C   UNL     1     141.020  71.517 226.550 -0.69 -0.00    +0.030 A  
DOCKED: ATOM     11  C   UNL     1     140.028  69.790 225.153 -0.42 -0.00    +0.002 A  
DOCKED: ATOM     12  C   UNL     1     141.082  70.613 227.616 -0.62 -0.00    +0.023 A  
DOCKED: ATOM     13  C   UNL     1     140.093  68.887 226.226 -0.52 -0.01    +0.030 A  
DOCKED: ATOM     14  C   UNL     1     140.620  69.302 227.456 -0.58 -0.01    +0.041 A  
DOCKED: ATOM     15  Cl  UNL     1     140.701  68.175 228.797 -0.57 +0.02    -0.084 Cl 
DOCKED: ENDBRANCH   2   5
DOCKED: ENDBRANCH   1   2
DOCKED: BRANCH   1  16
DOCKED: ATOM     16  C   UNL     1     141.040  71.533 220.108 -0.07 -0.04    +0.246 C  
DOCKED: BRANCH  16  17
DOCKED: ATOM     17  C   UNL     1     141.901  72.451 219.280 -0.05 -0.04    +0.244 C  
DOCKED: ATOM     18  O   UNL     1     141.475  72.834 218.155 -0.01 +0.05    -0.273 OA 
DOCKED: BRANCH  17  19
DOCKED: ATOM     19  N   UNL     1     143.159  72.954 219.769 -0.07 +0.06    -0.335 N  
DOCKED: ATOM     20  C   UNL     1     143.545  74.349 219.642 -0.28 -0.04    +0.126 C  
DOCKED: ATOM     21  C   UNL     1     144.149  72.159 220.476 -0.24 -0.03    +0.196 C  
DOCKED: ATOM     22  C   UNL     1     144.803  74.506 220.486 -0.39 -0.04    +0.100 C  
DOCKED: ATOM     23  C   UNL     1     145.337  73.090 220.703 -0.39 -0.03    +0.267 C  
DOCKED: ATOM     24  F   UNL     1     146.332  72.819 219.778 -0.13 -0.13    -0.205 F  
DOCKED: ATOM     25  F   UNL     1     145.845  72.943 221.982 -0.20 +0.06    -0.205 F  
DOCKED: ENDBRANCH  17  19
DOCKED: ENDBRANCH  16  17
DOCKED: ENDBRANCH   1  16
DOCKED: TORSDOF 6
DOCKED: TER
DOCKED: ENDMDL
________________________________________________________________________________


    FINAL DOCKED STATE:
    ________________________


Run:   10 / 20
Time taken for this run:   0.038s

DOCKED: MODEL        10
DOCKED: USER    Run = 10
DOCKED: USER
DOCKED: USER    Estimated Free Energy of Binding    =  -6.96 kcal/mol  [=(1)+(2)+(3)-(4)]
DOCKED: USER
DOCKED: USER    (1) Final Intermolecular Energy     =  -8.75 kcal/mol
DOCKED: USER        vdW + Hbond + desolv Energy     =  -8.65 kcal/mol
DOCKED: USER        Electrostatic Energy            =  -0.10 kcal/mol
DOCKED: USER        Moving Ligand-Fixed Receptor    =  -8.75 kcal/mol
DOCKED: USER        Moving Ligand-Moving Receptor   =  +0.00 kcal/mol
DOCKED: USER    (2) Final Total Internal Energy     =  -0.80 kcal/mol
DOCKED: USER    (3) Torsional Free Energy           =  +1.79 kcal/mol
DOCKED: USER    (4) Unbound System's Energy         =  -0.80 kcal/mol
DOCKED: USER
DOCKED: USER
DOCKED: REMARK SMILES O=C(C/N=C(\O)c1ccc2cc(Cl)ccc2n1)N1CCC(F)(F)C1
DOCKED: REMARK SMILES IDX 4 1 5 2 6 3 7 5 17 6 8 7 16 8 9 9 15 10 10 11 14 12 11 13
DOCKED: REMARK SMILES IDX 12 14 13 15 3 16 2 17 1 18 18 19 19 20 24 21 20 22 21 23
DOCKED: REMARK SMILES IDX 22 24 23 25
DOCKED: REMARK H PARENT 6 4
DOCKED: USER                              x       y       z     vdW  Elec       q    Type
DOCKED: USER                           _______ _______ _______ _____ _____    ______ ____
DOCKED: ROOT
DOCKED: ATOM      1  N   UNL     1     140.276  72.607 220.767 -0.08 +0.04    -0.240 NA 
DOCKED: ENDROOT
DOCKED: BRANCH   1   2
DOCKED: ATOM      2  C   UNL     1     139.950  72.917 221.991 -0.21 -0.03    +0.233 C  
DOCKED: BRANCH   2   3
DOCKED: ATOM      3  O   UNL     1     139.572  74.217 222.343 -0.70 +0.07    -0.492 OA 
DOCKED: ATOM      4  H   UNL     1     139.252  74.472 223.268 -0.45 -0.11    +0.295 HD 
DOCKED: ENDBRANCH   2   3
DOCKED: BRANCH   2   5
DOCKED: ATOM      5  C   UNL     1     139.977  71.885 223.046 -0.30 -0.02    +0.125 A  
DOCKED: ATOM      6  N   UNL     1     140.453  72.215 224.279 -0.09 +0.03    -0.243 NA 
DOCKED: ATOM      7  C   UNL     1     139.526  70.574 222.809 -0.24 -0.01    +0.035 A  
DOCKED: ATOM      8  C   UNL     1     140.508  71.317 225.299 -0.50 -0.01    +0.071 A  
DOCKED: ATOM      9  C   UNL     1     139.570  69.630 223.837 -0.27 -0.00    +0.013 A  
DOCKED: ATOM     10  C   UNL     1     141.004  71.702 226.549 -0.69 -0.00    +0.030 A  
DOCKED: ATOM     11  C   UNL     1     140.063  69.993 225.095 -0.43 -0.00    +0.002 A  
DOCKED: ATOM     12  C   UNL     1     141.060  70.776 227.595 -0.65 -0.00    +0.023 A  
DOCKED: ATOM     13  C   UNL     1     140.121  69.068 226.149 -0.50 -0.01    +0.030 A  
DOCKED: ATOM     14  C   UNL     1     140.619  69.462 227.398 -0.57 -0.01    +0.041 A  
DOCKED: ATOM     15  Cl  UNL     1     140.692  68.306 228.715 -0.67 +0.02    -0.084 Cl 
DOCKED: ENDBRANCH   2   5
DOCKED: ENDBRANCH   1   2
DOCKED: BRANCH   1  16
DOCKED: ATOM     16  C   UNL     1     140.976  73.473 219.821 -0.06 -0.05    +0.246 C  
DOCKED: BRANCH  16  17
DOCKED: ATOM     17  C   UNL     1     142.143  74.160 220.480 -0.18 -0.06    +0.244 C  
DOCKED: ATOM     18  O   UNL     1     141.935  75.220 221.133 -0.24 +0.11    -0.273 OA 
DOCKED: BRANCH  17  19
DOCKED: ATOM     19  N   UNL     1     143.470  73.602 220.442 -0.15 +0.08    -0.335 N  
DOCKED: ATOM     20  C   UNL     1     143.716  72.180 220.275 -0.25 -0.02    +0.126 C  
DOCKED: ATOM     21  C   UNL     1     144.696  74.379 220.513 -0.32 -0.07    +0.196 C  
DOCKED: ATOM     22  C   UNL     1     145.215  72.046 220.045 -0.28 +0.01    +0.100 C  
DOCKED: ATOM     23  C   UNL     1     145.830  73.357 220.534 -0.44 -0.00    +0.267 C  
DOCKED: ATOM     24  F   UNL     1     146.300  73.200 221.827 -0.27 +0.04    -0.205 F  
DOCKED: ATOM     25  F   UNL     1     146.870  73.753 219.710 -0.12 -0.09    -0.205 F  
DOCKED: ENDBRANCH  17  19
DOCKED: ENDBRANCH  16  17
DOCKED: ENDBRANCH   1  16
DOCKED: TORSDOF 6
DOCKED: TER
DOCKED: ENDMDL
________________________________________________________________________________


    FINAL DOCKED STATE:
    ________________________


Run:   11 / 20
Time taken for this run:   0.038s

DOCKED: MODEL        11
DOCKED: USER    Run = 11
DOCKED: USER
DOCKED: USER    Estimated Free Energy of Binding    =  -6.16 kcal/mol  [=(1)+(2)+(3)-(4)]
DOCKED: USER
DOCKED: USER    (1) Final Intermolecular Energy     =  -7.95 kcal/mol
DOCKED: USER        vdW + Hbond + desolv Energy     =  -7.87 kcal/mol
DOCKED: USER        Electrostatic Energy            =  -0.08 kcal/mol
DOCKED: USER        Moving Ligand-Fixed Receptor    =  -7.95 kcal/mol
DOCKED: USER        Moving Ligand-Moving Receptor   =  +0.00 kcal/mol
DOCKED: USER    (2) Final Total Internal Energy     =  -1.11 kcal/mol
DOCKED: USER    (3) Torsional Free Energy           =  +1.79 kcal/mol
DOCKED: USER    (4) Unbound System's Energy         =  -1.11 kcal/mol
DOCKED: USER
DOCKED: USER
DOCKED: REMARK SMILES O=C(C/N=C(\O)c1ccc2cc(Cl)ccc2n1)N1CCC(F)(F)C1
DOCKED: REMARK SMILES IDX 4 1 5 2 6 3 7 5 17 6 8 7 16 8 9 9 15 10 10 11 14 12 11 13
DOCKED: REMARK SMILES IDX 12 14 13 15 3 16 2 17 1 18 18 19 19 20 24 21 20 22 21 23
DOCKED: REMARK SMILES IDX 22 24 23 25
DOCKED: REMARK H PARENT 6 4
DOCKED: USER                              x       y       z     vdW  Elec       q    Type
DOCKED: USER                           _______ _______ _______ _____ _____    ______ ____
DOCKED: ROOT
DOCKED: ATOM      1  N   UNL     1     140.725  73.784 222.001 -0.71 +0.00    -0.240 NA 
DOCKED: ENDROOT
DOCKED: BRANCH   1   2
DOCKED: ATOM      2  C   UNL     1     139.765  72.906 222.089 -0.20 -0.04    +0.233 C  
DOCKED: BRANCH   2   3
DOCKED: ATOM      3  O   UNL     1     138.665  72.932 221.226 -0.03 +0.11    -0.492 OA 
DOCKED: ATOM      4  H   UNL     1     138.239  73.787 220.893 +0.06 -0.06    +0.295 HD 
DOCKED: ENDBRANCH   2   3
DOCKED: BRANCH   2   5
DOCKED: ATOM      5  C   UNL     1     139.822  71.851 223.120 -0.29 -0.02    +0.125 A  
DOCKED: ATOM      6  N   UNL     1     140.355  72.148 224.338 -0.12 +0.04    -0.243 NA 
DOCKED: ATOM      7  C   UNL     1     139.341  70.552 222.876 -0.24 -0.01    +0.035 A  
DOCKED: ATOM      8  C   UNL     1     140.441  71.228 225.335 -0.50 -0.01    +0.071 A  
DOCKED: ATOM      9  C   UNL     1     139.414  69.586 223.882 -0.28 -0.00    +0.013 A  
DOCKED: ATOM     10  C   UNL     1     140.997  71.578 226.570 -0.69 -0.00    +0.030 A  
DOCKED: ATOM     11  C   UNL     1     139.967  69.915 225.124 -0.43 -0.00    +0.002 A  
DOCKED: ATOM     12  C   UNL     1     141.084  70.629 227.594 -0.62 -0.00    +0.023 A  
DOCKED: ATOM     13  C   UNL     1     140.056  68.967 226.155 -0.51 -0.01    +0.030 A  
DOCKED: ATOM     14  C   UNL     1     140.614  69.326 227.389 -0.58 -0.01    +0.041 A  
DOCKED: ATOM     15  Cl  UNL     1     140.727  68.142 228.677 -0.64 +0.02    -0.084 Cl 
DOCKED: ENDBRANCH   2   5
DOCKED: ENDBRANCH   1   2
DOCKED: BRANCH   1  16
DOCKED: ATOM     16  C   UNL     1     140.925  74.728 220.903 -0.19 -0.06    +0.246 C  
DOCKED: BRANCH  16  17
DOCKED: ATOM     17  C   UNL     1     140.072  75.956 221.086 -0.18 -0.06    +0.244 C  
DOCKED: ATOM     18  O   UNL     1     138.829  75.867 220.884 -0.07 +0.06    -0.273 OA 
DOCKED: BRANCH  17  19
DOCKED: ATOM     19  N   UNL     1     140.626  77.201 221.549 -0.14 +0.12    -0.335 N  
DOCKED: ATOM     20  C   UNL     1     141.676  77.905 220.833 -0.26 -0.07    +0.126 C  
DOCKED: ATOM     21  C   UNL     1     140.180  77.914 222.735 -0.26 -0.05    +0.196 C  
DOCKED: ATOM     22  C   UNL     1     141.797  79.263 221.510 -0.36 -0.05    +0.100 C  
DOCKED: ATOM     23  C   UNL     1     141.117  79.111 222.871 -0.33 -0.08    +0.267 C  
DOCKED: ATOM     24  F   UNL     1     142.070  78.857 223.844 -0.19 +0.07    -0.205 F  
DOCKED: ATOM     25  F   UNL     1     140.414  80.257 223.203 -0.10 +0.04    -0.205 F  
DOCKED: ENDBRANCH  17  19
DOCKED: ENDBRANCH  16  17
DOCKED: ENDBRANCH   1  16
DOCKED: TORSDOF 6
DOCKED: TER
DOCKED: ENDMDL
________________________________________________________________________________


    FINAL DOCKED STATE:
    ________________________


Run:   12 / 20
Time taken for this run:   0.038s

DOCKED: MODEL        12
DOCKED: USER    Run = 12
DOCKED: USER
DOCKED: USER    Estimated Free Energy of Binding    =  -5.73 kcal/mol  [=(1)+(2)+(3)-(4)]
DOCKED: USER
DOCKED: USER    (1) Final Intermolecular Energy     =  -7.52 kcal/mol
DOCKED: USER        vdW + Hbond + desolv Energy     =  -7.32 kcal/mol
DOCKED: USER        Electrostatic Energy            =  -0.20 kcal/mol
DOCKED: USER        Moving Ligand-Fixed Receptor    =  -7.52 kcal/mol
DOCKED: USER        Moving Ligand-Moving Receptor   =  +0.00 kcal/mol
DOCKED: USER    (2) Final Total Internal Energy     =  -1.49 kcal/mol
DOCKED: USER    (3) Torsional Free Energy           =  +1.79 kcal/mol
DOCKED: USER    (4) Unbound System's Energy         =  -1.49 kcal/mol
DOCKED: USER
DOCKED: USER
DOCKED: REMARK SMILES O=C(C/N=C(\O)c1ccc2cc(Cl)ccc2n1)N1CCC(F)(F)C1
DOCKED: REMARK SMILES IDX 4 1 5 2 6 3 7 5 17 6 8 7 16 8 9 9 15 10 10 11 14 12 11 13
DOCKED: REMARK SMILES IDX 12 14 13 15 3 16 2 17 1 18 18 19 19 20 24 21 20 22 21 23
DOCKED: REMARK SMILES IDX 22 24 23 25
DOCKED: REMARK H PARENT 6 4
DOCKED: USER                              x       y       z     vdW  Elec       q    Type
DOCKED: USER                           _______ _______ _______ _____ _____    ______ ____
DOCKED: ROOT
DOCKED: ATOM      1  N   UNL     1     140.250  74.900 221.966 -0.68 +0.02    -0.240 NA 
DOCKED: ENDROOT
DOCKED: BRANCH   1   2
DOCKED: ATOM      2  C   UNL     1     139.673  73.828 221.497 -0.18 -0.04    +0.233 C  
DOCKED: BRANCH   2   3
DOCKED: ATOM      3  O   UNL     1     139.079  73.810 220.230 -0.00 +0.10    -0.492 OA 
DOCKED: ATOM      4  H   UNL     1     139.572  74.052 219.381 +0.04 -0.06    +0.295 HD 
DOCKED: ENDBRANCH   2   3
DOCKED: BRANCH   2   5
DOCKED: ATOM      5  C   UNL     1     139.633  72.596 222.308 -0.24 -0.02    +0.125 A  
DOCKED: ATOM      6  N   UNL     1     140.319  72.558 223.484 -0.27 +0.02    -0.243 NA 
DOCKED: ATOM      7  C   UNL     1     138.907  71.464 221.896 -0.16 -0.01    +0.035 A  
DOCKED: ATOM      8  C   UNL     1     140.328  71.458 224.283 -0.42 -0.01    +0.071 A  
DOCKED: ATOM      9  C   UNL     1     138.897  70.320 222.696 -0.20 -0.00    +0.013 A  
DOCKED: ATOM     10  C   UNL     1     141.048  71.466 225.482 -0.55 -0.00    +0.030 A  
DOCKED: ATOM     11  C   UNL     1     139.609  70.305 223.900 -0.34 -0.00    +0.002 A  
DOCKED: ATOM     12  C   UNL     1     141.056  70.332 226.301 -0.56 -0.00    +0.023 A  
DOCKED: ATOM     13  C   UNL     1     139.621  69.170 224.726 -0.34 -0.01    +0.030 A  
DOCKED: ATOM     14  C   UNL     1     140.344  69.186 225.926 -0.47 -0.01    +0.041 A  
DOCKED: ATOM     15  Cl  UNL     1     140.358  67.769 226.958 -0.79 +0.02    -0.084 Cl 
DOCKED: ENDBRANCH   2   5
DOCKED: ENDBRANCH   1   2
DOCKED: BRANCH   1  16
DOCKED: ATOM     16  C   UNL     1     141.312  75.659 221.308 -0.20 -0.09    +0.246 C  
DOCKED: BRANCH  16  17
DOCKED: ATOM     17  C   UNL     1     141.906  74.878 220.166 -0.17 -0.08    +0.244 C  
DOCKED: ATOM     18  O   UNL     1     141.374  74.970 219.025 -0.04 +0.08    -0.273 OA 
DOCKED: BRANCH  17  19
DOCKED: ATOM     19  N   UNL     1     143.100  74.089 220.328 -0.14 +0.10    -0.335 N  
DOCKED: ATOM     20  C   UNL     1     143.065  72.685 220.702 -0.22 -0.02    +0.126 C  
DOCKED: ATOM     21  C   UNL     1     144.449  74.575 220.094 -0.31 -0.08    +0.196 C  
DOCKED: ATOM     22  C   UNL     1     144.490  72.178 220.526 -0.29 -0.01    +0.100 C  
DOCKED: ATOM     23  C   UNL     1     145.373  73.424 220.485 -0.40 -0.03    +0.267 C  
DOCKED: ATOM     24  F   UNL     1     145.912  73.657 221.740 -0.24 +0.05    -0.205 F  
DOCKED: ATOM     25  F   UNL     1     146.397  73.275 219.565 -0.13 -0.12    -0.205 F  
DOCKED: ENDBRANCH  17  19
DOCKED: ENDBRANCH  16  17
DOCKED: ENDBRANCH   1  16
DOCKED: TORSDOF 6
DOCKED: TER
DOCKED: ENDMDL
________________________________________________________________________________


    FINAL DOCKED STATE:
    ________________________


Run:   13 / 20
Time taken for this run:   0.038s

DOCKED: MODEL        13
DOCKED: USER    Run = 13
DOCKED: USER
DOCKED: USER    Estimated Free Energy of Binding    =  -6.96 kcal/mol  [=(1)+(2)+(3)-(4)]
DOCKED: USER
DOCKED: USER    (1) Final Intermolecular Energy     =  -8.75 kcal/mol
DOCKED: USER        vdW + Hbond + desolv Energy     =  -8.64 kcal/mol
DOCKED: USER        Electrostatic Energy            =  -0.11 kcal/mol
DOCKED: USER        Moving Ligand-Fixed Receptor    =  -8.75 kcal/mol
DOCKED: USER        Moving Ligand-Moving Receptor   =  +0.00 kcal/mol
DOCKED: USER    (2) Final Total Internal Energy     =  -0.80 kcal/mol
DOCKED: USER    (3) Torsional Free Energy           =  +1.79 kcal/mol
DOCKED: USER    (4) Unbound System's Energy         =  -0.80 kcal/mol
DOCKED: USER
DOCKED: USER
DOCKED: REMARK SMILES O=C(C/N=C(\O)c1ccc2cc(Cl)ccc2n1)N1CCC(F)(F)C1
DOCKED: REMARK SMILES IDX 4 1 5 2 6 3 7 5 17 6 8 7 16 8 9 9 15 10 10 11 14 12 11 13
DOCKED: REMARK SMILES IDX 12 14 13 15 3 16 2 17 1 18 18 19 19 20 24 21 20 22 21 23
DOCKED: REMARK SMILES IDX 22 24 23 25
DOCKED: REMARK H PARENT 6 4
DOCKED: USER                              x       y       z     vdW  Elec       q    Type
DOCKED: USER                           _______ _______ _______ _____ _____    ______ ____
DOCKED: ROOT
DOCKED: ATOM      1  N   UNL     1     140.175  72.597 220.742 -0.08 +0.04    -0.240 NA 
DOCKED: ENDROOT
DOCKED: BRANCH   1   2
DOCKED: ATOM      2  C   UNL     1     139.921  72.917 221.980 -0.21 -0.03    +0.233 C  
DOCKED: BRANCH   2   3
DOCKED: ATOM      3  O   UNL     1     139.613  74.231 222.350 -0.70 +0.06    -0.492 OA 
DOCKED: ATOM      4  H   UNL     1     139.242  74.481 223.257 -0.45 -0.11    +0.295 HD 
DOCKED: ENDBRANCH   2   3
DOCKED: BRANCH   2   5
DOCKED: ATOM      5  C   UNL     1     139.958  71.883 223.032 -0.30 -0.02    +0.125 A  
DOCKED: ATOM      6  N   UNL     1     140.427  72.215 224.267 -0.10 +0.04    -0.243 NA 
DOCKED: ATOM      7  C   UNL     1     139.521  70.568 222.791 -0.23 -0.01    +0.035 A  
DOCKED: ATOM      8  C   UNL     1     140.490  71.316 225.284 -0.50 -0.01    +0.071 A  
DOCKED: ATOM      9  C   UNL     1     139.573  69.622 223.817 -0.27 -0.00    +0.013 A  
DOCKED: ATOM     10  C   UNL     1     140.980  71.703 226.537 -0.69 -0.00    +0.030 A  
DOCKED: ATOM     11  C   UNL     1     140.060  69.987 225.077 -0.43 -0.00    +0.002 A  
DOCKED: ATOM     12  C   UNL     1     141.044  70.774 227.581 -0.65 -0.00    +0.023 A  
DOCKED: ATOM     13  C   UNL     1     140.126  69.060 226.129 -0.50 -0.01    +0.030 A  
DOCKED: ATOM     14  C   UNL     1     140.618  69.456 227.379 -0.57 -0.01    +0.041 A  
DOCKED: ATOM     15  Cl  UNL     1     140.701  68.298 228.693 -0.67 +0.02    -0.084 Cl 
DOCKED: ENDBRANCH   2   5
DOCKED: ENDBRANCH   1   2
DOCKED: BRANCH   1  16
DOCKED: ATOM     16  C   UNL     1     140.895  73.422 219.773 -0.06 -0.05    +0.246 C  
DOCKED: BRANCH  16  17
DOCKED: ATOM     17  C   UNL     1     142.044  74.144 220.428 -0.17 -0.06    +0.244 C  
DOCKED: ATOM     18  O   UNL     1     141.811  75.219 221.047 -0.24 +0.10    -0.273 OA 
DOCKED: BRANCH  17  19
DOCKED: ATOM     19  N   UNL     1     143.379  73.605 220.422 -0.15 +0.08    -0.335 N  
DOCKED: ATOM     20  C   UNL     1     143.646  72.179 220.347 -0.25 -0.02    +0.126 C  
DOCKED: ATOM     21  C   UNL     1     144.593  74.404 220.441 -0.34 -0.07    +0.196 C  
DOCKED: ATOM     22  C   UNL     1     145.147  72.053 220.122 -0.26 +0.00    +0.100 C  
DOCKED: ATOM     23  C   UNL     1     145.742  73.402 220.525 -0.43 -0.01    +0.267 C  
DOCKED: ATOM     24  F   UNL     1     146.216  73.336 221.824 -0.27 +0.04    -0.205 F  
DOCKED: ATOM     25  F   UNL     1     146.775  73.761 219.675 -0.12 -0.08    -0.205 F  
DOCKED: ENDBRANCH  17  19
DOCKED: ENDBRANCH  16  17
DOCKED: ENDBRANCH   1  16
DOCKED: TORSDOF 6
DOCKED: TER
DOCKED: ENDMDL
________________________________________________________________________________


    FINAL DOCKED STATE:
    ________________________


Run:   14 / 20
Time taken for this run:   0.038s

DOCKED: MODEL        14
DOCKED: USER    Run = 14
DOCKED: USER
DOCKED: USER    Estimated Free Energy of Binding    =  -6.60 kcal/mol  [=(1)+(2)+(3)-(4)]
DOCKED: USER
DOCKED: USER    (1) Final Intermolecular Energy     =  -8.39 kcal/mol
DOCKED: USER        vdW + Hbond + desolv Energy     =  -8.13 kcal/mol
DOCKED: USER        Electrostatic Energy            =  -0.25 kcal/mol
DOCKED: USER        Moving Ligand-Fixed Receptor    =  -8.39 kcal/mol
DOCKED: USER        Moving Ligand-Moving Receptor   =  +0.00 kcal/mol
DOCKED: USER    (2) Final Total Internal Energy     =  -0.71 kcal/mol
DOCKED: USER    (3) Torsional Free Energy           =  +1.79 kcal/mol
DOCKED: USER    (4) Unbound System's Energy         =  -0.71 kcal/mol
DOCKED: USER
DOCKED: USER
DOCKED: REMARK SMILES O=C(C/N=C(\O)c1ccc2cc(Cl)ccc2n1)N1CCC(F)(F)C1
DOCKED: REMARK SMILES IDX 4 1 5 2 6 3 7 5 17 6 8 7 16 8 9 9 15 10 10 11 14 12 11 13
DOCKED: REMARK SMILES IDX 12 14 13 15 3 16 2 17 1 18 18 19 19 20 24 21 20 22 21 23
DOCKED: REMARK SMILES IDX 22 24 23 25
DOCKED: REMARK H PARENT 6 4
DOCKED: USER                              x       y       z     vdW  Elec       q    Type
DOCKED: USER                           _______ _______ _______ _____ _____    ______ ____
DOCKED: ROOT
DOCKED: ATOM      1  N   UNL     1     140.188  72.313 220.693 -0.07 +0.04    -0.240 NA 
DOCKED: ENDROOT
DOCKED: BRANCH   1   2
DOCKED: ATOM      2  C   UNL     1     140.022  72.686 221.931 -0.21 -0.03    +0.233 C  
DOCKED: BRANCH   2   3
DOCKED: ATOM      3  O   UNL     1     139.834  74.029 222.274 -0.73 +0.04    -0.492 OA 
DOCKED: ATOM      4  H   UNL     1     139.236  74.332 223.032 -0.47 -0.09    +0.295 HD 
DOCKED: ENDBRANCH   2   3
DOCKED: BRANCH   2   5
DOCKED: ATOM      5  C   UNL     1     140.032  71.682 223.013 -0.29 -0.02    +0.125 A  
DOCKED: ATOM      6  N   UNL     1     140.540  72.026 224.228 -0.19 +0.03    -0.243 NA 
DOCKED: ATOM      7  C   UNL     1     139.532  70.381 222.818 -0.22 -0.01    +0.035 A  
DOCKED: ATOM      8  C   UNL     1     140.582  71.154 225.270 -0.51 -0.01    +0.071 A  
DOCKED: ATOM      9  C   UNL     1     139.561  69.464 223.870 -0.25 -0.00    +0.013 A  
DOCKED: ATOM     10  C   UNL     1     141.114  71.553 226.502 -0.69 -0.00    +0.030 A  
DOCKED: ATOM     11  C   UNL     1     140.088  69.841 225.110 -0.42 -0.00    +0.002 A  
DOCKED: ATOM     12  C   UNL     1     141.156  70.653 227.571 -0.57 -0.00    +0.023 A  
DOCKED: ATOM     13  C   UNL     1     140.133  68.943 226.187 -0.51 -0.01    +0.030 A  
DOCKED: ATOM     14  C   UNL     1     140.666  69.351 227.416 -0.58 -0.01    +0.041 A  
DOCKED: ATOM     15  Cl  UNL     1     140.723  68.228 228.762 -0.61 +0.02    -0.084 Cl 
DOCKED: ENDBRANCH   2   5
DOCKED: ENDBRANCH   1   2
DOCKED: BRANCH   1  16
DOCKED: ATOM     16  C   UNL     1     141.273  71.476 220.187 -0.08 -0.04    +0.246 C  
DOCKED: BRANCH  16  17
DOCKED: ATOM     17  C   UNL     1     142.169  72.255 219.260 -0.05 -0.04    +0.244 C  
DOCKED: ATOM     18  O   UNL     1     141.805  72.423 218.063 -0.01 +0.05    -0.273 OA 
DOCKED: BRANCH  17  19
DOCKED: ATOM     19  N   UNL     1     143.387  72.869 219.721 -0.07 +0.05    -0.335 N  
DOCKED: ATOM     20  C   UNL     1     143.559  74.310 219.791 -0.29 -0.04    +0.126 C  
DOCKED: ATOM     21  C   UNL     1     144.546  72.140 220.209 -0.25 -0.01    +0.196 C  
DOCKED: ATOM     22  C   UNL     1     144.863  74.532 220.546 -0.34 -0.04    +0.100 C  
DOCKED: ATOM     23  C   UNL     1     145.609  73.199 220.488 -0.41 -0.01    +0.267 C  
DOCKED: ATOM     24  F   UNL     1     146.532  73.224 219.455 -0.08 -0.16    -0.205 F  
DOCKED: ATOM     25  F   UNL     1     146.262  72.945 221.682 -0.24 +0.04    -0.205 F  
DOCKED: ENDBRANCH  17  19
DOCKED: ENDBRANCH  16  17
DOCKED: ENDBRANCH   1  16
DOCKED: TORSDOF 6
DOCKED: TER
DOCKED: ENDMDL
________________________________________________________________________________


    FINAL DOCKED STATE:
    ________________________


Run:   15 / 20
Time taken for this run:   0.038s

DOCKED: MODEL        15
DOCKED: USER    Run = 15
DOCKED: USER
DOCKED: USER    Estimated Free Energy of Binding    =  -6.80 kcal/mol  [=(1)+(2)+(3)-(4)]
DOCKED: USER
DOCKED: USER    (1) Final Intermolecular Energy     =  -8.59 kcal/mol
DOCKED: USER        vdW + Hbond + desolv Energy     =  -8.53 kcal/mol
DOCKED: USER        Electrostatic Energy            =  -0.07 kcal/mol
DOCKED: USER        Moving Ligand-Fixed Receptor    =  -8.59 kcal/mol
DOCKED: USER        Moving Ligand-Moving Receptor   =  +0.00 kcal/mol
DOCKED: USER    (2) Final Total Internal Energy     =  -0.41 kcal/mol
DOCKED: USER    (3) Torsional Free Energy           =  +1.79 kcal/mol
DOCKED: USER    (4) Unbound System's Energy         =  -0.41 kcal/mol
DOCKED: USER
DOCKED: USER
DOCKED: REMARK SMILES O=C(C/N=C(\O)c1ccc2cc(Cl)ccc2n1)N1CCC(F)(F)C1
DOCKED: REMARK SMILES IDX 4 1 5 2 6 3 7 5 17 6 8 7 16 8 9 9 15 10 10 11 14 12 11 13
DOCKED: REMARK SMILES IDX 12 14 13 15 3 16 2 17 1 18 18 19 19 20 24 21 20 22 21 23
DOCKED: REMARK SMILES IDX 22 24 23 25
DOCKED: REMARK H PARENT 6 4
DOCKED: USER                              x       y       z     vdW  Elec       q    Type
DOCKED: USER                           _______ _______ _______ _____ _____    ______ ____
DOCKED: ROOT
DOCKED: ATOM      1  N   UNL     1     139.948  74.175 222.035 -0.79 +0.02    -0.240 NA 
DOCKED: ENDROOT
DOCKED: BRANCH   1   2
DOCKED: ATOM      2  C   UNL     1     140.239  72.925 221.804 -0.21 -0.03    +0.233 C  
DOCKED: BRANCH   2   3
DOCKED: ATOM      3  O   UNL     1     140.631  72.485 220.536 -0.02 +0.08    -0.492 OA 
DOCKED: ATOM      4  H   UNL     1     139.978  72.273 219.794 +0.05 -0.05    +0.295 HD 
DOCKED: ENDBRANCH   2   3
DOCKED: BRANCH   2   5
DOCKED: ATOM      5  C   UNL     1     140.155  71.934 222.895 -0.29 -0.02    +0.125 A  
DOCKED: ATOM      6  N   UNL     1     140.635  72.266 224.126 -0.08 +0.02    -0.243 NA 
DOCKED: ATOM      7  C   UNL     1     139.594  70.660 222.694 -0.23 -0.01    +0.035 A  
DOCKED: ATOM      8  C   UNL     1     140.592  71.405 225.177 -0.49 -0.01    +0.071 A  
DOCKED: ATOM      9  C   UNL     1     139.535  69.754 223.755 -0.27 -0.00    +0.013 A  
DOCKED: ATOM     10  C   UNL     1     141.098  71.790 226.423 -0.68 -0.00    +0.030 A  
DOCKED: ATOM     11  C   UNL     1     140.035  70.118 225.010 -0.43 -0.00    +0.002 A  
DOCKED: ATOM     12  C   UNL     1     141.053  70.901 227.502 -0.67 -0.00    +0.023 A  
DOCKED: ATOM     13  C   UNL     1     139.993  69.231 226.097 -0.48 -0.00    +0.030 A  
DOCKED: ATOM     14  C   UNL     1     140.501  69.625 227.341 -0.56 -0.01    +0.041 A  
DOCKED: ATOM     15  Cl  UNL     1     140.448  68.516 228.699 -0.69 +0.02    -0.084 Cl 
DOCKED: ENDBRANCH   2   5
DOCKED: ENDBRANCH   1   2
DOCKED: BRANCH   1  16
DOCKED: ATOM     16  C   UNL     1     140.704  75.332 221.562 -0.24 -0.05    +0.246 C  
DOCKED: BRANCH  16  17
DOCKED: ATOM     17  C   UNL     1     140.124  76.613 222.102 -0.26 -0.06    +0.244 C  
DOCKED: ATOM     18  O   UNL     1     138.999  76.577 222.674 -0.26 +0.05    -0.273 OA 
DOCKED: BRANCH  17  19
DOCKED: ATOM     19  N   UNL     1     140.848  77.857 222.043 -0.17 +0.13    -0.335 N  
DOCKED: ATOM     20  C   UNL     1     141.367  78.401 220.800 -0.26 -0.06    +0.126 C  
DOCKED: ATOM     21  C   UNL     1     141.098  78.722 223.183 -0.40 -0.06    +0.196 C  
DOCKED: ATOM     22  C   UNL     1     141.836  79.811 221.133 -0.33 -0.05    +0.100 C  
DOCKED: ATOM     23  C   UNL     1     141.974  79.855 222.654 -0.39 -0.09    +0.267 C  
DOCKED: ATOM     24  F   UNL     1     143.294  79.636 223.011 -0.20 +0.09    -0.205 F  
DOCKED: ATOM     25  F   UNL     1     141.559  81.078 223.154 -0.15 +0.04    -0.205 F  
DOCKED: ENDBRANCH  17  19
DOCKED: ENDBRANCH  16  17
DOCKED: ENDBRANCH   1  16
DOCKED: TORSDOF 6
DOCKED: TER
DOCKED: ENDMDL
________________________________________________________________________________


    FINAL DOCKED STATE:
    ________________________


Run:   16 / 20
Time taken for this run:   0.038s

DOCKED: MODEL        16
DOCKED: USER    Run = 16
DOCKED: USER
DOCKED: USER    Estimated Free Energy of Binding    =  -6.79 kcal/mol  [=(1)+(2)+(3)-(4)]
DOCKED: USER
DOCKED: USER    (1) Final Intermolecular Energy     =  -8.58 kcal/mol
DOCKED: USER        vdW + Hbond + desolv Energy     =  -8.33 kcal/mol
DOCKED: USER        Electrostatic Energy            =  -0.26 kcal/mol
DOCKED: USER        Moving Ligand-Fixed Receptor    =  -8.58 kcal/mol
DOCKED: USER        Moving Ligand-Moving Receptor   =  +0.00 kcal/mol
DOCKED: USER    (2) Final Total Internal Energy     =  -0.95 kcal/mol
DOCKED: USER    (3) Torsional Free Energy           =  +1.79 kcal/mol
DOCKED: USER    (4) Unbound System's Energy         =  -0.95 kcal/mol
DOCKED: USER
DOCKED: USER
DOCKED: REMARK SMILES O=C(C/N=C(\O)c1ccc2cc(Cl)ccc2n1)N1CCC(F)(F)C1
DOCKED: REMARK SMILES IDX 4 1 5 2 6 3 7 5 17 6 8 7 16 8 9 9 15 10 10 11 14 12 11 13
DOCKED: REMARK SMILES IDX 12 14 13 15 3 16 2 17 1 18 18 19 19 20 24 21 20 22 21 23
DOCKED: REMARK SMILES IDX 22 24 23 25
DOCKED: REMARK H PARENT 6 4
DOCKED: USER                              x       y       z     vdW  Elec       q    Type
DOCKED: USER                           _______ _______ _______ _____ _____    ______ ____
DOCKED: ROOT
DOCKED: ATOM      1  N   UNL     1     139.705  72.496 220.703 -0.06 +0.04    -0.240 NA 
DOCKED: ENDROOT
DOCKED: BRANCH   1   2
DOCKED: ATOM      2  C   UNL     1     139.771  72.867 221.951 -0.20 -0.04    +0.233 C  
DOCKED: BRANCH   2   3
DOCKED: ATOM      3  O   UNL     1     139.764  74.218 222.317 -0.72 +0.04    -0.492 OA 
DOCKED: ATOM      4  H   UNL     1     139.335  74.562 223.165 -0.46 -0.07    +0.295 HD 
DOCKED: ENDBRANCH   2   3
DOCKED: BRANCH   2   5
DOCKED: ATOM      5  C   UNL     1     139.856  71.853 223.020 -0.29 -0.02    +0.125 A  
DOCKED: ATOM      6  N   UNL     1     140.350  72.216 224.236 -0.13 +0.04    -0.243 NA 
DOCKED: ATOM      7  C   UNL     1     139.443  70.524 222.812 -0.23 -0.01    +0.035 A  
DOCKED: ATOM      8  C   UNL     1     140.459  71.336 225.266 -0.49 -0.01    +0.071 A  
DOCKED: ATOM      9  C   UNL     1     139.542  69.598 223.852 -0.27 -0.00    +0.013 A  
DOCKED: ATOM     10  C   UNL     1     140.972  71.755 226.499 -0.68 -0.00    +0.030 A  
DOCKED: ATOM     11  C   UNL     1     140.052  69.995 225.093 -0.43 -0.00    +0.002 A  
DOCKED: ATOM     12  C   UNL     1     141.082  70.847 227.556 -0.65 -0.00    +0.023 A  
DOCKED: ATOM     13  C   UNL     1     140.165  69.088 226.158 -0.50 -0.01    +0.030 A  
DOCKED: ATOM     14  C   UNL     1     140.680  69.516 227.388 -0.57 -0.01    +0.041 A  
DOCKED: ATOM     15  Cl  UNL     1     140.822  68.383 228.719 -0.69 +0.02    -0.084 Cl 
DOCKED: ENDBRANCH   2   5
DOCKED: ENDBRANCH   1   2
DOCKED: BRANCH   1  16
DOCKED: ATOM     16  C   UNL     1     140.775  72.620 219.714 -0.04 -0.04    +0.246 C  
DOCKED: BRANCH  16  17
DOCKED: ATOM     17  C   UNL     1     142.059  72.027 220.232 -0.11 -0.03    +0.244 C  
DOCKED: ATOM     18  O   UNL     1     142.079  70.805 220.548 -0.06 +0.03    -0.273 OA 
DOCKED: BRANCH  17  19
DOCKED: ATOM     19  N   UNL     1     143.273  72.797 220.307 -0.11 +0.05    -0.335 N  
DOCKED: ATOM     20  C   UNL     1     143.312  74.223 220.031 -0.28 -0.04    +0.126 C  
DOCKED: ATOM     21  C   UNL     1     144.565  72.267 220.707 -0.22 -0.03    +0.196 C  
DOCKED: ATOM     22  C   UNL     1     144.700  74.686 220.454 -0.31 -0.04    +0.100 C  
DOCKED: ATOM     23  C   UNL     1     145.552  73.420 220.541 -0.42 -0.02    +0.267 C  
DOCKED: ATOM     24  F   UNL     1     146.272  73.259 219.369 -0.12 -0.12    -0.205 F  
DOCKED: ATOM     25  F   UNL     1     146.426  73.484 221.613 -0.28 +0.03    -0.205 F  
DOCKED: ENDBRANCH  17  19
DOCKED: ENDBRANCH  16  17
DOCKED: ENDBRANCH   1  16
DOCKED: TORSDOF 6
DOCKED: TER
DOCKED: ENDMDL
________________________________________________________________________________


    FINAL DOCKED STATE:
    ________________________


Run:   17 / 20
Time taken for this run:   0.038s

DOCKED: MODEL        17
DOCKED: USER    Run = 17
DOCKED: USER
DOCKED: USER    Estimated Free Energy of Binding    =  -6.63 kcal/mol  [=(1)+(2)+(3)-(4)]
DOCKED: USER
DOCKED: USER    (1) Final Intermolecular Energy     =  -8.42 kcal/mol
DOCKED: USER        vdW + Hbond + desolv Energy     =  -8.15 kcal/mol
DOCKED: USER        Electrostatic Energy            =  -0.27 kcal/mol
DOCKED: USER        Moving Ligand-Fixed Receptor    =  -8.42 kcal/mol
DOCKED: USER        Moving Ligand-Moving Receptor   =  +0.00 kcal/mol
DOCKED: USER    (2) Final Total Internal Energy     =  -0.61 kcal/mol
DOCKED: USER    (3) Torsional Free Energy           =  +1.79 kcal/mol
DOCKED: USER    (4) Unbound System's Energy         =  -0.61 kcal/mol
DOCKED: USER
DOCKED: USER
DOCKED: REMARK SMILES O=C(C/N=C(\O)c1ccc2cc(Cl)ccc2n1)N1CCC(F)(F)C1
DOCKED: REMARK SMILES IDX 4 1 5 2 6 3 7 5 17 6 8 7 16 8 9 9 15 10 10 11 14 12 11 13
DOCKED: REMARK SMILES IDX 12 14 13 15 3 16 2 17 1 18 18 19 19 20 24 21 20 22 21 23
DOCKED: REMARK SMILES IDX 22 24 23 25
DOCKED: REMARK H PARENT 6 4
DOCKED: USER                              x       y       z     vdW  Elec       q    Type
DOCKED: USER                           _______ _______ _______ _____ _____    ______ ____
DOCKED: ROOT
DOCKED: ATOM      1  N   UNL     1     140.703  72.735 220.900 -0.12 +0.04    -0.240 NA 
DOCKED: ENDROOT
DOCKED: BRANCH   1   2
DOCKED: ATOM      2  C   UNL     1     140.122  72.968 222.044 -0.21 -0.03    +0.233 C  
DOCKED: BRANCH   2   3
DOCKED: ATOM      3  O   UNL     1     139.521  74.200 222.324 -0.68 +0.08    -0.492 OA 
DOCKED: ATOM      4  H   UNL     1     138.870  74.342 223.085 -0.50 -0.16    +0.295 HD 
DOCKED: ENDBRANCH   2   3
DOCKED: BRANCH   2   5
DOCKED: ATOM      5  C   UNL     1     140.089  71.920 223.083 -0.30 -0.02    +0.125 A  
DOCKED: ATOM      6  N   UNL     1     140.581  72.203 224.321 -0.06 +0.03    -0.243 NA 
DOCKED: ATOM      7  C   UNL     1     139.563  70.641 222.825 -0.24 -0.01    +0.035 A  
DOCKED: ATOM      8  C   UNL     1     140.584  71.288 225.326 -0.51 -0.01    +0.071 A  
DOCKED: ATOM      9  C   UNL     1     139.552  69.681 223.839 -0.28 -0.00    +0.013 A  
DOCKED: ATOM     10  C   UNL     1     141.101  71.624 226.582 -0.70 -0.00    +0.030 A  
DOCKED: ATOM     11  C   UNL     1     140.064  69.995 225.102 -0.43 -0.00    +0.002 A  
DOCKED: ATOM     12  C   UNL     1     141.103  70.680 227.614 -0.61 -0.00    +0.023 A  
DOCKED: ATOM     13  C   UNL     1     140.068  69.052 226.142 -0.50 -0.01    +0.030 A  
DOCKED: ATOM     14  C   UNL     1     140.587  69.397 227.396 -0.57 -0.01    +0.041 A  
DOCKED: ATOM     15  Cl  UNL     1     140.593  68.219 228.695 -0.60 +0.02    -0.084 Cl 
DOCKED: ENDBRANCH   2   5
DOCKED: ENDBRANCH   1   2
DOCKED: BRANCH   1  16
DOCKED: ATOM     16  C   UNL     1     140.978  71.417 220.332 -0.08 -0.04    +0.246 C  
DOCKED: BRANCH  16  17
DOCKED: ATOM     17  C   UNL     1     142.460  71.198 220.170 -0.10 -0.03    +0.244 C  
DOCKED: ATOM     18  O   UNL     1     142.883  70.026 219.971 -0.09 +0.02    -0.273 OA 
DOCKED: BRANCH  17  19
DOCKED: ATOM     19  N   UNL     1     143.392  72.296 220.169 -0.10 +0.04    -0.335 N  
DOCKED: ATOM     20  C   UNL     1     143.100  73.568 219.531 -0.19 -0.03    +0.126 C  
DOCKED: ATOM     21  C   UNL     1     144.685  72.283 220.831 -0.18 -0.04    +0.196 C  
DOCKED: ATOM     22  C   UNL     1     144.216  74.510 219.963 -0.36 -0.04    +0.100 C  
DOCKED: ATOM     23  C   UNL     1     145.343  73.613 220.472 -0.40 -0.04    +0.267 C  
DOCKED: ATOM     24  F   UNL     1     146.279  73.422 219.469 -0.13 -0.09    -0.205 F  
DOCKED: ATOM     25  F   UNL     1     145.962  74.174 221.577 -0.20 +0.05    -0.205 F  
DOCKED: ENDBRANCH  17  19
DOCKED: ENDBRANCH  16  17
DOCKED: ENDBRANCH   1  16
DOCKED: TORSDOF 6
DOCKED: TER
DOCKED: ENDMDL
________________________________________________________________________________


    FINAL DOCKED STATE:
    ________________________


Run:   18 / 20
Time taken for this run:   0.038s

DOCKED: MODEL        18
DOCKED: USER    Run = 18
DOCKED: USER
DOCKED: USER    Estimated Free Energy of Binding    =  -6.33 kcal/mol  [=(1)+(2)+(3)-(4)]
DOCKED: USER
DOCKED: USER    (1) Final Intermolecular Energy     =  -8.12 kcal/mol
DOCKED: USER        vdW + Hbond + desolv Energy     =  -8.03 kcal/mol
DOCKED: USER        Electrostatic Energy            =  -0.08 kcal/mol
DOCKED: USER        Moving Ligand-Fixed Receptor    =  -8.12 kcal/mol
DOCKED: USER        Moving Ligand-Moving Receptor   =  +0.00 kcal/mol
DOCKED: USER    (2) Final Total Internal Energy     =  -1.37 kcal/mol
DOCKED: USER    (3) Torsional Free Energy           =  +1.79 kcal/mol
DOCKED: USER    (4) Unbound System's Energy         =  -1.37 kcal/mol
DOCKED: USER
DOCKED: USER
DOCKED: REMARK SMILES O=C(C/N=C(\O)c1ccc2cc(Cl)ccc2n1)N1CCC(F)(F)C1
DOCKED: REMARK SMILES IDX 4 1 5 2 6 3 7 5 17 6 8 7 16 8 9 9 15 10 10 11 14 12 11 13
DOCKED: REMARK SMILES IDX 12 14 13 15 3 16 2 17 1 18 18 19 19 20 24 21 20 22 21 23
DOCKED: REMARK SMILES IDX 22 24 23 25
DOCKED: REMARK H PARENT 6 4
DOCKED: USER                              x       y       z     vdW  Elec       q    Type
DOCKED: USER                           _______ _______ _______ _____ _____    ______ ____
DOCKED: ROOT
DOCKED: ATOM      1  N   UNL     1     140.097  74.132 222.027 -0.79 +0.02    -0.240 NA 
DOCKED: ENDROOT
DOCKED: BRANCH   1   2
DOCKED: ATOM      2  C   UNL     1     139.831  72.881 221.775 -0.19 -0.04    +0.233 C  
DOCKED: BRANCH   2   3
DOCKED: ATOM      3  O   UNL     1     139.498  72.447 220.488 -0.00 +0.09    -0.492 OA 
DOCKED: ATOM      4  H   UNL     1     139.855  72.878 219.645 +0.05 -0.06    +0.295 HD 
DOCKED: ENDBRANCH   2   3
DOCKED: BRANCH   2   5
DOCKED: ATOM      5  C   UNL     1     139.877  71.883 222.862 -0.28 -0.02    +0.125 A  
DOCKED: ATOM      6  N   UNL     1     140.397  72.245 224.067 -0.17 +0.03    -0.243 NA 
DOCKED: ATOM      7  C   UNL     1     139.398  70.573 222.682 -0.22 -0.01    +0.035 A  
DOCKED: ATOM      8  C   UNL     1     140.472  71.380 225.113 -0.48 -0.01    +0.071 A  
DOCKED: ATOM      9  C   UNL     1     139.460  69.662 223.739 -0.27 -0.00    +0.013 A  
DOCKED: ATOM     10  C   UNL     1     141.015  71.796 226.334 -0.66 -0.00    +0.030 A  
DOCKED: ATOM     11  C   UNL     1     139.999  70.057 224.968 -0.42 -0.00    +0.002 A  
DOCKED: ATOM     12  C   UNL     1     141.090  70.903 227.408 -0.65 -0.00    +0.023 A  
DOCKED: ATOM     13  C   UNL     1     140.078  69.166 226.049 -0.49 -0.01    +0.030 A  
DOCKED: ATOM     14  C   UNL     1     140.623  69.591 227.268 -0.56 -0.01    +0.041 A  
DOCKED: ATOM     15  Cl  UNL     1     140.721  68.478 228.619 -0.73 +0.02    -0.084 Cl 
DOCKED: ENDBRANCH   2   5
DOCKED: ENDBRANCH   1   2
DOCKED: BRANCH   1  16
DOCKED: ATOM     16  C   UNL     1     141.270  74.870 221.562 -0.15 -0.05    +0.246 C  
DOCKED: BRANCH  16  17
DOCKED: ATOM     17  C   UNL     1     141.880  74.208 220.354 -0.16 -0.06    +0.244 C  
DOCKED: ATOM     18  O   UNL     1     141.228  74.196 219.274 -0.04 +0.07    -0.273 OA 
DOCKED: BRANCH  17  19
DOCKED: ATOM     19  N   UNL     1     143.209  73.655 220.385 -0.14 +0.08    -0.335 N  
DOCKED: ATOM     20  C   UNL     1     143.463  72.226 220.315 -0.23 -0.02    +0.126 C  
DOCKED: ATOM     21  C   UNL     1     144.430  74.441 220.436 -0.33 -0.08    +0.196 C  
DOCKED: ATOM     22  C   UNL     1     144.968  72.084 220.131 -0.29 +0.00    +0.100 C  
DOCKED: ATOM     23  C   UNL     1     145.566  73.427 220.550 -0.43 -0.02    +0.267 C  
DOCKED: ATOM     24  F   UNL     1     146.005  73.355 221.862 -0.26 +0.05    -0.205 F  
DOCKED: ATOM     25  F   UNL     1     146.625  73.774 219.729 -0.14 -0.06    -0.205 F  
DOCKED: ENDBRANCH  17  19
DOCKED: ENDBRANCH  16  17
DOCKED: ENDBRANCH   1  16
DOCKED: TORSDOF 6
DOCKED: TER
DOCKED: ENDMDL
________________________________________________________________________________


    FINAL DOCKED STATE:
    ________________________


Run:   19 / 20
Time taken for this run:   0.038s

DOCKED: MODEL        19
DOCKED: USER    Run = 19
DOCKED: USER
DOCKED: USER    Estimated Free Energy of Binding    =  -5.99 kcal/mol  [=(1)+(2)+(3)-(4)]
DOCKED: USER
DOCKED: USER    (1) Final Intermolecular Energy     =  -7.78 kcal/mol
DOCKED: USER        vdW + Hbond + desolv Energy     =  -7.51 kcal/mol
DOCKED: USER        Electrostatic Energy            =  -0.27 kcal/mol
DOCKED: USER        Moving Ligand-Fixed Receptor    =  -7.78 kcal/mol
DOCKED: USER        Moving Ligand-Moving Receptor   =  +0.00 kcal/mol
DOCKED: USER    (2) Final Total Internal Energy     =  -0.80 kcal/mol
DOCKED: USER    (3) Torsional Free Energy           =  +1.79 kcal/mol
DOCKED: USER    (4) Unbound System's Energy         =  -0.80 kcal/mol
DOCKED: USER
DOCKED: USER
DOCKED: REMARK SMILES O=C(C/N=C(\O)c1ccc2cc(Cl)ccc2n1)N1CCC(F)(F)C1
DOCKED: REMARK SMILES IDX 4 1 5 2 6 3 7 5 17 6 8 7 16 8 9 9 15 10 10 11 14 12 11 13
DOCKED: REMARK SMILES IDX 12 14 13 15 3 16 2 17 1 18 18 19 19 20 24 21 20 22 21 23
DOCKED: REMARK SMILES IDX 22 24 23 25
DOCKED: REMARK H PARENT 6 4
DOCKED: USER                              x       y       z     vdW  Elec       q    Type
DOCKED: USER                           _______ _______ _______ _____ _____    ______ ____
DOCKED: ROOT
DOCKED: ATOM      1  N   UNL     1     140.525  72.593 220.725 -0.09 +0.04    -0.240 NA 
DOCKED: ENDROOT
DOCKED: BRANCH   1   2
DOCKED: ATOM      2  C   UNL     1     140.128  72.918 221.924 -0.21 -0.03    +0.233 C  
DOCKED: BRANCH   2   3
DOCKED: ATOM      3  O   UNL     1     139.717  74.219 222.233 -0.69 +0.05    -0.492 OA 
DOCKED: ATOM      4  H   UNL     1     139.247  74.464 223.094 -0.48 -0.09    +0.295 HD 
DOCKED: ENDBRANCH   2   3
DOCKED: BRANCH   2   5
DOCKED: ATOM      5  C   UNL     1     140.106  71.903 222.995 -0.30 -0.02    +0.125 A  
DOCKED: ATOM      6  N   UNL     1     140.578  72.236 224.229 -0.07 +0.03    -0.243 NA 
DOCKED: ATOM      7  C   UNL     1     139.612  70.605 222.773 -0.23 -0.01    +0.035 A  
DOCKED: ATOM      8  C   UNL     1     140.589  71.354 225.263 -0.50 -0.01    +0.071 A  
DOCKED: ATOM      9  C   UNL     1     139.610  69.677 223.817 -0.26 -0.00    +0.013 A  
DOCKED: ATOM     10  C   UNL     1     141.084  71.741 226.513 -0.70 -0.00    +0.030 A  
DOCKED: ATOM     11  C   UNL     1     140.100  70.042 225.075 -0.43 -0.00    +0.002 A  
DOCKED: ATOM     12  C   UNL     1     141.095  70.830 227.575 -0.64 -0.00    +0.023 A  
DOCKED: ATOM     13  C   UNL     1     140.114  69.133 226.144 -0.50 -0.01    +0.030 A  
DOCKED: ATOM     14  C   UNL     1     140.610  69.530 227.393 -0.57 -0.01    +0.041 A  
DOCKED: ATOM     15  Cl  UNL     1     140.627  68.394 228.729 -0.66 +0.02    -0.084 Cl 
DOCKED: ENDBRANCH   2   5
DOCKED: ENDBRANCH   1   2
DOCKED: BRANCH   1  16
DOCKED: ATOM     16  C   UNL     1     141.910  72.385 220.308 -0.11 -0.04    +0.246 C  
DOCKED: BRANCH  16  17
DOCKED: ATOM     17  C   UNL     1     142.201  70.919 220.116 -0.07 -0.03    +0.244 C  
DOCKED: ATOM     18  O   UNL     1     141.293  70.081 220.372 -0.06 +0.04    -0.273 OA 
DOCKED: BRANCH  17  19
DOCKED: ATOM     19  N   UNL     1     143.458  70.460 219.585 -0.07 +0.01    -0.335 N  
DOCKED: ATOM     20  C   UNL     1     143.800  69.051 219.490 -0.20 -0.00    +0.126 C  
DOCKED: ATOM     21  C   UNL     1     144.493  71.326 219.044 -0.15 +0.03    +0.196 C  
DOCKED: ATOM     22  C   UNL     1     145.079  68.992 218.666 -0.26 +0.01    +0.100 C  
DOCKED: ATOM     23  C   UNL     1     145.660  70.405 218.699 -0.17 +0.16    +0.267 C  
DOCKED: ATOM     24  F   UNL     1     146.633  70.488 219.681 -0.08 -0.20    -0.205 F  
DOCKED: ATOM     25  F   UNL     1     146.213  70.742 217.475 -0.00 -0.21    -0.205 F  
DOCKED: ENDBRANCH  17  19
DOCKED: ENDBRANCH  16  17
DOCKED: ENDBRANCH   1  16
DOCKED: TORSDOF 6
DOCKED: TER
DOCKED: ENDMDL
________________________________________________________________________________


    FINAL DOCKED STATE:
    ________________________


Run:   20 / 20
Time taken for this run:   0.038s

DOCKED: MODEL        20
DOCKED: USER    Run = 20
DOCKED: USER
DOCKED: USER    Estimated Free Energy of Binding    =  -6.30 kcal/mol  [=(1)+(2)+(3)-(4)]
DOCKED: USER
DOCKED: USER    (1) Final Intermolecular Energy     =  -8.08 kcal/mol
DOCKED: USER        vdW + Hbond + desolv Energy     =  -8.02 kcal/mol
DOCKED: USER        Electrostatic Energy            =  -0.06 kcal/mol
DOCKED: USER        Moving Ligand-Fixed Receptor    =  -8.08 kcal/mol
DOCKED: USER        Moving Ligand-Moving Receptor   =  +0.00 kcal/mol
DOCKED: USER    (2) Final Total Internal Energy     =  -1.13 kcal/mol
DOCKED: USER    (3) Torsional Free Energy           =  +1.79 kcal/mol
DOCKED: USER    (4) Unbound System's Energy         =  -1.13 kcal/mol
DOCKED: USER
DOCKED: USER
DOCKED: REMARK SMILES O=C(C/N=C(\O)c1ccc2cc(Cl)ccc2n1)N1CCC(F)(F)C1
DOCKED: REMARK SMILES IDX 4 1 5 2 6 3 7 5 17 6 8 7 16 8 9 9 15 10 10 11 14 12 11 13
DOCKED: REMARK SMILES IDX 12 14 13 15 3 16 2 17 1 18 18 19 19 20 24 21 20 22 21 23
DOCKED: REMARK SMILES IDX 22 24 23 25
DOCKED: REMARK H PARENT 6 4
DOCKED: USER                              x       y       z     vdW  Elec       q    Type
DOCKED: USER                           _______ _______ _______ _____ _____    ______ ____
DOCKED: ROOT
DOCKED: ATOM      1  N   UNL     1     140.637  73.862 222.023 -0.73 +0.00    -0.240 NA 
DOCKED: ENDROOT
DOCKED: BRANCH   1   2
DOCKED: ATOM      2  C   UNL     1     139.725  72.931 222.066 -0.19 -0.04    +0.233 C  
DOCKED: BRANCH   2   3
DOCKED: ATOM      3  O   UNL     1     138.670  72.894 221.148 -0.03 +0.10    -0.492 OA 
DOCKED: ATOM      4  H   UNL     1     137.967  73.618 221.078 +0.06 -0.07    +0.295 HD 
DOCKED: ENDBRANCH   2   3
DOCKED: BRANCH   2   5
DOCKED: ATOM      5  C   UNL     1     139.788  71.883 223.103 -0.29 -0.02    +0.125 A  
DOCKED: ATOM      6  N   UNL     1     140.324  72.189 224.318 -0.11 +0.04    -0.243 NA 
DOCKED: ATOM      7  C   UNL     1     139.312  70.581 222.868 -0.24 -0.01    +0.035 A  
DOCKED: ATOM      8  C   UNL     1     140.416  71.275 225.320 -0.50 -0.01    +0.071 A  
DOCKED: ATOM      9  C   UNL     1     139.392  69.621 223.879 -0.28 -0.00    +0.013 A  
DOCKED: ATOM     10  C   UNL     1     140.975  71.635 226.552 -0.69 -0.00    +0.030 A  
DOCKED: ATOM     11  C   UNL     1     139.946  69.959 225.118 -0.43 -0.00    +0.002 A  
DOCKED: ATOM     12  C   UNL     1     141.068  70.693 227.581 -0.63 -0.00    +0.023 A  
DOCKED: ATOM     13  C   UNL     1     140.043  69.018 226.155 -0.50 -0.01    +0.030 A  
DOCKED: ATOM     14  C   UNL     1     140.603  69.387 227.385 -0.57 -0.01    +0.041 A  
DOCKED: ATOM     15  Cl  UNL     1     140.724  68.211 228.680 -0.66 +0.02    -0.084 Cl 
DOCKED: ENDBRANCH   2   5
DOCKED: ENDBRANCH   1   2
DOCKED: BRANCH   1  16
DOCKED: ATOM     16  C   UNL     1     140.534  75.130 221.304 -0.22 -0.05    +0.246 C  
DOCKED: BRANCH  16  17
DOCKED: ATOM     17  C   UNL     1     139.459  76.002 221.899 -0.23 -0.05    +0.244 C  
DOCKED: ATOM     18  O   UNL     1     138.298  75.526 222.038 -0.19 +0.07    -0.273 OA 
DOCKED: BRANCH  17  19
DOCKED: ATOM     19  N   UNL     1     139.740  77.332 222.375 -0.17 +0.08    -0.335 N  
DOCKED: ATOM     20  C   UNL     1     141.075  77.761 222.754 -0.38 -0.05    +0.126 C  
DOCKED: ATOM     21  C   UNL     1     138.755  78.396 222.483 -0.20 -0.04    +0.196 C  
DOCKED: ATOM     22  C   UNL     1     140.980  79.268 222.956 -0.44 -0.03    +0.100 C  
DOCKED: ATOM     23  C   UNL     1     139.491  79.573 223.118 -0.24 -0.04    +0.267 C  
DOCKED: ATOM     24  F   UNL     1     139.174  79.657 224.463 -0.11 +0.02    -0.205 F  
DOCKED: ATOM     25  F   UNL     1     139.159  80.762 222.491 -0.05 +0.03    -0.205 F  
DOCKED: ENDBRANCH  17  19
DOCKED: ENDBRANCH  16  17
DOCKED: ENDBRANCH   1  16
DOCKED: TORSDOF 6
DOCKED: TER
DOCKED: ENDMDL
________________________________________________________________________________


    CLUSTERING HISTOGRAM
    ____________________


________________________________________________________________________________
     |           |     |           |     |
Clus | Lowest    | Run | Mean      | Num | Histogram
-ter | Binding   |     | Binding   | in  |
Rank | Energy    |     | Energy    | Clus|    5    10   15   20   25   30   35
_____|___________|_____|___________|_____|____:____|____:____|____:____|____:___
   1 |     -6.98 |   1 |     -6.62 |  15 |###############
   2 |     -6.80 |  15 |     -6.42 |   4 |####
   3 |     -5.82 |   5 |     -5.82 |   1 |#
_____|___________|_____|___________|_____|______________________________________


    RMSD TABLE
    __________


_______________________________________________________________________
     |      |      |           |         |                 |
Rank | Sub- | Run  | Binding   | Cluster | Reference       | Grep
     | Rank |      | Energy    | RMSD    | RMSD            | Pattern
_____|______|______|___________|_________|_________________|___________
   1      1      1       -6.98      0.00    271.97           RANKING
   1      2     13       -6.96      0.06    271.95           RANKING
   1      3     10       -6.96      0.07    271.99           RANKING
   1      4      4       -6.90      0.23    271.93           RANKING
   1      5      2       -6.83      1.02    271.82           RANKING
   1      6      8       -6.81      0.42    271.98           RANKING
   1      7     16       -6.79      1.04    271.81           RANKING
   1      8      7       -6.78      1.04    271.81           RANKING
   1      9      9       -6.66      1.03    271.68           RANKING
   1     10     17       -6.63      1.31    271.79           RANKING
   1     11     14       -6.60      1.08    271.70           RANKING
   1     12      3       -6.37      0.95    271.70           RANKING
   1     13     18       -6.33      1.18    271.72           RANKING
   1     14     19       -5.99      1.94    271.29           RANKING
   1     15     12       -5.73      1.46    271.30           RANKING
   2      1     15       -6.80      0.00    272.33           RANKING
   2      2      6       -6.43      1.58    272.09           RANKING
   2      3     20       -6.30      1.33    272.08           RANKING
   2      4     11       -6.16      1.04    272.09           RANKING
   3      1      5       -5.82      0.00    271.38           RANKING

Run time 0.741 sec
Idle time 0.000 sec
