AutoDock-GPU version: v1.6

**********************************************************
**    AutoDock-GPU AUTODOCKTOOLS-COMPATIBLE DLG FILE    **
**********************************************************


    DOCKING PARAMETERS
    ________________________


Ligand file:                               /home/a/REINVENT4/ReinventStudies/pleaseWork/justmol2mol_4_Compounds_ontop/graph-dock-8u2o5u/graph-DockGPU/node-autodockgpu/inputs/DVVQVLOZXNJNBH-LEOJGAOONA-M.pdbqt
Grid fld file:                             /home/a/REINVENT4/ReinventStudies/mols/Rad51/maps/rad51_receptor.maps.fld

Random seed:                               42
Number of runs:                            20
Number of energy evaluations:              3119281
Number of generations:                     42000
Size of population:                        150
Rate of crossover:                         80.000000%
Tournament selection probability limit:    60.000000%
Rate of mutation:                          2.000000%
Maximal allowed delta movement:            +/- 6.000000A
Maximal allowed delta angle:               +/- 90.000000

Rate of local search:                      100.000000%
Maximal number of local search iterations: 300
Rho lower bound:                           0.010000
Spread of local search delta movement:     2.000000A
Spread of local search delta angle:        74.999999
Limit of consecutive successes/failures:   4

Handle symmetry during clustering:         YES
RMSD tolerance:                            2.000000A

Program call in command line was:          /home/a/REINVENT4/ReinventStudies/adgpu-v1.6_linux_x64_cuda12_128wi --filelist batch.txt --heuristics 1 --nrun 20 --psize 150 --lsit 300 --seed 42 --heurmax 12000000 


    GRID PARAMETERS
    ________________________


Receptor name:                             rad51_receptor
Number of grid points (x, y, z):           53, 53, 53
Grid center (x, y, z):                     139.950000, 75.640000, 221.970000A
Grid size (x, y, z):                       19.500000, 19.500000, 19.500000A
Grid spacing:                              0.375000A


    LIGAND PARAMETERS
    ________________________


Ligand name:                               /home/a/REINVENT4/ReinventStudies/pleaseWork/justmol2mol_4_Compounds_ontop/graph-dock-8u2o5u/graph-DockGPU/node-autodockgpu/inputs/DVVQVLOZXNJNBH-LEOJGAOONA-M
Number of atoms:                           34
Number of rotatable bonds:                 11
Number of atom types:                      7


    DUMMY DATA (only for ADT-compatibility)
    ________________________


DPF> outlev 1
DPF> ga_run 20
DPF> fld /home/a/REINVENT4/ReinventStudies/mols/Rad51/maps/rad51_receptor.maps.fld
DPF> move /home/a/REINVENT4/ReinventStudies/pleaseWork/justmol2mol_4_Compounds_ontop/graph-dock-8u2o5u/graph-DockGPU/node-autodockgpu/inputs/DVVQVLOZXNJNBH-LEOJGAOONA-M.pdbqt


    COUNTER STATES
    ________________________


Number of energy evaluations performed:    1364456
Number of generations used:                80


    INPUT LIGAND PDBQT FILE:
    ________________________


INPUT-LIGAND-PDBQT: REMARK SMILES O=C([N-]/C=C(\O)N1C[C@H](O)C[C@H]1COCc1ccccc1)c1ccc2cc(Cl)ccc2n1
INPUT-LIGAND-PDBQT: REMARK SMILES IDX 5 1 6 2 4 4 3 5 2 6 1 7 22 8 32 9 23 10 31 11 24 12 30 13
INPUT-LIGAND-PDBQT: REMARK SMILES IDX 25 14 29 15 26 16 27 17 28 18 7 19 8 20 12 21 9 22 11 23
INPUT-LIGAND-PDBQT: REMARK SMILES IDX 13 24 14 25 15 26 16 27 17 28 21 29 18 30 20 31 19 32 10 33
INPUT-LIGAND-PDBQT: REMARK H PARENT 6 3 10 34
INPUT-LIGAND-PDBQT: ROOT
INPUT-LIGAND-PDBQT: ATOM      1  C   UNL     1       0.082  -1.180   0.337  1.00  0.00     0.164 C 
INPUT-LIGAND-PDBQT: ENDROOT
INPUT-LIGAND-PDBQT: BRANCH   1   2
INPUT-LIGAND-PDBQT: ATOM      2  O   UNL     1       0.808  -1.612  -0.777  1.00  0.00    -0.496 OA
INPUT-LIGAND-PDBQT: ATOM      3  H   UNL     1       0.839  -2.576  -1.081  1.00  0.00     0.295 HD
INPUT-LIGAND-PDBQT: ENDBRANCH   1   2
INPUT-LIGAND-PDBQT: BRANCH   1   4
INPUT-LIGAND-PDBQT: ATOM      4  C   UNL     1      -0.774  -2.008   0.966  1.00  0.00    -0.069 C 
INPUT-LIGAND-PDBQT: BRANCH   4   5
INPUT-LIGAND-PDBQT: ATOM      5  N   UNL     1      -1.114  -3.307   0.466  1.00  0.00    -0.623 NA
INPUT-LIGAND-PDBQT: BRANCH   5   6
INPUT-LIGAND-PDBQT: ATOM      6  C   UNL     1      -1.561  -3.618  -0.863  1.00  0.00     0.104 C 
INPUT-LIGAND-PDBQT: ATOM      7  O   UNL     1      -1.525  -4.820  -1.238  1.00  0.00    -0.313 OA
INPUT-LIGAND-PDBQT: BRANCH   6   8
INPUT-LIGAND-PDBQT: ATOM      8  C   UNL     1      -2.083  -2.582  -1.788  1.00  0.00     0.089 A 
INPUT-LIGAND-PDBQT: ATOM      9  N   UNL     1      -2.422  -1.351  -1.314  1.00  0.00    -0.246 NA
INPUT-LIGAND-PDBQT: ATOM     10  C   UNL     1      -2.238  -2.855  -3.158  1.00  0.00     0.031 A 
INPUT-LIGAND-PDBQT: ATOM     11  C   UNL     1      -2.884  -0.361  -2.121  1.00  0.00     0.071 A 
INPUT-LIGAND-PDBQT: ATOM     12  C   UNL     1      -2.719  -1.860  -4.014  1.00  0.00     0.013 A 
INPUT-LIGAND-PDBQT: ATOM     13  C   UNL     1      -3.191   0.895  -1.587  1.00  0.00     0.030 A 
INPUT-LIGAND-PDBQT: ATOM     14  C   UNL     1      -3.044  -0.598  -3.502  1.00  0.00     0.002 A 
INPUT-LIGAND-PDBQT: ATOM     15  C   UNL     1      -3.660   1.914  -2.422  1.00  0.00     0.023 A 
INPUT-LIGAND-PDBQT: ATOM     16  C   UNL     1      -3.518   0.427  -4.334  1.00  0.00     0.030 A 
INPUT-LIGAND-PDBQT: ATOM     17  C   UNL     1      -3.824   1.682  -3.793  1.00  0.00     0.041 A 
INPUT-LIGAND-PDBQT: ATOM     18  Cl  UNL     1      -4.416   2.964  -4.833  1.00  0.00    -0.084 Cl
INPUT-LIGAND-PDBQT: ENDBRANCH   6   8
INPUT-LIGAND-PDBQT: ENDBRANCH   5   6
INPUT-LIGAND-PDBQT: ENDBRANCH   4   5
INPUT-LIGAND-PDBQT: ENDBRANCH   1   4
INPUT-LIGAND-PDBQT: BRANCH   1  19
INPUT-LIGAND-PDBQT: ATOM     19  N   UNL     1       0.278   0.174   0.799  1.00  0.00    -0.337 N 
INPUT-LIGAND-PDBQT: ATOM     20  C   UNL     1      -0.538   0.822   1.818  1.00  0.00     0.151 C 
INPUT-LIGAND-PDBQT: ATOM     21  C   UNL     1       1.196   1.100   0.143  1.00  0.00     0.113 C 
INPUT-LIGAND-PDBQT: ATOM     22  C   UNL     1      -0.047   2.269   1.888  1.00  0.00     0.136 C 
INPUT-LIGAND-PDBQT: ATOM     23  C   UNL     1       0.784   2.497   0.620  1.00  0.00     0.061 C 
INPUT-LIGAND-PDBQT: BRANCH  21  24
INPUT-LIGAND-PDBQT: ATOM     24  C   UNL     1       2.649   0.762   0.511  1.00  0.00     0.185 C 
INPUT-LIGAND-PDBQT: BRANCH  24  25
INPUT-LIGAND-PDBQT: ATOM     25  O   UNL     1       2.812   0.803   1.918  1.00  0.00    -0.375 OA
INPUT-LIGAND-PDBQT: BRANCH  25  26
INPUT-LIGAND-PDBQT: ATOM     26  C   UNL     1       3.684  -0.216   2.363  1.00  0.00     0.195 C 
INPUT-LIGAND-PDBQT: BRANCH  26  27
INPUT-LIGAND-PDBQT: ATOM     27  C   UNL     1       2.924  -1.501   2.561  1.00  0.00    -0.022 A 
INPUT-LIGAND-PDBQT: ATOM     28  C   UNL     1       1.951  -1.591   3.570  1.00  0.00     0.006 A 
INPUT-LIGAND-PDBQT: ATOM     29  C   UNL     1       3.148  -2.603   1.719  1.00  0.00     0.006 A 
INPUT-LIGAND-PDBQT: ATOM     30  C   UNL     1       1.223  -2.772   3.743  1.00  0.00     0.000 A 
INPUT-LIGAND-PDBQT: ATOM     31  C   UNL     1       2.415  -3.782   1.894  1.00  0.00     0.000 A 
INPUT-LIGAND-PDBQT: ATOM     32  C   UNL     1       1.456  -3.867   2.906  1.00  0.00     0.000 A 
INPUT-LIGAND-PDBQT: ENDBRANCH  26  27
INPUT-LIGAND-PDBQT: ENDBRANCH  25  26
INPUT-LIGAND-PDBQT: ENDBRANCH  24  25
INPUT-LIGAND-PDBQT: ENDBRANCH  21  24
INPUT-LIGAND-PDBQT: BRANCH  22  33
INPUT-LIGAND-PDBQT: ATOM     33  O   UNL     1      -1.107   3.186   2.002  1.00  0.00    -0.391 OA
INPUT-LIGAND-PDBQT: ATOM     34  H   UNL     1      -1.693   3.079   1.207  1.00  0.00     0.211 HD
INPUT-LIGAND-PDBQT: ENDBRANCH  22  33
INPUT-LIGAND-PDBQT: ENDBRANCH   1  19
INPUT-LIGAND-PDBQT: TORSDOF 11


    FINAL DOCKED STATE:
    ________________________


Run:   1 / 20
Time taken for this run:   0.070s

DOCKED: MODEL        1
DOCKED: USER    Run = 1
DOCKED: USER
DOCKED: USER    Estimated Free Energy of Binding    =  -8.16 kcal/mol  [=(1)+(2)+(3)-(4)]
DOCKED: USER
DOCKED: USER    (1) Final Intermolecular Energy     = -11.44 kcal/mol
DOCKED: USER        vdW + Hbond + desolv Energy     = -11.52 kcal/mol
DOCKED: USER        Electrostatic Energy            =  +0.08 kcal/mol
DOCKED: USER        Moving Ligand-Fixed Receptor    = -11.44 kcal/mol
DOCKED: USER        Moving Ligand-Moving Receptor   =  +0.00 kcal/mol
DOCKED: USER    (2) Final Total Internal Energy     =  -2.33 kcal/mol
DOCKED: USER    (3) Torsional Free Energy           =  +3.28 kcal/mol
DOCKED: USER    (4) Unbound System's Energy         =  -2.33 kcal/mol
DOCKED: USER
DOCKED: USER
DOCKED: REMARK SMILES O=C([N-]/C=C(\O)N1C[C@H](O)C[C@H]1COCc1ccccc1)c1ccc2cc(Cl)ccc2n1
DOCKED: REMARK SMILES IDX 5 1 6 2 4 4 3 5 2 6 1 7 22 8 32 9 23 10 31 11 24 12 30 13
DOCKED: REMARK SMILES IDX 25 14 29 15 26 16 27 17 28 18 7 19 8 20 12 21 9 22 11 23
DOCKED: REMARK SMILES IDX 13 24 14 25 15 26 16 27 17 28 21 29 18 30 20 31 19 32 10 33
DOCKED: REMARK H PARENT 6 3 10 34
DOCKED: USER                              x       y       z     vdW  Elec       q    Type
DOCKED: USER                           _______ _______ _______ _____ _____    ______ ____
DOCKED: ROOT
DOCKED: ATOM      1  C   UNL     1     140.716  73.425 220.932 -0.18 -0.03    +0.164 C  
DOCKED: ENDROOT
DOCKED: BRANCH   1   2
DOCKED: ATOM      2  O   UNL     1     140.428  73.775 222.255 -0.70 -0.01    -0.496 OA 
DOCKED: ATOM      3  H   UNL     1     139.651  73.391 222.775 -0.18 -0.05    +0.295 HD 
DOCKED: ENDBRANCH   1   2
DOCKED: BRANCH   1   4
DOCKED: ATOM      4  C   UNL     1     139.889  72.622 220.236 -0.09 +0.01    -0.069 C  
DOCKED: BRANCH   4   5
DOCKED: ATOM      5  N   UNL     1     138.923  71.767 220.859 +0.03 +0.12    -0.623 NA 
DOCKED: BRANCH   5   6
DOCKED: ATOM      6  C   UNL     1     138.394  71.905 222.187 -0.16 -0.03    +0.104 C  
DOCKED: ATOM      7  O   UNL     1     137.534  72.801 222.395 -0.10 +0.10    -0.313 OA 
DOCKED: BRANCH   6   8
DOCKED: ATOM      8  C   UNL     1     138.804  71.016 223.302 -0.24 -0.02    +0.089 A  
DOCKED: ATOM      9  N   UNL     1     139.552  71.509 224.328 -0.24 +0.06    -0.246 NA 
DOCKED: ATOM     10  C   UNL     1     138.434  69.661 223.313 -0.23 -0.01    +0.031 A  
DOCKED: ATOM     11  C   UNL     1     139.936  70.744 225.383 -0.46 -0.01    +0.071 A  
DOCKED: ATOM     12  C   UNL     1     138.820  68.844 224.380 -0.35 -0.00    +0.013 A  
DOCKED: ATOM     13  C   UNL     1     140.679  71.307 226.425 -0.64 -0.00    +0.030 A  
DOCKED: ATOM     14  C   UNL     1     139.574  69.382 225.430 -0.43 -0.00    +0.002 A  
DOCKED: ATOM     15  C   UNL     1     141.067  70.518 227.513 -0.61 -0.00    +0.023 A  
DOCKED: ATOM     16  C   UNL     1     139.969  68.595 226.522 -0.57 -0.01    +0.030 A  
DOCKED: ATOM     17  C   UNL     1     140.714  69.164 227.563 -0.59 -0.01    +0.041 A  
DOCKED: ATOM     18  Cl  UNL     1     141.207  68.181 228.928 -0.54 +0.02    -0.084 Cl 
DOCKED: ENDBRANCH   6   8
DOCKED: ENDBRANCH   5   6
DOCKED: ENDBRANCH   4   5
DOCKED: ENDBRANCH   1   4
DOCKED: BRANCH   1  19
DOCKED: ATOM     19  N   UNL     1     141.919  73.951 220.331 -0.09 +0.08    -0.337 N  
DOCKED: ATOM     20  C   UNL     1     142.958  73.133 219.717 -0.17 -0.03    +0.151 C  
DOCKED: ATOM     21  C   UNL     1     142.309  75.352 220.456 -0.23 -0.05    +0.113 C  
DOCKED: ATOM     22  C   UNL     1     144.079  74.100 219.335 -0.26 -0.04    +0.136 C  
DOCKED: ATOM     23  C   UNL     1     143.799  75.399 220.100 -0.29 -0.04    +0.061 C  
DOCKED: BRANCH  21  24
DOCKED: ATOM     24  C   UNL     1     141.458  76.229 219.525 -0.14 -0.08    +0.185 C  
DOCKED: BRANCH  24  25
DOCKED: ATOM     25  O   UNL     1     141.924  77.566 219.563 -0.13 +0.22    -0.375 OA 
DOCKED: BRANCH  25  26
DOCKED: ATOM     26  C   UNL     1     140.952  78.433 220.112 -0.15 -0.09    +0.195 C  
DOCKED: BRANCH  26  27
DOCKED: ATOM     27  C   UNL     1     141.437  78.994 221.422 -0.36 +0.01    -0.022 A  
DOCKED: ATOM     28  C   UNL     1     141.288  78.248 222.603 -0.48 -0.00    +0.006 A  
DOCKED: ATOM     29  C   UNL     1     142.077  80.244 221.473 -0.43 -0.00    +0.006 A  
DOCKED: ATOM     30  C   UNL     1     141.759  78.752 223.819 -0.62 -0.00    +0.000 A  
DOCKED: ATOM     31  C   UNL     1     142.550  80.743 222.692 -0.58 -0.00    +0.000 A  
DOCKED: ATOM     32  C   UNL     1     142.389  79.999 223.863 -0.63 -0.00    +0.000 A  
DOCKED: ENDBRANCH  26  27
DOCKED: ENDBRANCH  25  26
DOCKED: ENDBRANCH  24  25
DOCKED: ENDBRANCH  21  24
DOCKED: BRANCH  22  33
DOCKED: ATOM     33  O   UNL     1     145.353  73.578 219.620 -0.26 +0.02    -0.391 OA 
DOCKED: ATOM     34  H   UNL     1     146.031  74.233 219.306 -0.43 -0.06    +0.211 HD 
DOCKED: ENDBRANCH  22  33
DOCKED: ENDBRANCH   1  19
DOCKED: TORSDOF 11
DOCKED: TER
DOCKED: ENDMDL
________________________________________________________________________________


    FINAL DOCKED STATE:
    ________________________


Run:   2 / 20
Time taken for this run:   0.070s

DOCKED: MODEL        2
DOCKED: USER    Run = 2
DOCKED: USER
DOCKED: USER    Estimated Free Energy of Binding    =  -7.78 kcal/mol  [=(1)+(2)+(3)-(4)]
DOCKED: USER
DOCKED: USER    (1) Final Intermolecular Energy     = -11.07 kcal/mol
DOCKED: USER        vdW + Hbond + desolv Energy     = -11.02 kcal/mol
DOCKED: USER        Electrostatic Energy            =  -0.04 kcal/mol
DOCKED: USER        Moving Ligand-Fixed Receptor    = -11.07 kcal/mol
DOCKED: USER        Moving Ligand-Moving Receptor   =  +0.00 kcal/mol
DOCKED: USER    (2) Final Total Internal Energy     =  -2.82 kcal/mol
DOCKED: USER    (3) Torsional Free Energy           =  +3.28 kcal/mol
DOCKED: USER    (4) Unbound System's Energy         =  -2.82 kcal/mol
DOCKED: USER
DOCKED: USER
DOCKED: REMARK SMILES O=C([N-]/C=C(\O)N1C[C@H](O)C[C@H]1COCc1ccccc1)c1ccc2cc(Cl)ccc2n1
DOCKED: REMARK SMILES IDX 5 1 6 2 4 4 3 5 2 6 1 7 22 8 32 9 23 10 31 11 24 12 30 13
DOCKED: REMARK SMILES IDX 25 14 29 15 26 16 27 17 28 18 7 19 8 20 12 21 9 22 11 23
DOCKED: REMARK SMILES IDX 13 24 14 25 15 26 16 27 17 28 21 29 18 30 20 31 19 32 10 33
DOCKED: REMARK H PARENT 6 3 10 34
DOCKED: USER                              x       y       z     vdW  Elec       q    Type
DOCKED: USER                           _______ _______ _______ _____ _____    ______ ____
DOCKED: ROOT
DOCKED: ATOM      1  C   UNL     1     135.873  69.767 223.062 -0.09 -0.02    +0.164 C  
DOCKED: ENDROOT
DOCKED: BRANCH   1   2
DOCKED: ATOM      2  O   UNL     1     134.904  70.678 222.632 +0.01 +0.07    -0.496 OA 
DOCKED: ATOM      3  H   UNL     1     134.015  70.805 223.098 +0.04 -0.04    +0.295 HD 
DOCKED: ENDBRANCH   1   2
DOCKED: BRANCH   1   4
DOCKED: ATOM      4  C   UNL     1     135.533  68.513 223.417 -0.04 +0.00    -0.069 C  
DOCKED: BRANCH   4   5
DOCKED: ATOM      5  N   UNL     1     134.350  68.208 224.166 -0.54 +0.02    -0.623 NA 
DOCKED: BRANCH   5   6
DOCKED: ATOM      6  C   UNL     1     134.019  68.703 225.473 -0.25 -0.01    +0.104 C  
DOCKED: ATOM      7  O   UNL     1     133.973  67.882 226.428 -0.73 +0.02    -0.313 OA 
DOCKED: BRANCH   6   8
DOCKED: ATOM      8  C   UNL     1     133.757  70.140 225.735 -0.23 -0.01    +0.089 A  
DOCKED: ATOM      9  N   UNL     1     134.561  71.092 225.185 -0.11 +0.02    -0.246 NA 
DOCKED: ATOM     10  C   UNL     1     132.685  70.537 226.552 -0.23 -0.00    +0.031 A  
DOCKED: ATOM     11  C   UNL     1     134.352  72.420 225.376 -0.24 -0.00    +0.071 A  
DOCKED: ATOM     12  C   UNL     1     132.448  71.896 226.775 -0.36 -0.00    +0.013 A  
DOCKED: ATOM     13  C   UNL     1     135.192  73.358 224.765 -0.21 -0.00    +0.030 A  
DOCKED: ATOM     14  C   UNL     1     133.281  72.854 226.183 -0.34 -0.00    +0.002 A  
DOCKED: ATOM     15  C   UNL     1     134.970  74.725 224.958 -0.35 -0.00    +0.023 A  
DOCKED: ATOM     16  C   UNL     1     133.065  74.227 226.376 -0.33 +0.00    +0.030 A  
DOCKED: ATOM     17  C   UNL     1     133.909  75.160 225.762 -0.34 -0.00    +0.041 A  
DOCKED: ATOM     18  Cl  UNL     1     133.640  76.877 226.002 -0.30 +0.01    -0.084 Cl 
DOCKED: ENDBRANCH   6   8
DOCKED: ENDBRANCH   5   6
DOCKED: ENDBRANCH   4   5
DOCKED: ENDBRANCH   1   4
DOCKED: BRANCH   1  19
DOCKED: ATOM     19  N   UNL     1     137.249  70.202 223.109 -0.06 +0.05    -0.337 N  
DOCKED: ATOM     20  C   UNL     1     137.678  71.533 223.520 -0.13 -0.04    +0.151 C  
DOCKED: ATOM     21  C   UNL     1     138.342  69.408 222.555 -0.16 -0.02    +0.113 C  
DOCKED: ATOM     22  C   UNL     1     139.190  71.573 223.294 -0.23 -0.03    +0.136 C  
DOCKED: ATOM     23  C   UNL     1     139.516  70.379 222.391 -0.18 -0.01    +0.061 C  
DOCKED: BRANCH  21  24
DOCKED: ATOM     24  C   UNL     1     138.678  68.237 223.490 -0.20 -0.02    +0.185 C  
DOCKED: BRANCH  24  25
DOCKED: ATOM     25  O   UNL     1     138.396  68.595 224.832 -0.35 +0.01    -0.375 OA 
DOCKED: BRANCH  25  26
DOCKED: ATOM     26  C   UNL     1     139.478  68.283 225.685 -0.40 -0.02    +0.195 C  
DOCKED: BRANCH  26  27
DOCKED: ATOM     27  C   UNL     1     139.996  69.532 226.347 -0.50 +0.00    -0.022 A  
DOCKED: ATOM     28  C   UNL     1     139.593  69.850 227.655 -0.57 -0.00    +0.006 A  
DOCKED: ATOM     29  C   UNL     1     140.912  70.367 225.686 -0.54 -0.00    +0.006 A  
DOCKED: ATOM     30  C   UNL     1     140.089  70.995 228.286 -0.65 -0.00    +0.000 A  
DOCKED: ATOM     31  C   UNL     1     141.408  71.510 226.323 -0.67 -0.00    +0.000 A  
DOCKED: ATOM     32  C   UNL     1     140.995  71.825 227.619 -0.83 -0.00    +0.000 A  
DOCKED: ENDBRANCH  26  27
DOCKED: ENDBRANCH  25  26
DOCKED: ENDBRANCH  24  25
DOCKED: ENDBRANCH  21  24
DOCKED: BRANCH  22  33
DOCKED: ATOM     33  O   UNL     1     139.613  72.793 222.737 -0.45 +0.08    -0.391 OA 
DOCKED: ATOM     34  H   UNL     1     138.939  73.486 222.967 -0.49 -0.11    +0.211 HD 
DOCKED: ENDBRANCH  22  33
DOCKED: ENDBRANCH   1  19
DOCKED: TORSDOF 11
DOCKED: TER
DOCKED: ENDMDL
________________________________________________________________________________


    FINAL DOCKED STATE:
    ________________________


Run:   3 / 20
Time taken for this run:   0.070s

DOCKED: MODEL        3
DOCKED: USER    Run = 3
DOCKED: USER
DOCKED: USER    Estimated Free Energy of Binding    =  -7.57 kcal/mol  [=(1)+(2)+(3)-(4)]
DOCKED: USER
DOCKED: USER    (1) Final Intermolecular Energy     = -10.86 kcal/mol
DOCKED: USER        vdW + Hbond + desolv Energy     = -10.70 kcal/mol
DOCKED: USER        Electrostatic Energy            =  -0.16 kcal/mol
DOCKED: USER        Moving Ligand-Fixed Receptor    = -10.86 kcal/mol
DOCKED: USER        Moving Ligand-Moving Receptor   =  +0.00 kcal/mol
DOCKED: USER    (2) Final Total Internal Energy     =  -2.43 kcal/mol
DOCKED: USER    (3) Torsional Free Energy           =  +3.28 kcal/mol
DOCKED: USER    (4) Unbound System's Energy         =  -2.43 kcal/mol
DOCKED: USER
DOCKED: USER
DOCKED: REMARK SMILES O=C([N-]/C=C(\O)N1C[C@H](O)C[C@H]1COCc1ccccc1)c1ccc2cc(Cl)ccc2n1
DOCKED: REMARK SMILES IDX 5 1 6 2 4 4 3 5 2 6 1 7 22 8 32 9 23 10 31 11 24 12 30 13
DOCKED: REMARK SMILES IDX 25 14 29 15 26 16 27 17 28 18 7 19 8 20 12 21 9 22 11 23
DOCKED: REMARK SMILES IDX 13 24 14 25 15 26 16 27 17 28 21 29 18 30 20 31 19 32 10 33
DOCKED: REMARK H PARENT 6 3 10 34
DOCKED: USER                              x       y       z     vdW  Elec       q    Type
DOCKED: USER                           _______ _______ _______ _____ _____    ______ ____
DOCKED: ROOT
DOCKED: ATOM      1  C   UNL     1     141.573  72.468 220.094 -0.11 -0.03    +0.164 C  
DOCKED: ENDROOT
DOCKED: BRANCH   1   2
DOCKED: ATOM      2  O   UNL     1     141.358  71.276 220.792 -0.04 +0.06    -0.496 OA 
DOCKED: ATOM      3  H   UNL     1     141.011  71.242 221.741 +0.10 -0.03    +0.295 HD 
DOCKED: ENDBRANCH   1   2
DOCKED: BRANCH   1   4
DOCKED: ATOM      4  C   UNL     1     140.542  73.146 219.552 -0.07 +0.01    -0.069 C  
DOCKED: BRANCH   4   5
DOCKED: ATOM      5  N   UNL     1     139.645  73.953 220.324 +0.03 +0.13    -0.623 NA 
DOCKED: BRANCH   5   6
DOCKED: ATOM      6  C   UNL     1     139.533  73.970 221.756 -0.23 -0.02    +0.104 C  
DOCKED: ATOM      7  O   UNL     1     139.541  75.085 222.342 -0.63 +0.05    -0.313 OA 
DOCKED: BRANCH   6   8
DOCKED: ATOM      8  C   UNL     1     139.384  72.729 222.556 -0.15 -0.02    +0.089 A  
DOCKED: ATOM      9  N   UNL     1     140.339  72.382 223.463 -0.32 +0.02    -0.246 NA 
DOCKED: ATOM     10  C   UNL     1     138.265  71.896 222.387 -0.18 -0.01    +0.031 A  
DOCKED: ATOM     11  C   UNL     1     140.240  71.269 224.235 -0.41 -0.01    +0.071 A  
DOCKED: ATOM     12  C   UNL     1     138.137  70.739 223.161 -0.22 -0.00    +0.013 A  
DOCKED: ATOM     13  C   UNL     1     141.236  70.973 225.173 -0.46 -0.00    +0.030 A  
DOCKED: ATOM     14  C   UNL     1     139.126  70.415 224.098 -0.34 -0.00    +0.002 A  
DOCKED: ATOM     15  C   UNL     1     141.128  69.830 225.971 -0.51 -0.00    +0.023 A  
DOCKED: ATOM     16  C   UNL     1     139.025  69.268 224.899 -0.37 -0.00    +0.030 A  
DOCKED: ATOM     17  C   UNL     1     140.025  68.978 225.835 -0.47 -0.01    +0.041 A  
DOCKED: ATOM     18  Cl  UNL     1     139.899  67.544 226.837 -0.70 +0.02    -0.084 Cl 
DOCKED: ENDBRANCH   6   8
DOCKED: ENDBRANCH   5   6
DOCKED: ENDBRANCH   4   5
DOCKED: ENDBRANCH   1   4
DOCKED: BRANCH   1  19
DOCKED: ATOM     19  N   UNL     1     142.926  72.957 219.974 -0.07 +0.06    -0.337 N  
DOCKED: ATOM     20  C   UNL     1     143.998  72.251 219.282 -0.17 -0.01    +0.151 C  
DOCKED: ATOM     21  C   UNL     1     143.406  74.123 220.710 -0.22 -0.03    +0.113 C  
DOCKED: ATOM     22  C   UNL     1     145.263  73.078 219.519 -0.34 +0.01    +0.136 C  
DOCKED: ATOM     23  C   UNL     1     144.935  74.033 220.673 -0.48 -0.02    +0.061 C  
DOCKED: BRANCH  21  24
DOCKED: ATOM     24  C   UNL     1     142.880  75.415 220.066 -0.25 -0.09    +0.185 C  
DOCKED: BRANCH  24  25
DOCKED: ATOM     25  O   UNL     1     141.816  75.941 220.840 -0.16 +0.18    -0.375 OA 
DOCKED: BRANCH  25  26
DOCKED: ATOM     26  C   UNL     1     141.399  77.199 220.349 -0.20 -0.10    +0.195 C  
DOCKED: BRANCH  26  27
DOCKED: ATOM     27  C   UNL     1     141.511  78.242 221.430 -0.35 +0.01    -0.022 A  
DOCKED: ATOM     28  C   UNL     1     141.329  77.879 222.775 -0.44 -0.00    +0.006 A  
DOCKED: ATOM     29  C   UNL     1     141.838  79.570 221.112 -0.37 -0.00    +0.006 A  
DOCKED: ATOM     30  C   UNL     1     141.457  78.837 223.786 -0.60 -0.00    +0.000 A  
DOCKED: ATOM     31  C   UNL     1     141.968  80.524 222.127 -0.51 -0.00    +0.000 A  
DOCKED: ATOM     32  C   UNL     1     141.776  80.158 223.462 -0.60 -0.00    +0.000 A  
DOCKED: ENDBRANCH  26  27
DOCKED: ENDBRANCH  25  26
DOCKED: ENDBRANCH  24  25
DOCKED: ENDBRANCH  21  24
DOCKED: BRANCH  22  33
DOCKED: ATOM     33  O   UNL     1     146.381  72.272 219.797 -0.48 -0.34    -0.391 OA 
DOCKED: ATOM     34  H   UNL     1     146.259  71.877 220.700 -0.37 +0.01    +0.211 HD 
DOCKED: ENDBRANCH  22  33
DOCKED: ENDBRANCH   1  19
DOCKED: TORSDOF 11
DOCKED: TER
DOCKED: ENDMDL
________________________________________________________________________________


    FINAL DOCKED STATE:
    ________________________


Run:   4 / 20
Time taken for this run:   0.070s

DOCKED: MODEL        4
DOCKED: USER    Run = 4
DOCKED: USER
DOCKED: USER    Estimated Free Energy of Binding    =  -8.33 kcal/mol  [=(1)+(2)+(3)-(4)]
DOCKED: USER
DOCKED: USER    (1) Final Intermolecular Energy     = -11.61 kcal/mol
DOCKED: USER        vdW + Hbond + desolv Energy     = -11.67 kcal/mol
DOCKED: USER        Electrostatic Energy            =  +0.06 kcal/mol
DOCKED: USER        Moving Ligand-Fixed Receptor    = -11.61 kcal/mol
DOCKED: USER        Moving Ligand-Moving Receptor   =  +0.00 kcal/mol
DOCKED: USER    (2) Final Total Internal Energy     =  -2.46 kcal/mol
DOCKED: USER    (3) Torsional Free Energy           =  +3.28 kcal/mol
DOCKED: USER    (4) Unbound System's Energy         =  -2.46 kcal/mol
DOCKED: USER
DOCKED: USER
DOCKED: REMARK SMILES O=C([N-]/C=C(\O)N1C[C@H](O)C[C@H]1COCc1ccccc1)c1ccc2cc(Cl)ccc2n1
DOCKED: REMARK SMILES IDX 5 1 6 2 4 4 3 5 2 6 1 7 22 8 32 9 23 10 31 11 24 12 30 13
DOCKED: REMARK SMILES IDX 25 14 29 15 26 16 27 17 28 18 7 19 8 20 12 21 9 22 11 23
DOCKED: REMARK SMILES IDX 13 24 14 25 15 26 16 27 17 28 21 29 18 30 20 31 19 32 10 33
DOCKED: REMARK H PARENT 6 3 10 34
DOCKED: USER                              x       y       z     vdW  Elec       q    Type
DOCKED: USER                           _______ _______ _______ _____ _____    ______ ____
DOCKED: ROOT
DOCKED: ATOM      1  C   UNL     1     141.274  73.225 220.797 -0.18 -0.03    +0.164 C  
DOCKED: ENDROOT
DOCKED: BRANCH   1   2
DOCKED: ATOM      2  O   UNL     1     140.884  73.760 222.029 -0.60 +0.00    -0.496 OA 
DOCKED: ATOM      3  H   UNL     1     140.074  73.441 222.542 +0.02 -0.01    +0.295 HD 
DOCKED: ENDBRANCH   1   2
DOCKED: BRANCH   1   4
DOCKED: ATOM      4  C   UNL     1     140.414  72.499 220.057 -0.09 +0.01    -0.069 C  
DOCKED: BRANCH   4   5
DOCKED: ATOM      5  N   UNL     1     139.151  72.039 220.554 +0.04 +0.12    -0.623 NA 
DOCKED: BRANCH   5   6
DOCKED: ATOM      6  C   UNL     1     138.623  72.259 221.871 -0.15 -0.02    +0.104 C  
DOCKED: ATOM      7  O   UNL     1     137.849  73.238 222.047 -0.10 +0.10    -0.313 OA 
DOCKED: BRANCH   6   8
DOCKED: ATOM      8  C   UNL     1     138.935  71.364 223.012 -0.24 -0.02    +0.089 A  
DOCKED: ATOM      9  N   UNL     1     139.730  71.803 224.028 -0.20 +0.06    -0.246 NA 
DOCKED: ATOM     10  C   UNL     1     138.423  70.056 223.060 -0.21 -0.01    +0.031 A  
DOCKED: ATOM     11  C   UNL     1     140.029  71.032 225.105 -0.46 -0.01    +0.071 A  
DOCKED: ATOM     12  C   UNL     1     138.719  69.234 224.151 -0.32 -0.00    +0.013 A  
DOCKED: ATOM     13  C   UNL     1     140.827  71.542 226.134 -0.63 -0.00    +0.030 A  
DOCKED: ATOM     14  C   UNL     1     139.525  69.717 225.189 -0.41 -0.00    +0.002 A  
DOCKED: ATOM     15  C   UNL     1     141.127  70.747 227.245 -0.60 -0.00    +0.023 A  
DOCKED: ATOM     16  C   UNL     1     139.833  68.923 226.304 -0.51 -0.00    +0.030 A  
DOCKED: ATOM     17  C   UNL     1     140.632  69.440 227.331 -0.57 -0.01    +0.041 A  
DOCKED: ATOM     18  Cl  UNL     1     141.017  68.448 228.725 -0.70 +0.02    -0.084 Cl 
DOCKED: ENDBRANCH   6   8
DOCKED: ENDBRANCH   5   6
DOCKED: ENDBRANCH   4   5
DOCKED: ENDBRANCH   1   4
DOCKED: BRANCH   1  19
DOCKED: ATOM     19  N   UNL     1     142.620  73.474 220.338 -0.10 +0.07    -0.337 N  
DOCKED: ATOM     20  C   UNL     1     143.521  72.445 219.834 -0.19 -0.02    +0.151 C  
DOCKED: ATOM     21  C   UNL     1     143.284  74.761 220.519 -0.21 -0.05    +0.113 C  
DOCKED: ATOM     22  C   UNL     1     144.858  73.146 219.587 -0.32 -0.00    +0.136 C  
DOCKED: ATOM     23  C   UNL     1     144.779  74.485 220.330 -0.39 -0.02    +0.061 C  
DOCKED: BRANCH  21  24
DOCKED: ATOM     24  C   UNL     1     142.746  75.786 219.508 -0.25 -0.09    +0.185 C  
DOCKED: BRANCH  24  25
DOCKED: ATOM     25  O   UNL     1     142.794  77.087 220.069 -0.20 +0.30    -0.375 OA 
DOCKED: BRANCH  25  26
DOCKED: ATOM     26  C   UNL     1     141.540  77.464 220.598 -0.21 -0.11    +0.195 C  
DOCKED: BRANCH  26  27
DOCKED: ATOM     27  C   UNL     1     141.724  78.452 221.719 -0.37 +0.01    -0.022 A  
DOCKED: ATOM     28  C   UNL     1     142.145  79.762 221.437 -0.38 -0.00    +0.006 A  
DOCKED: ATOM     29  C   UNL     1     141.440  78.090 223.047 -0.50 -0.00    +0.006 A  
DOCKED: ATOM     30  C   UNL     1     142.293  80.692 222.470 -0.56 -0.00    +0.000 A  
DOCKED: ATOM     31  C   UNL     1     141.586  79.026 224.077 -0.59 -0.00    +0.000 A  
DOCKED: ATOM     32  C   UNL     1     142.015  80.324 223.789 -0.63 -0.00    +0.000 A  
DOCKED: ENDBRANCH  26  27
DOCKED: ENDBRANCH  25  26
DOCKED: ENDBRANCH  24  25
DOCKED: ENDBRANCH  21  24
DOCKED: BRANCH  22  33
DOCKED: ATOM     33  O   UNL     1     145.953  72.369 220.006 -0.43 -0.15    -0.391 OA 
DOCKED: ATOM     34  H   UNL     1     145.690  71.890 220.835 -0.41 -0.05    +0.211 HD 
DOCKED: ENDBRANCH  22  33
DOCKED: ENDBRANCH   1  19
DOCKED: TORSDOF 11
DOCKED: TER
DOCKED: ENDMDL
________________________________________________________________________________


    FINAL DOCKED STATE:
    ________________________


Run:   5 / 20
Time taken for this run:   0.070s

DOCKED: MODEL        5
DOCKED: USER    Run = 5
DOCKED: USER
DOCKED: USER    Estimated Free Energy of Binding    =  -8.25 kcal/mol  [=(1)+(2)+(3)-(4)]
DOCKED: USER
DOCKED: USER    (1) Final Intermolecular Energy     = -11.53 kcal/mol
DOCKED: USER        vdW + Hbond + desolv Energy     = -11.64 kcal/mol
DOCKED: USER        Electrostatic Energy            =  +0.11 kcal/mol
DOCKED: USER        Moving Ligand-Fixed Receptor    = -11.53 kcal/mol
DOCKED: USER        Moving Ligand-Moving Receptor   =  +0.00 kcal/mol
DOCKED: USER    (2) Final Total Internal Energy     =  -2.19 kcal/mol
DOCKED: USER    (3) Torsional Free Energy           =  +3.28 kcal/mol
DOCKED: USER    (4) Unbound System's Energy         =  -2.19 kcal/mol
DOCKED: USER
DOCKED: USER
DOCKED: REMARK SMILES O=C([N-]/C=C(\O)N1C[C@H](O)C[C@H]1COCc1ccccc1)c1ccc2cc(Cl)ccc2n1
DOCKED: REMARK SMILES IDX 5 1 6 2 4 4 3 5 2 6 1 7 22 8 32 9 23 10 31 11 24 12 30 13
DOCKED: REMARK SMILES IDX 25 14 29 15 26 16 27 17 28 18 7 19 8 20 12 21 9 22 11 23
DOCKED: REMARK SMILES IDX 13 24 14 25 15 26 16 27 17 28 21 29 18 30 20 31 19 32 10 33
DOCKED: REMARK H PARENT 6 3 10 34
DOCKED: USER                              x       y       z     vdW  Elec       q    Type
DOCKED: USER                           _______ _______ _______ _____ _____    ______ ____
DOCKED: ROOT
DOCKED: ATOM      1  C   UNL     1     140.475  75.216 221.231 -0.24 -0.04    +0.164 C  
DOCKED: ENDROOT
DOCKED: BRANCH   1   2
DOCKED: ATOM      2  O   UNL     1     139.679  75.232 222.380 -0.52 +0.06    -0.496 OA 
DOCKED: ATOM      3  H   UNL     1     139.213  74.413 222.746 -0.43 -0.08    +0.295 HD 
DOCKED: ENDBRANCH   1   2
DOCKED: BRANCH   1   4
DOCKED: ATOM      4  C   UNL     1     140.931  74.054 220.725 -0.22 +0.01    -0.069 C  
DOCKED: BRANCH   4   5
DOCKED: ATOM      5  N   UNL     1     140.771  72.795 221.390 -0.05 +0.08    -0.623 NA 
DOCKED: BRANCH   5   6
DOCKED: ATOM      6  C   UNL     1     139.616  72.362 222.126 -0.24 -0.02    +0.104 C  
DOCKED: ATOM      7  O   UNL     1     138.488  72.802 221.779 -0.10 +0.08    -0.313 OA 
DOCKED: BRANCH   6   8
DOCKED: ATOM      8  C   UNL     1     139.707  71.401 223.253 -0.31 -0.02    +0.089 A  
DOCKED: ATOM      9  N   UNL     1     140.301  71.773 224.421 -0.28 +0.04    -0.246 NA 
DOCKED: ATOM     10  C   UNL     1     139.188  70.101 223.132 -0.24 -0.01    +0.031 A  
DOCKED: ATOM     11  C   UNL     1     140.391  70.940 225.490 -0.50 -0.01    +0.071 A  
DOCKED: ATOM     12  C   UNL     1     139.272  69.217 224.211 -0.31 -0.00    +0.013 A  
DOCKED: ATOM     13  C   UNL     1     140.987  71.381 226.676 -0.68 -0.00    +0.030 A  
DOCKED: ATOM     14  C   UNL     1     139.874  69.631 225.406 -0.44 -0.00    +0.002 A  
DOCKED: ATOM     15  C   UNL     1     141.072  70.523 227.777 -0.62 -0.00    +0.023 A  
DOCKED: ATOM     16  C   UNL     1     139.965  68.773 226.512 -0.55 -0.01    +0.030 A  
DOCKED: ATOM     17  C   UNL     1     140.563  69.221 227.697 -0.59 -0.01    +0.041 A  
DOCKED: ATOM     18  Cl  UNL     1     140.677  68.150 229.081 -0.33 +0.02    -0.084 Cl 
DOCKED: ENDBRANCH   6   8
DOCKED: ENDBRANCH   5   6
DOCKED: ENDBRANCH   4   5
DOCKED: ENDBRANCH   1   4
DOCKED: BRANCH   1  19
DOCKED: ATOM     19  N   UNL     1     140.791  76.475 220.599 -0.08 +0.12    -0.337 N  
DOCKED: ATOM     20  C   UNL     1     141.430  76.603 219.295 -0.15 -0.07    +0.151 C  
DOCKED: ATOM     21  C   UNL     1     140.680  77.752 221.297 -0.26 -0.04    +0.113 C  
DOCKED: ATOM     22  C   UNL     1     141.674  78.100 219.096 -0.20 -0.08    +0.136 C  
DOCKED: ATOM     23  C   UNL     1     141.511  78.744 220.477 -0.28 -0.03    +0.061 C  
DOCKED: BRANCH  21  24
DOCKED: ATOM     24  C   UNL     1     139.206  78.174 221.406 -0.13 -0.04    +0.185 C  
DOCKED: BRANCH  24  25
DOCKED: ATOM     25  O   UNL     1     138.752  78.000 222.737 -0.15 +0.06    -0.375 OA 
DOCKED: BRANCH  25  26
DOCKED: ATOM     26  C   UNL     1     138.724  79.229 223.434 -0.22 -0.03    +0.195 C  
DOCKED: BRANCH  26  27
DOCKED: ATOM     27  C   UNL     1     140.085  79.872 223.410 -0.43 +0.00    -0.022 A  
DOCKED: ATOM     28  C   UNL     1     141.185  79.204 223.973 -0.53 -0.00    +0.006 A  
DOCKED: ATOM     29  C   UNL     1     140.278  81.119 222.792 -0.37 -0.00    +0.006 A  
DOCKED: ATOM     30  C   UNL     1     142.457  79.783 223.932 -0.55 -0.00    +0.000 A  
DOCKED: ATOM     31  C   UNL     1     141.553  81.693 222.750 -0.48 -0.00    +0.000 A  
DOCKED: ATOM     32  C   UNL     1     142.640  81.028 223.322 -0.57 -0.00    +0.000 A  
DOCKED: ENDBRANCH  26  27
DOCKED: ENDBRANCH  25  26
DOCKED: ENDBRANCH  24  25
DOCKED: ENDBRANCH  21  24
DOCKED: BRANCH  22  33
DOCKED: ATOM     33  O   UNL     1     142.935  78.363 218.531 -0.20 +0.34    -0.391 OA 
DOCKED: ATOM     34  H   UNL     1     143.629  78.069 219.178 -0.38 -0.24    +0.211 HD 
DOCKED: ENDBRANCH  22  33
DOCKED: ENDBRANCH   1  19
DOCKED: TORSDOF 11
DOCKED: TER
DOCKED: ENDMDL
________________________________________________________________________________


    FINAL DOCKED STATE:
    ________________________


Run:   6 / 20
Time taken for this run:   0.070s

DOCKED: MODEL        6
DOCKED: USER    Run = 6
DOCKED: USER
DOCKED: USER    Estimated Free Energy of Binding    =  -8.39 kcal/mol  [=(1)+(2)+(3)-(4)]
DOCKED: USER
DOCKED: USER    (1) Final Intermolecular Energy     = -11.67 kcal/mol
DOCKED: USER        vdW + Hbond + desolv Energy     = -11.51 kcal/mol
DOCKED: USER        Electrostatic Energy            =  -0.16 kcal/mol
DOCKED: USER        Moving Ligand-Fixed Receptor    = -11.67 kcal/mol
DOCKED: USER        Moving Ligand-Moving Receptor   =  +0.00 kcal/mol
DOCKED: USER    (2) Final Total Internal Energy     =  -2.33 kcal/mol
DOCKED: USER    (3) Torsional Free Energy           =  +3.28 kcal/mol
DOCKED: USER    (4) Unbound System's Energy         =  -2.33 kcal/mol
DOCKED: USER
DOCKED: USER
DOCKED: REMARK SMILES O=C([N-]/C=C(\O)N1C[C@H](O)C[C@H]1COCc1ccccc1)c1ccc2cc(Cl)ccc2n1
DOCKED: REMARK SMILES IDX 5 1 6 2 4 4 3 5 2 6 1 7 22 8 32 9 23 10 31 11 24 12 30 13
DOCKED: REMARK SMILES IDX 25 14 29 15 26 16 27 17 28 18 7 19 8 20 12 21 9 22 11 23
DOCKED: REMARK SMILES IDX 13 24 14 25 15 26 16 27 17 28 21 29 18 30 20 31 19 32 10 33
DOCKED: REMARK H PARENT 6 3 10 34
DOCKED: USER                              x       y       z     vdW  Elec       q    Type
DOCKED: USER                           _______ _______ _______ _____ _____    ______ ____
DOCKED: ROOT
DOCKED: ATOM      1  C   UNL     1     141.519  73.315 220.461 -0.16 -0.03    +0.164 C  
DOCKED: ENDROOT
DOCKED: BRANCH   1   2
DOCKED: ATOM      2  O   UNL     1     140.656  72.607 219.619 +0.01 +0.09    -0.496 OA 
DOCKED: ATOM      3  H   UNL     1     139.687  72.424 219.843 +0.05 -0.05    +0.295 HD 
DOCKED: ENDBRANCH   1   2
DOCKED: BRANCH   1   4
DOCKED: ATOM      4  C   UNL     1     141.073  73.852 221.613 -0.24 +0.01    -0.069 C  
DOCKED: BRANCH   4   5
DOCKED: ATOM      5  N   UNL     1     139.751  73.628 222.118 -0.49 +0.09    -0.623 NA 
DOCKED: BRANCH   5   6
DOCKED: ATOM      6  C   UNL     1     139.077  72.364 222.212 -0.20 -0.02    +0.104 C  
DOCKED: ATOM      7  O   UNL     1     138.234  72.070 221.324 -0.05 +0.07    -0.313 OA 
DOCKED: BRANCH   6   8
DOCKED: ATOM      8  C   UNL     1     139.361  71.392 223.297 -0.29 -0.02    +0.089 A  
DOCKED: ATOM      9  N   UNL     1     139.961  71.807 224.446 -0.22 +0.05    -0.246 NA 
DOCKED: ATOM     10  C   UNL     1     139.019  70.036 223.153 -0.23 -0.01    +0.031 A  
DOCKED: ATOM     11  C   UNL     1     140.223  70.963 225.478 -0.49 -0.01    +0.071 A  
DOCKED: ATOM     12  C   UNL     1     139.283  69.140 224.193 -0.31 -0.00    +0.013 A  
DOCKED: ATOM     13  C   UNL     1     140.817  71.447 226.648 -0.68 -0.00    +0.030 A  
DOCKED: ATOM     14  C   UNL     1     139.886  69.597 225.371 -0.43 -0.00    +0.002 A  
DOCKED: ATOM     15  C   UNL     1     141.079  70.576 227.711 -0.62 -0.00    +0.023 A  
DOCKED: ATOM     16  C   UNL     1     140.155  68.728 226.439 -0.55 -0.01    +0.030 A  
DOCKED: ATOM     17  C   UNL     1     140.749  69.219 227.608 -0.59 -0.01    +0.041 A  
DOCKED: ATOM     18  Cl  UNL     1     141.085  68.133 228.943 -0.55 +0.02    -0.084 Cl 
DOCKED: ENDBRANCH   6   8
DOCKED: ENDBRANCH   5   6
DOCKED: ENDBRANCH   4   5
DOCKED: ENDBRANCH   1   4
DOCKED: BRANCH   1  19
DOCKED: ATOM     19  N   UNL     1     142.901  73.451 220.066 -0.09 +0.07    -0.337 N  
DOCKED: ATOM     20  C   UNL     1     143.671  72.412 219.394 -0.16 -0.01    +0.151 C  
DOCKED: ATOM     21  C   UNL     1     143.727  74.580 220.483 -0.29 -0.05    +0.113 C  
DOCKED: ATOM     22  C   UNL     1     145.099  72.951 219.290 -0.29 +0.02    +0.136 C  
DOCKED: ATOM     23  C   UNL     1     145.177  74.135 220.261 -0.44 -0.02    +0.061 C  
DOCKED: BRANCH  21  24
DOCKED: ATOM     24  C   UNL     1     143.369  75.833 219.668 -0.30 -0.11    +0.185 C  
DOCKED: BRANCH  24  25
DOCKED: ATOM     25  O   UNL     1     142.089  76.306 220.048 -0.15 +0.20    -0.375 OA 
DOCKED: BRANCH  25  26
DOCKED: ATOM     26  C   UNL     1     141.957  77.689 219.793 -0.21 -0.12    +0.195 C  
DOCKED: BRANCH  26  27
DOCKED: ATOM     27  C   UNL     1     141.824  78.446 221.088 -0.35 +0.01    -0.022 A  
DOCKED: ATOM     28  C   UNL     1     142.142  79.813 221.136 -0.31 -0.00    +0.006 A  
DOCKED: ATOM     29  C   UNL     1     141.343  77.809 222.244 -0.37 -0.00    +0.006 A  
DOCKED: ATOM     30  C   UNL     1     141.996  80.529 222.329 -0.53 -0.00    +0.000 A  
DOCKED: ATOM     31  C   UNL     1     141.195  78.530 223.434 -0.53 -0.00    +0.000 A  
DOCKED: ATOM     32  C   UNL     1     141.524  79.887 223.477 -0.58 -0.00    +0.000 A  
DOCKED: ENDBRANCH  26  27
DOCKED: ENDBRANCH  25  26
DOCKED: ENDBRANCH  24  25
DOCKED: ENDBRANCH  21  24
DOCKED: BRANCH  22  33
DOCKED: ATOM     33  O   UNL     1     146.062  71.966 219.572 -0.51 -0.31    -0.391 OA 
DOCKED: ATOM     34  H   UNL     1     145.873  71.601 220.477 -0.35 +0.00    +0.211 HD 
DOCKED: ENDBRANCH  22  33
DOCKED: ENDBRANCH   1  19
DOCKED: TORSDOF 11
DOCKED: TER
DOCKED: ENDMDL
________________________________________________________________________________


    FINAL DOCKED STATE:
    ________________________


Run:   7 / 20
Time taken for this run:   0.070s

DOCKED: MODEL        7
DOCKED: USER    Run = 7
DOCKED: USER
DOCKED: USER    Estimated Free Energy of Binding    =  -8.08 kcal/mol  [=(1)+(2)+(3)-(4)]
DOCKED: USER
DOCKED: USER    (1) Final Intermolecular Energy     = -11.36 kcal/mol
DOCKED: USER        vdW + Hbond + desolv Energy     = -11.40 kcal/mol
DOCKED: USER        Electrostatic Energy            =  +0.03 kcal/mol
DOCKED: USER        Moving Ligand-Fixed Receptor    = -11.36 kcal/mol
DOCKED: USER        Moving Ligand-Moving Receptor   =  +0.00 kcal/mol
DOCKED: USER    (2) Final Total Internal Energy     =  -2.37 kcal/mol
DOCKED: USER    (3) Torsional Free Energy           =  +3.28 kcal/mol
DOCKED: USER    (4) Unbound System's Energy         =  -2.37 kcal/mol
DOCKED: USER
DOCKED: USER
DOCKED: REMARK SMILES O=C([N-]/C=C(\O)N1C[C@H](O)C[C@H]1COCc1ccccc1)c1ccc2cc(Cl)ccc2n1
DOCKED: REMARK SMILES IDX 5 1 6 2 4 4 3 5 2 6 1 7 22 8 32 9 23 10 31 11 24 12 30 13
DOCKED: REMARK SMILES IDX 25 14 29 15 26 16 27 17 28 18 7 19 8 20 12 21 9 22 11 23
DOCKED: REMARK SMILES IDX 13 24 14 25 15 26 16 27 17 28 21 29 18 30 20 31 19 32 10 33
DOCKED: REMARK H PARENT 6 3 10 34
DOCKED: USER                              x       y       z     vdW  Elec       q    Type
DOCKED: USER                           _______ _______ _______ _____ _____    ______ ____
DOCKED: ROOT
DOCKED: ATOM      1  C   UNL     1     139.417  70.820 222.637 -0.19 -0.03    +0.164 C  
DOCKED: ENDROOT
DOCKED: BRANCH   1   2
DOCKED: ATOM      2  O   UNL     1     139.908  70.363 221.410 -0.03 +0.08    -0.496 OA 
DOCKED: ATOM      3  H   UNL     1     140.458  70.935 220.784 +0.07 -0.04    +0.295 HD 
DOCKED: ENDBRANCH   1   2
DOCKED: BRANCH   1   4
DOCKED: ATOM      4  C   UNL     1     139.964  71.891 223.244 -0.32 +0.01    -0.069 C  
DOCKED: BRANCH   4   5
DOCKED: ATOM      5  N   UNL     1     139.950  73.205 222.673 -0.47 +0.06    -0.623 NA 
DOCKED: BRANCH   5   6
DOCKED: ATOM      6  C   UNL     1     140.838  73.703 221.660 -0.23 -0.01    +0.104 C  
DOCKED: ATOM      7  O   UNL     1     141.418  72.870 220.914 -0.14 +0.04    -0.313 OA 
DOCKED: BRANCH   6   8
DOCKED: ATOM      8  C   UNL     1     141.068  75.154 221.450 -0.31 -0.02    +0.089 A  
DOCKED: ATOM      9  N   UNL     1     140.532  76.063 222.311 -0.36 +0.05    -0.246 NA 
DOCKED: ATOM     10  C   UNL     1     141.836  75.609 220.364 -0.27 -0.01    +0.031 A  
DOCKED: ATOM     11  C   UNL     1     140.730  77.399 222.176 -0.38 -0.02    +0.071 A  
DOCKED: ATOM     12  C   UNL     1     142.052  76.979 220.192 -0.30 -0.01    +0.013 A  
DOCKED: ATOM     13  C   UNL     1     140.180  78.289 223.106 -0.33 -0.01    +0.030 A  
DOCKED: ATOM     14  C   UNL     1     141.502  77.890 221.103 -0.33 -0.00    +0.002 A  
DOCKED: ATOM     15  C   UNL     1     140.392  79.664 222.968 -0.41 -0.00    +0.023 A  
DOCKED: ATOM     16  C   UNL     1     141.708  79.271 220.968 -0.33 -0.02    +0.030 A  
DOCKED: ATOM     17  C   UNL     1     141.154  80.156 221.901 -0.36 -0.01    +0.041 A  
DOCKED: ATOM     18  Cl  UNL     1     141.412  81.882 221.733 -0.47 +0.02    -0.084 Cl 
DOCKED: ENDBRANCH   6   8
DOCKED: ENDBRANCH   5   6
DOCKED: ENDBRANCH   4   5
DOCKED: ENDBRANCH   1   4
DOCKED: BRANCH   1  19
DOCKED: ATOM     19  N   UNL     1     138.303  70.120 223.232 -0.08 +0.06    -0.337 N  
DOCKED: ATOM     20  C   UNL     1     136.949  70.117 222.693 -0.10 -0.02    +0.151 C  
DOCKED: ATOM     21  C   UNL     1     138.383  69.502 224.553 -0.29 -0.01    +0.113 C  
DOCKED: ATOM     22  C   UNL     1     136.096  69.358 223.711 -0.15 -0.01    +0.136 C  
DOCKED: ATOM     23  C   UNL     1     136.931  69.285 224.995 -0.22 -0.00    +0.061 C  
DOCKED: BRANCH  21  24
DOCKED: ATOM     24  C   UNL     1     139.174  68.187 224.480 -0.22 -0.02    +0.185 C  
DOCKED: BRANCH  24  25
DOCKED: ATOM     25  O   UNL     1     139.193  67.565 225.753 -0.81 -0.00    -0.375 OA 
DOCKED: BRANCH  25  26
DOCKED: ATOM     26  C   UNL     1     140.427  67.774 226.408 -0.50 -0.04    +0.195 C  
DOCKED: BRANCH  26  27
DOCKED: ATOM     27  C   UNL     1     140.555  69.214 226.831 -0.56 +0.00    -0.022 A  
DOCKED: ATOM     28  C   UNL     1     141.303  70.109 226.049 -0.54 -0.00    +0.006 A  
DOCKED: ATOM     29  C   UNL     1     139.898  69.684 227.980 -0.63 -0.00    +0.006 A  
DOCKED: ATOM     30  C   UNL     1     141.405  71.453 226.421 -0.68 -0.00    +0.000 A  
DOCKED: ATOM     31  C   UNL     1     140.000  71.031 228.347 -0.64 -0.00    +0.000 A  
DOCKED: ATOM     32  C   UNL     1     140.754  71.913 227.570 -0.82 -0.00    +0.000 A  
DOCKED: ENDBRANCH  26  27
DOCKED: ENDBRANCH  25  26
DOCKED: ENDBRANCH  24  25
DOCKED: ENDBRANCH  21  24
DOCKED: BRANCH  22  33
DOCKED: ATOM     33  O   UNL     1     134.848  69.970 223.922 -0.05 +0.04    -0.391 OA 
DOCKED: ATOM     34  H   UNL     1     134.964  70.950 223.814 +0.05 -0.03    +0.211 HD 
DOCKED: ENDBRANCH  22  33
DOCKED: ENDBRANCH   1  19
DOCKED: TORSDOF 11
DOCKED: TER
DOCKED: ENDMDL
________________________________________________________________________________


    FINAL DOCKED STATE:
    ________________________


Run:   8 / 20
Time taken for this run:   0.070s

DOCKED: MODEL        8
DOCKED: USER    Run = 8
DOCKED: USER
DOCKED: USER    Estimated Free Energy of Binding    =  -7.83 kcal/mol  [=(1)+(2)+(3)-(4)]
DOCKED: USER
DOCKED: USER    (1) Final Intermolecular Energy     = -11.12 kcal/mol
DOCKED: USER        vdW + Hbond + desolv Energy     = -11.11 kcal/mol
DOCKED: USER        Electrostatic Energy            =  -0.01 kcal/mol
DOCKED: USER        Moving Ligand-Fixed Receptor    = -11.12 kcal/mol
DOCKED: USER        Moving Ligand-Moving Receptor   =  +0.00 kcal/mol
DOCKED: USER    (2) Final Total Internal Energy     =  -2.57 kcal/mol
DOCKED: USER    (3) Torsional Free Energy           =  +3.28 kcal/mol
DOCKED: USER    (4) Unbound System's Energy         =  -2.57 kcal/mol
DOCKED: USER
DOCKED: USER
DOCKED: REMARK SMILES O=C([N-]/C=C(\O)N1C[C@H](O)C[C@H]1COCc1ccccc1)c1ccc2cc(Cl)ccc2n1
DOCKED: REMARK SMILES IDX 5 1 6 2 4 4 3 5 2 6 1 7 22 8 32 9 23 10 31 11 24 12 30 13
DOCKED: REMARK SMILES IDX 25 14 29 15 26 16 27 17 28 18 7 19 8 20 12 21 9 22 11 23
DOCKED: REMARK SMILES IDX 13 24 14 25 15 26 16 27 17 28 21 29 18 30 20 31 19 32 10 33
DOCKED: REMARK H PARENT 6 3 10 34
DOCKED: USER                              x       y       z     vdW  Elec       q    Type
DOCKED: USER                           _______ _______ _______ _____ _____    ______ ____
DOCKED: ROOT
DOCKED: ATOM      1  C   UNL     1     141.627  73.313 220.734 -0.19 -0.03    +0.164 C  
DOCKED: ENDROOT
DOCKED: BRANCH   1   2
DOCKED: ATOM      2  O   UNL     1     140.975  72.245 220.111 -0.01 +0.08    -0.496 OA 
DOCKED: ATOM      3  H   UNL     1     139.995  72.037 220.245 +0.06 -0.05    +0.295 HD 
DOCKED: ENDBRANCH   1   2
DOCKED: BRANCH   1   4
DOCKED: ATOM      4  C   UNL     1     140.964  74.129 221.576 -0.26 +0.01    -0.069 C  
DOCKED: BRANCH   4   5
DOCKED: ATOM      5  N   UNL     1     139.804  73.719 222.310 -0.60 +0.07    -0.623 NA 
DOCKED: BRANCH   5   6
DOCKED: ATOM      6  C   UNL     1     139.217  72.408 222.312 -0.21 -0.02    +0.104 C  
DOCKED: ATOM      7  O   UNL     1     138.479  72.084 221.344 -0.05 +0.07    -0.313 OA 
DOCKED: BRANCH   6   8
DOCKED: ATOM      8  C   UNL     1     139.471  71.426 223.394 -0.31 -0.02    +0.089 A  
DOCKED: ATOM      9  N   UNL     1     140.046  71.829 224.562 -0.21 +0.05    -0.246 NA 
DOCKED: ATOM     10  C   UNL     1     139.128  70.073 223.231 -0.24 -0.01    +0.031 A  
DOCKED: ATOM     11  C   UNL     1     140.281  70.974 225.591 -0.50 -0.01    +0.071 A  
DOCKED: ATOM     12  C   UNL     1     139.364  69.166 224.269 -0.31 -0.00    +0.013 A  
DOCKED: ATOM     13  C   UNL     1     140.848  71.446 226.780 -0.69 -0.00    +0.030 A  
DOCKED: ATOM     14  C   UNL     1     139.941  69.612 225.464 -0.44 -0.00    +0.002 A  
DOCKED: ATOM     15  C   UNL     1     141.082  70.565 227.840 -0.62 -0.00    +0.023 A  
DOCKED: ATOM     16  C   UNL     1     140.181  68.732 226.530 -0.56 -0.01    +0.030 A  
DOCKED: ATOM     17  C   UNL     1     140.750  69.210 227.718 -0.59 -0.01    +0.041 A  
DOCKED: ATOM     18  Cl  UNL     1     141.050  68.111 229.051 -0.45 +0.02    -0.084 Cl 
DOCKED: ENDBRANCH   6   8
DOCKED: ENDBRANCH   5   6
DOCKED: ENDBRANCH   4   5
DOCKED: ENDBRANCH   1   4
DOCKED: BRANCH   1  19
DOCKED: ATOM     19  N   UNL     1     143.030  73.515 220.457 -0.13 +0.07    -0.337 N  
DOCKED: ATOM     20  C   UNL     1     144.033  72.458 220.477 -0.28 -0.02    +0.151 C  
DOCKED: ATOM     21  C   UNL     1     143.618  74.844 220.322 -0.28 -0.05    +0.113 C  
DOCKED: ATOM     22  C   UNL     1     145.376  73.153 220.249 -0.46 -0.00    +0.136 C  
DOCKED: ATOM     23  C   UNL     1     145.128  74.647 220.492 -0.25 -0.03    +0.061 C  
DOCKED: BRANCH  21  24
DOCKED: ATOM     24  C   UNL     1     143.258  75.451 218.957 -0.23 -0.09    +0.185 C  
DOCKED: BRANCH  24  25
DOCKED: ATOM     25  O   UNL     1     142.858  76.801 219.120 -0.21 +0.24    -0.375 OA 
DOCKED: BRANCH  25  26
DOCKED: ATOM     26  C   UNL     1     141.474  76.896 219.390 -0.15 -0.09    +0.195 C  
DOCKED: BRANCH  26  27
DOCKED: ATOM     27  C   UNL     1     141.247  77.596 220.704 -0.28 +0.01    -0.022 A  
DOCKED: ATOM     28  C   UNL     1     140.130  77.267 221.489 -0.28 -0.00    +0.006 A  
DOCKED: ATOM     29  C   UNL     1     142.164  78.550 221.175 -0.20 -0.00    +0.006 A  
DOCKED: ATOM     30  C   UNL     1     139.926  77.895 222.722 -0.36 -0.00    +0.000 A  
DOCKED: ATOM     31  C   UNL     1     141.958  79.173 222.410 -0.52 -0.00    +0.000 A  
DOCKED: ATOM     32  C   UNL     1     140.840  78.848 223.181 -0.50 -0.00    +0.000 A  
DOCKED: ENDBRANCH  26  27
DOCKED: ENDBRANCH  25  26
DOCKED: ENDBRANCH  24  25
DOCKED: ENDBRANCH  21  24
DOCKED: BRANCH  22  33
DOCKED: ATOM     33  O   UNL     1     146.389  72.640 221.079 -0.31 -0.00    -0.391 OA 
DOCKED: ATOM     34  H   UNL     1     145.993  71.922 221.639 -0.44 -0.17    +0.211 HD 
DOCKED: ENDBRANCH  22  33
DOCKED: ENDBRANCH   1  19
DOCKED: TORSDOF 11
DOCKED: TER
DOCKED: ENDMDL
________________________________________________________________________________


    FINAL DOCKED STATE:
    ________________________


Run:   9 / 20
Time taken for this run:   0.070s

DOCKED: MODEL        9
DOCKED: USER    Run = 9
DOCKED: USER
DOCKED: USER    Estimated Free Energy of Binding    =  -7.96 kcal/mol  [=(1)+(2)+(3)-(4)]
DOCKED: USER
DOCKED: USER    (1) Final Intermolecular Energy     = -11.24 kcal/mol
DOCKED: USER        vdW + Hbond + desolv Energy     = -11.22 kcal/mol
DOCKED: USER        Electrostatic Energy            =  -0.01 kcal/mol
DOCKED: USER        Moving Ligand-Fixed Receptor    = -11.24 kcal/mol
DOCKED: USER        Moving Ligand-Moving Receptor   =  +0.00 kcal/mol
DOCKED: USER    (2) Final Total Internal Energy     =  -2.43 kcal/mol
DOCKED: USER    (3) Torsional Free Energy           =  +3.28 kcal/mol
DOCKED: USER    (4) Unbound System's Energy         =  -2.43 kcal/mol
DOCKED: USER
DOCKED: USER
DOCKED: REMARK SMILES O=C([N-]/C=C(\O)N1C[C@H](O)C[C@H]1COCc1ccccc1)c1ccc2cc(Cl)ccc2n1
DOCKED: REMARK SMILES IDX 5 1 6 2 4 4 3 5 2 6 1 7 22 8 32 9 23 10 31 11 24 12 30 13
DOCKED: REMARK SMILES IDX 25 14 29 15 26 16 27 17 28 18 7 19 8 20 12 21 9 22 11 23
DOCKED: REMARK SMILES IDX 13 24 14 25 15 26 16 27 17 28 21 29 18 30 20 31 19 32 10 33
DOCKED: REMARK H PARENT 6 3 10 34
DOCKED: USER                              x       y       z     vdW  Elec       q    Type
DOCKED: USER                           _______ _______ _______ _____ _____    ______ ____
DOCKED: ROOT
DOCKED: ATOM      1  C   UNL     1     139.491  74.383 221.560 -0.21 -0.03    +0.164 C  
DOCKED: ENDROOT
DOCKED: BRANCH   1   2
DOCKED: ATOM      2  O   UNL     1     139.966  73.760 222.719 -0.60 -0.01    -0.496 OA 
DOCKED: ATOM      3  H   UNL     1     139.441  73.063 223.230 -0.33 -0.10    +0.295 HD 
DOCKED: ENDBRANCH   1   2
DOCKED: BRANCH   1   4
DOCKED: ATOM      4  C   UNL     1     138.401  73.915 220.922 -0.12 +0.02    -0.069 C  
DOCKED: BRANCH   4   5
DOCKED: ATOM      5  N   UNL     1     137.763  72.680 221.270 +0.02 +0.14    -0.623 NA 
DOCKED: BRANCH   5   6
DOCKED: ATOM      6  C   UNL     1     138.369  71.378 221.271 -0.08 -0.02    +0.104 C  
DOCKED: ATOM      7  O   UNL     1     138.654  70.853 220.162 -0.01 +0.06    -0.313 OA 
DOCKED: BRANCH   6   8
DOCKED: ATOM      8  C   UNL     1     138.690  70.653 222.525 -0.17 -0.02    +0.089 A  
DOCKED: ATOM      9  N   UNL     1     139.537  71.206 223.437 -0.20 +0.05    -0.246 NA 
DOCKED: ATOM     10  C   UNL     1     138.131  69.390 222.787 -0.19 -0.00    +0.031 A  
DOCKED: ATOM     11  C   UNL     1     139.847  70.593 224.609 -0.39 -0.01    +0.071 A  
DOCKED: ATOM     12  C   UNL     1     138.437  68.730 223.981 -0.31 -0.00    +0.013 A  
DOCKED: ATOM     13  C   UNL     1     140.702  71.219 225.523 -0.57 -0.00    +0.030 A  
DOCKED: ATOM     14  C   UNL     1     139.298  69.329 224.908 -0.39 -0.00    +0.002 A  
DOCKED: ATOM     15  C   UNL     1     141.013  70.588 226.732 -0.60 -0.00    +0.023 A  
DOCKED: ATOM     16  C   UNL     1     139.617  68.701 226.120 -0.51 -0.00    +0.030 A  
DOCKED: ATOM     17  C   UNL     1     140.473  69.332 227.031 -0.55 -0.01    +0.041 A  
DOCKED: ATOM     18  Cl  UNL     1     140.871  68.546 228.548 -0.75 +0.02    -0.084 Cl 
DOCKED: ENDBRANCH   6   8
DOCKED: ENDBRANCH   5   6
DOCKED: ENDBRANCH   4   5
DOCKED: ENDBRANCH   1   4
DOCKED: BRANCH   1  19
DOCKED: ATOM     19  N   UNL     1     140.196  75.544 221.069 -0.12 +0.08    -0.337 N  
DOCKED: ATOM     20  C   UNL     1     141.025  75.557 219.870 -0.13 -0.05    +0.151 C  
DOCKED: ATOM     21  C   UNL     1     140.307  76.777 221.842 -0.32 -0.03    +0.113 C  
DOCKED: ATOM     22  C   UNL     1     141.658  76.948 219.817 -0.21 -0.07    +0.136 C  
DOCKED: ATOM     23  C   UNL     1     141.466  77.556 221.211 -0.28 -0.03    +0.061 C  
DOCKED: BRANCH  21  24
DOCKED: ATOM     24  C   UNL     1     138.984  77.558 221.795 -0.18 -0.04    +0.185 C  
DOCKED: BRANCH  24  25
DOCKED: ATOM     25  O   UNL     1     138.663  78.040 223.088 -0.16 +0.06    -0.375 OA 
DOCKED: BRANCH  25  26
DOCKED: ATOM     26  C   UNL     1     138.686  79.452 223.128 -0.24 -0.03    +0.195 C  
DOCKED: BRANCH  26  27
DOCKED: ATOM     27  C   UNL     1     140.106  79.951 223.089 -0.40 +0.00    -0.022 A  
DOCKED: ATOM     28  C   UNL     1     141.083  79.348 223.899 -0.54 -0.00    +0.006 A  
DOCKED: ATOM     29  C   UNL     1     140.477  80.989 222.219 -0.34 -0.00    +0.006 A  
DOCKED: ATOM     30  C   UNL     1     142.409  79.789 223.849 -0.60 -0.00    +0.000 A  
DOCKED: ATOM     31  C   UNL     1     141.806  81.425 222.170 -0.47 -0.00    +0.000 A  
DOCKED: ATOM     32  C   UNL     1     142.769  80.827 222.986 -0.57 -0.00    +0.000 A  
DOCKED: ENDBRANCH  26  27
DOCKED: ENDBRANCH  25  26
DOCKED: ENDBRANCH  24  25
DOCKED: ENDBRANCH  21  24
DOCKED: BRANCH  22  33
DOCKED: ATOM     33  O   UNL     1     143.012  76.902 219.438 -0.22 +0.28    -0.391 OA 
DOCKED: ATOM     34  H   UNL     1     143.517  77.522 220.027 -0.47 -0.24    +0.211 HD 
DOCKED: ENDBRANCH  22  33
DOCKED: ENDBRANCH   1  19
DOCKED: TORSDOF 11
DOCKED: TER
DOCKED: ENDMDL
________________________________________________________________________________


    FINAL DOCKED STATE:
    ________________________


Run:   10 / 20
Time taken for this run:   0.070s

DOCKED: MODEL        10
DOCKED: USER    Run = 10
DOCKED: USER
DOCKED: USER    Estimated Free Energy of Binding    =  -8.26 kcal/mol  [=(1)+(2)+(3)-(4)]
DOCKED: USER
DOCKED: USER    (1) Final Intermolecular Energy     = -11.54 kcal/mol
DOCKED: USER        vdW + Hbond + desolv Energy     = -11.55 kcal/mol
DOCKED: USER        Electrostatic Energy            =  +0.01 kcal/mol
DOCKED: USER        Moving Ligand-Fixed Receptor    = -11.54 kcal/mol
DOCKED: USER        Moving Ligand-Moving Receptor   =  +0.00 kcal/mol
DOCKED: USER    (2) Final Total Internal Energy     =  -2.66 kcal/mol
DOCKED: USER    (3) Torsional Free Energy           =  +3.28 kcal/mol
DOCKED: USER    (4) Unbound System's Energy         =  -2.66 kcal/mol
DOCKED: USER
DOCKED: USER
DOCKED: REMARK SMILES O=C([N-]/C=C(\O)N1C[C@H](O)C[C@H]1COCc1ccccc1)c1ccc2cc(Cl)ccc2n1
DOCKED: REMARK SMILES IDX 5 1 6 2 4 4 3 5 2 6 1 7 22 8 32 9 23 10 31 11 24 12 30 13
DOCKED: REMARK SMILES IDX 25 14 29 15 26 16 27 17 28 18 7 19 8 20 12 21 9 22 11 23
DOCKED: REMARK SMILES IDX 13 24 14 25 15 26 16 27 17 28 21 29 18 30 20 31 19 32 10 33
DOCKED: REMARK H PARENT 6 3 10 34
DOCKED: USER                              x       y       z     vdW  Elec       q    Type
DOCKED: USER                           _______ _______ _______ _____ _____    ______ ____
DOCKED: ROOT
DOCKED: ATOM      1  C   UNL     1     141.084  73.137 221.143 -0.21 -0.02    +0.164 C  
DOCKED: ENDROOT
DOCKED: BRANCH   1   2
DOCKED: ATOM      2  O   UNL     1     140.649  73.707 222.343 -0.65 -0.04    -0.496 OA 
DOCKED: ATOM      3  H   UNL     1     139.819  73.404 222.834 -0.15 -0.03    +0.295 HD 
DOCKED: ENDBRANCH   1   2
DOCKED: BRANCH   1   4
DOCKED: ATOM      4  C   UNL     1     140.283  72.314 220.439 -0.12 +0.01    -0.069 C  
DOCKED: BRANCH   4   5
DOCKED: ATOM      5  N   UNL     1     138.920  72.055 220.800 +0.03 +0.12    -0.623 NA 
DOCKED: BRANCH   5   6
DOCKED: ATOM      6  C   UNL     1     138.352  72.159 222.115 -0.15 -0.03    +0.104 C  
DOCKED: ATOM      7  O   UNL     1     137.493  73.057 222.323 -0.10 +0.10    -0.313 OA 
DOCKED: BRANCH   6   8
DOCKED: ATOM      8  C   UNL     1     138.722  71.236 223.215 -0.23 -0.02    +0.089 A  
DOCKED: ATOM      9  N   UNL     1     139.589  71.641 224.184 -0.20 +0.06    -0.246 NA 
DOCKED: ATOM     10  C   UNL     1     138.190  69.936 223.272 -0.22 -0.01    +0.031 A  
DOCKED: ATOM     11  C   UNL     1     139.944  70.843 225.225 -0.45 -0.01    +0.071 A  
DOCKED: ATOM     12  C   UNL     1     138.542  69.087 224.325 -0.33 -0.00    +0.013 A  
DOCKED: ATOM     13  C   UNL     1     140.817  71.319 226.209 -0.63 -0.00    +0.030 A  
DOCKED: ATOM     14  C   UNL     1     139.423  69.536 225.317 -0.42 -0.00    +0.002 A  
DOCKED: ATOM     15  C   UNL     1     141.175  70.497 227.282 -0.53 -0.00    +0.023 A  
DOCKED: ATOM     16  C   UNL     1     139.788  68.715 226.394 -0.54 -0.00    +0.030 A  
DOCKED: ATOM     17  C   UNL     1     140.663  69.197 227.376 -0.58 -0.01    +0.041 A  
DOCKED: ATOM     18  Cl  UNL     1     141.120  68.171 228.723 -0.69 +0.02    -0.084 Cl 
DOCKED: ENDBRANCH   6   8
DOCKED: ENDBRANCH   5   6
DOCKED: ENDBRANCH   4   5
DOCKED: ENDBRANCH   1   4
DOCKED: BRANCH   1  19
DOCKED: ATOM     19  N   UNL     1     142.412  73.457 220.674 -0.11 +0.06    -0.337 N  
DOCKED: ATOM     20  C   UNL     1     143.473  72.478 220.475 -0.24 -0.02    +0.151 C  
DOCKED: ATOM     21  C   UNL     1     142.885  74.832 220.541 -0.22 -0.05    +0.113 C  
DOCKED: ATOM     22  C   UNL     1     144.718  73.283 220.096 -0.38 -0.02    +0.136 C  
DOCKED: ATOM     23  C   UNL     1     144.413  74.738 220.472 -0.33 -0.03    +0.061 C  
DOCKED: BRANCH  21  24
DOCKED: ATOM     24  C   UNL     1     142.282  75.485 219.288 -0.18 -0.08    +0.185 C  
DOCKED: BRANCH  24  25
DOCKED: ATOM     25  O   UNL     1     141.661  76.711 219.634 -0.10 +0.18    -0.375 OA 
DOCKED: BRANCH  25  26
DOCKED: ATOM     26  C   UNL     1     141.076  76.644 220.919 -0.22 -0.08    +0.195 C  
DOCKED: BRANCH  26  27
DOCKED: ATOM     27  C   UNL     1     141.427  77.873 221.715 -0.35 +0.01    -0.022 A  
DOCKED: ATOM     28  C   UNL     1     141.807  79.052 221.054 -0.36 -0.00    +0.006 A  
DOCKED: ATOM     29  C   UNL     1     141.341  77.866 223.118 -0.44 -0.00    +0.006 A  
DOCKED: ATOM     30  C   UNL     1     142.109  80.204 221.785 -0.48 -0.00    +0.000 A  
DOCKED: ATOM     31  C   UNL     1     141.643  79.022 223.846 -0.62 -0.00    +0.000 A  
DOCKED: ATOM     32  C   UNL     1     142.029  80.188 223.181 -0.61 -0.00    +0.000 A  
DOCKED: ENDBRANCH  26  27
DOCKED: ENDBRANCH  25  26
DOCKED: ENDBRANCH  24  25
DOCKED: ENDBRANCH  21  24
DOCKED: BRANCH  22  33
DOCKED: ATOM     33  O   UNL     1     145.876  72.801 220.730 -0.34 -0.00    -0.391 OA 
DOCKED: ATOM     34  H   UNL     1     145.610  72.058 221.334 -0.42 -0.11    +0.211 HD 
DOCKED: ENDBRANCH  22  33
DOCKED: ENDBRANCH   1  19
DOCKED: TORSDOF 11
DOCKED: TER
DOCKED: ENDMDL
________________________________________________________________________________


    FINAL DOCKED STATE:
    ________________________


Run:   11 / 20
Time taken for this run:   0.070s

DOCKED: MODEL        11
DOCKED: USER    Run = 11
DOCKED: USER
DOCKED: USER    Estimated Free Energy of Binding    =  -7.71 kcal/mol  [=(1)+(2)+(3)-(4)]
DOCKED: USER
DOCKED: USER    (1) Final Intermolecular Energy     = -11.00 kcal/mol
DOCKED: USER        vdW + Hbond + desolv Energy     = -11.00 kcal/mol
DOCKED: USER        Electrostatic Energy            =  +0.01 kcal/mol
DOCKED: USER        Moving Ligand-Fixed Receptor    = -11.00 kcal/mol
DOCKED: USER        Moving Ligand-Moving Receptor   =  +0.00 kcal/mol
DOCKED: USER    (2) Final Total Internal Energy     =  -2.36 kcal/mol
DOCKED: USER    (3) Torsional Free Energy           =  +3.28 kcal/mol
DOCKED: USER    (4) Unbound System's Energy         =  -2.36 kcal/mol
DOCKED: USER
DOCKED: USER
DOCKED: REMARK SMILES O=C([N-]/C=C(\O)N1C[C@H](O)C[C@H]1COCc1ccccc1)c1ccc2cc(Cl)ccc2n1
DOCKED: REMARK SMILES IDX 5 1 6 2 4 4 3 5 2 6 1 7 22 8 32 9 23 10 31 11 24 12 30 13
DOCKED: REMARK SMILES IDX 25 14 29 15 26 16 27 17 28 18 7 19 8 20 12 21 9 22 11 23
DOCKED: REMARK SMILES IDX 13 24 14 25 15 26 16 27 17 28 21 29 18 30 20 31 19 32 10 33
DOCKED: REMARK H PARENT 6 3 10 34
DOCKED: USER                              x       y       z     vdW  Elec       q    Type
DOCKED: USER                           _______ _______ _______ _____ _____    ______ ____
DOCKED: ROOT
DOCKED: ATOM      1  C   UNL     1     139.650  74.250 221.376 -0.20 -0.03    +0.164 C  
DOCKED: ENDROOT
DOCKED: BRANCH   1   2
DOCKED: ATOM      2  O   UNL     1     139.841  73.774 222.677 -0.60 +0.02    -0.496 OA 
DOCKED: ATOM      3  H   UNL     1     139.268  73.053 223.094 -0.37 -0.11    +0.295 HD 
DOCKED: ENDBRANCH   1   2
DOCKED: BRANCH   1   4
DOCKED: ATOM      4  C   UNL     1     138.888  73.570 220.497 -0.09 +0.01    -0.069 C  
DOCKED: BRANCH   4   5
DOCKED: ATOM      5  N   UNL     1     138.415  72.240 220.740 +0.04 +0.12    -0.623 NA 
DOCKED: BRANCH   5   6
DOCKED: ATOM      6  C   UNL     1     139.225  71.076 220.971 -0.09 -0.02    +0.104 C  
DOCKED: ATOM      7  O   UNL     1     139.884  70.607 220.006 -0.04 +0.05    -0.313 OA 
DOCKED: BRANCH   6   8
DOCKED: ATOM      8  C   UNL     1     139.329  70.434 222.305 -0.17 -0.02    +0.089 A  
DOCKED: ATOM      9  N   UNL     1     140.019  71.047 223.306 -0.20 +0.04    -0.246 NA 
DOCKED: ATOM     10  C   UNL     1     138.725  69.189 222.551 -0.19 -0.01    +0.031 A  
DOCKED: ATOM     11  C   UNL     1     140.127  70.513 224.550 -0.38 -0.01    +0.071 A  
DOCKED: ATOM     12  C   UNL     1     138.824  68.608 223.819 -0.31 -0.00    +0.013 A  
DOCKED: ATOM     13  C   UNL     1     140.823  71.198 225.552 -0.57 -0.00    +0.030 A  
DOCKED: ATOM     14  C   UNL     1     139.525  69.269 224.835 -0.38 -0.00    +0.002 A  
DOCKED: ATOM     15  C   UNL     1     140.926  70.648 226.833 -0.61 -0.00    +0.023 A  
DOCKED: ATOM     16  C   UNL     1     139.635  68.721 226.121 -0.51 -0.00    +0.030 A  
DOCKED: ATOM     17  C   UNL     1     140.334  69.411 227.119 -0.56 -0.01    +0.041 A  
DOCKED: ATOM     18  Cl  UNL     1     140.471  68.727 228.728 -0.62 +0.02    -0.084 Cl 
DOCKED: ENDBRANCH   6   8
DOCKED: ENDBRANCH   5   6
DOCKED: ENDBRANCH   4   5
DOCKED: ENDBRANCH   1   4
DOCKED: BRANCH   1  19
DOCKED: ATOM     19  N   UNL     1     140.286  75.491 221.001 -0.11 +0.08    -0.337 N  
DOCKED: ATOM     20  C   UNL     1     141.142  75.657 219.833 -0.14 -0.05    +0.151 C  
DOCKED: ATOM     21  C   UNL     1     140.292  76.662 221.872 -0.32 -0.03    +0.113 C  
DOCKED: ATOM     22  C   UNL     1     141.680  77.087 219.910 -0.22 -0.07    +0.136 C  
DOCKED: ATOM     23  C   UNL     1     141.411  77.565 221.341 -0.28 -0.03    +0.061 C  
DOCKED: BRANCH  21  24
DOCKED: ATOM     24  C   UNL     1     138.921  77.354 221.846 -0.19 -0.04    +0.185 C  
DOCKED: BRANCH  24  25
DOCKED: ATOM     25  O   UNL     1     138.714  78.060 223.058 -0.16 +0.06    -0.375 OA 
DOCKED: BRANCH  25  26
DOCKED: ATOM     26  C   UNL     1     138.729  79.457 222.847 -0.22 -0.03    +0.195 C  
DOCKED: BRANCH  26  27
DOCKED: ATOM     27  C   UNL     1     140.137  79.982 222.937 -0.38 +0.00    -0.022 A  
DOCKED: ATOM     28  C   UNL     1     141.036  79.421 223.859 -0.55 -0.00    +0.006 A  
DOCKED: ATOM     29  C   UNL     1     140.578  81.003 222.078 -0.34 -0.00    +0.006 A  
DOCKED: ATOM     30  C   UNL     1     142.353  79.886 223.930 -0.59 -0.00    +0.000 A  
DOCKED: ATOM     31  C   UNL     1     141.897  81.462 222.151 -0.45 -0.00    +0.000 A  
DOCKED: ATOM     32  C   UNL     1     142.783  80.906 223.078 -0.55 -0.00    +0.000 A  
DOCKED: ENDBRANCH  26  27
DOCKED: ENDBRANCH  25  26
DOCKED: ENDBRANCH  24  25
DOCKED: ENDBRANCH  21  24
DOCKED: BRANCH  22  33
DOCKED: ATOM     33  O   UNL     1     143.043  77.162 219.571 -0.20 +0.31    -0.391 OA 
DOCKED: ATOM     34  H   UNL     1     143.570  77.163 220.413 -0.44 -0.24    +0.211 HD 
DOCKED: ENDBRANCH  22  33
DOCKED: ENDBRANCH   1  19
DOCKED: TORSDOF 11
DOCKED: TER
DOCKED: ENDMDL
________________________________________________________________________________


    FINAL DOCKED STATE:
    ________________________


Run:   12 / 20
Time taken for this run:   0.070s

DOCKED: MODEL        12
DOCKED: USER    Run = 12
DOCKED: USER
DOCKED: USER    Estimated Free Energy of Binding    =  -8.39 kcal/mol  [=(1)+(2)+(3)-(4)]
DOCKED: USER
DOCKED: USER    (1) Final Intermolecular Energy     = -11.68 kcal/mol
DOCKED: USER        vdW + Hbond + desolv Energy     = -11.58 kcal/mol
DOCKED: USER        Electrostatic Energy            =  -0.09 kcal/mol
DOCKED: USER        Moving Ligand-Fixed Receptor    = -11.68 kcal/mol
DOCKED: USER        Moving Ligand-Moving Receptor   =  +0.00 kcal/mol
DOCKED: USER    (2) Final Total Internal Energy     =  -2.34 kcal/mol
DOCKED: USER    (3) Torsional Free Energy           =  +3.28 kcal/mol
DOCKED: USER    (4) Unbound System's Energy         =  -2.34 kcal/mol
DOCKED: USER
DOCKED: USER
DOCKED: REMARK SMILES O=C([N-]/C=C(\O)N1C[C@H](O)C[C@H]1COCc1ccccc1)c1ccc2cc(Cl)ccc2n1
DOCKED: REMARK SMILES IDX 5 1 6 2 4 4 3 5 2 6 1 7 22 8 32 9 23 10 31 11 24 12 30 13
DOCKED: REMARK SMILES IDX 25 14 29 15 26 16 27 17 28 18 7 19 8 20 12 21 9 22 11 23
DOCKED: REMARK SMILES IDX 13 24 14 25 15 26 16 27 17 28 21 29 18 30 20 31 19 32 10 33
DOCKED: REMARK H PARENT 6 3 10 34
DOCKED: USER                              x       y       z     vdW  Elec       q    Type
DOCKED: USER                           _______ _______ _______ _____ _____    ______ ____
DOCKED: ROOT
DOCKED: ATOM      1  C   UNL     1     141.328  72.992 220.926 -0.19 -0.02    +0.164 C  
DOCKED: ENDROOT
DOCKED: BRANCH   1   2
DOCKED: ATOM      2  O   UNL     1     141.003  73.359 222.235 -0.48 -0.02    -0.496 OA 
DOCKED: ATOM      3  H   UNL     1     140.088  73.216 222.642 +0.02 -0.02    +0.295 HD 
DOCKED: ENDBRANCH   1   2
DOCKED: BRANCH   1   4
DOCKED: ATOM      4  C   UNL     1     140.422  72.387 220.134 -0.10 +0.01    -0.069 C  
DOCKED: BRANCH   4   5
DOCKED: ATOM      5  N   UNL     1     139.170  71.888 220.619 +0.03 +0.11    -0.623 NA 
DOCKED: BRANCH   5   6
DOCKED: ATOM      6  C   UNL     1     138.634  72.071 221.938 -0.15 -0.02    +0.104 C  
DOCKED: ATOM      7  O   UNL     1     137.844  73.033 222.133 -0.10 +0.10    -0.313 OA 
DOCKED: BRANCH   6   8
DOCKED: ATOM      8  C   UNL     1     138.957  71.156 223.061 -0.24 -0.02    +0.089 A  
DOCKED: ATOM      9  N   UNL     1     139.705  71.598 224.109 -0.24 +0.06    -0.246 NA 
DOCKED: ATOM     10  C   UNL     1     138.501  69.826 223.057 -0.21 -0.01    +0.031 A  
DOCKED: ATOM     11  C   UNL     1     140.011  70.808 225.171 -0.45 -0.01    +0.071 A  
DOCKED: ATOM     12  C   UNL     1     138.806  68.985 224.131 -0.32 -0.00    +0.013 A  
DOCKED: ATOM     13  C   UNL     1     140.760  71.321 226.235 -0.63 -0.00    +0.030 A  
DOCKED: ATOM     14  C   UNL     1     139.563  69.471 225.203 -0.41 -0.00    +0.002 A  
DOCKED: ATOM     15  C   UNL     1     141.067  70.506 227.330 -0.60 -0.00    +0.023 A  
DOCKED: ATOM     16  C   UNL     1     139.877  68.658 226.303 -0.54 -0.00    +0.030 A  
DOCKED: ATOM     17  C   UNL     1     140.628  69.177 227.365 -0.58 -0.01    +0.041 A  
DOCKED: ATOM     18  Cl  UNL     1     141.020  68.162 228.740 -0.68 +0.02    -0.084 Cl 
DOCKED: ENDBRANCH   6   8
DOCKED: ENDBRANCH   5   6
DOCKED: ENDBRANCH   4   5
DOCKED: ENDBRANCH   1   4
DOCKED: BRANCH   1  19
DOCKED: ATOM     19  N   UNL     1     142.658  73.283 220.443 -0.10 +0.06    -0.337 N  
DOCKED: ATOM     20  C   UNL     1     143.512  72.323 219.754 -0.18 -0.02    +0.151 C  
DOCKED: ATOM     21  C   UNL     1     143.359  74.519 220.777 -0.12 -0.04    +0.113 C  
DOCKED: ATOM     22  C   UNL     1     144.852  73.031 219.548 -0.31 -0.00    +0.136 C  
DOCKED: ATOM     23  C   UNL     1     144.837  74.248 220.479 -0.47 -0.02    +0.061 C  
DOCKED: BRANCH  21  24
DOCKED: ATOM     24  C   UNL     1     142.801  75.689 219.951 -0.24 -0.10    +0.185 C  
DOCKED: BRANCH  24  25
DOCKED: ATOM     25  O   UNL     1     141.824  76.387 220.704 -0.15 +0.20    -0.375 OA 
DOCKED: BRANCH  25  26
DOCKED: ATOM     26  C   UNL     1     141.758  77.746 220.322 -0.22 -0.12    +0.195 C  
DOCKED: BRANCH  26  27
DOCKED: ATOM     27  C   UNL     1     141.791  78.631 221.540 -0.39 +0.01    -0.022 A  
DOCKED: ATOM     28  C   UNL     1     141.440  78.109 222.795 -0.47 -0.00    +0.006 A  
DOCKED: ATOM     29  C   UNL     1     142.210  79.969 221.442 -0.39 -0.00    +0.006 A  
DOCKED: ATOM     30  C   UNL     1     141.494  78.917 223.935 -0.59 -0.00    +0.000 A  
DOCKED: ATOM     31  C   UNL     1     142.265  80.773 222.586 -0.57 -0.00    +0.000 A  
DOCKED: ATOM     32  C   UNL     1     141.905  80.249 223.829 -0.62 -0.00    +0.000 A  
DOCKED: ENDBRANCH  26  27
DOCKED: ENDBRANCH  25  26
DOCKED: ENDBRANCH  24  25
DOCKED: ENDBRANCH  21  24
DOCKED: BRANCH  22  33
DOCKED: ATOM     33  O   UNL     1     145.946  72.182 219.797 -0.51 -0.20    -0.391 OA 
DOCKED: ATOM     34  H   UNL     1     145.851  71.822 220.718 -0.37 -0.03    +0.211 HD 
DOCKED: ENDBRANCH  22  33
DOCKED: ENDBRANCH   1  19
DOCKED: TORSDOF 11
DOCKED: TER
DOCKED: ENDMDL
________________________________________________________________________________


    FINAL DOCKED STATE:
    ________________________


Run:   13 / 20
Time taken for this run:   0.070s

DOCKED: MODEL        13
DOCKED: USER    Run = 13
DOCKED: USER
DOCKED: USER    Estimated Free Energy of Binding    =  -7.87 kcal/mol  [=(1)+(2)+(3)-(4)]
DOCKED: USER
DOCKED: USER    (1) Final Intermolecular Energy     = -11.16 kcal/mol
DOCKED: USER        vdW + Hbond + desolv Energy     = -11.17 kcal/mol
DOCKED: USER        Electrostatic Energy            =  +0.01 kcal/mol
DOCKED: USER        Moving Ligand-Fixed Receptor    = -11.16 kcal/mol
DOCKED: USER        Moving Ligand-Moving Receptor   =  +0.00 kcal/mol
DOCKED: USER    (2) Final Total Internal Energy     =  -2.45 kcal/mol
DOCKED: USER    (3) Torsional Free Energy           =  +3.28 kcal/mol
DOCKED: USER    (4) Unbound System's Energy         =  -2.45 kcal/mol
DOCKED: USER
DOCKED: USER
DOCKED: REMARK SMILES O=C([N-]/C=C(\O)N1C[C@H](O)C[C@H]1COCc1ccccc1)c1ccc2cc(Cl)ccc2n1
DOCKED: REMARK SMILES IDX 5 1 6 2 4 4 3 5 2 6 1 7 22 8 32 9 23 10 31 11 24 12 30 13
DOCKED: REMARK SMILES IDX 25 14 29 15 26 16 27 17 28 18 7 19 8 20 12 21 9 22 11 23
DOCKED: REMARK SMILES IDX 13 24 14 25 15 26 16 27 17 28 21 29 18 30 20 31 19 32 10 33
DOCKED: REMARK H PARENT 6 3 10 34
DOCKED: USER                              x       y       z     vdW  Elec       q    Type
DOCKED: USER                           _______ _______ _______ _____ _____    ______ ____
DOCKED: ROOT
DOCKED: ATOM      1  C   UNL     1     139.410  74.458 221.643 -0.21 -0.03    +0.164 C  
DOCKED: ENDROOT
DOCKED: BRANCH   1   2
DOCKED: ATOM      2  O   UNL     1     139.940  73.741 222.720 -0.62 -0.01    -0.496 OA 
DOCKED: ATOM      3  H   UNL     1     139.406  73.075 223.262 -0.34 -0.11    +0.295 HD 
DOCKED: ENDBRANCH   1   2
DOCKED: BRANCH   1   4
DOCKED: ATOM      4  C   UNL     1     138.232  74.106 221.093 -0.13 +0.02    -0.069 C  
DOCKED: BRANCH   4   5
DOCKED: ATOM      5  N   UNL     1     137.409  73.056 221.616 +0.02 +0.15    -0.623 NA 
DOCKED: BRANCH   5   6
DOCKED: ATOM      6  C   UNL     1     137.687  71.648 221.559 -0.09 -0.02    +0.104 C  
DOCKED: ATOM      7  O   UNL     1     137.542  71.055 220.458 -0.01 +0.06    -0.313 OA 
DOCKED: BRANCH   6   8
DOCKED: ATOM      8  C   UNL     1     138.161  70.884 222.740 -0.16 -0.02    +0.089 A  
DOCKED: ATOM      9  N   UNL     1     139.105  71.417 223.564 -0.19 +0.06    -0.246 NA 
DOCKED: ATOM     10  C   UNL     1     137.648  69.606 223.021 -0.18 -0.00    +0.031 A  
DOCKED: ATOM     11  C   UNL     1     139.557  70.769 224.669 -0.39 -0.01    +0.071 A  
DOCKED: ATOM     12  C   UNL     1     138.099  68.910 224.147 -0.30 -0.00    +0.013 A  
DOCKED: ATOM     13  C   UNL     1     140.508  71.374 225.499 -0.54 -0.00    +0.030 A  
DOCKED: ATOM     14  C   UNL     1     139.059  69.489 224.986 -0.39 -0.00    +0.002 A  
DOCKED: ATOM     15  C   UNL     1     140.966  70.707 226.639 -0.61 -0.00    +0.023 A  
DOCKED: ATOM     16  C   UNL     1     139.524  68.823 226.130 -0.50 -0.00    +0.030 A  
DOCKED: ATOM     17  C   UNL     1     140.477  69.434 226.955 -0.54 -0.01    +0.041 A  
DOCKED: ATOM     18  Cl  UNL     1     141.059  68.603 228.385 -0.76 +0.02    -0.084 Cl 
DOCKED: ENDBRANCH   6   8
DOCKED: ENDBRANCH   5   6
DOCKED: ENDBRANCH   4   5
DOCKED: ENDBRANCH   1   4
DOCKED: BRANCH   1  19
DOCKED: ATOM     19  N   UNL     1     140.155  75.587 221.139 -0.12 +0.08    -0.337 N  
DOCKED: ATOM     20  C   UNL     1     141.010  75.549 219.959 -0.14 -0.05    +0.151 C  
DOCKED: ATOM     21  C   UNL     1     140.281  76.837 221.882 -0.32 -0.03    +0.113 C  
DOCKED: ATOM     22  C   UNL     1     141.681  76.922 219.885 -0.22 -0.07    +0.136 C  
DOCKED: ATOM     23  C   UNL     1     141.473  77.570 221.258 -0.27 -0.03    +0.061 C  
DOCKED: BRANCH  21  24
DOCKED: ATOM     24  C   UNL     1     138.980  77.649 221.786 -0.17 -0.04    +0.185 C  
DOCKED: BRANCH  24  25
DOCKED: ATOM     25  O   UNL     1     138.533  78.000 223.084 -0.16 +0.06    -0.375 OA 
DOCKED: BRANCH  25  26
DOCKED: ATOM     26  C   UNL     1     138.620  79.394 223.297 -0.24 -0.03    +0.195 C  
DOCKED: BRANCH  26  27
DOCKED: ATOM     27  C   UNL     1     140.046  79.856 223.148 -0.40 +0.00    -0.022 A  
DOCKED: ATOM     28  C   UNL     1     140.370  80.830 222.189 -0.33 -0.00    +0.006 A  
DOCKED: ATOM     29  C   UNL     1     141.053  79.352 223.987 -0.51 -0.00    +0.006 A  
DOCKED: ATOM     30  C   UNL     1     141.687  81.282 222.063 -0.47 -0.00    +0.000 A  
DOCKED: ATOM     31  C   UNL     1     142.369  79.810 223.859 -0.61 -0.00    +0.000 A  
DOCKED: ATOM     32  C   UNL     1     142.686  80.771 222.896 -0.59 -0.00    +0.000 A  
DOCKED: ENDBRANCH  26  27
DOCKED: ENDBRANCH  25  26
DOCKED: ENDBRANCH  24  25
DOCKED: ENDBRANCH  21  24
DOCKED: BRANCH  22  33
DOCKED: ATOM     33  O   UNL     1     143.040  76.832 219.538 -0.23 +0.28    -0.391 OA 
DOCKED: ATOM     34  H   UNL     1     143.564  77.335 220.215 -0.46 -0.24    +0.211 HD 
DOCKED: ENDBRANCH  22  33
DOCKED: ENDBRANCH   1  19
DOCKED: TORSDOF 11
DOCKED: TER
DOCKED: ENDMDL
________________________________________________________________________________


    FINAL DOCKED STATE:
    ________________________


Run:   14 / 20
Time taken for this run:   0.070s

DOCKED: MODEL        14
DOCKED: USER    Run = 14
DOCKED: USER
DOCKED: USER    Estimated Free Energy of Binding    =  -7.89 kcal/mol  [=(1)+(2)+(3)-(4)]
DOCKED: USER
DOCKED: USER    (1) Final Intermolecular Energy     = -11.17 kcal/mol
DOCKED: USER        vdW + Hbond + desolv Energy     = -11.28 kcal/mol
DOCKED: USER        Electrostatic Energy            =  +0.11 kcal/mol
DOCKED: USER        Moving Ligand-Fixed Receptor    = -11.17 kcal/mol
DOCKED: USER        Moving Ligand-Moving Receptor   =  +0.00 kcal/mol
DOCKED: USER    (2) Final Total Internal Energy     =  -2.55 kcal/mol
DOCKED: USER    (3) Torsional Free Energy           =  +3.28 kcal/mol
DOCKED: USER    (4) Unbound System's Energy         =  -2.55 kcal/mol
DOCKED: USER
DOCKED: USER
DOCKED: REMARK SMILES O=C([N-]/C=C(\O)N1C[C@H](O)C[C@H]1COCc1ccccc1)c1ccc2cc(Cl)ccc2n1
DOCKED: REMARK SMILES IDX 5 1 6 2 4 4 3 5 2 6 1 7 22 8 32 9 23 10 31 11 24 12 30 13
DOCKED: REMARK SMILES IDX 25 14 29 15 26 16 27 17 28 18 7 19 8 20 12 21 9 22 11 23
DOCKED: REMARK SMILES IDX 13 24 14 25 15 26 16 27 17 28 21 29 18 30 20 31 19 32 10 33
DOCKED: REMARK H PARENT 6 3 10 34
DOCKED: USER                              x       y       z     vdW  Elec       q    Type
DOCKED: USER                           _______ _______ _______ _____ _____    ______ ____
DOCKED: ROOT
DOCKED: ATOM      1  C   UNL     1     140.298  75.938 221.956 -0.29 -0.04    +0.164 C  
DOCKED: ENDROOT
DOCKED: BRANCH   1   2
DOCKED: ATOM      2  O   UNL     1     139.192  75.748 222.790 -0.26 +0.09    -0.496 OA 
DOCKED: ATOM      3  H   UNL     1     138.806  74.837 223.002 -0.46 -0.13    +0.295 HD 
DOCKED: ENDBRANCH   1   2
DOCKED: BRANCH   1   4
DOCKED: ATOM      4  C   UNL     1     140.835  74.907 221.275 -0.29 +0.01    -0.069 C  
DOCKED: BRANCH   4   5
DOCKED: ATOM      5  N   UNL     1     140.843  73.563 221.772 -0.33 +0.04    -0.623 NA 
DOCKED: BRANCH   5   6
DOCKED: ATOM      6  C   UNL     1     139.710  72.829 222.261 -0.24 -0.02    +0.104 C  
DOCKED: ATOM      7  O   UNL     1     138.580  73.073 221.760 -0.12 +0.08    -0.313 OA 
DOCKED: BRANCH   6   8
DOCKED: ATOM      8  C   UNL     1     139.832  71.784 223.308 -0.31 -0.02    +0.089 A  
DOCKED: ATOM      9  N   UNL     1     140.346  72.098 224.529 -0.10 +0.04    -0.246 NA 
DOCKED: ATOM     10  C   UNL     1     139.425  70.463 223.054 -0.25 -0.01    +0.031 A  
DOCKED: ATOM     11  C   UNL     1     140.460  71.185 225.528 -0.52 -0.01    +0.071 A  
DOCKED: ATOM     12  C   UNL     1     139.537  69.498 224.059 -0.29 -0.00    +0.013 A  
DOCKED: ATOM     13  C   UNL     1     140.969  71.567 226.774 -0.71 -0.00    +0.030 A  
DOCKED: ATOM     14  C   UNL     1     140.054  69.852 225.311 -0.44 -0.00    +0.002 A  
DOCKED: ATOM     15  C   UNL     1     141.078  70.626 227.803 -0.63 -0.00    +0.023 A  
DOCKED: ATOM     16  C   UNL     1     140.169  68.912 226.346 -0.53 -0.01    +0.030 A  
DOCKED: ATOM     17  C   UNL     1     140.680  69.301 227.591 -0.59 -0.01    +0.041 A  
DOCKED: ATOM     18  Cl  UNL     1     140.823  68.126 228.885 -0.50 +0.02    -0.084 Cl 
DOCKED: ENDBRANCH   6   8
DOCKED: ENDBRANCH   5   6
DOCKED: ENDBRANCH   4   5
DOCKED: ENDBRANCH   1   4
DOCKED: BRANCH   1  19
DOCKED: ATOM     19  N   UNL     1     140.846  77.269 221.839 -0.18 +0.13    -0.337 N  
DOCKED: ATOM     20  C   UNL     1     141.435  78.016 222.942 -0.33 -0.06    +0.151 C  
DOCKED: ATOM     21  C   UNL     1     140.682  78.080 220.636 -0.19 -0.04    +0.113 C  
DOCKED: ATOM     22  C   UNL     1     141.760  79.402 222.382 -0.44 -0.05    +0.136 C  
DOCKED: ATOM     23  C   UNL     1     140.983  79.520 221.066 -0.27 -0.02    +0.061 C  
DOCKED: BRANCH  21  24
DOCKED: ATOM     24  C   UNL     1     141.628  77.591 219.529 -0.19 -0.10    +0.185 C  
DOCKED: BRANCH  24  25
DOCKED: ATOM     25  O   UNL     1     142.707  76.872 220.100 -0.21 +0.28    -0.375 OA 
DOCKED: BRANCH  25  26
DOCKED: ATOM     26  C   UNL     1     143.418  76.148 219.116 -0.25 -0.12    +0.195 C  
DOCKED: BRANCH  26  27
DOCKED: ATOM     27  C   UNL     1     143.801  74.791 219.645 -0.37 +0.01    -0.022 A  
DOCKED: ATOM     28  C   UNL     1     144.933  74.653 220.465 -0.43 -0.00    +0.006 A  
DOCKED: ATOM     29  C   UNL     1     143.014  73.663 219.360 -0.21 -0.00    +0.006 A  
DOCKED: ATOM     30  C   UNL     1     145.280  73.401 220.981 -0.62 -0.00    +0.000 A  
DOCKED: ATOM     31  C   UNL     1     143.364  72.412 219.881 -0.24 -0.00    +0.000 A  
DOCKED: ATOM     32  C   UNL     1     144.496  72.281 220.688 -0.38 -0.00    +0.000 A  
DOCKED: ENDBRANCH  26  27
DOCKED: ENDBRANCH  25  26
DOCKED: ENDBRANCH  24  25
DOCKED: ENDBRANCH  21  24
DOCKED: BRANCH  22  33
DOCKED: ATOM     33  O   UNL     1     141.438  80.431 223.285 -0.24 +0.08    -0.391 OA 
DOCKED: ATOM     34  H   UNL     1     140.957  80.025 224.054 +0.15 -0.04    +0.211 HD 
DOCKED: ENDBRANCH  22  33
DOCKED: ENDBRANCH   1  19
DOCKED: TORSDOF 11
DOCKED: TER
DOCKED: ENDMDL
________________________________________________________________________________


    FINAL DOCKED STATE:
    ________________________


Run:   15 / 20
Time taken for this run:   0.070s

DOCKED: MODEL        15
DOCKED: USER    Run = 15
DOCKED: USER
DOCKED: USER    Estimated Free Energy of Binding    =  -7.96 kcal/mol  [=(1)+(2)+(3)-(4)]
DOCKED: USER
DOCKED: USER    (1) Final Intermolecular Energy     = -11.24 kcal/mol
DOCKED: USER        vdW + Hbond + desolv Energy     = -11.23 kcal/mol
DOCKED: USER        Electrostatic Energy            =  -0.01 kcal/mol
DOCKED: USER        Moving Ligand-Fixed Receptor    = -11.24 kcal/mol
DOCKED: USER        Moving Ligand-Moving Receptor   =  +0.00 kcal/mol
DOCKED: USER    (2) Final Total Internal Energy     =  -2.36 kcal/mol
DOCKED: USER    (3) Torsional Free Energy           =  +3.28 kcal/mol
DOCKED: USER    (4) Unbound System's Energy         =  -2.36 kcal/mol
DOCKED: USER
DOCKED: USER
DOCKED: REMARK SMILES O=C([N-]/C=C(\O)N1C[C@H](O)C[C@H]1COCc1ccccc1)c1ccc2cc(Cl)ccc2n1
DOCKED: REMARK SMILES IDX 5 1 6 2 4 4 3 5 2 6 1 7 22 8 32 9 23 10 31 11 24 12 30 13
DOCKED: REMARK SMILES IDX 25 14 29 15 26 16 27 17 28 18 7 19 8 20 12 21 9 22 11 23
DOCKED: REMARK SMILES IDX 13 24 14 25 15 26 16 27 17 28 21 29 18 30 20 31 19 32 10 33
DOCKED: REMARK H PARENT 6 3 10 34
DOCKED: USER                              x       y       z     vdW  Elec       q    Type
DOCKED: USER                           _______ _______ _______ _____ _____    ______ ____
DOCKED: ROOT
DOCKED: ATOM      1  C   UNL     1     140.709  73.118 221.349 -0.21 -0.02    +0.164 C  
DOCKED: ENDROOT
DOCKED: BRANCH   1   2
DOCKED: ATOM      2  O   UNL     1     140.529  73.362 222.713 -0.53 -0.05    -0.496 OA 
DOCKED: ATOM      3  H   UNL     1     139.652  73.213 223.194 -0.31 -0.07    +0.295 HD 
DOCKED: ENDBRANCH   1   2
DOCKED: BRANCH   1   4
DOCKED: ATOM      4  C   UNL     1     139.685  72.697 220.582 -0.11 +0.01    -0.069 C  
DOCKED: BRANCH   4   5
DOCKED: ATOM      5  N   UNL     1     138.372  72.448 221.100 +0.03 +0.13    -0.623 NA 
DOCKED: BRANCH   5   6
DOCKED: ATOM      6  C   UNL     1     137.851  71.180 221.525 -0.08 -0.02    +0.104 C  
DOCKED: ATOM      7  O   UNL     1     136.963  70.633 220.818 -0.01 +0.05    -0.313 OA 
DOCKED: BRANCH   6   8
DOCKED: ATOM      8  C   UNL     1     138.338  70.489 222.744 -0.17 -0.02    +0.089 A  
DOCKED: ATOM      9  N   UNL     1     139.100  71.161 223.652 -0.19 +0.06    -0.246 NA 
DOCKED: ATOM     10  C   UNL     1     138.025  69.139 222.978 -0.20 -0.00    +0.031 A  
DOCKED: ATOM     11  C   UNL     1     139.554  70.582 224.794 -0.38 -0.01    +0.071 A  
DOCKED: ATOM     12  C   UNL     1     138.484  68.511 224.140 -0.32 -0.00    +0.013 A  
DOCKED: ATOM     13  C   UNL     1     140.310  71.325 225.706 -0.54 -0.01    +0.030 A  
DOCKED: ATOM     14  C   UNL     1     139.252  69.231 225.064 -0.40 -0.00    +0.002 A  
DOCKED: ATOM     15  C   UNL     1     140.769  70.728 226.884 -0.62 -0.00    +0.023 A  
DOCKED: ATOM     16  C   UNL     1     139.718  68.636 226.245 -0.53 -0.00    +0.030 A  
DOCKED: ATOM     17  C   UNL     1     140.475  69.386 227.155 -0.56 -0.01    +0.041 A  
DOCKED: ATOM     18  Cl  UNL     1     141.058  68.643 228.632 -0.69 +0.02    -0.084 Cl 
DOCKED: ENDBRANCH   6   8
DOCKED: ENDBRANCH   5   6
DOCKED: ENDBRANCH   4   5
DOCKED: ENDBRANCH   1   4
DOCKED: BRANCH   1  19
DOCKED: ATOM     19  N   UNL     1     142.019  73.335 220.782 -0.11 +0.06    -0.337 N  
DOCKED: ATOM     20  C   UNL     1     142.891  72.273 220.295 -0.19 -0.02    +0.151 C  
DOCKED: ATOM     21  C   UNL     1     142.686  74.633 220.823 -0.16 -0.04    +0.113 C  
DOCKED: ATOM     22  C   UNL     1     144.204  72.956 219.907 -0.28 -0.02    +0.136 C  
DOCKED: ATOM     23  C   UNL     1     144.167  74.346 220.553 -0.35 -0.02    +0.061 C  
DOCKED: BRANCH  21  24
DOCKED: ATOM     24  C   UNL     1     142.075  75.580 219.779 -0.20 -0.08    +0.185 C  
DOCKED: BRANCH  24  25
DOCKED: ATOM     25  O   UNL     1     142.340  76.926 220.134 -0.18 +0.25    -0.375 OA 
DOCKED: BRANCH  25  26
DOCKED: ATOM     26  C   UNL     1     141.185  77.559 220.646 -0.20 -0.09    +0.195 C  
DOCKED: BRANCH  26  27
DOCKED: ATOM     27  C   UNL     1     141.559  78.508 221.754 -0.39 +0.01    -0.022 A  
DOCKED: ATOM     28  C   UNL     1     141.384  78.125 223.094 -0.51 -0.00    +0.006 A  
DOCKED: ATOM     29  C   UNL     1     142.123  79.761 221.463 -0.39 -0.00    +0.006 A  
DOCKED: ATOM     30  C   UNL     1     141.753  78.991 224.128 -0.59 -0.00    +0.000 A  
DOCKED: ATOM     31  C   UNL     1     142.494  80.623 222.501 -0.57 -0.00    +0.000 A  
DOCKED: ATOM     32  C   UNL     1     142.307  80.239 223.831 -0.65 -0.00    +0.000 A  
DOCKED: ENDBRANCH  26  27
DOCKED: ENDBRANCH  25  26
DOCKED: ENDBRANCH  24  25
DOCKED: ENDBRANCH  21  24
DOCKED: BRANCH  22  33
DOCKED: ATOM     33  O   UNL     1     145.329  72.213 220.306 -0.21 -0.01    -0.391 OA 
DOCKED: ATOM     34  H   UNL     1     145.175  71.897 221.235 -0.40 -0.10    +0.211 HD 
DOCKED: ENDBRANCH  22  33
DOCKED: ENDBRANCH   1  19
DOCKED: TORSDOF 11
DOCKED: TER
DOCKED: ENDMDL
________________________________________________________________________________


    FINAL DOCKED STATE:
    ________________________


Run:   16 / 20
Time taken for this run:   0.070s

DOCKED: MODEL        16
DOCKED: USER    Run = 16
DOCKED: USER
DOCKED: USER    Estimated Free Energy of Binding    =  -7.87 kcal/mol  [=(1)+(2)+(3)-(4)]
DOCKED: USER
DOCKED: USER    (1) Final Intermolecular Energy     = -11.15 kcal/mol
DOCKED: USER        vdW + Hbond + desolv Energy     = -11.07 kcal/mol
DOCKED: USER        Electrostatic Energy            =  -0.07 kcal/mol
DOCKED: USER        Moving Ligand-Fixed Receptor    = -11.15 kcal/mol
DOCKED: USER        Moving Ligand-Moving Receptor   =  +0.00 kcal/mol
DOCKED: USER    (2) Final Total Internal Energy     =  -1.99 kcal/mol
DOCKED: USER    (3) Torsional Free Energy           =  +3.28 kcal/mol
DOCKED: USER    (4) Unbound System's Energy         =  -1.99 kcal/mol
DOCKED: USER
DOCKED: USER
DOCKED: REMARK SMILES O=C([N-]/C=C(\O)N1C[C@H](O)C[C@H]1COCc1ccccc1)c1ccc2cc(Cl)ccc2n1
DOCKED: REMARK SMILES IDX 5 1 6 2 4 4 3 5 2 6 1 7 22 8 32 9 23 10 31 11 24 12 30 13
DOCKED: REMARK SMILES IDX 25 14 29 15 26 16 27 17 28 18 7 19 8 20 12 21 9 22 11 23
DOCKED: REMARK SMILES IDX 13 24 14 25 15 26 16 27 17 28 21 29 18 30 20 31 19 32 10 33
DOCKED: REMARK H PARENT 6 3 10 34
DOCKED: USER                              x       y       z     vdW  Elec       q    Type
DOCKED: USER                           _______ _______ _______ _____ _____    ______ ____
DOCKED: ROOT
DOCKED: ATOM      1  C   UNL     1     141.658  71.902 219.849 -0.09 -0.02    +0.164 C  
DOCKED: ENDROOT
DOCKED: BRANCH   1   2
DOCKED: ATOM      2  O   UNL     1     141.875  70.573 220.224 -0.01 +0.06    -0.496 OA 
DOCKED: ATOM      3  H   UNL     1     141.135  69.952 220.523 +0.08 -0.04    +0.295 HD 
DOCKED: ENDBRANCH   1   2
DOCKED: BRANCH   1   4
DOCKED: ATOM      4  C   UNL     1     140.413  72.359 219.617 -0.06 +0.01    -0.069 C  
DOCKED: BRANCH   4   5
DOCKED: ATOM      5  N   UNL     1     139.456  72.583 220.659 +0.03 +0.12    -0.623 NA 
DOCKED: BRANCH   5   6
DOCKED: ATOM      6  C   UNL     1     139.747  72.908 222.028 -0.24 -0.02    +0.104 C  
DOCKED: ATOM      7  O   UNL     1     139.896  74.121 222.333 -0.82 +0.02    -0.313 OA 
DOCKED: BRANCH   6   8
DOCKED: ATOM      8  C   UNL     1     139.851  71.873 223.085 -0.31 -0.02    +0.089 A  
DOCKED: ATOM      9  N   UNL     1     140.373  72.189 224.302 -0.11 +0.04    -0.246 NA 
DOCKED: ATOM     10  C   UNL     1     139.418  70.557 222.847 -0.24 -0.01    +0.031 A  
DOCKED: ATOM     11  C   UNL     1     140.471  71.285 225.311 -0.50 -0.01    +0.071 A  
DOCKED: ATOM     12  C   UNL     1     139.512  69.600 223.862 -0.27 -0.00    +0.013 A  
DOCKED: ATOM     13  C   UNL     1     140.989  71.670 226.552 -0.69 -0.00    +0.030 A  
DOCKED: ATOM     14  C   UNL     1     140.038  69.958 225.109 -0.43 -0.00    +0.002 A  
DOCKED: ATOM     15  C   UNL     1     141.082  70.738 227.591 -0.63 -0.00    +0.023 A  
DOCKED: ATOM     16  C   UNL     1     140.137  69.027 226.153 -0.51 -0.01    +0.030 A  
DOCKED: ATOM     17  C   UNL     1     140.657  69.418 227.393 -0.57 -0.01    +0.041 A  
DOCKED: ATOM     18  Cl  UNL     1     140.780  68.255 228.699 -0.67 +0.02    -0.084 Cl 
DOCKED: ENDBRANCH   6   8
DOCKED: ENDBRANCH   5   6
DOCKED: ENDBRANCH   4   5
DOCKED: ENDBRANCH   1   4
DOCKED: BRANCH   1  19
DOCKED: ATOM     19  N   UNL     1     142.803  72.773 219.722 -0.05 +0.06    -0.337 N  
DOCKED: ATOM     20  C   UNL     1     143.774  72.703 218.638 -0.11 -0.01    +0.151 C  
DOCKED: ATOM     21  C   UNL     1     143.212  73.688 220.784 -0.20 -0.03    +0.113 C  
DOCKED: ATOM     22  C   UNL     1     144.861  73.722 218.986 -0.17 -0.02    +0.136 C  
DOCKED: ATOM     23  C   UNL     1     144.662  74.067 220.466 -0.48 -0.02    +0.061 C  
DOCKED: BRANCH  21  24
DOCKED: ATOM     24  C   UNL     1     142.282  74.911 220.822 -0.17 -0.07    +0.185 C  
DOCKED: BRANCH  24  25
DOCKED: ATOM     25  O   UNL     1     142.859  75.977 220.088 -0.21 +0.23    -0.375 OA 
DOCKED: BRANCH  25  26
DOCKED: ATOM     26  C   UNL     1     141.890  76.948 219.748 -0.21 -0.11    +0.195 C  
DOCKED: BRANCH  26  27
DOCKED: ATOM     27  C   UNL     1     141.410  77.660 220.985 -0.31 +0.01    -0.022 A  
DOCKED: ATOM     28  C   UNL     1     140.193  77.288 221.580 -0.30 -0.00    +0.006 A  
DOCKED: ATOM     29  C   UNL     1     142.187  78.669 221.578 -0.30 -0.00    +0.006 A  
DOCKED: ATOM     30  C   UNL     1     139.754  77.926 222.744 -0.34 -0.00    +0.000 A  
DOCKED: ATOM     31  C   UNL     1     141.745  79.303 222.744 -0.55 -0.00    +0.000 A  
DOCKED: ATOM     32  C   UNL     1     140.529  78.934 223.325 -0.47 -0.00    +0.000 A  
DOCKED: ENDBRANCH  26  27
DOCKED: ENDBRANCH  25  26
DOCKED: ENDBRANCH  24  25
DOCKED: ENDBRANCH  21  24
DOCKED: BRANCH  22  33
DOCKED: ATOM     33  O   UNL     1     146.153  73.234 218.722 -0.69 -0.29    -0.391 OA 
DOCKED: ATOM     34  H   UNL     1     146.760  74.012 218.614 -0.47 +0.06    +0.211 HD 
DOCKED: ENDBRANCH  22  33
DOCKED: ENDBRANCH   1  19
DOCKED: TORSDOF 11
DOCKED: TER
DOCKED: ENDMDL
________________________________________________________________________________


    FINAL DOCKED STATE:
    ________________________


Run:   17 / 20
Time taken for this run:   0.070s

DOCKED: MODEL        17
DOCKED: USER    Run = 17
DOCKED: USER
DOCKED: USER    Estimated Free Energy of Binding    =  -7.58 kcal/mol  [=(1)+(2)+(3)-(4)]
DOCKED: USER
DOCKED: USER    (1) Final Intermolecular Energy     = -10.86 kcal/mol
DOCKED: USER        vdW + Hbond + desolv Energy     = -10.82 kcal/mol
DOCKED: USER        Electrostatic Energy            =  -0.04 kcal/mol
DOCKED: USER        Moving Ligand-Fixed Receptor    = -10.86 kcal/mol
DOCKED: USER        Moving Ligand-Moving Receptor   =  +0.00 kcal/mol
DOCKED: USER    (2) Final Total Internal Energy     =  -2.75 kcal/mol
DOCKED: USER    (3) Torsional Free Energy           =  +3.28 kcal/mol
DOCKED: USER    (4) Unbound System's Energy         =  -2.75 kcal/mol
DOCKED: USER
DOCKED: USER
DOCKED: REMARK SMILES O=C([N-]/C=C(\O)N1C[C@H](O)C[C@H]1COCc1ccccc1)c1ccc2cc(Cl)ccc2n1
DOCKED: REMARK SMILES IDX 5 1 6 2 4 4 3 5 2 6 1 7 22 8 32 9 23 10 31 11 24 12 30 13
DOCKED: REMARK SMILES IDX 25 14 29 15 26 16 27 17 28 18 7 19 8 20 12 21 9 22 11 23
DOCKED: REMARK SMILES IDX 13 24 14 25 15 26 16 27 17 28 21 29 18 30 20 31 19 32 10 33
DOCKED: REMARK H PARENT 6 3 10 34
DOCKED: USER                              x       y       z     vdW  Elec       q    Type
DOCKED: USER                           _______ _______ _______ _____ _____    ______ ____
DOCKED: ROOT
DOCKED: ATOM      1  C   UNL     1     135.710  70.152 223.020 -0.08 -0.02    +0.164 C  
DOCKED: ENDROOT
DOCKED: BRANCH   1   2
DOCKED: ATOM      2  O   UNL     1     134.784  71.094 222.559 +0.01 +0.07    -0.496 OA 
DOCKED: ATOM      3  H   UNL     1     134.145  71.589 223.167 +0.05 -0.04    +0.295 HD 
DOCKED: ENDBRANCH   1   2
DOCKED: BRANCH   1   4
DOCKED: ATOM      4  C   UNL     1     135.309  68.930 223.419 -0.14 +0.01    -0.069 C  
DOCKED: BRANCH   4   5
DOCKED: ATOM      5  N   UNL     1     135.117  68.582 224.796 -0.40 -0.02    -0.623 NA 
DOCKED: BRANCH   5   6
DOCKED: ATOM      6  C   UNL     1     134.028  68.997 225.635 -0.25 -0.01    +0.104 C  
DOCKED: ATOM      7  O   UNL     1     133.309  68.108 226.162 -0.74 +0.01    -0.313 OA 
DOCKED: BRANCH   6   8
DOCKED: ATOM      8  C   UNL     1     133.745  70.426 225.920 -0.25 -0.01    +0.089 A  
DOCKED: ATOM      9  N   UNL     1     134.486  71.401 225.324 -0.12 +0.02    -0.246 NA 
DOCKED: ATOM     10  C   UNL     1     132.717  70.791 226.806 -0.26 -0.00    +0.031 A  
DOCKED: ATOM     11  C   UNL     1     134.254  72.723 225.533 -0.25 -0.00    +0.071 A  
DOCKED: ATOM     12  C   UNL     1     132.458  72.143 227.049 -0.40 -0.00    +0.013 A  
DOCKED: ATOM     13  C   UNL     1     135.026  73.685 224.873 -0.26 -0.00    +0.030 A  
DOCKED: ATOM     14  C   UNL     1     133.225  73.125 226.410 -0.36 -0.00    +0.002 A  
DOCKED: ATOM     15  C   UNL     1     134.780  75.045 225.086 -0.36 -0.00    +0.023 A  
DOCKED: ATOM     16  C   UNL     1     132.985  74.491 226.622 -0.34 +0.00    +0.030 A  
DOCKED: ATOM     17  C   UNL     1     133.762  75.449 225.958 -0.34 -0.00    +0.041 A  
DOCKED: ATOM     18  Cl  UNL     1     133.462  77.156 226.222 -0.30 +0.01    -0.084 Cl 
DOCKED: ENDBRANCH   6   8
DOCKED: ENDBRANCH   5   6
DOCKED: ENDBRANCH   4   5
DOCKED: ENDBRANCH   1   4
DOCKED: BRANCH   1  19
DOCKED: ATOM     19  N   UNL     1     137.105  70.522 223.051 -0.05 +0.06    -0.337 N  
DOCKED: ATOM     20  C   UNL     1     137.599  71.842 223.421 +0.00 -0.05    +0.151 C  
DOCKED: ATOM     21  C   UNL     1     138.155  69.659 222.518 -0.14 -0.02    +0.113 C  
DOCKED: ATOM     22  C   UNL     1     139.110  71.803 223.190 -0.17 -0.04    +0.136 C  
DOCKED: ATOM     23  C   UNL     1     139.375  70.567 222.322 -0.19 -0.01    +0.061 C  
DOCKED: BRANCH  21  24
DOCKED: ATOM     24  C   UNL     1     138.438  68.502 223.489 -0.21 -0.02    +0.185 C  
DOCKED: BRANCH  24  25
DOCKED: ATOM     25  O   UNL     1     139.556  68.816 224.301 -0.14 +0.07    -0.375 OA 
DOCKED: BRANCH  25  26
DOCKED: ATOM     26  C   UNL     1     139.206  68.838 225.669 -0.35 -0.02    +0.195 C  
DOCKED: BRANCH  26  27
DOCKED: ATOM     27  C   UNL     1     139.897  69.981 226.365 -0.50 +0.00    -0.022 A  
DOCKED: ATOM     28  C   UNL     1     140.783  70.804 225.649 -0.58 -0.00    +0.006 A  
DOCKED: ATOM     29  C   UNL     1     139.636  70.261 227.716 -0.51 -0.00    +0.006 A  
DOCKED: ATOM     30  C   UNL     1     141.409  71.882 226.281 -0.66 -0.00    +0.000 A  
DOCKED: ATOM     31  C   UNL     1     140.263  71.343 228.344 -0.70 -0.00    +0.000 A  
DOCKED: ATOM     32  C   UNL     1     141.150  72.151 227.628 -0.83 -0.00    +0.000 A  
DOCKED: ENDBRANCH  26  27
DOCKED: ENDBRANCH  25  26
DOCKED: ENDBRANCH  24  25
DOCKED: ENDBRANCH  21  24
DOCKED: BRANCH  22  33
DOCKED: ATOM     33  O   UNL     1     139.589  72.983 222.595 -0.51 +0.08    -0.391 OA 
DOCKED: ATOM     34  H   UNL     1     139.038  73.740 222.926 -0.51 -0.10    +0.211 HD 
DOCKED: ENDBRANCH  22  33
DOCKED: ENDBRANCH   1  19
DOCKED: TORSDOF 11
DOCKED: TER
DOCKED: ENDMDL
________________________________________________________________________________


    FINAL DOCKED STATE:
    ________________________


Run:   18 / 20
Time taken for this run:   0.070s

DOCKED: MODEL        18
DOCKED: USER    Run = 18
DOCKED: USER
DOCKED: USER    Estimated Free Energy of Binding    =  -7.52 kcal/mol  [=(1)+(2)+(3)-(4)]
DOCKED: USER
DOCKED: USER    (1) Final Intermolecular Energy     = -10.80 kcal/mol
DOCKED: USER        vdW + Hbond + desolv Energy     = -10.90 kcal/mol
DOCKED: USER        Electrostatic Energy            =  +0.10 kcal/mol
DOCKED: USER        Moving Ligand-Fixed Receptor    = -10.80 kcal/mol
DOCKED: USER        Moving Ligand-Moving Receptor   =  +0.00 kcal/mol
DOCKED: USER    (2) Final Total Internal Energy     =  -1.88 kcal/mol
DOCKED: USER    (3) Torsional Free Energy           =  +3.28 kcal/mol
DOCKED: USER    (4) Unbound System's Energy         =  -1.88 kcal/mol
DOCKED: USER
DOCKED: USER
DOCKED: REMARK SMILES O=C([N-]/C=C(\O)N1C[C@H](O)C[C@H]1COCc1ccccc1)c1ccc2cc(Cl)ccc2n1
DOCKED: REMARK SMILES IDX 5 1 6 2 4 4 3 5 2 6 1 7 22 8 32 9 23 10 31 11 24 12 30 13
DOCKED: REMARK SMILES IDX 25 14 29 15 26 16 27 17 28 18 7 19 8 20 12 21 9 22 11 23
DOCKED: REMARK SMILES IDX 13 24 14 25 15 26 16 27 17 28 21 29 18 30 20 31 19 32 10 33
DOCKED: REMARK H PARENT 6 3 10 34
DOCKED: USER                              x       y       z     vdW  Elec       q    Type
DOCKED: USER                           _______ _______ _______ _____ _____    ______ ____
DOCKED: ROOT
DOCKED: ATOM      1  C   UNL     1     140.085  76.143 222.028 -0.29 -0.04    +0.164 C  
DOCKED: ENDROOT
DOCKED: BRANCH   1   2
DOCKED: ATOM      2  O   UNL     1     141.422  76.190 222.434 -0.06 +0.20    -0.496 OA 
DOCKED: ATOM      3  H   UNL     1     142.151  75.631 222.011 -0.42 -0.17    +0.295 HD 
DOCKED: ENDBRANCH   1   2
DOCKED: BRANCH   1   4
DOCKED: ATOM      4  C   UNL     1     139.471  74.964 221.811 -0.27 +0.01    -0.069 C  
DOCKED: BRANCH   4   5
DOCKED: ATOM      5  N   UNL     1     140.007  73.711 222.253 -0.61 +0.04    -0.623 NA 
DOCKED: BRANCH   5   6
DOCKED: ATOM      6  C   UNL     1     139.297  72.466 222.346 -0.22 -0.02    +0.104 C  
DOCKED: ATOM      7  O   UNL     1     138.437  72.203 221.464 -0.06 +0.07    -0.313 OA 
DOCKED: BRANCH   6   8
DOCKED: ATOM      8  C   UNL     1     139.563  71.480 223.422 -0.32 -0.02    +0.089 A  
DOCKED: ATOM      9  N   UNL     1     140.086  71.889 224.611 -0.20 +0.05    -0.246 NA 
DOCKED: ATOM     10  C   UNL     1     139.283  70.116 223.230 -0.24 -0.01    +0.031 A  
DOCKED: ATOM     11  C   UNL     1     140.327  71.031 225.635 -0.51 -0.01    +0.071 A  
DOCKED: ATOM     12  C   UNL     1     139.528  69.205 224.262 -0.29 -0.00    +0.013 A  
DOCKED: ATOM     13  C   UNL     1     140.839  71.509 226.846 -0.71 -0.01    +0.030 A  
DOCKED: ATOM     14  C   UNL     1     140.051  69.657 225.480 -0.45 -0.00    +0.002 A  
DOCKED: ATOM     15  C   UNL     1     141.080  70.623 227.901 -0.64 -0.00    +0.023 A  
DOCKED: ATOM     16  C   UNL     1     140.298  68.773 226.541 -0.56 -0.01    +0.030 A  
DOCKED: ATOM     17  C   UNL     1     140.811  69.257 227.750 -0.59 -0.01    +0.041 A  
DOCKED: ATOM     18  Cl  UNL     1     141.119  68.152 229.077 -0.47 +0.02    -0.084 Cl 
DOCKED: ENDBRANCH   6   8
DOCKED: ENDBRANCH   5   6
DOCKED: ENDBRANCH   4   5
DOCKED: ENDBRANCH   1   4
DOCKED: BRANCH   1  19
DOCKED: ATOM     19  N   UNL     1     139.378  77.390 221.853 -0.11 +0.08    -0.337 N  
DOCKED: ATOM     20  C   UNL     1     139.183  78.380 222.904 -0.23 -0.03    +0.151 C  
DOCKED: ATOM     21  C   UNL     1     138.613  77.694 220.648 -0.08 -0.03    +0.113 C  
DOCKED: ATOM     22  C   UNL     1     138.285  79.461 222.300 -0.17 -0.02    +0.136 C  
DOCKED: ATOM     23  C   UNL     1     137.680  78.848 221.031 -0.08 -0.01    +0.061 C  
DOCKED: BRANCH  21  24
DOCKED: ATOM     24  C   UNL     1     139.557  78.065 219.494 -0.04 -0.06    +0.185 C  
DOCKED: BRANCH  24  25
DOCKED: ATOM     25  O   UNL     1     140.170  79.316 219.756 -0.02 +0.13    -0.375 OA 
DOCKED: BRANCH  25  26
DOCKED: ATOM     26  C   UNL     1     141.506  79.152 220.188 -0.20 -0.10    +0.195 C  
DOCKED: BRANCH  26  27
DOCKED: ATOM     27  C   UNL     1     141.737  79.916 221.465 -0.40 +0.01    -0.022 A  
DOCKED: ATOM     28  C   UNL     1     142.315  79.272 222.571 -0.55 -0.00    +0.006 A  
DOCKED: ATOM     29  C   UNL     1     141.419  81.282 221.550 -0.41 -0.00    +0.006 A  
DOCKED: ATOM     30  C   UNL     1     142.557  79.982 223.751 -0.63 -0.00    +0.000 A  
DOCKED: ATOM     31  C   UNL     1     141.666  81.988 222.732 -0.38 -0.00    +0.000 A  
DOCKED: ATOM     32  C   UNL     1     142.232  81.339 223.832 -0.63 -0.00    +0.000 A  
DOCKED: ENDBRANCH  26  27
DOCKED: ENDBRANCH  25  26
DOCKED: ENDBRANCH  24  25
DOCKED: ENDBRANCH  21  24
DOCKED: BRANCH  22  33
DOCKED: ATOM     33  O   UNL     1     137.299  79.900 223.201 -0.10 +0.05    -0.391 OA 
DOCKED: ATOM     34  H   UNL     1     136.447  80.000 222.701 +0.05 -0.03    +0.211 HD 
DOCKED: ENDBRANCH  22  33
DOCKED: ENDBRANCH   1  19
DOCKED: TORSDOF 11
DOCKED: TER
DOCKED: ENDMDL
________________________________________________________________________________


    FINAL DOCKED STATE:
    ________________________


Run:   19 / 20
Time taken for this run:   0.070s

DOCKED: MODEL        19
DOCKED: USER    Run = 19
DOCKED: USER
DOCKED: USER    Estimated Free Energy of Binding    =  -7.97 kcal/mol  [=(1)+(2)+(3)-(4)]
DOCKED: USER
DOCKED: USER    (1) Final Intermolecular Energy     = -11.26 kcal/mol
DOCKED: USER        vdW + Hbond + desolv Energy     = -11.29 kcal/mol
DOCKED: USER        Electrostatic Energy            =  +0.03 kcal/mol
DOCKED: USER        Moving Ligand-Fixed Receptor    = -11.26 kcal/mol
DOCKED: USER        Moving Ligand-Moving Receptor   =  +0.00 kcal/mol
DOCKED: USER    (2) Final Total Internal Energy     =  -2.42 kcal/mol
DOCKED: USER    (3) Torsional Free Energy           =  +3.28 kcal/mol
DOCKED: USER    (4) Unbound System's Energy         =  -2.42 kcal/mol
DOCKED: USER
DOCKED: USER
DOCKED: REMARK SMILES O=C([N-]/C=C(\O)N1C[C@H](O)C[C@H]1COCc1ccccc1)c1ccc2cc(Cl)ccc2n1
DOCKED: REMARK SMILES IDX 5 1 6 2 4 4 3 5 2 6 1 7 22 8 32 9 23 10 31 11 24 12 30 13
DOCKED: REMARK SMILES IDX 25 14 29 15 26 16 27 17 28 18 7 19 8 20 12 21 9 22 11 23
DOCKED: REMARK SMILES IDX 13 24 14 25 15 26 16 27 17 28 21 29 18 30 20 31 19 32 10 33
DOCKED: REMARK H PARENT 6 3 10 34
DOCKED: USER                              x       y       z     vdW  Elec       q    Type
DOCKED: USER                           _______ _______ _______ _____ _____    ______ ____
DOCKED: ROOT
DOCKED: ATOM      1  C   UNL     1     139.355  74.560 221.713 -0.21 -0.03    +0.164 C  
DOCKED: ENDROOT
DOCKED: BRANCH   1   2
DOCKED: ATOM      2  O   UNL     1     139.957  73.759 222.688 -0.63 -0.01    -0.496 OA 
DOCKED: ATOM      3  H   UNL     1     139.453  73.069 223.229 -0.33 -0.10    +0.295 HD 
DOCKED: ENDBRANCH   1   2
DOCKED: BRANCH   1   4
DOCKED: ATOM      4  C   UNL     1     138.101  74.308 221.290 -0.14 +0.02    -0.069 C  
DOCKED: BRANCH   4   5
DOCKED: ATOM      5  N   UNL     1     137.313  73.220 221.789 +0.01 +0.17    -0.623 NA 
DOCKED: BRANCH   5   6
DOCKED: ATOM      6  C   UNL     1     137.635  71.824 221.700 -0.10 -0.02    +0.104 C  
DOCKED: ATOM      7  O   UNL     1     137.541  71.260 220.577 -0.01 +0.06    -0.313 OA 
DOCKED: BRANCH   6   8
DOCKED: ATOM      8  C   UNL     1     138.095  71.039 222.872 -0.17 -0.02    +0.089 A  
DOCKED: ATOM      9  N   UNL     1     139.107  71.507 223.654 -0.19 +0.07    -0.246 NA 
DOCKED: ATOM     10  C   UNL     1     137.500  69.805 223.188 -0.18 -0.00    +0.031 A  
DOCKED: ATOM     11  C   UNL     1     139.551  70.839 224.749 -0.39 -0.01    +0.071 A  
DOCKED: ATOM     12  C   UNL     1     137.940  69.088 224.305 -0.30 -0.00    +0.013 A  
DOCKED: ATOM     13  C   UNL     1     140.575  71.379 225.535 -0.55 -0.00    +0.030 A  
DOCKED: ATOM     14  C   UNL     1     138.971  69.603 225.101 -0.39 -0.00    +0.002 A  
DOCKED: ATOM     15  C   UNL     1     141.025  70.692 226.666 -0.61 -0.00    +0.023 A  
DOCKED: ATOM     16  C   UNL     1     139.429  68.916 226.235 -0.49 -0.00    +0.030 A  
DOCKED: ATOM     17  C   UNL     1     140.454  69.462 227.017 -0.55 -0.01    +0.041 A  
DOCKED: ATOM     18  Cl  UNL     1     141.027  68.604 228.435 -0.75 +0.02    -0.084 Cl 
DOCKED: ENDBRANCH   6   8
DOCKED: ENDBRANCH   5   6
DOCKED: ENDBRANCH   4   5
DOCKED: ENDBRANCH   1   4
DOCKED: BRANCH   1  19
DOCKED: ATOM     19  N   UNL     1     140.109  75.669 221.177 -0.12 +0.08    -0.337 N  
DOCKED: ATOM     20  C   UNL     1     140.950  75.594 219.989 -0.14 -0.05    +0.151 C  
DOCKED: ATOM     21  C   UNL     1     140.260  76.932 221.893 -0.32 -0.03    +0.113 C  
DOCKED: ATOM     22  C   UNL     1     141.637  76.956 219.878 -0.21 -0.07    +0.136 C  
DOCKED: ATOM     23  C   UNL     1     141.455  77.636 221.240 -0.29 -0.03    +0.061 C  
DOCKED: BRANCH  21  24
DOCKED: ATOM     24  C   UNL     1     138.969  77.760 221.794 -0.17 -0.04    +0.185 C  
DOCKED: BRANCH  24  25
DOCKED: ATOM     25  O   UNL     1     138.547  78.151 223.089 -0.16 +0.06    -0.375 OA 
DOCKED: BRANCH  25  26
DOCKED: ATOM     26  C   UNL     1     138.595  79.555 223.241 -0.24 -0.03    +0.195 C  
DOCKED: BRANCH  26  27
DOCKED: ATOM     27  C   UNL     1     140.020  80.036 223.183 -0.40 +0.00    -0.022 A  
DOCKED: ATOM     28  C   UNL     1     141.017  79.362 223.908 -0.53 -0.00    +0.006 A  
DOCKED: ATOM     29  C   UNL     1     140.375  81.130 222.377 -0.35 -0.00    +0.006 A  
DOCKED: ATOM     30  C   UNL     1     142.348  79.787 223.838 -0.61 -0.00    +0.000 A  
DOCKED: ATOM     31  C   UNL     1     141.708  81.550 222.308 -0.47 -0.00    +0.000 A  
DOCKED: ATOM     32  C   UNL     1     142.692  80.881 223.039 -0.59 -0.00    +0.000 A  
DOCKED: ENDBRANCH  26  27
DOCKED: ENDBRANCH  25  26
DOCKED: ENDBRANCH  24  25
DOCKED: ENDBRANCH  21  24
DOCKED: BRANCH  22  33
DOCKED: ATOM     33  O   UNL     1     142.992  76.841 219.518 -0.23 +0.28    -0.391 OA 
DOCKED: ATOM     34  H   UNL     1     143.509  77.499 220.052 -0.47 -0.24    +0.211 HD 
DOCKED: ENDBRANCH  22  33
DOCKED: ENDBRANCH   1  19
DOCKED: TORSDOF 11
DOCKED: TER
DOCKED: ENDMDL
________________________________________________________________________________


    FINAL DOCKED STATE:
    ________________________


Run:   20 / 20
Time taken for this run:   0.070s

DOCKED: MODEL        20
DOCKED: USER    Run = 20
DOCKED: USER
DOCKED: USER    Estimated Free Energy of Binding    =  -7.80 kcal/mol  [=(1)+(2)+(3)-(4)]
DOCKED: USER
DOCKED: USER    (1) Final Intermolecular Energy     = -11.09 kcal/mol
DOCKED: USER        vdW + Hbond + desolv Energy     = -11.00 kcal/mol
DOCKED: USER        Electrostatic Energy            =  -0.08 kcal/mol
DOCKED: USER        Moving Ligand-Fixed Receptor    = -11.09 kcal/mol
DOCKED: USER        Moving Ligand-Moving Receptor   =  +0.00 kcal/mol
DOCKED: USER    (2) Final Total Internal Energy     =  -2.50 kcal/mol
DOCKED: USER    (3) Torsional Free Energy           =  +3.28 kcal/mol
DOCKED: USER    (4) Unbound System's Energy         =  -2.50 kcal/mol
DOCKED: USER
DOCKED: USER
DOCKED: REMARK SMILES O=C([N-]/C=C(\O)N1C[C@H](O)C[C@H]1COCc1ccccc1)c1ccc2cc(Cl)ccc2n1
DOCKED: REMARK SMILES IDX 5 1 6 2 4 4 3 5 2 6 1 7 22 8 32 9 23 10 31 11 24 12 30 13
DOCKED: REMARK SMILES IDX 25 14 29 15 26 16 27 17 28 18 7 19 8 20 12 21 9 22 11 23
DOCKED: REMARK SMILES IDX 13 24 14 25 15 26 16 27 17 28 21 29 18 30 20 31 19 32 10 33
DOCKED: REMARK H PARENT 6 3 10 34
DOCKED: USER                              x       y       z     vdW  Elec       q    Type
DOCKED: USER                           _______ _______ _______ _____ _____    ______ ____
DOCKED: ROOT
DOCKED: ATOM      1  C   UNL     1     140.575  73.200 221.308 -0.21 -0.02    +0.164 C  
DOCKED: ENDROOT
DOCKED: BRANCH   1   2
DOCKED: ATOM      2  O   UNL     1     140.387  73.387 222.681 -0.59 -0.03    -0.496 OA 
DOCKED: ATOM      3  H   UNL     1     139.564  73.072 223.177 -0.31 -0.08    +0.295 HD 
DOCKED: ENDBRANCH   1   2
DOCKED: BRANCH   1   4
DOCKED: ATOM      4  C   UNL     1     139.554  72.817 220.518 -0.10 +0.01    -0.069 C  
DOCKED: BRANCH   4   5
DOCKED: ATOM      5  N   UNL     1     138.347  72.238 221.027 +0.03 +0.13    -0.623 NA 
DOCKED: BRANCH   5   6
DOCKED: ATOM      6  C   UNL     1     138.120  70.848 221.307 -0.07 -0.02    +0.104 C  
DOCKED: ATOM      7  O   UNL     1     137.531  70.152 220.438 -0.01 +0.06    -0.313 OA 
DOCKED: BRANCH   6   8
DOCKED: ATOM      8  C   UNL     1     138.578  70.206 222.565 -0.16 -0.02    +0.089 A  
DOCKED: ATOM      9  N   UNL     1     139.234  70.940 223.506 -0.18 +0.05    -0.246 NA 
DOCKED: ATOM     10  C   UNL     1     138.346  68.840 222.800 -0.21 -0.00    +0.031 A  
DOCKED: ATOM     11  C   UNL     1     139.655  70.406 224.683 -0.37 -0.01    +0.071 A  
DOCKED: ATOM     12  C   UNL     1     138.774  68.259 223.997 -0.31 -0.00    +0.013 A  
DOCKED: ATOM     13  C   UNL     1     140.300  71.211 225.628 -0.54 -0.01    +0.030 A  
DOCKED: ATOM     14  C   UNL     1     139.431  69.041 224.955 -0.40 -0.00    +0.002 A  
DOCKED: ATOM     15  C   UNL     1     140.725  70.660 226.841 -0.61 -0.00    +0.023 A  
DOCKED: ATOM     16  C   UNL     1     139.863  68.493 226.171 -0.55 -0.00    +0.030 A  
DOCKED: ATOM     17  C   UNL     1     140.509  69.304 227.113 -0.56 -0.01    +0.041 A  
DOCKED: ATOM     18  Cl  UNL     1     141.049  68.620 228.635 -0.69 +0.02    -0.084 Cl 
DOCKED: ENDBRANCH   6   8
DOCKED: ENDBRANCH   5   6
DOCKED: ENDBRANCH   4   5
DOCKED: ENDBRANCH   1   4
DOCKED: BRANCH   1  19
DOCKED: ATOM     19  N   UNL     1     141.890  73.435 220.759 -0.11 +0.06    -0.337 N  
DOCKED: ATOM     20  C   UNL     1     142.813  72.382 220.354 -0.19 -0.02    +0.151 C  
DOCKED: ATOM     21  C   UNL     1     142.506  74.758 220.740 -0.20 -0.04    +0.113 C  
DOCKED: ATOM     22  C   UNL     1     144.108  73.092 219.957 -0.29 -0.02    +0.136 C  
DOCKED: ATOM     23  C   UNL     1     144.003  74.514 220.521 -0.34 -0.02    +0.061 C  
DOCKED: BRANCH  21  24
DOCKED: ATOM     24  C   UNL     1     141.886  75.620 219.629 -0.17 -0.07    +0.185 C  
DOCKED: BRANCH  24  25
DOCKED: ATOM     25  O   UNL     1     140.949  76.525 220.187 -0.07 +0.14    -0.375 OA 
DOCKED: BRANCH  25  26
DOCKED: ATOM     26  C   UNL     1     141.049  76.563 221.596 -0.25 -0.08    +0.195 C  
DOCKED: BRANCH  26  27
DOCKED: ATOM     27  C   UNL     1     141.436  77.945 222.053 -0.37 +0.01    -0.022 A  
DOCKED: ATOM     28  C   UNL     1     141.499  78.237 223.425 -0.53 -0.00    +0.006 A  
DOCKED: ATOM     29  C   UNL     1     141.776  78.939 221.120 -0.36 -0.00    +0.006 A  
DOCKED: ATOM     30  C   UNL     1     141.882  79.510 223.858 -0.62 -0.00    +0.000 A  
DOCKED: ATOM     31  C   UNL     1     142.162  80.211 221.557 -0.45 -0.00    +0.000 A  
DOCKED: ATOM     32  C   UNL     1     142.212  80.497 222.924 -0.61 -0.00    +0.000 A  
DOCKED: ENDBRANCH  26  27
DOCKED: ENDBRANCH  25  26
DOCKED: ENDBRANCH  24  25
DOCKED: ENDBRANCH  21  24
DOCKED: BRANCH  22  33
DOCKED: ATOM     33  O   UNL     1     145.250  72.417 220.424 -0.23 +0.01    -0.391 OA 
DOCKED: ATOM     34  H   UNL     1     144.989  71.890 221.224 -0.38 -0.09    +0.211 HD 
DOCKED: ENDBRANCH  22  33
DOCKED: ENDBRANCH   1  19
DOCKED: TORSDOF 11
DOCKED: TER
DOCKED: ENDMDL
________________________________________________________________________________


    CLUSTERING HISTOGRAM
    ____________________


________________________________________________________________________________
     |           |     |           |     |
Clus | Lowest    | Run | Mean      | Num | Histogram
-ter | Binding   |     | Binding   | in  |
Rank | Energy    |     | Energy    | Clus|    5    10   15   20   25   30   35
_____|___________|_____|___________|_____|____:____|____:____|____:____|____:___
   1 |     -8.39 |  12 |     -8.06 |  10 |##########
   2 |     -8.25 |   5 |     -7.88 |   6 |######
   3 |     -8.08 |   7 |     -8.08 |   1 |#
   4 |     -7.89 |  14 |     -7.89 |   1 |#
   5 |     -7.78 |   2 |     -7.68 |   2 |##
_____|___________|_____|___________|_____|______________________________________


    RMSD TABLE
    __________


_______________________________________________________________________
     |      |      |           |         |                 |
Rank | Sub- | Run  | Binding   | Cluster | Reference       | Grep
     | Rank |      | Energy    | RMSD    | RMSD            | Pattern
_____|______|______|___________|_________|_________________|___________
   1      1     12       -8.39      0.00    271.05           RANKING
   1      2      6       -8.39      0.97    270.98           RANKING
   1      3      4       -8.33      0.35    271.05           RANKING
   1      4     10       -8.26      0.57    271.00           RANKING
   1      5      1       -8.16      0.87    270.97           RANKING
   1      6     15       -7.96      0.84    270.83           RANKING
   1      7     16       -7.87      1.45    270.76           RANKING
   1      8      8       -7.83      1.21    271.01           RANKING
   1      9     20       -7.80      1.02    270.70           RANKING
   1     10      3       -7.57      1.23    270.70           RANKING
   2      1      5       -8.25      0.00    271.37           RANKING
   2      2     19       -7.97      1.32    270.94           RANKING
   2      3      9       -7.96      1.23    270.89           RANKING
   2      4     13       -7.87      1.33    270.88           RANKING
   2      5     11       -7.71      1.23    270.91           RANKING
   2      6     18       -7.52      1.72    271.43           RANKING
   3      1      7       -8.08      0.00    270.80           RANKING
   4      1     14       -7.89      0.00    271.26           RANKING
   5      1      2       -7.78      0.00    269.87           RANKING
   5      2     17       -7.58      0.50    269.99           RANKING

Run time 1.340 sec
Idle time 0.000 sec
