AutoDock-GPU version: v1.6

**********************************************************
**    AutoDock-GPU AUTODOCKTOOLS-COMPATIBLE DLG FILE    **
**********************************************************


    DOCKING PARAMETERS
    ________________________


Ligand file:                               /home/a/REINVENT4/ReinventStudies/pleaseWork/justmol2mol_4_Compounds_ontop/graph-dock-8u2o5u/graph-DockGPU/node-autodockgpu/inputs/HOUDYBPFJVQGFX-IOPFHDMWNA-M.pdbqt
Grid fld file:                             /home/a/REINVENT4/ReinventStudies/mols/Rad51/maps/rad51_receptor.maps.fld

Random seed:                               42
Number of runs:                            20
Number of energy evaluations:              1259779
Number of generations:                     42000
Size of population:                        150
Rate of crossover:                         80.000000%
Tournament selection probability limit:    60.000000%
Rate of mutation:                          2.000000%
Maximal allowed delta movement:            +/- 6.000000A
Maximal allowed delta angle:               +/- 90.000000

Rate of local search:                      100.000000%
Maximal number of local search iterations: 300
Rho lower bound:                           0.010000
Spread of local search delta movement:     2.000000A
Spread of local search delta angle:        74.999999
Limit of consecutive successes/failures:   4

Handle symmetry during clustering:         YES
RMSD tolerance:                            2.000000A

Program call in command line was:          /home/a/REINVENT4/ReinventStudies/adgpu-v1.6_linux_x64_cuda12_128wi --filelist batch.txt --heuristics 1 --nrun 20 --psize 150 --lsit 300 --seed 42 --heurmax 12000000 


    GRID PARAMETERS
    ________________________


Receptor name:                             rad51_receptor
Number of grid points (x, y, z):           53, 53, 53
Grid center (x, y, z):                     139.950000, 75.640000, 221.970000A
Grid size (x, y, z):                       19.500000, 19.500000, 19.500000A
Grid spacing:                              0.375000A


    LIGAND PARAMETERS
    ________________________


Ligand name:                               /home/a/REINVENT4/ReinventStudies/pleaseWork/justmol2mol_4_Compounds_ontop/graph-dock-8u2o5u/graph-DockGPU/node-autodockgpu/inputs/HOUDYBPFJVQGFX-IOPFHDMWNA-M
Number of atoms:                           24
Number of rotatable bonds:                 7
Number of atom types:                      7


    DUMMY DATA (only for ADT-compatibility)
    ________________________


DPF> outlev 1
DPF> ga_run 20
DPF> fld /home/a/REINVENT4/ReinventStudies/mols/Rad51/maps/rad51_receptor.maps.fld
DPF> move /home/a/REINVENT4/ReinventStudies/pleaseWork/justmol2mol_4_Compounds_ontop/graph-dock-8u2o5u/graph-DockGPU/node-autodockgpu/inputs/HOUDYBPFJVQGFX-IOPFHDMWNA-M.pdbqt


    COUNTER STATES
    ________________________


Number of energy evaluations performed:    1269769
Number of generations used:                71


    INPUT LIGAND PDBQT FILE:
    ________________________


INPUT-LIGAND-PDBQT: REMARK SMILES CC(C)C[N-]/C(O)=C\NC(=O)c1ccc2cc(Cl)ccc2n1
INPUT-LIGAND-PDBQT: REMARK SMILES IDX 6 1 7 2 5 4 4 5 2 6 1 7 3 8 8 9 9 10 10 11 11 13 12 14 22 15
INPUT-LIGAND-PDBQT: REMARK SMILES IDX 13 16 21 17 14 18 20 19 15 20 19 21 16 22 17 23 18 24
INPUT-LIGAND-PDBQT: REMARK H PARENT 7 3 9 12
INPUT-LIGAND-PDBQT: ROOT
INPUT-LIGAND-PDBQT: ATOM      1  C   UNL     1       1.193   2.073   1.222  1.00  0.00     0.027 C 
INPUT-LIGAND-PDBQT: ENDROOT
INPUT-LIGAND-PDBQT: BRANCH   1   2
INPUT-LIGAND-PDBQT: ATOM      2  O   UNL     1       1.565   3.370   1.581  1.00  0.00    -0.529 OA
INPUT-LIGAND-PDBQT: ATOM      3  H   UNL     1       1.629   3.679   2.540  1.00  0.00     0.290 HD
INPUT-LIGAND-PDBQT: ENDBRANCH   1   2
INPUT-LIGAND-PDBQT: BRANCH   1   4
INPUT-LIGAND-PDBQT: ATOM      4  N   UNL     1       0.862   1.085   2.211  1.00  0.00    -0.653 NA
INPUT-LIGAND-PDBQT: BRANCH   4   5
INPUT-LIGAND-PDBQT: ATOM      5  C   UNL     1       0.761   1.293   3.654  1.00  0.00    -0.115 C 
INPUT-LIGAND-PDBQT: BRANCH   5   6
INPUT-LIGAND-PDBQT: ATOM      6  C   UNL     1      -0.680   1.655   4.067  1.00  0.00    -0.035 C 
INPUT-LIGAND-PDBQT: ATOM      7  C   UNL     1      -0.818   1.611   5.594  1.00  0.00     0.006 C 
INPUT-LIGAND-PDBQT: ATOM      8  C   UNL     1      -1.103   3.033   3.543  1.00  0.00     0.006 C 
INPUT-LIGAND-PDBQT: ENDBRANCH   5   6
INPUT-LIGAND-PDBQT: ENDBRANCH   4   5
INPUT-LIGAND-PDBQT: ENDBRANCH   1   4
INPUT-LIGAND-PDBQT: BRANCH   1   9
INPUT-LIGAND-PDBQT: ATOM      9  C   UNL     1       1.156   1.762  -0.077  1.00  0.00     0.107 C 
INPUT-LIGAND-PDBQT: BRANCH   9  10
INPUT-LIGAND-PDBQT: ATOM     10  N   UNL     1       0.783   0.454  -0.541  1.00  0.00    -0.325 N 
INPUT-LIGAND-PDBQT: ATOM     11  C   UNL     1       0.745   0.130  -1.941  1.00  0.00     0.273 C 
INPUT-LIGAND-PDBQT: ATOM     12  H   UNL     1       0.529  -0.286   0.152  1.00  0.00     0.169 HD
INPUT-LIGAND-PDBQT: ATOM     13  O   UNL     1       1.052   1.007  -2.796  1.00  0.00    -0.267 OA
INPUT-LIGAND-PDBQT: BRANCH  11  14
INPUT-LIGAND-PDBQT: ATOM     14  C   UNL     1       0.349  -1.223  -2.390  1.00  0.00     0.129 A 
INPUT-LIGAND-PDBQT: ATOM     15  N   UNL     1       0.014  -2.169  -1.468  1.00  0.00    -0.243 NA
INPUT-LIGAND-PDBQT: ATOM     16  C   UNL     1       0.311  -1.551  -3.756  1.00  0.00     0.035 A 
INPUT-LIGAND-PDBQT: ATOM     17  C   UNL     1      -0.358  -3.428  -1.822  1.00  0.00     0.071 A 
INPUT-LIGAND-PDBQT: ATOM     18  C   UNL     1      -0.068  -2.836  -4.151  1.00  0.00     0.013 A 
INPUT-LIGAND-PDBQT: ATOM     19  C   UNL     1      -0.693  -4.365  -0.839  1.00  0.00     0.030 A 
INPUT-LIGAND-PDBQT: ATOM     20  C   UNL     1      -0.407  -3.790  -3.186  1.00  0.00     0.002 A 
INPUT-LIGAND-PDBQT: ATOM     21  C   UNL     1      -1.076  -5.659  -1.207  1.00  0.00     0.023 A 
INPUT-LIGAND-PDBQT: ATOM     22  C   UNL     1      -0.791  -5.090  -3.548  1.00  0.00     0.030 A 
INPUT-LIGAND-PDBQT: ATOM     23  C   UNL     1      -1.125  -6.022  -2.558  1.00  0.00     0.041 A 
INPUT-LIGAND-PDBQT: ATOM     24  Cl  UNL     1      -1.606  -7.647  -3.011  1.00  0.00    -0.084 Cl
INPUT-LIGAND-PDBQT: ENDBRANCH  11  14
INPUT-LIGAND-PDBQT: ENDBRANCH   9  10
INPUT-LIGAND-PDBQT: ENDBRANCH   1   9
INPUT-LIGAND-PDBQT: TORSDOF 7


    FINAL DOCKED STATE:
    ________________________


Run:   1 / 20
Time taken for this run:   0.044s

DOCKED: MODEL        1
DOCKED: USER    Run = 1
DOCKED: USER
DOCKED: USER    Estimated Free Energy of Binding    =  -5.62 kcal/mol  [=(1)+(2)+(3)-(4)]
DOCKED: USER
DOCKED: USER    (1) Final Intermolecular Energy     =  -7.71 kcal/mol
DOCKED: USER        vdW + Hbond + desolv Energy     =  -8.08 kcal/mol
DOCKED: USER        Electrostatic Energy            =  +0.36 kcal/mol
DOCKED: USER        Moving Ligand-Fixed Receptor    =  -7.71 kcal/mol
DOCKED: USER        Moving Ligand-Moving Receptor   =  +0.00 kcal/mol
DOCKED: USER    (2) Final Total Internal Energy     =  -1.43 kcal/mol
DOCKED: USER    (3) Torsional Free Energy           =  +2.09 kcal/mol
DOCKED: USER    (4) Unbound System's Energy         =  -1.43 kcal/mol
DOCKED: USER
DOCKED: USER
DOCKED: REMARK SMILES CC(C)C[N-]/C(O)=C\NC(=O)c1ccc2cc(Cl)ccc2n1
DOCKED: REMARK SMILES IDX 6 1 7 2 5 4 4 5 2 6 1 7 3 8 8 9 9 10 10 11 11 13 12 14 22 15
DOCKED: REMARK SMILES IDX 13 16 21 17 14 18 20 19 15 20 19 21 16 22 17 23 18 24
DOCKED: REMARK H PARENT 7 3 9 12
DOCKED: USER                              x       y       z     vdW  Elec       q    Type
DOCKED: USER                           _______ _______ _______ _____ _____    ______ ____
DOCKED: ROOT
DOCKED: ATOM      1  C   UNL     1     140.554  75.802 220.680 -0.23 -0.01    +0.027 C  
DOCKED: ENDROOT
DOCKED: BRANCH   1   2
DOCKED: ATOM      2  O   UNL     1     141.319  75.163 219.703 -0.00 +0.17    -0.529 OA 
DOCKED: ATOM      3  H   UNL     1     141.350  74.160 219.597 +0.08 -0.07    +0.290 HD 
DOCKED: ENDBRANCH   1   2
DOCKED: BRANCH   1   4
DOCKED: ATOM      4  N   UNL     1     140.936  77.079 221.218 +0.02 +0.27    -0.653 NA 
DOCKED: BRANCH   4   5
DOCKED: ATOM      5  C   UNL     1     140.920  77.473 222.625 -0.35 +0.04    -0.115 C  
DOCKED: BRANCH   5   6
DOCKED: ATOM      6  C   UNL     1     140.936  79.008 222.775 -0.46 +0.01    -0.035 C  
DOCKED: ATOM      7  C   UNL     1     139.700  79.475 223.555 -0.43 -0.00    +0.006 C  
DOCKED: ATOM      8  C   UNL     1     142.211  79.508 223.467 -0.64 -0.00    +0.006 C  
DOCKED: ENDBRANCH   5   6
DOCKED: ENDBRANCH   4   5
DOCKED: ENDBRANCH   1   4
DOCKED: BRANCH   1   9
DOCKED: ATOM      9  C   UNL     1     139.447  75.193 221.116 -0.20 -0.02    +0.107 C  
DOCKED: BRANCH   9  10
DOCKED: ATOM     10  N   UNL     1     139.479  74.197 222.151 -0.13 +0.06    -0.325 N  
DOCKED: ATOM     11  C   UNL     1     140.023  72.886 221.923 -0.19 -0.04    +0.273 C  
DOCKED: ATOM     12  H   UNL     1     139.095  74.423 223.096 -0.55 -0.07    +0.169 HD 
DOCKED: ATOM     13  O   UNL     1     140.496  72.592 220.789 -0.10 +0.04    -0.267 OA 
DOCKED: BRANCH  11  14
DOCKED: ATOM     14  C   UNL     1     140.034  71.877 223.005 -0.29 -0.02    +0.129 A  
DOCKED: ATOM     15  N   UNL     1     140.515  72.212 224.235 -0.10 +0.03    -0.243 NA 
DOCKED: ATOM     16  C   UNL     1     139.554  70.574 222.786 -0.23 -0.01    +0.035 A  
DOCKED: ATOM     17  C   UNL     1     140.550  71.327 225.267 -0.50 -0.01    +0.071 A  
DOCKED: ATOM     18  C   UNL     1     139.576  69.643 223.826 -0.27 -0.00    +0.013 A  
DOCKED: ATOM     19  C   UNL     1     141.054  71.717 226.512 -0.70 -0.00    +0.030 A  
DOCKED: ATOM     20  C   UNL     1     140.075  70.010 225.080 -0.43 -0.00    +0.002 A  
DOCKED: ATOM     21  C   UNL     1     141.087  70.804 227.571 -0.64 -0.00    +0.023 A  
DOCKED: ATOM     22  C   UNL     1     140.113  69.099 226.147 -0.50 -0.01    +0.030 A  
DOCKED: ATOM     23  C   UNL     1     140.618  69.498 227.390 -0.57 -0.01    +0.041 A  
DOCKED: ATOM     24  Cl  UNL     1     140.663  68.359 228.723 -0.66 +0.02    -0.084 Cl 
DOCKED: ENDBRANCH  11  14
DOCKED: ENDBRANCH   9  10
DOCKED: ENDBRANCH   1   9
DOCKED: TORSDOF 7
DOCKED: TER
DOCKED: ENDMDL
________________________________________________________________________________


    FINAL DOCKED STATE:
    ________________________


Run:   2 / 20
Time taken for this run:   0.044s

DOCKED: MODEL        2
DOCKED: USER    Run = 2
DOCKED: USER
DOCKED: USER    Estimated Free Energy of Binding    =  -6.34 kcal/mol  [=(1)+(2)+(3)-(4)]
DOCKED: USER
DOCKED: USER    (1) Final Intermolecular Energy     =  -8.43 kcal/mol
DOCKED: USER        vdW + Hbond + desolv Energy     =  -8.60 kcal/mol
DOCKED: USER        Electrostatic Energy            =  +0.17 kcal/mol
DOCKED: USER        Moving Ligand-Fixed Receptor    =  -8.43 kcal/mol
DOCKED: USER        Moving Ligand-Moving Receptor   =  +0.00 kcal/mol
DOCKED: USER    (2) Final Total Internal Energy     =  -0.84 kcal/mol
DOCKED: USER    (3) Torsional Free Energy           =  +2.09 kcal/mol
DOCKED: USER    (4) Unbound System's Energy         =  -0.84 kcal/mol
DOCKED: USER
DOCKED: USER
DOCKED: REMARK SMILES CC(C)C[N-]/C(O)=C\NC(=O)c1ccc2cc(Cl)ccc2n1
DOCKED: REMARK SMILES IDX 6 1 7 2 5 4 4 5 2 6 1 7 3 8 8 9 9 10 10 11 11 13 12 14 22 15
DOCKED: REMARK SMILES IDX 13 16 21 17 14 18 20 19 15 20 19 21 16 22 17 23 18 24
DOCKED: REMARK H PARENT 7 3 9 12
DOCKED: USER                              x       y       z     vdW  Elec       q    Type
DOCKED: USER                           _______ _______ _______ _____ _____    ______ ____
DOCKED: ROOT
DOCKED: ATOM      1  C   UNL     1     140.043  76.546 221.506 -0.30 -0.01    +0.027 C  
DOCKED: ENDROOT
DOCKED: BRANCH   1   2
DOCKED: ATOM      2  O   UNL     1     141.425  76.698 221.376 -0.09 +0.27    -0.529 OA 
DOCKED: ATOM      3  H   UNL     1     142.088  76.244 221.987 -0.45 -0.23    +0.290 HD 
DOCKED: ENDBRANCH   1   2
DOCKED: BRANCH   1   4
DOCKED: ATOM      4  N   UNL     1     139.194  77.654 221.845 +0.03 +0.15    -0.653 NA 
DOCKED: BRANCH   4   5
DOCKED: ATOM      5  C   UNL     1     139.403  78.617 222.924 -0.28 +0.02    -0.115 C  
DOCKED: BRANCH   5   6
DOCKED: ATOM      6  C   UNL     1     140.793  79.276 222.824 -0.45 +0.01    -0.035 C  
DOCKED: ATOM      7  C   UNL     1     140.677  80.790 223.041 -0.46 -0.00    +0.006 C  
DOCKED: ATOM      8  C   UNL     1     141.790  78.679 223.825 -0.59 -0.00    +0.006 C  
DOCKED: ENDBRANCH   5   6
DOCKED: ENDBRANCH   4   5
DOCKED: ENDBRANCH   1   4
DOCKED: BRANCH   1   9
DOCKED: ATOM      9  C   UNL     1     139.519  75.333 221.311 -0.22 -0.02    +0.107 C  
DOCKED: BRANCH   9  10
DOCKED: ATOM     10  N   UNL     1     139.561  74.310 222.319 -0.10 +0.05    -0.325 N  
DOCKED: ATOM     11  C   UNL     1     139.970  72.965 222.017 -0.19 -0.04    +0.273 C  
DOCKED: ATOM     12  H   UNL     1     139.286  74.541 223.301 -0.51 -0.05    +0.169 HD 
DOCKED: ATOM     13  O   UNL     1     140.310  72.664 220.839 -0.10 +0.04    -0.267 OA 
DOCKED: BRANCH  11  14
DOCKED: ATOM     14  C   UNL     1     139.996  71.930 223.073 -0.30 -0.02    +0.129 A  
DOCKED: ATOM     15  N   UNL     1     140.477  72.240 224.310 -0.06 +0.03    -0.243 NA 
DOCKED: ATOM     16  C   UNL     1     139.530  70.628 222.824 -0.24 -0.01    +0.035 A  
DOCKED: ATOM     17  C   UNL     1     140.524  71.331 225.320 -0.50 -0.01    +0.071 A  
DOCKED: ATOM     18  C   UNL     1     139.565  69.671 223.841 -0.28 -0.00    +0.013 A  
DOCKED: ATOM     19  C   UNL     1     141.027  71.696 226.573 -0.70 -0.00    +0.030 A  
DOCKED: ATOM     20  C   UNL     1     140.064  70.014 225.102 -0.43 -0.00    +0.002 A  
DOCKED: ATOM     21  C   UNL     1     141.074  70.758 227.609 -0.64 -0.00    +0.023 A  
DOCKED: ATOM     22  C   UNL     1     140.114  69.077 226.146 -0.50 -0.01    +0.030 A  
DOCKED: ATOM     23  C   UNL     1     140.619  69.451 227.397 -0.57 -0.01    +0.041 A  
DOCKED: ATOM     24  Cl  UNL     1     140.681  68.280 228.702 -0.66 +0.02    -0.084 Cl 
DOCKED: ENDBRANCH  11  14
DOCKED: ENDBRANCH   9  10
DOCKED: ENDBRANCH   1   9
DOCKED: TORSDOF 7
DOCKED: TER
DOCKED: ENDMDL
________________________________________________________________________________


    FINAL DOCKED STATE:
    ________________________


Run:   3 / 20
Time taken for this run:   0.044s

DOCKED: MODEL        3
DOCKED: USER    Run = 3
DOCKED: USER
DOCKED: USER    Estimated Free Energy of Binding    =  -5.86 kcal/mol  [=(1)+(2)+(3)-(4)]
DOCKED: USER
DOCKED: USER    (1) Final Intermolecular Energy     =  -7.95 kcal/mol
DOCKED: USER        vdW + Hbond + desolv Energy     =  -8.20 kcal/mol
DOCKED: USER        Electrostatic Energy            =  +0.25 kcal/mol
DOCKED: USER        Moving Ligand-Fixed Receptor    =  -7.95 kcal/mol
DOCKED: USER        Moving Ligand-Moving Receptor   =  +0.00 kcal/mol
DOCKED: USER    (2) Final Total Internal Energy     =  -1.05 kcal/mol
DOCKED: USER    (3) Torsional Free Energy           =  +2.09 kcal/mol
DOCKED: USER    (4) Unbound System's Energy         =  -1.05 kcal/mol
DOCKED: USER
DOCKED: USER
DOCKED: REMARK SMILES CC(C)C[N-]/C(O)=C\NC(=O)c1ccc2cc(Cl)ccc2n1
DOCKED: REMARK SMILES IDX 6 1 7 2 5 4 4 5 2 6 1 7 3 8 8 9 9 10 10 11 11 13 12 14 22 15
DOCKED: REMARK SMILES IDX 13 16 21 17 14 18 20 19 15 20 19 21 16 22 17 23 18 24
DOCKED: REMARK H PARENT 7 3 9 12
DOCKED: USER                              x       y       z     vdW  Elec       q    Type
DOCKED: USER                           _______ _______ _______ _____ _____    ______ ____
DOCKED: ROOT
DOCKED: ATOM      1  C   UNL     1     139.291  76.515 221.329 -0.23 -0.01    +0.027 C  
DOCKED: ENDROOT
DOCKED: BRANCH   1   2
DOCKED: ATOM      2  O   UNL     1     138.542  77.260 220.416 +0.02 +0.12    -0.529 OA 
DOCKED: ATOM      3  H   UNL     1     138.444  78.263 220.473 +0.06 -0.07    +0.290 HD 
DOCKED: ENDBRANCH   1   2
DOCKED: BRANCH   1   4
DOCKED: ATOM      4  N   UNL     1     139.851  77.116 222.508 -0.00 +0.14    -0.653 NA 
DOCKED: BRANCH   4   5
DOCKED: ATOM      5  C   UNL     1     141.103  77.866 222.595 -0.39 +0.04    -0.115 C  
DOCKED: BRANCH   5   6
DOCKED: ATOM      6  C   UNL     1     140.988  79.028 223.602 -0.52 +0.01    -0.035 C  
DOCKED: ATOM      7  C   UNL     1     142.170  79.991 223.432 -0.65 -0.00    +0.006 C  
DOCKED: ATOM      8  C   UNL     1     139.667  79.792 223.455 -0.44 -0.00    +0.006 C  
DOCKED: ENDBRANCH   5   6
DOCKED: ENDBRANCH   4   5
DOCKED: ENDBRANCH   1   4
DOCKED: BRANCH   1   9
DOCKED: ATOM      9  C   UNL     1     139.483  75.217 221.080 -0.19 -0.02    +0.107 C  
DOCKED: BRANCH   9  10
DOCKED: ATOM     10  N   UNL     1     139.576  74.241 222.131 -0.14 +0.05    -0.325 N  
DOCKED: ATOM     11  C   UNL     1     139.775  72.845 221.852 -0.18 -0.05    +0.273 C  
DOCKED: ATOM     12  H   UNL     1     139.495  74.547 223.127 -0.52 -0.02    +0.169 HD 
DOCKED: ATOM     13  O   UNL     1     139.879  72.453 220.656 -0.06 +0.05    -0.267 OA 
DOCKED: BRANCH  11  14
DOCKED: ATOM     14  C   UNL     1     139.858  71.861 222.954 -0.28 -0.02    +0.129 A  
DOCKED: ATOM     15  N   UNL     1     140.354  72.244 224.164 -0.14 +0.04    -0.243 NA 
DOCKED: ATOM     16  C   UNL     1     139.431  70.534 222.775 -0.23 -0.01    +0.035 A  
DOCKED: ATOM     17  C   UNL     1     140.453  71.384 225.213 -0.49 -0.01    +0.071 A  
DOCKED: ATOM     18  C   UNL     1     139.520  69.627 223.833 -0.27 -0.00    +0.013 A  
DOCKED: ATOM     19  C   UNL     1     140.969  71.824 226.436 -0.67 -0.00    +0.030 A  
DOCKED: ATOM     20  C   UNL     1     140.034  70.044 225.066 -0.43 -0.00    +0.002 A  
DOCKED: ATOM     21  C   UNL     1     141.070  70.936 227.513 -0.67 -0.00    +0.023 A  
DOCKED: ATOM     22  C   UNL     1     140.138  69.159 226.150 -0.50 -0.01    +0.030 A  
DOCKED: ATOM     23  C   UNL     1     140.655  69.607 227.371 -0.56 -0.01    +0.041 A  
DOCKED: ATOM     24  Cl  UNL     1     140.785  68.500 228.726 -0.70 +0.02    -0.084 Cl 
DOCKED: ENDBRANCH  11  14
DOCKED: ENDBRANCH   9  10
DOCKED: ENDBRANCH   1   9
DOCKED: TORSDOF 7
DOCKED: TER
DOCKED: ENDMDL
________________________________________________________________________________


    FINAL DOCKED STATE:
    ________________________


Run:   4 / 20
Time taken for this run:   0.044s

DOCKED: MODEL        4
DOCKED: USER    Run = 4
DOCKED: USER
DOCKED: USER    Estimated Free Energy of Binding    =  -5.44 kcal/mol  [=(1)+(2)+(3)-(4)]
DOCKED: USER
DOCKED: USER    (1) Final Intermolecular Energy     =  -7.53 kcal/mol
DOCKED: USER        vdW + Hbond + desolv Energy     =  -7.58 kcal/mol
DOCKED: USER        Electrostatic Energy            =  +0.05 kcal/mol
DOCKED: USER        Moving Ligand-Fixed Receptor    =  -7.53 kcal/mol
DOCKED: USER        Moving Ligand-Moving Receptor   =  +0.00 kcal/mol
DOCKED: USER    (2) Final Total Internal Energy     =  -1.98 kcal/mol
DOCKED: USER    (3) Torsional Free Energy           =  +2.09 kcal/mol
DOCKED: USER    (4) Unbound System's Energy         =  -1.98 kcal/mol
DOCKED: USER
DOCKED: USER
DOCKED: REMARK SMILES CC(C)C[N-]/C(O)=C\NC(=O)c1ccc2cc(Cl)ccc2n1
DOCKED: REMARK SMILES IDX 6 1 7 2 5 4 4 5 2 6 1 7 3 8 8 9 9 10 10 11 11 13 12 14 22 15
DOCKED: REMARK SMILES IDX 13 16 21 17 14 18 20 19 15 20 19 21 16 22 17 23 18 24
DOCKED: REMARK H PARENT 7 3 9 12
DOCKED: USER                              x       y       z     vdW  Elec       q    Type
DOCKED: USER                           _______ _______ _______ _____ _____    ______ ____
DOCKED: ROOT
DOCKED: ATOM      1  C   UNL     1     138.671  68.978 225.278 -0.40 -0.00    +0.027 C  
DOCKED: ENDROOT
DOCKED: BRANCH   1   2
DOCKED: ATOM      2  O   UNL     1     139.171  67.854 224.619 -0.54 +0.03    -0.529 OA 
DOCKED: ATOM      3  H   UNL     1     139.656  67.905 223.735 +0.04 -0.07    +0.290 HD 
DOCKED: ENDBRANCH   1   2
DOCKED: BRANCH   1   4
DOCKED: ATOM      4  N   UNL     1     138.909  69.197 226.678 +0.12 +0.07    -0.653 NA 
DOCKED: BRANCH   4   5
DOCKED: ATOM      5  C   UNL     1     140.154  69.654 227.291 -0.51 +0.02    -0.115 C  
DOCKED: BRANCH   5   6
DOCKED: ATOM      6  C   UNL     1     140.489  71.098 226.867 -0.64 +0.01    -0.035 C  
DOCKED: ATOM      7  C   UNL     1     141.071  71.875 228.055 -0.80 -0.00    +0.006 C  
DOCKED: ATOM      8  C   UNL     1     141.464  71.143 225.685 -0.55 -0.00    +0.006 C  
DOCKED: ENDBRANCH   5   6
DOCKED: ENDBRANCH   4   5
DOCKED: ENDBRANCH   1   4
DOCKED: BRANCH   1   9
DOCKED: ATOM      9  C   UNL     1     137.951  69.857 224.574 -0.26 -0.01    +0.107 C  
DOCKED: BRANCH   9  10
DOCKED: ATOM     10  N   UNL     1     138.546  70.999 223.937 -0.14 +0.08    -0.325 N  
DOCKED: ATOM     11  C   UNL     1     139.558  70.860 222.926 -0.18 -0.05    +0.273 C  
DOCKED: ATOM     12  H   UNL     1     138.242  71.960 224.213 -0.30 -0.08    +0.169 HD 
DOCKED: ATOM     13  O   UNL     1     139.938  69.708 222.574 -0.06 +0.05    -0.267 OA 
DOCKED: BRANCH  11  14
DOCKED: ATOM     14  C   UNL     1     140.159  72.054 222.293 -0.26 -0.02    +0.129 A  
DOCKED: ATOM     15  N   UNL     1     139.600  73.280 222.497 -0.57 +0.04    -0.243 NA 
DOCKED: ATOM     16  C   UNL     1     141.302  71.947 221.482 -0.23 -0.00    +0.035 A  
DOCKED: ATOM     17  C   UNL     1     140.110  74.412 221.942 -0.23 -0.01    +0.071 A  
DOCKED: ATOM     18  C   UNL     1     141.849  73.092 220.898 -0.26 -0.00    +0.013 A  
DOCKED: ATOM     19  C   UNL     1     139.500  75.648 222.181 -0.32 -0.01    +0.030 A  
DOCKED: ATOM     20  C   UNL     1     141.257  74.339 221.122 -0.30 -0.00    +0.002 A  
DOCKED: ATOM     21  C   UNL     1     140.028  76.810 221.608 -0.30 -0.01    +0.023 A  
DOCKED: ATOM     22  C   UNL     1     141.780  75.508 220.551 -0.28 -0.01    +0.030 A  
DOCKED: ATOM     23  C   UNL     1     141.165  76.742 220.795 -0.27 -0.02    +0.041 A  
DOCKED: ATOM     24  Cl  UNL     1     141.819  78.204 220.081 -0.35 +0.05    -0.084 Cl 
DOCKED: ENDBRANCH  11  14
DOCKED: ENDBRANCH   9  10
DOCKED: ENDBRANCH   1   9
DOCKED: TORSDOF 7
DOCKED: TER
DOCKED: ENDMDL
________________________________________________________________________________


    FINAL DOCKED STATE:
    ________________________


Run:   5 / 20
Time taken for this run:   0.044s

DOCKED: MODEL        5
DOCKED: USER    Run = 5
DOCKED: USER
DOCKED: USER    Estimated Free Energy of Binding    =  -6.35 kcal/mol  [=(1)+(2)+(3)-(4)]
DOCKED: USER
DOCKED: USER    (1) Final Intermolecular Energy     =  -8.44 kcal/mol
DOCKED: USER        vdW + Hbond + desolv Energy     =  -8.63 kcal/mol
DOCKED: USER        Electrostatic Energy            =  +0.19 kcal/mol
DOCKED: USER        Moving Ligand-Fixed Receptor    =  -8.44 kcal/mol
DOCKED: USER        Moving Ligand-Moving Receptor   =  +0.00 kcal/mol
DOCKED: USER    (2) Final Total Internal Energy     =  -0.82 kcal/mol
DOCKED: USER    (3) Torsional Free Energy           =  +2.09 kcal/mol
DOCKED: USER    (4) Unbound System's Energy         =  -0.82 kcal/mol
DOCKED: USER
DOCKED: USER
DOCKED: REMARK SMILES CC(C)C[N-]/C(O)=C\NC(=O)c1ccc2cc(Cl)ccc2n1
DOCKED: REMARK SMILES IDX 6 1 7 2 5 4 4 5 2 6 1 7 3 8 8 9 9 10 10 11 11 13 12 14 22 15
DOCKED: REMARK SMILES IDX 13 16 21 17 14 18 20 19 15 20 19 21 16 22 17 23 18 24
DOCKED: REMARK H PARENT 7 3 9 12
DOCKED: USER                              x       y       z     vdW  Elec       q    Type
DOCKED: USER                           _______ _______ _______ _____ _____    ______ ____
DOCKED: ROOT
DOCKED: ATOM      1  C   UNL     1     140.466  76.266 221.200 -0.29 -0.01    +0.027 C  
DOCKED: ENDROOT
DOCKED: BRANCH   1   2
DOCKED: ATOM      2  O   UNL     1     141.763  75.861 220.880 -0.09 +0.25    -0.529 OA 
DOCKED: ATOM      3  H   UNL     1     142.571  76.120 221.427 -0.39 -0.28    +0.290 HD 
DOCKED: ENDBRANCH   1   2
DOCKED: BRANCH   1   4
DOCKED: ATOM      4  N   UNL     1     140.140  77.650 221.410 +0.04 +0.20    -0.653 NA 
DOCKED: BRANCH   4   5
DOCKED: ATOM      5  C   UNL     1     141.073  78.775 221.418 -0.29 +0.05    -0.115 C  
DOCKED: BRANCH   5   6
DOCKED: ATOM      6  C   UNL     1     141.087  79.479 222.789 -0.47 +0.01    -0.035 C  
DOCKED: ATOM      7  C   UNL     1     141.816  78.609 223.821 -0.58 -0.00    +0.006 C  
DOCKED: ATOM      8  C   UNL     1     141.739  80.866 222.721 -0.56 -0.00    +0.006 C  
DOCKED: ENDBRANCH   5   6
DOCKED: ENDBRANCH   4   5
DOCKED: ENDBRANCH   1   4
DOCKED: BRANCH   1   9
DOCKED: ATOM      9  C   UNL     1     139.520  75.329 221.314 -0.22 -0.02    +0.107 C  
DOCKED: BRANCH   9  10
DOCKED: ATOM     10  N   UNL     1     139.571  74.309 222.325 -0.10 +0.05    -0.325 N  
DOCKED: ATOM     11  C   UNL     1     139.946  72.956 222.017 -0.19 -0.04    +0.273 C  
DOCKED: ATOM     12  H   UNL     1     139.329  74.549 223.313 -0.50 -0.05    +0.169 HD 
DOCKED: ATOM     13  O   UNL     1     140.247  72.643 220.832 -0.09 +0.04    -0.267 OA 
DOCKED: BRANCH  11  14
DOCKED: ATOM     14  C   UNL     1     139.982  71.924 223.078 -0.30 -0.02    +0.129 A  
DOCKED: ATOM     15  N   UNL     1     140.468  72.241 224.311 -0.06 +0.03    -0.243 NA 
DOCKED: ATOM     16  C   UNL     1     139.520  70.619 222.835 -0.24 -0.01    +0.035 A  
DOCKED: ATOM     17  C   UNL     1     140.524  71.335 225.323 -0.50 -0.01    +0.071 A  
DOCKED: ATOM     18  C   UNL     1     139.565  69.667 223.855 -0.28 -0.00    +0.013 A  
DOCKED: ATOM     19  C   UNL     1     141.032  71.707 226.572 -0.70 -0.00    +0.030 A  
DOCKED: ATOM     20  C   UNL     1     140.069  70.015 225.113 -0.43 -0.00    +0.002 A  
DOCKED: ATOM     21  C   UNL     1     141.088  70.773 227.612 -0.64 -0.00    +0.023 A  
DOCKED: ATOM     22  C   UNL     1     140.129  69.083 226.159 -0.50 -0.01    +0.030 A  
DOCKED: ATOM     23  C   UNL     1     140.638  69.463 227.407 -0.57 -0.01    +0.041 A  
DOCKED: ATOM     24  Cl  UNL     1     140.712  68.297 228.715 -0.67 +0.02    -0.084 Cl 
DOCKED: ENDBRANCH  11  14
DOCKED: ENDBRANCH   9  10
DOCKED: ENDBRANCH   1   9
DOCKED: TORSDOF 7
DOCKED: TER
DOCKED: ENDMDL
________________________________________________________________________________


    FINAL DOCKED STATE:
    ________________________


Run:   6 / 20
Time taken for this run:   0.044s

DOCKED: MODEL        6
DOCKED: USER    Run = 6
DOCKED: USER
DOCKED: USER    Estimated Free Energy of Binding    =  -5.93 kcal/mol  [=(1)+(2)+(3)-(4)]
DOCKED: USER
DOCKED: USER    (1) Final Intermolecular Energy     =  -8.02 kcal/mol
DOCKED: USER        vdW + Hbond + desolv Energy     =  -7.98 kcal/mol
DOCKED: USER        Electrostatic Energy            =  -0.04 kcal/mol
DOCKED: USER        Moving Ligand-Fixed Receptor    =  -8.02 kcal/mol
DOCKED: USER        Moving Ligand-Moving Receptor   =  +0.00 kcal/mol
DOCKED: USER    (2) Final Total Internal Energy     =  -1.21 kcal/mol
DOCKED: USER    (3) Torsional Free Energy           =  +2.09 kcal/mol
DOCKED: USER    (4) Unbound System's Energy         =  -1.21 kcal/mol
DOCKED: USER
DOCKED: USER
DOCKED: REMARK SMILES CC(C)C[N-]/C(O)=C\NC(=O)c1ccc2cc(Cl)ccc2n1
DOCKED: REMARK SMILES IDX 6 1 7 2 5 4 4 5 2 6 1 7 3 8 8 9 9 10 10 11 11 13 12 14 22 15
DOCKED: REMARK SMILES IDX 13 16 21 17 14 18 20 19 15 20 19 21 16 22 17 23 18 24
DOCKED: REMARK H PARENT 7 3 9 12
DOCKED: USER                              x       y       z     vdW  Elec       q    Type
DOCKED: USER                           _______ _______ _______ _____ _____    ______ ____
DOCKED: ROOT
DOCKED: ATOM      1  C   UNL     1     138.367  70.635 224.156 -0.30 -0.01    +0.027 C  
DOCKED: ENDROOT
DOCKED: BRANCH   1   2
DOCKED: ATOM      2  O   UNL     1     137.264  71.489 224.220 -0.04 +0.14    -0.529 OA 
DOCKED: ATOM      3  H   UNL     1     137.347  72.495 224.246 -0.45 -0.17    +0.290 HD 
DOCKED: ENDBRANCH   1   2
DOCKED: BRANCH   1   4
DOCKED: ATOM      4  N   UNL     1     138.497  69.509 225.038 +0.03 +0.07    -0.653 NA 
DOCKED: BRANCH   4   5
DOCKED: ATOM      5  C   UNL     1     139.711  69.073 225.725 -0.41 +0.02    -0.115 C  
DOCKED: BRANCH   5   6
DOCKED: ATOM      6  C   UNL     1     139.948  69.890 227.011 -0.55 +0.01    -0.035 C  
DOCKED: ATOM      7  C   UNL     1     140.680  69.034 228.052 -0.66 -0.00    +0.006 C  
DOCKED: ATOM      8  C   UNL     1     140.739  71.176 226.742 -0.70 -0.00    +0.006 C  
DOCKED: ENDBRANCH   5   6
DOCKED: ENDBRANCH   4   5
DOCKED: ENDBRANCH   1   4
DOCKED: BRANCH   1   9
DOCKED: ATOM      9  C   UNL     1     139.315  70.893 223.250 -0.26 -0.02    +0.107 C  
DOCKED: BRANCH   9  10
DOCKED: ATOM     10  N   UNL     1     139.639  72.232 222.841 -0.17 +0.07    -0.325 N  
DOCKED: ATOM     11  C   UNL     1     140.698  72.502 221.908 -0.19 -0.03    +0.273 C  
DOCKED: ATOM     12  H   UNL     1     139.097  73.036 223.231 -0.43 -0.08    +0.169 HD 
DOCKED: ATOM     13  O   UNL     1     141.364  71.546 221.421 -0.14 +0.03    -0.267 OA 
DOCKED: BRANCH  11  14
DOCKED: ATOM     14  C   UNL     1     141.016  73.892 221.511 -0.25 -0.01    +0.129 A  
DOCKED: ATOM     15  N   UNL     1     140.368  74.930 222.111 -0.62 +0.01    -0.243 NA 
DOCKED: ATOM     16  C   UNL     1     141.978  74.162 220.523 -0.26 -0.01    +0.035 A  
DOCKED: ATOM     17  C   UNL     1     140.619  76.227 221.788 -0.34 -0.02    +0.071 A  
DOCKED: ATOM     18  C   UNL     1     142.258  75.484 220.170 -0.29 -0.01    +0.013 A  
DOCKED: ATOM     19  C   UNL     1     139.928  77.258 222.432 -0.35 -0.01    +0.030 A  
DOCKED: ATOM     20  C   UNL     1     141.580  76.532 220.800 -0.27 -0.00    +0.002 A  
DOCKED: ATOM     21  C   UNL     1     140.189  78.591 222.097 -0.31 -0.01    +0.023 A  
DOCKED: ATOM     22  C   UNL     1     141.836  77.871 220.468 -0.31 -0.02    +0.030 A  
DOCKED: ATOM     23  C   UNL     1     141.141  78.898 221.118 -0.29 -0.02    +0.041 A  
DOCKED: ATOM     24  Cl  UNL     1     141.462  80.572 220.703 -0.41 +0.03    -0.084 Cl 
DOCKED: ENDBRANCH  11  14
DOCKED: ENDBRANCH   9  10
DOCKED: ENDBRANCH   1   9
DOCKED: TORSDOF 7
DOCKED: TER
DOCKED: ENDMDL
________________________________________________________________________________


    FINAL DOCKED STATE:
    ________________________


Run:   7 / 20
Time taken for this run:   0.044s

DOCKED: MODEL        7
DOCKED: USER    Run = 7
DOCKED: USER
DOCKED: USER    Estimated Free Energy of Binding    =  -6.18 kcal/mol  [=(1)+(2)+(3)-(4)]
DOCKED: USER
DOCKED: USER    (1) Final Intermolecular Energy     =  -8.27 kcal/mol
DOCKED: USER        vdW + Hbond + desolv Energy     =  -8.32 kcal/mol
DOCKED: USER        Electrostatic Energy            =  +0.05 kcal/mol
DOCKED: USER        Moving Ligand-Fixed Receptor    =  -8.27 kcal/mol
DOCKED: USER        Moving Ligand-Moving Receptor   =  +0.00 kcal/mol
DOCKED: USER    (2) Final Total Internal Energy     =  -0.92 kcal/mol
DOCKED: USER    (3) Torsional Free Energy           =  +2.09 kcal/mol
DOCKED: USER    (4) Unbound System's Energy         =  -0.92 kcal/mol
DOCKED: USER
DOCKED: USER
DOCKED: REMARK SMILES CC(C)C[N-]/C(O)=C\NC(=O)c1ccc2cc(Cl)ccc2n1
DOCKED: REMARK SMILES IDX 6 1 7 2 5 4 4 5 2 6 1 7 3 8 8 9 9 10 10 11 11 13 12 14 22 15
DOCKED: REMARK SMILES IDX 13 16 21 17 14 18 20 19 15 20 19 21 16 22 17 23 18 24
DOCKED: REMARK H PARENT 7 3 9 12
DOCKED: USER                              x       y       z     vdW  Elec       q    Type
DOCKED: USER                           _______ _______ _______ _____ _____    ______ ____
DOCKED: ROOT
DOCKED: ATOM      1  C   UNL     1     139.355  71.515 223.721 -0.31 -0.01    +0.027 C  
DOCKED: ENDROOT
DOCKED: BRANCH   1   2
DOCKED: ATOM      2  O   UNL     1     138.021  71.438 224.129 -0.05 +0.16    -0.529 OA 
DOCKED: ATOM      3  H   UNL     1     137.442  72.253 224.273 -0.41 -0.15    +0.290 HD 
DOCKED: ENDBRANCH   1   2
DOCKED: BRANCH   1   4
DOCKED: ATOM      4  N   UNL     1     140.425  71.053 224.561 -0.01 +0.10    -0.653 NA 
DOCKED: BRANCH   4   5
DOCKED: ATOM      5  C   UNL     1     140.368  69.957 225.525 -0.41 +0.02    -0.115 C  
DOCKED: BRANCH   5   6
DOCKED: ATOM      6  C   UNL     1     140.900  70.397 226.904 -0.59 +0.01    -0.035 C  
DOCKED: ATOM      7  C   UNL     1     141.108  71.917 226.929 -0.77 -0.00    +0.006 C  
DOCKED: ATOM      8  C   UNL     1     139.964  69.979 228.045 -0.64 -0.00    +0.006 C  
DOCKED: ENDBRANCH   5   6
DOCKED: ENDBRANCH   4   5
DOCKED: ENDBRANCH   1   4
DOCKED: BRANCH   1   9
DOCKED: ATOM      9  C   UNL     1     139.620  72.038 222.521 -0.26 -0.02    +0.107 C  
DOCKED: BRANCH   9  10
DOCKED: ATOM     10  N   UNL     1     139.869  73.442 222.336 -0.15 +0.04    -0.325 N  
DOCKED: ATOM     11  C   UNL     1     140.971  73.917 221.544 -0.17 -0.03    +0.273 C  
DOCKED: ATOM     12  H   UNL     1     139.237  74.141 222.787 -0.52 -0.05    +0.169 HD 
DOCKED: ATOM     13  O   UNL     1     141.744  73.089 220.986 -0.18 +0.04    -0.267 OA 
DOCKED: BRANCH  11  14
DOCKED: ATOM     14  C   UNL     1     141.207  75.368 221.378 -0.28 -0.04    +0.129 A  
DOCKED: ATOM     15  N   UNL     1     140.666  76.246 222.268 -0.32 +0.06    -0.243 NA 
DOCKED: ATOM     16  C   UNL     1     141.984  75.858 220.314 -0.27 -0.02    +0.035 A  
DOCKED: ATOM     17  C   UNL     1     140.850  77.590 222.165 -0.38 -0.03    +0.071 A  
DOCKED: ATOM     18  C   UNL     1     142.192  77.233 220.182 -0.31 -0.01    +0.013 A  
DOCKED: ATOM     19  C   UNL     1     140.274  78.452 223.103 -0.37 -0.01    +0.030 A  
DOCKED: ATOM     20  C   UNL     1     141.626  78.115 221.108 -0.34 -0.00    +0.002 A  
DOCKED: ATOM     21  C   UNL     1     140.466  79.834 222.995 -0.42 -0.00    +0.023 A  
DOCKED: ATOM     22  C   UNL     1     141.813  79.501 221.005 -0.35 -0.02    +0.030 A  
DOCKED: ATOM     23  C   UNL     1     141.234  80.358 221.948 -0.38 -0.01    +0.041 A  
DOCKED: ATOM     24  Cl  UNL     1     141.469  82.092 221.819 -0.44 +0.02    -0.084 Cl 
DOCKED: ENDBRANCH  11  14
DOCKED: ENDBRANCH   9  10
DOCKED: ENDBRANCH   1   9
DOCKED: TORSDOF 7
DOCKED: TER
DOCKED: ENDMDL
________________________________________________________________________________


    FINAL DOCKED STATE:
    ________________________


Run:   8 / 20
Time taken for this run:   0.044s

DOCKED: MODEL        8
DOCKED: USER    Run = 8
DOCKED: USER
DOCKED: USER    Estimated Free Energy of Binding    =  -5.77 kcal/mol  [=(1)+(2)+(3)-(4)]
DOCKED: USER
DOCKED: USER    (1) Final Intermolecular Energy     =  -7.85 kcal/mol
DOCKED: USER        vdW + Hbond + desolv Energy     =  -7.90 kcal/mol
DOCKED: USER        Electrostatic Energy            =  +0.05 kcal/mol
DOCKED: USER        Moving Ligand-Fixed Receptor    =  -7.85 kcal/mol
DOCKED: USER        Moving Ligand-Moving Receptor   =  +0.00 kcal/mol
DOCKED: USER    (2) Final Total Internal Energy     =  -1.15 kcal/mol
DOCKED: USER    (3) Torsional Free Energy           =  +2.09 kcal/mol
DOCKED: USER    (4) Unbound System's Energy         =  -1.15 kcal/mol
DOCKED: USER
DOCKED: USER
DOCKED: REMARK SMILES CC(C)C[N-]/C(O)=C\NC(=O)c1ccc2cc(Cl)ccc2n1
DOCKED: REMARK SMILES IDX 6 1 7 2 5 4 4 5 2 6 1 7 3 8 8 9 9 10 10 11 11 13 12 14 22 15
DOCKED: REMARK SMILES IDX 13 16 21 17 14 18 20 19 15 20 19 21 16 22 17 23 18 24
DOCKED: REMARK H PARENT 7 3 9 12
DOCKED: USER                              x       y       z     vdW  Elec       q    Type
DOCKED: USER                           _______ _______ _______ _____ _____    ______ ____
DOCKED: ROOT
DOCKED: ATOM      1  C   UNL     1     139.020  69.582 224.471 -0.34 -0.00    +0.027 C  
DOCKED: ENDROOT
DOCKED: BRANCH   1   2
DOCKED: ATOM      2  O   UNL     1     138.850  68.203 224.606 -0.42 +0.02    -0.529 OA 
DOCKED: ATOM      3  H   UNL     1     139.459  67.528 224.167 +0.05 -0.04    +0.290 HD 
DOCKED: ENDBRANCH   1   2
DOCKED: BRANCH   1   4
DOCKED: ATOM      4  N   UNL     1     139.411  70.404 225.582 +0.06 +0.10    -0.653 NA 
DOCKED: BRANCH   4   5
DOCKED: ATOM      5  C   UNL     1     140.772  70.800 225.939 -0.52 +0.02    -0.115 C  
DOCKED: BRANCH   5   6
DOCKED: ATOM      6  C   UNL     1     141.038  70.591 227.444 -0.62 +0.01    -0.035 C  
DOCKED: ATOM      7  C   UNL     1     140.686  71.863 228.224 -0.76 -0.00    +0.006 C  
DOCKED: ATOM      8  C   UNL     1     140.257  69.398 228.009 -0.65 -0.00    +0.006 C  
DOCKED: ENDBRANCH   5   6
DOCKED: ENDBRANCH   4   5
DOCKED: ENDBRANCH   1   4
DOCKED: BRANCH   1   9
DOCKED: ATOM      9  C   UNL     1     138.803  70.132 223.272 -0.22 -0.02    +0.107 C  
DOCKED: BRANCH   9  10
DOCKED: ATOM     10  N   UNL     1     139.226  71.468 222.954 -0.14 +0.07    -0.325 N  
DOCKED: ATOM     11  C   UNL     1     140.193  71.730 221.923 -0.17 -0.04    +0.273 C  
DOCKED: ATOM     12  H   UNL     1     138.827  72.275 223.484 -0.28 -0.07    +0.169 HD 
DOCKED: ATOM     13  O   UNL     1     140.685  70.770 221.267 -0.10 +0.04    -0.267 OA 
DOCKED: BRANCH  11  14
DOCKED: ATOM     14  C   UNL     1     140.616  73.115 221.623 -0.24 -0.01    +0.129 A  
DOCKED: ATOM     15  N   UNL     1     139.951  74.162 222.188 -0.78 +0.02    -0.243 NA 
DOCKED: ATOM     16  C   UNL     1     141.697  73.372 220.762 -0.24 -0.01    +0.035 A  
DOCKED: ATOM     17  C   UNL     1     140.296  75.455 221.949 -0.31 -0.01    +0.071 A  
DOCKED: ATOM     18  C   UNL     1     142.076  74.690 220.498 -0.29 -0.00    +0.013 A  
DOCKED: ATOM     19  C   UNL     1     139.583  76.496 222.553 -0.28 -0.01    +0.030 A  
DOCKED: ATOM     20  C   UNL     1     141.378  75.748 221.090 -0.31 -0.00    +0.002 A  
DOCKED: ATOM     21  C   UNL     1     139.942  77.826 222.306 -0.35 -0.01    +0.023 A  
DOCKED: ATOM     22  C   UNL     1     141.731  77.084 220.846 -0.23 -0.02    +0.030 A  
DOCKED: ATOM     23  C   UNL     1     141.013  78.120 221.454 -0.32 -0.02    +0.041 A  
DOCKED: ATOM     24  Cl  UNL     1     141.455  79.790 221.149 -0.44 +0.03    -0.084 Cl 
DOCKED: ENDBRANCH  11  14
DOCKED: ENDBRANCH   9  10
DOCKED: ENDBRANCH   1   9
DOCKED: TORSDOF 7
DOCKED: TER
DOCKED: ENDMDL
________________________________________________________________________________


    FINAL DOCKED STATE:
    ________________________


Run:   9 / 20
Time taken for this run:   0.044s

DOCKED: MODEL        9
DOCKED: USER    Run = 9
DOCKED: USER
DOCKED: USER    Estimated Free Energy of Binding    =  -5.73 kcal/mol  [=(1)+(2)+(3)-(4)]
DOCKED: USER
DOCKED: USER    (1) Final Intermolecular Energy     =  -7.81 kcal/mol
DOCKED: USER        vdW + Hbond + desolv Energy     =  -6.93 kcal/mol
DOCKED: USER        Electrostatic Energy            =  -0.89 kcal/mol
DOCKED: USER        Moving Ligand-Fixed Receptor    =  -7.81 kcal/mol
DOCKED: USER        Moving Ligand-Moving Receptor   =  +0.00 kcal/mol
DOCKED: USER    (2) Final Total Internal Energy     =  -1.76 kcal/mol
DOCKED: USER    (3) Torsional Free Energy           =  +2.09 kcal/mol
DOCKED: USER    (4) Unbound System's Energy         =  -1.76 kcal/mol
DOCKED: USER
DOCKED: USER
DOCKED: REMARK SMILES CC(C)C[N-]/C(O)=C\NC(=O)c1ccc2cc(Cl)ccc2n1
DOCKED: REMARK SMILES IDX 6 1 7 2 5 4 4 5 2 6 1 7 3 8 8 9 9 10 10 11 11 13 12 14 22 15
DOCKED: REMARK SMILES IDX 13 16 21 17 14 18 20 19 15 20 19 21 16 22 17 23 18 24
DOCKED: REMARK H PARENT 7 3 9 12
DOCKED: USER                              x       y       z     vdW  Elec       q    Type
DOCKED: USER                           _______ _______ _______ _____ _____    ______ ____
DOCKED: ROOT
DOCKED: ATOM      1  C   UNL     1     145.281  73.318 217.579 -0.18 +0.00    +0.027 C  
DOCKED: ENDROOT
DOCKED: BRANCH   1   2
DOCKED: ATOM      2  O   UNL     1     146.036  74.140 216.740 -0.05 +0.03    -0.529 OA 
DOCKED: ATOM      3  H   UNL     1     145.960  75.147 216.741 -0.42 -0.17    +0.290 HD 
DOCKED: ENDBRANCH   1   2
DOCKED: BRANCH   1   4
DOCKED: ATOM      4  N   UNL     1     145.898  72.312 218.399 -0.40 -0.73    -0.653 NA 
DOCKED: BRANCH   4   5
DOCKED: ATOM      5  C   UNL     1     145.758  72.158 219.845 -0.30 -0.05    -0.115 C  
DOCKED: BRANCH   5   6
DOCKED: ATOM      6  C   UNL     1     145.922  73.510 220.569 -0.63 +0.00    -0.035 C  
DOCKED: ATOM      7  C   UNL     1     144.547  74.139 220.830 -0.41 -0.00    +0.006 C  
DOCKED: ATOM      8  C   UNL     1     146.692  73.370 221.889 -0.67 -0.00    +0.006 C  
DOCKED: ENDBRANCH   5   6
DOCKED: ENDBRANCH   4   5
DOCKED: ENDBRANCH   1   4
DOCKED: BRANCH   1   9
DOCKED: ATOM      9  C   UNL     1     143.956  73.483 217.600 -0.10 -0.02    +0.107 C  
DOCKED: BRANCH   9  10
DOCKED: ATOM     10  N   UNL     1     143.327  74.535 218.350 -0.06 +0.11    -0.325 N  
DOCKED: ATOM     11  C   UNL     1     143.437  75.914 217.959 -0.13 -0.15    +0.273 C  
DOCKED: ATOM     12  H   UNL     1     142.774  74.299 219.206 +0.07 -0.05    +0.169 HD 
DOCKED: ATOM     13  O   UNL     1     144.096  76.222 216.927 -0.19 +0.18    -0.267 OA 
DOCKED: BRANCH  11  14
DOCKED: ATOM     14  C   UNL     1     142.786  76.977 218.756 -0.28 -0.08    +0.129 A  
DOCKED: ATOM     15  N   UNL     1     142.227  76.671 219.961 -0.19 +0.14    -0.243 NA 
DOCKED: ATOM     16  C   UNL     1     142.733  78.302 218.290 -0.29 -0.03    +0.035 A  
DOCKED: ATOM     17  C   UNL     1     141.616  77.606 220.736 -0.28 -0.04    +0.071 A  
DOCKED: ATOM     18  C   UNL     1     142.113  79.285 219.064 -0.28 -0.01    +0.013 A  
DOCKED: ATOM     19  C   UNL     1     141.057  77.244 221.966 -0.38 -0.01    +0.030 A  
DOCKED: ATOM     20  C   UNL     1     141.547  78.947 220.298 -0.29 -0.00    +0.002 A  
DOCKED: ATOM     21  C   UNL     1     140.430  78.209 222.760 -0.41 -0.01    +0.023 A  
DOCKED: ATOM     22  C   UNL     1     140.915  79.910 221.100 -0.27 -0.01    +0.030 A  
DOCKED: ATOM     23  C   UNL     1     140.358  79.539 222.330 -0.31 -0.01    +0.041 A  
DOCKED: ATOM     24  Cl  UNL     1     139.570  80.743 223.332 -0.46 +0.01    -0.084 Cl 
DOCKED: ENDBRANCH  11  14
DOCKED: ENDBRANCH   9  10
DOCKED: ENDBRANCH   1   9
DOCKED: TORSDOF 7
DOCKED: TER
DOCKED: ENDMDL
________________________________________________________________________________


    FINAL DOCKED STATE:
    ________________________


Run:   10 / 20
Time taken for this run:   0.044s

DOCKED: MODEL        10
DOCKED: USER    Run = 10
DOCKED: USER
DOCKED: USER    Estimated Free Energy of Binding    =  -5.75 kcal/mol  [=(1)+(2)+(3)-(4)]
DOCKED: USER
DOCKED: USER    (1) Final Intermolecular Energy     =  -7.84 kcal/mol
DOCKED: USER        vdW + Hbond + desolv Energy     =  -8.09 kcal/mol
DOCKED: USER        Electrostatic Energy            =  +0.25 kcal/mol
DOCKED: USER        Moving Ligand-Fixed Receptor    =  -7.84 kcal/mol
DOCKED: USER        Moving Ligand-Moving Receptor   =  +0.00 kcal/mol
DOCKED: USER    (2) Final Total Internal Energy     =  -1.16 kcal/mol
DOCKED: USER    (3) Torsional Free Energy           =  +2.09 kcal/mol
DOCKED: USER    (4) Unbound System's Energy         =  -1.16 kcal/mol
DOCKED: USER
DOCKED: USER
DOCKED: REMARK SMILES CC(C)C[N-]/C(O)=C\NC(=O)c1ccc2cc(Cl)ccc2n1
DOCKED: REMARK SMILES IDX 6 1 7 2 5 4 4 5 2 6 1 7 3 8 8 9 9 10 10 11 11 13 12 14 22 15
DOCKED: REMARK SMILES IDX 13 16 21 17 14 18 20 19 15 20 19 21 16 22 17 23 18 24
DOCKED: REMARK H PARENT 7 3 9 12
DOCKED: USER                              x       y       z     vdW  Elec       q    Type
DOCKED: USER                           _______ _______ _______ _____ _____    ______ ____
DOCKED: ROOT
DOCKED: ATOM      1  C   UNL     1     139.497  76.553 221.310 -0.24 -0.01    +0.027 C  
DOCKED: ENDROOT
DOCKED: BRANCH   1   2
DOCKED: ATOM      2  O   UNL     1     139.154  77.428 220.277 +0.02 +0.14    -0.529 OA 
DOCKED: ATOM      3  H   UNL     1     138.702  77.126 219.426 +0.04 -0.07    +0.290 HD 
DOCKED: ENDBRANCH   1   2
DOCKED: BRANCH   1   4
DOCKED: ATOM      4  N   UNL     1     139.878  77.036 222.608 +0.01 +0.14    -0.653 NA 
DOCKED: BRANCH   4   5
DOCKED: ATOM      5  C   UNL     1     141.103  77.756 222.948 -0.33 +0.04    -0.115 C  
DOCKED: BRANCH   5   6
DOCKED: ATOM      6  C   UNL     1     140.876  79.281 222.936 -0.47 +0.01    -0.035 C  
DOCKED: ATOM      7  C   UNL     1     139.633  79.637 223.762 -0.43 -0.00    +0.006 C  
DOCKED: ATOM      8  C   UNL     1     142.093  80.051 223.464 -0.65 -0.00    +0.006 C  
DOCKED: ENDBRANCH   5   6
DOCKED: ENDBRANCH   4   5
DOCKED: ENDBRANCH   1   4
DOCKED: BRANCH   1   9
DOCKED: ATOM      9  C   UNL     1     139.470  75.240 221.062 -0.19 -0.02    +0.107 C  
DOCKED: BRANCH   9  10
DOCKED: ATOM     10  N   UNL     1     139.571  74.261 222.109 -0.14 +0.05    -0.325 N  
DOCKED: ATOM     11  C   UNL     1     139.743  72.863 221.824 -0.18 -0.05    +0.273 C  
DOCKED: ATOM     12  H   UNL     1     139.518  74.566 223.107 -0.52 -0.01    +0.169 HD 
DOCKED: ATOM     13  O   UNL     1     139.815  72.472 220.625 -0.06 +0.05    -0.267 OA 
DOCKED: BRANCH  11  14
DOCKED: ATOM     14  C   UNL     1     139.836  71.876 222.922 -0.28 -0.02    +0.129 A  
DOCKED: ATOM     15  N   UNL     1     140.338  72.257 224.131 -0.15 +0.04    -0.243 NA 
DOCKED: ATOM     16  C   UNL     1     139.414  70.548 222.741 -0.22 -0.01    +0.035 A  
DOCKED: ATOM     17  C   UNL     1     140.447  71.395 225.176 -0.48 -0.01    +0.071 A  
DOCKED: ATOM     18  C   UNL     1     139.513  69.639 223.797 -0.27 -0.00    +0.013 A  
DOCKED: ATOM     19  C   UNL     1     140.968  71.832 226.398 -0.66 -0.00    +0.030 A  
DOCKED: ATOM     20  C   UNL     1     140.031  70.053 225.028 -0.43 -0.00    +0.002 A  
DOCKED: ATOM     21  C   UNL     1     141.078  70.942 227.471 -0.67 -0.00    +0.023 A  
DOCKED: ATOM     22  C   UNL     1     140.145  69.166 226.108 -0.49 -0.01    +0.030 A  
DOCKED: ATOM     23  C   UNL     1     140.668  69.612 227.328 -0.56 -0.01    +0.041 A  
DOCKED: ATOM     24  Cl  UNL     1     140.810  68.502 228.679 -0.72 +0.02    -0.084 Cl 
DOCKED: ENDBRANCH  11  14
DOCKED: ENDBRANCH   9  10
DOCKED: ENDBRANCH   1   9
DOCKED: TORSDOF 7
DOCKED: TER
DOCKED: ENDMDL
________________________________________________________________________________


    FINAL DOCKED STATE:
    ________________________


Run:   11 / 20
Time taken for this run:   0.044s

DOCKED: MODEL        11
DOCKED: USER    Run = 11
DOCKED: USER
DOCKED: USER    Estimated Free Energy of Binding    =  -5.83 kcal/mol  [=(1)+(2)+(3)-(4)]
DOCKED: USER
DOCKED: USER    (1) Final Intermolecular Energy     =  -7.92 kcal/mol
DOCKED: USER        vdW + Hbond + desolv Energy     =  -8.20 kcal/mol
DOCKED: USER        Electrostatic Energy            =  +0.28 kcal/mol
DOCKED: USER        Moving Ligand-Fixed Receptor    =  -7.92 kcal/mol
DOCKED: USER        Moving Ligand-Moving Receptor   =  +0.00 kcal/mol
DOCKED: USER    (2) Final Total Internal Energy     =  -1.09 kcal/mol
DOCKED: USER    (3) Torsional Free Energy           =  +2.09 kcal/mol
DOCKED: USER    (4) Unbound System's Energy         =  -1.09 kcal/mol
DOCKED: USER
DOCKED: USER
DOCKED: REMARK SMILES CC(C)C[N-]/C(O)=C\NC(=O)c1ccc2cc(Cl)ccc2n1
DOCKED: REMARK SMILES IDX 6 1 7 2 5 4 4 5 2 6 1 7 3 8 8 9 9 10 10 11 11 13 12 14 22 15
DOCKED: REMARK SMILES IDX 13 16 21 17 14 18 20 19 15 20 19 21 16 22 17 23 18 24
DOCKED: REMARK H PARENT 7 3 9 12
DOCKED: USER                              x       y       z     vdW  Elec       q    Type
DOCKED: USER                           _______ _______ _______ _____ _____    ______ ____
DOCKED: ROOT
DOCKED: ATOM      1  C   UNL     1     139.543  76.540 221.309 -0.24 -0.01    +0.027 C  
DOCKED: ENDROOT
DOCKED: BRANCH   1   2
DOCKED: ATOM      2  O   UNL     1     138.978  77.411 220.376 +0.02 +0.13    -0.529 OA 
DOCKED: ATOM      3  H   UNL     1     138.527  77.095 219.530 +0.04 -0.07    +0.290 HD 
DOCKED: ENDBRANCH   1   2
DOCKED: BRANCH   1   4
DOCKED: ATOM      4  N   UNL     1     140.188  77.027 222.497 -0.01 +0.16    -0.653 NA 
DOCKED: BRANCH   4   5
DOCKED: ATOM      5  C   UNL     1     141.303  77.969 222.562 -0.34 +0.05    -0.115 C  
DOCKED: BRANCH   5   6
DOCKED: ATOM      6  C   UNL     1     141.061  79.048 223.638 -0.53 +0.01    -0.035 C  
DOCKED: ATOM      7  C   UNL     1     142.201  80.073 223.623 -0.65 -0.00    +0.006 C  
DOCKED: ATOM      8  C   UNL     1     139.715  79.760 223.450 -0.44 -0.00    +0.006 C  
DOCKED: ENDBRANCH   5   6
DOCKED: ENDBRANCH   4   5
DOCKED: ENDBRANCH   1   4
DOCKED: BRANCH   1   9
DOCKED: ATOM      9  C   UNL     1     139.478  75.227 221.070 -0.19 -0.02    +0.107 C  
DOCKED: BRANCH   9  10
DOCKED: ATOM     10  N   UNL     1     139.584  74.252 222.120 -0.14 +0.05    -0.325 N  
DOCKED: ATOM     11  C   UNL     1     139.752  72.852 221.838 -0.18 -0.05    +0.273 C  
DOCKED: ATOM     12  H   UNL     1     139.536  74.560 223.117 -0.52 -0.01    +0.169 HD 
DOCKED: ATOM     13  O   UNL     1     139.817  72.457 220.640 -0.06 +0.05    -0.267 OA 
DOCKED: BRANCH  11  14
DOCKED: ATOM     14  C   UNL     1     139.850  71.869 222.939 -0.28 -0.02    +0.129 A  
DOCKED: ATOM     15  N   UNL     1     140.341  72.258 224.149 -0.14 +0.04    -0.243 NA 
DOCKED: ATOM     16  C   UNL     1     139.442  70.536 222.759 -0.23 -0.01    +0.035 A  
DOCKED: ATOM     17  C   UNL     1     140.454  71.399 225.197 -0.49 -0.01    +0.071 A  
DOCKED: ATOM     18  C   UNL     1     139.545  69.630 223.817 -0.27 -0.00    +0.013 A  
DOCKED: ATOM     19  C   UNL     1     140.965  71.844 226.421 -0.67 -0.00    +0.030 A  
DOCKED: ATOM     20  C   UNL     1     140.053  70.053 225.050 -0.43 -0.00    +0.002 A  
DOCKED: ATOM     21  C   UNL     1     141.078  70.958 227.497 -0.67 -0.00    +0.023 A  
DOCKED: ATOM     22  C   UNL     1     140.171  69.168 226.133 -0.50 -0.01    +0.030 A  
DOCKED: ATOM     23  C   UNL     1     140.683  69.623 227.354 -0.56 -0.01    +0.041 A  
DOCKED: ATOM     24  Cl  UNL     1     140.829  68.517 228.708 -0.72 +0.02    -0.084 Cl 
DOCKED: ENDBRANCH  11  14
DOCKED: ENDBRANCH   9  10
DOCKED: ENDBRANCH   1   9
DOCKED: TORSDOF 7
DOCKED: TER
DOCKED: ENDMDL
________________________________________________________________________________


    FINAL DOCKED STATE:
    ________________________


Run:   12 / 20
Time taken for this run:   0.044s

DOCKED: MODEL        12
DOCKED: USER    Run = 12
DOCKED: USER
DOCKED: USER    Estimated Free Energy of Binding    =  -5.82 kcal/mol  [=(1)+(2)+(3)-(4)]
DOCKED: USER
DOCKED: USER    (1) Final Intermolecular Energy     =  -7.91 kcal/mol
DOCKED: USER        vdW + Hbond + desolv Energy     =  -8.15 kcal/mol
DOCKED: USER        Electrostatic Energy            =  +0.24 kcal/mol
DOCKED: USER        Moving Ligand-Fixed Receptor    =  -7.91 kcal/mol
DOCKED: USER        Moving Ligand-Moving Receptor   =  +0.00 kcal/mol
DOCKED: USER    (2) Final Total Internal Energy     =  -1.07 kcal/mol
DOCKED: USER    (3) Torsional Free Energy           =  +2.09 kcal/mol
DOCKED: USER    (4) Unbound System's Energy         =  -1.07 kcal/mol
DOCKED: USER
DOCKED: USER
DOCKED: REMARK SMILES CC(C)C[N-]/C(O)=C\NC(=O)c1ccc2cc(Cl)ccc2n1
DOCKED: REMARK SMILES IDX 6 1 7 2 5 4 4 5 2 6 1 7 3 8 8 9 9 10 10 11 11 13 12 14 22 15
DOCKED: REMARK SMILES IDX 13 16 21 17 14 18 20 19 15 20 19 21 16 22 17 23 18 24
DOCKED: REMARK H PARENT 7 3 9 12
DOCKED: USER                              x       y       z     vdW  Elec       q    Type
DOCKED: USER                           _______ _______ _______ _____ _____    ______ ____
DOCKED: ROOT
DOCKED: ATOM      1  C   UNL     1     139.197  76.497 221.306 -0.22 -0.01    +0.027 C  
DOCKED: ENDROOT
DOCKED: BRANCH   1   2
DOCKED: ATOM      2  O   UNL     1     138.401  77.174 220.381 +0.01 +0.12    -0.529 OA 
DOCKED: ATOM      3  H   UNL     1     138.755  77.905 219.780 +0.05 -0.07    +0.290 HD 
DOCKED: ENDBRANCH   1   2
DOCKED: BRANCH   1   4
DOCKED: ATOM      4  N   UNL     1     139.695  77.146 222.487 -0.00 +0.14    -0.653 NA 
DOCKED: BRANCH   4   5
DOCKED: ATOM      5  C   UNL     1     141.037  77.690 222.685 -0.38 +0.04    -0.115 C  
DOCKED: BRANCH   5   6
DOCKED: ATOM      6  C   UNL     1     141.011  79.231 222.750 -0.46 +0.01    -0.035 C  
DOCKED: ATOM      7  C   UNL     1     139.758  79.706 223.497 -0.44 -0.00    +0.006 C  
DOCKED: ATOM      8  C   UNL     1     142.267  79.803 223.418 -0.65 -0.00    +0.006 C  
DOCKED: ENDBRANCH   5   6
DOCKED: ENDBRANCH   4   5
DOCKED: ENDBRANCH   1   4
DOCKED: BRANCH   1   9
DOCKED: ATOM      9  C   UNL     1     139.496  75.217 221.066 -0.19 -0.02    +0.107 C  
DOCKED: BRANCH   9  10
DOCKED: ATOM     10  N   UNL     1     139.590  74.242 222.118 -0.14 +0.05    -0.325 N  
DOCKED: ATOM     11  C   UNL     1     139.767  72.843 221.839 -0.18 -0.05    +0.273 C  
DOCKED: ATOM     12  H   UNL     1     139.527  74.551 223.114 -0.52 -0.01    +0.169 HD 
DOCKED: ATOM     13  O   UNL     1     139.850  72.447 220.643 -0.06 +0.05    -0.267 OA 
DOCKED: BRANCH  11  14
DOCKED: ATOM     14  C   UNL     1     139.852  71.861 222.943 -0.28 -0.02    +0.129 A  
DOCKED: ATOM     15  N   UNL     1     140.349  72.246 224.152 -0.15 +0.04    -0.243 NA 
DOCKED: ATOM     16  C   UNL     1     139.427  70.533 222.765 -0.23 -0.01    +0.035 A  
DOCKED: ATOM     17  C   UNL     1     140.450  71.387 225.202 -0.49 -0.01    +0.071 A  
DOCKED: ATOM     18  C   UNL     1     139.518  69.628 223.825 -0.27 -0.00    +0.013 A  
DOCKED: ATOM     19  C   UNL     1     140.967  71.829 226.424 -0.67 -0.00    +0.030 A  
DOCKED: ATOM     20  C   UNL     1     140.032  70.046 225.057 -0.43 -0.00    +0.002 A  
DOCKED: ATOM     21  C   UNL     1     141.070  70.943 227.502 -0.67 -0.00    +0.023 A  
DOCKED: ATOM     22  C   UNL     1     140.139  69.163 226.142 -0.50 -0.01    +0.030 A  
DOCKED: ATOM     23  C   UNL     1     140.657  69.613 227.362 -0.56 -0.01    +0.041 A  
DOCKED: ATOM     24  Cl  UNL     1     140.789  68.508 228.718 -0.71 +0.02    -0.084 Cl 
DOCKED: ENDBRANCH  11  14
DOCKED: ENDBRANCH   9  10
DOCKED: ENDBRANCH   1   9
DOCKED: TORSDOF 7
DOCKED: TER
DOCKED: ENDMDL
________________________________________________________________________________


    FINAL DOCKED STATE:
    ________________________


Run:   13 / 20
Time taken for this run:   0.044s

DOCKED: MODEL        13
DOCKED: USER    Run = 13
DOCKED: USER
DOCKED: USER    Estimated Free Energy of Binding    =  -5.69 kcal/mol  [=(1)+(2)+(3)-(4)]
DOCKED: USER
DOCKED: USER    (1) Final Intermolecular Energy     =  -7.78 kcal/mol
DOCKED: USER        vdW + Hbond + desolv Energy     =  -6.59 kcal/mol
DOCKED: USER        Electrostatic Energy            =  -1.19 kcal/mol
DOCKED: USER        Moving Ligand-Fixed Receptor    =  -7.78 kcal/mol
DOCKED: USER        Moving Ligand-Moving Receptor   =  +0.00 kcal/mol
DOCKED: USER    (2) Final Total Internal Energy     =  -1.43 kcal/mol
DOCKED: USER    (3) Torsional Free Energy           =  +2.09 kcal/mol
DOCKED: USER    (4) Unbound System's Energy         =  -1.43 kcal/mol
DOCKED: USER
DOCKED: USER
DOCKED: REMARK SMILES CC(C)C[N-]/C(O)=C\NC(=O)c1ccc2cc(Cl)ccc2n1
DOCKED: REMARK SMILES IDX 6 1 7 2 5 4 4 5 2 6 1 7 3 8 8 9 9 10 10 11 11 13 12 14 22 15
DOCKED: REMARK SMILES IDX 13 16 21 17 14 18 20 19 15 20 19 21 16 22 17 23 18 24
DOCKED: REMARK H PARENT 7 3 9 12
DOCKED: USER                              x       y       z     vdW  Elec       q    Type
DOCKED: USER                           _______ _______ _______ _____ _____    ______ ____
DOCKED: ROOT
DOCKED: ATOM      1  C   UNL     1     145.574  72.852 217.100 -0.16 +0.01    +0.027 C  
DOCKED: ENDROOT
DOCKED: BRANCH   1   2
DOCKED: ATOM      2  O   UNL     1     145.937  71.894 216.151 -0.02 -0.26    -0.529 OA 
DOCKED: ATOM      3  H   UNL     1     145.280  71.483 215.504 +0.04 +0.03    +0.290 HD 
DOCKED: ENDBRANCH   1   2
DOCKED: BRANCH   1   4
DOCKED: ATOM      4  N   UNL     1     146.317  73.023 218.318 -0.32 -0.83    -0.653 NA 
DOCKED: BRANCH   4   5
DOCKED: ATOM      5  C   UNL     1     145.951  72.522 219.641 -0.30 -0.06    -0.115 C  
DOCKED: BRANCH   5   6
DOCKED: ATOM      6  C   UNL     1     145.749  73.679 220.641 -0.63 +0.00    -0.035 C  
DOCKED: ATOM      7  C   UNL     1     144.253  73.971 220.815 -0.38 -0.00    +0.006 C  
DOCKED: ATOM      8  C   UNL     1     146.387  73.384 222.004 -0.67 -0.00    +0.006 C  
DOCKED: ENDBRANCH   5   6
DOCKED: ENDBRANCH   4   5
DOCKED: ENDBRANCH   1   4
DOCKED: BRANCH   1   9
DOCKED: ATOM      9  C   UNL     1     144.504  73.614 216.853 -0.10 -0.01    +0.107 C  
DOCKED: BRANCH   9  10
DOCKED: ATOM     10  N   UNL     1     144.104  74.680 217.729 -0.05 +0.13    -0.325 N  
DOCKED: ATOM     11  C   UNL     1     142.899  75.431 217.506 -0.09 -0.12    +0.273 C  
DOCKED: ATOM     12  H   UNL     1     144.702  74.924 218.551 -0.38 -0.11    +0.169 HD 
DOCKED: ATOM     13  O   UNL     1     142.159  75.151 216.522 -0.02 +0.09    -0.267 OA 
DOCKED: BRANCH  11  14
DOCKED: ATOM     14  C   UNL     1     142.516  76.529 218.421 -0.22 -0.07    +0.129 A  
DOCKED: ATOM     15  N   UNL     1     142.006  76.237 219.650 -0.14 +0.12    -0.243 NA 
DOCKED: ATOM     16  C   UNL     1     142.672  77.874 218.043 -0.30 -0.03    +0.035 A  
DOCKED: ATOM     17  C   UNL     1     141.638  77.205 220.532 -0.26 -0.04    +0.071 A  
DOCKED: ATOM     18  C   UNL     1     142.303  78.890 218.928 -0.25 -0.01    +0.013 A  
DOCKED: ATOM     19  C   UNL     1     141.119  76.855 221.783 -0.32 -0.01    +0.030 A  
DOCKED: ATOM     20  C   UNL     1     141.781  78.566 220.184 -0.30 -0.00    +0.002 A  
DOCKED: ATOM     21  C   UNL     1     140.742  77.853 222.688 -0.44 -0.01    +0.023 A  
DOCKED: ATOM     22  C   UNL     1     141.400  79.561 221.096 -0.33 -0.01    +0.030 A  
DOCKED: ATOM     23  C   UNL     1     140.881  79.204 222.346 -0.38 -0.01    +0.041 A  
DOCKED: ATOM     24  Cl  UNL     1     140.406  80.449 223.486 -0.55 +0.01    -0.084 Cl 
DOCKED: ENDBRANCH  11  14
DOCKED: ENDBRANCH   9  10
DOCKED: ENDBRANCH   1   9
DOCKED: TORSDOF 7
DOCKED: TER
DOCKED: ENDMDL
________________________________________________________________________________


    FINAL DOCKED STATE:
    ________________________


Run:   14 / 20
Time taken for this run:   0.044s

DOCKED: MODEL        14
DOCKED: USER    Run = 14
DOCKED: USER
DOCKED: USER    Estimated Free Energy of Binding    =  -6.28 kcal/mol  [=(1)+(2)+(3)-(4)]
DOCKED: USER
DOCKED: USER    (1) Final Intermolecular Energy     =  -8.37 kcal/mol
DOCKED: USER        vdW + Hbond + desolv Energy     =  -8.40 kcal/mol
DOCKED: USER        Electrostatic Energy            =  +0.03 kcal/mol
DOCKED: USER        Moving Ligand-Fixed Receptor    =  -8.37 kcal/mol
DOCKED: USER        Moving Ligand-Moving Receptor   =  +0.00 kcal/mol
DOCKED: USER    (2) Final Total Internal Energy     =  -0.99 kcal/mol
DOCKED: USER    (3) Torsional Free Energy           =  +2.09 kcal/mol
DOCKED: USER    (4) Unbound System's Energy         =  -0.99 kcal/mol
DOCKED: USER
DOCKED: USER
DOCKED: REMARK SMILES CC(C)C[N-]/C(O)=C\NC(=O)c1ccc2cc(Cl)ccc2n1
DOCKED: REMARK SMILES IDX 6 1 7 2 5 4 4 5 2 6 1 7 3 8 8 9 9 10 10 11 11 13 12 14 22 15
DOCKED: REMARK SMILES IDX 13 16 21 17 14 18 20 19 15 20 19 21 16 22 17 23 18 24
DOCKED: REMARK H PARENT 7 3 9 12
DOCKED: USER                              x       y       z     vdW  Elec       q    Type
DOCKED: USER                           _______ _______ _______ _____ _____    ______ ____
DOCKED: ROOT
DOCKED: ATOM      1  C   UNL     1     139.250  71.189 223.820 -0.34 -0.01    +0.027 C  
DOCKED: ENDROOT
DOCKED: BRANCH   1   2
DOCKED: ATOM      2  O   UNL     1     137.935  71.496 224.176 -0.05 +0.16    -0.529 OA 
DOCKED: ATOM      3  H   UNL     1     137.583  72.441 224.221 -0.41 -0.19    +0.290 HD 
DOCKED: ENDBRANCH   1   2
DOCKED: BRANCH   1   4
DOCKED: ATOM      4  N   UNL     1     140.082  70.366 224.654 +0.03 +0.11    -0.653 NA 
DOCKED: BRANCH   4   5
DOCKED: ATOM      5  C   UNL     1     141.056  70.826 225.641 -0.51 +0.02    -0.115 C  
DOCKED: BRANCH   5   6
DOCKED: ATOM      6  C   UNL     1     140.469  70.787 227.067 -0.63 +0.01    -0.035 C  
DOCKED: ATOM      7  C   UNL     1     140.690  69.404 227.691 -0.64 -0.00    +0.006 C  
DOCKED: ATOM      8  C   UNL     1     141.071  71.871 227.970 -0.83 -0.00    +0.006 C  
DOCKED: ENDBRANCH   5   6
DOCKED: ENDBRANCH   4   5
DOCKED: ENDBRANCH   1   4
DOCKED: BRANCH   1   9
DOCKED: ATOM      9  C   UNL     1     139.729  71.687 222.676 -0.27 -0.02    +0.107 C  
DOCKED: BRANCH   9  10
DOCKED: ATOM     10  N   UNL     1     139.988  73.089 222.501 -0.13 +0.03    -0.325 N  
DOCKED: ATOM     11  C   UNL     1     140.895  73.571 221.495 -0.18 -0.03    +0.273 C  
DOCKED: ATOM     12  H   UNL     1     139.511  73.783 223.120 -0.51 -0.04    +0.169 HD 
DOCKED: ATOM     13  O   UNL     1     141.479  72.751 220.733 -0.14 +0.04    -0.267 OA 
DOCKED: BRANCH  11  14
DOCKED: ATOM     14  C   UNL     1     141.149  75.021 221.343 -0.27 -0.03    +0.129 A  
DOCKED: ATOM     15  N   UNL     1     140.609  75.898 222.235 -0.38 +0.05    -0.243 NA 
DOCKED: ATOM     16  C   UNL     1     141.942  75.511 220.291 -0.27 -0.01    +0.035 A  
DOCKED: ATOM     17  C   UNL     1     140.810  77.240 222.145 -0.37 -0.03    +0.071 A  
DOCKED: ATOM     18  C   UNL     1     142.167  76.884 220.173 -0.30 -0.01    +0.013 A  
DOCKED: ATOM     19  C   UNL     1     140.234  78.101 223.085 -0.28 -0.01    +0.030 A  
DOCKED: ATOM     20  C   UNL     1     141.602  77.765 221.101 -0.31 -0.00    +0.002 A  
DOCKED: ATOM     21  C   UNL     1     140.443  79.481 222.990 -0.42 -0.01    +0.023 A  
DOCKED: ATOM     22  C   UNL     1     141.806  79.150 221.011 -0.34 -0.02    +0.030 A  
DOCKED: ATOM     23  C   UNL     1     141.227  80.005 221.956 -0.38 -0.01    +0.041 A  
DOCKED: ATOM     24  Cl  UNL     1     141.483  81.737 221.844 -0.49 +0.02    -0.084 Cl 
DOCKED: ENDBRANCH  11  14
DOCKED: ENDBRANCH   9  10
DOCKED: ENDBRANCH   1   9
DOCKED: TORSDOF 7
DOCKED: TER
DOCKED: ENDMDL
________________________________________________________________________________


    FINAL DOCKED STATE:
    ________________________


Run:   15 / 20
Time taken for this run:   0.044s

DOCKED: MODEL        15
DOCKED: USER    Run = 15
DOCKED: USER
DOCKED: USER    Estimated Free Energy of Binding    =  -6.20 kcal/mol  [=(1)+(2)+(3)-(4)]
DOCKED: USER
DOCKED: USER    (1) Final Intermolecular Energy     =  -8.29 kcal/mol
DOCKED: USER        vdW + Hbond + desolv Energy     =  -8.33 kcal/mol
DOCKED: USER        Electrostatic Energy            =  +0.04 kcal/mol
DOCKED: USER        Moving Ligand-Fixed Receptor    =  -8.29 kcal/mol
DOCKED: USER        Moving Ligand-Moving Receptor   =  +0.00 kcal/mol
DOCKED: USER    (2) Final Total Internal Energy     =  -0.89 kcal/mol
DOCKED: USER    (3) Torsional Free Energy           =  +2.09 kcal/mol
DOCKED: USER    (4) Unbound System's Energy         =  -0.89 kcal/mol
DOCKED: USER
DOCKED: USER
DOCKED: REMARK SMILES CC(C)C[N-]/C(O)=C\NC(=O)c1ccc2cc(Cl)ccc2n1
DOCKED: REMARK SMILES IDX 6 1 7 2 5 4 4 5 2 6 1 7 3 8 8 9 9 10 10 11 11 13 12 14 22 15
DOCKED: REMARK SMILES IDX 13 16 21 17 14 18 20 19 15 20 19 21 16 22 17 23 18 24
DOCKED: REMARK H PARENT 7 3 9 12
DOCKED: USER                              x       y       z     vdW  Elec       q    Type
DOCKED: USER                           _______ _______ _______ _____ _____    ______ ____
DOCKED: ROOT
DOCKED: ATOM      1  C   UNL     1     139.481  71.509 223.768 -0.34 -0.01    +0.027 C  
DOCKED: ENDROOT
DOCKED: BRANCH   1   2
DOCKED: ATOM      2  O   UNL     1     138.160  71.395 224.206 -0.06 +0.16    -0.529 OA 
DOCKED: ATOM      3  H   UNL     1     137.572  72.194 224.394 -0.36 -0.15    +0.290 HD 
DOCKED: ENDBRANCH   1   2
DOCKED: BRANCH   1   4
DOCKED: ATOM      4  N   UNL     1     140.584  71.088 224.588 -0.01 +0.09    -0.653 NA 
DOCKED: BRANCH   4   5
DOCKED: ATOM      5  C   UNL     1     140.569  70.030 225.595 -0.43 +0.02    -0.115 C  
DOCKED: BRANCH   5   6
DOCKED: ATOM      6  C   UNL     1     140.315  70.603 227.004 -0.60 +0.01    -0.035 C  
DOCKED: ATOM      7  C   UNL     1     140.692  69.568 228.071 -0.63 -0.00    +0.006 C  
DOCKED: ATOM      8  C   UNL     1     141.084  71.908 227.245 -0.81 -0.00    +0.006 C  
DOCKED: ENDBRANCH   5   6
DOCKED: ENDBRANCH   4   5
DOCKED: ENDBRANCH   1   4
DOCKED: BRANCH   1   9
DOCKED: ATOM      9  C   UNL     1     139.704  72.029 222.558 -0.26 -0.02    +0.107 C  
DOCKED: BRANCH   9  10
DOCKED: ATOM     10  N   UNL     1     139.928  73.434 222.357 -0.14 +0.03    -0.325 N  
DOCKED: ATOM     11  C   UNL     1     141.006  73.920 221.539 -0.17 -0.03    +0.273 C  
DOCKED: ATOM     12  H   UNL     1     139.296  74.128 222.817 -0.49 -0.04    +0.169 HD 
DOCKED: ATOM     13  O   UNL     1     141.780  73.100 220.971 -0.18 +0.04    -0.267 OA 
DOCKED: BRANCH  11  14
DOCKED: ATOM     14  C   UNL     1     141.217  75.373 221.358 -0.28 -0.04    +0.129 A  
DOCKED: ATOM     15  N   UNL     1     140.692  76.249 222.260 -0.32 +0.06    -0.243 NA 
DOCKED: ATOM     16  C   UNL     1     141.954  75.867 220.268 -0.27 -0.02    +0.035 A  
DOCKED: ATOM     17  C   UNL     1     140.855  77.594 222.144 -0.37 -0.03    +0.071 A  
DOCKED: ATOM     18  C   UNL     1     142.139  77.244 220.122 -0.32 -0.01    +0.013 A  
DOCKED: ATOM     19  C   UNL     1     140.296  78.454 223.095 -0.38 -0.01    +0.030 A  
DOCKED: ATOM     20  C   UNL     1     141.590  78.124 221.061 -0.34 -0.00    +0.002 A  
DOCKED: ATOM     21  C   UNL     1     140.466  79.837 222.974 -0.41 -0.00    +0.023 A  
DOCKED: ATOM     22  C   UNL     1     141.755  79.512 220.944 -0.34 -0.02    +0.030 A  
DOCKED: ATOM     23  C   UNL     1     141.194  80.366 221.901 -0.37 -0.01    +0.041 A  
DOCKED: ATOM     24  Cl  UNL     1     141.402  82.102 221.755 -0.44 +0.02    -0.084 Cl 
DOCKED: ENDBRANCH  11  14
DOCKED: ENDBRANCH   9  10
DOCKED: ENDBRANCH   1   9
DOCKED: TORSDOF 7
DOCKED: TER
DOCKED: ENDMDL
________________________________________________________________________________


    FINAL DOCKED STATE:
    ________________________


Run:   16 / 20
Time taken for this run:   0.044s

DOCKED: MODEL        16
DOCKED: USER    Run = 16
DOCKED: USER
DOCKED: USER    Estimated Free Energy of Binding    =  -5.42 kcal/mol  [=(1)+(2)+(3)-(4)]
DOCKED: USER
DOCKED: USER    (1) Final Intermolecular Energy     =  -7.50 kcal/mol
DOCKED: USER        vdW + Hbond + desolv Energy     =  -7.56 kcal/mol
DOCKED: USER        Electrostatic Energy            =  +0.06 kcal/mol
DOCKED: USER        Moving Ligand-Fixed Receptor    =  -7.50 kcal/mol
DOCKED: USER        Moving Ligand-Moving Receptor   =  +0.00 kcal/mol
DOCKED: USER    (2) Final Total Internal Energy     =  -1.97 kcal/mol
DOCKED: USER    (3) Torsional Free Energy           =  +2.09 kcal/mol
DOCKED: USER    (4) Unbound System's Energy         =  -1.97 kcal/mol
DOCKED: USER
DOCKED: USER
DOCKED: REMARK SMILES CC(C)C[N-]/C(O)=C\NC(=O)c1ccc2cc(Cl)ccc2n1
DOCKED: REMARK SMILES IDX 6 1 7 2 5 4 4 5 2 6 1 7 3 8 8 9 9 10 10 11 11 13 12 14 22 15
DOCKED: REMARK SMILES IDX 13 16 21 17 14 18 20 19 15 20 19 21 16 22 17 23 18 24
DOCKED: REMARK H PARENT 7 3 9 12
DOCKED: USER                              x       y       z     vdW  Elec       q    Type
DOCKED: USER                           _______ _______ _______ _____ _____    ______ ____
DOCKED: ROOT
DOCKED: ATOM      1  C   UNL     1     138.691  69.006 225.238 -0.40 -0.00    +0.027 C  
DOCKED: ENDROOT
DOCKED: BRANCH   1   2
DOCKED: ATOM      2  O   UNL     1     139.200  67.927 224.511 -0.47 +0.04    -0.529 OA 
DOCKED: ATOM      3  H   UNL     1     139.656  68.032 223.617 +0.04 -0.07    +0.290 HD 
DOCKED: ENDBRANCH   1   2
DOCKED: BRANCH   1   4
DOCKED: ATOM      4  N   UNL     1     138.929  69.141 226.648 +0.11 +0.07    -0.653 NA 
DOCKED: BRANCH   4   5
DOCKED: ATOM      5  C   UNL     1     140.146  69.641 227.284 -0.51 +0.02    -0.115 C  
DOCKED: BRANCH   5   6
DOCKED: ATOM      6  C   UNL     1     140.454  71.087 226.846 -0.63 +0.01    -0.035 C  
DOCKED: ATOM      7  C   UNL     1     141.000  71.892 228.031 -0.81 -0.00    +0.006 C  
DOCKED: ATOM      8  C   UNL     1     141.444  71.138 225.676 -0.55 -0.00    +0.006 C  
DOCKED: ENDBRANCH   5   6
DOCKED: ENDBRANCH   4   5
DOCKED: ENDBRANCH   1   4
DOCKED: BRANCH   1   9
DOCKED: ATOM      9  C   UNL     1     137.963  69.919 224.588 -0.26 -0.01    +0.107 C  
DOCKED: BRANCH   9  10
DOCKED: ATOM     10  N   UNL     1     138.559  71.063 223.955 -0.14 +0.08    -0.325 N  
DOCKED: ATOM     11  C   UNL     1     139.559  70.927 222.931 -0.18 -0.05    +0.273 C  
DOCKED: ATOM     12  H   UNL     1     138.264  72.024 224.242 -0.30 -0.09    +0.169 HD 
DOCKED: ATOM     13  O   UNL     1     139.927  69.776 222.565 -0.07 +0.05    -0.267 OA 
DOCKED: BRANCH  11  14
DOCKED: ATOM     14  C   UNL     1     140.160  72.123 222.302 -0.26 -0.02    +0.129 A  
DOCKED: ATOM     15  N   UNL     1     139.593  73.346 222.498 -0.59 +0.04    -0.243 NA 
DOCKED: ATOM     16  C   UNL     1     141.312  72.020 221.503 -0.24 -0.00    +0.035 A  
DOCKED: ATOM     17  C   UNL     1     140.102  74.480 221.946 -0.22 -0.01    +0.071 A  
DOCKED: ATOM     18  C   UNL     1     141.859  73.166 220.923 -0.26 -0.00    +0.013 A  
DOCKED: ATOM     19  C   UNL     1     139.484  75.713 222.176 -0.32 -0.01    +0.030 A  
DOCKED: ATOM     20  C   UNL     1     141.258  74.411 221.138 -0.30 -0.00    +0.002 A  
DOCKED: ATOM     21  C   UNL     1     140.011  76.877 221.607 -0.30 -0.01    +0.023 A  
DOCKED: ATOM     22  C   UNL     1     141.781  75.582 220.570 -0.28 -0.01    +0.030 A  
DOCKED: ATOM     23  C   UNL     1     141.157  76.813 220.805 -0.27 -0.02    +0.041 A  
DOCKED: ATOM     24  Cl  UNL     1     141.812  78.277 220.095 -0.35 +0.05    -0.084 Cl 
DOCKED: ENDBRANCH  11  14
DOCKED: ENDBRANCH   9  10
DOCKED: ENDBRANCH   1   9
DOCKED: TORSDOF 7
DOCKED: TER
DOCKED: ENDMDL
________________________________________________________________________________


    FINAL DOCKED STATE:
    ________________________


Run:   17 / 20
Time taken for this run:   0.044s

DOCKED: MODEL        17
DOCKED: USER    Run = 17
DOCKED: USER
DOCKED: USER    Estimated Free Energy of Binding    =  -6.29 kcal/mol  [=(1)+(2)+(3)-(4)]
DOCKED: USER
DOCKED: USER    (1) Final Intermolecular Energy     =  -8.38 kcal/mol
DOCKED: USER        vdW + Hbond + desolv Energy     =  -8.41 kcal/mol
DOCKED: USER        Electrostatic Energy            =  +0.03 kcal/mol
DOCKED: USER        Moving Ligand-Fixed Receptor    =  -8.38 kcal/mol
DOCKED: USER        Moving Ligand-Moving Receptor   =  +0.00 kcal/mol
DOCKED: USER    (2) Final Total Internal Energy     =  -0.98 kcal/mol
DOCKED: USER    (3) Torsional Free Energy           =  +2.09 kcal/mol
DOCKED: USER    (4) Unbound System's Energy         =  -0.98 kcal/mol
DOCKED: USER
DOCKED: USER
DOCKED: REMARK SMILES CC(C)C[N-]/C(O)=C\NC(=O)c1ccc2cc(Cl)ccc2n1
DOCKED: REMARK SMILES IDX 6 1 7 2 5 4 4 5 2 6 1 7 3 8 8 9 9 10 10 11 11 13 12 14 22 15
DOCKED: REMARK SMILES IDX 13 16 21 17 14 18 20 19 15 20 19 21 16 22 17 23 18 24
DOCKED: REMARK H PARENT 7 3 9 12
DOCKED: USER                              x       y       z     vdW  Elec       q    Type
DOCKED: USER                           _______ _______ _______ _____ _____    ______ ____
DOCKED: ROOT
DOCKED: ATOM      1  C   UNL     1     139.164  71.164 223.799 -0.34 -0.01    +0.027 C  
DOCKED: ENDROOT
DOCKED: BRANCH   1   2
DOCKED: ATOM      2  O   UNL     1     137.825  71.507 223.995 -0.06 +0.16    -0.529 OA 
DOCKED: ATOM      3  H   UNL     1     137.521  72.448 224.195 -0.42 -0.18    +0.290 HD 
DOCKED: ENDBRANCH   1   2
DOCKED: BRANCH   1   4
DOCKED: ATOM      4  N   UNL     1     139.873  70.337 224.736 +0.03 +0.11    -0.653 NA 
DOCKED: BRANCH   4   5
DOCKED: ATOM      5  C   UNL     1     140.921  70.765 225.660 -0.51 +0.02    -0.115 C  
DOCKED: BRANCH   5   6
DOCKED: ATOM      6  C   UNL     1     140.419  70.756 227.118 -0.63 +0.01    -0.035 C  
DOCKED: ATOM      7  C   UNL     1     140.678  69.386 227.756 -0.64 -0.00    +0.006 C  
DOCKED: ATOM      8  C   UNL     1     141.073  71.858 227.961 -0.83 -0.00    +0.006 C  
DOCKED: ENDBRANCH   5   6
DOCKED: ENDBRANCH   4   5
DOCKED: ENDBRANCH   1   4
DOCKED: BRANCH   1   9
DOCKED: ATOM      9  C   UNL     1     139.784  71.631 222.711 -0.27 -0.02    +0.107 C  
DOCKED: BRANCH   9  10
DOCKED: ATOM     10  N   UNL     1     140.029  73.033 222.512 -0.14 +0.03    -0.325 N  
DOCKED: ATOM     11  C   UNL     1     140.963  73.505 221.526 -0.18 -0.03    +0.273 C  
DOCKED: ATOM     12  H   UNL     1     139.520  73.733 223.097 -0.51 -0.04    +0.169 HD 
DOCKED: ATOM     13  O   UNL     1     141.585  72.677 220.805 -0.14 +0.04    -0.267 OA 
DOCKED: BRANCH  11  14
DOCKED: ATOM     14  C   UNL     1     141.201  74.954 221.349 -0.27 -0.03    +0.129 A  
DOCKED: ATOM     15  N   UNL     1     140.673  75.839 222.241 -0.38 +0.05    -0.243 NA 
DOCKED: ATOM     16  C   UNL     1     141.966  75.437 220.273 -0.27 -0.01    +0.035 A  
DOCKED: ATOM     17  C   UNL     1     140.860  77.181 222.129 -0.37 -0.03    +0.071 A  
DOCKED: ATOM     18  C   UNL     1     142.175  76.810 220.131 -0.31 -0.01    +0.013 A  
DOCKED: ATOM     19  C   UNL     1     140.298  78.051 223.070 -0.27 -0.01    +0.030 A  
DOCKED: ATOM     20  C   UNL     1     141.623  77.699 221.059 -0.30 -0.00    +0.002 A  
DOCKED: ATOM     21  C   UNL     1     140.492  79.431 222.951 -0.42 -0.01    +0.023 A  
DOCKED: ATOM     22  C   UNL     1     141.813  79.084 220.946 -0.33 -0.02    +0.030 A  
DOCKED: ATOM     23  C   UNL     1     141.248  79.948 221.892 -0.37 -0.01    +0.041 A  
DOCKED: ATOM     24  Cl  UNL     1     141.486  81.680 221.751 -0.49 +0.02    -0.084 Cl 
DOCKED: ENDBRANCH  11  14
DOCKED: ENDBRANCH   9  10
DOCKED: ENDBRANCH   1   9
DOCKED: TORSDOF 7
DOCKED: TER
DOCKED: ENDMDL
________________________________________________________________________________


    FINAL DOCKED STATE:
    ________________________


Run:   18 / 20
Time taken for this run:   0.044s

DOCKED: MODEL        18
DOCKED: USER    Run = 18
DOCKED: USER
DOCKED: USER    Estimated Free Energy of Binding    =  -6.29 kcal/mol  [=(1)+(2)+(3)-(4)]
DOCKED: USER
DOCKED: USER    (1) Final Intermolecular Energy     =  -8.38 kcal/mol
DOCKED: USER        vdW + Hbond + desolv Energy     =  -8.54 kcal/mol
DOCKED: USER        Electrostatic Energy            =  +0.16 kcal/mol
DOCKED: USER        Moving Ligand-Fixed Receptor    =  -8.38 kcal/mol
DOCKED: USER        Moving Ligand-Moving Receptor   =  +0.00 kcal/mol
DOCKED: USER    (2) Final Total Internal Energy     =  -0.85 kcal/mol
DOCKED: USER    (3) Torsional Free Energy           =  +2.09 kcal/mol
DOCKED: USER    (4) Unbound System's Energy         =  -0.85 kcal/mol
DOCKED: USER
DOCKED: USER
DOCKED: REMARK SMILES CC(C)C[N-]/C(O)=C\NC(=O)c1ccc2cc(Cl)ccc2n1
DOCKED: REMARK SMILES IDX 6 1 7 2 5 4 4 5 2 6 1 7 3 8 8 9 9 10 10 11 11 13 12 14 22 15
DOCKED: REMARK SMILES IDX 13 16 21 17 14 18 20 19 15 20 19 21 16 22 17 23 18 24
DOCKED: REMARK H PARENT 7 3 9 12
DOCKED: USER                              x       y       z     vdW  Elec       q    Type
DOCKED: USER                           _______ _______ _______ _____ _____    ______ ____
DOCKED: ROOT
DOCKED: ATOM      1  C   UNL     1     140.356  76.409 221.333 -0.30 -0.01    +0.027 C  
DOCKED: ENDROOT
DOCKED: BRANCH   1   2
DOCKED: ATOM      2  O   UNL     1     141.682  76.221 220.940 -0.07 +0.27    -0.529 OA 
DOCKED: ATOM      3  H   UNL     1     142.467  76.389 221.553 -0.39 -0.31    +0.290 HD 
DOCKED: ENDBRANCH   1   2
DOCKED: BRANCH   1   4
DOCKED: ATOM      4  N   UNL     1     139.868  77.697 221.740 +0.03 +0.18    -0.653 NA 
DOCKED: BRANCH   4   5
DOCKED: ATOM      5  C   UNL     1     140.568  78.974 221.620 -0.25 +0.04    -0.115 C  
DOCKED: BRANCH   5   6
DOCKED: ATOM      6  C   UNL     1     140.879  79.572 223.007 -0.47 +0.01    -0.035 C  
DOCKED: ATOM      7  C   UNL     1     141.810  78.636 223.788 -0.59 -0.00    +0.006 C  
DOCKED: ATOM      8  C   UNL     1     141.506  80.969 222.907 -0.54 -0.00    +0.006 C  
DOCKED: ENDBRANCH   5   6
DOCKED: ENDBRANCH   4   5
DOCKED: ENDBRANCH   1   4
DOCKED: BRANCH   1   9
DOCKED: ATOM      9  C   UNL     1     139.539  75.351 221.328 -0.23 -0.02    +0.107 C  
DOCKED: BRANCH   9  10
DOCKED: ATOM     10  N   UNL     1     139.601  74.331 222.338 -0.09 +0.04    -0.325 N  
DOCKED: ATOM     11  C   UNL     1     139.888  72.960 222.013 -0.19 -0.04    +0.273 C  
DOCKED: ATOM     12  H   UNL     1     139.432  74.584 223.338 -0.48 -0.03    +0.169 HD 
DOCKED: ATOM     13  O   UNL     1     140.099  72.632 220.812 -0.09 +0.05    -0.267 OA 
DOCKED: BRANCH  11  14
DOCKED: ATOM     14  C   UNL     1     139.937  71.930 223.073 -0.29 -0.02    +0.129 A  
DOCKED: ATOM     15  N   UNL     1     140.418  72.253 224.307 -0.07 +0.04    -0.243 NA 
DOCKED: ATOM     16  C   UNL     1     139.494  70.618 222.830 -0.24 -0.01    +0.035 A  
DOCKED: ATOM     17  C   UNL     1     140.486  71.348 225.319 -0.50 -0.01    +0.071 A  
DOCKED: ATOM     18  C   UNL     1     139.551  69.666 223.851 -0.28 -0.00    +0.013 A  
DOCKED: ATOM     19  C   UNL     1     140.987  71.727 226.569 -0.69 -0.00    +0.030 A  
DOCKED: ATOM     20  C   UNL     1     140.049  70.022 225.109 -0.43 -0.00    +0.002 A  
DOCKED: ATOM     21  C   UNL     1     141.056  70.793 227.608 -0.65 -0.00    +0.023 A  
DOCKED: ATOM     22  C   UNL     1     140.121  69.090 226.155 -0.50 -0.01    +0.030 A  
DOCKED: ATOM     23  C   UNL     1     140.624  69.477 227.403 -0.57 -0.01    +0.041 A  
DOCKED: ATOM     24  Cl  UNL     1     140.713  68.312 228.712 -0.67 +0.02    -0.084 Cl 
DOCKED: ENDBRANCH  11  14
DOCKED: ENDBRANCH   9  10
DOCKED: ENDBRANCH   1   9
DOCKED: TORSDOF 7
DOCKED: TER
DOCKED: ENDMDL
________________________________________________________________________________


    FINAL DOCKED STATE:
    ________________________


Run:   19 / 20
Time taken for this run:   0.044s

DOCKED: MODEL        19
DOCKED: USER    Run = 19
DOCKED: USER
DOCKED: USER    Estimated Free Energy of Binding    =  -6.31 kcal/mol  [=(1)+(2)+(3)-(4)]
DOCKED: USER
DOCKED: USER    (1) Final Intermolecular Energy     =  -8.40 kcal/mol
DOCKED: USER        vdW + Hbond + desolv Energy     =  -8.58 kcal/mol
DOCKED: USER        Electrostatic Energy            =  +0.17 kcal/mol
DOCKED: USER        Moving Ligand-Fixed Receptor    =  -8.40 kcal/mol
DOCKED: USER        Moving Ligand-Moving Receptor   =  +0.00 kcal/mol
DOCKED: USER    (2) Final Total Internal Energy     =  -0.85 kcal/mol
DOCKED: USER    (3) Torsional Free Energy           =  +2.09 kcal/mol
DOCKED: USER    (4) Unbound System's Energy         =  -0.85 kcal/mol
DOCKED: USER
DOCKED: USER
DOCKED: REMARK SMILES CC(C)C[N-]/C(O)=C\NC(=O)c1ccc2cc(Cl)ccc2n1
DOCKED: REMARK SMILES IDX 6 1 7 2 5 4 4 5 2 6 1 7 3 8 8 9 9 10 10 11 11 13 12 14 22 15
DOCKED: REMARK SMILES IDX 13 16 21 17 14 18 20 19 15 20 19 21 16 22 17 23 18 24
DOCKED: REMARK H PARENT 7 3 9 12
DOCKED: USER                              x       y       z     vdW  Elec       q    Type
DOCKED: USER                           _______ _______ _______ _____ _____    ______ ____
DOCKED: ROOT
DOCKED: ATOM      1  C   UNL     1     140.428  76.186 221.081 -0.27 -0.01    +0.027 C  
DOCKED: ENDROOT
DOCKED: BRANCH   1   2
DOCKED: ATOM      2  O   UNL     1     141.738  75.712 220.979 -0.10 +0.23    -0.529 OA 
DOCKED: ATOM      3  H   UNL     1     142.486  76.030 221.578 -0.42 -0.27    +0.290 HD 
DOCKED: ENDBRANCH   1   2
DOCKED: BRANCH   1   4
DOCKED: ATOM      4  N   UNL     1     140.127  77.588 220.997 +0.06 +0.21    -0.653 NA 
DOCKED: BRANCH   4   5
DOCKED: ATOM      5  C   UNL     1     140.123  78.548 222.099 -0.28 +0.03    -0.115 C  
DOCKED: BRANCH   5   6
DOCKED: ATOM      6  C   UNL     1     141.555  78.983 222.467 -0.49 +0.01    -0.035 C  
DOCKED: ATOM      7  C   UNL     1     141.827  80.399 221.945 -0.48 -0.00    +0.006 C  
DOCKED: ATOM      8  C   UNL     1     141.807  78.925 223.979 -0.58 -0.00    +0.006 C  
DOCKED: ENDBRANCH   5   6
DOCKED: ENDBRANCH   4   5
DOCKED: ENDBRANCH   1   4
DOCKED: BRANCH   1   9
DOCKED: ATOM      9  C   UNL     1     139.447  75.298 221.266 -0.21 -0.02    +0.107 C  
DOCKED: BRANCH   9  10
DOCKED: ATOM     10  N   UNL     1     139.513  74.284 222.282 -0.10 +0.05    -0.325 N  
DOCKED: ATOM     11  C   UNL     1     139.878  72.927 221.975 -0.19 -0.04    +0.273 C  
DOCKED: ATOM     12  H   UNL     1     139.289  74.531 223.272 -0.52 -0.05    +0.169 HD 
DOCKED: ATOM     13  O   UNL     1     140.157  72.607 220.785 -0.09 +0.04    -0.267 OA 
DOCKED: BRANCH  11  14
DOCKED: ATOM     14  C   UNL     1     139.930  71.902 223.040 -0.29 -0.02    +0.129 A  
DOCKED: ATOM     15  N   UNL     1     140.420  72.230 224.269 -0.09 +0.04    -0.243 NA 
DOCKED: ATOM     16  C   UNL     1     139.480  70.591 222.807 -0.24 -0.01    +0.035 A  
DOCKED: ATOM     17  C   UNL     1     140.491  71.330 225.285 -0.50 -0.01    +0.071 A  
DOCKED: ATOM     18  C   UNL     1     139.539  69.645 223.832 -0.27 -0.00    +0.013 A  
DOCKED: ATOM     19  C   UNL     1     141.003  71.713 226.530 -0.69 -0.00    +0.030 A  
DOCKED: ATOM     20  C   UNL     1     140.047  70.005 225.085 -0.43 -0.00    +0.002 A  
DOCKED: ATOM     21  C   UNL     1     141.074  70.785 227.573 -0.65 -0.00    +0.023 A  
DOCKED: ATOM     22  C   UNL     1     140.122  69.078 226.136 -0.50 -0.01    +0.030 A  
DOCKED: ATOM     23  C   UNL     1     140.635  69.470 227.378 -0.57 -0.01    +0.041 A  
DOCKED: ATOM     24  Cl  UNL     1     140.728  68.312 228.692 -0.68 +0.02    -0.084 Cl 
DOCKED: ENDBRANCH  11  14
DOCKED: ENDBRANCH   9  10
DOCKED: ENDBRANCH   1   9
DOCKED: TORSDOF 7
DOCKED: TER
DOCKED: ENDMDL
________________________________________________________________________________


    FINAL DOCKED STATE:
    ________________________


Run:   20 / 20
Time taken for this run:   0.044s

DOCKED: MODEL        20
DOCKED: USER    Run = 20
DOCKED: USER
DOCKED: USER    Estimated Free Energy of Binding    =  -6.25 kcal/mol  [=(1)+(2)+(3)-(4)]
DOCKED: USER
DOCKED: USER    (1) Final Intermolecular Energy     =  -8.34 kcal/mol
DOCKED: USER        vdW + Hbond + desolv Energy     =  -8.38 kcal/mol
DOCKED: USER        Electrostatic Energy            =  +0.04 kcal/mol
DOCKED: USER        Moving Ligand-Fixed Receptor    =  -8.34 kcal/mol
DOCKED: USER        Moving Ligand-Moving Receptor   =  +0.00 kcal/mol
DOCKED: USER    (2) Final Total Internal Energy     =  -0.98 kcal/mol
DOCKED: USER    (3) Torsional Free Energy           =  +2.09 kcal/mol
DOCKED: USER    (4) Unbound System's Energy         =  -0.98 kcal/mol
DOCKED: USER
DOCKED: USER
DOCKED: REMARK SMILES CC(C)C[N-]/C(O)=C\NC(=O)c1ccc2cc(Cl)ccc2n1
DOCKED: REMARK SMILES IDX 6 1 7 2 5 4 4 5 2 6 1 7 3 8 8 9 9 10 10 11 11 13 12 14 22 15
DOCKED: REMARK SMILES IDX 13 16 21 17 14 18 20 19 15 20 19 21 16 22 17 23 18 24
DOCKED: REMARK H PARENT 7 3 9 12
DOCKED: USER                              x       y       z     vdW  Elec       q    Type
DOCKED: USER                           _______ _______ _______ _____ _____    ______ ____
DOCKED: ROOT
DOCKED: ATOM      1  C   UNL     1     139.148  71.386 223.768 -0.29 -0.01    +0.027 C  
DOCKED: ENDROOT
DOCKED: BRANCH   1   2
DOCKED: ATOM      2  O   UNL     1     137.816  71.510 224.168 -0.05 +0.16    -0.529 OA 
DOCKED: ATOM      3  H   UNL     1     137.364  72.402 224.308 -0.43 -0.16    +0.290 HD 
DOCKED: ENDBRANCH   1   2
DOCKED: BRANCH   1   4
DOCKED: ATOM      4  N   UNL     1     140.126  70.740 224.599 -0.00 +0.11    -0.653 NA 
DOCKED: BRANCH   4   5
DOCKED: ATOM      5  C   UNL     1     141.069  71.391 225.506 -0.47 +0.01    -0.115 C  
DOCKED: BRANCH   5   6
DOCKED: ATOM      6  C   UNL     1     141.004  70.775 226.918 -0.63 +0.01    -0.035 C  
DOCKED: ATOM      7  C   UNL     1     140.743  71.870 227.960 -0.82 -0.00    +0.006 C  
DOCKED: ATOM      8  C   UNL     1     139.930  69.685 227.024 -0.58 -0.00    +0.006 C  
DOCKED: ENDBRANCH   5   6
DOCKED: ENDBRANCH   4   5
DOCKED: ENDBRANCH   1   4
DOCKED: BRANCH   1   9
DOCKED: ATOM      9  C   UNL     1     139.503  71.892 222.583 -0.26 -0.02    +0.107 C  
DOCKED: BRANCH   9  10
DOCKED: ATOM     10  N   UNL     1     139.781  73.290 222.400 -0.13 +0.05    -0.325 N  
DOCKED: ATOM     11  C   UNL     1     140.856  73.745 221.561 -0.18 -0.03    +0.273 C  
DOCKED: ATOM     12  H   UNL     1     139.191  74.002 222.888 -0.53 -0.06    +0.169 HD 
DOCKED: ATOM     13  O   UNL     1     141.579  72.903 220.958 -0.16 +0.04    -0.267 OA 
DOCKED: BRANCH  11  14
DOCKED: ATOM     14  C   UNL     1     141.124  75.190 221.398 -0.28 -0.03    +0.129 A  
DOCKED: ATOM     15  N   UNL     1     140.575  76.081 222.271 -0.35 +0.06    -0.243 NA 
DOCKED: ATOM     16  C   UNL     1     141.939  75.663 220.355 -0.27 -0.02    +0.035 A  
DOCKED: ATOM     17  C   UNL     1     140.787  77.421 222.170 -0.38 -0.03    +0.071 A  
DOCKED: ATOM     18  C   UNL     1     142.176  77.034 220.226 -0.29 -0.01    +0.013 A  
DOCKED: ATOM     19  C   UNL     1     140.201  78.297 223.090 -0.34 -0.01    +0.030 A  
DOCKED: ATOM     20  C   UNL     1     141.601  77.929 221.134 -0.33 -0.00    +0.002 A  
DOCKED: ATOM     21  C   UNL     1     140.422  79.674 222.984 -0.41 -0.00    +0.023 A  
DOCKED: ATOM     22  C   UNL     1     141.817  79.311 221.033 -0.35 -0.02    +0.030 A  
DOCKED: ATOM     23  C   UNL     1     141.228  80.181 221.958 -0.38 -0.01    +0.041 A  
DOCKED: ATOM     24  Cl  UNL     1     141.499  81.910 221.831 -0.46 +0.02    -0.084 Cl 
DOCKED: ENDBRANCH  11  14
DOCKED: ENDBRANCH   9  10
DOCKED: ENDBRANCH   1   9
DOCKED: TORSDOF 7
DOCKED: TER
DOCKED: ENDMDL
________________________________________________________________________________


    CLUSTERING HISTOGRAM
    ____________________


________________________________________________________________________________
     |           |     |           |     |
Clus | Lowest    | Run | Mean      | Num | Histogram
-ter | Binding   |     | Binding   | in  |
Rank | Energy    |     | Energy    | Clus|    5    10   15   20   25   30   35
_____|___________|_____|___________|_____|____:____|____:____|____:____|____:___
   1 |     -6.35 |   5 |     -6.02 |   9 |#########
   2 |     -6.29 |  17 |     -6.13 |   7 |#######
   3 |     -5.73 |   9 |     -5.71 |   2 |##
   4 |     -5.44 |   4 |     -5.43 |   2 |##
_____|___________|_____|___________|_____|______________________________________


    RMSD TABLE
    __________


_______________________________________________________________________
     |      |      |           |         |                 |
Rank | Sub- | Run  | Binding   | Cluster | Reference       | Grep
     | Rank |      | Energy    | RMSD    | RMSD            | Pattern
_____|______|______|___________|_________|_________________|___________
   1      1      5       -6.35      0.00    273.14           RANKING
   1      2      2       -6.34      0.58    273.16           RANKING
   1      3     19       -6.31      0.37    273.06           RANKING
   1      4     18       -6.29      0.21    273.16           RANKING
   1      5      3       -5.86      1.38    272.93           RANKING
   1      6     11       -5.83      1.32    272.92           RANKING
   1      7     12       -5.82      1.36    272.87           RANKING
   1      8     10       -5.75      1.29    272.89           RANKING
   1      9      1       -5.62      0.90    272.90           RANKING
   2      1     17       -6.29      0.00    272.95           RANKING
   2      2     14       -6.28      0.11    272.97           RANKING
   2      3     20       -6.25      0.40    272.95           RANKING
   2      4     15       -6.20      0.50    273.02           RANKING
   2      5      7       -6.18      0.56    272.98           RANKING
   2      6      6       -5.93      1.05    272.46           RANKING
   2      7      8       -5.77      1.81    272.52           RANKING
   3      1      9       -5.73      0.00    272.04           RANKING
   3      2     13       -5.69      1.26    271.75           RANKING
   4      1      4       -5.44      0.00    272.36           RANKING
   4      2     16       -5.42      0.08    272.36           RANKING

Run time 0.864 sec
Idle time 0.000 sec
