AutoDock-GPU version: v1.6

**********************************************************
**    AutoDock-GPU AUTODOCKTOOLS-COMPATIBLE DLG FILE    **
**********************************************************


    DOCKING PARAMETERS
    ________________________


Ligand file:                               /home/a/REINVENT4/ReinventStudies/pleaseWork/justmol2mol_4_Compounds_ontop/graph-dock-8u2o5u/graph-DockGPU/node-autodockgpu/inputs/HZBISVZEAXEHDE-GVEKLTQYNA-N.pdbqt
Grid fld file:                             /home/a/REINVENT4/ReinventStudies/mols/Rad51/maps/rad51_receptor.maps.fld

Random seed:                               42
Number of runs:                            20
Number of energy evaluations:              1259779
Number of generations:                     42000
Size of population:                        150
Rate of crossover:                         80.000000%
Tournament selection probability limit:    60.000000%
Rate of mutation:                          2.000000%
Maximal allowed delta movement:            +/- 6.000000A
Maximal allowed delta angle:               +/- 90.000000

Rate of local search:                      100.000000%
Maximal number of local search iterations: 300
Rho lower bound:                           0.010000
Spread of local search delta movement:     2.000000A
Spread of local search delta angle:        74.999999
Limit of consecutive successes/failures:   4

Handle symmetry during clustering:         YES
RMSD tolerance:                            2.000000A

Program call in command line was:          /home/a/REINVENT4/ReinventStudies/adgpu-v1.6_linux_x64_cuda12_128wi --filelist batch.txt --heuristics 1 --nrun 20 --psize 150 --lsit 300 --seed 42 --heurmax 12000000 


    GRID PARAMETERS
    ________________________


Receptor name:                             rad51_receptor
Number of grid points (x, y, z):           53, 53, 53
Grid center (x, y, z):                     139.950000, 75.640000, 221.970000A
Grid size (x, y, z):                       19.500000, 19.500000, 19.500000A
Grid spacing:                              0.375000A


    LIGAND PARAMETERS
    ________________________


Ligand name:                               /home/a/REINVENT4/ReinventStudies/pleaseWork/justmol2mol_4_Compounds_ontop/graph-dock-8u2o5u/graph-DockGPU/node-autodockgpu/inputs/HZBISVZEAXEHDE-GVEKLTQYNA-N
Number of atoms:                           29
Number of rotatable bonds:                 7
Number of atom types:                      7


    DUMMY DATA (only for ADT-compatibility)
    ________________________


DPF> outlev 1
DPF> ga_run 20
DPF> fld /home/a/REINVENT4/ReinventStudies/mols/Rad51/maps/rad51_receptor.maps.fld
DPF> move /home/a/REINVENT4/ReinventStudies/pleaseWork/justmol2mol_4_Compounds_ontop/graph-dock-8u2o5u/graph-DockGPU/node-autodockgpu/inputs/HZBISVZEAXEHDE-GVEKLTQYNA-N.pdbqt


    COUNTER STATES
    ________________________


Number of energy evaluations performed:    839776
Number of generations used:                50


    INPUT LIGAND PDBQT FILE:
    ________________________


INPUT-LIGAND-PDBQT: REMARK SMILES C[C@H](N/C(O)=C/NC(=O)c1ccc2cc(F)ccc2n1)c1ccccc1
INPUT-LIGAND-PDBQT: REMARK SMILES IDX 4 1 5 2 6 4 7 5 8 6 9 8 10 9 20 10 11 11 19 12 12 13 18 14
INPUT-LIGAND-PDBQT: REMARK SMILES IDX 13 15 17 16 14 17 15 18 16 19 3 20 2 22 1 23 21 24 22 25
INPUT-LIGAND-PDBQT: REMARK SMILES IDX 26 26 23 27 25 28 24 29
INPUT-LIGAND-PDBQT: REMARK H PARENT 5 3 7 7 3 21
INPUT-LIGAND-PDBQT: ROOT
INPUT-LIGAND-PDBQT: ATOM      1  C   UNL     1       1.344   1.644   1.231  1.00  0.00     0.201 C 
INPUT-LIGAND-PDBQT: ENDROOT
INPUT-LIGAND-PDBQT: BRANCH   1   2
INPUT-LIGAND-PDBQT: ATOM      2  O   UNL     1       0.172   0.919   1.212  1.00  0.00    -0.494 OA
INPUT-LIGAND-PDBQT: ATOM      3  H   UNL     1       0.107  -0.071   1.122  1.00  0.00     0.295 HD
INPUT-LIGAND-PDBQT: ENDBRANCH   1   2
INPUT-LIGAND-PDBQT: BRANCH   1   4
INPUT-LIGAND-PDBQT: ATOM      4  C   UNL     1       2.023   2.037   0.172  1.00  0.00     0.152 C 
INPUT-LIGAND-PDBQT: BRANCH   4   5
INPUT-LIGAND-PDBQT: ATOM      5  N   UNL     1       1.468   1.604  -1.033  1.00  0.00    -0.322 N 
INPUT-LIGAND-PDBQT: ATOM      6  C   UNL     1       0.951   1.201  -2.158  1.00  0.00     0.273 C 
INPUT-LIGAND-PDBQT: ATOM      7  H   UNL     1       1.925   2.705  -1.600  1.00  0.00     0.169 HD
INPUT-LIGAND-PDBQT: ATOM      8  O   UNL     1       1.634   1.463  -3.226  1.00  0.00    -0.267 OA
INPUT-LIGAND-PDBQT: BRANCH   6   9
INPUT-LIGAND-PDBQT: ATOM      9  C   UNL     1      -0.278   0.518  -2.373  1.00  0.00     0.129 A 
INPUT-LIGAND-PDBQT: ATOM     10  N   UNL     1      -1.086   0.144  -1.385  1.00  0.00    -0.243 NA
INPUT-LIGAND-PDBQT: ATOM     11  C   UNL     1      -0.660   0.297  -3.703  1.00  0.00     0.035 A 
INPUT-LIGAND-PDBQT: ATOM     12  C   UNL     1      -2.266  -0.441  -1.560  1.00  0.00     0.071 A 
INPUT-LIGAND-PDBQT: ATOM     13  C   UNL     1      -1.863  -0.301  -3.956  1.00  0.00     0.013 A 
INPUT-LIGAND-PDBQT: ATOM     14  C   UNL     1      -3.110  -0.832  -0.544  1.00  0.00     0.032 A 
INPUT-LIGAND-PDBQT: ATOM     15  C   UNL     1      -2.634  -0.654  -2.875  1.00  0.00     0.003 A 
INPUT-LIGAND-PDBQT: ATOM     16  C   UNL     1      -4.317  -1.430  -0.814  1.00  0.00     0.041 A 
INPUT-LIGAND-PDBQT: ATOM     17  C   UNL     1      -3.833  -1.248  -3.108  1.00  0.00     0.049 A 
INPUT-LIGAND-PDBQT: ATOM     18  C   UNL     1      -4.683  -1.641  -2.108  1.00  0.00     0.123 A 
INPUT-LIGAND-PDBQT: ATOM     19  F   UNL     1      -5.872  -2.229  -2.360  1.00  0.00    -0.207 F 
INPUT-LIGAND-PDBQT: ENDBRANCH   6   9
INPUT-LIGAND-PDBQT: ENDBRANCH   4   5
INPUT-LIGAND-PDBQT: ENDBRANCH   1   4
INPUT-LIGAND-PDBQT: BRANCH   1  20
INPUT-LIGAND-PDBQT: ATOM     20  N   UNL     1       1.897   2.010   2.463  1.00  0.00    -0.349 N 
INPUT-LIGAND-PDBQT: ATOM     21  H   UNL     1       2.728   2.640   2.598  1.00  0.00     0.164 HD
INPUT-LIGAND-PDBQT: BRANCH  20  22
INPUT-LIGAND-PDBQT: ATOM     22  C   UNL     1       1.280   1.480   3.644  1.00  0.00     0.109 C 
INPUT-LIGAND-PDBQT: ATOM     23  C   UNL     1      -0.110   2.038   3.841  1.00  0.00     0.036 C 
INPUT-LIGAND-PDBQT: BRANCH  22  24
INPUT-LIGAND-PDBQT: ATOM     24  C   UNL     1       1.100  -0.007   3.554  1.00  0.00    -0.026 A 
INPUT-LIGAND-PDBQT: ATOM     25  C   UNL     1      -0.056  -0.638   3.947  1.00  0.00     0.006 A 
INPUT-LIGAND-PDBQT: ATOM     26  C   UNL     1       2.172  -0.734   3.042  1.00  0.00     0.006 A 
INPUT-LIGAND-PDBQT: ATOM     27  C   UNL     1      -0.218  -2.010   3.857  1.00  0.00     0.000 A 
INPUT-LIGAND-PDBQT: ATOM     28  C   UNL     1       2.009  -2.098   2.953  1.00  0.00     0.000 A 
INPUT-LIGAND-PDBQT: ATOM     29  C   UNL     1       0.838  -2.733   3.352  1.00  0.00     0.000 A 
INPUT-LIGAND-PDBQT: ENDBRANCH  22  24
INPUT-LIGAND-PDBQT: ENDBRANCH  20  22
INPUT-LIGAND-PDBQT: ENDBRANCH   1  20
INPUT-LIGAND-PDBQT: TORSDOF 7


    FINAL DOCKED STATE:
    ________________________


Run:   1 / 20
Time taken for this run:   0.035s

DOCKED: MODEL        1
DOCKED: USER    Run = 1
DOCKED: USER
DOCKED: USER    Estimated Free Energy of Binding    =  -7.83 kcal/mol  [=(1)+(2)+(3)-(4)]
DOCKED: USER
DOCKED: USER    (1) Final Intermolecular Energy     =  -9.92 kcal/mol
DOCKED: USER        vdW + Hbond + desolv Energy     =  -9.82 kcal/mol
DOCKED: USER        Electrostatic Energy            =  -0.10 kcal/mol
DOCKED: USER        Moving Ligand-Fixed Receptor    =  -9.92 kcal/mol
DOCKED: USER        Moving Ligand-Moving Receptor   =  +0.00 kcal/mol
DOCKED: USER    (2) Final Total Internal Energy     =  -0.91 kcal/mol
DOCKED: USER    (3) Torsional Free Energy           =  +2.09 kcal/mol
DOCKED: USER    (4) Unbound System's Energy         =  -0.91 kcal/mol
DOCKED: USER
DOCKED: USER
DOCKED: REMARK SMILES C[C@H](N/C(O)=C/NC(=O)c1ccc2cc(F)ccc2n1)c1ccccc1
DOCKED: REMARK SMILES IDX 4 1 5 2 6 4 7 5 8 6 9 8 10 9 20 10 11 11 19 12 12 13 18 14
DOCKED: REMARK SMILES IDX 13 15 17 16 14 17 15 18 16 19 3 20 2 22 1 23 21 24 22 25
DOCKED: REMARK SMILES IDX 26 26 23 27 25 28 24 29
DOCKED: REMARK H PARENT 5 3 7 7 3 21
DOCKED: USER                              x       y       z     vdW  Elec       q    Type
DOCKED: USER                           _______ _______ _______ _____ _____    ______ ____
DOCKED: ROOT
DOCKED: ATOM      1  C   UNL     1     140.600  74.533 221.516 -0.23 -0.03    +0.201 C  
DOCKED: ENDROOT
DOCKED: BRANCH   1   2
DOCKED: ATOM      2  O   UNL     1     141.781  75.203 221.280 -0.15 +0.17    -0.494 OA 
DOCKED: ATOM      3  H   UNL     1     142.357  75.621 221.977 -0.42 -0.21    +0.295 HD 
DOCKED: ENDBRANCH   1   2
DOCKED: BRANCH   1   4
DOCKED: ATOM      4  C   UNL     1     140.284  73.342 221.049 -0.18 -0.02    +0.152 C  
DOCKED: BRANCH   4   5
DOCKED: ATOM      5  N   UNL     1     139.615  72.543 221.977 -0.14 +0.06    -0.322 N  
DOCKED: ATOM      6  C   UNL     1     138.990  71.798 222.842 -0.15 -0.07    +0.273 C  
DOCKED: ATOM      7  H   UNL     1     138.541  73.287 221.792 -0.00 -0.04    +0.169 HD 
DOCKED: ATOM      8  O   UNL     1     137.743  71.556 222.591 -0.10 +0.06    -0.267 OA 
DOCKED: BRANCH   6   9
DOCKED: ATOM      9  C   UNL     1     139.493  71.221 224.041 -0.32 -0.03    +0.129 A  
DOCKED: ATOM     10  N   UNL     1     139.058  70.063 224.530 -0.19 +0.04    -0.243 NA 
DOCKED: ATOM     11  C   UNL     1     140.540  71.895 224.682 -0.33 -0.01    +0.035 A  
DOCKED: ATOM     12  C   UNL     1     139.551  69.473 225.614 -0.40 -0.01    +0.071 A  
DOCKED: ATOM     13  C   UNL     1     141.095  71.344 225.803 -0.62 -0.00    +0.013 A  
DOCKED: ATOM     14  C   UNL     1     139.108  68.274 226.129 -0.49 -0.00    +0.032 A  
DOCKED: ATOM     15  C   UNL     1     140.584  70.145 226.239 -0.55 -0.00    +0.003 A  
DOCKED: ATOM     16  C   UNL     1     139.677  67.732 227.255 -0.51 -0.01    +0.041 A  
DOCKED: ATOM     17  C   UNL     1     141.124  69.582 227.350 -0.51 -0.01    +0.049 A  
DOCKED: ATOM     18  C   UNL     1     140.694  68.391 227.873 -0.56 -0.03    +0.123 A  
DOCKED: ATOM     19  F   UNL     1     141.246  67.847 228.979 -0.19 +0.06    -0.207 F  
DOCKED: ENDBRANCH   6   9
DOCKED: ENDBRANCH   4   5
DOCKED: ENDBRANCH   1   4
DOCKED: BRANCH   1  20
DOCKED: ATOM     20  N   UNL     1     139.623  75.139 222.313 -0.14 +0.05    -0.349 N  
DOCKED: ATOM     21  H   UNL     1     139.259  74.765 223.226 -0.52 -0.05    +0.164 HD 
DOCKED: BRANCH  20  22
DOCKED: ATOM     22  C   UNL     1     139.066  76.375 221.846 -0.25 -0.02    +0.109 C  
DOCKED: ATOM     23  C   UNL     1     137.583  76.454 222.121 -0.23 -0.01    +0.036 C  
DOCKED: BRANCH  22  24
DOCKED: ATOM     24  C   UNL     1     139.664  77.554 222.555 -0.32 +0.01    -0.026 A  
DOCKED: ATOM     25  C   UNL     1     138.904  78.598 223.026 -0.32 -0.00    +0.006 A  
DOCKED: ATOM     26  C   UNL     1     141.046  77.544 222.724 -0.45 -0.00    +0.006 A  
DOCKED: ATOM     27  C   UNL     1     139.461  79.681 223.684 -0.43 -0.00    +0.000 A  
DOCKED: ATOM     28  C   UNL     1     141.598  78.621 223.380 -0.59 -0.00    +0.000 A  
DOCKED: ATOM     29  C   UNL     1     140.826  79.676 223.854 -0.51 -0.00    +0.000 A  
DOCKED: ENDBRANCH  22  24
DOCKED: ENDBRANCH  20  22
DOCKED: ENDBRANCH   1  20
DOCKED: TORSDOF 7
DOCKED: TER
DOCKED: ENDMDL
________________________________________________________________________________


    FINAL DOCKED STATE:
    ________________________


Run:   2 / 20
Time taken for this run:   0.035s

DOCKED: MODEL        2
DOCKED: USER    Run = 2
DOCKED: USER
DOCKED: USER    Estimated Free Energy of Binding    =  -8.39 kcal/mol  [=(1)+(2)+(3)-(4)]
DOCKED: USER
DOCKED: USER    (1) Final Intermolecular Energy     = -10.48 kcal/mol
DOCKED: USER        vdW + Hbond + desolv Energy     = -10.35 kcal/mol
DOCKED: USER        Electrostatic Energy            =  -0.13 kcal/mol
DOCKED: USER        Moving Ligand-Fixed Receptor    = -10.48 kcal/mol
DOCKED: USER        Moving Ligand-Moving Receptor   =  +0.00 kcal/mol
DOCKED: USER    (2) Final Total Internal Energy     =  -1.28 kcal/mol
DOCKED: USER    (3) Torsional Free Energy           =  +2.09 kcal/mol
DOCKED: USER    (4) Unbound System's Energy         =  -1.28 kcal/mol
DOCKED: USER
DOCKED: USER
DOCKED: REMARK SMILES C[C@H](N/C(O)=C/NC(=O)c1ccc2cc(F)ccc2n1)c1ccccc1
DOCKED: REMARK SMILES IDX 4 1 5 2 6 4 7 5 8 6 9 8 10 9 20 10 11 11 19 12 12 13 18 14
DOCKED: REMARK SMILES IDX 13 15 17 16 14 17 15 18 16 19 3 20 2 22 1 23 21 24 22 25
DOCKED: REMARK SMILES IDX 26 26 23 27 25 28 24 29
DOCKED: REMARK H PARENT 5 3 7 7 3 21
DOCKED: USER                              x       y       z     vdW  Elec       q    Type
DOCKED: USER                           _______ _______ _______ _____ _____    ______ ____
DOCKED: ROOT
DOCKED: ATOM      1  C   UNL     1     140.283  75.076 221.950 -0.16 -0.02    +0.201 C  
DOCKED: ENDROOT
DOCKED: BRANCH   1   2
DOCKED: ATOM      2  O   UNL     1     139.046  75.370 222.483 -0.31 +0.11    -0.494 OA 
DOCKED: ATOM      3  H   UNL     1     138.528  74.782 223.098 -0.46 -0.16    +0.295 HD 
DOCKED: ENDBRANCH   1   2
DOCKED: BRANCH   1   4
DOCKED: ATOM      4  C   UNL     1     140.632  73.929 221.403 -0.24 -0.02    +0.152 C  
DOCKED: BRANCH   4   5
DOCKED: ATOM      5  N   UNL     1     139.933  72.836 221.916 -0.15 +0.05    -0.322 N  
DOCKED: ATOM      6  C   UNL     1     139.280  71.816 222.393 -0.17 -0.06    +0.273 C  
DOCKED: ATOM      7  H   UNL     1     138.809  73.436 221.571 +0.02 -0.04    +0.169 HD 
DOCKED: ATOM      8  O   UNL     1     138.218  71.463 221.743 -0.06 +0.05    -0.267 OA 
DOCKED: BRANCH   6   9
DOCKED: ATOM      9  C   UNL     1     139.571  71.041 223.550 -0.29 -0.03    +0.129 A  
DOCKED: ATOM     10  N   UNL     1     140.101  71.555 224.656 -0.29 +0.05    -0.243 NA 
DOCKED: ATOM     11  C   UNL     1     139.216  69.686 223.515 -0.25 -0.01    +0.035 A  
DOCKED: ATOM     12  C   UNL     1     140.328  70.866 225.770 -0.52 -0.01    +0.071 A  
DOCKED: ATOM     13  C   UNL     1     139.422  68.918 224.627 -0.34 -0.00    +0.013 A  
DOCKED: ATOM     14  C   UNL     1     140.876  71.389 226.921 -0.70 -0.01    +0.032 A  
DOCKED: ATOM     15  C   UNL     1     139.973  69.531 225.726 -0.47 -0.00    +0.003 A  
DOCKED: ATOM     16  C   UNL     1     141.075  70.605 228.032 -0.61 -0.01    +0.041 A  
DOCKED: ATOM     17  C   UNL     1     140.184  68.784 226.840 -0.57 -0.01    +0.049 A  
DOCKED: ATOM     18  C   UNL     1     140.726  69.290 227.992 -0.52 -0.02    +0.123 A  
DOCKED: ATOM     19  F   UNL     1     140.927  68.531 229.091 -0.15 +0.05    -0.207 F  
DOCKED: ENDBRANCH   6   9
DOCKED: ENDBRANCH   4   5
DOCKED: ENDBRANCH   1   4
DOCKED: BRANCH   1  20
DOCKED: ATOM     20  N   UNL     1     141.285  76.052 221.979 -0.13 +0.13    -0.349 N  
DOCKED: ATOM     21  H   UNL     1     142.173  76.002 222.541 -0.50 -0.12    +0.164 HD 
DOCKED: BRANCH  20  22
DOCKED: ATOM     22  C   UNL     1     141.086  77.223 221.176 -0.28 -0.05    +0.109 C  
DOCKED: ATOM     23  C   UNL     1     139.630  77.408 220.818 -0.16 -0.01    +0.036 C  
DOCKED: BRANCH  22  24
DOCKED: ATOM     24  C   UNL     1     141.474  78.472 221.912 -0.40 +0.01    -0.026 A  
DOCKED: ATOM     25  C   UNL     1     141.824  79.633 221.266 -0.39 -0.00    +0.006 A  
DOCKED: ATOM     26  C   UNL     1     141.461  78.404 223.303 -0.56 -0.00    +0.006 A  
DOCKED: ATOM     27  C   UNL     1     142.177  80.784 221.951 -0.49 -0.00    +0.000 A  
DOCKED: ATOM     28  C   UNL     1     141.812  79.549 223.982 -0.58 -0.00    +0.000 A  
DOCKED: ATOM     29  C   UNL     1     142.165  80.722 223.325 -0.63 -0.00    +0.000 A  
DOCKED: ENDBRANCH  22  24
DOCKED: ENDBRANCH  20  22
DOCKED: ENDBRANCH   1  20
DOCKED: TORSDOF 7
DOCKED: TER
DOCKED: ENDMDL
________________________________________________________________________________


    FINAL DOCKED STATE:
    ________________________


Run:   3 / 20
Time taken for this run:   0.035s

DOCKED: MODEL        3
DOCKED: USER    Run = 3
DOCKED: USER
DOCKED: USER    Estimated Free Energy of Binding    =  -8.35 kcal/mol  [=(1)+(2)+(3)-(4)]
DOCKED: USER
DOCKED: USER    (1) Final Intermolecular Energy     = -10.44 kcal/mol
DOCKED: USER        vdW + Hbond + desolv Energy     = -10.30 kcal/mol
DOCKED: USER        Electrostatic Energy            =  -0.14 kcal/mol
DOCKED: USER        Moving Ligand-Fixed Receptor    = -10.44 kcal/mol
DOCKED: USER        Moving Ligand-Moving Receptor   =  +0.00 kcal/mol
DOCKED: USER    (2) Final Total Internal Energy     =  -1.48 kcal/mol
DOCKED: USER    (3) Torsional Free Energy           =  +2.09 kcal/mol
DOCKED: USER    (4) Unbound System's Energy         =  -1.48 kcal/mol
DOCKED: USER
DOCKED: USER
DOCKED: REMARK SMILES C[C@H](N/C(O)=C/NC(=O)c1ccc2cc(F)ccc2n1)c1ccccc1
DOCKED: REMARK SMILES IDX 4 1 5 2 6 4 7 5 8 6 9 8 10 9 20 10 11 11 19 12 12 13 18 14
DOCKED: REMARK SMILES IDX 13 15 17 16 14 17 15 18 16 19 3 20 2 22 1 23 21 24 22 25
DOCKED: REMARK SMILES IDX 26 26 23 27 25 28 24 29
DOCKED: REMARK H PARENT 5 3 7 7 3 21
DOCKED: USER                              x       y       z     vdW  Elec       q    Type
DOCKED: USER                           _______ _______ _______ _____ _____    ______ ____
DOCKED: ROOT
DOCKED: ATOM      1  C   UNL     1     140.658  74.419 221.564 -0.23 -0.03    +0.201 C  
DOCKED: ENDROOT
DOCKED: BRANCH   1   2
DOCKED: ATOM      2  O   UNL     1     139.718  74.997 222.389 -0.56 +0.05    -0.494 OA 
DOCKED: ATOM      3  H   UNL     1     139.139  74.509 223.036 -0.48 -0.10    +0.295 HD 
DOCKED: ENDBRANCH   1   2
DOCKED: BRANCH   1   4
DOCKED: ATOM      4  C   UNL     1     140.616  73.189 221.093 -0.19 -0.02    +0.152 C  
DOCKED: BRANCH   4   5
DOCKED: ATOM      5  N   UNL     1     139.804  72.337 221.843 -0.13 +0.05    -0.322 N  
DOCKED: ATOM      6  C   UNL     1     139.046  71.543 222.543 -0.16 -0.06    +0.273 C  
DOCKED: ATOM      7  H   UNL     1     138.818  73.201 221.694 +0.02 -0.04    +0.169 HD 
DOCKED: ATOM      8  O   UNL     1     137.808  71.462 222.171 -0.08 +0.06    -0.267 OA 
DOCKED: BRANCH   6   9
DOCKED: ATOM      9  C   UNL     1     139.394  70.757 223.676 -0.28 -0.02    +0.129 A  
DOCKED: ATOM     10  N   UNL     1     139.959  71.263 224.768 -0.29 +0.05    -0.243 NA 
DOCKED: ATOM     11  C   UNL     1     139.057  69.397 223.636 -0.26 -0.01    +0.035 A  
DOCKED: ATOM     12  C   UNL     1     140.239  70.564 225.862 -0.49 -0.01    +0.071 A  
DOCKED: ATOM     13  C   UNL     1     139.317  68.618 224.729 -0.36 -0.00    +0.013 A  
DOCKED: ATOM     14  C   UNL     1     140.824  71.079 226.998 -0.67 -0.01    +0.032 A  
DOCKED: ATOM     15  C   UNL     1     139.903  69.224 225.813 -0.48 -0.00    +0.003 A  
DOCKED: ATOM     16  C   UNL     1     141.078  70.283 228.089 -0.56 -0.01    +0.041 A  
DOCKED: ATOM     17  C   UNL     1     140.167  68.465 226.908 -0.60 -0.01    +0.049 A  
DOCKED: ATOM     18  C   UNL     1     140.747  68.964 228.045 -0.53 -0.03    +0.123 A  
DOCKED: ATOM     19  F   UNL     1     141.002  68.193 229.124 -0.17 +0.05    -0.207 F  
DOCKED: ENDBRANCH   6   9
DOCKED: ENDBRANCH   4   5
DOCKED: ENDBRANCH   1   4
DOCKED: BRANCH   1  20
DOCKED: ATOM     20  N   UNL     1     141.773  75.169 221.172 -0.15 +0.12    -0.349 N  
DOCKED: ATOM     21  H   UNL     1     142.198  75.963 221.716 -0.52 -0.12    +0.164 HD 
DOCKED: BRANCH  20  22
DOCKED: ATOM     22  C   UNL     1     142.388  74.829 219.923 -0.23 -0.04    +0.109 C  
DOCKED: ATOM     23  C   UNL     1     142.773  76.063 219.141 -0.31 -0.02    +0.036 C  
DOCKED: BRANCH  22  24
DOCKED: ATOM     24  C   UNL     1     143.669  74.073 220.125 -0.36 +0.01    -0.026 A  
DOCKED: ATOM     25  C   UNL     1     144.844  74.690 220.484 -0.43 -0.00    +0.006 A  
DOCKED: ATOM     26  C   UNL     1     143.616  72.695 219.935 -0.28 -0.00    +0.006 A  
DOCKED: ATOM     27  C   UNL     1     146.021  73.988 220.674 -0.63 -0.00    +0.000 A  
DOCKED: ATOM     28  C   UNL     1     144.787  71.998 220.124 -0.35 -0.00    +0.000 A  
DOCKED: ATOM     29  C   UNL     1     145.974  72.625 220.487 -0.54 +0.00    +0.000 A  
DOCKED: ENDBRANCH  22  24
DOCKED: ENDBRANCH  20  22
DOCKED: ENDBRANCH   1  20
DOCKED: TORSDOF 7
DOCKED: TER
DOCKED: ENDMDL
________________________________________________________________________________


    FINAL DOCKED STATE:
    ________________________


Run:   4 / 20
Time taken for this run:   0.035s

DOCKED: MODEL        4
DOCKED: USER    Run = 4
DOCKED: USER
DOCKED: USER    Estimated Free Energy of Binding    =  -8.52 kcal/mol  [=(1)+(2)+(3)-(4)]
DOCKED: USER
DOCKED: USER    (1) Final Intermolecular Energy     = -10.61 kcal/mol
DOCKED: USER        vdW + Hbond + desolv Energy     = -10.52 kcal/mol
DOCKED: USER        Electrostatic Energy            =  -0.09 kcal/mol
DOCKED: USER        Moving Ligand-Fixed Receptor    = -10.61 kcal/mol
DOCKED: USER        Moving Ligand-Moving Receptor   =  +0.00 kcal/mol
DOCKED: USER    (2) Final Total Internal Energy     =  -1.15 kcal/mol
DOCKED: USER    (3) Torsional Free Energy           =  +2.09 kcal/mol
DOCKED: USER    (4) Unbound System's Energy         =  -1.15 kcal/mol
DOCKED: USER
DOCKED: USER
DOCKED: REMARK SMILES C[C@H](N/C(O)=C/NC(=O)c1ccc2cc(F)ccc2n1)c1ccccc1
DOCKED: REMARK SMILES IDX 4 1 5 2 6 4 7 5 8 6 9 8 10 9 20 10 11 11 19 12 12 13 18 14
DOCKED: REMARK SMILES IDX 13 15 17 16 14 17 15 18 16 19 3 20 2 22 1 23 21 24 22 25
DOCKED: REMARK SMILES IDX 26 26 23 27 25 28 24 29
DOCKED: REMARK H PARENT 5 3 7 7 3 21
DOCKED: USER                              x       y       z     vdW  Elec       q    Type
DOCKED: USER                           _______ _______ _______ _____ _____    ______ ____
DOCKED: ROOT
DOCKED: ATOM      1  C   UNL     1     140.100  74.946 221.960 -0.16 -0.02    +0.201 C  
DOCKED: ENDROOT
DOCKED: BRANCH   1   2
DOCKED: ATOM      2  O   UNL     1     138.734  74.975 222.142 -0.20 +0.13    -0.494 OA 
DOCKED: ATOM      3  H   UNL     1     138.232  74.455 222.827 -0.48 -0.16    +0.295 HD 
DOCKED: ENDBRANCH   1   2
DOCKED: BRANCH   1   4
DOCKED: ATOM      4  C   UNL     1     140.804  73.898 221.581 -0.24 -0.02    +0.152 C  
DOCKED: BRANCH   4   5
DOCKED: ATOM      5  N   UNL     1     140.339  72.696 222.116 -0.17 +0.03    -0.322 N  
DOCKED: ATOM      6  C   UNL     1     139.904  71.575 222.614 -0.20 -0.04    +0.273 C  
DOCKED: ATOM      7  H   UNL     1     139.202  72.890 221.474 +0.03 -0.03    +0.169 HD 
DOCKED: ATOM      8  O   UNL     1     139.160  70.856 221.836 -0.09 +0.05    -0.267 OA 
DOCKED: BRANCH   6   9
DOCKED: ATOM      9  C   UNL     1     140.128  71.037 223.912 -0.33 -0.02    +0.129 A  
DOCKED: ATOM     10  N   UNL     1     139.861  69.774 224.232 -0.16 +0.04    -0.243 NA 
DOCKED: ATOM     11  C   UNL     1     140.716  71.884 224.861 -0.35 -0.00    +0.035 A  
DOCKED: ATOM     12  C   UNL     1     140.116  69.230 225.418 -0.39 -0.01    +0.071 A  
DOCKED: ATOM     13  C   UNL     1     141.005  71.389 226.102 -0.65 -0.00    +0.013 A  
DOCKED: ATOM     14  C   UNL     1     139.844  67.923 225.759 -0.54 -0.00    +0.032 A  
DOCKED: ATOM     15  C   UNL     1     140.696  70.073 226.346 -0.55 -0.00    +0.003 A  
DOCKED: ATOM     16  C   UNL     1     140.142  67.440 227.010 -0.47 -0.01    +0.041 A  
DOCKED: ATOM     17  C   UNL     1     140.978  69.564 227.573 -0.55 -0.01    +0.049 A  
DOCKED: ATOM     18  C   UNL     1     140.714  68.267 227.927 -0.56 -0.03    +0.123 A  
DOCKED: ATOM     19  F   UNL     1     141.003  67.780 229.153 -0.18 +0.06    -0.207 F  
DOCKED: ENDBRANCH   6   9
DOCKED: ENDBRANCH   4   5
DOCKED: ENDBRANCH   1   4
DOCKED: BRANCH   1  20
DOCKED: ATOM     20  N   UNL     1     140.842  76.110 222.194 -0.20 +0.10    -0.349 N  
DOCKED: ATOM     21  H   UNL     1     141.823  76.145 222.569 -0.50 -0.09    +0.164 HD 
DOCKED: BRANCH  20  22
DOCKED: ATOM     22  C   UNL     1     140.210  77.362 221.898 -0.30 -0.03    +0.109 C  
DOCKED: ATOM     23  C   UNL     1     138.947  77.550 222.707 -0.28 -0.01    +0.036 C  
DOCKED: BRANCH  22  24
DOCKED: ATOM     24  C   UNL     1     141.088  78.524 222.261 -0.42 +0.01    -0.026 A  
DOCKED: ATOM     25  C   UNL     1     141.568  78.720 223.533 -0.60 -0.00    +0.006 A  
DOCKED: ATOM     26  C   UNL     1     141.405  79.409 221.233 -0.35 -0.00    +0.006 A  
DOCKED: ATOM     27  C   UNL     1     142.382  79.791 223.860 -0.60 -0.00    +0.000 A  
DOCKED: ATOM     28  C   UNL     1     142.215  80.473 221.560 -0.44 -0.00    +0.000 A  
DOCKED: ATOM     29  C   UNL     1     142.699  80.668 222.849 -0.60 -0.00    +0.000 A  
DOCKED: ENDBRANCH  22  24
DOCKED: ENDBRANCH  20  22
DOCKED: ENDBRANCH   1  20
DOCKED: TORSDOF 7
DOCKED: TER
DOCKED: ENDMDL
________________________________________________________________________________


    FINAL DOCKED STATE:
    ________________________


Run:   5 / 20
Time taken for this run:   0.035s

DOCKED: MODEL        5
DOCKED: USER    Run = 5
DOCKED: USER
DOCKED: USER    Estimated Free Energy of Binding    =  -7.87 kcal/mol  [=(1)+(2)+(3)-(4)]
DOCKED: USER
DOCKED: USER    (1) Final Intermolecular Energy     =  -9.96 kcal/mol
DOCKED: USER        vdW + Hbond + desolv Energy     =  -9.83 kcal/mol
DOCKED: USER        Electrostatic Energy            =  -0.12 kcal/mol
DOCKED: USER        Moving Ligand-Fixed Receptor    =  -9.96 kcal/mol
DOCKED: USER        Moving Ligand-Moving Receptor   =  +0.00 kcal/mol
DOCKED: USER    (2) Final Total Internal Energy     =  -0.76 kcal/mol
DOCKED: USER    (3) Torsional Free Energy           =  +2.09 kcal/mol
DOCKED: USER    (4) Unbound System's Energy         =  -0.76 kcal/mol
DOCKED: USER
DOCKED: USER
DOCKED: REMARK SMILES C[C@H](N/C(O)=C/NC(=O)c1ccc2cc(F)ccc2n1)c1ccccc1
DOCKED: REMARK SMILES IDX 4 1 5 2 6 4 7 5 8 6 9 8 10 9 20 10 11 11 19 12 12 13 18 14
DOCKED: REMARK SMILES IDX 13 15 17 16 14 17 15 18 16 19 3 20 2 22 1 23 21 24 22 25
DOCKED: REMARK SMILES IDX 26 26 23 27 25 28 24 29
DOCKED: REMARK H PARENT 5 3 7 7 3 21
DOCKED: USER                              x       y       z     vdW  Elec       q    Type
DOCKED: USER                           _______ _______ _______ _____ _____    ______ ____
DOCKED: ROOT
DOCKED: ATOM      1  C   UNL     1     139.956  75.096 221.971 -0.20 -0.03    +0.201 C  
DOCKED: ENDROOT
DOCKED: BRANCH   1   2
DOCKED: ATOM      2  O   UNL     1     141.331  75.196 221.945 -0.34 +0.10    -0.494 OA 
DOCKED: ATOM      3  H   UNL     1     141.849  76.046 221.979 -0.46 -0.17    +0.295 HD 
DOCKED: ENDBRANCH   1   2
DOCKED: BRANCH   1   4
DOCKED: ATOM      4  C   UNL     1     139.240  74.168 221.368 -0.18 -0.03    +0.152 C  
DOCKED: BRANCH   4   5
DOCKED: ATOM      5  N   UNL     1     139.648  72.869 221.674 -0.12 +0.06    -0.322 N  
DOCKED: ATOM      6  C   UNL     1     140.028  71.657 221.959 -0.16 -0.04    +0.273 C  
DOCKED: ATOM      7  H   UNL     1     139.190  72.484 220.498 +0.03 -0.03    +0.169 HD 
DOCKED: ATOM      8  O   UNL     1     140.504  70.963 220.975 -0.09 +0.04    -0.267 OA 
DOCKED: BRANCH   6   9
DOCKED: ATOM      9  C   UNL     1     139.978  70.985 223.211 -0.26 -0.02    +0.129 A  
DOCKED: ATOM     10  N   UNL     1     140.469  71.500 224.335 -0.29 +0.03    -0.243 NA 
DOCKED: ATOM     11  C   UNL     1     139.319  69.748 223.245 -0.22 -0.01    +0.035 A  
DOCKED: ATOM     12  C   UNL     1     140.382  70.921 225.527 -0.51 -0.01    +0.071 A  
DOCKED: ATOM     13  C   UNL     1     139.194  69.097 224.440 -0.35 -0.00    +0.013 A  
DOCKED: ATOM     14  C   UNL     1     140.887  71.446 226.697 -0.69 -0.01    +0.032 A  
DOCKED: ATOM     15  C   UNL     1     139.730  69.703 225.550 -0.44 -0.00    +0.003 A  
DOCKED: ATOM     16  C   UNL     1     140.752  70.780 227.891 -0.66 -0.01    +0.041 A  
DOCKED: ATOM     17  C   UNL     1     139.614  69.070 226.747 -0.51 -0.01    +0.049 A  
DOCKED: ATOM     18  C   UNL     1     140.109  69.581 227.917 -0.52 -0.02    +0.123 A  
DOCKED: ATOM     19  F   UNL     1     139.982  68.937 229.097 -0.13 +0.03    -0.207 F  
DOCKED: ENDBRANCH   6   9
DOCKED: ENDBRANCH   4   5
DOCKED: ENDBRANCH   1   4
DOCKED: BRANCH   1  20
DOCKED: ATOM     20  N   UNL     1     139.219  76.048 222.683 -0.17 +0.07    -0.349 N  
DOCKED: ATOM     21  H   UNL     1     138.777  75.900 223.626 -0.28 -0.04    +0.164 HD 
DOCKED: BRANCH  20  22
DOCKED: ATOM     22  C   UNL     1     139.050  77.337 222.077 -0.25 -0.02    +0.109 C  
DOCKED: ATOM     23  C   UNL     1     137.660  77.881 222.311 -0.21 -0.01    +0.036 C  
DOCKED: BRANCH  22  24
DOCKED: ATOM     24  C   UNL     1     139.978  78.354 222.673 -0.36 +0.01    -0.026 A  
DOCKED: ATOM     25  C   UNL     1     141.345  78.219 222.640 -0.48 -0.00    +0.006 A  
DOCKED: ATOM     26  C   UNL     1     139.384  79.465 223.269 -0.38 -0.00    +0.006 A  
DOCKED: ATOM     27  C   UNL     1     142.196  79.163 223.188 -0.60 -0.00    +0.000 A  
DOCKED: ATOM     28  C   UNL     1     140.232  80.403 223.813 -0.42 -0.00    +0.000 A  
DOCKED: ATOM     29  C   UNL     1     141.615  80.262 223.778 -0.58 -0.00    +0.000 A  
DOCKED: ENDBRANCH  22  24
DOCKED: ENDBRANCH  20  22
DOCKED: ENDBRANCH   1  20
DOCKED: TORSDOF 7
DOCKED: TER
DOCKED: ENDMDL
________________________________________________________________________________


    FINAL DOCKED STATE:
    ________________________


Run:   6 / 20
Time taken for this run:   0.035s

DOCKED: MODEL        6
DOCKED: USER    Run = 6
DOCKED: USER
DOCKED: USER    Estimated Free Energy of Binding    =  -8.36 kcal/mol  [=(1)+(2)+(3)-(4)]
DOCKED: USER
DOCKED: USER    (1) Final Intermolecular Energy     = -10.45 kcal/mol
DOCKED: USER        vdW + Hbond + desolv Energy     = -10.34 kcal/mol
DOCKED: USER        Electrostatic Energy            =  -0.11 kcal/mol
DOCKED: USER        Moving Ligand-Fixed Receptor    = -10.45 kcal/mol
DOCKED: USER        Moving Ligand-Moving Receptor   =  +0.00 kcal/mol
DOCKED: USER    (2) Final Total Internal Energy     =  -1.47 kcal/mol
DOCKED: USER    (3) Torsional Free Energy           =  +2.09 kcal/mol
DOCKED: USER    (4) Unbound System's Energy         =  -1.47 kcal/mol
DOCKED: USER
DOCKED: USER
DOCKED: REMARK SMILES C[C@H](N/C(O)=C/NC(=O)c1ccc2cc(F)ccc2n1)c1ccccc1
DOCKED: REMARK SMILES IDX 4 1 5 2 6 4 7 5 8 6 9 8 10 9 20 10 11 11 19 12 12 13 18 14
DOCKED: REMARK SMILES IDX 13 15 17 16 14 17 15 18 16 19 3 20 2 22 1 23 21 24 22 25
DOCKED: REMARK SMILES IDX 26 26 23 27 25 28 24 29
DOCKED: REMARK H PARENT 5 3 7 7 3 21
DOCKED: USER                              x       y       z     vdW  Elec       q    Type
DOCKED: USER                           _______ _______ _______ _____ _____    ______ ____
DOCKED: ROOT
DOCKED: ATOM      1  C   UNL     1     140.746  74.556 221.556 -0.23 -0.03    +0.201 C  
DOCKED: ENDROOT
DOCKED: BRANCH   1   2
DOCKED: ATOM      2  O   UNL     1     139.792  75.157 222.350 -0.55 +0.05    -0.494 OA 
DOCKED: ATOM      3  H   UNL     1     139.258  74.701 223.056 -0.45 -0.07    +0.295 HD 
DOCKED: ENDBRANCH   1   2
DOCKED: BRANCH   1   4
DOCKED: ATOM      4  C   UNL     1     140.764  73.287 221.202 -0.21 -0.02    +0.152 C  
DOCKED: BRANCH   4   5
DOCKED: ATOM      5  N   UNL     1     140.039  72.462 222.063 -0.16 +0.05    -0.322 N  
DOCKED: ATOM      6  C   UNL     1     139.362  71.693 222.866 -0.19 -0.06    +0.273 C  
DOCKED: ATOM      7  H   UNL     1     138.963  73.174 221.785 +0.01 -0.04    +0.169 HD 
DOCKED: ATOM      8  O   UNL     1     138.151  71.414 222.504 -0.11 +0.06    -0.267 OA 
DOCKED: BRANCH   6   9
DOCKED: ATOM      9  C   UNL     1     139.774  71.124 224.104 -0.35 -0.02    +0.129 A  
DOCKED: ATOM     10  N   UNL     1     139.390  69.919 224.515 -0.19 +0.04    -0.243 NA 
DOCKED: ATOM     11  C   UNL     1     140.676  71.866 224.877 -0.36 -0.00    +0.035 A  
DOCKED: ATOM     12  C   UNL     1     139.806  69.340 225.636 -0.41 -0.01    +0.071 A  
DOCKED: ATOM     13  C   UNL     1     141.145  71.330 226.044 -0.64 -0.00    +0.013 A  
DOCKED: ATOM     14  C   UNL     1     139.414  68.092 226.070 -0.55 -0.00    +0.032 A  
DOCKED: ATOM     15  C   UNL     1     140.696  70.079 226.391 -0.56 -0.00    +0.003 A  
DOCKED: ATOM     16  C   UNL     1     139.896  67.566 227.244 -0.38 -0.01    +0.041 A  
DOCKED: ATOM     17  C   UNL     1     141.153  69.530 227.547 -0.49 -0.01    +0.049 A  
DOCKED: ATOM     18  C   UNL     1     140.774  68.291 227.991 -0.55 -0.03    +0.123 A  
DOCKED: ATOM     19  F   UNL     1     141.240  67.762 229.142 -0.19 +0.06    -0.207 F  
DOCKED: ENDBRANCH   6   9
DOCKED: ENDBRANCH   4   5
DOCKED: ENDBRANCH   1   4
DOCKED: BRANCH   1  20
DOCKED: ATOM     20  N   UNL     1     141.808  75.326 221.069 -0.14 +0.13    -0.349 N  
DOCKED: ATOM     21  H   UNL     1     142.205  76.184 221.530 -0.51 -0.13    +0.164 HD 
DOCKED: BRANCH  20  22
DOCKED: ATOM     22  C   UNL     1     142.407  74.912 219.833 -0.23 -0.04    +0.109 C  
DOCKED: ATOM     23  C   UNL     1     142.813  76.098 218.990 -0.30 -0.02    +0.036 C  
DOCKED: BRANCH  22  24
DOCKED: ATOM     24  C   UNL     1     143.672  74.139 220.064 -0.36 +0.01    -0.026 A  
DOCKED: ATOM     25  C   UNL     1     144.839  74.736 220.477 -0.42 -0.00    +0.006 A  
DOCKED: ATOM     26  C   UNL     1     143.612  72.766 219.842 -0.27 -0.00    +0.006 A  
DOCKED: ATOM     27  C   UNL     1     146.003  74.016 220.693 -0.63 -0.00    +0.000 A  
DOCKED: ATOM     28  C   UNL     1     144.769  72.052 220.057 -0.36 -0.00    +0.000 A  
DOCKED: ATOM     29  C   UNL     1     145.948  72.659 220.474 -0.56 +0.00    +0.000 A  
DOCKED: ENDBRANCH  22  24
DOCKED: ENDBRANCH  20  22
DOCKED: ENDBRANCH   1  20
DOCKED: TORSDOF 7
DOCKED: TER
DOCKED: ENDMDL
________________________________________________________________________________


    FINAL DOCKED STATE:
    ________________________


Run:   7 / 20
Time taken for this run:   0.035s

DOCKED: MODEL        7
DOCKED: USER    Run = 7
DOCKED: USER
DOCKED: USER    Estimated Free Energy of Binding    =  -8.41 kcal/mol  [=(1)+(2)+(3)-(4)]
DOCKED: USER
DOCKED: USER    (1) Final Intermolecular Energy     = -10.50 kcal/mol
DOCKED: USER        vdW + Hbond + desolv Energy     = -10.36 kcal/mol
DOCKED: USER        Electrostatic Energy            =  -0.14 kcal/mol
DOCKED: USER        Moving Ligand-Fixed Receptor    = -10.50 kcal/mol
DOCKED: USER        Moving Ligand-Moving Receptor   =  +0.00 kcal/mol
DOCKED: USER    (2) Final Total Internal Energy     =  -1.26 kcal/mol
DOCKED: USER    (3) Torsional Free Energy           =  +2.09 kcal/mol
DOCKED: USER    (4) Unbound System's Energy         =  -1.26 kcal/mol
DOCKED: USER
DOCKED: USER
DOCKED: REMARK SMILES C[C@H](N/C(O)=C/NC(=O)c1ccc2cc(F)ccc2n1)c1ccccc1
DOCKED: REMARK SMILES IDX 4 1 5 2 6 4 7 5 8 6 9 8 10 9 20 10 11 11 19 12 12 13 18 14
DOCKED: REMARK SMILES IDX 13 15 17 16 14 17 15 18 16 19 3 20 2 22 1 23 21 24 22 25
DOCKED: REMARK SMILES IDX 26 26 23 27 25 28 24 29
DOCKED: REMARK H PARENT 5 3 7 7 3 21
DOCKED: USER                              x       y       z     vdW  Elec       q    Type
DOCKED: USER                           _______ _______ _______ _____ _____    ______ ____
DOCKED: ROOT
DOCKED: ATOM      1  C   UNL     1     140.301  75.022 221.952 -0.14 -0.02    +0.201 C  
DOCKED: ENDROOT
DOCKED: BRANCH   1   2
DOCKED: ATOM      2  O   UNL     1     139.072  75.279 222.519 -0.33 +0.11    -0.494 OA 
DOCKED: ATOM      3  H   UNL     1     138.538  74.633 223.058 -0.47 -0.17    +0.295 HD 
DOCKED: ENDBRANCH   1   2
DOCKED: BRANCH   1   4
DOCKED: ATOM      4  C   UNL     1     140.670  73.885 221.396 -0.24 -0.02    +0.152 C  
DOCKED: BRANCH   4   5
DOCKED: ATOM      5  N   UNL     1     139.971  72.779 221.881 -0.15 +0.05    -0.322 N  
DOCKED: ATOM      6  C   UNL     1     139.317  71.748 222.334 -0.17 -0.06    +0.273 C  
DOCKED: ATOM      7  H   UNL     1     138.850  73.364 221.501 +0.03 -0.04    +0.169 HD 
DOCKED: ATOM      8  O   UNL     1     138.283  71.382 221.646 -0.06 +0.05    -0.267 OA 
DOCKED: BRANCH   6   9
DOCKED: ATOM      9  C   UNL     1     139.582  70.973 223.496 -0.29 -0.02    +0.129 A  
DOCKED: ATOM     10  N   UNL     1     140.129  71.477 224.599 -0.30 +0.04    -0.243 NA 
DOCKED: ATOM     11  C   UNL     1     139.179  69.631 223.473 -0.25 -0.01    +0.035 A  
DOCKED: ATOM     12  C   UNL     1     140.332  70.791 225.718 -0.51 -0.01    +0.071 A  
DOCKED: ATOM     13  C   UNL     1     139.358  68.866 224.592 -0.34 -0.00    +0.013 A  
DOCKED: ATOM     14  C   UNL     1     140.898  71.303 226.865 -0.69 -0.01    +0.032 A  
DOCKED: ATOM     15  C   UNL     1     139.931  69.469 225.685 -0.46 -0.00    +0.003 A  
DOCKED: ATOM     16  C   UNL     1     141.070  70.522 227.982 -0.61 -0.01    +0.041 A  
DOCKED: ATOM     17  C   UNL     1     140.115  68.724 226.806 -0.57 -0.01    +0.049 A  
DOCKED: ATOM     18  C   UNL     1     140.675  69.220 227.954 -0.53 -0.02    +0.123 A  
DOCKED: ATOM     19  F   UNL     1     140.849  68.464 229.058 -0.16 +0.05    -0.207 F  
DOCKED: ENDBRANCH   6   9
DOCKED: ENDBRANCH   4   5
DOCKED: ENDBRANCH   1   4
DOCKED: BRANCH   1  20
DOCKED: ATOM     20  N   UNL     1     141.273  76.028 221.952 -0.14 +0.13    -0.349 N  
DOCKED: ATOM     21  H   UNL     1     142.179  76.005 222.486 -0.51 -0.13    +0.164 HD 
DOCKED: BRANCH  20  22
DOCKED: ATOM     22  C   UNL     1     141.014  77.193 221.157 -0.28 -0.05    +0.109 C  
DOCKED: ATOM     23  C   UNL     1     139.536  77.368 220.897 -0.16 -0.01    +0.036 C  
DOCKED: BRANCH  22  24
DOCKED: ATOM     24  C   UNL     1     141.443  78.448 221.858 -0.40 +0.01    -0.026 A  
DOCKED: ATOM     25  C   UNL     1     141.800  79.590 221.181 -0.38 -0.00    +0.006 A  
DOCKED: ATOM     26  C   UNL     1     141.461  78.408 223.251 -0.55 -0.00    +0.006 A  
DOCKED: ATOM     27  C   UNL     1     142.190  80.746 221.834 -0.47 -0.00    +0.000 A  
DOCKED: ATOM     28  C   UNL     1     141.849  79.559 223.898 -0.60 -0.00    +0.000 A  
DOCKED: ATOM     29  C   UNL     1     142.210  80.712 223.210 -0.63 -0.00    +0.000 A  
DOCKED: ENDBRANCH  22  24
DOCKED: ENDBRANCH  20  22
DOCKED: ENDBRANCH   1  20
DOCKED: TORSDOF 7
DOCKED: TER
DOCKED: ENDMDL
________________________________________________________________________________


    FINAL DOCKED STATE:
    ________________________


Run:   8 / 20
Time taken for this run:   0.035s

DOCKED: MODEL        8
DOCKED: USER    Run = 8
DOCKED: USER
DOCKED: USER    Estimated Free Energy of Binding    =  -8.48 kcal/mol  [=(1)+(2)+(3)-(4)]
DOCKED: USER
DOCKED: USER    (1) Final Intermolecular Energy     = -10.57 kcal/mol
DOCKED: USER        vdW + Hbond + desolv Energy     = -10.44 kcal/mol
DOCKED: USER        Electrostatic Energy            =  -0.13 kcal/mol
DOCKED: USER        Moving Ligand-Fixed Receptor    = -10.57 kcal/mol
DOCKED: USER        Moving Ligand-Moving Receptor   =  +0.00 kcal/mol
DOCKED: USER    (2) Final Total Internal Energy     =  -1.40 kcal/mol
DOCKED: USER    (3) Torsional Free Energy           =  +2.09 kcal/mol
DOCKED: USER    (4) Unbound System's Energy         =  -1.40 kcal/mol
DOCKED: USER
DOCKED: USER
DOCKED: REMARK SMILES C[C@H](N/C(O)=C/NC(=O)c1ccc2cc(F)ccc2n1)c1ccccc1
DOCKED: REMARK SMILES IDX 4 1 5 2 6 4 7 5 8 6 9 8 10 9 20 10 11 11 19 12 12 13 18 14
DOCKED: REMARK SMILES IDX 13 15 17 16 14 17 15 18 16 19 3 20 2 22 1 23 21 24 22 25
DOCKED: REMARK SMILES IDX 26 26 23 27 25 28 24 29
DOCKED: REMARK H PARENT 5 3 7 7 3 21
DOCKED: USER                              x       y       z     vdW  Elec       q    Type
DOCKED: USER                           _______ _______ _______ _____ _____    ______ ____
DOCKED: ROOT
DOCKED: ATOM      1  C   UNL     1     140.665  74.224 221.666 -0.19 -0.02    +0.201 C  
DOCKED: ENDROOT
DOCKED: BRANCH   1   2
DOCKED: ATOM      2  O   UNL     1     139.630  74.841 222.335 -0.62 +0.06    -0.494 OA 
DOCKED: ATOM      3  H   UNL     1     139.101  74.438 223.077 -0.49 -0.12    +0.295 HD 
DOCKED: ENDBRANCH   1   2
DOCKED: BRANCH   1   4
DOCKED: ATOM      4  C   UNL     1     140.739  72.940 221.380 -0.22 -0.02    +0.152 C  
DOCKED: BRANCH   4   5
DOCKED: ATOM      5  N   UNL     1     139.882  72.151 222.148 -0.15 +0.05    -0.322 N  
DOCKED: ATOM      6  C   UNL     1     139.081  71.416 222.865 -0.18 -0.06    +0.273 C  
DOCKED: ATOM      7  H   UNL     1     138.969  73.099 222.041 -0.02 -0.04    +0.169 HD 
DOCKED: ATOM      8  O   UNL     1     137.830  71.446 222.533 -0.10 +0.06    -0.267 OA 
DOCKED: BRANCH   6   9
DOCKED: ATOM      9  C   UNL     1     139.397  70.589 223.978 -0.29 -0.02    +0.129 A  
DOCKED: ATOM     10  N   UNL     1     140.017  71.037 225.066 -0.30 +0.04    -0.243 NA 
DOCKED: ATOM     11  C   UNL     1     138.966  69.257 223.924 -0.29 -0.01    +0.035 A  
DOCKED: ATOM     12  C   UNL     1     140.271  70.302 226.143 -0.49 -0.01    +0.071 A  
DOCKED: ATOM     13  C   UNL     1     139.195  68.443 224.999 -0.42 -0.00    +0.013 A  
DOCKED: ATOM     14  C   UNL     1     140.912  70.756 227.274 -0.63 -0.01    +0.032 A  
DOCKED: ATOM     15  C   UNL     1     139.842  68.990 226.080 -0.51 -0.00    +0.003 A  
DOCKED: ATOM     16  C   UNL     1     141.132  69.927 228.347 -0.50 -0.01    +0.041 A  
DOCKED: ATOM     17  C   UNL     1     140.076  68.196 227.157 -0.62 -0.01    +0.049 A  
DOCKED: ATOM     18  C   UNL     1     140.711  68.634 228.289 -0.56 -0.03    +0.123 A  
DOCKED: ATOM     19  F   UNL     1     140.933  67.830 229.351 -0.15 +0.06    -0.207 F  
DOCKED: ENDBRANCH   6   9
DOCKED: ENDBRANCH   4   5
DOCKED: ENDBRANCH   1   4
DOCKED: BRANCH   1  20
DOCKED: ATOM     20  N   UNL     1     141.754  74.993 221.242 -0.14 +0.11    -0.349 N  
DOCKED: ATOM     21  H   UNL     1     142.188  75.788 221.777 -0.52 -0.11    +0.164 HD 
DOCKED: BRANCH  20  22
DOCKED: ATOM     22  C   UNL     1     142.327  74.674 219.967 -0.22 -0.04    +0.109 C  
DOCKED: ATOM     23  C   UNL     1     142.675  75.920 219.188 -0.30 -0.02    +0.036 C  
DOCKED: BRANCH  22  24
DOCKED: ATOM     24  C   UNL     1     143.620  73.926 220.114 -0.35 +0.01    -0.026 A  
DOCKED: ATOM     25  C   UNL     1     144.774  74.522 220.564 -0.46 -0.00    +0.006 A  
DOCKED: ATOM     26  C   UNL     1     143.600  72.576 219.773 -0.25 -0.00    +0.006 A  
DOCKED: ATOM     27  C   UNL     1     145.962  73.825 220.702 -0.68 -0.00    +0.000 A  
DOCKED: ATOM     28  C   UNL     1     144.783  71.884 219.911 -0.34 +0.00    +0.000 A  
DOCKED: ATOM     29  C   UNL     1     145.948  72.491 220.366 -0.47 +0.00    +0.000 A  
DOCKED: ENDBRANCH  22  24
DOCKED: ENDBRANCH  20  22
DOCKED: ENDBRANCH   1  20
DOCKED: TORSDOF 7
DOCKED: TER
DOCKED: ENDMDL
________________________________________________________________________________


    FINAL DOCKED STATE:
    ________________________


Run:   9 / 20
Time taken for this run:   0.035s

DOCKED: MODEL        9
DOCKED: USER    Run = 9
DOCKED: USER
DOCKED: USER    Estimated Free Energy of Binding    =  -8.48 kcal/mol  [=(1)+(2)+(3)-(4)]
DOCKED: USER
DOCKED: USER    (1) Final Intermolecular Energy     = -10.57 kcal/mol
DOCKED: USER        vdW + Hbond + desolv Energy     = -10.41 kcal/mol
DOCKED: USER        Electrostatic Energy            =  -0.16 kcal/mol
DOCKED: USER        Moving Ligand-Fixed Receptor    = -10.57 kcal/mol
DOCKED: USER        Moving Ligand-Moving Receptor   =  +0.00 kcal/mol
DOCKED: USER    (2) Final Total Internal Energy     =  -1.26 kcal/mol
DOCKED: USER    (3) Torsional Free Energy           =  +2.09 kcal/mol
DOCKED: USER    (4) Unbound System's Energy         =  -1.26 kcal/mol
DOCKED: USER
DOCKED: USER
DOCKED: REMARK SMILES C[C@H](N/C(O)=C/NC(=O)c1ccc2cc(F)ccc2n1)c1ccccc1
DOCKED: REMARK SMILES IDX 4 1 5 2 6 4 7 5 8 6 9 8 10 9 20 10 11 11 19 12 12 13 18 14
DOCKED: REMARK SMILES IDX 13 15 17 16 14 17 15 18 16 19 3 20 2 22 1 23 21 24 22 25
DOCKED: REMARK SMILES IDX 26 26 23 27 25 28 24 29
DOCKED: REMARK H PARENT 5 3 7 7 3 21
DOCKED: USER                              x       y       z     vdW  Elec       q    Type
DOCKED: USER                           _______ _______ _______ _____ _____    ______ ____
DOCKED: ROOT
DOCKED: ATOM      1  C   UNL     1     140.333  74.921 221.963 -0.11 -0.02    +0.201 C  
DOCKED: ENDROOT
DOCKED: BRANCH   1   2
DOCKED: ATOM      2  O   UNL     1     139.281  75.397 222.715 -0.38 +0.09    -0.494 OA 
DOCKED: ATOM      3  H   UNL     1     138.831  74.905 223.455 -0.43 -0.18    +0.295 HD 
DOCKED: ENDBRANCH   1   2
DOCKED: BRANCH   1   4
DOCKED: ATOM      4  C   UNL     1     140.434  73.705 221.463 -0.23 -0.02    +0.152 C  
DOCKED: BRANCH   4   5
DOCKED: ATOM      5  N   UNL     1     139.683  72.757 222.160 -0.16 +0.06    -0.322 N  
DOCKED: ATOM      6  C   UNL     1     138.981  71.874 222.810 -0.15 -0.07    +0.273 C  
DOCKED: ATOM      7  H   UNL     1     138.650  73.577 222.095 -0.10 -0.05    +0.169 HD 
DOCKED: ATOM      8  O   UNL     1     137.742  71.756 222.454 -0.10 +0.07    -0.267 OA 
DOCKED: BRANCH   6   9
DOCKED: ATOM      9  C   UNL     1     139.393  71.024 223.873 -0.30 -0.03    +0.129 A  
DOCKED: ATOM     10  N   UNL     1     139.907  71.479 225.012 -0.28 +0.05    -0.243 NA 
DOCKED: ATOM     11  C   UNL     1     139.178  69.649 223.710 -0.27 -0.01    +0.035 A  
DOCKED: ATOM     12  C   UNL     1     140.244  70.713 226.044 -0.51 -0.01    +0.071 A  
DOCKED: ATOM     13  C   UNL     1     139.503  68.801 224.732 -0.35 -0.00    +0.013 A  
DOCKED: ATOM     14  C   UNL     1     140.777  71.175 227.227 -0.69 -0.01    +0.032 A  
DOCKED: ATOM     15  C   UNL     1     140.028  69.359 225.873 -0.48 -0.00    +0.003 A  
DOCKED: ATOM     16  C   UNL     1     141.096  70.311 228.247 -0.53 -0.01    +0.041 A  
DOCKED: ATOM     17  C   UNL     1     140.355  68.532 226.900 -0.60 -0.01    +0.049 A  
DOCKED: ATOM     18  C   UNL     1     140.884  68.976 228.083 -0.52 -0.03    +0.123 A  
DOCKED: ATOM     19  F   UNL     1     141.201  68.138 229.093 -0.19 +0.05    -0.207 F  
DOCKED: ENDBRANCH   6   9
DOCKED: ENDBRANCH   4   5
DOCKED: ENDBRANCH   1   4
DOCKED: BRANCH   1  20
DOCKED: ATOM     20  N   UNL     1     141.411  75.769 221.687 -0.14 +0.13    -0.349 N  
DOCKED: ATOM     21  H   UNL     1     142.413  75.592 221.952 -0.50 -0.12    +0.164 HD 
DOCKED: BRANCH  20  22
DOCKED: ATOM     22  C   UNL     1     141.126  76.986 220.984 -0.26 -0.05    +0.109 C  
DOCKED: ATOM     23  C   UNL     1     139.655  77.111 220.664 -0.15 -0.01    +0.036 C  
DOCKED: BRANCH  22  24
DOCKED: ATOM     24  C   UNL     1     141.454  78.193 221.813 -0.38 +0.01    -0.026 A  
DOCKED: ATOM     25  C   UNL     1     141.416  78.180 223.187 -0.52 -0.00    +0.006 A  
DOCKED: ATOM     26  C   UNL     1     141.808  79.348 221.120 -0.37 -0.00    +0.006 A  
DOCKED: ATOM     27  C   UNL     1     141.724  79.296 223.947 -0.60 -0.00    +0.000 A  
DOCKED: ATOM     28  C   UNL     1     142.115  80.456 221.877 -0.49 -0.00    +0.000 A  
DOCKED: ATOM     29  C   UNL     1     142.075  80.439 223.267 -0.62 -0.00    +0.000 A  
DOCKED: ENDBRANCH  22  24
DOCKED: ENDBRANCH  20  22
DOCKED: ENDBRANCH   1  20
DOCKED: TORSDOF 7
DOCKED: TER
DOCKED: ENDMDL
________________________________________________________________________________


    FINAL DOCKED STATE:
    ________________________


Run:   10 / 20
Time taken for this run:   0.035s

DOCKED: MODEL        10
DOCKED: USER    Run = 10
DOCKED: USER
DOCKED: USER    Estimated Free Energy of Binding    =  -8.49 kcal/mol  [=(1)+(2)+(3)-(4)]
DOCKED: USER
DOCKED: USER    (1) Final Intermolecular Energy     = -10.58 kcal/mol
DOCKED: USER        vdW + Hbond + desolv Energy     = -10.50 kcal/mol
DOCKED: USER        Electrostatic Energy            =  -0.08 kcal/mol
DOCKED: USER        Moving Ligand-Fixed Receptor    = -10.58 kcal/mol
DOCKED: USER        Moving Ligand-Moving Receptor   =  +0.00 kcal/mol
DOCKED: USER    (2) Final Total Internal Energy     =  -1.18 kcal/mol
DOCKED: USER    (3) Torsional Free Energy           =  +2.09 kcal/mol
DOCKED: USER    (4) Unbound System's Energy         =  -1.18 kcal/mol
DOCKED: USER
DOCKED: USER
DOCKED: REMARK SMILES C[C@H](N/C(O)=C/NC(=O)c1ccc2cc(F)ccc2n1)c1ccccc1
DOCKED: REMARK SMILES IDX 4 1 5 2 6 4 7 5 8 6 9 8 10 9 20 10 11 11 19 12 12 13 18 14
DOCKED: REMARK SMILES IDX 13 15 17 16 14 17 15 18 16 19 3 20 2 22 1 23 21 24 22 25
DOCKED: REMARK SMILES IDX 26 26 23 27 25 28 24 29
DOCKED: REMARK H PARENT 5 3 7 7 3 21
DOCKED: USER                              x       y       z     vdW  Elec       q    Type
DOCKED: USER                           _______ _______ _______ _____ _____    ______ ____
DOCKED: ROOT
DOCKED: ATOM      1  C   UNL     1     140.120  74.920 221.897 -0.17 -0.03    +0.201 C  
DOCKED: ENDROOT
DOCKED: BRANCH   1   2
DOCKED: ATOM      2  O   UNL     1     138.750  74.958 222.038 -0.19 +0.13    -0.494 OA 
DOCKED: ATOM      3  H   UNL     1     138.234  74.536 222.778 -0.48 -0.15    +0.295 HD 
DOCKED: ENDBRANCH   1   2
DOCKED: BRANCH   1   4
DOCKED: ATOM      4  C   UNL     1     140.832  73.860 221.570 -0.24 -0.02    +0.152 C  
DOCKED: BRANCH   4   5
DOCKED: ATOM      5  N   UNL     1     140.344  72.675 222.121 -0.17 +0.03    -0.322 N  
DOCKED: ATOM      6  C   UNL     1     139.888  71.569 222.635 -0.20 -0.05    +0.273 C  
DOCKED: ATOM      7  H   UNL     1     139.199  72.898 221.503 +0.03 -0.03    +0.169 HD 
DOCKED: ATOM      8  O   UNL     1     139.107  70.867 221.877 -0.09 +0.05    -0.267 OA 
DOCKED: BRANCH   6   9
DOCKED: ATOM      9  C   UNL     1     140.125  71.030 223.930 -0.33 -0.02    +0.129 A  
DOCKED: ATOM     10  N   UNL     1     139.865  69.766 224.252 -0.16 +0.04    -0.243 NA 
DOCKED: ATOM     11  C   UNL     1     140.718  71.879 224.874 -0.35 -0.00    +0.035 A  
DOCKED: ATOM     12  C   UNL     1     140.132  69.223 225.435 -0.39 -0.01    +0.071 A  
DOCKED: ATOM     13  C   UNL     1     141.020  71.385 226.112 -0.66 -0.00    +0.013 A  
DOCKED: ATOM     14  C   UNL     1     139.867  67.915 225.778 -0.55 -0.00    +0.032 A  
DOCKED: ATOM     15  C   UNL     1     140.718  70.067 226.359 -0.56 -0.00    +0.003 A  
DOCKED: ATOM     16  C   UNL     1     140.178  67.432 227.026 -0.46 -0.01    +0.041 A  
DOCKED: ATOM     17  C   UNL     1     141.012  69.559 227.583 -0.55 -0.01    +0.049 A  
DOCKED: ATOM     18  C   UNL     1     140.755  68.261 227.939 -0.55 -0.03    +0.123 A  
DOCKED: ATOM     19  F   UNL     1     141.056  67.774 229.161 -0.18 +0.06    -0.207 F  
DOCKED: ENDBRANCH   6   9
DOCKED: ENDBRANCH   4   5
DOCKED: ENDBRANCH   1   4
DOCKED: BRANCH   1  20
DOCKED: ATOM     20  N   UNL     1     140.858  76.088 222.119 -0.20 +0.10    -0.349 N  
DOCKED: ATOM     21  H   UNL     1     141.850  76.129 222.467 -0.51 -0.10    +0.164 HD 
DOCKED: BRANCH  20  22
DOCKED: ATOM     22  C   UNL     1     140.209  77.338 221.849 -0.30 -0.03    +0.109 C  
DOCKED: ATOM     23  C   UNL     1     138.961  77.505 222.684 -0.28 -0.01    +0.036 C  
DOCKED: BRANCH  22  24
DOCKED: ATOM     24  C   UNL     1     141.083  78.504 222.205 -0.41 +0.01    -0.026 A  
DOCKED: ATOM     25  C   UNL     1     141.552  78.715 223.479 -0.60 -0.00    +0.006 A  
DOCKED: ATOM     26  C   UNL     1     141.408  79.377 221.170 -0.35 -0.00    +0.006 A  
DOCKED: ATOM     27  C   UNL     1     142.363  79.790 223.801 -0.62 -0.00    +0.000 A  
DOCKED: ATOM     28  C   UNL     1     142.214  80.446 221.492 -0.43 -0.00    +0.000 A  
DOCKED: ATOM     29  C   UNL     1     142.687  80.656 222.782 -0.59 -0.00    +0.000 A  
DOCKED: ENDBRANCH  22  24
DOCKED: ENDBRANCH  20  22
DOCKED: ENDBRANCH   1  20
DOCKED: TORSDOF 7
DOCKED: TER
DOCKED: ENDMDL
________________________________________________________________________________


    FINAL DOCKED STATE:
    ________________________


Run:   11 / 20
Time taken for this run:   0.035s

DOCKED: MODEL        11
DOCKED: USER    Run = 11
DOCKED: USER
DOCKED: USER    Estimated Free Energy of Binding    =  -8.44 kcal/mol  [=(1)+(2)+(3)-(4)]
DOCKED: USER
DOCKED: USER    (1) Final Intermolecular Energy     = -10.53 kcal/mol
DOCKED: USER        vdW + Hbond + desolv Energy     = -10.39 kcal/mol
DOCKED: USER        Electrostatic Energy            =  -0.14 kcal/mol
DOCKED: USER        Moving Ligand-Fixed Receptor    = -10.53 kcal/mol
DOCKED: USER        Moving Ligand-Moving Receptor   =  +0.00 kcal/mol
DOCKED: USER    (2) Final Total Internal Energy     =  -1.43 kcal/mol
DOCKED: USER    (3) Torsional Free Energy           =  +2.09 kcal/mol
DOCKED: USER    (4) Unbound System's Energy         =  -1.43 kcal/mol
DOCKED: USER
DOCKED: USER
DOCKED: REMARK SMILES C[C@H](N/C(O)=C/NC(=O)c1ccc2cc(F)ccc2n1)c1ccccc1
DOCKED: REMARK SMILES IDX 4 1 5 2 6 4 7 5 8 6 9 8 10 9 20 10 11 11 19 12 12 13 18 14
DOCKED: REMARK SMILES IDX 13 15 17 16 14 17 15 18 16 19 3 20 2 22 1 23 21 24 22 25
DOCKED: REMARK SMILES IDX 26 26 23 27 25 28 24 29
DOCKED: REMARK H PARENT 5 3 7 7 3 21
DOCKED: USER                              x       y       z     vdW  Elec       q    Type
DOCKED: USER                           _______ _______ _______ _____ _____    ______ ____
DOCKED: ROOT
DOCKED: ATOM      1  C   UNL     1     140.601  74.293 221.634 -0.21 -0.02    +0.201 C  
DOCKED: ENDROOT
DOCKED: BRANCH   1   2
DOCKED: ATOM      2  O   UNL     1     139.648  74.954 222.379 -0.58 +0.06    -0.494 OA 
DOCKED: ATOM      3  H   UNL     1     139.050  74.534 223.056 -0.48 -0.12    +0.295 HD 
DOCKED: ENDBRANCH   1   2
DOCKED: BRANCH   1   4
DOCKED: ATOM      4  C   UNL     1     140.553  73.026 221.275 -0.20 -0.02    +0.152 C  
DOCKED: BRANCH   4   5
DOCKED: ATOM      5  N   UNL     1     139.739  72.247 222.099 -0.14 +0.06    -0.322 N  
DOCKED: ATOM      6  C   UNL     1     138.979  71.522 222.867 -0.17 -0.06    +0.273 C  
DOCKED: ATOM      7  H   UNL     1     138.830  73.203 222.047 -0.04 -0.05    +0.169 HD 
DOCKED: ATOM      8  O   UNL     1     137.709  71.562 222.616 -0.10 +0.07    -0.267 OA 
DOCKED: BRANCH   6   9
DOCKED: ATOM      9  C   UNL     1     139.357  70.694 223.961 -0.29 -0.02    +0.129 A  
DOCKED: ATOM     10  N   UNL     1     139.937  71.163 225.062 -0.30 +0.05    -0.243 NA 
DOCKED: ATOM     11  C   UNL     1     139.035  69.334 223.872 -0.28 -0.01    +0.035 A  
DOCKED: ATOM     12  C   UNL     1     140.247  70.424 226.121 -0.49 -0.01    +0.071 A  
DOCKED: ATOM     13  C   UNL     1     139.326  68.514 224.927 -0.40 -0.00    +0.013 A  
DOCKED: ATOM     14  C   UNL     1     140.848  70.899 227.266 -0.66 -0.01    +0.032 A  
DOCKED: ATOM     15  C   UNL     1     139.925  69.083 226.024 -0.51 -0.00    +0.003 A  
DOCKED: ATOM     16  C   UNL     1     141.131  70.063 228.319 -0.50 -0.01    +0.041 A  
DOCKED: ATOM     17  C   UNL     1     140.219  68.284 227.082 -0.62 -0.01    +0.049 A  
DOCKED: ATOM     18  C   UNL     1     140.815  68.743 228.227 -0.54 -0.03    +0.123 A  
DOCKED: ATOM     19  F   UNL     1     141.099  67.932 229.269 -0.16 +0.06    -0.207 F  
DOCKED: ENDBRANCH   6   9
DOCKED: ENDBRANCH   4   5
DOCKED: ENDBRANCH   1   4
DOCKED: BRANCH   1  20
DOCKED: ATOM     20  N   UNL     1     141.735  74.991 221.207 -0.15 +0.11    -0.349 N  
DOCKED: ATOM     21  H   UNL     1     142.214  75.763 221.737 -0.52 -0.11    +0.164 HD 
DOCKED: BRANCH  20  22
DOCKED: ATOM     22  C   UNL     1     142.293  74.625 219.938 -0.22 -0.04    +0.109 C  
DOCKED: ATOM     23  C   UNL     1     142.620  75.842 219.105 -0.28 -0.02    +0.036 C  
DOCKED: BRANCH  22  24
DOCKED: ATOM     24  C   UNL     1     143.594  73.893 220.096 -0.34 +0.01    -0.026 A  
DOCKED: ATOM     25  C   UNL     1     143.713  72.540 219.883 -0.27 -0.00    +0.006 A  
DOCKED: ATOM     26  C   UNL     1     144.697  74.657 220.470 -0.45 -0.00    +0.006 A  
DOCKED: ATOM     27  C   UNL     1     144.917  71.871 220.026 -0.33 +0.00    +0.000 A  
DOCKED: ATOM     28  C   UNL     1     145.893  73.990 220.612 -0.62 -0.00    +0.000 A  
DOCKED: ATOM     29  C   UNL     1     146.009  72.621 220.396 -0.52 +0.00    +0.000 A  
DOCKED: ENDBRANCH  22  24
DOCKED: ENDBRANCH  20  22
DOCKED: ENDBRANCH   1  20
DOCKED: TORSDOF 7
DOCKED: TER
DOCKED: ENDMDL
________________________________________________________________________________


    FINAL DOCKED STATE:
    ________________________


Run:   12 / 20
Time taken for this run:   0.035s

DOCKED: MODEL        12
DOCKED: USER    Run = 12
DOCKED: USER
DOCKED: USER    Estimated Free Energy of Binding    =  -8.44 kcal/mol  [=(1)+(2)+(3)-(4)]
DOCKED: USER
DOCKED: USER    (1) Final Intermolecular Energy     = -10.53 kcal/mol
DOCKED: USER        vdW + Hbond + desolv Energy     = -10.39 kcal/mol
DOCKED: USER        Electrostatic Energy            =  -0.14 kcal/mol
DOCKED: USER        Moving Ligand-Fixed Receptor    = -10.53 kcal/mol
DOCKED: USER        Moving Ligand-Moving Receptor   =  +0.00 kcal/mol
DOCKED: USER    (2) Final Total Internal Energy     =  -1.44 kcal/mol
DOCKED: USER    (3) Torsional Free Energy           =  +2.09 kcal/mol
DOCKED: USER    (4) Unbound System's Energy         =  -1.44 kcal/mol
DOCKED: USER
DOCKED: USER
DOCKED: REMARK SMILES C[C@H](N/C(O)=C/NC(=O)c1ccc2cc(F)ccc2n1)c1ccccc1
DOCKED: REMARK SMILES IDX 4 1 5 2 6 4 7 5 8 6 9 8 10 9 20 10 11 11 19 12 12 13 18 14
DOCKED: REMARK SMILES IDX 13 15 17 16 14 17 15 18 16 19 3 20 2 22 1 23 21 24 22 25
DOCKED: REMARK SMILES IDX 26 26 23 27 25 28 24 29
DOCKED: REMARK H PARENT 5 3 7 7 3 21
DOCKED: USER                              x       y       z     vdW  Elec       q    Type
DOCKED: USER                           _______ _______ _______ _____ _____    ______ ____
DOCKED: ROOT
DOCKED: ATOM      1  C   UNL     1     140.677  74.303 221.606 -0.22 -0.02    +0.201 C  
DOCKED: ENDROOT
DOCKED: BRANCH   1   2
DOCKED: ATOM      2  O   UNL     1     139.711  74.923 222.369 -0.59 +0.05    -0.494 OA 
DOCKED: ATOM      3  H   UNL     1     139.116  74.469 223.026 -0.48 -0.11    +0.295 HD 
DOCKED: ENDBRANCH   1   2
DOCKED: BRANCH   1   4
DOCKED: ATOM      4  C   UNL     1     140.679  73.035 221.248 -0.21 -0.02    +0.152 C  
DOCKED: BRANCH   4   5
DOCKED: ATOM      5  N   UNL     1     139.841  72.238 222.030 -0.14 +0.05    -0.322 N  
DOCKED: ATOM      6  C   UNL     1     139.059  71.495 222.759 -0.17 -0.06    +0.273 C  
DOCKED: ATOM      7  H   UNL     1     138.908  73.164 221.913 -0.00 -0.04    +0.169 HD 
DOCKED: ATOM      8  O   UNL     1     137.806  71.495 222.431 -0.09 +0.06    -0.267 OA 
DOCKED: BRANCH   6   9
DOCKED: ATOM      9  C   UNL     1     139.396  70.690 223.881 -0.29 -0.02    +0.129 A  
DOCKED: ATOM     10  N   UNL     1     139.964  71.175 224.981 -0.30 +0.05    -0.243 NA 
DOCKED: ATOM     11  C   UNL     1     139.043  69.335 223.822 -0.28 -0.01    +0.035 A  
DOCKED: ATOM     12  C   UNL     1     140.235  70.457 226.066 -0.49 -0.01    +0.071 A  
DOCKED: ATOM     13  C   UNL     1     139.293  68.537 224.904 -0.39 -0.00    +0.013 A  
DOCKED: ATOM     14  C   UNL     1     140.823  70.949 227.210 -0.66 -0.01    +0.032 A  
DOCKED: ATOM     15  C   UNL     1     139.883  69.122 225.998 -0.50 -0.00    +0.003 A  
DOCKED: ATOM     16  C   UNL     1     141.066  70.136 228.290 -0.53 -0.01    +0.041 A  
DOCKED: ATOM     17  C   UNL     1     140.137  68.345 227.082 -0.61 -0.01    +0.049 A  
DOCKED: ATOM     18  C   UNL     1     140.721  68.821 228.227 -0.54 -0.03    +0.123 A  
DOCKED: ATOM     19  F   UNL     1     140.964  68.032 229.296 -0.14 +0.05    -0.207 F  
DOCKED: ENDBRANCH   6   9
DOCKED: ENDBRANCH   4   5
DOCKED: ENDBRANCH   1   4
DOCKED: BRANCH   1  20
DOCKED: ATOM     20  N   UNL     1     141.772  75.050 221.158 -0.15 +0.11    -0.349 N  
DOCKED: ATOM     21  H   UNL     1     142.200  75.870 221.659 -0.52 -0.11    +0.164 HD 
DOCKED: BRANCH  20  22
DOCKED: ATOM     22  C   UNL     1     142.361  74.669 219.908 -0.22 -0.04    +0.109 C  
DOCKED: ATOM     23  C   UNL     1     142.697  75.875 219.063 -0.29 -0.02    +0.036 C  
DOCKED: BRANCH  22  24
DOCKED: ATOM     24  C   UNL     1     143.663  73.950 220.106 -0.35 +0.01    -0.026 A  
DOCKED: ATOM     25  C   UNL     1     144.813  74.594 220.493 -0.46 -0.00    +0.006 A  
DOCKED: ATOM     26  C   UNL     1     143.655  72.575 219.881 -0.27 -0.00    +0.006 A  
DOCKED: ATOM     27  C   UNL     1     146.010  73.924 220.679 -0.65 -0.00    +0.000 A  
DOCKED: ATOM     28  C   UNL     1     144.846  71.911 220.067 -0.34 +0.00    +0.000 A  
DOCKED: ATOM     29  C   UNL     1     146.008  72.566 220.458 -0.50 +0.00    +0.000 A  
DOCKED: ENDBRANCH  22  24
DOCKED: ENDBRANCH  20  22
DOCKED: ENDBRANCH   1  20
DOCKED: TORSDOF 7
DOCKED: TER
DOCKED: ENDMDL
________________________________________________________________________________


    FINAL DOCKED STATE:
    ________________________


Run:   13 / 20
Time taken for this run:   0.035s

DOCKED: MODEL        13
DOCKED: USER    Run = 13
DOCKED: USER
DOCKED: USER    Estimated Free Energy of Binding    =  -8.45 kcal/mol  [=(1)+(2)+(3)-(4)]
DOCKED: USER
DOCKED: USER    (1) Final Intermolecular Energy     = -10.54 kcal/mol
DOCKED: USER        vdW + Hbond + desolv Energy     = -10.40 kcal/mol
DOCKED: USER        Electrostatic Energy            =  -0.15 kcal/mol
DOCKED: USER        Moving Ligand-Fixed Receptor    = -10.54 kcal/mol
DOCKED: USER        Moving Ligand-Moving Receptor   =  +0.00 kcal/mol
DOCKED: USER    (2) Final Total Internal Energy     =  -1.26 kcal/mol
DOCKED: USER    (3) Torsional Free Energy           =  +2.09 kcal/mol
DOCKED: USER    (4) Unbound System's Energy         =  -1.26 kcal/mol
DOCKED: USER
DOCKED: USER
DOCKED: REMARK SMILES C[C@H](N/C(O)=C/NC(=O)c1ccc2cc(F)ccc2n1)c1ccccc1
DOCKED: REMARK SMILES IDX 4 1 5 2 6 4 7 5 8 6 9 8 10 9 20 10 11 11 19 12 12 13 18 14
DOCKED: REMARK SMILES IDX 13 15 17 16 14 17 15 18 16 19 3 20 2 22 1 23 21 24 22 25
DOCKED: REMARK SMILES IDX 26 26 23 27 25 28 24 29
DOCKED: REMARK H PARENT 5 3 7 7 3 21
DOCKED: USER                              x       y       z     vdW  Elec       q    Type
DOCKED: USER                           _______ _______ _______ _____ _____    ______ ____
DOCKED: ROOT
DOCKED: ATOM      1  C   UNL     1     140.367  74.958 221.916 -0.13 -0.02    +0.201 C  
DOCKED: ENDROOT
DOCKED: BRANCH   1   2
DOCKED: ATOM      2  O   UNL     1     139.336  75.408 222.713 -0.39 +0.08    -0.494 OA 
DOCKED: ATOM      3  H   UNL     1     138.920  74.897 223.461 -0.43 -0.16    +0.295 HD 
DOCKED: ENDBRANCH   1   2
DOCKED: BRANCH   1   4
DOCKED: ATOM      4  C   UNL     1     140.466  73.753 221.393 -0.23 -0.02    +0.152 C  
DOCKED: BRANCH   4   5
DOCKED: ATOM      5  N   UNL     1     139.698  72.796 222.059 -0.15 +0.06    -0.322 N  
DOCKED: ATOM      6  C   UNL     1     138.980  71.905 222.679 -0.16 -0.07    +0.273 C  
DOCKED: ATOM      7  H   UNL     1     138.654  73.595 221.932 -0.03 -0.05    +0.169 HD 
DOCKED: ATOM      8  O   UNL     1     137.763  71.760 222.260 -0.09 +0.06    -0.267 OA 
DOCKED: BRANCH   6   9
DOCKED: ATOM      9  C   UNL     1     139.352  71.072 223.770 -0.30 -0.03    +0.129 A  
DOCKED: ATOM     10  N   UNL     1     139.915  71.537 224.882 -0.27 +0.05    -0.243 NA 
DOCKED: ATOM     11  C   UNL     1     139.041  69.709 223.667 -0.26 -0.01    +0.035 A  
DOCKED: ATOM     12  C   UNL     1     140.217  70.791 225.939 -0.50 -0.01    +0.071 A  
DOCKED: ATOM     13  C   UNL     1     139.325  68.884 224.719 -0.37 -0.00    +0.013 A  
DOCKED: ATOM     14  C   UNL     1     140.801  71.262 227.095 -0.69 -0.01    +0.032 A  
DOCKED: ATOM     15  C   UNL     1     139.907  69.449 225.828 -0.47 -0.00    +0.003 A  
DOCKED: ATOM     16  C   UNL     1     141.078  70.421 228.145 -0.56 -0.01    +0.041 A  
DOCKED: ATOM     17  C   UNL     1     140.195  68.644 226.883 -0.58 -0.01    +0.049 A  
DOCKED: ATOM     18  C   UNL     1     140.773  69.098 228.039 -0.53 -0.03    +0.123 A  
DOCKED: ATOM     19  F   UNL     1     141.051  68.282 229.078 -0.17 +0.05    -0.207 F  
DOCKED: ENDBRANCH   6   9
DOCKED: ENDBRANCH   4   5
DOCKED: ENDBRANCH   1   4
DOCKED: BRANCH   1  20
DOCKED: ATOM     20  N   UNL     1     141.423  75.826 221.617 -0.15 +0.14    -0.349 N  
DOCKED: ATOM     21  H   UNL     1     142.440  75.641 221.808 -0.50 -0.12    +0.164 HD 
DOCKED: BRANCH  20  22
DOCKED: ATOM     22  C   UNL     1     141.091  77.077 221.000 -0.26 -0.05    +0.109 C  
DOCKED: ATOM     23  C   UNL     1     139.605  77.199 220.758 -0.15 -0.01    +0.036 C  
DOCKED: BRANCH  22  24
DOCKED: ATOM     24  C   UNL     1     141.445  78.240 221.880 -0.39 +0.01    -0.026 A  
DOCKED: ATOM     25  C   UNL     1     141.420  78.164 223.252 -0.51 -0.00    +0.006 A  
DOCKED: ATOM     26  C   UNL     1     141.811  79.419 221.236 -0.38 -0.00    +0.006 A  
DOCKED: ATOM     27  C   UNL     1     141.752  79.239 224.059 -0.58 -0.00    +0.000 A  
DOCKED: ATOM     28  C   UNL     1     142.141  80.487 222.040 -0.51 -0.00    +0.000 A  
DOCKED: ATOM     29  C   UNL     1     142.114  80.406 223.428 -0.64 -0.00    +0.000 A  
DOCKED: ENDBRANCH  22  24
DOCKED: ENDBRANCH  20  22
DOCKED: ENDBRANCH   1  20
DOCKED: TORSDOF 7
DOCKED: TER
DOCKED: ENDMDL
________________________________________________________________________________


    FINAL DOCKED STATE:
    ________________________


Run:   14 / 20
Time taken for this run:   0.035s

DOCKED: MODEL        14
DOCKED: USER    Run = 14
DOCKED: USER
DOCKED: USER    Estimated Free Energy of Binding    =  -8.53 kcal/mol  [=(1)+(2)+(3)-(4)]
DOCKED: USER
DOCKED: USER    (1) Final Intermolecular Energy     = -10.62 kcal/mol
DOCKED: USER        vdW + Hbond + desolv Energy     = -10.49 kcal/mol
DOCKED: USER        Electrostatic Energy            =  -0.12 kcal/mol
DOCKED: USER        Moving Ligand-Fixed Receptor    = -10.62 kcal/mol
DOCKED: USER        Moving Ligand-Moving Receptor   =  +0.00 kcal/mol
DOCKED: USER    (2) Final Total Internal Energy     =  -1.37 kcal/mol
DOCKED: USER    (3) Torsional Free Energy           =  +2.09 kcal/mol
DOCKED: USER    (4) Unbound System's Energy         =  -1.37 kcal/mol
DOCKED: USER
DOCKED: USER
DOCKED: REMARK SMILES C[C@H](N/C(O)=C/NC(=O)c1ccc2cc(F)ccc2n1)c1ccccc1
DOCKED: REMARK SMILES IDX 4 1 5 2 6 4 7 5 8 6 9 8 10 9 20 10 11 11 19 12 12 13 18 14
DOCKED: REMARK SMILES IDX 13 15 17 16 14 17 15 18 16 19 3 20 2 22 1 23 21 24 22 25
DOCKED: REMARK SMILES IDX 26 26 23 27 25 28 24 29
DOCKED: REMARK H PARENT 5 3 7 7 3 21
DOCKED: USER                              x       y       z     vdW  Elec       q    Type
DOCKED: USER                           _______ _______ _______ _____ _____    ______ ____
DOCKED: ROOT
DOCKED: ATOM      1  C   UNL     1     140.595  74.281 221.669 -0.19 -0.02    +0.201 C  
DOCKED: ENDROOT
DOCKED: BRANCH   1   2
DOCKED: ATOM      2  O   UNL     1     139.562  74.944 222.297 -0.58 +0.07    -0.494 OA 
DOCKED: ATOM      3  H   UNL     1     139.024  74.586 223.055 -0.48 -0.12    +0.295 HD 
DOCKED: ENDBRANCH   1   2
DOCKED: BRANCH   1   4
DOCKED: ATOM      4  C   UNL     1     140.635  72.990 221.408 -0.22 -0.02    +0.152 C  
DOCKED: BRANCH   4   5
DOCKED: ATOM      5  N   UNL     1     139.807  72.232 222.237 -0.16 +0.05    -0.322 N  
DOCKED: ATOM      6  C   UNL     1     139.033  71.526 223.010 -0.18 -0.07    +0.273 C  
DOCKED: ATOM      7  H   UNL     1     138.935  73.223 222.214 -0.08 -0.05    +0.169 HD 
DOCKED: ATOM      8  O   UNL     1     137.762  71.619 222.783 -0.12 +0.07    -0.267 OA 
DOCKED: BRANCH   6   9
DOCKED: ATOM      9  C   UNL     1     139.400  70.670 224.085 -0.30 -0.02    +0.129 A  
DOCKED: ATOM     10  N   UNL     1     140.046  71.096 225.167 -0.31 +0.04    -0.243 NA 
DOCKED: ATOM     11  C   UNL     1     138.992  69.332 224.002 -0.29 -0.01    +0.035 A  
DOCKED: ATOM     12  C   UNL     1     140.347  70.332 226.211 -0.50 -0.01    +0.071 A  
DOCKED: ATOM     13  C   UNL     1     139.269  68.489 225.042 -0.42 -0.00    +0.013 A  
DOCKED: ATOM     14  C   UNL     1     141.017  70.762 227.336 -0.63 -0.01    +0.032 A  
DOCKED: ATOM     15  C   UNL     1     139.941  69.014 226.120 -0.52 -0.00    +0.003 A  
DOCKED: ATOM     16  C   UNL     1     141.286  69.904 228.374 -0.43 -0.01    +0.041 A  
DOCKED: ATOM     17  C   UNL     1     140.223  68.191 227.163 -0.63 -0.01    +0.049 A  
DOCKED: ATOM     18  C   UNL     1     140.887  68.605 228.288 -0.55 -0.03    +0.123 A  
DOCKED: ATOM     19  F   UNL     1     141.157  67.772 229.315 -0.18 +0.06    -0.207 F  
DOCKED: ENDBRANCH   6   9
DOCKED: ENDBRANCH   4   5
DOCKED: ENDBRANCH   1   4
DOCKED: BRANCH   1  20
DOCKED: ATOM     20  N   UNL     1     141.720  75.007 221.261 -0.14 +0.11    -0.349 N  
DOCKED: ATOM     21  H   UNL     1     142.192  75.766 221.815 -0.52 -0.11    +0.164 HD 
DOCKED: BRANCH  20  22
DOCKED: ATOM     22  C   UNL     1     142.277  74.691 219.978 -0.22 -0.04    +0.109 C  
DOCKED: ATOM     23  C   UNL     1     142.583  75.939 219.184 -0.29 -0.02    +0.036 C  
DOCKED: BRANCH  22  24
DOCKED: ATOM     24  C   UNL     1     143.588  73.973 220.107 -0.35 +0.01    -0.026 A  
DOCKED: ATOM     25  C   UNL     1     144.750  74.612 220.467 -0.47 -0.00    +0.006 A  
DOCKED: ATOM     26  C   UNL     1     143.577  72.605 219.844 -0.26 -0.00    +0.006 A  
DOCKED: ATOM     27  C   UNL     1     145.956  73.943 220.589 -0.63 -0.00    +0.000 A  
DOCKED: ATOM     28  C   UNL     1     144.777  71.941 219.966 -0.34 +0.00    +0.000 A  
DOCKED: ATOM     29  C   UNL     1     145.951  72.591 220.330 -0.52 +0.00    +0.000 A  
DOCKED: ENDBRANCH  22  24
DOCKED: ENDBRANCH  20  22
DOCKED: ENDBRANCH   1  20
DOCKED: TORSDOF 7
DOCKED: TER
DOCKED: ENDMDL
________________________________________________________________________________


    FINAL DOCKED STATE:
    ________________________


Run:   15 / 20
Time taken for this run:   0.035s

DOCKED: MODEL        15
DOCKED: USER    Run = 15
DOCKED: USER
DOCKED: USER    Estimated Free Energy of Binding    =  -8.43 kcal/mol  [=(1)+(2)+(3)-(4)]
DOCKED: USER
DOCKED: USER    (1) Final Intermolecular Energy     = -10.52 kcal/mol
DOCKED: USER        vdW + Hbond + desolv Energy     = -10.45 kcal/mol
DOCKED: USER        Electrostatic Energy            =  -0.07 kcal/mol
DOCKED: USER        Moving Ligand-Fixed Receptor    = -10.52 kcal/mol
DOCKED: USER        Moving Ligand-Moving Receptor   =  +0.00 kcal/mol
DOCKED: USER    (2) Final Total Internal Energy     =  -1.20 kcal/mol
DOCKED: USER    (3) Torsional Free Energy           =  +2.09 kcal/mol
DOCKED: USER    (4) Unbound System's Energy         =  -1.20 kcal/mol
DOCKED: USER
DOCKED: USER
DOCKED: REMARK SMILES C[C@H](N/C(O)=C/NC(=O)c1ccc2cc(F)ccc2n1)c1ccccc1
DOCKED: REMARK SMILES IDX 4 1 5 2 6 4 7 5 8 6 9 8 10 9 20 10 11 11 19 12 12 13 18 14
DOCKED: REMARK SMILES IDX 13 15 17 16 14 17 15 18 16 19 3 20 2 22 1 23 21 24 22 25
DOCKED: REMARK SMILES IDX 26 26 23 27 25 28 24 29
DOCKED: REMARK H PARENT 5 3 7 7 3 21
DOCKED: USER                              x       y       z     vdW  Elec       q    Type
DOCKED: USER                           _______ _______ _______ _____ _____    ______ ____
DOCKED: ROOT
DOCKED: ATOM      1  C   UNL     1     140.129  74.935 221.918 -0.16 -0.02    +0.201 C  
DOCKED: ENDROOT
DOCKED: BRANCH   1   2
DOCKED: ATOM      2  O   UNL     1     138.753  74.956 221.998 -0.18 +0.12    -0.494 OA 
DOCKED: ATOM      3  H   UNL     1     138.212  74.556 222.733 -0.47 -0.14    +0.295 HD 
DOCKED: ENDBRANCH   1   2
DOCKED: BRANCH   1   4
DOCKED: ATOM      4  C   UNL     1     140.865  73.889 221.601 -0.23 -0.01    +0.152 C  
DOCKED: BRANCH   4   5
DOCKED: ATOM      5  N   UNL     1     140.383  72.691 222.132 -0.17 +0.03    -0.322 N  
DOCKED: ATOM      6  C   UNL     1     139.932  71.574 222.626 -0.21 -0.04    +0.273 C  
DOCKED: ATOM      7  H   UNL     1     139.268  72.878 221.451 +0.04 -0.03    +0.169 HD 
DOCKED: ATOM      8  O   UNL     1     139.214  70.847 221.831 -0.09 +0.05    -0.267 OA 
DOCKED: BRANCH   6   9
DOCKED: ATOM      9  C   UNL     1     140.113  71.049 223.935 -0.33 -0.02    +0.129 A  
DOCKED: ATOM     10  N   UNL     1     139.790  69.803 224.271 -0.16 +0.04    -0.243 NA 
DOCKED: ATOM     11  C   UNL     1     140.721  71.886 224.880 -0.34 -0.00    +0.035 A  
DOCKED: ATOM     12  C   UNL     1     140.004  69.268 225.468 -0.40 -0.01    +0.071 A  
DOCKED: ATOM     13  C   UNL     1     140.970  71.401 226.133 -0.65 -0.00    +0.013 A  
DOCKED: ATOM     14  C   UNL     1     139.673  67.980 225.826 -0.55 -0.00    +0.032 A  
DOCKED: ATOM     15  C   UNL     1     140.604  70.102 226.393 -0.56 -0.00    +0.003 A  
DOCKED: ATOM     16  C   UNL     1     139.932  67.505 227.089 -0.44 -0.01    +0.041 A  
DOCKED: ATOM     17  C   UNL     1     140.845  69.603 227.632 -0.56 -0.01    +0.049 A  
DOCKED: ATOM     18  C   UNL     1     140.523  68.323 228.002 -0.55 -0.03    +0.123 A  
DOCKED: ATOM     19  F   UNL     1     140.773  67.844 229.239 -0.15 +0.06    -0.207 F  
DOCKED: ENDBRANCH   6   9
DOCKED: ENDBRANCH   4   5
DOCKED: ENDBRANCH   1   4
DOCKED: BRANCH   1  20
DOCKED: ATOM     20  N   UNL     1     140.844  76.105 222.195 -0.20 +0.10    -0.349 N  
DOCKED: ATOM     21  H   UNL     1     141.809  76.149 222.611 -0.49 -0.09    +0.164 HD 
DOCKED: BRANCH  20  22
DOCKED: ATOM     22  C   UNL     1     140.208  77.353 221.887 -0.30 -0.03    +0.109 C  
DOCKED: ATOM     23  C   UNL     1     138.942  77.542 222.690 -0.28 -0.01    +0.036 C  
DOCKED: BRANCH  22  24
DOCKED: ATOM     24  C   UNL     1     141.080  78.521 222.243 -0.41 +0.01    -0.026 A  
DOCKED: ATOM     25  C   UNL     1     141.548  78.734 223.517 -0.59 -0.00    +0.006 A  
DOCKED: ATOM     26  C   UNL     1     141.405  79.393 221.207 -0.35 -0.00    +0.006 A  
DOCKED: ATOM     27  C   UNL     1     142.356  79.811 223.839 -0.62 -0.00    +0.000 A  
DOCKED: ATOM     28  C   UNL     1     142.209  80.463 221.528 -0.44 -0.00    +0.000 A  
DOCKED: ATOM     29  C   UNL     1     142.680  80.676 222.819 -0.60 -0.00    +0.000 A  
DOCKED: ENDBRANCH  22  24
DOCKED: ENDBRANCH  20  22
DOCKED: ENDBRANCH   1  20
DOCKED: TORSDOF 7
DOCKED: TER
DOCKED: ENDMDL
________________________________________________________________________________


    FINAL DOCKED STATE:
    ________________________


Run:   16 / 20
Time taken for this run:   0.035s

DOCKED: MODEL        16
DOCKED: USER    Run = 16
DOCKED: USER
DOCKED: USER    Estimated Free Energy of Binding    =  -8.34 kcal/mol  [=(1)+(2)+(3)-(4)]
DOCKED: USER
DOCKED: USER    (1) Final Intermolecular Energy     = -10.43 kcal/mol
DOCKED: USER        vdW + Hbond + desolv Energy     = -10.28 kcal/mol
DOCKED: USER        Electrostatic Energy            =  -0.15 kcal/mol
DOCKED: USER        Moving Ligand-Fixed Receptor    = -10.43 kcal/mol
DOCKED: USER        Moving Ligand-Moving Receptor   =  +0.00 kcal/mol
DOCKED: USER    (2) Final Total Internal Energy     =  -1.48 kcal/mol
DOCKED: USER    (3) Torsional Free Energy           =  +2.09 kcal/mol
DOCKED: USER    (4) Unbound System's Energy         =  -1.48 kcal/mol
DOCKED: USER
DOCKED: USER
DOCKED: REMARK SMILES C[C@H](N/C(O)=C/NC(=O)c1ccc2cc(F)ccc2n1)c1ccccc1
DOCKED: REMARK SMILES IDX 4 1 5 2 6 4 7 5 8 6 9 8 10 9 20 10 11 11 19 12 12 13 18 14
DOCKED: REMARK SMILES IDX 13 15 17 16 14 17 15 18 16 19 3 20 2 22 1 23 21 24 22 25
DOCKED: REMARK SMILES IDX 26 26 23 27 25 28 24 29
DOCKED: REMARK H PARENT 5 3 7 7 3 21
DOCKED: USER                              x       y       z     vdW  Elec       q    Type
DOCKED: USER                           _______ _______ _______ _____ _____    ______ ____
DOCKED: ROOT
DOCKED: ATOM      1  C   UNL     1     140.557  74.257 221.603 -0.23 -0.02    +0.201 C  
DOCKED: ENDROOT
DOCKED: BRANCH   1   2
DOCKED: ATOM      2  O   UNL     1     139.588  74.876 222.362 -0.61 +0.06    -0.494 OA 
DOCKED: ATOM      3  H   UNL     1     138.992  74.423 223.019 -0.49 -0.13    +0.295 HD 
DOCKED: ENDBRANCH   1   2
DOCKED: BRANCH   1   4
DOCKED: ATOM      4  C   UNL     1     140.493  73.031 221.124 -0.19 -0.02    +0.152 C  
DOCKED: BRANCH   4   5
DOCKED: ATOM      5  N   UNL     1     139.702  72.177 221.894 -0.12 +0.06    -0.322 N  
DOCKED: ATOM      6  C   UNL     1     138.962  71.381 222.611 -0.15 -0.06    +0.273 C  
DOCKED: ATOM      7  H   UNL     1     138.703  73.029 221.750 +0.02 -0.04    +0.169 HD 
DOCKED: ATOM      8  O   UNL     1     137.721  71.283 222.257 -0.07 +0.06    -0.267 OA 
DOCKED: BRANCH   6   9
DOCKED: ATOM      9  C   UNL     1     139.335  70.611 223.747 -0.27 -0.02    +0.129 A  
DOCKED: ATOM     10  N   UNL     1     139.894  71.138 224.833 -0.29 +0.05    -0.243 NA 
DOCKED: ATOM     11  C   UNL     1     139.030  69.243 223.718 -0.27 -0.01    +0.035 A  
DOCKED: ATOM     12  C   UNL     1     140.197  70.452 225.930 -0.48 -0.01    +0.071 A  
DOCKED: ATOM     13  C   UNL     1     139.315  68.477 224.813 -0.38 -0.00    +0.013 A  
DOCKED: ATOM     14  C   UNL     1     140.776  70.988 227.059 -0.66 -0.01    +0.032 A  
DOCKED: ATOM     15  C   UNL     1     139.892  69.104 225.891 -0.49 -0.00    +0.003 A  
DOCKED: ATOM     16  C   UNL     1     141.055  70.205 228.154 -0.55 -0.01    +0.041 A  
DOCKED: ATOM     17  C   UNL     1     140.181  68.359 226.989 -0.61 -0.01    +0.049 A  
DOCKED: ATOM     18  C   UNL     1     140.755  68.878 228.119 -0.54 -0.03    +0.123 A  
DOCKED: ATOM     19  F   UNL     1     141.033  68.120 229.202 -0.16 +0.05    -0.207 F  
DOCKED: ENDBRANCH   6   9
DOCKED: ENDBRANCH   4   5
DOCKED: ENDBRANCH   1   4
DOCKED: BRANCH   1  20
DOCKED: ATOM     20  N   UNL     1     141.730  74.956 221.296 -0.13 +0.10    -0.349 N  
DOCKED: ATOM     21  H   UNL     1     142.210  75.650 221.923 -0.52 -0.10    +0.164 HD 
DOCKED: BRANCH  20  22
DOCKED: ATOM     22  C   UNL     1     142.328  74.707 220.017 -0.23 -0.04    +0.109 C  
DOCKED: ATOM     23  C   UNL     1     142.708  75.993 219.323 -0.31 -0.02    +0.036 C  
DOCKED: BRANCH  22  24
DOCKED: ATOM     24  C   UNL     1     143.609  73.935 220.147 -0.35 +0.01    -0.026 A  
DOCKED: ATOM     25  C   UNL     1     144.796  74.525 220.509 -0.48 -0.00    +0.006 A  
DOCKED: ATOM     26  C   UNL     1     143.541  72.569 219.884 -0.26 -0.00    +0.006 A  
DOCKED: ATOM     27  C   UNL     1     145.973  73.807 220.632 -0.67 -0.00    +0.000 A  
DOCKED: ATOM     28  C   UNL     1     144.713  71.856 220.007 -0.33 +0.00    +0.000 A  
DOCKED: ATOM     29  C   UNL     1     145.912  72.457 220.373 -0.46 +0.00    +0.000 A  
DOCKED: ENDBRANCH  22  24
DOCKED: ENDBRANCH  20  22
DOCKED: ENDBRANCH   1  20
DOCKED: TORSDOF 7
DOCKED: TER
DOCKED: ENDMDL
________________________________________________________________________________


    FINAL DOCKED STATE:
    ________________________


Run:   17 / 20
Time taken for this run:   0.035s

DOCKED: MODEL        17
DOCKED: USER    Run = 17
DOCKED: USER
DOCKED: USER    Estimated Free Energy of Binding    =  -7.29 kcal/mol  [=(1)+(2)+(3)-(4)]
DOCKED: USER
DOCKED: USER    (1) Final Intermolecular Energy     =  -9.37 kcal/mol
DOCKED: USER        vdW + Hbond + desolv Energy     =  -9.29 kcal/mol
DOCKED: USER        Electrostatic Energy            =  -0.08 kcal/mol
DOCKED: USER        Moving Ligand-Fixed Receptor    =  -9.37 kcal/mol
DOCKED: USER        Moving Ligand-Moving Receptor   =  +0.00 kcal/mol
DOCKED: USER    (2) Final Total Internal Energy     =  -0.93 kcal/mol
DOCKED: USER    (3) Torsional Free Energy           =  +2.09 kcal/mol
DOCKED: USER    (4) Unbound System's Energy         =  -0.93 kcal/mol
DOCKED: USER
DOCKED: USER
DOCKED: REMARK SMILES C[C@H](N/C(O)=C/NC(=O)c1ccc2cc(F)ccc2n1)c1ccccc1
DOCKED: REMARK SMILES IDX 4 1 5 2 6 4 7 5 8 6 9 8 10 9 20 10 11 11 19 12 12 13 18 14
DOCKED: REMARK SMILES IDX 13 15 17 16 14 17 15 18 16 19 3 20 2 22 1 23 21 24 22 25
DOCKED: REMARK SMILES IDX 26 26 23 27 25 28 24 29
DOCKED: REMARK H PARENT 5 3 7 7 3 21
DOCKED: USER                              x       y       z     vdW  Elec       q    Type
DOCKED: USER                           _______ _______ _______ _____ _____    ______ ____
DOCKED: ROOT
DOCKED: ATOM      1  C   UNL     1     139.806  71.476 222.931 -0.25 -0.04    +0.201 C  
DOCKED: ENDROOT
DOCKED: BRANCH   1   2
DOCKED: ATOM      2  O   UNL     1     138.614  72.168 222.928 -0.06 +0.16    -0.494 OA 
DOCKED: ATOM      3  H   UNL     1     138.434  73.012 223.426 -0.39 -0.24    +0.295 HD 
DOCKED: ENDBRANCH   1   2
DOCKED: BRANCH   1   4
DOCKED: ATOM      4  C   UNL     1     140.878  71.788 222.231 -0.19 -0.01    +0.152 C  
DOCKED: BRANCH   4   5
DOCKED: ATOM      5  N   UNL     1     140.822  73.065 221.672 -0.15 +0.03    -0.322 N  
DOCKED: ATOM      6  C   UNL     1     140.771  74.257 221.150 -0.19 -0.05    +0.273 C  
DOCKED: ATOM      7  H   UNL     1     141.982  72.824 221.089 +0.06 -0.02    +0.169 HD 
DOCKED: ATOM      8  O   UNL     1     141.229  74.372 219.944 -0.08 +0.07    -0.267 OA 
DOCKED: BRANCH   6   9
DOCKED: ATOM      9  C   UNL     1     140.287  75.460 221.735 -0.28 -0.02    +0.129 A  
DOCKED: ATOM     10  N   UNL     1     141.086  76.423 222.185 -0.26 +0.09    -0.243 NA 
DOCKED: ATOM     11  C   UNL     1     138.898  75.638 221.768 -0.26 -0.01    +0.035 A  
DOCKED: ATOM     12  C   UNL     1     140.662  77.580 222.681 -0.39 -0.02    +0.071 A  
DOCKED: ATOM     13  C   UNL     1     138.392  76.807 222.266 -0.29 -0.00    +0.013 A  
DOCKED: ATOM     14  C   UNL     1     141.480  78.584 223.150 -0.54 -0.01    +0.032 A  
DOCKED: ATOM     15  C   UNL     1     139.290  77.747 222.709 -0.31 -0.00    +0.003 A  
DOCKED: ATOM     16  C   UNL     1     140.957  79.754 223.645 -0.50 -0.01    +0.041 A  
DOCKED: ATOM     17  C   UNL     1     138.805  78.915 223.205 -0.29 -0.01    +0.049 A  
DOCKED: ATOM     18  C   UNL     1     139.607  79.922 223.674 -0.36 -0.02    +0.123 A  
DOCKED: ATOM     19  F   UNL     1     139.105  81.076 224.162 -0.10 +0.02    -0.207 F  
DOCKED: ENDBRANCH   6   9
DOCKED: ENDBRANCH   4   5
DOCKED: ENDBRANCH   1   4
DOCKED: BRANCH   1  20
DOCKED: ATOM     20  N   UNL     1     139.928  70.335 223.732 -0.11 +0.06    -0.349 N  
DOCKED: ATOM     21  H   UNL     1     140.542  69.507 223.527 +0.07 -0.03    +0.164 HD 
DOCKED: BRANCH  20  22
DOCKED: ATOM     22  C   UNL     1     139.148  70.290 224.935 -0.33 -0.02    +0.109 C  
DOCKED: ATOM     23  C   UNL     1     138.708  68.881 225.257 -0.40 -0.00    +0.036 C  
DOCKED: BRANCH  22  24
DOCKED: ATOM     24  C   UNL     1     139.943  70.738 226.126 -0.49 +0.00    -0.026 A  
DOCKED: ATOM     25  C   UNL     1     140.702  71.883 226.122 -0.57 -0.00    +0.006 A  
DOCKED: ATOM     26  C   UNL     1     139.875  69.930 227.259 -0.56 -0.00    +0.006 A  
DOCKED: ATOM     27  C   UNL     1     141.430  72.294 227.226 -0.81 -0.00    +0.000 A  
DOCKED: ATOM     28  C   UNL     1     140.599  70.340 228.356 -0.55 -0.00    +0.000 A  
DOCKED: ATOM     29  C   UNL     1     141.366  71.500 228.348 -0.69 -0.00    +0.000 A  
DOCKED: ENDBRANCH  22  24
DOCKED: ENDBRANCH  20  22
DOCKED: ENDBRANCH   1  20
DOCKED: TORSDOF 7
DOCKED: TER
DOCKED: ENDMDL
________________________________________________________________________________


    FINAL DOCKED STATE:
    ________________________


Run:   18 / 20
Time taken for this run:   0.035s

DOCKED: MODEL        18
DOCKED: USER    Run = 18
DOCKED: USER
DOCKED: USER    Estimated Free Energy of Binding    =  -8.39 kcal/mol  [=(1)+(2)+(3)-(4)]
DOCKED: USER
DOCKED: USER    (1) Final Intermolecular Energy     = -10.48 kcal/mol
DOCKED: USER        vdW + Hbond + desolv Energy     = -10.34 kcal/mol
DOCKED: USER        Electrostatic Energy            =  -0.14 kcal/mol
DOCKED: USER        Moving Ligand-Fixed Receptor    = -10.48 kcal/mol
DOCKED: USER        Moving Ligand-Moving Receptor   =  +0.00 kcal/mol
DOCKED: USER    (2) Final Total Internal Energy     =  -1.41 kcal/mol
DOCKED: USER    (3) Torsional Free Energy           =  +2.09 kcal/mol
DOCKED: USER    (4) Unbound System's Energy         =  -1.41 kcal/mol
DOCKED: USER
DOCKED: USER
DOCKED: REMARK SMILES C[C@H](N/C(O)=C/NC(=O)c1ccc2cc(F)ccc2n1)c1ccccc1
DOCKED: REMARK SMILES IDX 4 1 5 2 6 4 7 5 8 6 9 8 10 9 20 10 11 11 19 12 12 13 18 14
DOCKED: REMARK SMILES IDX 13 15 17 16 14 17 15 18 16 19 3 20 2 22 1 23 21 24 22 25
DOCKED: REMARK SMILES IDX 26 26 23 27 25 28 24 29
DOCKED: REMARK H PARENT 5 3 7 7 3 21
DOCKED: USER                              x       y       z     vdW  Elec       q    Type
DOCKED: USER                           _______ _______ _______ _____ _____    ______ ____
DOCKED: ROOT
DOCKED: ATOM      1  C   UNL     1     140.812  74.102 221.632 -0.19 -0.02    +0.201 C  
DOCKED: ENDROOT
DOCKED: BRANCH   1   2
DOCKED: ATOM      2  O   UNL     1     139.762  74.656 222.332 -0.66 +0.04    -0.494 OA 
DOCKED: ATOM      3  H   UNL     1     139.159  74.164 222.954 -0.48 -0.11    +0.295 HD 
DOCKED: ENDBRANCH   1   2
DOCKED: BRANCH   1   4
DOCKED: ATOM      4  C   UNL     1     140.957  72.824 221.346 -0.21 -0.02    +0.152 C  
DOCKED: BRANCH   4   5
DOCKED: ATOM      5  N   UNL     1     140.075  71.997 222.045 -0.14 +0.05    -0.322 N  
DOCKED: ATOM      6  C   UNL     1     139.252  71.227 222.696 -0.17 -0.05    +0.273 C  
DOCKED: ATOM      7  H   UNL     1     139.121  72.881 221.818 +0.02 -0.04    +0.169 HD 
DOCKED: ATOM      8  O   UNL     1     138.043  71.168 222.238 -0.08 +0.06    -0.267 OA 
DOCKED: BRANCH   6   9
DOCKED: ATOM      9  C   UNL     1     139.502  70.446 223.858 -0.28 -0.02    +0.129 A  
DOCKED: ATOM     10  N   UNL     1     140.091  70.930 224.948 -0.29 +0.04    -0.243 NA 
DOCKED: ATOM     11  C   UNL     1     139.039  69.123 223.849 -0.28 -0.01    +0.035 A  
DOCKED: ATOM     12  C   UNL     1     140.283  70.240 226.067 -0.48 -0.01    +0.071 A  
DOCKED: ATOM     13  C   UNL     1     139.204  68.356 224.968 -0.42 -0.00    +0.013 A  
DOCKED: ATOM     14  C   UNL     1     140.891  70.732 227.201 -0.63 -0.01    +0.032 A  
DOCKED: ATOM     15  C   UNL     1     139.822  68.937 226.048 -0.51 -0.00    +0.003 A  
DOCKED: ATOM     16  C   UNL     1     141.048  69.949 228.319 -0.53 -0.01    +0.041 A  
DOCKED: ATOM     17  C   UNL     1     139.993  68.190 227.170 -0.62 -0.01    +0.049 A  
DOCKED: ATOM     18  C   UNL     1     140.595  68.666 228.305 -0.55 -0.03    +0.123 A  
DOCKED: ATOM     19  F   UNL     1     140.754  67.907 229.410 -0.13 +0.05    -0.207 F  
DOCKED: ENDBRANCH   6   9
DOCKED: ENDBRANCH   4   5
DOCKED: ENDBRANCH   1   4
DOCKED: BRANCH   1  20
DOCKED: ATOM     20  N   UNL     1     141.837  74.936 221.172 -0.15 +0.11    -0.349 N  
DOCKED: ATOM     21  H   UNL     1     142.206  75.785 221.670 -0.52 -0.11    +0.164 HD 
DOCKED: BRANCH  20  22
DOCKED: ATOM     22  C   UNL     1     142.436  74.607 219.911 -0.23 -0.04    +0.109 C  
DOCKED: ATOM     23  C   UNL     1     142.749  75.846 219.106 -0.29 -0.02    +0.036 C  
DOCKED: BRANCH  22  24
DOCKED: ATOM     24  C   UNL     1     143.751  73.908 220.090 -0.36 +0.01    -0.026 A  
DOCKED: ATOM     25  C   UNL     1     144.843  74.518 220.660 -0.42 -0.00    +0.006 A  
DOCKED: ATOM     26  C   UNL     1     143.820  72.588 219.648 -0.26 -0.00    +0.006 A  
DOCKED: ATOM     27  C   UNL     1     146.053  73.866 220.827 -0.68 -0.00    +0.000 A  
DOCKED: ATOM     28  C   UNL     1     145.024  71.942 219.815 -0.35 +0.00    +0.000 A  
DOCKED: ATOM     29  C   UNL     1     146.126  72.563 220.392 -0.46 +0.00    +0.000 A  
DOCKED: ENDBRANCH  22  24
DOCKED: ENDBRANCH  20  22
DOCKED: ENDBRANCH   1  20
DOCKED: TORSDOF 7
DOCKED: TER
DOCKED: ENDMDL
________________________________________________________________________________


    FINAL DOCKED STATE:
    ________________________


Run:   19 / 20
Time taken for this run:   0.035s

DOCKED: MODEL        19
DOCKED: USER    Run = 19
DOCKED: USER
DOCKED: USER    Estimated Free Energy of Binding    =  -8.40 kcal/mol  [=(1)+(2)+(3)-(4)]
DOCKED: USER
DOCKED: USER    (1) Final Intermolecular Energy     = -10.48 kcal/mol
DOCKED: USER        vdW + Hbond + desolv Energy     = -10.38 kcal/mol
DOCKED: USER        Electrostatic Energy            =  -0.11 kcal/mol
DOCKED: USER        Moving Ligand-Fixed Receptor    = -10.48 kcal/mol
DOCKED: USER        Moving Ligand-Moving Receptor   =  +0.00 kcal/mol
DOCKED: USER    (2) Final Total Internal Energy     =  -1.45 kcal/mol
DOCKED: USER    (3) Torsional Free Energy           =  +2.09 kcal/mol
DOCKED: USER    (4) Unbound System's Energy         =  -1.45 kcal/mol
DOCKED: USER
DOCKED: USER
DOCKED: REMARK SMILES C[C@H](N/C(O)=C/NC(=O)c1ccc2cc(F)ccc2n1)c1ccccc1
DOCKED: REMARK SMILES IDX 4 1 5 2 6 4 7 5 8 6 9 8 10 9 20 10 11 11 19 12 12 13 18 14
DOCKED: REMARK SMILES IDX 13 15 17 16 14 17 15 18 16 19 3 20 2 22 1 23 21 24 22 25
DOCKED: REMARK SMILES IDX 26 26 23 27 25 28 24 29
DOCKED: REMARK H PARENT 5 3 7 7 3 21
DOCKED: USER                              x       y       z     vdW  Elec       q    Type
DOCKED: USER                           _______ _______ _______ _____ _____    ______ ____
DOCKED: ROOT
DOCKED: ATOM      1  C   UNL     1     140.595  74.608 221.581 -0.24 -0.03    +0.201 C  
DOCKED: ENDROOT
DOCKED: BRANCH   1   2
DOCKED: ATOM      2  O   UNL     1     139.585  75.231 222.283 -0.51 +0.07    -0.494 OA 
DOCKED: ATOM      3  H   UNL     1     139.134  74.866 223.092 -0.47 -0.09    +0.295 HD 
DOCKED: ENDBRANCH   1   2
DOCKED: BRANCH   1   4
DOCKED: ATOM      4  C   UNL     1     140.597  73.349 221.191 -0.21 -0.02    +0.152 C  
DOCKED: BRANCH   4   5
DOCKED: ATOM      5  N   UNL     1     139.889  72.504 222.047 -0.15 +0.05    -0.322 N  
DOCKED: ATOM      6  C   UNL     1     139.228  71.715 222.845 -0.18 -0.06    +0.273 C  
DOCKED: ATOM      7  H   UNL     1     138.800  73.198 221.777 +0.01 -0.04    +0.169 HD 
DOCKED: ATOM      8  O   UNL     1     138.022  71.418 222.482 -0.10 +0.06    -0.267 OA 
DOCKED: BRANCH   6   9
DOCKED: ATOM      9  C   UNL     1     139.653  71.144 224.076 -0.34 -0.03    +0.129 A  
DOCKED: ATOM     10  N   UNL     1     139.268  69.940 224.491 -0.19 +0.04    -0.243 NA 
DOCKED: ATOM     11  C   UNL     1     140.569  71.881 224.839 -0.35 -0.01    +0.035 A  
DOCKED: ATOM     12  C   UNL     1     139.696  69.358 225.606 -0.40 -0.01    +0.071 A  
DOCKED: ATOM     13  C   UNL     1     141.050  71.341 225.999 -0.64 -0.00    +0.013 A  
DOCKED: ATOM     14  C   UNL     1     139.304  68.112 226.044 -0.54 -0.00    +0.032 A  
DOCKED: ATOM     15  C   UNL     1     140.599  70.092 226.351 -0.55 -0.00    +0.003 A  
DOCKED: ATOM     16  C   UNL     1     139.799  67.582 227.211 -0.43 -0.01    +0.041 A  
DOCKED: ATOM     17  C   UNL     1     141.068  69.540 227.500 -0.54 -0.01    +0.049 A  
DOCKED: ATOM     18  C   UNL     1     140.689  68.302 227.947 -0.56 -0.03    +0.123 A  
DOCKED: ATOM     19  F   UNL     1     141.168  67.770 229.092 -0.19 +0.06    -0.207 F  
DOCKED: ENDBRANCH   6   9
DOCKED: ENDBRANCH   4   5
DOCKED: ENDBRANCH   1   4
DOCKED: BRANCH   1  20
DOCKED: ATOM     20  N   UNL     1     141.736  75.340 221.238 -0.14 +0.13    -0.349 N  
DOCKED: ATOM     21  H   UNL     1     142.171  76.103 221.816 -0.52 -0.13    +0.164 HD 
DOCKED: BRANCH  20  22
DOCKED: ATOM     22  C   UNL     1     142.368  75.026 219.989 -0.24 -0.04    +0.109 C  
DOCKED: ATOM     23  C   UNL     1     142.796  76.275 219.255 -0.33 -0.02    +0.036 C  
DOCKED: BRANCH  22  24
DOCKED: ATOM     24  C   UNL     1     143.627  74.235 220.190 -0.37 +0.01    -0.026 A  
DOCKED: ATOM     25  C   UNL     1     144.830  74.823 220.500 -0.36 -0.00    +0.006 A  
DOCKED: ATOM     26  C   UNL     1     143.523  72.853 220.050 -0.29 -0.00    +0.006 A  
DOCKED: ATOM     27  C   UNL     1     145.987  74.088 220.689 -0.61 -0.00    +0.000 A  
DOCKED: ATOM     28  C   UNL     1     144.675  72.123 220.239 -0.36 -0.00    +0.000 A  
DOCKED: ATOM     29  C   UNL     1     145.890  72.722 220.552 -0.56 +0.00    +0.000 A  
DOCKED: ENDBRANCH  22  24
DOCKED: ENDBRANCH  20  22
DOCKED: ENDBRANCH   1  20
DOCKED: TORSDOF 7
DOCKED: TER
DOCKED: ENDMDL
________________________________________________________________________________


    FINAL DOCKED STATE:
    ________________________


Run:   20 / 20
Time taken for this run:   0.035s

DOCKED: MODEL        20
DOCKED: USER    Run = 20
DOCKED: USER
DOCKED: USER    Estimated Free Energy of Binding    =  -8.42 kcal/mol  [=(1)+(2)+(3)-(4)]
DOCKED: USER
DOCKED: USER    (1) Final Intermolecular Energy     = -10.51 kcal/mol
DOCKED: USER        vdW + Hbond + desolv Energy     = -10.37 kcal/mol
DOCKED: USER        Electrostatic Energy            =  -0.14 kcal/mol
DOCKED: USER        Moving Ligand-Fixed Receptor    = -10.51 kcal/mol
DOCKED: USER        Moving Ligand-Moving Receptor   =  +0.00 kcal/mol
DOCKED: USER    (2) Final Total Internal Energy     =  -1.29 kcal/mol
DOCKED: USER    (3) Torsional Free Energy           =  +2.09 kcal/mol
DOCKED: USER    (4) Unbound System's Energy         =  -1.29 kcal/mol
DOCKED: USER
DOCKED: USER
DOCKED: REMARK SMILES C[C@H](N/C(O)=C/NC(=O)c1ccc2cc(F)ccc2n1)c1ccccc1
DOCKED: REMARK SMILES IDX 4 1 5 2 6 4 7 5 8 6 9 8 10 9 20 10 11 11 19 12 12 13 18 14
DOCKED: REMARK SMILES IDX 13 15 17 16 14 17 15 18 16 19 3 20 2 22 1 23 21 24 22 25
DOCKED: REMARK SMILES IDX 26 26 23 27 25 28 24 29
DOCKED: REMARK H PARENT 5 3 7 7 3 21
DOCKED: USER                              x       y       z     vdW  Elec       q    Type
DOCKED: USER                           _______ _______ _______ _____ _____    ______ ____
DOCKED: ROOT
DOCKED: ATOM      1  C   UNL     1     140.352  74.966 221.903 -0.14 -0.02    +0.201 C  
DOCKED: ENDROOT
DOCKED: BRANCH   1   2
DOCKED: ATOM      2  O   UNL     1     139.308  75.399 222.692 -0.38 +0.09    -0.494 OA 
DOCKED: ATOM      3  H   UNL     1     138.600  74.817 223.082 -0.46 -0.15    +0.295 HD 
DOCKED: ENDBRANCH   1   2
DOCKED: BRANCH   1   4
DOCKED: ATOM      4  C   UNL     1     140.446  73.781 221.334 -0.22 -0.02    +0.152 C  
DOCKED: BRANCH   4   5
DOCKED: ATOM      5  N   UNL     1     139.709  72.793 221.988 -0.15 +0.06    -0.322 N  
DOCKED: ATOM      6  C   UNL     1     139.020  71.872 222.597 -0.16 -0.07    +0.273 C  
DOCKED: ATOM      7  H   UNL     1     138.632  73.540 221.829 -0.01 -0.05    +0.169 HD 
DOCKED: ATOM      8  O   UNL     1     137.823  71.665 222.150 -0.08 +0.06    -0.267 OA 
DOCKED: BRANCH   6   9
DOCKED: ATOM      9  C   UNL     1     139.405  71.065 223.704 -0.30 -0.03    +0.129 A  
DOCKED: ATOM     10  N   UNL     1     139.931  71.562 224.819 -0.26 +0.05    -0.243 NA 
DOCKED: ATOM     11  C   UNL     1     139.147  69.691 223.611 -0.26 -0.01    +0.035 A  
DOCKED: ATOM     12  C   UNL     1     140.244  70.840 225.890 -0.51 -0.01    +0.071 A  
DOCKED: ATOM     13  C   UNL     1     139.444  68.887 224.676 -0.35 -0.00    +0.013 A  
DOCKED: ATOM     14  C   UNL     1     140.789  71.345 227.049 -0.70 -0.01    +0.032 A  
DOCKED: ATOM     15  C   UNL     1     139.985  69.486 225.788 -0.47 -0.00    +0.003 A  
DOCKED: ATOM     16  C   UNL     1     141.081  70.525 228.112 -0.58 -0.01    +0.041 A  
DOCKED: ATOM     17  C   UNL     1     140.286  68.703 226.857 -0.58 -0.01    +0.049 A  
DOCKED: ATOM     18  C   UNL     1     140.827  69.191 228.016 -0.52 -0.03    +0.123 A  
DOCKED: ATOM     19  F   UNL     1     141.118  68.396 229.069 -0.17 +0.05    -0.207 F  
DOCKED: ENDBRANCH   6   9
DOCKED: ENDBRANCH   4   5
DOCKED: ENDBRANCH   1   4
DOCKED: BRANCH   1  20
DOCKED: ATOM     20  N   UNL     1     141.427  75.829 221.665 -0.14 +0.14    -0.349 N  
DOCKED: ATOM     21  H   UNL     1     142.427  75.650 221.938 -0.50 -0.13    +0.164 HD 
DOCKED: BRANCH  20  22
DOCKED: ATOM     22  C   UNL     1     141.144  77.064 220.994 -0.26 -0.05    +0.109 C  
DOCKED: ATOM     23  C   UNL     1     139.672  77.198 220.679 -0.15 -0.01    +0.036 C  
DOCKED: BRANCH  22  24
DOCKED: ATOM     24  C   UNL     1     141.474  78.249 221.853 -0.38 +0.01    -0.026 A  
DOCKED: ATOM     25  C   UNL     1     141.442  78.200 223.226 -0.52 -0.00    +0.006 A  
DOCKED: ATOM     26  C   UNL     1     141.824  79.421 221.188 -0.38 -0.00    +0.006 A  
DOCKED: ATOM     27  C   UNL     1     141.752  79.295 224.014 -0.59 -0.00    +0.000 A  
DOCKED: ATOM     28  C   UNL     1     142.133  80.510 221.973 -0.50 -0.00    +0.000 A  
DOCKED: ATOM     29  C   UNL     1     142.099  80.456 223.362 -0.63 -0.00    +0.000 A  
DOCKED: ENDBRANCH  22  24
DOCKED: ENDBRANCH  20  22
DOCKED: ENDBRANCH   1  20
DOCKED: TORSDOF 7
DOCKED: TER
DOCKED: ENDMDL
________________________________________________________________________________


    CLUSTERING HISTOGRAM
    ____________________


________________________________________________________________________________
     |           |     |           |     |
Clus | Lowest    | Run | Mean      | Num | Histogram
-ter | Binding   |     | Binding   | in  |
Rank | Energy    |     | Energy    | Clus|    5    10   15   20   25   30   35
_____|___________|_____|___________|_____|____:____|____:____|____:____|____:___
   1 |     -8.53 |  14 |     -8.41 |   9 |#########
   2 |     -8.52 |   4 |     -8.33 |  10 |##########
   3 |     -7.29 |  17 |     -7.29 |   1 |#
_____|___________|_____|___________|_____|______________________________________


    RMSD TABLE
    __________


_______________________________________________________________________
     |      |      |           |         |                 |
Rank | Sub- | Run  | Binding   | Cluster | Reference       | Grep
     | Rank |      | Energy    | RMSD    | RMSD            | Pattern
_____|______|______|___________|_________|_________________|___________
   1      1     14       -8.53      0.00    270.84           RANKING
   1      2      8       -8.48      0.14    270.79           RANKING
   1      3     11       -8.44      0.14    270.78           RANKING
   1      4     12       -8.44      0.21    270.77           RANKING
   1      5     19       -8.40      0.68    270.83           RANKING
   1      6     18       -8.39      0.33    270.76           RANKING
   1      7      6       -8.36      0.67    270.84           RANKING
   1      8      3       -8.35      0.36    270.72           RANKING
   1      9     16       -8.34      0.30    270.69           RANKING
   2      1      4       -8.52      0.00    271.35           RANKING
   2      2     10       -8.49      0.06    271.33           RANKING
   2      3      9       -8.48      1.00    271.29           RANKING
   2      4     13       -8.45      1.00    271.26           RANKING
   2      5     15       -8.43      0.11    271.34           RANKING
   2      6     20       -8.42      0.97    271.23           RANKING
   2      7      7       -8.41      0.85    271.20           RANKING
   2      8      2       -8.39      0.87    271.26           RANKING
   2      9      5       -7.87      1.34    271.11           RANKING
   2     10      1       -7.83      1.27    271.07           RANKING
   3      1     17       -7.29      0.00    271.18           RANKING

Run time 0.669 sec
Idle time 0.000 sec
