AutoDock-GPU version: v1.6

**********************************************************
**    AutoDock-GPU AUTODOCKTOOLS-COMPATIBLE DLG FILE    **
**********************************************************


    DOCKING PARAMETERS
    ________________________


Ligand file:                               /home/a/REINVENT4/ReinventStudies/pleaseWork/justmol2mol_4_Compounds_ontop/graph-dock-8u2o5u/graph-DockGPU/node-autodockgpu/inputs/IXVBDBLKMFOQLF-LIPOYEMINA-N.pdbqt
Grid fld file:                             /home/a/REINVENT4/ReinventStudies/mols/Rad51/maps/rad51_receptor.maps.fld

Random seed:                               42
Number of runs:                            20
Number of energy evaluations:              2542121
Number of generations:                     42000
Size of population:                        150
Rate of crossover:                         80.000000%
Tournament selection probability limit:    60.000000%
Rate of mutation:                          2.000000%
Maximal allowed delta movement:            +/- 6.000000A
Maximal allowed delta angle:               +/- 90.000000

Rate of local search:                      100.000000%
Maximal number of local search iterations: 300
Rho lower bound:                           0.010000
Spread of local search delta movement:     2.000000A
Spread of local search delta angle:        74.999999
Limit of consecutive successes/failures:   4

Handle symmetry during clustering:         YES
RMSD tolerance:                            2.000000A

Program call in command line was:          /home/a/REINVENT4/ReinventStudies/adgpu-v1.6_linux_x64_cuda12_128wi --filelist batch.txt --heuristics 1 --nrun 20 --psize 150 --lsit 300 --seed 42 --heurmax 12000000 


    GRID PARAMETERS
    ________________________


Receptor name:                             rad51_receptor
Number of grid points (x, y, z):           53, 53, 53
Grid center (x, y, z):                     139.950000, 75.640000, 221.970000A
Grid size (x, y, z):                       19.500000, 19.500000, 19.500000A
Grid spacing:                              0.375000A


    LIGAND PARAMETERS
    ________________________


Ligand name:                               /home/a/REINVENT4/ReinventStudies/pleaseWork/justmol2mol_4_Compounds_ontop/graph-dock-8u2o5u/graph-DockGPU/node-autodockgpu/inputs/IXVBDBLKMFOQLF-LIPOYEMINA-N
Number of atoms:                           33
Number of rotatable bonds:                 10
Number of atom types:                      7


    DUMMY DATA (only for ADT-compatibility)
    ________________________


DPF> outlev 1
DPF> ga_run 20
DPF> fld /home/a/REINVENT4/ReinventStudies/mols/Rad51/maps/rad51_receptor.maps.fld
DPF> move /home/a/REINVENT4/ReinventStudies/pleaseWork/justmol2mol_4_Compounds_ontop/graph-dock-8u2o5u/graph-DockGPU/node-autodockgpu/inputs/IXVBDBLKMFOQLF-LIPOYEMINA-N.pdbqt


    COUNTER STATES
    ________________________


Number of energy evaluations performed:    1530587
Number of generations used:                95


    INPUT LIGAND PDBQT FILE:
    ________________________


INPUT-LIGAND-PDBQT: REMARK SMILES O/C(=C\N=C(\O)c1ccc2cc(Cl)ccc2n1)N1CC[C@H](O)[C@H]1Cc1ccccc1
INPUT-LIGAND-PDBQT: REMARK SMILES IDX 3 1 2 2 1 3 18 5 19 6 23 7 20 8 21 9 24 10 25 11 26 12 30 13
INPUT-LIGAND-PDBQT: REMARK SMILES IDX 27 14 29 15 28 16 22 17 4 19 5 20 6 21 7 23 17 24 8 25 16 26
INPUT-LIGAND-PDBQT: REMARK SMILES IDX 9 27 15 28 10 29 14 30 11 31 12 32 13 33
INPUT-LIGAND-PDBQT: REMARK H PARENT 1 4 22 18 6 22
INPUT-LIGAND-PDBQT: ROOT
INPUT-LIGAND-PDBQT: ATOM      1  C   UNL     1       1.569  -0.658  -0.062  1.00  0.00     0.181 C 
INPUT-LIGAND-PDBQT: ENDROOT
INPUT-LIGAND-PDBQT: BRANCH   1   2
INPUT-LIGAND-PDBQT: ATOM      2  C   UNL     1       2.119  -0.322  -1.239  1.00  0.00     0.206 C 
INPUT-LIGAND-PDBQT: BRANCH   2   3
INPUT-LIGAND-PDBQT: ATOM      3  O   UNL     1       2.967  -1.208  -1.910  1.00  0.00    -0.494 OA
INPUT-LIGAND-PDBQT: ATOM      4  H   UNL     1       3.200  -2.128  -1.554  1.00  0.00     0.295 HD
INPUT-LIGAND-PDBQT: ENDBRANCH   2   3
INPUT-LIGAND-PDBQT: BRANCH   2   5
INPUT-LIGAND-PDBQT: ATOM      5  N   UNL     1       1.860   0.960  -1.839  1.00  0.00    -0.336 N 
INPUT-LIGAND-PDBQT: ATOM      6  C   UNL     1       2.888   1.671  -2.582  1.00  0.00     0.123 C 
INPUT-LIGAND-PDBQT: ATOM      7  C   UNL     1       0.578   1.664  -1.829  1.00  0.00     0.118 C 
INPUT-LIGAND-PDBQT: ATOM      8  C   UNL     1       2.222   2.934  -3.115  1.00  0.00     0.055 C 
INPUT-LIGAND-PDBQT: ATOM      9  C   UNL     1       0.918   3.082  -2.323  1.00  0.00     0.139 C 
INPUT-LIGAND-PDBQT: BRANCH   7  10
INPUT-LIGAND-PDBQT: ATOM     10  C   UNL     1      -0.433   0.978  -2.778  1.00  0.00     0.063 C 
INPUT-LIGAND-PDBQT: BRANCH  10  11
INPUT-LIGAND-PDBQT: ATOM     11  C   UNL     1      -0.900  -0.353  -2.247  1.00  0.00    -0.046 A 
INPUT-LIGAND-PDBQT: ATOM     12  C   UNL     1      -0.389  -1.553  -2.770  1.00  0.00     0.004 A 
INPUT-LIGAND-PDBQT: ATOM     13  C   UNL     1      -1.824  -0.402  -1.191  1.00  0.00     0.004 A 
INPUT-LIGAND-PDBQT: ATOM     14  C   UNL     1      -0.781  -2.781  -2.227  1.00  0.00     0.000 A 
INPUT-LIGAND-PDBQT: ATOM     15  C   UNL     1      -2.216  -1.631  -0.652  1.00  0.00     0.000 A 
INPUT-LIGAND-PDBQT: ATOM     16  C   UNL     1      -1.691  -2.820  -1.167  1.00  0.00     0.000 A 
INPUT-LIGAND-PDBQT: ENDBRANCH  10  11
INPUT-LIGAND-PDBQT: ENDBRANCH   7  10
INPUT-LIGAND-PDBQT: BRANCH   9  17
INPUT-LIGAND-PDBQT: ATOM     17  O   UNL     1       1.090   3.964  -1.240  1.00  0.00    -0.391 OA
INPUT-LIGAND-PDBQT: ATOM     18  H   UNL     1       1.813   3.602  -0.660  1.00  0.00     0.211 HD
INPUT-LIGAND-PDBQT: ENDBRANCH   9  17
INPUT-LIGAND-PDBQT: ENDBRANCH   2   5
INPUT-LIGAND-PDBQT: ENDBRANCH   1   2
INPUT-LIGAND-PDBQT: BRANCH   1  19
INPUT-LIGAND-PDBQT: ATOM     19  N   UNL     1       1.773  -1.968   0.484  1.00  0.00    -0.215 NA
INPUT-LIGAND-PDBQT: BRANCH  19  20
INPUT-LIGAND-PDBQT: ATOM     20  C   UNL     1       1.372  -2.432   1.635  1.00  0.00     0.237 C 
INPUT-LIGAND-PDBQT: BRANCH  20  21
INPUT-LIGAND-PDBQT: ATOM     21  O   UNL     1       1.732  -3.731   1.987  1.00  0.00    -0.492 OA
INPUT-LIGAND-PDBQT: ATOM     22  H   UNL     1       2.283  -4.310   1.364  1.00  0.00     0.295 HD
INPUT-LIGAND-PDBQT: ENDBRANCH  20  21
INPUT-LIGAND-PDBQT: BRANCH  20  23
INPUT-LIGAND-PDBQT: ATOM     23  C   UNL     1       0.578  -1.647   2.608  1.00  0.00     0.126 A 
INPUT-LIGAND-PDBQT: ATOM     24  N   UNL     1      -0.455  -0.860   2.196  1.00  0.00    -0.243 NA
INPUT-LIGAND-PDBQT: ATOM     25  C   UNL     1       0.840  -1.781   3.980  1.00  0.00     0.035 A 
INPUT-LIGAND-PDBQT: ATOM     26  C   UNL     1      -1.226  -0.163   3.075  1.00  0.00     0.071 A 
INPUT-LIGAND-PDBQT: ATOM     27  C   UNL     1       0.068  -1.078   4.906  1.00  0.00     0.013 A 
INPUT-LIGAND-PDBQT: ATOM     28  C   UNL     1      -2.268   0.647   2.611  1.00  0.00     0.030 A 
INPUT-LIGAND-PDBQT: ATOM     29  C   UNL     1      -0.974  -0.256   4.462  1.00  0.00     0.002 A 
INPUT-LIGAND-PDBQT: ATOM     30  C   UNL     1      -3.055   1.365   3.517  1.00  0.00     0.023 A 
INPUT-LIGAND-PDBQT: ATOM     31  C   UNL     1      -1.767   0.467   5.365  1.00  0.00     0.030 A 
INPUT-LIGAND-PDBQT: ATOM     32  C   UNL     1      -2.805   1.277   4.891  1.00  0.00     0.041 A 
INPUT-LIGAND-PDBQT: ATOM     33  Cl  UNL     1      -3.793   2.184   6.021  1.00  0.00    -0.084 Cl
INPUT-LIGAND-PDBQT: ENDBRANCH  20  23
INPUT-LIGAND-PDBQT: ENDBRANCH  19  20
INPUT-LIGAND-PDBQT: ENDBRANCH   1  19
INPUT-LIGAND-PDBQT: TORSDOF 10


    FINAL DOCKED STATE:
    ________________________


Run:   1 / 20
Time taken for this run:   0.073s

DOCKED: MODEL        1
DOCKED: USER    Run = 1
DOCKED: USER
DOCKED: USER    Estimated Free Energy of Binding    =  -7.74 kcal/mol  [=(1)+(2)+(3)-(4)]
DOCKED: USER
DOCKED: USER    (1) Final Intermolecular Energy     = -10.73 kcal/mol
DOCKED: USER        vdW + Hbond + desolv Energy     = -10.59 kcal/mol
DOCKED: USER        Electrostatic Energy            =  -0.14 kcal/mol
DOCKED: USER        Moving Ligand-Fixed Receptor    = -10.73 kcal/mol
DOCKED: USER        Moving Ligand-Moving Receptor   =  +0.00 kcal/mol
DOCKED: USER    (2) Final Total Internal Energy     =  -2.49 kcal/mol
DOCKED: USER    (3) Torsional Free Energy           =  +2.98 kcal/mol
DOCKED: USER    (4) Unbound System's Energy         =  -2.49 kcal/mol
DOCKED: USER
DOCKED: USER
DOCKED: REMARK SMILES O/C(=C\N=C(\O)c1ccc2cc(Cl)ccc2n1)N1CC[C@H](O)[C@H]1Cc1ccccc1
DOCKED: REMARK SMILES IDX 3 1 2 2 1 3 18 5 19 6 23 7 20 8 21 9 24 10 25 11 26 12 30 13
DOCKED: REMARK SMILES IDX 27 14 29 15 28 16 22 17 4 19 5 20 6 21 7 23 17 24 8 25 16 26
DOCKED: REMARK SMILES IDX 9 27 15 28 10 29 14 30 11 31 12 32 13 33
DOCKED: REMARK H PARENT 1 4 22 18 6 22
DOCKED: USER                              x       y       z     vdW  Elec       q    Type
DOCKED: USER                           _______ _______ _______ _____ _____    ______ ____
DOCKED: ROOT
DOCKED: ATOM      1  C   UNL     1     140.933  71.984 221.460 -0.18 -0.02    +0.181 C  
DOCKED: ENDROOT
DOCKED: BRANCH   1   2
DOCKED: ATOM      2  C   UNL     1     140.236  70.840 221.380 -0.10 -0.03    +0.206 C  
DOCKED: BRANCH   2   3
DOCKED: ATOM      3  O   UNL     1     140.656  69.804 220.540 -0.03 +0.08    -0.494 OA 
DOCKED: ATOM      4  H   UNL     1     140.669  69.882 219.529 +0.05 -0.05    +0.295 HD 
DOCKED: ENDBRANCH   2   3
DOCKED: BRANCH   2   5
DOCKED: ATOM      5  N   UNL     1     139.033  70.649 222.147 -0.06 +0.06    -0.336 N  
DOCKED: ATOM      6  C   UNL     1     137.834  70.084 221.550 -0.07 -0.02    +0.123 C  
DOCKED: ATOM      7  C   UNL     1     138.876  70.934 223.573 -0.26 -0.03    +0.118 C  
DOCKED: ATOM      8  C   UNL     1     136.815  69.975 222.678 -0.12 -0.01    +0.055 C  
DOCKED: ATOM      9  C   UNL     1     137.358  70.850 223.814 -0.19 -0.03    +0.139 C  
DOCKED: BRANCH   7  10
DOCKED: ATOM     10  C   UNL     1     139.629  69.888 224.429 -0.33 -0.01    +0.063 C  
DOCKED: BRANCH  10  11
DOCKED: ATOM     11  C   UNL     1     140.153  70.474 225.714 -0.49 +0.01    -0.046 A  
DOCKED: ATOM     12  C   UNL     1     140.963  71.623 225.701 -0.58 -0.00    +0.004 A  
DOCKED: ATOM     13  C   UNL     1     139.801  69.896 226.945 -0.53 -0.00    +0.004 A  
DOCKED: ATOM     14  C   UNL     1     141.392  72.196 226.903 -0.75 -0.00    +0.000 A  
DOCKED: ATOM     15  C   UNL     1     140.233  70.470 228.144 -0.63 -0.00    +0.000 A  
DOCKED: ATOM     16  C   UNL     1     141.025  71.622 228.123 -0.80 -0.00    +0.000 A  
DOCKED: ENDBRANCH  10  11
DOCKED: ENDBRANCH   7  10
DOCKED: BRANCH   9  17
DOCKED: ATOM     17  O   UNL     1     136.772  72.129 223.782 -0.09 +0.12    -0.391 OA 
DOCKED: ATOM     18  H   UNL     1     137.502  72.800 223.700 -0.46 -0.15    +0.211 HD 
DOCKED: ENDBRANCH   9  17
DOCKED: ENDBRANCH   2   5
DOCKED: ENDBRANCH   1   2
DOCKED: BRANCH   1  19
DOCKED: ATOM     19  N   UNL     1     140.488  73.043 222.318 -0.65 +0.01    -0.215 NA 
DOCKED: BRANCH  19  20
DOCKED: ATOM     20  C   UNL     1     139.679  74.025 222.032 -0.11 -0.03    +0.237 C  
DOCKED: BRANCH  20  21
DOCKED: ATOM     21  O   UNL     1     138.316  73.755 221.937 -0.09 +0.15    -0.492 OA 
DOCKED: ATOM     22  H   UNL     1     137.714  73.800 222.751 -0.46 -0.15    +0.295 HD 
DOCKED: ENDBRANCH  20  21
DOCKED: BRANCH  20  23
DOCKED: ATOM     23  C   UNL     1     140.122  75.424 221.829 -0.28 -0.02    +0.126 A  
DOCKED: ATOM     24  N   UNL     1     139.631  76.433 222.602 -0.24 +0.04    -0.243 NA 
DOCKED: ATOM     25  C   UNL     1     141.123  75.701 220.886 -0.28 -0.01    +0.035 A  
DOCKED: ATOM     26  C   UNL     1     140.054  77.719 222.463 -0.34 -0.02    +0.071 A  
DOCKED: ATOM     27  C   UNL     1     141.577  77.010 220.719 -0.28 -0.01    +0.013 A  
DOCKED: ATOM     28  C   UNL     1     139.513  78.730 223.265 -0.31 -0.00    +0.030 A  
DOCKED: ATOM     29  C   UNL     1     141.043  78.037 221.506 -0.35 -0.00    +0.002 A  
DOCKED: ATOM     30  C   UNL     1     139.947  80.051 223.117 -0.39 -0.00    +0.023 A  
DOCKED: ATOM     31  C   UNL     1     141.473  79.364 221.362 -0.36 -0.01    +0.030 A  
DOCKED: ATOM     32  C   UNL     1     140.924  80.369 222.167 -0.36 -0.01    +0.041 A  
DOCKED: ATOM     33  Cl  UNL     1     141.460  82.028 221.983 -0.47 +0.01    -0.084 Cl 
DOCKED: ENDBRANCH  20  23
DOCKED: ENDBRANCH  19  20
DOCKED: ENDBRANCH   1  19
DOCKED: TORSDOF 10
DOCKED: TER
DOCKED: ENDMDL
________________________________________________________________________________


    FINAL DOCKED STATE:
    ________________________


Run:   2 / 20
Time taken for this run:   0.073s

DOCKED: MODEL        2
DOCKED: USER    Run = 2
DOCKED: USER
DOCKED: USER    Estimated Free Energy of Binding    =  -8.97 kcal/mol  [=(1)+(2)+(3)-(4)]
DOCKED: USER
DOCKED: USER    (1) Final Intermolecular Energy     = -11.95 kcal/mol
DOCKED: USER        vdW + Hbond + desolv Energy     = -11.76 kcal/mol
DOCKED: USER        Electrostatic Energy            =  -0.20 kcal/mol
DOCKED: USER        Moving Ligand-Fixed Receptor    = -11.95 kcal/mol
DOCKED: USER        Moving Ligand-Moving Receptor   =  +0.00 kcal/mol
DOCKED: USER    (2) Final Total Internal Energy     =  -2.24 kcal/mol
DOCKED: USER    (3) Torsional Free Energy           =  +2.98 kcal/mol
DOCKED: USER    (4) Unbound System's Energy         =  -2.24 kcal/mol
DOCKED: USER
DOCKED: USER
DOCKED: REMARK SMILES O/C(=C\N=C(\O)c1ccc2cc(Cl)ccc2n1)N1CC[C@H](O)[C@H]1Cc1ccccc1
DOCKED: REMARK SMILES IDX 3 1 2 2 1 3 18 5 19 6 23 7 20 8 21 9 24 10 25 11 26 12 30 13
DOCKED: REMARK SMILES IDX 27 14 29 15 28 16 22 17 4 19 5 20 6 21 7 23 17 24 8 25 16 26
DOCKED: REMARK SMILES IDX 9 27 15 28 10 29 14 30 11 31 12 32 13 33
DOCKED: REMARK H PARENT 1 4 22 18 6 22
DOCKED: USER                              x       y       z     vdW  Elec       q    Type
DOCKED: USER                           _______ _______ _______ _____ _____    ______ ____
DOCKED: ROOT
DOCKED: ATOM      1  C   UNL     1     140.275  73.034 220.907 -0.15 -0.03    +0.181 C  
DOCKED: ENDROOT
DOCKED: BRANCH   1   2
DOCKED: ATOM      2  C   UNL     1     140.110  74.322 221.245 -0.20 -0.04    +0.206 C  
DOCKED: BRANCH   2   3
DOCKED: ATOM      3  O   UNL     1     139.341  74.676 222.357 -0.57 +0.09    -0.494 OA 
DOCKED: ATOM      4  H   UNL     1     139.080  74.017 223.082 -0.49 -0.14    +0.295 HD 
DOCKED: ENDBRANCH   2   3
DOCKED: BRANCH   2   5
DOCKED: ATOM      5  N   UNL     1     140.712  75.374 220.469 -0.07 +0.10    -0.336 N  
DOCKED: ATOM      6  C   UNL     1     140.602  75.406 219.020 -0.06 -0.04    +0.123 C  
DOCKED: ATOM      7  C   UNL     1     141.435  76.526 221.008 -0.22 -0.06    +0.118 C  
DOCKED: ATOM      8  C   UNL     1     141.294  76.688 218.574 -0.12 -0.02    +0.055 C  
DOCKED: ATOM      9  C   UNL     1     142.116  77.157 219.780 -0.26 -0.08    +0.139 C  
DOCKED: BRANCH   7  10
DOCKED: ATOM     10  C   UNL     1     140.458  77.526 221.671 -0.31 -0.02    +0.063 C  
DOCKED: BRANCH  10  11
DOCKED: ATOM     11  C   UNL     1     141.173  78.720 222.251 -0.40 +0.02    -0.046 A  
DOCKED: ATOM     12  C   UNL     1     141.328  79.897 221.499 -0.37 -0.00    +0.004 A  
DOCKED: ATOM     13  C   UNL     1     141.654  78.678 223.569 -0.60 -0.00    +0.004 A  
DOCKED: ATOM     14  C   UNL     1     141.936  81.021 222.069 -0.48 -0.00    +0.000 A  
DOCKED: ATOM     15  C   UNL     1     142.263  79.802 224.135 -0.51 -0.00    +0.000 A  
DOCKED: ATOM     16  C   UNL     1     142.400  80.974 223.386 -0.63 -0.00    +0.000 A  
DOCKED: ENDBRANCH  10  11
DOCKED: ENDBRANCH   7  10
DOCKED: BRANCH   9  17
DOCKED: ATOM     17  O   UNL     1     143.451  76.727 219.670 -0.26 +0.31    -0.391 OA 
DOCKED: ATOM     18  H   UNL     1     144.034  77.429 220.067 -0.49 -0.27    +0.211 HD 
DOCKED: ENDBRANCH   9  17
DOCKED: ENDBRANCH   2   5
DOCKED: ENDBRANCH   1   2
DOCKED: BRANCH   1  19
DOCKED: ATOM     19  N   UNL     1     139.291  72.058 221.274 -0.08 +0.04    -0.215 NA 
DOCKED: BRANCH  19  20
DOCKED: ATOM     20  C   UNL     1     138.665  71.933 222.411 -0.14 -0.06    +0.237 C  
DOCKED: BRANCH  20  21
DOCKED: ATOM     21  O   UNL     1     137.497  72.665 222.608 -0.04 +0.17    -0.492 OA 
DOCKED: ATOM     22  H   UNL     1     137.526  73.618 222.952 -0.42 -0.17    +0.295 HD 
DOCKED: ENDBRANCH  20  21
DOCKED: BRANCH  20  23
DOCKED: ATOM     23  C   UNL     1     139.109  71.033 223.501 -0.26 -0.03    +0.126 A  
DOCKED: ATOM     24  N   UNL     1     139.709  71.530 224.618 -0.25 +0.06    -0.243 NA 
DOCKED: ATOM     25  C   UNL     1     138.832  69.660 223.417 -0.24 -0.01    +0.035 A  
DOCKED: ATOM     26  C   UNL     1     140.087  70.728 225.651 -0.48 -0.01    +0.071 A  
DOCKED: ATOM     27  C   UNL     1     139.208  68.812 224.459 -0.35 -0.00    +0.013 A  
DOCKED: ATOM     28  C   UNL     1     140.715  71.274 226.775 -0.67 -0.01    +0.030 A  
DOCKED: ATOM     29  C   UNL     1     139.845  69.337 225.589 -0.45 -0.00    +0.002 A  
DOCKED: ATOM     30  C   UNL     1     141.106  70.446 227.833 -0.59 -0.00    +0.023 A  
DOCKED: ATOM     31  C   UNL     1     140.240  68.513 226.653 -0.60 -0.01    +0.030 A  
DOCKED: ATOM     32  C   UNL     1     140.870  69.068 227.772 -0.59 -0.01    +0.041 A  
DOCKED: ATOM     33  Cl  UNL     1     141.367  68.035 229.099 -0.40 +0.02    -0.084 Cl 
DOCKED: ENDBRANCH  20  23
DOCKED: ENDBRANCH  19  20
DOCKED: ENDBRANCH   1  19
DOCKED: TORSDOF 10
DOCKED: TER
DOCKED: ENDMDL
________________________________________________________________________________


    FINAL DOCKED STATE:
    ________________________


Run:   3 / 20
Time taken for this run:   0.073s

DOCKED: MODEL        3
DOCKED: USER    Run = 3
DOCKED: USER
DOCKED: USER    Estimated Free Energy of Binding    =  -7.36 kcal/mol  [=(1)+(2)+(3)-(4)]
DOCKED: USER
DOCKED: USER    (1) Final Intermolecular Energy     = -10.34 kcal/mol
DOCKED: USER        vdW + Hbond + desolv Energy     = -10.18 kcal/mol
DOCKED: USER        Electrostatic Energy            =  -0.16 kcal/mol
DOCKED: USER        Moving Ligand-Fixed Receptor    = -10.34 kcal/mol
DOCKED: USER        Moving Ligand-Moving Receptor   =  +0.00 kcal/mol
DOCKED: USER    (2) Final Total Internal Energy     =  -2.63 kcal/mol
DOCKED: USER    (3) Torsional Free Energy           =  +2.98 kcal/mol
DOCKED: USER    (4) Unbound System's Energy         =  -2.63 kcal/mol
DOCKED: USER
DOCKED: USER
DOCKED: REMARK SMILES O/C(=C\N=C(\O)c1ccc2cc(Cl)ccc2n1)N1CC[C@H](O)[C@H]1Cc1ccccc1
DOCKED: REMARK SMILES IDX 3 1 2 2 1 3 18 5 19 6 23 7 20 8 21 9 24 10 25 11 26 12 30 13
DOCKED: REMARK SMILES IDX 27 14 29 15 28 16 22 17 4 19 5 20 6 21 7 23 17 24 8 25 16 26
DOCKED: REMARK SMILES IDX 9 27 15 28 10 29 14 30 11 31 12 32 13 33
DOCKED: REMARK H PARENT 1 4 22 18 6 22
DOCKED: USER                              x       y       z     vdW  Elec       q    Type
DOCKED: USER                           _______ _______ _______ _____ _____    ______ ____
DOCKED: ROOT
DOCKED: ATOM      1  C   UNL     1     139.780  71.843 220.574 -0.08 -0.03    +0.181 C  
DOCKED: ENDROOT
DOCKED: BRANCH   1   2
DOCKED: ATOM      2  C   UNL     1     139.627  70.631 221.128 -0.09 -0.04    +0.206 C  
DOCKED: BRANCH   2   3
DOCKED: ATOM      3  O   UNL     1     140.362  69.535 220.665 -0.03 +0.09    -0.494 OA 
DOCKED: ATOM      4  H   UNL     1     140.769  69.494 219.738 +0.05 -0.05    +0.295 HD 
DOCKED: ENDBRANCH   2   3
DOCKED: BRANCH   2   5
DOCKED: ATOM      5  N   UNL     1     138.697  70.421 222.206 -0.05 +0.06    -0.336 N  
DOCKED: ATOM      6  C   UNL     1     137.465  69.674 222.011 -0.09 -0.02    +0.123 C  
DOCKED: ATOM      7  C   UNL     1     138.878  70.864 223.588 -0.26 -0.03    +0.118 C  
DOCKED: ATOM      8  C   UNL     1     136.794  69.607 223.377 -0.17 -0.01    +0.055 C  
DOCKED: ATOM      9  C   UNL     1     137.497  70.663 224.237 -0.17 -0.02    +0.139 C  
DOCKED: BRANCH   7  10
DOCKED: ATOM     10  C   UNL     1     139.951  70.008 224.303 -0.30 -0.01    +0.063 C  
DOCKED: BRANCH  10  11
DOCKED: ATOM     11  C   UNL     1     140.271  70.529 225.680 -0.50 +0.01    -0.046 A  
DOCKED: ATOM     12  C   UNL     1     140.997  71.721 225.846 -0.59 -0.00    +0.004 A  
DOCKED: ATOM     13  C   UNL     1     139.807  69.844 226.815 -0.53 -0.00    +0.004 A  
DOCKED: ATOM     14  C   UNL     1     141.233  72.230 227.127 -0.80 -0.00    +0.000 A  
DOCKED: ATOM     15  C   UNL     1     140.047  70.353 228.094 -0.64 -0.00    +0.000 A  
DOCKED: ATOM     16  C   UNL     1     140.756  71.548 228.250 -0.77 -0.00    +0.000 A  
DOCKED: ENDBRANCH  10  11
DOCKED: ENDBRANCH   7  10
DOCKED: BRANCH   9  17
DOCKED: ATOM     17  O   UNL     1     136.766  71.866 224.246 -0.07 +0.10    -0.391 OA 
DOCKED: ATOM     18  H   UNL     1     137.414  72.620 224.295 -0.48 -0.15    +0.211 HD 
DOCKED: ENDBRANCH   9  17
DOCKED: ENDBRANCH   2   5
DOCKED: ENDBRANCH   1   2
DOCKED: BRANCH   1  19
DOCKED: ATOM     19  N   UNL     1     138.701  72.787 220.588 -0.04 +0.04    -0.215 NA 
DOCKED: BRANCH  19  20
DOCKED: ATOM     20  C   UNL     1     138.410  73.664 221.509 -0.12 -0.06    +0.237 C  
DOCKED: BRANCH  20  21
DOCKED: ATOM     21  O   UNL     1     137.300  73.431 222.318 -0.05 +0.17    -0.492 OA 
DOCKED: ATOM     22  H   UNL     1     137.280  73.739 223.283 -0.45 -0.20    +0.295 HD 
DOCKED: ENDBRANCH  20  21
DOCKED: BRANCH  20  23
DOCKED: ATOM     23  C   UNL     1     139.211  74.883 221.768 -0.23 -0.03    +0.126 A  
DOCKED: ATOM     24  N   UNL     1     138.632  76.005 222.280 -0.21 +0.05    -0.243 NA 
DOCKED: ATOM     25  C   UNL     1     140.598  74.854 221.561 -0.32 -0.01    +0.035 A  
DOCKED: ATOM     26  C   UNL     1     139.354  77.122 222.567 -0.27 -0.01    +0.071 A  
DOCKED: ATOM     27  C   UNL     1     141.366  75.985 221.844 -0.19 -0.01    +0.013 A  
DOCKED: ATOM     28  C   UNL     1     138.720  78.260 223.077 -0.26 -0.00    +0.030 A  
DOCKED: ATOM     29  C   UNL     1     140.749  77.136 222.347 -0.44 -0.00    +0.002 A  
DOCKED: ATOM     30  C   UNL     1     139.464  79.408 223.366 -0.39 -0.00    +0.023 A  
DOCKED: ATOM     31  C   UNL     1     141.490  78.291 222.639 -0.46 -0.01    +0.030 A  
DOCKED: ATOM     32  C   UNL     1     140.846  79.425 223.146 -0.46 -0.01    +0.041 A  
DOCKED: ATOM     33  Cl  UNL     1     141.773  80.870 223.506 -0.74 +0.01    -0.084 Cl 
DOCKED: ENDBRANCH  20  23
DOCKED: ENDBRANCH  19  20
DOCKED: ENDBRANCH   1  19
DOCKED: TORSDOF 10
DOCKED: TER
DOCKED: ENDMDL
________________________________________________________________________________


    FINAL DOCKED STATE:
    ________________________


Run:   4 / 20
Time taken for this run:   0.073s

DOCKED: MODEL        4
DOCKED: USER    Run = 4
DOCKED: USER
DOCKED: USER    Estimated Free Energy of Binding    =  -7.84 kcal/mol  [=(1)+(2)+(3)-(4)]
DOCKED: USER
DOCKED: USER    (1) Final Intermolecular Energy     = -10.82 kcal/mol
DOCKED: USER        vdW + Hbond + desolv Energy     = -10.75 kcal/mol
DOCKED: USER        Electrostatic Energy            =  -0.07 kcal/mol
DOCKED: USER        Moving Ligand-Fixed Receptor    = -10.82 kcal/mol
DOCKED: USER        Moving Ligand-Moving Receptor   =  +0.00 kcal/mol
DOCKED: USER    (2) Final Total Internal Energy     =  -2.40 kcal/mol
DOCKED: USER    (3) Torsional Free Energy           =  +2.98 kcal/mol
DOCKED: USER    (4) Unbound System's Energy         =  -2.40 kcal/mol
DOCKED: USER
DOCKED: USER
DOCKED: REMARK SMILES O/C(=C\N=C(\O)c1ccc2cc(Cl)ccc2n1)N1CC[C@H](O)[C@H]1Cc1ccccc1
DOCKED: REMARK SMILES IDX 3 1 2 2 1 3 18 5 19 6 23 7 20 8 21 9 24 10 25 11 26 12 30 13
DOCKED: REMARK SMILES IDX 27 14 29 15 28 16 22 17 4 19 5 20 6 21 7 23 17 24 8 25 16 26
DOCKED: REMARK SMILES IDX 9 27 15 28 10 29 14 30 11 31 12 32 13 33
DOCKED: REMARK H PARENT 1 4 22 18 6 22
DOCKED: USER                              x       y       z     vdW  Elec       q    Type
DOCKED: USER                           _______ _______ _______ _____ _____    ______ ____
DOCKED: ROOT
DOCKED: ATOM      1  C   UNL     1     140.719  74.416 221.381 -0.24 -0.03    +0.181 C  
DOCKED: ENDROOT
DOCKED: BRANCH   1   2
DOCKED: ATOM      2  C   UNL     1     140.144  74.962 220.298 -0.10 -0.05    +0.206 C  
DOCKED: BRANCH   2   3
DOCKED: ATOM      3  O   UNL     1     138.853  74.589 219.911 +0.01 +0.11    -0.494 OA 
DOCKED: ATOM      4  H   UNL     1     138.243  74.023 220.490 +0.05 -0.06    +0.295 HD 
DOCKED: ENDBRANCH   2   3
DOCKED: BRANCH   2   5
DOCKED: ATOM      5  N   UNL     1     140.839  75.937 219.501 -0.02 +0.11    -0.336 N  
DOCKED: ATOM      6  C   UNL     1     140.814  75.887 218.048 -0.04 -0.04    +0.123 C  
DOCKED: ATOM      7  C   UNL     1     141.585  77.086 220.016 -0.23 -0.06    +0.118 C  
DOCKED: ATOM      8  C   UNL     1     141.592  77.108 217.573 -0.12 -0.03    +0.055 C  
DOCKED: ATOM      9  C   UNL     1     142.365  77.610 218.797 -0.25 -0.09    +0.139 C  
DOCKED: BRANCH   7  10
DOCKED: ATOM     10  C   UNL     1     140.622  78.167 220.560 -0.20 -0.02    +0.063 C  
DOCKED: BRANCH  10  11
DOCKED: ATOM     11  C   UNL     1     141.211  78.921 221.725 -0.35 +0.02    -0.046 A  
DOCKED: ATOM     12  C   UNL     1     141.250  78.345 223.006 -0.53 -0.00    +0.004 A  
DOCKED: ATOM     13  C   UNL     1     141.767  80.195 221.527 -0.42 -0.00    +0.004 A  
DOCKED: ATOM     14  C   UNL     1     141.856  79.027 224.066 -0.59 -0.00    +0.000 A  
DOCKED: ATOM     15  C   UNL     1     142.370  80.875 222.589 -0.56 -0.00    +0.000 A  
DOCKED: ATOM     16  C   UNL     1     142.419  80.289 223.857 -0.65 -0.00    +0.000 A  
DOCKED: ENDBRANCH  10  11
DOCKED: ENDBRANCH   7  10
DOCKED: BRANCH   9  17
DOCKED: ATOM     17  O   UNL     1     143.683  77.115 218.792 -0.13 +0.30    -0.391 OA 
DOCKED: ATOM     18  H   UNL     1     144.137  77.442 219.615 -0.47 -0.23    +0.211 HD 
DOCKED: ENDBRANCH   9  17
DOCKED: ENDBRANCH   2   5
DOCKED: ENDBRANCH   1   2
DOCKED: BRANCH   1  19
DOCKED: ATOM     19  N   UNL     1     139.922  73.732 222.357 -0.79 +0.02    -0.215 NA 
DOCKED: BRANCH  19  20
DOCKED: ATOM     20  C   UNL     1     139.502  72.498 222.331 -0.19 -0.05    +0.237 C  
DOCKED: BRANCH  20  21
DOCKED: ATOM     21  O   UNL     1     138.811  72.057 221.205 -0.01 +0.10    -0.492 OA 
DOCKED: ATOM     22  H   UNL     1     138.987  72.457 220.291 +0.05 -0.06    +0.295 HD 
DOCKED: ENDBRANCH  20  21
DOCKED: BRANCH  20  23
DOCKED: ATOM     23  C   UNL     1     139.741  71.524 223.420 -0.31 -0.03    +0.126 A  
DOCKED: ATOM     24  N   UNL     1     140.239  71.926 224.623 -0.20 +0.05    -0.243 NA 
DOCKED: ATOM     25  C   UNL     1     139.373  70.182 223.239 -0.25 -0.01    +0.035 A  
DOCKED: ATOM     26  C   UNL     1     140.428  71.057 225.653 -0.52 -0.01    +0.071 A  
DOCKED: ATOM     27  C   UNL     1     139.555  69.266 224.276 -0.30 -0.00    +0.013 A  
DOCKED: ATOM     28  C   UNL     1     140.956  71.507 226.868 -0.71 -0.00    +0.030 A  
DOCKED: ATOM     29  C   UNL     1     140.090  69.694 225.497 -0.45 -0.00    +0.002 A  
DOCKED: ATOM     30  C   UNL     1     141.152  70.609 227.923 -0.59 -0.00    +0.023 A  
DOCKED: ATOM     31  C   UNL     1     140.290  68.800 226.558 -0.56 -0.01    +0.030 A  
DOCKED: ATOM     32  C   UNL     1     140.822  69.258 227.769 -0.58 -0.01    +0.041 A  
DOCKED: ATOM     33  Cl  UNL     1     141.075  68.138 229.094 -0.46 +0.02    -0.084 Cl 
DOCKED: ENDBRANCH  20  23
DOCKED: ENDBRANCH  19  20
DOCKED: ENDBRANCH   1  19
DOCKED: TORSDOF 10
DOCKED: TER
DOCKED: ENDMDL
________________________________________________________________________________


    FINAL DOCKED STATE:
    ________________________


Run:   5 / 20
Time taken for this run:   0.073s

DOCKED: MODEL        5
DOCKED: USER    Run = 5
DOCKED: USER
DOCKED: USER    Estimated Free Energy of Binding    =  -8.58 kcal/mol  [=(1)+(2)+(3)-(4)]
DOCKED: USER
DOCKED: USER    (1) Final Intermolecular Energy     = -11.56 kcal/mol
DOCKED: USER        vdW + Hbond + desolv Energy     = -11.40 kcal/mol
DOCKED: USER        Electrostatic Energy            =  -0.16 kcal/mol
DOCKED: USER        Moving Ligand-Fixed Receptor    = -11.56 kcal/mol
DOCKED: USER        Moving Ligand-Moving Receptor   =  +0.00 kcal/mol
DOCKED: USER    (2) Final Total Internal Energy     =  -1.77 kcal/mol
DOCKED: USER    (3) Torsional Free Energy           =  +2.98 kcal/mol
DOCKED: USER    (4) Unbound System's Energy         =  -1.77 kcal/mol
DOCKED: USER
DOCKED: USER
DOCKED: REMARK SMILES O/C(=C\N=C(\O)c1ccc2cc(Cl)ccc2n1)N1CC[C@H](O)[C@H]1Cc1ccccc1
DOCKED: REMARK SMILES IDX 3 1 2 2 1 3 18 5 19 6 23 7 20 8 21 9 24 10 25 11 26 12 30 13
DOCKED: REMARK SMILES IDX 27 14 29 15 28 16 22 17 4 19 5 20 6 21 7 23 17 24 8 25 16 26
DOCKED: REMARK SMILES IDX 9 27 15 28 10 29 14 30 11 31 12 32 13 33
DOCKED: REMARK H PARENT 1 4 22 18 6 22
DOCKED: USER                              x       y       z     vdW  Elec       q    Type
DOCKED: USER                           _______ _______ _______ _____ _____    ______ ____
DOCKED: ROOT
DOCKED: ATOM      1  C   UNL     1     139.626  72.827 220.358 -0.07 -0.03    +0.181 C  
DOCKED: ENDROOT
DOCKED: BRANCH   1   2
DOCKED: ATOM      2  C   UNL     1     140.145  73.914 220.950 -0.16 -0.04    +0.206 C  
DOCKED: BRANCH   2   3
DOCKED: ATOM      3  O   UNL     1     139.819  74.231 222.273 -0.72 +0.04    -0.494 OA 
DOCKED: ATOM      4  H   UNL     1     138.957  73.937 222.716 -0.48 -0.11    +0.295 HD 
DOCKED: ENDBRANCH   2   3
DOCKED: BRANCH   2   5
DOCKED: ATOM      5  N   UNL     1     141.041  74.788 220.241 -0.07 +0.09    -0.336 N  
DOCKED: ATOM      6  C   UNL     1     141.345  74.582 218.834 -0.06 -0.03    +0.123 C  
DOCKED: ATOM      7  C   UNL     1     141.696  75.972 220.795 -0.20 -0.06    +0.118 C  
DOCKED: ATOM      8  C   UNL     1     142.259  75.733 218.430 -0.17 -0.02    +0.055 C  
DOCKED: ATOM      9  C   UNL     1     142.753  76.351 219.742 -0.29 -0.09    +0.139 C  
DOCKED: BRANCH   7  10
DOCKED: ATOM     10  C   UNL     1     140.678  77.121 220.992 -0.25 -0.02    +0.063 C  
DOCKED: BRANCH  10  11
DOCKED: ATOM     11  C   UNL     1     141.238  78.240 221.833 -0.37 +0.02    -0.046 A  
DOCKED: ATOM     12  C   UNL     1     141.278  78.132 223.234 -0.48 -0.00    +0.004 A  
DOCKED: ATOM     13  C   UNL     1     141.763  79.386 221.216 -0.38 -0.00    +0.004 A  
DOCKED: ATOM     14  C   UNL     1     141.857  79.148 224.001 -0.59 -0.00    +0.000 A  
DOCKED: ATOM     15  C   UNL     1     142.339  80.401 221.986 -0.51 -0.00    +0.000 A  
DOCKED: ATOM     16  C   UNL     1     142.390  80.280 223.378 -0.66 -0.00    +0.000 A  
DOCKED: ENDBRANCH  10  11
DOCKED: ENDBRANCH   7  10
DOCKED: BRANCH   9  17
DOCKED: ATOM     17  O   UNL     1     144.016  75.838 220.091 -0.29 +0.28    -0.391 OA 
DOCKED: ATOM     18  H   UNL     1     143.932  75.386 220.973 -0.10 -0.16    +0.211 HD 
DOCKED: ENDBRANCH   9  17
DOCKED: ENDBRANCH   2   5
DOCKED: ENDBRANCH   1   2
DOCKED: BRANCH   1  19
DOCKED: ATOM     19  N   UNL     1     138.945  71.835 221.138 -0.06 +0.04    -0.215 NA 
DOCKED: BRANCH  19  20
DOCKED: ATOM     20  C   UNL     1     138.536  71.922 222.373 -0.14 -0.06    +0.237 C  
DOCKED: BRANCH  20  21
DOCKED: ATOM     21  O   UNL     1     137.575  72.881 222.686 +0.01 +0.19    -0.492 OA 
DOCKED: ATOM     22  H   UNL     1     137.284  73.039 223.644 -0.48 -0.20    +0.295 HD 
DOCKED: ENDBRANCH  20  21
DOCKED: BRANCH  20  23
DOCKED: ATOM     23  C   UNL     1     139.012  71.039 223.462 -0.25 -0.03    +0.126 A  
DOCKED: ATOM     24  N   UNL     1     139.598  71.557 224.578 -0.21 +0.06    -0.243 NA 
DOCKED: ATOM     25  C   UNL     1     138.780  69.658 223.382 -0.24 -0.01    +0.035 A  
DOCKED: ATOM     26  C   UNL     1     140.005  70.769 225.611 -0.47 -0.01    +0.071 A  
DOCKED: ATOM     27  C   UNL     1     139.187  68.823 224.424 -0.34 -0.00    +0.013 A  
DOCKED: ATOM     28  C   UNL     1     140.618  71.338 226.733 -0.66 -0.01    +0.030 A  
DOCKED: ATOM     29  C   UNL     1     139.809  69.372 225.552 -0.45 -0.00    +0.002 A  
DOCKED: ATOM     30  C   UNL     1     141.038  70.525 227.790 -0.62 -0.00    +0.023 A  
DOCKED: ATOM     31  C   UNL     1     140.233  68.562 226.616 -0.59 -0.01    +0.030 A  
DOCKED: ATOM     32  C   UNL     1     140.848  69.140 227.732 -0.59 -0.01    +0.041 A  
DOCKED: ATOM     33  Cl  UNL     1     141.382  68.126 229.060 -0.48 +0.02    -0.084 Cl 
DOCKED: ENDBRANCH  20  23
DOCKED: ENDBRANCH  19  20
DOCKED: ENDBRANCH   1  19
DOCKED: TORSDOF 10
DOCKED: TER
DOCKED: ENDMDL
________________________________________________________________________________


    FINAL DOCKED STATE:
    ________________________


Run:   6 / 20
Time taken for this run:   0.073s

DOCKED: MODEL        6
DOCKED: USER    Run = 6
DOCKED: USER
DOCKED: USER    Estimated Free Energy of Binding    =  -7.35 kcal/mol  [=(1)+(2)+(3)-(4)]
DOCKED: USER
DOCKED: USER    (1) Final Intermolecular Energy     = -10.33 kcal/mol
DOCKED: USER        vdW + Hbond + desolv Energy     = -10.19 kcal/mol
DOCKED: USER        Electrostatic Energy            =  -0.15 kcal/mol
DOCKED: USER        Moving Ligand-Fixed Receptor    = -10.33 kcal/mol
DOCKED: USER        Moving Ligand-Moving Receptor   =  +0.00 kcal/mol
DOCKED: USER    (2) Final Total Internal Energy     =  -2.66 kcal/mol
DOCKED: USER    (3) Torsional Free Energy           =  +2.98 kcal/mol
DOCKED: USER    (4) Unbound System's Energy         =  -2.66 kcal/mol
DOCKED: USER
DOCKED: USER
DOCKED: REMARK SMILES O/C(=C\N=C(\O)c1ccc2cc(Cl)ccc2n1)N1CC[C@H](O)[C@H]1Cc1ccccc1
DOCKED: REMARK SMILES IDX 3 1 2 2 1 3 18 5 19 6 23 7 20 8 21 9 24 10 25 11 26 12 30 13
DOCKED: REMARK SMILES IDX 27 14 29 15 28 16 22 17 4 19 5 20 6 21 7 23 17 24 8 25 16 26
DOCKED: REMARK SMILES IDX 9 27 15 28 10 29 14 30 11 31 12 32 13 33
DOCKED: REMARK H PARENT 1 4 22 18 6 22
DOCKED: USER                              x       y       z     vdW  Elec       q    Type
DOCKED: USER                           _______ _______ _______ _____ _____    ______ ____
DOCKED: ROOT
DOCKED: ATOM      1  C   UNL     1     139.897  71.725 220.620 -0.08 -0.03    +0.181 C  
DOCKED: ENDROOT
DOCKED: BRANCH   1   2
DOCKED: ATOM      2  C   UNL     1     139.681  70.518 221.165 -0.09 -0.03    +0.206 C  
DOCKED: BRANCH   2   3
DOCKED: ATOM      3  O   UNL     1     140.361  69.390 220.696 -0.03 +0.09    -0.494 OA 
DOCKED: ATOM      4  H   UNL     1     140.778  69.339 219.774 +0.05 -0.05    +0.295 HD 
DOCKED: ENDBRANCH   2   3
DOCKED: BRANCH   2   5
DOCKED: ATOM      5  N   UNL     1     138.738  70.348 222.239 -0.06 +0.06    -0.336 N  
DOCKED: ATOM      6  C   UNL     1     137.503  69.603 222.053 -0.09 -0.02    +0.123 C  
DOCKED: ATOM      7  C   UNL     1     138.908  70.832 223.609 -0.26 -0.02    +0.118 C  
DOCKED: ATOM      8  C   UNL     1     136.817  69.583 223.413 -0.18 -0.01    +0.055 C  
DOCKED: ATOM      9  C   UNL     1     137.518  70.661 224.248 -0.17 -0.02    +0.139 C  
DOCKED: BRANCH   7  10
DOCKED: ATOM     10  C   UNL     1     139.967  69.992 224.360 -0.30 -0.01    +0.063 C  
DOCKED: BRANCH  10  11
DOCKED: ATOM     11  C   UNL     1     140.239  70.524 225.744 -0.50 +0.01    -0.046 A  
DOCKED: ATOM     12  C   UNL     1     140.930  71.735 225.924 -0.59 -0.00    +0.004 A  
DOCKED: ATOM     13  C   UNL     1     139.765  69.830 226.869 -0.52 -0.00    +0.004 A  
DOCKED: ATOM     14  C   UNL     1     141.121  72.252 227.209 -0.82 -0.00    +0.000 A  
DOCKED: ATOM     15  C   UNL     1     139.960  70.349 228.152 -0.63 -0.00    +0.000 A  
DOCKED: ATOM     16  C   UNL     1     140.634  71.562 228.322 -0.76 -0.00    +0.000 A  
DOCKED: ENDBRANCH  10  11
DOCKED: ENDBRANCH   7  10
DOCKED: BRANCH   9  17
DOCKED: ATOM     17  O   UNL     1     136.796  71.868 224.212 -0.09 +0.11    -0.391 OA 
DOCKED: ATOM     18  H   UNL     1     137.450  72.618 224.195 -0.48 -0.15    +0.211 HD 
DOCKED: ENDBRANCH   9  17
DOCKED: ENDBRANCH   2   5
DOCKED: ENDBRANCH   1   2
DOCKED: BRANCH   1  19
DOCKED: ATOM     19  N   UNL     1     138.834  72.685 220.542 -0.04 +0.04    -0.215 NA 
DOCKED: BRANCH  19  20
DOCKED: ATOM     20  C   UNL     1     138.493  73.581 221.425 -0.12 -0.06    +0.237 C  
DOCKED: BRANCH  20  21
DOCKED: ATOM     21  O   UNL     1     137.359  73.348 222.201 -0.05 +0.16    -0.492 OA 
DOCKED: ATOM     22  H   UNL     1     137.291  73.700 223.149 -0.44 -0.18    +0.295 HD 
DOCKED: ENDBRANCH  20  21
DOCKED: BRANCH  20  23
DOCKED: ATOM     23  C   UNL     1     139.258  74.824 221.675 -0.23 -0.03    +0.126 A  
DOCKED: ATOM     24  N   UNL     1     138.662  75.912 222.238 -0.21 +0.06    -0.243 NA 
DOCKED: ATOM     25  C   UNL     1     140.635  74.853 221.406 -0.31 -0.01    +0.035 A  
DOCKED: ATOM     26  C   UNL     1     139.354  77.051 222.517 -0.27 -0.01    +0.071 A  
DOCKED: ATOM     27  C   UNL     1     141.372  76.006 221.679 -0.23 -0.01    +0.013 A  
DOCKED: ATOM     28  C   UNL     1     138.702  78.153 223.081 -0.25 -0.00    +0.030 A  
DOCKED: ATOM     29  C   UNL     1     140.737  77.122 222.236 -0.43 -0.00    +0.002 A  
DOCKED: ATOM     30  C   UNL     1     139.416  79.322 223.362 -0.38 -0.00    +0.023 A  
DOCKED: ATOM     31  C   UNL     1     141.446  78.298 222.520 -0.46 -0.01    +0.030 A  
DOCKED: ATOM     32  C   UNL     1     140.785  79.396 223.081 -0.45 -0.01    +0.041 A  
DOCKED: ATOM     33  Cl  UNL     1     141.673  80.867 223.431 -0.72 +0.01    -0.084 Cl 
DOCKED: ENDBRANCH  20  23
DOCKED: ENDBRANCH  19  20
DOCKED: ENDBRANCH   1  19
DOCKED: TORSDOF 10
DOCKED: TER
DOCKED: ENDMDL
________________________________________________________________________________


    FINAL DOCKED STATE:
    ________________________


Run:   7 / 20
Time taken for this run:   0.073s

DOCKED: MODEL        7
DOCKED: USER    Run = 7
DOCKED: USER
DOCKED: USER    Estimated Free Energy of Binding    =  -8.90 kcal/mol  [=(1)+(2)+(3)-(4)]
DOCKED: USER
DOCKED: USER    (1) Final Intermolecular Energy     = -11.88 kcal/mol
DOCKED: USER        vdW + Hbond + desolv Energy     = -11.78 kcal/mol
DOCKED: USER        Electrostatic Energy            =  -0.10 kcal/mol
DOCKED: USER        Moving Ligand-Fixed Receptor    = -11.88 kcal/mol
DOCKED: USER        Moving Ligand-Moving Receptor   =  +0.00 kcal/mol
DOCKED: USER    (2) Final Total Internal Energy     =  -2.21 kcal/mol
DOCKED: USER    (3) Torsional Free Energy           =  +2.98 kcal/mol
DOCKED: USER    (4) Unbound System's Energy         =  -2.21 kcal/mol
DOCKED: USER
DOCKED: USER
DOCKED: REMARK SMILES O/C(=C\N=C(\O)c1ccc2cc(Cl)ccc2n1)N1CC[C@H](O)[C@H]1Cc1ccccc1
DOCKED: REMARK SMILES IDX 3 1 2 2 1 3 18 5 19 6 23 7 20 8 21 9 24 10 25 11 26 12 30 13
DOCKED: REMARK SMILES IDX 27 14 29 15 28 16 22 17 4 19 5 20 6 21 7 23 17 24 8 25 16 26
DOCKED: REMARK SMILES IDX 9 27 15 28 10 29 14 30 11 31 12 32 13 33
DOCKED: REMARK H PARENT 1 4 22 18 6 22
DOCKED: USER                              x       y       z     vdW  Elec       q    Type
DOCKED: USER                           _______ _______ _______ _____ _____    ______ ____
DOCKED: ROOT
DOCKED: ATOM      1  C   UNL     1     140.873  73.798 221.145 -0.21 -0.03    +0.181 C  
DOCKED: ENDROOT
DOCKED: BRANCH   1   2
DOCKED: ATOM      2  C   UNL     1     140.294  74.994 221.330 -0.23 -0.04    +0.206 C  
DOCKED: BRANCH   2   3
DOCKED: ATOM      3  O   UNL     1     139.381  75.192 222.371 -0.47 +0.09    -0.494 OA 
DOCKED: ATOM      4  H   UNL     1     139.175  74.485 223.068 -0.48 -0.10    +0.295 HD 
DOCKED: ENDBRANCH   2   3
DOCKED: BRANCH   2   5
DOCKED: ATOM      5  N   UNL     1     140.586  76.102 220.461 -0.07 +0.11    -0.336 N  
DOCKED: ATOM      6  C   UNL     1     140.136  76.120 219.078 -0.05 -0.04    +0.123 C  
DOCKED: ATOM      7  C   UNL     1     141.294  77.324 220.843 -0.25 -0.06    +0.118 C  
DOCKED: ATOM      8  C   UNL     1     140.571  77.468 218.514 -0.08 -0.02    +0.055 C  
DOCKED: ATOM      9  C   UNL     1     141.601  78.021 219.505 -0.21 -0.08    +0.139 C  
DOCKED: BRANCH   7  10
DOCKED: ATOM     10  C   UNL     1     140.404  78.218 221.738 -0.29 -0.02    +0.063 C  
DOCKED: BRANCH  10  11
DOCKED: ATOM     11  C   UNL     1     141.206  79.246 222.493 -0.43 +0.02    -0.046 A  
DOCKED: ATOM     12  C   UNL     1     142.611  79.221 222.467 -0.47 -0.00    +0.004 A  
DOCKED: ATOM     13  C   UNL     1     140.551  80.268 223.199 -0.45 -0.00    +0.004 A  
DOCKED: ATOM     14  C   UNL     1     143.346  80.217 223.118 -0.63 -0.00    +0.000 A  
DOCKED: ATOM     15  C   UNL     1     141.288  81.260 223.852 -0.48 -0.00    +0.000 A  
DOCKED: ATOM     16  C   UNL     1     142.685  81.237 223.807 -0.59 -0.00    +0.000 A  
DOCKED: ENDBRANCH  10  11
DOCKED: ENDBRANCH   7  10
DOCKED: BRANCH   9  17
DOCKED: ATOM     17  O   UNL     1     142.910  77.733 219.076 -0.16 +0.31    -0.391 OA 
DOCKED: ATOM     18  H   UNL     1     143.464  77.549 219.882 -0.46 -0.23    +0.211 HD 
DOCKED: ENDBRANCH   9  17
DOCKED: ENDBRANCH   2   5
DOCKED: ENDBRANCH   1   2
DOCKED: BRANCH   1  19
DOCKED: ATOM     19  N   UNL     1     140.117  72.593 221.319 -0.15 +0.03    -0.215 NA 
DOCKED: BRANCH  19  20
DOCKED: ATOM     20  C   UNL     1     139.273  72.302 222.270 -0.18 -0.05    +0.237 C  
DOCKED: BRANCH  20  21
DOCKED: ATOM     21  O   UNL     1     138.009  72.886 222.235 -0.06 +0.16    -0.492 OA 
DOCKED: ATOM     22  H   UNL     1     137.809  73.737 222.747 -0.46 -0.15    +0.295 HD 
DOCKED: ENDBRANCH  20  21
DOCKED: BRANCH  20  23
DOCKED: ATOM     23  C   UNL     1     139.569  71.361 223.375 -0.29 -0.03    +0.126 A  
DOCKED: ATOM     24  N   UNL     1     140.080  71.807 224.556 -0.23 +0.05    -0.243 NA 
DOCKED: ATOM     25  C   UNL     1     139.241  70.004 223.232 -0.24 -0.01    +0.035 A  
DOCKED: ATOM     26  C   UNL     1     140.320  70.967 225.601 -0.51 -0.01    +0.071 A  
DOCKED: ATOM     27  C   UNL     1     139.477  69.118 224.284 -0.29 -0.00    +0.013 A  
DOCKED: ATOM     28  C   UNL     1     140.861  71.462 226.793 -0.70 -0.00    +0.030 A  
DOCKED: ATOM     29  C   UNL     1     140.024  69.591 225.482 -0.45 -0.00    +0.002 A  
DOCKED: ATOM     30  C   UNL     1     141.110  70.595 227.862 -0.61 -0.00    +0.023 A  
DOCKED: ATOM     31  C   UNL     1     140.277  68.728 226.558 -0.57 -0.01    +0.030 A  
DOCKED: ATOM     32  C   UNL     1     140.821  69.231 227.745 -0.59 -0.01    +0.041 A  
DOCKED: ATOM     33  Cl  UNL     1     141.141  68.150 229.089 -0.46 +0.02    -0.084 Cl 
DOCKED: ENDBRANCH  20  23
DOCKED: ENDBRANCH  19  20
DOCKED: ENDBRANCH   1  19
DOCKED: TORSDOF 10
DOCKED: TER
DOCKED: ENDMDL
________________________________________________________________________________


    FINAL DOCKED STATE:
    ________________________


Run:   8 / 20
Time taken for this run:   0.073s

DOCKED: MODEL        8
DOCKED: USER    Run = 8
DOCKED: USER
DOCKED: USER    Estimated Free Energy of Binding    =  -6.22 kcal/mol  [=(1)+(2)+(3)-(4)]
DOCKED: USER
DOCKED: USER    (1) Final Intermolecular Energy     =  -9.21 kcal/mol
DOCKED: USER        vdW + Hbond + desolv Energy     =  -9.01 kcal/mol
DOCKED: USER        Electrostatic Energy            =  -0.20 kcal/mol
DOCKED: USER        Moving Ligand-Fixed Receptor    =  -9.21 kcal/mol
DOCKED: USER        Moving Ligand-Moving Receptor   =  +0.00 kcal/mol
DOCKED: USER    (2) Final Total Internal Energy     =  -3.49 kcal/mol
DOCKED: USER    (3) Torsional Free Energy           =  +2.98 kcal/mol
DOCKED: USER    (4) Unbound System's Energy         =  -3.49 kcal/mol
DOCKED: USER
DOCKED: USER
DOCKED: REMARK SMILES O/C(=C\N=C(\O)c1ccc2cc(Cl)ccc2n1)N1CC[C@H](O)[C@H]1Cc1ccccc1
DOCKED: REMARK SMILES IDX 3 1 2 2 1 3 18 5 19 6 23 7 20 8 21 9 24 10 25 11 26 12 30 13
DOCKED: REMARK SMILES IDX 27 14 29 15 28 16 22 17 4 19 5 20 6 21 7 23 17 24 8 25 16 26
DOCKED: REMARK SMILES IDX 9 27 15 28 10 29 14 30 11 31 12 32 13 33
DOCKED: REMARK H PARENT 1 4 22 18 6 22
DOCKED: USER                              x       y       z     vdW  Elec       q    Type
DOCKED: USER                           _______ _______ _______ _____ _____    ______ ____
DOCKED: ROOT
DOCKED: ATOM      1  C   UNL     1     140.636  76.534 219.108 -0.07 -0.06    +0.181 C  
DOCKED: ENDROOT
DOCKED: BRANCH   1   2
DOCKED: ATOM      2  C   UNL     1     141.621  77.431 219.268 -0.17 -0.11    +0.206 C  
DOCKED: BRANCH   2   3
DOCKED: ATOM      3  O   UNL     1     142.719  77.148 220.087 -0.14 +0.39    -0.494 OA 
DOCKED: ATOM      4  H   UNL     1     142.684  76.479 220.848 -0.34 -0.26    +0.295 HD 
DOCKED: ENDBRANCH   2   3
DOCKED: BRANCH   2   5
DOCKED: ATOM      5  N   UNL     1     141.573  78.710 218.611 -0.09 +0.19    -0.336 N  
DOCKED: ATOM      6  C   UNL     1     141.073  78.845 217.252 -0.10 -0.07    +0.123 C  
DOCKED: ATOM      7  C   UNL     1     141.952  79.991 219.206 -0.25 -0.07    +0.118 C  
DOCKED: ATOM      8  C   UNL     1     141.113  80.336 216.938 -0.12 -0.03    +0.055 C  
DOCKED: ATOM      9  C   UNL     1     142.005  80.964 218.015 -0.24 -0.09    +0.139 C  
DOCKED: BRANCH   7  10
DOCKED: ATOM     10  C   UNL     1     140.900  80.447 220.244 -0.23 -0.02    +0.063 C  
DOCKED: BRANCH  10  11
DOCKED: ATOM     11  C   UNL     1     141.450  80.454 221.648 -0.38 +0.01    -0.046 A  
DOCKED: ATOM     12  C   UNL     1     142.053  79.305 222.187 -0.51 -0.00    +0.004 A  
DOCKED: ATOM     13  C   UNL     1     141.399  81.629 222.415 -0.46 -0.00    +0.004 A  
DOCKED: ATOM     14  C   UNL     1     142.617  79.342 223.467 -0.52 -0.00    +0.000 A  
DOCKED: ATOM     15  C   UNL     1     141.962  81.661 223.694 -0.52 -0.00    +0.000 A  
DOCKED: ATOM     16  C   UNL     1     142.574  80.519 224.218 -0.58 -0.00    +0.000 A  
DOCKED: ENDBRANCH  10  11
DOCKED: ENDBRANCH   7  10
DOCKED: BRANCH   9  17
DOCKED: ATOM     17  O   UNL     1     143.323  81.113 217.545 -0.19 +0.51    -0.391 OA 
DOCKED: ATOM     18  H   UNL     1     143.643  80.223 217.239 -0.50 -0.49    +0.211 HD 
DOCKED: ENDBRANCH   9  17
DOCKED: ENDBRANCH   2   5
DOCKED: ENDBRANCH   1   2
DOCKED: BRANCH   1  19
DOCKED: ATOM     19  N   UNL     1     139.950  76.002 220.250 -0.06 +0.06    -0.215 NA 
DOCKED: BRANCH  19  20
DOCKED: ATOM     20  C   UNL     1     140.022  76.399 221.490 -0.22 -0.06    +0.237 C  
DOCKED: BRANCH  20  21
DOCKED: ATOM     21  O   UNL     1     141.121  76.003 222.249 -0.24 +0.15    -0.492 OA 
DOCKED: ATOM     22  H   UNL     1     142.039  76.405 222.093 -0.44 -0.25    +0.295 HD 
DOCKED: ENDBRANCH  20  21
DOCKED: BRANCH  20  23
DOCKED: ATOM     23  C   UNL     1     139.016  77.274 222.134 -0.24 -0.03    +0.126 A  
DOCKED: ATOM     24  N   UNL     1     139.397  78.350 222.877 -0.19 +0.04    -0.243 NA 
DOCKED: ATOM     25  C   UNL     1     137.651  77.040 221.906 -0.19 -0.01    +0.035 A  
DOCKED: ATOM     26  C   UNL     1     138.490  79.193 223.443 -0.26 -0.01    +0.071 A  
DOCKED: ATOM     27  C   UNL     1     136.697  77.886 222.475 -0.17 -0.00    +0.013 A  
DOCKED: ATOM     28  C   UNL     1     138.922  80.279 224.213 -0.37 -0.00    +0.030 A  
DOCKED: ATOM     29  C   UNL     1     137.108  78.973 223.255 -0.14 -0.00    +0.002 A  
DOCKED: ATOM     30  C   UNL     1     137.987  81.140 224.797 -0.37 -0.00    +0.023 A  
DOCKED: ATOM     31  C   UNL     1     136.176  79.840 223.843 -0.19 -0.00    +0.030 A  
DOCKED: ATOM     32  C   UNL     1     136.617  80.921 224.614 -0.29 -0.00    +0.041 A  
DOCKED: ATOM     33  Cl  UNL     1     135.451  82.003 225.353 -0.26 +0.01    -0.084 Cl 
DOCKED: ENDBRANCH  20  23
DOCKED: ENDBRANCH  19  20
DOCKED: ENDBRANCH   1  19
DOCKED: TORSDOF 10
DOCKED: TER
DOCKED: ENDMDL
________________________________________________________________________________


    FINAL DOCKED STATE:
    ________________________


Run:   9 / 20
Time taken for this run:   0.073s

DOCKED: MODEL        9
DOCKED: USER    Run = 9
DOCKED: USER
DOCKED: USER    Estimated Free Energy of Binding    =  -7.27 kcal/mol  [=(1)+(2)+(3)-(4)]
DOCKED: USER
DOCKED: USER    (1) Final Intermolecular Energy     = -10.26 kcal/mol
DOCKED: USER        vdW + Hbond + desolv Energy     = -10.27 kcal/mol
DOCKED: USER        Electrostatic Energy            =  +0.01 kcal/mol
DOCKED: USER        Moving Ligand-Fixed Receptor    = -10.26 kcal/mol
DOCKED: USER        Moving Ligand-Moving Receptor   =  +0.00 kcal/mol
DOCKED: USER    (2) Final Total Internal Energy     =  -2.33 kcal/mol
DOCKED: USER    (3) Torsional Free Energy           =  +2.98 kcal/mol
DOCKED: USER    (4) Unbound System's Energy         =  -2.33 kcal/mol
DOCKED: USER
DOCKED: USER
DOCKED: REMARK SMILES O/C(=C\N=C(\O)c1ccc2cc(Cl)ccc2n1)N1CC[C@H](O)[C@H]1Cc1ccccc1
DOCKED: REMARK SMILES IDX 3 1 2 2 1 3 18 5 19 6 23 7 20 8 21 9 24 10 25 11 26 12 30 13
DOCKED: REMARK SMILES IDX 27 14 29 15 28 16 22 17 4 19 5 20 6 21 7 23 17 24 8 25 16 26
DOCKED: REMARK SMILES IDX 9 27 15 28 10 29 14 30 11 31 12 32 13 33
DOCKED: REMARK H PARENT 1 4 22 18 6 22
DOCKED: USER                              x       y       z     vdW  Elec       q    Type
DOCKED: USER                           _______ _______ _______ _____ _____    ______ ____
DOCKED: ROOT
DOCKED: ATOM      1  C   UNL     1     137.741  74.084 221.704 -0.12 -0.05    +0.181 C  
DOCKED: ENDROOT
DOCKED: BRANCH   1   2
DOCKED: ATOM      2  C   UNL     1     137.732  75.361 221.290 -0.11 -0.05    +0.206 C  
DOCKED: BRANCH   2   3
DOCKED: ATOM      3  O   UNL     1     136.535  76.080 221.220 -0.00 +0.09    -0.494 OA 
DOCKED: ATOM      4  H   UNL     1     135.676  75.770 221.659 +0.05 -0.05    +0.295 HD 
DOCKED: ENDBRANCH   2   3
DOCKED: BRANCH   2   5
DOCKED: ATOM      5  N   UNL     1     138.949  76.021 220.898 -0.05 +0.08    -0.336 N  
DOCKED: ATOM      6  C   UNL     1     139.247  76.296 219.502 -0.04 -0.03    +0.123 C  
DOCKED: ATOM      7  C   UNL     1     139.976  76.528 221.808 -0.30 -0.03    +0.118 C  
DOCKED: ATOM      8  C   UNL     1     140.567  77.058 219.497 -0.12 -0.02    +0.055 C  
DOCKED: ATOM      9  C   UNL     1     141.170  76.853 220.892 -0.24 -0.06    +0.139 C  
DOCKED: BRANCH   7  10
DOCKED: ATOM     10  C   UNL     1     139.483  77.797 222.541 -0.29 -0.01    +0.063 C  
DOCKED: BRANCH  10  11
DOCKED: ATOM     11  C   UNL     1     140.564  78.841 222.663 -0.39 +0.01    -0.046 A  
DOCKED: ATOM     12  C   UNL     1     140.624  79.920 221.765 -0.30 -0.00    +0.004 A  
DOCKED: ATOM     13  C   UNL     1     141.500  78.763 223.707 -0.59 -0.00    +0.004 A  
DOCKED: ATOM     14  C   UNL     1     141.592  80.917 221.926 -0.45 -0.00    +0.000 A  
DOCKED: ATOM     15  C   UNL     1     142.468  79.759 223.864 -0.58 -0.00    +0.000 A  
DOCKED: ATOM     16  C   UNL     1     142.511  80.838 222.976 -0.61 -0.00    +0.000 A  
DOCKED: ENDBRANCH  10  11
DOCKED: ENDBRANCH   7  10
DOCKED: BRANCH   9  17
DOCKED: ATOM     17  O   UNL     1     142.099  75.796 220.883 -0.10 +0.21    -0.391 OA 
DOCKED: ATOM     18  H   UNL     1     142.318  75.570 221.827 -0.47 -0.14    +0.211 HD 
DOCKED: ENDBRANCH   9  17
DOCKED: ENDBRANCH   2   5
DOCKED: ENDBRANCH   1   2
DOCKED: BRANCH   1  19
DOCKED: ATOM     19  N   UNL     1     138.862  73.238 221.416 -0.12 +0.05    -0.215 NA 
DOCKED: BRANCH  19  20
DOCKED: ATOM     20  C   UNL     1     139.914  73.017 222.154 -0.19 -0.03    +0.237 C  
DOCKED: BRANCH  20  21
DOCKED: ATOM     21  O   UNL     1     141.031  73.831 221.976 -0.57 +0.00    -0.492 OA 
DOCKED: ATOM     22  H   UNL     1     141.124  74.710 222.473 +0.14 +0.05    +0.295 HD 
DOCKED: ENDBRANCH  20  21
DOCKED: BRANCH  20  23
DOCKED: ATOM     23  C   UNL     1     139.984  71.966 223.195 -0.29 -0.02    +0.126 A  
DOCKED: ATOM     24  N   UNL     1     140.469  72.242 224.438 -0.01 +0.04    -0.243 NA 
DOCKED: ATOM     25  C   UNL     1     139.465  70.690 222.923 -0.25 -0.01    +0.035 A  
DOCKED: ATOM     26  C   UNL     1     140.503  71.304 225.423 -0.51 -0.01    +0.071 A  
DOCKED: ATOM     27  C   UNL     1     139.487  69.707 223.913 -0.29 -0.00    +0.013 A  
DOCKED: ATOM     28  C   UNL     1     141.025  71.622 226.682 -0.71 -0.00    +0.030 A  
DOCKED: ATOM     29  C   UNL     1     140.012  70.003 225.176 -0.44 -0.00    +0.002 A  
DOCKED: ATOM     30  C   UNL     1     141.062  70.655 227.691 -0.63 -0.00    +0.023 A  
DOCKED: ATOM     31  C   UNL     1     140.053  69.037 226.193 -0.51 -0.01    +0.030 A  
DOCKED: ATOM     32  C   UNL     1     140.579  69.364 227.448 -0.58 -0.01    +0.041 A  
DOCKED: ATOM     33  Cl  UNL     1     140.633  68.154 228.716 -0.59 +0.02    -0.084 Cl 
DOCKED: ENDBRANCH  20  23
DOCKED: ENDBRANCH  19  20
DOCKED: ENDBRANCH   1  19
DOCKED: TORSDOF 10
DOCKED: TER
DOCKED: ENDMDL
________________________________________________________________________________


    FINAL DOCKED STATE:
    ________________________


Run:   10 / 20
Time taken for this run:   0.073s

DOCKED: MODEL        10
DOCKED: USER    Run = 10
DOCKED: USER
DOCKED: USER    Estimated Free Energy of Binding    =  -8.87 kcal/mol  [=(1)+(2)+(3)-(4)]
DOCKED: USER
DOCKED: USER    (1) Final Intermolecular Energy     = -11.86 kcal/mol
DOCKED: USER        vdW + Hbond + desolv Energy     = -11.68 kcal/mol
DOCKED: USER        Electrostatic Energy            =  -0.18 kcal/mol
DOCKED: USER        Moving Ligand-Fixed Receptor    = -11.86 kcal/mol
DOCKED: USER        Moving Ligand-Moving Receptor   =  +0.00 kcal/mol
DOCKED: USER    (2) Final Total Internal Energy     =  -1.88 kcal/mol
DOCKED: USER    (3) Torsional Free Energy           =  +2.98 kcal/mol
DOCKED: USER    (4) Unbound System's Energy         =  -1.88 kcal/mol
DOCKED: USER
DOCKED: USER
DOCKED: REMARK SMILES O/C(=C\N=C(\O)c1ccc2cc(Cl)ccc2n1)N1CC[C@H](O)[C@H]1Cc1ccccc1
DOCKED: REMARK SMILES IDX 3 1 2 2 1 3 18 5 19 6 23 7 20 8 21 9 24 10 25 11 26 12 30 13
DOCKED: REMARK SMILES IDX 27 14 29 15 28 16 22 17 4 19 5 20 6 21 7 23 17 24 8 25 16 26
DOCKED: REMARK SMILES IDX 9 27 15 28 10 29 14 30 11 31 12 32 13 33
DOCKED: REMARK H PARENT 1 4 22 18 6 22
DOCKED: USER                              x       y       z     vdW  Elec       q    Type
DOCKED: USER                           _______ _______ _______ _____ _____    ______ ____
DOCKED: ROOT
DOCKED: ATOM      1  C   UNL     1     140.122  72.582 220.831 -0.12 -0.03    +0.181 C  
DOCKED: ENDROOT
DOCKED: BRANCH   1   2
DOCKED: ATOM      2  C   UNL     1     140.333  73.861 221.177 -0.19 -0.03    +0.206 C  
DOCKED: BRANCH   2   3
DOCKED: ATOM      3  O   UNL     1     139.773  74.387 222.345 -0.70 +0.04    -0.494 OA 
DOCKED: ATOM      4  H   UNL     1     138.956  73.989 222.794 -0.49 -0.12    +0.295 HD 
DOCKED: ENDBRANCH   2   3
DOCKED: BRANCH   2   5
DOCKED: ATOM      5  N   UNL     1     141.133  74.730 220.354 -0.08 +0.09    -0.336 N  
DOCKED: ATOM      6  C   UNL     1     141.320  74.469 218.936 -0.07 -0.03    +0.123 C  
DOCKED: ATOM      7  C   UNL     1     141.790  75.959 220.796 -0.18 -0.06    +0.118 C  
DOCKED: ATOM      8  C   UNL     1     142.153  75.629 218.403 -0.15 -0.02    +0.055 C  
DOCKED: ATOM      9  C   UNL     1     142.738  76.323 219.639 -0.30 -0.08    +0.139 C  
DOCKED: BRANCH   7  10
DOCKED: ATOM     10  C   UNL     1     140.753  77.082 221.033 -0.26 -0.02    +0.063 C  
DOCKED: BRANCH  10  11
DOCKED: ATOM     11  C   UNL     1     141.325  78.227 221.829 -0.37 +0.02    -0.046 A  
DOCKED: ATOM     12  C   UNL     1     141.774  79.393 221.187 -0.38 -0.00    +0.004 A  
DOCKED: ATOM     13  C   UNL     1     141.375  78.152 223.230 -0.50 -0.00    +0.004 A  
DOCKED: ATOM     14  C   UNL     1     142.244  80.475 221.939 -0.50 -0.00    +0.000 A  
DOCKED: ATOM     15  C   UNL     1     141.847  79.233 223.979 -0.60 -0.00    +0.000 A  
DOCKED: ATOM     16  C   UNL     1     142.277  80.397 223.334 -0.65 -0.00    +0.000 A  
DOCKED: ENDBRANCH  10  11
DOCKED: ENDBRANCH   7  10
DOCKED: BRANCH   9  17
DOCKED: ATOM     17  O   UNL     1     144.044  75.866 219.895 -0.28 +0.27    -0.391 OA 
DOCKED: ATOM     18  H   UNL     1     144.487  75.694 219.021 -0.22 -0.16    +0.211 HD 
DOCKED: ENDBRANCH   9  17
DOCKED: ENDBRANCH   2   5
DOCKED: ENDBRANCH   1   2
DOCKED: BRANCH   1  19
DOCKED: ATOM     19  N   UNL     1     138.920  71.913 221.233 -0.06 +0.04    -0.215 NA 
DOCKED: BRANCH  19  20
DOCKED: ATOM     20  C   UNL     1     138.382  71.868 222.421 -0.13 -0.06    +0.237 C  
DOCKED: BRANCH  20  21
DOCKED: ATOM     21  O   UNL     1     137.267  72.664 222.673 -0.05 +0.17    -0.492 OA 
DOCKED: ATOM     22  H   UNL     1     137.164  73.160 223.551 -0.47 -0.19    +0.295 HD 
DOCKED: ENDBRANCH  20  21
DOCKED: BRANCH  20  23
DOCKED: ATOM     23  C   UNL     1     138.870  70.995 223.514 -0.25 -0.03    +0.126 A  
DOCKED: ATOM     24  N   UNL     1     139.530  71.518 224.585 -0.23 +0.06    -0.243 NA 
DOCKED: ATOM     25  C   UNL     1     138.575  69.624 223.485 -0.25 -0.01    +0.035 A  
DOCKED: ATOM     26  C   UNL     1     139.950  70.742 225.622 -0.46 -0.01    +0.071 A  
DOCKED: ATOM     27  C   UNL     1     138.994  68.802 224.532 -0.36 -0.00    +0.013 A  
DOCKED: ATOM     28  C   UNL     1     140.639  71.314 226.697 -0.66 -0.01    +0.030 A  
DOCKED: ATOM     29  C   UNL     1     139.691  69.353 225.613 -0.45 -0.00    +0.002 A  
DOCKED: ATOM     30  C   UNL     1     141.072  70.512 227.758 -0.62 -0.00    +0.023 A  
DOCKED: ATOM     31  C   UNL     1     140.129  68.555 226.680 -0.59 -0.01    +0.030 A  
DOCKED: ATOM     32  C   UNL     1     140.820  69.136 227.750 -0.59 -0.01    +0.041 A  
DOCKED: ATOM     33  Cl  UNL     1     141.371  68.137 229.082 -0.48 +0.02    -0.084 Cl 
DOCKED: ENDBRANCH  20  23
DOCKED: ENDBRANCH  19  20
DOCKED: ENDBRANCH   1  19
DOCKED: TORSDOF 10
DOCKED: TER
DOCKED: ENDMDL
________________________________________________________________________________


    FINAL DOCKED STATE:
    ________________________


Run:   11 / 20
Time taken for this run:   0.073s

DOCKED: MODEL        11
DOCKED: USER    Run = 11
DOCKED: USER
DOCKED: USER    Estimated Free Energy of Binding    =  -8.91 kcal/mol  [=(1)+(2)+(3)-(4)]
DOCKED: USER
DOCKED: USER    (1) Final Intermolecular Energy     = -11.89 kcal/mol
DOCKED: USER        vdW + Hbond + desolv Energy     = -11.73 kcal/mol
DOCKED: USER        Electrostatic Energy            =  -0.16 kcal/mol
DOCKED: USER        Moving Ligand-Fixed Receptor    = -11.89 kcal/mol
DOCKED: USER        Moving Ligand-Moving Receptor   =  +0.00 kcal/mol
DOCKED: USER    (2) Final Total Internal Energy     =  -2.29 kcal/mol
DOCKED: USER    (3) Torsional Free Energy           =  +2.98 kcal/mol
DOCKED: USER    (4) Unbound System's Energy         =  -2.29 kcal/mol
DOCKED: USER
DOCKED: USER
DOCKED: REMARK SMILES O/C(=C\N=C(\O)c1ccc2cc(Cl)ccc2n1)N1CC[C@H](O)[C@H]1Cc1ccccc1
DOCKED: REMARK SMILES IDX 3 1 2 2 1 3 18 5 19 6 23 7 20 8 21 9 24 10 25 11 26 12 30 13
DOCKED: REMARK SMILES IDX 27 14 29 15 28 16 22 17 4 19 5 20 6 21 7 23 17 24 8 25 16 26
DOCKED: REMARK SMILES IDX 9 27 15 28 10 29 14 30 11 31 12 32 13 33
DOCKED: REMARK H PARENT 1 4 22 18 6 22
DOCKED: USER                              x       y       z     vdW  Elec       q    Type
DOCKED: USER                           _______ _______ _______ _____ _____    ______ ____
DOCKED: ROOT
DOCKED: ATOM      1  C   UNL     1     139.636  73.192 220.396 -0.08 -0.03    +0.181 C  
DOCKED: ENDROOT
DOCKED: BRANCH   1   2
DOCKED: ATOM      2  C   UNL     1     139.974  74.332 221.019 -0.17 -0.04    +0.206 C  
DOCKED: BRANCH   2   3
DOCKED: ATOM      3  O   UNL     1     139.632  74.543 222.358 -0.67 +0.06    -0.494 OA 
DOCKED: ATOM      4  H   UNL     1     139.435  73.788 223.004 -0.42 -0.07    +0.295 HD 
DOCKED: ENDBRANCH   2   3
DOCKED: BRANCH   2   5
DOCKED: ATOM      5  N   UNL     1     140.689  75.371 220.326 -0.06 +0.10    -0.336 N  
DOCKED: ATOM      6  C   UNL     1     140.707  75.441 218.874 -0.06 -0.04    +0.123 C  
DOCKED: ATOM      7  C   UNL     1     141.416  76.473 220.956 -0.23 -0.06    +0.118 C  
DOCKED: ATOM      8  C   UNL     1     141.494  76.698 218.524 -0.14 -0.02    +0.055 C  
DOCKED: ATOM      9  C   UNL     1     142.230  77.097 219.808 -0.27 -0.09    +0.139 C  
DOCKED: BRANCH   7  10
DOCKED: ATOM     10  C   UNL     1     140.434  77.505 221.559 -0.29 -0.02    +0.063 C  
DOCKED: BRANCH  10  11
DOCKED: ATOM     11  C   UNL     1     141.148  78.699 222.139 -0.39 +0.02    -0.046 A  
DOCKED: ATOM     12  C   UNL     1     141.574  78.699 223.478 -0.60 -0.00    +0.004 A  
DOCKED: ATOM     13  C   UNL     1     141.431  79.809 221.328 -0.37 -0.00    +0.004 A  
DOCKED: ATOM     14  C   UNL     1     142.292  79.786 223.989 -0.56 -0.00    +0.000 A  
DOCKED: ATOM     15  C   UNL     1     142.146  80.895 221.842 -0.47 -0.00    +0.000 A  
DOCKED: ATOM     16  C   UNL     1     142.581  80.881 223.170 -0.63 -0.00    +0.000 A  
DOCKED: ENDBRANCH  10  11
DOCKED: ENDBRANCH   7  10
DOCKED: BRANCH   9  17
DOCKED: ATOM     17  O   UNL     1     143.549  76.605 219.801 -0.25 +0.31    -0.391 OA 
DOCKED: ATOM     18  H   UNL     1     144.139  77.301 220.198 -0.47 -0.26    +0.211 HD 
DOCKED: ENDBRANCH   9  17
DOCKED: ENDBRANCH   2   5
DOCKED: ENDBRANCH   1   2
DOCKED: BRANCH   1  19
DOCKED: ATOM     19  N   UNL     1     139.263  72.036 221.157 -0.07 +0.04    -0.215 NA 
DOCKED: BRANCH  19  20
DOCKED: ATOM     20  C   UNL     1     138.675  71.992 222.320 -0.14 -0.06    +0.237 C  
DOCKED: BRANCH  20  21
DOCKED: ATOM     21  O   UNL     1     137.566  72.809 222.532 -0.03 +0.17    -0.492 OA 
DOCKED: ATOM     22  H   UNL     1     137.672  73.760 222.867 -0.45 -0.17    +0.295 HD 
DOCKED: ENDBRANCH  20  21
DOCKED: BRANCH  20  23
DOCKED: ATOM     23  C   UNL     1     139.097  71.100 223.424 -0.26 -0.03    +0.126 A  
DOCKED: ATOM     24  N   UNL     1     139.704  71.602 224.536 -0.21 +0.06    -0.243 NA 
DOCKED: ATOM     25  C   UNL     1     138.794  69.731 223.360 -0.24 -0.01    +0.035 A  
DOCKED: ATOM     26  C   UNL     1     140.062  70.808 225.582 -0.47 -0.01    +0.071 A  
DOCKED: ATOM     27  C   UNL     1     139.151  68.891 224.415 -0.34 -0.00    +0.013 A  
DOCKED: ATOM     28  C   UNL     1     140.697  71.359 226.700 -0.67 -0.01    +0.030 A  
DOCKED: ATOM     29  C   UNL     1     139.794  69.421 225.540 -0.45 -0.00    +0.002 A  
DOCKED: ATOM     30  C   UNL     1     141.069  70.539 227.771 -0.62 -0.00    +0.023 A  
DOCKED: ATOM     31  C   UNL     1     140.169  68.605 226.617 -0.58 -0.01    +0.030 A  
DOCKED: ATOM     32  C   UNL     1     140.807  69.165 227.729 -0.59 -0.01    +0.041 A  
DOCKED: ATOM     33  Cl  UNL     1     141.279  68.142 229.074 -0.48 +0.02    -0.084 Cl 
DOCKED: ENDBRANCH  20  23
DOCKED: ENDBRANCH  19  20
DOCKED: ENDBRANCH   1  19
DOCKED: TORSDOF 10
DOCKED: TER
DOCKED: ENDMDL
________________________________________________________________________________


    FINAL DOCKED STATE:
    ________________________


Run:   12 / 20
Time taken for this run:   0.073s

DOCKED: MODEL        12
DOCKED: USER    Run = 12
DOCKED: USER
DOCKED: USER    Estimated Free Energy of Binding    =  -7.33 kcal/mol  [=(1)+(2)+(3)-(4)]
DOCKED: USER
DOCKED: USER    (1) Final Intermolecular Energy     = -10.31 kcal/mol
DOCKED: USER        vdW + Hbond + desolv Energy     = -10.14 kcal/mol
DOCKED: USER        Electrostatic Energy            =  -0.17 kcal/mol
DOCKED: USER        Moving Ligand-Fixed Receptor    = -10.31 kcal/mol
DOCKED: USER        Moving Ligand-Moving Receptor   =  +0.00 kcal/mol
DOCKED: USER    (2) Final Total Internal Energy     =  -2.55 kcal/mol
DOCKED: USER    (3) Torsional Free Energy           =  +2.98 kcal/mol
DOCKED: USER    (4) Unbound System's Energy         =  -2.55 kcal/mol
DOCKED: USER
DOCKED: USER
DOCKED: REMARK SMILES O/C(=C\N=C(\O)c1ccc2cc(Cl)ccc2n1)N1CC[C@H](O)[C@H]1Cc1ccccc1
DOCKED: REMARK SMILES IDX 3 1 2 2 1 3 18 5 19 6 23 7 20 8 21 9 24 10 25 11 26 12 30 13
DOCKED: REMARK SMILES IDX 27 14 29 15 28 16 22 17 4 19 5 20 6 21 7 23 17 24 8 25 16 26
DOCKED: REMARK SMILES IDX 9 27 15 28 10 29 14 30 11 31 12 32 13 33
DOCKED: REMARK H PARENT 1 4 22 18 6 22
DOCKED: USER                              x       y       z     vdW  Elec       q    Type
DOCKED: USER                           _______ _______ _______ _____ _____    ______ ____
DOCKED: ROOT
DOCKED: ATOM      1  C   UNL     1     140.069  72.919 220.826 -0.13 -0.03    +0.181 C  
DOCKED: ENDROOT
DOCKED: BRANCH   1   2
DOCKED: ATOM      2  C   UNL     1     140.589  71.869 221.480 -0.17 -0.03    +0.206 C  
DOCKED: BRANCH   2   3
DOCKED: ATOM      3  O   UNL     1     141.900  71.451 221.233 -0.03 +0.05    -0.494 OA 
DOCKED: ATOM      4  H   UNL     1     142.374  71.609 220.352 +0.10 -0.04    +0.295 HD 
DOCKED: ENDBRANCH   2   3
DOCKED: BRANCH   2   5
DOCKED: ATOM      5  N   UNL     1     139.812  71.139 222.447 -0.11 +0.06    -0.336 N  
DOCKED: ATOM      6  C   UNL     1     139.138  69.899 222.098 -0.14 -0.02    +0.123 C  
DOCKED: ATOM      7  C   UNL     1     139.644  71.500 223.855 -0.31 -0.03    +0.118 C  
DOCKED: ATOM      8  C   UNL     1     138.491  69.398 223.383 -0.24 -0.01    +0.055 C  
DOCKED: ATOM      9  C   UNL     1     138.504  70.589 224.347 -0.25 -0.03    +0.139 C  
DOCKED: BRANCH   7  10
DOCKED: ATOM     10  C   UNL     1     140.944  71.233 224.649 -0.34 -0.01    +0.063 C  
DOCKED: BRANCH  10  11
DOCKED: ATOM     11  C   UNL     1     140.680  70.525 225.954 -0.54 +0.01    -0.046 A  
DOCKED: ATOM     12  C   UNL     1     140.338  71.252 227.107 -0.66 -0.00    +0.004 A  
DOCKED: ATOM     13  C   UNL     1     140.733  69.124 226.015 -0.52 -0.00    +0.004 A  
DOCKED: ATOM     14  C   UNL     1     140.032  70.582 228.296 -0.63 -0.00    +0.000 A  
DOCKED: ATOM     15  C   UNL     1     140.430  68.457 227.206 -0.66 -0.00    +0.000 A  
DOCKED: ATOM     16  C   UNL     1     140.075  69.186 228.345 -0.64 -0.00    +0.000 A  
DOCKED: ENDBRANCH  10  11
DOCKED: ENDBRANCH   7  10
DOCKED: BRANCH   9  17
DOCKED: ATOM     17  O   UNL     1     137.271  71.267 224.319 -0.06 +0.09    -0.391 OA 
DOCKED: ATOM     18  H   UNL     1     137.457  72.243 224.272 -0.44 -0.11    +0.211 HD 
DOCKED: ENDBRANCH   9  17
DOCKED: ENDBRANCH   2   5
DOCKED: ENDBRANCH   1   2
DOCKED: BRANCH   1  19
DOCKED: ATOM     19  N   UNL     1     138.666  73.202 220.911 -0.06 +0.05    -0.215 NA 
DOCKED: BRANCH  19  20
DOCKED: ATOM     20  C   UNL     1     138.041  73.914 221.807 -0.10 -0.07    +0.237 C  
DOCKED: BRANCH  20  21
DOCKED: ATOM     21  O   UNL     1     136.966  73.338 222.480 -0.04 +0.16    -0.492 OA 
DOCKED: ATOM     22  H   UNL     1     136.964  73.252 223.490 -0.48 -0.16    +0.295 HD 
DOCKED: ENDBRANCH  20  21
DOCKED: BRANCH  20  23
DOCKED: ATOM     23  C   UNL     1     138.427  75.296 222.175 -0.20 -0.03    +0.126 A  
DOCKED: ATOM     24  N   UNL     1     139.716  75.720 222.052 -0.36 +0.05    -0.243 NA 
DOCKED: ATOM     25  C   UNL     1     137.436  76.205 222.575 -0.26 -0.01    +0.035 A  
DOCKED: ATOM     26  C   UNL     1     140.086  76.997 222.343 -0.36 -0.02    +0.071 A  
DOCKED: ATOM     27  C   UNL     1     137.784  77.521 222.882 -0.21 -0.00    +0.013 A  
DOCKED: ATOM     28  C   UNL     1     141.423  77.390 222.220 -0.14 -0.02    +0.030 A  
DOCKED: ATOM     29  C   UNL     1     139.117  77.932 222.773 -0.30 -0.00    +0.002 A  
DOCKED: ATOM     30  C   UNL     1     141.800  78.701 222.524 -0.48 -0.01    +0.023 A  
DOCKED: ATOM     31  C   UNL     1     139.502  79.246 223.076 -0.36 -0.01    +0.030 A  
DOCKED: ATOM     32  C   UNL     1     140.843  79.628 222.953 -0.44 -0.01    +0.041 A  
DOCKED: ATOM     33  Cl  UNL     1     141.324  81.270 223.337 -0.60 +0.01    -0.084 Cl 
DOCKED: ENDBRANCH  20  23
DOCKED: ENDBRANCH  19  20
DOCKED: ENDBRANCH   1  19
DOCKED: TORSDOF 10
DOCKED: TER
DOCKED: ENDMDL
________________________________________________________________________________


    FINAL DOCKED STATE:
    ________________________


Run:   13 / 20
Time taken for this run:   0.073s

DOCKED: MODEL        13
DOCKED: USER    Run = 13
DOCKED: USER
DOCKED: USER    Estimated Free Energy of Binding    =  -8.86 kcal/mol  [=(1)+(2)+(3)-(4)]
DOCKED: USER
DOCKED: USER    (1) Final Intermolecular Energy     = -11.84 kcal/mol
DOCKED: USER        vdW + Hbond + desolv Energy     = -11.69 kcal/mol
DOCKED: USER        Electrostatic Energy            =  -0.15 kcal/mol
DOCKED: USER        Moving Ligand-Fixed Receptor    = -11.84 kcal/mol
DOCKED: USER        Moving Ligand-Moving Receptor   =  +0.00 kcal/mol
DOCKED: USER    (2) Final Total Internal Energy     =  -2.34 kcal/mol
DOCKED: USER    (3) Torsional Free Energy           =  +2.98 kcal/mol
DOCKED: USER    (4) Unbound System's Energy         =  -2.34 kcal/mol
DOCKED: USER
DOCKED: USER
DOCKED: REMARK SMILES O/C(=C\N=C(\O)c1ccc2cc(Cl)ccc2n1)N1CC[C@H](O)[C@H]1Cc1ccccc1
DOCKED: REMARK SMILES IDX 3 1 2 2 1 3 18 5 19 6 23 7 20 8 21 9 24 10 25 11 26 12 30 13
DOCKED: REMARK SMILES IDX 27 14 29 15 28 16 22 17 4 19 5 20 6 21 7 23 17 24 8 25 16 26
DOCKED: REMARK SMILES IDX 9 27 15 28 10 29 14 30 11 31 12 32 13 33
DOCKED: REMARK H PARENT 1 4 22 18 6 22
DOCKED: USER                              x       y       z     vdW  Elec       q    Type
DOCKED: USER                           _______ _______ _______ _____ _____    ______ ____
DOCKED: ROOT
DOCKED: ATOM      1  C   UNL     1     139.923  72.855 220.491 -0.09 -0.03    +0.181 C  
DOCKED: ENDROOT
DOCKED: BRANCH   1   2
DOCKED: ATOM      2  C   UNL     1     140.162  74.049 221.054 -0.18 -0.04    +0.206 C  
DOCKED: BRANCH   2   3
DOCKED: ATOM      3  O   UNL     1     139.764  74.311 222.369 -0.68 +0.04    -0.494 OA 
DOCKED: ATOM      4  H   UNL     1     139.569  73.581 223.044 -0.40 -0.06    +0.295 HD 
DOCKED: ENDBRANCH   2   3
DOCKED: BRANCH   2   5
DOCKED: ATOM      5  N   UNL     1     140.824  75.096 220.321 -0.07 +0.09    -0.336 N  
DOCKED: ATOM      6  C   UNL     1     140.845  75.106 218.868 -0.06 -0.04    +0.123 C  
DOCKED: ATOM      7  C   UNL     1     141.487  76.260 220.907 -0.22 -0.05    +0.118 C  
DOCKED: ATOM      8  C   UNL     1     141.567  76.388 218.469 -0.13 -0.02    +0.055 C  
DOCKED: ATOM      9  C   UNL     1     142.273  76.880 219.737 -0.27 -0.08    +0.139 C  
DOCKED: BRANCH   7  10
DOCKED: ATOM     10  C   UNL     1     140.448  77.262 221.464 -0.29 -0.02    +0.063 C  
DOCKED: BRANCH  10  11
DOCKED: ATOM     11  C   UNL     1     141.100  78.458 222.111 -0.39 +0.02    -0.046 A  
DOCKED: ATOM     12  C   UNL     1     141.475  78.426 223.464 -0.56 -0.00    +0.004 A  
DOCKED: ATOM     13  C   UNL     1     141.375  79.604 221.348 -0.36 -0.00    +0.004 A  
DOCKED: ATOM     14  C   UNL     1     142.136  79.517 224.038 -0.54 -0.00    +0.000 A  
DOCKED: ATOM     15  C   UNL     1     142.034  80.694 221.924 -0.48 -0.00    +0.000 A  
DOCKED: ATOM     16  C   UNL     1     142.419  80.648 223.268 -0.65 -0.00    +0.000 A  
DOCKED: ENDBRANCH  10  11
DOCKED: ENDBRANCH   7  10
DOCKED: BRANCH   9  17
DOCKED: ATOM     17  O   UNL     1     143.616  76.459 219.755 -0.27 +0.30    -0.391 OA 
DOCKED: ATOM     18  H   UNL     1     144.176  77.229 220.043 -0.48 -0.24    +0.211 HD 
DOCKED: ENDBRANCH   9  17
DOCKED: ENDBRANCH   2   5
DOCKED: ENDBRANCH   1   2
DOCKED: BRANCH   1  19
DOCKED: ATOM     19  N   UNL     1     139.042  71.919 221.125 -0.06 +0.04    -0.215 NA 
DOCKED: BRANCH  19  20
DOCKED: ATOM     20  C   UNL     1     138.566  71.956 222.339 -0.14 -0.06    +0.237 C  
DOCKED: BRANCH  20  21
DOCKED: ATOM     21  O   UNL     1     137.544  72.860 222.622 -0.01 +0.18    -0.492 OA 
DOCKED: ATOM     22  H   UNL     1     137.748  73.814 222.898 -0.46 -0.18    +0.295 HD 
DOCKED: ENDBRANCH  20  21
DOCKED: BRANCH  20  23
DOCKED: ATOM     23  C   UNL     1     139.028  71.071 223.432 -0.25 -0.03    +0.126 A  
DOCKED: ATOM     24  N   UNL     1     139.637  71.583 224.538 -0.20 +0.06    -0.243 NA 
DOCKED: ATOM     25  C   UNL     1     138.760  69.695 223.366 -0.24 -0.01    +0.035 A  
DOCKED: ATOM     26  C   UNL     1     140.032  70.794 225.575 -0.47 -0.01    +0.071 A  
DOCKED: ATOM     27  C   UNL     1     139.153  68.860 224.412 -0.34 -0.00    +0.013 A  
DOCKED: ATOM     28  C   UNL     1     140.669  71.356 226.686 -0.66 -0.01    +0.030 A  
DOCKED: ATOM     29  C   UNL     1     139.799  69.401 225.530 -0.45 -0.00    +0.002 A  
DOCKED: ATOM     30  C   UNL     1     141.077  70.542 227.747 -0.62 -0.00    +0.023 A  
DOCKED: ATOM     31  C   UNL     1     140.211  68.590 226.597 -0.58 -0.01    +0.030 A  
DOCKED: ATOM     32  C   UNL     1     140.850  69.161 227.703 -0.59 -0.01    +0.041 A  
DOCKED: ATOM     33  Cl  UNL     1     141.369  68.146 229.035 -0.49 +0.02    -0.084 Cl 
DOCKED: ENDBRANCH  20  23
DOCKED: ENDBRANCH  19  20
DOCKED: ENDBRANCH   1  19
DOCKED: TORSDOF 10
DOCKED: TER
DOCKED: ENDMDL
________________________________________________________________________________


    FINAL DOCKED STATE:
    ________________________


Run:   14 / 20
Time taken for this run:   0.073s

DOCKED: MODEL        14
DOCKED: USER    Run = 14
DOCKED: USER
DOCKED: USER    Estimated Free Energy of Binding    =  -7.59 kcal/mol  [=(1)+(2)+(3)-(4)]
DOCKED: USER
DOCKED: USER    (1) Final Intermolecular Energy     = -10.57 kcal/mol
DOCKED: USER        vdW + Hbond + desolv Energy     = -10.41 kcal/mol
DOCKED: USER        Electrostatic Energy            =  -0.16 kcal/mol
DOCKED: USER        Moving Ligand-Fixed Receptor    = -10.57 kcal/mol
DOCKED: USER        Moving Ligand-Moving Receptor   =  +0.00 kcal/mol
DOCKED: USER    (2) Final Total Internal Energy     =  -2.30 kcal/mol
DOCKED: USER    (3) Torsional Free Energy           =  +2.98 kcal/mol
DOCKED: USER    (4) Unbound System's Energy         =  -2.30 kcal/mol
DOCKED: USER
DOCKED: USER
DOCKED: REMARK SMILES O/C(=C\N=C(\O)c1ccc2cc(Cl)ccc2n1)N1CC[C@H](O)[C@H]1Cc1ccccc1
DOCKED: REMARK SMILES IDX 3 1 2 2 1 3 18 5 19 6 23 7 20 8 21 9 24 10 25 11 26 12 30 13
DOCKED: REMARK SMILES IDX 27 14 29 15 28 16 22 17 4 19 5 20 6 21 7 23 17 24 8 25 16 26
DOCKED: REMARK SMILES IDX 9 27 15 28 10 29 14 30 11 31 12 32 13 33
DOCKED: REMARK H PARENT 1 4 22 18 6 22
DOCKED: USER                              x       y       z     vdW  Elec       q    Type
DOCKED: USER                           _______ _______ _______ _____ _____    ______ ____
DOCKED: ROOT
DOCKED: ATOM      1  C   UNL     1     140.449  72.718 220.979 -0.15 -0.03    +0.181 C  
DOCKED: ENDROOT
DOCKED: BRANCH   1   2
DOCKED: ATOM      2  C   UNL     1     140.280  71.407 221.208 -0.12 -0.03    +0.206 C  
DOCKED: BRANCH   2   3
DOCKED: ATOM      3  O   UNL     1     141.105  70.461 220.592 -0.01 +0.07    -0.494 OA 
DOCKED: ATOM      4  H   UNL     1     140.776  69.820 219.879 +0.05 -0.05    +0.295 HD 
DOCKED: ENDBRANCH   2   3
DOCKED: BRANCH   2   5
DOCKED: ATOM      5  N   UNL     1     139.241  70.936 222.086 -0.07 +0.06    -0.336 N  
DOCKED: ATOM      6  C   UNL     1     138.136  70.131 221.590 -0.08 -0.02    +0.123 C  
DOCKED: ATOM      7  C   UNL     1     139.184  71.148 223.532 -0.29 -0.03    +0.118 C  
DOCKED: ATOM      8  C   UNL     1     137.297  69.773 222.811 -0.15 -0.01    +0.055 C  
DOCKED: ATOM      9  C   UNL     1     137.757  70.721 223.923 -0.20 -0.03    +0.139 C  
DOCKED: BRANCH   7  10
DOCKED: ATOM     10  C   UNL     1     140.237  70.277 224.257 -0.26 -0.01    +0.063 C  
DOCKED: BRANCH  10  11
DOCKED: ATOM     11  C   UNL     1     140.436  70.699 225.690 -0.53 +0.01    -0.046 A  
DOCKED: ATOM     12  C   UNL     1     141.179  71.851 226.002 -0.59 -0.00    +0.004 A  
DOCKED: ATOM     13  C   UNL     1     139.843  69.963 226.727 -0.52 -0.00    +0.004 A  
DOCKED: ATOM     14  C   UNL     1     141.304  72.269 227.330 -0.82 -0.00    +0.000 A  
DOCKED: ATOM     15  C   UNL     1     139.972  70.382 228.055 -0.64 -0.00    +0.000 A  
DOCKED: ATOM     16  C   UNL     1     140.699  71.538 228.356 -0.75 -0.00    +0.000 A  
DOCKED: ENDBRANCH  10  11
DOCKED: ENDBRANCH   7  10
DOCKED: BRANCH   9  17
DOCKED: ATOM     17  O   UNL     1     136.905  71.838 224.011 -0.10 +0.11    -0.391 OA 
DOCKED: ATOM     18  H   UNL     1     137.442  72.651 223.811 -0.49 -0.13    +0.211 HD 
DOCKED: ENDBRANCH   9  17
DOCKED: ENDBRANCH   2   5
DOCKED: ENDBRANCH   1   2
DOCKED: BRANCH   1  19
DOCKED: ATOM     19  N   UNL     1     140.194  73.673 222.018 -0.75 +0.02    -0.215 NA 
DOCKED: BRANCH  19  20
DOCKED: ATOM     20  C   UNL     1     139.195  74.505 222.119 -0.07 -0.05    +0.237 C  
DOCKED: BRANCH  20  21
DOCKED: ATOM     21  O   UNL     1     137.904  73.984 222.181 -0.05 +0.17    -0.492 OA 
DOCKED: ATOM     22  H   UNL     1     137.483  73.728 223.066 -0.44 -0.18    +0.295 HD 
DOCKED: ENDBRANCH  20  21
DOCKED: BRANCH  20  23
DOCKED: ATOM     23  C   UNL     1     139.352  75.975 222.203 -0.28 -0.03    +0.126 A  
DOCKED: ATOM     24  N   UNL     1     140.496  76.582 221.781 -0.23 +0.07    -0.243 NA 
DOCKED: ATOM     25  C   UNL     1     138.277  76.760 222.646 -0.29 -0.01    +0.035 A  
DOCKED: ATOM     26  C   UNL     1     140.648  77.934 221.808 -0.31 -0.03    +0.071 A  
DOCKED: ATOM     27  C   UNL     1     138.402  78.149 222.687 -0.28 -0.00    +0.013 A  
DOCKED: ATOM     28  C   UNL     1     141.845  78.519 221.380 -0.35 -0.02    +0.030 A  
DOCKED: ATOM     29  C   UNL     1     139.594  78.753 222.271 -0.29 -0.00    +0.002 A  
DOCKED: ATOM     30  C   UNL     1     141.998  79.908 221.414 -0.39 -0.01    +0.023 A  
DOCKED: ATOM     31  C   UNL     1     139.755  80.146 222.303 -0.27 -0.01    +0.030 A  
DOCKED: ATOM     32  C   UNL     1     140.957  80.721 221.875 -0.35 -0.01    +0.041 A  
DOCKED: ATOM     33  Cl  UNL     1     141.158  82.462 221.919 -0.34 +0.01    -0.084 Cl 
DOCKED: ENDBRANCH  20  23
DOCKED: ENDBRANCH  19  20
DOCKED: ENDBRANCH   1  19
DOCKED: TORSDOF 10
DOCKED: TER
DOCKED: ENDMDL
________________________________________________________________________________


    FINAL DOCKED STATE:
    ________________________


Run:   15 / 20
Time taken for this run:   0.073s

DOCKED: MODEL        15
DOCKED: USER    Run = 15
DOCKED: USER
DOCKED: USER    Estimated Free Energy of Binding    =  -8.94 kcal/mol  [=(1)+(2)+(3)-(4)]
DOCKED: USER
DOCKED: USER    (1) Final Intermolecular Energy     = -11.92 kcal/mol
DOCKED: USER        vdW + Hbond + desolv Energy     = -11.41 kcal/mol
DOCKED: USER        Electrostatic Energy            =  -0.51 kcal/mol
DOCKED: USER        Moving Ligand-Fixed Receptor    = -11.92 kcal/mol
DOCKED: USER        Moving Ligand-Moving Receptor   =  +0.00 kcal/mol
DOCKED: USER    (2) Final Total Internal Energy     =  -1.26 kcal/mol
DOCKED: USER    (3) Torsional Free Energy           =  +2.98 kcal/mol
DOCKED: USER    (4) Unbound System's Energy         =  -1.26 kcal/mol
DOCKED: USER
DOCKED: USER
DOCKED: REMARK SMILES O/C(=C\N=C(\O)c1ccc2cc(Cl)ccc2n1)N1CC[C@H](O)[C@H]1Cc1ccccc1
DOCKED: REMARK SMILES IDX 3 1 2 2 1 3 18 5 19 6 23 7 20 8 21 9 24 10 25 11 26 12 30 13
DOCKED: REMARK SMILES IDX 27 14 29 15 28 16 22 17 4 19 5 20 6 21 7 23 17 24 8 25 16 26
DOCKED: REMARK SMILES IDX 9 27 15 28 10 29 14 30 11 31 12 32 13 33
DOCKED: REMARK H PARENT 1 4 22 18 6 22
DOCKED: USER                              x       y       z     vdW  Elec       q    Type
DOCKED: USER                           _______ _______ _______ _____ _____    ______ ____
DOCKED: ROOT
DOCKED: ATOM      1  C   UNL     1     140.945  73.322 219.721 -0.07 -0.04    +0.181 C  
DOCKED: ENDROOT
DOCKED: BRANCH   1   2
DOCKED: ATOM      2  C   UNL     1     141.931  72.704 219.052 -0.04 -0.04    +0.206 C  
DOCKED: BRANCH   2   3
DOCKED: ATOM      3  O   UNL     1     141.666  72.015 217.865 +0.02 +0.09    -0.494 OA 
DOCKED: ATOM      4  H   UNL     1     140.728  71.802 217.546 +0.02 -0.06    +0.295 HD 
DOCKED: ENDBRANCH   2   3
DOCKED: BRANCH   2   5
DOCKED: ATOM      5  N   UNL     1     143.285  72.725 219.540 -0.05 +0.05    -0.336 N  
DOCKED: ATOM      6  C   UNL     1     143.737  73.742 220.476 -0.32 -0.03    +0.123 C  
DOCKED: ATOM      7  C   UNL     1     144.323  71.747 219.220 -0.19 +0.01    +0.118 C  
DOCKED: ATOM      8  C   UNL     1     145.183  73.393 220.808 -0.56 -0.01    +0.055 C  
DOCKED: ATOM      9  C   UNL     1     145.624  72.389 219.737 -0.33 +0.05    +0.139 C  
DOCKED: BRANCH   7  10
DOCKED: ATOM     10  C   UNL     1     144.051  70.402 219.934 -0.18 +0.00    +0.063 C  
DOCKED: BRANCH  10  11
DOCKED: ATOM     11  C   UNL     1     144.861  69.273 219.351 -0.29 -0.01    -0.046 A  
DOCKED: ATOM     12  C   UNL     1     144.893  68.015 219.978 -0.41 +0.00    +0.004 A  
DOCKED: ATOM     13  C   UNL     1     145.559  69.459 218.147 -0.27 +0.00    +0.004 A  
DOCKED: ATOM     14  C   UNL     1     145.596  66.956 219.394 -0.55 -0.00    +0.000 A  
DOCKED: ATOM     15  C   UNL     1     146.263  68.399 217.568 -0.25 +0.00    +0.000 A  
DOCKED: ATOM     16  C   UNL     1     146.277  67.147 218.189 -0.46 -0.00    +0.000 A  
DOCKED: ENDBRANCH  10  11
DOCKED: ENDBRANCH   7  10
DOCKED: BRANCH   9  17
DOCKED: ATOM     17  O   UNL     1     146.312  73.040 218.696 -0.68 -0.45    -0.391 OA 
DOCKED: ATOM     18  H   UNL     1     146.137  74.016 218.775 -0.44 -0.01    +0.211 HD 
DOCKED: ENDBRANCH   9  17
DOCKED: ENDBRANCH   2   5
DOCKED: ENDBRANCH   1   2
DOCKED: BRANCH   1  19
DOCKED: ATOM     19  N   UNL     1     140.171  72.606 220.692 -0.08 +0.04    -0.215 NA 
DOCKED: BRANCH  19  20
DOCKED: ATOM     20  C   UNL     1     140.004  72.887 221.954 -0.21 -0.03    +0.237 C  
DOCKED: BRANCH  20  21
DOCKED: ATOM     21  O   UNL     1     139.723  74.205 222.308 -0.71 +0.05    -0.492 OA 
DOCKED: ATOM     22  H   UNL     1     139.211  74.424 223.154 -0.47 -0.11    +0.295 HD 
DOCKED: ENDBRANCH  20  21
DOCKED: BRANCH  20  23
DOCKED: ATOM     23  C   UNL     1     140.066  71.879 223.038 -0.30 -0.02    +0.126 A  
DOCKED: ATOM     24  N   UNL     1     140.517  72.213 224.279 -0.08 +0.03    -0.243 NA 
DOCKED: ATOM     25  C   UNL     1     139.574  70.586 222.806 -0.24 -0.01    +0.035 A  
DOCKED: ATOM     26  C   UNL     1     140.543  71.315 225.302 -0.50 -0.01    +0.071 A  
DOCKED: ATOM     27  C   UNL     1     139.589  69.643 223.834 -0.27 -0.00    +0.013 A  
DOCKED: ATOM     28  C   UNL     1     141.030  71.692 226.559 -0.70 -0.00    +0.030 A  
DOCKED: ATOM     29  C   UNL     1     140.079  69.997 225.096 -0.43 -0.00    +0.002 A  
DOCKED: ATOM     30  C   UNL     1     141.059  70.765 227.606 -0.64 -0.00    +0.023 A  
DOCKED: ATOM     31  C   UNL     1     140.111  69.073 226.151 -0.50 -0.01    +0.030 A  
DOCKED: ATOM     32  C   UNL     1     140.602  69.458 227.403 -0.57 -0.01    +0.041 A  
DOCKED: ATOM     33  Cl  UNL     1     140.646  68.301 228.720 -0.64 +0.02    -0.084 Cl 
DOCKED: ENDBRANCH  20  23
DOCKED: ENDBRANCH  19  20
DOCKED: ENDBRANCH   1  19
DOCKED: TORSDOF 10
DOCKED: TER
DOCKED: ENDMDL
________________________________________________________________________________


    FINAL DOCKED STATE:
    ________________________


Run:   16 / 20
Time taken for this run:   0.073s

DOCKED: MODEL        16
DOCKED: USER    Run = 16
DOCKED: USER
DOCKED: USER    Estimated Free Energy of Binding    =  -8.22 kcal/mol  [=(1)+(2)+(3)-(4)]
DOCKED: USER
DOCKED: USER    (1) Final Intermolecular Energy     = -11.20 kcal/mol
DOCKED: USER        vdW + Hbond + desolv Energy     = -10.77 kcal/mol
DOCKED: USER        Electrostatic Energy            =  -0.43 kcal/mol
DOCKED: USER        Moving Ligand-Fixed Receptor    = -11.20 kcal/mol
DOCKED: USER        Moving Ligand-Moving Receptor   =  +0.00 kcal/mol
DOCKED: USER    (2) Final Total Internal Energy     =  -2.31 kcal/mol
DOCKED: USER    (3) Torsional Free Energy           =  +2.98 kcal/mol
DOCKED: USER    (4) Unbound System's Energy         =  -2.31 kcal/mol
DOCKED: USER
DOCKED: USER
DOCKED: REMARK SMILES O/C(=C\N=C(\O)c1ccc2cc(Cl)ccc2n1)N1CC[C@H](O)[C@H]1Cc1ccccc1
DOCKED: REMARK SMILES IDX 3 1 2 2 1 3 18 5 19 6 23 7 20 8 21 9 24 10 25 11 26 12 30 13
DOCKED: REMARK SMILES IDX 27 14 29 15 28 16 22 17 4 19 5 20 6 21 7 23 17 24 8 25 16 26
DOCKED: REMARK SMILES IDX 9 27 15 28 10 29 14 30 11 31 12 32 13 33
DOCKED: REMARK H PARENT 1 4 22 18 6 22
DOCKED: USER                              x       y       z     vdW  Elec       q    Type
DOCKED: USER                           _______ _______ _______ _____ _____    ______ ____
DOCKED: ROOT
DOCKED: ATOM      1  C   UNL     1     141.683  74.497 220.875 -0.22 -0.05    +0.181 C  
DOCKED: ENDROOT
DOCKED: BRANCH   1   2
DOCKED: ATOM      2  C   UNL     1     142.233  73.682 219.962 -0.14 -0.05    +0.206 C  
DOCKED: BRANCH   2   3
DOCKED: ATOM      3  O   UNL     1     141.467  73.160 218.916 +0.02 +0.10    -0.494 OA 
DOCKED: ATOM      4  H   UNL     1     140.851  72.363 219.026 +0.05 -0.05    +0.295 HD 
DOCKED: ENDBRANCH   2   3
DOCKED: BRANCH   2   5
DOCKED: ATOM      5  N   UNL     1     143.623  73.316 220.037 -0.12 +0.07    -0.336 N  
DOCKED: ATOM      6  C   UNL     1     144.554  74.044 220.886 -0.27 -0.04    +0.123 C  
DOCKED: ATOM      7  C   UNL     1     144.248  72.189 219.347 -0.21 +0.00    +0.118 C  
DOCKED: ATOM      8  C   UNL     1     145.891  73.325 220.753 -0.63 -0.00    +0.055 C  
DOCKED: ATOM      9  C   UNL     1     145.759  72.426 219.518 -0.26 +0.07    +0.139 C  
DOCKED: BRANCH   7  10
DOCKED: ATOM     10  C   UNL     1     143.825  70.847 219.991 -0.21 -0.00    +0.063 C  
DOCKED: BRANCH  10  11
DOCKED: ATOM     11  C   UNL     1     144.552  69.672 219.389 -0.25 -0.01    -0.046 A  
DOCKED: ATOM     12  C   UNL     1     145.162  69.776 218.128 -0.22 +0.00    +0.004 A  
DOCKED: ATOM     13  C   UNL     1     144.660  68.471 220.108 -0.30 +0.00    +0.004 A  
DOCKED: ATOM     14  C   UNL     1     145.888  68.700 217.606 -0.26 +0.00    +0.000 A  
DOCKED: ATOM     15  C   UNL     1     145.384  67.396 219.583 -0.52 -0.00    +0.000 A  
DOCKED: ATOM     16  C   UNL     1     146.002  67.512 218.335 -0.45 -0.00    +0.000 A  
DOCKED: ENDBRANCH  10  11
DOCKED: ENDBRANCH   7  10
DOCKED: BRANCH   9  17
DOCKED: ATOM     17  O   UNL     1     146.301  73.057 218.383 -0.62 -0.47    -0.391 OA 
DOCKED: ATOM     18  H   UNL     1     146.234  74.041 218.516 -0.46 -0.01    +0.211 HD 
DOCKED: ENDBRANCH   9  17
DOCKED: ENDBRANCH   2   5
DOCKED: ENDBRANCH   1   2
DOCKED: BRANCH   1  19
DOCKED: ATOM     19  N   UNL     1     140.693  73.999 221.785 -0.63 +0.01    -0.215 NA 
DOCKED: BRANCH  19  20
DOCKED: ATOM     20  C   UNL     1     140.089  72.843 221.764 -0.20 -0.03    +0.237 C  
DOCKED: BRANCH  20  21
DOCKED: ATOM     21  O   UNL     1     139.398  72.477 220.611 -0.01 +0.09    -0.492 OA 
DOCKED: ATOM     22  H   UNL     1     139.485  73.012 219.755 +0.05 -0.06    +0.295 HD 
DOCKED: ENDBRANCH  20  21
DOCKED: BRANCH  20  23
DOCKED: ATOM     23  C   UNL     1     140.119  71.879 222.888 -0.29 -0.02    +0.126 A  
DOCKED: ATOM     24  N   UNL     1     140.581  72.248 224.115 -0.11 +0.03    -0.243 NA 
DOCKED: ATOM     25  C   UNL     1     139.586  70.593 222.708 -0.23 -0.01    +0.035 A  
DOCKED: ATOM     26  C   UNL     1     140.579  71.392 225.174 -0.49 -0.01    +0.071 A  
DOCKED: ATOM     27  C   UNL     1     139.570  69.693 223.774 -0.27 -0.00    +0.013 A  
DOCKED: ATOM     28  C   UNL     1     141.077  71.804 226.415 -0.68 -0.00    +0.030 A  
DOCKED: ATOM     29  C   UNL     1     140.072  70.082 225.021 -0.43 -0.00    +0.002 A  
DOCKED: ATOM     30  C   UNL     1     141.077  70.921 227.499 -0.67 -0.00    +0.023 A  
DOCKED: ATOM     31  C   UNL     1     140.075  69.202 226.113 -0.49 -0.01    +0.030 A  
DOCKED: ATOM     32  C   UNL     1     140.578  69.622 227.349 -0.56 -0.01    +0.041 A  
DOCKED: ATOM     33  Cl  UNL     1     140.585  68.518 228.712 -0.70 +0.02    -0.084 Cl 
DOCKED: ENDBRANCH  20  23
DOCKED: ENDBRANCH  19  20
DOCKED: ENDBRANCH   1  19
DOCKED: TORSDOF 10
DOCKED: TER
DOCKED: ENDMDL
________________________________________________________________________________


    FINAL DOCKED STATE:
    ________________________


Run:   17 / 20
Time taken for this run:   0.073s

DOCKED: MODEL        17
DOCKED: USER    Run = 17
DOCKED: USER
DOCKED: USER    Estimated Free Energy of Binding    =  -7.67 kcal/mol  [=(1)+(2)+(3)-(4)]
DOCKED: USER
DOCKED: USER    (1) Final Intermolecular Energy     = -10.66 kcal/mol
DOCKED: USER        vdW + Hbond + desolv Energy     = -10.49 kcal/mol
DOCKED: USER        Electrostatic Energy            =  -0.17 kcal/mol
DOCKED: USER        Moving Ligand-Fixed Receptor    = -10.66 kcal/mol
DOCKED: USER        Moving Ligand-Moving Receptor   =  +0.00 kcal/mol
DOCKED: USER    (2) Final Total Internal Energy     =  -2.42 kcal/mol
DOCKED: USER    (3) Torsional Free Energy           =  +2.98 kcal/mol
DOCKED: USER    (4) Unbound System's Energy         =  -2.42 kcal/mol
DOCKED: USER
DOCKED: USER
DOCKED: REMARK SMILES O/C(=C\N=C(\O)c1ccc2cc(Cl)ccc2n1)N1CC[C@H](O)[C@H]1Cc1ccccc1
DOCKED: REMARK SMILES IDX 3 1 2 2 1 3 18 5 19 6 23 7 20 8 21 9 24 10 25 11 26 12 30 13
DOCKED: REMARK SMILES IDX 27 14 29 15 28 16 22 17 4 19 5 20 6 21 7 23 17 24 8 25 16 26
DOCKED: REMARK SMILES IDX 9 27 15 28 10 29 14 30 11 31 12 32 13 33
DOCKED: REMARK H PARENT 1 4 22 18 6 22
DOCKED: USER                              x       y       z     vdW  Elec       q    Type
DOCKED: USER                           _______ _______ _______ _____ _____    ______ ____
DOCKED: ROOT
DOCKED: ATOM      1  C   UNL     1     140.713  72.387 221.079 -0.16 -0.03    +0.181 C  
DOCKED: ENDROOT
DOCKED: BRANCH   1   2
DOCKED: ATOM      2  C   UNL     1     140.368  71.105 221.278 -0.11 -0.03    +0.206 C  
DOCKED: BRANCH   2   3
DOCKED: ATOM      3  O   UNL     1     141.081  70.071 220.665 +0.04 +0.07    -0.494 OA 
DOCKED: ATOM      4  H   UNL     1     141.445  70.132 219.720 +0.06 -0.04    +0.295 HD 
DOCKED: ENDBRANCH   2   3
DOCKED: BRANCH   2   5
DOCKED: ATOM      5  N   UNL     1     139.252  70.760 222.118 -0.07 +0.06    -0.336 N  
DOCKED: ATOM      6  C   UNL     1     138.107  70.032 221.596 -0.08 -0.02    +0.123 C  
DOCKED: ATOM      7  C   UNL     1     139.145  71.034 223.551 -0.28 -0.03    +0.118 C  
DOCKED: ATOM      8  C   UNL     1     137.183  69.796 222.784 -0.14 -0.01    +0.055 C  
DOCKED: ATOM      9  C   UNL     1     137.670  70.746 223.884 -0.20 -0.03    +0.139 C  
DOCKED: BRANCH   7  10
DOCKED: ATOM     10  C   UNL     1     140.084  70.106 224.359 -0.28 -0.01    +0.063 C  
DOCKED: BRANCH  10  11
DOCKED: ATOM     11  C   UNL     1     140.338  70.626 225.750 -0.52 +0.01    -0.046 A  
DOCKED: ATOM     12  C   UNL     1     139.881  69.918 226.875 -0.54 -0.00    +0.004 A  
DOCKED: ATOM     13  C   UNL     1     141.074  71.808 225.935 -0.60 -0.00    +0.004 A  
DOCKED: ATOM     14  C   UNL     1     140.177  70.375 228.163 -0.63 -0.00    +0.000 A  
DOCKED: ATOM     15  C   UNL     1     141.366  72.264 227.224 -0.82 -0.00    +0.000 A  
DOCKED: ATOM     16  C   UNL     1     140.921  71.545 228.338 -0.76 -0.00    +0.000 A  
DOCKED: ENDBRANCH  10  11
DOCKED: ENDBRANCH   7  10
DOCKED: BRANCH   9  17
DOCKED: ATOM     17  O   UNL     1     136.915  71.933 223.888 -0.10 +0.12    -0.391 OA 
DOCKED: ATOM     18  H   UNL     1     137.547  72.700 223.850 -0.45 -0.15    +0.211 HD 
DOCKED: ENDBRANCH   9  17
DOCKED: ENDBRANCH   2   5
DOCKED: ENDBRANCH   1   2
DOCKED: BRANCH   1  19
DOCKED: ATOM     19  N   UNL     1     140.369  73.387 222.047 -0.67 +0.01    -0.215 NA 
DOCKED: BRANCH  19  20
DOCKED: ATOM     20  C   UNL     1     139.391  74.248 222.002 -0.15 -0.04    +0.237 C  
DOCKED: BRANCH  20  21
DOCKED: ATOM     21  O   UNL     1     138.085  73.771 222.092 -0.06 +0.16    -0.492 OA 
DOCKED: ATOM     22  H   UNL     1     137.584  73.776 222.973 -0.44 -0.18    +0.295 HD 
DOCKED: ENDBRANCH  20  21
DOCKED: BRANCH  20  23
DOCKED: ATOM     23  C   UNL     1     139.586  75.712 221.891 -0.28 -0.03    +0.126 A  
DOCKED: ATOM     24  N   UNL     1     140.488  76.360 222.680 -0.24 +0.05    -0.243 NA 
DOCKED: ATOM     25  C   UNL     1     138.894  76.427 220.902 -0.14 -0.01    +0.035 A  
DOCKED: ATOM     26  C   UNL     1     140.716  77.697 222.566 -0.40 -0.02    +0.071 A  
DOCKED: ATOM     27  C   UNL     1     139.104  77.799 220.761 -0.12 -0.00    +0.013 A  
DOCKED: ATOM     28  C   UNL     1     141.639  78.329 223.406 -0.52 -0.01    +0.030 A  
DOCKED: ATOM     29  C   UNL     1     140.018  78.452 221.597 -0.25 -0.00    +0.002 A  
DOCKED: ATOM     30  C   UNL     1     141.867  79.704 223.289 -0.58 -0.01    +0.023 A  
DOCKED: ATOM     31  C   UNL     1     140.251  79.830 221.486 -0.22 -0.01    +0.030 A  
DOCKED: ATOM     32  C   UNL     1     141.174  80.454 222.333 -0.41 -0.01    +0.041 A  
DOCKED: ATOM     33  Cl  UNL     1     141.462  82.179 222.195 -0.36 +0.01    -0.084 Cl 
DOCKED: ENDBRANCH  20  23
DOCKED: ENDBRANCH  19  20
DOCKED: ENDBRANCH   1  19
DOCKED: TORSDOF 10
DOCKED: TER
DOCKED: ENDMDL
________________________________________________________________________________


    FINAL DOCKED STATE:
    ________________________


Run:   18 / 20
Time taken for this run:   0.073s

DOCKED: MODEL        18
DOCKED: USER    Run = 18
DOCKED: USER
DOCKED: USER    Estimated Free Energy of Binding    =  -7.97 kcal/mol  [=(1)+(2)+(3)-(4)]
DOCKED: USER
DOCKED: USER    (1) Final Intermolecular Energy     = -10.95 kcal/mol
DOCKED: USER        vdW + Hbond + desolv Energy     = -10.88 kcal/mol
DOCKED: USER        Electrostatic Energy            =  -0.07 kcal/mol
DOCKED: USER        Moving Ligand-Fixed Receptor    = -10.95 kcal/mol
DOCKED: USER        Moving Ligand-Moving Receptor   =  +0.00 kcal/mol
DOCKED: USER    (2) Final Total Internal Energy     =  -2.36 kcal/mol
DOCKED: USER    (3) Torsional Free Energy           =  +2.98 kcal/mol
DOCKED: USER    (4) Unbound System's Energy         =  -2.36 kcal/mol
DOCKED: USER
DOCKED: USER
DOCKED: REMARK SMILES O/C(=C\N=C(\O)c1ccc2cc(Cl)ccc2n1)N1CC[C@H](O)[C@H]1Cc1ccccc1
DOCKED: REMARK SMILES IDX 3 1 2 2 1 3 18 5 19 6 23 7 20 8 21 9 24 10 25 11 26 12 30 13
DOCKED: REMARK SMILES IDX 27 14 29 15 28 16 22 17 4 19 5 20 6 21 7 23 17 24 8 25 16 26
DOCKED: REMARK SMILES IDX 9 27 15 28 10 29 14 30 11 31 12 32 13 33
DOCKED: REMARK H PARENT 1 4 22 18 6 22
DOCKED: USER                              x       y       z     vdW  Elec       q    Type
DOCKED: USER                           _______ _______ _______ _____ _____    ______ ____
DOCKED: ROOT
DOCKED: ATOM      1  C   UNL     1     140.170  75.022 221.387 -0.24 -0.03    +0.181 C  
DOCKED: ENDROOT
DOCKED: BRANCH   1   2
DOCKED: ATOM      2  C   UNL     1     139.082  75.718 221.751 -0.21 -0.04    +0.206 C  
DOCKED: BRANCH   2   3
DOCKED: ATOM      3  O   UNL     1     137.987  75.077 222.337 -0.11 +0.16    -0.494 OA 
DOCKED: ATOM      4  H   UNL     1     138.042  74.152 222.748 -0.49 -0.16    +0.295 HD 
DOCKED: ENDBRANCH   2   3
DOCKED: BRANCH   2   5
DOCKED: ATOM      5  N   UNL     1     139.007  77.140 221.541 -0.08 +0.08    -0.336 N  
DOCKED: ATOM      6  C   UNL     1     138.309  78.008 222.475 -0.22 -0.02    +0.123 C  
DOCKED: ATOM      7  C   UNL     1     139.636  77.876 220.445 -0.10 -0.03    +0.118 C  
DOCKED: ATOM      8  C   UNL     1     138.509  79.428 221.958 -0.18 -0.01    +0.055 C  
DOCKED: ATOM      9  C   UNL     1     139.004  79.278 220.515 -0.07 -0.03    +0.139 C  
DOCKED: BRANCH   7  10
DOCKED: ATOM     10  C   UNL     1     141.168  77.951 220.641 -0.26 -0.03    +0.063 C  
DOCKED: BRANCH  10  11
DOCKED: ATOM     11  C   UNL     1     141.550  78.800 221.827 -0.39 +0.02    -0.046 A  
DOCKED: ATOM     12  C   UNL     1     141.426  78.302 223.135 -0.55 -0.00    +0.004 A  
DOCKED: ATOM     13  C   UNL     1     142.073  80.088 221.629 -0.45 -0.00    +0.004 A  
DOCKED: ATOM     14  C   UNL     1     141.842  79.073 224.224 -0.56 -0.00    +0.000 A  
DOCKED: ATOM     15  C   UNL     1     142.486  80.858 222.720 -0.58 -0.00    +0.000 A  
DOCKED: ATOM     16  C   UNL     1     142.375  80.349 224.017 -0.59 -0.00    +0.000 A  
DOCKED: ENDBRANCH  10  11
DOCKED: ENDBRANCH   7  10
DOCKED: BRANCH   9  17
DOCKED: ATOM     17  O   UNL     1     137.936  79.395 219.606 +0.00 +0.08    -0.391 OA 
DOCKED: ATOM     18  H   UNL     1     137.839  78.525 219.133 +0.01 -0.05    +0.211 HD 
DOCKED: ENDBRANCH   9  17
DOCKED: ENDBRANCH   2   5
DOCKED: ENDBRANCH   1   2
DOCKED: BRANCH   1  19
DOCKED: ATOM     19  N   UNL     1     140.454  73.754 221.993 -0.77 +0.01    -0.215 NA 
DOCKED: BRANCH  19  20
DOCKED: ATOM     20  C   UNL     1     139.642  72.752 222.180 -0.19 -0.04    +0.237 C  
DOCKED: BRANCH  20  21
DOCKED: ATOM     21  O   UNL     1     138.560  72.606 221.315 -0.03 +0.11    -0.492 OA 
DOCKED: ATOM     22  H   UNL     1     138.015  73.406 221.016 +0.05 -0.07    +0.295 HD 
DOCKED: ENDBRANCH  20  21
DOCKED: BRANCH  20  23
DOCKED: ATOM     23  C   UNL     1     139.818  71.737 223.245 -0.29 -0.02    +0.126 A  
DOCKED: ATOM     24  N   UNL     1     140.301  72.084 224.470 -0.12 +0.04    -0.243 NA 
DOCKED: ATOM     25  C   UNL     1     139.403  70.416 223.015 -0.24 -0.01    +0.035 A  
DOCKED: ATOM     26  C   UNL     1     140.432  71.178 225.478 -0.51 -0.01    +0.071 A  
DOCKED: ATOM     27  C   UNL     1     139.525  69.464 224.027 -0.28 -0.00    +0.013 A  
DOCKED: ATOM     28  C   UNL     1     140.947  71.571 226.717 -0.70 -0.00    +0.030 A  
DOCKED: ATOM     29  C   UNL     1     140.046  69.835 225.272 -0.44 -0.00    +0.002 A  
DOCKED: ATOM     30  C   UNL     1     141.084  70.636 227.748 -0.63 -0.00    +0.023 A  
DOCKED: ATOM     31  C   UNL     1     140.186  68.902 226.310 -0.53 -0.01    +0.030 A  
DOCKED: ATOM     32  C   UNL     1     140.706  69.304 227.546 -0.59 -0.01    +0.041 A  
DOCKED: ATOM     33  Cl  UNL     1     140.884  68.136 228.842 -0.57 +0.02    -0.084 Cl 
DOCKED: ENDBRANCH  20  23
DOCKED: ENDBRANCH  19  20
DOCKED: ENDBRANCH   1  19
DOCKED: TORSDOF 10
DOCKED: TER
DOCKED: ENDMDL
________________________________________________________________________________


    FINAL DOCKED STATE:
    ________________________


Run:   19 / 20
Time taken for this run:   0.073s

DOCKED: MODEL        19
DOCKED: USER    Run = 19
DOCKED: USER
DOCKED: USER    Estimated Free Energy of Binding    =  -7.27 kcal/mol  [=(1)+(2)+(3)-(4)]
DOCKED: USER
DOCKED: USER    (1) Final Intermolecular Energy     = -10.26 kcal/mol
DOCKED: USER        vdW + Hbond + desolv Energy     = -10.12 kcal/mol
DOCKED: USER        Electrostatic Energy            =  -0.14 kcal/mol
DOCKED: USER        Moving Ligand-Fixed Receptor    = -10.26 kcal/mol
DOCKED: USER        Moving Ligand-Moving Receptor   =  +0.00 kcal/mol
DOCKED: USER    (2) Final Total Internal Energy     =  -2.60 kcal/mol
DOCKED: USER    (3) Torsional Free Energy           =  +2.98 kcal/mol
DOCKED: USER    (4) Unbound System's Energy         =  -2.60 kcal/mol
DOCKED: USER
DOCKED: USER
DOCKED: REMARK SMILES O/C(=C\N=C(\O)c1ccc2cc(Cl)ccc2n1)N1CC[C@H](O)[C@H]1Cc1ccccc1
DOCKED: REMARK SMILES IDX 3 1 2 2 1 3 18 5 19 6 23 7 20 8 21 9 24 10 25 11 26 12 30 13
DOCKED: REMARK SMILES IDX 27 14 29 15 28 16 22 17 4 19 5 20 6 21 7 23 17 24 8 25 16 26
DOCKED: REMARK SMILES IDX 9 27 15 28 10 29 14 30 11 31 12 32 13 33
DOCKED: REMARK H PARENT 1 4 22 18 6 22
DOCKED: USER                              x       y       z     vdW  Elec       q    Type
DOCKED: USER                           _______ _______ _______ _____ _____    ______ ____
DOCKED: ROOT
DOCKED: ATOM      1  C   UNL     1     140.030  70.990 220.739 -0.09 -0.03    +0.181 C  
DOCKED: ENDROOT
DOCKED: BRANCH   1   2
DOCKED: ATOM      2  C   UNL     1     139.532  69.898 221.340 -0.09 -0.04    +0.206 C  
DOCKED: BRANCH   2   3
DOCKED: ATOM      3  O   UNL     1     139.987  68.623 220.992 -0.04 +0.10    -0.494 OA 
DOCKED: ATOM      4  H   UNL     1     140.621  68.453 220.220 +0.07 -0.06    +0.295 HD 
DOCKED: ENDBRANCH   2   3
DOCKED: BRANCH   2   5
DOCKED: ATOM      5  N   UNL     1     138.513  70.007 222.350 -0.05 +0.06    -0.336 N  
DOCKED: ATOM      6  C   UNL     1     137.163  69.520 222.120 -0.09 -0.02    +0.123 C  
DOCKED: ATOM      7  C   UNL     1     138.700  70.546 223.696 -0.25 -0.02    +0.118 C  
DOCKED: ATOM      8  C   UNL     1     136.409  69.744 223.425 -0.16 -0.01    +0.055 C  
DOCKED: ATOM      9  C   UNL     1     137.270  70.714 224.242 -0.15 -0.02    +0.139 C  
DOCKED: BRANCH   7  10
DOCKED: ATOM     10  C   UNL     1     139.513  69.565 224.574 -0.33 -0.01    +0.063 C  
DOCKED: BRANCH  10  11
DOCKED: ATOM     11  C   UNL     1     140.079  70.232 225.801 -0.47 +0.01    -0.046 A  
DOCKED: ATOM     12  C   UNL     1     140.756  71.460 225.702 -0.61 -0.00    +0.004 A  
DOCKED: ATOM     13  C   UNL     1     139.896  69.649 227.065 -0.56 -0.00    +0.004 A  
DOCKED: ATOM     14  C   UNL     1     141.221  72.102 226.854 -0.75 -0.00    +0.000 A  
DOCKED: ATOM     15  C   UNL     1     140.364  70.292 228.214 -0.61 -0.00    +0.000 A  
DOCKED: ATOM     16  C   UNL     1     141.023  71.520 228.109 -0.80 -0.00    +0.000 A  
DOCKED: ENDBRANCH  10  11
DOCKED: ENDBRANCH   7  10
DOCKED: BRANCH   9  17
DOCKED: ATOM     17  O   UNL     1     136.822  72.038 224.079 -0.06 +0.12    -0.391 OA 
DOCKED: ATOM     18  H   UNL     1     137.600  72.595 223.805 -0.46 -0.14    +0.211 HD 
DOCKED: ENDBRANCH   9  17
DOCKED: ENDBRANCH   2   5
DOCKED: ENDBRANCH   1   2
DOCKED: BRANCH   1  19
DOCKED: ATOM     19  N   UNL     1     140.414  72.132 221.518 -0.15 +0.03    -0.215 NA 
DOCKED: BRANCH  19  20
DOCKED: ATOM     20  C   UNL     1     139.703  73.187 221.805 -0.19 -0.04    +0.237 C  
DOCKED: BRANCH  20  21
DOCKED: ATOM     21  O   UNL     1     138.413  73.002 222.297 -0.08 +0.16    -0.492 OA 
DOCKED: ATOM     22  H   UNL     1     138.019  73.634 222.984 -0.47 -0.20    +0.295 HD 
DOCKED: ENDBRANCH  20  21
DOCKED: BRANCH  20  23
DOCKED: ATOM     23  C   UNL     1     140.198  74.576 221.665 -0.25 -0.02    +0.126 A  
DOCKED: ATOM     24  N   UNL     1     139.621  75.598 222.357 -0.46 +0.04    -0.243 NA 
DOCKED: ATOM     25  C   UNL     1     141.329  74.829 220.874 -0.28 -0.01    +0.035 A  
DOCKED: ATOM     26  C   UNL     1     140.085  76.875 222.279 -0.35 -0.02    +0.071 A  
DOCKED: ATOM     27  C   UNL     1     141.828  76.129 220.772 -0.24 -0.01    +0.013 A  
DOCKED: ATOM     28  C   UNL     1     139.455  77.899 222.993 -0.18 -0.01    +0.030 A  
DOCKED: ATOM     29  C   UNL     1     141.207  77.169 221.472 -0.32 -0.00    +0.002 A  
DOCKED: ATOM     30  C   UNL     1     139.932  79.211 222.906 -0.37 -0.00    +0.023 A  
DOCKED: ATOM     31  C   UNL     1     141.680  78.487 221.389 -0.36 -0.02    +0.030 A  
DOCKED: ATOM     32  C   UNL     1     141.041  79.506 222.105 -0.37 -0.01    +0.041 A  
DOCKED: ATOM     33  Cl  UNL     1     141.631  81.154 221.997 -0.55 +0.02    -0.084 Cl 
DOCKED: ENDBRANCH  20  23
DOCKED: ENDBRANCH  19  20
DOCKED: ENDBRANCH   1  19
DOCKED: TORSDOF 10
DOCKED: TER
DOCKED: ENDMDL
________________________________________________________________________________


    FINAL DOCKED STATE:
    ________________________


Run:   20 / 20
Time taken for this run:   0.073s

DOCKED: MODEL        20
DOCKED: USER    Run = 20
DOCKED: USER
DOCKED: USER    Estimated Free Energy of Binding    =  -7.73 kcal/mol  [=(1)+(2)+(3)-(4)]
DOCKED: USER
DOCKED: USER    (1) Final Intermolecular Energy     = -10.72 kcal/mol
DOCKED: USER        vdW + Hbond + desolv Energy     = -10.60 kcal/mol
DOCKED: USER        Electrostatic Energy            =  -0.11 kcal/mol
DOCKED: USER        Moving Ligand-Fixed Receptor    = -10.72 kcal/mol
DOCKED: USER        Moving Ligand-Moving Receptor   =  +0.00 kcal/mol
DOCKED: USER    (2) Final Total Internal Energy     =  -2.36 kcal/mol
DOCKED: USER    (3) Torsional Free Energy           =  +2.98 kcal/mol
DOCKED: USER    (4) Unbound System's Energy         =  -2.36 kcal/mol
DOCKED: USER
DOCKED: USER
DOCKED: REMARK SMILES O/C(=C\N=C(\O)c1ccc2cc(Cl)ccc2n1)N1CC[C@H](O)[C@H]1Cc1ccccc1
DOCKED: REMARK SMILES IDX 3 1 2 2 1 3 18 5 19 6 23 7 20 8 21 9 24 10 25 11 26 12 30 13
DOCKED: REMARK SMILES IDX 27 14 29 15 28 16 22 17 4 19 5 20 6 21 7 23 17 24 8 25 16 26
DOCKED: REMARK SMILES IDX 9 27 15 28 10 29 14 30 11 31 12 32 13 33
DOCKED: REMARK H PARENT 1 4 22 18 6 22
DOCKED: USER                              x       y       z     vdW  Elec       q    Type
DOCKED: USER                           _______ _______ _______ _____ _____    ______ ____
DOCKED: ROOT
DOCKED: ATOM      1  C   UNL     1     140.314  75.319 221.218 -0.23 -0.04    +0.181 C  
DOCKED: ENDROOT
DOCKED: BRANCH   1   2
DOCKED: ATOM      2  C   UNL     1     141.232  75.284 220.239 -0.16 -0.07    +0.206 C  
DOCKED: BRANCH   2   3
DOCKED: ATOM      3  O   UNL     1     142.142  74.226 220.151 -0.06 +0.13    -0.494 OA 
DOCKED: ATOM      4  H   UNL     1     142.070  73.386 220.713 +0.11 -0.05    +0.295 HD 
DOCKED: ENDBRANCH   2   3
DOCKED: BRANCH   2   5
DOCKED: ATOM      5  N   UNL     1     141.311  76.334 219.259 -0.04 +0.13    -0.336 N  
DOCKED: ATOM      6  C   UNL     1     140.880  76.125 217.886 -0.04 -0.04    +0.123 C  
DOCKED: ATOM      7  C   UNL     1     141.764  77.702 219.509 -0.23 -0.07    +0.118 C  
DOCKED: ATOM      8  C   UNL     1     141.048  77.467 217.185 -0.08 -0.03    +0.055 C  
DOCKED: ATOM      9  C   UNL     1     141.942  78.308 218.105 -0.21 -0.09    +0.139 C  
DOCKED: BRANCH   7  10
DOCKED: ATOM     10  C   UNL     1     140.708  78.491 220.319 -0.19 -0.03    +0.063 C  
DOCKED: BRANCH  10  11
DOCKED: ATOM     11  C   UNL     1     141.283  79.082 221.581 -0.34 +0.02    -0.046 A  
DOCKED: ATOM     12  C   UNL     1     141.218  78.378 222.796 -0.50 -0.00    +0.004 A  
DOCKED: ATOM     13  C   UNL     1     141.928  80.328 221.542 -0.43 -0.00    +0.004 A  
DOCKED: ATOM     14  C   UNL     1     141.811  78.906 223.948 -0.61 -0.00    +0.000 A  
DOCKED: ATOM     15  C   UNL     1     142.518  80.855 222.696 -0.57 -0.00    +0.000 A  
DOCKED: ATOM     16  C   UNL     1     142.463  80.142 223.897 -0.63 -0.00    +0.000 A  
DOCKED: ENDBRANCH  10  11
DOCKED: ENDBRANCH   7  10
DOCKED: BRANCH   9  17
DOCKED: ATOM     17  O   UNL     1     143.286  78.238 217.693 -0.15 +0.41    -0.391 OA 
DOCKED: ATOM     18  H   UNL     1     143.473  79.028 217.118 -0.49 -0.39    +0.211 HD 
DOCKED: ENDBRANCH   9  17
DOCKED: ENDBRANCH   2   5
DOCKED: ENDBRANCH   1   2
DOCKED: BRANCH   1  19
DOCKED: ATOM     19  N   UNL     1     140.248  74.263 222.185 -0.76 +0.00    -0.215 NA 
DOCKED: BRANCH  19  20
DOCKED: ATOM     20  C   UNL     1     140.159  72.979 221.972 -0.21 -0.03    +0.237 C  
DOCKED: BRANCH  20  21
DOCKED: ATOM     21  O   UNL     1     140.089  72.531 220.655 -0.02 +0.08    -0.492 OA 
DOCKED: ATOM     22  H   UNL     1     140.518  73.052 219.899 +0.06 -0.06    +0.295 HD 
DOCKED: ENDBRANCH  20  21
DOCKED: BRANCH  20  23
DOCKED: ATOM     23  C   UNL     1     140.157  71.963 223.049 -0.30 -0.02    +0.126 A  
DOCKED: ATOM     24  N   UNL     1     140.619  72.263 224.295 -0.03 +0.03    -0.243 NA 
DOCKED: ATOM     25  C   UNL     1     139.594  70.701 222.806 -0.25 -0.01    +0.035 A  
DOCKED: ATOM     26  C   UNL     1     140.589  71.360 225.313 -0.51 -0.01    +0.071 A  
DOCKED: ATOM     27  C   UNL     1     139.550  69.753 223.829 -0.28 -0.00    +0.013 A  
DOCKED: ATOM     28  C   UNL     1     141.088  71.701 226.574 -0.70 -0.00    +0.030 A  
DOCKED: ATOM     29  C   UNL     1     140.051  70.071 225.096 -0.44 -0.00    +0.002 A  
DOCKED: ATOM     30  C   UNL     1     141.058  70.769 227.616 -0.65 -0.00    +0.023 A  
DOCKED: ATOM     31  C   UNL     1     140.025  69.141 226.145 -0.49 -0.01    +0.030 A  
DOCKED: ATOM     32  C   UNL     1     140.530  69.491 227.403 -0.57 -0.01    +0.041 A  
DOCKED: ATOM     33  Cl  UNL     1     140.500  68.325 228.713 -0.60 +0.02    -0.084 Cl 
DOCKED: ENDBRANCH  20  23
DOCKED: ENDBRANCH  19  20
DOCKED: ENDBRANCH   1  19
DOCKED: TORSDOF 10
DOCKED: TER
DOCKED: ENDMDL
________________________________________________________________________________


    CLUSTERING HISTOGRAM
    ____________________


________________________________________________________________________________
     |           |     |           |     |
Clus | Lowest    | Run | Mean      | Num | Histogram
-ter | Binding   |     | Binding   | in  |
Rank | Energy    |     | Energy    | Clus|    5    10   15   20   25   30   35
_____|___________|_____|___________|_____|____:____|____:____|____:____|____:___
   1 |     -8.97 |   2 |     -8.39 |  10 |##########
   2 |     -8.94 |  15 |     -8.58 |   2 |##
   3 |     -7.74 |   1 |     -7.47 |   7 |#######
   4 |     -6.22 |   8 |     -6.22 |   1 |#
_____|___________|_____|___________|_____|______________________________________


    RMSD TABLE
    __________


_______________________________________________________________________
     |      |      |           |         |                 |
Rank | Sub- | Run  | Binding   | Cluster | Reference       | Grep
     | Rank |      | Energy    | RMSD    | RMSD            | Pattern
_____|______|______|___________|_________|_________________|___________
   1      1      2       -8.97      0.00    271.41           RANKING
   1      2     11       -8.91      0.23    271.35           RANKING
   1      3      7       -8.90      0.81    271.57           RANKING
   1      4     10       -8.87      0.71    271.26           RANKING
   1      5     13       -8.86      0.31    271.32           RANKING
   1      6      5       -8.58      0.74    271.28           RANKING
   1      7     18       -7.97      1.96    271.37           RANKING
   1      8      4       -7.84      1.20    271.19           RANKING
   1      9     20       -7.73      1.72    271.17           RANKING
   1     10      9       -7.27      1.55    271.36           RANKING
   2      1     15       -8.94      0.00    270.45           RANKING
   2      2     16       -8.22      0.98    270.53           RANKING
   3      1      1       -7.74      0.00    270.94           RANKING
   3      2     17       -7.67      0.80    271.04           RANKING
   3      3     14       -7.59      0.75    270.99           RANKING
   3      4      3       -7.36      0.94    270.82           RANKING
   3      5      6       -7.35      0.92    270.79           RANKING
   3      6     12       -7.33      1.47    271.08           RANKING
   3      7     19       -7.27      0.79    270.77           RANKING
   4      1      8       -6.22      0.00    271.42           RANKING

Run time 1.419 sec
Idle time 0.000 sec
