AutoDock-GPU version: v1.6

**********************************************************
**    AutoDock-GPU AUTODOCKTOOLS-COMPATIBLE DLG FILE    **
**********************************************************


    DOCKING PARAMETERS
    ________________________


Ligand file:                               /home/a/REINVENT4/ReinventStudies/pleaseWork/justmol2mol_4_Compounds_ontop/graph-dock-8u2o5u/graph-DockGPU/node-autodockgpu/inputs/JBCXUJHMCIQQPK-CGNLTJKWNA-N.pdbqt
Grid fld file:                             /home/a/REINVENT4/ReinventStudies/mols/Rad51/maps/rad51_receptor.maps.fld

Random seed:                               42
Number of runs:                            20
Number of energy evaluations:              2040163
Number of generations:                     42000
Size of population:                        150
Rate of crossover:                         80.000000%
Tournament selection probability limit:    60.000000%
Rate of mutation:                          2.000000%
Maximal allowed delta movement:            +/- 6.000000A
Maximal allowed delta angle:               +/- 90.000000

Rate of local search:                      100.000000%
Maximal number of local search iterations: 300
Rho lower bound:                           0.010000
Spread of local search delta movement:     2.000000A
Spread of local search delta angle:        74.999999
Limit of consecutive successes/failures:   4

Handle symmetry during clustering:         YES
RMSD tolerance:                            2.000000A

Program call in command line was:          /home/a/REINVENT4/ReinventStudies/adgpu-v1.6_linux_x64_cuda12_128wi --filelist batch.txt --heuristics 1 --nrun 20 --psize 150 --lsit 300 --seed 42 --heurmax 12000000 


    GRID PARAMETERS
    ________________________


Receptor name:                             rad51_receptor
Number of grid points (x, y, z):           53, 53, 53
Grid center (x, y, z):                     139.950000, 75.640000, 221.970000A
Grid size (x, y, z):                       19.500000, 19.500000, 19.500000A
Grid spacing:                              0.375000A


    LIGAND PARAMETERS
    ________________________


Ligand name:                               /home/a/REINVENT4/ReinventStudies/pleaseWork/justmol2mol_4_Compounds_ontop/graph-dock-8u2o5u/graph-DockGPU/node-autodockgpu/inputs/JBCXUJHMCIQQPK-CGNLTJKWNA-N
Number of atoms:                           32
Number of rotatable bonds:                 9
Number of atom types:                      7


    DUMMY DATA (only for ADT-compatibility)
    ________________________


DPF> outlev 1
DPF> ga_run 20
DPF> fld /home/a/REINVENT4/ReinventStudies/mols/Rad51/maps/rad51_receptor.maps.fld
DPF> move /home/a/REINVENT4/ReinventStudies/pleaseWork/justmol2mol_4_Compounds_ontop/graph-dock-8u2o5u/graph-DockGPU/node-autodockgpu/inputs/JBCXUJHMCIQQPK-CGNLTJKWNA-N.pdbqt


    COUNTER STATES
    ________________________


Number of energy evaluations performed:    1410345
Number of generations used:                75


    INPUT LIGAND PDBQT FILE:
    ________________________


INPUT-LIGAND-PDBQT: REMARK SMILES O/C(=N\C=C(\O)N1C[C@H](O)C[C@H]1c1ccccc1)c1ccc2cc(Cl)ccc2n1
INPUT-LIGAND-PDBQT: REMARK SMILES IDX 4 1 3 2 2 3 1 4 19 6 29 7 20 8 28 9 21 10 27 11 22 12 26 13
INPUT-LIGAND-PDBQT: REMARK SMILES IDX 23 14 24 15 25 16 5 17 6 18 7 20 8 21 12 22 9 23 11 24 13 25
INPUT-LIGAND-PDBQT: REMARK SMILES IDX 14 26 18 27 15 28 17 29 16 30 10 31
INPUT-LIGAND-PDBQT: REMARK H PARENT 1 5 6 19 10 32
INPUT-LIGAND-PDBQT: ROOT
INPUT-LIGAND-PDBQT: ATOM      1  C   UNL     1       0.111   0.717   2.185  1.00  0.00     0.181 C 
INPUT-LIGAND-PDBQT: ENDROOT
INPUT-LIGAND-PDBQT: BRANCH   1   2
INPUT-LIGAND-PDBQT: ATOM      2  N   UNL     1       0.066   0.905   0.765  1.00  0.00    -0.215 NA
INPUT-LIGAND-PDBQT: BRANCH   2   3
INPUT-LIGAND-PDBQT: ATOM      3  C   UNL     1       0.109   2.031   0.113  1.00  0.00     0.237 C 
INPUT-LIGAND-PDBQT: BRANCH   3   4
INPUT-LIGAND-PDBQT: ATOM      4  O   UNL     1       0.152   3.269   0.763  1.00  0.00    -0.492 OA
INPUT-LIGAND-PDBQT: ATOM      5  H   UNL     1       0.097   3.384   1.765  1.00  0.00     0.295 HD
INPUT-LIGAND-PDBQT: ENDBRANCH   3   4
INPUT-LIGAND-PDBQT: BRANCH   3   6
INPUT-LIGAND-PDBQT: ATOM      6  C   UNL     1       0.115   1.990  -1.361  1.00  0.00     0.126 A 
INPUT-LIGAND-PDBQT: ATOM      7  N   UNL     1       0.114   0.784  -1.995  1.00  0.00    -0.243 NA
INPUT-LIGAND-PDBQT: ATOM      8  C   UNL     1       0.137   3.170  -2.122  1.00  0.00     0.035 A 
INPUT-LIGAND-PDBQT: ATOM      9  C   UNL     1       0.137   0.677  -3.350  1.00  0.00     0.071 A 
INPUT-LIGAND-PDBQT: ATOM     10  C   UNL     1       0.158   3.092  -3.516  1.00  0.00     0.013 A 
INPUT-LIGAND-PDBQT: ATOM     11  C   UNL     1       0.142  -0.584  -3.955  1.00  0.00     0.030 A 
INPUT-LIGAND-PDBQT: ATOM     12  C   UNL     1       0.160   1.842  -4.146  1.00  0.00     0.002 A 
INPUT-LIGAND-PDBQT: ATOM     13  C   UNL     1       0.169  -0.690  -5.349  1.00  0.00     0.023 A 
INPUT-LIGAND-PDBQT: ATOM     14  C   UNL     1       0.186   1.729  -5.544  1.00  0.00     0.030 A 
INPUT-LIGAND-PDBQT: ATOM     15  C   UNL     1       0.191   0.463  -6.143  1.00  0.00     0.041 A 
INPUT-LIGAND-PDBQT: ATOM     16  Cl  UNL     1       0.224   0.321  -7.891  1.00  0.00    -0.084 Cl
INPUT-LIGAND-PDBQT: ENDBRANCH   3   6
INPUT-LIGAND-PDBQT: ENDBRANCH   2   3
INPUT-LIGAND-PDBQT: ENDBRANCH   1   2
INPUT-LIGAND-PDBQT: BRANCH   1  17
INPUT-LIGAND-PDBQT: ATOM     17  C   UNL     1       0.010  -0.513   2.698  1.00  0.00     0.206 C 
INPUT-LIGAND-PDBQT: BRANCH  17  18
INPUT-LIGAND-PDBQT: ATOM     18  O   UNL     1       0.180  -0.721   4.067  1.00  0.00    -0.494 OA
INPUT-LIGAND-PDBQT: ATOM     19  H   UNL     1       0.376   0.041   4.706  1.00  0.00     0.295 HD
INPUT-LIGAND-PDBQT: ENDBRANCH  17  18
INPUT-LIGAND-PDBQT: BRANCH  17  20
INPUT-LIGAND-PDBQT: ATOM     20  N   UNL     1      -0.253  -1.640   1.852  1.00  0.00    -0.332 N 
INPUT-LIGAND-PDBQT: ATOM     21  C   UNL     1      -1.538  -1.856   1.209  1.00  0.00     0.152 C 
INPUT-LIGAND-PDBQT: ATOM     22  C   UNL     1       0.633  -2.792   1.781  1.00  0.00     0.118 C 
INPUT-LIGAND-PDBQT: ATOM     23  C   UNL     1      -1.426  -3.221   0.525  1.00  0.00     0.136 C 
INPUT-LIGAND-PDBQT: ATOM     24  C   UNL     1      -0.193  -3.908   1.131  1.00  0.00     0.063 C 
INPUT-LIGAND-PDBQT: BRANCH  22  25
INPUT-LIGAND-PDBQT: ATOM     25  C   UNL     1       1.867  -2.453   0.967  1.00  0.00    -0.025 A 
INPUT-LIGAND-PDBQT: ATOM     26  C   UNL     1       3.146  -2.729   1.479  1.00  0.00     0.006 A 
INPUT-LIGAND-PDBQT: ATOM     27  C   UNL     1       1.752  -1.868  -0.309  1.00  0.00     0.006 A 
INPUT-LIGAND-PDBQT: ATOM     28  C   UNL     1       4.288  -2.415   0.734  1.00  0.00     0.000 A 
INPUT-LIGAND-PDBQT: ATOM     29  C   UNL     1       2.895  -1.554  -1.049  1.00  0.00     0.000 A 
INPUT-LIGAND-PDBQT: ATOM     30  C   UNL     1       4.162  -1.827  -0.528  1.00  0.00     0.000 A 
INPUT-LIGAND-PDBQT: ENDBRANCH  22  25
INPUT-LIGAND-PDBQT: BRANCH  23  31
INPUT-LIGAND-PDBQT: ATOM     31  O   UNL     1      -2.594  -3.990   0.678  1.00  0.00    -0.391 OA
INPUT-LIGAND-PDBQT: ATOM     32  H   UNL     1      -2.748  -4.121   1.651  1.00  0.00     0.211 HD
INPUT-LIGAND-PDBQT: ENDBRANCH  23  31
INPUT-LIGAND-PDBQT: ENDBRANCH  17  20
INPUT-LIGAND-PDBQT: ENDBRANCH   1  17
INPUT-LIGAND-PDBQT: TORSDOF 9


    FINAL DOCKED STATE:
    ________________________


Run:   1 / 20
Time taken for this run:   0.060s

DOCKED: MODEL        1
DOCKED: USER    Run = 1
DOCKED: USER
DOCKED: USER    Estimated Free Energy of Binding    =  -7.43 kcal/mol  [=(1)+(2)+(3)-(4)]
DOCKED: USER
DOCKED: USER    (1) Final Intermolecular Energy     = -10.12 kcal/mol
DOCKED: USER        vdW + Hbond + desolv Energy     =  -9.87 kcal/mol
DOCKED: USER        Electrostatic Energy            =  -0.25 kcal/mol
DOCKED: USER        Moving Ligand-Fixed Receptor    = -10.12 kcal/mol
DOCKED: USER        Moving Ligand-Moving Receptor   =  +0.00 kcal/mol
DOCKED: USER    (2) Final Total Internal Energy     =  -2.41 kcal/mol
DOCKED: USER    (3) Torsional Free Energy           =  +2.68 kcal/mol
DOCKED: USER    (4) Unbound System's Energy         =  -2.41 kcal/mol
DOCKED: USER
DOCKED: USER
DOCKED: REMARK SMILES O/C(=N\C=C(\O)N1C[C@H](O)C[C@H]1c1ccccc1)c1ccc2cc(Cl)ccc2n1
DOCKED: REMARK SMILES IDX 4 1 3 2 2 3 1 4 19 6 29 7 20 8 28 9 21 10 27 11 22 12 26 13
DOCKED: REMARK SMILES IDX 23 14 24 15 25 16 5 17 6 18 7 20 8 21 12 22 9 23 11 24 13 25
DOCKED: REMARK SMILES IDX 14 26 18 27 15 28 17 29 16 30 10 31
DOCKED: REMARK H PARENT 1 5 6 19 10 32
DOCKED: USER                              x       y       z     vdW  Elec       q    Type
DOCKED: USER                           _______ _______ _______ _____ _____    ______ ____
DOCKED: ROOT
DOCKED: ATOM      1  C   UNL     1     141.099  73.800 221.750 -0.08 -0.01    +0.181 C  
DOCKED: ENDROOT
DOCKED: BRANCH   1   2
DOCKED: ATOM      2  N   UNL     1     139.810  73.465 222.278 -0.71 +0.03    -0.215 NA 
DOCKED: BRANCH   2   3
DOCKED: ATOM      3  C   UNL     1     139.207  72.312 222.224 -0.17 -0.05    +0.237 C  
DOCKED: BRANCH   3   4
DOCKED: ATOM      4  O   UNL     1     138.363  71.960 221.165 -0.01 +0.10    -0.492 OA 
DOCKED: ATOM      5  H   UNL     1     138.690  71.663 220.257 +0.04 -0.05    +0.295 HD 
DOCKED: ENDBRANCH   3   4
DOCKED: BRANCH   3   6
DOCKED: ATOM      6  C   UNL     1     139.428  71.351 223.320 -0.28 -0.03    +0.126 A  
DOCKED: ATOM      7  N   UNL     1     139.997  71.783 224.481 -0.23 +0.05    -0.243 NA 
DOCKED: ATOM      8  C   UNL     1     139.078  69.998 223.184 -0.23 -0.01    +0.035 A  
DOCKED: ATOM      9  C   UNL     1     140.245  70.945 225.522 -0.49 -0.01    +0.071 A  
DOCKED: ATOM     10  C   UNL     1     139.318  69.114 224.238 -0.31 -0.00    +0.013 A  
DOCKED: ATOM     11  C   UNL     1     140.837  71.433 226.692 -0.68 -0.00    +0.030 A  
DOCKED: ATOM     12  C   UNL     1     139.906  69.578 225.420 -0.44 -0.00    +0.002 A  
DOCKED: ATOM     13  C   UNL     1     141.093  70.567 227.759 -0.61 -0.00    +0.023 A  
DOCKED: ATOM     14  C   UNL     1     140.165  68.715 226.495 -0.56 -0.01    +0.030 A  
DOCKED: ATOM     15  C   UNL     1     140.758  69.211 227.663 -0.59 -0.01    +0.041 A  
DOCKED: ATOM     16  Cl  UNL     1     141.082  68.132 229.007 -0.51 +0.02    -0.084 Cl 
DOCKED: ENDBRANCH   3   6
DOCKED: ENDBRANCH   2   3
DOCKED: ENDBRANCH   1   2
DOCKED: BRANCH   1  17
DOCKED: ATOM     17  C   UNL     1     141.467  73.344 220.548 -0.15 -0.04    +0.206 C  
DOCKED: BRANCH  17  18
DOCKED: ATOM     18  O   UNL     1     140.531  72.737 219.709 +0.01 +0.09    -0.494 OA 
DOCKED: ATOM     19  H   UNL     1     139.534  72.830 219.861 +0.05 -0.06    +0.295 HD 
DOCKED: ENDBRANCH  17  18
DOCKED: BRANCH  17  20
DOCKED: ATOM     20  N   UNL     1     142.827  73.449 220.110 -0.10 +0.07    -0.332 N  
DOCKED: ATOM     21  C   UNL     1     143.566  72.323 219.564 -0.17 -0.02    +0.152 C  
DOCKED: ATOM     22  C   UNL     1     143.665  74.598 220.419 -0.30 -0.05    +0.118 C  
DOCKED: ATOM     23  C   UNL     1     144.994  72.834 219.357 -0.29 +0.01    +0.136 C  
DOCKED: ATOM     24  C   UNL     1     145.105  74.140 220.159 -0.41 -0.02    +0.063 C  
DOCKED: BRANCH  22  25
DOCKED: ATOM     25  C   UNL     1     143.279  75.776 219.546 -0.38 +0.01    -0.025 A  
DOCKED: ATOM     26  C   UNL     1     143.645  75.798 218.190 -0.23 -0.00    +0.006 A  
DOCKED: ATOM     27  C   UNL     1     142.546  76.857 220.074 -0.32 -0.00    +0.006 A  
DOCKED: ATOM     28  C   UNL     1     143.295  76.884 217.381 -0.27 -0.00    +0.000 A  
DOCKED: ATOM     29  C   UNL     1     142.200  77.941 219.264 -0.30 -0.00    +0.000 A  
DOCKED: ATOM     30  C   UNL     1     142.575  77.955 217.918 -0.31 -0.00    +0.000 A  
DOCKED: ENDBRANCH  22  25
DOCKED: BRANCH  23  31
DOCKED: ATOM     31  O   UNL     1     145.959  71.887 219.743 -0.48 -0.23    -0.391 OA 
DOCKED: ATOM     32  H   UNL     1     145.879  71.752 220.725 -0.38 -0.04    +0.211 HD 
DOCKED: ENDBRANCH  23  31
DOCKED: ENDBRANCH  17  20
DOCKED: ENDBRANCH   1  17
DOCKED: TORSDOF 9
DOCKED: TER
DOCKED: ENDMDL
________________________________________________________________________________


    FINAL DOCKED STATE:
    ________________________


Run:   2 / 20
Time taken for this run:   0.060s

DOCKED: MODEL        2
DOCKED: USER    Run = 2
DOCKED: USER
DOCKED: USER    Estimated Free Energy of Binding    =  -7.60 kcal/mol  [=(1)+(2)+(3)-(4)]
DOCKED: USER
DOCKED: USER    (1) Final Intermolecular Energy     = -10.29 kcal/mol
DOCKED: USER        vdW + Hbond + desolv Energy     = -10.19 kcal/mol
DOCKED: USER        Electrostatic Energy            =  -0.09 kcal/mol
DOCKED: USER        Moving Ligand-Fixed Receptor    = -10.29 kcal/mol
DOCKED: USER        Moving Ligand-Moving Receptor   =  +0.00 kcal/mol
DOCKED: USER    (2) Final Total Internal Energy     =  -2.22 kcal/mol
DOCKED: USER    (3) Torsional Free Energy           =  +2.68 kcal/mol
DOCKED: USER    (4) Unbound System's Energy         =  -2.22 kcal/mol
DOCKED: USER
DOCKED: USER
DOCKED: REMARK SMILES O/C(=N\C=C(\O)N1C[C@H](O)C[C@H]1c1ccccc1)c1ccc2cc(Cl)ccc2n1
DOCKED: REMARK SMILES IDX 4 1 3 2 2 3 1 4 19 6 29 7 20 8 28 9 21 10 27 11 22 12 26 13
DOCKED: REMARK SMILES IDX 23 14 24 15 25 16 5 17 6 18 7 20 8 21 12 22 9 23 11 24 13 25
DOCKED: REMARK SMILES IDX 14 26 18 27 15 28 17 29 16 30 10 31
DOCKED: REMARK H PARENT 1 5 6 19 10 32
DOCKED: USER                              x       y       z     vdW  Elec       q    Type
DOCKED: USER                           _______ _______ _______ _____ _____    ______ ____
DOCKED: ROOT
DOCKED: ATOM      1  C   UNL     1     141.607  73.548 221.086 -0.19 -0.03    +0.181 C  
DOCKED: ENDROOT
DOCKED: BRANCH   1   2
DOCKED: ATOM      2  N   UNL     1     140.579  72.583 221.344 -0.17 +0.03    -0.215 NA 
DOCKED: BRANCH   2   3
DOCKED: ATOM      3  C   UNL     1     139.705  72.595 222.308 -0.20 -0.04    +0.237 C  
DOCKED: BRANCH   3   4
DOCKED: ATOM      4  O   UNL     1     138.655  73.518 222.352 -0.11 +0.17    -0.492 OA 
DOCKED: ATOM      5  H   UNL     1     138.746  74.463 222.697 -0.48 -0.12    +0.295 HD 
DOCKED: ENDBRANCH   3   4
DOCKED: BRANCH   3   6
DOCKED: ATOM      6  C   UNL     1     139.832  71.597 223.386 -0.31 -0.02    +0.126 A  
DOCKED: ATOM      7  N   UNL     1     140.343  71.976 224.590 -0.19 +0.04    -0.243 NA 
DOCKED: ATOM      8  C   UNL     1     139.451  70.260 223.187 -0.25 -0.01    +0.035 A  
DOCKED: ATOM      9  C   UNL     1     140.503  71.101 225.618 -0.53 -0.01    +0.071 A  
DOCKED: ATOM     10  C   UNL     1     139.601  69.338 224.226 -0.28 -0.00    +0.013 A  
DOCKED: ATOM     11  C   UNL     1     141.039  71.536 226.835 -0.72 -0.00    +0.030 A  
DOCKED: ATOM     12  C   UNL     1     140.131  69.749 225.454 -0.45 -0.00    +0.002 A  
DOCKED: ATOM     13  C   UNL     1     141.205  70.633 227.889 -0.55 -0.00    +0.023 A  
DOCKED: ATOM     14  C   UNL     1     140.299  68.848 226.516 -0.55 -0.01    +0.030 A  
DOCKED: ATOM     15  C   UNL     1     140.836  69.291 227.731 -0.58 -0.01    +0.041 A  
DOCKED: ATOM     16  Cl  UNL     1     141.047  68.164 229.058 -0.46 +0.02    -0.084 Cl 
DOCKED: ENDBRANCH   3   6
DOCKED: ENDBRANCH   2   3
DOCKED: ENDBRANCH   1   2
DOCKED: BRANCH   1  17
DOCKED: ATOM     17  C   UNL     1     141.286  74.751 220.603 -0.19 -0.05    +0.206 C  
DOCKED: BRANCH  17  18
DOCKED: ATOM     18  O   UNL     1     140.039  75.312 220.881 -0.06 +0.12    -0.494 OA 
DOCKED: ATOM     19  H   UNL     1     139.233  74.742 221.112 +0.07 -0.06    +0.295 HD 
DOCKED: ENDBRANCH  17  18
DOCKED: BRANCH  17  20
DOCKED: ATOM     20  N   UNL     1     142.204  75.477 219.775 -0.11 +0.14    -0.332 N  
DOCKED: ATOM     21  C   UNL     1     142.200  76.927 219.683 -0.26 -0.09    +0.152 C  
DOCKED: ATOM     22  C   UNL     1     143.025  74.833 218.761 -0.19 -0.04    +0.118 C  
DOCKED: ATOM     23  C   UNL     1     143.231  77.269 218.604 -0.15 -0.10    +0.136 C  
DOCKED: ATOM     24  C   UNL     1     143.513  75.963 217.847 -0.20 -0.04    +0.063 C  
DOCKED: BRANCH  22  25
DOCKED: ATOM     25  C   UNL     1     144.178  74.095 219.414 -0.32 +0.01    -0.025 A  
DOCKED: ATOM     26  C   UNL     1     144.563  72.830 218.939 -0.25 +0.00    +0.006 A  
DOCKED: ATOM     27  C   UNL     1     144.881  74.664 220.493 -0.43 -0.00    +0.006 A  
DOCKED: ATOM     28  C   UNL     1     145.623  72.142 219.539 -0.37 +0.00    +0.000 A  
DOCKED: ATOM     29  C   UNL     1     145.938  73.973 221.092 -0.65 -0.00    +0.000 A  
DOCKED: ATOM     30  C   UNL     1     146.309  72.713 220.615 -0.49 +0.00    +0.000 A  
DOCKED: ENDBRANCH  22  25
DOCKED: BRANCH  23  31
DOCKED: ATOM     31  O   UNL     1     142.787  78.295 217.751 -0.20 +0.35    -0.391 OA 
DOCKED: ATOM     32  H   UNL     1     143.588  78.718 217.340 -0.37 -0.33    +0.211 HD 
DOCKED: ENDBRANCH  23  31
DOCKED: ENDBRANCH  17  20
DOCKED: ENDBRANCH   1  17
DOCKED: TORSDOF 9
DOCKED: TER
DOCKED: ENDMDL
________________________________________________________________________________


    FINAL DOCKED STATE:
    ________________________


Run:   3 / 20
Time taken for this run:   0.060s

DOCKED: MODEL        3
DOCKED: USER    Run = 3
DOCKED: USER
DOCKED: USER    Estimated Free Energy of Binding    =  -8.11 kcal/mol  [=(1)+(2)+(3)-(4)]
DOCKED: USER
DOCKED: USER    (1) Final Intermolecular Energy     = -10.80 kcal/mol
DOCKED: USER        vdW + Hbond + desolv Energy     = -10.66 kcal/mol
DOCKED: USER        Electrostatic Energy            =  -0.14 kcal/mol
DOCKED: USER        Moving Ligand-Fixed Receptor    = -10.80 kcal/mol
DOCKED: USER        Moving Ligand-Moving Receptor   =  +0.00 kcal/mol
DOCKED: USER    (2) Final Total Internal Energy     =  -2.35 kcal/mol
DOCKED: USER    (3) Torsional Free Energy           =  +2.68 kcal/mol
DOCKED: USER    (4) Unbound System's Energy         =  -2.35 kcal/mol
DOCKED: USER
DOCKED: USER
DOCKED: REMARK SMILES O/C(=N\C=C(\O)N1C[C@H](O)C[C@H]1c1ccccc1)c1ccc2cc(Cl)ccc2n1
DOCKED: REMARK SMILES IDX 4 1 3 2 2 3 1 4 19 6 29 7 20 8 28 9 21 10 27 11 22 12 26 13
DOCKED: REMARK SMILES IDX 23 14 24 15 25 16 5 17 6 18 7 20 8 21 12 22 9 23 11 24 13 25
DOCKED: REMARK SMILES IDX 14 26 18 27 15 28 17 29 16 30 10 31
DOCKED: REMARK H PARENT 1 5 6 19 10 32
DOCKED: USER                              x       y       z     vdW  Elec       q    Type
DOCKED: USER                           _______ _______ _______ _____ _____    ______ ____
DOCKED: ROOT
DOCKED: ATOM      1  C   UNL     1     140.496  72.853 220.555 -0.12 -0.03    +0.181 C  
DOCKED: ENDROOT
DOCKED: BRANCH   1   2
DOCKED: ATOM      2  N   UNL     1     139.493  71.948 221.033 -0.07 +0.04    -0.215 NA 
DOCKED: BRANCH   2   3
DOCKED: ATOM      3  C   UNL     1     138.803  72.040 222.134 -0.14 -0.06    +0.237 C  
DOCKED: BRANCH   3   4
DOCKED: ATOM      4  O   UNL     1     137.775  72.975 222.295 -0.05 +0.16    -0.492 OA 
DOCKED: ATOM      5  H   UNL     1     137.893  73.873 222.742 -0.47 -0.16    +0.295 HD 
DOCKED: ENDBRANCH   3   4
DOCKED: BRANCH   3   6
DOCKED: ATOM      6  C   UNL     1     139.122  71.120 223.242 -0.25 -0.03    +0.126 A  
DOCKED: ATOM      7  N   UNL     1     139.746  71.604 224.352 -0.23 +0.06    -0.243 NA 
DOCKED: ATOM      8  C   UNL     1     138.808  69.753 223.166 -0.22 -0.01    +0.035 A  
DOCKED: ATOM      9  C   UNL     1     140.083  70.806 225.400 -0.47 -0.01    +0.071 A  
DOCKED: ATOM     10  C   UNL     1     139.139  68.910 224.229 -0.32 -0.00    +0.013 A  
DOCKED: ATOM     11  C   UNL     1     140.729  71.348 226.516 -0.65 -0.00    +0.030 A  
DOCKED: ATOM     12  C   UNL     1     139.783  69.428 225.358 -0.43 -0.00    +0.002 A  
DOCKED: ATOM     13  C   UNL     1     141.077  70.524 227.590 -0.61 -0.00    +0.023 A  
DOCKED: ATOM     14  C   UNL     1     140.134  68.607 226.440 -0.57 -0.01    +0.030 A  
DOCKED: ATOM     15  C   UNL     1     140.781  69.156 227.554 -0.59 -0.01    +0.041 A  
DOCKED: ATOM     16  Cl  UNL     1     141.221  68.130 228.907 -0.55 +0.02    -0.084 Cl 
DOCKED: ENDBRANCH   3   6
DOCKED: ENDBRANCH   2   3
DOCKED: ENDBRANCH   1   2
DOCKED: BRANCH   1  17
DOCKED: ATOM     17  C   UNL     1     140.643  74.050 221.131 -0.20 -0.03    +0.206 C  
DOCKED: BRANCH  17  18
DOCKED: ATOM     18  O   UNL     1     139.976  74.346 222.320 -0.72 +0.01    -0.494 OA 
DOCKED: ATOM     19  H   UNL     1     139.713  73.626 222.983 -0.31 -0.03    +0.295 HD 
DOCKED: ENDBRANCH  17  18
DOCKED: BRANCH  17  20
DOCKED: ATOM     20  N   UNL     1     141.471  75.055 220.531 -0.12 +0.10    -0.332 N  
DOCKED: ATOM     21  C   UNL     1     141.315  76.472 220.814 -0.23 -0.07    +0.152 C  
DOCKED: ATOM     22  C   UNL     1     142.341  74.781 219.398 -0.18 -0.04    +0.118 C  
DOCKED: ATOM     23  C   UNL     1     142.292  77.184 219.874 -0.25 -0.09    +0.136 C  
DOCKED: ATOM     24  C   UNL     1     142.698  76.152 218.811 -0.27 -0.03    +0.063 C  
DOCKED: BRANCH  22  25
DOCKED: ATOM     25  C   UNL     1     143.572  74.023 219.855 -0.33 +0.01    -0.025 A  
DOCKED: ATOM     26  C   UNL     1     144.635  74.710 220.466 -0.44 -0.00    +0.006 A  
DOCKED: ATOM     27  C   UNL     1     143.667  72.629 219.684 -0.25 -0.00    +0.006 A  
DOCKED: ATOM     28  C   UNL     1     145.775  74.016 220.887 -0.65 -0.00    +0.000 A  
DOCKED: ATOM     29  C   UNL     1     144.808  71.940 220.104 -0.35 -0.00    +0.000 A  
DOCKED: ATOM     30  C   UNL     1     145.861  72.633 220.705 -0.53 +0.00    +0.000 A  
DOCKED: ENDBRANCH  22  25
DOCKED: BRANCH  23  31
DOCKED: ATOM     31  O   UNL     1     141.733  78.343 219.306 -0.11 +0.23    -0.391 OA 
DOCKED: ATOM     32  H   UNL     1     142.480  78.923 219.000 +0.01 -0.17    +0.211 HD 
DOCKED: ENDBRANCH  23  31
DOCKED: ENDBRANCH  17  20
DOCKED: ENDBRANCH   1  17
DOCKED: TORSDOF 9
DOCKED: TER
DOCKED: ENDMDL
________________________________________________________________________________


    FINAL DOCKED STATE:
    ________________________


Run:   4 / 20
Time taken for this run:   0.060s

DOCKED: MODEL        4
DOCKED: USER    Run = 4
DOCKED: USER
DOCKED: USER    Estimated Free Energy of Binding    =  -7.84 kcal/mol  [=(1)+(2)+(3)-(4)]
DOCKED: USER
DOCKED: USER    (1) Final Intermolecular Energy     = -10.52 kcal/mol
DOCKED: USER        vdW + Hbond + desolv Energy     = -10.22 kcal/mol
DOCKED: USER        Electrostatic Energy            =  -0.31 kcal/mol
DOCKED: USER        Moving Ligand-Fixed Receptor    = -10.52 kcal/mol
DOCKED: USER        Moving Ligand-Moving Receptor   =  +0.00 kcal/mol
DOCKED: USER    (2) Final Total Internal Energy     =  -2.16 kcal/mol
DOCKED: USER    (3) Torsional Free Energy           =  +2.68 kcal/mol
DOCKED: USER    (4) Unbound System's Energy         =  -2.16 kcal/mol
DOCKED: USER
DOCKED: USER
DOCKED: REMARK SMILES O/C(=N\C=C(\O)N1C[C@H](O)C[C@H]1c1ccccc1)c1ccc2cc(Cl)ccc2n1
DOCKED: REMARK SMILES IDX 4 1 3 2 2 3 1 4 19 6 29 7 20 8 28 9 21 10 27 11 22 12 26 13
DOCKED: REMARK SMILES IDX 23 14 24 15 25 16 5 17 6 18 7 20 8 21 12 22 9 23 11 24 13 25
DOCKED: REMARK SMILES IDX 14 26 18 27 15 28 17 29 16 30 10 31
DOCKED: REMARK H PARENT 1 5 6 19 10 32
DOCKED: USER                              x       y       z     vdW  Elec       q    Type
DOCKED: USER                           _______ _______ _______ _____ _____    ______ ____
DOCKED: ROOT
DOCKED: ATOM      1  C   UNL     1     140.547  72.179 220.191 -0.08 -0.03    +0.181 C  
DOCKED: ENDROOT
DOCKED: BRANCH   1   2
DOCKED: ATOM      2  N   UNL     1     139.304  71.773 220.780 -0.05 +0.04    -0.215 NA 
DOCKED: BRANCH   2   3
DOCKED: ATOM      3  C   UNL     1     138.846  72.085 221.958 -0.13 -0.05    +0.237 C  
DOCKED: BRANCH   3   4
DOCKED: ATOM      4  O   UNL     1     138.114  73.254 222.188 -0.05 +0.16    -0.492 OA 
DOCKED: ATOM      5  H   UNL     1     138.404  73.989 222.818 -0.50 -0.17    +0.295 HD 
DOCKED: ENDBRANCH   3   4
DOCKED: BRANCH   3   6
DOCKED: ATOM      6  C   UNL     1     139.112  71.167 223.081 -0.23 -0.03    +0.126 A  
DOCKED: ATOM      7  N   UNL     1     139.793  71.624 224.169 -0.24 +0.05    -0.243 NA 
DOCKED: ATOM      8  C   UNL     1     138.688  69.829 223.042 -0.21 -0.01    +0.035 A  
DOCKED: ATOM      9  C   UNL     1     140.085  70.824 225.229 -0.46 -0.01    +0.071 A  
DOCKED: ATOM     10  C   UNL     1     138.971  68.984 224.118 -0.32 -0.00    +0.013 A  
DOCKED: ATOM     11  C   UNL     1     140.793  71.337 226.321 -0.64 -0.00    +0.030 A  
DOCKED: ATOM     12  C   UNL     1     139.676  69.474 225.224 -0.42 -0.00    +0.002 A  
DOCKED: ATOM     13  C   UNL     1     141.094  70.511 227.408 -0.59 -0.00    +0.023 A  
DOCKED: ATOM     14  C   UNL     1     139.980  68.651 226.318 -0.55 -0.01    +0.030 A  
DOCKED: ATOM     15  C   UNL     1     140.690  69.171 227.408 -0.59 -0.01    +0.041 A  
DOCKED: ATOM     16  Cl  UNL     1     141.071  68.142 228.777 -0.67 +0.02    -0.084 Cl 
DOCKED: ENDBRANCH   3   6
DOCKED: ENDBRANCH   2   3
DOCKED: ENDBRANCH   1   2
DOCKED: BRANCH   1  17
DOCKED: ATOM     17  C   UNL     1     141.359  73.007 220.855 -0.17 -0.03    +0.206 C  
DOCKED: BRANCH  17  18
DOCKED: ATOM     18  O   UNL     1     140.915  73.658 222.006 -0.57 +0.01    -0.494 OA 
DOCKED: ATOM     19  H   UNL     1     140.294  73.210 222.670 +0.06 +0.00    +0.295 HD 
DOCKED: ENDBRANCH  17  18
DOCKED: BRANCH  17  20
DOCKED: ATOM     20  N   UNL     1     142.691  73.257 220.386 -0.10 +0.06    -0.332 N  
DOCKED: ATOM     21  C   UNL     1     143.505  72.234 219.751 -0.18 -0.02    +0.152 C  
DOCKED: ATOM     22  C   UNL     1     143.437  74.454 220.743 -0.15 -0.05    +0.118 C  
DOCKED: ATOM     23  C   UNL     1     144.876  72.881 219.538 -0.30 +0.00    +0.136 C  
DOCKED: ATOM     24  C   UNL     1     144.901  74.140 220.416 -0.49 -0.02    +0.063 C  
DOCKED: BRANCH  22  25
DOCKED: ATOM     25  C   UNL     1     142.923  75.644 219.957 -0.34 +0.01    -0.025 A  
DOCKED: ATOM     26  C   UNL     1     141.885  76.436 220.475 -0.28 -0.00    +0.006 A  
DOCKED: ATOM     27  C   UNL     1     143.479  75.978 218.706 -0.30 -0.00    +0.006 A  
DOCKED: ATOM     28  C   UNL     1     141.404  77.533 219.752 -0.24 -0.00    +0.000 A  
DOCKED: ATOM     29  C   UNL     1     142.995  77.073 217.986 -0.31 -0.00    +0.000 A  
DOCKED: ATOM     30  C   UNL     1     141.958  77.850 218.508 -0.25 -0.00    +0.000 A  
DOCKED: ENDBRANCH  22  25
DOCKED: BRANCH  23  31
DOCKED: ATOM     31  O   UNL     1     145.931  72.000 219.838 -0.44 -0.20    -0.391 OA 
DOCKED: ATOM     32  H   UNL     1     145.932  71.847 220.820 -0.42 -0.04    +0.211 HD 
DOCKED: ENDBRANCH  23  31
DOCKED: ENDBRANCH  17  20
DOCKED: ENDBRANCH   1  17
DOCKED: TORSDOF 9
DOCKED: TER
DOCKED: ENDMDL
________________________________________________________________________________


    FINAL DOCKED STATE:
    ________________________


Run:   5 / 20
Time taken for this run:   0.060s

DOCKED: MODEL        5
DOCKED: USER    Run = 5
DOCKED: USER
DOCKED: USER    Estimated Free Energy of Binding    =  -8.18 kcal/mol  [=(1)+(2)+(3)-(4)]
DOCKED: USER
DOCKED: USER    (1) Final Intermolecular Energy     = -10.86 kcal/mol
DOCKED: USER        vdW + Hbond + desolv Energy     = -10.75 kcal/mol
DOCKED: USER        Electrostatic Energy            =  -0.11 kcal/mol
DOCKED: USER        Moving Ligand-Fixed Receptor    = -10.86 kcal/mol
DOCKED: USER        Moving Ligand-Moving Receptor   =  +0.00 kcal/mol
DOCKED: USER    (2) Final Total Internal Energy     =  -2.09 kcal/mol
DOCKED: USER    (3) Torsional Free Energy           =  +2.68 kcal/mol
DOCKED: USER    (4) Unbound System's Energy         =  -2.09 kcal/mol
DOCKED: USER
DOCKED: USER
DOCKED: REMARK SMILES O/C(=N\C=C(\O)N1C[C@H](O)C[C@H]1c1ccccc1)c1ccc2cc(Cl)ccc2n1
DOCKED: REMARK SMILES IDX 4 1 3 2 2 3 1 4 19 6 29 7 20 8 28 9 21 10 27 11 22 12 26 13
DOCKED: REMARK SMILES IDX 23 14 24 15 25 16 5 17 6 18 7 20 8 21 12 22 9 23 11 24 13 25
DOCKED: REMARK SMILES IDX 14 26 18 27 15 28 17 29 16 30 10 31
DOCKED: REMARK H PARENT 1 5 6 19 10 32
DOCKED: USER                              x       y       z     vdW  Elec       q    Type
DOCKED: USER                           _______ _______ _______ _____ _____    ______ ____
DOCKED: ROOT
DOCKED: ATOM      1  C   UNL     1     140.983  74.739 221.334 -0.24 -0.03    +0.181 C  
DOCKED: ENDROOT
DOCKED: BRANCH   1   2
DOCKED: ATOM      2  N   UNL     1     140.828  73.461 221.963 -0.62 +0.01    -0.215 NA 
DOCKED: BRANCH   2   3
DOCKED: ATOM      3  C   UNL     1     139.735  72.940 222.440 -0.12 -0.04    +0.237 C  
DOCKED: BRANCH   3   4
DOCKED: ATOM      4  O   UNL     1     138.466  73.349 222.016 -0.09 +0.15    -0.492 OA 
DOCKED: ATOM      5  H   UNL     1     137.880  73.995 222.525 -0.32 -0.13    +0.295 HD 
DOCKED: ENDBRANCH   3   4
DOCKED: BRANCH   3   6
DOCKED: ATOM      6  C   UNL     1     139.847  71.881 223.460 -0.29 -0.03    +0.126 A  
DOCKED: ATOM      7  N   UNL     1     140.330  72.193 224.695 +0.04 +0.05    -0.243 NA 
DOCKED: ATOM      8  C   UNL     1     139.481  70.555 223.176 -0.27 -0.01    +0.035 A  
DOCKED: ATOM      9  C   UNL     1     140.475  71.261 225.674 -0.52 -0.01    +0.071 A  
DOCKED: ATOM     10  C   UNL     1     139.616  69.576 224.163 -0.29 -0.00    +0.013 A  
DOCKED: ATOM     11  C   UNL     1     140.982  71.628 226.924 -0.73 -0.01    +0.030 A  
DOCKED: ATOM     12  C   UNL     1     140.117  69.919 225.424 -0.46 -0.00    +0.002 A  
DOCKED: ATOM     13  C   UNL     1     141.133  70.666 227.927 -0.61 -0.00    +0.023 A  
DOCKED: ATOM     14  C   UNL     1     140.270  68.958 226.434 -0.54 -0.01    +0.030 A  
DOCKED: ATOM     15  C   UNL     1     140.779  69.333 227.684 -0.58 -0.01    +0.041 A  
DOCKED: ATOM     16  Cl  UNL     1     140.971  68.132 228.948 -0.52 +0.02    -0.084 Cl 
DOCKED: ENDBRANCH   3   6
DOCKED: ENDBRANCH   2   3
DOCKED: ENDBRANCH   1   2
DOCKED: BRANCH   1  17
DOCKED: ATOM     17  C   UNL     1     140.135  75.731 221.622 -0.25 -0.05    +0.206 C  
DOCKED: BRANCH  17  18
DOCKED: ATOM     18  O   UNL     1     139.302  75.643 222.738 -0.33 +0.09    -0.494 OA 
DOCKED: ATOM     19  H   UNL     1     139.257  74.807 223.310 -0.44 -0.09    +0.295 HD 
DOCKED: ENDBRANCH  17  18
DOCKED: BRANCH  17  20
DOCKED: ATOM     20  N   UNL     1     140.051  76.890 220.783 -0.06 +0.10    -0.332 N  
DOCKED: ATOM     21  C   UNL     1     138.889  77.180 219.960 -0.04 -0.04    +0.152 C  
DOCKED: ATOM     22  C   UNL     1     141.205  77.720 220.472 -0.23 -0.06    +0.118 C  
DOCKED: ATOM     23  C   UNL     1     139.271  78.414 219.138 -0.03 -0.04    +0.136 C  
DOCKED: ATOM     24  C   UNL     1     140.797  78.554 219.252 -0.14 -0.03    +0.063 C  
DOCKED: BRANCH  22  25
DOCKED: ATOM     25  C   UNL     1     141.557  78.592 221.662 -0.38 +0.01    -0.025 A  
DOCKED: ATOM     26  C   UNL     1     141.291  78.144 222.967 -0.50 -0.00    +0.006 A  
DOCKED: ATOM     27  C   UNL     1     142.160  79.852 221.481 -0.40 -0.00    +0.006 A  
DOCKED: ATOM     28  C   UNL     1     141.610  78.946 224.068 -0.58 -0.00    +0.000 A  
DOCKED: ATOM     29  C   UNL     1     142.476  80.650 222.583 -0.58 -0.00    +0.000 A  
DOCKED: ATOM     30  C   UNL     1     142.201  80.198 223.876 -0.63 -0.00    +0.000 A  
DOCKED: ENDBRANCH  22  25
DOCKED: BRANCH  23  31
DOCKED: ATOM     31  O   UNL     1     138.844  78.316 217.801 +0.00 +0.11    -0.391 OA 
DOCKED: ATOM     32  H   UNL     1     139.593  77.940 217.268 +0.02 -0.07    +0.211 HD 
DOCKED: ENDBRANCH  23  31
DOCKED: ENDBRANCH  17  20
DOCKED: ENDBRANCH   1  17
DOCKED: TORSDOF 9
DOCKED: TER
DOCKED: ENDMDL
________________________________________________________________________________


    FINAL DOCKED STATE:
    ________________________


Run:   6 / 20
Time taken for this run:   0.060s

DOCKED: MODEL        6
DOCKED: USER    Run = 6
DOCKED: USER
DOCKED: USER    Estimated Free Energy of Binding    =  -8.02 kcal/mol  [=(1)+(2)+(3)-(4)]
DOCKED: USER
DOCKED: USER    (1) Final Intermolecular Energy     = -10.70 kcal/mol
DOCKED: USER        vdW + Hbond + desolv Energy     = -10.58 kcal/mol
DOCKED: USER        Electrostatic Energy            =  -0.13 kcal/mol
DOCKED: USER        Moving Ligand-Fixed Receptor    = -10.70 kcal/mol
DOCKED: USER        Moving Ligand-Moving Receptor   =  +0.00 kcal/mol
DOCKED: USER    (2) Final Total Internal Energy     =  -2.40 kcal/mol
DOCKED: USER    (3) Torsional Free Energy           =  +2.68 kcal/mol
DOCKED: USER    (4) Unbound System's Energy         =  -2.40 kcal/mol
DOCKED: USER
DOCKED: USER
DOCKED: REMARK SMILES O/C(=N\C=C(\O)N1C[C@H](O)C[C@H]1c1ccccc1)c1ccc2cc(Cl)ccc2n1
DOCKED: REMARK SMILES IDX 4 1 3 2 2 3 1 4 19 6 29 7 20 8 28 9 21 10 27 11 22 12 26 13
DOCKED: REMARK SMILES IDX 23 14 24 15 25 16 5 17 6 18 7 20 8 21 12 22 9 23 11 24 13 25
DOCKED: REMARK SMILES IDX 14 26 18 27 15 28 17 29 16 30 10 31
DOCKED: REMARK H PARENT 1 5 6 19 10 32
DOCKED: USER                              x       y       z     vdW  Elec       q    Type
DOCKED: USER                           _______ _______ _______ _____ _____    ______ ____
DOCKED: ROOT
DOCKED: ATOM      1  C   UNL     1     140.451  73.050 220.442 -0.11 -0.03    +0.181 C  
DOCKED: ENDROOT
DOCKED: BRANCH   1   2
DOCKED: ATOM      2  N   UNL     1     139.485  72.145 220.991 -0.07 +0.04    -0.215 NA 
DOCKED: BRANCH   2   3
DOCKED: ATOM      3  C   UNL     1     138.819  72.275 222.102 -0.14 -0.06    +0.237 C  
DOCKED: BRANCH   3   4
DOCKED: ATOM      4  O   UNL     1     137.860  73.278 222.285 -0.05 +0.17    -0.492 OA 
DOCKED: ATOM      5  H   UNL     1     138.040  74.153 222.755 -0.49 -0.16    +0.295 HD 
DOCKED: ENDBRANCH   3   4
DOCKED: BRANCH   3   6
DOCKED: ATOM      6  C   UNL     1     139.090  71.328 223.199 -0.25 -0.03    +0.126 A  
DOCKED: ATOM      7  N   UNL     1     139.774  71.755 224.297 -0.19 +0.06    -0.243 NA 
DOCKED: ATOM      8  C   UNL     1     138.669  69.990 223.126 -0.22 -0.01    +0.035 A  
DOCKED: ATOM      9  C   UNL     1     140.071  70.928 225.334 -0.47 -0.01    +0.071 A  
DOCKED: ATOM     10  C   UNL     1     138.957  69.117 224.177 -0.32 -0.00    +0.013 A  
DOCKED: ATOM     11  C   UNL     1     140.782  71.412 226.437 -0.65 -0.00    +0.030 A  
DOCKED: ATOM     12  C   UNL     1     139.664  69.578 225.294 -0.42 -0.00    +0.002 A  
DOCKED: ATOM     13  C   UNL     1     141.089  70.558 227.500 -0.60 -0.00    +0.023 A  
DOCKED: ATOM     14  C   UNL     1     139.974  68.726 226.364 -0.54 -0.01    +0.030 A  
DOCKED: ATOM     15  C   UNL     1     140.686  69.217 227.465 -0.59 -0.01    +0.041 A  
DOCKED: ATOM     16  Cl  UNL     1     141.074  68.152 228.804 -0.65 +0.02    -0.084 Cl 
DOCKED: ENDBRANCH   3   6
DOCKED: ENDBRANCH   2   3
DOCKED: ENDBRANCH   1   2
DOCKED: BRANCH   1  17
DOCKED: ATOM     17  C   UNL     1     140.737  74.188 221.081 -0.20 -0.04    +0.206 C  
DOCKED: BRANCH  17  18
DOCKED: ATOM     18  O   UNL     1     140.192  74.445 222.339 -0.68 -0.01    -0.494 OA 
DOCKED: ATOM     19  H   UNL     1     139.889  73.700 222.956 -0.22 +0.01    +0.295 HD 
DOCKED: ENDBRANCH  17  18
DOCKED: BRANCH  17  20
DOCKED: ATOM     20  N   UNL     1     141.589  75.172 220.479 -0.12 +0.11    -0.332 N  
DOCKED: ATOM     21  C   UNL     1     141.447  76.595 220.736 -0.23 -0.07    +0.152 C  
DOCKED: ATOM     22  C   UNL     1     142.476  74.867 219.367 -0.20 -0.04    +0.118 C  
DOCKED: ATOM     23  C   UNL     1     142.450  77.278 219.802 -0.22 -0.09    +0.136 C  
DOCKED: ATOM     24  C   UNL     1     142.862  76.223 218.764 -0.29 -0.03    +0.063 C  
DOCKED: BRANCH  22  25
DOCKED: ATOM     25  C   UNL     1     143.688  74.101 219.860 -0.34 +0.01    -0.025 A  
DOCKED: ATOM     26  C   UNL     1     143.768  72.711 219.671 -0.26 -0.00    +0.006 A  
DOCKED: ATOM     27  C   UNL     1     144.750  74.766 220.504 -0.38 -0.00    +0.006 A  
DOCKED: ATOM     28  C   UNL     1     144.882  71.999 220.127 -0.35 -0.00    +0.000 A  
DOCKED: ATOM     29  C   UNL     1     145.860  74.051 220.960 -0.64 -0.00    +0.000 A  
DOCKED: ATOM     30  C   UNL     1     145.927  72.668 220.772 -0.54 +0.00    +0.000 A  
DOCKED: ENDBRANCH  22  25
DOCKED: BRANCH  23  31
DOCKED: ATOM     31  O   UNL     1     141.918  78.435 219.204 -0.13 +0.24    -0.391 OA 
DOCKED: ATOM     32  H   UNL     1     142.650  79.102 219.125 -0.03 -0.18    +0.211 HD 
DOCKED: ENDBRANCH  23  31
DOCKED: ENDBRANCH  17  20
DOCKED: ENDBRANCH   1  17
DOCKED: TORSDOF 9
DOCKED: TER
DOCKED: ENDMDL
________________________________________________________________________________


    FINAL DOCKED STATE:
    ________________________


Run:   7 / 20
Time taken for this run:   0.060s

DOCKED: MODEL        7
DOCKED: USER    Run = 7
DOCKED: USER
DOCKED: USER    Estimated Free Energy of Binding    =  -8.14 kcal/mol  [=(1)+(2)+(3)-(4)]
DOCKED: USER
DOCKED: USER    (1) Final Intermolecular Energy     = -10.82 kcal/mol
DOCKED: USER        vdW + Hbond + desolv Energy     = -10.66 kcal/mol
DOCKED: USER        Electrostatic Energy            =  -0.16 kcal/mol
DOCKED: USER        Moving Ligand-Fixed Receptor    = -10.82 kcal/mol
DOCKED: USER        Moving Ligand-Moving Receptor   =  +0.00 kcal/mol
DOCKED: USER    (2) Final Total Internal Energy     =  -2.32 kcal/mol
DOCKED: USER    (3) Torsional Free Energy           =  +2.68 kcal/mol
DOCKED: USER    (4) Unbound System's Energy         =  -2.32 kcal/mol
DOCKED: USER
DOCKED: USER
DOCKED: REMARK SMILES O/C(=N\C=C(\O)N1C[C@H](O)C[C@H]1c1ccccc1)c1ccc2cc(Cl)ccc2n1
DOCKED: REMARK SMILES IDX 4 1 3 2 2 3 1 4 19 6 29 7 20 8 28 9 21 10 27 11 22 12 26 13
DOCKED: REMARK SMILES IDX 23 14 24 15 25 16 5 17 6 18 7 20 8 21 12 22 9 23 11 24 13 25
DOCKED: REMARK SMILES IDX 14 26 18 27 15 28 17 29 16 30 10 31
DOCKED: REMARK H PARENT 1 5 6 19 10 32
DOCKED: USER                              x       y       z     vdW  Elec       q    Type
DOCKED: USER                           _______ _______ _______ _____ _____    ______ ____
DOCKED: ROOT
DOCKED: ATOM      1  C   UNL     1     140.174  73.264 220.533 -0.11 -0.03    +0.181 C  
DOCKED: ENDROOT
DOCKED: BRANCH   1   2
DOCKED: ATOM      2  N   UNL     1     139.562  72.121 221.144 -0.08 +0.04    -0.215 NA 
DOCKED: BRANCH   2   3
DOCKED: ATOM      3  C   UNL     1     138.817  72.096 222.211 -0.14 -0.06    +0.237 C  
DOCKED: BRANCH   3   4
DOCKED: ATOM      4  O   UNL     1     137.696  72.920 222.358 -0.05 +0.17    -0.492 OA 
DOCKED: ATOM      5  H   UNL     1     137.709  73.814 222.828 -0.46 -0.17    +0.295 HD 
DOCKED: ENDBRANCH   3   4
DOCKED: BRANCH   3   6
DOCKED: ATOM      6  C   UNL     1     139.172  71.162 223.295 -0.26 -0.03    +0.126 A  
DOCKED: ATOM      7  N   UNL     1     139.749  71.647 224.431 -0.20 +0.06    -0.243 NA 
DOCKED: ATOM      8  C   UNL     1     138.941  69.782 223.173 -0.23 -0.01    +0.035 A  
DOCKED: ATOM      9  C   UNL     1     140.117  70.838 225.460 -0.48 -0.01    +0.071 A  
DOCKED: ATOM     10  C   UNL     1     139.306  68.927 224.214 -0.29 -0.00    +0.013 A  
DOCKED: ATOM     11  C   UNL     1     140.712  71.381 226.602 -0.66 -0.00    +0.030 A  
DOCKED: ATOM     12  C   UNL     1     139.900  69.446 225.370 -0.43 -0.00    +0.002 A  
DOCKED: ATOM     13  C   UNL     1     141.092  70.546 227.657 -0.60 -0.00    +0.023 A  
DOCKED: ATOM     14  C   UNL     1     140.283  68.613 226.432 -0.57 -0.01    +0.030 A  
DOCKED: ATOM     15  C   UNL     1     140.878  69.164 227.574 -0.58 -0.01    +0.041 A  
DOCKED: ATOM     16  Cl  UNL     1     141.357  68.123 228.902 -0.53 +0.02    -0.084 Cl 
DOCKED: ENDBRANCH   3   6
DOCKED: ENDBRANCH   2   3
DOCKED: ENDBRANCH   1   2
DOCKED: BRANCH   1  17
DOCKED: ATOM     17  C   UNL     1     140.376  74.374 221.250 -0.21 -0.04    +0.206 C  
DOCKED: BRANCH  17  18
DOCKED: ATOM     18  O   UNL     1     139.695  74.570 222.451 -0.55 +0.04    -0.494 OA 
DOCKED: ATOM     19  H   UNL     1     139.521  73.811 223.101 -0.45 -0.06    +0.295 HD 
DOCKED: ENDBRANCH  17  18
DOCKED: BRANCH  17  20
DOCKED: ATOM     20  N   UNL     1     141.277  75.389 220.789 -0.13 +0.11    -0.332 N  
DOCKED: ATOM     21  C   UNL     1     141.170  76.779 221.200 -0.24 -0.07    +0.152 C  
DOCKED: ATOM     22  C   UNL     1     142.191  75.181 219.676 -0.21 -0.05    +0.118 C  
DOCKED: ATOM     23  C   UNL     1     142.224  77.527 220.380 -0.16 -0.10    +0.136 C  
DOCKED: ATOM     24  C   UNL     1     142.638  76.582 219.242 -0.31 -0.04    +0.063 C  
DOCKED: BRANCH  22  25
DOCKED: ATOM     25  C   UNL     1     143.362  74.324 220.116 -0.35 +0.01    -0.025 A  
DOCKED: ATOM     26  C   UNL     1     143.226  72.927 220.185 -0.28 -0.00    +0.006 A  
DOCKED: ATOM     27  C   UNL     1     144.599  74.908 220.451 -0.37 -0.00    +0.006 A  
DOCKED: ATOM     28  C   UNL     1     144.302  72.131 220.593 -0.35 -0.00    +0.000 A  
DOCKED: ATOM     29  C   UNL     1     145.671  74.110 220.860 -0.63 -0.00    +0.000 A  
DOCKED: ATOM     30  C   UNL     1     145.523  72.723 220.932 -0.52 -0.00    +0.000 A  
DOCKED: ENDBRANCH  22  25
DOCKED: BRANCH  23  31
DOCKED: ATOM     31  O   UNL     1     141.747  78.761 219.901 -0.13 +0.23    -0.391 OA 
DOCKED: ATOM     32  H   UNL     1     142.466  79.436 220.029 -0.09 -0.16    +0.211 HD 
DOCKED: ENDBRANCH  23  31
DOCKED: ENDBRANCH  17  20
DOCKED: ENDBRANCH   1  17
DOCKED: TORSDOF 9
DOCKED: TER
DOCKED: ENDMDL
________________________________________________________________________________


    FINAL DOCKED STATE:
    ________________________


Run:   8 / 20
Time taken for this run:   0.060s

DOCKED: MODEL        8
DOCKED: USER    Run = 8
DOCKED: USER
DOCKED: USER    Estimated Free Energy of Binding    =  -8.39 kcal/mol  [=(1)+(2)+(3)-(4)]
DOCKED: USER
DOCKED: USER    (1) Final Intermolecular Energy     = -11.08 kcal/mol
DOCKED: USER        vdW + Hbond + desolv Energy     = -10.83 kcal/mol
DOCKED: USER        Electrostatic Energy            =  -0.25 kcal/mol
DOCKED: USER        Moving Ligand-Fixed Receptor    = -11.08 kcal/mol
DOCKED: USER        Moving Ligand-Moving Receptor   =  +0.00 kcal/mol
DOCKED: USER    (2) Final Total Internal Energy     =  -1.26 kcal/mol
DOCKED: USER    (3) Torsional Free Energy           =  +2.68 kcal/mol
DOCKED: USER    (4) Unbound System's Energy         =  -1.26 kcal/mol
DOCKED: USER
DOCKED: USER
DOCKED: REMARK SMILES O/C(=N\C=C(\O)N1C[C@H](O)C[C@H]1c1ccccc1)c1ccc2cc(Cl)ccc2n1
DOCKED: REMARK SMILES IDX 4 1 3 2 2 3 1 4 19 6 29 7 20 8 28 9 21 10 27 11 22 12 26 13
DOCKED: REMARK SMILES IDX 23 14 24 15 25 16 5 17 6 18 7 20 8 21 12 22 9 23 11 24 13 25
DOCKED: REMARK SMILES IDX 14 26 18 27 15 28 17 29 16 30 10 31
DOCKED: REMARK H PARENT 1 5 6 19 10 32
DOCKED: USER                              x       y       z     vdW  Elec       q    Type
DOCKED: USER                           _______ _______ _______ _____ _____    ______ ____
DOCKED: ROOT
DOCKED: ATOM      1  C   UNL     1     139.976  75.256 221.230 -0.22 -0.04    +0.181 C  
DOCKED: ENDROOT
DOCKED: BRANCH   1   2
DOCKED: ATOM      2  N   UNL     1     140.035  74.140 222.127 -0.80 +0.01    -0.215 NA 
DOCKED: BRANCH   2   3
DOCKED: ATOM      3  C   UNL     1     139.937  72.877 221.828 -0.20 -0.04    +0.237 C  
DOCKED: BRANCH   3   4
DOCKED: ATOM      4  O   UNL     1     139.822  72.429 220.508 -0.01 +0.09    -0.492 OA 
DOCKED: ATOM      5  H   UNL     1     139.778  73.040 219.705 +0.05 -0.06    +0.295 HD 
DOCKED: ENDBRANCH   3   4
DOCKED: BRANCH   3   6
DOCKED: ATOM      6  C   UNL     1     139.951  71.892 222.926 -0.29 -0.02    +0.126 A  
DOCKED: ATOM      7  N   UNL     1     140.434  72.258 224.145 -0.12 +0.03    -0.243 NA 
DOCKED: ATOM      8  C   UNL     1     139.489  70.580 222.732 -0.23 -0.01    +0.035 A  
DOCKED: ATOM      9  C   UNL     1     140.491  71.393 225.193 -0.49 -0.01    +0.071 A  
DOCKED: ATOM     10  C   UNL     1     139.532  69.670 223.790 -0.27 -0.00    +0.013 A  
DOCKED: ATOM     11  C   UNL     1     141.003  71.814 226.424 -0.67 -0.00    +0.030 A  
DOCKED: ATOM     12  C   UNL     1     140.036  70.067 225.033 -0.43 -0.00    +0.002 A  
DOCKED: ATOM     13  C   UNL     1     141.062  70.921 227.498 -0.67 -0.00    +0.023 A  
DOCKED: ATOM     14  C   UNL     1     140.097  69.176 226.115 -0.49 -0.01    +0.030 A  
DOCKED: ATOM     15  C   UNL     1     140.611  69.604 227.346 -0.56 -0.01    +0.041 A  
DOCKED: ATOM     16  Cl  UNL     1     140.689  68.490 228.698 -0.72 +0.02    -0.084 Cl 
DOCKED: ENDBRANCH   3   6
DOCKED: ENDBRANCH   2   3
DOCKED: ENDBRANCH   1   2
DOCKED: BRANCH   1  17
DOCKED: ATOM     17  C   UNL     1     140.937  76.185 221.257 -0.24 -0.07    +0.206 C  
DOCKED: BRANCH  17  18
DOCKED: ATOM     18  O   UNL     1     141.105  76.991 222.383 -0.17 +0.20    -0.494 OA 
DOCKED: ATOM     19  H   UNL     1     142.020  77.176 222.779 -0.29 -0.24    +0.295 HD 
DOCKED: ENDBRANCH  17  18
DOCKED: BRANCH  17  20
DOCKED: ATOM     20  N   UNL     1     141.795  76.383 220.126 -0.12 +0.16    -0.332 N  
DOCKED: ATOM     21  C   UNL     1     142.131  77.702 219.617 -0.23 -0.10    +0.152 C  
DOCKED: ATOM     22  C   UNL     1     142.179  75.300 219.233 -0.17 -0.05    +0.118 C  
DOCKED: ATOM     23  C   UNL     1     142.944  77.451 218.344 -0.26 -0.10    +0.136 C  
DOCKED: ATOM     24  C   UNL     1     142.713  75.980 217.967 -0.20 -0.03    +0.063 C  
DOCKED: BRANCH  22  25
DOCKED: ATOM     25  C   UNL     1     143.228  74.426 219.892 -0.32 +0.01    -0.025 A  
DOCKED: ATOM     26  C   UNL     1     144.490  74.957 220.209 -0.36 -0.00    +0.006 A  
DOCKED: ATOM     27  C   UNL     1     142.955  73.080 220.202 -0.26 -0.00    +0.006 A  
DOCKED: ATOM     28  C   UNL     1     145.463  74.154 220.814 -0.61 -0.00    +0.000 A  
DOCKED: ATOM     29  C   UNL     1     143.930  72.280 220.804 -0.35 -0.00    +0.000 A  
DOCKED: ATOM     30  C   UNL     1     145.183  72.817 221.110 -0.50 -0.00    +0.000 A  
DOCKED: ENDBRANCH  22  25
DOCKED: BRANCH  23  31
DOCKED: ATOM     31  O   UNL     1     142.589  78.330 217.305 -0.17 +0.36    -0.391 OA 
DOCKED: ATOM     32  H   UNL     1     143.382  78.890 217.094 -0.45 -0.35    +0.211 HD 
DOCKED: ENDBRANCH  23  31
DOCKED: ENDBRANCH  17  20
DOCKED: ENDBRANCH   1  17
DOCKED: TORSDOF 9
DOCKED: TER
DOCKED: ENDMDL
________________________________________________________________________________


    FINAL DOCKED STATE:
    ________________________


Run:   9 / 20
Time taken for this run:   0.060s

DOCKED: MODEL        9
DOCKED: USER    Run = 9
DOCKED: USER
DOCKED: USER    Estimated Free Energy of Binding    =  -5.95 kcal/mol  [=(1)+(2)+(3)-(4)]
DOCKED: USER
DOCKED: USER    (1) Final Intermolecular Energy     =  -8.63 kcal/mol
DOCKED: USER        vdW + Hbond + desolv Energy     =  -8.22 kcal/mol
DOCKED: USER        Electrostatic Energy            =  -0.41 kcal/mol
DOCKED: USER        Moving Ligand-Fixed Receptor    =  -8.63 kcal/mol
DOCKED: USER        Moving Ligand-Moving Receptor   =  +0.00 kcal/mol
DOCKED: USER    (2) Final Total Internal Energy     =  -3.28 kcal/mol
DOCKED: USER    (3) Torsional Free Energy           =  +2.68 kcal/mol
DOCKED: USER    (4) Unbound System's Energy         =  -3.28 kcal/mol
DOCKED: USER
DOCKED: USER
DOCKED: REMARK SMILES O/C(=N\C=C(\O)N1C[C@H](O)C[C@H]1c1ccccc1)c1ccc2cc(Cl)ccc2n1
DOCKED: REMARK SMILES IDX 4 1 3 2 2 3 1 4 19 6 29 7 20 8 28 9 21 10 27 11 22 12 26 13
DOCKED: REMARK SMILES IDX 23 14 24 15 25 16 5 17 6 18 7 20 8 21 12 22 9 23 11 24 13 25
DOCKED: REMARK SMILES IDX 14 26 18 27 15 28 17 29 16 30 10 31
DOCKED: REMARK H PARENT 1 5 6 19 10 32
DOCKED: USER                              x       y       z     vdW  Elec       q    Type
DOCKED: USER                           _______ _______ _______ _____ _____    ______ ____
DOCKED: ROOT
DOCKED: ATOM      1  C   UNL     1     141.642  76.768 219.846 -0.19 -0.09    +0.181 C  
DOCKED: ENDROOT
DOCKED: BRANCH   1   2
DOCKED: ATOM      2  N   UNL     1     141.190  75.596 220.537 -0.15 +0.07    -0.215 NA 
DOCKED: BRANCH   2   3
DOCKED: ATOM      3  C   UNL     1     140.498  75.544 221.638 -0.25 -0.05    +0.237 C  
DOCKED: BRANCH   3   4
DOCKED: ATOM      4  O   UNL     1     140.116  74.331 222.222 -0.71 +0.01    -0.492 OA 
DOCKED: ATOM      5  H   UNL     1     139.248  74.192 222.721 -0.44 -0.08    +0.295 HD 
DOCKED: ENDBRANCH   3   4
DOCKED: BRANCH   3   6
DOCKED: ATOM      6  C   UNL     1     140.111  76.810 222.287 -0.33 -0.03    +0.126 A  
DOCKED: ATOM      7  N   UNL     1     138.799  77.176 222.306 -0.18 +0.05    -0.243 NA 
DOCKED: ATOM      8  C   UNL     1     141.071  77.652 222.870 -0.42 -0.01    +0.035 A  
DOCKED: ATOM      9  C   UNL     1     138.378  78.339 222.872 -0.24 -0.01    +0.071 A  
DOCKED: ATOM     10  C   UNL     1     140.669  78.852 223.462 -0.46 -0.00    +0.013 A  
DOCKED: ATOM     11  C   UNL     1     137.021  78.674 222.861 -0.18 -0.00    +0.030 A  
DOCKED: ATOM     12  C   UNL     1     139.316  79.209 223.467 -0.39 -0.00    +0.002 A  
DOCKED: ATOM     13  C   UNL     1     136.593  79.872 223.441 -0.20 -0.00    +0.023 A  
DOCKED: ATOM     14  C   UNL     1     138.880  80.409 224.048 -0.39 -0.00    +0.030 A  
DOCKED: ATOM     15  C   UNL     1     137.519  80.739 224.033 -0.31 -0.00    +0.041 A  
DOCKED: ATOM     16  Cl  UNL     1     136.973  82.240 224.759 -0.32 +0.01    -0.084 Cl 
DOCKED: ENDBRANCH   3   6
DOCKED: ENDBRANCH   2   3
DOCKED: ENDBRANCH   1   2
DOCKED: BRANCH   1  17
DOCKED: ATOM     17  C   UNL     1     140.753  77.625 219.335 -0.09 -0.08    +0.206 C  
DOCKED: BRANCH  17  18
DOCKED: ATOM     18  O   UNL     1     139.386  77.418 219.524 +0.02 +0.14    -0.494 OA 
DOCKED: ATOM     19  H   UNL     1     139.032  76.736 220.186 +0.06 -0.07    +0.295 HD 
DOCKED: ENDBRANCH  17  18
DOCKED: BRANCH  17  20
DOCKED: ATOM     20  N   UNL     1     141.184  78.757 218.568 -0.06 +0.17    -0.332 N  
DOCKED: ATOM     21  C   UNL     1     140.885  78.907 217.154 -0.08 -0.08    +0.152 C  
DOCKED: ATOM     22  C   UNL     1     142.174  79.705 219.056 -0.24 -0.08    +0.118 C  
DOCKED: ATOM     23  C   UNL     1     141.636  80.165 216.711 -0.13 -0.11    +0.136 C  
DOCKED: ATOM     24  C   UNL     1     142.654  80.473 217.819 -0.29 -0.06    +0.063 C  
DOCKED: BRANCH  22  25
DOCKED: ATOM     25  C   UNL     1     141.552  80.625 220.089 -0.30 +0.01    -0.025 A  
DOCKED: ATOM     26  C   UNL     1     140.318  81.244 219.828 -0.16 -0.00    +0.006 A  
DOCKED: ATOM     27  C   UNL     1     142.192  80.866 221.320 -0.36 -0.00    +0.006 A  
DOCKED: ATOM     28  C   UNL     1     139.741  82.097 220.775 -0.19 -0.00    +0.000 A  
DOCKED: ATOM     29  C   UNL     1     141.614  81.720 222.263 -0.45 -0.00    +0.000 A  
DOCKED: ATOM     30  C   UNL     1     140.390  82.336 221.991 -0.29 -0.00    +0.000 A  
DOCKED: ENDBRANCH  22  25
DOCKED: BRANCH  23  31
DOCKED: ATOM     31  O   UNL     1     142.249  80.003 215.455 -0.05 +0.45    -0.391 OA 
DOCKED: ATOM     32  H   UNL     1     143.226  80.140 215.572 -0.47 -0.54    +0.211 HD 
DOCKED: ENDBRANCH  23  31
DOCKED: ENDBRANCH  17  20
DOCKED: ENDBRANCH   1  17
DOCKED: TORSDOF 9
DOCKED: TER
DOCKED: ENDMDL
________________________________________________________________________________


    FINAL DOCKED STATE:
    ________________________


Run:   10 / 20
Time taken for this run:   0.060s

DOCKED: MODEL        10
DOCKED: USER    Run = 10
DOCKED: USER
DOCKED: USER    Estimated Free Energy of Binding    =  -8.31 kcal/mol  [=(1)+(2)+(3)-(4)]
DOCKED: USER
DOCKED: USER    (1) Final Intermolecular Energy     = -11.00 kcal/mol
DOCKED: USER        vdW + Hbond + desolv Energy     = -10.86 kcal/mol
DOCKED: USER        Electrostatic Energy            =  -0.14 kcal/mol
DOCKED: USER        Moving Ligand-Fixed Receptor    = -11.00 kcal/mol
DOCKED: USER        Moving Ligand-Moving Receptor   =  +0.00 kcal/mol
DOCKED: USER    (2) Final Total Internal Energy     =  -2.27 kcal/mol
DOCKED: USER    (3) Torsional Free Energy           =  +2.68 kcal/mol
DOCKED: USER    (4) Unbound System's Energy         =  -2.27 kcal/mol
DOCKED: USER
DOCKED: USER
DOCKED: REMARK SMILES O/C(=N\C=C(\O)N1C[C@H](O)C[C@H]1c1ccccc1)c1ccc2cc(Cl)ccc2n1
DOCKED: REMARK SMILES IDX 4 1 3 2 2 3 1 4 19 6 29 7 20 8 28 9 21 10 27 11 22 12 26 13
DOCKED: REMARK SMILES IDX 23 14 24 15 25 16 5 17 6 18 7 20 8 21 12 22 9 23 11 24 13 25
DOCKED: REMARK SMILES IDX 14 26 18 27 15 28 17 29 16 30 10 31
DOCKED: REMARK H PARENT 1 5 6 19 10 32
DOCKED: USER                              x       y       z     vdW  Elec       q    Type
DOCKED: USER                           _______ _______ _______ _____ _____    ______ ____
DOCKED: ROOT
DOCKED: ATOM      1  C   UNL     1     140.741  72.860 220.846 -0.16 -0.03    +0.181 C  
DOCKED: ENDROOT
DOCKED: BRANCH   1   2
DOCKED: ATOM      2  N   UNL     1     139.662  71.978 221.184 -0.08 +0.04    -0.215 NA 
DOCKED: BRANCH   2   3
DOCKED: ATOM      3  C   UNL     1     138.898  72.028 222.236 -0.15 -0.06    +0.237 C  
DOCKED: BRANCH   3   4
DOCKED: ATOM      4  O   UNL     1     137.820  72.914 222.335 -0.06 +0.16    -0.492 OA 
DOCKED: ATOM      5  H   UNL     1     137.877  73.829 222.760 -0.47 -0.16    +0.295 HD 
DOCKED: ENDBRANCH   3   4
DOCKED: BRANCH   3   6
DOCKED: ATOM      6  C   UNL     1     139.184  71.113 223.357 -0.26 -0.03    +0.126 A  
DOCKED: ATOM      7  N   UNL     1     139.805  71.595 224.470 -0.24 +0.05    -0.243 NA 
DOCKED: ATOM      8  C   UNL     1     138.843  69.753 223.291 -0.23 -0.01    +0.035 A  
DOCKED: ATOM      9  C   UNL     1     140.113  70.801 225.530 -0.48 -0.01    +0.071 A  
DOCKED: ATOM     10  C   UNL     1     139.144  68.913 224.365 -0.34 -0.00    +0.013 A  
DOCKED: ATOM     11  C   UNL     1     140.757  71.341 226.648 -0.67 -0.00    +0.030 A  
DOCKED: ATOM     12  C   UNL     1     139.785  69.429 225.497 -0.44 -0.00    +0.002 A  
DOCKED: ATOM     13  C   UNL     1     141.075  70.520 227.734 -0.62 -0.00    +0.023 A  
DOCKED: ATOM     14  C   UNL     1     140.106  68.611 226.591 -0.58 -0.01    +0.030 A  
DOCKED: ATOM     15  C   UNL     1     140.750  69.159 227.708 -0.59 -0.01    +0.041 A  
DOCKED: ATOM     16  Cl  UNL     1     141.152  68.137 229.075 -0.48 +0.02    -0.084 Cl 
DOCKED: ENDBRANCH   3   6
DOCKED: ENDBRANCH   2   3
DOCKED: ENDBRANCH   1   2
DOCKED: BRANCH   1  17
DOCKED: ATOM     17  C   UNL     1     140.719  74.129 221.264 -0.22 -0.03    +0.206 C  
DOCKED: BRANCH  17  18
DOCKED: ATOM     18  O   UNL     1     139.903  74.506 222.330 -0.70 +0.02    -0.494 OA 
DOCKED: ATOM     19  H   UNL     1     139.595  73.842 223.032 -0.40 -0.04    +0.295 HD 
DOCKED: ENDBRANCH  17  18
DOCKED: BRANCH  17  20
DOCKED: ATOM     20  N   UNL     1     141.516  75.128 220.612 -0.13 +0.11    -0.332 N  
DOCKED: ATOM     21  C   UNL     1     141.389  76.546 220.903 -0.22 -0.07    +0.152 C  
DOCKED: ATOM     22  C   UNL     1     142.312  74.847 219.427 -0.18 -0.04    +0.118 C  
DOCKED: ATOM     23  C   UNL     1     142.310  77.250 219.903 -0.24 -0.09    +0.136 C  
DOCKED: ATOM     24  C   UNL     1     142.642  76.214 218.818 -0.27 -0.03    +0.063 C  
DOCKED: BRANCH  22  25
DOCKED: ATOM     25  C   UNL     1     143.564  74.080 219.809 -0.32 +0.01    -0.025 A  
DOCKED: ATOM     26  C   UNL     1     143.670  72.711 219.508 -0.23 -0.00    +0.006 A  
DOCKED: ATOM     27  C   UNL     1     144.635  74.723 220.459 -0.43 -0.00    +0.006 A  
DOCKED: ATOM     28  C   UNL     1     144.821  71.998 219.861 -0.35 +0.00    +0.000 A  
DOCKED: ATOM     29  C   UNL     1     145.782  74.007 220.812 -0.65 -0.00    +0.000 A  
DOCKED: ATOM     30  C   UNL     1     145.875  72.645 220.513 -0.55 +0.00    +0.000 A  
DOCKED: ENDBRANCH  22  25
DOCKED: BRANCH  23  31
DOCKED: ATOM     31  O   UNL     1     141.726  78.413 219.370 -0.11 +0.23    -0.391 OA 
DOCKED: ATOM     32  H   UNL     1     142.405  79.138 219.404 -0.01 -0.16    +0.211 HD 
DOCKED: ENDBRANCH  23  31
DOCKED: ENDBRANCH  17  20
DOCKED: ENDBRANCH   1  17
DOCKED: TORSDOF 9
DOCKED: TER
DOCKED: ENDMDL
________________________________________________________________________________


    FINAL DOCKED STATE:
    ________________________


Run:   11 / 20
Time taken for this run:   0.060s

DOCKED: MODEL        11
DOCKED: USER    Run = 11
DOCKED: USER
DOCKED: USER    Estimated Free Energy of Binding    =  -8.30 kcal/mol  [=(1)+(2)+(3)-(4)]
DOCKED: USER
DOCKED: USER    (1) Final Intermolecular Energy     = -10.99 kcal/mol
DOCKED: USER        vdW + Hbond + desolv Energy     = -10.86 kcal/mol
DOCKED: USER        Electrostatic Energy            =  -0.13 kcal/mol
DOCKED: USER        Moving Ligand-Fixed Receptor    = -10.99 kcal/mol
DOCKED: USER        Moving Ligand-Moving Receptor   =  +0.00 kcal/mol
DOCKED: USER    (2) Final Total Internal Energy     =  -2.29 kcal/mol
DOCKED: USER    (3) Torsional Free Energy           =  +2.68 kcal/mol
DOCKED: USER    (4) Unbound System's Energy         =  -2.29 kcal/mol
DOCKED: USER
DOCKED: USER
DOCKED: REMARK SMILES O/C(=N\C=C(\O)N1C[C@H](O)C[C@H]1c1ccccc1)c1ccc2cc(Cl)ccc2n1
DOCKED: REMARK SMILES IDX 4 1 3 2 2 3 1 4 19 6 29 7 20 8 28 9 21 10 27 11 22 12 26 13
DOCKED: REMARK SMILES IDX 23 14 24 15 25 16 5 17 6 18 7 20 8 21 12 22 9 23 11 24 13 25
DOCKED: REMARK SMILES IDX 14 26 18 27 15 28 17 29 16 30 10 31
DOCKED: REMARK H PARENT 1 5 6 19 10 32
DOCKED: USER                              x       y       z     vdW  Elec       q    Type
DOCKED: USER                           _______ _______ _______ _____ _____    ______ ____
DOCKED: ROOT
DOCKED: ATOM      1  C   UNL     1     140.840  72.882 220.923 -0.17 -0.03    +0.181 C  
DOCKED: ENDROOT
DOCKED: BRANCH   1   2
DOCKED: ATOM      2  N   UNL     1     139.741  72.011 221.222 -0.09 +0.04    -0.215 NA 
DOCKED: BRANCH   2   3
DOCKED: ATOM      3  C   UNL     1     138.966  72.043 222.267 -0.16 -0.05    +0.237 C  
DOCKED: BRANCH   3   4
DOCKED: ATOM      4  O   UNL     1     137.875  72.914 222.361 -0.05 +0.17    -0.492 OA 
DOCKED: ATOM      5  H   UNL     1     137.929  73.848 222.742 -0.48 -0.16    +0.295 HD 
DOCKED: ENDBRANCH   3   4
DOCKED: BRANCH   3   6
DOCKED: ATOM      6  C   UNL     1     139.253  71.123 223.384 -0.27 -0.03    +0.126 A  
DOCKED: ATOM      7  N   UNL     1     139.862  71.604 224.504 -0.24 +0.05    -0.243 NA 
DOCKED: ATOM      8  C   UNL     1     138.924  69.760 223.308 -0.24 -0.01    +0.035 A  
DOCKED: ATOM      9  C   UNL     1     140.170  70.806 225.560 -0.48 -0.01    +0.071 A  
DOCKED: ATOM     10  C   UNL     1     139.225  68.917 224.379 -0.33 -0.00    +0.013 A  
DOCKED: ATOM     11  C   UNL     1     140.802  71.344 226.686 -0.67 -0.00    +0.030 A  
DOCKED: ATOM     12  C   UNL     1     139.854  69.431 225.518 -0.45 -0.00    +0.002 A  
DOCKED: ATOM     13  C   UNL     1     141.121  70.520 227.770 -0.59 -0.00    +0.023 A  
DOCKED: ATOM     14  C   UNL     1     140.175  68.610 226.609 -0.58 -0.01    +0.030 A  
DOCKED: ATOM     15  C   UNL     1     140.808  69.156 227.733 -0.59 -0.01    +0.041 A  
DOCKED: ATOM     16  Cl  UNL     1     141.210  68.129 229.097 -0.46 +0.02    -0.084 Cl 
DOCKED: ENDBRANCH   3   6
DOCKED: ENDBRANCH   2   3
DOCKED: ENDBRANCH   1   2
DOCKED: BRANCH   1  17
DOCKED: ATOM     17  C   UNL     1     140.797  74.162 221.304 -0.22 -0.03    +0.206 C  
DOCKED: BRANCH  17  18
DOCKED: ATOM     18  O   UNL     1     139.960  74.559 222.347 -0.68 +0.01    -0.494 OA 
DOCKED: ATOM     19  H   UNL     1     139.642  73.910 223.057 -0.40 -0.02    +0.295 HD 
DOCKED: ENDBRANCH  17  18
DOCKED: BRANCH  17  20
DOCKED: ATOM     20  N   UNL     1     141.591  75.151 220.636 -0.13 +0.11    -0.332 N  
DOCKED: ATOM     21  C   UNL     1     141.474  76.572 220.916 -0.20 -0.07    +0.152 C  
DOCKED: ATOM     22  C   UNL     1     142.375  74.857 219.446 -0.19 -0.04    +0.118 C  
DOCKED: ATOM     23  C   UNL     1     142.389  77.263 219.902 -0.22 -0.09    +0.136 C  
DOCKED: ATOM     24  C   UNL     1     142.705  76.217 218.822 -0.28 -0.03    +0.063 C  
DOCKED: BRANCH  22  25
DOCKED: ATOM     25  C   UNL     1     143.626  74.087 219.822 -0.33 +0.01    -0.025 A  
DOCKED: ATOM     26  C   UNL     1     144.685  74.740 220.475 -0.42 -0.00    +0.006 A  
DOCKED: ATOM     27  C   UNL     1     143.744  72.714 219.532 -0.24 -0.00    +0.006 A  
DOCKED: ATOM     28  C   UNL     1     145.844  74.036 220.821 -0.65 -0.00    +0.000 A  
DOCKED: ATOM     29  C   UNL     1     144.904  72.015 219.877 -0.35 +0.00    +0.000 A  
DOCKED: ATOM     30  C   UNL     1     145.953  72.675 220.521 -0.56 +0.00    +0.000 A  
DOCKED: ENDBRANCH  22  25
DOCKED: BRANCH  23  31
DOCKED: ATOM     31  O   UNL     1     141.805  78.425 219.364 -0.12 +0.23    -0.391 OA 
DOCKED: ATOM     32  H   UNL     1     142.476  79.156 219.415 -0.03 -0.17    +0.211 HD 
DOCKED: ENDBRANCH  23  31
DOCKED: ENDBRANCH  17  20
DOCKED: ENDBRANCH   1  17
DOCKED: TORSDOF 9
DOCKED: TER
DOCKED: ENDMDL
________________________________________________________________________________


    FINAL DOCKED STATE:
    ________________________


Run:   12 / 20
Time taken for this run:   0.060s

DOCKED: MODEL        12
DOCKED: USER    Run = 12
DOCKED: USER
DOCKED: USER    Estimated Free Energy of Binding    =  -7.59 kcal/mol  [=(1)+(2)+(3)-(4)]
DOCKED: USER
DOCKED: USER    (1) Final Intermolecular Energy     = -10.27 kcal/mol
DOCKED: USER        vdW + Hbond + desolv Energy     = -10.09 kcal/mol
DOCKED: USER        Electrostatic Energy            =  -0.18 kcal/mol
DOCKED: USER        Moving Ligand-Fixed Receptor    = -10.27 kcal/mol
DOCKED: USER        Moving Ligand-Moving Receptor   =  +0.00 kcal/mol
DOCKED: USER    (2) Final Total Internal Energy     =  -2.60 kcal/mol
DOCKED: USER    (3) Torsional Free Energy           =  +2.68 kcal/mol
DOCKED: USER    (4) Unbound System's Energy         =  -2.60 kcal/mol
DOCKED: USER
DOCKED: USER
DOCKED: REMARK SMILES O/C(=N\C=C(\O)N1C[C@H](O)C[C@H]1c1ccccc1)c1ccc2cc(Cl)ccc2n1
DOCKED: REMARK SMILES IDX 4 1 3 2 2 3 1 4 19 6 29 7 20 8 28 9 21 10 27 11 22 12 26 13
DOCKED: REMARK SMILES IDX 23 14 24 15 25 16 5 17 6 18 7 20 8 21 12 22 9 23 11 24 13 25
DOCKED: REMARK SMILES IDX 14 26 18 27 15 28 17 29 16 30 10 31
DOCKED: REMARK H PARENT 1 5 6 19 10 32
DOCKED: USER                              x       y       z     vdW  Elec       q    Type
DOCKED: USER                           _______ _______ _______ _____ _____    ______ ____
DOCKED: ROOT
DOCKED: ATOM      1  C   UNL     1     141.156  74.832 221.517 -0.22 -0.03    +0.181 C  
DOCKED: ENDROOT
DOCKED: BRANCH   1   2
DOCKED: ATOM      2  N   UNL     1     140.265  73.997 222.267 -0.77 -0.00    -0.215 NA 
DOCKED: BRANCH   2   3
DOCKED: ATOM      3  C   UNL     1     139.880  72.787 221.977 -0.20 -0.04    +0.237 C  
DOCKED: BRANCH   3   4
DOCKED: ATOM      4  O   UNL     1     139.452  72.427 220.694 -0.01 +0.09    -0.492 OA 
DOCKED: ATOM      5  H   UNL     1     139.900  72.732 219.842 +0.05 -0.06    +0.295 HD 
DOCKED: ENDBRANCH   3   4
DOCKED: BRANCH   3   6
DOCKED: ATOM      6  C   UNL     1     139.902  71.768 223.042 -0.29 -0.02    +0.126 A  
DOCKED: ATOM      7  N   UNL     1     140.392  72.097 224.270 -0.17 +0.04    -0.243 NA 
DOCKED: ATOM      8  C   UNL     1     139.442  70.462 222.809 -0.23 -0.01    +0.035 A  
DOCKED: ATOM      9  C   UNL     1     140.457  71.199 225.289 -0.50 -0.01    +0.071 A  
DOCKED: ATOM     10  C   UNL     1     139.493  69.519 223.838 -0.26 -0.00    +0.013 A  
DOCKED: ATOM     11  C   UNL     1     140.975  71.583 226.531 -0.69 -0.00    +0.030 A  
DOCKED: ATOM     12  C   UNL     1     140.004  69.878 225.091 -0.42 -0.00    +0.002 A  
DOCKED: ATOM     13  C   UNL     1     141.042  70.656 227.575 -0.63 -0.00    +0.023 A  
DOCKED: ATOM     14  C   UNL     1     140.074  68.953 226.143 -0.51 -0.01    +0.030 A  
DOCKED: ATOM     15  C   UNL     1     140.593  69.344 227.384 -0.58 -0.01    +0.041 A  
DOCKED: ATOM     16  Cl  UNL     1     140.681  68.188 228.700 -0.63 +0.02    -0.084 Cl 
DOCKED: ENDBRANCH   3   6
DOCKED: ENDBRANCH   2   3
DOCKED: ENDBRANCH   1   2
DOCKED: BRANCH   1  17
DOCKED: ATOM     17  C   UNL     1     140.855  75.167 220.258 -0.14 -0.06    +0.206 C  
DOCKED: BRANCH  17  18
DOCKED: ATOM     18  O   UNL     1     139.603  74.854 219.727 +0.01 +0.11    -0.494 OA 
DOCKED: ATOM     19  H   UNL     1     138.921  74.311 220.243 +0.05 -0.06    +0.295 HD 
DOCKED: ENDBRANCH  17  18
DOCKED: BRANCH  17  20
DOCKED: ATOM     20  N   UNL     1     141.815  75.831 219.427 -0.07 +0.14    -0.332 N  
DOCKED: ATOM     21  C   UNL     1     141.888  77.278 219.314 -0.21 -0.08    +0.152 C  
DOCKED: ATOM     22  C   UNL     1     142.608  75.130 218.429 -0.15 -0.05    +0.118 C  
DOCKED: ATOM     23  C   UNL     1     142.943  77.549 218.238 -0.25 -0.10    +0.136 C  
DOCKED: ATOM     24  C   UNL     1     143.161  76.218 217.502 -0.23 -0.04    +0.063 C  
DOCKED: BRANCH  22  25
DOCKED: ATOM     25  C   UNL     1     143.716  74.341 219.101 -0.27 +0.01    -0.025 A  
DOCKED: ATOM     26  C   UNL     1     144.383  74.875 220.216 -0.42 -0.00    +0.006 A  
DOCKED: ATOM     27  C   UNL     1     144.086  73.068 218.627 -0.19 -0.00    +0.006 A  
DOCKED: ATOM     28  C   UNL     1     145.409  74.154 220.838 -0.60 -0.00    +0.000 A  
DOCKED: ATOM     29  C   UNL     1     145.112  72.352 219.249 -0.33 +0.00    +0.000 A  
DOCKED: ATOM     30  C   UNL     1     145.773  72.894 220.354 -0.57 +0.00    +0.000 A  
DOCKED: ENDBRANCH  22  25
DOCKED: BRANCH  23  31
DOCKED: ATOM     31  O   UNL     1     142.560  78.584 217.366 -0.17 +0.37    -0.391 OA 
DOCKED: ATOM     32  H   UNL     1     143.383  79.061 217.078 -0.50 -0.38    +0.211 HD 
DOCKED: ENDBRANCH  23  31
DOCKED: ENDBRANCH  17  20
DOCKED: ENDBRANCH   1  17
DOCKED: TORSDOF 9
DOCKED: TER
DOCKED: ENDMDL
________________________________________________________________________________


    FINAL DOCKED STATE:
    ________________________


Run:   13 / 20
Time taken for this run:   0.060s

DOCKED: MODEL        13
DOCKED: USER    Run = 13
DOCKED: USER
DOCKED: USER    Estimated Free Energy of Binding    =  -8.22 kcal/mol  [=(1)+(2)+(3)-(4)]
DOCKED: USER
DOCKED: USER    (1) Final Intermolecular Energy     = -10.91 kcal/mol
DOCKED: USER        vdW + Hbond + desolv Energy     = -10.82 kcal/mol
DOCKED: USER        Electrostatic Energy            =  -0.09 kcal/mol
DOCKED: USER        Moving Ligand-Fixed Receptor    = -10.91 kcal/mol
DOCKED: USER        Moving Ligand-Moving Receptor   =  +0.00 kcal/mol
DOCKED: USER    (2) Final Total Internal Energy     =  -2.01 kcal/mol
DOCKED: USER    (3) Torsional Free Energy           =  +2.68 kcal/mol
DOCKED: USER    (4) Unbound System's Energy         =  -2.01 kcal/mol
DOCKED: USER
DOCKED: USER
DOCKED: REMARK SMILES O/C(=N\C=C(\O)N1C[C@H](O)C[C@H]1c1ccccc1)c1ccc2cc(Cl)ccc2n1
DOCKED: REMARK SMILES IDX 4 1 3 2 2 3 1 4 19 6 29 7 20 8 28 9 21 10 27 11 22 12 26 13
DOCKED: REMARK SMILES IDX 23 14 24 15 25 16 5 17 6 18 7 20 8 21 12 22 9 23 11 24 13 25
DOCKED: REMARK SMILES IDX 14 26 18 27 15 28 17 29 16 30 10 31
DOCKED: REMARK H PARENT 1 5 6 19 10 32
DOCKED: USER                              x       y       z     vdW  Elec       q    Type
DOCKED: USER                           _______ _______ _______ _____ _____    ______ ____
DOCKED: ROOT
DOCKED: ATOM      1  C   UNL     1     141.247  74.618 221.476 -0.18 -0.03    +0.181 C  
DOCKED: ENDROOT
DOCKED: BRANCH   1   2
DOCKED: ATOM      2  N   UNL     1     140.737  73.289 221.646 -0.37 +0.02    -0.215 NA 
DOCKED: BRANCH   2   3
DOCKED: ATOM      3  C   UNL     1     139.671  72.927 222.299 -0.18 -0.04    +0.237 C  
DOCKED: BRANCH   3   4
DOCKED: ATOM      4  O   UNL     1     138.418  73.502 222.061 -0.09 +0.15    -0.492 OA 
DOCKED: ATOM      5  H   UNL     1     137.979  74.175 222.673 -0.44 -0.15    +0.295 HD 
DOCKED: ENDBRANCH   3   4
DOCKED: BRANCH   3   6
DOCKED: ATOM      6  C   UNL     1     139.798  71.871 223.321 -0.29 -0.03    +0.126 A  
DOCKED: ATOM      7  N   UNL     1     140.304  72.186 224.546 -0.01 +0.05    -0.243 NA 
DOCKED: ATOM      8  C   UNL     1     139.420  70.546 223.049 -0.25 -0.01    +0.035 A  
DOCKED: ATOM      9  C   UNL     1     140.463  71.257 225.525 -0.51 -0.01    +0.071 A  
DOCKED: ATOM     10  C   UNL     1     139.569  69.570 224.037 -0.29 -0.00    +0.013 A  
DOCKED: ATOM     11  C   UNL     1     140.994  71.627 226.765 -0.71 -0.00    +0.030 A  
DOCKED: ATOM     12  C   UNL     1     140.094  69.915 225.287 -0.45 -0.00    +0.002 A  
DOCKED: ATOM     13  C   UNL     1     141.159  70.668 227.769 -0.58 -0.00    +0.023 A  
DOCKED: ATOM     14  C   UNL     1     140.261  68.958 226.299 -0.53 -0.01    +0.030 A  
DOCKED: ATOM     15  C   UNL     1     140.794  69.336 227.538 -0.58 -0.01    +0.041 A  
DOCKED: ATOM     16  Cl  UNL     1     141.004  68.139 228.803 -0.63 +0.02    -0.084 Cl 
DOCKED: ENDBRANCH   3   6
DOCKED: ENDBRANCH   2   3
DOCKED: ENDBRANCH   1   2
DOCKED: BRANCH   1  17
DOCKED: ATOM     17  C   UNL     1     140.440  75.668 221.652 -0.26 -0.05    +0.206 C  
DOCKED: BRANCH  17  18
DOCKED: ATOM     18  O   UNL     1     139.545  75.698 222.721 -0.35 +0.07    -0.494 OA 
DOCKED: ATOM     19  H   UNL     1     139.265  74.856 223.211 -0.45 -0.07    +0.295 HD 
DOCKED: ENDBRANCH  17  18
DOCKED: BRANCH  17  20
DOCKED: ATOM     20  N   UNL     1     140.464  76.771 220.736 -0.08 +0.11    -0.332 N  
DOCKED: ATOM     21  C   UNL     1     139.455  76.959 219.707 -0.05 -0.04    +0.152 C  
DOCKED: ATOM     22  C   UNL     1     141.626  77.632 220.574 -0.25 -0.07    +0.118 C  
DOCKED: ATOM     23  C   UNL     1     139.933  78.158 218.884 -0.05 -0.05    +0.136 C  
DOCKED: ATOM     24  C   UNL     1     141.409  78.373 219.250 -0.21 -0.03    +0.063 C  
DOCKED: BRANCH  22  25
DOCKED: ATOM     25  C   UNL     1     141.735  78.588 221.747 -0.39 +0.01    -0.025 A  
DOCKED: ATOM     26  C   UNL     1     141.440  78.144 223.047 -0.51 -0.00    +0.006 A  
DOCKED: ATOM     27  C   UNL     1     142.138  79.924 221.555 -0.43 -0.00    +0.006 A  
DOCKED: ATOM     28  C   UNL     1     141.536  79.022 224.132 -0.58 -0.00    +0.000 A  
DOCKED: ATOM     29  C   UNL     1     142.230  80.798 222.641 -0.58 -0.00    +0.000 A  
DOCKED: ATOM     30  C   UNL     1     141.929  80.348 223.928 -0.57 -0.00    +0.000 A  
DOCKED: ENDBRANCH  22  25
DOCKED: BRANCH  23  31
DOCKED: ATOM     31  O   UNL     1     139.748  77.962 217.503 +0.00 +0.13    -0.391 OA 
DOCKED: ATOM     32  H   UNL     1     138.777  78.045 217.310 +0.01 -0.06    +0.211 HD 
DOCKED: ENDBRANCH  23  31
DOCKED: ENDBRANCH  17  20
DOCKED: ENDBRANCH   1  17
DOCKED: TORSDOF 9
DOCKED: TER
DOCKED: ENDMDL
________________________________________________________________________________


    FINAL DOCKED STATE:
    ________________________


Run:   14 / 20
Time taken for this run:   0.060s

DOCKED: MODEL        14
DOCKED: USER    Run = 14
DOCKED: USER
DOCKED: USER    Estimated Free Energy of Binding    =  -8.25 kcal/mol  [=(1)+(2)+(3)-(4)]
DOCKED: USER
DOCKED: USER    (1) Final Intermolecular Energy     = -10.94 kcal/mol
DOCKED: USER        vdW + Hbond + desolv Energy     = -10.81 kcal/mol
DOCKED: USER        Electrostatic Energy            =  -0.13 kcal/mol
DOCKED: USER        Moving Ligand-Fixed Receptor    = -10.94 kcal/mol
DOCKED: USER        Moving Ligand-Moving Receptor   =  +0.00 kcal/mol
DOCKED: USER    (2) Final Total Internal Energy     =  -2.26 kcal/mol
DOCKED: USER    (3) Torsional Free Energy           =  +2.68 kcal/mol
DOCKED: USER    (4) Unbound System's Energy         =  -2.26 kcal/mol
DOCKED: USER
DOCKED: USER
DOCKED: REMARK SMILES O/C(=N\C=C(\O)N1C[C@H](O)C[C@H]1c1ccccc1)c1ccc2cc(Cl)ccc2n1
DOCKED: REMARK SMILES IDX 4 1 3 2 2 3 1 4 19 6 29 7 20 8 28 9 21 10 27 11 22 12 26 13
DOCKED: REMARK SMILES IDX 23 14 24 15 25 16 5 17 6 18 7 20 8 21 12 22 9 23 11 24 13 25
DOCKED: REMARK SMILES IDX 14 26 18 27 15 28 17 29 16 30 10 31
DOCKED: REMARK H PARENT 1 5 6 19 10 32
DOCKED: USER                              x       y       z     vdW  Elec       q    Type
DOCKED: USER                           _______ _______ _______ _____ _____    ______ ____
DOCKED: ROOT
DOCKED: ATOM      1  C   UNL     1     140.790  72.950 220.953 -0.17 -0.03    +0.181 C  
DOCKED: ENDROOT
DOCKED: BRANCH   1   2
DOCKED: ATOM      2  N   UNL     1     139.654  72.120 221.223 -0.09 +0.04    -0.215 NA 
DOCKED: BRANCH   2   3
DOCKED: ATOM      3  C   UNL     1     138.894  72.137 222.280 -0.15 -0.06    +0.237 C  
DOCKED: BRANCH   3   4
DOCKED: ATOM      4  O   UNL     1     137.802  73.002 222.401 -0.03 +0.18    -0.492 OA 
DOCKED: ATOM      5  H   UNL     1     137.865  73.948 222.749 -0.47 -0.16    +0.295 HD 
DOCKED: ENDBRANCH   3   4
DOCKED: BRANCH   3   6
DOCKED: ATOM      6  C   UNL     1     139.201  71.206 223.382 -0.27 -0.03    +0.126 A  
DOCKED: ATOM      7  N   UNL     1     139.795  71.682 224.512 -0.19 +0.06    -0.243 NA 
DOCKED: ATOM      8  C   UNL     1     138.906  69.836 223.282 -0.23 -0.01    +0.035 A  
DOCKED: ATOM      9  C   UNL     1     140.120  70.875 225.556 -0.48 -0.01    +0.071 A  
DOCKED: ATOM     10  C   UNL     1     139.226  68.982 224.339 -0.33 -0.00    +0.013 A  
DOCKED: ATOM     11  C   UNL     1     140.736  71.409 226.692 -0.68 -0.00    +0.030 A  
DOCKED: ATOM     12  C   UNL     1     139.839  69.493 225.489 -0.44 -0.00    +0.002 A  
DOCKED: ATOM     13  C   UNL     1     141.072  70.575 227.763 -0.63 -0.00    +0.023 A  
DOCKED: ATOM     14  C   UNL     1     140.178  68.662 226.567 -0.57 -0.01    +0.030 A  
DOCKED: ATOM     15  C   UNL     1     140.794  69.204 227.702 -0.59 -0.01    +0.041 A  
DOCKED: ATOM     16  Cl  UNL     1     141.218  68.164 229.049 -0.48 +0.02    -0.084 Cl 
DOCKED: ENDBRANCH   3   6
DOCKED: ENDBRANCH   2   3
DOCKED: ENDBRANCH   1   2
DOCKED: BRANCH   1  17
DOCKED: ATOM     17  C   UNL     1     140.770  74.240 221.299 -0.22 -0.03    +0.206 C  
DOCKED: BRANCH  17  18
DOCKED: ATOM     18  O   UNL     1     139.945  74.679 222.334 -0.66 +0.02    -0.494 OA 
DOCKED: ATOM     19  H   UNL     1     139.545  74.039 223.011 -0.42 -0.04    +0.295 HD 
DOCKED: ENDBRANCH  17  18
DOCKED: BRANCH  17  20
DOCKED: ATOM     20  N   UNL     1     141.577  75.198 220.602 -0.13 +0.11    -0.332 N  
DOCKED: ATOM     21  C   UNL     1     141.456  76.630 220.814 -0.23 -0.07    +0.152 C  
DOCKED: ATOM     22  C   UNL     1     142.383  74.849 219.441 -0.19 -0.04    +0.118 C  
DOCKED: ATOM     23  C   UNL     1     142.390  77.275 219.786 -0.24 -0.09    +0.136 C  
DOCKED: ATOM     24  C   UNL     1     142.726  76.180 218.762 -0.27 -0.03    +0.063 C  
DOCKED: BRANCH  22  25
DOCKED: ATOM     25  C   UNL     1     143.627  74.098 219.875 -0.34 +0.01    -0.025 A  
DOCKED: ATOM     26  C   UNL     1     143.727  72.714 219.655 -0.25 -0.00    +0.006 A  
DOCKED: ATOM     27  C   UNL     1     144.698  74.771 220.495 -0.39 -0.00    +0.006 A  
DOCKED: ATOM     28  C   UNL     1     144.871  72.015 220.056 -0.36 +0.00    +0.000 A  
DOCKED: ATOM     29  C   UNL     1     145.838  74.070 220.896 -0.64 -0.00    +0.000 A  
DOCKED: ATOM     30  C   UNL     1     145.924  72.693 220.678 -0.55 +0.00    +0.000 A  
DOCKED: ENDBRANCH  22  25
DOCKED: BRANCH  23  31
DOCKED: ATOM     31  O   UNL     1     141.817  78.410 219.185 -0.12 +0.24    -0.391 OA 
DOCKED: ATOM     32  H   UNL     1     142.515  79.116 219.138 -0.00 -0.17    +0.211 HD 
DOCKED: ENDBRANCH  23  31
DOCKED: ENDBRANCH  17  20
DOCKED: ENDBRANCH   1  17
DOCKED: TORSDOF 9
DOCKED: TER
DOCKED: ENDMDL
________________________________________________________________________________


    FINAL DOCKED STATE:
    ________________________


Run:   15 / 20
Time taken for this run:   0.060s

DOCKED: MODEL        15
DOCKED: USER    Run = 15
DOCKED: USER
DOCKED: USER    Estimated Free Energy of Binding    =  -5.81 kcal/mol  [=(1)+(2)+(3)-(4)]
DOCKED: USER
DOCKED: USER    (1) Final Intermolecular Energy     =  -8.50 kcal/mol
DOCKED: USER        vdW + Hbond + desolv Energy     =  -8.14 kcal/mol
DOCKED: USER        Electrostatic Energy            =  -0.36 kcal/mol
DOCKED: USER        Moving Ligand-Fixed Receptor    =  -8.50 kcal/mol
DOCKED: USER        Moving Ligand-Moving Receptor   =  +0.00 kcal/mol
DOCKED: USER    (2) Final Total Internal Energy     =  -3.44 kcal/mol
DOCKED: USER    (3) Torsional Free Energy           =  +2.68 kcal/mol
DOCKED: USER    (4) Unbound System's Energy         =  -3.44 kcal/mol
DOCKED: USER
DOCKED: USER
DOCKED: REMARK SMILES O/C(=N\C=C(\O)N1C[C@H](O)C[C@H]1c1ccccc1)c1ccc2cc(Cl)ccc2n1
DOCKED: REMARK SMILES IDX 4 1 3 2 2 3 1 4 19 6 29 7 20 8 28 9 21 10 27 11 22 12 26 13
DOCKED: REMARK SMILES IDX 23 14 24 15 25 16 5 17 6 18 7 20 8 21 12 22 9 23 11 24 13 25
DOCKED: REMARK SMILES IDX 14 26 18 27 15 28 17 29 16 30 10 31
DOCKED: REMARK H PARENT 1 5 6 19 10 32
DOCKED: USER                              x       y       z     vdW  Elec       q    Type
DOCKED: USER                           _______ _______ _______ _____ _____    ______ ____
DOCKED: ROOT
DOCKED: ATOM      1  C   UNL     1     141.336  72.574 221.879 -0.08 -0.01    +0.181 C  
DOCKED: ENDROOT
DOCKED: BRANCH   1   2
DOCKED: ATOM      2  N   UNL     1     140.241  73.416 222.260 -0.73 +0.01    -0.215 NA 
DOCKED: BRANCH   2   3
DOCKED: ATOM      3  C   UNL     1     139.474  74.121 221.478 -0.18 -0.05    +0.237 C  
DOCKED: BRANCH   3   4
DOCKED: ATOM      4  O   UNL     1     138.449  73.546 220.721 -0.01 +0.10    -0.492 OA 
DOCKED: ATOM      5  H   UNL     1     138.603  72.939 219.928 +0.04 -0.06    +0.295 HD 
DOCKED: ENDBRANCH   3   4
DOCKED: BRANCH   3   6
DOCKED: ATOM      6  C   UNL     1     139.702  75.576 221.397 -0.23 -0.03    +0.126 A  
DOCKED: ATOM      7  N   UNL     1     140.474  76.184 222.341 -0.35 +0.05    -0.243 NA 
DOCKED: ATOM      8  C   UNL     1     139.125  76.347 220.375 -0.10 -0.01    +0.035 A  
DOCKED: ATOM      9  C   UNL     1     140.708  77.523 222.333 -0.39 -0.02    +0.071 A  
DOCKED: ATOM     10  C   UNL     1     139.349  77.724 220.340 -0.10 -0.00    +0.013 A  
DOCKED: ATOM     11  C   UNL     1     141.502  78.103 223.328 -0.45 -0.01    +0.030 A  
DOCKED: ATOM     12  C   UNL     1     140.143  78.329 221.321 -0.24 -0.00    +0.002 A  
DOCKED: ATOM     13  C   UNL     1     141.738  79.481 223.318 -0.57 -0.01    +0.023 A  
DOCKED: ATOM     14  C   UNL     1     140.384  79.711 221.317 -0.22 -0.01    +0.030 A  
DOCKED: ATOM     15  C   UNL     1     141.181  80.284 222.316 -0.40 -0.01    +0.041 A  
DOCKED: ATOM     16  Cl  UNL     1     141.482  82.013 222.312 -0.45 +0.01    -0.084 Cl 
DOCKED: ENDBRANCH   3   6
DOCKED: ENDBRANCH   2   3
DOCKED: ENDBRANCH   1   2
DOCKED: BRANCH   1  17
DOCKED: ATOM     17  C   UNL     1     141.654  72.436 220.588 -0.14 -0.03    +0.206 C  
DOCKED: BRANCH  17  18
DOCKED: ATOM     18  O   UNL     1     140.710  71.959 219.678 +0.00 +0.08    -0.494 OA 
DOCKED: ATOM     19  H   UNL     1     139.716  71.979 219.874 +0.05 -0.05    +0.295 HD 
DOCKED: ENDBRANCH  17  18
DOCKED: BRANCH  17  20
DOCKED: ATOM     20  N   UNL     1     142.971  72.755 220.120 -0.08 +0.05    -0.332 N  
DOCKED: ATOM     21  C   UNL     1     143.878  71.754 219.585 -0.18 -0.01    +0.152 C  
DOCKED: ATOM     22  C   UNL     1     143.610  74.035 220.386 -0.32 -0.04    +0.118 C  
DOCKED: ATOM     23  C   UNL     1     145.197  72.490 219.338 -0.28 +0.03    +0.136 C  
DOCKED: ATOM     24  C   UNL     1     145.102  73.816 220.108 -0.47 -0.01    +0.063 C  
DOCKED: BRANCH  22  25
DOCKED: ATOM     25  C   UNL     1     143.020  75.110 219.495 -0.31 +0.01    -0.025 A  
DOCKED: ATOM     26  C   UNL     1     143.344  76.460 219.710 -0.39 -0.00    +0.006 A  
DOCKED: ATOM     27  C   UNL     1     142.149  74.775 218.439 -0.12 -0.00    +0.006 A  
DOCKED: ATOM     28  C   UNL     1     142.799  77.457 218.893 -0.33 -0.00    +0.000 A  
DOCKED: ATOM     29  C   UNL     1     141.605  75.774 217.627 -0.09 -0.00    +0.000 A  
DOCKED: ATOM     30  C   UNL     1     141.930  77.113 217.853 -0.18 -0.00    +0.000 A  
DOCKED: ENDBRANCH  22  25
DOCKED: BRANCH  23  31
DOCKED: ATOM     31  O   UNL     1     146.313  71.726 219.727 -0.42 -0.34    -0.391 OA 
DOCKED: ATOM     32  H   UNL     1     146.241  71.555 220.703 -0.41 -0.02    +0.211 HD 
DOCKED: ENDBRANCH  23  31
DOCKED: ENDBRANCH  17  20
DOCKED: ENDBRANCH   1  17
DOCKED: TORSDOF 9
DOCKED: TER
DOCKED: ENDMDL
________________________________________________________________________________


    FINAL DOCKED STATE:
    ________________________


Run:   16 / 20
Time taken for this run:   0.060s

DOCKED: MODEL        16
DOCKED: USER    Run = 16
DOCKED: USER
DOCKED: USER    Estimated Free Energy of Binding    =  -7.32 kcal/mol  [=(1)+(2)+(3)-(4)]
DOCKED: USER
DOCKED: USER    (1) Final Intermolecular Energy     = -10.01 kcal/mol
DOCKED: USER        vdW + Hbond + desolv Energy     =  -9.57 kcal/mol
DOCKED: USER        Electrostatic Energy            =  -0.44 kcal/mol
DOCKED: USER        Moving Ligand-Fixed Receptor    = -10.01 kcal/mol
DOCKED: USER        Moving Ligand-Moving Receptor   =  +0.00 kcal/mol
DOCKED: USER    (2) Final Total Internal Energy     =  -2.17 kcal/mol
DOCKED: USER    (3) Torsional Free Energy           =  +2.68 kcal/mol
DOCKED: USER    (4) Unbound System's Energy         =  -2.17 kcal/mol
DOCKED: USER
DOCKED: USER
DOCKED: REMARK SMILES O/C(=N\C=C(\O)N1C[C@H](O)C[C@H]1c1ccccc1)c1ccc2cc(Cl)ccc2n1
DOCKED: REMARK SMILES IDX 4 1 3 2 2 3 1 4 19 6 29 7 20 8 28 9 21 10 27 11 22 12 26 13
DOCKED: REMARK SMILES IDX 23 14 24 15 25 16 5 17 6 18 7 20 8 21 12 22 9 23 11 24 13 25
DOCKED: REMARK SMILES IDX 14 26 18 27 15 28 17 29 16 30 10 31
DOCKED: REMARK H PARENT 1 5 6 19 10 32
DOCKED: USER                              x       y       z     vdW  Elec       q    Type
DOCKED: USER                           _______ _______ _______ _____ _____    ______ ____
DOCKED: ROOT
DOCKED: ATOM      1  C   UNL     1     140.571  72.670 219.853 -0.06 -0.03    +0.181 C  
DOCKED: ENDROOT
DOCKED: BRANCH   1   2
DOCKED: ATOM      2  N   UNL     1     139.384  72.914 220.618 -0.06 +0.04    -0.215 NA 
DOCKED: BRANCH   2   3
DOCKED: ATOM      3  C   UNL     1     139.306  73.276 221.866 -0.17 -0.05    +0.237 C  
DOCKED: BRANCH   3   4
DOCKED: ATOM      4  O   UNL     1     139.223  74.619 222.250 -0.51 +0.11    -0.492 OA 
DOCKED: ATOM      5  H   UNL     1     138.861  74.931 223.139 -0.46 -0.13    +0.295 HD 
DOCKED: ENDBRANCH   3   4
DOCKED: BRANCH   3   6
DOCKED: ATOM      6  C   UNL     1     139.303  72.228 222.903 -0.16 -0.03    +0.126 A  
DOCKED: ATOM      7  N   UNL     1     140.242  72.264 223.890 -0.22 +0.04    -0.243 NA 
DOCKED: ATOM      8  C   UNL     1     138.361  71.187 222.884 -0.21 -0.01    +0.035 A  
DOCKED: ATOM      9  C   UNL     1     140.305  71.319 224.865 -0.46 -0.01    +0.071 A  
DOCKED: ATOM     10  C   UNL     1     138.399  70.203 223.874 -0.28 -0.00    +0.013 A  
DOCKED: ATOM     11  C   UNL     1     141.292  71.394 225.853 -0.58 -0.00    +0.030 A  
DOCKED: ATOM     12  C   UNL     1     139.375  70.258 224.876 -0.40 -0.00    +0.002 A  
DOCKED: ATOM     13  C   UNL     1     141.356  70.418 226.853 -0.47 -0.00    +0.023 A  
DOCKED: ATOM     14  C   UNL     1     139.443  69.283 225.882 -0.44 -0.00    +0.030 A  
DOCKED: ATOM     15  C   UNL     1     140.434  69.364 226.868 -0.54 -0.01    +0.041 A  
DOCKED: ATOM     16  Cl  UNL     1     140.521  68.145 228.126 -0.70 +0.02    -0.084 Cl 
DOCKED: ENDBRANCH   3   6
DOCKED: ENDBRANCH   2   3
DOCKED: ENDBRANCH   1   2
DOCKED: BRANCH   1  17
DOCKED: ATOM     17  C   UNL     1     141.651  72.153 220.446 -0.12 -0.03    +0.206 C  
DOCKED: BRANCH  17  18
DOCKED: ATOM     18  O   UNL     1     141.516  71.138 221.394 +0.05 +0.05    -0.494 OA 
DOCKED: ATOM     19  H   UNL     1     141.313  71.336 222.367 +0.12 -0.02    +0.295 HD 
DOCKED: ENDBRANCH  17  18
DOCKED: BRANCH  17  20
DOCKED: ATOM     20  N   UNL     1     142.962  72.642 220.135 -0.08 +0.05    -0.332 N  
DOCKED: ATOM     21  C   UNL     1     143.908  71.894 219.325 -0.16 -0.00    +0.152 C  
DOCKED: ATOM     22  C   UNL     1     143.555  73.784 220.815 -0.22 -0.03    +0.118 C  
DOCKED: ATOM     23  C   UNL     1     145.205  72.707 219.359 -0.30 +0.03    +0.136 C  
DOCKED: ATOM     24  C   UNL     1     145.056  73.709 220.514 -0.53 -0.01    +0.063 C  
DOCKED: BRANCH  22  25
DOCKED: ATOM     25  C   UNL     1     142.939  75.073 220.306 -0.31 +0.01    -0.025 A  
DOCKED: ATOM     26  C   UNL     1     141.771  75.579 220.902 -0.28 -0.00    +0.006 A  
DOCKED: ATOM     27  C   UNL     1     143.526  75.783 219.240 -0.36 -0.00    +0.006 A  
DOCKED: ATOM     28  C   UNL     1     141.196  76.766 220.434 -0.26 -0.00    +0.000 A  
DOCKED: ATOM     29  C   UNL     1     142.948  76.967 218.775 -0.36 -0.00    +0.000 A  
DOCKED: ATOM     30  C   UNL     1     141.784  77.458 219.371 -0.26 -0.00    +0.000 A  
DOCKED: ENDBRANCH  22  25
DOCKED: BRANCH  23  31
DOCKED: ATOM     31  O   UNL     1     146.341  71.891 219.505 -0.40 -0.44    -0.391 OA 
DOCKED: ATOM     32  H   UNL     1     146.330  71.514 220.424 -0.37 +0.05    +0.211 HD 
DOCKED: ENDBRANCH  23  31
DOCKED: ENDBRANCH  17  20
DOCKED: ENDBRANCH   1  17
DOCKED: TORSDOF 9
DOCKED: TER
DOCKED: ENDMDL
________________________________________________________________________________


    FINAL DOCKED STATE:
    ________________________


Run:   17 / 20
Time taken for this run:   0.060s

DOCKED: MODEL        17
DOCKED: USER    Run = 17
DOCKED: USER
DOCKED: USER    Estimated Free Energy of Binding    =  -6.32 kcal/mol  [=(1)+(2)+(3)-(4)]
DOCKED: USER
DOCKED: USER    (1) Final Intermolecular Energy     =  -9.00 kcal/mol
DOCKED: USER        vdW + Hbond + desolv Energy     =  -8.49 kcal/mol
DOCKED: USER        Electrostatic Energy            =  -0.52 kcal/mol
DOCKED: USER        Moving Ligand-Fixed Receptor    =  -9.00 kcal/mol
DOCKED: USER        Moving Ligand-Moving Receptor   =  +0.00 kcal/mol
DOCKED: USER    (2) Final Total Internal Energy     =  -3.17 kcal/mol
DOCKED: USER    (3) Torsional Free Energy           =  +2.68 kcal/mol
DOCKED: USER    (4) Unbound System's Energy         =  -3.17 kcal/mol
DOCKED: USER
DOCKED: USER
DOCKED: REMARK SMILES O/C(=N\C=C(\O)N1C[C@H](O)C[C@H]1c1ccccc1)c1ccc2cc(Cl)ccc2n1
DOCKED: REMARK SMILES IDX 4 1 3 2 2 3 1 4 19 6 29 7 20 8 28 9 21 10 27 11 22 12 26 13
DOCKED: REMARK SMILES IDX 23 14 24 15 25 16 5 17 6 18 7 20 8 21 12 22 9 23 11 24 13 25
DOCKED: REMARK SMILES IDX 14 26 18 27 15 28 17 29 16 30 10 31
DOCKED: REMARK H PARENT 1 5 6 19 10 32
DOCKED: USER                              x       y       z     vdW  Elec       q    Type
DOCKED: USER                           _______ _______ _______ _____ _____    ______ ____
DOCKED: ROOT
DOCKED: ATOM      1  C   UNL     1     140.985  72.747 219.595 -0.06 -0.03    +0.181 C  
DOCKED: ENDROOT
DOCKED: BRANCH   1   2
DOCKED: ATOM      2  N   UNL     1     139.873  73.522 220.061 -0.04 +0.04    -0.215 NA 
DOCKED: BRANCH   2   3
DOCKED: ATOM      3  C   UNL     1     139.778  74.176 221.183 -0.17 -0.04    +0.237 C  
DOCKED: BRANCH   3   4
DOCKED: ATOM      4  O   UNL     1     139.425  73.551 222.383 -0.54 +0.10    -0.492 OA 
DOCKED: ATOM      5  H   UNL     1     138.817  73.962 223.077 -0.50 -0.18    +0.295 HD 
DOCKED: ENDBRANCH   3   4
DOCKED: BRANCH   3   6
DOCKED: ATOM      6  C   UNL     1     140.057  75.624 221.178 -0.22 -0.03    +0.126 A  
DOCKED: ATOM      7  N   UNL     1     140.656  76.192 222.262 -0.33 +0.06    -0.243 NA 
DOCKED: ATOM      8  C   UNL     1     139.703  76.430 220.084 -0.10 -0.01    +0.035 A  
DOCKED: ATOM      9  C   UNL     1     140.925  77.523 222.328 -0.39 -0.03    +0.071 A  
DOCKED: ATOM     10  C   UNL     1     139.969  77.800 220.121 -0.12 -0.00    +0.013 A  
DOCKED: ATOM     11  C   UNL     1     141.535  78.061 223.466 -0.43 -0.01    +0.030 A  
DOCKED: ATOM     12  C   UNL     1     140.582  78.363 221.247 -0.27 -0.00    +0.002 A  
DOCKED: ATOM     13  C   UNL     1     141.806  79.431 223.532 -0.59 -0.01    +0.023 A  
DOCKED: ATOM     14  C   UNL     1     140.858  79.736 221.319 -0.28 -0.01    +0.030 A  
DOCKED: ATOM     15  C   UNL     1     141.469  80.268 222.461 -0.46 -0.01    +0.041 A  
DOCKED: ATOM     16  Cl  UNL     1     141.814  81.985 222.551 -0.30 +0.01    -0.084 Cl 
DOCKED: ENDBRANCH   3   6
DOCKED: ENDBRANCH   2   3
DOCKED: ENDBRANCH   1   2
DOCKED: BRANCH   1  17
DOCKED: ATOM     17  C   UNL     1     141.994  72.464 220.423 -0.14 -0.03    +0.206 C  
DOCKED: BRANCH  17  18
DOCKED: ATOM     18  O   UNL     1     141.740  71.924 221.684 -0.06 +0.04    -0.494 OA 
DOCKED: ATOM     19  H   UNL     1     140.855  72.060 222.159 +0.11 -0.03    +0.295 HD 
DOCKED: ENDBRANCH  17  18
DOCKED: BRANCH  17  20
DOCKED: ATOM     20  N   UNL     1     143.351  72.728 220.042 -0.09 +0.05    -0.332 N  
DOCKED: ATOM     21  C   UNL     1     144.262  71.684 219.606 -0.20 +0.00    +0.152 C  
DOCKED: ATOM     22  C   UNL     1     144.009  73.997 220.313 -0.35 -0.04    +0.118 C  
DOCKED: ATOM     23  C   UNL     1     145.617  72.373 219.432 -0.28 +0.06    +0.136 C  
DOCKED: ATOM     24  C   UNL     1     145.509  73.726 220.151 -0.50 -0.01    +0.063 C  
DOCKED: BRANCH  22  25
DOCKED: ATOM     25  C   UNL     1     143.518  75.058 219.347 -0.33 +0.01    -0.025 A  
DOCKED: ATOM     26  C   UNL     1     143.167  74.706 218.033 -0.17 -0.00    +0.006 A  
DOCKED: ATOM     27  C   UNL     1     143.397  76.402 219.751 -0.38 -0.00    +0.006 A  
DOCKED: ATOM     28  C   UNL     1     142.716  75.682 217.137 -0.15 -0.00    +0.000 A  
DOCKED: ATOM     29  C   UNL     1     142.949  77.374 218.853 -0.33 -0.00    +0.000 A  
DOCKED: ATOM     30  C   UNL     1     142.609  77.014 217.547 -0.26 -0.00    +0.000 A  
DOCKED: ENDBRANCH  22  25
DOCKED: BRANCH  23  31
DOCKED: ATOM     31  O   UNL     1     146.678  71.591 219.924 -0.11 -0.39    -0.391 OA 
DOCKED: ATOM     32  H   UNL     1     146.590  71.543 220.913 -0.42 -0.03    +0.211 HD 
DOCKED: ENDBRANCH  23  31
DOCKED: ENDBRANCH  17  20
DOCKED: ENDBRANCH   1  17
DOCKED: TORSDOF 9
DOCKED: TER
DOCKED: ENDMDL
________________________________________________________________________________


    FINAL DOCKED STATE:
    ________________________


Run:   18 / 20
Time taken for this run:   0.060s

DOCKED: MODEL        18
DOCKED: USER    Run = 18
DOCKED: USER
DOCKED: USER    Estimated Free Energy of Binding    =  -7.50 kcal/mol  [=(1)+(2)+(3)-(4)]
DOCKED: USER
DOCKED: USER    (1) Final Intermolecular Energy     = -10.19 kcal/mol
DOCKED: USER        vdW + Hbond + desolv Energy     =  -9.93 kcal/mol
DOCKED: USER        Electrostatic Energy            =  -0.26 kcal/mol
DOCKED: USER        Moving Ligand-Fixed Receptor    = -10.19 kcal/mol
DOCKED: USER        Moving Ligand-Moving Receptor   =  +0.00 kcal/mol
DOCKED: USER    (2) Final Total Internal Energy     =  -2.38 kcal/mol
DOCKED: USER    (3) Torsional Free Energy           =  +2.68 kcal/mol
DOCKED: USER    (4) Unbound System's Energy         =  -2.38 kcal/mol
DOCKED: USER
DOCKED: USER
DOCKED: REMARK SMILES O/C(=N\C=C(\O)N1C[C@H](O)C[C@H]1c1ccccc1)c1ccc2cc(Cl)ccc2n1
DOCKED: REMARK SMILES IDX 4 1 3 2 2 3 1 4 19 6 29 7 20 8 28 9 21 10 27 11 22 12 26 13
DOCKED: REMARK SMILES IDX 23 14 24 15 25 16 5 17 6 18 7 20 8 21 12 22 9 23 11 24 13 25
DOCKED: REMARK SMILES IDX 14 26 18 27 15 28 17 29 16 30 10 31
DOCKED: REMARK H PARENT 1 5 6 19 10 32
DOCKED: USER                              x       y       z     vdW  Elec       q    Type
DOCKED: USER                           _______ _______ _______ _____ _____    ______ ____
DOCKED: ROOT
DOCKED: ATOM      1  C   UNL     1     141.034  73.923 221.599 -0.20 -0.02    +0.181 C  
DOCKED: ENDROOT
DOCKED: BRANCH   1   2
DOCKED: ATOM      2  N   UNL     1     139.876  73.423 222.279 -0.72 +0.03    -0.215 NA 
DOCKED: BRANCH   2   3
DOCKED: ATOM      3  C   UNL     1     139.352  72.235 222.183 -0.18 -0.05    +0.237 C  
DOCKED: BRANCH   3   4
DOCKED: ATOM      4  O   UNL     1     138.616  71.831 221.064 -0.00 +0.10    -0.492 OA 
DOCKED: ATOM      5  H   UNL     1     138.984  71.250 220.325 +0.05 -0.05    +0.295 HD 
DOCKED: ENDBRANCH   3   4
DOCKED: BRANCH   3   6
DOCKED: ATOM      6  C   UNL     1     139.549  71.288 223.297 -0.28 -0.03    +0.126 A  
DOCKED: ATOM      7  N   UNL     1     140.099  71.733 224.461 -0.25 +0.05    -0.243 NA 
DOCKED: ATOM      8  C   UNL     1     139.195  69.935 223.173 -0.23 -0.01    +0.035 A  
DOCKED: ATOM      9  C   UNL     1     140.323  70.908 225.518 -0.50 -0.01    +0.071 A  
DOCKED: ATOM     10  C   UNL     1     139.411  69.064 224.243 -0.29 -0.00    +0.013 A  
DOCKED: ATOM     11  C   UNL     1     140.897  71.410 226.691 -0.68 -0.00    +0.030 A  
DOCKED: ATOM     12  C   UNL     1     139.980  69.542 225.429 -0.44 -0.00    +0.002 A  
DOCKED: ATOM     13  C   UNL     1     141.129  70.558 227.775 -0.59 -0.00    +0.023 A  
DOCKED: ATOM     14  C   UNL     1     140.215  68.693 226.520 -0.57 -0.01    +0.030 A  
DOCKED: ATOM     15  C   UNL     1     140.789  69.202 227.692 -0.59 -0.01    +0.041 A  
DOCKED: ATOM     16  Cl  UNL     1     141.083  68.141 229.057 -0.49 +0.02    -0.084 Cl 
DOCKED: ENDBRANCH   3   6
DOCKED: ENDBRANCH   2   3
DOCKED: ENDBRANCH   1   2
DOCKED: BRANCH   1  17
DOCKED: ATOM     17  C   UNL     1     141.447  73.341 220.469 -0.14 -0.04    +0.206 C  
DOCKED: BRANCH  17  18
DOCKED: ATOM     18  O   UNL     1     140.552  72.609 219.687 +0.01 +0.09    -0.494 OA 
DOCKED: ATOM     19  H   UNL     1     139.559  72.584 219.887 +0.05 -0.06    +0.295 HD 
DOCKED: ENDBRANCH  17  18
DOCKED: BRANCH  17  20
DOCKED: ATOM     20  N   UNL     1     142.815  73.438 220.052 -0.09 +0.07    -0.332 N  
DOCKED: ATOM     21  C   UNL     1     143.563  72.303 219.540 -0.16 -0.01    +0.152 C  
DOCKED: ATOM     22  C   UNL     1     143.646  74.593 220.354 -0.31 -0.05    +0.118 C  
DOCKED: ATOM     23  C   UNL     1     144.994  72.811 219.349 -0.29 +0.01    +0.136 C  
DOCKED: ATOM     24  C   UNL     1     145.091  74.132 220.128 -0.40 -0.02    +0.063 C  
DOCKED: BRANCH  22  25
DOCKED: ATOM     25  C   UNL     1     143.275  75.755 219.452 -0.37 +0.01    -0.025 A  
DOCKED: ATOM     26  C   UNL     1     142.571  76.854 219.973 -0.33 -0.00    +0.006 A  
DOCKED: ATOM     27  C   UNL     1     143.635  75.755 218.090 -0.23 -0.00    +0.006 A  
DOCKED: ATOM     28  C   UNL     1     142.223  77.926 219.144 -0.30 -0.00    +0.000 A  
DOCKED: ATOM     29  C   UNL     1     143.283  76.827 217.266 -0.27 -0.00    +0.000 A  
DOCKED: ATOM     30  C   UNL     1     142.578  77.912 217.792 -0.30 -0.00    +0.000 A  
DOCKED: ENDBRANCH  22  25
DOCKED: BRANCH  23  31
DOCKED: ATOM     31  O   UNL     1     145.953  71.872 219.770 -0.46 -0.22    -0.391 OA 
DOCKED: ATOM     32  H   UNL     1     145.653  71.499 220.641 -0.36 -0.05    +0.211 HD 
DOCKED: ENDBRANCH  23  31
DOCKED: ENDBRANCH  17  20
DOCKED: ENDBRANCH   1  17
DOCKED: TORSDOF 9
DOCKED: TER
DOCKED: ENDMDL
________________________________________________________________________________


    FINAL DOCKED STATE:
    ________________________


Run:   19 / 20
Time taken for this run:   0.060s

DOCKED: MODEL        19
DOCKED: USER    Run = 19
DOCKED: USER
DOCKED: USER    Estimated Free Energy of Binding    =  -8.14 kcal/mol  [=(1)+(2)+(3)-(4)]
DOCKED: USER
DOCKED: USER    (1) Final Intermolecular Energy     = -10.82 kcal/mol
DOCKED: USER        vdW + Hbond + desolv Energy     = -10.45 kcal/mol
DOCKED: USER        Electrostatic Energy            =  -0.37 kcal/mol
DOCKED: USER        Moving Ligand-Fixed Receptor    = -10.82 kcal/mol
DOCKED: USER        Moving Ligand-Moving Receptor   =  +0.00 kcal/mol
DOCKED: USER    (2) Final Total Internal Energy     =  -1.50 kcal/mol
DOCKED: USER    (3) Torsional Free Energy           =  +2.68 kcal/mol
DOCKED: USER    (4) Unbound System's Energy         =  -1.50 kcal/mol
DOCKED: USER
DOCKED: USER
DOCKED: REMARK SMILES O/C(=N\C=C(\O)N1C[C@H](O)C[C@H]1c1ccccc1)c1ccc2cc(Cl)ccc2n1
DOCKED: REMARK SMILES IDX 4 1 3 2 2 3 1 4 19 6 29 7 20 8 28 9 21 10 27 11 22 12 26 13
DOCKED: REMARK SMILES IDX 23 14 24 15 25 16 5 17 6 18 7 20 8 21 12 22 9 23 11 24 13 25
DOCKED: REMARK SMILES IDX 14 26 18 27 15 28 17 29 16 30 10 31
DOCKED: REMARK H PARENT 1 5 6 19 10 32
DOCKED: USER                              x       y       z     vdW  Elec       q    Type
DOCKED: USER                           _______ _______ _______ _____ _____    ______ ____
DOCKED: ROOT
DOCKED: ATOM      1  C   UNL     1     140.902  71.718 220.136 -0.08 -0.03    +0.181 C  
DOCKED: ENDROOT
DOCKED: BRANCH   1   2
DOCKED: ATOM      2  N   UNL     1     139.810  72.399 220.768 -0.07 +0.04    -0.215 NA 
DOCKED: BRANCH   2   3
DOCKED: ATOM      3  C   UNL     1     139.733  72.796 222.005 -0.20 -0.04    +0.237 C  
DOCKED: BRANCH   3   4
DOCKED: ATOM      4  O   UNL     1     139.593  74.145 222.348 -0.71 +0.07    -0.492 OA 
DOCKED: ATOM      5  H   UNL     1     139.225  74.469 223.232 -0.46 -0.11    +0.295 HD 
DOCKED: ENDBRANCH   3   4
DOCKED: BRANCH   3   6
DOCKED: ATOM      6  C   UNL     1     139.794  71.783 223.074 -0.29 -0.02    +0.126 A  
DOCKED: ATOM      7  N   UNL     1     140.316  72.122 224.286 -0.16 +0.04    -0.243 NA 
DOCKED: ATOM      8  C   UNL     1     139.339  70.471 222.861 -0.23 -0.01    +0.035 A  
DOCKED: ATOM      9  C   UNL     1     140.417  71.230 225.308 -0.50 -0.01    +0.071 A  
DOCKED: ATOM     10  C   UNL     1     139.428  69.534 223.892 -0.28 -0.00    +0.013 A  
DOCKED: ATOM     11  C   UNL     1     140.967  71.624 226.532 -0.69 -0.00    +0.030 A  
DOCKED: ATOM     12  C   UNL     1     139.970  69.904 225.128 -0.43 -0.00    +0.002 A  
DOCKED: ATOM     13  C   UNL     1     141.072  70.704 227.579 -0.63 -0.00    +0.023 A  
DOCKED: ATOM     14  C   UNL     1     140.078  68.985 226.183 -0.51 -0.01    +0.030 A  
DOCKED: ATOM     15  C   UNL     1     140.629  69.387 227.406 -0.57 -0.01    +0.041 A  
DOCKED: ATOM     16  Cl  UNL     1     140.764  68.238 228.725 -0.66 +0.02    -0.084 Cl 
DOCKED: ENDBRANCH   3   6
DOCKED: ENDBRANCH   2   3
DOCKED: ENDBRANCH   1   2
DOCKED: BRANCH   1  17
DOCKED: ATOM     17  C   UNL     1     141.620  72.340 219.196 -0.04 -0.04    +0.206 C  
DOCKED: BRANCH  17  18
DOCKED: ATOM     18  O   UNL     1     141.106  72.499 217.909 +0.02 +0.10    -0.494 OA 
DOCKED: ATOM     19  H   UNL     1     140.111  72.467 217.719 +0.02 -0.06    +0.295 HD 
DOCKED: ENDBRANCH  17  18
DOCKED: BRANCH  17  20
DOCKED: ATOM     20  N   UNL     1     142.935  72.833 219.485 -0.04 +0.05    -0.332 N  
DOCKED: ATOM     21  C   UNL     1     144.135  72.257 218.902 -0.14 +0.00    +0.152 C  
DOCKED: ATOM     22  C   UNL     1     143.204  73.756 220.577 -0.25 -0.03    +0.118 C  
DOCKED: ATOM     23  C   UNL     1     145.302  72.984 219.576 -0.35 +0.02    +0.136 C  
DOCKED: ATOM     24  C   UNL     1     144.718  73.690 220.808 -0.47 -0.02    +0.063 C  
DOCKED: BRANCH  22  25
DOCKED: ATOM     25  C   UNL     1     142.748  75.154 220.205 -0.31 +0.01    -0.025 A  
DOCKED: ATOM     26  C   UNL     1     141.685  75.756 220.900 -0.27 -0.00    +0.006 A  
DOCKED: ATOM     27  C   UNL     1     143.382  75.868 219.170 -0.36 -0.00    +0.006 A  
DOCKED: ATOM     28  C   UNL     1     141.258  77.044 220.558 -0.28 -0.00    +0.000 A  
DOCKED: ATOM     29  C   UNL     1     142.950  77.154 218.831 -0.36 -0.00    +0.000 A  
DOCKED: ATOM     30  C   UNL     1     141.889  77.741 219.524 -0.29 -0.00    +0.000 A  
DOCKED: ENDBRANCH  22  25
DOCKED: BRANCH  23  31
DOCKED: ATOM     31  O   UNL     1     146.352  72.109 219.910 -0.44 -0.29    -0.391 OA 
DOCKED: ATOM     32  H   UNL     1     146.196  71.786 220.837 -0.43 -0.03    +0.211 HD 
DOCKED: ENDBRANCH  23  31
DOCKED: ENDBRANCH  17  20
DOCKED: ENDBRANCH   1  17
DOCKED: TORSDOF 9
DOCKED: TER
DOCKED: ENDMDL
________________________________________________________________________________


    FINAL DOCKED STATE:
    ________________________


Run:   20 / 20
Time taken for this run:   0.060s

DOCKED: MODEL        20
DOCKED: USER    Run = 20
DOCKED: USER
DOCKED: USER    Estimated Free Energy of Binding    =  -8.32 kcal/mol  [=(1)+(2)+(3)-(4)]
DOCKED: USER
DOCKED: USER    (1) Final Intermolecular Energy     = -11.01 kcal/mol
DOCKED: USER        vdW + Hbond + desolv Energy     = -10.88 kcal/mol
DOCKED: USER        Electrostatic Energy            =  -0.13 kcal/mol
DOCKED: USER        Moving Ligand-Fixed Receptor    = -11.01 kcal/mol
DOCKED: USER        Moving Ligand-Moving Receptor   =  +0.00 kcal/mol
DOCKED: USER    (2) Final Total Internal Energy     =  -2.25 kcal/mol
DOCKED: USER    (3) Torsional Free Energy           =  +2.68 kcal/mol
DOCKED: USER    (4) Unbound System's Energy         =  -2.25 kcal/mol
DOCKED: USER
DOCKED: USER
DOCKED: REMARK SMILES O/C(=N\C=C(\O)N1C[C@H](O)C[C@H]1c1ccccc1)c1ccc2cc(Cl)ccc2n1
DOCKED: REMARK SMILES IDX 4 1 3 2 2 3 1 4 19 6 29 7 20 8 28 9 21 10 27 11 22 12 26 13
DOCKED: REMARK SMILES IDX 23 14 24 15 25 16 5 17 6 18 7 20 8 21 12 22 9 23 11 24 13 25
DOCKED: REMARK SMILES IDX 14 26 18 27 15 28 17 29 16 30 10 31
DOCKED: REMARK H PARENT 1 5 6 19 10 32
DOCKED: USER                              x       y       z     vdW  Elec       q    Type
DOCKED: USER                           _______ _______ _______ _____ _____    ______ ____
DOCKED: ROOT
DOCKED: ATOM      1  C   UNL     1     140.820  72.922 221.024 -0.18 -0.03    +0.181 C  
DOCKED: ENDROOT
DOCKED: BRANCH   1   2
DOCKED: ATOM      2  N   UNL     1     139.690  72.074 221.264 -0.09 +0.04    -0.215 NA 
DOCKED: BRANCH   2   3
DOCKED: ATOM      3  C   UNL     1     138.911  72.069 222.307 -0.15 -0.06    +0.237 C  
DOCKED: BRANCH   3   4
DOCKED: ATOM      4  O   UNL     1     137.795  72.907 222.410 -0.04 +0.17    -0.492 OA 
DOCKED: ATOM      5  H   UNL     1     137.835  73.865 222.727 -0.47 -0.15    +0.295 HD 
DOCKED: ENDBRANCH   3   4
DOCKED: BRANCH   3   6
DOCKED: ATOM      6  C   UNL     1     139.221  71.143 223.412 -0.27 -0.03    +0.126 A  
DOCKED: ATOM      7  N   UNL     1     139.813  71.625 224.541 -0.22 +0.06    -0.243 NA 
DOCKED: ATOM      8  C   UNL     1     138.932  69.772 223.316 -0.24 -0.01    +0.035 A  
DOCKED: ATOM      9  C   UNL     1     140.141  70.822 225.587 -0.48 -0.01    +0.071 A  
DOCKED: ATOM     10  C   UNL     1     139.255  68.923 224.376 -0.33 -0.00    +0.013 A  
DOCKED: ATOM     11  C   UNL     1     140.754  71.363 226.722 -0.68 -0.00    +0.030 A  
DOCKED: ATOM     12  C   UNL     1     139.865  69.440 225.525 -0.45 -0.00    +0.002 A  
DOCKED: ATOM     13  C   UNL     1     141.092  70.533 227.796 -0.61 -0.00    +0.023 A  
DOCKED: ATOM     14  C   UNL     1     140.207  68.613 226.606 -0.58 -0.01    +0.030 A  
DOCKED: ATOM     15  C   UNL     1     140.820  69.161 227.739 -0.59 -0.01    +0.041 A  
DOCKED: ATOM     16  Cl  UNL     1     141.248  68.128 229.090 -0.46 +0.02    -0.084 Cl 
DOCKED: ENDBRANCH   3   6
DOCKED: ENDBRANCH   2   3
DOCKED: ENDBRANCH   1   2
DOCKED: BRANCH   1  17
DOCKED: ATOM     17  C   UNL     1     140.756  74.221 221.332 -0.22 -0.03    +0.206 C  
DOCKED: BRANCH  17  18
DOCKED: ATOM     18  O   UNL     1     139.889  74.666 222.330 -0.66 +0.03    -0.494 OA 
DOCKED: ATOM     19  H   UNL     1     139.511  74.040 223.032 -0.43 -0.05    +0.295 HD 
DOCKED: ENDBRANCH  17  18
DOCKED: BRANCH  17  20
DOCKED: ATOM     20  N   UNL     1     141.559  75.180 220.632 -0.13 +0.11    -0.332 N  
DOCKED: ATOM     21  C   UNL     1     141.451  76.611 220.861 -0.23 -0.07    +0.152 C  
DOCKED: ATOM     22  C   UNL     1     142.343  74.838 219.455 -0.19 -0.04    +0.118 C  
DOCKED: ATOM     23  C   UNL     1     142.374  77.259 219.825 -0.23 -0.09    +0.136 C  
DOCKED: ATOM     24  C   UNL     1     142.685  76.173 218.784 -0.27 -0.03    +0.063 C  
DOCKED: BRANCH  22  25
DOCKED: ATOM     25  C   UNL     1     143.589  74.073 219.861 -0.33 +0.01    -0.025 A  
DOCKED: ATOM     26  C   UNL     1     144.658  74.745 220.476 -0.42 -0.00    +0.006 A  
DOCKED: ATOM     27  C   UNL     1     143.689  72.686 219.637 -0.25 -0.00    +0.006 A  
DOCKED: ATOM     28  C   UNL     1     145.811  74.045 220.849 -0.65 -0.00    +0.000 A  
DOCKED: ATOM     29  C   UNL     1     144.843  71.991 220.009 -0.35 +0.00    +0.000 A  
DOCKED: ATOM     30  C   UNL     1     145.903  72.670 220.614 -0.55 +0.00    +0.000 A  
DOCKED: ENDBRANCH  22  25
DOCKED: BRANCH  23  31
DOCKED: ATOM     31  O   UNL     1     141.800  78.405 219.246 -0.12 +0.23    -0.391 OA 
DOCKED: ATOM     32  H   UNL     1     142.476  79.133 219.273 -0.01 -0.17    +0.211 HD 
DOCKED: ENDBRANCH  23  31
DOCKED: ENDBRANCH  17  20
DOCKED: ENDBRANCH   1  17
DOCKED: TORSDOF 9
DOCKED: TER
DOCKED: ENDMDL
________________________________________________________________________________


    CLUSTERING HISTOGRAM
    ____________________


________________________________________________________________________________
     |           |     |           |     |
Clus | Lowest    | Run | Mean      | Num | Histogram
-ter | Binding   |     | Binding   | in  |
Rank | Energy    |     | Energy    | Clus|    5    10   15   20   25   30   35
_____|___________|_____|___________|_____|____:____|____:____|____:____|____:___
   1 |     -8.39 |   8 |     -8.10 |  10 |##########
   2 |     -8.22 |  13 |     -8.20 |   2 |##
   3 |     -8.14 |  19 |     -7.65 |   5 |#####
   4 |     -6.32 |  17 |     -6.06 |   2 |##
   5 |     -5.95 |   9 |     -5.95 |   1 |#
_____|___________|_____|___________|_____|______________________________________


    RMSD TABLE
    __________


_______________________________________________________________________
     |      |      |           |         |                 |
Rank | Sub- | Run  | Binding   | Cluster | Reference       | Grep
     | Rank |      | Energy    | RMSD    | RMSD            | Pattern
_____|______|______|___________|_________|_________________|___________
   1      1      8       -8.39      0.00    271.44           RANKING
   1      2     20       -8.32      1.53    271.50           RANKING
   1      3     10       -8.31      1.56    271.45           RANKING
   1      4     11       -8.30      1.55    271.50           RANKING
   1      5     14       -8.25      1.51    271.49           RANKING
   1      6      7       -8.14      1.60    271.52           RANKING
   1      7      3       -8.11      1.52    271.37           RANKING
   1      8      6       -8.02      1.51    271.40           RANKING
   1      9      2       -7.60      1.34    271.48           RANKING
   1     10     12       -7.59      0.89    271.07           RANKING
   2      1     13       -8.22      0.00    271.85           RANKING
   2      2      5       -8.18      0.38    271.86           RANKING
   3      1     19       -8.14      0.00    271.19           RANKING
   3      2      4       -7.84      0.87    271.25           RANKING
   3      3     18       -7.50      1.24    271.16           RANKING
   3      4      1       -7.43      1.23    271.18           RANKING
   3      5     16       -7.32      1.14    271.24           RANKING
   4      1     17       -6.32      0.00    271.11           RANKING
   4      2     15       -5.81      1.13    270.82           RANKING
   5      1      9       -5.95      0.00    271.37           RANKING

Run time 1.151 sec
Idle time 0.000 sec
