AutoDock-GPU version: v1.6

**********************************************************
**    AutoDock-GPU AUTODOCKTOOLS-COMPATIBLE DLG FILE    **
**********************************************************


    DOCKING PARAMETERS
    ________________________


Ligand file:                               /home/a/REINVENT4/ReinventStudies/pleaseWork/justmol2mol_4_Compounds_ontop/graph-dock-8u2o5u/graph-DockGPU/node-autodockgpu/inputs/JBCXUJHMCIQQPK-ZCJDPNOYNA-N.pdbqt
Grid fld file:                             /home/a/REINVENT4/ReinventStudies/mols/Rad51/maps/rad51_receptor.maps.fld

Random seed:                               42
Number of runs:                            20
Number of energy evaluations:              1259779
Number of generations:                     42000
Size of population:                        150
Rate of crossover:                         80.000000%
Tournament selection probability limit:    60.000000%
Rate of mutation:                          2.000000%
Maximal allowed delta movement:            +/- 6.000000A
Maximal allowed delta angle:               +/- 90.000000

Rate of local search:                      100.000000%
Maximal number of local search iterations: 300
Rho lower bound:                           0.010000
Spread of local search delta movement:     2.000000A
Spread of local search delta angle:        74.999999
Limit of consecutive successes/failures:   4

Handle symmetry during clustering:         YES
RMSD tolerance:                            2.000000A

Program call in command line was:          /home/a/REINVENT4/ReinventStudies/adgpu-v1.6_linux_x64_cuda12_128wi --filelist batch.txt --heuristics 1 --nrun 20 --psize 150 --lsit 300 --seed 42 --heurmax 12000000 


    GRID PARAMETERS
    ________________________


Receptor name:                             rad51_receptor
Number of grid points (x, y, z):           53, 53, 53
Grid center (x, y, z):                     139.950000, 75.640000, 221.970000A
Grid size (x, y, z):                       19.500000, 19.500000, 19.500000A
Grid spacing:                              0.375000A


    LIGAND PARAMETERS
    ________________________


Ligand name:                               /home/a/REINVENT4/ReinventStudies/pleaseWork/justmol2mol_4_Compounds_ontop/graph-dock-8u2o5u/graph-DockGPU/node-autodockgpu/inputs/JBCXUJHMCIQQPK-ZCJDPNOYNA-N
Number of atoms:                           32
Number of rotatable bonds:                 7
Number of atom types:                      7


    DUMMY DATA (only for ADT-compatibility)
    ________________________


DPF> outlev 1
DPF> ga_run 20
DPF> fld /home/a/REINVENT4/ReinventStudies/mols/Rad51/maps/rad51_receptor.maps.fld
DPF> move /home/a/REINVENT4/ReinventStudies/pleaseWork/justmol2mol_4_Compounds_ontop/graph-dock-8u2o5u/graph-DockGPU/node-autodockgpu/inputs/JBCXUJHMCIQQPK-ZCJDPNOYNA-N.pdbqt


    COUNTER STATES
    ________________________


Number of energy evaluations performed:    940644
Number of generations used:                65


    INPUT LIGAND PDBQT FILE:
    ________________________


INPUT-LIGAND-PDBQT: REMARK SMILES O=C(N/C=C(/O)N1C[C@H](O)C[C@H]1c1ccccc1)c1ccc2cc(Cl)ccc2n1
INPUT-LIGAND-PDBQT: REMARK SMILES IDX 5 1 6 2 4 4 3 5 2 6 1 8 19 9 29 10 20 11 28 12 21 13 27 14
INPUT-LIGAND-PDBQT: REMARK SMILES IDX 22 15 26 16 23 17 24 18 25 19 7 20 8 21 12 22 9 23 11 24
INPUT-LIGAND-PDBQT: REMARK SMILES IDX 13 25 14 26 18 27 15 28 17 29 16 30 10 31
INPUT-LIGAND-PDBQT: REMARK H PARENT 6 3 3 7 10 32
INPUT-LIGAND-PDBQT: ROOT
INPUT-LIGAND-PDBQT: ATOM      1  C   UNL     1       0.415  -2.044   2.505  1.00  0.00     0.204 C 
INPUT-LIGAND-PDBQT: ENDROOT
INPUT-LIGAND-PDBQT: BRANCH   1   2
INPUT-LIGAND-PDBQT: ATOM      2  O   UNL     1       0.476  -2.421   3.847  1.00  0.00    -0.494 OA
INPUT-LIGAND-PDBQT: ATOM      3  H   UNL     1       1.309  -2.282   4.407  1.00  0.00     0.295 HD
INPUT-LIGAND-PDBQT: ENDBRANCH   1   2
INPUT-LIGAND-PDBQT: BRANCH   1   4
INPUT-LIGAND-PDBQT: ATOM      4  C   UNL     1       1.481  -1.478   1.920  1.00  0.00     0.152 C 
INPUT-LIGAND-PDBQT: BRANCH   4   5
INPUT-LIGAND-PDBQT: ATOM      5  N   UNL     1       1.524  -1.200   0.513  1.00  0.00    -0.322 N 
INPUT-LIGAND-PDBQT: ATOM      6  C   UNL     1       2.553  -0.385  -0.068  1.00  0.00     0.273 C 
INPUT-LIGAND-PDBQT: ATOM      7  H   UNL     1       0.822  -1.648  -0.117  1.00  0.00     0.169 HD
INPUT-LIGAND-PDBQT: ATOM      8  O   UNL     1       3.452   0.109   0.667  1.00  0.00    -0.267 OA
INPUT-LIGAND-PDBQT: BRANCH   6   9
INPUT-LIGAND-PDBQT: ATOM      9  C   UNL     1       2.560  -0.109  -1.522  1.00  0.00     0.129 A 
INPUT-LIGAND-PDBQT: ATOM     10  N   UNL     1       1.566  -0.609  -2.307  1.00  0.00    -0.243 NA
INPUT-LIGAND-PDBQT: ATOM     11  C   UNL     1       3.575   0.667  -2.108  1.00  0.00     0.035 A 
INPUT-LIGAND-PDBQT: ATOM     12  C   UNL     1       1.517  -0.385  -3.647  1.00  0.00     0.071 A 
INPUT-LIGAND-PDBQT: ATOM     13  C   UNL     1       3.553   0.914  -3.482  1.00  0.00     0.013 A 
INPUT-LIGAND-PDBQT: ATOM     14  C   UNL     1       0.475  -0.920  -4.412  1.00  0.00     0.030 A 
INPUT-LIGAND-PDBQT: ATOM     15  C   UNL     1       2.521   0.390  -4.268  1.00  0.00     0.002 A 
INPUT-LIGAND-PDBQT: ATOM     16  C   UNL     1       0.428  -0.688  -5.790  1.00  0.00     0.023 A 
INPUT-LIGAND-PDBQT: ATOM     17  C   UNL     1       2.467   0.619  -5.651  1.00  0.00     0.030 A 
INPUT-LIGAND-PDBQT: ATOM     18  C   UNL     1       1.421   0.080  -6.409  1.00  0.00     0.041 A 
INPUT-LIGAND-PDBQT: ATOM     19  Cl  UNL     1       1.354   0.368  -8.138  1.00  0.00    -0.084 Cl
INPUT-LIGAND-PDBQT: ENDBRANCH   6   9
INPUT-LIGAND-PDBQT: ENDBRANCH   4   5
INPUT-LIGAND-PDBQT: ENDBRANCH   1   4
INPUT-LIGAND-PDBQT: BRANCH   1  20
INPUT-LIGAND-PDBQT: ATOM     20  N   UNL     1      -0.804  -2.271   1.783  1.00  0.00    -0.332 N 
INPUT-LIGAND-PDBQT: ATOM     21  C   UNL     1      -1.409  -3.586   1.679  1.00  0.00     0.152 C 
INPUT-LIGAND-PDBQT: ATOM     22  C   UNL     1      -1.663  -1.201   1.290  1.00  0.00     0.118 C 
INPUT-LIGAND-PDBQT: ATOM     23  C   UNL     1      -2.821  -3.352   1.137  1.00  0.00     0.136 C 
INPUT-LIGAND-PDBQT: ATOM     24  C   UNL     1      -2.839  -1.912   0.613  1.00  0.00     0.063 C 
INPUT-LIGAND-PDBQT: BRANCH  22  25
INPUT-LIGAND-PDBQT: ATOM     25  C   UNL     1      -2.123  -0.302   2.422  1.00  0.00    -0.025 A 
INPUT-LIGAND-PDBQT: ATOM     26  C   UNL     1      -2.056   1.095   2.276  1.00  0.00     0.006 A 
INPUT-LIGAND-PDBQT: ATOM     27  C   UNL     1      -2.647  -0.840   3.613  1.00  0.00     0.006 A 
INPUT-LIGAND-PDBQT: ATOM     28  C   UNL     1      -2.489   1.935   3.306  1.00  0.00     0.000 A 
INPUT-LIGAND-PDBQT: ATOM     29  C   UNL     1      -3.079   0.005   4.640  1.00  0.00     0.000 A 
INPUT-LIGAND-PDBQT: ATOM     30  C   UNL     1      -2.999   1.391   4.487  1.00  0.00     0.000 A 
INPUT-LIGAND-PDBQT: ENDBRANCH  22  25
INPUT-LIGAND-PDBQT: BRANCH  23  31
INPUT-LIGAND-PDBQT: ATOM     31  O   UNL     1      -3.126  -4.254   0.107  1.00  0.00    -0.391 OA
INPUT-LIGAND-PDBQT: ATOM     32  H   UNL     1      -3.283  -5.134   0.541  1.00  0.00     0.211 HD
INPUT-LIGAND-PDBQT: ENDBRANCH  23  31
INPUT-LIGAND-PDBQT: ENDBRANCH   1  20
INPUT-LIGAND-PDBQT: TORSDOF 7


    FINAL DOCKED STATE:
    ________________________


Run:   1 / 20
Time taken for this run:   0.042s

DOCKED: MODEL        1
DOCKED: USER    Run = 1
DOCKED: USER
DOCKED: USER    Estimated Free Energy of Binding    =  -8.57 kcal/mol  [=(1)+(2)+(3)-(4)]
DOCKED: USER
DOCKED: USER    (1) Final Intermolecular Energy     = -10.66 kcal/mol
DOCKED: USER        vdW + Hbond + desolv Energy     = -10.43 kcal/mol
DOCKED: USER        Electrostatic Energy            =  -0.23 kcal/mol
DOCKED: USER        Moving Ligand-Fixed Receptor    = -10.66 kcal/mol
DOCKED: USER        Moving Ligand-Moving Receptor   =  +0.00 kcal/mol
DOCKED: USER    (2) Final Total Internal Energy     =  -1.71 kcal/mol
DOCKED: USER    (3) Torsional Free Energy           =  +2.09 kcal/mol
DOCKED: USER    (4) Unbound System's Energy         =  -1.71 kcal/mol
DOCKED: USER
DOCKED: USER
DOCKED: REMARK SMILES O=C(N/C=C(/O)N1C[C@H](O)C[C@H]1c1ccccc1)c1ccc2cc(Cl)ccc2n1
DOCKED: REMARK SMILES IDX 5 1 6 2 4 4 3 5 2 6 1 8 19 9 29 10 20 11 28 12 21 13 27 14
DOCKED: REMARK SMILES IDX 22 15 26 16 23 17 24 18 25 19 7 20 8 21 12 22 9 23 11 24
DOCKED: REMARK SMILES IDX 13 25 14 26 18 27 15 28 17 29 16 30 10 31
DOCKED: REMARK H PARENT 6 3 3 7 10 32
DOCKED: USER                              x       y       z     vdW  Elec       q    Type
DOCKED: USER                           _______ _______ _______ _____ _____    ______ ____
DOCKED: ROOT
DOCKED: ATOM      1  C   UNL     1     140.824  75.997 220.968 -0.22 -0.07    +0.204 C  
DOCKED: ENDROOT
DOCKED: BRANCH   1   2
DOCKED: ATOM      2  O   UNL     1     141.101  76.738 222.116 -0.17 +0.20    -0.494 OA 
DOCKED: ATOM      3  H   UNL     1     142.035  76.800 222.504 -0.37 -0.26    +0.295 HD 
DOCKED: ENDBRANCH   1   2
DOCKED: BRANCH   1   4
DOCKED: ATOM      4  C   UNL     1     139.912  75.014 221.009 -0.19 -0.03    +0.152 C  
DOCKED: BRANCH   4   5
DOCKED: ATOM      5  N   UNL     1     139.886  74.038 222.061 -0.13 +0.03    -0.322 N  
DOCKED: ATOM      6  C   UNL     1     140.101  72.642 221.805 -0.19 -0.04    +0.273 C  
DOCKED: ATOM      7  H   UNL     1     139.764  74.356 223.048 -0.36 +0.02    +0.169 HD 
DOCKED: ATOM      8  O   UNL     1     140.320  72.246 220.627 -0.07 +0.04    -0.267 OA 
DOCKED: BRANCH   6   9
DOCKED: ATOM      9  C   UNL     1     140.056  71.661 222.912 -0.28 -0.02    +0.129 A  
DOCKED: ATOM     10  N   UNL     1     140.560  71.998 224.132 -0.21 +0.03    -0.243 NA 
DOCKED: ATOM     11  C   UNL     1     139.495  70.385 222.728 -0.22 -0.01    +0.035 A  
DOCKED: ATOM     12  C   UNL     1     140.541  71.141 225.187 -0.50 -0.01    +0.071 A  
DOCKED: ATOM     13  C   UNL     1     139.463  69.482 223.793 -0.25 -0.00    +0.013 A  
DOCKED: ATOM     14  C   UNL     1     141.071  71.533 226.421 -0.68 -0.00    +0.030 A  
DOCKED: ATOM     15  C   UNL     1     139.986  69.852 225.037 -0.42 -0.00    +0.002 A  
DOCKED: ATOM     16  C   UNL     1     141.051  70.649 227.504 -0.63 -0.00    +0.023 A  
DOCKED: ATOM     17  C   UNL     1     139.969  68.970 226.128 -0.50 -0.00    +0.030 A  
DOCKED: ATOM     18  C   UNL     1     140.501  69.370 227.359 -0.57 -0.01    +0.041 A  
DOCKED: ATOM     19  Cl  UNL     1     140.479  68.268 228.723 -0.56 +0.02    -0.084 Cl 
DOCKED: ENDBRANCH   6   9
DOCKED: ENDBRANCH   4   5
DOCKED: ENDBRANCH   1   4
DOCKED: BRANCH   1  20
DOCKED: ATOM     20  N   UNL     1     141.537  76.307 219.762 -0.08 +0.14    -0.332 N  
DOCKED: ATOM     21  C   UNL     1     141.871  77.669 219.388 -0.22 -0.09    +0.152 C  
DOCKED: ATOM     22  C   UNL     1     142.187  75.305 218.926 -0.15 -0.05    +0.118 C  
DOCKED: ATOM     23  C   UNL     1     142.889  77.551 218.252 -0.25 -0.10    +0.136 C  
DOCKED: ATOM     24  C   UNL     1     142.827  76.094 217.780 -0.21 -0.03    +0.063 C  
DOCKED: BRANCH  22  25
DOCKED: ATOM     25  C   UNL     1     143.217  74.518 219.714 -0.31 +0.01    -0.025 A  
DOCKED: ATOM     26  C   UNL     1     142.967  73.175 220.044 -0.25 -0.00    +0.006 A  
DOCKED: ATOM     27  C   UNL     1     144.440  75.101 220.100 -0.35 -0.00    +0.006 A  
DOCKED: ATOM     28  C   UNL     1     143.914  72.434 220.758 -0.35 -0.00    +0.000 A  
DOCKED: ATOM     29  C   UNL     1     145.383  74.355 220.814 -0.52 -0.00    +0.000 A  
DOCKED: ATOM     30  C   UNL     1     145.120  73.024 221.144 -0.55 -0.00    +0.000 A  
DOCKED: ENDBRANCH  22  25
DOCKED: BRANCH  23  31
DOCKED: ATOM     31  O   UNL     1     142.579  78.423 217.198 -0.16 +0.37    -0.391 OA 
DOCKED: ATOM     32  H   UNL     1     143.378  78.998 217.064 -0.49 -0.37    +0.211 HD 
DOCKED: ENDBRANCH  23  31
DOCKED: ENDBRANCH   1  20
DOCKED: TORSDOF 7
DOCKED: TER
DOCKED: ENDMDL
________________________________________________________________________________


    FINAL DOCKED STATE:
    ________________________


Run:   2 / 20
Time taken for this run:   0.042s

DOCKED: MODEL        2
DOCKED: USER    Run = 2
DOCKED: USER
DOCKED: USER    Estimated Free Energy of Binding    =  -6.97 kcal/mol  [=(1)+(2)+(3)-(4)]
DOCKED: USER
DOCKED: USER    (1) Final Intermolecular Energy     =  -9.05 kcal/mol
DOCKED: USER        vdW + Hbond + desolv Energy     =  -8.99 kcal/mol
DOCKED: USER        Electrostatic Energy            =  -0.06 kcal/mol
DOCKED: USER        Moving Ligand-Fixed Receptor    =  -9.05 kcal/mol
DOCKED: USER        Moving Ligand-Moving Receptor   =  +0.00 kcal/mol
DOCKED: USER    (2) Final Total Internal Energy     =  -2.34 kcal/mol
DOCKED: USER    (3) Torsional Free Energy           =  +2.09 kcal/mol
DOCKED: USER    (4) Unbound System's Energy         =  -2.34 kcal/mol
DOCKED: USER
DOCKED: USER
DOCKED: REMARK SMILES O=C(N/C=C(/O)N1C[C@H](O)C[C@H]1c1ccccc1)c1ccc2cc(Cl)ccc2n1
DOCKED: REMARK SMILES IDX 5 1 6 2 4 4 3 5 2 6 1 8 19 9 29 10 20 11 28 12 21 13 27 14
DOCKED: REMARK SMILES IDX 22 15 26 16 23 17 24 18 25 19 7 20 8 21 12 22 9 23 11 24
DOCKED: REMARK SMILES IDX 13 25 14 26 18 27 15 28 17 29 16 30 10 31
DOCKED: REMARK H PARENT 6 3 3 7 10 32
DOCKED: USER                              x       y       z     vdW  Elec       q    Type
DOCKED: USER                           _______ _______ _______ _____ _____    ______ ____
DOCKED: ROOT
DOCKED: ATOM      1  C   UNL     1     140.826  76.070 220.424 -0.16 -0.07    +0.204 C  
DOCKED: ENDROOT
DOCKED: BRANCH   1   2
DOCKED: ATOM      2  O   UNL     1     139.710  76.150 219.590 +0.02 +0.14    -0.494 OA 
DOCKED: ATOM      3  H   UNL     1     139.007  75.421 219.561 +0.04 -0.07    +0.295 HD 
DOCKED: ENDBRANCH   1   2
DOCKED: BRANCH   1   4
DOCKED: ATOM      4  C   UNL     1     141.571  74.955 220.440 -0.21 -0.05    +0.152 C  
DOCKED: BRANCH   4   5
DOCKED: ATOM      5  N   UNL     1     141.361  73.908 221.398 -0.14 +0.04    -0.322 N  
DOCKED: ATOM      6  C   UNL     1     140.076  73.298 221.587 -0.18 -0.04    +0.273 C  
DOCKED: ATOM      7  H   UNL     1     142.177  73.538 221.936 +0.08 +0.00    +0.169 HD 
DOCKED: ATOM      8  O   UNL     1     139.092  73.682 220.897 -0.09 +0.05    -0.267 OA 
DOCKED: BRANCH   6   9
DOCKED: ATOM      9  C   UNL     1     139.893  72.228 222.594 -0.27 -0.02    +0.129 A  
DOCKED: ATOM     10  N   UNL     1     140.596  72.274 223.759 -0.21 +0.02    -0.243 NA 
DOCKED: ATOM     11  C   UNL     1     139.001  71.166 222.369 -0.20 -0.01    +0.035 A  
DOCKED: ATOM     12  C   UNL     1     140.467  71.323 224.723 -0.45 -0.01    +0.071 A  
DOCKED: ATOM     13  C   UNL     1     138.846  70.174 223.339 -0.25 -0.00    +0.013 A  
DOCKED: ATOM     14  C   UNL     1     141.210  71.414 225.904 -0.60 -0.00    +0.030 A  
DOCKED: ATOM     15  C   UNL     1     139.579  70.242 224.529 -0.39 -0.00    +0.002 A  
DOCKED: ATOM     16  C   UNL     1     141.075  70.434 226.893 -0.58 -0.00    +0.023 A  
DOCKED: ATOM     17  C   UNL     1     139.448  69.263 225.526 -0.42 -0.00    +0.030 A  
DOCKED: ATOM     18  C   UNL     1     140.196  69.361 226.705 -0.52 -0.01    +0.041 A  
DOCKED: ATOM     19  Cl  UNL     1     140.031  68.137 227.951 -0.63 +0.02    -0.084 Cl 
DOCKED: ENDBRANCH   6   9
DOCKED: ENDBRANCH   4   5
DOCKED: ENDBRANCH   1   4
DOCKED: BRANCH   1  20
DOCKED: ATOM     20  N   UNL     1     141.144  77.195 221.255 -0.14 +0.15    -0.332 N  
DOCKED: ATOM     21  C   UNL     1     141.777  78.391 220.730 -0.25 -0.09    +0.152 C  
DOCKED: ATOM     22  C   UNL     1     140.669  77.349 222.625 -0.33 -0.04    +0.118 C  
DOCKED: ATOM     23  C   UNL     1     141.641  79.449 221.828 -0.37 -0.06    +0.136 C  
DOCKED: ATOM     24  C   UNL     1     141.236  78.692 223.097 -0.51 -0.02    +0.063 C  
DOCKED: BRANCH  22  25
DOCKED: ATOM     25  C   UNL     1     139.154  77.324 222.686 -0.28 +0.00    -0.025 A  
DOCKED: ATOM     26  C   UNL     1     138.476  76.092 222.714 -0.29 -0.00    +0.006 A  
DOCKED: ATOM     27  C   UNL     1     138.407  78.516 222.745 -0.27 -0.00    +0.006 A  
DOCKED: ATOM     28  C   UNL     1     137.081  76.054 222.783 -0.27 -0.00    +0.000 A  
DOCKED: ATOM     29  C   UNL     1     137.011  78.472 222.815 -0.19 -0.00    +0.000 A  
DOCKED: ATOM     30  C   UNL     1     136.348  77.242 222.833 -0.20 -0.00    +0.000 A  
DOCKED: ENDBRANCH  22  25
DOCKED: BRANCH  23  31
DOCKED: ATOM     31  O   UNL     1     142.849  80.133 222.027 -0.26 +0.18    -0.391 OA 
DOCKED: ATOM     32  H   UNL     1     143.568  79.447 222.007 -0.45 -0.18    +0.211 HD 
DOCKED: ENDBRANCH  23  31
DOCKED: ENDBRANCH   1  20
DOCKED: TORSDOF 7
DOCKED: TER
DOCKED: ENDMDL
________________________________________________________________________________


    FINAL DOCKED STATE:
    ________________________


Run:   3 / 20
Time taken for this run:   0.042s

DOCKED: MODEL        3
DOCKED: USER    Run = 3
DOCKED: USER
DOCKED: USER    Estimated Free Energy of Binding    =  -7.26 kcal/mol  [=(1)+(2)+(3)-(4)]
DOCKED: USER
DOCKED: USER    (1) Final Intermolecular Energy     =  -9.35 kcal/mol
DOCKED: USER        vdW + Hbond + desolv Energy     =  -9.28 kcal/mol
DOCKED: USER        Electrostatic Energy            =  -0.06 kcal/mol
DOCKED: USER        Moving Ligand-Fixed Receptor    =  -9.35 kcal/mol
DOCKED: USER        Moving Ligand-Moving Receptor   =  +0.00 kcal/mol
DOCKED: USER    (2) Final Total Internal Energy     =  -2.19 kcal/mol
DOCKED: USER    (3) Torsional Free Energy           =  +2.09 kcal/mol
DOCKED: USER    (4) Unbound System's Energy         =  -2.19 kcal/mol
DOCKED: USER
DOCKED: USER
DOCKED: REMARK SMILES O=C(N/C=C(/O)N1C[C@H](O)C[C@H]1c1ccccc1)c1ccc2cc(Cl)ccc2n1
DOCKED: REMARK SMILES IDX 5 1 6 2 4 4 3 5 2 6 1 8 19 9 29 10 20 11 28 12 21 13 27 14
DOCKED: REMARK SMILES IDX 22 15 26 16 23 17 24 18 25 19 7 20 8 21 12 22 9 23 11 24
DOCKED: REMARK SMILES IDX 13 25 14 26 18 27 15 28 17 29 16 30 10 31
DOCKED: REMARK H PARENT 6 3 3 7 10 32
DOCKED: USER                              x       y       z     vdW  Elec       q    Type
DOCKED: USER                           _______ _______ _______ _____ _____    ______ ____
DOCKED: ROOT
DOCKED: ATOM      1  C   UNL     1     139.888  74.853 219.992 -0.07 -0.05    +0.204 C  
DOCKED: ENDROOT
DOCKED: BRANCH   1   2
DOCKED: ATOM      2  O   UNL     1     139.786  73.905 218.973 +0.01 +0.11    -0.494 OA 
DOCKED: ATOM      3  H   UNL     1     139.656  72.919 219.168 +0.04 -0.06    +0.295 HD 
DOCKED: ENDBRANCH   1   2
DOCKED: BRANCH   1   4
DOCKED: ATOM      4  C   UNL     1     139.062  74.793 221.047 -0.15 -0.03    +0.152 C  
DOCKED: BRANCH   4   5
DOCKED: ATOM      5  N   UNL     1     139.245  73.847 222.110 -0.12 +0.07    -0.322 N  
DOCKED: ATOM      6  C   UNL     1     139.454  72.450 221.853 -0.16 -0.05    +0.273 C  
DOCKED: ATOM      7  H   UNL     1     139.285  74.188 223.095 -0.54 -0.05    +0.169 HD 
DOCKED: ATOM      8  O   UNL     1     139.479  72.026 220.665 -0.05 +0.05    -0.267 OA 
DOCKED: BRANCH   6   9
DOCKED: ATOM      9  C   UNL     1     139.628  71.499 222.974 -0.27 -0.02    +0.129 A  
DOCKED: ATOM     10  N   UNL     1     140.164  71.934 224.149 -0.24 +0.05    -0.243 NA 
DOCKED: ATOM     11  C   UNL     1     139.244  70.153 222.850 -0.21 -0.01    +0.035 A  
DOCKED: ATOM     12  C   UNL     1     140.343  71.109 225.214 -0.49 -0.01    +0.071 A  
DOCKED: ATOM     13  C   UNL     1     139.416  69.280 223.926 -0.26 -0.00    +0.013 A  
DOCKED: ATOM     14  C   UNL     1     140.898  71.602 226.400 -0.66 -0.00    +0.030 A  
DOCKED: ATOM     15  C   UNL     1     139.969  69.750 225.123 -0.42 -0.00    +0.002 A  
DOCKED: ATOM     16  C   UNL     1     141.081  70.750 227.494 -0.63 -0.00    +0.023 A  
DOCKED: ATOM     17  C   UNL     1     140.155  68.902 226.224 -0.52 -0.01    +0.030 A  
DOCKED: ATOM     18  C   UNL     1     140.711  69.403 227.407 -0.57 -0.01    +0.041 A  
DOCKED: ATOM     19  Cl  UNL     1     140.943  68.342 228.784 -0.62 +0.02    -0.084 Cl 
DOCKED: ENDBRANCH   6   9
DOCKED: ENDBRANCH   4   5
DOCKED: ENDBRANCH   1   4
DOCKED: BRANCH   1  20
DOCKED: ATOM     20  N   UNL     1     140.883  75.880 219.876 -0.04 +0.11    -0.332 N  
DOCKED: ATOM     21  C   UNL     1     140.810  77.117 220.632 -0.19 -0.06    +0.152 C  
DOCKED: ATOM     22  C   UNL     1     142.155  75.700 219.188 -0.19 -0.05    +0.118 C  
DOCKED: ATOM     23  C   UNL     1     142.184  77.774 220.487 -0.14 -0.10    +0.136 C  
DOCKED: ATOM     24  C   UNL     1     142.886  77.038 219.340 -0.30 -0.04    +0.063 C  
DOCKED: BRANCH  22  25
DOCKED: ATOM     25  C   UNL     1     142.946  74.554 219.789 -0.29 +0.01    -0.025 A  
DOCKED: ATOM     26  C   UNL     1     142.426  73.248 219.745 -0.18 -0.00    +0.006 A  
DOCKED: ATOM     27  C   UNL     1     144.212  74.766 220.368 -0.41 -0.00    +0.006 A  
DOCKED: ATOM     28  C   UNL     1     143.150  72.180 220.283 -0.26 -0.00    +0.000 A  
DOCKED: ATOM     29  C   UNL     1     144.932  73.694 220.904 -0.55 -0.00    +0.000 A  
DOCKED: ATOM     30  C   UNL     1     144.401  72.403 220.863 -0.39 -0.00    +0.000 A  
DOCKED: ENDBRANCH  22  25
DOCKED: BRANCH  23  31
DOCKED: ATOM     31  O   UNL     1     142.066  79.141 220.194 -0.12 +0.26    -0.391 OA 
DOCKED: ATOM     32  H   UNL     1     142.684  79.616 220.811 -0.27 -0.16    +0.211 HD 
DOCKED: ENDBRANCH  23  31
DOCKED: ENDBRANCH   1  20
DOCKED: TORSDOF 7
DOCKED: TER
DOCKED: ENDMDL
________________________________________________________________________________


    FINAL DOCKED STATE:
    ________________________


Run:   4 / 20
Time taken for this run:   0.042s

DOCKED: MODEL        4
DOCKED: USER    Run = 4
DOCKED: USER
DOCKED: USER    Estimated Free Energy of Binding    =  -8.57 kcal/mol  [=(1)+(2)+(3)-(4)]
DOCKED: USER
DOCKED: USER    (1) Final Intermolecular Energy     = -10.66 kcal/mol
DOCKED: USER        vdW + Hbond + desolv Energy     = -10.43 kcal/mol
DOCKED: USER        Electrostatic Energy            =  -0.23 kcal/mol
DOCKED: USER        Moving Ligand-Fixed Receptor    = -10.66 kcal/mol
DOCKED: USER        Moving Ligand-Moving Receptor   =  +0.00 kcal/mol
DOCKED: USER    (2) Final Total Internal Energy     =  -1.70 kcal/mol
DOCKED: USER    (3) Torsional Free Energy           =  +2.09 kcal/mol
DOCKED: USER    (4) Unbound System's Energy         =  -1.70 kcal/mol
DOCKED: USER
DOCKED: USER
DOCKED: REMARK SMILES O=C(N/C=C(/O)N1C[C@H](O)C[C@H]1c1ccccc1)c1ccc2cc(Cl)ccc2n1
DOCKED: REMARK SMILES IDX 5 1 6 2 4 4 3 5 2 6 1 8 19 9 29 10 20 11 28 12 21 13 27 14
DOCKED: REMARK SMILES IDX 22 15 26 16 23 17 24 18 25 19 7 20 8 21 12 22 9 23 11 24
DOCKED: REMARK SMILES IDX 13 25 14 26 18 27 15 28 17 29 16 30 10 31
DOCKED: REMARK H PARENT 6 3 3 7 10 32
DOCKED: USER                              x       y       z     vdW  Elec       q    Type
DOCKED: USER                           _______ _______ _______ _____ _____    ______ ____
DOCKED: ROOT
DOCKED: ATOM      1  C   UNL     1     140.834  75.993 220.968 -0.22 -0.07    +0.204 C  
DOCKED: ENDROOT
DOCKED: BRANCH   1   2
DOCKED: ATOM      2  O   UNL     1     141.090  76.736 222.121 -0.17 +0.20    -0.494 OA 
DOCKED: ATOM      3  H   UNL     1     142.032  76.885 222.466 -0.37 -0.26    +0.295 HD 
DOCKED: ENDBRANCH   1   2
DOCKED: BRANCH   1   4
DOCKED: ATOM      4  C   UNL     1     139.937  74.997 221.000 -0.19 -0.03    +0.152 C  
DOCKED: BRANCH   4   5
DOCKED: ATOM      5  N   UNL     1     139.914  74.022 222.052 -0.14 +0.03    -0.322 N  
DOCKED: ATOM      6  C   UNL     1     140.133  72.626 221.799 -0.18 -0.04    +0.273 C  
DOCKED: ATOM      7  H   UNL     1     139.791  74.340 223.039 -0.34 +0.03    +0.169 HD 
DOCKED: ATOM      8  O   UNL     1     140.353  72.229 220.621 -0.07 +0.04    -0.267 OA 
DOCKED: BRANCH   6   9
DOCKED: ATOM      9  C   UNL     1     140.090  71.647 222.908 -0.28 -0.02    +0.129 A  
DOCKED: ATOM     10  N   UNL     1     140.585  71.990 224.129 -0.21 +0.03    -0.243 NA 
DOCKED: ATOM     11  C   UNL     1     139.541  70.366 222.723 -0.21 -0.01    +0.035 A  
DOCKED: ATOM     12  C   UNL     1     140.568  71.135 225.185 -0.50 -0.01    +0.071 A  
DOCKED: ATOM     13  C   UNL     1     139.511  69.464 223.788 -0.25 -0.00    +0.013 A  
DOCKED: ATOM     14  C   UNL     1     141.088  71.533 226.421 -0.68 -0.00    +0.030 A  
DOCKED: ATOM     15  C   UNL     1     140.025  69.840 225.034 -0.42 -0.00    +0.002 A  
DOCKED: ATOM     16  C   UNL     1     141.070  70.651 227.506 -0.63 -0.00    +0.023 A  
DOCKED: ATOM     17  C   UNL     1     140.009  68.960 226.127 -0.51 -0.01    +0.030 A  
DOCKED: ATOM     18  C   UNL     1     140.532  69.367 227.360 -0.57 -0.01    +0.041 A  
DOCKED: ATOM     19  Cl  UNL     1     140.511  68.266 228.726 -0.57 +0.02    -0.084 Cl 
DOCKED: ENDBRANCH   6   9
DOCKED: ENDBRANCH   4   5
DOCKED: ENDBRANCH   1   4
DOCKED: BRANCH   1  20
DOCKED: ATOM     20  N   UNL     1     141.550  76.319 219.768 -0.08 +0.15    -0.332 N  
DOCKED: ATOM     21  C   UNL     1     141.884  77.686 219.412 -0.22 -0.09    +0.152 C  
DOCKED: ATOM     22  C   UNL     1     142.204  75.328 218.922 -0.16 -0.05    +0.118 C  
DOCKED: ATOM     23  C   UNL     1     142.906  77.582 218.278 -0.25 -0.10    +0.136 C  
DOCKED: ATOM     24  C   UNL     1     142.847  76.132 217.788 -0.21 -0.03    +0.063 C  
DOCKED: BRANCH  22  25
DOCKED: ATOM     25  C   UNL     1     143.232  74.532 219.704 -0.31 +0.01    -0.025 A  
DOCKED: ATOM     26  C   UNL     1     142.986  73.182 220.010 -0.25 -0.00    +0.006 A  
DOCKED: ATOM     27  C   UNL     1     144.450  75.113 220.107 -0.34 -0.00    +0.006 A  
DOCKED: ATOM     28  C   UNL     1     143.930  72.434 220.718 -0.35 -0.00    +0.000 A  
DOCKED: ATOM     29  C   UNL     1     145.391  74.360 220.815 -0.52 -0.00    +0.000 A  
DOCKED: ATOM     30  C   UNL     1     145.131  73.022 221.121 -0.55 -0.00    +0.000 A  
DOCKED: ENDBRANCH  22  25
DOCKED: BRANCH  23  31
DOCKED: ATOM     31  O   UNL     1     142.598  78.467 217.234 -0.17 +0.38    -0.391 OA 
DOCKED: ATOM     32  H   UNL     1     143.414  79.014 217.079 -0.50 -0.38    +0.211 HD 
DOCKED: ENDBRANCH  23  31
DOCKED: ENDBRANCH   1  20
DOCKED: TORSDOF 7
DOCKED: TER
DOCKED: ENDMDL
________________________________________________________________________________


    FINAL DOCKED STATE:
    ________________________


Run:   5 / 20
Time taken for this run:   0.042s

DOCKED: MODEL        5
DOCKED: USER    Run = 5
DOCKED: USER
DOCKED: USER    Estimated Free Energy of Binding    =  -8.61 kcal/mol  [=(1)+(2)+(3)-(4)]
DOCKED: USER
DOCKED: USER    (1) Final Intermolecular Energy     = -10.70 kcal/mol
DOCKED: USER        vdW + Hbond + desolv Energy     = -10.45 kcal/mol
DOCKED: USER        Electrostatic Energy            =  -0.25 kcal/mol
DOCKED: USER        Moving Ligand-Fixed Receptor    = -10.70 kcal/mol
DOCKED: USER        Moving Ligand-Moving Receptor   =  +0.00 kcal/mol
DOCKED: USER    (2) Final Total Internal Energy     =  -1.66 kcal/mol
DOCKED: USER    (3) Torsional Free Energy           =  +2.09 kcal/mol
DOCKED: USER    (4) Unbound System's Energy         =  -1.66 kcal/mol
DOCKED: USER
DOCKED: USER
DOCKED: REMARK SMILES O=C(N/C=C(/O)N1C[C@H](O)C[C@H]1c1ccccc1)c1ccc2cc(Cl)ccc2n1
DOCKED: REMARK SMILES IDX 5 1 6 2 4 4 3 5 2 6 1 8 19 9 29 10 20 11 28 12 21 13 27 14
DOCKED: REMARK SMILES IDX 22 15 26 16 23 17 24 18 25 19 7 20 8 21 12 22 9 23 11 24
DOCKED: REMARK SMILES IDX 13 25 14 26 18 27 15 28 17 29 16 30 10 31
DOCKED: REMARK H PARENT 6 3 3 7 10 32
DOCKED: USER                              x       y       z     vdW  Elec       q    Type
DOCKED: USER                           _______ _______ _______ _____ _____    ______ ____
DOCKED: ROOT
DOCKED: ATOM      1  C   UNL     1     140.794  75.998 220.957 -0.21 -0.07    +0.204 C  
DOCKED: ENDROOT
DOCKED: BRANCH   1   2
DOCKED: ATOM      2  O   UNL     1     141.079  76.718 222.118 -0.18 +0.20    -0.494 OA 
DOCKED: ATOM      3  H   UNL     1     142.029  76.883 222.429 -0.37 -0.26    +0.295 HD 
DOCKED: ENDBRANCH   1   2
DOCKED: BRANCH   1   4
DOCKED: ATOM      4  C   UNL     1     139.883  75.015 220.986 -0.19 -0.03    +0.152 C  
DOCKED: BRANCH   4   5
DOCKED: ATOM      5  N   UNL     1     139.838  74.044 222.041 -0.14 +0.04    -0.322 N  
DOCKED: ATOM      6  C   UNL     1     140.098  72.652 221.802 -0.18 -0.04    +0.273 C  
DOCKED: ATOM      7  H   UNL     1     139.668  74.362 223.021 -0.42 +0.01    +0.169 HD 
DOCKED: ATOM      8  O   UNL     1     140.375  72.257 220.636 -0.08 +0.04    -0.267 OA 
DOCKED: BRANCH   6   9
DOCKED: ATOM      9  C   UNL     1     140.032  71.675 222.912 -0.28 -0.02    +0.129 A  
DOCKED: ATOM     10  N   UNL     1     140.568  71.994 224.123 -0.21 +0.03    -0.243 NA 
DOCKED: ATOM     11  C   UNL     1     139.418  70.422 222.740 -0.22 -0.01    +0.035 A  
DOCKED: ATOM     12  C   UNL     1     140.533  71.141 225.180 -0.50 -0.01    +0.071 A  
DOCKED: ATOM     13  C   UNL     1     139.367  69.523 223.807 -0.27 -0.00    +0.013 A  
DOCKED: ATOM     14  C   UNL     1     141.097  71.514 226.405 -0.68 -0.00    +0.030 A  
DOCKED: ATOM     15  C   UNL     1     139.925  69.873 225.041 -0.42 -0.00    +0.002 A  
DOCKED: ATOM     16  C   UNL     1     141.059  70.633 227.490 -0.62 -0.00    +0.023 A  
DOCKED: ATOM     17  C   UNL     1     139.890  68.995 226.134 -0.50 -0.00    +0.030 A  
DOCKED: ATOM     18  C   UNL     1     140.457  69.376 227.356 -0.57 -0.01    +0.041 A  
DOCKED: ATOM     19  Cl  UNL     1     140.413  68.277 228.723 -0.54 +0.02    -0.084 Cl 
DOCKED: ENDBRANCH   6   9
DOCKED: ENDBRANCH   4   5
DOCKED: ENDBRANCH   1   4
DOCKED: BRANCH   1  20
DOCKED: ATOM     20  N   UNL     1     141.499  76.333 219.753 -0.08 +0.14    -0.332 N  
DOCKED: ATOM     21  C   UNL     1     141.832  77.702 219.406 -0.22 -0.09    +0.152 C  
DOCKED: ATOM     22  C   UNL     1     142.141  75.347 218.891 -0.15 -0.05    +0.118 C  
DOCKED: ATOM     23  C   UNL     1     142.842  77.606 218.260 -0.25 -0.10    +0.136 C  
DOCKED: ATOM     24  C   UNL     1     142.774  76.159 217.757 -0.21 -0.03    +0.063 C  
DOCKED: BRANCH  22  25
DOCKED: ATOM     25  C   UNL     1     143.175  74.543 219.655 -0.30 +0.01    -0.025 A  
DOCKED: ATOM     26  C   UNL     1     142.955  73.176 219.902 -0.24 -0.00    +0.006 A  
DOCKED: ATOM     27  C   UNL     1     144.374  75.132 220.100 -0.36 -0.00    +0.006 A  
DOCKED: ATOM     28  C   UNL     1     143.906  72.420 220.594 -0.35 -0.00    +0.000 A  
DOCKED: ATOM     29  C   UNL     1     145.322  74.371 220.791 -0.51 -0.00    +0.000 A  
DOCKED: ATOM     30  C   UNL     1     145.088  73.017 221.038 -0.55 -0.00    +0.000 A  
DOCKED: ENDBRANCH  22  25
DOCKED: BRANCH  23  31
DOCKED: ATOM     31  O   UNL     1     142.525  78.500 217.227 -0.16 +0.37    -0.391 OA 
DOCKED: ATOM     32  H   UNL     1     143.351  79.022 217.044 -0.50 -0.37    +0.211 HD 
DOCKED: ENDBRANCH  23  31
DOCKED: ENDBRANCH   1  20
DOCKED: TORSDOF 7
DOCKED: TER
DOCKED: ENDMDL
________________________________________________________________________________


    FINAL DOCKED STATE:
    ________________________


Run:   6 / 20
Time taken for this run:   0.042s

DOCKED: MODEL        6
DOCKED: USER    Run = 6
DOCKED: USER
DOCKED: USER    Estimated Free Energy of Binding    =  -7.26 kcal/mol  [=(1)+(2)+(3)-(4)]
DOCKED: USER
DOCKED: USER    (1) Final Intermolecular Energy     =  -9.35 kcal/mol
DOCKED: USER        vdW + Hbond + desolv Energy     =  -9.24 kcal/mol
DOCKED: USER        Electrostatic Energy            =  -0.11 kcal/mol
DOCKED: USER        Moving Ligand-Fixed Receptor    =  -9.35 kcal/mol
DOCKED: USER        Moving Ligand-Moving Receptor   =  +0.00 kcal/mol
DOCKED: USER    (2) Final Total Internal Energy     =  -2.14 kcal/mol
DOCKED: USER    (3) Torsional Free Energy           =  +2.09 kcal/mol
DOCKED: USER    (4) Unbound System's Energy         =  -2.14 kcal/mol
DOCKED: USER
DOCKED: USER
DOCKED: REMARK SMILES O=C(N/C=C(/O)N1C[C@H](O)C[C@H]1c1ccccc1)c1ccc2cc(Cl)ccc2n1
DOCKED: REMARK SMILES IDX 5 1 6 2 4 4 3 5 2 6 1 8 19 9 29 10 20 11 28 12 21 13 27 14
DOCKED: REMARK SMILES IDX 22 15 26 16 23 17 24 18 25 19 7 20 8 21 12 22 9 23 11 24
DOCKED: REMARK SMILES IDX 13 25 14 26 18 27 15 28 17 29 16 30 10 31
DOCKED: REMARK H PARENT 6 3 3 7 10 32
DOCKED: USER                              x       y       z     vdW  Elec       q    Type
DOCKED: USER                           _______ _______ _______ _____ _____    ______ ____
DOCKED: ROOT
DOCKED: ATOM      1  C   UNL     1     140.980  74.546 219.446 -0.07 -0.05    +0.204 C  
DOCKED: ENDROOT
DOCKED: BRANCH   1   2
DOCKED: ATOM      2  O   UNL     1     140.716  73.318 218.839 +0.02 +0.10    -0.494 OA 
DOCKED: ATOM      3  H   UNL     1     140.011  72.683 219.194 +0.04 -0.06    +0.295 HD 
DOCKED: ENDBRANCH   1   2
DOCKED: BRANCH   1   4
DOCKED: ATOM      4  C   UNL     1     140.447  74.828 220.645 -0.17 -0.04    +0.152 C  
DOCKED: BRANCH   4   5
DOCKED: ATOM      5  N   UNL     1     140.466  73.889 221.730 -0.17 +0.03    -0.322 N  
DOCKED: ATOM      6  C   UNL     1     139.741  72.651 221.674 -0.16 -0.05    +0.273 C  
DOCKED: ATOM      7  H   UNL     1     141.068  74.081 222.561 +0.07 +0.05    +0.169 HD 
DOCKED: ATOM      8  O   UNL     1     139.062  72.367 220.649 -0.04 +0.05    -0.267 OA 
DOCKED: BRANCH   6   9
DOCKED: ATOM      9  C   UNL     1     139.773  71.711 222.817 -0.27 -0.02    +0.129 A  
DOCKED: ATOM     10  N   UNL     1     140.359  72.091 223.986 -0.24 +0.03    -0.243 NA 
DOCKED: ATOM     11  C   UNL     1     139.202  70.430 222.719 -0.21 -0.01    +0.035 A  
DOCKED: ATOM     12  C   UNL     1     140.415  71.273 225.070 -0.48 -0.01    +0.071 A  
DOCKED: ATOM     13  C   UNL     1     139.243  69.567 223.815 -0.28 -0.00    +0.013 A  
DOCKED: ATOM     14  C   UNL     1     141.028  71.709 226.249 -0.65 -0.00    +0.030 A  
DOCKED: ATOM     15  C   UNL     1     139.851  69.980 225.005 -0.42 -0.00    +0.002 A  
DOCKED: ATOM     16  C   UNL     1     141.084  70.865 227.362 -0.65 -0.00    +0.023 A  
DOCKED: ATOM     17  C   UNL     1     139.910  69.139 226.126 -0.49 -0.00    +0.030 A  
DOCKED: ATOM     18  C   UNL     1     140.526  69.583 227.302 -0.56 -0.01    +0.041 A  
DOCKED: ATOM     19  Cl  UNL     1     140.599  68.530 228.704 -0.70 +0.02    -0.084 Cl 
DOCKED: ENDBRANCH   6   9
DOCKED: ENDBRANCH   4   5
DOCKED: ENDBRANCH   1   4
DOCKED: BRANCH   1  20
DOCKED: ATOM     20  N   UNL     1     141.819  75.486 218.760 -0.03 +0.12    -0.332 N  
DOCKED: ATOM     21  C   UNL     1     141.702  76.918 218.959 -0.17 -0.07    +0.152 C  
DOCKED: ATOM     22  C   UNL     1     142.998  75.105 217.990 -0.15 -0.05    +0.118 C  
DOCKED: ATOM     23  C   UNL     1     142.955  77.529 218.327 -0.25 -0.10    +0.136 C  
DOCKED: ATOM     24  C   UNL     1     143.576  76.424 217.467 -0.18 -0.04    +0.063 C  
DOCKED: BRANCH  22  25
DOCKED: ATOM     25  C   UNL     1     143.995  74.354 218.852 -0.24 +0.01    -0.025 A  
DOCKED: ATOM     26  C   UNL     1     144.579  73.169 218.371 -0.21 -0.00    +0.006 A  
DOCKED: ATOM     27  C   UNL     1     144.373  74.837 220.119 -0.43 -0.00    +0.006 A  
DOCKED: ATOM     28  C   UNL     1     145.510  72.473 219.149 -0.33 +0.00    +0.000 A  
DOCKED: ATOM     29  C   UNL     1     145.305  74.138 220.893 -0.56 -0.00    +0.000 A  
DOCKED: ATOM     30  C   UNL     1     145.872  72.956 220.408 -0.59 +0.00    +0.000 A  
DOCKED: ENDBRANCH  22  25
DOCKED: BRANCH  23  31
DOCKED: ATOM     31  O   UNL     1     142.634  78.644 217.539 -0.19 +0.38    -0.391 OA 
DOCKED: ATOM     32  H   UNL     1     143.485  78.951 217.126 -0.47 -0.38    +0.211 HD 
DOCKED: ENDBRANCH  23  31
DOCKED: ENDBRANCH   1  20
DOCKED: TORSDOF 7
DOCKED: TER
DOCKED: ENDMDL
________________________________________________________________________________


    FINAL DOCKED STATE:
    ________________________


Run:   7 / 20
Time taken for this run:   0.042s

DOCKED: MODEL        7
DOCKED: USER    Run = 7
DOCKED: USER
DOCKED: USER    Estimated Free Energy of Binding    =  -8.55 kcal/mol  [=(1)+(2)+(3)-(4)]
DOCKED: USER
DOCKED: USER    (1) Final Intermolecular Energy     = -10.64 kcal/mol
DOCKED: USER        vdW + Hbond + desolv Energy     = -10.39 kcal/mol
DOCKED: USER        Electrostatic Energy            =  -0.25 kcal/mol
DOCKED: USER        Moving Ligand-Fixed Receptor    = -10.64 kcal/mol
DOCKED: USER        Moving Ligand-Moving Receptor   =  +0.00 kcal/mol
DOCKED: USER    (2) Final Total Internal Energy     =  -1.67 kcal/mol
DOCKED: USER    (3) Torsional Free Energy           =  +2.09 kcal/mol
DOCKED: USER    (4) Unbound System's Energy         =  -1.67 kcal/mol
DOCKED: USER
DOCKED: USER
DOCKED: REMARK SMILES O=C(N/C=C(/O)N1C[C@H](O)C[C@H]1c1ccccc1)c1ccc2cc(Cl)ccc2n1
DOCKED: REMARK SMILES IDX 5 1 6 2 4 4 3 5 2 6 1 8 19 9 29 10 20 11 28 12 21 13 27 14
DOCKED: REMARK SMILES IDX 22 15 26 16 23 17 24 18 25 19 7 20 8 21 12 22 9 23 11 24
DOCKED: REMARK SMILES IDX 13 25 14 26 18 27 15 28 17 29 16 30 10 31
DOCKED: REMARK H PARENT 6 3 3 7 10 32
DOCKED: USER                              x       y       z     vdW  Elec       q    Type
DOCKED: USER                           _______ _______ _______ _____ _____    ______ ____
DOCKED: ROOT
DOCKED: ATOM      1  C   UNL     1     140.819  76.019 220.924 -0.21 -0.07    +0.204 C  
DOCKED: ENDROOT
DOCKED: BRANCH   1   2
DOCKED: ATOM      2  O   UNL     1     141.140  76.731 222.080 -0.15 +0.21    -0.494 OA 
DOCKED: ATOM      3  H   UNL     1     142.084  76.763 222.447 -0.38 -0.28    +0.295 HD 
DOCKED: ENDBRANCH   1   2
DOCKED: BRANCH   1   4
DOCKED: ATOM      4  C   UNL     1     139.886  75.056 220.968 -0.19 -0.03    +0.152 C  
DOCKED: BRANCH   4   5
DOCKED: ATOM      5  N   UNL     1     139.839  74.085 222.024 -0.15 +0.04    -0.322 N  
DOCKED: ATOM      6  C   UNL     1     140.102  72.694 221.787 -0.18 -0.04    +0.273 C  
DOCKED: ATOM      7  H   UNL     1     139.664  74.404 223.003 -0.41 +0.00    +0.169 HD 
DOCKED: ATOM      8  O   UNL     1     140.385  72.298 220.623 -0.08 +0.04    -0.267 OA 
DOCKED: BRANCH   6   9
DOCKED: ATOM      9  C   UNL     1     140.033  71.718 222.898 -0.28 -0.02    +0.129 A  
DOCKED: ATOM     10  N   UNL     1     140.563  72.039 224.110 -0.20 +0.03    -0.243 NA 
DOCKED: ATOM     11  C   UNL     1     139.423  70.464 222.723 -0.22 -0.01    +0.035 A  
DOCKED: ATOM     12  C   UNL     1     140.524  71.186 225.168 -0.50 -0.01    +0.071 A  
DOCKED: ATOM     13  C   UNL     1     139.368  69.565 223.790 -0.27 -0.00    +0.013 A  
DOCKED: ATOM     14  C   UNL     1     141.082  71.560 226.395 -0.68 -0.00    +0.030 A  
DOCKED: ATOM     15  C   UNL     1     139.919  69.917 225.027 -0.42 -0.00    +0.002 A  
DOCKED: ATOM     16  C   UNL     1     141.042  70.680 227.480 -0.63 -0.00    +0.023 A  
DOCKED: ATOM     17  C   UNL     1     139.882  69.039 226.121 -0.49 -0.00    +0.030 A  
DOCKED: ATOM     18  C   UNL     1     140.442  69.422 227.345 -0.57 -0.01    +0.041 A  
DOCKED: ATOM     19  Cl  UNL     1     140.394  68.324 228.712 -0.56 +0.02    -0.084 Cl 
DOCKED: ENDBRANCH   6   9
DOCKED: ENDBRANCH   4   5
DOCKED: ENDBRANCH   1   4
DOCKED: BRANCH   1  20
DOCKED: ATOM     20  N   UNL     1     141.509  76.339 219.707 -0.08 +0.14    -0.332 N  
DOCKED: ATOM     21  C   UNL     1     141.874  77.699 219.359 -0.22 -0.09    +0.152 C  
DOCKED: ATOM     22  C   UNL     1     142.107  75.339 218.830 -0.14 -0.04    +0.118 C  
DOCKED: ATOM     23  C   UNL     1     142.858  77.580 218.193 -0.25 -0.10    +0.136 C  
DOCKED: ATOM     24  C   UNL     1     142.740  76.138 217.687 -0.20 -0.03    +0.063 C  
DOCKED: BRANCH  22  25
DOCKED: ATOM     25  C   UNL     1     143.133  74.503 219.571 -0.29 +0.01    -0.025 A  
DOCKED: ATOM     26  C   UNL     1     144.280  75.116 220.104 -0.38 -0.00    +0.006 A  
DOCKED: ATOM     27  C   UNL     1     142.945  73.121 219.763 -0.22 -0.00    +0.006 A  
DOCKED: ATOM     28  C   UNL     1     145.227  74.360 220.800 -0.50 -0.00    +0.000 A  
DOCKED: ATOM     29  C   UNL     1     143.896  72.369 220.460 -0.35 -0.00    +0.000 A  
DOCKED: ATOM     30  C   UNL     1     145.036  72.988 220.978 -0.53 -0.00    +0.000 A  
DOCKED: ENDBRANCH  22  25
DOCKED: BRANCH  23  31
DOCKED: ATOM     31  O   UNL     1     142.547  78.487 217.170 -0.16 +0.38    -0.391 OA 
DOCKED: ATOM     32  H   UNL     1     143.349  79.062 217.049 -0.50 -0.38    +0.211 HD 
DOCKED: ENDBRANCH  23  31
DOCKED: ENDBRANCH   1  20
DOCKED: TORSDOF 7
DOCKED: TER
DOCKED: ENDMDL
________________________________________________________________________________


    FINAL DOCKED STATE:
    ________________________


Run:   8 / 20
Time taken for this run:   0.042s

DOCKED: MODEL        8
DOCKED: USER    Run = 8
DOCKED: USER
DOCKED: USER    Estimated Free Energy of Binding    =  -7.37 kcal/mol  [=(1)+(2)+(3)-(4)]
DOCKED: USER
DOCKED: USER    (1) Final Intermolecular Energy     =  -9.46 kcal/mol
DOCKED: USER        vdW + Hbond + desolv Energy     =  -9.37 kcal/mol
DOCKED: USER        Electrostatic Energy            =  -0.10 kcal/mol
DOCKED: USER        Moving Ligand-Fixed Receptor    =  -9.46 kcal/mol
DOCKED: USER        Moving Ligand-Moving Receptor   =  +0.00 kcal/mol
DOCKED: USER    (2) Final Total Internal Energy     =  -1.83 kcal/mol
DOCKED: USER    (3) Torsional Free Energy           =  +2.09 kcal/mol
DOCKED: USER    (4) Unbound System's Energy         =  -1.83 kcal/mol
DOCKED: USER
DOCKED: USER
DOCKED: REMARK SMILES O=C(N/C=C(/O)N1C[C@H](O)C[C@H]1c1ccccc1)c1ccc2cc(Cl)ccc2n1
DOCKED: REMARK SMILES IDX 5 1 6 2 4 4 3 5 2 6 1 8 19 9 29 10 20 11 28 12 21 13 27 14
DOCKED: REMARK SMILES IDX 22 15 26 16 23 17 24 18 25 19 7 20 8 21 12 22 9 23 11 24
DOCKED: REMARK SMILES IDX 13 25 14 26 18 27 15 28 17 29 16 30 10 31
DOCKED: REMARK H PARENT 6 3 3 7 10 32
DOCKED: USER                              x       y       z     vdW  Elec       q    Type
DOCKED: USER                           _______ _______ _______ _____ _____    ______ ____
DOCKED: ROOT
DOCKED: ATOM      1  C   UNL     1     140.503  76.019 220.705 -0.17 -0.06    +0.204 C  
DOCKED: ENDROOT
DOCKED: BRANCH   1   2
DOCKED: ATOM      2  O   UNL     1     140.295  76.857 221.801 -0.12 +0.14    -0.494 OA 
DOCKED: ATOM      3  H   UNL     1     139.585  77.580 221.797 +0.12 -0.07    +0.295 HD 
DOCKED: ENDBRANCH   1   2
DOCKED: BRANCH   1   4
DOCKED: ATOM      4  C   UNL     1     139.908  74.818 220.658 -0.15 -0.03    +0.152 C  
DOCKED: BRANCH   4   5
DOCKED: ATOM      5  N   UNL     1     139.960  73.895 221.756 -0.16 +0.04    -0.322 N  
DOCKED: ATOM      6  C   UNL     1     139.847  72.478 221.561 -0.16 -0.05    +0.273 C  
DOCKED: ATOM      7  H   UNL     1     140.142  74.258 222.718 -0.07 +0.03    +0.169 HD 
DOCKED: ATOM      8  O   UNL     1     139.697  72.014 220.397 -0.04 +0.05    -0.267 OA 
DOCKED: BRANCH   6   9
DOCKED: ATOM      9  C   UNL     1     139.893  71.555 222.718 -0.26 -0.02    +0.129 A  
DOCKED: ATOM     10  N   UNL     1     140.404  71.988 223.903 -0.26 +0.03    -0.243 NA 
DOCKED: ATOM     11  C   UNL     1     139.411  70.239 222.615 -0.20 -0.01    +0.035 A  
DOCKED: ATOM     12  C   UNL     1     140.468  71.188 225.001 -0.48 -0.01    +0.071 A  
DOCKED: ATOM     13  C   UNL     1     139.464  69.393 223.725 -0.24 -0.00    +0.013 A  
DOCKED: ATOM     14  C   UNL     1     141.002  71.678 226.198 -0.64 -0.00    +0.030 A  
DOCKED: ATOM     15  C   UNL     1     139.993  69.860 224.933 -0.41 -0.00    +0.002 A  
DOCKED: ATOM     16  C   UNL     1     141.067  70.852 227.325 -0.65 -0.00    +0.023 A  
DOCKED: ATOM     17  C   UNL     1     140.061  69.038 226.068 -0.50 -0.01    +0.030 A  
DOCKED: ATOM     18  C   UNL     1     140.597  69.535 227.261 -0.56 -0.01    +0.041 A  
DOCKED: ATOM     19  Cl  UNL     1     140.679  68.507 228.679 -0.72 +0.02    -0.084 Cl 
DOCKED: ENDBRANCH   6   9
DOCKED: ENDBRANCH   4   5
DOCKED: ENDBRANCH   1   4
DOCKED: BRANCH   1  20
DOCKED: ATOM     20  N   UNL     1     141.363  76.471 219.649 -0.07 +0.14    -0.332 N  
DOCKED: ATOM     21  C   UNL     1     141.792  77.853 219.538 -0.22 -0.09    +0.152 C  
DOCKED: ATOM     22  C   UNL     1     142.065  75.575 218.738 -0.14 -0.05    +0.118 C  
DOCKED: ATOM     23  C   UNL     1     142.930  77.854 218.515 -0.20 -0.11    +0.136 C  
DOCKED: ATOM     24  C   UNL     1     142.866  76.494 217.810 -0.24 -0.04    +0.063 C  
DOCKED: BRANCH  22  25
DOCKED: ATOM     25  C   UNL     1     142.965  74.617 219.497 -0.27 +0.01    -0.025 A  
DOCKED: ATOM     26  C   UNL     1     144.164  75.085 220.062 -0.41 -0.00    +0.006 A  
DOCKED: ATOM     27  C   UNL     1     142.607  73.267 219.674 -0.19 -0.00    +0.006 A  
DOCKED: ATOM     28  C   UNL     1     144.996  74.216 220.775 -0.51 -0.00    +0.000 A  
DOCKED: ATOM     29  C   UNL     1     143.442  72.403 220.388 -0.30 -0.00    +0.000 A  
DOCKED: ATOM     30  C   UNL     1     144.636  72.877 220.937 -0.44 -0.00    +0.000 A  
DOCKED: ENDBRANCH  22  25
DOCKED: BRANCH  23  31
DOCKED: ATOM     31  O   UNL     1     142.779  78.896 217.588 -0.20 +0.42    -0.391 OA 
DOCKED: ATOM     32  H   UNL     1     143.689  79.102 217.245 -0.50 -0.42    +0.211 HD 
DOCKED: ENDBRANCH  23  31
DOCKED: ENDBRANCH   1  20
DOCKED: TORSDOF 7
DOCKED: TER
DOCKED: ENDMDL
________________________________________________________________________________


    FINAL DOCKED STATE:
    ________________________


Run:   9 / 20
Time taken for this run:   0.042s

DOCKED: MODEL        9
DOCKED: USER    Run = 9
DOCKED: USER
DOCKED: USER    Estimated Free Energy of Binding    =  -8.56 kcal/mol  [=(1)+(2)+(3)-(4)]
DOCKED: USER
DOCKED: USER    (1) Final Intermolecular Energy     = -10.65 kcal/mol
DOCKED: USER        vdW + Hbond + desolv Energy     = -10.40 kcal/mol
DOCKED: USER        Electrostatic Energy            =  -0.25 kcal/mol
DOCKED: USER        Moving Ligand-Fixed Receptor    = -10.65 kcal/mol
DOCKED: USER        Moving Ligand-Moving Receptor   =  +0.00 kcal/mol
DOCKED: USER    (2) Final Total Internal Energy     =  -1.68 kcal/mol
DOCKED: USER    (3) Torsional Free Energy           =  +2.09 kcal/mol
DOCKED: USER    (4) Unbound System's Energy         =  -1.68 kcal/mol
DOCKED: USER
DOCKED: USER
DOCKED: REMARK SMILES O=C(N/C=C(/O)N1C[C@H](O)C[C@H]1c1ccccc1)c1ccc2cc(Cl)ccc2n1
DOCKED: REMARK SMILES IDX 5 1 6 2 4 4 3 5 2 6 1 8 19 9 29 10 20 11 28 12 21 13 27 14
DOCKED: REMARK SMILES IDX 22 15 26 16 23 17 24 18 25 19 7 20 8 21 12 22 9 23 11 24
DOCKED: REMARK SMILES IDX 13 25 14 26 18 27 15 28 17 29 16 30 10 31
DOCKED: REMARK H PARENT 6 3 3 7 10 32
DOCKED: USER                              x       y       z     vdW  Elec       q    Type
DOCKED: USER                           _______ _______ _______ _____ _____    ______ ____
DOCKED: ROOT
DOCKED: ATOM      1  C   UNL     1     140.806  76.000 220.943 -0.21 -0.07    +0.204 C  
DOCKED: ENDROOT
DOCKED: BRANCH   1   2
DOCKED: ATOM      2  O   UNL     1     141.107  76.710 222.106 -0.17 +0.20    -0.494 OA 
DOCKED: ATOM      3  H   UNL     1     142.056  76.801 222.450 -0.38 -0.27    +0.295 HD 
DOCKED: ENDBRANCH   1   2
DOCKED: BRANCH   1   4
DOCKED: ATOM      4  C   UNL     1     139.896  75.016 220.978 -0.19 -0.03    +0.152 C  
DOCKED: BRANCH   4   5
DOCKED: ATOM      5  N   UNL     1     139.860  74.043 222.033 -0.15 +0.04    -0.322 N  
DOCKED: ATOM      6  C   UNL     1     140.127  72.654 221.793 -0.18 -0.04    +0.273 C  
DOCKED: ATOM      7  H   UNL     1     139.691  74.361 223.013 -0.39 +0.01    +0.169 HD 
DOCKED: ATOM      8  O   UNL     1     140.403  72.260 220.626 -0.08 +0.04    -0.267 OA 
DOCKED: BRANCH   6   9
DOCKED: ATOM      9  C   UNL     1     140.070  71.676 222.902 -0.28 -0.02    +0.129 A  
DOCKED: ATOM     10  N   UNL     1     140.588  72.006 224.118 -0.21 +0.03    -0.243 NA 
DOCKED: ATOM     11  C   UNL     1     139.484  70.411 222.725 -0.22 -0.01    +0.035 A  
DOCKED: ATOM     12  C   UNL     1     140.560  71.152 225.175 -0.50 -0.01    +0.071 A  
DOCKED: ATOM     13  C   UNL     1     139.440  69.511 223.791 -0.26 -0.00    +0.013 A  
DOCKED: ATOM     14  C   UNL     1     141.105  71.536 226.404 -0.68 -0.00    +0.030 A  
DOCKED: ATOM     15  C   UNL     1     139.979  69.873 225.031 -0.42 -0.00    +0.002 A  
DOCKED: ATOM     16  C   UNL     1     141.075  70.655 227.490 -0.63 -0.00    +0.023 A  
DOCKED: ATOM     17  C   UNL     1     139.952  68.994 226.124 -0.50 -0.00    +0.030 A  
DOCKED: ATOM     18  C   UNL     1     140.499  69.387 227.351 -0.57 -0.01    +0.041 A  
DOCKED: ATOM     19  Cl  UNL     1     140.464  68.288 228.717 -0.57 +0.02    -0.084 Cl 
DOCKED: ENDBRANCH   6   9
DOCKED: ENDBRANCH   4   5
DOCKED: ENDBRANCH   1   4
DOCKED: BRANCH   1  20
DOCKED: ATOM     20  N   UNL     1     141.491  76.346 219.731 -0.08 +0.14    -0.332 N  
DOCKED: ATOM     21  C   UNL     1     141.837  77.716 219.401 -0.22 -0.09    +0.152 C  
DOCKED: ATOM     22  C   UNL     1     142.103  75.366 218.841 -0.14 -0.04    +0.118 C  
DOCKED: ATOM     23  C   UNL     1     142.823  77.625 218.234 -0.25 -0.10    +0.136 C  
DOCKED: ATOM     24  C   UNL     1     142.725  76.189 217.708 -0.20 -0.03    +0.063 C  
DOCKED: BRANCH  22  25
DOCKED: ATOM     25  C   UNL     1     143.140  74.534 219.571 -0.29 +0.01    -0.025 A  
DOCKED: ATOM     26  C   UNL     1     144.289  75.153 220.095 -0.38 -0.00    +0.006 A  
DOCKED: ATOM     27  C   UNL     1     142.962  73.151 219.762 -0.22 -0.00    +0.006 A  
DOCKED: ATOM     28  C   UNL     1     145.246  74.401 220.782 -0.49 -0.00    +0.000 A  
DOCKED: ATOM     29  C   UNL     1     143.923  72.403 220.449 -0.35 -0.00    +0.000 A  
DOCKED: ATOM     30  C   UNL     1     145.065  73.028 220.958 -0.55 -0.00    +0.000 A  
DOCKED: ENDBRANCH  22  25
DOCKED: BRANCH  23  31
DOCKED: ATOM     31  O   UNL     1     142.499  78.541 217.222 -0.16 +0.37    -0.391 OA 
DOCKED: ATOM     32  H   UNL     1     143.326  79.060 217.037 -0.50 -0.37    +0.211 HD 
DOCKED: ENDBRANCH  23  31
DOCKED: ENDBRANCH   1  20
DOCKED: TORSDOF 7
DOCKED: TER
DOCKED: ENDMDL
________________________________________________________________________________


    FINAL DOCKED STATE:
    ________________________


Run:   10 / 20
Time taken for this run:   0.042s

DOCKED: MODEL        10
DOCKED: USER    Run = 10
DOCKED: USER
DOCKED: USER    Estimated Free Energy of Binding    =  -7.39 kcal/mol  [=(1)+(2)+(3)-(4)]
DOCKED: USER
DOCKED: USER    (1) Final Intermolecular Energy     =  -9.48 kcal/mol
DOCKED: USER        vdW + Hbond + desolv Energy     =  -9.37 kcal/mol
DOCKED: USER        Electrostatic Energy            =  -0.11 kcal/mol
DOCKED: USER        Moving Ligand-Fixed Receptor    =  -9.48 kcal/mol
DOCKED: USER        Moving Ligand-Moving Receptor   =  +0.00 kcal/mol
DOCKED: USER    (2) Final Total Internal Energy     =  -1.87 kcal/mol
DOCKED: USER    (3) Torsional Free Energy           =  +2.09 kcal/mol
DOCKED: USER    (4) Unbound System's Energy         =  -1.87 kcal/mol
DOCKED: USER
DOCKED: USER
DOCKED: REMARK SMILES O=C(N/C=C(/O)N1C[C@H](O)C[C@H]1c1ccccc1)c1ccc2cc(Cl)ccc2n1
DOCKED: REMARK SMILES IDX 5 1 6 2 4 4 3 5 2 6 1 8 19 9 29 10 20 11 28 12 21 13 27 14
DOCKED: REMARK SMILES IDX 22 15 26 16 23 17 24 18 25 19 7 20 8 21 12 22 9 23 11 24
DOCKED: REMARK SMILES IDX 13 25 14 26 18 27 15 28 17 29 16 30 10 31
DOCKED: REMARK H PARENT 6 3 3 7 10 32
DOCKED: USER                              x       y       z     vdW  Elec       q    Type
DOCKED: USER                           _______ _______ _______ _____ _____    ______ ____
DOCKED: ROOT
DOCKED: ATOM      1  C   UNL     1     140.895  74.884 220.025 -0.11 -0.06    +0.204 C  
DOCKED: ENDROOT
DOCKED: BRANCH   1   2
DOCKED: ATOM      2  O   UNL     1     140.180  75.469 221.070 -0.10 +0.12    -0.494 OA 
DOCKED: ATOM      3  H   UNL     1     139.448  74.974 221.565 +0.08 -0.06    +0.295 HD 
DOCKED: ENDBRANCH   1   2
DOCKED: BRANCH   1   4
DOCKED: ATOM      4  C   UNL     1     140.805  73.563 219.811 -0.08 -0.03    +0.152 C  
DOCKED: BRANCH   4   5
DOCKED: ATOM      5  N   UNL     1     140.827  72.610 220.884 -0.09 +0.05    -0.322 N  
DOCKED: ATOM      6  C   UNL     1     139.806  72.581 221.893 -0.18 -0.05    +0.273 C  
DOCKED: ATOM      7  H   UNL     1     141.574  71.881 220.903 +0.05 -0.02    +0.169 HD 
DOCKED: ATOM      8  O   UNL     1     138.856  73.410 221.848 -0.19 +0.07    -0.267 OA 
DOCKED: BRANCH   6   9
DOCKED: ATOM      9  C   UNL     1     139.867  71.592 222.992 -0.28 -0.02    +0.129 A  
DOCKED: ATOM     10  N   UNL     1     140.394  71.954 224.195 -0.25 +0.04    -0.243 NA 
DOCKED: ATOM     11  C   UNL     1     139.384  70.284 222.819 -0.21 -0.01    +0.035 A  
DOCKED: ATOM     12  C   UNL     1     140.472  71.091 225.242 -0.50 -0.01    +0.071 A  
DOCKED: ATOM     13  C   UNL     1     139.450  69.374 223.876 -0.26 -0.00    +0.013 A  
DOCKED: ATOM     14  C   UNL     1     141.021  71.509 226.459 -0.68 -0.00    +0.030 A  
DOCKED: ATOM     15  C   UNL     1     139.996  69.769 225.102 -0.42 -0.00    +0.002 A  
DOCKED: ATOM     16  C   UNL     1     141.100  70.619 227.534 -0.60 -0.00    +0.023 A  
DOCKED: ATOM     17  C   UNL     1     140.078  68.881 226.185 -0.52 -0.01    +0.030 A  
DOCKED: ATOM     18  C   UNL     1     140.629  69.308 227.399 -0.58 -0.01    +0.041 A  
DOCKED: ATOM     19  Cl  UNL     1     140.730  68.198 228.753 -0.62 +0.02    -0.084 Cl 
DOCKED: ENDBRANCH   6   9
DOCKED: ENDBRANCH   4   5
DOCKED: ENDBRANCH   1   4
DOCKED: BRANCH   1  20
DOCKED: ATOM     20  N   UNL     1     141.719  75.722 219.203 -0.05 +0.13    -0.332 N  
DOCKED: ATOM     21  C   UNL     1     141.778  77.162 219.378 -0.20 -0.08    +0.152 C  
DOCKED: ATOM     22  C   UNL     1     142.732  75.212 218.287 -0.15 -0.05    +0.118 C  
DOCKED: ATOM     23  C   UNL     1     142.984  77.631 218.561 -0.20 -0.10    +0.136 C  
DOCKED: ATOM     24  C   UNL     1     143.362  76.456 217.653 -0.24 -0.04    +0.063 C  
DOCKED: BRANCH  22  25
DOCKED: ATOM     25  C   UNL     1     143.760  74.370 219.020 -0.26 +0.01    -0.025 A  
DOCKED: ATOM     26  C   UNL     1     144.406  74.890 220.156 -0.42 -0.00    +0.006 A  
DOCKED: ATOM     27  C   UNL     1     144.062  73.060 218.602 -0.18 -0.00    +0.006 A  
DOCKED: ATOM     28  C   UNL     1     145.346  74.121 220.848 -0.60 -0.00    +0.000 A  
DOCKED: ATOM     29  C   UNL     1     145.002  72.295 219.299 -0.32 +0.00    +0.000 A  
DOCKED: ATOM     30  C   UNL     1     145.644  72.825 220.420 -0.56 +0.00    +0.000 A  
DOCKED: ENDBRANCH  22  25
DOCKED: BRANCH  23  31
DOCKED: ATOM     31  O   UNL     1     142.670  78.763 217.796 -0.20 +0.37    -0.391 OA 
DOCKED: ATOM     32  H   UNL     1     143.505  79.025 217.324 -0.45 -0.36    +0.211 HD 
DOCKED: ENDBRANCH  23  31
DOCKED: ENDBRANCH   1  20
DOCKED: TORSDOF 7
DOCKED: TER
DOCKED: ENDMDL
________________________________________________________________________________


    FINAL DOCKED STATE:
    ________________________


Run:   11 / 20
Time taken for this run:   0.042s

DOCKED: MODEL        11
DOCKED: USER    Run = 11
DOCKED: USER
DOCKED: USER    Estimated Free Energy of Binding    =  -7.93 kcal/mol  [=(1)+(2)+(3)-(4)]
DOCKED: USER
DOCKED: USER    (1) Final Intermolecular Energy     = -10.02 kcal/mol
DOCKED: USER        vdW + Hbond + desolv Energy     =  -9.94 kcal/mol
DOCKED: USER        Electrostatic Energy            =  -0.08 kcal/mol
DOCKED: USER        Moving Ligand-Fixed Receptor    = -10.02 kcal/mol
DOCKED: USER        Moving Ligand-Moving Receptor   =  +0.00 kcal/mol
DOCKED: USER    (2) Final Total Internal Energy     =  -1.85 kcal/mol
DOCKED: USER    (3) Torsional Free Energy           =  +2.09 kcal/mol
DOCKED: USER    (4) Unbound System's Energy         =  -1.85 kcal/mol
DOCKED: USER
DOCKED: USER
DOCKED: REMARK SMILES O=C(N/C=C(/O)N1C[C@H](O)C[C@H]1c1ccccc1)c1ccc2cc(Cl)ccc2n1
DOCKED: REMARK SMILES IDX 5 1 6 2 4 4 3 5 2 6 1 8 19 9 29 10 20 11 28 12 21 13 27 14
DOCKED: REMARK SMILES IDX 22 15 26 16 23 17 24 18 25 19 7 20 8 21 12 22 9 23 11 24
DOCKED: REMARK SMILES IDX 13 25 14 26 18 27 15 28 17 29 16 30 10 31
DOCKED: REMARK H PARENT 6 3 3 7 10 32
DOCKED: USER                              x       y       z     vdW  Elec       q    Type
DOCKED: USER                           _______ _______ _______ _____ _____    ______ ____
DOCKED: ROOT
DOCKED: ATOM      1  C   UNL     1     141.261  74.757 220.176 -0.14 -0.06    +0.204 C  
DOCKED: ENDROOT
DOCKED: BRANCH   1   2
DOCKED: ATOM      2  O   UNL     1     140.939  75.431 221.355 -0.19 +0.13    -0.494 OA 
DOCKED: ATOM      3  H   UNL     1     140.174  75.136 221.951 +0.10 -0.04    +0.295 HD 
DOCKED: ENDBRANCH   1   2
DOCKED: BRANCH   1   4
DOCKED: ATOM      4  C   UNL     1     140.832  73.501 219.985 -0.10 -0.03    +0.152 C  
DOCKED: BRANCH   4   5
DOCKED: ATOM      5  N   UNL     1     140.817  72.528 221.040 -0.10 +0.05    -0.322 N  
DOCKED: ATOM      6  C   UNL     1     140.046  72.718 222.236 -0.20 -0.04    +0.273 C  
DOCKED: ATOM      7  H   UNL     1     141.335  71.631 220.913 +0.05 -0.02    +0.169 HD 
DOCKED: ATOM      8  O   UNL     1     139.356  73.765 222.378 -0.65 +0.06    -0.267 OA 
DOCKED: BRANCH   6   9
DOCKED: ATOM      9  C   UNL     1     140.063  71.699 223.309 -0.31 -0.02    +0.129 A  
DOCKED: ATOM     10  N   UNL     1     140.545  72.026 224.540 -0.15 +0.03    -0.243 NA 
DOCKED: ATOM     11  C   UNL     1     139.585  70.397 223.081 -0.25 -0.01    +0.035 A  
DOCKED: ATOM     12  C   UNL     1     140.582  71.135 225.566 -0.53 -0.01    +0.071 A  
DOCKED: ATOM     13  C   UNL     1     139.610  69.459 224.115 -0.27 -0.00    +0.013 A  
DOCKED: ATOM     14  C   UNL     1     141.086  71.518 226.813 -0.71 -0.00    +0.030 A  
DOCKED: ATOM     15  C   UNL     1     140.110  69.818 225.371 -0.45 -0.00    +0.002 A  
DOCKED: ATOM     16  C   UNL     1     141.123  70.598 227.866 -0.60 -0.00    +0.023 A  
DOCKED: ATOM     17  C   UNL     1     140.149  68.901 226.432 -0.54 -0.01    +0.030 A  
DOCKED: ATOM     18  C   UNL     1     140.655  69.293 227.677 -0.59 -0.01    +0.041 A  
DOCKED: ATOM     19  Cl  UNL     1     140.703  68.145 229.003 -0.41 +0.02    -0.084 Cl 
DOCKED: ENDBRANCH   6   9
DOCKED: ENDBRANCH   4   5
DOCKED: ENDBRANCH   1   4
DOCKED: BRANCH   1  20
DOCKED: ATOM     20  N   UNL     1     142.056  75.435 219.194 -0.06 +0.13    -0.332 N  
DOCKED: ATOM     21  C   UNL     1     142.102  76.883 219.099 -0.22 -0.08    +0.152 C  
DOCKED: ATOM     22  C   UNL     1     143.053  74.772 218.362 -0.15 -0.04    +0.118 C  
DOCKED: ATOM     23  C   UNL     1     143.284  77.202 218.180 -0.14 -0.10    +0.136 C  
DOCKED: ATOM     24  C   UNL     1     143.654  75.882 217.494 -0.19 -0.04    +0.063 C  
DOCKED: BRANCH  22  25
DOCKED: ATOM     25  C   UNL     1     144.108  74.088 219.212 -0.29 +0.01    -0.025 A  
DOCKED: ATOM     26  C   UNL     1     144.619  72.838 218.819 -0.25 +0.00    +0.006 A  
DOCKED: ATOM     27  C   UNL     1     144.610  74.695 220.379 -0.42 -0.00    +0.006 A  
DOCKED: ATOM     28  C   UNL     1     145.601  72.203 219.585 -0.38 +0.00    +0.000 A  
DOCKED: ATOM     29  C   UNL     1     145.592  74.055 221.142 -0.56 -0.00    +0.000 A  
DOCKED: ATOM     30  C   UNL     1     146.086  72.810 220.746 -0.57 +0.00    +0.000 A  
DOCKED: ENDBRANCH  22  25
DOCKED: BRANCH  23  31
DOCKED: ATOM     31  O   UNL     1     142.939  78.172 217.227 -0.19 +0.40    -0.391 OA 
DOCKED: ATOM     32  H   UNL     1     143.745  78.739 217.099 -0.47 -0.40    +0.211 HD 
DOCKED: ENDBRANCH  23  31
DOCKED: ENDBRANCH   1  20
DOCKED: TORSDOF 7
DOCKED: TER
DOCKED: ENDMDL
________________________________________________________________________________


    FINAL DOCKED STATE:
    ________________________


Run:   12 / 20
Time taken for this run:   0.042s

DOCKED: MODEL        12
DOCKED: USER    Run = 12
DOCKED: USER
DOCKED: USER    Estimated Free Energy of Binding    =  -7.56 kcal/mol  [=(1)+(2)+(3)-(4)]
DOCKED: USER
DOCKED: USER    (1) Final Intermolecular Energy     =  -9.65 kcal/mol
DOCKED: USER        vdW + Hbond + desolv Energy     =  -9.65 kcal/mol
DOCKED: USER        Electrostatic Energy            =  +0.00 kcal/mol
DOCKED: USER        Moving Ligand-Fixed Receptor    =  -9.65 kcal/mol
DOCKED: USER        Moving Ligand-Moving Receptor   =  +0.00 kcal/mol
DOCKED: USER    (2) Final Total Internal Energy     =  -1.37 kcal/mol
DOCKED: USER    (3) Torsional Free Energy           =  +2.09 kcal/mol
DOCKED: USER    (4) Unbound System's Energy         =  -1.37 kcal/mol
DOCKED: USER
DOCKED: USER
DOCKED: REMARK SMILES O=C(N/C=C(/O)N1C[C@H](O)C[C@H]1c1ccccc1)c1ccc2cc(Cl)ccc2n1
DOCKED: REMARK SMILES IDX 5 1 6 2 4 4 3 5 2 6 1 8 19 9 29 10 20 11 28 12 21 13 27 14
DOCKED: REMARK SMILES IDX 22 15 26 16 23 17 24 18 25 19 7 20 8 21 12 22 9 23 11 24
DOCKED: REMARK SMILES IDX 13 25 14 26 18 27 15 28 17 29 16 30 10 31
DOCKED: REMARK H PARENT 6 3 3 7 10 32
DOCKED: USER                              x       y       z     vdW  Elec       q    Type
DOCKED: USER                           _______ _______ _______ _____ _____    ______ ____
DOCKED: ROOT
DOCKED: ATOM      1  C   UNL     1     139.964  76.596 221.436 -0.22 -0.05    +0.204 C  
DOCKED: ENDROOT
DOCKED: BRANCH   1   2
DOCKED: ATOM      2  O   UNL     1     139.878  77.135 222.720 -0.14 +0.10    -0.494 OA 
DOCKED: ATOM      3  H   UNL     1     138.990  77.266 223.190 +0.12 -0.04    +0.295 HD 
DOCKED: ENDBRANCH   1   2
DOCKED: BRANCH   1   4
DOCKED: ATOM      4  C   UNL     1     139.571  75.333 221.214 -0.20 -0.03    +0.152 C  
DOCKED: BRANCH   4   5
DOCKED: ATOM      5  N   UNL     1     139.635  74.322 222.230 -0.10 +0.04    -0.322 N  
DOCKED: ATOM      6  C   UNL     1     139.909  72.948 221.917 -0.19 -0.04    +0.273 C  
DOCKED: ATOM      7  H   UNL     1     139.535  74.599 223.232 -0.49 -0.01    +0.169 HD 
DOCKED: ATOM      8  O   UNL     1     140.101  72.604 220.718 -0.08 +0.05    -0.267 OA 
DOCKED: BRANCH   6   9
DOCKED: ATOM      9  C   UNL     1     139.955  71.929 222.989 -0.29 -0.02    +0.129 A  
DOCKED: ATOM     10  N   UNL     1     140.436  72.266 224.217 -0.09 +0.03    -0.243 NA 
DOCKED: ATOM     11  C   UNL     1     139.505  70.617 222.762 -0.23 -0.01    +0.035 A  
DOCKED: ATOM     12  C   UNL     1     140.499  71.374 225.242 -0.49 -0.01    +0.071 A  
DOCKED: ATOM     13  C   UNL     1     139.557  69.678 223.794 -0.27 -0.00    +0.013 A  
DOCKED: ATOM     14  C   UNL     1     141.001  71.768 226.487 -0.69 -0.00    +0.030 A  
DOCKED: ATOM     15  C   UNL     1     140.055  70.048 225.048 -0.43 -0.00    +0.002 A  
DOCKED: ATOM     16  C   UNL     1     141.064  70.848 227.538 -0.66 -0.00    +0.023 A  
DOCKED: ATOM     17  C   UNL     1     140.121  69.131 226.108 -0.50 -0.01    +0.030 A  
DOCKED: ATOM     18  C   UNL     1     140.625  69.532 227.350 -0.57 -0.01    +0.041 A  
DOCKED: ATOM     19  Cl  UNL     1     140.706  68.385 228.675 -0.70 +0.02    -0.084 Cl 
DOCKED: ENDBRANCH   6   9
DOCKED: ENDBRANCH   4   5
DOCKED: ENDBRANCH   1   4
DOCKED: BRANCH   1  20
DOCKED: ATOM     20  N   UNL     1     140.481  77.417 220.379 -0.05 +0.12    -0.332 N  
DOCKED: ATOM     21  C   UNL     1     139.721  77.701 219.176 -0.04 -0.05    +0.152 C  
DOCKED: ATOM     22  C   UNL     1     141.692  78.221 220.499 -0.26 -0.07    +0.118 C  
DOCKED: ATOM     23  C   UNL     1     140.459  78.846 218.479 -0.07 -0.06    +0.136 C  
DOCKED: ATOM     24  C   UNL     1     141.834  78.933 219.150 -0.26 -0.04    +0.063 C  
DOCKED: BRANCH  22  25
DOCKED: ATOM     25  C   UNL     1     141.585  79.206 221.648 -0.39 +0.01    -0.025 A  
DOCKED: ATOM     26  C   UNL     1     142.603  79.263 222.616 -0.52 -0.00    +0.006 A  
DOCKED: ATOM     27  C   UNL     1     140.494  80.090 221.750 -0.29 -0.00    +0.006 A  
DOCKED: ATOM     28  C   UNL     1     142.524  80.175 223.673 -0.66 -0.00    +0.000 A  
DOCKED: ATOM     29  C   UNL     1     140.420  81.001 222.809 -0.39 -0.00    +0.000 A  
DOCKED: ATOM     30  C   UNL     1     141.433  81.042 223.770 -0.54 -0.00    +0.000 A  
DOCKED: ENDBRANCH  22  25
DOCKED: BRANCH  23  31
DOCKED: ATOM     31  O   UNL     1     140.597  78.599 217.105 -0.01 +0.18    -0.391 OA 
DOCKED: ATOM     32  H   UNL     1     140.889  77.653 217.017 +0.03 -0.10    +0.211 HD 
DOCKED: ENDBRANCH  23  31
DOCKED: ENDBRANCH   1  20
DOCKED: TORSDOF 7
DOCKED: TER
DOCKED: ENDMDL
________________________________________________________________________________


    FINAL DOCKED STATE:
    ________________________


Run:   13 / 20
Time taken for this run:   0.042s

DOCKED: MODEL        13
DOCKED: USER    Run = 13
DOCKED: USER
DOCKED: USER    Estimated Free Energy of Binding    =  -7.88 kcal/mol  [=(1)+(2)+(3)-(4)]
DOCKED: USER
DOCKED: USER    (1) Final Intermolecular Energy     =  -9.96 kcal/mol
DOCKED: USER        vdW + Hbond + desolv Energy     =  -9.87 kcal/mol
DOCKED: USER        Electrostatic Energy            =  -0.09 kcal/mol
DOCKED: USER        Moving Ligand-Fixed Receptor    =  -9.96 kcal/mol
DOCKED: USER        Moving Ligand-Moving Receptor   =  +0.00 kcal/mol
DOCKED: USER    (2) Final Total Internal Energy     =  -1.30 kcal/mol
DOCKED: USER    (3) Torsional Free Energy           =  +2.09 kcal/mol
DOCKED: USER    (4) Unbound System's Energy         =  -1.30 kcal/mol
DOCKED: USER
DOCKED: USER
DOCKED: REMARK SMILES O=C(N/C=C(/O)N1C[C@H](O)C[C@H]1c1ccccc1)c1ccc2cc(Cl)ccc2n1
DOCKED: REMARK SMILES IDX 5 1 6 2 4 4 3 5 2 6 1 8 19 9 29 10 20 11 28 12 21 13 27 14
DOCKED: REMARK SMILES IDX 22 15 26 16 23 17 24 18 25 19 7 20 8 21 12 22 9 23 11 24
DOCKED: REMARK SMILES IDX 13 25 14 26 18 27 15 28 17 29 16 30 10 31
DOCKED: REMARK H PARENT 6 3 3 7 10 32
DOCKED: USER                              x       y       z     vdW  Elec       q    Type
DOCKED: USER                           _______ _______ _______ _____ _____    ______ ____
DOCKED: ROOT
DOCKED: ATOM      1  C   UNL     1     139.935  76.349 221.449 -0.22 -0.05    +0.204 C  
DOCKED: ENDROOT
DOCKED: BRANCH   1   2
DOCKED: ATOM      2  O   UNL     1     141.002  76.556 222.323 -0.20 +0.18    -0.494 OA 
DOCKED: ATOM      3  H   UNL     1     141.959  76.353 222.060 -0.44 -0.22    +0.295 HD 
DOCKED: ENDBRANCH   1   2
DOCKED: BRANCH   1   4
DOCKED: ATOM      4  C   UNL     1     139.434  75.115 221.285 -0.20 -0.03    +0.152 C  
DOCKED: BRANCH   4   5
DOCKED: ATOM      5  N   UNL     1     139.544  74.104 222.298 -0.11 +0.05    -0.322 N  
DOCKED: ATOM      6  C   UNL     1     139.747  72.722 221.970 -0.18 -0.05    +0.273 C  
DOCKED: ATOM      7  H   UNL     1     139.534  74.386 223.303 -0.48 -0.01    +0.169 HD 
DOCKED: ATOM      8  O   UNL     1     139.833  72.369 220.761 -0.07 +0.05    -0.267 OA 
DOCKED: BRANCH   6   9
DOCKED: ATOM      9  C   UNL     1     139.845  71.704 223.039 -0.29 -0.02    +0.129 A  
DOCKED: ATOM     10  N   UNL     1     140.338  72.054 224.260 -0.20 +0.04    -0.243 NA 
DOCKED: ATOM     11  C   UNL     1     139.431  70.378 222.819 -0.22 -0.01    +0.035 A  
DOCKED: ATOM     12  C   UNL     1     140.447  71.164 225.281 -0.50 -0.01    +0.071 A  
DOCKED: ATOM     13  C   UNL     1     139.532  69.441 223.849 -0.25 -0.00    +0.013 A  
DOCKED: ATOM     14  C   UNL     1     140.960  71.571 226.518 -0.68 -0.00    +0.030 A  
DOCKED: ATOM     15  C   UNL     1     140.041  69.824 225.094 -0.42 -0.00    +0.002 A  
DOCKED: ATOM     16  C   UNL     1     141.070  70.653 227.566 -0.63 -0.00    +0.023 A  
DOCKED: ATOM     17  C   UNL     1     140.155  68.909 226.151 -0.51 -0.01    +0.030 A  
DOCKED: ATOM     18  C   UNL     1     140.669  69.325 227.385 -0.58 -0.01    +0.041 A  
DOCKED: ATOM     19  Cl  UNL     1     140.810  68.180 228.706 -0.66 +0.02    -0.084 Cl 
DOCKED: ENDBRANCH   6   9
DOCKED: ENDBRANCH   4   5
DOCKED: ENDBRANCH   1   4
DOCKED: BRANCH   1  20
DOCKED: ATOM     20  N   UNL     1     139.401  77.475 220.737 -0.03 +0.09    -0.332 N  
DOCKED: ATOM     21  C   UNL     1     137.976  77.660 220.537 -0.05 -0.03    +0.152 C  
DOCKED: ATOM     22  C   UNL     1     140.193  78.638 220.354 -0.13 -0.04    +0.118 C  
DOCKED: ATOM     23  C   UNL     1     137.809  79.100 220.047 -0.03 -0.03    +0.136 C  
DOCKED: ATOM     24  C   UNL     1     139.209  79.575 219.646 -0.06 -0.02    +0.063 C  
DOCKED: BRANCH  22  25
DOCKED: ATOM     25  C   UNL     1     140.825  79.294 221.567 -0.30 +0.01    -0.025 A  
DOCKED: ATOM     26  C   UNL     1     140.020  79.666 222.659 -0.35 -0.00    +0.006 A  
DOCKED: ATOM     27  C   UNL     1     142.214  79.515 221.635 -0.39 -0.00    +0.006 A  
DOCKED: ATOM     28  C   UNL     1     140.591  80.259 223.788 -0.45 -0.00    +0.000 A  
DOCKED: ATOM     29  C   UNL     1     142.780  80.109 222.768 -0.64 -0.00    +0.000 A  
DOCKED: ATOM     30  C   UNL     1     141.969  80.482 223.842 -0.62 -0.00    +0.000 A  
DOCKED: ENDBRANCH  22  25
DOCKED: BRANCH  23  31
DOCKED: ATOM     31  O   UNL     1     136.934  79.167 218.953 +0.00 +0.08    -0.391 OA 
DOCKED: ATOM     32  H   UNL     1     137.167  78.404 218.360 +0.00 -0.04    +0.211 HD 
DOCKED: ENDBRANCH  23  31
DOCKED: ENDBRANCH   1  20
DOCKED: TORSDOF 7
DOCKED: TER
DOCKED: ENDMDL
________________________________________________________________________________


    FINAL DOCKED STATE:
    ________________________


Run:   14 / 20
Time taken for this run:   0.042s

DOCKED: MODEL        14
DOCKED: USER    Run = 14
DOCKED: USER
DOCKED: USER    Estimated Free Energy of Binding    =  -7.91 kcal/mol  [=(1)+(2)+(3)-(4)]
DOCKED: USER
DOCKED: USER    (1) Final Intermolecular Energy     = -10.00 kcal/mol
DOCKED: USER        vdW + Hbond + desolv Energy     =  -9.90 kcal/mol
DOCKED: USER        Electrostatic Energy            =  -0.09 kcal/mol
DOCKED: USER        Moving Ligand-Fixed Receptor    = -10.00 kcal/mol
DOCKED: USER        Moving Ligand-Moving Receptor   =  +0.00 kcal/mol
DOCKED: USER    (2) Final Total Internal Energy     =  -1.85 kcal/mol
DOCKED: USER    (3) Torsional Free Energy           =  +2.09 kcal/mol
DOCKED: USER    (4) Unbound System's Energy         =  -1.85 kcal/mol
DOCKED: USER
DOCKED: USER
DOCKED: REMARK SMILES O=C(N/C=C(/O)N1C[C@H](O)C[C@H]1c1ccccc1)c1ccc2cc(Cl)ccc2n1
DOCKED: REMARK SMILES IDX 5 1 6 2 4 4 3 5 2 6 1 8 19 9 29 10 20 11 28 12 21 13 27 14
DOCKED: REMARK SMILES IDX 22 15 26 16 23 17 24 18 25 19 7 20 8 21 12 22 9 23 11 24
DOCKED: REMARK SMILES IDX 13 25 14 26 18 27 15 28 17 29 16 30 10 31
DOCKED: REMARK H PARENT 6 3 3 7 10 32
DOCKED: USER                              x       y       z     vdW  Elec       q    Type
DOCKED: USER                           _______ _______ _______ _____ _____    ______ ____
DOCKED: ROOT
DOCKED: ATOM      1  C   UNL     1     141.268  74.804 220.229 -0.15 -0.06    +0.204 C  
DOCKED: ENDROOT
DOCKED: BRANCH   1   2
DOCKED: ATOM      2  O   UNL     1     140.902  75.465 221.402 -0.20 +0.13    -0.494 OA 
DOCKED: ATOM      3  H   UNL     1     140.084  75.197 221.936 +0.09 -0.04    +0.295 HD 
DOCKED: ENDBRANCH   1   2
DOCKED: BRANCH   1   4
DOCKED: ATOM      4  C   UNL     1     140.884  73.535 220.028 -0.10 -0.03    +0.152 C  
DOCKED: BRANCH   4   5
DOCKED: ATOM      5  N   UNL     1     140.869  72.564 221.084 -0.10 +0.04    -0.322 N  
DOCKED: ATOM      6  C   UNL     1     140.034  72.716 222.242 -0.20 -0.04    +0.273 C  
DOCKED: ATOM      7  H   UNL     1     141.436  71.693 220.985 +0.05 -0.02    +0.169 HD 
DOCKED: ATOM      8  O   UNL     1     139.288  73.728 222.349 -0.61 +0.06    -0.267 OA 
DOCKED: BRANCH   6   9
DOCKED: ATOM      9  C   UNL     1     140.053  71.701 223.319 -0.31 -0.02    +0.129 A  
DOCKED: ATOM     10  N   UNL     1     140.555  72.026 224.542 -0.15 +0.03    -0.243 NA 
DOCKED: ATOM     11  C   UNL     1     139.554  70.405 223.102 -0.25 -0.01    +0.035 A  
DOCKED: ATOM     12  C   UNL     1     140.593  71.137 225.570 -0.53 -0.01    +0.071 A  
DOCKED: ATOM     13  C   UNL     1     139.581  69.469 224.138 -0.29 -0.00    +0.013 A  
DOCKED: ATOM     14  C   UNL     1     141.118  71.518 226.810 -0.71 -0.00    +0.030 A  
DOCKED: ATOM     15  C   UNL     1     140.101  69.826 225.386 -0.45 -0.00    +0.002 A  
DOCKED: ATOM     16  C   UNL     1     141.157  70.601 227.865 -0.58 -0.00    +0.023 A  
DOCKED: ATOM     17  C   UNL     1     140.143  68.912 226.450 -0.54 -0.01    +0.030 A  
DOCKED: ATOM     18  C   UNL     1     140.670  69.301 227.686 -0.59 -0.01    +0.041 A  
DOCKED: ATOM     19  Cl  UNL     1     140.720  68.157 229.015 -0.40 +0.02    -0.084 Cl 
DOCKED: ENDBRANCH   6   9
DOCKED: ENDBRANCH   4   5
DOCKED: ENDBRANCH   1   4
DOCKED: BRANCH   1  20
DOCKED: ATOM     20  N   UNL     1     142.060  75.510 219.262 -0.07 +0.13    -0.332 N  
DOCKED: ATOM     21  C   UNL     1     142.116  76.959 219.217 -0.23 -0.08    +0.152 C  
DOCKED: ATOM     22  C   UNL     1     143.045  74.868 218.400 -0.16 -0.04    +0.118 C  
DOCKED: ATOM     23  C   UNL     1     143.292  77.301 218.298 -0.11 -0.10    +0.136 C  
DOCKED: ATOM     24  C   UNL     1     143.645  76.003 217.564 -0.19 -0.04    +0.063 C  
DOCKED: BRANCH  22  25
DOCKED: ATOM     25  C   UNL     1     144.101  74.148 219.216 -0.30 +0.01    -0.025 A  
DOCKED: ATOM     26  C   UNL     1     144.596  72.906 218.778 -0.24 +0.00    +0.006 A  
DOCKED: ATOM     27  C   UNL     1     144.622  74.713 220.395 -0.42 -0.00    +0.006 A  
DOCKED: ATOM     28  C   UNL     1     145.579  72.238 219.514 -0.38 +0.00    +0.000 A  
DOCKED: ATOM     29  C   UNL     1     145.606  74.041 221.127 -0.57 -0.00    +0.000 A  
DOCKED: ATOM     30  C   UNL     1     146.083  72.804 220.687 -0.56 +0.00    +0.000 A  
DOCKED: ENDBRANCH  22  25
DOCKED: BRANCH  23  31
DOCKED: ATOM     31  O   UNL     1     142.946  78.305 217.382 -0.20 +0.40    -0.391 OA 
DOCKED: ATOM     32  H   UNL     1     143.794  78.754 217.123 -0.46 -0.40    +0.211 HD 
DOCKED: ENDBRANCH  23  31
DOCKED: ENDBRANCH   1  20
DOCKED: TORSDOF 7
DOCKED: TER
DOCKED: ENDMDL
________________________________________________________________________________


    FINAL DOCKED STATE:
    ________________________


Run:   15 / 20
Time taken for this run:   0.042s

DOCKED: MODEL        15
DOCKED: USER    Run = 15
DOCKED: USER
DOCKED: USER    Estimated Free Energy of Binding    =  -7.00 kcal/mol  [=(1)+(2)+(3)-(4)]
DOCKED: USER
DOCKED: USER    (1) Final Intermolecular Energy     =  -9.08 kcal/mol
DOCKED: USER        vdW + Hbond + desolv Energy     =  -9.01 kcal/mol
DOCKED: USER        Electrostatic Energy            =  -0.07 kcal/mol
DOCKED: USER        Moving Ligand-Fixed Receptor    =  -9.08 kcal/mol
DOCKED: USER        Moving Ligand-Moving Receptor   =  +0.00 kcal/mol
DOCKED: USER    (2) Final Total Internal Energy     =  -2.31 kcal/mol
DOCKED: USER    (3) Torsional Free Energy           =  +2.09 kcal/mol
DOCKED: USER    (4) Unbound System's Energy         =  -2.31 kcal/mol
DOCKED: USER
DOCKED: USER
DOCKED: REMARK SMILES O=C(N/C=C(/O)N1C[C@H](O)C[C@H]1c1ccccc1)c1ccc2cc(Cl)ccc2n1
DOCKED: REMARK SMILES IDX 5 1 6 2 4 4 3 5 2 6 1 8 19 9 29 10 20 11 28 12 21 13 27 14
DOCKED: REMARK SMILES IDX 22 15 26 16 23 17 24 18 25 19 7 20 8 21 12 22 9 23 11 24
DOCKED: REMARK SMILES IDX 13 25 14 26 18 27 15 28 17 29 16 30 10 31
DOCKED: REMARK H PARENT 6 3 3 7 10 32
DOCKED: USER                              x       y       z     vdW  Elec       q    Type
DOCKED: USER                           _______ _______ _______ _____ _____    ______ ____
DOCKED: ROOT
DOCKED: ATOM      1  C   UNL     1     140.887  76.066 220.412 -0.16 -0.07    +0.204 C  
DOCKED: ENDROOT
DOCKED: BRANCH   1   2
DOCKED: ATOM      2  O   UNL     1     139.785  76.154 219.561 +0.02 +0.14    -0.494 OA 
DOCKED: ATOM      3  H   UNL     1     139.056  75.450 219.551 +0.04 -0.07    +0.295 HD 
DOCKED: ENDBRANCH   1   2
DOCKED: BRANCH   1   4
DOCKED: ATOM      4  C   UNL     1     141.632  74.951 220.429 -0.21 -0.05    +0.152 C  
DOCKED: BRANCH   4   5
DOCKED: ATOM      5  N   UNL     1     141.421  73.903 221.387 -0.14 +0.04    -0.322 N  
DOCKED: ATOM      6  C   UNL     1     140.135  73.293 221.572 -0.18 -0.04    +0.273 C  
DOCKED: ATOM      7  H   UNL     1     142.235  73.533 221.925 +0.09 +0.00    +0.169 HD 
DOCKED: ATOM      8  O   UNL     1     139.152  73.678 220.880 -0.09 +0.05    -0.267 OA 
DOCKED: BRANCH   6   9
DOCKED: ATOM      9  C   UNL     1     139.950  72.223 222.577 -0.27 -0.02    +0.129 A  
DOCKED: ATOM     10  N   UNL     1     140.632  72.281 223.755 -0.19 +0.02    -0.243 NA 
DOCKED: ATOM     11  C   UNL     1     139.076  71.148 222.340 -0.20 -0.01    +0.035 A  
DOCKED: ATOM     12  C   UNL     1     140.500  71.330 224.718 -0.45 -0.01    +0.071 A  
DOCKED: ATOM     13  C   UNL     1     138.919  70.155 223.310 -0.25 -0.00    +0.013 A  
DOCKED: ATOM     14  C   UNL     1     141.222  71.433 225.911 -0.60 -0.00    +0.030 A  
DOCKED: ATOM     15  C   UNL     1     139.630  70.236 224.512 -0.39 -0.00    +0.002 A  
DOCKED: ATOM     16  C   UNL     1     141.083  70.453 226.899 -0.58 -0.00    +0.023 A  
DOCKED: ATOM     17  C   UNL     1     139.496  69.258 225.508 -0.42 -0.00    +0.030 A  
DOCKED: ATOM     18  C   UNL     1     140.223  69.368 226.699 -0.52 -0.01    +0.041 A  
DOCKED: ATOM     19  Cl  UNL     1     140.053  68.144 227.944 -0.64 +0.02    -0.084 Cl 
DOCKED: ENDBRANCH   6   9
DOCKED: ENDBRANCH   4   5
DOCKED: ENDBRANCH   1   4
DOCKED: BRANCH   1  20
DOCKED: ATOM     20  N   UNL     1     141.192  77.183 221.259 -0.14 +0.16    -0.332 N  
DOCKED: ATOM     21  C   UNL     1     141.831  78.385 220.756 -0.24 -0.09    +0.152 C  
DOCKED: ATOM     22  C   UNL     1     140.696  77.323 222.623 -0.34 -0.04    +0.118 C  
DOCKED: ATOM     23  C   UNL     1     141.677  79.432 221.861 -0.37 -0.06    +0.136 C  
DOCKED: ATOM     24  C   UNL     1     141.254  78.662 223.116 -0.52 -0.02    +0.063 C  
DOCKED: BRANCH  22  25
DOCKED: ATOM     25  C   UNL     1     139.180  77.295 222.660 -0.28 +0.00    -0.025 A  
DOCKED: ATOM     26  C   UNL     1     138.504  76.063 222.694 -0.29 -0.00    +0.006 A  
DOCKED: ATOM     27  C   UNL     1     138.430  78.487 222.693 -0.27 -0.00    +0.006 A  
DOCKED: ATOM     28  C   UNL     1     137.107  76.023 222.742 -0.27 -0.00    +0.000 A  
DOCKED: ATOM     29  C   UNL     1     137.033  78.441 222.741 -0.20 -0.00    +0.000 A  
DOCKED: ATOM     30  C   UNL     1     136.372  77.211 222.765 -0.20 -0.00    +0.000 A  
DOCKED: ENDBRANCH  22  25
DOCKED: BRANCH  23  31
DOCKED: ATOM     31  O   UNL     1     142.881  80.115 222.086 -0.27 +0.18    -0.391 OA 
DOCKED: ATOM     32  H   UNL     1     143.608  79.444 221.987 -0.46 -0.18    +0.211 HD 
DOCKED: ENDBRANCH  23  31
DOCKED: ENDBRANCH   1  20
DOCKED: TORSDOF 7
DOCKED: TER
DOCKED: ENDMDL
________________________________________________________________________________


    FINAL DOCKED STATE:
    ________________________


Run:   16 / 20
Time taken for this run:   0.042s

DOCKED: MODEL        16
DOCKED: USER    Run = 16
DOCKED: USER
DOCKED: USER    Estimated Free Energy of Binding    =  -7.93 kcal/mol  [=(1)+(2)+(3)-(4)]
DOCKED: USER
DOCKED: USER    (1) Final Intermolecular Energy     = -10.02 kcal/mol
DOCKED: USER        vdW + Hbond + desolv Energy     =  -9.95 kcal/mol
DOCKED: USER        Electrostatic Energy            =  -0.07 kcal/mol
DOCKED: USER        Moving Ligand-Fixed Receptor    = -10.02 kcal/mol
DOCKED: USER        Moving Ligand-Moving Receptor   =  +0.00 kcal/mol
DOCKED: USER    (2) Final Total Internal Energy     =  -1.38 kcal/mol
DOCKED: USER    (3) Torsional Free Energy           =  +2.09 kcal/mol
DOCKED: USER    (4) Unbound System's Energy         =  -1.38 kcal/mol
DOCKED: USER
DOCKED: USER
DOCKED: REMARK SMILES O=C(N/C=C(/O)N1C[C@H](O)C[C@H]1c1ccccc1)c1ccc2cc(Cl)ccc2n1
DOCKED: REMARK SMILES IDX 5 1 6 2 4 4 3 5 2 6 1 8 19 9 29 10 20 11 28 12 21 13 27 14
DOCKED: REMARK SMILES IDX 22 15 26 16 23 17 24 18 25 19 7 20 8 21 12 22 9 23 11 24
DOCKED: REMARK SMILES IDX 13 25 14 26 18 27 15 28 17 29 16 30 10 31
DOCKED: REMARK H PARENT 6 3 3 7 10 32
DOCKED: USER                              x       y       z     vdW  Elec       q    Type
DOCKED: USER                           _______ _______ _______ _____ _____    ______ ____
DOCKED: ROOT
DOCKED: ATOM      1  C   UNL     1     141.059  76.156 220.768 -0.21 -0.08    +0.204 C  
DOCKED: ENDROOT
DOCKED: BRANCH   1   2
DOCKED: ATOM      2  O   UNL     1     142.150  76.972 220.465 -0.10 +0.33    -0.494 OA 
DOCKED: ATOM      3  H   UNL     1     142.876  77.172 221.144 -0.35 -0.36    +0.295 HD 
DOCKED: ENDBRANCH   1   2
DOCKED: BRANCH   1   4
DOCKED: ATOM      4  C   UNL     1     141.130  74.835 220.546 -0.19 -0.04    +0.152 C  
DOCKED: BRANCH   4   5
DOCKED: ATOM      5  N   UNL     1     141.056  73.875 221.611 -0.16 +0.03    -0.322 N  
DOCKED: ATOM      6  C   UNL     1     140.035  72.867 221.653 -0.18 -0.04    +0.273 C  
DOCKED: ATOM      7  H   UNL     1     141.796  73.871 222.346 +0.12 +0.02    +0.169 HD 
DOCKED: ATOM      8  O   UNL     1     139.170  72.811 220.735 -0.06 +0.05    -0.267 OA 
DOCKED: BRANCH   6   9
DOCKED: ATOM      9  C   UNL     1     139.981  71.900 222.772 -0.28 -0.02    +0.129 A  
DOCKED: ATOM     10  N   UNL     1     140.546  72.223 223.968 -0.17 +0.02    -0.243 NA 
DOCKED: ATOM     11  C   UNL     1     139.350  70.653 222.623 -0.22 -0.01    +0.035 A  
DOCKED: ATOM     12  C   UNL     1     140.524  71.378 225.033 -0.48 -0.01    +0.071 A  
DOCKED: ATOM     13  C   UNL     1     139.311  69.763 223.698 -0.28 -0.00    +0.013 A  
DOCKED: ATOM     14  C   UNL     1     141.119  71.754 226.242 -0.65 -0.00    +0.030 A  
DOCKED: ATOM     15  C   UNL     1     139.898  70.117 224.918 -0.42 -0.00    +0.002 A  
DOCKED: ATOM     16  C   UNL     1     141.094  70.883 227.335 -0.64 -0.00    +0.023 A  
DOCKED: ATOM     17  C   UNL     1     139.877  69.248 226.019 -0.47 -0.00    +0.030 A  
DOCKED: ATOM     18  C   UNL     1     140.475  69.632 227.225 -0.55 -0.01    +0.041 A  
DOCKED: ATOM     19  Cl  UNL     1     140.447  68.545 228.601 -0.71 +0.02    -0.084 Cl 
DOCKED: ENDBRANCH   6   9
DOCKED: ENDBRANCH   4   5
DOCKED: ENDBRANCH   1   4
DOCKED: BRANCH   1  20
DOCKED: ATOM     20  N   UNL     1     139.877  76.763 221.309 -0.10 +0.09    -0.332 N  
DOCKED: ATOM     21  C   UNL     1     138.919  76.018 222.105 -0.25 -0.03    +0.152 C  
DOCKED: ATOM     22  C   UNL     1     139.638  78.201 221.316 -0.17 -0.03    +0.118 C  
DOCKED: ATOM     23  C   UNL     1     138.012  77.067 222.752 -0.22 -0.02    +0.136 C  
DOCKED: ATOM     24  C   UNL     1     138.280  78.377 222.003 -0.19 -0.01    +0.063 C  
DOCKED: BRANCH  22  25
DOCKED: ATOM     25  C   UNL     1     140.742  78.937 222.051 -0.34 +0.01    -0.025 A  
DOCKED: ATOM     26  C   UNL     1     141.010  78.631 223.397 -0.51 -0.00    +0.006 A  
DOCKED: ATOM     27  C   UNL     1     141.530  79.907 221.401 -0.38 -0.00    +0.006 A  
DOCKED: ATOM     28  C   UNL     1     142.033  79.292 224.082 -0.53 -0.00    +0.000 A  
DOCKED: ATOM     29  C   UNL     1     142.552  80.565 222.091 -0.51 -0.00    +0.000 A  
DOCKED: ATOM     30  C   UNL     1     142.803  80.259 223.431 -0.67 -0.00    +0.000 A  
DOCKED: ENDBRANCH  22  25
DOCKED: BRANCH  23  31
DOCKED: ATOM     31  O   UNL     1     136.661  76.707 222.645 -0.11 +0.07    -0.391 OA 
DOCKED: ATOM     32  H   UNL     1     136.297  77.209 221.868 +0.04 -0.04    +0.211 HD 
DOCKED: ENDBRANCH  23  31
DOCKED: ENDBRANCH   1  20
DOCKED: TORSDOF 7
DOCKED: TER
DOCKED: ENDMDL
________________________________________________________________________________


    FINAL DOCKED STATE:
    ________________________


Run:   17 / 20
Time taken for this run:   0.042s

DOCKED: MODEL        17
DOCKED: USER    Run = 17
DOCKED: USER
DOCKED: USER    Estimated Free Energy of Binding    =  -7.31 kcal/mol  [=(1)+(2)+(3)-(4)]
DOCKED: USER
DOCKED: USER    (1) Final Intermolecular Energy     =  -9.40 kcal/mol
DOCKED: USER        vdW + Hbond + desolv Energy     =  -9.09 kcal/mol
DOCKED: USER        Electrostatic Energy            =  -0.32 kcal/mol
DOCKED: USER        Moving Ligand-Fixed Receptor    =  -9.40 kcal/mol
DOCKED: USER        Moving Ligand-Moving Receptor   =  +0.00 kcal/mol
DOCKED: USER    (2) Final Total Internal Energy     =  -2.04 kcal/mol
DOCKED: USER    (3) Torsional Free Energy           =  +2.09 kcal/mol
DOCKED: USER    (4) Unbound System's Energy         =  -2.04 kcal/mol
DOCKED: USER
DOCKED: USER
DOCKED: REMARK SMILES O=C(N/C=C(/O)N1C[C@H](O)C[C@H]1c1ccccc1)c1ccc2cc(Cl)ccc2n1
DOCKED: REMARK SMILES IDX 5 1 6 2 4 4 3 5 2 6 1 8 19 9 29 10 20 11 28 12 21 13 27 14
DOCKED: REMARK SMILES IDX 22 15 26 16 23 17 24 18 25 19 7 20 8 21 12 22 9 23 11 24
DOCKED: REMARK SMILES IDX 13 25 14 26 18 27 15 28 17 29 16 30 10 31
DOCKED: REMARK H PARENT 6 3 3 7 10 32
DOCKED: USER                              x       y       z     vdW  Elec       q    Type
DOCKED: USER                           _______ _______ _______ _____ _____    ______ ____
DOCKED: ROOT
DOCKED: ATOM      1  C   UNL     1     140.611  76.503 220.655 -0.16 -0.07    +0.204 C  
DOCKED: ENDROOT
DOCKED: BRANCH   1   2
DOCKED: ATOM      2  O   UNL     1     141.065  76.803 221.940 -0.16 +0.20    -0.494 OA 
DOCKED: ATOM      3  H   UNL     1     141.892  76.369 222.333 -0.43 -0.21    +0.295 HD 
DOCKED: ENDBRANCH   1   2
DOCKED: BRANCH   1   4
DOCKED: ATOM      4  C   UNL     1     139.473  75.811 220.493 -0.11 -0.04    +0.152 C  
DOCKED: BRANCH   4   5
DOCKED: ATOM      5  N   UNL     1     139.202  74.604 221.218 -0.10 +0.07    -0.322 N  
DOCKED: ATOM      6  C   UNL     1     140.236  73.881 221.903 -0.13 -0.02    +0.273 C  
DOCKED: ATOM      7  H   UNL     1     138.216  74.269 221.300 +0.03 -0.04    +0.169 HD 
DOCKED: ATOM      8  O   UNL     1     141.423  74.308 221.875 -0.42 +0.02    -0.267 OA 
DOCKED: BRANCH   6   9
DOCKED: ATOM      9  C   UNL     1     139.922  72.632 222.632 -0.25 -0.02    +0.129 A  
DOCKED: ATOM     10  N   UNL     1     140.625  72.313 223.755 -0.15 +0.02    -0.243 NA 
DOCKED: ATOM     11  C   UNL     1     138.905  71.769 222.189 -0.19 -0.01    +0.035 A  
DOCKED: ATOM     12  C   UNL     1     140.379  71.183 224.468 -0.43 -0.01    +0.071 A  
DOCKED: ATOM     13  C   UNL     1     138.629  70.600 222.900 -0.22 -0.00    +0.013 A  
DOCKED: ATOM     14  C   UNL     1     141.127  70.898 225.615 -0.57 -0.00    +0.030 A  
DOCKED: ATOM     15  C   UNL     1     139.364  70.294 224.050 -0.34 -0.00    +0.002 A  
DOCKED: ATOM     16  C   UNL     1     140.872  69.734 226.346 -0.53 -0.00    +0.023 A  
DOCKED: ATOM     17  C   UNL     1     139.113  69.128 224.789 -0.36 -0.00    +0.030 A  
DOCKED: ATOM     18  C   UNL     1     139.867  68.850 225.936 -0.48 -0.01    +0.041 A  
DOCKED: ATOM     19  Cl  UNL     1     139.551  67.393 226.859 -0.57 +0.01    -0.084 Cl 
DOCKED: ENDBRANCH   6   9
DOCKED: ENDBRANCH   4   5
DOCKED: ENDBRANCH   1   4
DOCKED: BRANCH   1  20
DOCKED: ATOM     20  N   UNL     1     141.387  76.944 219.532 -0.07 +0.15    -0.332 N  
DOCKED: ATOM     21  C   UNL     1     141.862  78.310 219.408 -0.22 -0.09    +0.152 C  
DOCKED: ATOM     22  C   UNL     1     141.963  76.041 218.542 -0.14 -0.05    +0.118 C  
DOCKED: ATOM     23  C   UNL     1     142.899  78.288 218.282 -0.18 -0.12    +0.136 C  
DOCKED: ATOM     24  C   UNL     1     142.711  76.949 217.561 -0.24 -0.04    +0.063 C  
DOCKED: BRANCH  22  25
DOCKED: ATOM     25  C   UNL     1     142.887  75.031 219.195 -0.26 +0.01    -0.025 A  
DOCKED: ATOM     26  C   UNL     1     144.036  75.473 219.874 -0.36 -0.00    +0.006 A  
DOCKED: ATOM     27  C   UNL     1     142.602  73.653 219.159 -0.15 -0.00    +0.006 A  
DOCKED: ATOM     28  C   UNL     1     144.890  74.553 220.491 -0.48 -0.00    +0.000 A  
DOCKED: ATOM     29  C   UNL     1     143.459  72.738 219.778 -0.25 -0.00    +0.000 A  
DOCKED: ATOM     30  C   UNL     1     144.602  73.187 220.442 -0.47 -0.00    +0.000 A  
DOCKED: ENDBRANCH  22  25
DOCKED: BRANCH  23  31
DOCKED: ATOM     31  O   UNL     1     142.706  79.356 217.393 -0.16 +0.46    -0.391 OA 
DOCKED: ATOM     32  H   UNL     1     143.612  79.660 217.119 -0.52 -0.51    +0.211 HD 
DOCKED: ENDBRANCH  23  31
DOCKED: ENDBRANCH   1  20
DOCKED: TORSDOF 7
DOCKED: TER
DOCKED: ENDMDL
________________________________________________________________________________


    FINAL DOCKED STATE:
    ________________________


Run:   18 / 20
Time taken for this run:   0.042s

DOCKED: MODEL        18
DOCKED: USER    Run = 18
DOCKED: USER
DOCKED: USER    Estimated Free Energy of Binding    =  -8.13 kcal/mol  [=(1)+(2)+(3)-(4)]
DOCKED: USER
DOCKED: USER    (1) Final Intermolecular Energy     = -10.22 kcal/mol
DOCKED: USER        vdW + Hbond + desolv Energy     = -10.03 kcal/mol
DOCKED: USER        Electrostatic Energy            =  -0.19 kcal/mol
DOCKED: USER        Moving Ligand-Fixed Receptor    = -10.22 kcal/mol
DOCKED: USER        Moving Ligand-Moving Receptor   =  +0.00 kcal/mol
DOCKED: USER    (2) Final Total Internal Energy     =  -1.19 kcal/mol
DOCKED: USER    (3) Torsional Free Energy           =  +2.09 kcal/mol
DOCKED: USER    (4) Unbound System's Energy         =  -1.19 kcal/mol
DOCKED: USER
DOCKED: USER
DOCKED: REMARK SMILES O=C(N/C=C(/O)N1C[C@H](O)C[C@H]1c1ccccc1)c1ccc2cc(Cl)ccc2n1
DOCKED: REMARK SMILES IDX 5 1 6 2 4 4 3 5 2 6 1 8 19 9 29 10 20 11 28 12 21 13 27 14
DOCKED: REMARK SMILES IDX 22 15 26 16 23 17 24 18 25 19 7 20 8 21 12 22 9 23 11 24
DOCKED: REMARK SMILES IDX 13 25 14 26 18 27 15 28 17 29 16 30 10 31
DOCKED: REMARK H PARENT 6 3 3 7 10 32
DOCKED: USER                              x       y       z     vdW  Elec       q    Type
DOCKED: USER                           _______ _______ _______ _____ _____    ______ ____
DOCKED: ROOT
DOCKED: ATOM      1  C   UNL     1     140.461  76.516 221.467 -0.25 -0.06    +0.204 C  
DOCKED: ENDROOT
DOCKED: BRANCH   1   2
DOCKED: ATOM      2  O   UNL     1     140.986  76.835 222.719 -0.20 +0.17    -0.494 OA 
DOCKED: ATOM      3  H   UNL     1     141.973  76.735 222.929 -0.32 -0.22    +0.295 HD 
DOCKED: ENDBRANCH   1   2
DOCKED: BRANCH   1   4
DOCKED: ATOM      4  C   UNL     1     139.733  75.401 221.311 -0.22 -0.03    +0.152 C  
DOCKED: BRANCH   4   5
DOCKED: ATOM      5  N   UNL     1     139.703  74.363 222.301 -0.06 +0.03    -0.322 N  
DOCKED: ATOM      6  C   UNL     1     140.189  73.040 222.029 -0.19 -0.03    +0.273 C  
DOCKED: ATOM      7  H   UNL     1     139.371  74.587 223.266 -0.50 -0.04    +0.169 HD 
DOCKED: ATOM      8  O   UNL     1     140.659  72.766 220.890 -0.12 +0.04    -0.267 OA 
DOCKED: BRANCH   6   9
DOCKED: ATOM      9  C   UNL     1     140.132  71.990 223.070 -0.30 -0.02    +0.129 A  
DOCKED: ATOM     10  N   UNL     1     140.606  72.254 224.319 -0.03 +0.03    -0.243 NA 
DOCKED: ATOM     11  C   UNL     1     139.590  70.723 222.793 -0.25 -0.01    +0.035 A  
DOCKED: ATOM     12  C   UNL     1     140.575  71.331 225.317 -0.51 -0.01    +0.071 A  
DOCKED: ATOM     13  C   UNL     1     139.546  69.753 223.797 -0.28 -0.00    +0.013 A  
DOCKED: ATOM     14  C   UNL     1     141.074  71.650 226.585 -0.70 -0.00    +0.030 A  
DOCKED: ATOM     15  C   UNL     1     140.039  70.048 225.073 -0.43 -0.00    +0.002 A  
DOCKED: ATOM     16  C   UNL     1     141.042  70.698 227.609 -0.64 -0.00    +0.023 A  
DOCKED: ATOM     17  C   UNL     1     140.009  69.099 226.106 -0.49 -0.00    +0.030 A  
DOCKED: ATOM     18  C   UNL     1     140.510  69.426 227.371 -0.57 -0.01    +0.041 A  
DOCKED: ATOM     19  Cl  UNL     1     140.472  68.238 228.661 -0.57 +0.02    -0.084 Cl 
DOCKED: ENDBRANCH   6   9
DOCKED: ENDBRANCH   4   5
DOCKED: ENDBRANCH   1   4
DOCKED: BRANCH   1  20
DOCKED: ATOM     20  N   UNL     1     140.722  77.400 220.367 -0.06 +0.13    -0.332 N  
DOCKED: ATOM     21  C   UNL     1     139.794  77.559 219.263 -0.05 -0.05    +0.152 C  
DOCKED: ATOM     22  C   UNL     1     141.804  78.378 220.355 -0.24 -0.07    +0.118 C  
DOCKED: ATOM     23  C   UNL     1     140.265  78.798 218.498 -0.06 -0.05    +0.136 C  
DOCKED: ATOM     24  C   UNL     1     141.680  79.095 219.007 -0.24 -0.04    +0.063 C  
DOCKED: BRANCH  22  25
DOCKED: ATOM     25  C   UNL     1     141.683  79.342 221.520 -0.39 +0.01    -0.025 A  
DOCKED: ATOM     26  C   UNL     1     142.705  79.403 222.485 -0.50 -0.00    +0.006 A  
DOCKED: ATOM     27  C   UNL     1     140.577  80.204 221.642 -0.29 -0.00    +0.006 A  
DOCKED: ATOM     28  C   UNL     1     142.613  80.296 223.556 -0.67 -0.00    +0.000 A  
DOCKED: ATOM     29  C   UNL     1     140.490  81.096 222.715 -0.39 -0.00    +0.000 A  
DOCKED: ATOM     30  C   UNL     1     141.507  81.141 223.672 -0.55 -0.00    +0.000 A  
DOCKED: ENDBRANCH  22  25
DOCKED: BRANCH  23  31
DOCKED: ATOM     31  O   UNL     1     140.279  78.566 217.115 -0.01 +0.16    -0.391 OA 
DOCKED: ATOM     32  H   UNL     1     141.224  78.662 216.823 +0.04 -0.13    +0.211 HD 
DOCKED: ENDBRANCH  23  31
DOCKED: ENDBRANCH   1  20
DOCKED: TORSDOF 7
DOCKED: TER
DOCKED: ENDMDL
________________________________________________________________________________


    FINAL DOCKED STATE:
    ________________________


Run:   19 / 20
Time taken for this run:   0.042s

DOCKED: MODEL        19
DOCKED: USER    Run = 19
DOCKED: USER
DOCKED: USER    Estimated Free Energy of Binding    =  -8.56 kcal/mol  [=(1)+(2)+(3)-(4)]
DOCKED: USER
DOCKED: USER    (1) Final Intermolecular Energy     = -10.64 kcal/mol
DOCKED: USER        vdW + Hbond + desolv Energy     = -10.35 kcal/mol
DOCKED: USER        Electrostatic Energy            =  -0.29 kcal/mol
DOCKED: USER        Moving Ligand-Fixed Receptor    = -10.64 kcal/mol
DOCKED: USER        Moving Ligand-Moving Receptor   =  +0.00 kcal/mol
DOCKED: USER    (2) Final Total Internal Energy     =  -1.64 kcal/mol
DOCKED: USER    (3) Torsional Free Energy           =  +2.09 kcal/mol
DOCKED: USER    (4) Unbound System's Energy         =  -1.64 kcal/mol
DOCKED: USER
DOCKED: USER
DOCKED: REMARK SMILES O=C(N/C=C(/O)N1C[C@H](O)C[C@H]1c1ccccc1)c1ccc2cc(Cl)ccc2n1
DOCKED: REMARK SMILES IDX 5 1 6 2 4 4 3 5 2 6 1 8 19 9 29 10 20 11 28 12 21 13 27 14
DOCKED: REMARK SMILES IDX 22 15 26 16 23 17 24 18 25 19 7 20 8 21 12 22 9 23 11 24
DOCKED: REMARK SMILES IDX 13 25 14 26 18 27 15 28 17 29 16 30 10 31
DOCKED: REMARK H PARENT 6 3 3 7 10 32
DOCKED: USER                              x       y       z     vdW  Elec       q    Type
DOCKED: USER                           _______ _______ _______ _____ _____    ______ ____
DOCKED: ROOT
DOCKED: ATOM      1  C   UNL     1     140.828  76.197 220.972 -0.21 -0.07    +0.204 C  
DOCKED: ENDROOT
DOCKED: BRANCH   1   2
DOCKED: ATOM      2  O   UNL     1     141.182  76.848 222.154 -0.14 +0.22    -0.494 OA 
DOCKED: ATOM      3  H   UNL     1     142.125  76.816 222.523 -0.36 -0.29    +0.295 HD 
DOCKED: ENDBRANCH   1   2
DOCKED: BRANCH   1   4
DOCKED: ATOM      4  C   UNL     1     139.899  75.229 220.993 -0.19 -0.03    +0.152 C  
DOCKED: BRANCH   4   5
DOCKED: ATOM      5  N   UNL     1     139.837  74.251 222.042 -0.14 +0.04    -0.322 N  
DOCKED: ATOM      6  C   UNL     1     140.192  72.878 221.820 -0.19 -0.04    +0.273 C  
DOCKED: ATOM      7  H   UNL     1     139.582  74.555 223.008 -0.46 -0.01    +0.169 HD 
DOCKED: ATOM      8  O   UNL     1     140.571  72.505 220.675 -0.09 +0.04    -0.267 OA 
DOCKED: BRANCH   6   9
DOCKED: ATOM      9  C   UNL     1     140.105  71.893 222.921 -0.29 -0.02    +0.129 A  
DOCKED: ATOM     10  N   UNL     1     140.611  72.207 224.146 -0.11 +0.03    -0.243 NA 
DOCKED: ATOM     11  C   UNL     1     139.503  70.638 222.726 -0.23 -0.01    +0.035 A  
DOCKED: ATOM     12  C   UNL     1     140.556  71.345 225.196 -0.49 -0.01    +0.071 A  
DOCKED: ATOM     13  C   UNL     1     139.432  69.731 223.785 -0.28 -0.00    +0.013 A  
DOCKED: ATOM     14  C   UNL     1     141.090  71.713 226.436 -0.69 -0.00    +0.030 A  
DOCKED: ATOM     15  C   UNL     1     139.958  70.076 225.035 -0.43 -0.00    +0.002 A  
DOCKED: ATOM     16  C   UNL     1     141.032  70.824 227.514 -0.65 -0.00    +0.023 A  
DOCKED: ATOM     17  C   UNL     1     139.904  69.190 226.121 -0.48 -0.00    +0.030 A  
DOCKED: ATOM     18  C   UNL     1     140.440  69.566 227.358 -0.57 -0.01    +0.041 A  
DOCKED: ATOM     19  Cl  UNL     1     140.370  68.457 228.716 -0.64 +0.02    -0.084 Cl 
DOCKED: ENDBRANCH   6   9
DOCKED: ENDBRANCH   4   5
DOCKED: ENDBRANCH   1   4
DOCKED: BRANCH   1  20
DOCKED: ATOM     20  N   UNL     1     141.480  76.582 219.753 -0.08 +0.15    -0.332 N  
DOCKED: ATOM     21  C   UNL     1     141.868  77.955 219.484 -0.22 -0.09    +0.152 C  
DOCKED: ATOM     22  C   UNL     1     142.017  75.632 218.787 -0.15 -0.05    +0.118 C  
DOCKED: ATOM     23  C   UNL     1     142.804  77.892 218.275 -0.24 -0.11    +0.136 C  
DOCKED: ATOM     24  C   UNL     1     142.629  76.492 217.677 -0.21 -0.03    +0.063 C  
DOCKED: BRANCH  22  25
DOCKED: ATOM     25  C   UNL     1     143.047  74.722 219.429 -0.28 +0.01    -0.025 A  
DOCKED: ATOM     26  C   UNL     1     142.907  73.326 219.327 -0.18 -0.00    +0.006 A  
DOCKED: ATOM     27  C   UNL     1     144.165  75.248 220.104 -0.39 -0.00    +0.006 A  
DOCKED: ATOM     28  C   UNL     1     143.857  72.476 219.902 -0.29 -0.00    +0.000 A  
DOCKED: ATOM     29  C   UNL     1     145.112  74.394 220.677 -0.49 -0.00    +0.000 A  
DOCKED: ATOM     30  C   UNL     1     144.957  73.009 220.577 -0.52 -0.00    +0.000 A  
DOCKED: ENDBRANCH  22  25
DOCKED: BRANCH  23  31
DOCKED: ATOM     31  O   UNL     1     142.479  78.875 217.328 -0.17 +0.39    -0.391 OA 
DOCKED: ATOM     32  H   UNL     1     143.338  79.281 217.038 -0.51 -0.40    +0.211 HD 
DOCKED: ENDBRANCH  23  31
DOCKED: ENDBRANCH   1  20
DOCKED: TORSDOF 7
DOCKED: TER
DOCKED: ENDMDL
________________________________________________________________________________


    FINAL DOCKED STATE:
    ________________________


Run:   20 / 20
Time taken for this run:   0.042s

DOCKED: MODEL        20
DOCKED: USER    Run = 20
DOCKED: USER
DOCKED: USER    Estimated Free Energy of Binding    =  -8.41 kcal/mol  [=(1)+(2)+(3)-(4)]
DOCKED: USER
DOCKED: USER    (1) Final Intermolecular Energy     = -10.49 kcal/mol
DOCKED: USER        vdW + Hbond + desolv Energy     = -10.44 kcal/mol
DOCKED: USER        Electrostatic Energy            =  -0.05 kcal/mol
DOCKED: USER        Moving Ligand-Fixed Receptor    = -10.49 kcal/mol
DOCKED: USER        Moving Ligand-Moving Receptor   =  +0.00 kcal/mol
DOCKED: USER    (2) Final Total Internal Energy     =  -1.14 kcal/mol
DOCKED: USER    (3) Torsional Free Energy           =  +2.09 kcal/mol
DOCKED: USER    (4) Unbound System's Energy         =  -1.14 kcal/mol
DOCKED: USER
DOCKED: USER
DOCKED: REMARK SMILES O=C(N/C=C(/O)N1C[C@H](O)C[C@H]1c1ccccc1)c1ccc2cc(Cl)ccc2n1
DOCKED: REMARK SMILES IDX 5 1 6 2 4 4 3 5 2 6 1 8 19 9 29 10 20 11 28 12 21 13 27 14
DOCKED: REMARK SMILES IDX 22 15 26 16 23 17 24 18 25 19 7 20 8 21 12 22 9 23 11 24
DOCKED: REMARK SMILES IDX 13 25 14 26 18 27 15 28 17 29 16 30 10 31
DOCKED: REMARK H PARENT 6 3 3 7 10 32
DOCKED: USER                              x       y       z     vdW  Elec       q    Type
DOCKED: USER                           _______ _______ _______ _____ _____    ______ ____
DOCKED: ROOT
DOCKED: ATOM      1  C   UNL     1     139.811  76.549 221.524 -0.22 -0.05    +0.204 C  
DOCKED: ENDROOT
DOCKED: BRANCH   1   2
DOCKED: ATOM      2  O   UNL     1     141.174  76.821 221.406 -0.11 +0.22    -0.494 OA 
DOCKED: ATOM      3  H   UNL     1     141.863  76.389 222.011 -0.44 -0.20    +0.295 HD 
DOCKED: ENDBRANCH   1   2
DOCKED: BRANCH   1   4
DOCKED: ATOM      4  C   UNL     1     139.358  75.303 221.319 -0.20 -0.03    +0.152 C  
DOCKED: BRANCH   4   5
DOCKED: ATOM      5  N   UNL     1     139.451  74.280 222.322 -0.10 +0.05    -0.322 N  
DOCKED: ATOM      6  C   UNL     1     139.851  72.939 222.002 -0.19 -0.04    +0.273 C  
DOCKED: ATOM      7  H   UNL     1     139.279  74.529 223.321 -0.51 -0.06    +0.169 HD 
DOCKED: ATOM      8  O   UNL     1     140.131  72.635 220.810 -0.09 +0.04    -0.267 OA 
DOCKED: BRANCH   6   9
DOCKED: ATOM      9  C   UNL     1     139.926  71.907 223.060 -0.29 -0.02    +0.129 A  
DOCKED: ATOM     10  N   UNL     1     140.401  72.238 224.292 -0.08 +0.04    -0.243 NA 
DOCKED: ATOM     11  C   UNL     1     139.508  70.587 222.815 -0.24 -0.01    +0.035 A  
DOCKED: ATOM     12  C   UNL     1     140.488  71.334 225.303 -0.50 -0.01    +0.071 A  
DOCKED: ATOM     13  C   UNL     1     139.586  69.635 223.834 -0.27 -0.00    +0.013 A  
DOCKED: ATOM     14  C   UNL     1     140.984  71.722 226.553 -0.69 -0.00    +0.030 A  
DOCKED: ATOM     15  C   UNL     1     140.078  69.999 225.092 -0.43 -0.00    +0.002 A  
DOCKED: ATOM     16  C   UNL     1     141.073  70.789 227.591 -0.65 -0.00    +0.023 A  
DOCKED: ATOM     17  C   UNL     1     140.169  69.069 226.138 -0.50 -0.01    +0.030 A  
DOCKED: ATOM     18  C   UNL     1     140.666  69.466 227.385 -0.57 -0.01    +0.041 A  
DOCKED: ATOM     19  Cl  UNL     1     140.779  68.302 228.693 -0.68 +0.02    -0.084 Cl 
DOCKED: ENDBRANCH   6   9
DOCKED: ENDBRANCH   4   5
DOCKED: ENDBRANCH   1   4
DOCKED: BRANCH   1  20
DOCKED: ATOM     20  N   UNL     1     138.923  77.624 221.859 -0.09 +0.07    -0.332 N  
DOCKED: ATOM     21  C   UNL     1     137.750  77.429 222.691 -0.20 -0.03    +0.152 C  
DOCKED: ATOM     22  C   UNL     1     139.220  79.028 221.602 -0.16 -0.03    +0.118 C  
DOCKED: ATOM     23  C   UNL     1     137.276  78.832 223.077 -0.13 -0.02    +0.136 C  
DOCKED: ATOM     24  C   UNL     1     138.010  79.798 222.140 -0.16 -0.01    +0.063 C  
DOCKED: BRANCH  22  25
DOCKED: ATOM     25  C   UNL     1     140.507  79.450 222.287 -0.33 +0.01    -0.025 A  
DOCKED: ATOM     26  C   UNL     1     141.394  80.321 221.630 -0.39 -0.00    +0.006 A  
DOCKED: ATOM     27  C   UNL     1     140.820  79.008 223.586 -0.51 -0.00    +0.006 A  
DOCKED: ATOM     28  C   UNL     1     142.577  80.727 222.255 -0.51 -0.00    +0.000 A  
DOCKED: ATOM     29  C   UNL     1     142.004  79.418 224.206 -0.50 -0.00    +0.000 A  
DOCKED: ATOM     30  C   UNL     1     142.882  80.276 223.541 -0.67 -0.00    +0.000 A  
DOCKED: ENDBRANCH  22  25
DOCKED: BRANCH  23  31
DOCKED: ATOM     31  O   UNL     1     135.888  78.960 222.926 -0.06 +0.05    -0.391 OA 
DOCKED: ATOM     32  H   UNL     1     135.637  79.826 223.344 +0.05 -0.03    +0.211 HD 
DOCKED: ENDBRANCH  23  31
DOCKED: ENDBRANCH   1  20
DOCKED: TORSDOF 7
DOCKED: TER
DOCKED: ENDMDL
________________________________________________________________________________


    CLUSTERING HISTOGRAM
    ____________________


________________________________________________________________________________
     |           |     |           |     |
Clus | Lowest    | Run | Mean      | Num | Histogram
-ter | Binding   |     | Binding   | in  |
Rank | Energy    |     | Energy    | Clus|    5    10   15   20   25   30   35
_____|___________|_____|___________|_____|____:____|____:____|____:____|____:___
   1 |     -8.61 |   5 |     -7.99 |  13 |#############
   2 |     -8.41 |  20 |     -7.98 |   5 |#####
   3 |     -7.00 |  15 |     -6.98 |   2 |##
_____|___________|_____|___________|_____|______________________________________


    RMSD TABLE
    __________


_______________________________________________________________________
     |      |      |           |         |                 |
Rank | Sub- | Run  | Binding   | Cluster | Reference       | Grep
     | Rank |      | Energy    | RMSD    | RMSD            | Pattern
_____|______|______|___________|_________|_________________|___________
   1      1      5       -8.61      0.00    271.45           RANKING
   1      2      4       -8.57      0.08    271.49           RANKING
   1      3      1       -8.57      0.08    271.48           RANKING
   1      4      9       -8.56      0.06    271.43           RANKING
   1      5     19       -8.56      0.30    271.45           RANKING
   1      6      7       -8.55      0.07    271.42           RANKING
   1      7     11       -7.93      1.29    271.42           RANKING
   1      8     14       -7.91      1.28    271.45           RANKING
   1      9     10       -7.39      1.21    271.19           RANKING
   1     10      8       -7.37      0.60    271.28           RANKING
   1     11     17       -7.31      1.06    271.01           RANKING
   1     12      6       -7.26      1.20    271.03           RANKING
   1     13      3       -7.26      1.31    271.27           RANKING
   2      1     20       -8.41      0.00    272.23           RANKING
   2      2     18       -8.13      1.87    271.96           RANKING
   2      3     16       -7.93      1.18    272.00           RANKING
   2      4     13       -7.88      1.49    271.75           RANKING
   2      5     12       -7.56      1.88    271.86           RANKING
   3      1     15       -7.00      0.00    271.64           RANKING
   3      2      2       -6.97      0.06    271.64           RANKING

Run time 0.774 sec
Idle time 0.000 sec
