AutoDock-GPU version: v1.6

**********************************************************
**    AutoDock-GPU AUTODOCKTOOLS-COMPATIBLE DLG FILE    **
**********************************************************


    DOCKING PARAMETERS
    ________________________


Ligand file:                               /home/a/REINVENT4/ReinventStudies/pleaseWork/justmol2mol_4_Compounds_ontop/graph-dock-8u2o5u/graph-DockGPU/node-autodockgpu/inputs/JBCXUJHMCIQQPK-BFRZWJNQNA-N.pdbqt
Grid fld file:                             /home/a/REINVENT4/ReinventStudies/mols/Rad51/maps/rad51_receptor.maps.fld

Random seed:                               42
Number of runs:                            20
Number of energy evaluations:              1259779
Number of generations:                     42000
Size of population:                        150
Rate of crossover:                         80.000000%
Tournament selection probability limit:    60.000000%
Rate of mutation:                          2.000000%
Maximal allowed delta movement:            +/- 6.000000A
Maximal allowed delta angle:               +/- 90.000000

Rate of local search:                      100.000000%
Maximal number of local search iterations: 300
Rho lower bound:                           0.010000
Spread of local search delta movement:     2.000000A
Spread of local search delta angle:        74.999999
Limit of consecutive successes/failures:   4

Handle symmetry during clustering:         YES
RMSD tolerance:                            2.000000A

Program call in command line was:          /home/a/REINVENT4/ReinventStudies/adgpu-v1.6_linux_x64_cuda12_128wi --filelist batch.txt --heuristics 1 --nrun 20 --psize 150 --lsit 300 --seed 42 --heurmax 12000000 


    GRID PARAMETERS
    ________________________


Receptor name:                             rad51_receptor
Number of grid points (x, y, z):           53, 53, 53
Grid center (x, y, z):                     139.950000, 75.640000, 221.970000A
Grid size (x, y, z):                       19.500000, 19.500000, 19.500000A
Grid spacing:                              0.375000A


    LIGAND PARAMETERS
    ________________________


Ligand name:                               /home/a/REINVENT4/ReinventStudies/pleaseWork/justmol2mol_4_Compounds_ontop/graph-dock-8u2o5u/graph-DockGPU/node-autodockgpu/inputs/JBCXUJHMCIQQPK-BFRZWJNQNA-N
Number of atoms:                           32
Number of rotatable bonds:                 7
Number of atom types:                      7


    DUMMY DATA (only for ADT-compatibility)
    ________________________


DPF> outlev 1
DPF> ga_run 20
DPF> fld /home/a/REINVENT4/ReinventStudies/mols/Rad51/maps/rad51_receptor.maps.fld
DPF> move /home/a/REINVENT4/ReinventStudies/pleaseWork/justmol2mol_4_Compounds_ontop/graph-dock-8u2o5u/graph-DockGPU/node-autodockgpu/inputs/JBCXUJHMCIQQPK-BFRZWJNQNA-N.pdbqt


    COUNTER STATES
    ________________________


Number of energy evaluations performed:    891534
Number of generations used:                60


    INPUT LIGAND PDBQT FILE:
    ________________________


INPUT-LIGAND-PDBQT: REMARK SMILES O=C(N/C=C(\O)N1C[C@H](O)C[C@H]1c1ccccc1)c1ccc2cc(Cl)ccc2n1
INPUT-LIGAND-PDBQT: REMARK SMILES IDX 5 1 6 2 4 4 3 5 2 6 1 8 19 9 29 10 20 11 28 12 21 13 27 14
INPUT-LIGAND-PDBQT: REMARK SMILES IDX 22 15 26 16 23 17 24 18 25 19 7 20 8 21 12 22 9 23 11 24
INPUT-LIGAND-PDBQT: REMARK SMILES IDX 13 25 14 26 18 27 15 28 17 29 16 30 10 31
INPUT-LIGAND-PDBQT: REMARK H PARENT 6 3 3 7 10 32
INPUT-LIGAND-PDBQT: ROOT
INPUT-LIGAND-PDBQT: ATOM      1  C   UNL     1       0.148  -0.593   2.004  1.00  0.00     0.204 C 
INPUT-LIGAND-PDBQT: ENDROOT
INPUT-LIGAND-PDBQT: BRANCH   1   2
INPUT-LIGAND-PDBQT: ATOM      2  O   UNL     1      -0.585   0.446   2.586  1.00  0.00    -0.494 OA
INPUT-LIGAND-PDBQT: ATOM      3  H   UNL     1      -0.700   1.361   2.172  1.00  0.00     0.295 HD
INPUT-LIGAND-PDBQT: ENDBRANCH   1   2
INPUT-LIGAND-PDBQT: BRANCH   1   4
INPUT-LIGAND-PDBQT: ATOM      4  C   UNL     1       0.614  -0.506   0.742  1.00  0.00     0.152 C 
INPUT-LIGAND-PDBQT: BRANCH   4   5
INPUT-LIGAND-PDBQT: ATOM      5  N   UNL     1       0.275   0.571  -0.147  1.00  0.00    -0.322 N 
INPUT-LIGAND-PDBQT: ATOM      6  C   UNL     1       0.978   0.772  -1.385  1.00  0.00     0.273 C 
INPUT-LIGAND-PDBQT: ATOM      7  H   UNL     1      -0.559   1.165   0.049  1.00  0.00     0.169 HD
INPUT-LIGAND-PDBQT: ATOM      8  O   UNL     1       1.982   0.058  -1.659  1.00  0.00    -0.267 OA
INPUT-LIGAND-PDBQT: BRANCH   6   9
INPUT-LIGAND-PDBQT: ATOM      9  C   UNL     1       0.540   1.815  -2.339  1.00  0.00     0.129 A 
INPUT-LIGAND-PDBQT: ATOM     10  N   UNL     1      -0.536   2.595  -2.040  1.00  0.00    -0.243 NA
INPUT-LIGAND-PDBQT: ATOM     11  C   UNL     1       1.217   2.014  -3.555  1.00  0.00     0.035 A 
INPUT-LIGAND-PDBQT: ATOM     12  C   UNL     1      -0.984   3.566  -2.879  1.00  0.00     0.071 A 
INPUT-LIGAND-PDBQT: ATOM     13  C   UNL     1       0.780   3.004  -4.438  1.00  0.00     0.013 A 
INPUT-LIGAND-PDBQT: ATOM     14  C   UNL     1      -2.095   4.341  -2.529  1.00  0.00     0.030 A 
INPUT-LIGAND-PDBQT: ATOM     15  C   UNL     1      -0.328   3.792  -4.109  1.00  0.00     0.002 A 
INPUT-LIGAND-PDBQT: ATOM     16  C   UNL     1      -2.554   5.339  -3.395  1.00  0.00     0.023 A 
INPUT-LIGAND-PDBQT: ATOM     17  C   UNL     1      -0.794   4.795  -4.973  1.00  0.00     0.030 A 
INPUT-LIGAND-PDBQT: ATOM     18  C   UNL     1      -1.906   5.566  -4.615  1.00  0.00     0.041 A 
INPUT-LIGAND-PDBQT: ATOM     19  Cl  UNL     1      -2.488   6.819  -5.696  1.00  0.00    -0.084 Cl
INPUT-LIGAND-PDBQT: ENDBRANCH   6   9
INPUT-LIGAND-PDBQT: ENDBRANCH   4   5
INPUT-LIGAND-PDBQT: ENDBRANCH   1   4
INPUT-LIGAND-PDBQT: BRANCH   1  20
INPUT-LIGAND-PDBQT: ATOM     20  N   UNL     1       0.418  -1.760   2.811  1.00  0.00    -0.332 N 
INPUT-LIGAND-PDBQT: ATOM     21  C   UNL     1       0.247  -1.744   4.254  1.00  0.00     0.152 C 
INPUT-LIGAND-PDBQT: ATOM     22  C   UNL     1       0.907  -3.049   2.326  1.00  0.00     0.118 C 
INPUT-LIGAND-PDBQT: ATOM     23  C   UNL     1       0.889  -3.033   4.766  1.00  0.00     0.136 C 
INPUT-LIGAND-PDBQT: ATOM     24  C   UNL     1       0.948  -3.963   3.555  1.00  0.00     0.063 C 
INPUT-LIGAND-PDBQT: BRANCH  22  25
INPUT-LIGAND-PDBQT: ATOM     25  C   UNL     1       0.010  -3.620   1.244  1.00  0.00    -0.025 A 
INPUT-LIGAND-PDBQT: ATOM     26  C   UNL     1      -1.390  -3.602   1.382  1.00  0.00     0.006 A 
INPUT-LIGAND-PDBQT: ATOM     27  C   UNL     1       0.577  -4.207   0.100  1.00  0.00     0.006 A 
INPUT-LIGAND-PDBQT: ATOM     28  C   UNL     1      -2.205  -4.141   0.382  1.00  0.00     0.000 A 
INPUT-LIGAND-PDBQT: ATOM     29  C   UNL     1      -0.243  -4.744  -0.898  1.00  0.00     0.000 A 
INPUT-LIGAND-PDBQT: ATOM     30  C   UNL     1      -1.632  -4.709  -0.758  1.00  0.00     0.000 A 
INPUT-LIGAND-PDBQT: ENDBRANCH  22  25
INPUT-LIGAND-PDBQT: BRANCH  23  31
INPUT-LIGAND-PDBQT: ATOM     31  O   UNL     1       2.192  -2.779   5.223  1.00  0.00    -0.391 OA
INPUT-LIGAND-PDBQT: ATOM     32  H   UNL     1       2.102  -2.379   6.128  1.00  0.00     0.211 HD
INPUT-LIGAND-PDBQT: ENDBRANCH  23  31
INPUT-LIGAND-PDBQT: ENDBRANCH   1  20
INPUT-LIGAND-PDBQT: TORSDOF 7


    FINAL DOCKED STATE:
    ________________________


Run:   1 / 20
Time taken for this run:   0.039s

DOCKED: MODEL        1
DOCKED: USER    Run = 1
DOCKED: USER
DOCKED: USER    Estimated Free Energy of Binding    =  -8.02 kcal/mol  [=(1)+(2)+(3)-(4)]
DOCKED: USER
DOCKED: USER    (1) Final Intermolecular Energy     = -10.11 kcal/mol
DOCKED: USER        vdW + Hbond + desolv Energy     = -10.05 kcal/mol
DOCKED: USER        Electrostatic Energy            =  -0.07 kcal/mol
DOCKED: USER        Moving Ligand-Fixed Receptor    = -10.11 kcal/mol
DOCKED: USER        Moving Ligand-Moving Receptor   =  +0.00 kcal/mol
DOCKED: USER    (2) Final Total Internal Energy     =  -1.85 kcal/mol
DOCKED: USER    (3) Torsional Free Energy           =  +2.09 kcal/mol
DOCKED: USER    (4) Unbound System's Energy         =  -1.85 kcal/mol
DOCKED: USER
DOCKED: USER
DOCKED: REMARK SMILES O=C(N/C=C(\O)N1C[C@H](O)C[C@H]1c1ccccc1)c1ccc2cc(Cl)ccc2n1
DOCKED: REMARK SMILES IDX 5 1 6 2 4 4 3 5 2 6 1 8 19 9 29 10 20 11 28 12 21 13 27 14
DOCKED: REMARK SMILES IDX 22 15 26 16 23 17 24 18 25 19 7 20 8 21 12 22 9 23 11 24
DOCKED: REMARK SMILES IDX 13 25 14 26 18 27 15 28 17 29 16 30 10 31
DOCKED: REMARK H PARENT 6 3 3 7 10 32
DOCKED: USER                              x       y       z     vdW  Elec       q    Type
DOCKED: USER                           _______ _______ _______ _____ _____    ______ ____
DOCKED: ROOT
DOCKED: ATOM      1  C   UNL     1     141.317  75.621 220.517 -0.19 -0.07    +0.204 C  
DOCKED: ENDROOT
DOCKED: BRANCH   1   2
DOCKED: ATOM      2  O   UNL     1     142.434  74.805 220.726 -0.12 +0.18    -0.494 OA 
DOCKED: ATOM      3  H   UNL     1     142.441  73.805 220.580 +0.12 -0.07    +0.295 HD 
DOCKED: ENDBRANCH   1   2
DOCKED: BRANCH   1   4
DOCKED: ATOM      4  C   UNL     1     140.103  75.290 220.999 -0.20 -0.04    +0.152 C  
DOCKED: BRANCH   4   5
DOCKED: ATOM      5  N   UNL     1     139.907  74.296 222.018 -0.14 +0.03    -0.322 N  
DOCKED: ATOM      6  C   UNL     1     140.314  72.931 221.823 -0.19 -0.03    +0.273 C  
DOCKED: ATOM      7  H   UNL     1     139.555  74.576 222.958 -0.43 -0.01    +0.169 HD 
DOCKED: ATOM      8  O   UNL     1     140.760  72.564 220.700 -0.10 +0.04    -0.267 OA 
DOCKED: BRANCH   6   9
DOCKED: ATOM      9  C   UNL     1     140.208  71.949 222.924 -0.29 -0.02    +0.129 A  
DOCKED: ATOM     10  N   UNL     1     140.688  72.265 224.159 -0.06 +0.02    -0.243 NA 
DOCKED: ATOM     11  C   UNL     1     139.621  70.689 222.716 -0.24 -0.01    +0.035 A  
DOCKED: ATOM     12  C   UNL     1     140.620  71.402 225.207 -0.50 -0.01    +0.071 A  
DOCKED: ATOM     13  C   UNL     1     139.537  69.780 223.774 -0.28 -0.00    +0.013 A  
DOCKED: ATOM     14  C   UNL     1     141.128  71.771 226.457 -0.69 -0.00    +0.030 A  
DOCKED: ATOM     15  C   UNL     1     140.037  70.127 225.033 -0.44 -0.00    +0.002 A  
DOCKED: ATOM     16  C   UNL     1     141.057  70.880 227.533 -0.66 -0.00    +0.023 A  
DOCKED: ATOM     17  C   UNL     1     139.969  69.238 226.117 -0.48 -0.00    +0.030 A  
DOCKED: ATOM     18  C   UNL     1     140.480  69.616 227.365 -0.56 -0.01    +0.041 A  
DOCKED: ATOM     19  Cl  UNL     1     140.395  68.504 228.719 -0.67 +0.02    -0.084 Cl 
DOCKED: ENDBRANCH   6   9
DOCKED: ENDBRANCH   4   5
DOCKED: ENDBRANCH   1   4
DOCKED: BRANCH   1  20
DOCKED: ATOM     20  N   UNL     1     141.512  76.852 219.787 -0.09 +0.16    -0.332 N  
DOCKED: ATOM     21  C   UNL     1     141.131  76.977 218.390 -0.09 -0.06    +0.152 C  
DOCKED: ATOM     22  C   UNL     1     142.116  78.076 220.308 -0.13 -0.08    +0.118 C  
DOCKED: ATOM     23  C   UNL     1     141.741  78.292 217.906 -0.18 -0.08    +0.136 C  
DOCKED: ATOM     24  C   UNL     1     142.012  79.102 219.174 -0.23 -0.04    +0.063 C  
DOCKED: BRANCH  22  25
DOCKED: ATOM     25  C   UNL     1     141.410  78.564 221.559 -0.37 +0.01    -0.025 A  
DOCKED: ATOM     26  C   UNL     1     140.006  78.557 221.645 -0.25 -0.00    +0.006 A  
DOCKED: ATOM     27  C   UNL     1     142.159  79.064 222.638 -0.54 -0.00    +0.006 A  
DOCKED: ATOM     28  C   UNL     1     139.367  79.019 222.800 -0.33 -0.00    +0.000 A  
DOCKED: ATOM     29  C   UNL     1     141.515  79.524 223.791 -0.60 -0.00    +0.000 A  
DOCKED: ATOM     30  C   UNL     1     140.122  79.500 223.873 -0.45 -0.00    +0.000 A  
DOCKED: ENDBRANCH  22  25
DOCKED: BRANCH  23  31
DOCKED: ATOM     31  O   UNL     1     142.952  78.050 217.239 -0.19 +0.38    -0.391 OA 
DOCKED: ATOM     32  H   UNL     1     143.337  78.940 217.019 -0.47 -0.36    +0.211 HD 
DOCKED: ENDBRANCH  23  31
DOCKED: ENDBRANCH   1  20
DOCKED: TORSDOF 7
DOCKED: TER
DOCKED: ENDMDL
________________________________________________________________________________


    FINAL DOCKED STATE:
    ________________________


Run:   2 / 20
Time taken for this run:   0.039s

DOCKED: MODEL        2
DOCKED: USER    Run = 2
DOCKED: USER
DOCKED: USER    Estimated Free Energy of Binding    =  -6.78 kcal/mol  [=(1)+(2)+(3)-(4)]
DOCKED: USER
DOCKED: USER    (1) Final Intermolecular Energy     =  -8.87 kcal/mol
DOCKED: USER        vdW + Hbond + desolv Energy     =  -8.79 kcal/mol
DOCKED: USER        Electrostatic Energy            =  -0.08 kcal/mol
DOCKED: USER        Moving Ligand-Fixed Receptor    =  -8.87 kcal/mol
DOCKED: USER        Moving Ligand-Moving Receptor   =  +0.00 kcal/mol
DOCKED: USER    (2) Final Total Internal Energy     =  -1.97 kcal/mol
DOCKED: USER    (3) Torsional Free Energy           =  +2.09 kcal/mol
DOCKED: USER    (4) Unbound System's Energy         =  -1.97 kcal/mol
DOCKED: USER
DOCKED: USER
DOCKED: REMARK SMILES O=C(N/C=C(\O)N1C[C@H](O)C[C@H]1c1ccccc1)c1ccc2cc(Cl)ccc2n1
DOCKED: REMARK SMILES IDX 5 1 6 2 4 4 3 5 2 6 1 8 19 9 29 10 20 11 28 12 21 13 27 14
DOCKED: REMARK SMILES IDX 22 15 26 16 23 17 24 18 25 19 7 20 8 21 12 22 9 23 11 24
DOCKED: REMARK SMILES IDX 13 25 14 26 18 27 15 28 17 29 16 30 10 31
DOCKED: REMARK H PARENT 6 3 3 7 10 32
DOCKED: USER                              x       y       z     vdW  Elec       q    Type
DOCKED: USER                           _______ _______ _______ _____ _____    ______ ____
DOCKED: ROOT
DOCKED: ATOM      1  C   UNL     1     137.682  71.398 222.953 -0.14 -0.05    +0.204 C  
DOCKED: ENDROOT
DOCKED: BRANCH   1   2
DOCKED: ATOM      2  O   UNL     1     137.002  71.943 224.047 -0.02 +0.16    -0.494 OA 
DOCKED: ATOM      3  H   UNL     1     136.835  72.932 224.176 -0.48 -0.16    +0.295 HD 
DOCKED: ENDBRANCH   1   2
DOCKED: BRANCH   1   4
DOCKED: ATOM      4  C   UNL     1     137.944  72.128 221.850 -0.11 -0.04    +0.152 C  
DOCKED: BRANCH   4   5
DOCKED: ATOM      5  N   UNL     1     138.394  73.492 221.901 -0.09 +0.09    -0.322 N  
DOCKED: ATOM      6  C   UNL     1     137.524  74.554 222.332 +0.05 -0.10    +0.273 C  
DOCKED: ATOM      7  H   UNL     1     139.395  73.717 221.721 +0.02 -0.03    +0.169 HD 
DOCKED: ATOM      8  O   UNL     1     136.310  74.310 222.574 -0.12 +0.08    -0.267 OA 
DOCKED: BRANCH   6   9
DOCKED: ATOM      9  C   UNL     1     138.039  75.932 222.487 -0.23 -0.03    +0.129 A  
DOCKED: ATOM     10  N   UNL     1     139.383  76.151 222.532 -0.27 +0.05    -0.243 NA 
DOCKED: ATOM     11  C   UNL     1     137.161  77.025 222.590 -0.23 -0.01    +0.035 A  
DOCKED: ATOM     12  C   UNL     1     139.912  77.394 222.675 -0.28 -0.02    +0.071 A  
DOCKED: ATOM     13  C   UNL     1     137.675  78.316 222.739 -0.23 -0.00    +0.013 A  
DOCKED: ATOM     14  C   UNL     1     141.299  77.569 222.719 -0.32 -0.01    +0.030 A  
DOCKED: ATOM     15  C   UNL     1     139.059  78.515 222.783 -0.32 -0.00    +0.002 A  
DOCKED: ATOM     16  C   UNL     1     141.840  78.850 222.867 -0.53 -0.01    +0.023 A  
DOCKED: ATOM     17  C   UNL     1     139.608  79.797 222.932 -0.34 -0.01    +0.030 A  
DOCKED: ATOM     18  C   UNL     1     140.998  79.963 222.974 -0.45 -0.01    +0.041 A  
DOCKED: ATOM     19  Cl  UNL     1     141.684  81.566 223.160 -0.57 +0.01    -0.084 Cl 
DOCKED: ENDBRANCH   6   9
DOCKED: ENDBRANCH   4   5
DOCKED: ENDBRANCH   1   4
DOCKED: BRANCH   1  20
DOCKED: ATOM     20  N   UNL     1     138.123  70.026 223.051 -0.07 +0.06    -0.332 N  
DOCKED: ATOM     21  C   UNL     1     138.425  69.237 221.868 -0.11 -0.03    +0.152 C  
DOCKED: ATOM     22  C   UNL     1     138.291  69.261 224.284 -0.27 -0.01    +0.118 C  
DOCKED: ATOM     23  C   UNL     1     138.575  67.796 222.354 -0.20 -0.02    +0.136 C  
DOCKED: ATOM     24  C   UNL     1     138.851  67.902 223.853 -0.18 -0.00    +0.063 C  
DOCKED: BRANCH  22  25
DOCKED: ATOM     25  C   UNL     1     139.225  69.958 225.256 -0.40 +0.00    -0.025 A  
DOCKED: ATOM     26  C   UNL     1     140.151  70.916 224.807 -0.48 -0.00    +0.006 A  
DOCKED: ATOM     27  C   UNL     1     139.193  69.624 226.621 -0.44 -0.00    +0.006 A  
DOCKED: ATOM     28  C   UNL     1     141.013  71.544 225.711 -0.61 -0.00    +0.000 A  
DOCKED: ATOM     29  C   UNL     1     140.057  70.256 227.522 -0.61 -0.00    +0.000 A  
DOCKED: ATOM     30  C   UNL     1     140.964  71.216 227.068 -0.72 -0.00    +0.000 A  
DOCKED: ENDBRANCH  22  25
DOCKED: BRANCH  23  31
DOCKED: ATOM     31  O   UNL     1     137.380  67.087 222.149 -0.08 +0.07    -0.391 OA 
DOCKED: ATOM     32  H   UNL     1     137.161  67.174 221.183 +0.04 -0.04    +0.211 HD 
DOCKED: ENDBRANCH  23  31
DOCKED: ENDBRANCH   1  20
DOCKED: TORSDOF 7
DOCKED: TER
DOCKED: ENDMDL
________________________________________________________________________________


    FINAL DOCKED STATE:
    ________________________


Run:   3 / 20
Time taken for this run:   0.039s

DOCKED: MODEL        3
DOCKED: USER    Run = 3
DOCKED: USER
DOCKED: USER    Estimated Free Energy of Binding    =  -8.01 kcal/mol  [=(1)+(2)+(3)-(4)]
DOCKED: USER
DOCKED: USER    (1) Final Intermolecular Energy     = -10.10 kcal/mol
DOCKED: USER        vdW + Hbond + desolv Energy     = -10.04 kcal/mol
DOCKED: USER        Electrostatic Energy            =  -0.06 kcal/mol
DOCKED: USER        Moving Ligand-Fixed Receptor    = -10.10 kcal/mol
DOCKED: USER        Moving Ligand-Moving Receptor   =  +0.00 kcal/mol
DOCKED: USER    (2) Final Total Internal Energy     =  -1.84 kcal/mol
DOCKED: USER    (3) Torsional Free Energy           =  +2.09 kcal/mol
DOCKED: USER    (4) Unbound System's Energy         =  -1.84 kcal/mol
DOCKED: USER
DOCKED: USER
DOCKED: REMARK SMILES O=C(N/C=C(\O)N1C[C@H](O)C[C@H]1c1ccccc1)c1ccc2cc(Cl)ccc2n1
DOCKED: REMARK SMILES IDX 5 1 6 2 4 4 3 5 2 6 1 8 19 9 29 10 20 11 28 12 21 13 27 14
DOCKED: REMARK SMILES IDX 22 15 26 16 23 17 24 18 25 19 7 20 8 21 12 22 9 23 11 24
DOCKED: REMARK SMILES IDX 13 25 14 26 18 27 15 28 17 29 16 30 10 31
DOCKED: REMARK H PARENT 6 3 3 7 10 32
DOCKED: USER                              x       y       z     vdW  Elec       q    Type
DOCKED: USER                           _______ _______ _______ _____ _____    ______ ____
DOCKED: ROOT
DOCKED: ATOM      1  C   UNL     1     141.313  75.634 220.529 -0.19 -0.07    +0.204 C  
DOCKED: ENDROOT
DOCKED: BRANCH   1   2
DOCKED: ATOM      2  O   UNL     1     142.436  74.832 220.758 -0.12 +0.19    -0.494 OA 
DOCKED: ATOM      3  H   UNL     1     142.443  73.825 220.670 +0.12 -0.07    +0.295 HD 
DOCKED: ENDBRANCH   1   2
DOCKED: BRANCH   1   4
DOCKED: ATOM      4  C   UNL     1     140.096  75.292 220.999 -0.20 -0.04    +0.152 C  
DOCKED: BRANCH   4   5
DOCKED: ATOM      5  N   UNL     1     139.899  74.299 222.018 -0.14 +0.03    -0.322 N  
DOCKED: ATOM      6  C   UNL     1     140.305  72.933 221.824 -0.19 -0.03    +0.273 C  
DOCKED: ATOM      7  H   UNL     1     139.546  74.580 222.958 -0.44 -0.01    +0.169 HD 
DOCKED: ATOM      8  O   UNL     1     140.751  72.565 220.703 -0.10 +0.04    -0.267 OA 
DOCKED: BRANCH   6   9
DOCKED: ATOM      9  C   UNL     1     140.198  71.952 222.927 -0.29 -0.02    +0.129 A  
DOCKED: ATOM     10  N   UNL     1     140.679  72.268 224.161 -0.05 +0.02    -0.243 NA 
DOCKED: ATOM     11  C   UNL     1     139.607  70.693 222.720 -0.24 -0.01    +0.035 A  
DOCKED: ATOM     12  C   UNL     1     140.610  71.405 225.210 -0.50 -0.01    +0.071 A  
DOCKED: ATOM     13  C   UNL     1     139.522  69.785 223.778 -0.28 -0.00    +0.013 A  
DOCKED: ATOM     14  C   UNL     1     141.120  71.774 226.459 -0.69 -0.00    +0.030 A  
DOCKED: ATOM     15  C   UNL     1     140.024  70.132 225.037 -0.44 -0.00    +0.002 A  
DOCKED: ATOM     16  C   UNL     1     141.048  70.884 227.536 -0.66 -0.00    +0.023 A  
DOCKED: ATOM     17  C   UNL     1     139.955  69.244 226.122 -0.48 -0.00    +0.030 A  
DOCKED: ATOM     18  C   UNL     1     140.467  69.621 227.368 -0.56 -0.01    +0.041 A  
DOCKED: ATOM     19  Cl  UNL     1     140.381  68.510 228.723 -0.67 +0.02    -0.084 Cl 
DOCKED: ENDBRANCH   6   9
DOCKED: ENDBRANCH   4   5
DOCKED: ENDBRANCH   1   4
DOCKED: BRANCH   1  20
DOCKED: ATOM     20  N   UNL     1     141.502  76.862 219.794 -0.09 +0.16    -0.332 N  
DOCKED: ATOM     21  C   UNL     1     141.119  76.980 218.397 -0.08 -0.06    +0.152 C  
DOCKED: ATOM     22  C   UNL     1     142.102  78.091 220.309 -0.13 -0.08    +0.118 C  
DOCKED: ATOM     23  C   UNL     1     141.723  78.295 217.907 -0.18 -0.08    +0.136 C  
DOCKED: ATOM     24  C   UNL     1     141.993  79.111 219.170 -0.24 -0.04    +0.063 C  
DOCKED: BRANCH  22  25
DOCKED: ATOM     25  C   UNL     1     141.396  78.582 221.558 -0.37 +0.01    -0.025 A  
DOCKED: ATOM     26  C   UNL     1     142.126  79.089 222.649 -0.54 -0.00    +0.006 A  
DOCKED: ATOM     27  C   UNL     1     139.996  78.502 221.650 -0.25 -0.00    +0.006 A  
DOCKED: ATOM     28  C   UNL     1     141.463  79.529 223.799 -0.59 -0.00    +0.000 A  
DOCKED: ATOM     29  C   UNL     1     139.337  78.944 222.802 -0.33 -0.00    +0.000 A  
DOCKED: ATOM     30  C   UNL     1     140.070  79.459 223.874 -0.45 -0.00    +0.000 A  
DOCKED: ENDBRANCH  22  25
DOCKED: BRANCH  23  31
DOCKED: ATOM     31  O   UNL     1     142.934  78.055 217.239 -0.19 +0.38    -0.391 OA 
DOCKED: ATOM     32  H   UNL     1     143.321  78.944 217.023 -0.47 -0.36    +0.211 HD 
DOCKED: ENDBRANCH  23  31
DOCKED: ENDBRANCH   1  20
DOCKED: TORSDOF 7
DOCKED: TER
DOCKED: ENDMDL
________________________________________________________________________________


    FINAL DOCKED STATE:
    ________________________


Run:   4 / 20
Time taken for this run:   0.039s

DOCKED: MODEL        4
DOCKED: USER    Run = 4
DOCKED: USER
DOCKED: USER    Estimated Free Energy of Binding    =  -7.14 kcal/mol  [=(1)+(2)+(3)-(4)]
DOCKED: USER
DOCKED: USER    (1) Final Intermolecular Energy     =  -9.23 kcal/mol
DOCKED: USER        vdW + Hbond + desolv Energy     =  -9.16 kcal/mol
DOCKED: USER        Electrostatic Energy            =  -0.07 kcal/mol
DOCKED: USER        Moving Ligand-Fixed Receptor    =  -9.23 kcal/mol
DOCKED: USER        Moving Ligand-Moving Receptor   =  +0.00 kcal/mol
DOCKED: USER    (2) Final Total Internal Energy     =  -2.15 kcal/mol
DOCKED: USER    (3) Torsional Free Energy           =  +2.09 kcal/mol
DOCKED: USER    (4) Unbound System's Energy         =  -2.15 kcal/mol
DOCKED: USER
DOCKED: USER
DOCKED: REMARK SMILES O=C(N/C=C(\O)N1C[C@H](O)C[C@H]1c1ccccc1)c1ccc2cc(Cl)ccc2n1
DOCKED: REMARK SMILES IDX 5 1 6 2 4 4 3 5 2 6 1 8 19 9 29 10 20 11 28 12 21 13 27 14
DOCKED: REMARK SMILES IDX 22 15 26 16 23 17 24 18 25 19 7 20 8 21 12 22 9 23 11 24
DOCKED: REMARK SMILES IDX 13 25 14 26 18 27 15 28 17 29 16 30 10 31
DOCKED: REMARK H PARENT 6 3 3 7 10 32
DOCKED: USER                              x       y       z     vdW  Elec       q    Type
DOCKED: USER                           _______ _______ _______ _____ _____    ______ ____
DOCKED: ROOT
DOCKED: ATOM      1  C   UNL     1     140.133  74.803 219.936 -0.07 -0.05    +0.204 C  
DOCKED: ENDROOT
DOCKED: BRANCH   1   2
DOCKED: ATOM      2  O   UNL     1     139.944  73.765 219.018 +0.02 +0.11    -0.494 OA 
DOCKED: ATOM      3  H   UNL     1     139.486  72.891 219.236 +0.04 -0.06    +0.295 HD 
DOCKED: ENDBRANCH   1   2
DOCKED: BRANCH   1   4
DOCKED: ATOM      4  C   UNL     1     139.385  74.901 221.053 -0.17 -0.03    +0.152 C  
DOCKED: BRANCH   4   5
DOCKED: ATOM      5  N   UNL     1     139.440  73.940 222.121 -0.13 +0.06    -0.322 N  
DOCKED: ATOM      6  C   UNL     1     139.471  72.527 221.858 -0.16 -0.05    +0.273 C  
DOCKED: ATOM      7  H   UNL     1     139.561  74.262 223.105 -0.52 -0.01    +0.169 HD 
DOCKED: ATOM      8  O   UNL     1     139.344  72.106 220.675 -0.05 +0.05    -0.267 OA 
DOCKED: BRANCH   6   9
DOCKED: ATOM      9  C   UNL     1     139.643  71.559 222.964 -0.27 -0.03    +0.129 A  
DOCKED: ATOM     10  N   UNL     1     140.187  71.971 224.143 -0.23 +0.04    -0.243 NA 
DOCKED: ATOM     11  C   UNL     1     139.254  70.216 222.818 -0.21 -0.01    +0.035 A  
DOCKED: ATOM     12  C   UNL     1     140.371  71.125 225.192 -0.49 -0.01    +0.071 A  
DOCKED: ATOM     13  C   UNL     1     139.431  69.324 223.878 -0.26 -0.00    +0.013 A  
DOCKED: ATOM     14  C   UNL     1     140.936  71.594 226.383 -0.66 -0.00    +0.030 A  
DOCKED: ATOM     15  C   UNL     1     139.993  69.770 225.079 -0.42 -0.00    +0.002 A  
DOCKED: ATOM     16  C   UNL     1     141.124  70.722 227.460 -0.60 -0.00    +0.023 A  
DOCKED: ATOM     17  C   UNL     1     140.184  68.900 226.163 -0.52 -0.01    +0.030 A  
DOCKED: ATOM     18  C   UNL     1     140.750  69.377 227.351 -0.57 -0.01    +0.041 A  
DOCKED: ATOM     19  Cl  UNL     1     140.990  68.289 228.706 -0.70 +0.02    -0.084 Cl 
DOCKED: ENDBRANCH   6   9
DOCKED: ENDBRANCH   4   5
DOCKED: ENDBRANCH   1   4
DOCKED: BRANCH   1  20
DOCKED: ATOM     20  N   UNL     1     141.182  75.758 219.664 -0.05 +0.12    -0.332 N  
DOCKED: ATOM     21  C   UNL     1     141.059  77.154 220.052 -0.17 -0.07    +0.152 C  
DOCKED: ATOM     22  C   UNL     1     142.438  75.485 218.969 -0.19 -0.05    +0.118 C  
DOCKED: ATOM     23  C   UNL     1     142.208  77.884 219.357 -0.23 -0.09    +0.136 C  
DOCKED: ATOM     24  C   UNL     1     143.227  76.798 219.014 -0.31 -0.04    +0.063 C  
DOCKED: BRANCH  22  25
DOCKED: ATOM     25  C   UNL     1     143.209  74.355 219.624 -0.29 +0.01    -0.025 A  
DOCKED: ATOM     26  C   UNL     1     142.681  73.052 219.672 -0.19 -0.00    +0.006 A  
DOCKED: ATOM     27  C   UNL     1     144.454  74.611 220.224 -0.46 -0.00    +0.006 A  
DOCKED: ATOM     28  C   UNL     1     143.398  72.022 220.288 -0.28 -0.00    +0.000 A  
DOCKED: ATOM     29  C   UNL     1     145.168  73.577 220.838 -0.61 -0.00    +0.000 A  
DOCKED: ATOM     30  C   UNL     1     144.641  72.284 220.868 -0.35 -0.00    +0.000 A  
DOCKED: ENDBRANCH  22  25
DOCKED: BRANCH  23  31
DOCKED: ATOM     31  O   UNL     1     141.755  78.488 218.173 -0.10 +0.24    -0.391 OA 
DOCKED: ATOM     32  H   UNL     1     142.565  78.733 217.652 +0.03 -0.20    +0.211 HD 
DOCKED: ENDBRANCH  23  31
DOCKED: ENDBRANCH   1  20
DOCKED: TORSDOF 7
DOCKED: TER
DOCKED: ENDMDL
________________________________________________________________________________


    FINAL DOCKED STATE:
    ________________________


Run:   5 / 20
Time taken for this run:   0.039s

DOCKED: MODEL        5
DOCKED: USER    Run = 5
DOCKED: USER
DOCKED: USER    Estimated Free Energy of Binding    =  -7.96 kcal/mol  [=(1)+(2)+(3)-(4)]
DOCKED: USER
DOCKED: USER    (1) Final Intermolecular Energy     = -10.05 kcal/mol
DOCKED: USER        vdW + Hbond + desolv Energy     = -10.01 kcal/mol
DOCKED: USER        Electrostatic Energy            =  -0.04 kcal/mol
DOCKED: USER        Moving Ligand-Fixed Receptor    = -10.05 kcal/mol
DOCKED: USER        Moving Ligand-Moving Receptor   =  +0.00 kcal/mol
DOCKED: USER    (2) Final Total Internal Energy     =  -1.38 kcal/mol
DOCKED: USER    (3) Torsional Free Energy           =  +2.09 kcal/mol
DOCKED: USER    (4) Unbound System's Energy         =  -1.38 kcal/mol
DOCKED: USER
DOCKED: USER
DOCKED: REMARK SMILES O=C(N/C=C(\O)N1C[C@H](O)C[C@H]1c1ccccc1)c1ccc2cc(Cl)ccc2n1
DOCKED: REMARK SMILES IDX 5 1 6 2 4 4 3 5 2 6 1 8 19 9 29 10 20 11 28 12 21 13 27 14
DOCKED: REMARK SMILES IDX 22 15 26 16 23 17 24 18 25 19 7 20 8 21 12 22 9 23 11 24
DOCKED: REMARK SMILES IDX 13 25 14 26 18 27 15 28 17 29 16 30 10 31
DOCKED: REMARK H PARENT 6 3 3 7 10 32
DOCKED: USER                              x       y       z     vdW  Elec       q    Type
DOCKED: USER                           _______ _______ _______ _____ _____    ______ ____
DOCKED: ROOT
DOCKED: ATOM      1  C   UNL     1     140.755  76.142 221.000 -0.21 -0.07    +0.204 C  
DOCKED: ENDROOT
DOCKED: BRANCH   1   2
DOCKED: ATOM      2  O   UNL     1     141.837  76.920 220.578 -0.09 +0.29    -0.494 OA 
DOCKED: ATOM      3  H   UNL     1     142.636  77.143 221.155 -0.37 -0.31    +0.295 HD 
DOCKED: ENDBRANCH   1   2
DOCKED: BRANCH   1   4
DOCKED: ATOM      4  C   UNL     1     140.744  74.803 220.840 -0.21 -0.04    +0.152 C  
DOCKED: BRANCH   4   5
DOCKED: ATOM      5  N   UNL     1     140.685  73.882 221.941 -0.16 +0.01    -0.322 N  
DOCKED: ATOM      6  C   UNL     1     139.784  72.761 221.935 -0.18 -0.05    +0.273 C  
DOCKED: ATOM      7  H   UNL     1     141.373  73.958 222.721 +0.11 +0.06    +0.169 HD 
DOCKED: ATOM      8  O   UNL     1     138.951  72.632 220.996 -0.06 +0.05    -0.267 OA 
DOCKED: BRANCH   6   9
DOCKED: ATOM      9  C   UNL     1     139.819  71.761 223.025 -0.29 -0.02    +0.129 A  
DOCKED: ATOM     10  N   UNL     1     140.381  72.086 224.222 -0.19 +0.04    -0.243 NA 
DOCKED: ATOM     11  C   UNL     1     139.283  70.474 222.844 -0.23 -0.01    +0.035 A  
DOCKED: ATOM     12  C   UNL     1     140.443  71.207 225.257 -0.50 -0.01    +0.071 A  
DOCKED: ATOM     13  C   UNL     1     139.332  69.549 223.889 -0.28 -0.00    +0.013 A  
DOCKED: ATOM     14  C   UNL     1     141.032  71.586 226.469 -0.69 -0.00    +0.030 A  
DOCKED: ATOM     15  C   UNL     1     139.914  69.906 225.109 -0.42 -0.00    +0.002 A  
DOCKED: ATOM     16  C   UNL     1     141.095  70.679 227.531 -0.62 -0.00    +0.023 A  
DOCKED: ATOM     17  C   UNL     1     139.981  69.001 226.180 -0.51 -0.00    +0.030 A  
DOCKED: ATOM     18  C   UNL     1     140.571  69.389 227.388 -0.57 -0.01    +0.041 A  
DOCKED: ATOM     19  Cl  UNL     1     140.655  68.256 228.726 -0.63 +0.02    -0.084 Cl 
DOCKED: ENDBRANCH   6   9
DOCKED: ENDBRANCH   4   5
DOCKED: ENDBRANCH   1   4
DOCKED: BRANCH   1  20
DOCKED: ATOM     20  N   UNL     1     139.652  76.816 221.644 -0.12 +0.08    -0.332 N  
DOCKED: ATOM     21  C   UNL     1     138.611  76.079 222.342 -0.25 -0.03    +0.152 C  
DOCKED: ATOM     22  C   UNL     1     139.415  78.258 221.662 -0.19 -0.03    +0.118 C  
DOCKED: ATOM     23  C   UNL     1     137.503  77.091 222.631 -0.21 -0.02    +0.136 C  
DOCKED: ATOM     24  C   UNL     1     138.174  78.461 222.537 -0.23 -0.01    +0.063 C  
DOCKED: BRANCH  22  25
DOCKED: ATOM     25  C   UNL     1     140.607  79.017 222.211 -0.34 +0.01    -0.025 A  
DOCKED: ATOM     26  C   UNL     1     141.106  78.746 223.498 -0.53 -0.00    +0.006 A  
DOCKED: ATOM     27  C   UNL     1     141.208  80.031 221.445 -0.35 -0.00    +0.006 A  
DOCKED: ATOM     28  C   UNL     1     142.200  79.460 223.997 -0.55 -0.00    +0.000 A  
DOCKED: ATOM     29  C   UNL     1     142.302  80.742 221.948 -0.48 -0.00    +0.000 A  
DOCKED: ATOM     30  C   UNL     1     142.799  80.456 223.222 -0.67 -0.00    +0.000 A  
DOCKED: ENDBRANCH  22  25
DOCKED: BRANCH  23  31
DOCKED: ATOM     31  O   UNL     1     136.494  76.998 221.659 -0.03 +0.07    -0.391 OA 
DOCKED: ATOM     32  H   UNL     1     136.907  76.574 220.861 +0.03 -0.04    +0.211 HD 
DOCKED: ENDBRANCH  23  31
DOCKED: ENDBRANCH   1  20
DOCKED: TORSDOF 7
DOCKED: TER
DOCKED: ENDMDL
________________________________________________________________________________


    FINAL DOCKED STATE:
    ________________________


Run:   6 / 20
Time taken for this run:   0.039s

DOCKED: MODEL        6
DOCKED: USER    Run = 6
DOCKED: USER
DOCKED: USER    Estimated Free Energy of Binding    =  -8.52 kcal/mol  [=(1)+(2)+(3)-(4)]
DOCKED: USER
DOCKED: USER    (1) Final Intermolecular Energy     = -10.61 kcal/mol
DOCKED: USER        vdW + Hbond + desolv Energy     = -10.55 kcal/mol
DOCKED: USER        Electrostatic Energy            =  -0.06 kcal/mol
DOCKED: USER        Moving Ligand-Fixed Receptor    = -10.61 kcal/mol
DOCKED: USER        Moving Ligand-Moving Receptor   =  +0.00 kcal/mol
DOCKED: USER    (2) Final Total Internal Energy     =  -1.19 kcal/mol
DOCKED: USER    (3) Torsional Free Energy           =  +2.09 kcal/mol
DOCKED: USER    (4) Unbound System's Energy         =  -1.19 kcal/mol
DOCKED: USER
DOCKED: USER
DOCKED: REMARK SMILES O=C(N/C=C(\O)N1C[C@H](O)C[C@H]1c1ccccc1)c1ccc2cc(Cl)ccc2n1
DOCKED: REMARK SMILES IDX 5 1 6 2 4 4 3 5 2 6 1 8 19 9 29 10 20 11 28 12 21 13 27 14
DOCKED: REMARK SMILES IDX 22 15 26 16 23 17 24 18 25 19 7 20 8 21 12 22 9 23 11 24
DOCKED: REMARK SMILES IDX 13 25 14 26 18 27 15 28 17 29 16 30 10 31
DOCKED: REMARK H PARENT 6 3 3 7 10 32
DOCKED: USER                              x       y       z     vdW  Elec       q    Type
DOCKED: USER                           _______ _______ _______ _____ _____    ______ ____
DOCKED: ROOT
DOCKED: ATOM      1  C   UNL     1     140.023  76.345 221.474 -0.23 -0.05    +0.204 C  
DOCKED: ENDROOT
DOCKED: BRANCH   1   2
DOCKED: ATOM      2  O   UNL     1     141.347  76.749 221.280 -0.11 +0.24    -0.494 OA 
DOCKED: ATOM      3  H   UNL     1     142.112  76.499 221.892 -0.43 -0.26    +0.295 HD 
DOCKED: ENDBRANCH   1   2
DOCKED: BRANCH   1   4
DOCKED: ATOM      4  C   UNL     1     139.631  75.077 221.240 -0.21 -0.03    +0.152 C  
DOCKED: BRANCH   4   5
DOCKED: ATOM      5  N   UNL     1     139.594  74.066 222.261 -0.11 +0.05    -0.322 N  
DOCKED: ATOM      6  C   UNL     1     139.803  72.678 221.950 -0.19 -0.05    +0.273 C  
DOCKED: ATOM      7  H   UNL     1     139.515  74.341 223.263 -0.49 -0.02    +0.169 HD 
DOCKED: ATOM      8  O   UNL     1     139.918  72.315 220.747 -0.07 +0.05    -0.267 OA 
DOCKED: BRANCH   6   9
DOCKED: ATOM      9  C   UNL     1     139.875  71.667 223.029 -0.29 -0.02    +0.129 A  
DOCKED: ATOM     10  N   UNL     1     140.370  72.016 224.249 -0.22 +0.04    -0.243 NA 
DOCKED: ATOM     11  C   UNL     1     139.441  70.347 222.814 -0.22 -0.01    +0.035 A  
DOCKED: ATOM     12  C   UNL     1     140.461  71.130 225.275 -0.50 -0.01    +0.071 A  
DOCKED: ATOM     13  C   UNL     1     139.523  69.413 223.850 -0.25 -0.00    +0.013 A  
DOCKED: ATOM     14  C   UNL     1     140.979  71.534 226.511 -0.68 -0.00    +0.030 A  
DOCKED: ATOM     15  C   UNL     1     140.036  69.795 225.094 -0.42 -0.00    +0.002 A  
DOCKED: ATOM     16  C   UNL     1     141.072  70.619 227.565 -0.62 -0.00    +0.023 A  
DOCKED: ATOM     17  C   UNL     1     140.133  68.883 226.156 -0.52 -0.01    +0.030 A  
DOCKED: ATOM     18  C   UNL     1     140.651  69.296 227.388 -0.58 -0.01    +0.041 A  
DOCKED: ATOM     19  Cl  UNL     1     140.773  68.154 228.715 -0.65 +0.02    -0.084 Cl 
DOCKED: ENDBRANCH   6   9
DOCKED: ENDBRANCH   4   5
DOCKED: ENDBRANCH   1   4
DOCKED: BRANCH   1  20
DOCKED: ATOM     20  N   UNL     1     139.084  77.328 221.964 -0.12 +0.07    -0.332 N  
DOCKED: ATOM     21  C   UNL     1     137.868  76.940 222.657 -0.23 -0.03    +0.152 C  
DOCKED: ATOM     22  C   UNL     1     139.198  78.778 221.814 -0.18 -0.03    +0.118 C  
DOCKED: ATOM     23  C   UNL     1     137.021  78.209 222.759 -0.15 -0.02    +0.136 C  
DOCKED: ATOM     24  C   UNL     1     138.003  79.365 222.571 -0.21 -0.01    +0.063 C  
DOCKED: BRANCH  22  25
DOCKED: ATOM     25  C   UNL     1     140.511  79.300 222.365 -0.35 +0.01    -0.025 A  
DOCKED: ATOM     26  C   UNL     1     141.378  80.065 221.564 -0.38 -0.00    +0.006 A  
DOCKED: ATOM     27  C   UNL     1     140.890  78.991 223.683 -0.51 -0.00    +0.006 A  
DOCKED: ATOM     28  C   UNL     1     142.590  80.531 222.082 -0.51 -0.00    +0.000 A  
DOCKED: ATOM     29  C   UNL     1     142.104  79.461 224.196 -0.49 -0.00    +0.000 A  
DOCKED: ATOM     30  C   UNL     1     142.951  80.231 223.398 -0.67 -0.00    +0.000 A  
DOCKED: ENDBRANCH  22  25
DOCKED: BRANCH  23  31
DOCKED: ATOM     31  O   UNL     1     136.064  78.238 221.732 -0.02 +0.06    -0.391 OA 
DOCKED: ATOM     32  H   UNL     1     136.042  79.171 221.392 +0.03 -0.03    +0.211 HD 
DOCKED: ENDBRANCH  23  31
DOCKED: ENDBRANCH   1  20
DOCKED: TORSDOF 7
DOCKED: TER
DOCKED: ENDMDL
________________________________________________________________________________


    FINAL DOCKED STATE:
    ________________________


Run:   7 / 20
Time taken for this run:   0.039s

DOCKED: MODEL        7
DOCKED: USER    Run = 7
DOCKED: USER
DOCKED: USER    Estimated Free Energy of Binding    =  -8.03 kcal/mol  [=(1)+(2)+(3)-(4)]
DOCKED: USER
DOCKED: USER    (1) Final Intermolecular Energy     = -10.11 kcal/mol
DOCKED: USER        vdW + Hbond + desolv Energy     = -10.05 kcal/mol
DOCKED: USER        Electrostatic Energy            =  -0.06 kcal/mol
DOCKED: USER        Moving Ligand-Fixed Receptor    = -10.11 kcal/mol
DOCKED: USER        Moving Ligand-Moving Receptor   =  +0.00 kcal/mol
DOCKED: USER    (2) Final Total Internal Energy     =  -1.83 kcal/mol
DOCKED: USER    (3) Torsional Free Energy           =  +2.09 kcal/mol
DOCKED: USER    (4) Unbound System's Energy         =  -1.83 kcal/mol
DOCKED: USER
DOCKED: USER
DOCKED: REMARK SMILES O=C(N/C=C(\O)N1C[C@H](O)C[C@H]1c1ccccc1)c1ccc2cc(Cl)ccc2n1
DOCKED: REMARK SMILES IDX 5 1 6 2 4 4 3 5 2 6 1 8 19 9 29 10 20 11 28 12 21 13 27 14
DOCKED: REMARK SMILES IDX 22 15 26 16 23 17 24 18 25 19 7 20 8 21 12 22 9 23 11 24
DOCKED: REMARK SMILES IDX 13 25 14 26 18 27 15 28 17 29 16 30 10 31
DOCKED: REMARK H PARENT 6 3 3 7 10 32
DOCKED: USER                              x       y       z     vdW  Elec       q    Type
DOCKED: USER                           _______ _______ _______ _____ _____    ______ ____
DOCKED: ROOT
DOCKED: ATOM      1  C   UNL     1     141.293  75.615 220.525 -0.19 -0.07    +0.204 C  
DOCKED: ENDROOT
DOCKED: BRANCH   1   2
DOCKED: ATOM      2  O   UNL     1     142.395  74.772 220.697 -0.12 +0.18    -0.494 OA 
DOCKED: ATOM      3  H   UNL     1     142.359  73.765 220.611 +0.12 -0.06    +0.295 HD 
DOCKED: ENDBRANCH   1   2
DOCKED: BRANCH   1   4
DOCKED: ATOM      4  C   UNL     1     140.084  75.308 221.037 -0.21 -0.03    +0.152 C  
DOCKED: BRANCH   4   5
DOCKED: ATOM      5  N   UNL     1     139.893  74.312 222.056 -0.12 +0.03    -0.322 N  
DOCKED: ATOM      6  C   UNL     1     140.264  72.940 221.842 -0.19 -0.03    +0.273 C  
DOCKED: ATOM      7  H   UNL     1     139.573  74.595 223.007 -0.46 -0.01    +0.169 HD 
DOCKED: ATOM      8  O   UNL     1     140.672  72.570 220.706 -0.10 +0.04    -0.267 OA 
DOCKED: BRANCH   6   9
DOCKED: ATOM      9  C   UNL     1     140.166  71.954 222.941 -0.29 -0.02    +0.129 A  
DOCKED: ATOM     10  N   UNL     1     140.661  72.262 224.172 -0.06 +0.02    -0.243 NA 
DOCKED: ATOM     11  C   UNL     1     139.571  70.697 222.735 -0.24 -0.01    +0.035 A  
DOCKED: ATOM     12  C   UNL     1     140.600  71.395 225.217 -0.50 -0.01    +0.071 A  
DOCKED: ATOM     13  C   UNL     1     139.494  69.784 223.789 -0.28 -0.00    +0.013 A  
DOCKED: ATOM     14  C   UNL     1     141.124  71.757 226.463 -0.69 -0.00    +0.030 A  
DOCKED: ATOM     15  C   UNL     1     140.010  70.124 225.044 -0.44 -0.00    +0.002 A  
DOCKED: ATOM     16  C   UNL     1     141.060  70.862 227.536 -0.66 -0.00    +0.023 A  
DOCKED: ATOM     17  C   UNL     1     139.950  69.231 226.125 -0.48 -0.00    +0.030 A  
DOCKED: ATOM     18  C   UNL     1     140.475  69.601 227.369 -0.56 -0.01    +0.041 A  
DOCKED: ATOM     19  Cl  UNL     1     140.400  68.484 228.719 -0.66 +0.02    -0.084 Cl 
DOCKED: ENDBRANCH   6   9
DOCKED: ENDBRANCH   4   5
DOCKED: ENDBRANCH   1   4
DOCKED: BRANCH   1  20
DOCKED: ATOM     20  N   UNL     1     141.496  76.849 219.802 -0.09 +0.16    -0.332 N  
DOCKED: ATOM     21  C   UNL     1     141.122  76.982 218.404 -0.09 -0.06    +0.152 C  
DOCKED: ATOM     22  C   UNL     1     142.104  78.068 220.331 -0.13 -0.08    +0.118 C  
DOCKED: ATOM     23  C   UNL     1     141.739  78.297 217.929 -0.18 -0.08    +0.136 C  
DOCKED: ATOM     24  C   UNL     1     142.009  79.099 219.201 -0.23 -0.04    +0.063 C  
DOCKED: BRANCH  22  25
DOCKED: ATOM     25  C   UNL     1     141.394  78.554 221.581 -0.37 +0.01    -0.025 A  
DOCKED: ATOM     26  C   UNL     1     142.121  79.064 222.672 -0.54 -0.00    +0.006 A  
DOCKED: ATOM     27  C   UNL     1     139.995  78.466 221.673 -0.26 -0.00    +0.006 A  
DOCKED: ATOM     28  C   UNL     1     141.456  79.499 223.822 -0.60 -0.00    +0.000 A  
DOCKED: ATOM     29  C   UNL     1     139.334  78.903 222.825 -0.34 -0.00    +0.000 A  
DOCKED: ATOM     30  C   UNL     1     140.064  79.421 223.898 -0.44 -0.00    +0.000 A  
DOCKED: ENDBRANCH  22  25
DOCKED: BRANCH  23  31
DOCKED: ATOM     31  O   UNL     1     142.952  78.052 217.266 -0.19 +0.38    -0.391 OA 
DOCKED: ATOM     32  H   UNL     1     143.353  78.940 217.070 -0.47 -0.36    +0.211 HD 
DOCKED: ENDBRANCH  23  31
DOCKED: ENDBRANCH   1  20
DOCKED: TORSDOF 7
DOCKED: TER
DOCKED: ENDMDL
________________________________________________________________________________


    FINAL DOCKED STATE:
    ________________________


Run:   8 / 20
Time taken for this run:   0.039s

DOCKED: MODEL        8
DOCKED: USER    Run = 8
DOCKED: USER
DOCKED: USER    Estimated Free Energy of Binding    =  -6.86 kcal/mol  [=(1)+(2)+(3)-(4)]
DOCKED: USER
DOCKED: USER    (1) Final Intermolecular Energy     =  -8.95 kcal/mol
DOCKED: USER        vdW + Hbond + desolv Energy     =  -8.85 kcal/mol
DOCKED: USER        Electrostatic Energy            =  -0.10 kcal/mol
DOCKED: USER        Moving Ligand-Fixed Receptor    =  -8.95 kcal/mol
DOCKED: USER        Moving Ligand-Moving Receptor   =  +0.00 kcal/mol
DOCKED: USER    (2) Final Total Internal Energy     =  -2.35 kcal/mol
DOCKED: USER    (3) Torsional Free Energy           =  +2.09 kcal/mol
DOCKED: USER    (4) Unbound System's Energy         =  -2.35 kcal/mol
DOCKED: USER
DOCKED: USER
DOCKED: REMARK SMILES O=C(N/C=C(\O)N1C[C@H](O)C[C@H]1c1ccccc1)c1ccc2cc(Cl)ccc2n1
DOCKED: REMARK SMILES IDX 5 1 6 2 4 4 3 5 2 6 1 8 19 9 29 10 20 11 28 12 21 13 27 14
DOCKED: REMARK SMILES IDX 22 15 26 16 23 17 24 18 25 19 7 20 8 21 12 22 9 23 11 24
DOCKED: REMARK SMILES IDX 13 25 14 26 18 27 15 28 17 29 16 30 10 31
DOCKED: REMARK H PARENT 6 3 3 7 10 32
DOCKED: USER                              x       y       z     vdW  Elec       q    Type
DOCKED: USER                           _______ _______ _______ _____ _____    ______ ____
DOCKED: ROOT
DOCKED: ATOM      1  C   UNL     1     140.907  76.945 220.381 -0.16 -0.08    +0.204 C  
DOCKED: ENDROOT
DOCKED: BRANCH   1   2
DOCKED: ATOM      2  O   UNL     1     139.912  77.038 219.402 +0.02 +0.15    -0.494 OA 
DOCKED: ATOM      3  H   UNL     1     139.190  76.345 219.260 +0.04 -0.08    +0.295 HD 
DOCKED: ENDBRANCH   1   2
DOCKED: BRANCH   1   4
DOCKED: ATOM      4  C   UNL     1     141.703  75.861 220.476 -0.22 -0.07    +0.152 C  
DOCKED: BRANCH   4   5
DOCKED: ATOM      5  N   UNL     1     141.396  74.732 221.311 -0.17 +0.07    -0.322 N  
DOCKED: ATOM      6  C   UNL     1     140.113  74.084 221.254 -0.17 -0.05    +0.273 C  
DOCKED: ATOM      7  H   UNL     1     142.140  74.303 221.901 +0.03 -0.02    +0.169 HD 
DOCKED: ATOM      8  O   UNL     1     139.196  74.570 220.536 -0.06 +0.06    -0.267 OA 
DOCKED: BRANCH   6   9
DOCKED: ATOM      9  C   UNL     1     139.856  72.855 222.038 -0.24 -0.02    +0.129 A  
DOCKED: ATOM     10  N   UNL     1     140.531  72.642 223.201 -0.34 +0.01    -0.243 NA 
DOCKED: ATOM     11  C   UNL     1     138.923  71.899 221.599 -0.15 -0.01    +0.035 A  
DOCKED: ATOM     12  C   UNL     1     140.337  71.531 223.960 -0.39 -0.01    +0.071 A  
DOCKED: ATOM     13  C   UNL     1     138.702  70.747 222.357 -0.18 -0.00    +0.013 A  
DOCKED: ATOM     14  C   UNL     1     141.056  71.355 225.147 -0.48 -0.00    +0.030 A  
DOCKED: ATOM     15  C   UNL     1     139.408  70.550 223.548 -0.32 -0.00    +0.002 A  
DOCKED: ATOM     16  C   UNL     1     140.854  70.211 225.926 -0.53 -0.00    +0.023 A  
DOCKED: ATOM     17  C   UNL     1     139.211  69.404 224.334 -0.32 -0.00    +0.030 A  
DOCKED: ATOM     18  C   UNL     1     139.934  69.236 225.520 -0.42 -0.01    +0.041 A  
DOCKED: ATOM     19  Cl  UNL     1     139.687  67.803 226.501 -0.80 +0.01    -0.084 Cl 
DOCKED: ENDBRANCH   6   9
DOCKED: ENDBRANCH   4   5
DOCKED: ENDBRANCH   1   4
DOCKED: BRANCH   1  20
DOCKED: ATOM     20  N   UNL     1     141.077  78.065 221.276 -0.12 +0.15    -0.332 N  
DOCKED: ATOM     21  C   UNL     1     141.822  79.249 220.881 -0.25 -0.08    +0.152 C  
DOCKED: ATOM     22  C   UNL     1     140.580  78.157 222.647 -0.37 -0.03    +0.118 C  
DOCKED: ATOM     23  C   UNL     1     142.021  80.064 222.158 -0.44 -0.05    +0.136 C  
DOCKED: ATOM     24  C   UNL     1     140.950  79.564 223.127 -0.47 -0.02    +0.063 C  
DOCKED: BRANCH  22  25
DOCKED: ATOM     25  C   UNL     1     139.082  77.926 222.719 -0.30 +0.00    -0.025 A  
DOCKED: ATOM     26  C   UNL     1     138.550  76.624 222.716 -0.30 -0.00    +0.006 A  
DOCKED: ATOM     27  C   UNL     1     138.204  79.023 222.754 -0.26 -0.00    +0.006 A  
DOCKED: ATOM     28  C   UNL     1     137.168  76.425 222.772 -0.27 -0.00    +0.000 A  
DOCKED: ATOM     29  C   UNL     1     136.821  78.819 222.811 -0.18 -0.00    +0.000 A  
DOCKED: ATOM     30  C   UNL     1     136.304  77.522 222.822 -0.19 -0.00    +0.000 A  
DOCKED: ENDBRANCH  22  25
DOCKED: BRANCH  23  31
DOCKED: ATOM     31  O   UNL     1     143.292  79.817 222.700 -0.35 +0.18    -0.391 OA 
DOCKED: ATOM     32  H   UNL     1     143.679  79.062 222.182 -0.46 -0.20    +0.211 HD 
DOCKED: ENDBRANCH  23  31
DOCKED: ENDBRANCH   1  20
DOCKED: TORSDOF 7
DOCKED: TER
DOCKED: ENDMDL
________________________________________________________________________________


    FINAL DOCKED STATE:
    ________________________


Run:   9 / 20
Time taken for this run:   0.039s

DOCKED: MODEL        9
DOCKED: USER    Run = 9
DOCKED: USER
DOCKED: USER    Estimated Free Energy of Binding    =  -7.99 kcal/mol  [=(1)+(2)+(3)-(4)]
DOCKED: USER
DOCKED: USER    (1) Final Intermolecular Energy     = -10.08 kcal/mol
DOCKED: USER        vdW + Hbond + desolv Energy     = -10.06 kcal/mol
DOCKED: USER        Electrostatic Energy            =  -0.02 kcal/mol
DOCKED: USER        Moving Ligand-Fixed Receptor    = -10.08 kcal/mol
DOCKED: USER        Moving Ligand-Moving Receptor   =  +0.00 kcal/mol
DOCKED: USER    (2) Final Total Internal Energy     =  -1.37 kcal/mol
DOCKED: USER    (3) Torsional Free Energy           =  +2.09 kcal/mol
DOCKED: USER    (4) Unbound System's Energy         =  -1.37 kcal/mol
DOCKED: USER
DOCKED: USER
DOCKED: REMARK SMILES O=C(N/C=C(\O)N1C[C@H](O)C[C@H]1c1ccccc1)c1ccc2cc(Cl)ccc2n1
DOCKED: REMARK SMILES IDX 5 1 6 2 4 4 3 5 2 6 1 8 19 9 29 10 20 11 28 12 21 13 27 14
DOCKED: REMARK SMILES IDX 22 15 26 16 23 17 24 18 25 19 7 20 8 21 12 22 9 23 11 24
DOCKED: REMARK SMILES IDX 13 25 14 26 18 27 15 28 17 29 16 30 10 31
DOCKED: REMARK H PARENT 6 3 3 7 10 32
DOCKED: USER                              x       y       z     vdW  Elec       q    Type
DOCKED: USER                           _______ _______ _______ _____ _____    ______ ____
DOCKED: ROOT
DOCKED: ATOM      1  C   UNL     1     139.700  76.159 221.589 -0.23 -0.05    +0.204 C  
DOCKED: ENDROOT
DOCKED: BRANCH   1   2
DOCKED: ATOM      2  O   UNL     1     141.070  76.378 221.761 -0.17 +0.19    -0.494 OA 
DOCKED: ATOM      3  H   UNL     1     141.742  75.648 221.954 -0.27 -0.12    +0.295 HD 
DOCKED: ENDBRANCH   1   2
DOCKED: BRANCH   1   4
DOCKED: ATOM      4  C   UNL     1     139.216  74.947 221.251 -0.18 -0.03    +0.152 C  
DOCKED: BRANCH   4   5
DOCKED: ATOM      5  N   UNL     1     139.154  73.843 222.168 -0.10 +0.08    -0.322 N  
DOCKED: ATOM      6  C   UNL     1     140.297  73.006 222.413 -0.10 -0.02    +0.273 C  
DOCKED: ATOM      7  H   UNL     1     138.301  73.695 222.748 -0.54 -0.09    +0.169 HD 
DOCKED: ATOM      8  O   UNL     1     141.351  73.170 221.739 -0.31 +0.01    -0.267 OA 
DOCKED: BRANCH   6   9
DOCKED: ATOM      9  C   UNL     1     140.247  71.946 223.445 -0.31 -0.02    +0.129 A  
DOCKED: ATOM     10  N   UNL     1     140.665  72.217 224.713 +0.04 +0.03    -0.243 NA 
DOCKED: ATOM     11  C   UNL     1     139.775  70.658 223.137 -0.26 -0.01    +0.035 A  
DOCKED: ATOM     12  C   UNL     1     140.644  71.282 225.699 -0.54 -0.01    +0.071 A  
DOCKED: ATOM     13  C   UNL     1     139.742  69.676 224.130 -0.27 -0.00    +0.013 A  
DOCKED: ATOM     14  C   UNL     1     141.085  71.608 226.986 -0.74 -0.00    +0.030 A  
DOCKED: ATOM     15  C   UNL     1     140.177  69.978 225.424 -0.46 -0.00    +0.002 A  
DOCKED: ATOM     16  C   UNL     1     141.063  70.643 227.999 -0.64 -0.00    +0.023 A  
DOCKED: ATOM     17  C   UNL     1     140.157  69.016 226.445 -0.53 -0.01    +0.030 A  
DOCKED: ATOM     18  C   UNL     1     140.600  69.349 227.730 -0.59 -0.01    +0.041 A  
DOCKED: ATOM     19  Cl  UNL     1     140.576  68.145 229.006 -0.32 +0.02    -0.084 Cl 
DOCKED: ENDBRANCH   6   9
DOCKED: ENDBRANCH   4   5
DOCKED: ENDBRANCH   1   4
DOCKED: BRANCH   1  20
DOCKED: ATOM     20  N   UNL     1     138.808  77.272 221.816 -0.10 +0.07    -0.332 N  
DOCKED: ATOM     21  C   UNL     1     137.483  77.083 222.384 -0.20 -0.03    +0.152 C  
DOCKED: ATOM     22  C   UNL     1     139.077  78.672 221.496 -0.15 -0.03    +0.118 C  
DOCKED: ATOM     23  C   UNL     1     136.757  78.415 222.205 -0.12 -0.02    +0.136 C  
DOCKED: ATOM     24  C   UNL     1     137.860  79.453 222.003 -0.15 -0.01    +0.063 C  
DOCKED: BRANCH  22  25
DOCKED: ATOM     25  C   UNL     1     140.357  79.162 222.147 -0.31 +0.01    -0.025 A  
DOCKED: ATOM     26  C   UNL     1     141.357  79.796 221.388 -0.36 -0.00    +0.006 A  
DOCKED: ATOM     27  C   UNL     1     140.569  78.954 223.521 -0.46 -0.00    +0.006 A  
DOCKED: ATOM     28  C   UNL     1     142.536  80.234 221.999 -0.50 -0.00    +0.000 A  
DOCKED: ATOM     29  C   UNL     1     141.750  79.394 224.127 -0.55 -0.00    +0.000 A  
DOCKED: ATOM     30  C   UNL     1     142.731  80.035 223.368 -0.65 -0.00    +0.000 A  
DOCKED: ENDBRANCH  22  25
DOCKED: BRANCH  23  31
DOCKED: ATOM     31  O   UNL     1     135.940  78.375 221.064 -0.01 +0.06    -0.391 OA 
DOCKED: ATOM     32  H   UNL     1     136.399  77.786 220.408 +0.02 -0.04    +0.211 HD 
DOCKED: ENDBRANCH  23  31
DOCKED: ENDBRANCH   1  20
DOCKED: TORSDOF 7
DOCKED: TER
DOCKED: ENDMDL
________________________________________________________________________________


    FINAL DOCKED STATE:
    ________________________


Run:   10 / 20
Time taken for this run:   0.039s

DOCKED: MODEL        10
DOCKED: USER    Run = 10
DOCKED: USER
DOCKED: USER    Estimated Free Energy of Binding    =  -7.35 kcal/mol  [=(1)+(2)+(3)-(4)]
DOCKED: USER
DOCKED: USER    (1) Final Intermolecular Energy     =  -9.44 kcal/mol
DOCKED: USER        vdW + Hbond + desolv Energy     =  -9.32 kcal/mol
DOCKED: USER        Electrostatic Energy            =  -0.11 kcal/mol
DOCKED: USER        Moving Ligand-Fixed Receptor    =  -9.44 kcal/mol
DOCKED: USER        Moving Ligand-Moving Receptor   =  +0.00 kcal/mol
DOCKED: USER    (2) Final Total Internal Energy     =  -1.84 kcal/mol
DOCKED: USER    (3) Torsional Free Energy           =  +2.09 kcal/mol
DOCKED: USER    (4) Unbound System's Energy         =  -1.84 kcal/mol
DOCKED: USER
DOCKED: USER
DOCKED: REMARK SMILES O=C(N/C=C(\O)N1C[C@H](O)C[C@H]1c1ccccc1)c1ccc2cc(Cl)ccc2n1
DOCKED: REMARK SMILES IDX 5 1 6 2 4 4 3 5 2 6 1 8 19 9 29 10 20 11 28 12 21 13 27 14
DOCKED: REMARK SMILES IDX 22 15 26 16 23 17 24 18 25 19 7 20 8 21 12 22 9 23 11 24
DOCKED: REMARK SMILES IDX 13 25 14 26 18 27 15 28 17 29 16 30 10 31
DOCKED: REMARK H PARENT 6 3 3 7 10 32
DOCKED: USER                              x       y       z     vdW  Elec       q    Type
DOCKED: USER                           _______ _______ _______ _____ _____    ______ ____
DOCKED: ROOT
DOCKED: ATOM      1  C   UNL     1     140.013  74.814 219.678 -0.05 -0.05    +0.204 C  
DOCKED: ENDROOT
DOCKED: BRANCH   1   2
DOCKED: ATOM      2  O   UNL     1     139.066  75.702 220.197 +0.01 +0.12    -0.494 OA 
DOCKED: ATOM      3  H   UNL     1     138.725  75.676 221.149 +0.08 -0.07    +0.295 HD 
DOCKED: ENDBRANCH   1   2
DOCKED: BRANCH   1   4
DOCKED: ATOM      4  C   UNL     1     139.747  73.499 219.543 -0.04 -0.03    +0.152 C  
DOCKED: BRANCH   4   5
DOCKED: ATOM      5  N   UNL     1     139.926  72.550 220.607 -0.04 +0.06    -0.322 N  
DOCKED: ATOM      6  C   UNL     1     139.776  72.930 221.986 -0.19 -0.04    +0.273 C  
DOCKED: ATOM      7  H   UNL     1     140.069  71.541 220.386 +0.04 -0.03    +0.169 HD 
DOCKED: ATOM      8  O   UNL     1     139.585  74.141 222.285 -0.79 +0.04    -0.267 OA 
DOCKED: BRANCH   6   9
DOCKED: ATOM      9  C   UNL     1     139.852  71.914 223.059 -0.29 -0.02    +0.129 A  
DOCKED: ATOM     10  N   UNL     1     140.362  72.254 224.276 -0.09 +0.04    -0.243 NA 
DOCKED: ATOM     11  C   UNL     1     139.408  70.598 222.843 -0.24 -0.01    +0.035 A  
DOCKED: ATOM     12  C   UNL     1     140.457  71.362 225.297 -0.50 -0.01    +0.071 A  
DOCKED: ATOM     13  C   UNL     1     139.494  69.659 223.873 -0.28 -0.00    +0.013 A  
DOCKED: ATOM     14  C   UNL     1     140.990  71.758 226.529 -0.69 -0.00    +0.030 A  
DOCKED: ATOM     15  C   UNL     1     140.021  70.031 225.114 -0.43 -0.00    +0.002 A  
DOCKED: ATOM     16  C   UNL     1     141.088  70.837 227.578 -0.65 -0.00    +0.023 A  
DOCKED: ATOM     17  C   UNL     1     140.123  69.113 226.171 -0.50 -0.01    +0.030 A  
DOCKED: ATOM     18  C   UNL     1     140.656  69.517 227.400 -0.57 -0.01    +0.041 A  
DOCKED: ATOM     19  Cl  UNL     1     140.783  68.369 228.720 -0.69 +0.02    -0.084 Cl 
DOCKED: ENDBRANCH   6   9
DOCKED: ENDBRANCH   4   5
DOCKED: ENDBRANCH   1   4
DOCKED: BRANCH   1  20
DOCKED: ATOM     20  N   UNL     1     141.285  75.355 219.259 -0.03 +0.11    -0.332 N  
DOCKED: ATOM     21  C   UNL     1     141.746  75.242 217.886 -0.05 -0.05    +0.152 C  
DOCKED: ATOM     22  C   UNL     1     142.257  76.031 220.116 -0.25 -0.06    +0.118 C  
DOCKED: ATOM     23  C   UNL     1     143.214  75.666 217.901 -0.18 -0.07    +0.136 C  
DOCKED: ATOM     24  C   UNL     1     143.386  76.480 219.182 -0.33 -0.04    +0.063 C  
DOCKED: BRANCH  22  25
DOCKED: ATOM     25  C   UNL     1     141.642  77.211 220.844 -0.27 +0.01    -0.025 A  
DOCKED: ATOM     26  C   UNL     1     141.719  78.510 220.309 -0.30 -0.00    +0.006 A  
DOCKED: ATOM     27  C   UNL     1     141.013  77.019 222.086 -0.39 -0.00    +0.006 A  
DOCKED: ATOM     28  C   UNL     1     141.156  79.591 220.995 -0.31 -0.00    +0.000 A  
DOCKED: ATOM     29  C   UNL     1     140.451  78.103 222.768 -0.42 -0.00    +0.000 A  
DOCKED: ATOM     30  C   UNL     1     140.521  79.387 222.222 -0.34 -0.00    +0.000 A  
DOCKED: ENDBRANCH  22  25
DOCKED: BRANCH  23  31
DOCKED: ATOM     31  O   UNL     1     144.045  74.535 217.952 -0.08 +0.15    -0.391 OA 
DOCKED: ATOM     32  H   UNL     1     144.978  74.865 217.860 -0.48 -0.14    +0.211 HD 
DOCKED: ENDBRANCH  23  31
DOCKED: ENDBRANCH   1  20
DOCKED: TORSDOF 7
DOCKED: TER
DOCKED: ENDMDL
________________________________________________________________________________


    FINAL DOCKED STATE:
    ________________________


Run:   11 / 20
Time taken for this run:   0.039s

DOCKED: MODEL        11
DOCKED: USER    Run = 11
DOCKED: USER
DOCKED: USER    Estimated Free Energy of Binding    =  -7.80 kcal/mol  [=(1)+(2)+(3)-(4)]
DOCKED: USER
DOCKED: USER    (1) Final Intermolecular Energy     =  -9.89 kcal/mol
DOCKED: USER        vdW + Hbond + desolv Energy     =  -9.75 kcal/mol
DOCKED: USER        Electrostatic Energy            =  -0.14 kcal/mol
DOCKED: USER        Moving Ligand-Fixed Receptor    =  -9.89 kcal/mol
DOCKED: USER        Moving Ligand-Moving Receptor   =  +0.00 kcal/mol
DOCKED: USER    (2) Final Total Internal Energy     =  -1.43 kcal/mol
DOCKED: USER    (3) Torsional Free Energy           =  +2.09 kcal/mol
DOCKED: USER    (4) Unbound System's Energy         =  -1.43 kcal/mol
DOCKED: USER
DOCKED: USER
DOCKED: REMARK SMILES O=C(N/C=C(\O)N1C[C@H](O)C[C@H]1c1ccccc1)c1ccc2cc(Cl)ccc2n1
DOCKED: REMARK SMILES IDX 5 1 6 2 4 4 3 5 2 6 1 8 19 9 29 10 20 11 28 12 21 13 27 14
DOCKED: REMARK SMILES IDX 22 15 26 16 23 17 24 18 25 19 7 20 8 21 12 22 9 23 11 24
DOCKED: REMARK SMILES IDX 13 25 14 26 18 27 15 28 17 29 16 30 10 31
DOCKED: REMARK H PARENT 6 3 3 7 10 32
DOCKED: USER                              x       y       z     vdW  Elec       q    Type
DOCKED: USER                           _______ _______ _______ _____ _____    ______ ____
DOCKED: ROOT
DOCKED: ATOM      1  C   UNL     1     138.082  71.282 223.204 -0.16 -0.05    +0.204 C  
DOCKED: ENDROOT
DOCKED: BRANCH   1   2
DOCKED: ATOM      2  O   UNL     1     137.312  71.852 224.222 +0.03 +0.17    -0.494 OA 
DOCKED: ATOM      3  H   UNL     1     137.037  72.824 224.249 -0.47 -0.19    +0.295 HD 
DOCKED: ENDBRANCH   1   2
DOCKED: BRANCH   1   4
DOCKED: ATOM      4  C   UNL     1     138.433  71.984 222.108 -0.14 -0.04    +0.152 C  
DOCKED: BRANCH   4   5
DOCKED: ATOM      5  N   UNL     1     138.988  73.308 222.169 -0.09 +0.09    -0.322 N  
DOCKED: ATOM      6  C   UNL     1     140.089  73.700 221.332 -0.17 -0.04    +0.273 C  
DOCKED: ATOM      7  H   UNL     1     138.529  74.038 222.754 -0.55 -0.09    +0.169 HD 
DOCKED: ATOM      8  O   UNL     1     140.656  72.842 220.599 -0.09 +0.04    -0.267 OA 
DOCKED: BRANCH   6   9
DOCKED: ATOM      9  C   UNL     1     140.571  75.099 221.327 -0.26 -0.03    +0.129 A  
DOCKED: ATOM     10  N   UNL     1     140.013  76.008 222.174 -0.34 +0.05    -0.243 NA 
DOCKED: ATOM     11  C   UNL     1     141.598  75.508 220.458 -0.26 -0.01    +0.035 A  
DOCKED: ATOM     12  C   UNL     1     140.414  77.306 222.211 -0.36 -0.02    +0.071 A  
DOCKED: ATOM     13  C   UNL     1     142.032  76.835 220.473 -0.25 -0.01    +0.013 A  
DOCKED: ATOM     14  C   UNL     1     139.810  78.205 223.098 -0.26 -0.01    +0.030 A  
DOCKED: ATOM     15  C   UNL     1     141.443  77.751 221.352 -0.34 -0.00    +0.002 A  
DOCKED: ATOM     16  C   UNL     1     140.224  79.540 223.133 -0.42 -0.00    +0.023 A  
DOCKED: ATOM     17  C   UNL     1     141.854  79.092 221.393 -0.37 -0.02    +0.030 A  
DOCKED: ATOM     18  C   UNL     1     141.244  79.984 222.282 -0.41 -0.01    +0.041 A  
DOCKED: ATOM     19  Cl  UNL     1     141.758  81.661 222.333 -0.51 +0.02    -0.084 Cl 
DOCKED: ENDBRANCH   6   9
DOCKED: ENDBRANCH   4   5
DOCKED: ENDBRANCH   1   4
DOCKED: BRANCH   1  20
DOCKED: ATOM     20  N   UNL     1     138.519  69.916 223.375 -0.09 +0.06    -0.332 N  
DOCKED: ATOM     21  C   UNL     1     138.897  69.089 222.242 -0.14 -0.03    +0.152 C  
DOCKED: ATOM     22  C   UNL     1     138.611  69.193 224.642 -0.30 -0.01    +0.118 C  
DOCKED: ATOM     23  C   UNL     1     139.019  67.665 222.784 -0.07 -0.03    +0.136 C  
DOCKED: ATOM     24  C   UNL     1     139.200  67.822 224.293 -0.18 -0.01    +0.063 C  
DOCKED: BRANCH  22  25
DOCKED: ATOM     25  C   UNL     1     139.479  69.926 225.647 -0.43 +0.00    -0.025 A  
DOCKED: ATOM     26  C   UNL     1     139.384  69.648 227.023 -0.49 -0.00    +0.006 A  
DOCKED: ATOM     27  C   UNL     1     140.370  70.922 225.210 -0.53 -0.00    +0.006 A  
DOCKED: ATOM     28  C   UNL     1     140.183  70.338 227.939 -0.65 -0.00    +0.000 A  
DOCKED: ATOM     29  C   UNL     1     141.168  71.609 226.131 -0.66 -0.00    +0.000 A  
DOCKED: ATOM     30  C   UNL     1     141.076  71.316 227.494 -0.76 -0.00    +0.000 A  
DOCKED: ENDBRANCH  22  25
DOCKED: BRANCH  23  31
DOCKED: ATOM     31  O   UNL     1     137.841  66.945 222.527 -0.07 +0.06    -0.391 OA 
DOCKED: ATOM     32  H   UNL     1     137.178  67.600 222.182 +0.04 -0.03    +0.211 HD 
DOCKED: ENDBRANCH  23  31
DOCKED: ENDBRANCH   1  20
DOCKED: TORSDOF 7
DOCKED: TER
DOCKED: ENDMDL
________________________________________________________________________________


    FINAL DOCKED STATE:
    ________________________


Run:   12 / 20
Time taken for this run:   0.039s

DOCKED: MODEL        12
DOCKED: USER    Run = 12
DOCKED: USER
DOCKED: USER    Estimated Free Energy of Binding    =  -7.96 kcal/mol  [=(1)+(2)+(3)-(4)]
DOCKED: USER
DOCKED: USER    (1) Final Intermolecular Energy     = -10.05 kcal/mol
DOCKED: USER        vdW + Hbond + desolv Energy     =  -9.92 kcal/mol
DOCKED: USER        Electrostatic Energy            =  -0.12 kcal/mol
DOCKED: USER        Moving Ligand-Fixed Receptor    = -10.05 kcal/mol
DOCKED: USER        Moving Ligand-Moving Receptor   =  +0.00 kcal/mol
DOCKED: USER    (2) Final Total Internal Energy     =  -1.70 kcal/mol
DOCKED: USER    (3) Torsional Free Energy           =  +2.09 kcal/mol
DOCKED: USER    (4) Unbound System's Energy         =  -1.70 kcal/mol
DOCKED: USER
DOCKED: USER
DOCKED: REMARK SMILES O=C(N/C=C(\O)N1C[C@H](O)C[C@H]1c1ccccc1)c1ccc2cc(Cl)ccc2n1
DOCKED: REMARK SMILES IDX 5 1 6 2 4 4 3 5 2 6 1 8 19 9 29 10 20 11 28 12 21 13 27 14
DOCKED: REMARK SMILES IDX 22 15 26 16 23 17 24 18 25 19 7 20 8 21 12 22 9 23 11 24
DOCKED: REMARK SMILES IDX 13 25 14 26 18 27 15 28 17 29 16 30 10 31
DOCKED: REMARK H PARENT 6 3 3 7 10 32
DOCKED: USER                              x       y       z     vdW  Elec       q    Type
DOCKED: USER                           _______ _______ _______ _____ _____    ______ ____
DOCKED: ROOT
DOCKED: ATOM      1  C   UNL     1     140.781  75.906 221.061 -0.22 -0.06    +0.204 C  
DOCKED: ENDROOT
DOCKED: BRANCH   1   2
DOCKED: ATOM      2  O   UNL     1     141.084  76.656 222.202 -0.18 +0.19    -0.494 OA 
DOCKED: ATOM      3  H   UNL     1     142.019  76.790 222.562 -0.36 -0.26    +0.295 HD 
DOCKED: ENDBRANCH   1   2
DOCKED: BRANCH   1   4
DOCKED: ATOM      4  C   UNL     1     139.837  74.944 221.080 -0.20 -0.03    +0.152 C  
DOCKED: BRANCH   4   5
DOCKED: ATOM      5  N   UNL     1     139.740  73.960 222.123 -0.13 +0.04    -0.322 N  
DOCKED: ATOM      6  C   UNL     1     139.998  72.569 221.869 -0.19 -0.04    +0.273 C  
DOCKED: ATOM      7  H   UNL     1     139.577  74.260 223.109 -0.52 -0.01    +0.169 HD 
DOCKED: ATOM      8  O   UNL     1     140.215  72.177 220.689 -0.07 +0.04    -0.267 OA 
DOCKED: BRANCH   6   9
DOCKED: ATOM      9  C   UNL     1     140.005  71.589 222.978 -0.29 -0.02    +0.129 A  
DOCKED: ATOM     10  N   UNL     1     140.501  71.950 224.195 -0.24 +0.03    -0.243 NA 
DOCKED: ATOM     11  C   UNL     1     139.508  70.287 222.797 -0.21 -0.01    +0.035 A  
DOCKED: ATOM     12  C   UNL     1     140.535  71.091 225.248 -0.50 -0.01    +0.071 A  
DOCKED: ATOM     13  C   UNL     1     139.529  69.382 223.860 -0.24 -0.00    +0.013 A  
DOCKED: ATOM     14  C   UNL     1     141.056  71.507 226.478 -0.69 -0.00    +0.030 A  
DOCKED: ATOM     15  C   UNL     1     140.045  69.775 225.100 -0.42 -0.00    +0.002 A  
DOCKED: ATOM     16  C   UNL     1     141.089  70.621 227.560 -0.61 -0.00    +0.023 A  
DOCKED: ATOM     17  C   UNL     1     140.082  68.892 226.190 -0.52 -0.01    +0.030 A  
DOCKED: ATOM     18  C   UNL     1     140.604  69.315 227.417 -0.58 -0.01    +0.041 A  
DOCKED: ATOM     19  Cl  UNL     1     140.651  68.210 228.778 -0.57 +0.02    -0.084 Cl 
DOCKED: ENDBRANCH   6   9
DOCKED: ENDBRANCH   4   5
DOCKED: ENDBRANCH   1   4
DOCKED: BRANCH   1  20
DOCKED: ATOM     20  N   UNL     1     141.496  76.214 219.845 -0.08 +0.14    -0.332 N  
DOCKED: ATOM     21  C   UNL     1     141.573  77.570 219.330 -0.19 -0.08    +0.152 C  
DOCKED: ATOM     22  C   UNL     1     142.182  75.254 218.982 -0.15 -0.04    +0.118 C  
DOCKED: ATOM     23  C   UNL     1     142.148  77.450 217.919 -0.20 -0.08    +0.136 C  
DOCKED: ATOM     24  C   UNL     1     142.843  76.090 217.881 -0.21 -0.03    +0.063 C  
DOCKED: BRANCH  22  25
DOCKED: ATOM     25  C   UNL     1     143.209  74.443 219.749 -0.31 +0.01    -0.025 A  
DOCKED: ATOM     26  C   UNL     1     144.451  74.999 220.105 -0.38 -0.00    +0.006 A  
DOCKED: ATOM     27  C   UNL     1     142.938  73.105 220.084 -0.25 -0.00    +0.006 A  
DOCKED: ATOM     28  C   UNL     1     145.393  74.237 220.803 -0.56 -0.00    +0.000 A  
DOCKED: ATOM     29  C   UNL     1     143.883  72.347 220.783 -0.35 -0.00    +0.000 A  
DOCKED: ATOM     30  C   UNL     1     145.108  72.913 221.144 -0.51 -0.00    +0.000 A  
DOCKED: ENDBRANCH  22  25
DOCKED: BRANCH  23  31
DOCKED: ATOM     31  O   UNL     1     141.115  77.473 216.969 -0.02 +0.19    -0.391 OA 
DOCKED: ATOM     32  H   UNL     1     140.310  77.823 217.434 +0.03 -0.08    +0.211 HD 
DOCKED: ENDBRANCH  23  31
DOCKED: ENDBRANCH   1  20
DOCKED: TORSDOF 7
DOCKED: TER
DOCKED: ENDMDL
________________________________________________________________________________


    FINAL DOCKED STATE:
    ________________________


Run:   13 / 20
Time taken for this run:   0.039s

DOCKED: MODEL        13
DOCKED: USER    Run = 13
DOCKED: USER
DOCKED: USER    Estimated Free Energy of Binding    =  -7.42 kcal/mol  [=(1)+(2)+(3)-(4)]
DOCKED: USER
DOCKED: USER    (1) Final Intermolecular Energy     =  -9.50 kcal/mol
DOCKED: USER        vdW + Hbond + desolv Energy     =  -9.37 kcal/mol
DOCKED: USER        Electrostatic Energy            =  -0.14 kcal/mol
DOCKED: USER        Moving Ligand-Fixed Receptor    =  -9.50 kcal/mol
DOCKED: USER        Moving Ligand-Moving Receptor   =  +0.00 kcal/mol
DOCKED: USER    (2) Final Total Internal Energy     =  -1.74 kcal/mol
DOCKED: USER    (3) Torsional Free Energy           =  +2.09 kcal/mol
DOCKED: USER    (4) Unbound System's Energy         =  -1.74 kcal/mol
DOCKED: USER
DOCKED: USER
DOCKED: REMARK SMILES O=C(N/C=C(\O)N1C[C@H](O)C[C@H]1c1ccccc1)c1ccc2cc(Cl)ccc2n1
DOCKED: REMARK SMILES IDX 5 1 6 2 4 4 3 5 2 6 1 8 19 9 29 10 20 11 28 12 21 13 27 14
DOCKED: REMARK SMILES IDX 22 15 26 16 23 17 24 18 25 19 7 20 8 21 12 22 9 23 11 24
DOCKED: REMARK SMILES IDX 13 25 14 26 18 27 15 28 17 29 16 30 10 31
DOCKED: REMARK H PARENT 6 3 3 7 10 32
DOCKED: USER                              x       y       z     vdW  Elec       q    Type
DOCKED: USER                           _______ _______ _______ _____ _____    ______ ____
DOCKED: ROOT
DOCKED: ATOM      1  C   UNL     1     140.021  74.829 219.740 -0.05 -0.05    +0.204 C  
DOCKED: ENDROOT
DOCKED: BRANCH   1   2
DOCKED: ATOM      2  O   UNL     1     139.104  75.696 220.343 +0.00 +0.12    -0.494 OA 
DOCKED: ATOM      3  H   UNL     1     138.836  75.652 221.316 +0.08 -0.07    +0.295 HD 
DOCKED: ENDBRANCH   1   2
DOCKED: BRANCH   1   4
DOCKED: ATOM      4  C   UNL     1     139.747  73.520 219.572 -0.04 -0.03    +0.152 C  
DOCKED: BRANCH   4   5
DOCKED: ATOM      5  N   UNL     1     139.895  72.546 220.618 -0.04 +0.06    -0.322 N  
DOCKED: ATOM      6  C   UNL     1     139.940  72.932 222.002 -0.19 -0.04    +0.273 C  
DOCKED: ATOM      7  H   UNL     1     139.871  71.529 220.390 +0.03 -0.03    +0.169 HD 
DOCKED: ATOM      8  O   UNL     1     139.954  74.156 222.311 -0.85 +0.01    -0.267 OA 
DOCKED: BRANCH   6   9
DOCKED: ATOM      9  C   UNL     1     139.979  71.908 223.069 -0.30 -0.02    +0.129 A  
DOCKED: ATOM     10  N   UNL     1     140.475  72.228 224.296 -0.07 +0.03    -0.243 NA 
DOCKED: ATOM     11  C   UNL     1     139.511  70.602 222.836 -0.24 -0.01    +0.035 A  
DOCKED: ATOM     12  C   UNL     1     140.537  71.328 225.312 -0.50 -0.01    +0.071 A  
DOCKED: ATOM     13  C   UNL     1     139.562  69.654 223.860 -0.28 -0.00    +0.013 A  
DOCKED: ATOM     14  C   UNL     1     141.057  71.704 226.555 -0.70 -0.00    +0.030 A  
DOCKED: ATOM     15  C   UNL     1     140.077  70.008 225.112 -0.43 -0.00    +0.002 A  
DOCKED: ATOM     16  C   UNL     1     141.120  70.774 227.599 -0.61 -0.00    +0.023 A  
DOCKED: ATOM     17  C   UNL     1     140.143  69.080 226.163 -0.50 -0.01    +0.030 A  
DOCKED: ATOM     18  C   UNL     1     140.665  69.465 227.404 -0.57 -0.01    +0.041 A  
DOCKED: ATOM     19  Cl  UNL     1     140.748  68.304 228.717 -0.67 +0.02    -0.084 Cl 
DOCKED: ENDBRANCH   6   9
DOCKED: ENDBRANCH   4   5
DOCKED: ENDBRANCH   1   4
DOCKED: BRANCH   1  20
DOCKED: ATOM     20  N   UNL     1     141.269  75.387 219.274 -0.03 +0.11    -0.332 N  
DOCKED: ATOM     21  C   UNL     1     141.671  75.294 217.881 -0.05 -0.05    +0.152 C  
DOCKED: ATOM     22  C   UNL     1     142.270  76.063 220.096 -0.26 -0.06    +0.118 C  
DOCKED: ATOM     23  C   UNL     1     143.135  75.731 217.839 -0.18 -0.07    +0.136 C  
DOCKED: ATOM     24  C   UNL     1     143.354  76.534 219.120 -0.33 -0.04    +0.063 C  
DOCKED: BRANCH  22  25
DOCKED: ATOM     25  C   UNL     1     141.675  77.229 220.863 -0.25 +0.01    -0.025 A  
DOCKED: ATOM     26  C   UNL     1     141.023  77.027 222.092 -0.39 -0.00    +0.006 A  
DOCKED: ATOM     27  C   UNL     1     141.743  78.528 220.329 -0.30 -0.00    +0.006 A  
DOCKED: ATOM     28  C   UNL     1     140.469  78.109 222.784 -0.42 -0.00    +0.000 A  
DOCKED: ATOM     29  C   UNL     1     141.189  79.607 221.026 -0.31 -0.00    +0.000 A  
DOCKED: ATOM     30  C   UNL     1     140.555  79.398 222.252 -0.35 -0.00    +0.000 A  
DOCKED: ENDBRANCH  22  25
DOCKED: BRANCH  23  31
DOCKED: ATOM     31  O   UNL     1     143.978  74.608 217.841 -0.08 +0.15    -0.391 OA 
DOCKED: ATOM     32  H   UNL     1     144.910  74.953 217.842 -0.48 -0.14    +0.211 HD 
DOCKED: ENDBRANCH  23  31
DOCKED: ENDBRANCH   1  20
DOCKED: TORSDOF 7
DOCKED: TER
DOCKED: ENDMDL
________________________________________________________________________________


    FINAL DOCKED STATE:
    ________________________


Run:   14 / 20
Time taken for this run:   0.039s

DOCKED: MODEL        14
DOCKED: USER    Run = 14
DOCKED: USER
DOCKED: USER    Estimated Free Energy of Binding    =  -6.70 kcal/mol  [=(1)+(2)+(3)-(4)]
DOCKED: USER
DOCKED: USER    (1) Final Intermolecular Energy     =  -8.78 kcal/mol
DOCKED: USER        vdW + Hbond + desolv Energy     =  -8.75 kcal/mol
DOCKED: USER        Electrostatic Energy            =  -0.04 kcal/mol
DOCKED: USER        Moving Ligand-Fixed Receptor    =  -8.78 kcal/mol
DOCKED: USER        Moving Ligand-Moving Receptor   =  +0.00 kcal/mol
DOCKED: USER    (2) Final Total Internal Energy     =  -1.96 kcal/mol
DOCKED: USER    (3) Torsional Free Energy           =  +2.09 kcal/mol
DOCKED: USER    (4) Unbound System's Energy         =  -1.96 kcal/mol
DOCKED: USER
DOCKED: USER
DOCKED: REMARK SMILES O=C(N/C=C(\O)N1C[C@H](O)C[C@H]1c1ccccc1)c1ccc2cc(Cl)ccc2n1
DOCKED: REMARK SMILES IDX 5 1 6 2 4 4 3 5 2 6 1 8 19 9 29 10 20 11 28 12 21 13 27 14
DOCKED: REMARK SMILES IDX 22 15 26 16 23 17 24 18 25 19 7 20 8 21 12 22 9 23 11 24
DOCKED: REMARK SMILES IDX 13 25 14 26 18 27 15 28 17 29 16 30 10 31
DOCKED: REMARK H PARENT 6 3 3 7 10 32
DOCKED: USER                              x       y       z     vdW  Elec       q    Type
DOCKED: USER                           _______ _______ _______ _____ _____    ______ ____
DOCKED: ROOT
DOCKED: ATOM      1  C   UNL     1     139.755  74.625 219.869 -0.05 -0.05    +0.204 C  
DOCKED: ENDROOT
DOCKED: BRANCH   1   2
DOCKED: ATOM      2  O   UNL     1     139.018  74.024 218.845 +0.01 +0.10    -0.494 OA 
DOCKED: ATOM      3  H   UNL     1     138.621  73.096 218.900 +0.02 -0.06    +0.295 HD 
DOCKED: ENDBRANCH   1   2
DOCKED: BRANCH   1   4
DOCKED: ATOM      4  C   UNL     1     139.224  74.837 221.090 -0.16 -0.03    +0.152 C  
DOCKED: BRANCH   4   5
DOCKED: ATOM      5  N   UNL     1     139.298  73.876 222.156 -0.12 +0.07    -0.322 N  
DOCKED: ATOM      6  C   UNL     1     139.308  72.462 221.892 -0.15 -0.06    +0.273 C  
DOCKED: ATOM      7  H   UNL     1     139.449  74.196 223.136 -0.52 -0.03    +0.169 HD 
DOCKED: ATOM      8  O   UNL     1     139.145  72.043 220.713 -0.04 +0.05    -0.267 OA 
DOCKED: BRANCH   6   9
DOCKED: ATOM      9  C   UNL     1     139.500  71.493 222.993 -0.26 -0.03    +0.129 A  
DOCKED: ATOM     10  N   UNL     1     140.065  71.902 224.163 -0.25 +0.05    -0.243 NA 
DOCKED: ATOM     11  C   UNL     1     139.110  70.149 222.851 -0.21 -0.01    +0.035 A  
DOCKED: ATOM     12  C   UNL     1     140.268  71.055 225.206 -0.48 -0.01    +0.071 A  
DOCKED: ATOM     13  C   UNL     1     139.305  69.255 223.906 -0.28 -0.00    +0.013 A  
DOCKED: ATOM     14  C   UNL     1     140.854  71.521 226.388 -0.66 -0.00    +0.030 A  
DOCKED: ATOM     15  C   UNL     1     139.888  69.699 225.097 -0.41 -0.00    +0.002 A  
DOCKED: ATOM     16  C   UNL     1     141.062  70.647 227.460 -0.62 -0.00    +0.023 A  
DOCKED: ATOM     17  C   UNL     1     140.100  68.827 226.176 -0.52 -0.01    +0.030 A  
DOCKED: ATOM     18  C   UNL     1     140.687  69.302 227.355 -0.58 -0.01    +0.041 A  
DOCKED: ATOM     19  Cl  UNL     1     140.952  68.211 228.703 -0.69 +0.02    -0.084 Cl 
DOCKED: ENDBRANCH   6   9
DOCKED: ENDBRANCH   4   5
DOCKED: ENDBRANCH   1   4
DOCKED: BRANCH   1  20
DOCKED: ATOM     20  N   UNL     1     141.124  74.990 219.588 -0.03 +0.10    -0.332 N  
DOCKED: ATOM     21  C   UNL     1     141.746  74.686 218.310 -0.05 -0.05    +0.152 C  
DOCKED: ATOM     22  C   UNL     1     142.046  75.653 220.508 -0.21 -0.06    +0.118 C  
DOCKED: ATOM     23  C   UNL     1     143.238  74.961 218.494 -0.18 -0.06    +0.136 C  
DOCKED: ATOM     24  C   UNL     1     143.331  75.886 219.706 -0.37 -0.04    +0.063 C  
DOCKED: BRANCH  22  25
DOCKED: ATOM     25  C   UNL     1     141.478  76.959 221.029 -0.27 +0.01    -0.025 A  
DOCKED: ATOM     26  C   UNL     1     141.392  78.093 220.200 -0.27 -0.00    +0.006 A  
DOCKED: ATOM     27  C   UNL     1     141.059  77.058 222.367 -0.40 -0.00    +0.006 A  
DOCKED: ATOM     28  C   UNL     1     140.875  79.293 220.696 -0.25 -0.00    +0.000 A  
DOCKED: ATOM     29  C   UNL     1     140.542  78.261 222.859 -0.43 -0.00    +0.000 A  
DOCKED: ATOM     30  C   UNL     1     140.449  79.377 222.024 -0.31 -0.00    +0.000 A  
DOCKED: ENDBRANCH  22  25
DOCKED: BRANCH  23  31
DOCKED: ATOM     31  O   UNL     1     143.922  73.765 218.766 -0.07 +0.09    -0.391 OA 
DOCKED: ATOM     32  H   UNL     1     143.247  73.125 219.115 +0.08 -0.04    +0.211 HD 
DOCKED: ENDBRANCH  23  31
DOCKED: ENDBRANCH   1  20
DOCKED: TORSDOF 7
DOCKED: TER
DOCKED: ENDMDL
________________________________________________________________________________


    FINAL DOCKED STATE:
    ________________________


Run:   15 / 20
Time taken for this run:   0.039s

DOCKED: MODEL        15
DOCKED: USER    Run = 15
DOCKED: USER
DOCKED: USER    Estimated Free Energy of Binding    =  -6.85 kcal/mol  [=(1)+(2)+(3)-(4)]
DOCKED: USER
DOCKED: USER    (1) Final Intermolecular Energy     =  -8.94 kcal/mol
DOCKED: USER        vdW + Hbond + desolv Energy     =  -8.84 kcal/mol
DOCKED: USER        Electrostatic Energy            =  -0.10 kcal/mol
DOCKED: USER        Moving Ligand-Fixed Receptor    =  -8.94 kcal/mol
DOCKED: USER        Moving Ligand-Moving Receptor   =  +0.00 kcal/mol
DOCKED: USER    (2) Final Total Internal Energy     =  -2.37 kcal/mol
DOCKED: USER    (3) Torsional Free Energy           =  +2.09 kcal/mol
DOCKED: USER    (4) Unbound System's Energy         =  -2.37 kcal/mol
DOCKED: USER
DOCKED: USER
DOCKED: REMARK SMILES O=C(N/C=C(\O)N1C[C@H](O)C[C@H]1c1ccccc1)c1ccc2cc(Cl)ccc2n1
DOCKED: REMARK SMILES IDX 5 1 6 2 4 4 3 5 2 6 1 8 19 9 29 10 20 11 28 12 21 13 27 14
DOCKED: REMARK SMILES IDX 22 15 26 16 23 17 24 18 25 19 7 20 8 21 12 22 9 23 11 24
DOCKED: REMARK SMILES IDX 13 25 14 26 18 27 15 28 17 29 16 30 10 31
DOCKED: REMARK H PARENT 6 3 3 7 10 32
DOCKED: USER                              x       y       z     vdW  Elec       q    Type
DOCKED: USER                           _______ _______ _______ _____ _____    ______ ____
DOCKED: ROOT
DOCKED: ATOM      1  C   UNL     1     140.743  77.036 220.497 -0.16 -0.08    +0.204 C  
DOCKED: ENDROOT
DOCKED: BRANCH   1   2
DOCKED: ATOM      2  O   UNL     1     139.715  77.162 219.558 +0.02 +0.15    -0.494 OA 
DOCKED: ATOM      3  H   UNL     1     138.989  76.473 219.415 +0.04 -0.07    +0.295 HD 
DOCKED: ENDBRANCH   1   2
DOCKED: BRANCH   1   4
DOCKED: ATOM      4  C   UNL     1     141.502  75.924 220.566 -0.22 -0.06    +0.152 C  
DOCKED: BRANCH   4   5
DOCKED: ATOM      5  N   UNL     1     141.176  74.802 221.404 -0.18 +0.07    -0.322 N  
DOCKED: ATOM      6  C   UNL     1     139.885  74.172 221.346 -0.17 -0.05    +0.273 C  
DOCKED: ATOM      7  H   UNL     1     141.913  74.364 221.998 +0.03 -0.01    +0.169 HD 
DOCKED: ATOM      8  O   UNL     1     138.977  74.669 220.623 -0.07 +0.06    -0.267 OA 
DOCKED: BRANCH   6   9
DOCKED: ATOM      9  C   UNL     1     139.607  72.950 222.132 -0.23 -0.02    +0.129 A  
DOCKED: ATOM     10  N   UNL     1     140.418  72.620 223.176 -0.40 +0.01    -0.243 NA 
DOCKED: ATOM     11  C   UNL     1     138.518  72.118 221.817 -0.15 -0.01    +0.035 A  
DOCKED: ATOM     12  C   UNL     1     140.212  71.509 223.931 -0.39 -0.01    +0.071 A  
DOCKED: ATOM     13  C   UNL     1     138.282  70.969 222.575 -0.18 -0.00    +0.013 A  
DOCKED: ATOM     14  C   UNL     1     141.073  71.210 224.993 -0.47 -0.00    +0.030 A  
DOCKED: ATOM     15  C   UNL     1     139.128  70.651 223.642 -0.32 -0.00    +0.002 A  
DOCKED: ATOM     16  C   UNL     1     140.859  70.065 225.768 -0.51 -0.00    +0.023 A  
DOCKED: ATOM     17  C   UNL     1     138.919  69.504 224.423 -0.33 -0.00    +0.030 A  
DOCKED: ATOM     18  C   UNL     1     139.785  69.213 225.484 -0.42 -0.01    +0.041 A  
DOCKED: ATOM     19  Cl  UNL     1     139.524  67.779 226.460 -0.77 +0.01    -0.084 Cl 
DOCKED: ENDBRANCH   6   9
DOCKED: ENDBRANCH   4   5
DOCKED: ENDBRANCH   1   4
DOCKED: BRANCH   1  20
DOCKED: ATOM     20  N   UNL     1     140.990  78.153 221.379 -0.12 +0.14    -0.332 N  
DOCKED: ATOM     21  C   UNL     1     141.809  79.281 220.969 -0.26 -0.08    +0.152 C  
DOCKED: ATOM     22  C   UNL     1     140.504  78.291 222.751 -0.37 -0.03    +0.118 C  
DOCKED: ATOM     23  C   UNL     1     142.065  80.095 222.237 -0.45 -0.05    +0.136 C  
DOCKED: ATOM     24  C   UNL     1     140.967  79.676 223.214 -0.48 -0.01    +0.063 C  
DOCKED: BRANCH  22  25
DOCKED: ATOM     25  C   UNL     1     138.995  78.160 222.829 -0.29 +0.00    -0.025 A  
DOCKED: ATOM     26  C   UNL     1     138.180  79.290 223.026 -0.28 -0.00    +0.006 A  
DOCKED: ATOM     27  C   UNL     1     138.395  76.892 222.738 -0.30 -0.00    +0.006 A  
DOCKED: ATOM     28  C   UNL     1     136.791  79.153 223.107 -0.19 -0.00    +0.000 A  
DOCKED: ATOM     29  C   UNL     1     137.005  76.761 222.819 -0.25 -0.00    +0.000 A  
DOCKED: ATOM     30  C   UNL     1     136.204  77.891 223.001 -0.17 -0.00    +0.000 A  
DOCKED: ENDBRANCH  22  25
DOCKED: BRANCH  23  31
DOCKED: ATOM     31  O   UNL     1     143.319  79.771 222.778 -0.36 +0.18    -0.391 OA 
DOCKED: ATOM     32  H   UNL     1     143.732  79.111 222.160 -0.46 -0.20    +0.211 HD 
DOCKED: ENDBRANCH  23  31
DOCKED: ENDBRANCH   1  20
DOCKED: TORSDOF 7
DOCKED: TER
DOCKED: ENDMDL
________________________________________________________________________________


    FINAL DOCKED STATE:
    ________________________


Run:   16 / 20
Time taken for this run:   0.039s

DOCKED: MODEL        16
DOCKED: USER    Run = 16
DOCKED: USER
DOCKED: USER    Estimated Free Energy of Binding    =  -7.51 kcal/mol  [=(1)+(2)+(3)-(4)]
DOCKED: USER
DOCKED: USER    (1) Final Intermolecular Energy     =  -9.60 kcal/mol
DOCKED: USER        vdW + Hbond + desolv Energy     =  -9.46 kcal/mol
DOCKED: USER        Electrostatic Energy            =  -0.14 kcal/mol
DOCKED: USER        Moving Ligand-Fixed Receptor    =  -9.60 kcal/mol
DOCKED: USER        Moving Ligand-Moving Receptor   =  +0.00 kcal/mol
DOCKED: USER    (2) Final Total Internal Energy     =  -1.83 kcal/mol
DOCKED: USER    (3) Torsional Free Energy           =  +2.09 kcal/mol
DOCKED: USER    (4) Unbound System's Energy         =  -1.83 kcal/mol
DOCKED: USER
DOCKED: USER
DOCKED: REMARK SMILES O=C(N/C=C(\O)N1C[C@H](O)C[C@H]1c1ccccc1)c1ccc2cc(Cl)ccc2n1
DOCKED: REMARK SMILES IDX 5 1 6 2 4 4 3 5 2 6 1 8 19 9 29 10 20 11 28 12 21 13 27 14
DOCKED: REMARK SMILES IDX 22 15 26 16 23 17 24 18 25 19 7 20 8 21 12 22 9 23 11 24
DOCKED: REMARK SMILES IDX 13 25 14 26 18 27 15 28 17 29 16 30 10 31
DOCKED: REMARK H PARENT 6 3 3 7 10 32
DOCKED: USER                              x       y       z     vdW  Elec       q    Type
DOCKED: USER                           _______ _______ _______ _____ _____    ______ ____
DOCKED: ROOT
DOCKED: ATOM      1  C   UNL     1     141.609  75.773 219.659 -0.15 -0.08    +0.204 C  
DOCKED: ENDROOT
DOCKED: BRANCH   1   2
DOCKED: ATOM      2  O   UNL     1     142.654  75.478 220.540 -0.07 +0.27    -0.494 OA 
DOCKED: ATOM      3  H   UNL     1     142.567  75.488 221.547 -0.38 -0.20    +0.295 HD 
DOCKED: ENDBRANCH   1   2
DOCKED: BRANCH   1   4
DOCKED: ATOM      4  C   UNL     1     140.647  74.871 219.379 -0.07 -0.04    +0.152 C  
DOCKED: BRANCH   4   5
DOCKED: ATOM      5  N   UNL     1     140.437  73.681 220.156 -0.04 +0.06    -0.322 N  
DOCKED: ATOM      6  C   UNL     1     140.378  73.722 221.592 -0.20 -0.03    +0.273 C  
DOCKED: ATOM      7  H   UNL     1     140.224  72.779 219.679 +0.03 -0.03    +0.169 HD 
DOCKED: ATOM      8  O   UNL     1     140.615  74.803 222.198 -0.66 -0.00    -0.267 OA 
DOCKED: BRANCH   6   9
DOCKED: ATOM      9  C   UNL     1     140.048  72.506 222.368 -0.27 -0.02    +0.129 A  
DOCKED: ATOM     10  N   UNL     1     140.697  72.255 223.539 -0.26 +0.01    -0.243 NA 
DOCKED: ATOM     11  C   UNL     1     139.074  71.599 221.913 -0.18 -0.01    +0.035 A  
DOCKED: ATOM     12  C   UNL     1     140.437  71.153 224.291 -0.41 -0.01    +0.071 A  
DOCKED: ATOM     13  C   UNL     1     138.785  70.458 222.664 -0.20 -0.00    +0.013 A  
DOCKED: ATOM     14  C   UNL     1     141.130  70.937 225.487 -0.55 -0.00    +0.030 A  
DOCKED: ATOM     15  C   UNL     1     139.465  70.222 223.863 -0.32 -0.00    +0.002 A  
DOCKED: ATOM     16  C   UNL     1     140.861  69.802 226.258 -0.52 -0.00    +0.023 A  
DOCKED: ATOM     17  C   UNL     1     139.200  69.085 224.642 -0.36 -0.00    +0.030 A  
DOCKED: ATOM     18  C   UNL     1     139.898  68.877 225.837 -0.47 -0.01    +0.041 A  
DOCKED: ATOM     19  Cl  UNL     1     139.566  67.455 226.810 -0.63 +0.01    -0.084 Cl 
DOCKED: ENDBRANCH   6   9
DOCKED: ENDBRANCH   4   5
DOCKED: ENDBRANCH   1   4
DOCKED: BRANCH   1  20
DOCKED: ATOM     20  N   UNL     1     141.576  77.093 219.073 -0.07 +0.16    -0.332 N  
DOCKED: ATOM     21  C   UNL     1     140.971  77.334 217.774 -0.06 -0.07    +0.152 C  
DOCKED: ATOM     22  C   UNL     1     142.143  78.308 219.654 -0.15 -0.08    +0.118 C  
DOCKED: ATOM     23  C   UNL     1     141.377  78.754 217.381 -0.13 -0.08    +0.136 C  
DOCKED: ATOM     24  C   UNL     1     141.772  79.438 218.689 -0.25 -0.04    +0.063 C  
DOCKED: BRANCH  22  25
DOCKED: ATOM     25  C   UNL     1     141.602  78.572 221.046 -0.34 +0.01    -0.025 A  
DOCKED: ATOM     26  C   UNL     1     142.335  79.334 221.974 -0.42 -0.00    +0.006 A  
DOCKED: ATOM     27  C   UNL     1     140.367  78.023 221.435 -0.27 -0.00    +0.006 A  
DOCKED: ATOM     28  C   UNL     1     141.829  79.561 223.258 -0.60 -0.00    +0.000 A  
DOCKED: ATOM     29  C   UNL     1     139.865  78.254 222.720 -0.37 -0.00    +0.000 A  
DOCKED: ATOM     30  C   UNL     1     140.594  79.024 223.629 -0.47 -0.00    +0.000 A  
DOCKED: ENDBRANCH  22  25
DOCKED: BRANCH  23  31
DOCKED: ATOM     31  O   UNL     1     142.485  78.721 216.519 -0.11 +0.43    -0.391 OA 
DOCKED: ATOM     32  H   UNL     1     143.033  79.523 216.731 -0.50 -0.39    +0.211 HD 
DOCKED: ENDBRANCH  23  31
DOCKED: ENDBRANCH   1  20
DOCKED: TORSDOF 7
DOCKED: TER
DOCKED: ENDMDL
________________________________________________________________________________


    FINAL DOCKED STATE:
    ________________________


Run:   17 / 20
Time taken for this run:   0.039s

DOCKED: MODEL        17
DOCKED: USER    Run = 17
DOCKED: USER
DOCKED: USER    Estimated Free Energy of Binding    =  -8.52 kcal/mol  [=(1)+(2)+(3)-(4)]
DOCKED: USER
DOCKED: USER    (1) Final Intermolecular Energy     = -10.60 kcal/mol
DOCKED: USER        vdW + Hbond + desolv Energy     = -10.54 kcal/mol
DOCKED: USER        Electrostatic Energy            =  -0.06 kcal/mol
DOCKED: USER        Moving Ligand-Fixed Receptor    = -10.60 kcal/mol
DOCKED: USER        Moving Ligand-Moving Receptor   =  +0.00 kcal/mol
DOCKED: USER    (2) Final Total Internal Energy     =  -1.21 kcal/mol
DOCKED: USER    (3) Torsional Free Energy           =  +2.09 kcal/mol
DOCKED: USER    (4) Unbound System's Energy         =  -1.21 kcal/mol
DOCKED: USER
DOCKED: USER
DOCKED: REMARK SMILES O=C(N/C=C(\O)N1C[C@H](O)C[C@H]1c1ccccc1)c1ccc2cc(Cl)ccc2n1
DOCKED: REMARK SMILES IDX 5 1 6 2 4 4 3 5 2 6 1 8 19 9 29 10 20 11 28 12 21 13 27 14
DOCKED: REMARK SMILES IDX 22 15 26 16 23 17 24 18 25 19 7 20 8 21 12 22 9 23 11 24
DOCKED: REMARK SMILES IDX 13 25 14 26 18 27 15 28 17 29 16 30 10 31
DOCKED: REMARK H PARENT 6 3 3 7 10 32
DOCKED: USER                              x       y       z     vdW  Elec       q    Type
DOCKED: USER                           _______ _______ _______ _____ _____    ______ ____
DOCKED: ROOT
DOCKED: ATOM      1  C   UNL     1     140.020  76.337 221.436 -0.23 -0.05    +0.204 C  
DOCKED: ENDROOT
DOCKED: BRANCH   1   2
DOCKED: ATOM      2  O   UNL     1     141.332  76.757 221.197 -0.11 +0.24    -0.494 OA 
DOCKED: ATOM      3  H   UNL     1     142.096  76.629 221.847 -0.43 -0.26    +0.295 HD 
DOCKED: ENDBRANCH   1   2
DOCKED: BRANCH   1   4
DOCKED: ATOM      4  C   UNL     1     139.635  75.065 221.212 -0.20 -0.03    +0.152 C  
DOCKED: BRANCH   4   5
DOCKED: ATOM      5  N   UNL     1     139.600  74.063 222.242 -0.11 +0.05    -0.322 N  
DOCKED: ATOM      6  C   UNL     1     139.800  72.671 221.942 -0.18 -0.05    +0.273 C  
DOCKED: ATOM      7  H   UNL     1     139.528  74.347 223.242 -0.49 -0.02    +0.169 HD 
DOCKED: ATOM      8  O   UNL     1     139.907  72.298 220.741 -0.07 +0.05    -0.267 OA 
DOCKED: BRANCH   6   9
DOCKED: ATOM      9  C   UNL     1     139.874  71.670 223.029 -0.29 -0.02    +0.129 A  
DOCKED: ATOM     10  N   UNL     1     140.369  72.030 224.246 -0.21 +0.04    -0.243 NA 
DOCKED: ATOM     11  C   UNL     1     139.442  70.348 222.826 -0.22 -0.01    +0.035 A  
DOCKED: ATOM     12  C   UNL     1     140.462  71.152 225.280 -0.50 -0.01    +0.071 A  
DOCKED: ATOM     13  C   UNL     1     139.526  69.422 223.869 -0.25 -0.00    +0.013 A  
DOCKED: ATOM     14  C   UNL     1     140.980  71.567 226.512 -0.68 -0.00    +0.030 A  
DOCKED: ATOM     15  C   UNL     1     140.039  69.815 225.110 -0.42 -0.00    +0.002 A  
DOCKED: ATOM     16  C   UNL     1     141.075  70.661 227.573 -0.63 -0.00    +0.023 A  
DOCKED: ATOM     17  C   UNL     1     140.138  68.912 226.179 -0.52 -0.01    +0.030 A  
DOCKED: ATOM     18  C   UNL     1     140.656  69.336 227.408 -0.58 -0.01    +0.041 A  
DOCKED: ATOM     19  Cl  UNL     1     140.780  68.205 228.744 -0.64 +0.02    -0.084 Cl 
DOCKED: ENDBRANCH   6   9
DOCKED: ENDBRANCH   4   5
DOCKED: ENDBRANCH   1   4
DOCKED: BRANCH   1  20
DOCKED: ATOM     20  N   UNL     1     139.088  77.308 221.961 -0.12 +0.07    -0.332 N  
DOCKED: ATOM     21  C   UNL     1     137.880  76.904 222.660 -0.23 -0.03    +0.152 C  
DOCKED: ATOM     22  C   UNL     1     139.201  78.761 221.846 -0.19 -0.03    +0.118 C  
DOCKED: ATOM     23  C   UNL     1     137.035  78.169 222.803 -0.14 -0.02    +0.136 C  
DOCKED: ATOM     24  C   UNL     1     138.015  79.329 222.633 -0.22 -0.01    +0.063 C  
DOCKED: BRANCH  22  25
DOCKED: ATOM     25  C   UNL     1     140.521  79.268 222.395 -0.35 +0.01    -0.025 A  
DOCKED: ATOM     26  C   UNL     1     140.907  78.990 223.719 -0.51 -0.00    +0.006 A  
DOCKED: ATOM     27  C   UNL     1     141.360  80.055 221.588 -0.38 -0.00    +0.006 A  
DOCKED: ATOM     28  C   UNL     1     142.122  79.473 224.216 -0.48 -0.00    +0.000 A  
DOCKED: ATOM     29  C   UNL     1     142.575  80.534 222.090 -0.52 -0.00    +0.000 A  
DOCKED: ATOM     30  C   UNL     1     142.956  80.242 223.401 -0.67 -0.00    +0.000 A  
DOCKED: ENDBRANCH  22  25
DOCKED: BRANCH  23  31
DOCKED: ATOM     31  O   UNL     1     136.066  78.225 221.789 -0.03 +0.06    -0.391 OA 
DOCKED: ATOM     32  H   UNL     1     136.327  77.548 221.110 +0.03 -0.04    +0.211 HD 
DOCKED: ENDBRANCH  23  31
DOCKED: ENDBRANCH   1  20
DOCKED: TORSDOF 7
DOCKED: TER
DOCKED: ENDMDL
________________________________________________________________________________


    FINAL DOCKED STATE:
    ________________________


Run:   18 / 20
Time taken for this run:   0.039s

DOCKED: MODEL        18
DOCKED: USER    Run = 18
DOCKED: USER
DOCKED: USER    Estimated Free Energy of Binding    =  -7.94 kcal/mol  [=(1)+(2)+(3)-(4)]
DOCKED: USER
DOCKED: USER    (1) Final Intermolecular Energy     = -10.03 kcal/mol
DOCKED: USER        vdW + Hbond + desolv Energy     =  -9.89 kcal/mol
DOCKED: USER        Electrostatic Energy            =  -0.13 kcal/mol
DOCKED: USER        Moving Ligand-Fixed Receptor    = -10.03 kcal/mol
DOCKED: USER        Moving Ligand-Moving Receptor   =  +0.00 kcal/mol
DOCKED: USER    (2) Final Total Internal Energy     =  -1.64 kcal/mol
DOCKED: USER    (3) Torsional Free Energy           =  +2.09 kcal/mol
DOCKED: USER    (4) Unbound System's Energy         =  -1.64 kcal/mol
DOCKED: USER
DOCKED: USER
DOCKED: REMARK SMILES O=C(N/C=C(\O)N1C[C@H](O)C[C@H]1c1ccccc1)c1ccc2cc(Cl)ccc2n1
DOCKED: REMARK SMILES IDX 5 1 6 2 4 4 3 5 2 6 1 8 19 9 29 10 20 11 28 12 21 13 27 14
DOCKED: REMARK SMILES IDX 22 15 26 16 23 17 24 18 25 19 7 20 8 21 12 22 9 23 11 24
DOCKED: REMARK SMILES IDX 13 25 14 26 18 27 15 28 17 29 16 30 10 31
DOCKED: REMARK H PARENT 6 3 3 7 10 32
DOCKED: USER                              x       y       z     vdW  Elec       q    Type
DOCKED: USER                           _______ _______ _______ _____ _____    ______ ____
DOCKED: ROOT
DOCKED: ATOM      1  C   UNL     1     140.823  75.899 221.085 -0.23 -0.07    +0.204 C  
DOCKED: ENDROOT
DOCKED: BRANCH   1   2
DOCKED: ATOM      2  O   UNL     1     141.150  76.613 222.242 -0.16 +0.20    -0.494 OA 
DOCKED: ATOM      3  H   UNL     1     142.067  76.615 222.668 -0.36 -0.26    +0.295 HD 
DOCKED: ENDBRANCH   1   2
DOCKED: BRANCH   1   4
DOCKED: ATOM      4  C   UNL     1     139.863  74.952 221.089 -0.20 -0.03    +0.152 C  
DOCKED: BRANCH   4   5
DOCKED: ATOM      5  N   UNL     1     139.739  73.965 222.126 -0.13 +0.04    -0.322 N  
DOCKED: ATOM      6  C   UNL     1     140.068  72.585 221.892 -0.19 -0.04    +0.273 C  
DOCKED: ATOM      7  H   UNL     1     139.503  74.258 223.098 -0.53 -0.02    +0.169 HD 
DOCKED: ATOM      8  O   UNL     1     140.374  72.202 220.729 -0.08 +0.04    -0.267 OA 
DOCKED: BRANCH   6   9
DOCKED: ATOM      9  C   UNL     1     140.043  71.606 223.001 -0.29 -0.02    +0.129 A  
DOCKED: ATOM     10  N   UNL     1     140.548  71.951 224.218 -0.23 +0.03    -0.243 NA 
DOCKED: ATOM     11  C   UNL     1     139.506  70.319 222.819 -0.22 -0.01    +0.035 A  
DOCKED: ATOM     12  C   UNL     1     140.554  71.092 225.272 -0.50 -0.01    +0.071 A  
DOCKED: ATOM     13  C   UNL     1     139.498  69.415 223.883 -0.26 -0.00    +0.013 A  
DOCKED: ATOM     14  C   UNL     1     141.086  71.492 226.502 -0.69 -0.00    +0.030 A  
DOCKED: ATOM     15  C   UNL     1     140.023  69.792 225.123 -0.42 -0.00    +0.002 A  
DOCKED: ATOM     16  C   UNL     1     141.091  70.606 227.585 -0.61 -0.00    +0.023 A  
DOCKED: ATOM     17  C   UNL     1     140.032  68.908 226.213 -0.52 -0.01    +0.030 A  
DOCKED: ATOM     18  C   UNL     1     140.566  69.316 227.441 -0.58 -0.01    +0.041 A  
DOCKED: ATOM     19  Cl  UNL     1     140.576  68.210 228.803 -0.51 +0.02    -0.084 Cl 
DOCKED: ENDBRANCH   6   9
DOCKED: ENDBRANCH   4   5
DOCKED: ENDBRANCH   1   4
DOCKED: BRANCH   1  20
DOCKED: ATOM     20  N   UNL     1     141.530  76.227 219.869 -0.08 +0.14    -0.332 N  
DOCKED: ATOM     21  C   UNL     1     141.604  77.593 219.378 -0.19 -0.08    +0.152 C  
DOCKED: ATOM     22  C   UNL     1     142.210  75.283 218.985 -0.16 -0.05    +0.118 C  
DOCKED: ATOM     23  C   UNL     1     142.170  77.497 217.961 -0.21 -0.08    +0.136 C  
DOCKED: ATOM     24  C   UNL     1     142.863  76.137 217.894 -0.22 -0.03    +0.063 C  
DOCKED: BRANCH  22  25
DOCKED: ATOM     25  C   UNL     1     143.241  74.457 219.731 -0.31 +0.01    -0.025 A  
DOCKED: ATOM     26  C   UNL     1     144.473  75.017 220.116 -0.35 -0.00    +0.006 A  
DOCKED: ATOM     27  C   UNL     1     142.985  73.105 220.015 -0.25 -0.00    +0.006 A  
DOCKED: ATOM     28  C   UNL     1     145.419  74.242 220.793 -0.56 -0.00    +0.000 A  
DOCKED: ATOM     29  C   UNL     1     143.935  72.335 220.694 -0.35 -0.00    +0.000 A  
DOCKED: ATOM     30  C   UNL     1     145.149  72.903 221.084 -0.53 -0.00    +0.000 A  
DOCKED: ENDBRANCH  22  25
DOCKED: BRANCH  23  31
DOCKED: ATOM     31  O   UNL     1     141.130  77.538 217.019 -0.02 +0.19    -0.391 OA 
DOCKED: ATOM     32  H   UNL     1     140.348  77.946 217.476 +0.03 -0.08    +0.211 HD 
DOCKED: ENDBRANCH  23  31
DOCKED: ENDBRANCH   1  20
DOCKED: TORSDOF 7
DOCKED: TER
DOCKED: ENDMDL
________________________________________________________________________________


    FINAL DOCKED STATE:
    ________________________


Run:   19 / 20
Time taken for this run:   0.039s

DOCKED: MODEL        19
DOCKED: USER    Run = 19
DOCKED: USER
DOCKED: USER    Estimated Free Energy of Binding    =  -6.88 kcal/mol  [=(1)+(2)+(3)-(4)]
DOCKED: USER
DOCKED: USER    (1) Final Intermolecular Energy     =  -8.96 kcal/mol
DOCKED: USER        vdW + Hbond + desolv Energy     =  -8.56 kcal/mol
DOCKED: USER        Electrostatic Energy            =  -0.40 kcal/mol
DOCKED: USER        Moving Ligand-Fixed Receptor    =  -8.96 kcal/mol
DOCKED: USER        Moving Ligand-Moving Receptor   =  +0.00 kcal/mol
DOCKED: USER    (2) Final Total Internal Energy     =  -2.36 kcal/mol
DOCKED: USER    (3) Torsional Free Energy           =  +2.09 kcal/mol
DOCKED: USER    (4) Unbound System's Energy         =  -2.36 kcal/mol
DOCKED: USER
DOCKED: USER
DOCKED: REMARK SMILES O=C(N/C=C(\O)N1C[C@H](O)C[C@H]1c1ccccc1)c1ccc2cc(Cl)ccc2n1
DOCKED: REMARK SMILES IDX 5 1 6 2 4 4 3 5 2 6 1 8 19 9 29 10 20 11 28 12 21 13 27 14
DOCKED: REMARK SMILES IDX 22 15 26 16 23 17 24 18 25 19 7 20 8 21 12 22 9 23 11 24
DOCKED: REMARK SMILES IDX 13 25 14 26 18 27 15 28 17 29 16 30 10 31
DOCKED: REMARK H PARENT 6 3 3 7 10 32
DOCKED: USER                              x       y       z     vdW  Elec       q    Type
DOCKED: USER                           _______ _______ _______ _____ _____    ______ ____
DOCKED: ROOT
DOCKED: ATOM      1  C   UNL     1     142.753  75.253 219.843 -0.24 -0.09    +0.204 C  
DOCKED: ENDROOT
DOCKED: BRANCH   1   2
DOCKED: ATOM      2  O   UNL     1     143.170  76.449 219.251 -0.17 +0.32    -0.494 OA 
DOCKED: ATOM      3  H   UNL     1     143.689  77.171 219.733 -0.38 -0.28    +0.295 HD 
DOCKED: ENDBRANCH   1   2
DOCKED: BRANCH   1   4
DOCKED: ATOM      4  C   UNL     1     141.528  75.127 220.391 -0.21 -0.05    +0.152 C  
DOCKED: BRANCH   4   5
DOCKED: ATOM      5  N   UNL     1     141.231  74.196 221.444 -0.15 +0.04    -0.322 N  
DOCKED: ATOM      6  C   UNL     1     139.919  73.628 221.597 -0.18 -0.04    +0.273 C  
DOCKED: ATOM      7  H   UNL     1     141.997  73.839 222.056 +0.11 +0.00    +0.169 HD 
DOCKED: ATOM      8  O   UNL     1     138.974  74.026 220.861 -0.08 +0.06    -0.267 OA 
DOCKED: BRANCH   6   9
DOCKED: ATOM      9  C   UNL     1     139.663  72.585 222.615 -0.23 -0.03    +0.129 A  
DOCKED: ATOM     10  N   UNL     1     140.626  72.284 223.530 -0.27 +0.01    -0.243 NA 
DOCKED: ATOM     11  C   UNL     1     138.439  71.895 222.653 -0.20 -0.01    +0.035 A  
DOCKED: ATOM     12  C   UNL     1     140.448  71.334 224.486 -0.43 -0.01    +0.071 A  
DOCKED: ATOM     13  C   UNL     1     138.226  70.914 223.623 -0.26 -0.00    +0.013 A  
DOCKED: ATOM     14  C   UNL     1     141.467  71.059 225.404 -0.47 -0.00    +0.030 A  
DOCKED: ATOM     15  C   UNL     1     139.230  70.622 224.552 -0.39 -0.00    +0.002 A  
DOCKED: ATOM     16  C   UNL     1     141.280  70.080 226.386 -0.52 -0.00    +0.023 A  
DOCKED: ATOM     17  C   UNL     1     139.050  69.641 225.540 -0.39 -0.00    +0.030 A  
DOCKED: ATOM     18  C   UNL     1     140.075  69.372 226.454 -0.50 -0.01    +0.041 A  
DOCKED: ATOM     19  Cl  UNL     1     139.848  68.146 227.688 -0.66 +0.02    -0.084 Cl 
DOCKED: ENDBRANCH   6   9
DOCKED: ENDBRANCH   4   5
DOCKED: ENDBRANCH   1   4
DOCKED: BRANCH   1  20
DOCKED: ATOM     20  N   UNL     1     143.671  74.138 219.825 -0.16 +0.10    -0.332 N  
DOCKED: ATOM     21  C   UNL     1     144.863  74.119 220.657 -0.39 -0.05    +0.152 C  
DOCKED: ATOM     22  C   UNL     1     143.560  72.944 218.991 -0.14 -0.02    +0.118 C  
DOCKED: ATOM     23  C   UNL     1     145.702  72.943 220.159 -0.45 +0.02    +0.136 C  
DOCKED: ATOM     24  C   UNL     1     144.725  72.040 219.406 -0.28 +0.01    +0.063 C  
DOCKED: BRANCH  22  25
DOCKED: ATOM     25  C   UNL     1     142.226  72.246 219.182 -0.10 +0.00    -0.025 A  
DOCKED: ATOM     26  C   UNL     1     142.070  71.239 220.152 -0.16 -0.00    +0.006 A  
DOCKED: ATOM     27  C   UNL     1     141.136  72.579 218.361 -0.03 -0.00    +0.006 A  
DOCKED: ATOM     28  C   UNL     1     140.838  70.597 220.311 -0.12 -0.00    +0.000 A  
DOCKED: ATOM     29  C   UNL     1     139.905  71.934 218.525 -0.03 -0.00    +0.000 A  
DOCKED: ATOM     30  C   UNL     1     139.756  70.946 219.500 -0.05 -0.00    +0.000 A  
DOCKED: ENDBRANCH  22  25
DOCKED: BRANCH  23  31
DOCKED: ATOM     31  O   UNL     1     146.695  73.394 219.275 -0.58 -0.33    -0.391 OA 
DOCKED: ATOM     32  H   UNL     1     146.660  74.387 219.292 -0.46 -0.06    +0.211 HD 
DOCKED: ENDBRANCH  23  31
DOCKED: ENDBRANCH   1  20
DOCKED: TORSDOF 7
DOCKED: TER
DOCKED: ENDMDL
________________________________________________________________________________


    FINAL DOCKED STATE:
    ________________________


Run:   20 / 20
Time taken for this run:   0.039s

DOCKED: MODEL        20
DOCKED: USER    Run = 20
DOCKED: USER
DOCKED: USER    Estimated Free Energy of Binding    =  -8.03 kcal/mol  [=(1)+(2)+(3)-(4)]
DOCKED: USER
DOCKED: USER    (1) Final Intermolecular Energy     = -10.12 kcal/mol
DOCKED: USER        vdW + Hbond + desolv Energy     =  -9.96 kcal/mol
DOCKED: USER        Electrostatic Energy            =  -0.16 kcal/mol
DOCKED: USER        Moving Ligand-Fixed Receptor    = -10.12 kcal/mol
DOCKED: USER        Moving Ligand-Moving Receptor   =  +0.00 kcal/mol
DOCKED: USER    (2) Final Total Internal Energy     =  -1.62 kcal/mol
DOCKED: USER    (3) Torsional Free Energy           =  +2.09 kcal/mol
DOCKED: USER    (4) Unbound System's Energy         =  -1.62 kcal/mol
DOCKED: USER
DOCKED: USER
DOCKED: REMARK SMILES O=C(N/C=C(\O)N1C[C@H](O)C[C@H]1c1ccccc1)c1ccc2cc(Cl)ccc2n1
DOCKED: REMARK SMILES IDX 5 1 6 2 4 4 3 5 2 6 1 8 19 9 29 10 20 11 28 12 21 13 27 14
DOCKED: REMARK SMILES IDX 22 15 26 16 23 17 24 18 25 19 7 20 8 21 12 22 9 23 11 24
DOCKED: REMARK SMILES IDX 13 25 14 26 18 27 15 28 17 29 16 30 10 31
DOCKED: REMARK H PARENT 6 3 3 7 10 32
DOCKED: USER                              x       y       z     vdW  Elec       q    Type
DOCKED: USER                           _______ _______ _______ _____ _____    ______ ____
DOCKED: ROOT
DOCKED: ATOM      1  C   UNL     1     140.872  75.997 221.146 -0.23 -0.07    +0.204 C  
DOCKED: ENDROOT
DOCKED: BRANCH   1   2
DOCKED: ATOM      2  O   UNL     1     141.069  76.713 222.331 -0.19 +0.19    -0.494 OA 
DOCKED: ATOM      3  H   UNL     1     141.974  76.882 222.749 -0.33 -0.24    +0.295 HD 
DOCKED: ENDBRANCH   1   2
DOCKED: BRANCH   1   4
DOCKED: ATOM      4  C   UNL     1     139.993  74.977 221.076 -0.20 -0.03    +0.152 C  
DOCKED: BRANCH   4   5
DOCKED: ATOM      5  N   UNL     1     139.845  73.997 222.116 -0.12 +0.03    -0.322 N  
DOCKED: ATOM      6  C   UNL     1     140.108  72.604 221.878 -0.19 -0.04    +0.273 C  
DOCKED: ATOM      7  H   UNL     1     139.640  74.300 223.093 -0.48 +0.00    +0.169 HD 
DOCKED: ATOM      8  O   UNL     1     140.375  72.207 220.710 -0.08 +0.04    -0.267 OA 
DOCKED: BRANCH   6   9
DOCKED: ATOM      9  C   UNL     1     140.061  71.627 222.989 -0.29 -0.02    +0.129 A  
DOCKED: ATOM     10  N   UNL     1     140.567  71.965 224.207 -0.22 +0.03    -0.243 NA 
DOCKED: ATOM     11  C   UNL     1     139.501  70.350 222.807 -0.22 -0.01    +0.035 A  
DOCKED: ATOM     12  C   UNL     1     140.553  71.108 225.262 -0.50 -0.01    +0.071 A  
DOCKED: ATOM     13  C   UNL     1     139.472  69.448 223.872 -0.26 -0.00    +0.013 A  
DOCKED: ATOM     14  C   UNL     1     141.087  71.500 226.494 -0.69 -0.00    +0.030 A  
DOCKED: ATOM     15  C   UNL     1     140.000  69.817 225.114 -0.42 -0.00    +0.002 A  
DOCKED: ATOM     16  C   UNL     1     141.071  70.616 227.578 -0.62 -0.00    +0.023 A  
DOCKED: ATOM     17  C   UNL     1     139.987  68.935 226.205 -0.51 -0.01    +0.030 A  
DOCKED: ATOM     18  C   UNL     1     140.523  69.335 227.435 -0.58 -0.01    +0.041 A  
DOCKED: ATOM     19  Cl  UNL     1     140.508  68.232 228.798 -0.48 +0.02    -0.084 Cl 
DOCKED: ENDBRANCH   6   9
DOCKED: ENDBRANCH   4   5
DOCKED: ENDBRANCH   1   4
DOCKED: BRANCH   1  20
DOCKED: ATOM     20  N   UNL     1     141.623  76.404 219.981 -0.10 +0.15    -0.332 N  
DOCKED: ATOM     21  C   UNL     1     141.794  77.805 219.637 -0.22 -0.09    +0.152 C  
DOCKED: ATOM     22  C   UNL     1     142.260  75.515 219.013 -0.18 -0.05    +0.118 C  
DOCKED: ATOM     23  C   UNL     1     142.382  77.821 218.226 -0.25 -0.09    +0.136 C  
DOCKED: ATOM     24  C   UNL     1     142.989  76.434 218.027 -0.26 -0.04    +0.063 C  
DOCKED: BRANCH  22  25
DOCKED: ATOM     25  C   UNL     1     143.222  74.551 219.682 -0.31 +0.01    -0.025 A  
DOCKED: ATOM     26  C   UNL     1     142.893  73.191 219.834 -0.22 -0.00    +0.006 A  
DOCKED: ATOM     27  C   UNL     1     144.446  75.019 220.189 -0.36 -0.00    +0.006 A  
DOCKED: ATOM     28  C   UNL     1     143.784  72.315 220.461 -0.34 -0.00    +0.000 A  
DOCKED: ATOM     29  C   UNL     1     145.334  74.139 220.815 -0.59 -0.00    +0.000 A  
DOCKED: ATOM     30  C   UNL     1     145.004  72.788 220.949 -0.49 -0.00    +0.000 A  
DOCKED: ENDBRANCH  22  25
DOCKED: BRANCH  23  31
DOCKED: ATOM     31  O   UNL     1     141.366  78.027 217.279 -0.04 +0.22    -0.391 OA 
DOCKED: ATOM     32  H   UNL     1     141.763  78.576 216.553 +0.04 -0.16    +0.211 HD 
DOCKED: ENDBRANCH  23  31
DOCKED: ENDBRANCH   1  20
DOCKED: TORSDOF 7
DOCKED: TER
DOCKED: ENDMDL
________________________________________________________________________________


    CLUSTERING HISTOGRAM
    ____________________


________________________________________________________________________________
     |           |     |           |     |
Clus | Lowest    | Run | Mean      | Num | Histogram
-ter | Binding   |     | Binding   | in  |
Rank | Energy    |     | Energy    | Clus|    5    10   15   20   25   30   35
_____|___________|_____|___________|_____|____:____|____:____|____:____|____:___
   1 |     -8.52 |   6 |     -8.25 |   4 |####
   2 |     -8.03 |  20 |     -7.77 |   4 |####
   3 |     -8.03 |   7 |     -7.58 |   7 |#######
   4 |     -7.80 |  11 |     -7.29 |   2 |##
   5 |     -6.88 |  19 |     -6.88 |   1 |#
   6 |     -6.86 |   8 |     -6.85 |   2 |##
_____|___________|_____|___________|_____|______________________________________


    RMSD TABLE
    __________


_______________________________________________________________________
     |      |      |           |         |                 |
Rank | Sub- | Run  | Binding   | Cluster | Reference       | Grep
     | Rank |      | Energy    | RMSD    | RMSD            | Pattern
_____|______|______|___________|_________|_________________|___________
   1      1      6       -8.52      0.00    272.44           RANKING
   1      2     17       -8.52      0.30    272.43           RANKING
   1      3      9       -7.99      0.71    272.43           RANKING
   1      4      5       -7.96      0.87    272.36           RANKING
   2      1     20       -8.03      0.00    271.78           RANKING
   2      2     12       -7.96      0.40    271.70           RANKING
   2      3     18       -7.94      0.38    271.73           RANKING
   2      4      4       -7.14      1.04    271.42           RANKING
   3      1      7       -8.03      0.00    272.11           RANKING
   3      2      1       -8.02      0.05    272.11           RANKING
   3      3      3       -8.01      0.04    272.11           RANKING
   3      4     16       -7.51      1.19    271.49           RANKING
   3      5     13       -7.42      1.79    271.60           RANKING
   3      6     10       -7.35      1.81    271.57           RANKING
   3      7     14       -6.70      1.61    271.47           RANKING
   4      1     11       -7.80      0.00    271.67           RANKING
   4      2      2       -6.78      1.28    271.46           RANKING
   5      1     19       -6.88      0.00    271.23           RANKING
   6      1      8       -6.86      0.00    271.85           RANKING
   6      2     15       -6.85      0.28    271.88           RANKING

Run time 0.732 sec
Idle time 0.000 sec
