AutoDock-GPU version: v1.6

**********************************************************
**    AutoDock-GPU AUTODOCKTOOLS-COMPATIBLE DLG FILE    **
**********************************************************


    DOCKING PARAMETERS
    ________________________


Ligand file:                               /home/a/REINVENT4/ReinventStudies/pleaseWork/justmol2mol_4_Compounds_ontop/graph-dock-8u2o5u/graph-DockGPU/node-autodockgpu/inputs/JESHDBQRYXRIDE-XUYVJEERNA-N.pdbqt
Grid fld file:                             /home/a/REINVENT4/ReinventStudies/mols/Rad51/maps/rad51_receptor.maps.fld

Random seed:                               42
Number of runs:                            20
Number of energy evaluations:              1132076
Number of generations:                     42000
Size of population:                        150
Rate of crossover:                         80.000000%
Tournament selection probability limit:    60.000000%
Rate of mutation:                          2.000000%
Maximal allowed delta movement:            +/- 6.000000A
Maximal allowed delta angle:               +/- 90.000000

Rate of local search:                      100.000000%
Maximal number of local search iterations: 300
Rho lower bound:                           0.010000
Spread of local search delta movement:     2.000000A
Spread of local search delta angle:        74.999999
Limit of consecutive successes/failures:   4

Handle symmetry during clustering:         YES
RMSD tolerance:                            2.000000A

Program call in command line was:          /home/a/REINVENT4/ReinventStudies/adgpu-v1.6_linux_x64_cuda12_128wi --filelist batch.txt --heuristics 1 --nrun 20 --psize 150 --lsit 300 --seed 42 --heurmax 12000000 


    GRID PARAMETERS
    ________________________


Receptor name:                             rad51_receptor
Number of grid points (x, y, z):           53, 53, 53
Grid center (x, y, z):                     139.950000, 75.640000, 221.970000A
Grid size (x, y, z):                       19.500000, 19.500000, 19.500000A
Grid spacing:                              0.375000A


    LIGAND PARAMETERS
    ________________________


Ligand name:                               /home/a/REINVENT4/ReinventStudies/pleaseWork/justmol2mol_4_Compounds_ontop/graph-dock-8u2o5u/graph-DockGPU/node-autodockgpu/inputs/JESHDBQRYXRIDE-XUYVJEERNA-N
Number of atoms:                           31
Number of rotatable bonds:                 6
Number of atom types:                      7


    DUMMY DATA (only for ADT-compatibility)
    ________________________


DPF> outlev 1
DPF> ga_run 20
DPF> fld /home/a/REINVENT4/ReinventStudies/mols/Rad51/maps/rad51_receptor.maps.fld
DPF> move /home/a/REINVENT4/ReinventStudies/pleaseWork/justmol2mol_4_Compounds_ontop/graph-dock-8u2o5u/graph-DockGPU/node-autodockgpu/inputs/JESHDBQRYXRIDE-XUYVJEERNA-N.pdbqt


    COUNTER STATES
    ________________________


Number of energy evaluations performed:    1116877
Number of generations used:                55


    INPUT LIGAND PDBQT FILE:
    ________________________


INPUT-LIGAND-PDBQT: REMARK SMILES O=C(N/C=C(\O)N1CCCC[C@H]1C1CCCCC1)c1ccc2cc(F)ccc2n1
INPUT-LIGAND-PDBQT: REMARK SMILES IDX 4 1 5 2 6 3 7 5 8 6 12 7 9 8 11 9 10 10 13 11 14 12 18 13
INPUT-LIGAND-PDBQT: REMARK SMILES IDX 15 14 17 15 16 16 3 17 2 18 1 20 19 21 29 22 20 23 28 24
INPUT-LIGAND-PDBQT: REMARK SMILES IDX 21 25 27 26 22 27 26 28 23 29 24 30 25 31
INPUT-LIGAND-PDBQT: REMARK H PARENT 6 4 3 19
INPUT-LIGAND-PDBQT: ROOT
INPUT-LIGAND-PDBQT: ATOM      1  C   UNL     1      -0.512  -0.118  -2.111  1.00  0.00     0.152 C 
INPUT-LIGAND-PDBQT: ENDROOT
INPUT-LIGAND-PDBQT: BRANCH   1   2
INPUT-LIGAND-PDBQT: ATOM      2  C   UNL     1      -0.769   0.920  -1.302  1.00  0.00     0.203 C 
INPUT-LIGAND-PDBQT: BRANCH   2   3
INPUT-LIGAND-PDBQT: ATOM      3  O   UNL     1       0.280   1.704  -0.823  1.00  0.00    -0.494 OA
INPUT-LIGAND-PDBQT: ATOM      4  H   UNL     1       0.117   2.520  -0.249  1.00  0.00     0.295 HD
INPUT-LIGAND-PDBQT: ENDBRANCH   2   3
INPUT-LIGAND-PDBQT: BRANCH   2   5
INPUT-LIGAND-PDBQT: ATOM      5  N   UNL     1      -2.123   1.195  -0.885  1.00  0.00    -0.339 N 
INPUT-LIGAND-PDBQT: ATOM      6  C   UNL     1      -3.199   1.239  -1.888  1.00  0.00     0.120 C 
INPUT-LIGAND-PDBQT: ATOM      7  C   UNL     1      -2.431   1.420   0.545  1.00  0.00     0.088 C 
INPUT-LIGAND-PDBQT: ATOM      8  C   UNL     1      -4.031   2.520  -1.736  1.00  0.00     0.022 C 
INPUT-LIGAND-PDBQT: ATOM      9  C   UNL     1      -3.917   1.815   0.730  1.00  0.00     0.025 C 
INPUT-LIGAND-PDBQT: ATOM     10  C   UNL     1      -4.302   2.912  -0.268  1.00  0.00     0.004 C 
INPUT-LIGAND-PDBQT: BRANCH   7  11
INPUT-LIGAND-PDBQT: ATOM     11  C   UNL     1      -2.005   0.190   1.407  1.00  0.00     0.012 C 
INPUT-LIGAND-PDBQT: ATOM     12  C   UNL     1      -2.025   0.502   2.925  1.00  0.00     0.006 C 
INPUT-LIGAND-PDBQT: ATOM     13  C   UNL     1      -2.764  -1.123   1.050  1.00  0.00     0.006 C 
INPUT-LIGAND-PDBQT: ATOM     14  C   UNL     1      -1.849  -0.782   3.742  1.00  0.00     0.000 C 
INPUT-LIGAND-PDBQT: ATOM     15  C   UNL     1      -3.727  -1.570   2.157  1.00  0.00     0.000 C 
INPUT-LIGAND-PDBQT: ATOM     16  C   UNL     1      -2.997  -1.785   3.496  1.00  0.00     0.000 C 
INPUT-LIGAND-PDBQT: ENDBRANCH   7  11
INPUT-LIGAND-PDBQT: ENDBRANCH   2   5
INPUT-LIGAND-PDBQT: ENDBRANCH   1   2
INPUT-LIGAND-PDBQT: BRANCH   1  17
INPUT-LIGAND-PDBQT: ATOM     17  N   UNL     1       0.816  -0.449  -2.544  1.00  0.00    -0.322 N 
INPUT-LIGAND-PDBQT: ATOM     18  C   UNL     1       1.730   0.512  -3.098  1.00  0.00     0.273 C 
INPUT-LIGAND-PDBQT: ATOM     19  H   UNL     1       1.048  -1.464  -2.623  1.00  0.00     0.169 HD
INPUT-LIGAND-PDBQT: ATOM     20  O   UNL     1       1.319   1.663  -3.413  1.00  0.00    -0.267 OA
INPUT-LIGAND-PDBQT: BRANCH  18  21
INPUT-LIGAND-PDBQT: ATOM     21  C   UNL     1       3.144   0.148  -3.330  1.00  0.00     0.129 A 
INPUT-LIGAND-PDBQT: ATOM     22  N   UNL     1       3.593  -1.081  -2.952  1.00  0.00    -0.243 NA
INPUT-LIGAND-PDBQT: ATOM     23  C   UNL     1       4.038   1.055  -3.926  1.00  0.00     0.035 A 
INPUT-LIGAND-PDBQT: ATOM     24  C   UNL     1       4.883  -1.470  -3.135  1.00  0.00     0.071 A 
INPUT-LIGAND-PDBQT: ATOM     25  C   UNL     1       5.370   0.685  -4.127  1.00  0.00     0.013 A 
INPUT-LIGAND-PDBQT: ATOM     26  C   UNL     1       5.298  -2.744  -2.732  1.00  0.00     0.032 A 
INPUT-LIGAND-PDBQT: ATOM     27  C   UNL     1       5.807  -0.585  -3.732  1.00  0.00     0.003 A 
INPUT-LIGAND-PDBQT: ATOM     28  C   UNL     1       6.626  -3.140  -2.921  1.00  0.00     0.041 A 
INPUT-LIGAND-PDBQT: ATOM     29  C   UNL     1       7.138  -0.989  -3.919  1.00  0.00     0.049 A 
INPUT-LIGAND-PDBQT: ATOM     30  C   UNL     1       7.544  -2.265  -3.513  1.00  0.00     0.123 A 
INPUT-LIGAND-PDBQT: ATOM     31  F   UNL     1       8.830  -2.655  -3.693  1.00  0.00    -0.207 F 
INPUT-LIGAND-PDBQT: ENDBRANCH  18  21
INPUT-LIGAND-PDBQT: ENDBRANCH   1  17
INPUT-LIGAND-PDBQT: TORSDOF 6


    FINAL DOCKED STATE:
    ________________________


Run:   1 / 20
Time taken for this run:   0.045s

DOCKED: MODEL        1
DOCKED: USER    Run = 1
DOCKED: USER
DOCKED: USER    Estimated Free Energy of Binding    =  -9.09 kcal/mol  [=(1)+(2)+(3)-(4)]
DOCKED: USER
DOCKED: USER    (1) Final Intermolecular Energy     = -10.88 kcal/mol
DOCKED: USER        vdW + Hbond + desolv Energy     = -10.80 kcal/mol
DOCKED: USER        Electrostatic Energy            =  -0.08 kcal/mol
DOCKED: USER        Moving Ligand-Fixed Receptor    = -10.88 kcal/mol
DOCKED: USER        Moving Ligand-Moving Receptor   =  +0.00 kcal/mol
DOCKED: USER    (2) Final Total Internal Energy     =  -1.10 kcal/mol
DOCKED: USER    (3) Torsional Free Energy           =  +1.79 kcal/mol
DOCKED: USER    (4) Unbound System's Energy         =  -1.10 kcal/mol
DOCKED: USER
DOCKED: USER
DOCKED: REMARK SMILES O=C(N/C=C(\O)N1CCCC[C@H]1C1CCCCC1)c1ccc2cc(F)ccc2n1
DOCKED: REMARK SMILES IDX 4 1 5 2 6 3 7 5 8 6 12 7 9 8 11 9 10 10 13 11 14 12 18 13
DOCKED: REMARK SMILES IDX 15 14 17 15 16 16 3 17 2 18 1 20 19 21 29 22 20 23 28 24
DOCKED: REMARK SMILES IDX 21 25 27 26 22 27 26 28 23 29 24 30 25 31
DOCKED: REMARK H PARENT 6 4 3 19
DOCKED: USER                              x       y       z     vdW  Elec       q    Type
DOCKED: USER                           _______ _______ _______ _____ _____    ______ ____
DOCKED: ROOT
DOCKED: ATOM      1  C   UNL     1     139.720  74.543 221.321 -0.21 -0.03    +0.152 C  
DOCKED: ENDROOT
DOCKED: BRANCH   1   2
DOCKED: ATOM      2  C   UNL     1     140.097  75.783 221.666 -0.26 -0.05    +0.203 C  
DOCKED: BRANCH   2   3
DOCKED: ATOM      3  O   UNL     1     141.445  76.136 221.623 -0.14 +0.22    -0.494 OA 
DOCKED: ATOM      4  H   UNL     1     142.094  75.853 222.345 -0.42 -0.19    +0.295 HD 
DOCKED: ENDBRANCH   2   3
DOCKED: BRANCH   2   5
DOCKED: ATOM      5  N   UNL     1     139.116  76.735 222.129 -0.16 +0.07    -0.339 N  
DOCKED: ATOM      6  C   UNL     1     137.856  76.254 222.717 -0.24 -0.03    +0.120 C  
DOCKED: ATOM      7  C   UNL     1     139.381  78.187 222.026 -0.24 -0.02    +0.088 C  
DOCKED: ATOM      8  C   UNL     1     136.653  76.952 222.066 -0.16 -0.00    +0.022 C  
DOCKED: ATOM      9  C   UNL     1     138.142  79.003 222.470 -0.23 -0.00    +0.025 C  
DOCKED: ATOM     10  C   UNL     1     136.878  78.455 221.800 -0.12 -0.00    +0.004 C  
DOCKED: BRANCH   7  11
DOCKED: ATOM     11  C   UNL     1     140.685  78.572 222.794 -0.46 -0.00    +0.012 C  
DOCKED: ATOM     12  C   UNL     1     141.784  79.119 221.848 -0.46 -0.00    +0.006 C  
DOCKED: ATOM     13  C   UNL     1     140.441  79.489 224.030 -0.34 -0.00    +0.006 C  
DOCKED: ATOM     14  C   UNL     1     142.942  79.716 222.654 -0.55 -0.00    +0.000 C  
DOCKED: ATOM     15  C   UNL     1     140.979  80.911 223.827 -0.43 -0.00    +0.000 C  
DOCKED: ATOM     16  C   UNL     1     142.488  80.912 223.518 -0.65 -0.00    +0.000 C  
DOCKED: ENDBRANCH   7  11
DOCKED: ENDBRANCH   2   5
DOCKED: ENDBRANCH   1   2
DOCKED: BRANCH   1  17
DOCKED: ATOM     17  N   UNL     1     139.505  73.505 222.289 -0.13 +0.06    -0.322 N  
DOCKED: ATOM     18  C   UNL     1     140.342  72.341 222.401 -0.21 -0.03    +0.273 C  
DOCKED: ATOM     19  H   UNL     1     138.596  73.519 222.803 -0.53 -0.09    +0.169 HD 
DOCKED: ATOM     20  O   UNL     1     141.194  72.090 221.504 -0.17 +0.03    -0.267 OA 
DOCKED: BRANCH  18  21
DOCKED: ATOM     21  C   UNL     1     140.188  71.420 223.546 -0.32 -0.02    +0.129 A  
DOCKED: ATOM     22  N   UNL     1     140.658  71.785 224.771 -0.28 +0.03    -0.243 NA 
DOCKED: ATOM     23  C   UNL     1     139.572  70.165 223.390 -0.26 -0.01    +0.035 A  
DOCKED: ATOM     24  C   UNL     1     140.549  70.977 225.860 -0.54 -0.01    +0.071 A  
DOCKED: ATOM     25  C   UNL     1     139.446  69.313 224.489 -0.34 -0.00    +0.013 A  
DOCKED: ATOM     26  C   UNL     1     141.045  71.396 227.099 -0.72 -0.01    +0.032 A  
DOCKED: ATOM     27  C   UNL     1     139.935  69.712 225.739 -0.47 -0.00    +0.003 A  
DOCKED: ATOM     28  C   UNL     1     140.933  70.562 228.217 -0.57 -0.01    +0.041 A  
DOCKED: ATOM     29  C   UNL     1     139.825  68.880 226.864 -0.54 -0.01    +0.049 A  
DOCKED: ATOM     30  C   UNL     1     140.324  69.307 228.100 -0.53 -0.02    +0.123 A  
DOCKED: ATOM     31  F   UNL     1     140.218  68.504 229.187 -0.12 +0.04    -0.207 F  
DOCKED: ENDBRANCH  18  21
DOCKED: ENDBRANCH   1  17
DOCKED: TORSDOF 6
DOCKED: TER
DOCKED: ENDMDL
________________________________________________________________________________


    FINAL DOCKED STATE:
    ________________________


Run:   2 / 20
Time taken for this run:   0.045s

DOCKED: MODEL        2
DOCKED: USER    Run = 2
DOCKED: USER
DOCKED: USER    Estimated Free Energy of Binding    =  -9.12 kcal/mol  [=(1)+(2)+(3)-(4)]
DOCKED: USER
DOCKED: USER    (1) Final Intermolecular Energy     = -10.91 kcal/mol
DOCKED: USER        vdW + Hbond + desolv Energy     = -10.81 kcal/mol
DOCKED: USER        Electrostatic Energy            =  -0.10 kcal/mol
DOCKED: USER        Moving Ligand-Fixed Receptor    = -10.91 kcal/mol
DOCKED: USER        Moving Ligand-Moving Receptor   =  +0.00 kcal/mol
DOCKED: USER    (2) Final Total Internal Energy     =  -1.07 kcal/mol
DOCKED: USER    (3) Torsional Free Energy           =  +1.79 kcal/mol
DOCKED: USER    (4) Unbound System's Energy         =  -1.07 kcal/mol
DOCKED: USER
DOCKED: USER
DOCKED: REMARK SMILES O=C(N/C=C(\O)N1CCCC[C@H]1C1CCCCC1)c1ccc2cc(F)ccc2n1
DOCKED: REMARK SMILES IDX 4 1 5 2 6 3 7 5 8 6 12 7 9 8 11 9 10 10 13 11 14 12 18 13
DOCKED: REMARK SMILES IDX 15 14 17 15 16 16 3 17 2 18 1 20 19 21 29 22 20 23 28 24
DOCKED: REMARK SMILES IDX 21 25 27 26 22 27 26 28 23 29 24 30 25 31
DOCKED: REMARK H PARENT 6 4 3 19
DOCKED: USER                              x       y       z     vdW  Elec       q    Type
DOCKED: USER                           _______ _______ _______ _____ _____    ______ ____
DOCKED: ROOT
DOCKED: ATOM      1  C   UNL     1     139.794  74.499 221.309 -0.21 -0.03    +0.152 C  
DOCKED: ENDROOT
DOCKED: BRANCH   1   2
DOCKED: ATOM      2  C   UNL     1     140.138  75.749 221.649 -0.26 -0.05    +0.203 C  
DOCKED: BRANCH   2   3
DOCKED: ATOM      3  O   UNL     1     141.472  76.148 221.574 -0.12 +0.23    -0.494 OA 
DOCKED: ATOM      4  H   UNL     1     142.108  76.035 222.351 -0.43 -0.22    +0.295 HD 
DOCKED: ENDBRANCH   2   3
DOCKED: BRANCH   2   5
DOCKED: ATOM      5  N   UNL     1     139.139  76.666 222.143 -0.16 +0.07    -0.339 N  
DOCKED: ATOM      6  C   UNL     1     137.891  76.141 222.720 -0.23 -0.03    +0.120 C  
DOCKED: ATOM      7  C   UNL     1     139.372  78.126 222.081 -0.25 -0.02    +0.088 C  
DOCKED: ATOM      8  C   UNL     1     136.671  76.831 222.093 -0.17 -0.00    +0.022 C  
DOCKED: ATOM      9  C   UNL     1     138.117  78.902 222.553 -0.24 -0.00    +0.025 C  
DOCKED: ATOM     10  C   UNL     1     136.863  78.346 221.870 -0.13 -0.00    +0.004 C  
DOCKED: BRANCH   7  11
DOCKED: ATOM     11  C   UNL     1     140.669  78.517 222.857 -0.46 -0.00    +0.012 C  
DOCKED: ATOM     12  C   UNL     1     141.787  79.026 221.912 -0.47 -0.00    +0.006 C  
DOCKED: ATOM     13  C   UNL     1     140.419  79.469 224.065 -0.31 -0.00    +0.006 C  
DOCKED: ATOM     14  C   UNL     1     142.941  79.631 222.718 -0.56 -0.00    +0.000 C  
DOCKED: ATOM     15  C   UNL     1     140.977  80.879 223.833 -0.44 -0.00    +0.000 C  
DOCKED: ATOM     16  C   UNL     1     142.489  80.854 223.545 -0.66 -0.00    +0.000 C  
DOCKED: ENDBRANCH   7  11
DOCKED: ENDBRANCH   2   5
DOCKED: ENDBRANCH   1   2
DOCKED: BRANCH   1  17
DOCKED: ATOM     17  N   UNL     1     139.539  73.476 222.284 -0.14 +0.06    -0.322 N  
DOCKED: ATOM     18  C   UNL     1     140.379  72.322 222.457 -0.21 -0.03    +0.273 C  
DOCKED: ATOM     19  H   UNL     1     138.606  73.491 222.752 -0.52 -0.08    +0.169 HD 
DOCKED: ATOM     20  O   UNL     1     141.276  72.063 221.608 -0.18 +0.03    -0.267 OA 
DOCKED: BRANCH  18  21
DOCKED: ATOM     21  C   UNL     1     140.176  71.419 223.610 -0.33 -0.02    +0.129 A  
DOCKED: ATOM     22  N   UNL     1     140.682  71.759 224.828 -0.29 +0.03    -0.243 NA 
DOCKED: ATOM     23  C   UNL     1     139.476  70.208 223.468 -0.27 -0.01    +0.035 A  
DOCKED: ATOM     24  C   UNL     1     140.532  70.966 225.923 -0.54 -0.01    +0.071 A  
DOCKED: ATOM     25  C   UNL     1     139.305  69.372 224.574 -0.35 -0.00    +0.013 A  
DOCKED: ATOM     26  C   UNL     1     141.068  71.358 227.154 -0.71 -0.01    +0.032 A  
DOCKED: ATOM     27  C   UNL     1     139.833  69.744 225.816 -0.47 -0.00    +0.003 A  
DOCKED: ATOM     28  C   UNL     1     140.912  70.540 228.278 -0.56 -0.01    +0.041 A  
DOCKED: ATOM     29  C   UNL     1     139.680  68.928 226.948 -0.53 -0.01    +0.049 A  
DOCKED: ATOM     30  C   UNL     1     140.220  69.328 228.175 -0.52 -0.02    +0.123 A  
DOCKED: ATOM     31  F   UNL     1     140.072  68.540 229.268 -0.08 +0.04    -0.207 F  
DOCKED: ENDBRANCH  18  21
DOCKED: ENDBRANCH   1  17
DOCKED: TORSDOF 6
DOCKED: TER
DOCKED: ENDMDL
________________________________________________________________________________


    FINAL DOCKED STATE:
    ________________________


Run:   3 / 20
Time taken for this run:   0.045s

DOCKED: MODEL        3
DOCKED: USER    Run = 3
DOCKED: USER
DOCKED: USER    Estimated Free Energy of Binding    =  -7.99 kcal/mol  [=(1)+(2)+(3)-(4)]
DOCKED: USER
DOCKED: USER    (1) Final Intermolecular Energy     =  -9.78 kcal/mol
DOCKED: USER        vdW + Hbond + desolv Energy     =  -9.69 kcal/mol
DOCKED: USER        Electrostatic Energy            =  -0.10 kcal/mol
DOCKED: USER        Moving Ligand-Fixed Receptor    =  -9.78 kcal/mol
DOCKED: USER        Moving Ligand-Moving Receptor   =  +0.00 kcal/mol
DOCKED: USER    (2) Final Total Internal Energy     =  -2.05 kcal/mol
DOCKED: USER    (3) Torsional Free Energy           =  +1.79 kcal/mol
DOCKED: USER    (4) Unbound System's Energy         =  -2.05 kcal/mol
DOCKED: USER
DOCKED: USER
DOCKED: REMARK SMILES O=C(N/C=C(\O)N1CCCC[C@H]1C1CCCCC1)c1ccc2cc(F)ccc2n1
DOCKED: REMARK SMILES IDX 4 1 5 2 6 3 7 5 8 6 12 7 9 8 11 9 10 10 13 11 14 12 18 13
DOCKED: REMARK SMILES IDX 15 14 17 15 16 16 3 17 2 18 1 20 19 21 29 22 20 23 28 24
DOCKED: REMARK SMILES IDX 21 25 27 26 22 27 26 28 23 29 24 30 25 31
DOCKED: REMARK H PARENT 6 4 3 19
DOCKED: USER                              x       y       z     vdW  Elec       q    Type
DOCKED: USER                           _______ _______ _______ _____ _____    ______ ____
DOCKED: ROOT
DOCKED: ATOM      1  C   UNL     1     139.051  72.719 222.278 -0.15 -0.04    +0.152 C  
DOCKED: ENDROOT
DOCKED: BRANCH   1   2
DOCKED: ATOM      2  C   UNL     1     139.737  71.655 222.719 -0.23 -0.04    +0.203 C  
DOCKED: BRANCH   2   3
DOCKED: ATOM      3  O   UNL     1     141.130  71.697 222.767 -0.07 +0.02    -0.494 OA 
DOCKED: ATOM      4  H   UNL     1     141.671  72.233 222.102 +0.13 -0.01    +0.295 HD 
DOCKED: ENDBRANCH   2   3
DOCKED: BRANCH   2   5
DOCKED: ATOM      5  N   UNL     1     139.039  70.449 223.094 -0.10 +0.06    -0.339 N  
DOCKED: ATOM      6  C   UNL     1     138.653  69.478 222.058 -0.13 -0.02    +0.120 C  
DOCKED: ATOM      7  C   UNL     1     138.723  70.182 224.516 -0.31 -0.01    +0.088 C  
DOCKED: ATOM      8  C   UNL     1     137.172  69.099 222.193 -0.13 -0.00    +0.022 C  
DOCKED: ATOM      9  C   UNL     1     137.869  68.898 224.656 -0.29 -0.00    +0.025 C  
DOCKED: ATOM     10  C   UNL     1     136.709  68.920 223.655 -0.17 -0.00    +0.004 C  
DOCKED: BRANCH   7  11
DOCKED: ATOM     11  C   UNL     1     140.022  70.160 225.381 -0.48 -0.00    +0.012 C  
DOCKED: ATOM     12  C   UNL     1     140.306  71.530 226.048 -0.52 -0.00    +0.006 C  
DOCKED: ATOM     13  C   UNL     1     140.090  68.973 226.387 -0.57 -0.00    +0.006 C  
DOCKED: ATOM     14  C   UNL     1     141.433  71.405 227.078 -0.59 -0.00    +0.000 C  
DOCKED: ATOM     15  C   UNL     1     139.967  69.425 227.847 -0.65 -0.00    +0.000 C  
DOCKED: ATOM     16  C   UNL     1     141.064  70.439 228.225 -0.57 -0.00    +0.000 C  
DOCKED: ENDBRANCH   7  11
DOCKED: ENDBRANCH   2   5
DOCKED: ENDBRANCH   1   2
DOCKED: BRANCH   1  17
DOCKED: ATOM     17  N   UNL     1     139.574  74.054 222.340 -0.10 +0.05    -0.322 N  
DOCKED: ATOM     18  C   UNL     1     140.716  74.493 221.586 -0.20 -0.04    +0.273 C  
DOCKED: ATOM     19  H   UNL     1     139.213  74.668 223.104 -0.54 -0.05    +0.169 HD 
DOCKED: ATOM     20  O   UNL     1     141.434  73.648 220.982 -0.20 +0.04    -0.267 OA 
DOCKED: BRANCH  18  21
DOCKED: ATOM     21  C   UNL     1     141.074  75.927 221.540 -0.30 -0.04    +0.129 A  
DOCKED: ATOM     22  N   UNL     1     140.924  76.693 222.656 -0.25 +0.08    -0.243 NA 
DOCKED: ATOM     23  C   UNL     1     141.556  76.517 220.359 -0.27 -0.02    +0.035 A  
DOCKED: ATOM     24  C   UNL     1     141.231  78.018 222.673 -0.42 -0.03    +0.071 A  
DOCKED: ATOM     25  C   UNL     1     141.880  77.876 220.344 -0.31 -0.01    +0.013 A  
DOCKED: ATOM     26  C   UNL     1     141.063  78.764 223.844 -0.43 -0.01    +0.032 A  
DOCKED: ATOM     27  C   UNL     1     141.720  78.642 221.505 -0.40 -0.00    +0.003 A  
DOCKED: ATOM     28  C   UNL     1     141.379  80.127 223.857 -0.51 -0.01    +0.041 A  
DOCKED: ATOM     29  C   UNL     1     142.035  80.009 221.525 -0.40 -0.02    +0.049 A  
DOCKED: ATOM     30  C   UNL     1     141.864  80.748 222.701 -0.47 -0.03    +0.123 A  
DOCKED: ATOM     31  F   UNL     1     142.168  82.069 222.720 -0.06 +0.03    -0.207 F  
DOCKED: ENDBRANCH  18  21
DOCKED: ENDBRANCH   1  17
DOCKED: TORSDOF 6
DOCKED: TER
DOCKED: ENDMDL
________________________________________________________________________________


    FINAL DOCKED STATE:
    ________________________


Run:   4 / 20
Time taken for this run:   0.045s

DOCKED: MODEL        4
DOCKED: USER    Run = 4
DOCKED: USER
DOCKED: USER    Estimated Free Energy of Binding    =  -8.32 kcal/mol  [=(1)+(2)+(3)-(4)]
DOCKED: USER
DOCKED: USER    (1) Final Intermolecular Energy     = -10.11 kcal/mol
DOCKED: USER        vdW + Hbond + desolv Energy     =  -9.97 kcal/mol
DOCKED: USER        Electrostatic Energy            =  -0.14 kcal/mol
DOCKED: USER        Moving Ligand-Fixed Receptor    = -10.11 kcal/mol
DOCKED: USER        Moving Ligand-Moving Receptor   =  +0.00 kcal/mol
DOCKED: USER    (2) Final Total Internal Energy     =  -1.67 kcal/mol
DOCKED: USER    (3) Torsional Free Energy           =  +1.79 kcal/mol
DOCKED: USER    (4) Unbound System's Energy         =  -1.67 kcal/mol
DOCKED: USER
DOCKED: USER
DOCKED: REMARK SMILES O=C(N/C=C(\O)N1CCCC[C@H]1C1CCCCC1)c1ccc2cc(F)ccc2n1
DOCKED: REMARK SMILES IDX 4 1 5 2 6 3 7 5 8 6 12 7 9 8 11 9 10 10 13 11 14 12 18 13
DOCKED: REMARK SMILES IDX 15 14 17 15 16 16 3 17 2 18 1 20 19 21 29 22 20 23 28 24
DOCKED: REMARK SMILES IDX 21 25 27 26 22 27 26 28 23 29 24 30 25 31
DOCKED: REMARK H PARENT 6 4 3 19
DOCKED: USER                              x       y       z     vdW  Elec       q    Type
DOCKED: USER                           _______ _______ _______ _____ _____    ______ ____
DOCKED: ROOT
DOCKED: ATOM      1  C   UNL     1     140.153  74.686 221.255 -0.23 -0.03    +0.152 C  
DOCKED: ENDROOT
DOCKED: BRANCH   1   2
DOCKED: ATOM      2  C   UNL     1     141.002  75.710 221.425 -0.26 -0.06    +0.203 C  
DOCKED: BRANCH   2   3
DOCKED: ATOM      3  O   UNL     1     140.986  76.437 222.615 -0.19 +0.15    -0.494 OA 
DOCKED: ATOM      4  H   UNL     1     141.835  76.777 223.044 -0.30 -0.18    +0.295 HD 
DOCKED: ENDBRANCH   2   3
DOCKED: BRANCH   2   5
DOCKED: ATOM      5  N   UNL     1     141.896  76.094 220.359 -0.12 +0.17    -0.339 N  
DOCKED: ATOM      6  C   UNL     1     142.243  77.512 220.174 -0.20 -0.08    +0.120 C  
DOCKED: ATOM      7  C   UNL     1     142.471  75.066 219.463 -0.23 -0.03    +0.088 C  
DOCKED: ATOM      8  C   UNL     1     142.043  77.934 218.712 -0.27 -0.01    +0.022 C  
DOCKED: ATOM      9  C   UNL     1     143.295  75.726 218.330 -0.26 -0.01    +0.025 C  
DOCKED: ATOM     10  C   UNL     1     142.500  76.869 217.692 -0.25 -0.00    +0.004 C  
DOCKED: BRANCH   7  11
DOCKED: ATOM     11  C   UNL     1     143.276  74.004 220.276 -0.34 -0.00    +0.012 C  
DOCKED: ATOM     12  C   UNL     1     143.051  72.565 219.746 -0.21 -0.00    +0.006 C  
DOCKED: ATOM     13  C   UNL     1     144.784  74.355 220.452 -0.49 -0.00    +0.006 C  
DOCKED: ATOM     14  C   UNL     1     144.038  71.590 220.397 -0.28 -0.00    +0.000 C  
DOCKED: ATOM     15  C   UNL     1     145.705  73.417 219.662 -0.44 +0.00    +0.000 C  
DOCKED: ATOM     16  C   UNL     1     145.504  71.945 220.065 -0.27 +0.00    +0.000 C  
DOCKED: ENDBRANCH   7  11
DOCKED: ENDBRANCH   2   5
DOCKED: ENDBRANCH   1   2
DOCKED: BRANCH   1  17
DOCKED: ATOM     17  N   UNL     1     139.872  73.737 222.294 -0.11 +0.03    -0.322 N  
DOCKED: ATOM     18  C   UNL     1     140.116  72.326 222.164 -0.20 -0.04    +0.273 C  
DOCKED: ATOM     19  H   UNL     1     139.299  74.074 223.100 -0.54 -0.06    +0.169 HD 
DOCKED: ATOM     20  O   UNL     1     140.407  71.839 221.037 -0.10 +0.04    -0.267 OA 
DOCKED: BRANCH  18  21
DOCKED: ATOM     21  C   UNL     1     139.997  71.438 223.340 -0.31 -0.02    +0.129 A  
DOCKED: ATOM     22  N   UNL     1     140.518  71.831 224.536 -0.27 +0.04    -0.243 NA 
DOCKED: ATOM     23  C   UNL     1     139.364  70.186 223.242 -0.25 -0.01    +0.035 A  
DOCKED: ATOM     24  C   UNL     1     140.443  71.055 225.650 -0.52 -0.01    +0.071 A  
DOCKED: ATOM     25  C   UNL     1     139.272  69.366 224.369 -0.33 -0.00    +0.013 A  
DOCKED: ATOM     26  C   UNL     1     140.991  71.502 226.857 -0.71 -0.01    +0.032 A  
DOCKED: ATOM     27  C   UNL     1     139.813  69.793 225.588 -0.45 -0.00    +0.003 A  
DOCKED: ATOM     28  C   UNL     1     140.914  70.700 228.000 -0.64 -0.01    +0.041 A  
DOCKED: ATOM     29  C   UNL     1     139.738  68.994 226.739 -0.52 -0.01    +0.049 A  
DOCKED: ATOM     30  C   UNL     1     140.289  69.450 227.942 -0.52 -0.02    +0.123 A  
DOCKED: ATOM     31  F   UNL     1     140.217  68.677 229.054 -0.15 +0.04    -0.207 F  
DOCKED: ENDBRANCH  18  21
DOCKED: ENDBRANCH   1  17
DOCKED: TORSDOF 6
DOCKED: TER
DOCKED: ENDMDL
________________________________________________________________________________


    FINAL DOCKED STATE:
    ________________________


Run:   5 / 20
Time taken for this run:   0.045s

DOCKED: MODEL        5
DOCKED: USER    Run = 5
DOCKED: USER
DOCKED: USER    Estimated Free Energy of Binding    =  -8.64 kcal/mol  [=(1)+(2)+(3)-(4)]
DOCKED: USER
DOCKED: USER    (1) Final Intermolecular Energy     = -10.43 kcal/mol
DOCKED: USER        vdW + Hbond + desolv Energy     = -10.34 kcal/mol
DOCKED: USER        Electrostatic Energy            =  -0.10 kcal/mol
DOCKED: USER        Moving Ligand-Fixed Receptor    = -10.43 kcal/mol
DOCKED: USER        Moving Ligand-Moving Receptor   =  +0.00 kcal/mol
DOCKED: USER    (2) Final Total Internal Energy     =  -1.48 kcal/mol
DOCKED: USER    (3) Torsional Free Energy           =  +1.79 kcal/mol
DOCKED: USER    (4) Unbound System's Energy         =  -1.48 kcal/mol
DOCKED: USER
DOCKED: USER
DOCKED: REMARK SMILES O=C(N/C=C(\O)N1CCCC[C@H]1C1CCCCC1)c1ccc2cc(F)ccc2n1
DOCKED: REMARK SMILES IDX 4 1 5 2 6 3 7 5 8 6 12 7 9 8 11 9 10 10 13 11 14 12 18 13
DOCKED: REMARK SMILES IDX 15 14 17 15 16 16 3 17 2 18 1 20 19 21 29 22 20 23 28 24
DOCKED: REMARK SMILES IDX 21 25 27 26 22 27 26 28 23 29 24 30 25 31
DOCKED: REMARK H PARENT 6 4 3 19
DOCKED: USER                              x       y       z     vdW  Elec       q    Type
DOCKED: USER                           _______ _______ _______ _____ _____    ______ ____
DOCKED: ROOT
DOCKED: ATOM      1  C   UNL     1     140.082  73.753 221.416 -0.22 -0.02    +0.152 C  
DOCKED: ENDROOT
DOCKED: BRANCH   1   2
DOCKED: ATOM      2  C   UNL     1     140.140  75.088 221.524 -0.24 -0.04    +0.203 C  
DOCKED: BRANCH   2   3
DOCKED: ATOM      3  O   UNL     1     139.585  75.720 222.636 -0.35 +0.07    -0.494 OA 
DOCKED: ATOM      4  H   UNL     1     138.895  75.266 223.218 -0.41 -0.10    +0.295 HD 
DOCKED: ENDBRANCH   2   3
DOCKED: BRANCH   2   5
DOCKED: ATOM      5  N   UNL     1     140.731  75.875 220.468 -0.07 +0.11    -0.339 N  
DOCKED: ATOM      6  C   UNL     1     140.451  75.536 219.064 -0.06 -0.04    +0.120 C  
DOCKED: ATOM      7  C   UNL     1     141.604  77.025 220.794 -0.21 -0.05    +0.088 C  
DOCKED: ATOM      8  C   UNL     1     141.755  75.437 218.259 -0.11 -0.01    +0.022 C  
DOCKED: ATOM      9  C   UNL     1     142.213  77.633 219.507 -0.29 -0.02    +0.025 C  
DOCKED: ATOM     10  C   UNL     1     142.788  76.526 218.618 -0.31 -0.00    +0.004 C  
DOCKED: BRANCH   7  11
DOCKED: ATOM     11  C   UNL     1     140.845  78.068 221.674 -0.35 -0.00    +0.012 C  
DOCKED: ATOM     12  C   UNL     1     141.452  78.191 223.095 -0.51 -0.00    +0.006 C  
DOCKED: ATOM     13  C   UNL     1     140.645  79.450 220.981 -0.25 -0.00    +0.006 C  
DOCKED: ATOM     14  C   UNL     1     140.851  79.388 223.837 -0.54 -0.00    +0.000 C  
DOCKED: ATOM     15  C   UNL     1     141.481  80.562 221.627 -0.42 -0.00    +0.000 C  
DOCKED: ATOM     16  C   UNL     1     141.158  80.723 223.124 -0.52 -0.00    +0.000 C  
DOCKED: ENDBRANCH   7  11
DOCKED: ENDBRANCH   2   5
DOCKED: ENDBRANCH   1   2
DOCKED: BRANCH   1  17
DOCKED: ATOM     17  N   UNL     1     139.894  72.894 222.550 -0.16 +0.05    -0.322 N  
DOCKED: ATOM     18  C   UNL     1     139.710  71.472 222.444 -0.18 -0.05    +0.273 C  
DOCKED: ATOM     19  H   UNL     1     139.703  73.357 223.467 -0.41 -0.04    +0.169 HD 
DOCKED: ATOM     20  O   UNL     1     139.506  70.946 221.316 -0.08 +0.05    -0.267 OA 
DOCKED: BRANCH  18  21
DOCKED: ATOM     21  C   UNL     1     139.729  70.626 223.657 -0.27 -0.02    +0.129 A  
DOCKED: ATOM     22  N   UNL     1     140.297  71.101 224.800 -0.30 +0.04    -0.243 NA 
DOCKED: ATOM     23  C   UNL     1     139.179  69.332 223.646 -0.26 -0.01    +0.035 A  
DOCKED: ATOM     24  C   UNL     1     140.348  70.368 225.944 -0.49 -0.01    +0.071 A  
DOCKED: ATOM     25  C   UNL     1     139.217  68.554 224.805 -0.39 -0.00    +0.013 A  
DOCKED: ATOM     26  C   UNL     1     140.940  70.899 227.095 -0.64 -0.01    +0.032 A  
DOCKED: ATOM     27  C   UNL     1     139.804  69.065 225.969 -0.50 -0.00    +0.003 A  
DOCKED: ATOM     28  C   UNL     1     140.992  70.140 228.269 -0.54 -0.01    +0.041 A  
DOCKED: ATOM     29  C   UNL     1     139.859  68.310 227.151 -0.60 -0.01    +0.049 A  
DOCKED: ATOM     30  C   UNL     1     140.452  68.849 228.297 -0.54 -0.03    +0.123 A  
DOCKED: ATOM     31  F   UNL     1     140.506  68.119 229.438 -0.10 +0.05    -0.207 F  
DOCKED: ENDBRANCH  18  21
DOCKED: ENDBRANCH   1  17
DOCKED: TORSDOF 6
DOCKED: TER
DOCKED: ENDMDL
________________________________________________________________________________


    FINAL DOCKED STATE:
    ________________________


Run:   6 / 20
Time taken for this run:   0.045s

DOCKED: MODEL        6
DOCKED: USER    Run = 6
DOCKED: USER
DOCKED: USER    Estimated Free Energy of Binding    =  -8.78 kcal/mol  [=(1)+(2)+(3)-(4)]
DOCKED: USER
DOCKED: USER    (1) Final Intermolecular Energy     = -10.57 kcal/mol
DOCKED: USER        vdW + Hbond + desolv Energy     = -10.44 kcal/mol
DOCKED: USER        Electrostatic Energy            =  -0.13 kcal/mol
DOCKED: USER        Moving Ligand-Fixed Receptor    = -10.57 kcal/mol
DOCKED: USER        Moving Ligand-Moving Receptor   =  +0.00 kcal/mol
DOCKED: USER    (2) Final Total Internal Energy     =  -1.35 kcal/mol
DOCKED: USER    (3) Torsional Free Energy           =  +1.79 kcal/mol
DOCKED: USER    (4) Unbound System's Energy         =  -1.35 kcal/mol
DOCKED: USER
DOCKED: USER
DOCKED: REMARK SMILES O=C(N/C=C(\O)N1CCCC[C@H]1C1CCCCC1)c1ccc2cc(F)ccc2n1
DOCKED: REMARK SMILES IDX 4 1 5 2 6 3 7 5 8 6 12 7 9 8 11 9 10 10 13 11 14 12 18 13
DOCKED: REMARK SMILES IDX 15 14 17 15 16 16 3 17 2 18 1 20 19 21 29 22 20 23 28 24
DOCKED: REMARK SMILES IDX 21 25 27 26 22 27 26 28 23 29 24 30 25 31
DOCKED: REMARK H PARENT 6 4 3 19
DOCKED: USER                              x       y       z     vdW  Elec       q    Type
DOCKED: USER                           _______ _______ _______ _____ _____    ______ ____
DOCKED: ROOT
DOCKED: ATOM      1  C   UNL     1     139.853  74.603 221.332 -0.22 -0.03    +0.152 C  
DOCKED: ENDROOT
DOCKED: BRANCH   1   2
DOCKED: ATOM      2  C   UNL     1     139.715  75.907 221.610 -0.24 -0.05    +0.203 C  
DOCKED: BRANCH   2   3
DOCKED: ATOM      3  O   UNL     1     139.046  76.303 222.768 -0.16 +0.09    -0.494 OA 
DOCKED: ATOM      4  H   UNL     1     138.789  75.642 223.489 -0.35 -0.09    +0.295 HD 
DOCKED: ENDBRANCH   2   3
DOCKED: BRANCH   2   5
DOCKED: ATOM      5  N   UNL     1     140.211  76.900 220.689 -0.06 +0.11    -0.339 N  
DOCKED: ATOM      6  C   UNL     1     139.475  77.169 219.443 -0.05 -0.03    +0.120 C  
DOCKED: ATOM      7  C   UNL     1     141.446  77.654 220.999 -0.28 -0.05    +0.088 C  
DOCKED: ATOM      8  C   UNL     1     140.420  77.128 218.234 -0.06 -0.01    +0.022 C  
DOCKED: ATOM      9  C   UNL     1     141.843  78.568 219.814 -0.27 -0.02    +0.025 C  
DOCKED: ATOM     10  C   UNL     1     141.793  77.783 218.499 -0.23 -0.00    +0.004 C  
DOCKED: BRANCH   7  11
DOCKED: ATOM     11  C   UNL     1     141.306  78.420 222.352 -0.46 -0.01    +0.012 C  
DOCKED: ATOM     12  C   UNL     1     142.535  79.316 222.649 -0.54 -0.00    +0.006 C  
DOCKED: ATOM     13  C   UNL     1     139.954  79.177 222.511 -0.35 -0.00    +0.006 C  
DOCKED: ATOM     14  C   UNL     1     142.258  80.235 223.843 -0.65 -0.00    +0.000 C  
DOCKED: ATOM     15  C   UNL     1     140.121  80.701 222.474 -0.35 -0.00    +0.000 C  
DOCKED: ATOM     16  C   UNL     1     141.082  81.197 223.571 -0.46 -0.00    +0.000 C  
DOCKED: ENDBRANCH   7  11
DOCKED: ENDBRANCH   2   5
DOCKED: ENDBRANCH   1   2
DOCKED: BRANCH   1  17
DOCKED: ATOM     17  N   UNL     1     139.623  73.576 222.309 -0.14 +0.05    -0.322 N  
DOCKED: ATOM     18  C   UNL     1     140.312  72.314 222.308 -0.21 -0.03    +0.273 C  
DOCKED: ATOM     19  H   UNL     1     138.791  73.692 222.929 -0.54 -0.09    +0.169 HD 
DOCKED: ATOM     20  O   UNL     1     141.012  71.980 221.313 -0.15 +0.03    -0.267 OA 
DOCKED: BRANCH  18  21
DOCKED: ATOM     21  C   UNL     1     140.177  71.391 223.455 -0.31 -0.02    +0.129 A  
DOCKED: ATOM     22  N   UNL     1     140.659  71.760 224.675 -0.28 +0.03    -0.243 NA 
DOCKED: ATOM     23  C   UNL     1     139.569  70.132 223.306 -0.25 -0.01    +0.035 A  
DOCKED: ATOM     24  C   UNL     1     140.569  70.951 225.764 -0.53 -0.01    +0.071 A  
DOCKED: ATOM     25  C   UNL     1     139.462  69.279 224.406 -0.32 -0.00    +0.013 A  
DOCKED: ATOM     26  C   UNL     1     141.076  71.373 226.998 -0.71 -0.01    +0.032 A  
DOCKED: ATOM     27  C   UNL     1     139.963  69.681 225.650 -0.46 -0.00    +0.003 A  
DOCKED: ATOM     28  C   UNL     1     140.983  70.539 228.116 -0.59 -0.01    +0.041 A  
DOCKED: ATOM     29  C   UNL     1     139.872  68.849 226.777 -0.54 -0.01    +0.049 A  
DOCKED: ATOM     30  C   UNL     1     140.382  69.279 228.006 -0.53 -0.02    +0.123 A  
DOCKED: ATOM     31  F   UNL     1     140.295  68.475 229.094 -0.16 +0.04    -0.207 F  
DOCKED: ENDBRANCH  18  21
DOCKED: ENDBRANCH   1  17
DOCKED: TORSDOF 6
DOCKED: TER
DOCKED: ENDMDL
________________________________________________________________________________


    FINAL DOCKED STATE:
    ________________________


Run:   7 / 20
Time taken for this run:   0.045s

DOCKED: MODEL        7
DOCKED: USER    Run = 7
DOCKED: USER
DOCKED: USER    Estimated Free Energy of Binding    =  -8.62 kcal/mol  [=(1)+(2)+(3)-(4)]
DOCKED: USER
DOCKED: USER    (1) Final Intermolecular Energy     = -10.41 kcal/mol
DOCKED: USER        vdW + Hbond + desolv Energy     = -10.34 kcal/mol
DOCKED: USER        Electrostatic Energy            =  -0.07 kcal/mol
DOCKED: USER        Moving Ligand-Fixed Receptor    = -10.41 kcal/mol
DOCKED: USER        Moving Ligand-Moving Receptor   =  +0.00 kcal/mol
DOCKED: USER    (2) Final Total Internal Energy     =  -1.51 kcal/mol
DOCKED: USER    (3) Torsional Free Energy           =  +1.79 kcal/mol
DOCKED: USER    (4) Unbound System's Energy         =  -1.51 kcal/mol
DOCKED: USER
DOCKED: USER
DOCKED: REMARK SMILES O=C(N/C=C(\O)N1CCCC[C@H]1C1CCCCC1)c1ccc2cc(F)ccc2n1
DOCKED: REMARK SMILES IDX 4 1 5 2 6 3 7 5 8 6 12 7 9 8 11 9 10 10 13 11 14 12 18 13
DOCKED: REMARK SMILES IDX 15 14 17 15 16 16 3 17 2 18 1 20 19 21 29 22 20 23 28 24
DOCKED: REMARK SMILES IDX 21 25 27 26 22 27 26 28 23 29 24 30 25 31
DOCKED: REMARK H PARENT 6 4 3 19
DOCKED: USER                              x       y       z     vdW  Elec       q    Type
DOCKED: USER                           _______ _______ _______ _____ _____    ______ ____
DOCKED: ROOT
DOCKED: ATOM      1  C   UNL     1     140.093  73.742 221.440 -0.22 -0.02    +0.152 C  
DOCKED: ENDROOT
DOCKED: BRANCH   1   2
DOCKED: ATOM      2  C   UNL     1     140.138  75.078 221.537 -0.24 -0.04    +0.203 C  
DOCKED: BRANCH   2   3
DOCKED: ATOM      3  O   UNL     1     139.572  75.714 222.642 -0.35 +0.07    -0.494 OA 
DOCKED: ATOM      4  H   UNL     1     138.890  75.254 223.230 -0.41 -0.10    +0.295 HD 
DOCKED: ENDBRANCH   2   3
DOCKED: BRANCH   2   5
DOCKED: ATOM      5  N   UNL     1     140.724  75.862 220.477 -0.08 +0.11    -0.339 N  
DOCKED: ATOM      6  C   UNL     1     140.437  75.520 219.074 -0.06 -0.03    +0.120 C  
DOCKED: ATOM      7  C   UNL     1     141.599  77.012 220.796 -0.21 -0.05    +0.088 C  
DOCKED: ATOM      8  C   UNL     1     141.736  75.419 218.263 -0.11 -0.01    +0.022 C  
DOCKED: ATOM      9  C   UNL     1     142.203  77.617 219.505 -0.30 -0.02    +0.025 C  
DOCKED: ATOM     10  C   UNL     1     142.773  76.507 218.615 -0.31 -0.00    +0.004 C  
DOCKED: BRANCH   7  11
DOCKED: ATOM     11  C   UNL     1     140.846  78.058 221.677 -0.35 -0.00    +0.012 C  
DOCKED: ATOM     12  C   UNL     1     141.449  78.168 223.101 -0.50 -0.00    +0.006 C  
DOCKED: ATOM     13  C   UNL     1     140.661  79.444 220.990 -0.26 -0.00    +0.006 C  
DOCKED: ATOM     14  C   UNL     1     140.855  79.368 223.846 -0.54 -0.00    +0.000 C  
DOCKED: ATOM     15  C   UNL     1     141.504  80.546 221.644 -0.43 -0.00    +0.000 C  
DOCKED: ATOM     16  C   UNL     1     141.176  80.703 223.140 -0.52 -0.00    +0.000 C  
DOCKED: ENDBRANCH   7  11
DOCKED: ENDBRANCH   2   5
DOCKED: ENDBRANCH   1   2
DOCKED: BRANCH   1  17
DOCKED: ATOM     17  N   UNL     1     139.951  72.888 222.585 -0.16 +0.04    -0.322 N  
DOCKED: ATOM     18  C   UNL     1     139.614  71.494 222.496 -0.18 -0.05    +0.273 C  
DOCKED: ATOM     19  H   UNL     1     139.913  73.354 223.519 -0.38 -0.01    +0.169 HD 
DOCKED: ATOM     20  O   UNL     1     139.230  71.008 221.396 -0.07 +0.05    -0.267 OA 
DOCKED: BRANCH  18  21
DOCKED: ATOM     21  C   UNL     1     139.686  70.632 223.695 -0.28 -0.02    +0.129 A  
DOCKED: ATOM     22  N   UNL     1     140.252  71.113 224.836 -0.30 +0.04    -0.243 NA 
DOCKED: ATOM     23  C   UNL     1     139.189  69.317 223.674 -0.26 -0.01    +0.035 A  
DOCKED: ATOM     24  C   UNL     1     140.351  70.365 225.968 -0.49 -0.01    +0.071 A  
DOCKED: ATOM     25  C   UNL     1     139.276  68.524 224.820 -0.38 -0.00    +0.013 A  
DOCKED: ATOM     26  C   UNL     1     140.939  70.903 227.118 -0.65 -0.01    +0.032 A  
DOCKED: ATOM     27  C   UNL     1     139.860  69.042 225.982 -0.50 -0.00    +0.003 A  
DOCKED: ATOM     28  C   UNL     1     141.040  70.131 228.279 -0.53 -0.01    +0.041 A  
DOCKED: ATOM     29  C   UNL     1     139.964  68.272 227.151 -0.61 -0.01    +0.049 A  
DOCKED: ATOM     30  C   UNL     1     140.554  68.819 228.297 -0.55 -0.03    +0.123 A  
DOCKED: ATOM     31  F   UNL     1     140.655  68.075 229.426 -0.10 +0.05    -0.207 F  
DOCKED: ENDBRANCH  18  21
DOCKED: ENDBRANCH   1  17
DOCKED: TORSDOF 6
DOCKED: TER
DOCKED: ENDMDL
________________________________________________________________________________


    FINAL DOCKED STATE:
    ________________________


Run:   8 / 20
Time taken for this run:   0.045s

DOCKED: MODEL        8
DOCKED: USER    Run = 8
DOCKED: USER
DOCKED: USER    Estimated Free Energy of Binding    =  -8.62 kcal/mol  [=(1)+(2)+(3)-(4)]
DOCKED: USER
DOCKED: USER    (1) Final Intermolecular Energy     = -10.41 kcal/mol
DOCKED: USER        vdW + Hbond + desolv Energy     = -10.33 kcal/mol
DOCKED: USER        Electrostatic Energy            =  -0.09 kcal/mol
DOCKED: USER        Moving Ligand-Fixed Receptor    = -10.41 kcal/mol
DOCKED: USER        Moving Ligand-Moving Receptor   =  +0.00 kcal/mol
DOCKED: USER    (2) Final Total Internal Energy     =  -1.49 kcal/mol
DOCKED: USER    (3) Torsional Free Energy           =  +1.79 kcal/mol
DOCKED: USER    (4) Unbound System's Energy         =  -1.49 kcal/mol
DOCKED: USER
DOCKED: USER
DOCKED: REMARK SMILES O=C(N/C=C(\O)N1CCCC[C@H]1C1CCCCC1)c1ccc2cc(F)ccc2n1
DOCKED: REMARK SMILES IDX 4 1 5 2 6 3 7 5 8 6 12 7 9 8 11 9 10 10 13 11 14 12 18 13
DOCKED: REMARK SMILES IDX 15 14 17 15 16 16 3 17 2 18 1 20 19 21 29 22 20 23 28 24
DOCKED: REMARK SMILES IDX 21 25 27 26 22 27 26 28 23 29 24 30 25 31
DOCKED: REMARK H PARENT 6 4 3 19
DOCKED: USER                              x       y       z     vdW  Elec       q    Type
DOCKED: USER                           _______ _______ _______ _____ _____    ______ ____
DOCKED: ROOT
DOCKED: ATOM      1  C   UNL     1     139.984  73.772 221.455 -0.22 -0.02    +0.152 C  
DOCKED: ENDROOT
DOCKED: BRANCH   1   2
DOCKED: ATOM      2  C   UNL     1     140.092  75.105 221.559 -0.24 -0.04    +0.203 C  
DOCKED: BRANCH   2   3
DOCKED: ATOM      3  O   UNL     1     139.568  75.760 222.673 -0.34 +0.07    -0.494 OA 
DOCKED: ATOM      4  H   UNL     1     138.913  75.309 223.297 -0.39 -0.10    +0.295 HD 
DOCKED: ENDBRANCH   2   3
DOCKED: BRANCH   2   5
DOCKED: ATOM      5  N   UNL     1     140.702  75.867 220.496 -0.08 +0.11    -0.339 N  
DOCKED: ATOM      6  C   UNL     1     140.422  75.515 219.095 -0.06 -0.03    +0.120 C  
DOCKED: ATOM      7  C   UNL     1     141.595  77.004 220.812 -0.21 -0.05    +0.088 C  
DOCKED: ATOM      8  C   UNL     1     141.727  75.382 218.297 -0.11 -0.01    +0.022 C  
DOCKED: ATOM      9  C   UNL     1     142.222  77.584 219.520 -0.29 -0.02    +0.025 C  
DOCKED: ATOM     10  C   UNL     1     142.779  76.454 218.648 -0.31 -0.00    +0.004 C  
DOCKED: BRANCH   7  11
DOCKED: ATOM     11  C   UNL     1     140.853  78.072 221.675 -0.36 -0.00    +0.012 C  
DOCKED: ATOM     12  C   UNL     1     141.431  78.173 223.110 -0.50 -0.00    +0.006 C  
DOCKED: ATOM     13  C   UNL     1     140.718  79.460 220.980 -0.26 -0.00    +0.006 C  
DOCKED: ATOM     14  C   UNL     1     140.855  79.390 223.840 -0.54 -0.00    +0.000 C  
DOCKED: ATOM     15  C   UNL     1     141.577  80.542 221.646 -0.43 -0.00    +0.000 C  
DOCKED: ATOM     16  C   UNL     1     141.225  80.714 223.135 -0.53 -0.00    +0.000 C  
DOCKED: ENDBRANCH   7  11
DOCKED: ENDBRANCH   2   5
DOCKED: ENDBRANCH   1   2
DOCKED: BRANCH   1  17
DOCKED: ATOM     17  N   UNL     1     139.855  72.917 222.601 -0.15 +0.05    -0.322 N  
DOCKED: ATOM     18  C   UNL     1     139.577  71.510 222.510 -0.18 -0.05    +0.273 C  
DOCKED: ATOM     19  H   UNL     1     139.782  73.382 223.533 -0.39 -0.03    +0.169 HD 
DOCKED: ATOM     20  O   UNL     1     139.233  71.006 221.405 -0.07 +0.05    -0.267 OA 
DOCKED: BRANCH  18  21
DOCKED: ATOM     21  C   UNL     1     139.662  70.654 223.713 -0.28 -0.02    +0.129 A  
DOCKED: ATOM     22  N   UNL     1     140.232  71.145 224.848 -0.30 +0.04    -0.243 NA 
DOCKED: ATOM     23  C   UNL     1     139.174  69.335 223.700 -0.27 -0.01    +0.035 A  
DOCKED: ATOM     24  C   UNL     1     140.342  70.403 225.983 -0.49 -0.01    +0.071 A  
DOCKED: ATOM     25  C   UNL     1     139.274  68.549 224.850 -0.39 -0.00    +0.013 A  
DOCKED: ATOM     26  C   UNL     1     140.933  70.951 227.127 -0.65 -0.01    +0.032 A  
DOCKED: ATOM     27  C   UNL     1     139.861  69.076 226.007 -0.50 -0.00    +0.003 A  
DOCKED: ATOM     28  C   UNL     1     141.046  70.185 228.292 -0.53 -0.01    +0.041 A  
DOCKED: ATOM     29  C   UNL     1     139.977  68.314 227.179 -0.61 -0.01    +0.049 A  
DOCKED: ATOM     30  C   UNL     1     140.569  68.870 228.318 -0.54 -0.03    +0.123 A  
DOCKED: ATOM     31  F   UNL     1     140.682  68.133 229.450 -0.09 +0.05    -0.207 F  
DOCKED: ENDBRANCH  18  21
DOCKED: ENDBRANCH   1  17
DOCKED: TORSDOF 6
DOCKED: TER
DOCKED: ENDMDL
________________________________________________________________________________


    FINAL DOCKED STATE:
    ________________________


Run:   9 / 20
Time taken for this run:   0.045s

DOCKED: MODEL        9
DOCKED: USER    Run = 9
DOCKED: USER
DOCKED: USER    Estimated Free Energy of Binding    =  -9.12 kcal/mol  [=(1)+(2)+(3)-(4)]
DOCKED: USER
DOCKED: USER    (1) Final Intermolecular Energy     = -10.91 kcal/mol
DOCKED: USER        vdW + Hbond + desolv Energy     = -10.78 kcal/mol
DOCKED: USER        Electrostatic Energy            =  -0.12 kcal/mol
DOCKED: USER        Moving Ligand-Fixed Receptor    = -10.91 kcal/mol
DOCKED: USER        Moving Ligand-Moving Receptor   =  +0.00 kcal/mol
DOCKED: USER    (2) Final Total Internal Energy     =  -1.08 kcal/mol
DOCKED: USER    (3) Torsional Free Energy           =  +1.79 kcal/mol
DOCKED: USER    (4) Unbound System's Energy         =  -1.08 kcal/mol
DOCKED: USER
DOCKED: USER
DOCKED: REMARK SMILES O=C(N/C=C(\O)N1CCCC[C@H]1C1CCCCC1)c1ccc2cc(F)ccc2n1
DOCKED: REMARK SMILES IDX 4 1 5 2 6 3 7 5 8 6 12 7 9 8 11 9 10 10 13 11 14 12 18 13
DOCKED: REMARK SMILES IDX 15 14 17 15 16 16 3 17 2 18 1 20 19 21 29 22 20 23 28 24
DOCKED: REMARK SMILES IDX 21 25 27 26 22 27 26 28 23 29 24 30 25 31
DOCKED: REMARK H PARENT 6 4 3 19
DOCKED: USER                              x       y       z     vdW  Elec       q    Type
DOCKED: USER                           _______ _______ _______ _____ _____    ______ ____
DOCKED: ROOT
DOCKED: ATOM      1  C   UNL     1     139.774  74.540 221.308 -0.21 -0.03    +0.152 C  
DOCKED: ENDROOT
DOCKED: BRANCH   1   2
DOCKED: ATOM      2  C   UNL     1     140.118  75.802 221.603 -0.25 -0.05    +0.203 C  
DOCKED: BRANCH   2   3
DOCKED: ATOM      3  O   UNL     1     141.442  76.214 221.452 -0.13 +0.23    -0.494 OA 
DOCKED: ATOM      4  H   UNL     1     142.138  76.045 222.166 -0.44 -0.23    +0.295 HD 
DOCKED: ENDBRANCH   2   3
DOCKED: BRANCH   2   5
DOCKED: ATOM      5  N   UNL     1     139.133  76.718 222.126 -0.16 +0.07    -0.339 N  
DOCKED: ATOM      6  C   UNL     1     137.891  76.193 222.714 -0.24 -0.03    +0.120 C  
DOCKED: ATOM      7  C   UNL     1     139.376  78.177 222.082 -0.25 -0.02    +0.088 C  
DOCKED: ATOM      8  C   UNL     1     136.666  76.900 222.117 -0.17 -0.00    +0.022 C  
DOCKED: ATOM      9  C   UNL     1     138.134  78.954 222.584 -0.24 -0.00    +0.025 C  
DOCKED: ATOM     10  C   UNL     1     136.865  78.417 221.913 -0.13 -0.00    +0.004 C  
DOCKED: BRANCH   7  11
DOCKED: ATOM     11  C   UNL     1     140.688  78.547 222.843 -0.46 -0.00    +0.012 C  
DOCKED: ATOM     12  C   UNL     1     141.796  79.057 221.887 -0.47 -0.00    +0.006 C  
DOCKED: ATOM     13  C   UNL     1     140.464  79.488 224.065 -0.32 -0.00    +0.006 C  
DOCKED: ATOM     14  C   UNL     1     142.967  79.643 222.683 -0.53 -0.00    +0.000 C  
DOCKED: ATOM     15  C   UNL     1     141.030  80.895 223.840 -0.45 -0.00    +0.000 C  
DOCKED: ATOM     16  C   UNL     1     142.538  80.861 223.530 -0.66 -0.00    +0.000 C  
DOCKED: ENDBRANCH   7  11
DOCKED: ENDBRANCH   2   5
DOCKED: ENDBRANCH   1   2
DOCKED: BRANCH   1  17
DOCKED: ATOM     17  N   UNL     1     139.569  73.539 222.316 -0.14 +0.06    -0.322 N  
DOCKED: ATOM     18  C   UNL     1     140.148  72.225 222.256 -0.20 -0.04    +0.273 C  
DOCKED: ATOM     19  H   UNL     1     138.822  73.725 223.022 -0.54 -0.10    +0.169 HD 
DOCKED: ATOM     20  O   UNL     1     140.706  71.831 221.195 -0.12 +0.04    -0.267 OA 
DOCKED: BRANCH  18  21
DOCKED: ATOM     21  C   UNL     1     140.065  71.320 223.422 -0.31 -0.02    +0.129 A  
DOCKED: ATOM     22  N   UNL     1     140.571  71.720 224.622 -0.28 +0.03    -0.243 NA 
DOCKED: ATOM     23  C   UNL     1     139.482  70.046 223.311 -0.24 -0.01    +0.035 A  
DOCKED: ATOM     24  C   UNL     1     140.529  70.930 225.727 -0.53 -0.01    +0.071 A  
DOCKED: ATOM     25  C   UNL     1     139.423  69.210 224.429 -0.33 -0.00    +0.013 A  
DOCKED: ATOM     26  C   UNL     1     141.060  71.385 226.939 -0.70 -0.01    +0.032 A  
DOCKED: ATOM     27  C   UNL     1     139.948  69.645 225.652 -0.46 -0.00    +0.003 A  
DOCKED: ATOM     28  C   UNL     1     141.015  70.569 228.074 -0.60 -0.01    +0.041 A  
DOCKED: ATOM     29  C   UNL     1     139.906  68.831 226.794 -0.55 -0.01    +0.049 A  
DOCKED: ATOM     30  C   UNL     1     140.440  69.295 228.002 -0.53 -0.02    +0.123 A  
DOCKED: ATOM     31  F   UNL     1     140.400  68.508 229.106 -0.16 +0.04    -0.207 F  
DOCKED: ENDBRANCH  18  21
DOCKED: ENDBRANCH   1  17
DOCKED: TORSDOF 6
DOCKED: TER
DOCKED: ENDMDL
________________________________________________________________________________


    FINAL DOCKED STATE:
    ________________________


Run:   10 / 20
Time taken for this run:   0.045s

DOCKED: MODEL        10
DOCKED: USER    Run = 10
DOCKED: USER
DOCKED: USER    Estimated Free Energy of Binding    =  -9.10 kcal/mol  [=(1)+(2)+(3)-(4)]
DOCKED: USER
DOCKED: USER    (1) Final Intermolecular Energy     = -10.89 kcal/mol
DOCKED: USER        vdW + Hbond + desolv Energy     = -10.76 kcal/mol
DOCKED: USER        Electrostatic Energy            =  -0.13 kcal/mol
DOCKED: USER        Moving Ligand-Fixed Receptor    = -10.89 kcal/mol
DOCKED: USER        Moving Ligand-Moving Receptor   =  +0.00 kcal/mol
DOCKED: USER    (2) Final Total Internal Energy     =  -1.08 kcal/mol
DOCKED: USER    (3) Torsional Free Energy           =  +1.79 kcal/mol
DOCKED: USER    (4) Unbound System's Energy         =  -1.08 kcal/mol
DOCKED: USER
DOCKED: USER
DOCKED: REMARK SMILES O=C(N/C=C(\O)N1CCCC[C@H]1C1CCCCC1)c1ccc2cc(F)ccc2n1
DOCKED: REMARK SMILES IDX 4 1 5 2 6 3 7 5 8 6 12 7 9 8 11 9 10 10 13 11 14 12 18 13
DOCKED: REMARK SMILES IDX 15 14 17 15 16 16 3 17 2 18 1 20 19 21 29 22 20 23 28 24
DOCKED: REMARK SMILES IDX 21 25 27 26 22 27 26 28 23 29 24 30 25 31
DOCKED: REMARK H PARENT 6 4 3 19
DOCKED: USER                              x       y       z     vdW  Elec       q    Type
DOCKED: USER                           _______ _______ _______ _____ _____    ______ ____
DOCKED: ROOT
DOCKED: ATOM      1  C   UNL     1     139.800  74.522 221.304 -0.21 -0.03    +0.152 C  
DOCKED: ENDROOT
DOCKED: BRANCH   1   2
DOCKED: ATOM      2  C   UNL     1     140.123  75.794 221.577 -0.25 -0.05    +0.203 C  
DOCKED: BRANCH   2   3
DOCKED: ATOM      3  O   UNL     1     141.434  76.232 221.399 -0.13 +0.23    -0.494 OA 
DOCKED: ATOM      4  H   UNL     1     142.123  76.166 222.136 -0.44 -0.24    +0.295 HD 
DOCKED: ENDBRANCH   2   3
DOCKED: BRANCH   2   5
DOCKED: ATOM      5  N   UNL     1     139.127  76.697 222.104 -0.16 +0.07    -0.339 N  
DOCKED: ATOM      6  C   UNL     1     137.889  76.155 222.688 -0.24 -0.03    +0.120 C  
DOCKED: ATOM      7  C   UNL     1     139.353  78.159 222.070 -0.25 -0.02    +0.088 C  
DOCKED: ATOM      8  C   UNL     1     136.658  76.852 222.094 -0.17 -0.00    +0.022 C  
DOCKED: ATOM      9  C   UNL     1     138.103  78.919 222.575 -0.24 -0.00    +0.025 C  
DOCKED: ATOM     10  C   UNL     1     136.841  78.372 221.899 -0.13 -0.00    +0.004 C  
DOCKED: BRANCH   7  11
DOCKED: ATOM     11  C   UNL     1     140.660  78.539 222.834 -0.46 -0.00    +0.012 C  
DOCKED: ATOM     12  C   UNL     1     141.769  79.055 221.882 -0.46 -0.00    +0.006 C  
DOCKED: ATOM     13  C   UNL     1     140.426  79.479 224.054 -0.32 -0.00    +0.006 C  
DOCKED: ATOM     14  C   UNL     1     142.933  79.649 222.681 -0.55 -0.00    +0.000 C  
DOCKED: ATOM     15  C   UNL     1     140.984  80.890 223.831 -0.44 -0.00    +0.000 C  
DOCKED: ATOM     16  C   UNL     1     142.493  80.865 223.525 -0.66 -0.00    +0.000 C  
DOCKED: ENDBRANCH   7  11
DOCKED: ENDBRANCH   2   5
DOCKED: ENDBRANCH   1   2
DOCKED: BRANCH   1  17
DOCKED: ATOM     17  N   UNL     1     139.597  73.539 222.330 -0.14 +0.05    -0.322 N  
DOCKED: ATOM     18  C   UNL     1     140.080  72.189 222.240 -0.20 -0.04    +0.273 C  
DOCKED: ATOM     19  H   UNL     1     138.913  73.777 223.083 -0.54 -0.10    +0.169 HD 
DOCKED: ATOM     20  O   UNL     1     140.538  71.756 221.146 -0.11 +0.04    -0.267 OA 
DOCKED: BRANCH  18  21
DOCKED: ATOM     21  C   UNL     1     140.016  71.294 223.414 -0.31 -0.02    +0.129 A  
DOCKED: ATOM     22  N   UNL     1     140.541  71.704 224.602 -0.28 +0.03    -0.243 NA 
DOCKED: ATOM     23  C   UNL     1     139.430  70.019 223.323 -0.24 -0.01    +0.035 A  
DOCKED: ATOM     24  C   UNL     1     140.515  70.923 225.715 -0.53 -0.01    +0.071 A  
DOCKED: ATOM     25  C   UNL     1     139.389  69.192 224.449 -0.33 -0.00    +0.013 A  
DOCKED: ATOM     26  C   UNL     1     141.066  71.388 226.914 -0.70 -0.01    +0.032 A  
DOCKED: ATOM     27  C   UNL     1     139.933  69.638 225.660 -0.46 -0.00    +0.003 A  
DOCKED: ATOM     28  C   UNL     1     141.039  70.581 228.057 -0.60 -0.01    +0.041 A  
DOCKED: ATOM     29  C   UNL     1     139.909  68.833 226.810 -0.55 -0.01    +0.049 A  
DOCKED: ATOM     30  C   UNL     1     140.462  69.307 228.005 -0.53 -0.02    +0.123 A  
DOCKED: ATOM     31  F   UNL     1     140.439  68.530 229.115 -0.15 +0.04    -0.207 F  
DOCKED: ENDBRANCH  18  21
DOCKED: ENDBRANCH   1  17
DOCKED: TORSDOF 6
DOCKED: TER
DOCKED: ENDMDL
________________________________________________________________________________


    FINAL DOCKED STATE:
    ________________________


Run:   11 / 20
Time taken for this run:   0.045s

DOCKED: MODEL        11
DOCKED: USER    Run = 11
DOCKED: USER
DOCKED: USER    Estimated Free Energy of Binding    =  -8.04 kcal/mol  [=(1)+(2)+(3)-(4)]
DOCKED: USER
DOCKED: USER    (1) Final Intermolecular Energy     =  -9.83 kcal/mol
DOCKED: USER        vdW + Hbond + desolv Energy     =  -9.73 kcal/mol
DOCKED: USER        Electrostatic Energy            =  -0.10 kcal/mol
DOCKED: USER        Moving Ligand-Fixed Receptor    =  -9.83 kcal/mol
DOCKED: USER        Moving Ligand-Moving Receptor   =  +0.00 kcal/mol
DOCKED: USER    (2) Final Total Internal Energy     =  -2.04 kcal/mol
DOCKED: USER    (3) Torsional Free Energy           =  +1.79 kcal/mol
DOCKED: USER    (4) Unbound System's Energy         =  -2.04 kcal/mol
DOCKED: USER
DOCKED: USER
DOCKED: REMARK SMILES O=C(N/C=C(\O)N1CCCC[C@H]1C1CCCCC1)c1ccc2cc(F)ccc2n1
DOCKED: REMARK SMILES IDX 4 1 5 2 6 3 7 5 8 6 12 7 9 8 11 9 10 10 13 11 14 12 18 13
DOCKED: REMARK SMILES IDX 15 14 17 15 16 16 3 17 2 18 1 20 19 21 29 22 20 23 28 24
DOCKED: REMARK SMILES IDX 21 25 27 26 22 27 26 28 23 29 24 30 25 31
DOCKED: REMARK H PARENT 6 4 3 19
DOCKED: USER                              x       y       z     vdW  Elec       q    Type
DOCKED: USER                           _______ _______ _______ _____ _____    ______ ____
DOCKED: ROOT
DOCKED: ATOM      1  C   UNL     1     139.075  72.694 222.287 -0.16 -0.04    +0.152 C  
DOCKED: ENDROOT
DOCKED: BRANCH   1   2
DOCKED: ATOM      2  C   UNL     1     139.782  71.634 222.706 -0.23 -0.04    +0.203 C  
DOCKED: BRANCH   2   3
DOCKED: ATOM      3  O   UNL     1     141.175  71.665 222.658 -0.06 +0.03    -0.494 OA 
DOCKED: ATOM      4  H   UNL     1     141.673  72.232 221.986 +0.12 -0.01    +0.295 HD 
DOCKED: ENDBRANCH   2   3
DOCKED: BRANCH   2   5
DOCKED: ATOM      5  N   UNL     1     139.103  70.443 223.156 -0.10 +0.06    -0.339 N  
DOCKED: ATOM      6  C   UNL     1     138.775  69.382 222.191 -0.14 -0.02    +0.120 C  
DOCKED: ATOM      7  C   UNL     1     138.747  70.283 224.584 -0.31 -0.01    +0.088 C  
DOCKED: ATOM      8  C   UNL     1     137.301  68.974 222.311 -0.14 -0.00    +0.022 C  
DOCKED: ATOM      9  C   UNL     1     137.921  68.991 224.802 -0.31 -0.00    +0.025 C  
DOCKED: ATOM     10  C   UNL     1     136.795  68.901 223.767 -0.17 -0.00    +0.004 C  
DOCKED: BRANCH   7  11
DOCKED: ATOM     11  C   UNL     1     140.017  70.367 225.488 -0.50 -0.00    +0.012 C  
DOCKED: ATOM     12  C   UNL     1     140.382  71.829 225.852 -0.30 -0.00    +0.006 C  
DOCKED: ATOM     13  C   UNL     1     139.969  69.429 226.730 -0.56 -0.00    +0.006 C  
DOCKED: ATOM     14  C   UNL     1     141.469  71.860 226.932 -0.70 -0.00    +0.000 C  
DOCKED: ATOM     15  C   UNL     1     139.840  70.199 228.050 -0.62 -0.00    +0.000 C  
DOCKED: ATOM     16  C   UNL     1     140.998  71.196 228.244 -0.69 -0.00    +0.000 C  
DOCKED: ENDBRANCH   7  11
DOCKED: ENDBRANCH   2   5
DOCKED: ENDBRANCH   1   2
DOCKED: BRANCH   1  17
DOCKED: ATOM     17  N   UNL     1     139.587  74.034 222.343 -0.10 +0.05    -0.322 N  
DOCKED: ATOM     18  C   UNL     1     140.727  74.477 221.588 -0.20 -0.03    +0.273 C  
DOCKED: ATOM     19  H   UNL     1     139.219  74.648 223.102 -0.54 -0.05    +0.169 HD 
DOCKED: ATOM     20  O   UNL     1     141.452  73.636 220.990 -0.20 +0.04    -0.267 OA 
DOCKED: BRANCH  18  21
DOCKED: ATOM     21  C   UNL     1     141.072  75.914 221.535 -0.30 -0.04    +0.129 A  
DOCKED: ATOM     22  N   UNL     1     140.936  76.680 222.653 -0.25 +0.08    -0.243 NA 
DOCKED: ATOM     23  C   UNL     1     141.530  76.507 220.345 -0.26 -0.02    +0.035 A  
DOCKED: ATOM     24  C   UNL     1     141.233  78.007 222.663 -0.42 -0.03    +0.071 A  
DOCKED: ATOM     25  C   UNL     1     141.842  77.868 220.323 -0.31 -0.01    +0.013 A  
DOCKED: ATOM     26  C   UNL     1     141.080  78.754 223.837 -0.44 -0.01    +0.032 A  
DOCKED: ATOM     27  C   UNL     1     141.697  78.634 221.486 -0.39 -0.00    +0.003 A  
DOCKED: ATOM     28  C   UNL     1     141.385  80.118 223.843 -0.52 -0.01    +0.041 A  
DOCKED: ATOM     29  C   UNL     1     142.002  80.004 221.500 -0.40 -0.02    +0.049 A  
DOCKED: ATOM     30  C   UNL     1     141.845  80.742 222.678 -0.46 -0.03    +0.123 A  
DOCKED: ATOM     31  F   UNL     1     142.139  82.066 222.691 -0.06 +0.03    -0.207 F  
DOCKED: ENDBRANCH  18  21
DOCKED: ENDBRANCH   1  17
DOCKED: TORSDOF 6
DOCKED: TER
DOCKED: ENDMDL
________________________________________________________________________________


    FINAL DOCKED STATE:
    ________________________


Run:   12 / 20
Time taken for this run:   0.045s

DOCKED: MODEL        12
DOCKED: USER    Run = 12
DOCKED: USER
DOCKED: USER    Estimated Free Energy of Binding    =  -8.85 kcal/mol  [=(1)+(2)+(3)-(4)]
DOCKED: USER
DOCKED: USER    (1) Final Intermolecular Energy     = -10.64 kcal/mol
DOCKED: USER        vdW + Hbond + desolv Energy     = -10.40 kcal/mol
DOCKED: USER        Electrostatic Energy            =  -0.24 kcal/mol
DOCKED: USER        Moving Ligand-Fixed Receptor    = -10.64 kcal/mol
DOCKED: USER        Moving Ligand-Moving Receptor   =  +0.00 kcal/mol
DOCKED: USER    (2) Final Total Internal Energy     =  -1.11 kcal/mol
DOCKED: USER    (3) Torsional Free Energy           =  +1.79 kcal/mol
DOCKED: USER    (4) Unbound System's Energy         =  -1.11 kcal/mol
DOCKED: USER
DOCKED: USER
DOCKED: REMARK SMILES O=C(N/C=C(\O)N1CCCC[C@H]1C1CCCCC1)c1ccc2cc(F)ccc2n1
DOCKED: REMARK SMILES IDX 4 1 5 2 6 3 7 5 8 6 12 7 9 8 11 9 10 10 13 11 14 12 18 13
DOCKED: REMARK SMILES IDX 15 14 17 15 16 16 3 17 2 18 1 20 19 21 29 22 20 23 28 24
DOCKED: REMARK SMILES IDX 21 25 27 26 22 27 26 28 23 29 24 30 25 31
DOCKED: REMARK H PARENT 6 4 3 19
DOCKED: USER                              x       y       z     vdW  Elec       q    Type
DOCKED: USER                           _______ _______ _______ _____ _____    ______ ____
DOCKED: ROOT
DOCKED: ATOM      1  C   UNL     1     139.722  74.746 221.295 -0.21 -0.03    +0.152 C  
DOCKED: ENDROOT
DOCKED: BRANCH   1   2
DOCKED: ATOM      2  C   UNL     1     140.601  75.746 221.456 -0.26 -0.05    +0.203 C  
DOCKED: BRANCH   2   3
DOCKED: ATOM      3  O   UNL     1     141.143  75.999 222.716 -0.02 +0.12    -0.494 OA 
DOCKED: ATOM      4  H   UNL     1     142.104  76.290 222.834 -0.36 -0.23    +0.295 HD 
DOCKED: ENDBRANCH   2   3
DOCKED: BRANCH   2   5
DOCKED: ATOM      5  N   UNL     1     140.948  76.591 220.339 -0.07 +0.13    -0.339 N  
DOCKED: ATOM      6  C   UNL     1     140.459  76.255 218.992 -0.06 -0.04    +0.120 C  
DOCKED: ATOM      7  C   UNL     1     141.781  77.796 220.547 -0.28 -0.05    +0.088 C  
DOCKED: ATOM      8  C   UNL     1     141.611  76.266 217.978 -0.12 -0.01    +0.022 C  
DOCKED: ATOM      9  C   UNL     1     142.120  78.469 219.194 -0.25 -0.02    +0.025 C  
DOCKED: ATOM     10  C   UNL     1     142.612  77.422 218.190 -0.31 -0.00    +0.004 C  
DOCKED: BRANCH   7  11
DOCKED: ATOM     11  C   UNL     1     141.112  78.766 221.571 -0.36 -0.00    +0.012 C  
DOCKED: ATOM     12  C   UNL     1     141.827  78.754 222.946 -0.54 -0.00    +0.006 C  
DOCKED: ATOM     13  C   UNL     1     140.887  80.206 221.020 -0.29 -0.00    +0.006 C  
DOCKED: ATOM     14  C   UNL     1     141.307  79.888 223.835 -0.55 -0.00    +0.000 C  
DOCKED: ATOM     15  C   UNL     1     141.790  81.246 221.694 -0.44 -0.00    +0.000 C  
DOCKED: ATOM     16  C   UNL     1     141.585  81.277 223.220 -0.56 -0.00    +0.000 C  
DOCKED: ENDBRANCH   7  11
DOCKED: ENDBRANCH   2   5
DOCKED: ENDBRANCH   1   2
DOCKED: BRANCH   1  17
DOCKED: ATOM     17  N   UNL     1     139.508  73.738 222.295 -0.12 +0.06    -0.322 N  
DOCKED: ATOM     18  C   UNL     1     140.097  72.428 222.236 -0.20 -0.04    +0.273 C  
DOCKED: ATOM     19  H   UNL     1     138.749  73.914 222.989 -0.55 -0.10    +0.169 HD 
DOCKED: ATOM     20  O   UNL     1     140.675  72.045 221.181 -0.13 +0.04    -0.267 OA 
DOCKED: BRANCH  18  21
DOCKED: ATOM     21  C   UNL     1     140.003  71.516 223.395 -0.32 -0.02    +0.129 A  
DOCKED: ATOM     22  N   UNL     1     140.534  71.891 224.592 -0.26 +0.04    -0.243 NA 
DOCKED: ATOM     23  C   UNL     1     139.382  70.259 223.280 -0.26 -0.01    +0.035 A  
DOCKED: ATOM     24  C   UNL     1     140.481  71.092 225.691 -0.53 -0.01    +0.071 A  
DOCKED: ATOM     25  C   UNL     1     139.313  69.416 224.391 -0.33 -0.00    +0.013 A  
DOCKED: ATOM     26  C   UNL     1     141.039  71.522 226.900 -0.72 -0.01    +0.032 A  
DOCKED: ATOM     27  C   UNL     1     139.864  69.825 225.611 -0.46 -0.00    +0.003 A  
DOCKED: ATOM     28  C   UNL     1     140.985  70.697 228.028 -0.63 -0.01    +0.041 A  
DOCKED: ATOM     29  C   UNL     1     139.812  69.003 226.747 -0.52 -0.01    +0.049 A  
DOCKED: ATOM     30  C   UNL     1     140.373  69.440 227.952 -0.52 -0.02    +0.123 A  
DOCKED: ATOM     31  F   UNL     1     140.323  68.645 229.050 -0.15 +0.04    -0.207 F  
DOCKED: ENDBRANCH  18  21
DOCKED: ENDBRANCH   1  17
DOCKED: TORSDOF 6
DOCKED: TER
DOCKED: ENDMDL
________________________________________________________________________________


    FINAL DOCKED STATE:
    ________________________


Run:   13 / 20
Time taken for this run:   0.045s

DOCKED: MODEL        13
DOCKED: USER    Run = 13
DOCKED: USER
DOCKED: USER    Estimated Free Energy of Binding    =  -7.94 kcal/mol  [=(1)+(2)+(3)-(4)]
DOCKED: USER
DOCKED: USER    (1) Final Intermolecular Energy     =  -9.73 kcal/mol
DOCKED: USER        vdW + Hbond + desolv Energy     =  -9.66 kcal/mol
DOCKED: USER        Electrostatic Energy            =  -0.08 kcal/mol
DOCKED: USER        Moving Ligand-Fixed Receptor    =  -9.73 kcal/mol
DOCKED: USER        Moving Ligand-Moving Receptor   =  +0.00 kcal/mol
DOCKED: USER    (2) Final Total Internal Energy     =  -2.05 kcal/mol
DOCKED: USER    (3) Torsional Free Energy           =  +1.79 kcal/mol
DOCKED: USER    (4) Unbound System's Energy         =  -2.05 kcal/mol
DOCKED: USER
DOCKED: USER
DOCKED: REMARK SMILES O=C(N/C=C(\O)N1CCCC[C@H]1C1CCCCC1)c1ccc2cc(F)ccc2n1
DOCKED: REMARK SMILES IDX 4 1 5 2 6 3 7 5 8 6 12 7 9 8 11 9 10 10 13 11 14 12 18 13
DOCKED: REMARK SMILES IDX 15 14 17 15 16 16 3 17 2 18 1 20 19 21 29 22 20 23 28 24
DOCKED: REMARK SMILES IDX 21 25 27 26 22 27 26 28 23 29 24 30 25 31
DOCKED: REMARK H PARENT 6 4 3 19
DOCKED: USER                              x       y       z     vdW  Elec       q    Type
DOCKED: USER                           _______ _______ _______ _____ _____    ______ ____
DOCKED: ROOT
DOCKED: ATOM      1  C   UNL     1     139.287  72.664 222.218 -0.19 -0.03    +0.152 C  
DOCKED: ENDROOT
DOCKED: BRANCH   1   2
DOCKED: ATOM      2  C   UNL     1     140.080  71.597 222.390 -0.22 -0.03    +0.203 C  
DOCKED: BRANCH   2   3
DOCKED: ATOM      3  O   UNL     1     141.454  71.712 222.180 -0.04 +0.03    -0.494 OA 
DOCKED: ATOM      4  H   UNL     1     141.833  72.270 221.427 +0.12 -0.03    +0.295 HD 
DOCKED: ENDBRANCH   2   3
DOCKED: BRANCH   2   5
DOCKED: ATOM      5  N   UNL     1     139.509  70.319 222.742 -0.08 +0.06    -0.339 N  
DOCKED: ATOM      6  C   UNL     1     139.354  69.282 221.709 -0.11 -0.02    +0.120 C  
DOCKED: ATOM      7  C   UNL     1     139.092  70.048 224.136 -0.29 -0.02    +0.088 C  
DOCKED: ATOM      8  C   UNL     1     137.928  68.715 221.719 -0.14 -0.00    +0.022 C  
DOCKED: ATOM      9  C   UNL     1     138.400  68.666 224.242 -0.30 -0.00    +0.025 C  
DOCKED: ATOM     10  C   UNL     1     137.351  68.513 223.136 -0.18 -0.00    +0.004 C  
DOCKED: BRANCH   7  11
DOCKED: ATOM     11  C   UNL     1     140.292  70.217 225.120 -0.47 -0.00    +0.012 C  
DOCKED: ATOM     12  C   UNL     1     140.434  71.675 225.627 -0.42 -0.00    +0.006 C  
DOCKED: ATOM     13  C   UNL     1     140.313  69.171 226.274 -0.55 -0.00    +0.006 C  
DOCKED: ATOM     14  C   UNL     1     141.451  71.751 226.770 -0.69 -0.00    +0.000 C  
DOCKED: ATOM     15  C   UNL     1     140.013  69.794 227.643 -0.63 -0.00    +0.000 C  
DOCKED: ATOM     16  C   UNL     1     141.012  70.914 227.991 -0.71 -0.00    +0.000 C  
DOCKED: ENDBRANCH   7  11
DOCKED: ENDBRANCH   2   5
DOCKED: ENDBRANCH   1   2
DOCKED: BRANCH   1  17
DOCKED: ATOM     17  N   UNL     1     139.780  74.011 222.280 -0.07 +0.03    -0.322 N  
DOCKED: ATOM     18  C   UNL     1     140.782  74.528 221.389 -0.20 -0.04    +0.273 C  
DOCKED: ATOM     19  H   UNL     1     139.525  74.569 223.125 -0.52 -0.01    +0.169 HD 
DOCKED: ATOM     20  O   UNL     1     141.419  73.743 220.634 -0.15 +0.05    -0.267 OA 
DOCKED: BRANCH  18  21
DOCKED: ATOM     21  C   UNL     1     141.092  75.974 221.375 -0.28 -0.05    +0.129 A  
DOCKED: ATOM     22  N   UNL     1     141.035  76.685 222.535 -0.26 +0.09    -0.243 NA 
DOCKED: ATOM     23  C   UNL     1     141.436  76.630 220.180 -0.24 -0.02    +0.035 A  
DOCKED: ATOM     24  C   UNL     1     141.305  78.017 222.583 -0.40 -0.03    +0.071 A  
DOCKED: ATOM     25  C   UNL     1     141.718  77.998 220.197 -0.30 -0.01    +0.013 A  
DOCKED: ATOM     26  C   UNL     1     141.235  78.706 223.799 -0.48 -0.01    +0.032 A  
DOCKED: ATOM     27  C   UNL     1     141.655  78.707 221.402 -0.38 -0.00    +0.003 A  
DOCKED: ATOM     28  C   UNL     1     141.512  80.076 223.844 -0.54 -0.01    +0.041 A  
DOCKED: ATOM     29  C   UNL     1     141.932  80.082 221.455 -0.39 -0.02    +0.049 A  
DOCKED: ATOM     30  C   UNL     1     141.860  80.763 222.675 -0.47 -0.03    +0.123 A  
DOCKED: ATOM     31  F   UNL     1     142.127  82.091 222.726 -0.06 +0.03    -0.207 F  
DOCKED: ENDBRANCH  18  21
DOCKED: ENDBRANCH   1  17
DOCKED: TORSDOF 6
DOCKED: TER
DOCKED: ENDMDL
________________________________________________________________________________


    FINAL DOCKED STATE:
    ________________________


Run:   14 / 20
Time taken for this run:   0.045s

DOCKED: MODEL        14
DOCKED: USER    Run = 14
DOCKED: USER
DOCKED: USER    Estimated Free Energy of Binding    =  -8.39 kcal/mol  [=(1)+(2)+(3)-(4)]
DOCKED: USER
DOCKED: USER    (1) Final Intermolecular Energy     = -10.18 kcal/mol
DOCKED: USER        vdW + Hbond + desolv Energy     = -10.19 kcal/mol
DOCKED: USER        Electrostatic Energy            =  +0.01 kcal/mol
DOCKED: USER        Moving Ligand-Fixed Receptor    = -10.18 kcal/mol
DOCKED: USER        Moving Ligand-Moving Receptor   =  +0.00 kcal/mol
DOCKED: USER    (2) Final Total Internal Energy     =  -1.77 kcal/mol
DOCKED: USER    (3) Torsional Free Energy           =  +1.79 kcal/mol
DOCKED: USER    (4) Unbound System's Energy         =  -1.77 kcal/mol
DOCKED: USER
DOCKED: USER
DOCKED: REMARK SMILES O=C(N/C=C(\O)N1CCCC[C@H]1C1CCCCC1)c1ccc2cc(F)ccc2n1
DOCKED: REMARK SMILES IDX 4 1 5 2 6 3 7 5 8 6 12 7 9 8 11 9 10 10 13 11 14 12 18 13
DOCKED: REMARK SMILES IDX 15 14 17 15 16 16 3 17 2 18 1 20 19 21 29 22 20 23 28 24
DOCKED: REMARK SMILES IDX 21 25 27 26 22 27 26 28 23 29 24 30 25 31
DOCKED: REMARK H PARENT 6 4 3 19
DOCKED: USER                              x       y       z     vdW  Elec       q    Type
DOCKED: USER                           _______ _______ _______ _____ _____    ______ ____
DOCKED: ROOT
DOCKED: ATOM      1  C   UNL     1     139.126  74.567 221.491 -0.20 -0.03    +0.152 C  
DOCKED: ENDROOT
DOCKED: BRANCH   1   2
DOCKED: ATOM      2  C   UNL     1     139.666  75.731 221.880 -0.25 -0.04    +0.203 C  
DOCKED: BRANCH   2   3
DOCKED: ATOM      3  O   UNL     1     141.043  75.828 222.074 -0.28 +0.13    -0.494 OA 
DOCKED: ATOM      4  H   UNL     1     141.646  75.017 222.035 +0.01 -0.06    +0.295 HD 
DOCKED: ENDBRANCH   2   3
DOCKED: BRANCH   2   5
DOCKED: ATOM      5  N   UNL     1     138.819  76.868 222.150 -0.14 +0.07    -0.339 N  
DOCKED: ATOM      6  C   UNL     1     137.459  76.656 222.672 -0.23 -0.02    +0.120 C  
DOCKED: ATOM      7  C   UNL     1     139.317  78.242 221.914 -0.22 -0.02    +0.088 C  
DOCKED: ATOM      8  C   UNL     1     136.431  77.442 221.847 -0.12 -0.00    +0.022 C  
DOCKED: ATOM      9  C   UNL     1     138.195  79.281 222.157 -0.20 -0.00    +0.025 C  
DOCKED: ATOM     10  C   UNL     1     136.911  78.851 221.441 -0.09 -0.00    +0.004 C  
DOCKED: BRANCH   7  11
DOCKED: ATOM     11  C   UNL     1     140.608  78.517 222.748 -0.45 -0.00    +0.012 C  
DOCKED: ATOM     12  C   UNL     1     141.796  78.967 221.860 -0.46 -0.00    +0.006 C  
DOCKED: ATOM     13  C   UNL     1     140.379  79.454 223.972 -0.38 -0.00    +0.006 C  
DOCKED: ATOM     14  C   UNL     1     142.958  79.465 222.726 -0.51 -0.00    +0.000 C  
DOCKED: ATOM     15  C   UNL     1     141.045  80.825 223.800 -0.46 -0.00    +0.000 C  
DOCKED: ATOM     16  C   UNL     1     142.563  80.697 223.568 -0.68 -0.00    +0.000 C  
DOCKED: ENDBRANCH   7  11
DOCKED: ENDBRANCH   2   5
DOCKED: ENDBRANCH   1   2
DOCKED: BRANCH   1  17
DOCKED: ATOM     17  N   UNL     1     139.082  73.413 222.343 -0.08 +0.09    -0.322 N  
DOCKED: ATOM     18  C   UNL     1     140.244  72.643 222.693 -0.16 -0.03    +0.273 C  
DOCKED: ATOM     19  H   UNL     1     138.138  73.023 222.561 -0.26 -0.07    +0.169 HD 
DOCKED: ATOM     20  O   UNL     1     141.335  72.842 222.091 -0.29 +0.00    -0.267 OA 
DOCKED: BRANCH  18  21
DOCKED: ATOM     21  C   UNL     1     140.159  71.597 223.734 -0.34 -0.02    +0.129 A  
DOCKED: ATOM     22  N   UNL     1     140.628  71.855 224.987 -0.28 +0.04    -0.243 NA 
DOCKED: ATOM     23  C   UNL     1     139.611  70.334 223.450 -0.28 -0.01    +0.035 A  
DOCKED: ATOM     24  C   UNL     1     140.581  70.930 225.983 -0.54 -0.01    +0.071 A  
DOCKED: ATOM     25  C   UNL     1     139.550  69.363 224.452 -0.33 -0.00    +0.013 A  
DOCKED: ATOM     26  C   UNL     1     141.073  71.241 227.255 -0.70 -0.01    +0.032 A  
DOCKED: ATOM     27  C   UNL     1     140.036  69.652 225.733 -0.47 -0.00    +0.003 A  
DOCKED: ATOM     28  C   UNL     1     141.024  70.288 228.277 -0.53 -0.01    +0.041 A  
DOCKED: ATOM     29  C   UNL     1     139.989  68.700 226.763 -0.56 -0.01    +0.049 A  
DOCKED: ATOM     30  C   UNL     1     140.484  69.020 228.032 -0.54 -0.02    +0.123 A  
DOCKED: ATOM     31  F   UNL     1     140.440  68.100 229.027 -0.17 +0.05    -0.207 F  
DOCKED: ENDBRANCH  18  21
DOCKED: ENDBRANCH   1  17
DOCKED: TORSDOF 6
DOCKED: TER
DOCKED: ENDMDL
________________________________________________________________________________


    FINAL DOCKED STATE:
    ________________________


Run:   15 / 20
Time taken for this run:   0.045s

DOCKED: MODEL        15
DOCKED: USER    Run = 15
DOCKED: USER
DOCKED: USER    Estimated Free Energy of Binding    =  -8.03 kcal/mol  [=(1)+(2)+(3)-(4)]
DOCKED: USER
DOCKED: USER    (1) Final Intermolecular Energy     =  -9.82 kcal/mol
DOCKED: USER        vdW + Hbond + desolv Energy     =  -9.79 kcal/mol
DOCKED: USER        Electrostatic Energy            =  -0.03 kcal/mol
DOCKED: USER        Moving Ligand-Fixed Receptor    =  -9.82 kcal/mol
DOCKED: USER        Moving Ligand-Moving Receptor   =  +0.00 kcal/mol
DOCKED: USER    (2) Final Total Internal Energy     =  -1.90 kcal/mol
DOCKED: USER    (3) Torsional Free Energy           =  +1.79 kcal/mol
DOCKED: USER    (4) Unbound System's Energy         =  -1.90 kcal/mol
DOCKED: USER
DOCKED: USER
DOCKED: REMARK SMILES O=C(N/C=C(\O)N1CCCC[C@H]1C1CCCCC1)c1ccc2cc(F)ccc2n1
DOCKED: REMARK SMILES IDX 4 1 5 2 6 3 7 5 8 6 12 7 9 8 11 9 10 10 13 11 14 12 18 13
DOCKED: REMARK SMILES IDX 15 14 17 15 16 16 3 17 2 18 1 20 19 21 29 22 20 23 28 24
DOCKED: REMARK SMILES IDX 21 25 27 26 22 27 26 28 23 29 24 30 25 31
DOCKED: REMARK H PARENT 6 4 3 19
DOCKED: USER                              x       y       z     vdW  Elec       q    Type
DOCKED: USER                           _______ _______ _______ _____ _____    ______ ____
DOCKED: ROOT
DOCKED: ATOM      1  C   UNL     1     139.262  74.837 221.394 -0.20 -0.03    +0.152 C  
DOCKED: ENDROOT
DOCKED: BRANCH   1   2
DOCKED: ATOM      2  C   UNL     1     140.402  75.533 221.270 -0.23 -0.05    +0.203 C  
DOCKED: BRANCH   2   3
DOCKED: ATOM      3  O   UNL     1     141.541  75.130 221.965 -0.21 +0.11    -0.494 OA 
DOCKED: ATOM      4  H   UNL     1     141.995  74.246 221.777 +0.11 -0.03    +0.295 HD 
DOCKED: ENDBRANCH   2   3
DOCKED: BRANCH   2   5
DOCKED: ATOM      5  N   UNL     1     140.436  76.728 220.462 -0.05 +0.11    -0.339 N  
DOCKED: ATOM      6  C   UNL     1     139.423  76.927 219.413 -0.04 -0.03    +0.120 C  
DOCKED: ATOM      7  C   UNL     1     141.476  77.755 220.694 -0.28 -0.05    +0.088 C  
DOCKED: ATOM      8  C   UNL     1     140.088  77.296 218.080 -0.05 -0.01    +0.022 C  
DOCKED: ATOM      9  C   UNL     1     141.384  78.878 219.632 -0.25 -0.01    +0.025 C  
DOCKED: ATOM     10  C   UNL     1     141.274  78.273 218.228 -0.17 -0.00    +0.004 C  
DOCKED: BRANCH   7  11
DOCKED: ATOM     11  C   UNL     1     141.419  78.285 222.162 -0.43 -0.01    +0.012 C  
DOCKED: ATOM     12  C   UNL     1     142.460  79.403 222.423 -0.53 -0.00    +0.006 C  
DOCKED: ATOM     13  C   UNL     1     139.986  78.670 222.637 -0.38 -0.00    +0.006 C  
DOCKED: ATOM     14  C   UNL     1     142.210  80.066 223.781 -0.65 -0.00    +0.000 C  
DOCKED: ATOM     15  C   UNL     1     139.813  80.182 222.831 -0.37 -0.00    +0.000 C  
DOCKED: ATOM     16  C   UNL     1     140.825  80.747 223.844 -0.41 -0.00    +0.000 C  
DOCKED: ENDBRANCH   7  11
DOCKED: ENDBRANCH   2   5
DOCKED: ENDBRANCH   1   2
DOCKED: BRANCH   1  17
DOCKED: ATOM     17  N   UNL     1     139.121  73.746 222.316 -0.06 +0.09    -0.322 N  
DOCKED: ATOM     18  C   UNL     1     140.014  72.621 222.354 -0.20 -0.04    +0.273 C  
DOCKED: ATOM     19  H   UNL     1     138.225  73.693 222.851 -0.53 -0.10    +0.169 HD 
DOCKED: ATOM     20  O   UNL     1     140.854  72.452 221.427 -0.18 +0.03    -0.267 OA 
DOCKED: BRANCH  18  21
DOCKED: ATOM     21  C   UNL     1     139.932  71.641 223.457 -0.31 -0.02    +0.129 A  
DOCKED: ATOM     22  N   UNL     1     140.507  71.930 224.658 -0.23 +0.04    -0.243 NA 
DOCKED: ATOM     23  C   UNL     1     139.278  70.408 223.286 -0.26 -0.01    +0.035 A  
DOCKED: ATOM     24  C   UNL     1     140.468  71.066 225.708 -0.53 -0.01    +0.071 A  
DOCKED: ATOM     25  C   UNL     1     139.222  69.499 224.345 -0.33 -0.00    +0.013 A  
DOCKED: ATOM     26  C   UNL     1     141.071  71.408 226.923 -0.71 -0.01    +0.032 A  
DOCKED: ATOM     27  C   UNL     1     139.818  69.820 225.570 -0.45 -0.00    +0.003 A  
DOCKED: ATOM     28  C   UNL     1     141.030  70.517 228.000 -0.61 -0.01    +0.041 A  
DOCKED: ATOM     29  C   UNL     1     139.781  68.931 226.655 -0.52 -0.01    +0.049 A  
DOCKED: ATOM     30  C   UNL     1     140.387  69.281 227.867 -0.53 -0.02    +0.123 A  
DOCKED: ATOM     31  F   UNL     1     140.351  68.421 228.915 -0.18 +0.04    -0.207 F  
DOCKED: ENDBRANCH  18  21
DOCKED: ENDBRANCH   1  17
DOCKED: TORSDOF 6
DOCKED: TER
DOCKED: ENDMDL
________________________________________________________________________________


    FINAL DOCKED STATE:
    ________________________


Run:   16 / 20
Time taken for this run:   0.045s

DOCKED: MODEL        16
DOCKED: USER    Run = 16
DOCKED: USER
DOCKED: USER    Estimated Free Energy of Binding    =  -9.10 kcal/mol  [=(1)+(2)+(3)-(4)]
DOCKED: USER
DOCKED: USER    (1) Final Intermolecular Energy     = -10.89 kcal/mol
DOCKED: USER        vdW + Hbond + desolv Energy     = -10.76 kcal/mol
DOCKED: USER        Electrostatic Energy            =  -0.13 kcal/mol
DOCKED: USER        Moving Ligand-Fixed Receptor    = -10.89 kcal/mol
DOCKED: USER        Moving Ligand-Moving Receptor   =  +0.00 kcal/mol
DOCKED: USER    (2) Final Total Internal Energy     =  -1.06 kcal/mol
DOCKED: USER    (3) Torsional Free Energy           =  +1.79 kcal/mol
DOCKED: USER    (4) Unbound System's Energy         =  -1.06 kcal/mol
DOCKED: USER
DOCKED: USER
DOCKED: REMARK SMILES O=C(N/C=C(\O)N1CCCC[C@H]1C1CCCCC1)c1ccc2cc(F)ccc2n1
DOCKED: REMARK SMILES IDX 4 1 5 2 6 3 7 5 8 6 12 7 9 8 11 9 10 10 13 11 14 12 18 13
DOCKED: REMARK SMILES IDX 15 14 17 15 16 16 3 17 2 18 1 20 19 21 29 22 20 23 28 24
DOCKED: REMARK SMILES IDX 21 25 27 26 22 27 26 28 23 29 24 30 25 31
DOCKED: REMARK H PARENT 6 4 3 19
DOCKED: USER                              x       y       z     vdW  Elec       q    Type
DOCKED: USER                           _______ _______ _______ _____ _____    ______ ____
DOCKED: ROOT
DOCKED: ATOM      1  C   UNL     1     139.656  74.463 221.515 -0.22 -0.03    +0.152 C  
DOCKED: ENDROOT
DOCKED: BRANCH   1   2
DOCKED: ATOM      2  C   UNL     1     140.055  75.681 221.909 -0.26 -0.04    +0.203 C  
DOCKED: BRANCH   2   3
DOCKED: ATOM      3  O   UNL     1     141.403  75.920 222.172 -0.16 +0.18    -0.494 OA 
DOCKED: ATOM      4  H   UNL     1     141.962  76.525 221.586 -0.42 -0.22    +0.295 HD 
DOCKED: ENDBRANCH   2   3
DOCKED: BRANCH   2   5
DOCKED: ATOM      5  N   UNL     1     139.085  76.731 222.112 -0.15 +0.07    -0.339 N  
DOCKED: ATOM      6  C   UNL     1     137.735  76.392 222.592 -0.24 -0.03    +0.120 C  
DOCKED: ATOM      7  C   UNL     1     139.447  78.141 221.850 -0.23 -0.02    +0.088 C  
DOCKED: ATOM      8  C   UNL     1     136.664  77.042 221.705 -0.13 -0.00    +0.022 C  
DOCKED: ATOM      9  C   UNL     1     138.215  79.064 222.018 -0.19 -0.00    +0.025 C  
DOCKED: ATOM     10  C   UNL     1     137.011  78.482 221.271 -0.09 -0.00    +0.004 C  
DOCKED: BRANCH   7  11
DOCKED: ATOM     11  C   UNL     1     140.669  78.574 222.720 -0.46 -0.00    +0.012 C  
DOCKED: ATOM     12  C   UNL     1     141.874  79.027 221.857 -0.45 -0.00    +0.006 C  
DOCKED: ATOM     13  C   UNL     1     140.313  79.593 223.844 -0.46 -0.00    +0.006 C  
DOCKED: ATOM     14  C   UNL     1     142.951  79.675 222.733 -0.58 -0.00    +0.000 C  
DOCKED: ATOM     15  C   UNL     1     140.899  80.987 223.586 -0.45 -0.00    +0.000 C  
DOCKED: ATOM     16  C   UNL     1     142.432  80.944 223.443 -0.64 -0.00    +0.000 C  
DOCKED: ENDBRANCH   7  11
DOCKED: ENDBRANCH   2   5
DOCKED: ENDBRANCH   1   2
DOCKED: BRANCH   1  17
DOCKED: ATOM     17  N   UNL     1     139.466  73.378 222.436 -0.07 +0.07    -0.322 N  
DOCKED: ATOM     18  C   UNL     1     140.375  72.271 222.553 -0.21 -0.03    +0.273 C  
DOCKED: ATOM     19  H   UNL     1     138.533  73.312 222.901 -0.50 -0.09    +0.169 HD 
DOCKED: ATOM     20  O   UNL     1     141.287  72.112 221.695 -0.19 +0.02    -0.267 OA 
DOCKED: BRANCH  18  21
DOCKED: ATOM     21  C   UNL     1     140.228  71.300 223.658 -0.33 -0.02    +0.129 A  
DOCKED: ATOM     22  N   UNL     1     140.711  71.608 224.893 -0.31 +0.03    -0.243 NA 
DOCKED: ATOM     23  C   UNL     1     139.606  70.056 223.452 -0.25 -0.01    +0.035 A  
DOCKED: ATOM     24  C   UNL     1     140.610  70.754 225.946 -0.53 -0.01    +0.071 A  
DOCKED: ATOM     25  C   UNL     1     139.487  69.156 224.513 -0.33 -0.00    +0.013 A  
DOCKED: ATOM     26  C   UNL     1     141.119  71.115 227.198 -0.66 -0.01    +0.032 A  
DOCKED: ATOM     27  C   UNL     1     139.990  69.497 225.775 -0.47 -0.00    +0.003 A  
DOCKED: ATOM     28  C   UNL     1     141.014  70.233 228.278 -0.53 -0.01    +0.041 A  
DOCKED: ATOM     29  C   UNL     1     139.887  68.616 226.863 -0.57 -0.01    +0.049 A  
DOCKED: ATOM     30  C   UNL     1     140.399  68.986 228.111 -0.54 -0.02    +0.123 A  
DOCKED: ATOM     31  F   UNL     1     140.301  68.136 229.162 -0.15 +0.05    -0.207 F  
DOCKED: ENDBRANCH  18  21
DOCKED: ENDBRANCH   1  17
DOCKED: TORSDOF 6
DOCKED: TER
DOCKED: ENDMDL
________________________________________________________________________________


    FINAL DOCKED STATE:
    ________________________


Run:   17 / 20
Time taken for this run:   0.045s

DOCKED: MODEL        17
DOCKED: USER    Run = 17
DOCKED: USER
DOCKED: USER    Estimated Free Energy of Binding    =  -7.81 kcal/mol  [=(1)+(2)+(3)-(4)]
DOCKED: USER
DOCKED: USER    (1) Final Intermolecular Energy     =  -9.60 kcal/mol
DOCKED: USER        vdW + Hbond + desolv Energy     =  -9.57 kcal/mol
DOCKED: USER        Electrostatic Energy            =  -0.03 kcal/mol
DOCKED: USER        Moving Ligand-Fixed Receptor    =  -9.60 kcal/mol
DOCKED: USER        Moving Ligand-Moving Receptor   =  +0.00 kcal/mol
DOCKED: USER    (2) Final Total Internal Energy     =  -2.03 kcal/mol
DOCKED: USER    (3) Torsional Free Energy           =  +1.79 kcal/mol
DOCKED: USER    (4) Unbound System's Energy         =  -2.03 kcal/mol
DOCKED: USER
DOCKED: USER
DOCKED: REMARK SMILES O=C(N/C=C(\O)N1CCCC[C@H]1C1CCCCC1)c1ccc2cc(F)ccc2n1
DOCKED: REMARK SMILES IDX 4 1 5 2 6 3 7 5 8 6 12 7 9 8 11 9 10 10 13 11 14 12 18 13
DOCKED: REMARK SMILES IDX 15 14 17 15 16 16 3 17 2 18 1 20 19 21 29 22 20 23 28 24
DOCKED: REMARK SMILES IDX 21 25 27 26 22 27 26 28 23 29 24 30 25 31
DOCKED: REMARK H PARENT 6 4 3 19
DOCKED: USER                              x       y       z     vdW  Elec       q    Type
DOCKED: USER                           _______ _______ _______ _____ _____    ______ ____
DOCKED: ROOT
DOCKED: ATOM      1  C   UNL     1     140.735  73.704 221.492 -0.24 -0.02    +0.152 C  
DOCKED: ENDROOT
DOCKED: BRANCH   1   2
DOCKED: ATOM      2  C   UNL     1     139.972  74.800 221.368 -0.21 -0.04    +0.203 C  
DOCKED: BRANCH   2   3
DOCKED: ATOM      3  O   UNL     1     138.734  74.860 222.006 -0.18 +0.13    -0.494 OA 
DOCKED: ATOM      4  H   UNL     1     138.473  74.202 222.728 -0.50 -0.15    +0.295 HD 
DOCKED: ENDBRANCH   2   3
DOCKED: BRANCH   2   5
DOCKED: ATOM      5  N   UNL     1     140.407  75.894 220.534 -0.07 +0.10    -0.339 N  
DOCKED: ATOM      6  C   UNL     1     139.810  76.075 219.201 -0.05 -0.03    +0.120 C  
DOCKED: ATOM      7  C   UNL     1     141.439  76.838 221.020 -0.23 -0.04    +0.088 C  
DOCKED: ATOM      8  C   UNL     1     140.903  76.238 218.135 -0.07 -0.01    +0.022 C  
DOCKED: ATOM      9  C   UNL     1     141.826  77.846 219.910 -0.29 -0.01    +0.025 C  
DOCKED: ATOM     10  C   UNL     1     142.091  77.108 218.594 -0.26 -0.00    +0.004 C  
DOCKED: BRANCH   7  11
DOCKED: ATOM     11  C   UNL     1     140.986  77.522 222.348 -0.43 -0.00    +0.012 C  
DOCKED: ATOM     12  C   UNL     1     141.860  78.752 222.702 -0.49 -0.00    +0.006 C  
DOCKED: ATOM     13  C   UNL     1     139.460  77.827 222.412 -0.33 -0.00    +0.006 C  
DOCKED: ATOM     14  C   UNL     1     141.240  79.539 223.861 -0.57 -0.00    +0.000 C  
DOCKED: ATOM     15  C   UNL     1     139.153  79.329 222.357 -0.28 -0.00    +0.000 C  
DOCKED: ATOM     16  C   UNL     1     139.845  80.095 223.500 -0.45 -0.00    +0.000 C  
DOCKED: ENDBRANCH   7  11
DOCKED: ENDBRANCH   2   5
DOCKED: ENDBRANCH   1   2
DOCKED: BRANCH   1  17
DOCKED: ATOM     17  N   UNL     1     140.680  72.852 222.646 -0.10 -0.00    -0.322 N  
DOCKED: ATOM     18  C   UNL     1     139.570  71.988 222.939 -0.18 -0.06    +0.273 C  
DOCKED: ATOM     19  H   UNL     1     141.399  73.012 223.386 +0.13 +0.04    +0.169 HD 
DOCKED: ATOM     20  O   UNL     1     138.497  72.097 222.284 -0.13 +0.07    -0.267 OA 
DOCKED: BRANCH  18  21
DOCKED: ATOM     21  C   UNL     1     139.669  70.990 224.026 -0.33 -0.02    +0.129 A  
DOCKED: ATOM     22  N   UNL     1     140.322  71.312 225.177 -0.32 +0.04    -0.243 NA 
DOCKED: ATOM     23  C   UNL     1     139.107  69.709 223.888 -0.28 -0.01    +0.035 A  
DOCKED: ATOM     24  C   UNL     1     140.449  70.436 226.208 -0.51 -0.01    +0.071 A  
DOCKED: ATOM     25  C   UNL     1     139.221  68.785 224.930 -0.40 -0.00    +0.013 A  
DOCKED: ATOM     26  C   UNL     1     141.128  70.812 227.373 -0.60 -0.01    +0.032 A  
DOCKED: ATOM     27  C   UNL     1     139.896  69.141 226.104 -0.51 -0.00    +0.003 A  
DOCKED: ATOM     28  C   UNL     1     141.257  69.907 228.431 -0.39 -0.01    +0.041 A  
DOCKED: ATOM     29  C   UNL     1     140.029  68.238 227.170 -0.62 -0.01    +0.049 A  
DOCKED: ATOM     30  C   UNL     1     140.709  68.623 228.330 -0.56 -0.03    +0.123 A  
DOCKED: ATOM     31  F   UNL     1     140.839  67.750 229.360 -0.14 +0.06    -0.207 F  
DOCKED: ENDBRANCH  18  21
DOCKED: ENDBRANCH   1  17
DOCKED: TORSDOF 6
DOCKED: TER
DOCKED: ENDMDL
________________________________________________________________________________


    FINAL DOCKED STATE:
    ________________________


Run:   18 / 20
Time taken for this run:   0.045s

DOCKED: MODEL        18
DOCKED: USER    Run = 18
DOCKED: USER
DOCKED: USER    Estimated Free Energy of Binding    =  -8.83 kcal/mol  [=(1)+(2)+(3)-(4)]
DOCKED: USER
DOCKED: USER    (1) Final Intermolecular Energy     = -10.62 kcal/mol
DOCKED: USER        vdW + Hbond + desolv Energy     = -10.39 kcal/mol
DOCKED: USER        Electrostatic Energy            =  -0.23 kcal/mol
DOCKED: USER        Moving Ligand-Fixed Receptor    = -10.62 kcal/mol
DOCKED: USER        Moving Ligand-Moving Receptor   =  +0.00 kcal/mol
DOCKED: USER    (2) Final Total Internal Energy     =  -1.15 kcal/mol
DOCKED: USER    (3) Torsional Free Energy           =  +1.79 kcal/mol
DOCKED: USER    (4) Unbound System's Energy         =  -1.15 kcal/mol
DOCKED: USER
DOCKED: USER
DOCKED: REMARK SMILES O=C(N/C=C(\O)N1CCCC[C@H]1C1CCCCC1)c1ccc2cc(F)ccc2n1
DOCKED: REMARK SMILES IDX 4 1 5 2 6 3 7 5 8 6 12 7 9 8 11 9 10 10 13 11 14 12 18 13
DOCKED: REMARK SMILES IDX 15 14 17 15 16 16 3 17 2 18 1 20 19 21 29 22 20 23 28 24
DOCKED: REMARK SMILES IDX 21 25 27 26 22 27 26 28 23 29 24 30 25 31
DOCKED: REMARK H PARENT 6 4 3 19
DOCKED: USER                              x       y       z     vdW  Elec       q    Type
DOCKED: USER                           _______ _______ _______ _____ _____    ______ ____
DOCKED: ROOT
DOCKED: ATOM      1  C   UNL     1     139.810  74.762 221.228 -0.21 -0.03    +0.152 C  
DOCKED: ENDROOT
DOCKED: BRANCH   1   2
DOCKED: ATOM      2  C   UNL     1     140.619  75.814 221.424 -0.25 -0.06    +0.203 C  
DOCKED: BRANCH   2   3
DOCKED: ATOM      3  O   UNL     1     141.108  76.086 222.701 -0.08 +0.13    -0.494 OA 
DOCKED: ATOM      4  H   UNL     1     142.069  76.356 222.857 -0.35 -0.23    +0.295 HD 
DOCKED: ENDBRANCH   2   3
DOCKED: BRANCH   2   5
DOCKED: ATOM      5  N   UNL     1     140.942  76.693 220.326 -0.07 +0.13    -0.339 N  
DOCKED: ATOM      6  C   UNL     1     140.384  76.426 218.990 -0.06 -0.04    +0.120 C  
DOCKED: ATOM      7  C   UNL     1     141.819  77.865 220.543 -0.28 -0.05    +0.088 C  
DOCKED: ATOM      8  C   UNL     1     141.490  76.445 217.926 -0.11 -0.01    +0.022 C  
DOCKED: ATOM      9  C   UNL     1     142.118  78.582 219.203 -0.25 -0.02    +0.025 C  
DOCKED: ATOM     10  C   UNL     1     142.534  77.562 218.138 -0.31 -0.00    +0.004 C  
DOCKED: BRANCH   7  11
DOCKED: ATOM     11  C   UNL     1     141.224  78.812 221.633 -0.38 -0.01    +0.012 C  
DOCKED: ATOM     12  C   UNL     1     142.189  79.010 222.829 -0.55 -0.00    +0.006 C  
DOCKED: ATOM     13  C   UNL     1     140.677  80.157 221.069 -0.27 -0.00    +0.006 C  
DOCKED: ATOM     14  C   UNL     1     141.688  80.129 223.748 -0.60 -0.00    +0.000 C  
DOCKED: ATOM     15  C   UNL     1     141.526  81.364 221.488 -0.41 -0.00    +0.000 C  
DOCKED: ATOM     16  C   UNL     1     141.623  81.489 223.020 -0.52 -0.00    +0.000 C  
DOCKED: ENDBRANCH   7  11
DOCKED: ENDBRANCH   2   5
DOCKED: ENDBRANCH   1   2
DOCKED: BRANCH   1  17
DOCKED: ATOM     17  N   UNL     1     139.578  73.768 222.237 -0.13 +0.05    -0.322 N  
DOCKED: ATOM     18  C   UNL     1     140.157  72.453 222.200 -0.20 -0.04    +0.273 C  
DOCKED: ATOM     19  H   UNL     1     138.813  73.959 222.921 -0.55 -0.09    +0.169 HD 
DOCKED: ATOM     20  O   UNL     1     140.742  72.052 221.156 -0.13 +0.04    -0.267 OA 
DOCKED: BRANCH  18  21
DOCKED: ATOM     21  C   UNL     1     140.043  71.556 223.369 -0.31 -0.02    +0.129 A  
DOCKED: ATOM     22  N   UNL     1     140.590  71.928 224.559 -0.23 +0.03    -0.243 NA 
DOCKED: ATOM     23  C   UNL     1     139.387  70.316 223.271 -0.26 -0.01    +0.035 A  
DOCKED: ATOM     24  C   UNL     1     140.522  71.143 225.667 -0.53 -0.01    +0.071 A  
DOCKED: ATOM     25  C   UNL     1     139.301  69.486 224.391 -0.33 -0.00    +0.013 A  
DOCKED: ATOM     26  C   UNL     1     141.098  71.569 226.869 -0.72 -0.01    +0.032 A  
DOCKED: ATOM     27  C   UNL     1     139.869  69.893 225.604 -0.46 -0.00    +0.003 A  
DOCKED: ATOM     28  C   UNL     1     141.026  70.758 228.006 -0.64 -0.01    +0.041 A  
DOCKED: ATOM     29  C   UNL     1     139.801  69.084 226.749 -0.52 -0.01    +0.049 A  
DOCKED: ATOM     30  C   UNL     1     140.379  69.519 227.947 -0.52 -0.02    +0.123 A  
DOCKED: ATOM     31  F   UNL     1     140.314  68.737 229.053 -0.14 +0.04    -0.207 F  
DOCKED: ENDBRANCH  18  21
DOCKED: ENDBRANCH   1  17
DOCKED: TORSDOF 6
DOCKED: TER
DOCKED: ENDMDL
________________________________________________________________________________


    FINAL DOCKED STATE:
    ________________________


Run:   19 / 20
Time taken for this run:   0.045s

DOCKED: MODEL        19
DOCKED: USER    Run = 19
DOCKED: USER
DOCKED: USER    Estimated Free Energy of Binding    =  -8.00 kcal/mol  [=(1)+(2)+(3)-(4)]
DOCKED: USER
DOCKED: USER    (1) Final Intermolecular Energy     =  -9.79 kcal/mol
DOCKED: USER        vdW + Hbond + desolv Energy     =  -9.80 kcal/mol
DOCKED: USER        Electrostatic Energy            =  +0.01 kcal/mol
DOCKED: USER        Moving Ligand-Fixed Receptor    =  -9.79 kcal/mol
DOCKED: USER        Moving Ligand-Moving Receptor   =  +0.00 kcal/mol
DOCKED: USER    (2) Final Total Internal Energy     =  -1.87 kcal/mol
DOCKED: USER    (3) Torsional Free Energy           =  +1.79 kcal/mol
DOCKED: USER    (4) Unbound System's Energy         =  -1.87 kcal/mol
DOCKED: USER
DOCKED: USER
DOCKED: REMARK SMILES O=C(N/C=C(\O)N1CCCC[C@H]1C1CCCCC1)c1ccc2cc(F)ccc2n1
DOCKED: REMARK SMILES IDX 4 1 5 2 6 3 7 5 8 6 12 7 9 8 11 9 10 10 13 11 14 12 18 13
DOCKED: REMARK SMILES IDX 15 14 17 15 16 16 3 17 2 18 1 20 19 21 29 22 20 23 28 24
DOCKED: REMARK SMILES IDX 21 25 27 26 22 27 26 28 23 29 24 30 25 31
DOCKED: REMARK H PARENT 6 4 3 19
DOCKED: USER                              x       y       z     vdW  Elec       q    Type
DOCKED: USER                           _______ _______ _______ _____ _____    ______ ____
DOCKED: ROOT
DOCKED: ATOM      1  C   UNL     1     139.191  74.410 221.236 -0.17 -0.03    +0.152 C  
DOCKED: ENDROOT
DOCKED: BRANCH   1   2
DOCKED: ATOM      2  C   UNL     1     139.825  75.548 221.555 -0.24 -0.04    +0.203 C  
DOCKED: BRANCH   2   3
DOCKED: ATOM      3  O   UNL     1     141.211  75.630 221.428 -0.18 +0.16    -0.494 OA 
DOCKED: ATOM      4  H   UNL     1     141.833  75.069 221.995 -0.06 -0.07    +0.295 HD 
DOCKED: ENDBRANCH   2   3
DOCKED: BRANCH   2   5
DOCKED: ATOM      5  N   UNL     1     139.082  76.669 222.078 -0.15 +0.07    -0.339 N  
DOCKED: ATOM      6  C   UNL     1     138.043  76.443 223.095 -0.13 -0.03    +0.120 C  
DOCKED: ATOM      7  C   UNL     1     139.370  78.041 221.603 -0.20 -0.02    +0.088 C  
DOCKED: ATOM      8  C   UNL     1     136.732  77.136 222.696 -0.22 -0.00    +0.022 C  
DOCKED: ATOM      9  C   UNL     1     138.369  79.053 222.212 -0.21 -0.00    +0.025 C  
DOCKED: ATOM     10  C   UNL     1     136.936  78.532 222.070 -0.15 -0.00    +0.004 C  
DOCKED: BRANCH   7  11
DOCKED: ATOM     11  C   UNL     1     140.864  78.416 221.859 -0.37 -0.00    +0.012 C  
DOCKED: ATOM     12  C   UNL     1     141.158  79.904 221.539 -0.37 -0.00    +0.006 C  
DOCKED: ATOM     13  C   UNL     1     141.392  77.984 223.259 -0.39 -0.00    +0.006 C  
DOCKED: ATOM     14  C   UNL     1     142.554  80.296 222.034 -0.49 -0.00    +0.000 C  
DOCKED: ATOM     15  C   UNL     1     141.666  79.177 224.183 -0.52 -0.00    +0.000 C  
DOCKED: ATOM     16  C   UNL     1     142.684  80.154 223.566 -0.66 -0.00    +0.000 C  
DOCKED: ENDBRANCH   7  11
DOCKED: ENDBRANCH   2   5
DOCKED: ENDBRANCH   1   2
DOCKED: BRANCH   1  17
DOCKED: ATOM     17  N   UNL     1     139.137  73.282 222.122 -0.12 +0.08    -0.322 N  
DOCKED: ATOM     18  C   UNL     1     140.306  72.646 222.666 -0.16 -0.02    +0.273 C  
DOCKED: ATOM     19  H   UNL     1     138.215  72.803 222.222 -0.04 -0.05    +0.169 HD 
DOCKED: ATOM     20  O   UNL     1     141.449  72.940 222.216 -0.22 -0.01    -0.267 OA 
DOCKED: BRANCH  18  21
DOCKED: ATOM     21  C   UNL     1     140.174  71.626 223.728 -0.33 -0.02    +0.129 A  
DOCKED: ATOM     22  N   UNL     1     140.653  71.889 224.976 -0.28 +0.03    -0.243 NA 
DOCKED: ATOM     23  C   UNL     1     139.572  70.383 223.468 -0.29 -0.01    +0.035 A  
DOCKED: ATOM     24  C   UNL     1     140.564  70.989 225.991 -0.55 -0.01    +0.071 A  
DOCKED: ATOM     25  C   UNL     1     139.467  69.436 224.491 -0.34 -0.00    +0.013 A  
DOCKED: ATOM     26  C   UNL     1     141.069  71.304 227.257 -0.71 -0.01    +0.032 A  
DOCKED: ATOM     27  C   UNL     1     139.964  69.731 225.766 -0.47 -0.00    +0.003 A  
DOCKED: ATOM     28  C   UNL     1     140.977  70.375 228.299 -0.53 -0.01    +0.041 A  
DOCKED: ATOM     29  C   UNL     1     139.875  68.803 226.815 -0.55 -0.01    +0.049 A  
DOCKED: ATOM     30  C   UNL     1     140.382  69.128 228.078 -0.53 -0.02    +0.123 A  
DOCKED: ATOM     31  F   UNL     1     140.296  68.231 229.092 -0.17 +0.05    -0.207 F  
DOCKED: ENDBRANCH  18  21
DOCKED: ENDBRANCH   1  17
DOCKED: TORSDOF 6
DOCKED: TER
DOCKED: ENDMDL
________________________________________________________________________________


    FINAL DOCKED STATE:
    ________________________


Run:   20 / 20
Time taken for this run:   0.045s

DOCKED: MODEL        20
DOCKED: USER    Run = 20
DOCKED: USER
DOCKED: USER    Estimated Free Energy of Binding    =  -7.96 kcal/mol  [=(1)+(2)+(3)-(4)]
DOCKED: USER
DOCKED: USER    (1) Final Intermolecular Energy     =  -9.75 kcal/mol
DOCKED: USER        vdW + Hbond + desolv Energy     =  -9.70 kcal/mol
DOCKED: USER        Electrostatic Energy            =  -0.06 kcal/mol
DOCKED: USER        Moving Ligand-Fixed Receptor    =  -9.75 kcal/mol
DOCKED: USER        Moving Ligand-Moving Receptor   =  +0.00 kcal/mol
DOCKED: USER    (2) Final Total Internal Energy     =  -1.99 kcal/mol
DOCKED: USER    (3) Torsional Free Energy           =  +1.79 kcal/mol
DOCKED: USER    (4) Unbound System's Energy         =  -1.99 kcal/mol
DOCKED: USER
DOCKED: USER
DOCKED: REMARK SMILES O=C(N/C=C(\O)N1CCCC[C@H]1C1CCCCC1)c1ccc2cc(F)ccc2n1
DOCKED: REMARK SMILES IDX 4 1 5 2 6 3 7 5 8 6 12 7 9 8 11 9 10 10 13 11 14 12 18 13
DOCKED: REMARK SMILES IDX 15 14 17 15 16 16 3 17 2 18 1 20 19 21 29 22 20 23 28 24
DOCKED: REMARK SMILES IDX 21 25 27 26 22 27 26 28 23 29 24 30 25 31
DOCKED: REMARK H PARENT 6 4 3 19
DOCKED: USER                              x       y       z     vdW  Elec       q    Type
DOCKED: USER                           _______ _______ _______ _____ _____    ______ ____
DOCKED: ROOT
DOCKED: ATOM      1  C   UNL     1     140.604  73.521 221.527 -0.24 -0.02    +0.152 C  
DOCKED: ENDROOT
DOCKED: BRANCH   1   2
DOCKED: ATOM      2  C   UNL     1     139.966  74.700 221.526 -0.22 -0.03    +0.203 C  
DOCKED: BRANCH   2   3
DOCKED: ATOM      3  O   UNL     1     138.845  74.885 222.334 -0.28 +0.13    -0.494 OA 
DOCKED: ATOM      4  H   UNL     1     138.489  74.149 222.928 -0.50 -0.19    +0.295 HD 
DOCKED: ENDBRANCH   2   3
DOCKED: BRANCH   2   5
DOCKED: ATOM      5  N   UNL     1     140.407  75.760 220.651 -0.08 +0.10    -0.339 N  
DOCKED: ATOM      6  C   UNL     1     139.841  75.869 219.297 -0.05 -0.03    +0.120 C  
DOCKED: ATOM      7  C   UNL     1     141.414  76.740 221.116 -0.22 -0.04    +0.088 C  
DOCKED: ATOM      8  C   UNL     1     140.957  75.997 218.250 -0.07 -0.01    +0.022 C  
DOCKED: ATOM      9  C   UNL     1     141.815  77.700 219.969 -0.29 -0.01    +0.025 C  
DOCKED: ATOM     10  C   UNL     1     142.123  76.905 218.696 -0.26 -0.00    +0.004 C  
DOCKED: BRANCH   7  11
DOCKED: ATOM     11  C   UNL     1     140.920  77.480 222.399 -0.42 -0.00    +0.012 C  
DOCKED: ATOM     12  C   UNL     1     141.815  78.693 222.758 -0.50 -0.00    +0.006 C  
DOCKED: ATOM     13  C   UNL     1     139.403  77.834 222.378 -0.33 -0.00    +0.006 C  
DOCKED: ATOM     14  C   UNL     1     141.166  79.535 223.860 -0.56 -0.00    +0.000 C  
DOCKED: ATOM     15  C   UNL     1     139.148  79.342 222.262 -0.26 -0.00    +0.000 C  
DOCKED: ATOM     16  C   UNL     1     139.808  80.122 223.415 -0.44 -0.00    +0.000 C  
DOCKED: ENDBRANCH   7  11
DOCKED: ENDBRANCH   2   5
DOCKED: ENDBRANCH   1   2
DOCKED: BRANCH   1  17
DOCKED: ATOM     17  N   UNL     1     140.636  72.662 222.677 -0.17 +0.01    -0.322 N  
DOCKED: ATOM     18  C   UNL     1     139.523  71.853 223.092 -0.20 -0.06    +0.273 C  
DOCKED: ATOM     19  H   UNL     1     141.441  72.779 223.332 +0.11 +0.03    +0.169 HD 
DOCKED: ATOM     20  O   UNL     1     138.390  72.022 222.563 -0.14 +0.07    -0.267 OA 
DOCKED: BRANCH  18  21
DOCKED: ATOM     21  C   UNL     1     139.692  70.842 224.158 -0.33 -0.02    +0.129 A  
DOCKED: ATOM     22  N   UNL     1     140.314  71.187 225.319 -0.33 +0.04    -0.243 NA 
DOCKED: ATOM     23  C   UNL     1     139.231  69.525 223.988 -0.29 -0.01    +0.035 A  
DOCKED: ATOM     24  C   UNL     1     140.502  70.301 226.332 -0.51 -0.01    +0.071 A  
DOCKED: ATOM     25  C   UNL     1     139.410  68.590 225.011 -0.40 -0.00    +0.013 A  
DOCKED: ATOM     26  C   UNL     1     141.145  70.702 227.509 -0.57 -0.01    +0.032 A  
DOCKED: ATOM     27  C   UNL     1     140.050  68.970 226.197 -0.53 -0.00    +0.003 A  
DOCKED: ATOM     28  C   UNL     1     141.338  69.786 228.548 -0.32 -0.01    +0.041 A  
DOCKED: ATOM     29  C   UNL     1     140.247  68.057 227.244 -0.62 -0.01    +0.049 A  
DOCKED: ATOM     30  C   UNL     1     140.890  68.467 228.417 -0.55 -0.03    +0.123 A  
DOCKED: ATOM     31  F   UNL     1     141.081  67.584 229.428 -0.13 +0.06    -0.207 F  
DOCKED: ENDBRANCH  18  21
DOCKED: ENDBRANCH   1  17
DOCKED: TORSDOF 6
DOCKED: TER
DOCKED: ENDMDL
________________________________________________________________________________


    CLUSTERING HISTOGRAM
    ____________________


________________________________________________________________________________
     |           |     |           |     |
Clus | Lowest    | Run | Mean      | Num | Histogram
-ter | Binding   |     | Binding   | in  |
Rank | Energy    |     | Energy    | Clus|    5    10   15   20   25   30   35
_____|___________|_____|___________|_____|____:____|____:____|____:____|____:___
   1 |     -9.12 |   9 |     -8.63 |  16 |################
   2 |     -8.32 |   4 |     -8.32 |   1 |#
   3 |     -8.04 |  11 |     -7.99 |   3 |###
_____|___________|_____|___________|_____|______________________________________


    RMSD TABLE
    __________


_______________________________________________________________________
     |      |      |           |         |                 |
Rank | Sub- | Run  | Binding   | Cluster | Reference       | Grep
     | Rank |      | Energy    | RMSD    | RMSD            | Pattern
_____|______|______|___________|_________|_________________|___________
   1      1      9       -9.12      0.00    273.45           RANKING
   1      2      2       -9.12      0.23    273.51           RANKING
   1      3     10       -9.10      0.06    273.43           RANKING
   1      4     16       -9.10      0.39    273.46           RANKING
   1      5      1       -9.09      0.19    273.49           RANKING
   1      6     12       -8.85      1.51    273.24           RANKING
   1      7     18       -8.83      1.54    273.25           RANKING
   1      8      6       -8.78      1.41    273.24           RANKING
   1      9      5       -8.64      1.62    273.08           RANKING
   1     10      8       -8.62      1.62    273.11           RANKING
   1     11      7       -8.62      1.63    273.09           RANKING
   1     12     14       -8.39      0.56    273.46           RANKING
   1     13     15       -8.03      1.40    273.14           RANKING
   1     14     19       -8.00      0.71    273.41           RANKING
   1     15     20       -7.96      1.69    273.18           RANKING
   1     16     17       -7.81      1.67    273.12           RANKING
   2      1      4       -8.32      0.00    272.85           RANKING
   3      1     11       -8.04      0.00    273.12           RANKING
   3      2      3       -7.99      0.27    273.08           RANKING
   3      3     13       -7.94      0.45    272.99           RANKING

Run time 0.870 sec
Idle time 0.000 sec
